FOO
141312
    1MOL0     O    1   4.021   5.835   5.950  1.0633  0.0697 -0.2793
    1MOL0     C    2   3.945   5.822   6.041  1.0528  0.2247  0.2626
    1MOL0     O    3   3.976   5.773   6.168 -0.1548 -0.0639 -0.3671
    1MOL0     C    4   4.103   5.709   6.177  0.5256  0.4005  0.2037
    1MOL0     C    5   4.195   5.750   6.265  0.0158  0.0539  0.0374
    1MOL0     C    6   4.307   5.668   6.281 -0.1093 -1.0668  0.5014
    1MOL0     C    7   4.330   5.553   6.210 -0.2067  0.5407 -0.4565
    1MOL0     O    8   4.454   5.499   6.236 -0.0702 -0.0642  0.5807
    1MOL0     C    9   4.533   5.447   6.129  0.9284  0.6732  0.1413
    1MOL0     C   10   4.677   5.439   6.169 -0.4251  0.3810  0.2359
    1MOL0     C   11   4.758   5.349   6.067 -1.0359  0.1013 -0.3736
    1MOL0     C   12   4.899   5.333   6.109 -0.0875  0.0793  0.0110
    1MOL0     C   13   4.991   5.305   5.990 -0.8641  0.3069  0.4784
    1MOL0     C   14   5.126   5.255   6.023 -0.8628  0.1424 -0.0651
    1MOL0     C   15   5.192   5.215   5.891 -0.0216  0.2644  0.9622
    1MOL0     C   16   5.333   5.160   5.918  0.3384 -0.3262 -0.5430
    1MOL0     N   17   5.417   5.141   5.797 -0.9502  0.3559 -0.2991
    1MOL0     C   18   5.475   5.253   5.740  0.0038 -0.0776 -0.5048
    1MOL0     C   19   5.462   5.222   5.608 -0.4209 -0.1379 -0.0924
    1MOL0     C   20   5.498   5.311   5.494 -0.8353 -0.9675 -0.2848
    1MOL0     C   21   5.643   5.368   5.522 -0.0249  0.6262 -0.3537
    1MOL0     C   22   5.745   5.259   5.463 -0.9146  0.4938 -0.6839
    1MOL0     C   23   5.883   5.321   5.477 -0.8761  0.0401 -0.1119
    1MOL0     O   24   5.923   5.350   5.612 -0.2257  0.2967 -0.0239
    1MOL0     C   25   6.052   5.380   5.623 -0.0304 -0.3888 -0.4058
    1MOL0     C   26   6.103   5.350   5.748  1.4360  0.0538 -0.3489
    1MOL0     C   27   6.233   5.379   5.785  0.1754  0.3993  0.1916
    1MOL0     C   28   6.282   5.358   5.927  0.2057 -1.6209  0.0407
    1MOL0     C   29   6.315   5.451   5.691 -0.7022  0.3682  0.3798
    1MOL0     C   30   6.457   5.488   5.717  0.8348 -0.5524  0.7107
    1MOL0     O   31   6.494   5.612   5.666  0.6905 -0.3368 -0.3955
    1MOL0     C   32   6.618   5.660   5.705 -0.7296  0.3767  0.0184
    1MOL0     C   33   6.736   5.634   5.635 -0.0630  0.0842  0.7324
    1MOL0     C   34   6.859   5.678   5.677 -0.1379 -0.3859 -0.0222
    1MOL0     C   35   6.881   5.756   5.788  0.4137  0.8963 -0.5704
    1MOL0     O   36   6.997   5.811   5.836  0.1827  0.1186 -0.4760
    1MOL0     C   37   7.081   5.863   5.733 -0.5642  0.3074  0.3863
    1MOL0     C   38   7.160   5.984   5.774  0.0373 -0.2564  0.0490
    1MOL0     C   39   7.252   6.026   5.653  1.0613  0.0311 -0.9200
    1MOL0     C   40   7.398   5.965   5.651 -0.3846  0.2701  0.7286
    1MOL0     C   41   7.505   6.023   5.555  0.4197 -0.6607 -0.2054
    1MOL0     C   42   7.645   5.959   5.579  0.9587 -0.0370 -0.4522
    1MOL0     C   43   7.760   6.030   5.498 -0.4864 -0.1622 -0.2026
    1MOL0     C   44   7.903   5.976   5.522 -0.4616 -0.4462  0.5398
    1MOL0    Cl   45   7.937   5.939   5.691 -0.1523  0.1729 -0.3513
    1MOL0     C   46   6.770   5.772   5.867 -0.2290 -0.1364 -0.4109
    1MOL0     C   47   6.640   5.722   5.821 -0.3793 -0.1633  0.1970
    1MOL0     O   48   6.529   5.402   5.769  0.0513 -0.5784 -0.3022
    1MOL0     C   49   6.258   5.494   5.568  0.0509  0.1002  0.2712
    1MOL0     C   50   6.132   5.454   5.534  0.0677  0.2248  0.3273
    1MOL0     N   51   5.415   5.089   5.604  0.0858 -0.0794  0.5431
    1MOL0     N   52   5.389   5.042   5.716  0.0861 -0.4813 -0.3346
    1MOL0     C   53   4.240   5.510   6.115 -0.7042 -0.7654 -0.2712
    1MOL0     C   54   4.119   5.589   6.106 -0.1761 -0.4808 -0.6036
    1MOL0     C   55   3.806   5.887   6.027 -0.4103  1.0082  0.6104
    1MOL0     C   56   3.790   5.980   5.922 -0.1941  0.6844  0.0782
    1MOL0     C   57   3.682   6.059   5.914 -0.3489 -0.4618 -0.6188
    1MOL0     C   58   3.572   6.027   5.993 -0.3757  0.6590  0.6056
    1MOL0     O   59   3.467   6.118   5.982 -0.2918 -0.0230  0.2967
    1MOL0     C   60   3.347   6.086   6.051  0.6023 -0.0381  0.7611
    1MOL0     C   61   3.235   6.181   6.004  0.4699 -0.1513 -0.3276
    1MOL0     C   62   3.257   6.330   6.025  0.4156  0.0450 -0.0622
    1MOL0     C   63   3.146   6.408   5.955  0.6004 -0.1365 -0.6336
    1MOL0     C   64   3.162   6.558   5.990 -0.8910  1.4681 -0.4547
    1MOL0     C   65   3.181   6.671   6.034  0.5130 -0.7287  0.3056
    1MOL0     C   66   3.580   5.927   6.089  0.3938  0.9883 -0.2562
    1MOL0     C   67   3.699   5.867   6.117 -0.0754  0.1793  0.2604
    1MOL0     C   68   3.718   5.781   6.240  0.4347  0.6207 -0.9044
    1MOL0     H   69   4.188   5.842   6.323  1.0252 -0.0878  0.4069
    1MOL0     H   70   4.377   5.709   6.353  0.5970 -0.0771 -0.7107
    1MOL0     H   71   4.518   5.518   6.047 -1.8187  0.9114  0.7227
    1MOL0     H   72   4.491   5.349   6.102  2.1993 -0.3832  1.8001
    1MOL0     H   73   4.710   5.543   6.160 -1.2923  0.5939 -0.6923
    1MOL0     H   74   4.684   5.401   6.271  0.9987 -1.0213 -0.3537
    1MOL0     H   75   4.708   5.252   6.063  0.6977 -0.8967  0.9520
    1MOL0     H   76   4.761   5.397   5.969 -0.3673 -1.7268 -1.2967
    1MOL0     H   77   4.942   5.420   6.160 -0.4568  0.2165  0.0862
    1MOL0     H   78   4.904   5.243   6.171  1.0621  0.3177  0.2962
    1MOL0     H   79   5.006   5.393   5.927  0.7397 -0.2931 -0.0141
    1MOL0     H   80   4.930   5.227   5.943  1.6936 -1.0666 -0.7678
    1MOL0     H   81   5.182   5.333   6.074 -2.9739  0.6409  1.6298
    1MOL0     H   82   5.115   5.174   6.096 -3.2462  1.9670  1.7588
    1MOL0     H   83   5.204   5.308   5.834  0.5741  0.2323  1.0343
    1MOL0     H   84   5.135   5.143   5.832  0.2066  0.8920 -0.0429
    1MOL0     H   85   5.380   5.236   5.981  0.1134  0.4292 -1.2774
    1MOL0     H   86   5.317   5.069   5.977  4.8131  0.5030  2.4494
    1MOL0     H   87   5.513   5.341   5.791 -2.0484  2.3033 -2.7703
    1MOL0     H   88   5.421   5.389   5.489 -3.0098 -2.9047  1.1790
    1MOL0     H   89   5.496   5.246   5.406  2.0592  0.4709 -1.5795
    1MOL0     H   90   5.647   5.469   5.481 -2.8567  1.3593  0.9472
    1MOL0     H   91   5.656   5.369   5.631 -3.3072  2.1654  0.1602
    1MOL0     H   92   5.744   5.166   5.521 -1.2736  1.1457  0.3786
    1MOL0     H   93   5.732   5.237   5.357  0.1399 -0.5765 -0.6221
    1MOL0     H   94   5.961   5.258   5.434  0.1831  0.4579  1.1465
    1MOL0     H   95   5.887   5.412   5.415 -0.9531  1.1393  1.4300
    1MOL0     H   96   6.042   5.292   5.817 -2.5004  1.8098 -2.0713
    1MOL0     H   97   6.363   5.288   5.948  2.3242  0.1357 -1.7647
    1MOL0     H   98   6.193   5.339   5.988 -1.5322  5.2554  0.4956
    1MOL0     H   99   6.318   5.454   5.967 -2.9234 -0.0285 -0.6506
    1MOL0     H  100   6.739   5.576   5.543 -2.5718  2.8353 -1.2630
    1MOL0     H  101   6.949   5.649   5.624 -1.8793 -2.5949 -1.9759
    1MOL0     H  102   7.138   5.779   5.693 -2.4074 -1.3357  1.0275
    1MOL0     H  103   7.016   5.909   5.658  1.2799  1.0523 -0.8162
    1MOL0     H  104   7.093   6.070   5.784 -0.3322 -0.3682 -1.3718
    1MOL0     H  105   7.205   5.972   5.873 -0.4264  2.0160  0.5972
    1MOL0     H  106   7.248   6.135   5.643 -1.0633  0.2227  1.0875
    1MOL0     H  107   7.200   5.991   5.564 -0.1937 -0.3771 -0.0598
    1MOL0     H  108   7.392   5.856   5.648 -1.8250  0.2621  2.1490
    1MOL0     H  109   7.438   5.992   5.750  1.1937  0.1795  0.1376
    1MOL0     H  110   7.471   6.009   5.453 -1.4827 -3.0454  0.6475
    1MOL0     H  111   7.502   6.129   5.583 -1.3225 -0.5815 -0.6112
    1MOL0     H  112   7.644   5.854   5.548  0.6540  0.2005 -1.2790
    1MOL0     H  113   7.660   5.969   5.687  0.0891 -1.3101 -0.1830
    1MOL0     H  114   7.764   6.137   5.520 -1.8486  0.3219 -2.1372
    1MOL0     H  115   7.747   6.015   5.391 -1.4758 -1.0126  0.0233
    1MOL0     H  116   7.975   6.054   5.495 -0.0544 -1.8500 -2.8412
    1MOL0     H  117   7.917   5.887   5.461  0.9365 -0.3016  0.6191
    1MOL0     H  118   6.775   5.836   5.955  1.7691  1.5768 -1.6977
    1MOL0     H  119   6.558   5.728   5.892  0.3265 -0.5132  1.0578
    1MOL0     H  120   6.330   5.545   5.506  3.0024 -0.2974  3.1125
    1MOL0     H  121   6.093   5.494   5.441  0.8839  3.1495  1.1586
    1MOL0     H  122   4.273   5.424   6.058  0.9991  1.4520 -2.9232
    1MOL0     H  123   4.041   5.556   6.038  0.2509 -0.8831 -0.9072
    1MOL0     H  124   3.860   5.983   5.839  0.6164  0.8211  0.7527
    1MOL0     H  125   3.689   6.137   5.839 -1.8916 -0.8715 -1.2170
    1MOL0     H  126   3.314   5.982   6.040  0.2641  0.3285 -2.7369
    1MOL0     H  127   3.354   6.115   6.157 -1.7189  1.8868  0.4406
    1MOL0     H  128   3.150   6.150   6.066  2.5508 -2.2757  1.6391
    1MOL0     H  129   3.237   6.163   5.896 -0.9736  0.7541 -0.5294
    1MOL0     H  130   3.266   6.351   6.132  1.9341 -0.5514 -0.0428
    1MOL0     H  131   3.351   6.354   5.973  0.5870  0.9074  0.6164
    1MOL0     H  132   3.049   6.368   5.988  0.2952 -0.7101 -2.1726
    1MOL0     H  133   3.160   6.383   5.850  0.9506 -1.5736 -0.2570
    1MOL0     H  134   3.198   6.772   6.068  0.6051 -0.0362 -1.7122
    1MOL0     H  135   3.502   5.898   6.158 -0.7776  4.0712 -0.1567
    1MOL0     H  136   3.781   5.829   6.315  0.4689 -2.6773  1.3579
    1MOL0     H  137   3.622   5.755   6.286 -0.4354 -0.2997 -3.0753
    1MOL0     H  138   3.756   5.681   6.221 -1.4945 -0.9345  2.5780
    2MOL0     O  139   2.885   3.202   1.645 -0.6622  0.3430  0.6027
    2MOL0     C  140   3.011   3.198   1.663  0.2967  0.5422  1.1598
    2MOL0     O  141   3.091   3.308   1.686  0.4264  0.8986 -0.1386
    2MOL0     C  142   3.039   3.429   1.630 -0.3346  0.5412  0.4346
    2MOL0     C  143   2.995   3.533   1.710 -0.1675  0.0226 -0.2697
    2MOL0     C  144   2.941   3.650   1.658 -0.2348 -0.4160 -0.3494
    2MOL0     C  145   2.923   3.664   1.520  0.5518 -0.3344 -0.1547
    2MOL0     O  146   2.877   3.778   1.463  0.2623 -0.2618 -0.6382
    2MOL0     C  147   2.768   3.842   1.521 -0.3142  0.4834 -0.2729
    2MOL0     C  148   2.675   3.892   1.418  0.7467  0.2287 -0.5650
    2MOL0     C  149   2.745   3.994   1.316  0.2989  0.3040  0.2289
    2MOL0     C  150   2.631   4.048   1.240  0.4524 -1.6575  0.5293
    2MOL0     C  151   2.684   4.152   1.129 -0.3717  0.3362 -0.1083
    2MOL0     C  152   2.580   4.202   1.030  0.3894  0.3582 -0.1886
    2MOL0     C  153   2.483   4.304   1.084  0.5324 -0.4487 -0.0156
    2MOL0     C  154   2.351   4.319   0.995  0.2868  0.1851 -0.4751
    2MOL0     N  155   2.249   4.386   1.066  0.3856  0.5880  0.5897
    2MOL0     C  156   2.165   4.340   1.164 -0.9293 -0.1738  0.3850
    2MOL0     C  157   2.103   4.456   1.211  0.5323  0.7435  0.2782
    2MOL0     C  158   2.023   4.456   1.333  0.0449 -0.7031 -0.8515
    2MOL0     C  159   2.118   4.493   1.445  0.1602  0.5866  0.6806
    2MOL0     C  160   2.168   4.383   1.539  0.2232 -0.4920 -0.2910
    2MOL0     C  161   2.264   4.441   1.640  1.1128  0.3599 -1.2399
    2MOL0     O  162   2.196   4.532   1.724  0.3081  0.1047  0.6489
    2MOL0     C  163   2.270   4.579   1.829 -0.6258  0.8726 -0.0128
    2MOL0     C  164   2.211   4.608   1.947  0.1157 -0.3719 -0.3034
    2MOL0     C  165   2.272   4.656   2.067 -0.1971 -0.1704  0.2040
    2MOL0     C  166   2.187   4.681   2.192 -0.1493 -0.0443  0.2513
    2MOL0     C  167   2.414   4.671   2.055  0.6126 -0.0589  0.3465
    2MOL0     C  168   2.492   4.722   2.170 -0.1113  0.2700  0.2653
    2MOL0     O  169   2.616   4.715   2.143 -0.1394  0.0639  0.1511
    2MOL0     C  170   2.697   4.786   2.234  0.1126 -0.1250 -0.5571
    2MOL0     C  171   2.722   4.921   2.212 -0.4549 -0.2593 -0.1683
    2MOL0     C  172   2.807   4.990   2.299  0.7742  0.2007  0.4970
    2MOL0     C  173   2.853   4.925   2.416 -0.5062 -0.5941 -0.2207
    2MOL0     O  174   2.935   5.004   2.495 -0.2505  0.0058 -0.8206
    2MOL0     C  175   3.068   4.958   2.538  0.1898  0.6546 -0.3307
    2MOL0     C  176   3.155   5.083   2.590  0.5090  0.3861 -0.6472
    2MOL0     C  177   3.167   5.198   2.489 -0.2236 -0.2886  0.6516
    2MOL0     C  178   3.238   5.314   2.555 -0.0960  0.0663 -0.3479
    2MOL0     C  179   3.297   5.430   2.471 -0.1079 -0.2922  0.3045
    2MOL0     C  180   3.418   5.383   2.378 -0.3977  0.2523  0.3790
    2MOL0     C  181   3.520   5.317   2.465  1.4426  0.0005  0.0374
    2MOL0     C  182   3.653   5.309   2.395 -0.2185 -0.2233 -0.7866
    2MOL0    Cl  183   3.719   5.472   2.402 -0.6823  0.0240 -0.2267
    2MOL0     C  184   2.840   4.787   2.429 -0.6066  0.2632 -0.4053
    2MOL0     C  185   2.748   4.722   2.347 -0.3029 -0.2772 -0.2337
    2MOL0     O  186   2.440   4.786   2.262  0.4688  0.1800 -0.6038
    2MOL0     C  187   2.479   4.630   1.933 -0.1918  0.5510 -0.4690
    2MOL0     C  188   2.410   4.592   1.825 -0.1167  0.5967  0.6497
    2MOL0     N  189   2.158   4.564   1.142 -0.9581  0.5207 -0.5564
    2MOL0     N  190   2.243   4.523   1.059 -0.9990  0.2790 -0.6644
    2MOL0     C  191   2.974   3.564   1.438  0.9949 -1.0756  0.3504
    2MOL0     C  192   3.029   3.446   1.491  0.0846 -0.0697  0.2197
    2MOL0     C  193   3.071   3.059   1.655  0.5397 -0.3980 -0.3799
    2MOL0     C  194   3.219   3.063   1.649  0.2881 -0.1516 -0.2145
    2MOL0     C  195   3.293   2.948   1.603  0.1720 -0.1146 -0.0438
    2MOL0     C  196   3.235   2.832   1.566  0.2466 -0.0836 -0.6993
    2MOL0     O  197   3.308   2.721   1.521 -0.1709  0.0264 -0.3069
    2MOL0     C  198   3.322   2.620   1.629 -0.4350 -1.3553  0.1121
    2MOL0     C  199   3.374   2.487   1.552 -0.1102 -0.3564  0.0047
    2MOL0     C  200   3.421   2.383   1.650 -0.7732  0.6233 -0.4035
    2MOL0     C  201   3.516   2.283   1.590 -0.0030 -0.1020  0.6549
    2MOL0     C  202   3.464   2.239   1.456  0.0591 -0.3431 -0.4205
    2MOL0     C  203   3.440   2.214   1.337  0.1053  0.0399 -0.6789
    2MOL0     C  204   3.093   2.835   1.581  0.4258  0.9532  1.2636
    2MOL0     C  205   3.010   2.935   1.623  0.4750  0.7174 -0.0317
    2MOL0     C  206   2.857   2.904   1.625 -0.3467  0.4930  0.1048
    2MOL0     H  207   3.007   3.520   1.817 -0.8205 -0.9700 -0.3053
    2MOL0     H  208   2.899   3.718   1.732 -1.6105 -2.8920  1.3349
    2MOL0     H  209   2.797   3.929   1.581 -3.4973  0.2196  1.9039
    2MOL0     H  210   2.718   3.770   1.587  0.4741  0.7010  0.5869
    2MOL0     H  211   2.628   3.813   1.360 -2.9848  2.0723 -0.3588
    2MOL0     H  212   2.597   3.935   1.482  1.3934 -0.5926  0.8184
    2MOL0     H  213   2.796   4.077   1.367  1.4241  0.2435 -0.7768
    2MOL0     H  214   2.817   3.945   1.251  1.2373 -0.2993  1.6592
    2MOL0     H  215   2.588   3.964   1.183 -2.0644  0.6989 -1.3062
    2MOL0     H  216   2.548   4.098   1.291  0.7472 -1.0011  0.3696
    2MOL0     H  217   2.778   4.119   1.085 -0.5638 -0.3568 -0.0157
    2MOL0     H  218   2.716   4.238   1.188  0.4557 -0.5603  0.7737
    2MOL0     H  219   2.643   4.254   0.956  1.4101 -0.4525  0.0770
    2MOL0     H  220   2.534   4.115   0.982  0.1089  0.4994 -0.1734
    2MOL0     H  221   2.519   4.406   1.098 -2.8430  1.0578 -1.1909
    2MOL0     H  222   2.460   4.275   1.187  1.4044  0.1583  0.3647
    2MOL0     H  223   2.370   4.376   0.904  0.1321  1.1061  0.0652
    2MOL0     H  224   2.317   4.220   0.962 -2.4154  0.7066  0.4914
    2MOL0     H  225   2.158   4.239   1.203  1.1010 -0.2563  0.6514
    2MOL0     H  226   1.962   4.367   1.349 -0.2995 -0.2847  0.3117
    2MOL0     H  227   1.947   4.535   1.325 -0.2062 -1.0371 -1.8536
    2MOL0     H  228   2.202   4.538   1.393  0.2863  1.2016  1.3918
    2MOL0     H  229   2.065   4.573   1.499  0.6016  1.1699  0.2578
    2MOL0     H  230   2.084   4.329   1.584  1.2255 -0.3692  1.8265
    2MOL0     H  231   2.213   4.301   1.482 -1.3349 -0.9452 -0.9429
    2MOL0     H  232   2.288   4.363   1.713 -0.3463  3.1708  2.5731
    2MOL0     H  233   2.344   4.482   1.578 -0.1209  3.1888 -1.1190
    2MOL0     H  234   2.102   4.610   1.945  0.1034  0.2694  0.6019
    2MOL0     H  235   2.224   4.637   2.285 -0.7541  1.6186  1.3277
    2MOL0     H  236   2.083   4.654   2.175  0.0454 -0.0294 -1.0430
    2MOL0     H  237   2.184   4.787   2.219  0.3768 -0.0167  0.2093
    2MOL0     H  238   2.692   4.966   2.118 -0.7581  1.8083  0.8626
    2MOL0     H  239   2.818   5.097   2.281  1.4072 -0.0153 -0.4480
    2MOL0     H  240   3.060   4.887   2.621  2.6428  0.9273  0.2063
    2MOL0     H  241   3.122   4.925   2.450 -0.2597  1.3001 -0.8592
    2MOL0     H  242   3.101   5.114   2.680 -0.0863 -0.5381 -0.6774
    2MOL0     H  243   3.251   5.044   2.622  0.0631 -0.5665 -0.4410
    2MOL0     H  244   3.068   5.226   2.451 -0.4813 -1.1363  0.6653
    2MOL0     H  245   3.210   5.154   2.398 -1.7976 -0.6543  0.0572
    2MOL0     H  246   3.316   5.273   2.621  1.0980 -1.9704 -2.8568
    2MOL0     H  247   3.163   5.362   2.619  0.0157 -0.1842 -0.0217
    2MOL0     H  248   3.230   5.482   2.402  0.7184 -0.4916 -0.6709
    2MOL0     H  249   3.343   5.505   2.536  0.7955 -1.1296  0.6759
    2MOL0     H  250   3.458   5.469   2.325 -1.7892  2.0609  2.0995
    2MOL0     H  251   3.398   5.308   2.301  2.3595  0.8668 -1.0468
    2MOL0     H  252   3.492   5.216   2.498 -0.5042  0.4550 -0.1496
    2MOL0     H  253   3.524   5.375   2.558 -2.6005 -0.9161  0.9733
    2MOL0     H  254   3.641   5.273   2.292  1.3386  2.1401 -1.8885
    2MOL0     H  255   3.722   5.240   2.444 -0.1794  0.2616 -0.1473
    2MOL0     H  256   2.884   4.737   2.515 -0.4821 -0.7935 -1.0731
    2MOL0     H  257   2.726   4.617   2.363  0.3586 -0.2150  1.2133
    2MOL0     H  258   2.587   4.640   1.925  0.1513 -1.3248  1.0946
    2MOL0     H  259   2.464   4.560   1.736 -0.2464  0.1791  0.7192
    2MOL0     H  260   2.951   3.573   1.333 -2.7994 -0.4463  1.0611
    2MOL0     H  261   3.053   3.359   1.431  0.8501  1.0919 -1.2095
    2MOL0     H  262   3.282   3.148   1.674 -0.4044  0.2644  0.1738
    2MOL0     H  263   3.401   2.946   1.589  0.2525 -0.0066  0.5251
    2MOL0     H  264   3.392   2.648   1.708  0.1423  1.6587 -1.2909
    2MOL0     H  265   3.224   2.611   1.677 -0.5428  0.6656  0.3623
    2MOL0     H  266   3.465   2.506   1.495  0.8527 -2.0945  0.8455
    2MOL0     H  267   3.296   2.451   1.484  0.2741 -2.4177  0.5750
    2MOL0     H  268   3.470   2.429   1.737 -0.1568 -0.7367 -0.0061
    2MOL0     H  269   3.333   2.326   1.682 -0.3329  0.7304  1.0745
    2MOL0     H  270   3.515   2.195   1.655  4.2169  0.2886  1.5376
    2MOL0     H  271   3.620   2.316   1.578 -0.0859 -0.3429 -0.9554
    2MOL0     H  272   3.408   2.183   1.239 -2.0768 -0.8639  0.2434
    2MOL0     H  273   3.046   2.740   1.559 -1.2970  1.7987  1.1389
    2MOL0     H  274   2.835   2.804   1.588  1.9925 -0.8211  1.9794
    2MOL0     H  275   2.818   2.922   1.725 -0.8606  0.9987 -0.1804
    2MOL0     H  276   2.814   2.973   1.551  1.4142 -0.3071 -1.7548
    3MOL0     O  277   2.588   2.624   7.066  0.6055 -0.3017  0.0497
    3MOL0     C  278   2.560   2.578   6.955  0.3396  1.0597 -0.4418
    3MOL0     O  279   2.651   2.546   6.859  0.7954 -0.4922 -0.4827
    3MOL0     C  280   2.784   2.574   6.865  0.0633  0.7571 -0.8065
    3MOL0     C  281   2.870   2.469   6.891 -0.0983  0.3621  0.4074
    3MOL0     C  282   3.011   2.488   6.895 -0.5822  0.0072  0.2488
    3MOL0     C  283   3.067   2.613   6.869  0.6706 -0.2186 -0.0681
    3MOL0     O  284   3.199   2.645   6.855 -0.8292  0.3400  0.1190
    3MOL0     C  285   3.291   2.547   6.905  0.1772 -0.4087 -0.3427
    3MOL0     C  286   3.429   2.602   6.915 -0.0526  0.0348 -0.1631
    3MOL0     C  287   3.476   2.653   6.780  0.3993 -0.2904  0.0090
    3MOL0     C  288   3.628   2.669   6.786  0.2882 -0.2361  0.0870
    3MOL0     C  289   3.687   2.714   6.662  0.1918  0.8239 -0.5245
    3MOL0     C  290   3.679   2.861   6.635 -0.9771  0.6439 -0.1969
    3MOL0     C  291   3.769   2.890   6.514  0.7773 -0.7955 -0.1475
    3MOL0     C  292   3.745   3.038   6.475  0.1963 -0.9749  0.1891
    3MOL0     N  293   3.850   3.090   6.378 -0.4685 -0.5997  0.7405
    3MOL0     C  294   3.907   3.027   6.271 -0.7165  0.4512 -0.4555
    3MOL0     C  295   3.979   3.116   6.202  0.1263  0.2307 -0.1776
    3MOL0     C  296   4.040   3.086   6.063  1.1271 -0.1245 -0.2548
    3MOL0     C  297   4.174   3.162   6.043 -0.4055  0.6326  0.5373
    3MOL0     C  298   4.212   3.145   5.894  0.3901 -0.3505  0.4578
    3MOL0     C  299   4.349   3.185   5.867 -0.1116  0.0443  0.4207
    3MOL0     O  300   4.364   3.329   5.848  0.0861 -0.7176 -0.2313
    3MOL0     C  301   4.490   3.386   5.822  0.0825  0.7629 -1.3713
    3MOL0     C  302   4.489   3.522   5.795 -0.2351  0.5209 -0.0668
    3MOL0     C  303   4.608   3.579   5.737 -0.0697 -0.7432  0.6718
    3MOL0     C  304   4.610   3.720   5.693 -0.5297 -0.7995  0.1785
    3MOL0     C  305   4.723   3.498   5.730  0.6894  0.1693 -0.5535
    3MOL0     C  306   4.854   3.540   5.675 -0.6996 -0.9378  0.6985
    3MOL0     O  307   4.935   3.433   5.636 -0.0509 -0.1973 -0.5030
    3MOL0     C  308   5.053   3.453   5.578  0.4942 -0.1279  0.1915
    3MOL0     C  309   5.143   3.548   5.623  0.0019  0.1338  0.1157
    3MOL0     C  310   5.250   3.588   5.537  0.9473  0.0111 -0.3222
    3MOL0     C  311   5.274   3.525   5.413  0.1902  0.3705  0.7015
    3MOL0     O  312   5.384   3.553   5.329 -0.7469 -0.4032  0.3911
    3MOL0     C  313   5.415   3.694   5.313  0.0739  1.2118  0.5846
    3MOL0     C  314   5.544   3.718   5.228 -0.2855 -0.2082 -0.6316
    3MOL0     C  315   5.510   3.736   5.087  0.0034  0.5302 -0.5254
    3MOL0     C  316   5.634   3.710   4.997  0.8783 -0.2604  0.5700
    3MOL0     C  317   5.645   3.773   4.847  0.9017 -0.3389  0.3165
    3MOL0     C  318   5.601   3.681   4.726  0.4379 -0.6480 -0.6586
    3MOL0     C  319   5.657   3.712   4.587 -0.3566 -0.0074 -0.5546
    3MOL0     C  320   5.811   3.700   4.585 -0.3649  0.1390  0.1552
    3MOL0    Cl  321   5.873   3.556   4.678  0.3946  0.2079 -0.1866
    3MOL0     C  322   5.181   3.427   5.384 -0.4502  0.1677  0.1336
    3MOL0     C  323   5.076   3.394   5.457  0.1962 -0.4699 -0.1205
    3MOL0     O  324   4.888   3.660   5.687  0.3445 -0.3612  0.6155
    3MOL0     C  325   4.723   3.364   5.781  0.2798  0.5759 -0.5810
    3MOL0     C  326   4.607   3.308   5.821  0.3190 -0.2902 -0.1654
    3MOL0     N  327   3.963   3.239   6.262  0.0988 -0.3020  0.4790
    3MOL0     N  328   3.880   3.224   6.363 -0.0489  0.2386 -0.1807
    3MOL0     C  329   2.976   2.719   6.841 -0.0197 -0.2786  0.0495
    3MOL0     C  330   2.837   2.704   6.842 -0.0598  0.7007 -0.2756
    3MOL0     C  331   2.425   2.542   6.899  0.9436  0.7417  0.8296
    3MOL0     C  332   2.414   2.479   6.773 -0.9386 -0.2382  0.2858
    3MOL0     C  333   2.289   2.453   6.713 -1.3096 -0.4568  0.1956
    3MOL0     C  334   2.167   2.493   6.777 -0.1735 -1.1607  1.0097
    3MOL0     O  335   2.049   2.488   6.714  0.5396  0.1457  0.6571
    3MOL0     C  336   2.033   2.503   6.574 -0.0745 -0.6067  0.0591
    3MOL0     C  337   2.030   2.363   6.507  0.2204  0.0587 -0.7223
    3MOL0     C  338   1.884   2.304   6.492 -0.1977 -0.2217  0.2696
    3MOL0     C  339   1.893   2.180   6.399 -1.0230 -0.1176 -0.5163
    3MOL0     C  340   1.925   2.065   6.467 -0.1837 -0.1068 -0.4885
    3MOL0     C  341   1.957   1.965   6.534  0.5149 -1.0165  0.3417
    3MOL0     C  342   2.175   2.542   6.906  0.8817 -0.1741  0.7442
    3MOL0     C  343   2.301   2.577   6.962 -0.2039 -0.8318  0.1092
    3MOL0     C  344   2.296   2.658   7.091  0.0681 -0.2944 -0.0635
    3MOL0     H  345   2.820   2.373   6.896 -0.1930  0.3512 -0.4462
    3MOL0     H  346   3.063   2.394   6.907  1.8815  1.2627  0.1417
    3MOL0     H  347   3.287   2.453   6.851 -1.3422  0.3676 -1.6620
    3MOL0     H  348   3.266   2.514   7.007  1.7850  2.1300  0.9923
    3MOL0     H  349   3.428   2.693   6.976 -1.2742  0.2948 -0.5407
    3MOL0     H  350   3.505   2.530   6.948  0.7118  0.5989 -0.6643
    3MOL0     H  351   3.460   2.584   6.698 -1.3860 -0.0507  0.1285
    3MOL0     H  352   3.424   2.747   6.760  0.7948  0.0545  0.5624
    3MOL0     H  353   3.647   2.749   6.858 -1.4645  0.5646 -0.3023
    3MOL0     H  354   3.685   2.585   6.827 -0.4794 -0.7720  0.0841
    3MOL0     H  355   3.643   2.650   6.585  3.2065 -3.2422  0.7855
    3MOL0     H  356   3.792   2.685   6.654  0.4796  1.1313  1.6865
    3MOL0     H  357   3.577   2.898   6.623 -1.5853 -0.9892 -0.4136
    3MOL0     H  358   3.723   2.918   6.718 -1.9227 -0.2410  0.9512
    3MOL0     H  359   3.730   2.830   6.432 -1.4972  0.1863  0.1561
    3MOL0     H  360   3.877   2.880   6.529  0.9784  0.8285 -0.4028
    3MOL0     H  361   3.651   3.056   6.423 -0.1513  0.4167  1.2509
    3MOL0     H  362   3.749   3.094   6.569 -1.9095 -0.5108  0.0549
    3MOL0     H  363   3.888   2.924   6.242  0.9572 -0.2313  0.7020
    3MOL0     H  364   3.960   3.112   5.993 -2.0511 -3.2335  1.9096
    3MOL0     H  365   4.062   2.979   6.054  2.7387  0.1823 -0.3826
    3MOL0     H  366   4.166   3.270   6.058  1.9466  0.7438  1.3327
    3MOL0     H  367   4.246   3.111   6.107  1.8011  0.5250 -1.8472
    3MOL0     H  368   4.196   3.038   5.878 -0.1183 -0.0922 -0.9443
    3MOL0     H  369   4.143   3.199   5.828 -0.3537 -1.5068  0.2677
    3MOL0     H  370   4.422   3.152   5.941  3.0058  0.1009 -2.3653
    3MOL0     H  371   4.379   3.139   5.772 -2.3872 -0.8431  0.0722
    3MOL0     H  372   4.406   3.590   5.793  0.9685  2.0971  1.0810
    3MOL0     H  373   4.674   3.789   5.749 -0.8564  0.0210 -0.4455
    3MOL0     H  374   4.507   3.757   5.695 -0.1511  0.2486  1.9843
    3MOL0     H  375   4.649   3.722   5.591 -0.2767 -1.8253  0.2372
    3MOL0     H  376   5.135   3.607   5.714  1.0020 -1.3056  1.1680
    3MOL0     H  377   5.315   3.665   5.577  1.8773 -0.5162 -0.7850
    3MOL0     H  378   5.333   3.754   5.272  0.5458  1.7525  0.4310
    3MOL0     H  379   5.435   3.731   5.414 -0.4164 -0.8840  1.5024
    3MOL0     H  380   5.602   3.805   5.260 -0.9185 -0.3953  1.0994
    3MOL0     H  381   5.611   3.634   5.253  0.3771  0.3532 -0.4896
    3MOL0     H  382   5.476   3.840   5.081 -2.3360 -0.1233  0.2123
    3MOL0     H  383   5.429   3.668   5.057  1.3518 -1.4954  0.2057
    3MOL0     H  384   5.655   3.603   4.983  0.0796 -0.3317 -0.2038
    3MOL0     H  385   5.715   3.742   5.062  0.5335  1.0059  0.4014
    3MOL0     H  386   5.593   3.870   4.842  1.7249  0.0567 -0.9939
    3MOL0     H  387   5.749   3.800   4.830  0.9056  2.2890  3.4005
    3MOL0     H  388   5.492   3.684   4.723  0.3564 -2.5910 -0.9024
    3MOL0     H  389   5.621   3.576   4.748 -1.9292 -1.0438 -0.1174
    3MOL0     H  390   5.624   3.814   4.565 -1.1998  0.0158  0.6985
    3MOL0     H  391   5.613   3.647   4.512  0.5891  0.6027 -1.6706
    3MOL0     H  392   5.853   3.789   4.634  2.1049  0.3863 -2.1349
    3MOL0     H  393   5.847   3.700   4.481 -0.0778  1.6797  0.2385
    3MOL0     H  394   5.199   3.374   5.290 -0.8372  2.0260 -1.0326
    3MOL0     H  395   5.004   3.325   5.415 -0.8511  0.8644 -0.5968
    3MOL0     H  396   4.802   3.289   5.778 -1.8269 -1.9431  1.7643
    3MOL0     H  397   4.600   3.201   5.838 -1.8325 -0.2495 -0.4272
    3MOL0     H  398   3.012   2.821   6.826 -1.0665  0.3353  1.4684
    3MOL0     H  399   2.784   2.797   6.825  1.1633  2.1001  2.7106
    3MOL0     H  400   2.496   2.439   6.715 -2.4942 -1.5231 -1.1214
    3MOL0     H  401   2.299   2.425   6.609 -0.7559  0.0661  0.0994
    3MOL0     H  402   1.939   2.552   6.549  0.1760  0.3231  0.8863
    3MOL0     H  403   2.117   2.560   6.533 -1.4349  0.1229 -1.8776
    3MOL0     H  404   2.077   2.295   6.579 -1.5603  0.6864  1.1240
    3MOL0     H  405   2.089   2.354   6.415  0.9259 -2.0125 -0.1188
    3MOL0     H  406   1.836   2.277   6.586  0.3605  2.5788  1.4538
    3MOL0     H  407   1.824   2.384   6.448  0.7971  0.9149  0.9131
    3MOL0     H  408   1.959   2.203   6.315 -0.7967  5.0932  0.7271
    3MOL0     H  409   1.792   2.160   6.363 -1.5921 -2.2212  1.9643
    3MOL0     H  410   1.984   1.881   6.594  1.6742  0.0563  1.3810
    3MOL0     H  411   2.089   2.569   6.966  1.4501  1.4563  0.8770
    3MOL0     H  412   2.353   2.617   7.174 -0.8929  2.1492  1.9128
    3MOL0     H  413   2.335   2.760   7.089  1.2382 -0.7380 -0.9550
    3MOL0     H  414   2.195   2.656   7.134 -0.1555 -2.4711 -0.5662
    4MOL0     O  415   3.211   4.836   3.169 -0.3099 -0.3312 -0.2161
    4MOL0     C  416   3.119   4.862   3.093 -0.6677 -0.3884  0.8807
    4MOL0     O  417   3.119   4.972   3.016  0.1451  0.2268  0.3639
    4MOL0     C  418   3.215   5.070   3.034 -1.0488  0.4108  0.7258
    4MOL0     C  419   3.173   5.191   3.069  0.2188 -0.3800 -0.4433
    4MOL0     C  420   3.265   5.296   3.082  0.4381  0.4091 -0.1951
    4MOL0     C  421   3.405   5.271   3.068  0.1216 -0.5099 -0.2883
    4MOL0     O  422   3.485   5.376   3.081  0.9520  0.4761  0.1177
    4MOL0     C  423   3.448   5.493   3.001 -0.1753  0.0118 -0.6634
    4MOL0     C  424   3.487   5.468   2.854 -0.0963 -0.6038 -0.0997
    4MOL0     C  425   3.632   5.441   2.828 -0.6941  0.2559  0.2242
    4MOL0     C  426   3.727   5.550   2.900 -0.6638 -0.0625  1.3900
    4MOL0     C  427   3.873   5.508   2.905  0.2165  0.1262 -0.4077
    4MOL0     C  428   3.947   5.511   2.762  1.3406 -0.0460 -0.5611
    4MOL0     C  429   4.095   5.505   2.770 -0.3160  0.5413 -0.3501
    4MOL0     C  430   4.156   5.520   2.634 -0.8141 -0.6443  0.0412
    4MOL0     N  431   4.299   5.506   2.658 -0.1346  0.2028 -0.1490
    4MOL0     C  432   4.359   5.393   2.681 -0.2244 -0.2140 -0.0420
    4MOL0     C  433   4.472   5.425   2.741 -0.5262 -0.5950  0.4002
    4MOL0     C  434   4.574   5.334   2.801 -0.1859  0.2341 -0.5682
    4MOL0     C  435   4.712   5.380   2.758 -0.4838  0.5368 -0.4448
    4MOL0     C  436   4.738   5.385   2.610  0.0640  0.4850  0.5155
    4MOL0     C  437   4.713   5.253   2.527 -0.5890 -0.1700 -0.9635
    4MOL0     O  438   4.781   5.140   2.582  0.0907 -0.4286 -0.2725
    4MOL0     C  439   4.911   5.145   2.624 -0.2500 -0.1212 -0.6092
    4MOL0     C  440   4.954   5.090   2.737  0.4305  0.7386 -1.0398
    4MOL0     C  441   5.086   5.086   2.778 -0.4039 -0.2317  0.5206
    4MOL0     C  442   5.120   5.011   2.897  0.4823  0.0853  0.1013
    4MOL0     C  443   5.186   5.150   2.704 -0.0571  0.1075  0.0859
    4MOL0     C  444   5.332   5.142   2.735 -0.8517 -0.4950 -0.2280
    4MOL0     O  445   5.400   5.263   2.735  0.0814  0.6351  0.4705
    4MOL0     C  446   5.527   5.255   2.776  0.0454 -1.0016  0.0201
    4MOL0     C  447   5.563   5.221   2.906  0.0626 -0.3159 -0.4762
    4MOL0     C  448   5.698   5.239   2.949  0.5926  0.7906 -0.3732
    4MOL0     C  449   5.804   5.269   2.863 -0.4702  0.1510 -0.5529
    4MOL0     O  450   5.934   5.270   2.903 -0.0553  0.4204 -0.4308
    4MOL0     C  451   6.026   5.200   2.820  0.2892 -0.1686 -0.1084
    4MOL0     C  452   6.141   5.149   2.913 -0.3779  0.5421 -0.3883
    4MOL0     C  453   6.259   5.095   2.821  0.1062  0.6940 -0.1008
    4MOL0     C  454   6.381   5.065   2.912 -0.1042 -0.1560  1.0683
    4MOL0     C  455   6.492   4.997   2.823  0.9632 -0.3306  0.0039
    4MOL0     C  456   6.623   4.979   2.898  0.0399 -0.5027  0.0462
    4MOL0     C  457   6.687   5.104   2.974  0.1517 -0.0574  0.3158
    4MOL0     C  458   6.713   5.220   2.879 -0.2731  0.0284  0.4841
    4MOL0    Cl  459   6.780   5.348   2.980 -0.1731 -0.1780  0.2209
    4MOL0     C  460   5.761   5.283   2.731  0.1604 -0.2076 -0.2427
    4MOL0     C  461   5.628   5.297   2.694  0.3434  1.4137 -0.1577
    4MOL0     O  462   5.370   5.032   2.765  0.2686  0.2230  0.4025
    4MOL0     C  463   5.148   5.233   2.600 -0.5205 -0.8008  0.1952
    4MOL0     C  464   5.014   5.225   2.561  0.3996 -0.0512 -0.1321
    4MOL0     N  465   4.478   5.564   2.747  0.0522  0.3837  0.5872
    4MOL0     N  466   4.380   5.609   2.694  0.5807  0.3790  0.2354
    4MOL0     C  467   3.450   5.149   3.023  0.7643 -0.3434  0.6975
    4MOL0     C  468   3.355   5.045   3.015  0.1406  0.8096  0.2540
    4MOL0     C  469   3.019   4.748   3.073  0.6714 -0.2688 -0.0628
    4MOL0     C  470   2.964   4.737   2.940 -0.4706 -0.7035 -1.1968
    4MOL0     C  471   2.860   4.651   2.916  0.1506 -0.2366  0.0120
    4MOL0     C  472   2.803   4.571   3.018 -0.6890 -0.3877  0.4283
    4MOL0     O  473   2.720   4.467   2.975  0.4364  0.1351 -0.0004
    4MOL0     C  474   2.602   4.466   3.055 -0.0353 -0.0606 -0.1044
    4MOL0     C  475   2.477   4.448   2.965 -0.2426  0.0166 -0.4743
    4MOL0     C  476   2.357   4.476   3.047  0.2667  0.0379 -0.2588
    4MOL0     C  477   2.223   4.454   2.973 -1.2328  0.0550 -0.4089
    4MOL0     C  478   2.116   4.506   3.055  0.0467  0.2585 -0.4891
    4MOL0     C  479   2.030   4.549   3.130  0.4580  0.3995 -0.1025
    4MOL0     C  480   2.860   4.578   3.143 -0.5577  0.3555  0.6365
    4MOL0     C  481   2.971   4.657   3.175  0.6733  0.2706 -0.7936
    4MOL0     C  482   3.024   4.644   3.316  0.4827 -0.2849 -0.1445
    4MOL0     H  483   3.066   5.202   3.082  0.0923 -1.2037 -0.7289
    4MOL0     H  484   3.221   5.391   3.113 -1.3166  0.4408 -2.4912
    4MOL0     H  485   3.503   5.577   3.044 -0.8859 -0.8979  2.2793
    4MOL0     H  486   3.345   5.520   3.022  0.4860  1.8576  0.4221
    4MOL0     H  487   3.430   5.384   2.813 -2.4334  1.0454 -0.4320
    4MOL0     H  488   3.476   5.559   2.794  2.4833 -0.3206 -0.2299
    4MOL0     H  489   3.657   5.344   2.872 -3.4042  0.1318  1.6751
    4MOL0     H  490   3.653   5.448   2.721 -0.9635 -2.2717 -0.0487
    4MOL0     H  491   3.722   5.639   2.836 -4.0709 -0.9181  0.2524
    4MOL0     H  492   3.693   5.574   3.001 -2.6261 -0.1914  0.7993
    4MOL0     H  493   3.889   5.404   2.935  1.6255 -0.0379 -1.6386
    4MOL0     H  494   3.919   5.582   2.972  0.1989  0.6234 -0.9356
    4MOL0     H  495   3.914   5.428   2.699 -0.6452  2.0494 -2.4832
    4MOL0     H  496   3.918   5.600   2.705 -0.8233 -1.9781 -2.7092
    4MOL0     H  497   4.121   5.407   2.811 -1.8211  0.8073  1.3595
    4MOL0     H  498   4.129   5.594   2.825 -1.0156  0.7475 -0.2401
    4MOL0     H  499   4.140   5.435   2.567 -2.0550 -1.4257  1.2817
    4MOL0     H  500   4.137   5.617   2.587  0.8624 -0.1192  0.3627
    4MOL0     H  501   4.309   5.297   2.672 -1.9485  0.7515 -1.3641
    4MOL0     H  502   4.558   5.229   2.774  2.0958 -0.9155  2.0204
    4MOL0     H  503   4.563   5.339   2.910 -1.1969  1.8820 -0.7039
    4MOL0     H  504   4.746   5.474   2.803  2.0664 -1.5350  2.3962
    4MOL0     H  505   4.784   5.309   2.800  0.9101  1.4357 -1.2113
    4MOL0     H  506   4.677   5.466   2.567 -0.8219  0.3412  1.4794
    4MOL0     H  507   4.842   5.418   2.603  0.2022  0.6016  2.6914
    4MOL0     H  508   4.605   5.233   2.531 -0.8742  0.7852 -2.8254
    4MOL0     H  509   4.747   5.261   2.423  2.4223  1.1800  0.0351
    4MOL0     H  510   4.882   5.031   2.793 -0.4690  0.0669 -2.8215
    4MOL0     H  511   5.207   5.050   2.952  1.3558  1.3256 -2.0126
    4MOL0     H  512   5.144   4.906   2.879 -0.4183 -0.0755 -0.1813
    4MOL0     H  513   5.040   5.001   2.970  2.1484 -1.7934  1.8045
    4MOL0     H  514   5.486   5.190   2.976  1.8049 -1.6460  0.9466
    4MOL0     H  515   5.713   5.223   3.055 -1.7174 -3.4245 -0.4803
    4MOL0     H  516   5.978   5.121   2.760 -0.2925 -0.8009  1.1550
    4MOL0     H  517   6.083   5.276   2.766  0.5640  0.8445  1.5783
    4MOL0     H  518   6.176   5.229   2.979 -0.3449  0.1258  0.1028
    4MOL0     H  519   6.115   5.070   2.984  0.2921  2.9968  2.8353
    4MOL0     H  520   6.284   5.156   2.734  0.9345  1.8127  0.8974
    4MOL0     H  521   6.227   5.004   2.769 -1.0045  0.9397  0.1445
    4MOL0     H  522   6.347   5.002   2.995  2.0006 -1.1097  1.2575
    4MOL0     H  523   6.420   5.161   2.948 -1.1287  1.0477 -0.8479
    4MOL0     H  524   6.462   4.897   2.792  1.1097 -0.8843  1.5688
    4MOL0     H  525   6.519   5.057   2.735 -0.1693 -1.6394 -1.2971
    4MOL0     H  526   6.693   4.930   2.830  0.8137 -0.4222  0.7722
    4MOL0     H  527   6.600   4.903   2.973  0.9851 -3.9136 -2.8621
    4MOL0     H  528   6.782   5.078   3.024 -0.8245  0.8934  2.8560
    4MOL0     H  529   6.623   5.144   3.053  0.5290  1.9511 -0.3215
    4MOL0     H  530   6.624   5.247   2.823  0.8858 -0.0804 -1.5264
    4MOL0     H  531   6.789   5.188   2.807 -0.6049 -1.9607  0.9683
    4MOL0     H  532   5.831   5.311   2.653  0.1600 -1.9197 -0.9025
    4MOL0     H  533   5.619   5.340   2.595  2.0322  0.0536 -0.9703
    4MOL0     H  534   5.228   5.286   2.550  0.6540 -0.8171  1.9486
    4MOL0     H  535   4.991   5.292   2.478  1.8739  0.7476  0.0784
    4MOL0     H  536   3.556   5.140   3.002  0.6808 -0.8568  0.4837
    4MOL0     H  537   3.386   4.948   2.978 -1.8961  0.2113 -0.0539
    4MOL0     H  538   3.007   4.798   2.860  1.0686 -0.9494 -0.6039
    4MOL0     H  539   2.827   4.646   2.813  0.8488  2.5874 -0.4501
    4MOL0     H  540   2.597   4.382   3.125 -0.1131  0.9399  1.1211
    4MOL0     H  541   2.598   4.558   3.113  1.2698  0.8710 -1.3979
    4MOL0     H  542   2.470   4.354   2.910 -0.2796 -0.5781  0.5386
    4MOL0     H  543   2.481   4.523   2.885 -1.7145  0.4155 -0.2063
    4MOL0     H  544   2.356   4.418   3.140 -0.5389 -0.1676 -0.3811
    4MOL0     H  545   2.372   4.582   3.069  2.8818  0.0401 -1.6370
    4MOL0     H  546   2.198   4.350   2.950 -1.5297  0.2847 -1.1774
    4MOL0     H  547   2.240   4.516   2.885  0.4749  2.0466  1.2184
    4MOL0     H  548   1.968   4.595   3.204  1.9911 -0.0563  1.5168
    4MOL0     H  549   2.816   4.508   3.213  0.0643 -1.2932 -0.5508
    4MOL0     H  550   3.019   4.737   3.372 -2.6550 -0.1491 -0.4506
    4MOL0     H  551   2.976   4.563   3.371 -0.2360  0.7243  0.7536
    4MOL0     H  552   3.131   4.624   3.306  0.8212  1.5685 -0.4525
    5MOL0     O  553   0.462   8.087  10.933 -0.4623  0.8833 -0.5747
    5MOL0     C  554   0.396   8.046  10.840 -0.1280  1.1771  0.1807
    5MOL0     O  555   0.443   8.028  10.709  0.3356  0.6199 -0.1824
    5MOL0     C  556   0.574   8.060  10.682  0.0726  0.2531  0.4088
    5MOL0     C  557   0.653   7.964  10.612 -0.6721  1.1665  0.2349
    5MOL0     C  558   0.786   7.988  10.573 -0.0102 -0.7647 -0.0171
    5MOL0     C  559   0.839   8.119  10.601  0.1835  0.0702 -0.2181
    5MOL0     O  560   0.966   8.147  10.554  0.0680  0.3009 -0.5743
    5MOL0     C  561   1.033   8.273  10.584  0.7086 -0.1213 -0.1552
    5MOL0     C  562   1.140   8.298  10.473 -0.1268  1.6090 -0.5132
    5MOL0     C  563   1.247   8.186  10.472  0.6626 -0.1268  0.1997
    5MOL0     C  564   1.364   8.216  10.370  0.1778  0.2651  0.2765
    5MOL0     C  565   1.309   8.232  10.223 -0.9594  0.4729  0.6181
    5MOL0     C  566   1.432   8.264  10.130 -0.5289  0.4823 -0.5451
    5MOL0     C  567   1.513   8.145  10.090  1.1083  1.3177  0.1684
    5MOL0     C  568   1.615   8.172   9.985  0.2698 -0.1368  0.3322
    5MOL0     N  569   1.735   8.257  10.021  0.2359  0.1163 -0.0767
    5MOL0     C  570   1.861   8.209  10.031 -0.2986  0.0260 -0.1218
    5MOL0     C  571   1.927   8.318  10.073  0.1551 -0.2331  0.9900
    5MOL0     C  572   2.069   8.311  10.125  0.7016  1.3196  0.7863
    5MOL0     C  573   2.172   8.283  10.013 -0.5956 -0.0092 -0.1021
    5MOL0     C  574   2.174   8.398   9.913 -0.7358 -0.3718  0.1511
    5MOL0     C  575   2.314   8.432   9.855  0.7825  0.0206 -0.7563
    5MOL0     O  576   2.386   8.507   9.956  0.3048  0.0778  0.3018
    5MOL0     C  577   2.518   8.475   9.967  0.3226 -0.5909 -1.0357
    5MOL0     C  578   2.572   8.454  10.096  0.3390  0.0276 -0.7614
    5MOL0     C  579   2.707   8.449  10.114 -0.0099  0.3125 -0.9420
    5MOL0     C  580   2.765   8.417  10.256  0.5160 -0.0404 -0.4704
    5MOL0     C  581   2.789   8.459  10.001 -1.1812 -0.3539 -0.2958
    5MOL0     C  582   2.939   8.432  10.011  1.1952  0.5080 -0.2485
    5MOL0     O  583   3.020   8.510   9.927  0.5688 -0.1033 -0.3285
    5MOL0     C  584   3.160   8.495   9.920  0.0951 -0.2723 -0.2644
    5MOL0     C  585   3.233   8.616   9.892  0.7590  0.3895 -0.2426
    5MOL0     C  586   3.368   8.613   9.891  0.3954 -0.0722  0.4477
    5MOL0     C  587   3.443   8.490   9.911  0.4479  0.0560  0.8238
    5MOL0     O  588   3.575   8.471   9.908 -0.2826  0.0993  0.0148
    5MOL0     C  589   3.662   8.551   9.825 -0.3570  0.6340  0.2307
    5MOL0     C  590   3.793   8.471   9.815 -0.0878 -0.2490  0.5028
    5MOL0     C  591   3.892   8.556   9.735  0.0625  0.1754 -0.1945
    5MOL0     C  592   4.035   8.563   9.795  0.4432  0.8434  0.1023
    5MOL0     C  593   4.136   8.604   9.691  0.0266  0.6866  0.2866
    5MOL0     C  594   4.281   8.595   9.751  0.0146 -0.4329  0.3322
    5MOL0     C  595   4.392   8.607   9.637 -0.0301 -0.1854  0.2339
    5MOL0     C  596   4.370   8.705   9.521 -0.8259  0.8123 -0.0614
    5MOL0    Cl  597   4.528   8.713   9.444 -0.7304  0.0153  0.0593
    5MOL0     C  598   3.374   8.371   9.927  0.0827  0.2302 -0.3646
    5MOL0     C  599   3.228   8.377   9.927 -1.1159  0.2353  0.0292
    5MOL0     O  600   2.988   8.336  10.076  0.3778  0.4768 -0.3207
    5MOL0     C  601   2.745   8.485   9.875  0.0748  0.7442  0.5578
    5MOL0     C  602   2.604   8.494   9.857 -0.3823  0.2904 -0.6894
    5MOL0     N  603   1.843   8.432  10.076 -0.2586  0.5392  0.9775
    5MOL0     N  604   1.730   8.387  10.053  0.0122  0.1392  0.3828
    5MOL0     C  605   0.764   8.215  10.672 -0.0887  0.4457  0.1892
    5MOL0     C  606   0.633   8.188  10.705  0.7907  0.6644 -0.2818
    5MOL0     C  607   0.260   7.986  10.858 -0.1381  0.6720 -0.2190
    5MOL0     C  608   0.187   7.931  10.753 -0.0458 -0.0503  0.6300
    5MOL0     C  609   0.059   7.878  10.778  0.0750 -0.7568  0.1304
    5MOL0     C  610   0.002   7.878  10.900  0.6543 -0.5953 -1.1547
    5MOL0     O  611  -0.123   7.814  10.927 -0.2168 -0.2174 -0.4905
    5MOL0     C  612  -0.191   7.766  10.811  0.5568 -0.2095 -1.1325
    5MOL0     C  613  -0.326   7.712  10.850  0.5867  0.7842 -0.7006
    5MOL0     C  614  -0.342   7.596  10.949 -0.0998 -0.9967  0.3670
    5MOL0     C  615  -0.352   7.646  11.093 -0.2822 -0.5902 -0.4220
    5MOL0     C  616  -0.494   7.663  11.126 -0.8723  0.4316  1.2081
    5MOL0     C  617  -0.613   7.671  11.152 -0.6439 -1.0349  0.3020
    5MOL0     C  618   0.070   7.933  11.002 -0.1168 -0.3512 -0.4468
    5MOL0     C  619   0.203   7.990  10.988 -0.4670  0.0875 -0.3294
    5MOL0     C  620   0.268   8.041  11.116 -0.5530 -0.8346  0.1819
    5MOL0     H  621   0.606   7.870  10.587 -0.4026 -0.0013  3.6149
    5MOL0     H  622   0.836   7.910  10.517  1.6026  0.7766 -0.8165
    5MOL0     H  623   1.071   8.270  10.687 -0.2977 -0.0284  0.2286
    5MOL0     H  624   0.973   8.364  10.581 -2.4107 -2.0168 -0.4487
    5MOL0     H  625   1.091   8.290  10.376 -0.2571 -1.7310 -0.2952
    5MOL0     H  626   1.193   8.391  10.498  3.4095 -0.5011  0.6354
    5MOL0     H  627   1.289   8.180  10.572 -1.1660  0.0473  1.0122
    5MOL0     H  628   1.200   8.092  10.443 -2.0203  1.7035 -1.9582
    5MOL0     H  629   1.416   8.304  10.408 -1.0922  1.1319  0.0829
    5MOL0     H  630   1.421   8.123  10.371 -1.8026 -1.0611 -1.2943
    5MOL0     H  631   1.247   8.322  10.228 -2.6958 -0.7398  2.2743
    5MOL0     H  632   1.253   8.144  10.191  0.3637 -0.4792  0.8411
    5MOL0     H  633   1.396   8.316  10.041  1.1159  2.0140 -0.3599
    5MOL0     H  634   1.493   8.328  10.193  0.4018 -2.8047  2.1973
    5MOL0     H  635   1.449   8.065  10.052  2.5092  0.4303 -0.4144
    5MOL0     H  636   1.550   8.102  10.183  1.7541 -0.1338 -0.7240
    5MOL0     H  637   1.648   8.079   9.938  4.1408 -0.0307  2.4354
    5MOL0     H  638   1.557   8.233   9.915 -0.7841  0.6890  1.8911
    5MOL0     H  639   1.898   8.108  10.016 -1.3038 -0.3626 -0.1286
    5MOL0     H  640   2.079   8.226  10.192 -0.5833  0.0047 -0.6096
    5MOL0     H  641   2.100   8.401  10.178 -1.0548  0.9819  2.5075
    5MOL0     H  642   2.270   8.277  10.061 -1.5871  0.5859  2.1709
    5MOL0     H  643   2.145   8.185   9.973 -0.7895 -0.9876  2.2533
    5MOL0     H  644   2.097   8.382   9.838 -0.4268  0.7692 -0.4317
    5MOL0     H  645   2.142   8.486   9.971 -0.4416 -1.7965  2.6402
    5MOL0     H  646   2.366   8.340   9.827  3.2637  0.8672  0.7446
    5MOL0     H  647   2.313   8.501   9.770 -3.5102  1.5970  0.3397
    5MOL0     H  648   2.508   8.443  10.182 -0.9684  0.0286 -1.6987
    5MOL0     H  649   2.786   8.311  10.273 -0.8664 -0.2155  0.2512
    5MOL0     H  650   2.698   8.459  10.332 -0.1294 -1.3111 -0.3092
    5MOL0     H  651   2.861   8.469  10.264  0.0401  1.1711 -2.2349
    5MOL0     H  652   3.174   8.707   9.893 -2.1844 -1.3848  0.6099
    5MOL0     H  653   3.424   8.706   9.892  2.4181 -1.2339  0.9189
    5MOL0     H  654   3.610   8.559   9.729 -0.8090 -1.0489  0.3145
    5MOL0     H  655   3.674   8.651   9.869 -3.1117  0.5178  1.4501
    5MOL0     H  656   3.832   8.450   9.915  0.2777 -2.2388 -0.0170
    5MOL0     H  657   3.778   8.372   9.771 -1.1065  0.0037  0.2490
    5MOL0     H  658   3.854   8.659   9.730  1.6968  0.9226  1.4807
    5MOL0     H  659   3.888   8.513   9.634 -1.5738  1.0926 -0.5562
    5MOL0     H  660   4.063   8.461   9.823 -2.0073 -0.5231 -1.9512
    5MOL0     H  661   4.039   8.635   9.877  0.9781  0.6975  0.2074
    5MOL0     H  662   4.115   8.547   9.600 -0.7081 -2.7529  2.4263
    5MOL0     H  663   4.121   8.710   9.669  2.0213  0.2635 -3.9239
    5MOL0     H  664   4.287   8.496   9.798 -0.3058 -0.4964  0.2419
    5MOL0     H  665   4.288   8.671   9.829  1.1700  0.2052 -0.3647
    5MOL0     H  666   4.414   8.503   9.610 -3.0338 -0.8034 -0.1688
    5MOL0     H  667   4.486   8.639   9.682  1.0234 -0.5484 -1.6039
    5MOL0     H  668   4.330   8.806   9.537  0.6550  1.6205 -1.1725
    5MOL0     H  669   4.306   8.650   9.452  1.8565 -1.9738 -0.5367
    5MOL0     H  670   3.417   8.273   9.943 -3.2871 -1.2558  0.3096
    5MOL0     H  671   3.171   8.284   9.925 -1.7980  0.5486  2.2013
    5MOL0     H  672   2.800   8.491   9.782 -2.7241 -1.1924 -1.3793
    5MOL0     H  673   2.561   8.531   9.764  1.5028  2.3015 -0.8527
    5MOL0     H  674   0.797   8.314  10.701 -0.8575  0.1600  2.1532
    5MOL0     H  675   0.574   8.265  10.755 -0.6799 -0.8102  0.3439
    5MOL0     H  676   0.219   7.932  10.649 -2.4775  0.4976 -0.1688
    5MOL0     H  677   0.022   7.830  10.688 -2.4882  1.3638 -0.0571
    5MOL0     H  678  -0.212   7.845  10.738  4.4062 -1.8775 -4.4137
    5MOL0     H  679  -0.126   7.690  10.768 -1.4274 -0.6163 -3.6308
    5MOL0     H  680  -0.365   7.663  10.760 -0.9472  1.3985 -0.4057
    5MOL0     H  681  -0.392   7.794  10.881  0.2671  0.2423  0.0693
    5MOL0     H  682  -0.429   7.533  10.927 -0.6949 -0.5096  1.2629
    5MOL0     H  683  -0.248   7.539  10.943 -0.3339 -1.2492 -1.1623
    5MOL0     H  684  -0.305   7.743  11.110  0.7377 -1.4047  1.7249
    5MOL0     H  685  -0.310   7.573  11.163 -0.2809 -1.5209 -1.3727
    5MOL0     H  686  -0.715   7.682  11.182 -1.9095  1.5013 -4.0441
    5MOL0     H  687   0.026   7.940  11.101 -3.6417  0.7558 -1.9339
    5MOL0     H  688   0.198   8.026  11.199  0.8768 -2.1811  1.2063
    5MOL0     H  689   0.363   7.996  11.145  0.6389  0.8019 -0.9789
    5MOL0     H  690   0.288   8.148  11.105  0.4970 -1.0578 -0.2246
    6MOL0     O  691   6.300   9.706   3.119 -0.5204 -0.1293  0.0744
    6MOL0     C  692   6.197   9.712   3.051  0.9276 -0.4232  0.0878
    6MOL0     O  693   6.192   9.733   2.917  0.3839  0.1669 -0.3198
    6MOL0     C  694   6.310   9.772   2.864  0.1436 -0.0841 -0.4825
    6MOL0     C  695   6.355   9.908   2.877  0.9468 -0.4052 -0.4517
    6MOL0     C  696   6.466   9.947   2.811 -1.0649  0.8098 -0.1511
    6MOL0     C  697   6.535   9.863   2.723 -0.0241  0.0131 -0.4591
    6MOL0     O  698   6.643   9.905   2.650  0.0956 -0.1423 -0.2455
    6MOL0     C  699   6.613   9.973   2.533 -0.9749  0.5939  0.2381
    6MOL0     C  700   6.649   9.896   2.403  0.0460 -0.0576  0.7595
    6MOL0     C  701   6.801   9.881   2.390  0.5967 -0.1061 -0.2449
    6MOL0     C  702   6.851   9.777   2.292 -0.3117  0.0473  0.6194
    6MOL0     C  703   7.008   9.760   2.310  0.0408  0.2445 -0.1498
    6MOL0     C  704   7.075   9.645   2.234 -0.6744  0.9144 -0.1427
    6MOL0     C  705   7.223   9.654   2.223 -0.9052  0.0665  0.6010
    6MOL0     C  706   7.273   9.768   2.133 -1.2981 -0.2426  0.0977
    6MOL0     N  707   7.412   9.733   2.101 -0.3346 -0.2582  0.3469
    6MOL0     C  708   7.525   9.765   2.173  0.4185  0.6170 -0.0165
    6MOL0     C  709   7.628   9.728   2.096 -0.3017  0.0580  0.1458
    6MOL0     C  710   7.773   9.755   2.126  0.6747  0.3857 -0.6281
    6MOL0     C  711   7.824   9.658   2.242 -0.4021  0.2183 -0.1418
    6MOL0     C  712   7.736   9.657   2.375 -0.5268  0.0932  0.5955
    6MOL0     C  713   7.804   9.581   2.492 -0.4956  0.2266  0.2334
    6MOL0     O  714   7.711   9.584   2.606  0.0970 -0.2142  0.2687
    6MOL0     C  715   7.707   9.684   2.692 -0.2846 -0.7930  0.8804
    6MOL0     C  716   7.814   9.778   2.712 -0.2385  0.2566  0.5591
    6MOL0     C  717   7.814   9.881   2.807 -0.0407 -0.3264  0.4369
    6MOL0     C  718   7.942   9.967   2.832  0.7121 -0.1799  0.2575
    6MOL0     C  719   7.695   9.899   2.885  0.2117  0.6391 -0.1867
    6MOL0     C  720   7.659  10.015   2.967 -0.0797 -0.3867  0.3219
    6MOL0     O  721   7.537  10.010   3.036  0.1427 -0.6226  0.6550
    6MOL0     C  722   7.476  10.133   3.082 -0.3133  0.2835 -0.4943
    6MOL0     C  723   7.338  10.138   3.083 -0.1356  0.3979  0.3300
    6MOL0     C  724   7.265  10.255   3.111 -0.9987 -0.4052  0.0537
    6MOL0     C  725   7.332  10.369   3.144 -0.5271 -0.4121 -0.0703
    6MOL0     O  726   7.252  10.477   3.170  0.4626 -0.3854 -0.2985
    6MOL0     C  727   7.294  10.612   3.140 -0.4374 -0.0116  0.3351
    6MOL0     C  728   7.229  10.708   3.249 -0.4028  1.0752  0.0712
    6MOL0     C  729   7.313  10.695   3.372 -0.4558 -0.2227 -0.5223
    6MOL0     C  730   7.271  10.782   3.493  1.0652 -0.5351 -0.3007
    6MOL0     C  731   7.134  10.758   3.559  0.4099  0.1303  0.3342
    6MOL0     C  732   7.087  10.876   3.642 -0.1195  0.2437 -0.0196
    6MOL0     C  733   6.963  10.846   3.712  0.2240 -0.5261 -0.1635
    6MOL0     C  734   6.834  10.853   3.627 -0.5642 -0.5390 -0.6291
    6MOL0    Cl  735   6.799  10.688   3.556  0.1335  0.0169  0.2127
    6MOL0     C  736   7.477  10.365   3.156  0.4399 -0.1660 -0.8514
    6MOL0     C  737   7.544  10.255   3.125  0.1846  0.6204 -0.3554
    6MOL0     O  738   7.731  10.116   2.966 -0.1249  0.5941  0.8759
    6MOL0     C  739   7.591   9.806   2.868 -0.1719  1.0111 -0.1618
    6MOL0     C  740   7.599   9.703   2.769 -0.1042  0.1205 -0.3026
    6MOL0     N  741   7.579   9.668   1.985 -0.2723  0.0192  0.2376
    6MOL0     N  742   7.451   9.665   1.992  0.1334 -0.4499 -0.3319
    6MOL0     C  743   6.497   9.732   2.724 -0.0604  0.0392  0.4116
    6MOL0     C  744   6.383   9.683   2.784 -0.0049 -0.2763  0.9143
    6MOL0     C  745   6.073   9.691   3.134  0.2524 -0.1581  0.0108
    6MOL0     C  746   6.084   9.615   3.248 -0.2742 -0.3235 -0.7402
    6MOL0     C  747   5.968   9.604   3.328  0.5272  0.6223 -0.0455
    6MOL0     C  748   5.841   9.646   3.280  0.2083 -0.0480 -0.6484
    6MOL0     O  749   5.740   9.610   3.365  0.0543 -0.7881  0.8187
    6MOL0     C  750   5.610   9.596   3.308 -0.7331 -0.5794 -0.0213
    6MOL0     C  751   5.498   9.531   3.414 -1.1654  0.0619  0.5706
    6MOL0     C  752   5.517   9.375   3.448 -0.2978 -0.3480 -0.6112
    6MOL0     C  753   5.422   9.329   3.565 -0.9935 -0.0967 -0.7376
    6MOL0     C  754   5.287   9.292   3.533 -0.1397 -0.7714 -0.3014
    6MOL0     C  755   5.176   9.237   3.526 -0.2104 -0.6648 -0.0082
    6MOL0     C  756   5.833   9.719   3.157  0.0660 -0.6838 -0.1727
    6MOL0     C  757   5.946   9.747   3.089  0.2686 -0.8584 -0.7740
    6MOL0     C  758   5.939   9.871   2.994 -1.0103  1.0667 -0.6485
    6MOL0     H  759   6.303   9.982   2.937 -2.1911 -1.6284 -1.4427
    6MOL0     H  760   6.514  10.043   2.824  0.7018 -0.2545  1.5748
    6MOL0     H  761   6.672  10.065   2.531  1.4946 -0.8340  2.2034
    6MOL0     H  762   6.509  10.005   2.533 -0.8843  0.9900  2.0789
    6MOL0     H  763   6.601   9.798   2.400  2.3633 -1.2434  0.4829
    6MOL0     H  764   6.608   9.957   2.321 -1.9737 -0.1385  1.6491
    6MOL0     H  765   6.849   9.978   2.373 -1.6473  0.9078 -1.0676
    6MOL0     H  766   6.827   9.834   2.486 -2.3238 -0.0361  0.6681
    6MOL0     H  767   6.788   9.687   2.295 -5.6106  3.3811  0.7846
    6MOL0     H  768   6.825   9.813   2.192  1.7589 -1.1716 -0.4392
    6MOL0     H  769   7.042   9.756   2.414  1.4899  1.6338 -0.5323
    6MOL0     H  770   7.054   9.846   2.260  0.7291 -1.1288 -1.9724
    6MOL0     H  771   7.054   9.547   2.276  0.3863  2.0058  3.2969
    6MOL0     H  772   7.036   9.634   2.133  0.0564 -1.4436 -0.2049
    6MOL0     H  773   7.247   9.553   2.187 -2.5923  1.0118 -3.8415
    6MOL0     H  774   7.268   9.664   2.322  0.8885 -1.3274 -0.0146
    6MOL0     H  775   7.215   9.793   2.045  2.1223 -0.7173 -2.5001
    6MOL0     H  776   7.268   9.852   2.204 -0.4315 -0.0629 -0.0435
    6MOL0     H  777   7.532   9.829   2.261  1.1266 -0.9200  1.0994
    6MOL0     H  778   7.778   9.855   2.171 -2.0565  0.1570  0.3757
    6MOL0     H  779   7.837   9.744   2.038  0.2920  2.2686 -1.1826
    6MOL0     H  780   7.815   9.556   2.203 -1.4693  0.6426 -1.0607
    6MOL0     H  781   7.929   9.683   2.261 -0.3616  1.4340 -1.7132
    6MOL0     H  782   7.722   9.762   2.402  0.2628  0.1987  0.6427
    6MOL0     H  783   7.637   9.611   2.376  0.1772 -1.5688  2.7969
    6MOL0     H  784   7.813   9.476   2.466  1.4111  0.3121  0.4360
    6MOL0     H  785   7.904   9.621   2.514 -1.2647  2.8734 -0.7286
    6MOL0     H  786   7.895   9.782   2.640  0.2796  0.4464  1.1372
    6MOL0     H  787   7.927  10.053   2.766  0.1643 -1.0610 -0.8015
    6MOL0     H  788   8.034   9.917   2.802 -0.2523 -3.6030  2.3576
    6MOL0     H  789   7.949   9.997   2.937 -1.1424  0.2236  0.2977
    6MOL0     H  790   7.284  10.052   3.044 -1.8840  1.9140 -0.8042
    6MOL0     H  791   7.157  10.250   3.104 -0.9843 -0.1263 -0.3398
    6MOL0     H  792   7.403  10.617   3.135 -0.4141 -0.6575  0.0308
    6MOL0     H  793   7.252  10.644   3.044  1.1470 -0.6853 -0.6303
    6MOL0     H  794   7.237  10.807   3.204 -1.0536  1.1697  0.1544
    6MOL0     H  795   7.125  10.676   3.260  0.0090 -0.2565  0.3183
    6MOL0     H  796   7.418  10.720   3.351 -0.7529  1.6697  0.0127
    6MOL0     H  797   7.305  10.588   3.393 -1.6156  0.0414  0.4701
    6MOL0     H  798   7.271  10.887   3.462  3.5289 -0.0511  1.0947
    6MOL0     H  799   7.351  10.778   3.568  0.2485  1.2771  0.7403
    6MOL0     H  800   7.062  10.739   3.479  1.0119  0.8455 -0.4046
    6MOL0     H  801   7.141  10.666   3.618 -0.9410  0.1652  0.5745
    6MOL0     H  802   7.078  10.960   3.573 -2.0302 -0.4613 -0.7114
    6MOL0     H  803   7.154  10.900   3.724 -1.8359 -2.8185  2.5244
    6MOL0     H  804   6.954  10.925   3.786 -2.6130 -2.3002  1.5726
    6MOL0     H  805   6.978  10.749   3.761  1.0989 -0.8586 -1.0429
    6MOL0     H  806   6.831  10.931   3.550 -0.5458 -0.3569 -0.4459
    6MOL0     H  807   6.750  10.890   3.687  0.0319  2.0709 -1.2689
    6MOL0     H  808   7.528  10.448   3.204  0.9894 -1.7708  1.4665
    6MOL0     H  809   7.652  10.250   3.134  0.1199 -2.5948 -0.2080
    6MOL0     H  810   7.492   9.823   2.907  0.2072 -0.1569  1.4571
    6MOL0     H  811   7.513   9.638   2.759  1.3733 -1.6513 -3.0716
    6MOL0     H  812   6.564   9.675   2.659  0.0599  1.7498 -1.0238
    6MOL0     H  813   6.359   9.580   2.759  1.0693 -0.1216 -0.9575
    6MOL0     H  814   6.170   9.561   3.285  0.6325  0.0506 -2.2052
    6MOL0     H  815   5.975   9.547   3.420  2.9572  2.0541  0.7448
    6MOL0     H  816   5.575   9.696   3.281  0.7589  0.0028  0.0741
    6MOL0     H  817   5.616   9.536   3.216  2.6192  1.3214 -1.2252
    6MOL0     H  818   5.399   9.544   3.371 -0.9425 -2.4995 -0.8729
    6MOL0     H  819   5.505   9.576   3.514 -2.0352  1.5783 -0.0140
    6MOL0     H  820   5.513   9.312   3.359 -0.9847  0.9476 -1.5444
    6MOL0     H  821   5.617   9.380   3.492  0.3262  3.9059 -2.0254
    6MOL0     H  822   5.431   9.403   3.645 -0.5314 -1.1304  0.1946
    6MOL0     H  823   5.470   9.241   3.610 -0.9116  0.2391 -0.1553
    6MOL0     H  824   5.081   9.191   3.510 -0.8011  0.1416  1.0608
    6MOL0     H  825   5.735   9.752   3.125  0.6085  0.7628 -0.3702
    6MOL0     H  826   5.842   9.922   2.993 -0.4642  2.1999  1.0485
    6MOL0     H  827   6.017   9.946   3.013 -0.1194 -0.2646  1.1925
    6MOL0     H  828   5.960   9.830   2.894 -3.3100  0.7247 -1.0419
    7MOL0     O  829   1.632   1.066   8.988  0.2388 -0.3643  0.0515
    7MOL0     C  830   1.558   0.985   9.053 -0.5707 -0.3358 -0.1643
    7MOL0     O  831   1.599   0.863   9.104  0.0711  0.5495 -0.2833
    7MOL0     C  832   1.714   0.803   9.069  1.2696 -0.7957 -0.0385
    7MOL0     C  833   1.760   0.713   9.164  0.3168  0.4269 -0.4960
    7MOL0     C  834   1.880   0.630   9.145  0.5989  0.1345 -0.1245
    7MOL0     C  835   1.942   0.645   9.018  1.7778 -0.3367 -0.1811
    7MOL0     O  836   2.067   0.588   8.974 -0.2038  0.4816  0.5393
    7MOL0     C  837   2.159   0.535   9.069  0.1854 -0.1058 -0.2686
    7MOL0     C  838   2.286   0.490   9.008 -0.2439 -0.1093 -0.1193
    7MOL0     C  839   2.347   0.588   8.908 -0.6406  0.2788  0.2911
    7MOL0     C  840   2.452   0.515   8.831 -0.2135  0.1171 -0.7269
    7MOL0     C  841   2.519   0.610   8.726 -0.5307 -0.1591 -0.5211
    7MOL0     C  842   2.640   0.556   8.666 -0.7352 -0.0970  0.4056
    7MOL0     C  843   2.721   0.649   8.577 -0.0475 -0.2180  0.0948
    7MOL0     C  844   2.805   0.757   8.656 -0.5264  0.6738  0.2483
    7MOL0     N  845   2.892   0.841   8.573  0.5954  0.1266 -0.3867
    7MOL0     C  846   2.980   0.794   8.479 -0.1891 -0.1412  0.0587
    7MOL0     C  847   3.058   0.900   8.456 -0.2885  0.6834 -0.1407
    7MOL0     C  848   3.187   0.897   8.372 -0.0652  0.7245 -1.0666
    7MOL0     C  849   3.311   0.864   8.455 -0.5340 -0.6341 -0.6910
    7MOL0     C  850   3.335   0.709   8.476  0.1273  0.1436 -0.4006
    7MOL0     C  851   3.478   0.685   8.515 -0.0601  0.0122 -1.1016
    7MOL0     O  852   3.567   0.733   8.417 -0.0566  0.1146  0.5944
    7MOL0     C  853   3.704   0.694   8.417  0.8077  0.4981 -0.4127
    7MOL0     C  854   3.777   0.749   8.312 -1.1899 -0.3442 -0.6573
    7MOL0     C  855   3.910   0.726   8.302 -0.6551  0.3047 -0.1016
    7MOL0     C  856   3.991   0.806   8.205  0.1424  0.0312  0.3942
    7MOL0     C  857   3.974   0.648   8.404 -0.6550  1.0906  0.0244
    7MOL0     C  858   4.122   0.632   8.418  0.0858  0.4419 -0.0994
    7MOL0     O  859   4.187   0.604   8.301  0.6986  0.2017 -0.0338
    7MOL0     C  860   4.317   0.559   8.306  0.2256 -0.7699 -0.0092
    7MOL0     C  861   4.419   0.650   8.341  0.0772  0.0415  0.2367
    7MOL0     C  862   4.547   0.608   8.317 -1.0075 -0.2683 -0.2493
    7MOL0     C  863   4.574   0.479   8.289 -0.3732 -0.3977  0.4803
    7MOL0     O  864   4.693   0.424   8.269  0.6130 -0.1715  0.6128
    7MOL0     C  865   4.801   0.508   8.220  0.2506  1.1694  0.0269
    7MOL0     C  866   4.930   0.424   8.194  1.8656  0.7612 -0.2423
    7MOL0     C  867   5.007   0.364   8.324 -1.2189 -0.9662 -0.2413
    7MOL0     C  868   5.109   0.251   8.282  0.5602  1.3710  0.4553
    7MOL0     C  869   5.234   0.238   8.378 -0.5489  0.0976 -0.1534
    7MOL0     C  870   5.329   0.117   8.338  1.0228 -0.5579  1.0710
    7MOL0     C  871   5.457   0.136   8.413 -0.0626 -0.4238  0.8817
    7MOL0     C  872   5.562   0.038   8.358  0.2714  0.6234 -1.0442
    7MOL0    Cl  873   5.718   0.068   8.447  0.2446 -0.1568 -0.3069
    7MOL0     C  874   4.472   0.384   8.265 -0.3785 -0.1272  0.2938
    7MOL0     C  875   4.340   0.427   8.270 -0.0564  0.8701  0.1602
    7MOL0     O  876   4.178   0.644   8.528  0.4432  0.1155 -0.1339
    7MOL0     C  877   3.902   0.590   8.509 -0.0413 -0.1608 -0.6253
    7MOL0     C  878   3.766   0.608   8.514  0.4154 -0.6060 -1.9409
    7MOL0     N  879   3.009   1.012   8.519  0.1584 -0.5092 -0.3427
    7MOL0     N  880   2.919   0.973   8.597  0.8020  0.0659 -0.8203
    7MOL0     C  881   1.895   0.736   8.934  0.7437 -0.2934  1.7293
    7MOL0     C  882   1.781   0.819   8.946 -0.5194  0.3260 -0.1978
    7MOL0     C  883   1.419   1.019   9.064  0.6553 -0.2933 -0.5136
    7MOL0     C  884   1.345   1.057   8.949  0.8128 -0.6189  0.1901
    7MOL0     C  885   1.213   1.090   8.962  0.5047  0.1863  0.4846
    7MOL0     C  886   1.146   1.093   9.086 -0.0230  0.8070  0.9162
    7MOL0     O  887   1.029   1.159   9.105  1.0537  0.2040 -0.4410
    7MOL0     C  888   0.957   1.197   8.989 -0.0275  0.5109  0.1484
    7MOL0     C  889   0.808   1.221   9.012  0.0038  0.4974 -0.0078
    7MOL0     C  890   0.711   1.120   8.951 -0.2082 -0.0223  0.0709
    7MOL0     C  891   0.677   1.151   8.806  0.1316  0.8471  0.0529
    7MOL0     C  892   0.789   1.126   8.713  0.0593  0.3360 -0.0905
    7MOL0     C  893   0.880   1.110   8.638  0.2087  0.1515  0.0519
    7MOL0     C  894   1.220   1.049   9.197 -0.3889 -0.5176 -0.4563
    7MOL0     C  895   1.352   1.013   9.187  0.2524  0.4123  0.3821
    7MOL0     C  896   1.418   0.977   9.312 -0.1804 -0.3137 -1.1810
    7MOL0     H  897   1.699   0.684   9.249  2.2617 -1.9973  0.2072
    7MOL0     H  898   1.920   0.560   9.217 -0.3880 -2.1652 -1.7031
    7MOL0     H  899   2.108   0.446   9.107 -0.4181  0.0952 -0.5960
    7MOL0     H  900   2.171   0.613   9.144 -1.2442  0.2672 -0.4030
    7MOL0     H  901   2.363   0.478   9.085  0.0696 -0.7739 -0.5247
    7MOL0     H  902   2.272   0.396   8.953  0.3814  0.8403 -2.0014
    7MOL0     H  903   2.286   0.631   8.829  0.7171  0.0759 -0.8991
    7MOL0     H  904   2.385   0.673   8.965  0.1047 -0.6734  1.2539
    7MOL0     H  905   2.519   0.476   8.909 -1.6849 -0.0449  0.4984
    7MOL0     H  906   2.402   0.431   8.783 -1.3778  0.0142  0.5858
    7MOL0     H  907   2.523   0.710   8.769 -3.1897 -0.3626  0.4033
    7MOL0     H  908   2.451   0.625   8.641 -0.0647 -0.7319 -1.0091
    7MOL0     H  909   2.710   0.505   8.733 -0.6243 -1.4013 -0.6596
    7MOL0     H  910   2.609   0.478   8.595  0.9730  0.9154 -1.5444
    7MOL0     H  911   2.640   0.688   8.515  1.2537 -1.3674 -2.4922
    7MOL0     H  912   2.793   0.595   8.514 -0.7728  1.0023 -1.8488
    7MOL0     H  913   2.739   0.825   8.712 -0.8236  1.0265 -0.5199
    7MOL0     H  914   2.864   0.704   8.731  1.1707  0.9837 -0.8301
    7MOL0     H  915   2.983   0.696   8.431  0.9169  0.3964 -1.0114
    7MOL0     H  916   3.190   0.987   8.309 -0.5704  1.5971  0.1100
    7MOL0     H  917   3.180   0.828   8.288 -1.5954 -1.2651  0.6249
    7MOL0     H  918   3.396   0.915   8.410 -0.3706  0.6132  0.9323
    7MOL0     H  919   3.285   0.895   8.557 -2.5340 -1.6025 -0.8541
    7MOL0     H  920   3.265   0.663   8.546  1.1818 -1.7146 -0.5095
    7MOL0     H  921   3.326   0.655   8.381 -0.2358 -2.6672  1.1186
    7MOL0     H  922   3.508   0.730   8.611 -2.1419 -1.1528  0.1541
    7MOL0     H  923   3.503   0.579   8.511  0.1157  0.0703 -1.5637
    7MOL0     H  924   3.733   0.818   8.240 -0.3002 -0.4717 -1.3496
    7MOL0     H  925   4.070   0.855   8.262  0.5752  0.6162 -0.6652
    7MOL0     H  926   3.932   0.889   8.164  2.3333  0.8978 -1.2312
    7MOL0     H  927   4.042   0.748   8.127  2.2751  0.2321  1.5782
    7MOL0     H  928   4.400   0.752   8.373 -1.1122 -1.1644  3.9691
    7MOL0     H  929   4.632   0.675   8.332 -0.5929 -0.7687 -0.3234
    7MOL0     H  930   4.775   0.563   8.130  1.4527 -1.1242 -1.8297
    7MOL0     H  931   4.820   0.592   8.288 -0.8972  1.5107 -0.0467
    7MOL0     H  932   4.907   0.340   8.129 -0.8946 -0.7315  2.3988
    7MOL0     H  933   5.002   0.479   8.132 -0.8292  1.8048 -2.6993
    7MOL0     H  934   4.939   0.328   8.401  0.2173  1.8664  2.5982
    7MOL0     H  935   5.074   0.441   8.363  0.9218 -0.8727 -3.6403
    7MOL0     H  936   5.141   0.260   8.178 -0.7673 -1.6003 -0.3061
    7MOL0     H  937   5.053   0.158   8.292 -2.3538  2.9914  0.4202
    7MOL0     H  938   5.289   0.329   8.352 -2.1670  1.2049  0.1101
    7MOL0     H  939   5.207   0.245   8.484  1.2809 -1.7809  0.4971
    7MOL0     H  940   5.333   0.122   8.229 -2.7129  1.4690  0.8690
    7MOL0     H  941   5.288   0.018   8.361  0.5030 -0.5968  0.0204
    7MOL0     H  942   5.440   0.123   8.520 -0.9711 -0.9836  0.6823
    7MOL0     H  943   5.492   0.234   8.380 -3.0613 -1.0545 -6.1574
    7MOL0     H  944   5.574   0.052   8.250  0.3007  0.8881 -1.0082
    7MOL0     H  945   5.538  -0.066   8.383 -0.2837  1.0189  0.1432
    7MOL0     H  946   4.500   0.279   8.252  2.6065  0.1980  2.9755
    7MOL0     H  947   4.256   0.361   8.249  0.8438 -0.5214  0.7609
    7MOL0     H  948   3.953   0.530   8.583  3.4019  3.6894  0.4712
    7MOL0     H  949   3.711   0.562   8.596  0.2862  1.5694 -0.7371
    7MOL0     H  950   1.950   0.743   8.840  1.3645  1.8830  2.2003
    7MOL0     H  951   1.749   0.886   8.868 -0.6252  0.4066 -0.0869
    7MOL0     H  952   1.398   1.059   8.854 -1.3272  2.1812 -1.0803
    7MOL0     H  953   1.171   1.142   8.877  0.9929  0.5157  0.4356
    7MOL0     H  954   1.008   1.291   8.964  1.3443  0.1438  1.4308
    7MOL0     H  955   0.970   1.133   8.902  0.4955  0.0064  0.5923
    7MOL0     H  956   0.785   1.324   8.982  1.7804  0.6362 -1.0290
    7MOL0     H  957   0.798   1.213   9.120 -0.4627  1.0001 -0.0063
    7MOL0     H  958   0.743   1.017   8.966 -3.8506 -0.9439  2.8409
    7MOL0     H  959   0.621   1.129   9.012  0.9294 -0.5829  1.9147
    7MOL0     H  960   0.658   1.259   8.797  1.3095  0.9117 -2.3213
    7MOL0     H  961   0.579   1.104   8.795  0.2414  0.0480  2.0931
    7MOL0     H  962   0.959   1.099   8.566  1.6927 -0.7450  1.7438
    7MOL0     H  963   1.177   1.061   9.296  0.4397  0.0613 -0.1528
    7MOL0     H  964   1.344   0.980   9.394  1.0425 -3.5575  0.2306
    7MOL0     H  965   1.465   0.878   9.313  1.9500  0.6404 -2.0367
    7MOL0     H  966   1.506   1.040   9.322  0.2888 -0.9058 -1.5167
    8MOL0     O  967   1.024   7.998   0.593  0.1881  0.3834 -0.0693
    8MOL0     C  968   0.977   7.908   0.665 -0.7784  0.2473  0.7429
    8MOL0     O  969   1.044   7.842   0.756  0.1255  0.1635  0.3556
    8MOL0     C  970   1.169   7.878   0.800 -0.4574  0.2017  0.7529
    8MOL0     C  971   1.206   8.007   0.829  0.6958 -0.0069  0.2724
    8MOL0     C  972   1.331   8.033   0.889 -0.2325  0.1833  0.1500
    8MOL0     C  973   1.413   7.924   0.920  0.3483  0.0609  0.0520
    8MOL0     O  974   1.524   7.935   0.997  0.4906 -0.4941 -0.1092
    8MOL0     C  975   1.586   8.059   1.017 -0.6685 -0.3313  0.9076
    8MOL0     C  976   1.649   8.126   0.899 -0.4774 -0.4346 -0.0862
    8MOL0     C  977   1.767   8.213   0.944  0.4882 -0.5340 -0.1643
    8MOL0     C  978   1.825   8.296   0.821 -0.2384 -0.1333 -0.5876
    8MOL0     C  979   1.971   8.335   0.856 -0.5485 -0.5674  0.0705
    8MOL0     C  980   1.988   8.438   0.975 -0.1823  0.9675 -0.0774
    8MOL0     C  981   2.130   8.435   1.014 -0.3343 -0.0928  0.5728
    8MOL0     C  982   2.164   8.529   1.132  0.5613  0.0274  0.1867
    8MOL0     N  983   2.309   8.531   1.157 -0.5457  0.3573  0.5498
    8MOL0     C  984   2.381   8.462   1.253 -0.6239  0.0180 -0.5627
    8MOL0     C  985   2.509   8.479   1.231 -0.1095  0.6855 -0.1791
    8MOL0     C  986   2.630   8.418   1.303  0.4822 -0.0430  0.1499
    8MOL0     C  987   2.727   8.355   1.200  0.6047 -0.2046 -0.2223
    8MOL0     C  988   2.849   8.305   1.268 -0.0431  0.4778  0.0075
    8MOL0     C  989   2.916   8.190   1.190 -0.6781  0.3892 -0.1149
    8MOL0     O  990   3.030   8.136   1.255 -0.6237  0.0806 -0.3880
    8MOL0     C  991   3.138   8.215   1.266 -0.2989  0.5397 -0.2514
    8MOL0     C  992   3.173   8.325   1.189  0.5353  0.9057 -0.0748
    8MOL0     C  993   3.285   8.405   1.212  0.2050 -0.2390 -0.8527
    8MOL0     C  994   3.294   8.530   1.127  0.5893  0.1541 -0.3306
    8MOL0     C  995   3.368   8.382   1.329  0.2271 -0.1594  0.3601
    8MOL0     C  996   3.472   8.486   1.378 -0.4372 -0.1407 -0.1921
    8MOL0     O  997   3.539   8.457   1.488 -0.4799 -0.0505  0.5445
    8MOL0     C  998   3.665   8.506   1.527  0.0041  0.6598  0.6167
    8MOL0     C  999   3.754   8.588   1.447 -0.5539 -0.4928  0.1074
    8MOL0     C 1000   3.877   8.636   1.496  0.2581 -0.6101 -0.2040
    8MOL0     C 1001   3.917   8.599   1.628  0.7900  0.2246 -0.6444
    8MOL0     O 1002   4.026   8.645   1.700 -0.6090 -1.0556  0.7578
    8MOL0     C 1003   4.101   8.758   1.649  0.3012  0.4372 -0.2092
    8MOL0     C 1004   4.036   8.881   1.687 -0.9331  0.1623  0.1614
    8MOL0     C 1005   4.095   8.995   1.602  0.2224 -0.4137  0.2275
    8MOL0     C 1006   4.239   9.034   1.626 -0.2651 -0.5554 -0.3258
    8MOL0     C 1007   4.288   9.150   1.543 -0.0589  0.6059  0.0227
    8MOL0     C 1008   4.194   9.275   1.530 -0.5827  0.0122 -0.0854
    8MOL0     C 1009   4.249   9.389   1.435  0.1145 -0.0503  0.3177
    8MOL0     C 1010   4.140   9.492   1.417  0.3716  0.6771 -0.2521
    8MOL0    Cl 1011   4.007   9.444   1.304  0.1998 -0.0737 -0.1857
    8MOL0     C 1012   3.828   8.517   1.711 -0.9191 -0.2047  1.0883
    8MOL0     C 1013   3.708   8.483   1.660 -0.1581  0.2533 -0.1548
    8MOL0     O 1014   3.503   8.582   1.301 -0.1276  0.3033  0.4371
    8MOL0     C 1015   3.333   8.262   1.408 -0.4676  0.5844 -0.3809
    8MOL0     C 1016   3.224   8.185   1.368 -1.0056  0.9464 -0.2951
    8MOL0     N 1017   2.517   8.576   1.128 -0.0450 -0.2618  0.3689
    8MOL0     N 1018   2.400   8.599   1.086  0.2266 -0.4934  0.6998
    8MOL0     C 1019   1.375   7.796   0.891  0.3991  0.5477 -0.4444
    8MOL0     C 1020   1.257   7.770   0.824  0.2041 -0.9341 -0.6637
    8MOL0     C 1021   0.841   7.869   0.643  0.0048  0.3410 -0.4331
    8MOL0     C 1022   0.783   7.787   0.748  0.3706  0.7149  0.6314
    8MOL0     C 1023   0.658   7.739   0.747  0.8097 -0.1066  0.4592
    8MOL0     C 1024   0.581   7.767   0.631  0.3039 -1.5704  0.2706
    8MOL0     O 1025   0.453   7.732   0.608  0.1609 -0.1117  0.7494
    8MOL0     C 1026   0.388   7.662   0.707  1.0090  1.3654  0.0288
    8MOL0     C 1027   0.252   7.618   0.656 -0.1844 -0.3160  0.0611
    8MOL0     C 1028   0.165   7.568   0.770  0.1990  0.3354 -0.0411
    8MOL0     C 1029   0.020   7.552   0.728  0.0866 -0.0554  0.5719
    8MOL0     C 1030  -0.074   7.509   0.829  0.0859 -0.0190 -0.0882
    8MOL0     C 1031  -0.137   7.455   0.918  0.7791 -0.3435 -0.0713
    8MOL0     C 1032   0.633   7.839   0.524  0.4196 -0.0317  0.9741
    8MOL0     C 1033   0.765   7.885   0.525 -1.1213 -0.1552 -0.1634
    8MOL0     C 1034   0.813   7.956   0.397 -0.1870 -0.2096  0.4676
    8MOL0     H 1035   1.142   8.091   0.804 -2.7802 -3.1708 -2.6077
    8MOL0     H 1036   1.353   8.137   0.910  1.0228 -0.2073  0.9042
    8MOL0     H 1037   1.668   8.042   1.087 -0.5426 -0.1311  0.8066
    8MOL0     H 1038   1.508   8.123   1.059 -2.5248  0.0164 -2.6473
    8MOL0     H 1039   1.691   8.052   0.831  4.0061  2.0796 -0.4129
    8MOL0     H 1040   1.573   8.187   0.850 -1.5192 -1.6623 -0.0715
    8MOL0     H 1041   1.734   8.275   1.028 -2.2328 -3.3642  1.0664
    8MOL0     H 1042   1.843   8.152   0.996  0.7527  0.3354  0.5051
    8MOL0     H 1043   1.842   8.228   0.738  4.2967  1.7464 -1.5086
    8MOL0     H 1044   1.759   8.378   0.792  0.1510  0.8174  1.0716
    8MOL0     H 1045   2.018   8.373   0.765 -1.8265 -1.3856 -0.9659
    8MOL0     H 1046   2.024   8.242   0.877 -1.5196 -1.1096  0.1492
    8MOL0     H 1047   1.960   8.542   0.953 -0.2515  1.3977  1.8369
    8MOL0     H 1048   1.925   8.401   1.057  0.8593  1.0376  0.7824
    8MOL0     H 1049   2.190   8.466   0.928 -2.0371 -3.8916 -2.2651
    8MOL0     H 1050   2.159   8.334   1.041 -1.4428 -0.5033  0.2811
    8MOL0     H 1051   2.134   8.631   1.108 -2.4769 -0.2243  2.3485
    8MOL0     H 1052   2.110   8.497   1.222 -0.5078  0.0999 -0.4180
    8MOL0     H 1053   2.331   8.413   1.336  1.0655  0.0311  0.4999
    8MOL0     H 1054   2.594   8.337   1.368 -0.8688 -1.0612 -1.7921
    8MOL0     H 1055   2.682   8.486   1.372 -0.5723  0.6008  0.3311
    8MOL0     H 1056   2.672   8.277   1.147  0.6899  0.4928 -1.3629
    8MOL0     H 1057   2.751   8.433   1.128  2.0815  0.4573  0.9216
    8MOL0     H 1058   2.925   8.379   1.294 -0.2255 -0.1672  2.6713
    8MOL0     H 1059   2.814   8.266   1.365  0.5213  0.5321  0.2383
    8MOL0     H 1060   2.846   8.106   1.186  1.9315 -1.9878  0.9608
    8MOL0     H 1061   2.933   8.216   1.085 -0.2850 -1.9333 -0.6837
    8MOL0     H 1062   3.109   8.354   1.106  0.3692  0.2032 -0.1994
    8MOL0     H 1063   3.224   8.524   1.043  3.0563 -0.8719 -2.4647
    8MOL0     H 1064   3.395   8.547   1.091  1.0636  0.1766  0.9663
    8MOL0     H 1065   3.260   8.610   1.193 -0.8331 -2.4507  2.3141
    8MOL0     H 1066   3.728   8.616   1.345 -0.6452  1.0410  0.5235
    8MOL0     H 1067   3.936   8.691   1.423  0.9732  0.8201  1.3818
    8MOL0     H 1068   4.198   8.734   1.695 -1.5092 -2.7483  2.3736
    8MOL0     H 1069   4.120   8.748   1.542  1.5752 -2.2073  0.1701
    8MOL0     H 1070   3.931   8.871   1.656 -0.0509 -0.3721 -3.0015
    8MOL0     H 1071   4.042   8.892   1.795  2.3011 -0.1613  0.0979
    8MOL0     H 1072   4.038   9.085   1.631  1.9128  1.1584 -1.0811
    8MOL0     H 1073   4.080   8.974   1.496  3.3826 -0.6630 -0.2496
    8MOL0     H 1074   4.305   8.947   1.623  1.2275  0.4946  0.7104
    8MOL0     H 1075   4.244   9.074   1.727 -1.5266 -1.0143 -0.0622
    8MOL0     H 1076   4.388   9.177   1.577 -0.8460  0.4094  2.7680
    8MOL0     H 1077   4.289   9.113   1.440 -0.8306 -0.9680  0.5459
    8MOL0     H 1078   4.179   9.317   1.630 -0.9402 -1.4619  0.5124
    8MOL0     H 1079   4.102   9.235   1.488  1.1492 -2.9996 -1.3187
    8MOL0     H 1080   4.297   9.350   1.344  2.0755 -1.3824  1.8331
    8MOL0     H 1081   4.336   9.432   1.486  0.1214  1.5651 -0.9729
    8MOL0     H 1082   4.189   9.583   1.380  1.1580 -0.8396 -3.2380
    8MOL0     H 1083   4.090   9.523   1.509  2.1083  1.4267  0.5042
    8MOL0     H 1084   3.858   8.482   1.809  1.6215 -1.9318 -0.2007
    8MOL0     H 1085   3.652   8.439   1.742 -1.4897  4.0037  1.1711
    8MOL0     H 1086   3.394   8.248   1.496  0.6233  3.0361 -0.6626
    8MOL0     H 1087   3.200   8.096   1.426  0.2256 -0.4692 -1.8640
    8MOL0     H 1088   1.439   7.708   0.895  1.4291  1.3180  0.4976
    8MOL0     H 1089   1.220   7.672   0.796 -2.0176  0.2108 -2.1106
    8MOL0     H 1090   0.852   7.772   0.830 -0.4070  3.6309  1.9532
    8MOL0     H 1091   0.614   7.688   0.832 -0.1707  0.1430  0.1132
    8MOL0     H 1092   0.445   7.572   0.732  0.0609  0.3567 -1.2876
    8MOL0     H 1093   0.383   7.727   0.795 -1.5099  1.5748 -0.1894
    8MOL0     H 1094   0.259   7.545   0.574 -0.1182  2.6074 -2.7284
    8MOL0     H 1095   0.202   7.707   0.617  0.1900  0.9268  2.2667
    8MOL0     H 1096   0.198   7.470   0.805  0.4149  0.6109  0.5319
    8MOL0     H 1097   0.162   7.640   0.853  1.6352  0.0228  0.2976
    8MOL0     H 1098  -0.008   7.489   0.644 -1.5373  0.1881  0.9061
    8MOL0     H 1099  -0.012   7.655   0.706 -1.2857 -0.6926 -0.5913
    8MOL0     H 1100  -0.194   7.391   0.983  0.6549 -1.1007 -0.9104
    8MOL0     H 1101   0.581   7.860   0.432  1.7933  1.4407  0.4868
    8MOL0     H 1102   0.720   7.995   0.355  0.2457 -0.1047 -0.3990
    8MOL0     H 1103   0.879   8.042   0.409  0.2671 -0.2742 -1.3686
    8MOL0     H 1104   0.863   7.886   0.331 -2.6373 -1.2795 -0.3730
    9MOL0     O 1105   7.936   4.779   5.942 -0.9528  0.8948  0.4871
    9MOL0     C 1106   7.930   4.658   5.913 -0.5193 -0.0809 -0.7050
    9MOL0     O 1107   8.017   4.598   5.823 -0.2436  0.3342 -0.2047
    9MOL0     C 1108   8.154   4.630   5.833  0.0586 -0.6005 -1.2316
    9MOL0     C 1109   8.213   4.699   5.733 -0.3132 -0.0513  0.0335
    9MOL0     C 1110   8.351   4.731   5.725 -0.8524 -0.1382  0.0251
    9MOL0     C 1111   8.437   4.675   5.830  0.3463  0.3719 -0.3130
    9MOL0     O 1112   8.573   4.672   5.835 -1.0882 -0.0371 -0.1175
    9MOL0     C 1113   8.647   4.729   5.729  0.3232  0.2875  0.2360
    9MOL0     C 1114   8.791   4.743   5.780  0.2610  0.0535  0.5755
    9MOL0     C 1115   8.872   4.834   5.679  0.7814  0.5215  0.6965
    9MOL0     C 1116   8.939   4.743   5.568 -0.0956  0.0714 -0.0624
    9MOL0     C 1117   9.013   4.831   5.467  0.2605  0.5144 -0.5590
    9MOL0     C 1118   9.065   4.757   5.343 -0.0243  0.0826  0.4236
    9MOL0     C 1119   9.162   4.636   5.380  0.6783  1.1482  0.9751
    9MOL0     C 1120   9.232   4.586   5.251 -0.6078  0.4844 -0.0649
    9MOL0     N 1121   9.340   4.496   5.297 -0.1225  0.0314  0.1264
    9MOL0     C 1122   9.449   4.533   5.365 -0.4994  0.0977  0.3677
    9MOL0     C 1123   9.513   4.418   5.390 -0.2790 -0.2870 -1.0198
    9MOL0     C 1124   9.643   4.410   5.472 -0.4369  0.6003 -0.5266
    9MOL0     C 1125   9.716   4.276   5.455  0.2274  0.3657 -0.2329
    9MOL0     C 1126   9.874   4.295   5.461  0.7467 -0.1261  0.0223
    9MOL0     C 1127   9.952   4.168   5.428  0.3935  0.7805  0.2116
    9MOL0     O 1128  10.085   4.219   5.390 -0.2382  0.2754  0.0776
    9MOL0     C 1129  10.205   4.180   5.443 -0.1419 -0.6571  0.4043
    9MOL0     C 1130  10.304   4.280   5.449  0.0660  0.7780  0.1364
    9MOL0     C 1131  10.434   4.243   5.485  0.8017 -0.6650  0.2516
    9MOL0     C 1132  10.538   4.360   5.477  0.0924 -0.1141 -0.1551
    9MOL0     C 1133  10.467   4.112   5.521 -0.7634  0.5568  0.1806
    9MOL0     C 1134  10.605   4.064   5.537 -0.3001  0.3046 -0.4787
    9MOL0     O 1135  10.622   3.962   5.623  0.1983 -0.5796  0.2858
    9MOL0     C 1136  10.752   3.935   5.663  0.4599 -0.1848 -0.3659
    9MOL0     C 1137  10.834   4.029   5.722 -0.4348  0.5402 -0.0506
    9MOL0     C 1138  10.966   3.993   5.757  0.0653  0.1442  1.1515
    9MOL0     C 1139  11.014   3.867   5.732  0.7531 -1.2268 -1.3687
    9MOL0     O 1140  11.141   3.825   5.753  0.0785  0.4939  0.1630
    9MOL0     C 1141  11.228   3.916   5.823  0.0934  0.0375  0.4172
    9MOL0     C 1142  11.198   3.916   5.975 -0.6433 -1.5099 -1.5964
    9MOL0     C 1143  11.279   4.026   6.048  0.7296 -0.0958  0.2249
    9MOL0     C 1144  11.250   4.027   6.199  0.0099 -0.5769 -0.3389
    9MOL0     C 1145  11.337   3.930   6.287  1.0091  0.5835 -0.4626
    9MOL0     C 1146  11.480   3.983   6.299 -0.1935 -0.7984 -0.2866
    9MOL0     C 1147  11.571   3.988   6.171 -0.8281 -0.4857  0.2337
    9MOL0     C 1148  11.716   3.956   6.218 -0.1724  0.3628 -0.1158
    9MOL0    Cl 1149  11.821   3.973   6.073 -0.3473  0.0376  0.1281
    9MOL0     C 1150  10.929   3.771   5.679  0.5245  0.1711  0.4901
    9MOL0     C 1151  10.799   3.802   5.645 -0.0969 -0.0032 -0.4540
    9MOL0     O 1152  10.696   4.131   5.493  0.0452 -0.7630  1.2167
    9MOL0     C 1153  10.365   4.014   5.512 -0.3791 -0.8546 -0.7753
    9MOL0     C 1154  10.235   4.046   5.473  0.6959 -0.0010 -1.0114
    9MOL0     N 1155   9.435   4.309   5.346 -0.4224  0.1033  0.1945
    9MOL0     N 1156   9.331   4.360   5.290 -0.2063  0.7217 -0.4263
    9MOL0     C 1157   8.374   4.580   5.911 -0.5810 -0.1330 -0.5531
    9MOL0     C 1158   8.232   4.561   5.924  0.0315 -0.1597  0.0286
    9MOL0     C 1159   7.802   4.590   5.949  0.6790 -0.1924 -0.5948
    9MOL0     C 1160   7.766   4.466   5.890 -0.1448 -0.5934 -0.1094
    9MOL0     C 1161   7.655   4.397   5.931  0.0172  0.1911 -0.0788
    9MOL0     C 1162   7.561   4.450   6.019  0.6142  0.9394 -0.6194
    9MOL0     O 1163   7.450   4.389   6.069  1.0414  0.3329  0.0040
    9MOL0     C 1164   7.406   4.266   6.010 -0.4025 -0.4663 -0.0039
    9MOL0     C 1165   7.286   4.219   6.081 -0.3995 -0.3236 -0.5424
    9MOL0     C 1166   7.179   4.325   6.096 -0.0560 -0.5405 -0.2036
    9MOL0     C 1167   7.042   4.265   6.145  1.3733 -0.0832  0.1223
    9MOL0     C 1168   7.045   4.228   6.289 -0.7982 -0.6575 -0.0424
    9MOL0     C 1169   7.031   4.186   6.403  0.1107 -0.6530  0.6904
    9MOL0     C 1170   7.591   4.569   6.076  0.1244 -0.4220 -0.5757
    9MOL0     C 1171   7.706   4.643   6.039 -0.4999 -0.0447  0.3259
    9MOL0     C 1172   7.715   4.768   6.109  0.1462 -0.1723 -0.1293
    9MOL0     H 1173   8.143   4.741   5.661  0.5967 -1.3575 -1.6775
    9MOL0     H 1174   8.380   4.796   5.644 -1.3123  0.4533  0.3267
    9MOL0     H 1175   8.604   4.828   5.713  0.7261  0.8601  2.3997
    9MOL0     H 1176   8.637   4.667   5.639 -3.7877 -0.1190  0.7820
    9MOL0     H 1177   8.797   4.786   5.881  1.9300  3.7723 -0.9252
    9MOL0     H 1178   8.823   4.638   5.782 -0.8984 -0.3091  1.4533
    9MOL0     H 1179   8.806   4.898   5.619  3.8112  0.2136 -3.4029
    9MOL0     H 1180   8.943   4.894   5.737  0.3301  1.0262  0.7413
    9MOL0     H 1181   9.019   4.683   5.610  1.2263  2.5317  1.2035
    9MOL0     H 1182   8.857   4.687   5.523 -2.2349  1.4906  1.8165
    9MOL0     H 1183   9.099   4.876   5.519 -0.4257 -0.7041  1.7731
    9MOL0     H 1184   8.952   4.909   5.422 -1.3235 -1.7466 -2.6090
    9MOL0     H 1185   8.976   4.711   5.300 -0.6967  0.6717  1.1629
    9MOL0     H 1186   9.122   4.820   5.274  2.1688 -2.5704 -0.3599
    9MOL0     H 1187   9.114   4.550   5.428  1.5458  1.0076  1.6224
    9MOL0     H 1188   9.241   4.678   5.443  1.5825  0.8925  0.0515
    9MOL0     H 1189   9.177   4.524   5.180  1.9891 -0.3385 -1.4598
    9MOL0     H 1190   9.278   4.668   5.196  0.5504 -0.4216 -0.4865
    9MOL0     H 1191   9.477   4.635   5.389 -0.3307 -0.2449  1.6732
    9MOL0     H 1192   9.606   4.423   5.574  2.4172 -1.1484  0.8910
    9MOL0     H 1193   9.704   4.498   5.448  1.0084  0.1721  1.3009
    9MOL0     H 1194   9.687   4.210   5.536 -0.6287  2.0668  0.9018
    9MOL0     H 1195   9.690   4.217   5.367  0.7083 -0.0825 -0.0791
    9MOL0     H 1196   9.891   4.366   5.379 -0.0211 -1.4250 -1.3024
    9MOL0     H 1197   9.912   4.339   5.554 -0.5512 -0.1319  0.5771
    9MOL0     H 1198   9.963   4.103   5.515 -1.4687 -0.7327 -0.6090
    9MOL0     H 1199   9.912   4.116   5.340 -0.7673  2.7951 -0.5428
    9MOL0     H 1200  10.282   4.385   5.436 -0.7222  0.3372 -2.6766
    9MOL0     H 1201  10.487   4.451   5.446 -1.3233 -0.7401  0.2578
    9MOL0     H 1202  10.611   4.340   5.397 -1.1914  0.3026 -1.4790
    9MOL0     H 1203  10.590   4.392   5.567  1.6875 -1.5754 -0.4938
    9MOL0     H 1204  10.803   4.129   5.747  1.6733  0.5838  2.9884
    9MOL0     H 1205  11.023   4.081   5.785  0.3941 -0.3797  2.1688
    9MOL0     H 1206  11.329   3.877   5.808  0.1614  0.4601 -0.3078
    9MOL0     H 1207  11.225   4.015   5.776  0.3268 -0.2601 -0.2385
    9MOL0     H 1208  11.090   3.925   5.990 -0.3597 -0.7214  0.2879
    9MOL0     H 1209  11.225   3.818   6.017  1.0929  0.4410  2.4098
    9MOL0     H 1210  11.242   4.119   6.006 -0.6968 -0.7124  0.0569
    9MOL0     H 1211  11.383   4.010   6.015  0.2378  2.2718 -2.8939
    9MOL0     H 1212  11.145   3.998   6.212  0.4676 -1.6854  1.1316
    9MOL0     H 1213  11.276   4.127   6.234  2.8309 -1.6633  0.9882
    9MOL0     H 1214  11.301   3.905   6.388  4.7698 -0.3719  0.8098
    9MOL0     H 1215  11.340   3.830   6.243 -1.9185  0.5083 -0.7311
    9MOL0     H 1216  11.528   3.927   6.380  0.9197  0.5240  0.0049
    9MOL0     H 1217  11.469   4.082   6.345 -1.0847 -1.3217  0.6561
    9MOL0     H 1218  11.572   4.085   6.120  0.4040 -0.5242  0.1512
    9MOL0     H 1219  11.556   3.914   6.091  0.2588 -1.3274  0.7760
    9MOL0     H 1220  11.714   3.857   6.265  0.2192  0.0693 -0.7004
    9MOL0     H 1221  11.751   4.030   6.290  1.8878 -1.2131  0.6089
    9MOL0     H 1222  10.954   3.667   5.663  0.6211  0.3785 -0.7646
    9MOL0     H 1223  10.738   3.729   5.593  3.1059 -1.2379 -2.8137
    9MOL0     H 1224  10.375   3.915   5.554  0.4263  0.0434  1.2632
    9MOL0     H 1225  10.164   3.964   5.468 -1.3594  1.5491  0.8091
    9MOL0     H 1226   8.442   4.523   5.973  0.2775 -1.3235 -2.4953
    9MOL0     H 1227   8.183   4.497   5.996 -0.4324  0.8551  0.6488
    9MOL0     H 1228   7.838   4.422   5.823  1.4233  1.0643  0.4215
    9MOL0     H 1229   7.641   4.296   5.893 -0.6210  0.6519 -1.0866
    9MOL0     H 1230   7.382   4.280   5.904  1.3127 -0.0387 -0.3714
    9MOL0     H 1231   7.481   4.186   6.011  0.3718  0.0001 -4.0756
    9MOL0     H 1232   7.310   4.183   6.182 -0.2471 -1.6257 -1.0218
    9MOL0     H 1233   7.248   4.137   6.020 -0.3876 -0.7245 -0.0222
    9MOL0     H 1234   7.215   4.400   6.168 -0.2845 -0.5760 -0.0522
    9MOL0     H 1235   7.154   4.366   5.998 -1.7774 -1.2381 -0.0888
    9MOL0     H 1236   7.018   4.184   6.076  1.7467  0.2593 -0.4199
    9MOL0     H 1237   6.960   4.336   6.125 -0.6053 -1.8257  1.6468
    9MOL0     H 1238   7.028   4.134   6.497 -2.9734  0.1391  1.1397
    9MOL0     H 1239   7.524   4.608   6.152  0.7138 -1.4890  0.5208
    9MOL0     H 1240   7.679   4.844   6.040  0.6964 -1.2097 -1.6216
    9MOL0     H 1241   7.651   4.772   6.197  2.2298 -0.4209  1.4962
    9MOL0     H 1242   7.819   4.793   6.136  0.9884 -2.3042 -1.1700
   10MOL0     O 1243   4.415   6.196   5.244 -0.0754 -0.5577  0.0412
   10MOL0     C 1244   4.349   6.301   5.251 -0.6154  0.1693 -1.2227
   10MOL0     O 1245   4.365   6.390   5.354  0.6900 -0.2245  0.4105
   10MOL0     C 1246   4.445   6.374   5.466 -0.4895 -1.3022  0.4882
   10MOL0     C 1247   4.481   6.484   5.539 -0.0822 -0.0553  0.1005
   10MOL0     C 1248   4.545   6.481   5.659 -0.3143  0.4910 -0.2841
   10MOL0     C 1249   4.580   6.359   5.713  0.0391 -0.1000  0.3721
   10MOL0     O 1250   4.648   6.346   5.830 -0.2300  0.7382  0.5516
   10MOL0     C 1251   4.699   6.227   5.882  0.5959 -0.3205  0.1404
   10MOL0     C 1252   4.762   6.267   6.014  0.6301  0.2428 -0.2569
   10MOL0     C 1253   4.870   6.379   6.003  0.1653 -0.2873 -0.1141
   10MOL0     C 1254   4.935   6.409   6.142  0.9372  0.6816 -0.1922
   10MOL0     C 1255   5.070   6.458   6.127 -0.3118 -0.8608 -0.2591
   10MOL0     C 1256   5.132   6.491   6.270 -0.0269  0.7804  0.8693
   10MOL0     C 1257   5.268   6.547   6.250 -0.2937  0.1646  0.2694
   10MOL0     C 1258   5.377   6.439   6.229  0.0330 -0.1439 -0.1668
   10MOL0     N 1259   5.509   6.488   6.222 -0.6477 -0.8567  0.6125
   10MOL0     C 1260   5.609   6.500   6.320  0.6511  0.5224 -0.3478
   10MOL0     C 1261   5.706   6.589   6.278 -0.3385 -0.1328 -0.2210
   10MOL0     C 1262   5.832   6.614   6.352 -0.0364 -0.1942  0.2409
   10MOL0     C 1263   5.898   6.736   6.286  0.1653  0.2107 -0.0398
   10MOL0     C 1264   6.041   6.767   6.335  0.5107  0.2196 -0.2313
   10MOL0     C 1265   6.095   6.893   6.261  0.0604 -0.4466 -0.0590
   10MOL0     O 1266   6.218   6.932   6.315 -0.6114 -0.7737 -0.0244
   10MOL0     C 1267   6.334   6.923   6.237  0.1251  0.2713 -0.2033
   10MOL0     C 1268   6.347   6.844   6.128 -0.1254  1.0759  0.0447
   10MOL0     C 1269   6.468   6.832   6.063 -1.7100  0.8396  0.1404
   10MOL0     C 1270   6.479   6.746   5.937  0.6868  0.5149 -0.6465
   10MOL0     C 1271   6.587   6.884   6.121 -0.1056 -0.3228 -0.4726
   10MOL0     C 1272   6.726   6.850   6.084 -0.1233 -0.1287  0.7512
   10MOL0     O 1273   6.746   6.726   6.026  0.0027  0.3998  0.1029
   10MOL0     C 1274   6.875   6.684   6.005  0.3793  0.1808 -0.2857
   10MOL0     C 1275   6.943   6.590   6.075  0.5124  0.0400  0.3232
   10MOL0     C 1276   7.074   6.545   6.033  0.1245  0.7119 -0.5279
   10MOL0     C 1277   7.133   6.594   5.917 -0.1327  0.9194  0.6451
   10MOL0     O 1278   7.247   6.552   5.857  0.1732  0.3180  0.4151
   10MOL0     C 1279   7.314   6.435   5.914 -0.0839 -0.2856 -0.2442
   10MOL0     C 1280   7.423   6.376   5.822  0.1336 -0.7763  0.2807
   10MOL0     C 1281   7.519   6.480   5.758  0.1293  0.1831 -0.5770
   10MOL0     C 1282   7.643   6.402   5.692 -0.1803  0.0943  0.2186
   10MOL0     C 1283   7.751   6.502   5.636 -0.1423  1.2961  0.9029
   10MOL0     C 1284   7.905   6.458   5.638  0.2483 -0.5218  0.3998
   10MOL0     C 1285   7.945   6.340   5.726 -0.5688 -0.1875  0.3832
   10MOL0     C 1286   8.079   6.284   5.691  0.5016  0.4952  0.8837
   10MOL0    Cl 1287   8.199   6.406   5.738  0.0668  0.4830  0.1993
   10MOL0     C 1288   7.051   6.681   5.841  0.3247  0.7681  0.1508
   10MOL0     C 1289   6.932   6.728   5.886  0.0407  0.0545 -0.2791
   10MOL0     O 1290   6.814   6.929   6.109 -0.4379  0.1934  0.0595
   10MOL0     C 1291   6.575   6.960   6.242 -0.2103  0.3831 -0.8512
   10MOL0     C 1292   6.444   6.986   6.293 -0.2539  0.9289 -0.0192
   10MOL0     N 1293   5.677   6.621   6.150  0.2691 -0.2658  1.0078
   10MOL0     N 1294   5.558   6.571   6.124  0.8807  0.4646  0.4227
   10MOL0     C 1295   4.547   6.247   5.637 -0.3189 -0.5186 -0.8262
   10MOL0     C 1296   4.478   6.248   5.519 -0.3712 -0.6373 -0.1412
   10MOL0     C 1297   4.265   6.341   5.141  1.1470  0.0263  0.6451
   10MOL0     C 1298   4.156   6.444   5.169 -0.4652 -1.1577 -0.2314
   10MOL0     C 1299   4.065   6.490   5.068  0.4821 -0.0940 -0.1792
   10MOL0     C 1300   4.074   6.431   4.945  1.1287  0.0429  0.2383
   10MOL0     O 1301   3.981   6.460   4.846  0.6532  0.3575 -0.2774
   10MOL0     C 1302   3.903   6.576   4.859  0.6611 -0.1424 -0.0876
   10MOL0     C 1303   3.833   6.623   4.730 -0.4610 -0.0601 -1.7076
   10MOL0     C 1304   3.922   6.629   4.611  0.6278 -0.2159  0.2952
   10MOL0     C 1305   3.843   6.685   4.482  0.4290 -0.0901  0.6210
   10MOL0     C 1306   3.735   6.594   4.441 -0.0321 -0.0817 -0.0340
   10MOL0     C 1307   3.639   6.536   4.397  0.2151  0.0454  0.1512
   10MOL0     C 1308   4.160   6.324   4.916  0.5440  0.2266 -0.2196
   10MOL0     C 1309   4.258   6.282   5.016 -0.0462  0.0271  0.2571
   10MOL0     C 1310   4.351   6.161   4.977  0.6020 -0.3603 -0.2547
   10MOL0     H 1311   4.455   6.583   5.502  5.0133 -0.0056 -4.9198
   10MOL0     H 1312   4.576   6.568   5.716  1.1752 -1.0985  1.4256
   10MOL0     H 1313   4.769   6.185   5.810 -0.6967 -1.2952 -0.5875
   10MOL0     H 1314   4.615   6.163   5.910  1.1359 -1.2776 -0.3818
   10MOL0     H 1315   4.691   6.307   6.088  1.1168 -2.2229  1.6627
   10MOL0     H 1316   4.807   6.176   6.053  1.3542  1.0518  0.8707
   10MOL0     H 1317   4.949   6.348   5.935  1.6963 -0.1686  1.5379
   10MOL0     H 1318   4.824   6.471   5.965  0.7210  1.2706  2.6565
   10MOL0     H 1319   4.865   6.468   6.202 -3.0809 -2.6943 -1.0256
   10MOL0     H 1320   4.938   6.312   6.192 -0.7658 -0.1482 -1.5831
   10MOL0     H 1321   5.064   6.553   6.073  1.2439  1.2740  2.9761
   10MOL0     H 1322   5.135   6.386   6.077  1.4939  1.2679 -1.1302
   10MOL0     H 1323   5.063   6.561   6.318 -1.9193  1.3342 -2.4021
   10MOL0     H 1324   5.145   6.416   6.348  0.5015  0.5043  0.5208
   10MOL0     H 1325   5.278   6.612   6.338 -1.8484 -1.8830  2.0681
   10MOL0     H 1326   5.277   6.622   6.170 -0.7371  1.2859  1.2276
   10MOL0     H 1327   5.373   6.361   6.305  1.4981 -0.1187 -0.0343
   10MOL0     H 1328   5.349   6.389   6.136 -0.2815  1.8581 -1.2144
   10MOL0     H 1329   5.611   6.450   6.417  0.9280  3.3376  1.2272
   10MOL0     H 1330   5.901   6.529   6.348  0.2300 -0.0262  1.0601
   10MOL0     H 1331   5.800   6.644   6.452  0.1889  1.1028 -0.0595
   10MOL0     H 1332   5.886   6.735   6.178 -2.3956 -2.4781  0.1647
   10MOL0     H 1333   5.839   6.822   6.320  1.5404  0.9314  0.5919
   10MOL0     H 1334   6.027   6.791   6.441 -4.1527  1.7356 -0.9653
   10MOL0     H 1335   6.103   6.677   6.333 -0.6408 -0.5901 -0.8628
   10MOL0     H 1336   6.093   6.888   6.152  1.5280 -2.0132 -0.0606
   10MOL0     H 1337   6.032   6.982   6.274  0.1359 -0.3116 -0.6079
   10MOL0     H 1338   6.269   6.778   6.092 -0.1284  0.1961  1.6058
   10MOL0     H 1339   6.381   6.752   5.888 -0.5413  2.7495  1.8509
   10MOL0     H 1340   6.488   6.638   5.954 -1.3781 -0.0743 -2.7525
   10MOL0     H 1341   6.555   6.781   5.867 -0.3505  1.1316 -1.4952
   10MOL0     H 1342   6.886   6.545   6.156 -0.0826  1.6469  0.8623
   10MOL0     H 1343   7.128   6.484   6.105 -1.8287  0.5179  0.8709
   10MOL0     H 1344   7.366   6.465   6.005  2.5529 -0.9206 -1.4270
   10MOL0     H 1345   7.235   6.361   5.930 -0.9657  0.9380  1.3496
   10MOL0     H 1346   7.485   6.297   5.865  2.3401  0.9466  0.4364
   10MOL0     H 1347   7.381   6.330   5.732  0.5635 -2.0095  0.6892
   10MOL0     H 1348   7.564   6.552   5.827 -0.0191  1.1280 -1.4354
   10MOL0     H 1349   7.464   6.530   5.677 -2.3701  1.4539  1.7458
   10MOL0     H 1350   7.615   6.328   5.617  4.6223 -2.5970  0.6679
   10MOL0     H 1351   7.690   6.337   5.766  2.5824 -0.7721 -2.1208
   10MOL0     H 1352   7.720   6.510   5.531 -2.1319 -1.0712  1.2079
   10MOL0     H 1353   7.732   6.598   5.685 -1.7077  2.0029 -0.9468
   10MOL0     H 1354   7.969   6.541   5.670 -0.1333 -0.3720  0.7858
   10MOL0     H 1355   7.942   6.438   5.537  2.2234  0.3681  0.9106
   10MOL0     H 1356   7.874   6.257   5.726 -0.3605 -0.3748 -0.2844
   10MOL0     H 1357   7.950   6.375   5.830  2.0517 -0.0261  0.2646
   10MOL0     H 1358   8.075   6.267   5.583 -2.8948 -1.9459  1.2226
   10MOL0     H 1359   8.092   6.181   5.727  0.6527 -0.2118 -1.0526
   10MOL0     H 1360   7.090   6.721   5.748  0.7450 -0.0944 -0.0500
   10MOL0     H 1361   6.875   6.799   5.827  2.0210  1.7837 -0.2251
   10MOL0     H 1362   6.666   6.995   6.290 -0.0404  1.1992 -1.7423
   10MOL0     H 1363   6.447   7.035   6.390  2.8180 -2.1421  1.7159
   10MOL0     H 1364   4.565   6.152   5.686  0.0680  0.5957  1.3478
   10MOL0     H 1365   4.443   6.153   5.480 -2.4615  0.5254 -1.2622
   10MOL0     H 1366   4.157   6.491   5.267 -0.4700  0.6387 -1.0516
   10MOL0     H 1367   4.003   6.577   5.087 -0.2825 -0.8102  0.7162
   10MOL0     H 1368   3.819   6.560   4.927 -1.6098 -2.7720 -3.1817
   10MOL0     H 1369   3.964   6.659   4.895  0.7706  0.6219 -1.8866
   10MOL0     H 1370   3.792   6.724   4.740 -1.1626 -0.5516  1.2286
   10MOL0     H 1371   3.751   6.555   4.703  2.5018 -4.3449 -0.9817
   10MOL0     H 1372   4.015   6.681   4.636  1.8210 -0.5754 -2.8827
   10MOL0     H 1373   3.951   6.526   4.588  1.1020  0.6897 -4.1559
   10MOL0     H 1374   3.918   6.693   4.403 -0.0454  0.3031  0.2069
   10MOL0     H 1375   3.807   6.787   4.496  0.2047  0.2374 -1.8693
   10MOL0     H 1376   3.554   6.482   4.360 -1.0719  0.8190  1.8241
   10MOL0     H 1377   4.169   6.267   4.824 -5.5986  0.2304 -1.2524
   10MOL0     H 1378   4.454   6.198   4.981 -1.0536  5.5866 -2.1160
   10MOL0     H 1379   4.341   6.073   5.040  0.4733 -1.6129 -1.9658
   10MOL0     H 1380   4.326   6.122   4.878  2.0090  0.1411 -0.8339
   11MOL0     O 1381   6.987  10.971  11.166 -1.0451 -0.7207 -0.7305
   11MOL0     C 1382   6.869  10.971  11.188 -0.5029  0.0648  0.1427
   11MOL0     O 1383   6.775  11.064  11.144 -0.1182  0.3570 -0.3909
   11MOL0     C 1384   6.810  11.175  11.073 -0.4059 -0.1815 -0.3384
   11MOL0     C 1385   6.707  11.242  10.997  0.3891 -0.1239 -0.5997
   11MOL0     C 1386   6.735  11.369  10.943  0.0606 -0.3532  0.3718
   11MOL0     C 1387   6.860  11.430  10.947  0.8424  0.6177 -0.9633
   11MOL0     O 1388   6.905  11.544  10.881  0.4036  0.1085  0.3852
   11MOL0     C 1389   6.801  11.635  10.838  0.9772  0.1868 -0.6555
   11MOL0     C 1390   6.847  11.761  10.782  0.5075  0.3757 -0.7073
   11MOL0     C 1391   6.905  11.866  10.893 -0.0360  0.4907  0.1308
   11MOL0     C 1392   6.916  12.010  10.842 -0.2441  0.3780 -0.0507
   11MOL0     C 1393   6.994  12.098  10.940 -0.5355 -0.8926 -0.9181
   11MOL0     C 1394   6.992  12.242  10.881 -0.5945 -0.7115 -0.6083
   11MOL0     C 1395   7.068  12.328  10.976 -0.0113  0.3047  0.4331
   11MOL0     C 1396   7.071  12.472  10.930 -0.5652 -0.2412 -0.0273
   11MOL0     N 1397   7.121  12.566  11.028 -0.9205  0.1708  0.5878
   11MOL0     C 1398   7.248  12.566  11.067 -0.1708 -0.2173  0.0378
   11MOL0     C 1399   7.254  12.670  11.156 -0.8841  0.1000 -0.0167
   11MOL0     C 1400   7.383  12.729  11.219  0.2617 -0.4937 -0.3590
   11MOL0     C 1401   7.432  12.639  11.332 -0.2760  0.7025  0.3515
   11MOL0     C 1402   7.333  12.649  11.454 -0.1513  0.1393 -0.1841
   11MOL0     C 1403   7.388  12.565  11.578 -0.6921 -0.1008  0.5009
   11MOL0     O 1404   7.391  12.423  11.553  0.0048  0.1015  0.3797
   11MOL0     C 1405   7.507  12.364  11.598  0.3658  0.2536 -0.7183
   11MOL0     C 1406   7.547  12.354  11.733 -0.2449 -0.9308  0.7493
   11MOL0     C 1407   7.666  12.307  11.781 -1.2520 -1.0135 -0.2299
   11MOL0     C 1408   7.703  12.324  11.926 -0.7745 -0.6153  0.2894
   11MOL0     C 1409   7.763  12.266  11.679  0.9357 -0.0511  0.2620
   11MOL0     C 1410   7.895  12.218  11.706 -0.6947 -0.0711 -0.7852
   11MOL0     O 1411   7.976  12.225  11.605 -0.5847 -0.2708  0.0788
   11MOL0     C 1412   8.114  12.200  11.622  0.5737  0.3344 -0.2708
   11MOL0     C 1413   8.181  12.093  11.561  0.7875 -0.5880 -0.1784
   11MOL0     C 1414   8.318  12.068  11.584 -0.3436 -0.1735  0.4021
   11MOL0     C 1415   8.393  12.148  11.669 -0.0638  0.5071 -0.3337
   11MOL0     O 1416   8.527  12.139  11.694 -0.1753 -0.0260  0.7000
   11MOL0     C 1417   8.586  12.006  11.677  0.1509 -0.2577  0.3359
   11MOL0     C 1418   8.716  11.994  11.756 -0.2808 -0.3996  0.2053
   11MOL0     C 1419   8.722  12.021  11.904 -0.4773  0.1184  0.7997
   11MOL0     C 1420   8.684  12.155  11.960 -0.8825  1.2777 -0.5955
   11MOL0     C 1421   8.716  12.161  12.114 -0.6885  0.3428  0.2841
   11MOL0     C 1422   8.650  12.290  12.167  0.0644 -0.1753  0.3337
   11MOL0     C 1423   8.680  12.304  12.318 -0.0246 -0.1932 -0.4159
   11MOL0     C 1424   8.621  12.434  12.369  0.2059 -0.4959 -0.6811
   11MOL0    Cl 1425   8.447  12.428  12.350 -0.0172 -0.2230 -0.3788
   11MOL0     C 1426   8.322  12.254  11.729 -0.5995 -0.6897 -0.3155
   11MOL0     C 1427   8.184  12.277  11.716 -0.1504  0.1415  0.4633
   11MOL0     O 1428   7.916  12.167  11.815  0.0138  0.3914 -0.1871
   11MOL0     C 1429   7.726  12.270  11.543  0.4098  0.5194 -0.3144
   11MOL0     C 1430   7.601  12.318  11.505  0.5454 -0.0362  0.4051
   11MOL0     N 1431   7.126  12.733  11.148 -0.9326  0.2003  0.8672
   11MOL0     N 1432   7.044  12.661  11.089 -0.3148 -0.2340  0.7388
   11MOL0     C 1433   6.955  11.359  11.018 -0.4900 -0.0795 -0.3038
   11MOL0     C 1434   6.927  11.241  11.094 -0.8509 -0.0470 -0.2334
   11MOL0     C 1435   6.825  10.852  11.274 -0.6066  0.0415  0.4096
   11MOL0     C 1436   6.922  10.775  11.351  0.6436 -0.3822 -0.1479
   11MOL0     C 1437   6.895  10.666  11.428 -0.0839 -0.5985 -0.0994
   11MOL0     C 1438   6.760  10.623  11.441 -0.2945 -0.0339  0.2882
   11MOL0     O 1439   6.720  10.513  11.508 -0.1139 -0.1507 -0.4670
   11MOL0     C 1440   6.789  10.396  11.471  1.3419 -1.0687  0.5204
   11MOL0     C 1441   6.693  10.275  11.483 -0.0014  0.2386 -0.1991
   11MOL0     C 1442   6.778  10.149  11.460 -0.7568 -0.0907  0.3117
   11MOL0     C 1443   6.805  10.124  11.312 -0.3987 -0.7873 -0.0141
   11MOL0     C 1444   6.944  10.075  11.303  0.2612 -0.0988 -0.3925
   11MOL0     C 1445   7.054  10.033  11.285 -0.0937 -0.3784  0.1023
   11MOL0     C 1446   6.661  10.696  11.378  0.1624  0.0508 -0.0487
   11MOL0     C 1447   6.691  10.814  11.303 -0.0448 -0.7281  0.5374
   11MOL0     C 1448   6.566  10.878  11.241  0.1549 -0.4490 -0.7655
   11MOL0     H 1449   6.612  11.189  10.996  0.9922 -1.7375  4.0467
   11MOL0     H 1450   6.650  11.417  10.896 -1.1619  0.4043  3.1429
   11MOL0     H 1451   6.735  11.651  10.924 -0.6240 -4.2071 -0.8243
   11MOL0     H 1452   6.750  11.591  10.751  0.1748  1.0263 -0.6228
   11MOL0     H 1453   6.927  11.744  10.709 -0.3760 -1.0023 -1.4012
   11MOL0     H 1454   6.764  11.809  10.730  1.7601 -0.0074 -3.1673
   11MOL0     H 1455   6.834  11.872  10.977  0.2644 -0.1641  0.4368
   11MOL0     H 1456   7.005  11.838  10.926  1.7865  2.2615 -3.4105
   11MOL0     H 1457   6.963  12.014  10.743 -2.7555 -0.0184 -1.3341
   11MOL0     H 1458   6.812  12.040  10.826 -1.7469 -4.3174 -0.4715
   11MOL0     H 1459   7.095  12.056  10.944 -0.7338 -1.4157 -1.3829
   11MOL0     H 1460   6.952  12.098  11.041 -0.1681  1.4734 -0.6954
   11MOL0     H 1461   7.046  12.252  10.786 -2.3644 -1.3263 -1.7416
   11MOL0     H 1462   6.889  12.274  10.863  0.1654  0.2646 -3.9716
   11MOL0     H 1463   7.165  12.280  10.991 -0.0759 -0.1667 -0.5875
   11MOL0     H 1464   7.027  12.325  11.077 -1.1337 -0.5764 -0.0283
   11MOL0     H 1465   7.134  12.487  10.841 -2.4898 -0.6831 -1.5435
   11MOL0     H 1466   6.975  12.517  10.904  0.5527  3.7547  2.0479
   11MOL0     H 1467   7.326  12.499  11.032 -0.7430  0.6604 -3.2483
   11MOL0     H 1468   7.361  12.819  11.277  1.9817 -1.0410  1.2321
   11MOL0     H 1469   7.462  12.748  11.146  1.1544  0.1571  0.7557
   11MOL0     H 1470   7.445  12.538  11.292  0.0089  1.4472 -1.4925
   11MOL0     H 1471   7.528  12.677  11.367  0.0142  1.7654 -1.5004
   11MOL0     H 1472   7.323  12.750  11.494 -1.3472  0.5032 -1.3233
   11MOL0     H 1473   7.236  12.609  11.424 -0.0423 -1.2975  1.2610
   11MOL0     H 1474   7.482  12.604  11.618  0.5870 -0.5743 -1.8610
   11MOL0     H 1475   7.315  12.578  11.658  0.7688 -0.7651  2.0112
   11MOL0     H 1476   7.484  12.397  11.810  1.9475  2.3329  0.9532
   11MOL0     H 1477   7.641  12.404  11.967 -1.2835 -1.2641  0.8189
   11MOL0     H 1478   7.808  12.357  11.932 -0.5346 -1.4117  0.6865
   11MOL0     H 1479   7.691  12.232  11.984  1.3514 -1.8751 -1.1366
   11MOL0     H 1480   8.132  12.036  11.483  3.0988 -1.5711 -0.9961
   11MOL0     H 1481   8.385  12.000  11.533  2.4330  3.2579 -0.9620
   11MOL0     H 1482   8.507  11.949  11.727 -0.6431  1.1202  0.7165
   11MOL0     H 1483   8.603  11.984  11.571  0.4725  1.3129  0.0305
   11MOL0     H 1484   8.752  11.891  11.745  0.9202 -0.1297  1.3782
   11MOL0     H 1485   8.790  12.058  11.707  0.0098 -0.6967  0.2483
   11MOL0     H 1486   8.821  12.003  11.948  0.0692 -0.3507 -0.5856
   11MOL0     H 1487   8.648  11.962  11.960  0.5364 -0.2229  1.8282
   11MOL0     H 1488   8.575  12.157  11.946 -1.3564  0.1757  2.2313
   11MOL0     H 1489   8.733  12.237  11.906  0.8767  1.0925  0.6530
   11MOL0     H 1490   8.681  12.071  12.165  2.6946 -0.1080  2.1126
   11MOL0     H 1491   8.823  12.171  12.133 -0.7474 -0.6364  1.1958
   11MOL0     H 1492   8.541  12.288  12.157 -0.1125 -0.9882  2.0541
   11MOL0     H 1493   8.688  12.375  12.110 -1.3033 -0.7820 -1.5805
   11MOL0     H 1494   8.788  12.312  12.327 -0.1784  1.0103  0.4565
   11MOL0     H 1495   8.645  12.216  12.372 -0.5113  0.5052  0.4241
   11MOL0     H 1496   8.665  12.521  12.319 -0.9602 -0.1842 -1.2090
   11MOL0     H 1497   8.645  12.442  12.475  0.3268  3.6659 -0.8478
   11MOL0     H 1498   8.382  12.316  11.794 -0.6542 -2.0203  1.0691
   11MOL0     H 1499   8.149  12.355  11.782  0.0447  0.7592 -0.1533
   11MOL0     H 1500   7.784  12.224  11.464  1.0644  1.3923 -0.3633
   11MOL0     H 1501   7.565  12.322  11.403  0.7457 -0.7373  0.3037
   11MOL0     H 1502   7.051  11.409  11.019 -1.7693  2.6358  2.3366
   11MOL0     H 1503   7.005  11.199  11.157  0.2329 -1.9423 -2.6378
   11MOL0     H 1504   7.028  10.790  11.338  0.6264  1.4247  1.4205
   11MOL0     H 1505   6.968  10.604  11.479  0.7304 -1.7829 -2.5238
   11MOL0     H 1506   6.813  10.413  11.366 -1.9706  2.0843  0.0657
   11MOL0     H 1507   6.883  10.389  11.525  2.5412  0.3811 -1.2686
   11MOL0     H 1508   6.621  10.284  11.402  0.1820 -0.3602 -0.4316
   11MOL0     H 1509   6.635  10.273  11.576 -0.4820  2.6335 -0.3729
   11MOL0     H 1510   6.869  10.163  11.519 -0.3322  1.0598 -0.5813
   11MOL0     H 1511   6.725  10.064  11.503  0.0868 -0.9757 -0.3722
   11MOL0     H 1512   6.807  10.214  11.249  0.6930  0.3979  1.6340
   11MOL0     H 1513   6.738  10.054  11.261  1.8941 -2.5935 -0.7452
   11MOL0     H 1514   7.151   9.993  11.263 -0.5601 -2.4732  1.5321
   11MOL0     H 1515   6.562  10.653  11.389  0.4743 -0.0682  3.2836
   11MOL0     H 1516   6.581  10.888  11.134  3.0279  1.2597 -0.2847
   11MOL0     H 1517   6.482  10.810  11.261  0.1354 -0.1139  0.3638
   11MOL0     H 1518   6.546  10.973  11.291 -3.5242 -2.3689  1.9764
   12MOL0     O 1519   1.514   9.218   5.241 -0.2548  0.5346 -0.0808
   12MOL0     C 1520   1.576   9.148   5.162  0.1030  1.0687 -0.3045
   12MOL0     O 1521   1.675   9.066   5.197  0.5405 -0.1370 -0.8556
   12MOL0     C 1522   1.695   9.010   5.317  0.5524  0.4236 -0.0621
   12MOL0     C 1523   1.824   8.980   5.361 -0.5159 -0.6872 -0.1574
   12MOL0     C 1524   1.835   8.922   5.487 -0.7373  0.3726  0.4176
   12MOL0     C 1525   1.726   8.890   5.574  0.1427  0.1726  0.4566
   12MOL0     O 1526   1.751   8.820   5.686  0.4124  0.0083 -0.0857
   12MOL0     C 1527   1.667   8.826   5.801  0.7014 -0.7149 -0.0175
   12MOL0     C 1528   1.748   8.798   5.927  0.0532 -0.2753 -0.3616
   12MOL0     C 1529   1.779   8.648   5.938 -0.3368  0.0503  0.1997
   12MOL0     C 1530   1.874   8.604   6.046 -0.7265  0.2073 -0.5554
   12MOL0     C 1531   1.918   8.459   6.029 -0.0960 -0.4999 -0.3638
   12MOL0     C 1532   2.009   8.417   6.145  0.8372 -0.8618  0.2063
   12MOL0     C 1533   2.151   8.461   6.109 -0.6769 -0.4008  0.3373
   12MOL0     C 1534   2.248   8.421   6.226  0.5599  0.0145 -0.1236
   12MOL0     N 1535   2.396   8.429   6.209 -0.7768 -1.0348  0.2893
   12MOL0     C 1536   2.486   8.531   6.245 -0.3505 -0.2888  0.7791
   12MOL0     C 1537   2.611   8.486   6.226  0.3990 -0.1639 -0.1030
   12MOL0     C 1538   2.730   8.577   6.244  0.0500  0.3854  0.0585
   12MOL0     C 1539   2.769   8.662   6.117 -0.4376 -0.9175 -0.1873
   12MOL0     C 1540   2.818   8.792   6.169  0.2087  0.8901 -0.0938
   12MOL0     C 1541   2.953   8.780   6.246  0.5374  0.2496  0.3025
   12MOL0     O 1542   3.043   8.788   6.148 -0.5812 -0.2864  0.4089
   12MOL0     C 1543   3.167   8.835   6.188  0.2382 -0.0389 -0.2340
   12MOL0     C 1544   3.222   8.944   6.112  0.6013  1.0700  0.2059
   12MOL0     C 1545   3.347   8.998   6.140 -0.8301  0.6075 -0.5812
   12MOL0     C 1546   3.398   9.110   6.048 -0.0805  0.1950 -0.7013
   12MOL0     C 1547   3.432   8.939   6.242  0.0621 -0.3125 -0.1314
   12MOL0     C 1548   3.575   8.987   6.269  0.2468 -0.8923  0.9724
   12MOL0     O 1549   3.666   8.883   6.262  0.4239 -0.7115  0.4463
   12MOL0     C 1550   3.800   8.917   6.248  0.0430  0.5415 -0.2709
   12MOL0     C 1551   3.850   8.967   6.127 -0.0583 -0.3559 -0.1582
   12MOL0     C 1552   3.981   9.011   6.120 -0.0118  0.1450 -0.6743
   12MOL0     C 1553   4.073   9.000   6.223 -0.0120  0.0443  0.2509
   12MOL0     O 1554   4.193   9.043   6.199  0.2039 -0.4818  0.2853
   12MOL0     C 1555   4.295   9.027   6.308  0.2819  0.2713  0.0739
   12MOL0     C 1556   4.431   9.066   6.248 -0.0802 -0.3521  0.1358
   12MOL0     C 1557   4.541   9.044   6.353  0.1054 -0.5122 -0.3869
   12MOL0     C 1558   4.674   9.124   6.318  0.1538 -0.0752  0.3603
   12MOL0     C 1559   4.789   9.108   6.416 -0.5543  0.4745 -0.0618
   12MOL0     C 1560   4.837   8.960   6.411  0.0889  0.1772 -0.1679
   12MOL0     C 1561   4.930   8.929   6.538  0.0732 -0.0725  0.8308
   12MOL0     C 1562   4.957   8.781   6.542 -0.5089  0.4999  0.4425
   12MOL0    Cl 1563   5.027   8.721   6.386 -0.1101 -0.0625  0.0282
   12MOL0     C 1564   4.031   8.935   6.337 -0.1083  0.0366  0.5008
   12MOL0     C 1565   3.892   8.900   6.352  0.0245  0.1779  0.5888
   12MOL0     O 1566   3.603   9.108   6.276 -0.1357  0.6887 -0.0319
   12MOL0     C 1567   3.375   8.828   6.319 -0.9401 -0.1262 -0.0198
   12MOL0     C 1568   3.253   8.774   6.282  0.1594  0.1798 -0.2628
   12MOL0     N 1569   2.598   8.355   6.162  0.4608 -0.2486  1.0802
   12MOL0     N 1570   2.472   8.321   6.163 -0.2181 -1.1109 -0.3347
   12MOL0     C 1571   1.597   8.920   5.524 -0.6852 -0.0784 -1.0940
   12MOL0     C 1572   1.587   8.978   5.395  0.5275 -0.3192 -0.0582
   12MOL0     C 1573   1.549   9.155   5.015 -0.5655 -0.0121  0.2681
   12MOL0     C 1574   1.639   9.098   4.928 -0.6610 -0.2079  0.4493
   12MOL0     C 1575   1.629   9.122   4.787 -0.0287  0.9648  0.9550
   12MOL0     C 1576   1.521   9.184   4.733 -0.2420 -0.0629  0.2463
   12MOL0     O 1577   1.534   9.203   4.599 -0.6704  0.3683  0.4529
   12MOL0     C 1578   1.471   9.323   4.544  0.1716  0.3738  0.4236
   12MOL0     C 1579   1.495   9.343   4.398 -0.0904 -0.7816  0.1134
   12MOL0     C 1580   1.497   9.213   4.315 -1.0220  0.6865 -0.6432
   12MOL0     C 1581   1.504   9.224   4.157  0.1574 -0.2970  0.3695
   12MOL0     C 1582   1.617   9.310   4.125 -0.2053  0.4117 -0.4827
   12MOL0     C 1583   1.716   9.384   4.115 -0.1716 -0.9109 -0.2432
   12MOL0     C 1584   1.419   9.223   4.817 -0.6219  0.5481  0.1854
   12MOL0     C 1585   1.436   9.218   4.963  0.4941  0.9259  0.3119
   12MOL0     C 1586   1.323   9.269   5.045 -0.3745  0.4823  0.1481
   12MOL0     H 1587   1.910   9.023   5.311 -1.8994  2.1920 -0.2271
   12MOL0     H 1588   1.936   8.895   5.518 -1.2296 -2.0810  0.0479
   12MOL0     H 1589   1.572   8.775   5.780 -0.2900  1.9841 -2.8175
   12MOL0     H 1590   1.633   8.929   5.812  0.4824 -0.9127  1.3200
   12MOL0     H 1591   1.840   8.856   5.923  0.5727 -1.0563  0.0165
   12MOL0     H 1592   1.699   8.827   6.021  0.8058  0.8722 -0.3116
   12MOL0     H 1593   1.687   8.590   5.931  0.2880 -0.9597  0.1589
   12MOL0     H 1594   1.827   8.626   5.842 -2.2996  0.2256 -0.8694
   12MOL0     H 1595   1.965   8.665   6.051  0.5801 -1.5092 -2.1923
   12MOL0     H 1596   1.821   8.611   6.142  0.7752  0.5316  0.2752
   12MOL0     H 1597   1.967   8.444   5.933 -0.9304  0.1622 -0.9036
   12MOL0     H 1598   1.829   8.395   6.029 -1.7751  1.6542  1.3331
   12MOL0     H 1599   1.969   8.472   6.231 -2.6674 -0.0285 -1.7708
   12MOL0     H 1600   2.014   8.309   6.158  3.3164 -1.1466 -2.1833
   12MOL0     H 1601   2.153   8.571   6.105  2.9142 -0.2109  2.3940
   12MOL0     H 1602   2.187   8.410   6.019 -1.0037 -0.0988  0.0293
   12MOL0     H 1603   2.223   8.489   6.308 -3.1417 -1.5345  0.1944
   12MOL0     H 1604   2.221   8.321   6.263  0.8553  0.5025  1.4724
   12MOL0     H 1605   2.443   8.623   6.283 -2.5024 -1.2935  0.9368
   12MOL0     H 1606   2.819   8.516   6.267  0.0324 -0.3267 -1.6469
   12MOL0     H 1607   2.709   8.643   6.328  0.2059  1.6999 -0.9076
   12MOL0     H 1608   2.844   8.598   6.070 -1.3903 -0.4491 -2.4581
   12MOL0     H 1609   2.685   8.672   6.047  0.9744 -1.8995 -2.1079
   12MOL0     H 1610   2.838   8.856   6.082  2.2509  3.3448  2.0028
   12MOL0     H 1611   2.747   8.849   6.229 -0.5874  0.3763 -0.5370
   12MOL0     H 1612   2.955   8.853   6.329  0.8139 -0.3802  0.8601
   12MOL0     H 1613   2.953   8.682   6.294 -0.7656 -0.3136 -0.7821
   12MOL0     H 1614   3.163   8.978   6.028 -1.2449 -0.5772  0.7753
   12MOL0     H 1615   3.397   9.193   6.120 -0.1074  2.5020 -3.2297
   12MOL0     H 1616   3.333   9.135   5.964  0.8696 -2.5379 -2.3731
   12MOL0     H 1617   3.501   9.096   6.017  0.2231 -1.1866  0.7631
   12MOL0     H 1618   3.776   8.991   6.051  1.0776 -1.4670 -1.6933
   12MOL0     H 1619   4.014   9.053   6.025 -1.3491  3.4495  0.1525
   12MOL0     H 1620   4.269   9.090   6.393 -0.7960 -0.6942  0.4808
   12MOL0     H 1621   4.297   8.927   6.353 -1.4156  0.9673  1.8276
   12MOL0     H 1622   4.451   9.013   6.154  1.7263  0.4963 -0.0062
   12MOL0     H 1623   4.434   9.173   6.227  2.7383 -0.1114  1.1883
   12MOL0     H 1624   4.555   8.936   6.349  1.2576 -0.4121 -5.0820
   12MOL0     H 1625   4.510   9.072   6.454  3.2470 -2.3608  1.2187
   12MOL0     H 1626   4.642   9.228   6.308  1.5306  0.3751  0.3995
   12MOL0     H 1627   4.710   9.109   6.216 -3.2003  0.7696 -1.0872
   12MOL0     H 1628   4.872   9.177   6.399 -0.6797  0.6109 -0.1243
   12MOL0     H 1629   4.743   9.126   6.514  1.2546  0.0471  0.9157
   12MOL0     H 1630   4.894   8.935   6.321 -0.0130 -0.3086 -0.1020
   12MOL0     H 1631   4.762   8.880   6.413  0.6381 -0.3579  2.0622
   12MOL0     H 1632   4.878   8.953   6.631 -1.9234  0.1807 -0.2974
   12MOL0     H 1633   5.031   8.972   6.536  1.1809 -2.5352 -0.7711
   12MOL0     H 1634   4.862   8.728   6.549  0.7770 -1.8150  1.6709
   12MOL0     H 1635   5.025   8.757   6.624 -0.5098 -0.0668  0.2828
   12MOL0     H 1636   4.100   8.918   6.419  0.3749  0.3670  0.1665
   12MOL0     H 1637   3.857   8.857   6.446 -1.3080  0.2388  0.1321
   12MOL0     H 1638   3.426   8.763   6.390  1.2750 -0.7964 -2.0708
   12MOL0     H 1639   3.222   8.685   6.336 -0.9463  0.1376 -0.9383
   12MOL0     H 1640   1.503   8.897   5.573 -0.3752 -1.0744 -0.9284
   12MOL0     H 1641   1.489   8.989   5.350  1.2088 -0.7568 -1.7087
   12MOL0     H 1642   1.732   9.064   4.973  0.1640 -0.5010 -1.3923
   12MOL0     H 1643   1.707   9.097   4.716 -0.7290  0.8213  0.2231
   12MOL0     H 1644   1.363   9.310   4.558  0.3029 -1.6970 -0.1420
   12MOL0     H 1645   1.501   9.417   4.593 -0.6612  0.6009  0.5169
   12MOL0     H 1646   1.592   9.392   4.380 -0.6520 -0.0041 -0.9056
   12MOL0     H 1647   1.415   9.411   4.368  0.1608 -0.0785  0.9832
   12MOL0     H 1648   1.579   9.153   4.357 -2.0673  0.6300  1.4252
   12MOL0     H 1649   1.409   9.156   4.348 -0.1855  0.3796  1.1698
   12MOL0     H 1650   1.412   9.269   4.118  0.8262 -2.0600 -3.6818
   12MOL0     H 1651   1.523   9.130   4.105  1.3674  0.3700 -0.4668
   12MOL0     H 1652   1.799   9.447   4.094  0.0827 -1.0064  0.4500
   12MOL0     H 1653   1.329   9.268   4.776 -1.6132 -0.3831  1.2670
   12MOL0     H 1654   1.305   9.201   5.129 -0.6554  1.8584  1.2312
   12MOL0     H 1655   1.358   9.363   5.088  0.0567  1.2462 -1.7673
   12MOL0     H 1656   1.229   9.285   4.990 -1.0592 -2.7404  0.1582
   13MOL0     O 1657   3.345   3.652   7.235  0.3885 -0.5414  0.5284
   13MOL0     C 1658   3.333   3.582   7.130 -0.0702  0.0193  0.4354
   13MOL0     O 1659   3.434   3.535   7.054 -0.4882 -0.8995 -0.9703
   13MOL0     C 1660   3.559   3.586   7.081 -0.8016 -0.8386 -0.9666
   13MOL0     C 1661   3.658   3.489   7.092 -0.1260  0.1557  0.0573
   13MOL0     C 1662   3.794   3.515   7.095 -0.2168  0.0256 -0.0130
   13MOL0     C 1663   3.835   3.653   7.103  0.0127  0.3003 -0.0811
   13MOL0     O 1664   3.960   3.699   7.089 -0.3367  0.1632  1.0735
   13MOL0     C 1665   4.067   3.610   7.059 -0.8257  0.2920 -0.0307
   13MOL0     C 1666   4.195   3.691   7.035 -0.4555 -0.2002  0.3988
   13MOL0     C 1667   4.276   3.761   7.155  0.3026 -0.1436  0.5547
   13MOL0     C 1668   4.316   3.668   7.275 -0.3094  0.3252 -0.0924
   13MOL0     C 1669   4.418   3.556   7.248 -0.1704 -0.2735 -0.0910
   13MOL0     C 1670   4.548   3.615   7.206 -0.0816  0.6639  0.5638
   13MOL0     C 1671   4.612   3.696   7.319 -0.7656  0.0234 -0.0679
   13MOL0     C 1672   4.752   3.744   7.275 -0.5501 -0.0454  0.0662
   13MOL0     N 1673   4.840   3.627   7.262 -0.4002  0.1066  0.1766
   13MOL0     C 1674   4.864   3.543   7.364 -0.3981  0.6181 -0.3653
   13MOL0     C 1675   4.955   3.457   7.321 -0.4237 -0.3803 -0.5032
   13MOL0     C 1676   5.042   3.345   7.389  0.5378  0.3935  0.3090
   13MOL0     C 1677   5.187   3.381   7.430  0.1946  0.2509 -0.4383
   13MOL0     C 1678   5.184   3.480   7.555 -0.6860 -1.0428 -1.1247
   13MOL0     C 1679   5.312   3.557   7.577 -0.4483  0.6401  0.3199
   13MOL0     O 1680   5.318   3.626   7.699 -0.0136 -0.3681 -0.2357
   13MOL0     C 1681   5.422   3.718   7.718 -0.0105 -0.0686 -0.2573
   13MOL0     C 1682   5.429   3.782   7.838  0.7757  1.2266 -0.3233
   13MOL0     C 1683   5.531   3.872   7.868  0.0286 -0.1955  0.5237
   13MOL0     C 1684   5.521   3.943   8.006 -0.5372 -0.2841 -0.3614
   13MOL0     C 1685   5.642   3.885   7.783 -0.0108  0.2869  0.8763
   13MOL0     C 1686   5.778   3.962   7.812  0.9905  0.6373  0.5190
   13MOL0     O 1687   5.862   3.982   7.705  0.2105 -0.5429  0.4024
   13MOL0     C 1688   5.990   4.028   7.726  0.4125 -0.1635 -0.3986
   13MOL0     C 1689   6.077   3.952   7.806  0.7135 -0.2279 -0.6595
   13MOL0     C 1690   6.209   3.988   7.830  0.2906 -0.0345 -0.8530
   13MOL0     C 1691   6.252   4.102   7.758 -0.6791 -0.3448  0.1407
   13MOL0     O 1692   6.388   4.126   7.763 -0.3501  0.2915 -0.1653
   13MOL0     C 1693   6.432   4.260   7.741  0.0796  0.3973 -0.1174
   13MOL0     C 1694   6.560   4.288   7.814  0.6140  0.5318 -0.1526
   13MOL0     C 1695   6.567   4.447   7.806  0.0823 -0.1219  0.5376
   13MOL0     C 1696   6.680   4.492   7.889  0.5312 -0.1994  0.5138
   13MOL0     C 1697   6.704   4.643   7.862  0.2375 -0.4763 -0.2408
   13MOL0     C 1698   6.584   4.729   7.891 -0.2958  0.8540 -0.5932
   13MOL0     C 1699   6.617   4.870   7.910 -0.1860 -0.6198 -0.2230
   13MOL0     C 1700   6.493   4.965   7.943 -0.2471  0.2566  0.2218
   13MOL0    Cl 1701   6.408   4.922   8.091  0.3133 -0.1132 -0.1486
   13MOL0     C 1702   6.175   4.173   7.663 -0.0109  0.1847 -0.1996
   13MOL0     C 1703   6.038   4.138   7.646  0.3214  0.4603 -0.3202
   13MOL0     O 1704   5.787   3.997   7.929  0.0219 -0.1183 -0.5602
   13MOL0     C 1705   5.641   3.818   7.658  0.0093 -0.2484  0.3107
   13MOL0     C 1706   5.530   3.731   7.628  0.2562  0.4255 -0.1128
   13MOL0     N 1707   4.981   3.480   7.186 -0.0200 -0.5050 -0.2921
   13MOL0     N 1708   4.925   3.595   7.161  1.1165 -0.3399  0.1024
   13MOL0     C 1709   3.731   3.756   7.100 -0.1139 -0.0667  0.7052
   13MOL0     C 1710   3.595   3.717   7.091 -0.1489 -0.4643  0.2825
   13MOL0     C 1711   3.201   3.544   7.070  0.3518 -0.1084  0.0867
   13MOL0     C 1712   3.185   3.508   6.938 -0.8939 -0.3405 -0.4148
   13MOL0     C 1713   3.062   3.478   6.883  0.0183 -0.8099 -0.3919
   13MOL0     C 1714   2.948   3.467   6.968 -0.3318  0.0165  0.6786
   13MOL0     O 1715   2.825   3.424   6.932  0.1660 -0.2114  0.6052
   13MOL0     C 1716   2.799   3.411   6.797 -0.4300  0.5547 -0.4553
   13MOL0     C 1717   2.644   3.392   6.760  0.2958 -0.3294 -0.4017
   13MOL0     C 1718   2.634   3.349   6.615 -0.0901 -0.6138 -0.3445
   13MOL0     C 1719   2.484   3.334   6.548  0.3019 -0.1554  0.2629
   13MOL0     C 1720   2.392   3.429   6.599  0.8757  0.2652  0.9086
   13MOL0     C 1721   2.321   3.520   6.640  0.0155  0.3146 -0.2440
   13MOL0     C 1722   2.963   3.487   7.102 -0.2549  0.1012 -0.4487
   13MOL0     C 1723   3.085   3.533   7.157  0.7228 -1.0284 -0.0386
   13MOL0     C 1724   3.087   3.549   7.307  0.5783 -0.1090 -0.4028
   13MOL0     H 1725   3.629   3.384   7.099 -1.1710  0.4015 -0.3707
   13MOL0     H 1726   3.860   3.429   7.098  1.1464  1.0333  2.9828
   13MOL0     H 1727   4.036   3.566   6.964 -1.1625 -1.1298  0.7065
   13MOL0     H 1728   4.075   3.535   7.138 -2.0805  0.6118  0.4351
   13MOL0     H 1729   4.269   3.636   6.974  1.3705  3.2386 -0.7894
   13MOL0     H 1730   4.168   3.772   6.967 -2.2119 -0.9834  0.1290
   13MOL0     H 1731   4.372   3.798   7.118 -0.5472  2.2462  0.5978
   13MOL0     H 1732   4.211   3.842   7.188 -0.3318 -0.7706  0.8830
   13MOL0     H 1733   4.355   3.732   7.354 -1.7455 -0.0375  0.9569
   13MOL0     H 1734   4.223   3.625   7.314 -0.9402  1.3724 -0.3737
   13MOL0     H 1735   4.381   3.487   7.172 -1.4949 -0.4886  0.7084
   13MOL0     H 1736   4.438   3.496   7.338  0.8652 -0.4618 -0.4330
   13MOL0     H 1737   4.616   3.534   7.180 -0.6298  0.4731 -0.2898
   13MOL0     H 1738   4.537   3.680   7.119  3.3788  0.9262  0.1894
   13MOL0     H 1739   4.623   3.647   7.416 -0.7929  1.3169  0.6134
   13MOL0     H 1740   4.554   3.788   7.330 -1.2558 -0.4913  2.1103
   13MOL0     H 1741   4.741   3.798   7.181 -1.0169 -0.7234 -0.2768
   13MOL0     H 1742   4.794   3.809   7.352  1.4780 -2.1377  0.8568
   13MOL0     H 1743   4.822   3.537   7.464 -2.4262 -1.8072 -1.2811
   13MOL0     H 1744   5.051   3.256   7.326  0.8456  1.0552 -0.6031
   13MOL0     H 1745   4.984   3.310   7.475  3.3099 -0.4367  1.9730
   13MOL0     H 1746   5.226   3.287   7.470 -1.5707 -0.0825  0.6138
   13MOL0     H 1747   5.249   3.418   7.348  0.0098 -0.2458 -0.8139
   13MOL0     H 1748   5.101   3.550   7.543 -0.6322 -1.2229 -2.7935
   13MOL0     H 1749   5.163   3.426   7.648  0.9379  0.3734  0.1253
   13MOL0     H 1750   5.404   3.498   7.582 -1.3421 -0.7095  3.2134
   13MOL0     H 1751   5.321   3.621   7.489  2.5989  0.0577  0.0791
   13MOL0     H 1752   5.344   3.766   7.904 -0.3796  2.6204 -1.4174
   13MOL0     H 1753   5.598   3.921   8.081 -2.6052  0.5905  2.1600
   13MOL0     H 1754   5.426   3.914   8.054 -2.1430  3.2684 -1.1167
   13MOL0     H 1755   5.515   4.049   7.980 -0.0922 -1.1061 -4.4969
   13MOL0     H 1756   6.043   3.866   7.863 -4.2373  0.8300 -1.5645
   13MOL0     H 1757   6.278   3.937   7.896 -1.0801 -0.9179 -0.0396
   13MOL0     H 1758   6.458   4.271   7.635  2.0006 -1.9047  0.0221
   13MOL0     H 1759   6.351   4.330   7.764 -2.5481 -2.6866  0.6117
   13MOL0     H 1760   6.548   4.245   7.914  2.9404  0.0659 -0.0173
   13MOL0     H 1761   6.647   4.245   7.764 -0.9524  0.7859 -3.2993
   13MOL0     H 1762   6.471   4.487   7.839 -0.2615 -1.3719  1.1178
   13MOL0     H 1763   6.578   4.480   7.702 -0.5982  1.4845  0.9526
   13MOL0     H 1764   6.772   4.441   7.861  0.5015 -0.3390  0.6714
   13MOL0     H 1765   6.656   4.484   7.995 -0.5723 -1.7907  0.1844
   13MOL0     H 1766   6.791   4.670   7.922 -3.1365 -0.2654  5.2737
   13MOL0     H 1767   6.730   4.658   7.757 -0.0366 -0.5110 -0.3160
   13MOL0     H 1768   6.536   4.676   7.974 -0.4732 -1.3983 -2.0571
   13MOL0     H 1769   6.515   4.723   7.807  0.7989 -0.9229 -1.4207
   13MOL0     H 1770   6.664   4.908   7.818 -0.5528  2.4055  0.7411
   13MOL0     H 1771   6.685   4.884   7.995  0.1048 -0.6054 -0.4541
   13MOL0     H 1772   6.418   4.971   7.864 -0.3853  1.3844  0.4192
   13MOL0     H 1773   6.537   5.064   7.958  0.9785 -0.1771 -0.3308
   13MOL0     H 1774   6.217   4.244   7.592  0.7493  0.6210  0.6644
   13MOL0     H 1775   5.973   4.191   7.577 -2.4005 -0.5916  1.2685
   13MOL0     H 1776   5.724   3.815   7.589 -1.4886  0.1100 -1.5946
   13MOL0     H 1777   5.542   3.687   7.529  0.7149 -0.2476  0.2317
   13MOL0     H 1778   3.755   3.861   7.096 -5.7165  1.5094 -0.8741
   13MOL0     H 1779   3.513   3.788   7.090  0.1849 -0.0086 -2.4008
   13MOL0     H 1780   3.271   3.504   6.873 -1.3731  1.1771 -1.1929
   13MOL0     H 1781   3.053   3.443   6.781 -1.4119 -0.7313 -0.3073
   13MOL0     H 1782   2.833   3.505   6.753  1.1501  0.0129 -0.4768
   13MOL0     H 1783   2.863   3.332   6.756  1.1896  0.5841  1.8250
   13MOL0     H 1784   2.602   3.492   6.773  0.0856 -0.3627 -0.8125
   13MOL0     H 1785   2.591   3.321   6.825  0.9503 -1.1457 -0.7466
   13MOL0     H 1786   2.695   3.423   6.564  2.7380 -0.1284  3.2699
   13MOL0     H 1787   2.684   3.252   6.603 -0.8926 -1.4199  2.0742
   13MOL0     H 1788   2.442   3.236   6.575 -0.7316  0.3970  0.7114
   13MOL0     H 1789   2.487   3.331   6.439  0.7036 -0.8900  0.2816
   13MOL0     H 1790   2.275   3.608   6.681 -1.0222  0.0102 -0.7186
   13MOL0     H 1791   2.885   3.485   7.177  2.1692  0.9141  2.2903
   13MOL0     H 1792   3.106   3.654   7.331 -0.0583  0.9787 -4.0235
   13MOL0     H 1793   2.997   3.509   7.356  0.8161 -2.3093 -1.6419
   13MOL0     H 1794   3.171   3.489   7.340  0.4494 -0.6703 -1.0614
   14MOL0     O 1795   1.936   5.142   7.224 -0.2598  0.2411  0.4303
   14MOL0     C 1796   1.913   5.213   7.123 -0.9989  0.0465 -0.4279
   14MOL0     O 1797   1.973   5.336   7.096 -0.0282 -0.3186 -0.2475
   14MOL0     C 1798   2.044   5.392   7.200 -0.0299  0.2058 -0.0065
   14MOL0     C 1799   1.989   5.418   7.321 -0.7502  0.0103  0.3636
   14MOL0     C 1800   2.069   5.470   7.420 -0.0985 -0.9234  0.1003
   14MOL0     C 1801   2.202   5.513   7.392  0.5065 -0.6947 -0.2061
   14MOL0     O 1802   2.274   5.563   7.502  0.0029 -0.5938 -0.5559
   14MOL0     C 1803   2.402   5.625   7.487 -0.1496  0.1588 -0.0877
   14MOL0     C 1804   2.459   5.667   7.624  0.7532  1.1855  0.2011
   14MOL0     C 1805   2.609   5.700   7.618 -0.3004  0.0691 -0.4193
   14MOL0     C 1806   2.672   5.735   7.758 -0.4927 -0.1383 -0.3975
   14MOL0     C 1807   2.830   5.761   7.757  0.3914 -0.5765  0.7130
   14MOL0     C 1808   2.884   5.774   7.895  0.1453 -0.1134 -0.8072
   14MOL0     C 1809   3.023   5.840   7.900  0.6564  0.2274 -0.0805
   14MOL0     C 1810   3.026   5.988   7.935  0.1871  0.2008 -0.5892
   14MOL0     N 1811   3.165   6.036   7.936 -0.1816  0.9216 -0.3436
   14MOL0     C 1812   3.276   5.968   7.977 -0.2259  0.0942  0.4609
   14MOL0     C 1813   3.376   6.049   7.934 -0.1890 -0.1325  0.2021
   14MOL0     C 1814   3.515   6.027   7.978  0.2607  0.0682  0.2761
   14MOL0     C 1815   3.577   6.149   8.035 -0.8849 -0.2720  0.8418
   14MOL0     C 1816   3.736   6.138   8.071  0.0539  0.7408 -0.4816
   14MOL0     C 1817   3.789   6.277   8.119  0.4699  0.3057 -0.4049
   14MOL0     O 1818   3.767   6.383   8.025  0.8656 -0.0890 -0.5969
   14MOL0     C 1819   3.844   6.400   7.914  0.0027  0.1548 -0.0647
   14MOL0     C 1820   3.816   6.503   7.830 -0.3822  0.1733 -0.3780
   14MOL0     C 1821   3.889   6.536   7.714  0.3730  0.5782 -0.3260
   14MOL0     C 1822   3.834   6.659   7.637 -0.6953  0.3333 -0.2182
   14MOL0     C 1823   4.008   6.455   7.682 -0.4096 -0.3421 -0.2723
   14MOL0     C 1824   4.095   6.480   7.562  1.0538 -0.6173  0.5808
   14MOL0     O 1825   4.203   6.400   7.553 -0.9891 -0.3084  0.3760
   14MOL0     C 1826   4.297   6.439   7.457 -0.3897 -0.0948 -0.8129
   14MOL0     C 1827   4.388   6.538   7.504 -0.4267  0.3903  0.4135
   14MOL0     C 1828   4.500   6.574   7.430 -1.0349  0.0669  0.4104
   14MOL0     C 1829   4.526   6.506   7.306  0.6198  0.2917  0.5464
   14MOL0     O 1830   4.642   6.534   7.235 -0.1311  0.6722  0.0754
   14MOL0     C 1831   4.740   6.622   7.288  0.0994 -0.2948 -0.5663
   14MOL0     C 1832   4.868   6.627   7.205 -1.0726 -0.6417 -0.5310
   14MOL0     C 1833   4.925   6.480   7.209 -0.2479 -0.4632 -0.1003
   14MOL0     C 1834   5.047   6.474   7.119 -1.3349  0.0654 -0.2169
   14MOL0     C 1835   5.112   6.331   7.117  0.0558  0.4864 -0.2927
   14MOL0     C 1836   5.249   6.344   7.051 -0.1403  0.5939 -0.5920
   14MOL0     C 1837   5.312   6.210   7.024  0.1775 -0.5730  0.4008
   14MOL0     C 1838   5.458   6.232   6.974 -0.5606 -0.6115  0.0819
   14MOL0    Cl 1839   5.569   6.282   7.110  0.3187  0.1211  0.5298
   14MOL0     C 1840   4.427   6.417   7.252  0.1784  0.7063  0.0291
   14MOL0     C 1841   4.310   6.387   7.326 -0.2213  0.0163  0.6657
   14MOL0     O 1842   4.061   6.569   7.485 -0.2738 -0.4593  0.7495
   14MOL0     C 1843   4.042   6.358   7.765 -0.8441  0.3523  0.7244
   14MOL0     C 1844   3.963   6.336   7.880  0.4999  0.2160 -0.0596
   14MOL0     N 1845   3.334   6.162   7.878 -0.0007 -0.8217 -0.7552
   14MOL0     N 1846   3.206   6.156   7.881  0.3775 -0.4347 -0.4538
   14MOL0     C 1847   2.259   5.485   7.270 -0.3710 -0.3815  0.3712
   14MOL0     C 1848   2.178   5.424   7.177 -0.4712  0.5334  0.1663
   14MOL0     C 1849   1.826   5.153   7.013 -0.0827 -1.1678 -0.0623
   14MOL0     C 1850   1.733   5.062   7.055  0.5463  0.2321 -0.7999
   14MOL0     C 1851   1.634   5.020   6.961 -0.2607  0.5840  0.1139
   14MOL0     C 1852   1.630   5.060   6.825  0.2469 -0.3110 -0.4633
   14MOL0     O 1853   1.535   5.030   6.737  0.8043 -0.6144  0.2541
   14MOL0     C 1854   1.425   4.941   6.767 -0.0813 -1.0590  0.0322
   14MOL0     C 1855   1.317   4.966   6.667 -0.5823 -0.4361 -0.0523
   14MOL0     C 1856   1.351   4.925   6.523 -0.0409  0.1156 -0.5305
   14MOL0     C 1857   1.302   4.779   6.503  0.3337 -0.7726  0.2749
   14MOL0     C 1858   1.381   4.696   6.406 -0.4999 -0.0740  0.4084
   14MOL0     C 1859   1.476   4.584   6.270  1.1135  0.6768  0.3873
   14MOL0     C 1860   1.726   5.152   6.785 -0.0623 -0.3450 -0.8165
   14MOL0     C 1861   1.831   5.188   6.872 -0.1892 -0.4334 -0.1395
   14MOL0     C 1862   1.946   5.256   6.808 -0.4208  0.6317 -0.5869
   14MOL0     H 1863   1.883   5.402   7.340 -0.9700 -0.3133 -0.9955
   14MOL0     H 1864   2.029   5.485   7.520  3.0021  0.0864  1.3210
   14MOL0     H 1865   2.396   5.719   7.430  1.8328  0.7363  0.5640
   14MOL0     H 1866   2.479   5.561   7.443  1.1012  0.0573  2.1170
   14MOL0     H 1867   2.401   5.746   7.672  2.0097  0.7162  2.6410
   14MOL0     H 1868   2.451   5.577   7.686 -1.9033  0.0288 -1.6081
   14MOL0     H 1869   2.656   5.609   7.580  2.4827  1.1326  0.2566
   14MOL0     H 1870   2.637   5.780   7.548 -0.0279 -0.8112 -1.3472
   14MOL0     H 1871   2.621   5.824   7.794 -0.0039  0.3980 -1.0033
   14MOL0     H 1872   2.648   5.651   7.824  1.7134 -1.4022 -1.0916
   14MOL0     H 1873   2.847   5.854   7.702  1.1200 -1.5856 -0.8511
   14MOL0     H 1874   2.886   5.683   7.706  1.9718  0.5146  0.7112
   14MOL0     H 1875   2.817   5.835   7.956 -0.0525  0.0954 -1.2296
   14MOL0     H 1876   2.894   5.676   7.942  2.4831  0.7337  0.6746
   14MOL0     H 1877   3.068   5.837   7.800 -0.4989  0.3683 -0.6165
   14MOL0     H 1878   3.084   5.779   7.968  0.1321  0.7764  0.9003
   14MOL0     H 1879   2.962   6.046   7.869  0.7277  0.2771 -1.0492
   14MOL0     H 1880   2.981   5.997   8.035  1.4656  1.7304 -0.1157
   14MOL0     H 1881   3.281   5.869   8.020 -0.5858  0.9073  2.4709
   14MOL0     H 1882   3.571   5.987   7.892 -0.1986 -1.8757  0.8439
   14MOL0     H 1883   3.520   5.947   8.053  2.1254  0.4334  0.5918
   14MOL0     H 1884   3.562   6.230   7.963  2.2393 -1.4035 -1.2558
   14MOL0     H 1885   3.527   6.181   8.127  1.9574 -0.6853  2.6422
   14MOL0     H 1886   3.737   6.065   8.152 -1.5263  0.5871 -0.5797
   14MOL0     H 1887   3.787   6.106   7.980  0.8852 -0.8535  0.4921
   14MOL0     H 1888   3.739   6.301   8.213  1.3162  3.1994 -0.6102
   14MOL0     H 1889   3.894   6.261   8.145  0.2065 -2.2744 -0.6430
   14MOL0     H 1890   3.728   6.563   7.849  0.8035  1.0386  3.0282
   14MOL0     H 1891   3.901   6.745   7.635 -0.8324  0.4408 -0.1865
   14MOL0     H 1892   3.740   6.695   7.680 -0.5563 -0.8348  1.1684
   14MOL0     H 1893   3.828   6.640   7.530  1.8762 -0.2929 -0.3299
   14MOL0     H 1894   4.381   6.574   7.606 -0.3492 -2.8362  1.6468
   14MOL0     H 1895   4.567   6.645   7.477  0.5929 -2.8043  2.7374
   14MOL0     H 1896   4.690   6.719   7.301  0.9105 -0.3068  6.4546
   14MOL0     H 1897   4.765   6.599   7.392 -3.0672 -2.1679 -0.0940
   14MOL0     H 1898   4.857   6.656   7.100  2.0784  1.6440 -0.3963
   14MOL0     H 1899   4.945   6.690   7.251 -1.2185 -0.1761 -0.9160
   14MOL0     H 1900   4.854   6.409   7.167  0.4364 -0.5654 -1.1152
   14MOL0     H 1901   4.954   6.452   7.311 -1.2579 -3.3529 -0.5286
   14MOL0     H 1902   5.122   6.544   7.158  0.3765 -1.5297 -0.5095
   14MOL0     H 1903   5.038   6.499   7.013  0.6715  0.6508 -0.2904
   14MOL0     H 1904   5.104   6.277   7.212 -0.0371 -1.0742 -1.1644
   14MOL0     H 1905   5.058   6.268   7.046  1.1525 -1.3294  0.3991
   14MOL0     H 1906   5.313   6.399   7.121 -1.4735  0.8411  0.4611
   14MOL0     H 1907   5.242   6.396   6.955 -1.7662  0.7312 -0.4277
   14MOL0     H 1908   5.250   6.148   6.959 -0.6858 -0.5069  1.1388
   14MOL0     H 1909   5.310   6.156   7.120  1.8655  0.3437  0.9868
   14MOL0     H 1910   5.464   6.298   6.886  0.3630 -2.8243 -1.6264
   14MOL0     H 1911   5.493   6.133   6.943 -0.3342 -0.4480 -0.1909
   14MOL0     H 1912   4.449   6.371   7.156 -1.8679  3.0030 -1.7017
   14MOL0     H 1913   4.233   6.316   7.297  0.9810 -1.4442  0.8998
   14MOL0     H 1914   4.119   6.283   7.751 -1.5531 -0.6987  2.1145
   14MOL0     H 1915   3.982   6.244   7.934 -0.3892 -0.8599 -1.4823
   14MOL0     H 1916   2.366   5.498   7.255 -0.3253  0.8622  1.5928
   14MOL0     H 1917   2.212   5.393   7.079 -1.7639 -1.6129  0.3229
   14MOL0     H 1918   1.712   5.026   7.155 -2.1827  2.8756 -0.2907
   14MOL0     H 1919   1.560   4.947   6.994 -1.3027  2.0477  1.1781
   14MOL0     H 1920   1.467   4.840   6.763  0.3026 -0.8636 -1.9995
   14MOL0     H 1921   1.385   4.954   6.868 -0.1222 -2.6278  0.2445
   14MOL0     H 1922   1.277   5.068   6.667 -3.0840 -1.3303 -1.4902
   14MOL0     H 1923   1.231   4.911   6.707 -1.9825  1.5000 -0.2487
   14MOL0     H 1924   1.294   4.998   6.466  1.3340  1.9994  0.3800
   14MOL0     H 1925   1.459   4.936   6.509  0.2728  0.6073  1.7920
   14MOL0     H 1926   1.202   4.790   6.460  0.0123 -3.1929  0.2854
   14MOL0     H 1927   1.291   4.719   6.594 -2.3266 -2.1898 -0.8560
   14MOL0     H 1928   1.509   4.509   6.201  0.2075 -2.0464  2.6737
   14MOL0     H 1929   1.714   5.200   6.689 -1.7502  0.8826 -0.0448
   14MOL0     H 1930   1.963   5.211   6.710  2.3243 -0.0707  0.1067
   14MOL0     H 1931   1.937   5.364   6.799  0.2367  0.7271 -0.2153
   14MOL0     H 1932   2.040   5.236   6.861  0.4633  1.6915 -1.7307
   15MOL0     O 1933   9.571   8.286   5.945  0.6987  0.0494  0.3289
   15MOL0     C 1934   9.605   8.353   5.854 -0.0702 -0.6272  0.0927
   15MOL0     O 1935   9.708   8.328   5.765  0.0186 -0.1279 -0.0260
   15MOL0     C 1936   9.802   8.233   5.806 -0.5347  0.1467 -0.2258
   15MOL0     C 1937   9.913   8.279   5.872  0.3036  0.0778  0.2193
   15MOL0     C 1938  10.018   8.203   5.917 -0.0417 -0.1001 -0.0125
   15MOL0     C 1939  10.006   8.064   5.898 -0.0238  0.5212 -0.2729
   15MOL0     O 1940  10.098   7.970   5.940 -0.0246 -0.1213  0.1029
   15MOL0     C 1941  10.168   7.982   6.065  0.1032 -0.4123 -0.7047
   15MOL0     C 1942  10.304   8.049   6.063  0.4171  0.0241  0.8709
   15MOL0     C 1943  10.396   7.958   5.990 -0.1677 -0.4951 -0.2507
   15MOL0     C 1944  10.538   8.013   5.986  0.3243  0.5353  0.5596
   15MOL0     C 1945  10.646   7.913   5.949 -0.1725 -0.0572 -0.4929
   15MOL0     C 1946  10.636   7.873   5.802 -0.3826 -0.4096  0.4814
   15MOL0     C 1947  10.741   7.769   5.749  0.6685  0.0240  0.6466
   15MOL0     C 1948  10.714   7.739   5.599  0.3069 -0.4760  0.4123
   15MOL0     N 1949  10.806   7.632   5.555  0.1815  1.2955 -0.0547
   15MOL0     C 1950  10.796   7.503   5.611  0.1017 -0.5625 -0.4332
   15MOL0     C 1951  10.910   7.445   5.562 -0.4371  0.3900 -0.5075
   15MOL0     C 1952  10.957   7.305   5.602 -0.1574  0.1304 -0.2074
   15MOL0     C 1953  10.951   7.216   5.474  1.2745 -0.0606 -0.8271
   15MOL0     C 1954  10.802   7.200   5.432  0.0537 -0.8378  0.3734
   15MOL0     C 1955  10.714   7.118   5.527 -0.3487  0.0349  0.1900
   15MOL0     O 1956  10.689   7.186   5.650  0.0727  0.8093  0.6072
   15MOL0     C 1957  10.568   7.158   5.705  0.2962 -0.2438 -0.3606
   15MOL0     C 1958  10.528   7.029   5.750  0.3844  0.3567 -0.0088
   15MOL0     C 1959  10.389   7.012   5.787 -0.4004 -0.4356 -0.0161
   15MOL0     C 1960  10.350   6.879   5.832  0.6019 -0.2312 -0.6389
   15MOL0     C 1961  10.298   7.123   5.789  0.7137 -0.2693  0.5264
   15MOL0     C 1962  10.170   7.125   5.866  0.4921  0.2883 -0.7784
   15MOL0     O 1963  10.091   7.234   5.848  0.1954 -0.6067  0.2777
   15MOL0     C 1964   9.970   7.226   5.913 -0.0326  0.2302  0.1536
   15MOL0     C 1965   9.920   7.322   6.005 -0.0045 -0.9042  0.0799
   15MOL0     C 1966   9.787   7.317   6.050  0.0046 -0.6460 -0.1664
   15MOL0     C 1967   9.705   7.210   6.029  0.1101 -0.4296 -0.6028
   15MOL0     O 1968   9.577   7.197   6.082  0.2985  0.3562 -0.5811
   15MOL0     C 1969   9.563   7.225   6.218 -0.4228 -0.2137 -0.4593
   15MOL0     C 1970   9.424   7.283   6.242 -0.1929  0.6824 -0.2536
   15MOL0     C 1971   9.316   7.173   6.229  0.9095  0.1738  0.3820
   15MOL0     C 1972   9.216   7.176   6.352 -0.0985  0.8977 -0.3235
   15MOL0     C 1973   9.095   7.086   6.316 -0.6288  1.4847 -0.2383
   15MOL0     C 1974   9.025   7.044   6.448  0.2798 -0.3253 -0.0863
   15MOL0     C 1975   8.890   6.963   6.418  0.0139 -0.0439 -0.2401
   15MOL0     C 1976   8.802   6.939   6.546  0.3220  0.6353  0.9220
   15MOL0    Cl 1977   8.721   7.095   6.592 -0.4312 -0.1913  0.3329
   15MOL0     C 1978   9.740   7.120   5.929  0.1575  0.5148 -0.6470
   15MOL0     C 1979   9.874   7.122   5.882 -0.0850  0.3071 -0.6278
   15MOL0     O 1980  10.154   7.038   5.951 -0.1959  0.7541  0.1071
   15MOL0     C 1981  10.334   7.247   5.737 -0.5024 -0.4043 -0.7181
   15MOL0     C 1982  10.467   7.256   5.697 -0.0980 -0.3650  0.0035
   15MOL0     N 1983  10.980   7.539   5.484  0.2761 -0.5998  0.0438
   15MOL0     N 1984  10.912   7.645   5.481  0.4900  0.2180  0.1016
   15MOL0     C 1985   9.904   8.018   5.824  0.6116  0.2200 -0.2043
   15MOL0     C 1986   9.793   8.093   5.781 -0.1219  0.6887 -0.4992
   15MOL0     C 1987   9.520   8.473   5.823 -0.4005 -0.5357  0.4726
   15MOL0     C 1988   9.573   8.580   5.743 -0.5721  1.1665 -0.6797
   15MOL0     C 1989   9.502   8.696   5.720  0.1967 -0.0964 -0.2193
   15MOL0     C 1990   9.370   8.712   5.758 -0.3498  0.0560  0.6566
   15MOL0     O 1991   9.303   8.825   5.731 -0.1950 -0.5770 -0.3958
   15MOL0     C 1992   9.194   8.861   5.813  0.0378  0.0852  0.0498
   15MOL0     C 1993   9.059   8.853   5.724 -0.8008  0.0203 -0.0808
   15MOL0     C 1994   8.943   8.840   5.816 -0.2184 -0.1680 -0.2882
   15MOL0     C 1995   8.821   8.802   5.737 -0.1856 -0.8569 -0.6346
   15MOL0     C 1996   8.772   8.899   5.645 -0.5322 -0.1249 -0.3087
   15MOL0     C 1997   8.721   8.973   5.571 -0.4845  0.0558 -0.3802
   15MOL0     C 1998   9.311   8.601   5.828 -0.1477  0.5556  1.0407
   15MOL0     C 1999   9.384   8.489   5.873 -0.8625 -0.0357 -0.3786
   15MOL0     C 2000   9.309   8.391   5.965 -0.0176  0.6214  0.7911
   15MOL0     H 2001   9.923   8.387   5.875  1.4145 -0.0209  0.7073
   15MOL0     H 2002  10.090   8.260   5.974 -1.2412  1.0733  0.3829
   15MOL0     H 2003  10.183   7.880   6.100  1.7339  0.4672  1.3331
   15MOL0     H 2004  10.116   8.035   6.145  1.4793 -0.3321  0.1743
   15MOL0     H 2005  10.302   8.145   6.012  2.5889 -0.2595  0.1376
   15MOL0     H 2006  10.341   8.069   6.164  2.5379 -0.1468  0.1823
   15MOL0     H 2007  10.400   7.863   6.044  1.1647 -0.5868 -0.4641
   15MOL0     H 2008  10.362   7.953   5.886 -2.9512 -0.1249  0.5636
   15MOL0     H 2009  10.543   8.095   5.914  4.6465 -1.5617 -1.8826
   15MOL0     H 2010  10.556   8.049   6.088 -0.4467 -0.4168  1.0458
   15MOL0     H 2011  10.630   7.828   6.016 -1.1788  1.5456  1.4107
   15MOL0     H 2012  10.745   7.957   5.968  1.3470 -3.3580 -0.0514
   15MOL0     H 2013  10.535   7.837   5.785 -0.5907 -0.5254  1.8663
   15MOL0     H 2014  10.648   7.963   5.740 -1.9879 -0.8771 -0.5787
   15MOL0     H 2015  10.714   7.675   5.799  1.2189 -0.6149 -0.2391
   15MOL0     H 2016  10.845   7.791   5.776  0.6886  0.8260 -0.0500
   15MOL0     H 2017  10.612   7.700   5.597  0.8990 -2.0840 -0.1217
   15MOL0     H 2018  10.729   7.823   5.530  0.2420 -1.4103 -0.7564
   15MOL0     H 2019  10.727   7.460   5.682 -0.0799  1.3015  0.5744
   15MOL0     H 2020  10.901   7.261   5.685 -0.1275 -0.7798 -0.6530
   15MOL0     H 2021  11.062   7.317   5.629 -0.9618  0.6477  3.0448
   15MOL0     H 2022  11.010   7.259   5.392  0.5291  0.7079 -0.9726
   15MOL0     H 2023  10.994   7.120   5.503  0.7354  0.5800  2.5103
   15MOL0     H 2024  10.750   7.296   5.419  2.0229  0.3907  1.1199
   15MOL0     H 2025  10.809   7.153   5.334 -0.0381  1.0396 -0.5853
   15MOL0     H 2026  10.618   7.096   5.478 -0.4905  0.0410  0.4620
   15MOL0     H 2027  10.761   7.024   5.557 -0.5271  0.8693  3.4324
   15MOL0     H 2028  10.602   6.951   5.762  0.6618  0.6800  0.4227
   15MOL0     H 2029  10.433   6.807   5.831  0.2433 -0.8185  2.3844
   15MOL0     H 2030  10.268   6.840   5.771  0.4456 -2.7925  1.0319
   15MOL0     H 2031  10.323   6.881   5.938 -2.9554  0.1513 -1.4307
   15MOL0     H 2032   9.994   7.399   6.025 -0.0796 -0.3119 -1.7329
   15MOL0     H 2033   9.757   7.399   6.115  3.0573  1.8754 -1.6897
   15MOL0     H 2034   9.585   7.131   6.269  4.6141  0.3925 -0.9974
   15MOL0     H 2035   9.631   7.300   6.260 -0.8202  0.7996 -1.5578
   15MOL0     H 2036   9.414   7.317   6.346 -1.2867 -2.5606  0.8287
   15MOL0     H 2037   9.413   7.364   6.169  1.1591  1.5700  0.4994
   15MOL0     H 2038   9.362   7.074   6.226  0.9854  0.1654 -3.0923
   15MOL0     H 2039   9.269   7.184   6.130 -0.3198 -0.7272  0.8301
   15MOL0     H 2040   9.188   7.279   6.376  0.5576  1.4098 -1.6755
   15MOL0     H 2041   9.263   7.134   6.441  0.8785  0.3739 -1.0754
   15MOL0     H 2042   9.030   7.144   6.249 -3.6956 -4.5753 -3.4167
   15MOL0     H 2043   9.126   6.995   6.263 -1.5932  0.7178  0.4802
   15MOL0     H 2044   8.993   7.128   6.510 -2.8088 -0.7460 -0.9198
   15MOL0     H 2045   9.091   6.977   6.504  1.8274  0.1179 -1.3055
   15MOL0     H 2046   8.909   6.866   6.369  0.3607 -0.0012 -0.1904
   15MOL0     H 2047   8.848   7.027   6.341  2.5187  0.6459 -1.1105
   15MOL0     H 2048   8.864   6.915   6.633 -0.7455 -0.9377  1.3095
   15MOL0     H 2049   8.725   6.861   6.548  2.2317 -1.4245 -1.1980
   15MOL0     H 2050   9.664   7.044   5.914 -2.1025  2.0669  1.9308
   15MOL0     H 2051   9.898   7.047   5.807 -1.9991 -0.7867 -0.2074
   15MOL0     H 2052  10.269   7.333   5.749 -2.7736 -2.4272  3.2745
   15MOL0     H 2053  10.494   7.346   5.643  0.1039 -2.3584 -3.5247
   15MOL0     H 2054   9.896   7.914   5.794  2.6913 -0.6567  1.9368
   15MOL0     H 2055   9.712   8.052   5.722 -0.6583 -0.8939  1.2461
   15MOL0     H 2056   9.678   8.578   5.716 -0.7987  1.2265 -1.6035
   15MOL0     H 2057   9.562   8.774   5.672 -0.0071 -1.0278 -2.0859
   15MOL0     H 2058   9.177   8.813   5.910 -2.8273  1.4581  0.3293
   15MOL0     H 2059   9.207   8.965   5.845  2.0585 -0.4644  1.1809
   15MOL0     H 2060   9.064   8.764   5.661  0.1757 -0.9778  1.3282
   15MOL0     H 2061   9.056   8.943   5.662 -0.9890 -1.1439 -1.8201
   15MOL0     H 2062   8.964   8.771   5.898  0.9266  0.0688 -0.3638
   15MOL0     H 2063   8.934   8.932   5.875  1.2480 -0.7967  1.0128
   15MOL0     H 2064   8.739   8.787   5.808  0.7840  2.7602  1.5002
   15MOL0     H 2065   8.835   8.706   5.685 -0.3211 -0.7024 -0.9629
   15MOL0     H 2066   8.670   9.033   5.499  1.6036  2.0195 -0.3524
   15MOL0     H 2067   9.206   8.613   5.853 -0.0048  0.2345  1.8312
   15MOL0     H 2068   9.366   8.361   6.053 -0.4328  0.8805  1.1520
   15MOL0     H 2069   9.220   8.428   6.016 -1.9473 -0.0172 -1.8683
   15MOL0     H 2070   9.281   8.297   5.916 -0.6057 -0.6911  3.4426
   16MOL0     O 2071   4.571   9.807   7.411  0.1208  0.2416 -0.3124
   16MOL0     C 2072   4.528   9.743   7.511 -0.6484 -0.4492 -0.8332
   16MOL0     O 2073   4.605   9.720   7.623 -0.0048 -0.7442 -0.2802
   16MOL0     C 2074   4.736   9.759   7.616 -1.7701 -0.1038 -0.4721
   16MOL0     C 2075   4.839   9.670   7.563 -0.2621  0.1681  0.2104
   16MOL0     C 2076   4.967   9.715   7.532  0.0717  0.5437 -0.5314
   16MOL0     C 2077   5.003   9.846   7.575  0.0044 -0.2682  0.1821
   16MOL0     O 2078   5.132   9.893   7.561  0.5667  0.3540  0.9207
   16MOL0     C 2079   5.186   9.872   7.434  0.2484  0.4520  0.0356
   16MOL0     C 2080   5.294   9.977   7.412  1.2096  0.3357 -0.0225
   16MOL0     C 2081   5.424   9.921   7.483  0.3913  0.4084  0.1467
   16MOL0     C 2082   5.493   9.816   7.385  0.3983  0.3949  0.1581
   16MOL0     C 2083   5.633   9.783   7.430 -0.7592  0.0427 -0.1686
   16MOL0     C 2084   5.626   9.715   7.567  0.0003  0.6451  0.2042
   16MOL0     C 2085   5.758   9.659   7.608  0.0842  0.3201 -0.4838
   16MOL0     C 2086   5.852   9.774   7.653  0.7869  0.0946 -0.0139
   16MOL0     N 2087   5.971   9.711   7.726  0.0190  0.0230  0.1135
   16MOL0     C 2088   6.029   9.594   7.695  0.4127  0.3180  0.3785
   16MOL0     C 2089   6.131   9.578   7.791  0.2464  0.5166 -0.2508
   16MOL0     C 2090   6.240   9.473   7.797  0.0884  0.4496 -0.0754
   16MOL0     C 2091   6.371   9.533   7.751  0.7841  0.5732 -0.1735
   16MOL0     C 2092   6.500   9.441   7.762  0.2314  0.3032 -0.3621
   16MOL0     C 2093   6.618   9.534   7.756 -0.5861  0.6655  0.3065
   16MOL0     O 2094   6.734   9.448   7.752  0.0244  0.8536  0.1575
   16MOL0     C 2095   6.795   9.418   7.872  0.7173  0.3445  0.4614
   16MOL0     C 2096   6.751   9.452   7.997 -0.5465  0.3112  0.3672
   16MOL0     C 2097   6.833   9.429   8.114 -0.2718  0.9718  0.2611
   16MOL0     C 2098   6.767   9.463   8.238  0.4457 -0.3585 -0.1519
   16MOL0     C 2099   6.962   9.363   8.100 -0.1169 -0.0502 -0.1595
   16MOL0     C 2100   7.059   9.353   8.213 -0.0276 -0.1468 -0.1512
   16MOL0     O 2101   7.153   9.261   8.199 -0.8417  0.0286 -0.4352
   16MOL0     C 2102   7.263   9.227   8.284 -0.2371  0.8681  0.1983
   16MOL0     C 2103   7.379   9.158   8.229  0.6872 -0.7982 -0.4570
   16MOL0     C 2104   7.493   9.144   8.309  0.3111  0.1484  0.1756
   16MOL0     C 2105   7.502   9.190   8.440 -0.2641 -0.5294 -0.5011
   16MOL0     O 2106   7.615   9.195   8.521  0.1587  0.1899 -0.0115
   16MOL0     C 2107   7.735   9.141   8.476 -0.2229 -0.0816  0.0140
   16MOL0     C 2108   7.857   9.148   8.578  0.5083 -0.1210  0.1809
   16MOL0     C 2109   7.990   9.102   8.506  0.4009 -0.5256 -0.1853
   16MOL0     C 2110   8.108   9.131   8.591 -0.1432  0.5439 -0.3233
   16MOL0     C 2111   8.229   9.071   8.533  0.7345 -0.3050  0.5842
   16MOL0     C 2112   8.339   9.069   8.634  0.4200  0.5306  0.0573
   16MOL0     C 2113   8.423   8.945   8.621 -0.0233  0.6317 -0.8104
   16MOL0     C 2114   8.564   8.956   8.680 -0.4640 -0.1977  0.8699
   16MOL0    Cl 2115   8.573   8.986   8.845 -0.4172  0.0361 -0.2460
   16MOL0     C 2116   7.383   9.235   8.496 -1.1168  0.1859  0.0819
   16MOL0     C 2117   7.271   9.259   8.416  0.0625  0.2777 -0.4621
   16MOL0     O 2118   7.036   9.416   8.318  0.5063 -0.3153 -0.3051
   16MOL0     C 2119   7.009   9.337   7.969  0.0650 -0.1646  0.0379
   16MOL0     C 2120   6.926   9.363   7.858  0.2218 -0.4147  0.0986
   16MOL0     N 2121   6.114   9.681   7.887  0.4298 -0.7497 -0.3163
   16MOL0     N 2122   6.011   9.755   7.845 -0.1146  0.1173 -0.6252
   16MOL0     C 2123   4.913   9.932   7.646 -0.2511 -0.1294 -0.9794
   16MOL0     C 2124   4.779   9.891   7.652  1.0008  0.0818 -1.3258
   16MOL0     C 2125   4.396   9.669   7.523 -0.0094  0.0768 -0.4945
   16MOL0     C 2126   4.349   9.601   7.408 -0.0534 -0.6921 -0.3320
   16MOL0     C 2127   4.238   9.515   7.415 -0.1701 -0.5511 -0.5375
   16MOL0     C 2128   4.172   9.497   7.538 -0.3488  0.4594  0.5383
   16MOL0     O 2129   4.078   9.395   7.552 -0.1175 -1.3534 -0.0157
   16MOL0     C 2130   3.947   9.439   7.589  0.1118 -0.6147  0.7550
   16MOL0     C 2131   3.856   9.441   7.466 -0.2007  0.1613  0.3632
   16MOL0     C 2132   3.876   9.568   7.386  0.2815 -0.2654 -0.2429
   16MOL0     C 2133   3.756   9.591   7.300  0.1296  0.4493  0.9575
   16MOL0     C 2134   3.785   9.689   7.190  0.2229  0.3527  0.4911
   16MOL0     C 2135   3.814   9.766   7.097  0.4270 -0.5225 -0.3373
   16MOL0     C 2136   4.215   9.564   7.648 -0.6881 -1.1307  0.3761
   16MOL0     C 2137   4.320   9.659   7.648  0.3865  0.5603  0.8793
   16MOL0     C 2138   4.340   9.748   7.768  0.0832  0.2632  0.2521
   16MOL0     H 2139   4.809   9.569   7.535 -2.3191  1.0778 -1.1207
   16MOL0     H 2140   5.037   9.657   7.472  0.9036  0.7115  0.2474
   16MOL0     H 2141   5.119   9.890   7.349 -0.0500  0.6553  0.3136
   16MOL0     H 2142   5.221   9.771   7.413 -1.0813  0.5585 -3.5111
   16MOL0     H 2143   5.315   9.982   7.305 -2.5564  3.9022 -0.8658
   16MOL0     H 2144   5.245  10.066   7.454  2.8061  0.4967  1.6408
   16MOL0     H 2145   5.496  10.004   7.491  1.5289 -0.3412 -1.6888
   16MOL0     H 2146   5.395   9.890   7.584 -0.6766 -0.1166 -0.3041
   16MOL0     H 2147   5.430   9.728   7.376 -2.3760  2.2028  0.7780
   16MOL0     H 2148   5.499   9.862   7.286 -0.6725 -2.4916 -1.3622
   16MOL0     H 2149   5.697   9.871   7.429  0.4555 -0.7152  2.0297
   16MOL0     H 2150   5.676   9.713   7.357 -3.9038 -0.5536 -1.5993
   16MOL0     H 2151   5.596   9.779   7.651 -0.3151 -2.1600  2.3873
   16MOL0     H 2152   5.547   9.639   7.567  0.1135  0.5250 -0.7284
   16MOL0     H 2153   5.801   9.592   7.533 -1.6770 -3.7053  1.7503
   16MOL0     H 2154   5.743   9.597   7.697 -3.5525  0.6126 -0.7268
   16MOL0     H 2155   5.887   9.832   7.567 -0.5318  0.8908 -0.0386
   16MOL0     H 2156   5.804   9.839   7.726  3.2339 -1.2788  3.0507
   16MOL0     H 2157   6.012   9.540   7.603  1.3887  1.0292 -0.2523
   16MOL0     H 2158   6.214   9.394   7.726  0.4753 -0.6792  0.9989
   16MOL0     H 2159   6.251   9.437   7.900 -0.2456 -0.0964 -0.2275
   16MOL0     H 2160   6.346   9.586   7.658 -2.2119  0.1292  0.2761
   16MOL0     H 2161   6.392   9.618   7.817 -0.8845  0.4824  0.5388
   16MOL0     H 2162   6.495   9.379   7.852 -0.9695  2.0358  0.8129
   16MOL0     H 2163   6.510   9.363   7.686 -1.2175 -1.8785  1.5381
   16MOL0     H 2164   6.600   9.607   7.677 -0.7377 -0.6859 -0.9701
   16MOL0     H 2165   6.618   9.598   7.844 -2.2128  0.6272  0.3653
   16MOL0     H 2166   6.658   9.505   8.018 -2.8087 -1.6335 -3.5429
   16MOL0     H 2167   6.788   9.566   8.267 -0.2843 -0.2673  0.0841
   16MOL0     H 2168   6.800   9.397   8.319  0.1859  2.7505  2.7300
   16MOL0     H 2169   6.658   9.464   8.229  0.4667  0.3597 -0.3393
   16MOL0     H 2170   7.376   9.128   8.125  0.3457 -1.6180 -0.2206
   16MOL0     H 2171   7.587   9.119   8.261  1.7728  2.1120  1.7922
   16MOL0     H 2172   7.720   9.039   8.439  2.4000 -0.1402 -1.0945
   16MOL0     H 2173   7.758   9.208   8.393 -1.3828  0.8290  0.4103
   16MOL0     H 2174   7.869   9.250   8.616 -1.7249 -0.4733  2.0246
   16MOL0     H 2175   7.835   9.080   8.660  2.5296  1.6980  2.3707
   16MOL0     H 2176   8.011   9.157   8.414  0.5955 -2.1329 -1.1286
   16MOL0     H 2177   7.987   8.997   8.474 -0.0008 -0.2706 -1.0120
   16MOL0     H 2178   8.085   9.065   8.675 -1.2858 -0.7001 -1.5667
   16MOL0     H 2179   8.119   9.237   8.618 -1.4971  0.1788  1.8868
   16MOL0     H 2180   8.220   8.969   8.496 -2.3938  0.1417 -0.1762
   16MOL0     H 2181   8.262   9.133   8.449  0.9543 -0.6442  0.4165
   16MOL0     H 2182   8.307   9.066   8.739 -1.9986 -0.3486 -0.6471
   16MOL0     H 2183   8.394   9.163   8.626  0.4463  0.4379 -0.9335
   16MOL0     H 2184   8.430   8.913   8.517  1.2513  3.3886 -1.6569
   16MOL0     H 2185   8.364   8.865   8.667 -0.3011 -0.1599 -2.4515
   16MOL0     H 2186   8.624   9.035   8.634 -1.3732  0.6703  1.1338
   16MOL0     H 2187   8.623   8.865   8.664 -0.9337 -1.1333  3.7954
   16MOL0     H 2188   7.382   9.267   8.600 -1.7504  1.3322 -0.2626
   16MOL0     H 2189   7.195   9.319   8.467  1.2050  0.9466  0.5030
   16MOL0     H 2190   7.112   9.308   7.947  1.3839  3.4754  0.7745
   16MOL0     H 2191   6.956   9.339   7.757 -3.7761 -0.0866 -1.3704
   16MOL0     H 2192   4.946  10.028   7.684  1.9395 -1.2357  0.1402
   16MOL0     H 2193   4.711   9.960   7.700  1.5293 -0.7502  0.7427
   16MOL0     H 2194   4.393   9.628   7.312 -1.1175  1.8668 -0.1830
   16MOL0     H 2195   4.207   9.461   7.326  1.3851 -2.6641  0.1325
   16MOL0     H 2196   3.906   9.368   7.662  0.8993 -2.7895 -0.8231
   16MOL0     H 2197   3.941   9.542   7.625 -0.0236  1.1456 -3.7273
   16MOL0     H 2198   3.756   9.421   7.504  1.3191 -2.0948  3.7385
   16MOL0     H 2199   3.893   9.358   7.404 -1.3789 -1.4133  1.6812
   16MOL0     H 2200   3.868   9.651   7.456  0.3097 -2.1060  2.0592
   16MOL0     H 2201   3.966   9.566   7.324 -1.0733  1.5186 -2.4317
   16MOL0     H 2202   3.677   9.628   7.365  1.2096 -0.9693  3.2017
   16MOL0     H 2203   3.719   9.496   7.261 -3.9264  3.2920 -3.2013
   16MOL0     H 2204   3.832   9.843   7.025  0.3583 -1.8282 -1.8006
   16MOL0     H 2205   4.162   9.546   7.741 -0.0187 -0.2295  0.9504
   16MOL0     H 2206   4.239   9.782   7.793 -0.4597 -1.0370 -0.0528
   16MOL0     H 2207   4.377   9.691   7.854  0.0783  0.1356  0.1691
   16MOL0     H 2208   4.402   9.836   7.748  0.7907  0.3396  2.5366
   17MOL0     O 2209   7.707   6.672   9.930  0.2433 -0.2522  0.5830
   17MOL0     C 2210   7.658   6.741   9.844 -0.0838  0.6769 -0.0722
   17MOL0     O 2211   7.721   6.789   9.730  0.3813 -0.3677 -0.2283
   17MOL0     C 2212   7.842   6.733   9.705  0.2776  0.0963  0.1340
   17MOL0     C 2213   7.955   6.748   9.788  0.0905  0.0406 -0.3983
   17MOL0     C 2214   8.073   6.682   9.752  0.5544  0.1431 -0.4352
   17MOL0     C 2215   8.078   6.580   9.661 -0.5850 -0.4454 -0.7298
   17MOL0     O 2216   8.179   6.499   9.632 -0.1371  0.6264 -0.4899
   17MOL0     C 2217   8.302   6.517   9.707 -0.3611 -0.0738  0.6580
   17MOL0     C 2218   8.404   6.408   9.662 -0.6439 -0.2103  0.1908
   17MOL0     C 2219   8.349   6.261   9.651 -0.2589 -0.6040  0.8842
   17MOL0     C 2220   8.437   6.164   9.559  0.0737 -0.9518  0.3065
   17MOL0     C 2221   8.358   6.047   9.513 -0.0850  0.6447 -0.4814
   17MOL0     C 2222   8.450   5.966   9.421 -0.3317 -0.7218  0.8033
   17MOL0     C 2223   8.400   5.822   9.407  0.3404 -0.0784 -0.2617
   17MOL0     C 2224   8.394   5.729   9.533 -0.2226 -0.3584 -0.2031
   17MOL0     N 2225   8.526   5.684   9.561  0.4382 -0.1251 -1.0972
   17MOL0     C 2226   8.585   5.581   9.506  0.2107  0.7372  0.8820
   17MOL0     C 2227   8.684   5.549   9.588 -0.7175 -0.6238  0.2194
   17MOL0     C 2228   8.797   5.462   9.559 -0.4476 -0.4251 -0.1997
   17MOL0     C 2229   8.739   5.327   9.596 -0.3932  0.9637 -0.0946
   17MOL0     C 2230   8.834   5.205   9.601 -0.0729 -1.1048  0.4823
   17MOL0     C 2231   8.765   5.076   9.630 -0.3868  0.8299  0.4559
   17MOL0     O 2232   8.735   5.056   9.767 -0.6459 -0.2572  0.0850
   17MOL0     C 2233   8.681   4.934   9.805  0.4925 -0.7112  0.3294
   17MOL0     C 2234   8.655   4.922   9.936 -0.1369 -0.1514  0.4040
   17MOL0     C 2235   8.603   4.804   9.990 -0.7254 -0.3880 -0.8876
   17MOL0     C 2236   8.568   4.812  10.135 -0.5379  0.8709  0.1692
   17MOL0     C 2237   8.585   4.691   9.901 -0.3966  0.5157  0.0755
   17MOL0     C 2238   8.541   4.555   9.953  0.8734 -0.1677 -0.1834
   17MOL0     O 2239   8.539   4.538  10.089 -0.6152  0.4616  0.7388
   17MOL0     C 2240   8.498   4.412  10.128 -0.3471  0.6504 -0.3012
   17MOL0     C 2241   8.581   4.316  10.203  0.6432 -0.2734  0.3817
   17MOL0     C 2242   8.530   4.201  10.259 -0.7170  0.3161  0.0687
   17MOL0     C 2243   8.396   4.164  10.238 -0.6501  0.5071  0.4973
   17MOL0     O 2244   8.344   4.032  10.265  0.4368  0.0441 -0.6981
   17MOL0     C 2245   8.432   3.942  10.333  0.0505  0.2566 -0.4188
   17MOL0     C 2246   8.375   3.801  10.349  0.0798 -0.0775  0.3111
   17MOL0     C 2247   8.378   3.710  10.222  0.1112  0.1060 -0.8199
   17MOL0     C 2248   8.340   3.561  10.270 -0.7416  0.0256 -0.7214
   17MOL0     C 2249   8.278   3.475  10.165 -0.6746 -0.6181  0.0900
   17MOL0     C 2250   8.273   3.326  10.217 -0.1782 -0.8110 -0.1083
   17MOL0     C 2251   8.242   3.222  10.116  0.3966  0.3286  0.0512
   17MOL0     C 2252   8.285   3.073  10.155  0.0005 -0.5708 -0.7485
   17MOL0    Cl 2253   8.463   3.067  10.191 -0.1440 -0.2091  0.1062
   17MOL0     C 2254   8.312   4.252  10.177 -0.0199 -0.9404  0.3130
   17MOL0     C 2255   8.360   4.379  10.119 -0.7862  0.5152 -0.5287
   17MOL0     O 2256   8.514   4.466   9.872 -0.1574 -0.1972  0.2364
   17MOL0     C 2257   8.618   4.706   9.766  0.6879 -0.5288 -0.7360
   17MOL0     C 2258   8.660   4.827   9.714  0.1706 -0.6925 -0.3394
   17MOL0     N 2259   8.679   5.639   9.693  0.4749 -0.8197  0.3682
   17MOL0     N 2260   8.594   5.724   9.671  0.1687 -0.3214 -0.3601
   17MOL0     C 2261   7.964   6.558   9.589  0.2658 -0.1337  0.3097
   17MOL0     C 2262   7.846   6.632   9.608 -0.1193  0.0753  0.8505
   17MOL0     C 2263   7.502   6.771   9.863 -0.0327 -0.9370 -0.3900
   17MOL0     C 2264   7.440   6.708   9.973  0.0166 -0.4992 -0.0468
   17MOL0     C 2265   7.302   6.720   9.998 -0.4473 -0.2215 -0.1590
   17MOL0     C 2266   7.230   6.797   9.909  0.6163 -0.6657 -0.9206
   17MOL0     O 2267   7.096   6.820   9.924 -0.2609  0.1046  0.4992
   17MOL0     C 2268   7.012   6.740  10.010 -0.5306 -0.0140  0.0015
   17MOL0     C 2269   7.019   6.803  10.153  1.0787  0.5848  0.2781
   17MOL0     C 2270   6.933   6.928  10.156 -0.4416  0.0085 -0.2342
   17MOL0     C 2271   6.921   6.981  10.289 -0.2269 -0.8106 -1.1626
   17MOL0     C 2272   6.834   7.106  10.284  0.2871 -0.2960  0.0716
   17MOL0     C 2273   6.755   7.198  10.291 -0.2654  0.1360 -0.3606
   17MOL0     C 2274   7.293   6.857   9.806  0.8328  0.3751  0.6482
   17MOL0     C 2275   7.425   6.842   9.772  0.0710  0.2941  0.0483
   17MOL0     C 2276   7.476   6.904   9.640 -0.0588 -0.4047 -0.2303
   17MOL0     H 2277   7.962   6.817   9.872 -3.1953 -0.0884  0.1234
   17MOL0     H 2278   8.165   6.710   9.801 -0.0480 -0.5763  1.1900
   17MOL0     H 2279   8.285   6.510   9.815 -0.9142  2.1215  0.7524
   17MOL0     H 2280   8.350   6.614   9.693 -1.4702  0.4327  0.2999
   17MOL0     H 2281   8.443   6.435   9.563  3.4723 -0.6974  1.5020
   17MOL0     H 2282   8.489   6.419   9.729  1.1276  2.9343 -2.2480
   17MOL0     H 2283   8.336   6.227   9.754 -3.5578 -0.9159  0.4720
   17MOL0     H 2284   8.245   6.269   9.619 -1.5346  1.6666  4.8626
   17MOL0     H 2285   8.468   6.215   9.467 -0.9042 -3.0822 -1.2911
   17MOL0     H 2286   8.526   6.122   9.606  0.0246  0.6456  1.9589
   17MOL0     H 2287   8.273   6.082   9.454 -1.2721  1.2491  1.5144
   17MOL0     H 2288   8.318   5.987   9.595  1.2572 -0.6112 -0.7052
   17MOL0     H 2289   8.448   6.008   9.321  0.3127  1.8962  1.8221
   17MOL0     H 2290   8.552   5.959   9.459 -0.4468 -0.8242  1.1030
   17MOL0     H 2291   8.456   5.768   9.330  0.5216 -2.2377  1.2792
   17MOL0     H 2292   8.300   5.827   9.364 -0.8715 -0.1686  2.3448
   17MOL0     H 2293   8.343   5.772   9.620 -1.6180  0.3965 -1.3427
   17MOL0     H 2294   8.338   5.639   9.504 -0.5238 -1.1159  2.5076
   17MOL0     H 2295   8.559   5.540   9.408  3.9684 -0.2084  0.1106
   17MOL0     H 2296   8.869   5.494   9.634 -1.0423  0.1131  0.1480
   17MOL0     H 2297   8.838   5.472   9.458  0.2693 -0.5619  0.0720
   17MOL0     H 2298   8.716   5.341   9.703  0.7054  0.5100  0.2132
   17MOL0     H 2299   8.650   5.307   9.535 -1.1950  1.5050  0.8579
   17MOL0     H 2300   8.892   5.198   9.508  0.9107  2.0406  0.7526
   17MOL0     H 2301   8.914   5.208   9.675  2.8486 -0.1401 -2.4797
   17MOL0     H 2302   8.666   5.090   9.585 -0.8282 -0.2286  1.0650
   17MOL0     H 2303   8.829   4.994   9.595 -0.9690 -0.3145  1.9890
   17MOL0     H 2304   8.676   5.006  10.001  1.8090  0.6308 -1.1354
   17MOL0     H 2305   8.578   4.918  10.159  0.5690  0.5494  1.2519
   17MOL0     H 2306   8.641   4.758  10.196 -0.1751 -0.2887 -1.2339
   17MOL0     H 2307   8.466   4.774  10.151 -0.3074  0.1331 -0.0676
   17MOL0     H 2308   8.681   4.346  10.233  0.8911 -1.5897  0.9387
   17MOL0     H 2309   8.596   4.127  10.303 -2.1802 -1.0778  0.0040
   17MOL0     H 2310   8.528   3.933  10.281  0.7108 -4.7753  1.1127
   17MOL0     H 2311   8.439   3.987  10.432 -1.5638  2.9182 -1.4131
   17MOL0     H 2312   8.425   3.753  10.434 -0.4228  0.6810  1.0502
   17MOL0     H 2313   8.268   3.819  10.361  0.1435  2.0742 -1.7640
   17MOL0     H 2314   8.474   3.711  10.171 -0.7260  0.7717 -2.4660
   17MOL0     H 2315   8.300   3.740  10.151 -3.2018 -2.3013  1.4624
   17MOL0     H 2316   8.267   3.563  10.352 -2.4801 -0.9612 -2.1771
   17MOL0     H 2317   8.432   3.513  10.306 -2.2661 -0.5450  2.8387
   17MOL0     H 2318   8.171   3.497  10.154 -0.8692 -0.9790  1.1092
   17MOL0     H 2319   8.325   3.494  10.068 -0.3057 -1.5882  0.0694
   17MOL0     H 2320   8.199   3.309  10.296 -2.3657 -2.0784 -2.2858
   17MOL0     H 2321   8.370   3.308  10.264  1.5441  2.3271 -2.0811
   17MOL0     H 2322   8.299   3.244  10.026  3.3126 -1.4932  1.2877
   17MOL0     H 2323   8.135   3.231  10.096 -0.1052 -1.6255  1.5089
   17MOL0     H 2324   8.259   2.998  10.080 -2.1361  1.9748 -2.7629
   17MOL0     H 2325   8.246   3.049  10.254  2.0685  0.4110  0.3680
   17MOL0     H 2326   8.207   4.226  10.165  0.4532 -2.1569 -1.7870
   17MOL0     H 2327   8.289   4.449  10.076 -2.4569 -1.1567 -0.5860
   17MOL0     H 2328   8.604   4.623   9.697 -1.7044  0.5006 -1.5984
   17MOL0     H 2329   8.663   4.838   9.606  0.6295  1.7209 -0.1304
   17MOL0     H 2330   7.969   6.479   9.515 -2.4199 -1.4529  1.4085
   17MOL0     H 2331   7.756   6.603   9.555  0.2907  0.6917 -0.2136
   17MOL0     H 2332   7.501   6.657  10.046 -0.5476 -2.3910 -0.8325
   17MOL0     H 2333   7.247   6.683  10.084 -0.0659  2.2848  1.2653
   17MOL0     H 2334   6.912   6.753   9.966  0.4749  1.2779 -2.0416
   17MOL0     H 2335   7.044   6.636  10.010  1.6726  0.6051  1.3081
   17MOL0     H 2336   7.121   6.828  10.182  0.7022  2.1943  0.3249
   17MOL0     H 2337   6.972   6.733  10.223 -1.2516  3.3596  1.7377
   17MOL0     H 2338   6.983   6.993  10.083 -1.9725 -0.2424 -1.5729
   17MOL0     H 2339   6.835   6.921  10.108  0.7946 -2.0805 -2.6927
   17MOL0     H 2340   7.017   7.020  10.325 -1.7900  0.2119  2.2124
   17MOL0     H 2341   6.884   6.909  10.361 -0.3033 -2.1036 -2.4506
   17MOL0     H 2342   6.700   7.289  10.288  2.2196  1.7508 -0.0896
   17MOL0     H 2343   7.230   6.913   9.736  0.1627 -1.5174 -0.3308
   17MOL0     H 2344   7.402   6.976   9.606  1.4608  0.9083 -0.9034
   17MOL0     H 2345   7.566   6.962   9.665 -1.4097  1.3028  0.8862
   17MOL0     H 2346   7.487   6.832   9.558  2.8487 -0.0755 -0.2363
   18MOL0     O 2347   5.328   1.936   8.737  0.1511  0.8131 -0.0034
   18MOL0     C 2348   5.354   1.873   8.839 -0.8277 -0.2234 -0.5424
   18MOL0     O 2349   5.482   1.824   8.870  0.6674 -0.0206  0.3990
   18MOL0     C 2350   5.591   1.885   8.811  0.5685 -0.4142 -0.7153
   18MOL0     C 2351   5.657   1.992   8.879 -0.6060  0.0685  0.1425
   18MOL0     C 2352   5.771   2.056   8.818  0.2517 -0.2712 -0.1393
   18MOL0     C 2353   5.820   2.023   8.695 -0.3839  0.3200 -0.4061
   18MOL0     O 2354   5.938   2.077   8.641 -0.2412 -0.5424  0.3436
   18MOL0     C 2355   5.994   2.192   8.705 -0.4964 -0.7018 -0.1539
   18MOL0     C 2356   6.114   2.233   8.618 -0.0703 -0.2196  0.6233
   18MOL0     C 2357   6.201   2.344   8.678  0.1381  0.4905 -1.1245
   18MOL0     C 2358   6.241   2.317   8.822 -0.1020  0.7400  0.2763
   18MOL0     C 2359   6.372   2.394   8.869  0.3696  0.0254  0.5785
   18MOL0     C 2360   6.423   2.348   9.006 -0.0662 -0.2493 -0.4588
   18MOL0     C 2361   6.545   2.414   9.068  0.4867  0.0018  0.5371
   18MOL0     C 2362   6.547   2.364   9.209  0.4069 -0.0188  0.2567
   18MOL0     N 2363   6.652   2.433   9.281 -0.4982  0.4127 -0.5720
   18MOL0     C 2364   6.775   2.380   9.314 -0.6582 -0.2811 -0.5329
   18MOL0     C 2365   6.814   2.438   9.420 -0.6427 -0.4569 -0.0952
   18MOL0     C 2366   6.945   2.421   9.496  0.7620  0.1197  0.0277
   18MOL0     C 2367   6.947   2.526   9.603  0.5065 -0.6708 -0.8944
   18MOL0     C 2368   7.082   2.517   9.684  0.1497 -0.0923 -0.2778
   18MOL0     C 2369   7.069   2.596   9.810  0.6684 -0.5769  0.2347
   18MOL0     O 2370   7.164   2.543   9.904 -0.1432  0.3146  0.2028
   18MOL0     C 2371   7.192   2.624  10.009  0.0147 -0.3097 -0.2845
   18MOL0     C 2372   7.110   2.724  10.061  0.6409 -0.5218 -0.5282
   18MOL0     C 2373   7.145   2.788  10.183 -0.2485  0.7685 -0.3240
   18MOL0     C 2374   7.048   2.898  10.219  0.3742 -0.9661  0.0053
   18MOL0     C 2375   7.261   2.750  10.257  0.6463 -0.7033 -0.9182
   18MOL0     C 2376   7.306   2.822  10.380 -0.1178  0.5658 -1.1229
   18MOL0     O 2377   7.398   2.742  10.446  0.9648  0.0078 -0.2070
   18MOL0     C 2378   7.480   2.793  10.547 -0.2698 -0.8917  0.8475
   18MOL0     C 2379   7.429   2.814  10.671  0.8236 -1.0146 -0.2967
   18MOL0     C 2380   7.508   2.873  10.770 -0.1313  0.2557  0.5958
   18MOL0     C 2381   7.638   2.903  10.753 -0.0945  0.3452 -0.5896
   18MOL0     O 2382   7.707   2.959  10.855  0.0761  0.3887  0.1999
   18MOL0     C 2383   7.850   2.985  10.838  0.4894 -0.5623  0.0668
   18MOL0     C 2384   7.882   3.038  10.982  0.1902 -0.2774  0.1912
   18MOL0     C 2385   8.020   3.096  10.967  0.4309  0.3623  0.2615
   18MOL0     C 2386   8.071   3.187  11.083  0.1819 -0.2913  0.3775
   18MOL0     C 2387   8.212   3.224  11.067  0.2523  0.2056  0.6562
   18MOL0     C 2388   8.265   3.310  11.186  0.5609  0.0262 -0.2452
   18MOL0     C 2389   8.395   3.390  11.166 -0.3331 -0.2038  0.8182
   18MOL0     C 2390   8.515   3.297  11.112  0.1107 -0.0774 -0.0349
   18MOL0    Cl 2391   8.636   3.394  11.023 -0.8526  0.0181 -0.6074
   18MOL0     C 2392   7.695   2.872  10.631  0.7323 -0.1741  0.3656
   18MOL0     C 2393   7.619   2.815  10.528  0.0408  0.2894  0.5721
   18MOL0     O 2394   7.259   2.924  10.427  0.2221  0.0809 -0.1020
   18MOL0     C 2395   7.340   2.657  10.195  0.0282  0.1074 -0.3261
   18MOL0     C 2396   7.300   2.584  10.079 -0.0843 -0.4787 -0.7178
   18MOL0     N 2397   6.714   2.531   9.453  0.2212 -0.3625  0.5490
   18MOL0     N 2398   6.619   2.532   9.370 -0.1882 -0.5851 -0.1896
   18MOL0     C 2399   5.756   1.916   8.623 -0.4067  0.9844  0.5059
   18MOL0     C 2400   5.645   1.852   8.683  0.3034  0.7087 -0.6943
   18MOL0     C 2401   5.251   1.847   8.939 -0.0517  0.6417 -0.1577
   18MOL0     C 2402   5.281   1.777   9.057 -0.1625 -0.3524  0.7837
   18MOL0     C 2403   5.196   1.753   9.158  0.5328  0.4665 -0.1375
   18MOL0     C 2404   5.062   1.783   9.143  0.8267  0.0669  0.0016
   18MOL0     O 2405   4.988   1.751   9.256  0.3122 -0.1608 -0.2434
   18MOL0     C 2406   4.843   1.761   9.265  0.3417  0.1052 -0.3886
   18MOL0     C 2407   4.766   1.641   9.209 -0.0983 -0.0039 -0.3699
   18MOL0     C 2408   4.824   1.511   9.262 -0.3614  0.3317 -0.4638
   18MOL0     C 2409   4.848   1.503   9.413 -0.0812 -0.1250 -0.6719
   18MOL0     C 2410   4.721   1.503   9.485 -0.0941 -0.7942 -0.2601
   18MOL0     C 2411   4.619   1.536   9.542 -0.8407 -0.6945 -0.8465
   18MOL0     C 2412   5.025   1.858   9.026  0.0011  0.0957  0.3747
   18MOL0     C 2413   5.116   1.876   8.916  0.3434  0.9942 -0.4143
   18MOL0     C 2414   5.046   1.916   8.787 -0.2230 -0.5904  0.3604
   18MOL0     H 2415   5.633   2.012   8.983  4.3819 -1.6348  1.8873
   18MOL0     H 2416   5.819   2.125   8.887 -2.9714 -0.5851  2.7005
   18MOL0     H 2417   6.024   2.170   8.807 -0.0322 -0.7634 -0.3031
   18MOL0     H 2418   5.928   2.279   8.709  0.2024 -0.1832  0.1811
   18MOL0     H 2419   6.187   2.152   8.606 -0.0172 -0.2171  0.9159
   18MOL0     H 2420   6.085   2.256   8.515 -0.1901 -1.9984  0.2261
   18MOL0     H 2421   6.291   2.355   8.616 -0.0158  1.5600 -1.1740
   18MOL0     H 2422   6.151   2.441   8.687 -2.2236 -0.7218 -0.5857
   18MOL0     H 2423   6.161   2.336   8.894 -0.2757  0.5199  0.1438
   18MOL0     H 2424   6.269   2.212   8.837 -0.5933  1.0354  4.6108
   18MOL0     H 2425   6.358   2.502   8.867  4.4909  0.7222 -1.9281
   18MOL0     H 2426   6.450   2.373   8.795 -1.0095 -2.3347 -0.3403
   18MOL0     H 2427   6.339   2.369   9.073  2.1586  2.2919  1.8130
   18MOL0     H 2428   6.445   2.241   9.007  0.9968 -0.0650 -1.6204
   18MOL0     H 2429   6.526   2.522   9.068 -0.2094 -0.0956  2.0801
   18MOL0     H 2430   6.646   2.393   9.033  1.1987 -0.1754  2.6094
   18MOL0     H 2431   6.449   2.377   9.257  0.0774 -1.8118  0.1305
   18MOL0     H 2432   6.569   2.257   9.209  0.8096  0.0624  0.4409
   18MOL0     H 2433   6.825   2.296   9.267  2.2125  1.4518 -0.7933
   18MOL0     H 2434   7.031   2.447   9.434  0.8108  1.1580  0.5148
   18MOL0     H 2435   6.961   2.320   9.535 -0.8399  1.1284  3.8081
   18MOL0     H 2436   6.925   2.629   9.573 -1.1535 -0.6826  0.1628
   18MOL0     H 2437   6.868   2.504   9.675  2.2972 -1.8662  0.8237
   18MOL0     H 2438   7.105   2.414   9.710 -2.3436 -0.7208 -0.2616
   18MOL0     H 2439   7.152   2.555   9.609 -1.6328 -1.8008 -2.9973
   18MOL0     H 2440   7.082   2.700   9.781 -0.1254 -1.0241 -1.9039
   18MOL0     H 2441   6.966   2.580   9.843  0.2523  0.0678 -0.7074
   18MOL0     H 2442   7.015   2.748  10.014  0.8507 -0.2872 -0.8385
   18MOL0     H 2443   6.986   2.876  10.306 -0.4021  0.4521 -0.1648
   18MOL0     H 2444   6.987   2.932  10.135  0.8144 -0.4747 -0.1239
   18MOL0     H 2445   7.105   2.986  10.250 -1.9696  0.5311  0.2789
   18MOL0     H 2446   7.322   2.804  10.685  0.1299  2.4163 -2.0403
   18MOL0     H 2447   7.464   2.897  10.866 -1.7085 -2.6158  0.6953
   18MOL0     H 2448   7.901   2.891  10.820 -0.4760 -1.0533 -0.1868
   18MOL0     H 2449   7.885   3.051  10.758  1.4775 -1.3301 -0.1491
   18MOL0     H 2450   7.812   3.118  11.007  0.7543  1.6872 -3.8028
   18MOL0     H 2451   7.885   2.956  11.055  0.7139 -0.4222  0.0107
   18MOL0     H 2452   8.024   3.160  10.878 -0.8378 -1.3907 -1.1335
   18MOL0     H 2453   8.091   3.014  10.954  0.2693  0.3762 -0.7623
   18MOL0     H 2454   8.054   3.135  11.177 -1.6968 -0.0848  0.1802
   18MOL0     H 2455   8.006   3.275  11.086 -1.2079 -1.2420 -0.7768
   18MOL0     H 2456   8.253   3.123  11.077 -3.2596 -1.2206  2.2678
   18MOL0     H 2457   8.239   3.278  10.975 -3.4973 -1.7687 -1.8704
   18MOL0     H 2458   8.267   3.249  11.276 -0.3024  1.4768  0.8110
   18MOL0     H 2459   8.191   3.387  11.211 -1.5439 -2.0431  0.2797
   18MOL0     H 2460   8.425   3.450  11.252 -1.3309 -0.3714  1.3015
   18MOL0     H 2461   8.379   3.467  11.089 -0.0833 -1.8364 -0.9458
   18MOL0     H 2462   8.478   3.222  11.041 -0.2215  0.9584 -0.9994
   18MOL0     H 2463   8.555   3.231  11.189 -0.9643 -0.0721  0.5463
   18MOL0     H 2464   7.798   2.900  10.610  0.3951  0.6506 -0.2261
   18MOL0     H 2465   7.662   2.800  10.429 -1.5829  0.3211 -0.1592
   18MOL0     H 2466   7.443   2.639  10.223 -0.0332  0.7826  0.3420
   18MOL0     H 2467   7.374   2.522  10.029  1.0270 -0.4333  0.7906
   18MOL0     H 2468   5.786   1.893   8.521 -2.2027  1.0552 -0.0658
   18MOL0     H 2469   5.608   1.761   8.637 -1.8087  1.2765 -0.2098
   18MOL0     H 2470   5.382   1.749   9.083 -0.6872 -0.9454  2.3216
   18MOL0     H 2471   5.226   1.704   9.250  1.6173 -1.4240 -1.4160
   18MOL0     H 2472   4.820   1.762   9.373 -0.6726 -1.3486 -0.5453
   18MOL0     H 2473   4.798   1.854   9.231 -0.5809 -0.2011 -0.0704
   18MOL0     H 2474   4.785   1.661   9.103 -0.9049  1.0849 -0.3352
   18MOL0     H 2475   4.658   1.649   9.223 -0.1167 -2.2471  1.1514
   18MOL0     H 2476   4.758   1.429   9.232  0.4185 -1.3675  2.1390
   18MOL0     H 2477   4.917   1.503   9.206 -0.7272 -0.7176 -0.9539
   18MOL0     H 2478   4.894   1.595   9.450 -2.0044  0.9445 -0.8054
   18MOL0     H 2479   4.901   1.408   9.430 -0.8688 -0.9347 -2.4682
   18MOL0     H 2480   4.529   1.559   9.595 -1.3573 -0.0005 -1.9828
   18MOL0     H 2481   4.922   1.893   9.025 -0.3726 -0.8556 -1.8211
   18MOL0     H 2482   5.049   2.022   8.762  2.7848 -0.0426  2.4671
   18MOL0     H 2483   5.085   1.862   8.700  3.5728  3.0369 -0.4812
   18MOL0     H 2484   4.942   1.884   8.800 -0.8087  1.3368  0.7866
   19MOL0     O 2485  11.121   2.698   5.596 -0.7158 -0.2332  0.1136
   19MOL0     C 2486  11.166   2.589   5.568  1.0183 -0.1468  0.0529
   19MOL0     O 2487  11.293   2.544   5.578 -0.4284  0.1981 -0.3490
   19MOL0     C 2488  11.392   2.635   5.594 -0.8204 -0.3703 -0.3428
   19MOL0     C 2489  11.454   2.693   5.482 -0.2247 -0.8923  0.3332
   19MOL0     C 2490  11.562   2.788   5.487  0.2705  0.2961  0.0747
   19MOL0     C 2491  11.620   2.812   5.613 -0.0872  0.1255 -0.3912
   19MOL0     O 2492  11.719   2.906   5.623 -0.2898  0.1369  0.1703
   19MOL0     C 2493  11.837   2.852   5.681 -0.0804  0.1848  0.1408
   19MOL0     C 2494  11.951   2.953   5.692 -0.0849 -0.4073 -0.9322
   19MOL0     C 2495  12.079   2.891   5.755  0.1120  0.8545 -0.3347
   19MOL0     C 2496  12.172   2.996   5.806 -0.3515 -0.0937 -0.0076
   19MOL0     C 2497  12.300   2.934   5.866  0.6795  0.3399 -0.0280
   19MOL0     C 2498  12.401   3.046   5.919  0.2819  0.4773  0.0406
   19MOL0     C 2499  12.504   2.981   6.001 -0.6637  0.1079 -0.3087
   19MOL0     C 2500  12.607   2.906   5.915  0.1931  0.2619 -0.4415
   19MOL0     N 2501  12.706   2.826   5.987  1.0369  0.5112 -0.2775
   19MOL0     C 2502  12.684   2.702   6.015  0.0519  0.0319 -0.0399
   19MOL0     C 2503  12.788   2.672   6.099  0.2593 -0.4846 -0.0490
   19MOL0     C 2504  12.798   2.537   6.170 -0.3594  0.4751  0.5449
   19MOL0     C 2505  12.672   2.451   6.173  0.5231 -0.1210 -0.6988
   19MOL0     C 2506  12.691   2.321   6.248  1.1153  0.7122  0.1172
   19MOL0     C 2507  12.561   2.236   6.228  0.3003 -0.9153  0.0103
   19MOL0     O 2508  12.454   2.318   6.279 -0.0222 -0.3960 -0.0580
   19MOL0     C 2509  12.325   2.296   6.247 -0.1689 -0.9894  0.4499
   19MOL0     C 2510  12.281   2.191   6.165 -0.5466  0.4815  0.1149
   19MOL0     C 2511  12.156   2.184   6.118 -0.0223 -0.0406 -0.8879
   19MOL0     C 2512  12.099   2.062   6.043 -0.2787  0.6754  0.1520
   19MOL0     C 2513  12.065   2.290   6.147 -0.6579 -0.3750 -0.7962
   19MOL0     C 2514  11.927   2.289   6.105 -0.2346 -0.4858 -0.6349
   19MOL0     O 2515  11.834   2.294   6.201  0.0009 -0.0338 -0.3064
   19MOL0     C 2516  11.704   2.321   6.167  0.1118 -0.4493 -0.8093
   19MOL0     C 2517  11.614   2.216   6.166 -0.4295  0.2921  0.3984
   19MOL0     C 2518  11.479   2.246   6.142  0.5420 -0.0654  0.0419
   19MOL0     C 2519  11.436   2.377   6.127  0.5110  0.2338  0.3366
   19MOL0     O 2520  11.312   2.423   6.096  0.1802 -0.6596  0.3995
   19MOL0     C 2521  11.215   2.318   6.076  0.5593 -0.1069 -0.3987
   19MOL0     C 2522  11.067   2.363   6.058 -1.7922  0.1232  0.1309
   19MOL0     C 2523  11.041   2.482   6.162  0.2152  0.2872 -0.5583
   19MOL0     C 2524  10.884   2.513   6.154 -0.3505 -0.0403  0.4027
   19MOL0     C 2525  10.852   2.652   6.211  1.1717 -0.1237 -0.5712
   19MOL0     C 2526  10.698   2.678   6.185  0.7503  0.2149  1.2208
   19MOL0     C 2527  10.610   2.634   6.299 -0.6300  0.4804 -0.0306
   19MOL0     C 2528  10.461   2.625   6.270  0.8722 -0.2600  0.4556
   19MOL0    Cl 2529  10.458   2.478   6.177  0.2674  0.1960 -0.0064
   19MOL0     C 2530  11.524   2.477   6.126 -0.1027 -0.1120  0.0971
   19MOL0     C 2531  11.658   2.454   6.145 -1.1052 -0.3702  0.5448
   19MOL0     O 2532  11.904   2.292   5.988 -0.1226  0.2025  0.1254
   19MOL0     C 2533  12.109   2.394   6.227  0.2837 -0.6989 -0.3017
   19MOL0     C 2534  12.242   2.397   6.274  0.6723 -0.3500 -0.4822
   19MOL0     N 2535  12.874   2.787   6.106 -0.1044  1.2818  0.4834
   19MOL0     N 2536  12.820   2.877   6.038  0.4927  0.6014  0.1131
   19MOL0     C 2537  11.559   2.753   5.726  0.4227 -0.4108  0.5828
   19MOL0     C 2538  11.450   2.661   5.715  0.1565  0.4535 -0.4019
   19MOL0     C 2539  11.068   2.491   5.514 -0.4386 -0.2514  0.5401
   19MOL0     C 2540  11.096   2.423   5.393  0.6640  0.0239  0.2606
   19MOL0     C 2541  10.991   2.342   5.330 -0.4808  0.2395 -0.7172
   19MOL0     C 2542  10.864   2.334   5.390  0.1789 -0.6801  0.7075
   19MOL0     O 2543  10.771   2.265   5.307 -0.2550 -0.7655 -0.3062
   19MOL0     C 2544  10.635   2.266   5.355  0.4322  0.3358 -0.0104
   19MOL0     C 2545  10.565   2.398   5.327  0.2221 -0.0160  0.6324
   19MOL0     C 2546  10.427   2.408   5.402  0.1163 -0.0692 -0.3700
   19MOL0     C 2547  10.364   2.552   5.400  0.1654  0.1013  0.1693
   19MOL0     C 2548  10.235   2.553   5.467 -0.1453 -0.1658  0.0745
   19MOL0     C 2549  10.126   2.547   5.526 -0.0550 -0.2817  0.2682
   19MOL0     C 2550  10.836   2.408   5.507  0.2286 -0.2236 -0.8913
   19MOL0     C 2551  10.935   2.486   5.569 -0.0779 -0.7769  0.7064
   19MOL0     C 2552  10.897   2.571   5.694  0.2456 -0.5242  0.2073
   19MOL0     H 2553  11.409   2.665   5.387  0.5698  0.3123 -0.4409
   19MOL0     H 2554  11.599   2.837   5.398 -0.9555  2.6867  0.8160
   19MOL0     H 2555  11.871   2.778   5.608  0.5329  2.3000 -1.8595
   19MOL0     H 2556  11.810   2.819   5.782 -0.0329  0.5697  0.2809
   19MOL0     H 2557  11.971   2.980   5.588 -5.3066 -1.8945 -2.6251
   19MOL0     H 2558  11.922   3.046   5.742  2.6086  0.5268 -0.9623
   19MOL0     H 2559  12.053   2.820   5.833  1.7027  0.9737  0.3413
   19MOL0     H 2560  12.126   2.827   5.680  0.7029  0.6118  0.2390
   19MOL0     H 2561  12.205   3.065   5.727 -2.1760  1.3610  0.4239
   19MOL0     H 2562  12.129   3.062   5.882  1.6494  1.5820 -0.2314
   19MOL0     H 2563  12.346   2.869   5.792 -0.3174 -0.0798 -0.2852
   19MOL0     H 2564  12.274   2.863   5.945  1.3816  0.1799  0.0736
   19MOL0     H 2565  12.438   3.101   5.832 -0.3390  2.7722  1.1527
   19MOL0     H 2566  12.342   3.111   5.984 -0.6050  0.6654 -0.9155
   19MOL0     H 2567  12.457   2.911   6.070  2.4356 -0.4712  1.4367
   19MOL0     H 2568  12.552   3.061   6.059  1.2467 -1.4027  0.2901
   19MOL0     H 2569  12.562   2.841   5.841 -0.8376 -0.0168  0.4112
   19MOL0     H 2570  12.667   2.986   5.869 -0.6889  1.5665  0.5894
   19MOL0     H 2571  12.600   2.635   6.000  0.5355 -0.2146 -1.9425
   19MOL0     H 2572  12.842   2.546   6.270  2.1203 -0.9316 -0.3179
   19MOL0     H 2573  12.860   2.475   6.105 -0.4457  2.4281 -1.4911
   19MOL0     H 2574  12.602   2.519   6.222 -1.9897 -1.8682 -1.6512
   19MOL0     H 2575  12.631   2.426   6.075  0.0588  2.0210 -1.1062
   19MOL0     H 2576  12.759   2.255   6.194 -2.9791 -1.6445 -2.6951
   19MOL0     H 2577  12.713   2.345   6.353  1.1953  0.5404  0.1391
   19MOL0     H 2578  12.542   2.212   6.123 -0.2621  0.4485 -0.2178
   19MOL0     H 2579  12.567   2.141   6.281  1.2881  0.6644  2.9407
   19MOL0     H 2580  12.336   2.098   6.155 -1.1290  0.0665  0.6280
   19MOL0     H 2581  12.003   2.028   6.082  0.0279  1.2227  1.4723
   19MOL0     H 2582  12.172   1.982   6.031 -1.7108 -1.0011  1.9008
   19MOL0     H 2583  12.071   2.088   5.941 -2.9563 -2.1008  0.0412
   19MOL0     H 2584  11.650   2.115   6.183  0.1902  0.0815 -1.8517
   19MOL0     H 2585  11.418   2.156   6.150  0.4110  0.0068 -0.1513
   19MOL0     H 2586  11.248   2.263   5.988  0.8014  0.6248 -0.7811
   19MOL0     H 2587  11.223   2.250   6.162  3.2231 -1.6636 -1.7434
   19MOL0     H 2588  11.065   2.410   5.959  1.1861  5.6349  2.2234
   19MOL0     H 2589  10.993   2.282   6.057 -0.2433 -1.4276 -2.2772
   19MOL0     H 2590  11.102   2.568   6.136  2.7381 -0.7394  1.5466
   19MOL0     H 2591  11.064   2.465   6.267  0.3365  1.0816 -0.4498
   19MOL0     H 2592  10.818   2.444   6.207 -2.7228  2.3534  0.7844
   19MOL0     H 2593  10.851   2.509   6.050  2.6292  1.2490 -0.7063
   19MOL0     H 2594  10.869   2.651   6.319 -1.3992 -2.5404 -0.0574
   19MOL0     H 2595  10.915   2.732   6.172  1.9537  0.5471  1.9026
   19MOL0     H 2596  10.668   2.625   6.094  0.9799 -1.6729  2.2067
   19MOL0     H 2597  10.687   2.787   6.185  0.3530  0.1866  0.1759
   19MOL0     H 2598  10.619   2.710   6.377 -0.1391  0.6054 -0.2111
   19MOL0     H 2599  10.643   2.537   6.339 -3.1978  0.5741  2.6594
   19MOL0     H 2600  10.416   2.710   6.218  1.8106  1.7313  2.7234
   19MOL0     H 2601  10.402   2.599   6.358  0.8615 -1.2619  0.1654
   19MOL0     H 2602  11.496   2.578   6.096  2.3311  0.1721 -1.4512
   19MOL0     H 2603  11.728   2.535   6.130 -3.5736  1.8468  0.1879
   19MOL0     H 2604  12.030   2.467   6.242 -0.4398 -1.4449 -0.3612
   19MOL0     H 2605  12.269   2.481   6.337  1.4458 -1.5060  0.7683
   19MOL0     H 2606  11.593   2.777   5.826 -1.0032 -2.7391  1.7326
   19MOL0     H 2607  11.422   2.619   5.811 -2.1267  1.8839 -0.3843
   19MOL0     H 2608  11.193   2.443   5.347  0.2981  0.1414 -0.4651
   19MOL0     H 2609  11.022   2.274   5.252  4.2741 -0.2188  1.1783
   19MOL0     H 2610  10.582   2.187   5.302  0.0284 -0.3520  1.3734
   19MOL0     H 2611  10.636   2.244   5.462  0.9328 -1.2111 -0.3129
   19MOL0     H 2612  10.552   2.409   5.219  1.2171  1.0517  0.6036
   19MOL0     H 2613  10.632   2.481   5.349  2.0416 -0.4191 -2.7219
   19MOL0     H 2614  10.349   2.342   5.361  2.3263 -2.1932 -1.4644
   19MOL0     H 2615  10.444   2.380   5.506 -2.3260  1.2916  0.4792
   19MOL0     H 2616  10.334   2.559   5.294  0.5881 -1.8777 -0.1198
   19MOL0     H 2617  10.432   2.634   5.423 -1.8754  1.6139  1.0413
   19MOL0     H 2618  10.031   2.536   5.573 -0.2370 -3.6325 -0.6663
   19MOL0     H 2619  10.734   2.408   5.546  0.9841 -2.2382  1.3636
   19MOL0     H 2620  10.803   2.535   5.735 -0.3434  1.8044  1.0604
   19MOL0     H 2621  10.972   2.560   5.773 -0.0179 -1.2463  0.3610
   19MOL0     H 2622  10.878   2.676   5.668 -1.9440 -0.9584 -0.0949
   20MOL0     O 2623   7.213   5.178   4.126 -0.0894 -0.1078 -0.0679
   20MOL0     C 2624   7.175   5.199   4.238  0.6158 -0.0230  0.1506
   20MOL0     O 2625   7.246   5.167   4.350 -0.2829  0.9864 -0.7470
   20MOL0     C 2626   7.379   5.140   4.363 -0.7194  0.5149 -0.2192
   20MOL0     C 2627   7.421   5.101   4.489  0.0143  0.2786 -0.6868
   20MOL0     C 2628   7.564   5.084   4.519 -0.3197 -0.2035  0.1936
   20MOL0     C 2629   7.662   5.092   4.414  0.0757  0.4860 -1.0300
   20MOL0     O 2630   7.792   5.051   4.446 -0.7088 -0.0532  0.5290
   20MOL0     C 2631   7.859   5.158   4.521  0.2562  0.6999  0.0047
   20MOL0     C 2632   8.010   5.140   4.518  0.3941  0.4355 -0.7248
   20MOL0     C 2633   8.062   4.997   4.555  1.0703  0.0058 -0.4171
   20MOL0     C 2634   7.986   4.925   4.663  0.3317 -0.2848  0.0187
   20MOL0     C 2635   8.055   4.797   4.714  1.0081 -0.0519  0.6387
   20MOL0     C 2636   8.033   4.683   4.615 -0.7227  1.6504 -0.6243
   20MOL0     C 2637   8.049   4.547   4.690 -0.8938 -0.5359 -0.4024
   20MOL0     C 2638   8.195   4.534   4.754 -0.0959 -0.1292 -0.6574
   20MOL0     N 2639   8.291   4.504   4.644  0.7609  0.3362 -0.1598
   20MOL0     C 2640   8.371   4.596   4.576  0.3880  0.8402  0.1187
   20MOL0     C 2641   8.437   4.518   4.487  0.5780  0.6422  0.2095
   20MOL0     C 2642   8.529   4.574   4.385  0.5825  0.5705 -0.3587
   20MOL0     C 2643   8.677   4.595   4.447  0.4191  0.4201 -0.5341
   20MOL0     C 2644   8.723   4.453   4.490 -0.5767  0.0949 -0.4379
   20MOL0     C 2645   8.868   4.436   4.520  0.0316  0.1068 -0.9458
   20MOL0     O 2646   8.952   4.455   4.405  0.2775 -0.7490  0.0364
   20MOL0     C 2647   9.083   4.443   4.416 -0.4533  1.2271 -0.9502
   20MOL0     C 2648   9.164   4.484   4.314 -0.4756 -0.5197  0.0403
   20MOL0     C 2649   9.306   4.492   4.318  0.7077  0.5388 -0.6984
   20MOL0     C 2650   9.394   4.529   4.203 -0.0997 -1.4243 -0.6613
   20MOL0     C 2651   9.368   4.459   4.450  0.0891  0.1774  0.2875
   20MOL0     C 2652   9.510   4.467   4.475  0.0921 -0.0237 -0.7889
   20MOL0     O 2653   9.601   4.448   4.375  0.2595  0.2403 -1.0068
   20MOL0     C 2654   9.733   4.442   4.401  0.2246  0.0751 -0.7110
   20MOL0     C 2655   9.817   4.513   4.310  0.1644 -0.0596  0.2547
   20MOL0     C 2656   9.951   4.528   4.346 -1.3674  0.4659  0.1445
   20MOL0     C 2657  10.011   4.461   4.452 -0.2985 -0.2327  0.8065
   20MOL0     O 2658  10.140   4.498   4.487 -0.7785 -0.0629 -0.6078
   20MOL0     C 2659  10.181   4.463   4.622  0.5709  0.1104 -0.0858
   20MOL0     C 2660  10.322   4.520   4.647 -0.2007  0.5647 -0.3606
   20MOL0     C 2661  10.420   4.429   4.570 -0.0065 -0.9321 -0.4588
   20MOL0     C 2662  10.562   4.474   4.606  0.4032  0.5967 -0.3784
   20MOL0     C 2663  10.672   4.386   4.544 -0.7399  0.1642  0.0652
   20MOL0     C 2664  10.802   4.438   4.617 -0.4601 -0.7630  0.0287
   20MOL0     C 2665  10.927   4.373   4.570  0.6545  0.1610 -0.5522
   20MOL0     C 2666  11.041   4.454   4.626  0.0731 -0.0024 -0.0846
   20MOL0    Cl 2667  11.067   4.608   4.525 -0.1602  0.3330 -0.2297
   20MOL0     C 2668   9.933   4.376   4.526  0.1748 -0.4972 -0.4102
   20MOL0     C 2669   9.792   4.365   4.501  0.5394  0.0762 -0.6063
   20MOL0     O 2670   9.543   4.488   4.593  0.3394 -0.6303  0.0463
   20MOL0     C 2671   9.285   4.418   4.554 -0.2129  0.0606  0.0034
   20MOL0     C 2672   9.150   4.413   4.536  0.7071 -0.0616 -0.6432
   20MOL0     N 2673   8.413   4.387   4.509 -0.3402  1.2565 -0.1461
   20MOL0     N 2674   8.326   4.375   4.602  0.1273 -0.2509  0.1929
   20MOL0     C 2675   7.618   5.137   4.289 -0.5284  0.5847  0.7482
   20MOL0     C 2676   7.482   5.158   4.264  0.3655 -0.3264  0.4580
   20MOL0     C 2677   7.057   5.279   4.261 -0.4175 -0.1745 -0.0156
   20MOL0     C 2678   7.034   5.341   4.389  0.6094 -0.0839  0.0900
   20MOL0     C 2679   6.918   5.421   4.413 -0.0292 -0.2867  0.5751
   20MOL0     C 2680   6.839   5.454   4.309  0.2766  0.2303  0.2442
   20MOL0     O 2681   6.744   5.547   4.331  0.0308 -0.4498  0.7570
   20MOL0     C 2682   6.642   5.573   4.227 -0.2466 -0.6211  0.0527
   20MOL0     C 2683   6.533   5.655   4.291 -0.1574 -0.7582 -0.5211
   20MOL0     C 2684   6.432   5.728   4.199 -0.0275  0.8442 -0.1330
   20MOL0     C 2685   6.356   5.830   4.279  0.7409 -0.4328  0.0726
   20MOL0     C 2686   6.261   5.895   4.182 -0.7194  0.2335  0.4845
   20MOL0     C 2687   6.177   5.928   4.099 -0.0864 -1.1568  0.2240
   20MOL0     C 2688   6.860   5.400   4.180 -0.5373 -1.2727 -0.3283
   20MOL0     C 2689   6.956   5.303   4.163 -0.4170 -0.2109 -0.5937
   20MOL0     C 2690   6.949   5.240   4.029  0.3066  0.1727  0.2981
   20MOL0     H 2691   7.349   5.076   4.567  2.6301  0.0701  1.8612
   20MOL0     H 2692   7.595   5.046   4.616  0.5605  0.4185  0.1644
   20MOL0     H 2693   7.823   5.154   4.624 -2.6399 -1.4904 -0.9459
   20MOL0     H 2694   7.836   5.256   4.478  4.0952  0.9269 -1.9493
   20MOL0     H 2695   8.049   5.167   4.419 -0.9752  3.5584 -0.5364
   20MOL0     H 2696   8.045   5.211   4.593  2.0688 -0.3834 -0.6751
   20MOL0     H 2697   8.066   4.933   4.466  1.7403  2.2635 -2.1116
   20MOL0     H 2698   8.167   4.995   4.587  1.0280  1.0764 -0.1522
   20MOL0     H 2699   7.967   4.989   4.750 -2.6430 -0.6857 -0.2145
   20MOL0     H 2700   7.883   4.895   4.639  0.2909  0.5960 -0.9988
   20MOL0     H 2701   8.022   4.766   4.814 -0.7616  0.5438  0.2824
   20MOL0     H 2702   8.162   4.816   4.725  0.8907  1.1227 -0.0806
   20MOL0     H 2703   7.930   4.681   4.579 -0.8219 -1.4842 -0.4647
   20MOL0     H 2704   8.093   4.682   4.524 -2.7008 -1.6324 -2.0940
   20MOL0     H 2705   8.043   4.468   4.615 -2.3047 -0.3447 -0.5067
   20MOL0     H 2706   7.975   4.543   4.770 -1.1851 -0.5224 -0.6715
   20MOL0     H 2707   8.211   4.626   4.810 -2.9430 -0.0443  0.1923
   20MOL0     H 2708   8.192   4.462   4.836  1.4210  0.4320 -0.0903
   20MOL0     H 2709   8.387   4.703   4.587 -1.5977  1.1932 -0.0265
   20MOL0     H 2710   8.477   4.667   4.360 -1.8385 -0.8221 -0.8351
   20MOL0     H 2711   8.551   4.516   4.295  2.2496  1.1324 -0.3576
   20MOL0     H 2712   8.735   4.652   4.375 -0.5187 -0.3189 -1.9370
   20MOL0     H 2713   8.664   4.660   4.533  1.7812 -2.0565  1.6867
   20MOL0     H 2714   8.671   4.430   4.583  0.0979 -0.6395 -0.2373
   20MOL0     H 2715   8.688   4.390   4.407 -0.0330 -0.7767 -0.0200
   20MOL0     H 2716   8.901   4.500   4.603  0.2821 -0.4306 -0.6218
   20MOL0     H 2717   8.883   4.333   4.554 -1.5777  0.3545  0.6842
   20MOL0     H 2718   9.111   4.518   4.226 -0.5082  0.7704  0.5438
   20MOL0     H 2719   9.330   4.562   4.121 -3.2532 -1.8971  1.4197
   20MOL0     H 2720   9.453   4.442   4.172 -0.3391 -1.9066  0.2009
   20MOL0     H 2721   9.463   4.609   4.230 -0.6726 -0.3647 -2.2327
   20MOL0     H 2722   9.781   4.576   4.229 -3.3844 -0.8380  1.0617
   20MOL0     H 2723  10.004   4.591   4.275  0.9155 -0.7742  0.6698
   20MOL0     H 2724  10.118   4.506   4.701  0.6230 -0.7968  0.4619
   20MOL0     H 2725  10.182   4.355   4.635 -0.9857  0.3101  2.4847
   20MOL0     H 2726  10.339   4.625   4.620  4.7116  0.4823  1.3339
   20MOL0     H 2727  10.349   4.515   4.753  1.5940  1.7737 -0.7133
   20MOL0     H 2728  10.410   4.442   4.462  0.8872  2.2236 -0.2583
   20MOL0     H 2729  10.399   4.326   4.600 -1.5928 -0.0419  1.8057
   20MOL0     H 2730  10.566   4.473   4.715 -2.8628 -0.2341 -0.1495
   20MOL0     H 2731  10.579   4.579   4.578 -0.4326  0.6560 -0.7087
   20MOL0     H 2732  10.647   4.286   4.580 -0.5798 -0.8624 -2.5165
   20MOL0     H 2733  10.666   4.403   4.436 -0.7237  3.2924  0.4585
   20MOL0     H 2734  10.803   4.426   4.726  1.4187  3.4430  0.6627
   20MOL0     H 2735  10.806   4.545   4.597  1.1544 -0.6318  0.8787
   20MOL0     H 2736  10.918   4.367   4.461 -1.8968 -1.9683 -0.3115
   20MOL0     H 2737  10.926   4.269   4.601 -1.6678 -0.1701 -1.5196
   20MOL0     H 2738  11.136   4.402   4.643  0.1857  0.0088 -0.6786
   20MOL0     H 2739  11.010   4.485   4.726 -1.0438  1.4062 -0.8370
   20MOL0     H 2740   9.971   4.323   4.613 -0.2614 -1.4470 -0.7795
   20MOL0     H 2741   9.731   4.313   4.574  1.5376  2.2169  1.9153
   20MOL0     H 2742   9.325   4.387   4.650  2.5243 -0.4891 -1.2245
   20MOL0     H 2743   9.091   4.382   4.621  0.0492  0.9888 -0.6982
   20MOL0     H 2744   7.689   5.136   4.207  1.1324 -1.1326  2.1200
   20MOL0     H 2745   7.442   5.175   4.165  1.3974 -0.5000 -0.0026
   20MOL0     H 2746   7.105   5.318   4.467 -0.3854 -1.0216  0.7478
   20MOL0     H 2747   6.916   5.463   4.513  3.0261  0.3201  0.4795
   20MOL0     H 2748   6.695   5.632   4.152  1.1541 -1.3978  0.3824
   20MOL0     H 2749   6.600   5.482   4.185  0.0297 -1.9899  2.5278
   20MOL0     H 2750   6.579   5.734   4.352  2.4843 -1.1806 -1.8288
   20MOL0     H 2751   6.483   5.585   4.358 -0.1813  2.3865  3.1336
   20MOL0     H 2752   6.498   5.777   4.127 -0.1647  0.7611 -0.3152
   20MOL0     H 2753   6.366   5.656   4.150  1.8801 -1.1581  0.1183
   20MOL0     H 2754   6.428   5.904   4.315 -1.2774  0.6033  2.3057
   20MOL0     H 2755   6.308   5.781   4.364  0.7153  2.3835  1.8302
   20MOL0     H 2756   6.104   5.942   4.022 -0.7197  0.5333  1.0813
   20MOL0     H 2757   6.807   5.438   4.093  3.4317  1.0178 -1.9995
   20MOL0     H 2758   6.961   5.134   4.049  3.7515  0.9753  3.6343
   20MOL0     H 2759   6.850   5.250   3.983 -0.4303 -3.3810  0.8483
   20MOL0     H 2760   7.035   5.273   3.970  1.6142 -0.4497  1.8029
   21MOL0     O 2761   0.310   9.944  11.267  0.2100  0.1116 -0.2625
   21MOL0     C 2762   0.286  10.020  11.182 -0.3700 -0.1706  0.4957
   21MOL0     O 2763   0.375  10.075  11.091  0.4574 -0.3717 -0.5377
   21MOL0     C 2764   0.509  10.040  11.111 -0.3449 -0.1771  0.2034
   21MOL0     C 2765   0.582   9.964  11.021  0.6453 -0.3421  0.7739
   21MOL0     C 2766   0.720   9.947  11.035  1.0619 -0.1129  0.2589
   21MOL0     C 2767   0.778   9.967  11.158 -0.1407 -0.4482  0.3459
   21MOL0     O 2768   0.905   9.920  11.188  0.2573  1.2092 -0.4098
   21MOL0     C 2769   0.903   9.779  11.199  0.1056  0.3021  0.2718
   21MOL0     C 2770   1.044   9.727  11.181  0.0708  0.2249  0.3995
   21MOL0     C 2771   1.113   9.782  11.058 -0.3259 -0.1577  0.5306
   21MOL0     C 2772   1.177   9.918  11.066  0.0524  0.0601 -0.0119
   21MOL0     C 2773   1.229   9.989  10.940 -0.3472  0.9048 -0.1850
   21MOL0     C 2774   1.113  10.033  10.845 -0.9680 -0.5635  0.0111
   21MOL0     C 2775   1.159  10.148  10.759  0.1621 -0.5459 -0.4441
   21MOL0     C 2776   1.059  10.204  10.652 -0.0812 -0.3900 -0.4077
   21MOL0     N 2777   0.945  10.272  10.720  0.3521  0.3335 -0.0065
   21MOL0     C 2778   0.822  10.213  10.744 -0.7282 -0.8419  0.3534
   21MOL0     C 2779   0.739  10.311  10.791 -0.6010 -0.0974 -0.3574
   21MOL0     C 2780   0.601  10.295  10.853 -0.6983 -0.2483 -0.8274
   21MOL0     C 2781   0.502  10.370  10.770  0.0231 -0.9341  0.1592
   21MOL0     C 2782   0.353  10.343  10.818  0.1121 -0.1082 -0.1821
   21MOL0     C 2783   0.268  10.453  10.751  0.2896  0.7236 -1.3724
   21MOL0     O 2784   0.142  10.485  10.817 -0.5028  0.2371 -0.2001
   21MOL0     C 2785   0.018  10.448  10.785  0.1180 -0.3558 -0.6418
   21MOL0     C 2786  -0.006  10.347  10.693  0.4328  0.1135 -0.3722
   21MOL0     C 2787  -0.130  10.316  10.640 -0.5970  0.1587 -0.7589
   21MOL0     C 2788  -0.121  10.206  10.542 -0.4964 -0.8201 -0.1213
   21MOL0     C 2789  -0.244  10.392  10.689  0.6243  0.0642  0.2795
   21MOL0     C 2790  -0.374  10.369  10.633  1.0555 -0.3626 -0.3300
   21MOL0     O 2791  -0.476  10.436  10.683  0.3006  0.4110 -0.1542
   21MOL0     C 2792  -0.606  10.391  10.665  0.3345 -0.4699 -0.1940
   21MOL0     C 2793  -0.703  10.485  10.627 -0.5605 -0.5968  0.7536
   21MOL0     C 2794  -0.840  10.455  10.608  0.3021  0.1291  0.8628
   21MOL0     C 2795  -0.886  10.331  10.630 -0.5841 -0.4259  0.8264
   21MOL0     O 2796  -1.015  10.296  10.616 -0.0374  0.1887 -0.6050
   21MOL0     C 2797  -1.110  10.382  10.554 -0.2583  0.5039 -0.2582
   21MOL0     C 2798  -1.242  10.315  10.531 -0.0177 -1.0365  0.1355
   21MOL0     C 2799  -1.237  10.188  10.449  0.2187  0.7230  0.3526
   21MOL0     C 2800  -1.332  10.090  10.508 -0.2250  0.2366 -0.5581
   21MOL0     C 2801  -1.350   9.965  10.425 -0.2932 -0.0647  0.2313
   21MOL0     C 2802  -1.448   9.981  10.310 -0.1220 -0.0773 -0.4034
   21MOL0     C 2803  -1.466   9.848  10.235  0.2712 -0.0357  0.0631
   21MOL0     C 2804  -1.594   9.848  10.147  0.3382 -0.3327 -0.1966
   21MOL0    Cl 2805  -1.588   9.699  10.042  0.1115 -0.5821 -0.0704
   21MOL0     C 2806  -0.795  10.237  10.666 -0.6440  0.4350  0.1077
   21MOL0     C 2807  -0.658  10.260  10.685 -0.0092  0.1057 -0.5389
   21MOL0     O 2808  -0.390  10.287  10.536 -0.4449  0.2765 -0.2016
   21MOL0     C 2809  -0.225  10.471  10.801  0.4638 -1.1626 -0.1271
   21MOL0     C 2810  -0.099  10.503  10.848  0.2929  0.6647 -0.9864
   21MOL0     N 2811   0.812  10.431  10.781 -0.2668 -0.3763 -0.6937
   21MOL0     N 2812   0.925  10.403  10.732 -1.0002 -0.3276 -0.1722
   21MOL0     C 2813   0.714  10.035  11.251  0.5280  0.5297  0.1208
   21MOL0     C 2814   0.582  10.083  11.220  0.2794 -0.5741 -0.0112
   21MOL0     C 2815   0.152  10.068  11.183 -0.9453  0.1381 -0.2920
   21MOL0     C 2816   0.122  10.198  11.138 -1.3685  0.8489  0.3058
   21MOL0     C 2817  -0.012  10.241  11.135 -0.5359  0.2438  0.0608
   21MOL0     C 2818  -0.115  10.167  11.182  0.7307  0.5588 -0.0582
   21MOL0     O 2819  -0.243  10.222  11.174  0.3717  0.6275  0.1942
   21MOL0     C 2820  -0.361  10.153  11.222 -0.4306  0.1874  0.4029
   21MOL0     C 2821  -0.473  10.255  11.225  0.4427 -0.1011  0.2464
   21MOL0     C 2822  -0.530  10.284  11.084  0.4831  0.4752  0.8612
   21MOL0     C 2823  -0.591  10.425  11.073  0.9651  0.3953  0.2939
   21MOL0     C 2824  -0.716  10.446  11.160  0.3255  0.5805  0.1436
   21MOL0     C 2825  -0.810  10.477  11.224 -0.0947 -0.7976  0.6302
   21MOL0     C 2826  -0.088  10.045  11.223 -0.5093  0.4865 -0.6104
   21MOL0     C 2827   0.041   9.988  11.226  0.4351 -0.2351 -0.8150
   21MOL0     C 2828   0.051   9.836  11.258 -0.0844 -0.3516  0.1192
   21MOL0     H 2829   0.528   9.915  10.941 -1.4278 -1.5190  2.7765
   21MOL0     H 2830   0.778   9.893  10.960 -0.2463  0.1086 -0.9546
   21MOL0     H 2831   0.830   9.723  11.140  2.5336 -0.7078 -1.9457
   21MOL0     H 2832   0.871   9.763  11.303 -1.3666  1.7587  0.0942
   21MOL0     H 2833   1.100   9.743  11.274 -0.4853  2.3658  0.4072
   21MOL0     H 2834   1.046   9.618  11.174 -0.1682  0.1522  1.3201
   21MOL0     H 2835   1.190   9.710  11.028  0.5725  0.7970  0.4802
   21MOL0     H 2836   1.041   9.799  10.978 -0.7912 -1.8658  0.5402
   21MOL0     H 2837   1.110   9.993  11.108  0.2089 -0.1426  0.6098
   21MOL0     H 2838   1.263   9.909  11.133 -0.1108  0.4540  0.2564
   21MOL0     H 2839   1.295   9.916  10.891 -2.0406 -1.3085  0.6387
   21MOL0     H 2840   1.273  10.081  10.977  0.0109  0.6946 -0.0863
   21MOL0     H 2841   1.086   9.950  10.778  1.2224 -0.6261 -0.8843
   21MOL0     H 2842   1.018  10.064  10.889 -1.5619  0.2406 -1.7363
   21MOL0     H 2843   1.249  10.117  10.705  0.3803  0.0961 -0.4610
   21MOL0     H 2844   1.186  10.240  10.813 -2.1049  1.2408 -2.1401
   21MOL0     H 2845   1.118  10.270  10.587  0.9856 -0.9732 -0.0546
   21MOL0     H 2846   1.019  10.129  10.584  1.7225  1.8251 -4.2504
   21MOL0     H 2847   0.797  10.108  10.741  2.9953 -1.8509 -0.2698
   21MOL0     H 2848   0.610  10.331  10.956  1.1438  5.4534 -2.6191
   21MOL0     H 2849   0.583  10.187  10.847  1.2622 -0.5750 -1.9994
   21MOL0     H 2850   0.536  10.474  10.776  0.8657 -1.0514 -1.8535
   21MOL0     H 2851   0.500  10.336  10.666 -0.1430 -2.0038  0.4945
   21MOL0     H 2852   0.323  10.247  10.776 -0.6972  0.1161 -0.1211
   21MOL0     H 2853   0.339  10.349  10.926 -0.8623 -0.1422 -0.3038
   21MOL0     H 2854   0.317  10.549  10.734 -0.3523  1.2393 -0.3702
   21MOL0     H 2855   0.242  10.424  10.648  0.3318  0.3099 -1.2704
   21MOL0     H 2856   0.083  10.289  10.671 -0.2890 -2.7084  3.1098
   21MOL0     H 2857  -0.142  10.241  10.440 -0.7632  1.1337  0.5594
   21MOL0     H 2858  -0.203  10.136  10.559 -1.7082  0.2012 -1.5086
   21MOL0     H 2859  -0.029  10.147  10.538 -0.3467 -0.5270 -2.9424
   21MOL0     H 2860  -0.677  10.590  10.621 -2.5133 -0.0791  0.6495
   21MOL0     H 2861  -0.900  10.532  10.561  3.5974  1.2542 -1.9678
   21MOL0     H 2862  -1.128  10.466  10.623 -0.3192  0.7077 -0.5211
   21MOL0     H 2863  -1.066  10.418  10.461  1.9948 -1.0949  0.1035
   21MOL0     H 2864  -1.283  10.301  10.632 -1.4866 -1.0699 -0.4304
   21MOL0     H 2865  -1.313  10.389  10.493  2.0349  1.1114  0.2650
   21MOL0     H 2866  -1.136  10.145  10.455 -0.7823 -1.6239  1.8719
   21MOL0     H 2867  -1.261  10.213  10.345  0.6994  1.6367  0.4543
   21MOL0     H 2868  -1.434  10.131  10.512  1.0469  3.7504 -0.1953
   21MOL0     H 2869  -1.295  10.058  10.605  1.7936  0.3411 -1.2467
   21MOL0     H 2870  -1.249   9.942  10.389 -0.0531 -0.7497  1.3221
   21MOL0     H 2871  -1.395   9.893  10.493 -0.9206 -0.9905 -1.1301
   21MOL0     H 2872  -1.418  10.057  10.238  2.9327  0.7424  1.5205
   21MOL0     H 2873  -1.547  10.001  10.353 -0.3142 -1.3715 -0.2013
   21MOL0     H 2874  -1.467   9.775  10.317  1.0965  1.7692  1.7642
   21MOL0     H 2875  -1.382   9.811  10.175  1.3633 -2.8223  3.0124
   21MOL0     H 2876  -1.597   9.938  10.085  3.6227  0.0746  0.0319
   21MOL0     H 2877  -1.687   9.852  10.205 -0.1331 -0.7670 -0.9155
   21MOL0     H 2878  -0.832  10.136  10.676  0.1143  0.3223  2.3010
   21MOL0     H 2879  -0.595  10.174  10.709 -0.6279 -0.4425 -0.8667
   21MOL0     H 2880  -0.305  10.513  10.861  0.5588 -1.6841  0.3792
   21MOL0     H 2881  -0.067  10.560  10.935  2.0422 -1.0588 -0.4248
   21MOL0     H 2882   0.761  10.033  11.348  1.0092  0.2322 -0.1150
   21MOL0     H 2883   0.528  10.134  11.299 -0.1621  0.5283 -0.9969
   21MOL0     H 2884   0.201  10.258  11.095 -0.7506 -1.5273 -2.2419
   21MOL0     H 2885  -0.039  10.342  11.106 -2.0571  0.5875  2.3874
   21MOL0     H 2886  -0.392  10.070  11.159 -0.4976 -0.7345  1.6174
   21MOL0     H 2887  -0.333  10.110  11.319  0.0569 -0.2529  0.0683
   21MOL0     H 2888  -0.438  10.348  11.270  0.3409 -0.3612  0.8662
   21MOL0     H 2889  -0.552  10.213  11.288 -0.1876  0.5311 -0.1112
   21MOL0     H 2890  -0.456  10.284  11.003  0.9167 -2.7467  1.1226
   21MOL0     H 2891  -0.617  10.222  11.060  0.3912  0.5130  1.1012
   21MOL0     H 2892  -0.608  10.447  10.967 -1.5755 -0.6641  0.4190
   21MOL0     H 2893  -0.511  10.493  11.103  3.4279 -2.4095  0.5373
   21MOL0     H 2894  -0.893  10.500  11.288 -1.2703  0.3195 -1.2182
   21MOL0     H 2895  -0.174   9.984  11.248 -1.5340  2.6666  1.5978
   21MOL0     H 2896   0.100   9.795  11.169 -3.8035  0.5612 -2.5787
   21MOL0     H 2897   0.106   9.816  11.351 -1.5806  0.5728  1.2592
   21MOL0     H 2898  -0.051   9.797  11.265 -0.4560  0.4443 -0.6788
   22MOL0     O 2899   0.043   5.951   1.163  0.1715 -0.4756  0.9382
   22MOL0     C 2900  -0.008   6.062   1.166 -0.1945 -0.4319 -1.3111
   22MOL0     O 2901   0.065   6.179   1.164  0.0013 -0.6084  0.0249
   22MOL0     C 2902   0.191   6.181   1.121 -0.6561 -0.6311  0.2927
   22MOL0     C 2903   0.287   6.083   1.166  0.0579 -1.1733 -0.1937
   22MOL0     C 2904   0.416   6.092   1.116 -0.5301 -0.0816  0.5582
   22MOL0     C 2905   0.465   6.200   1.036  0.3663  0.4104  0.3053
   22MOL0     O 2906   0.597   6.213   1.004  0.7432 -0.4802  0.4443
   22MOL0     C 2907   0.691   6.121   1.049  0.0490 -0.3925 -0.0301
   22MOL0     C 2908   0.823   6.164   0.985  0.3034  0.0214  0.1839
   22MOL0     C 2909   0.815   6.180   0.839  0.0601 -0.1189  0.1829
   22MOL0     C 2910   0.951   6.152   0.782 -0.0178 -0.0161  0.5844
   22MOL0     C 2911   0.965   6.132   0.633 -0.8649  0.2300  0.1697
   22MOL0     C 2912   1.095   6.097   0.586 -0.7856  0.4487  0.6090
   22MOL0     C 2913   1.197   6.207   0.588 -0.4311 -0.3403 -0.2150
   22MOL0     C 2914   1.164   6.327   0.487  0.1460  0.0458  0.6072
   22MOL0     N 2915   1.277   6.416   0.454  1.1438  0.1091  0.5939
   22MOL0     C 2916   1.325   6.436   0.327 -0.1279 -0.0693 -0.1287
   22MOL0     C 2917   1.454   6.490   0.339  0.2186  0.2790  0.5864
   22MOL0     C 2918   1.536   6.528   0.223 -0.5053  0.6435 -0.2150
   22MOL0     C 2919   1.663   6.595   0.268 -1.3646 -0.0714 -0.2006
   22MOL0     C 2920   1.715   6.670   0.148  0.1923 -0.3946  0.2712
   22MOL0     C 2921   1.833   6.762   0.175 -0.2829 -0.1662 -0.0980
   22MOL0     O 2922   1.948   6.679   0.208  0.1075  0.0793  0.0657
   22MOL0     C 2923   2.058   6.734   0.270  0.5745 -0.4173 -0.6313
   22MOL0     C 2924   2.071   6.876   0.303  0.1450  0.1542 -0.3687
   22MOL0     C 2925   2.182   6.929   0.358 -0.2018 -0.7098  0.0159
   22MOL0     C 2926   2.189   7.080   0.380  0.0493 -0.6973 -0.1071
   22MOL0     C 2927   2.293   6.843   0.387 -0.1280 -0.2398 -0.6418
   22MOL0     C 2928   2.422   6.883   0.455  0.3819  0.0117  0.0031
   22MOL0     O 2929   2.505   6.781   0.487 -0.1952 -0.0450  0.3735
   22MOL0     C 2930   2.638   6.809   0.523  0.6076 -0.4804 -0.0752
   22MOL0     C 2931   2.672   6.828   0.660  0.0296  0.1051  0.3268
   22MOL0     C 2932   2.800   6.859   0.692  0.2003 -0.1351 -0.2575
   22MOL0     C 2933   2.904   6.868   0.592 -0.3740  0.5023 -0.2075
   22MOL0     O 2934   3.035   6.907   0.620 -0.3350  0.5075 -0.3481
   22MOL0     C 2935   3.104   6.881   0.744  0.7608 -0.8665  0.2948
   22MOL0     C 2936   3.250   6.883   0.716  0.4273  0.4840  0.0201
   22MOL0     C 2937   3.331   6.921   0.845 -0.3566 -0.2678 -0.2140
   22MOL0     C 2938   3.475   6.881   0.820  0.1460  0.3593 -0.6704
   22MOL0     C 2939   3.561   6.922   0.939 -1.1470  0.0444  0.0904
   22MOL0     C 2940   3.522   6.849   1.069 -0.9125  0.5142 -0.2539
   22MOL0     C 2941   3.616   6.871   1.185 -0.0389  0.5033 -0.2857
   22MOL0     C 2942   3.604   6.761   1.298  0.9818  0.5117 -0.3196
   22MOL0    Cl 2943   3.679   6.803   1.446 -0.1520  0.0352  0.5147
   22MOL0     C 2944   2.875   6.849   0.460 -0.5281  0.0211 -0.4070
   22MOL0     C 2945   2.739   6.821   0.421 -0.7977  0.7070 -0.5118
   22MOL0     O 2946   2.453   7.003   0.472  0.1969  0.0951  0.3140
   22MOL0     C 2947   2.282   6.708   0.353  1.2559 -0.5358  0.0140
   22MOL0     C 2948   2.165   6.656   0.301  0.1988 -0.4466  0.5591
   22MOL0     N 2949   1.480   6.495   0.475  0.1113 -0.6093  0.1625
   22MOL0     N 2950   1.380   6.456   0.539 -0.1565  1.1107 -0.0413
   22MOL0     C 2951   0.373   6.295   1.000 -0.1802  0.6068  0.6183
   22MOL0     C 2952   0.238   6.284   1.041 -0.1771  0.5656 -0.9481
   22MOL0     C 2953  -0.157   6.067   1.174 -0.4773 -0.5390  0.5060
   22MOL0     C 2954  -0.220   5.938   1.167  0.3550 -0.2127 -0.4909
   22MOL0     C 2955  -0.353   5.921   1.190  0.5519  0.5871 -0.2511
   22MOL0     C 2956  -0.433   6.036   1.197 -0.1073  0.0181  0.2949
   22MOL0     O 2957  -0.568   6.042   1.225  0.5063 -0.5030  0.1584
   22MOL0     C 2958  -0.647   5.923   1.222  0.2209 -0.4164 -0.3573
   22MOL0     C 2959  -0.798   5.953   1.233  0.0815 -0.7696 -0.0199
   22MOL0     C 2960  -0.839   6.010   1.373  0.7793  0.2915  0.9538
   22MOL0     C 2961  -0.983   6.083   1.387  0.1642  0.7160  0.2145
   22MOL0     C 2962  -1.077   5.972   1.380  0.0707 -0.4255  0.5227
   22MOL0     C 2963  -1.151   5.880   1.369 -0.2524  1.2567  0.1310
   22MOL0     C 2964  -0.374   6.155   1.216  0.1129 -0.1895  0.1042
   22MOL0     C 2965  -0.242   6.177   1.198  0.3879  0.1196  0.7487
   22MOL0     C 2966  -0.187   6.320   1.208  0.1423 -0.2964  0.7483
   22MOL0     H 2967   0.252   6.000   1.226 -2.1091  0.1491  0.4826
   22MOL0     H 2968   0.479   6.009   1.146  2.5390  1.3200 -1.4902
   22MOL0     H 2969   0.664   6.021   1.014  0.1874 -1.0997  1.7431
   22MOL0     H 2970   0.693   6.112   1.158 -0.9455 -0.6021 -0.0269
   22MOL0     H 2971   0.848   6.263   1.025  0.3257  0.3339 -0.5906
   22MOL0     H 2972   0.900   6.091   1.012 -0.8125 -1.4840 -0.5775
   22MOL0     H 2973   0.743   6.111   0.793 -0.9306  1.4664 -0.7476
   22MOL0     H 2974   0.779   6.281   0.818 -2.2251 -0.9381 -0.1484
   22MOL0     H 2975   1.012   6.241   0.801 -0.4215 -0.0076  1.9211
   22MOL0     H 2976   0.996   6.070   0.838 -0.2777  0.0572  0.9048
   22MOL0     H 2977   0.927   6.212   0.569 -1.5990 -1.5583 -1.7577
   22MOL0     H 2978   0.907   6.044   0.603  0.9187 -0.3800 -1.7541
   22MOL0     H 2979   1.133   6.010   0.640  1.3542  0.6501 -0.4768
   22MOL0     H 2980   1.076   6.066   0.483 -3.7569  0.9865  0.9035
   22MOL0     H 2981   1.291   6.154   0.571 -1.6679 -2.7864  0.0808
   22MOL0     H 2982   1.197   6.242   0.692  0.9653  1.9734 -0.9035
   22MOL0     H 2983   1.133   6.289   0.389 -0.0960 -1.1316  1.1273
   22MOL0     H 2984   1.087   6.387   0.537 -0.2032 -0.7091  0.9803
   22MOL0     H 2985   1.269   6.421   0.235  0.4430 -4.9884  0.0377
   22MOL0     H 2986   1.481   6.584   0.147 -1.2529  0.2589  0.0367
   22MOL0     H 2987   1.569   6.433   0.180 -1.3502 -0.1604  0.8598
   22MOL0     H 2988   1.645   6.671   0.345  1.2515 -1.0673  1.5373
   22MOL0     H 2989   1.733   6.526   0.315 -1.8236 -0.5596 -0.2184
   22MOL0     H 2990   1.754   6.600   0.074  0.7682  1.0433 -0.8327
   22MOL0     H 2991   1.633   6.729   0.105  2.6383  1.2285 -2.6026
   22MOL0     H 2992   1.843   6.833   0.093 -0.7983 -3.3378 -3.1475
   22MOL0     H 2993   1.804   6.816   0.266 -3.0691 -1.8396  0.1397
   22MOL0     H 2994   1.990   6.945   0.283  0.5203  1.2485  1.6067
   22MOL0     H 2995   2.095   7.132   0.361  0.2309  0.3039  1.5416
   22MOL0     H 2996   2.272   7.125   0.324 -1.1672  0.6048 -0.9397
   22MOL0     H 2997   2.202   7.103   0.486  1.2612 -0.1431 -0.3652
   22MOL0     H 2998   2.594   6.823   0.735  0.2702  0.4088  0.6010
   22MOL0     H 2999   2.831   6.879   0.794  2.7214  1.0391 -1.1642
   22MOL0     H 3000   3.065   6.957   0.812 -0.2866 -1.3301  0.2361
   22MOL0     H 3001   3.071   6.786   0.788 -2.1339 -1.5975 -3.0040
   22MOL0     H 3002   3.280   6.789   0.668 -1.8656 -0.1299 -0.3431
   22MOL0     H 3003   3.265   6.956   0.636 -0.5930 -0.9381 -1.5286
   22MOL0     H 3004   3.285   6.868   0.929  0.0517 -0.1347  0.0957
   22MOL0     H 3005   3.327   7.028   0.867  0.3200  0.1352 -1.9605
   22MOL0     H 3006   3.508   6.927   0.726  1.1397 -1.1095 -1.0768
   22MOL0     H 3007   3.487   6.773   0.806  1.2695  0.2709  0.7430
   22MOL0     H 3008   3.666   6.897   0.921 -0.2303  1.4992  2.8393
   22MOL0     H 3009   3.556   7.031   0.946 -0.4700  0.1925 -1.3405
   22MOL0     H 3010   3.518   6.741   1.052 -1.2720  0.5040 -0.1114
   22MOL0     H 3011   3.421   6.882   1.095 -1.2058  1.0738 -1.9504
   22MOL0     H 3012   3.583   6.965   1.229 -1.2949  0.0603 -0.2476
   22MOL0     H 3013   3.718   6.882   1.147 -0.3659  2.8600 -0.6094
   22MOL0     H 3014   3.642   6.664   1.263  0.3664  0.4476 -0.8215
   22MOL0     H 3015   3.499   6.743   1.321  0.0331  1.6375 -3.2919
   22MOL0     H 3016   2.943   6.850   0.376 -2.2927 -1.0239 -1.9254
   22MOL0     H 3017   2.724   6.789   0.318 -0.5946  1.8717 -0.9189
   22MOL0     H 3018   2.356   6.635   0.386  1.1563 -2.0662 -2.8185
   22MOL0     H 3019   2.160   6.548   0.297  1.0897 -0.5292  1.3991
   22MOL0     H 3020   0.402   6.377   0.934 -1.3350  0.0877 -0.5842
   22MOL0     H 3021   0.170   6.364   1.013 -1.7138  0.0710  1.1709
   22MOL0     H 3022  -0.160   5.848   1.157 -1.1337 -1.1897 -1.1273
   22MOL0     H 3023  -0.398   5.822   1.196 -0.2385  0.8750 -1.2009
   22MOL0     H 3024  -0.625   5.869   1.129  0.3008  1.1072 -1.2536
   22MOL0     H 3025  -0.626   5.859   1.308 -0.0076 -0.0683 -0.0434
   22MOL0     H 3026  -0.852   5.859   1.224  0.7401 -1.1693  0.1853
   22MOL0     H 3027  -0.819   6.027   1.155  0.7212 -0.8082 -0.2326
   22MOL0     H 3028  -0.842   5.919   1.434 -4.9415 -0.0568  0.7129
   22MOL0     H 3029  -0.760   6.083   1.394  0.8109  0.6879 -0.4834
   22MOL0     H 3030  -0.995   6.153   1.304 -2.9724 -0.3601 -0.3807
   22MOL0     H 3031  -0.985   6.134   1.484  1.0866 -0.5806  0.9592
   22MOL0     H 3032  -1.207   5.789   1.374 -0.8114  1.6257  0.6498
   22MOL0     H 3033  -0.433   6.241   1.243  0.4214  0.3171 -0.8134
   22MOL0     H 3034  -0.272   6.386   1.231  0.2708 -0.1246  0.7249
   22MOL0     H 3035  -0.109   6.332   1.283 -0.6205  5.6057  1.1165
   22MOL0     H 3036  -0.141   6.350   1.113  0.1841 -0.3992  0.7362
   23MOL0     O 3037   1.506   9.810  10.688  0.2684  0.1509 -0.1134
   23MOL0     C 3038   1.491   9.892  10.601  0.2116 -0.3469 -0.0404
   23MOL0     O 3039   1.580   9.994  10.573 -0.5261  0.2132 -0.6441
   23MOL0     C 3040   1.678  10.035  10.664 -0.5886 -0.6044  0.3112
   23MOL0     C 3041   1.769  10.139  10.612  0.0690  0.2107 -0.9945
   23MOL0     C 3042   1.870  10.189  10.696  0.6575 -0.3710  0.3710
   23MOL0     C 3043   1.889  10.147  10.831  0.7577 -0.1225  0.1617
   23MOL0     O 3044   2.007  10.179  10.898 -0.3605 -0.2101 -0.4439
   23MOL0     C 3045   2.020  10.161  11.039 -0.0323  0.4621 -0.0142
   23MOL0     C 3046   2.138  10.253  11.084 -0.2805 -0.0149 -0.2486
   23MOL0     C 3047   2.272  10.205  11.016  0.3217 -0.2880 -0.5150
   23MOL0     C 3048   2.378  10.316  11.057  0.5838 -1.1046 -0.0320
   23MOL0     C 3049   2.518  10.274  11.007 -0.7667  0.3375 -0.6432
   23MOL0     C 3050   2.620  10.375  11.038  0.5034 -0.3308 -0.1808
   23MOL0     C 3051   2.752  10.348  10.985 -1.4684 -0.4690 -0.3739
   23MOL0     C 3052   2.862  10.425  11.062  0.6855  0.4737 -0.4650
   23MOL0     N 3053   2.991  10.400  10.996 -0.5868 -0.2298 -0.3466
   23MOL0     C 3054   3.087  10.318  11.047 -0.4858  0.1973 -0.2339
   23MOL0     C 3055   3.191  10.315  10.955 -0.0405 -0.0529 -0.4291
   23MOL0     C 3056   3.312  10.225  10.946 -0.8824 -0.5145  0.3107
   23MOL0     C 3057   3.444  10.306  10.990  1.2109  0.1023 -0.0788
   23MOL0     C 3058   3.499  10.394  10.880  0.4358 -0.4695 -0.4793
   23MOL0     C 3059   3.625  10.465  10.944  0.5123  0.3966 -1.0455
   23MOL0     O 3060   3.733  10.369  10.957  0.6081  0.3125 -0.1059
   23MOL0     C 3061   3.823  10.356  10.853 -0.8686  0.0707 -0.4426
   23MOL0     C 3062   3.808  10.399  10.727 -0.9979  0.4328  0.7876
   23MOL0     C 3063   3.909  10.366  10.635 -0.7428  0.0433 -0.1420
   23MOL0     C 3064   3.883  10.412  10.496  0.4790  0.0079  0.3785
   23MOL0     C 3065   4.027  10.300  10.672  0.1116  1.2681 -0.5165
   23MOL0     C 3066   4.134  10.259  10.584 -0.3114 -0.9459  0.3288
   23MOL0     O 3067   4.245  10.189  10.643 -0.6749 -0.6576 -0.0223
   23MOL0     C 3068   4.332  10.130  10.557 -0.5427 -0.6354 -0.1277
   23MOL0     C 3069   4.350   9.993  10.560  0.4877 -0.4700 -1.1353
   23MOL0     C 3070   4.438   9.928  10.477 -0.2956 -0.7750  0.4967
   23MOL0     C 3071   4.505  10.000  10.383  0.0376 -0.7599  0.0781
   23MOL0     O 3072   4.588   9.947  10.290 -0.3446 -0.2288 -0.1700
   23MOL0     C 3073   4.598   9.806  10.275 -0.3786  0.1576  0.5180
   23MOL0     C 3074   4.708   9.771  10.180 -0.9124  0.7120  0.1759
   23MOL0     C 3075   4.681   9.838  10.044 -0.7107  0.4824  0.1626
   23MOL0     C 3076   4.806   9.887   9.980 -0.5664 -0.0852 -0.5899
   23MOL0     C 3077   4.897   9.772   9.936  0.0849  0.5103 -0.0301
   23MOL0     C 3078   5.039   9.806   9.887  0.1365 -0.2001  0.5508
   23MOL0     C 3079   5.049   9.935   9.802 -0.4641  0.4412  0.3450
   23MOL0     C 3080   5.170   9.929   9.707 -0.9893  0.4381  0.3815
   23MOL0    Cl 3081   5.322   9.971   9.798 -0.3296  0.2469 -0.6257
   23MOL0     C 3082   4.496  10.138  10.376  0.5268  1.0099 -0.2828
   23MOL0     C 3083   4.412  10.206  10.463 -0.2358 -0.4645 -0.6411
   23MOL0     O 3084   4.123  10.293  10.465  0.3099 -0.6267  0.4332
   23MOL0     C 3085   4.032  10.263  10.796 -0.5570  0.0232 -0.1234
   23MOL0     C 3086   3.936  10.283  10.889 -0.2226 -0.5993 -0.8565
   23MOL0     N 3087   3.152  10.404  10.862  0.3997  0.2779  0.2021
   23MOL0     N 3088   3.035  10.455  10.885 -0.0709 -0.3812  0.8311
   23MOL0     C 3089   1.790  10.058  10.884  0.4786 -0.7969  0.5988
   23MOL0     C 3090   1.686  10.004  10.804  0.4612  0.0221 -0.3661
   23MOL0     C 3091   1.359   9.893  10.520  0.6123  0.5984 -0.7348
   23MOL0     C 3092   1.332   9.997  10.432  0.4176  0.0923 -0.8781
   23MOL0     C 3093   1.212  10.007  10.366 -0.6093 -0.9004  0.7832
   23MOL0     C 3094   1.115   9.900  10.378  0.2355 -0.2128  0.4572
   23MOL0     O 3095   0.986   9.902  10.331 -0.2833  0.0291 -0.4216
   23MOL0     C 3096   0.919  10.019  10.277  0.3675  1.1679 -0.0303
   23MOL0     C 3097   0.837   9.977  10.152 -0.3350  0.8279 -0.8568
   23MOL0     C 3098   0.899  10.011  10.016  0.3868  0.2359  1.0236
   23MOL0     C 3099   0.795   9.996   9.899 -0.2716 -0.3089 -0.5552
   23MOL0     C 3100   0.870  10.006   9.778 -0.7015  0.2986  0.2499
   23MOL0     C 3101   0.960  10.003   9.696 -1.1987  0.2832  0.6871
   23MOL0     C 3102   1.154   9.792  10.454  0.7679 -0.4936  0.2129
   23MOL0     C 3103   1.268   9.782  10.528  0.3662  0.2371  0.4655
   23MOL0     C 3104   1.281   9.659  10.605  0.2696 -0.1031  0.3910
   23MOL0     H 3105   1.768  10.165  10.506 -0.9846  1.3580 -0.7225
   23MOL0     H 3106   1.931  10.273  10.666  1.1638 -0.3931  1.2981
   23MOL0     H 3107   2.050  10.057  11.057  4.6214  0.8624 -3.2984
   23MOL0     H 3108   1.927  10.174  11.094  0.5202 -0.7963  1.2954
   23MOL0     H 3109   2.115  10.353  11.048  1.1173 -0.1083 -1.4709
   23MOL0     H 3110   2.158  10.240  11.191  2.8293  0.6422 -0.6483
   23MOL0     H 3111   2.308  10.108  11.052  1.8677  1.5833  3.5701
   23MOL0     H 3112   2.269  10.208  10.906  1.9967 -1.3494 -0.6267
   23MOL0     H 3113   2.349  10.412  11.014  2.1816 -0.7470 -0.3522
   23MOL0     H 3114   2.378  10.320  11.166 -0.6905  0.6065 -0.0665
   23MOL0     H 3115   2.513  10.245  10.902  1.2345  0.6031 -0.8433
   23MOL0     H 3116   2.541  10.194  11.078 -0.1560  0.3785 -0.7904
   23MOL0     H 3117   2.583  10.475  11.014 -1.9282 -1.0005  0.4651
   23MOL0     H 3118   2.628  10.384  11.146 -1.9234  0.5976 -0.0192
   23MOL0     H 3119   2.766  10.373  10.879 -0.8898  0.4857 -0.0904
   23MOL0     H 3120   2.779  10.243  10.996 -0.6294 -0.3621 -1.2348
   23MOL0     H 3121   2.840  10.532  11.068 -3.4232 -0.1039 -2.0165
   23MOL0     H 3122   2.876  10.380  11.161  1.8725 -0.6753 -1.1276
   23MOL0     H 3123   3.074  10.257  11.136 -1.3615  1.7267  0.7503
   23MOL0     H 3124   3.319  10.180  10.847 -1.9475 -0.8783  0.3771
   23MOL0     H 3125   3.287  10.139  11.010 -2.7260  0.1875  0.6063
   23MOL0     H 3126   3.422  10.360  11.083 -1.4622  0.8915 -1.0836
   23MOL0     H 3127   3.520  10.229  11.005  0.8699 -0.7660 -2.4467
   23MOL0     H 3128   3.527  10.336  10.792  1.4226  0.7578 -1.0005
   23MOL0     H 3129   3.428  10.473  10.856  1.4344  1.7187  3.0787
   23MOL0     H 3130   3.655  10.555  10.888  1.2924  1.2580  0.6812
   23MOL0     H 3131   3.607  10.512  11.041 -0.9959 -1.4150 -0.3890
   23MOL0     H 3132   3.719  10.457  10.704 -1.7948 -1.1508 -0.3522
   23MOL0     H 3133   3.786  10.462  10.494  1.1706  1.3856  0.6202
   23MOL0     H 3134   3.871  10.324  10.431  4.7212 -0.3376 -0.2290
   23MOL0     H 3135   3.963  10.479  10.463  0.0289 -0.0381 -0.8493
   23MOL0     H 3136   4.299   9.939  10.639 -0.3618  0.8872 -0.7053
   23MOL0     H 3137   4.439   9.820  10.474  0.6858 -0.7694 -1.5789
   23MOL0     H 3138   4.627   9.769  10.374  1.5676 -0.1791 -0.1175
   23MOL0     H 3139   4.510   9.761  10.228  1.0369  0.9769 -3.3559
   23MOL0     H 3140   4.807   9.803  10.214  0.1121 -1.8287 -0.2352
   23MOL0     H 3141   4.711   9.662  10.175  2.1815  0.5977  1.9800
   23MOL0     H 3142   4.602   9.915  10.045 -3.3456 -1.9984 -0.9145
   23MOL0     H 3143   4.637   9.760   9.981 -0.7057 -1.4241  2.3801
   23MOL0     H 3144   4.863   9.945  10.052 -1.4738  0.2739 -0.1400
   23MOL0     H 3145   4.776   9.944   9.891  1.5486  0.4145 -1.0319
   23MOL0     H 3146   4.910   9.697  10.015 -0.3753  0.3823 -0.0737
   23MOL0     H 3147   4.842   9.740   9.847  1.9250  1.5979 -1.6173
   23MOL0     H 3148   5.068   9.717   9.830 -1.1282 -0.1085 -0.2717
   23MOL0     H 3149   5.095   9.810   9.981  0.4842 -2.1327  0.4604
   23MOL0     H 3150   5.051  10.026   9.863  1.6338  0.1613  0.7648
   23MOL0     H 3151   4.953   9.933   9.750 -1.3436  0.5014  1.9198
   23MOL0     H 3152   5.174   9.999   9.624  2.3440  2.0407  1.6819
   23MOL0     H 3153   5.194   9.825   9.681  0.9835 -0.0696  3.6616
   23MOL0     H 3154   4.557  10.183  10.298  1.1728  0.9174  0.1588
   23MOL0     H 3155   4.405  10.314  10.456  0.5150 -0.5204 -2.8193
   23MOL0     H 3156   4.114  10.204  10.836  1.0541  2.1700 -0.1350
   23MOL0     H 3157   3.953  10.246  10.990  1.1376  1.2417 -0.3506
   23MOL0     H 3158   1.813  10.010  10.979  1.4482 -1.4655  0.0458
   23MOL0     H 3159   1.612   9.937  10.848  0.6779  0.1698  0.2257
   23MOL0     H 3160   1.404  10.077  10.423 -0.1572  0.5902 -1.1214
   23MOL0     H 3161   1.195  10.099  10.313 -1.2201 -0.7448  1.2398
   23MOL0     H 3162   0.864  10.066  10.359  0.2174  1.2773 -0.1907
   23MOL0     H 3163   0.993  10.095  10.252  1.3947  0.6656  1.3692
   23MOL0     H 3164   0.739  10.024  10.144 -1.3109 -1.0695 -0.6258
   23MOL0     H 3165   0.816   9.870  10.156 -0.1299  0.6951 -2.7090
   23MOL0     H 3166   0.920  10.118  10.018 -0.6074  0.4429  3.3503
   23MOL0     H 3167   0.994   9.960   9.997  0.3790  0.2908  0.8297
   23MOL0     H 3168   0.723  10.078   9.898  2.4621  2.2864  0.2433
   23MOL0     H 3169   0.748   9.897   9.905 -2.0898  0.6025  1.7624
   23MOL0     H 3170   1.041  10.020   9.628  0.4156  2.1014  2.8746
   23MOL0     H 3171   1.079   9.714  10.459  1.0248 -0.8193 -0.7372
   23MOL0     H 3172   1.373   9.608  10.574  0.5404 -0.9174  2.4187
   23MOL0     H 3173   1.285   9.677  10.712 -2.9816  0.4579  0.5158
   23MOL0     H 3174   1.203   9.584  10.592  1.6591 -1.7896  1.2643
   24MOL0     O 3175   7.345   4.710   9.521  0.2760 -0.2437  0.1051
   24MOL0     C 3176   7.246   4.691   9.593 -0.1086  1.1688 -1.1345
   24MOL0     O 3177   7.256   4.635   9.717  0.8062  0.1137  0.1152
   24MOL0     C 3178   7.386   4.603   9.755  0.3517 -0.5415  0.3346
   24MOL0     C 3179   7.434   4.638   9.886 -0.3516 -0.1055  0.1950
   24MOL0     C 3180   7.557   4.602   9.933 -0.4390  0.7058  0.4984
   24MOL0     C 3181   7.646   4.524   9.849 -0.1496  0.3370  0.1936
   24MOL0     O 3182   7.772   4.492   9.891 -0.1310  0.3266 -0.3259
   24MOL0     C 3183   7.859   4.465   9.778  0.5171  0.3360 -0.1837
   24MOL0     C 3184   8.001   4.455   9.843  0.5977  0.0252  0.2974
   24MOL0     C 3185   8.100   4.406   9.734  0.1924 -0.2250 -0.0256
   24MOL0     C 3186   8.094   4.502   9.620  0.1432  0.0059  0.2666
   24MOL0     C 3187   8.208   4.489   9.521 -0.0447  0.1829  0.8278
   24MOL0     C 3188   8.222   4.344   9.469  0.7486  0.1112  0.0903
   24MOL0     C 3189   8.322   4.341   9.344 -0.3296  0.4223 -0.4618
   24MOL0     C 3190   8.461   4.391   9.373 -0.3945 -0.4058 -0.6478
   24MOL0     N 3191   8.535   4.284   9.448 -0.1374 -0.1900 -0.3078
   24MOL0     C 3192   8.520   4.272   9.583 -0.2377  0.3938  0.2356
   24MOL0     C 3193   8.597   4.166   9.622  0.0231  0.4520  0.0052
   24MOL0     C 3194   8.620   4.116   9.762  0.4295  0.2360 -0.1205
   24MOL0     C 3195   8.488   4.110   9.840 -0.1319  0.0281 -1.0261
   24MOL0     C 3196   8.380   4.007   9.788 -0.6021 -0.6729  0.0524
   24MOL0     C 3197   8.243   4.059   9.809  0.0171  0.1417  0.1609
   24MOL0     O 3198   8.207   4.045   9.948 -0.2885 -0.4435  0.8588
   24MOL0     C 3199   8.078   4.000   9.979 -0.3216  0.5993 -0.8523
   24MOL0     C 3200   8.065   3.930  10.099 -0.6111 -0.0183 -0.4742
   24MOL0     C 3201   7.935   3.877  10.143  0.0733  0.5233 -0.1696
   24MOL0     C 3202   7.926   3.813  10.281  0.1702 -0.7071  0.5203
   24MOL0     C 3203   7.824   3.905  10.067  0.8102 -0.1693  0.4845
   24MOL0     C 3204   7.683   3.869  10.093  0.7938 -0.3376 -0.8619
   24MOL0     O 3205   7.630   3.760  10.032  0.7730 -0.0089  0.3894
   24MOL0     C 3206   7.702   3.687   9.940 -0.5488 -0.0381  0.5432
   24MOL0     C 3207   7.670   3.700   9.802  0.8977  1.2729 -0.3083
   24MOL0     C 3208   7.743   3.619   9.706  0.1700 -0.1600  0.8843
   24MOL0     C 3209   7.841   3.529   9.748  0.9904  0.0930 -0.1324
   24MOL0     O 3210   7.918   3.463   9.656 -0.1067  0.1248  0.8825
   24MOL0     C 3211   7.887   3.474   9.516  0.2821  0.3445  0.6279
   24MOL0     C 3212   7.945   3.357   9.441  0.1229 -0.3696  0.5217
   24MOL0     C 3213   8.089   3.322   9.489 -0.7432 -0.4813  0.4023
   24MOL0     C 3214   8.162   3.236   9.393  0.2764  0.1915  0.1815
   24MOL0     C 3215   8.094   3.104   9.360  0.0775 -0.2362 -0.2231
   24MOL0     C 3216   8.184   3.021   9.267 -0.2502  0.3913  0.7202
   24MOL0     C 3217   8.129   2.878   9.245  0.0540 -0.2624  0.1838
   24MOL0     C 3218   8.215   2.776   9.175 -0.2097 -0.2534 -0.5109
   24MOL0    Cl 3219   8.356   2.747   9.273 -0.3883  0.2071 -0.0105
   24MOL0     C 3220   7.867   3.521   9.893 -0.3399  0.1945 -0.2913
   24MOL0     C 3221   7.803   3.600   9.982 -0.3625  0.3445  0.7734
   24MOL0     O 3222   7.616   3.943  10.164  0.0043 -0.0721 -0.5523
   24MOL0     C 3223   7.842   3.979   9.941 -0.2324  0.2120 -0.8995
   24MOL0     C 3224   7.968   4.016   9.905  0.2027  0.6390  0.6826
   24MOL0     N 3225   8.655   4.120   9.505  0.5191  0.0855 -0.4551
   24MOL0     N 3226   8.623   4.190   9.398  0.4523 -0.5796 -0.2477
   24MOL0     C 3227   7.600   4.478   9.722  0.9886 -0.7145 -0.3505
   24MOL0     C 3228   7.470   4.509   9.686  1.0471 -1.0035  0.6922
   24MOL0     C 3229   7.103   4.725   9.552 -0.0686  0.2281  0.7208
   24MOL0     C 3230   7.001   4.669   9.631  0.6607  0.8267  1.0108
   24MOL0     C 3231   6.867   4.682   9.588 -0.2871  0.2414 -0.3182
   24MOL0     C 3232   6.824   4.767   9.485  0.1644  0.2884  0.3744
   24MOL0     O 3233   6.699   4.788   9.446  0.9118  0.0738 -0.2736
   24MOL0     C 3234   6.583   4.751   9.526  0.7246  0.4424  0.6759
   24MOL0     C 3235   6.461   4.765   9.428 -0.2693  0.3397 -0.2805
   24MOL0     C 3236   6.352   4.667   9.482 -0.2017  0.9608 -0.1870
   24MOL0     C 3237   6.212   4.695   9.428  0.2561 -0.2224  0.4474
   24MOL0     C 3238   6.190   4.685   9.283 -0.4450 -0.5080  0.3988
   24MOL0     C 3239   6.168   4.671   9.162 -1.1192  0.0812 -0.0060
   24MOL0     C 3240   6.934   4.832   9.412 -0.6756  0.8100  0.1473
   24MOL0     C 3241   7.074   4.813   9.444  0.4399 -0.1094  0.2383
   24MOL0     C 3242   7.178   4.887   9.361  0.4119 -0.5691  0.0252
   24MOL0     H 3243   7.372   4.703   9.948 -1.9384 -0.4952 -0.9032
   24MOL0     H 3244   7.588   4.639  10.030 -2.4197 -0.6756  1.7428
   24MOL0     H 3245   7.851   4.556   9.718  2.7101  1.2134  0.7234
   24MOL0     H 3246   7.833   4.382   9.711  0.2728  0.5130 -0.3094
   24MOL0     H 3247   8.020   4.553   9.888 -2.5321  1.8983 -2.0681
   24MOL0     H 3248   8.001   4.385   9.928  1.6302 -0.7782 -0.3498
   24MOL0     H 3249   8.198   4.400   9.783 -0.5735 -0.7144  1.5378
   24MOL0     H 3250   8.073   4.303   9.708  1.6930 -0.6272 -0.0813
   24MOL0     H 3251   7.998   4.482   9.572 -0.7354 -2.2047  2.7006
   24MOL0     H 3252   8.090   4.608   9.647 -1.5043  0.0323  0.0230
   24MOL0     H 3253   8.302   4.524   9.563  0.0430  0.1930  0.6253
   24MOL0     H 3254   8.195   4.564   9.442  0.2633  0.2556  0.8462
   24MOL0     H 3255   8.257   4.275   9.546 -0.0455  1.4460  1.7364
   24MOL0     H 3256   8.129   4.298   9.436  0.7767 -2.3244  2.9786
   24MOL0     H 3257   8.277   4.416   9.278  0.1291  1.7816  0.7195
   24MOL0     H 3258   8.325   4.238   9.308 -0.6628 -0.3730  1.6760
   24MOL0     H 3259   8.525   4.401   9.285 -0.2144 -1.6920 -0.6901
   24MOL0     H 3260   8.460   4.489   9.422 -1.3998 -1.0050  0.5825
   24MOL0     H 3261   8.479   4.351   9.645 -0.4985  1.8303 -1.6762
   24MOL0     H 3262   8.681   4.196   9.804  1.0595 -0.9412  1.2978
   24MOL0     H 3263   8.678   4.023   9.763 -0.1393 -0.1276 -0.1368
   24MOL0     H 3264   8.508   4.091   9.945 -3.3793  4.6791  0.7806
   24MOL0     H 3265   8.463   4.217   9.844  1.4596  0.3886  0.3792
   24MOL0     H 3266   8.387   3.993   9.679 -2.1572  0.0952 -0.1700
   24MOL0     H 3267   8.393   3.906   9.830  2.9007  0.7338  2.8940
   24MOL0     H 3268   8.239   4.163   9.774  2.2019 -0.1044 -0.9806
   24MOL0     H 3269   8.181   4.003   9.738 -0.1441  0.0393  0.3820
   24MOL0     H 3270   8.155   3.922  10.158  0.7701 -1.6278 -2.6574
   24MOL0     H 3271   7.872   3.880  10.348  0.6612  3.6918 -3.0129
   24MOL0     H 3272   8.025   3.792  10.322 -0.3895  0.2031  2.4030
   24MOL0     H 3273   7.869   3.720  10.270 -1.0351 -0.1483  1.8705
   24MOL0     H 3274   7.591   3.763   9.763 -2.0511 -1.6848  0.4738
   24MOL0     H 3275   7.712   3.629   9.602  0.7520 -1.5177  0.5580
   24MOL0     H 3276   7.778   3.474   9.513  0.2436  2.8307 -0.3947
   24MOL0     H 3277   7.930   3.569   9.482 -2.2207  0.4358 -2.8651
   24MOL0     H 3278   7.877   3.273   9.461 -2.3170  0.8862 -1.8796
   24MOL0     H 3279   7.936   3.382   9.335  2.9852  0.1775  0.3176
   24MOL0     H 3280   8.079   3.269   9.584 -2.2734 -1.2895 -0.1838
   24MOL0     H 3281   8.143   3.417   9.505  1.6292 -1.6279 -0.3347
   24MOL0     H 3282   8.261   3.211   9.434  0.3809  0.4116  0.0618
   24MOL0     H 3283   8.185   3.281   9.297  3.9041 -1.2137  0.2008
   24MOL0     H 3284   8.079   3.054   9.456  0.3750  0.8026  0.3851
   24MOL0     H 3285   7.997   3.111   9.309 -0.3435 -1.9347  0.2980
   24MOL0     H 3286   8.284   3.004   9.308  1.9068  0.7459 -3.7466
   24MOL0     H 3287   8.203   3.070   9.171  1.7138 -0.8949  0.3832
   24MOL0     H 3288   8.033   2.879   9.192  1.2792 -0.9093 -2.2145
   24MOL0     H 3289   8.126   2.829   9.343  1.3908 -1.6860 -0.4437
   24MOL0     H 3290   8.241   2.818   9.078 -1.5608 -1.6083 -1.5084
   24MOL0     H 3291   8.152   2.688   9.157 -2.4653  1.0248  0.7107
   24MOL0     H 3292   7.952   3.457   9.908 -1.3608 -1.9145 -2.7004
   24MOL0     H 3293   7.818   3.594  10.089 -0.9732 -2.0922  0.7906
   24MOL0     H 3294   7.755   4.011   9.885 -1.3063 -2.2012 -0.7341
   24MOL0     H 3295   7.984   4.076   9.816  2.5796 -1.8879 -0.7409
   24MOL0     H 3296   7.647   4.415   9.647 -0.9994 -2.3319 -0.3164
   24MOL0     H 3297   7.443   4.469   9.589  1.8464  1.2217 -0.5251
   24MOL0     H 3298   7.014   4.611   9.721 -1.1339  1.9354  2.0426
   24MOL0     H 3299   6.795   4.616   9.636  0.4182 -0.9549 -0.8560
   24MOL0     H 3300   6.599   4.652   9.571  0.6608  0.1553  0.0872
   24MOL0     H 3301   6.570   4.826   9.604  0.9772  1.6526 -0.4139
   24MOL0     H 3302   6.490   4.738   9.326 -1.5884 -0.5835 -0.4298
   24MOL0     H 3303   6.408   4.861   9.429 -1.3296 -0.2284 -0.9952
   24MOL0     H 3304   6.384   4.565   9.459 -3.2729  0.0454 -0.8529
   24MOL0     H 3305   6.354   4.678   9.591  0.2630  1.0179 -0.1987
   24MOL0     H 3306   6.190   4.796   9.464  2.6124  0.3351  0.4510
   24MOL0     H 3307   6.162   4.613   9.481 -0.8114  0.1608  0.0705
   24MOL0     H 3308   6.149   4.653   9.058 -4.6197  4.1835 -0.3693
   24MOL0     H 3309   6.903   4.896   9.330  0.9942  0.1101 -1.0815
   24MOL0     H 3310   7.263   4.823   9.337  0.7756 -1.6907  3.6643
   24MOL0     H 3311   7.132   4.932   9.273  0.7113 -2.2525 -1.0162
   24MOL0     H 3312   7.211   4.977   9.414 -0.2013  0.2000 -0.8661
   25MOL0     O 3313  11.329   8.361   3.748 -0.1156  0.0641  0.2573
   25MOL0     C 3314  11.425   8.432   3.738 -0.3317 -0.0436  0.3980
   25MOL0     O 3315  11.551   8.396   3.774  0.0697 -0.0147 -0.2241
   25MOL0     C 3316  11.583   8.302   3.874 -0.0641 -0.2013  0.5358
   25MOL0     C 3317  11.712   8.248   3.869  0.0166  0.4255 -0.5786
   25MOL0     C 3318  11.752   8.173   3.982 -0.1487 -0.5485  0.5657
   25MOL0     C 3319  11.670   8.152   4.091  1.1814 -0.4337  0.0945
   25MOL0     O 3320  11.716   8.080   4.201 -0.2604  0.0703  0.4256
   25MOL0     C 3321  11.619   8.003   4.280  0.3578 -0.1211  0.2422
   25MOL0     C 3322  11.687   7.897   4.367 -0.2396 -0.7857  0.6420
   25MOL0     C 3323  11.803   7.827   4.291  0.1263  0.7021  0.5924
   25MOL0     C 3324  11.884   7.724   4.380  0.0619  0.6848  0.0459
   25MOL0     C 3325  12.012   7.669   4.314  0.5250 -0.0979 -0.1607
   25MOL0     C 3326  11.979   7.597   4.186 -0.3676 -1.6910 -0.6881
   25MOL0     C 3327  12.104   7.531   4.127 -0.4612  0.0952  0.1027
   25MOL0     C 3328  12.150   7.409   4.205  0.0477  0.4886 -0.1673
   25MOL0     N 3329  12.279   7.360   4.166 -0.4146 -0.4146  0.0119
   25MOL0     C 3330  12.317   7.291   4.050  0.0800 -1.2177 -0.3905
   25MOL0     C 3331  12.445   7.259   4.071 -0.3544  0.2829  0.2769
   25MOL0     C 3332  12.529   7.169   3.979  0.9904 -0.7588 -0.3105
   25MOL0     C 3333  12.674   7.166   4.029 -1.0546 -0.2049 -0.6380
   25MOL0     C 3334  12.755   7.100   3.923 -0.4931 -1.4874 -0.6652
   25MOL0     C 3335  12.905   7.095   3.969 -0.2402  0.8022  0.3913
   25MOL0     O 3336  12.963   7.229   3.966  0.0537  0.4539  0.2797
   25MOL0     C 3337  13.049   7.250   3.864 -0.3681 -0.4038  0.0949
   25MOL0     C 3338  13.058   7.196   3.735 -0.0328 -0.1431  0.0430
   25MOL0     C 3339  13.161   7.233   3.649 -1.1156  1.1541  0.7076
   25MOL0     C 3340  13.177   7.154   3.518 -0.8433  0.6017 -0.6611
   25MOL0     C 3341  13.266   7.320   3.684  0.2128 -0.1344 -0.0907
   25MOL0     C 3342  13.380   7.365   3.606 -0.5601 -0.3174 -0.2835
   25MOL0     O 3343  13.486   7.412   3.687  0.5162 -0.1761 -0.0959
   25MOL0     C 3344  13.613   7.422   3.631  0.6107 -0.7600 -0.0212
   25MOL0     C 3345  13.630   7.503   3.517  0.0207 -0.2504  0.0085
   25MOL0     C 3346  13.749   7.500   3.444  0.5855  0.6585 -0.3899
   25MOL0     C 3347  13.863   7.435   3.489 -0.4990  0.7603 -0.2431
   25MOL0     O 3348  13.988   7.442   3.432 -0.2083 -0.9960  0.9681
   25MOL0     C 3349  14.013   7.547   3.340 -0.0552 -0.6170  1.2938
   25MOL0     C 3350  14.165   7.562   3.301 -0.6259 -0.0265  0.7721
   25MOL0     C 3351  14.197   7.652   3.189 -0.1968  0.8887  0.0809
   25MOL0     C 3352  14.339   7.633   3.126  0.6051 -0.1597  0.5047
   25MOL0     C 3353  14.366   7.768   3.054 -0.4194 -0.0483 -0.6283
   25MOL0     C 3354  14.509   7.779   2.995 -0.0633  0.7349 -0.1912
   25MOL0     C 3355  14.529   7.931   2.957  0.6815 -0.2898 -0.2582
   25MOL0     C 3356  14.651   7.941   2.871 -1.0149 -0.3633 -1.3040
   25MOL0    Cl 3357  14.664   8.108   2.799  0.0236 -0.2287  0.0044
   25MOL0     C 3358  13.852   7.374   3.622  0.3280  0.3689 -0.1733
   25MOL0     C 3359  13.723   7.356   3.680 -0.0396  0.0868  0.3114
   25MOL0     O 3360  13.373   7.369   3.485  0.4027  0.3998 -0.3776
   25MOL0     C 3361  13.254   7.374   3.817 -0.3979  0.3149 -0.3036
   25MOL0     C 3362  13.147   7.341   3.895 -0.0236  0.3066 -0.4007
   25MOL0     N 3363  12.491   7.318   4.185  0.0487 -0.4542  0.0226
   25MOL0     N 3364  12.394   7.377   4.238  0.0885  0.2682  0.0320
   25MOL0     C 3365  11.535   8.196   4.080 -0.0665  0.3673 -0.5933
   25MOL0     C 3366  11.499   8.277   3.974 -0.1229 -0.2512  0.2931
   25MOL0     C 3367  11.397   8.566   3.673  0.0949  0.2823 -0.6847
   25MOL0     C 3368  11.486   8.612   3.575  0.3541  0.0496  0.3677
   25MOL0     C 3369  11.450   8.731   3.507  0.0261 -0.3380  0.4549
   25MOL0     C 3370  11.342   8.813   3.546 -0.3613 -1.4183  0.4750
   25MOL0     O 3371  11.304   8.933   3.488 -0.7883 -0.4793 -0.7524
   25MOL0     C 3372  11.340   8.960   3.357  0.0962  0.7032  0.5523
   25MOL0     C 3373  11.253   9.069   3.294  0.4666 -0.3290  0.3605
   25MOL0     C 3374  11.111   9.007   3.265  0.2526  0.0528  0.0683
   25MOL0     C 3375  11.015   9.099   3.188 -0.0740 -0.1459 -0.0106
   25MOL0     C 3376  10.893   9.019   3.160 -0.0470 -0.0179 -0.4555
   25MOL0     C 3377  10.806   8.952   3.108  0.4228 -0.4111  0.2312
   25MOL0     C 3378  11.254   8.764   3.643  0.1950  0.2923  0.1060
   25MOL0     C 3379  11.286   8.647   3.712  0.1945  0.3810 -1.0890
   25MOL0     C 3380  11.193   8.608   3.819  0.2323  0.6716 -0.4712
   25MOL0     H 3381  11.771   8.268   3.780 -1.2885 -0.8524 -1.7808
   25MOL0     H 3382  11.854   8.139   3.993  0.1796  0.1390 -0.1833
   25MOL0     H 3383  11.567   7.947   4.201  2.6373 -1.0911 -0.6760
   25MOL0     H 3384  11.549   8.062   4.339  0.0131  0.1549 -0.4385
   25MOL0     H 3385  11.731   7.949   4.452  0.1599 -0.6260  0.3412
   25MOL0     H 3386  11.609   7.827   4.398 -1.2743 -0.4341 -1.0421
   25MOL0     H 3387  11.774   7.775   4.199 -0.9133 -0.7728  1.6995
   25MOL0     H 3388  11.876   7.897   4.250 -0.7079  0.2747 -1.8537
   25MOL0     H 3389  11.914   7.770   4.475  2.5219 -2.1942  0.8258
   25MOL0     H 3390  11.818   7.639   4.403 -0.0126 -0.6049 -4.1224
   25MOL0     H 3391  12.057   7.597   4.384 -1.9319 -0.1749  1.4494
   25MOL0     H 3392  12.094   7.736   4.285  2.1737 -2.1362 -0.4857
   25MOL0     H 3393  11.899   7.525   4.210  0.3057 -1.4562  2.8184
   25MOL0     H 3394  11.949   7.668   4.109  1.1917 -1.6076 -1.2389
   25MOL0     H 3395  12.186   7.602   4.139  0.5225 -1.0484  0.3575
   25MOL0     H 3396  12.093   7.487   4.028  0.7574 -3.5331  1.4059
   25MOL0     H 3397  12.168   7.441   4.308 -0.2627  0.2352 -0.0328
   25MOL0     H 3398  12.067   7.338   4.211  0.7035 -0.1953  1.8102
   25MOL0     H 3399  12.261   7.239   3.973  1.6858 -3.3322 -0.2358
   25MOL0     H 3400  12.542   7.232   3.891  1.7261 -1.6592 -0.8726
   25MOL0     H 3401  12.479   7.075   3.951  0.9530 -0.2273 -2.1689
   25MOL0     H 3402  12.710   7.265   4.057  0.8886 -1.6198  2.2761
   25MOL0     H 3403  12.681   7.105   4.119 -0.1152 -2.5587 -2.2069
   25MOL0     H 3404  12.702   7.005   3.907 -1.8065 -0.4512 -2.8627
   25MOL0     H 3405  12.751   7.154   3.828  4.3513 -2.1752 -1.5142
   25MOL0     H 3406  12.901   7.055   4.071 -0.4681 -0.2996 -0.0346
   25MOL0     H 3407  12.963   7.031   3.902  1.0503  1.5115  0.7980
   25MOL0     H 3408  12.978   7.131   3.699 -2.3956  2.1167  0.9548
   25MOL0     H 3409  13.103   7.076   3.498  0.1808 -1.7573  3.5944
   25MOL0     H 3410  13.278   7.112   3.513 -0.6826  0.8726  0.2514
   25MOL0     H 3411  13.173   7.225   3.434  1.9193  0.8992 -0.6530
   25MOL0     H 3412  13.548   7.564   3.480  0.9083  1.6359  0.9882
   25MOL0     H 3413  13.766   7.553   3.350 -0.9365  0.1103 -1.0052
   25MOL0     H 3414  13.951   7.525   3.253 -0.4837 -2.3898  2.0122
   25MOL0     H 3415  13.985   7.644   3.383  0.5787  0.8412 -1.3790
   25MOL0     H 3416  14.226   7.585   3.389  2.1792 -2.0453 -0.4817
   25MOL0     H 3417  14.202   7.463   3.271  1.6587  0.6014  1.3625
   25MOL0     H 3418  14.189   7.751   3.235 -2.3759  0.7467  0.1487
   25MOL0     H 3419  14.120   7.640   3.111 -1.0314  0.8251  0.8940
   25MOL0     H 3420  14.338   7.551   3.054  0.3230 -0.4046  0.7856
   25MOL0     H 3421  14.415   7.614   3.203  1.5715 -1.7477 -0.7794
   25MOL0     H 3422  14.293   7.798   2.978  1.9828  1.5579 -2.5010
   25MOL0     H 3423  14.362   7.850   3.127  0.3035  0.9910 -1.7052
   25MOL0     H 3424  14.505   7.702   2.917 -2.8877 -0.2257  0.7773
   25MOL0     H 3425  14.581   7.753   3.072 -1.1520  0.0456  0.6171
   25MOL0     H 3426  14.544   7.985   3.051 -0.9753  1.4950 -0.9488
   25MOL0     H 3427  14.450   7.963   2.889  1.0667  1.3440  0.0109
   25MOL0     H 3428  14.653   7.859   2.799  0.4530 -4.9401  3.3232
   25MOL0     H 3429  14.737   7.922   2.936 -2.1126 -2.7038 -0.4084
   25MOL0     H 3430  13.933   7.326   3.676  0.0924 -0.3035 -0.4195
   25MOL0     H 3431  13.703   7.292   3.765  2.2264  0.7675  1.4196
   25MOL0     H 3432  13.324   7.444   3.862  3.2902 -2.3552 -1.4145
   25MOL0     H 3433  13.131   7.374   3.997 -1.0023 -1.6569  0.1314
   25MOL0     H 3434  11.462   8.167   4.155  0.1501 -0.5871 -0.7388
   25MOL0     H 3435  11.398   8.317   3.965 -0.2851 -0.8806 -0.7312
   25MOL0     H 3436  11.563   8.545   3.537 -0.5306 -0.3286 -0.8248
   25MOL0     H 3437  11.500   8.761   3.415 -0.7329 -0.7801 -0.1100
   25MOL0     H 3438  11.441   9.000   3.371  0.2718  0.5587 -0.2604
   25MOL0     H 3439  11.347   8.876   3.287 -1.1270  1.8496 -1.0229
   25MOL0     H 3440  11.294   9.095   3.197  0.2966 -0.4773  0.2488
   25MOL0     H 3441  11.255   9.159   3.356  0.9610  0.1093 -0.2827
   25MOL0     H 3442  11.120   8.910   3.216  2.1382  1.1931 -2.0047
   25MOL0     H 3443  11.056   8.997   3.359  0.4887  0.7485  0.2897
   25MOL0     H 3444  11.060   9.122   3.091 -0.2229 -1.9565 -0.5581
   25MOL0     H 3445  10.989   9.190   3.242  0.6952 -0.3994  0.8092
   25MOL0     H 3446  10.730   8.880   3.087 -0.1953  0.1513  0.5210
   25MOL0     H 3447  11.160   8.813   3.666 -0.7756 -1.9811  1.3991
   25MOL0     H 3448  11.247   8.601   3.914  0.0459 -0.1376 -0.4189
   25MOL0     H 3449  11.097   8.661   3.820 -0.5911 -0.3975 -4.7596
   25MOL0     H 3450  11.158   8.509   3.791  0.3116  0.4091  0.3412
   26MOL0     O 3451   7.365   7.104   1.684  0.1350  0.1334  0.3819
   26MOL0     C 3452   7.417   7.000   1.649  0.0847 -0.0879  0.8963
   26MOL0     O 3453   7.354   6.899   1.565 -0.4847 -0.4853  0.5465
   26MOL0     C 3454   7.222   6.924   1.516  0.0699 -0.1750 -0.2510
   26MOL0     C 3455   7.181   7.045   1.448  0.0087  0.5644 -0.5237
   26MOL0     C 3456   7.048   7.065   1.400  0.0388 -0.5819  0.1361
   26MOL0     C 3457   6.954   6.971   1.434 -0.5231 -0.8698  0.9221
   26MOL0     O 3458   6.818   6.985   1.422  0.1032  0.3009  0.2493
   26MOL0     C 3459   6.743   7.109   1.438 -0.1381  0.4998  0.7664
   26MOL0     C 3460   6.589   7.102   1.417 -0.7453 -0.0883 -0.0683
   26MOL0     C 3461   6.513   7.001   1.508 -0.1628 -0.1150 -0.6785
   26MOL0     C 3462   6.375   6.986   1.454  0.5495  0.0661  0.0621
   26MOL0     C 3463   6.292   6.925   1.562 -0.4329  0.1105 -0.0150
   26MOL0     C 3464   6.185   6.837   1.502 -0.6182 -0.9854 -0.2714
   26MOL0     C 3465   6.075   6.918   1.436  0.2049 -0.3314 -0.7284
   26MOL0     C 3466   5.982   6.826   1.353 -0.3437 -0.0138  0.0077
   26MOL0     N 3467   6.046   6.777   1.224  0.7175  0.2413 -0.3612
   26MOL0     C 3468   6.136   6.843   1.144  0.1464  0.1785 -0.1835
   26MOL0     C 3469   6.188   6.752   1.051  0.4055  0.4234  0.4392
   26MOL0     C 3470   6.271   6.794   0.931 -1.3362  0.5590  0.4743
   26MOL0     C 3471   6.425   6.796   0.976  0.4900 -0.0055  0.2095
   26MOL0     C 3472   6.469   6.949   0.963 -0.7321  0.1255 -0.0528
   26MOL0     C 3473   6.610   6.968   0.998 -0.0074  0.0071  0.9996
   26MOL0     O 3474   6.622   7.098   1.047 -0.1194 -0.7877 -0.2375
   26MOL0     C 3475   6.741   7.157   1.032  1.0002  0.1386 -0.7950
   26MOL0     C 3476   6.863   7.092   1.054 -0.3839  0.2843  0.0814
   26MOL0     C 3477   6.992   7.153   1.035 -0.2392  0.0232 -0.4212
   26MOL0     C 3478   7.121   7.067   1.051  0.2298 -0.0104 -0.0477
   26MOL0     C 3479   6.997   7.283   0.992  0.6137  0.4936  0.0332
   26MOL0     C 3480   7.123   7.351   0.967  0.1420  0.4161 -0.3376
   26MOL0     O 3481   7.219   7.336   1.065 -0.0174  0.1997 -0.2587
   26MOL0     C 3482   7.349   7.379   1.041 -0.2256  1.0979 -0.1594
   26MOL0     C 3483   7.395   7.478   0.949 -0.1727  0.2815 -0.4690
   26MOL0     C 3484   7.529   7.519   0.938  0.8589 -0.2841 -0.4445
   26MOL0     C 3485   7.623   7.451   1.014 -0.0327 -0.1161  0.2863
   26MOL0     O 3486   7.754   7.495   0.994  0.4366  0.0516  0.3651
   26MOL0     C 3487   7.854   7.443   1.082  0.3685 -0.3084  0.2501
   26MOL0     C 3488   7.985   7.512   1.032 -0.7618 -0.5830 -0.2181
   26MOL0     C 3489   8.114   7.466   1.110  0.2190 -0.2920  0.6888
   26MOL0     C 3490   8.193   7.367   1.031 -0.2971  0.2556  0.0749
   26MOL0     C 3491   8.332   7.341   1.100  0.2716 -0.2261  0.2571
   26MOL0     C 3492   8.417   7.469   1.136 -0.2717 -0.5597  0.1278
   26MOL0     C 3493   8.555   7.438   1.173  0.4870 -0.3242  0.0947
   26MOL0     C 3494   8.604   7.568   1.243  0.0803 -0.3313  0.2261
   26MOL0    Cl 3495   8.775   7.552   1.300  0.1596 -0.3227  0.1122
   26MOL0     C 3496   7.582   7.347   1.101 -0.0835 -0.9883  0.5520
   26MOL0     C 3497   7.445   7.319   1.122 -0.3064  0.9370  0.3750
   26MOL0     O 3498   7.125   7.430   0.874 -0.6297  0.1668 -0.1241
   26MOL0     C 3499   6.877   7.347   0.964 -0.0088  1.3313 -0.3949
   26MOL0     C 3500   6.752   7.286   0.990 -0.8164  0.6835  0.2171
   26MOL0     N 3501   6.134   6.631   1.088 -0.6150  0.3896 -0.0063
   26MOL0     N 3502   6.049   6.647   1.186  0.2632 -0.0768  0.5805
   26MOL0     C 3503   6.991   6.846   1.486  0.3386 -0.5744 -0.7336
   26MOL0     C 3504   7.126   6.820   1.523  0.7337  0.2497 -0.6262
   26MOL0     C 3505   7.565   6.988   1.672  0.1794  1.5428 -0.1505
   26MOL0     C 3506   7.637   7.107   1.670  0.7148  0.2336 -0.7340
   26MOL0     C 3507   7.774   7.097   1.694  0.4361  0.2591  1.0057
   26MOL0     C 3508   7.833   6.981   1.729 -0.3994 -0.2352  0.0309
   26MOL0     O 3509   7.961   6.975   1.751 -0.3727 -0.2101  0.5020
   26MOL0     C 3510   8.001   6.881   1.838  0.7044  0.1547  0.0492
   26MOL0     C 3511   8.150   6.908   1.880 -0.7106  0.4549  1.0767
   26MOL0     C 3512   8.180   7.040   1.959  0.4193 -0.5567  0.2964
   26MOL0     C 3513   8.330   7.041   2.001  0.3852  0.6817  0.0932
   26MOL0     C 3514   8.422   7.024   1.883 -0.4347  0.1313  0.4293
   26MOL0     C 3515   8.489   6.985   1.789 -0.5102  0.1026 -0.0681
   26MOL0     C 3516   7.754   6.867   1.714 -0.1540 -0.1902  0.5095
   26MOL0     C 3517   7.622   6.861   1.682  0.0908  0.8445  0.4145
   26MOL0     C 3518   7.558   6.729   1.675 -0.1021  0.5711 -0.2819
   26MOL0     H 3519   7.249   7.126   1.424  0.2512 -0.3936 -3.4076
   26MOL0     H 3520   7.028   7.146   1.330  1.4482 -1.3054 -1.1690
   26MOL0     H 3521   6.789   7.179   1.367 -2.6294  1.1521 -0.3071
   26MOL0     H 3522   6.760   7.134   1.543 -0.0178 -1.1394  1.1618
   26MOL0     H 3523   6.556   7.205   1.433  1.9333  0.4707  3.0299
   26MOL0     H 3524   6.573   7.071   1.313 -0.6241 -4.1785  0.9807
   26MOL0     H 3525   6.558   6.902   1.511 -0.9852 -0.5097 -0.8344
   26MOL0     H 3526   6.500   7.041   1.609 -0.5535  2.1399 -1.5477
   26MOL0     H 3527   6.339   7.084   1.420 -1.2309 -0.6828 -0.3186
   26MOL0     H 3528   6.383   6.922   1.365 -3.4161 -0.3470 -0.1822
   26MOL0     H 3529   6.240   6.986   1.636 -4.7136 -2.1720 -0.8073
   26MOL0     H 3530   6.352   6.851   1.617 -3.3272 -2.0908  0.4003
   26MOL0     H 3531   6.231   6.784   1.417  4.2415  0.9124  0.8435
   26MOL0     H 3532   6.145   6.767   1.576  3.2530 -1.1022  1.9324
   26MOL0     H 3533   6.128   6.982   1.365  1.9825 -1.4319 -0.4334
   26MOL0     H 3534   6.027   6.983   1.511  0.2520 -1.0894 -0.0247
   26MOL0     H 3535   5.960   6.742   1.418 -1.1573  0.7445  0.7305
   26MOL0     H 3536   5.887   6.876   1.335 -0.3764  0.0332  0.3047
   26MOL0     H 3537   6.147   6.951   1.147 -0.0145  0.2278 -1.1460
   26MOL0     H 3538   6.235   6.889   0.892  1.3147  1.2673 -0.4715
   26MOL0     H 3539   6.265   6.719   0.851  2.3950  0.2290  0.3263
   26MOL0     H 3540   6.427   6.761   1.079  0.7128 -0.3549  0.0870
   26MOL0     H 3541   6.498   6.735   0.922  1.1318 -0.6230  1.7160
   26MOL0     H 3542   6.458   6.986   0.861  0.8923  2.2888  0.4622
   26MOL0     H 3543   6.400   7.010   1.022 -0.2108 -0.2305  0.9528
   26MOL0     H 3544   6.639   6.904   1.082 -0.8577 -0.1745  1.1656
   26MOL0     H 3545   6.677   6.955   0.912  0.2989  2.0094  0.8795
   26MOL0     H 3546   6.865   6.989   1.089  0.9054  0.0618 -0.5947
   26MOL0     H 3547   7.096   6.961   1.056 -0.6631  0.2013  0.0785
   26MOL0     H 3548   7.167   7.101   1.144 -1.8411  0.1671  0.9777
   26MOL0     H 3549   7.195   7.095   0.975  0.9686  4.0113  1.8616
   26MOL0     H 3550   7.334   7.527   0.875  0.9126  1.0250 -0.8946
   26MOL0     H 3551   7.554   7.602   0.873 -0.2847  1.7244  1.5309
   26MOL0     H 3552   7.838   7.479   1.184  3.1321 -0.6945  0.8961
   26MOL0     H 3553   7.855   7.334   1.075 -1.3677 -0.6962  3.7274
   26MOL0     H 3554   8.004   7.489   0.927  2.2843  1.0460 -0.1280
   26MOL0     H 3555   7.972   7.620   1.048 -1.1320 -0.5250 -0.8852
   26MOL0     H 3556   8.081   7.414   1.201 -3.2744 -1.7136 -1.1644
   26MOL0     H 3557   8.170   7.558   1.127  3.4239 -1.9820 -0.1103
   26MOL0     H 3558   8.217   7.410   0.933  0.5778  0.7780  0.5047
   26MOL0     H 3559   8.144   7.270   1.017  2.2271 -0.9973 -0.9207
   26MOL0     H 3560   8.305   7.295   1.196  1.2868  0.4960  0.9087
   26MOL0     H 3561   8.379   7.257   1.049 -0.9653 -2.1289  2.0922
   26MOL0     H 3562   8.366   7.528   1.213  0.4545 -2.1084  1.8705
   26MOL0     H 3563   8.420   7.531   1.046  0.7207 -1.1801 -0.2900
   26MOL0     H 3564   8.617   7.405   1.089  0.8180 -0.1874  0.2832
   26MOL0     H 3565   8.551   7.352   1.242 -1.1978 -0.8004 -0.5451
   26MOL0     H 3566   8.547   7.612   1.325  0.0285  2.4821 -1.1994
   26MOL0     H 3567   8.599   7.644   1.164 -0.4230 -1.0116 -0.4114
   26MOL0     H 3568   7.652   7.297   1.167 -1.0022 -0.4496  1.9763
   26MOL0     H 3569   7.411   7.257   1.205 -2.5019  2.2197  0.5020
   26MOL0     H 3570   6.887   7.453   0.939  3.2649  2.0604  3.1364
   26MOL0     H 3571   6.661   7.344   0.983 -0.3498  1.4407  0.3044
   26MOL0     H 3572   6.921   6.765   1.500  0.6425 -0.8747 -0.9261
   26MOL0     H 3573   7.140   6.718   1.558 -1.8435 -1.0343 -2.9515
   26MOL0     H 3574   7.591   7.205   1.660  1.3021  0.5922 -0.0678
   26MOL0     H 3575   7.831   7.188   1.682  3.5501 -1.7503 -1.2701
   26MOL0     H 3576   7.938   6.874   1.927 -0.0668 -1.6476 -0.5957
   26MOL0     H 3577   8.002   6.785   1.786  0.8077 -1.8749  3.5028
   26MOL0     H 3578   8.204   6.918   1.785  0.1397  1.7232  1.6636
   26MOL0     H 3579   8.189   6.815   1.921  2.8979 -0.8674 -4.2835
   26MOL0     H 3580   8.152   7.125   1.896  0.5461 -0.4162  0.4299
   26MOL0     H 3581   8.109   7.040   2.042 -1.5028  1.6371 -1.1952
   26MOL0     H 3582   8.348   6.969   2.081 -2.2040  1.2553  1.3220
   26MOL0     H 3583   8.352   7.141   2.038  2.5341 -0.5103  2.2969
   26MOL0     H 3584   8.539   6.957   1.699 -0.0720 -0.6813  0.4059
   26MOL0     H 3585   7.811   6.776   1.720  1.7039  0.8808 -0.0025
   26MOL0     H 3586   7.623   6.651   1.718  0.8096  1.4255 -0.0805
   26MOL0     H 3587   7.460   6.739   1.723 -1.5672  1.2394 -3.2200
   26MOL0     H 3588   7.539   6.700   1.571 -2.4618  3.1540 -0.6711
   27MOL0     O 3589  10.367   5.178   9.155  0.4761  0.1349  0.1078
   27MOL0     C 3590  10.406   5.171   9.272  0.2015 -1.1374  0.0628
   27MOL0     O 3591  10.336   5.205   9.377 -0.6439 -0.8284  0.2050
   27MOL0     C 3592  10.201   5.245   9.367  0.6011 -0.1353  0.7105
   27MOL0     C 3593  10.112   5.206   9.265  0.1575 -0.0336  0.4185
   27MOL0     C 3594   9.970   5.234   9.266 -0.7238 -0.5741  0.4662
   27MOL0     C 3595   9.915   5.306   9.374 -0.1756 -0.5311  0.2183
   27MOL0     O 3596   9.781   5.328   9.368  0.0435  0.4157 -0.0839
   27MOL0     C 3597   9.746   5.458   9.412  1.3557 -0.6994  0.7676
   27MOL0     C 3598   9.798   5.565   9.315 -0.2248  0.0128 -0.1918
   27MOL0     C 3599   9.764   5.547   9.171  0.3729 -0.0008  0.6193
   27MOL0     C 3600   9.738   5.675   9.099 -0.5188 -0.9793  0.2120
   27MOL0     C 3601   9.694   5.643   8.955 -0.9087  0.8192 -0.3658
   27MOL0     C 3602   9.660   5.778   8.883 -1.1030  0.4701 -0.1409
   27MOL0     C 3603   9.603   5.761   8.740 -0.5505 -0.0136 -0.0225
   27MOL0     C 3604   9.700   5.684   8.644  0.1300 -0.9554  0.7457
   27MOL0     N 3605   9.808   5.783   8.596  0.1745  0.5750  0.4253
   27MOL0     C 3606   9.926   5.805   8.646  0.1436  0.0731 -0.8038
   27MOL0     C 3607   9.986   5.895   8.564 -0.0266  0.2177  0.1649
   27MOL0     C 3608  10.131   5.937   8.568 -0.5292 -0.3896 -0.3906
   27MOL0     C 3609  10.161   5.986   8.710 -0.7739 -0.8201  1.1367
   27MOL0     C 3610  10.303   6.050   8.729  0.0453 -0.2372 -0.8552
   27MOL0     C 3611  10.304   6.102   8.873  0.1040 -0.0407 -0.3272
   27MOL0     O 3612  10.440   6.148   8.891  0.2348 -0.0496 -0.1780
   27MOL0     C 3613  10.474   6.198   9.015  0.7022 -0.1730 -0.3764
   27MOL0     C 3614  10.390   6.206   9.128  0.1396 -0.3648  0.1560
   27MOL0     C 3615  10.440   6.241   9.255 -1.5304 -0.1230  0.4980
   27MOL0     C 3616  10.345   6.259   9.369  0.3873 -0.1834  0.2821
   27MOL0     C 3617  10.582   6.266   9.274  0.6912 -0.0050 -0.0837
   27MOL0     C 3618  10.637   6.318   9.406  0.3964 -0.0519  0.0391
   27MOL0     O 3619  10.765   6.290   9.435  0.1350  0.5445 -0.3968
   27MOL0     C 3620  10.855   6.351   9.530  0.5835  0.4412  0.5111
   27MOL0     C 3621  10.990   6.359   9.485 -0.1640 -0.0169  0.5647
   27MOL0     C 3622  11.089   6.401   9.566  0.1468  0.4525  0.7840
   27MOL0     C 3623  11.066   6.408   9.701 -0.9192 -0.6015 -0.2009
   27MOL0     O 3624  11.178   6.446   9.771  0.4245 -0.0531 -0.5825
   27MOL0     C 3625  11.167   6.461   9.912  0.7971 -0.0771 -0.5719
   27MOL0     C 3626  11.197   6.321   9.980  0.1962  0.4291  0.3097
   27MOL0     C 3627  11.220   6.342  10.130  0.6786 -0.5042 -0.0249
   27MOL0     C 3628  11.230   6.215  10.216  0.0678  0.5826 -0.3722
   27MOL0     C 3629  11.109   6.115  10.216  0.4027 -0.4262  0.1354
   27MOL0     C 3630  11.131   5.982  10.276  0.0012  0.0294  0.9630
   27MOL0     C 3631  11.109   5.997  10.428  0.0752  0.0753 -0.7459
   27MOL0     C 3632  11.117   5.853  10.492 -0.0615  0.1384  0.3951
   27MOL0    Cl 3633  10.996   5.737  10.418  0.3185 -0.2175  0.0766
   27MOL0     C 3634  10.934   6.397   9.751 -0.3954  0.3172  1.9982
   27MOL0     C 3635  10.822   6.372   9.664  0.5903  0.0247  0.4946
   27MOL0     O 3636  10.563   6.385   9.479 -1.2467 -0.5448  0.7573
   27MOL0     C 3637  10.668   6.257   9.165  0.3967 -0.2286 -0.6336
   27MOL0     C 3638  10.618   6.219   9.039  0.1205 -0.6379  0.3405
   27MOL0     N 3639   9.891   5.949   8.475 -0.0678  0.5732 -0.3091
   27MOL0     N 3640   9.785   5.870   8.488  0.8427 -0.5644 -0.1449
   27MOL0     C 3641   9.997   5.351   9.480  0.2755  0.7108  0.2728
   27MOL0     C 3642  10.139   5.321   9.469  0.1658 -0.3465  0.1770
   27MOL0     C 3643  10.552   5.135   9.280 -0.5486 -0.1880 -0.2952
   27MOL0     C 3644  10.638   5.185   9.184  0.2764  0.2226  0.4611
   27MOL0     C 3645  10.776   5.167   9.195 -0.2896  0.7278  0.4610
   27MOL0     C 3646  10.832   5.090   9.296  0.3620  0.6136 -0.3386
   27MOL0     O 3647  10.961   5.089   9.310 -0.4366  0.1325 -0.6638
   27MOL0     C 3648  11.034   5.027   9.418 -0.1386  0.4834  0.1632
   27MOL0     C 3649  11.036   5.113   9.552 -0.2823 -0.2463 -0.5684
   27MOL0     C 3650  11.088   5.033   9.669  0.2944 -0.1358  0.9210
   27MOL0     C 3651  11.061   5.120   9.797  0.1519  0.9574  0.5797
   27MOL0     C 3652  11.123   5.250   9.800 -0.4200  0.3608  0.4649
   27MOL0     C 3653  11.169   5.364   9.788 -0.1269  0.1884 -0.6700
   27MOL0     C 3654  10.749   5.036   9.392  0.2984 -0.4834  0.4896
   27MOL0     C 3655  10.610   5.059   9.388  0.1453  0.5504 -0.4259
   27MOL0     C 3656  10.524   5.003   9.493  0.1044  0.2776 -0.4168
   27MOL0     H 3657  10.136   5.151   9.175 -1.0231  2.6036 -1.6582
   27MOL0     H 3658   9.896   5.208   9.191 -1.1997  2.2885 -0.1368
   27MOL0     H 3659   9.778   5.487   9.513  1.3575 -0.1924  0.6279
   27MOL0     H 3660   9.638   5.469   9.403  1.5647  0.6563 -0.7693
   27MOL0     H 3661   9.737   5.651   9.343  1.8786  0.9370  1.9257
   27MOL0     H 3662   9.903   5.590   9.330 -0.6907  1.6689  0.5618
   27MOL0     H 3663   9.855   5.506   9.125 -0.0109 -0.7697  0.5153
   27MOL0     H 3664   9.685   5.472   9.161  0.9859 -0.7751  1.4334
   27MOL0     H 3665   9.653   5.722   9.149 -0.6133 -0.8142 -0.1042
   27MOL0     H 3666   9.823   5.744   9.100 -1.3406  0.2726 -3.3566
   27MOL0     H 3667   9.608   5.577   8.961 -0.4848  0.3514  1.0008
   27MOL0     H 3668   9.774   5.579   8.917  1.0228  1.7699  1.7923
   27MOL0     H 3669   9.585   5.823   8.949 -2.1288 -1.9848  0.4526
   27MOL0     H 3670   9.743   5.849   8.888  2.2535 -3.1994  2.0585
   27MOL0     H 3671   9.576   5.858   8.697  0.1795  0.2123  0.0265
   27MOL0     H 3672   9.513   5.698   8.741 -0.8437  0.3528 -1.2001
   27MOL0     H 3673   9.739   5.587   8.676  1.6214 -0.4768  0.4414
   27MOL0     H 3674   9.639   5.657   8.557 -0.7548  0.4219  0.9029
   27MOL0     H 3675   9.974   5.740   8.719 -0.1949 -0.8046 -1.3537
   27MOL0     H 3676  10.153   6.013   8.492  0.5967  0.2141  0.4986
   27MOL0     H 3677  10.191   5.851   8.538  1.0408 -0.2997  2.1560
   27MOL0     H 3678  10.088   6.062   8.742  0.3977  0.1175  1.6823
   27MOL0     H 3679  10.149   5.900   8.776 -1.9713 -0.1408  1.8616
   27MOL0     H 3680  10.376   5.970   8.715 -0.0296 -0.7895  1.3933
   27MOL0     H 3681  10.317   6.137   8.664  0.1600 -1.4491 -2.4941
   27MOL0     H 3682  10.228   6.180   8.876 -1.4410 -1.5002 -0.3799
   27MOL0     H 3683  10.283   6.022   8.945 -1.1392  0.6515  0.0989
   27MOL0     H 3684  10.284   6.183   9.121  0.4327 -1.4925 -0.8288
   27MOL0     H 3685  10.381   6.197   9.452 -1.5346 -1.5231  0.1796
   27MOL0     H 3686  10.244   6.247   9.329  0.8895  2.4944 -2.1085
   27MOL0     H 3687  10.342   6.362   9.406  2.5805  0.1165 -0.2510
   27MOL0     H 3688  11.006   6.349   9.378 -0.0187 -0.1003  0.5945
   27MOL0     H 3689  11.179   6.435   9.516 -0.8158  1.0586 -0.6118
   27MOL0     H 3690  11.237   6.537   9.948  1.6606 -0.8115 -0.6589
   27MOL0     H 3691  11.072   6.509   9.939  2.1145  1.8045  0.9699
   27MOL0     H 3692  11.116   6.247   9.975  0.1924  0.5338 -1.6363
   27MOL0     H 3693  11.284   6.275   9.932 -0.4313 -2.2628  1.5530
   27MOL0     H 3694  11.132   6.395  10.168  0.3838 -1.8600  1.2684
   27MOL0     H 3695  11.311   6.399  10.146 -0.4398  0.9068  1.6007
   27MOL0     H 3696  11.258   6.241  10.318  3.1576 -1.9430 -0.4356
   27MOL0     H 3697  11.313   6.154  10.181  0.0149  0.1259  0.2871
   27MOL0     H 3698  11.024   6.166  10.261 -0.3911 -1.6847  0.1158
   27MOL0     H 3699  11.073   6.097  10.115 -0.7440 -1.5498  0.7108
   27MOL0     H 3700  11.235   5.952  10.257 -0.1859 -0.2324  0.3203
   27MOL0     H 3701  11.073   5.902  10.230 -0.1139 -1.2410  3.1791
   27MOL0     H 3702  11.003   6.024  10.434  0.6561  2.4129 -0.3850
   27MOL0     H 3703  11.173   6.065  10.485  1.1132 -0.7092 -0.9518
   27MOL0     H 3704  11.098   5.867  10.598  0.3537 -0.3566  0.5405
   27MOL0     H 3705  11.214   5.808  10.470 -1.2719 -2.0531 -0.9165
   27MOL0     H 3706  10.909   6.395   9.856 -2.4153  0.9828  1.5706
   27MOL0     H 3707  10.728   6.341   9.709  1.1059 -2.9590 -0.3152
   27MOL0     H 3708  10.773   6.281   9.179  0.2298 -0.7651  2.1782
   27MOL0     H 3709  10.686   6.238   8.957 -2.5377  3.2183 -1.2454
   27MOL0     H 3710   9.957   5.411   9.562  0.4978  1.2648 -0.0141
   27MOL0     H 3711  10.191   5.347   9.560 -0.0393 -3.1439  1.2035
   27MOL0     H 3712  10.595   5.236   9.097 -2.2180  0.7116  1.8786
   27MOL0     H 3713  10.863   5.206   9.143  1.3656 -1.6460  1.2891
   27MOL0     H 3714  11.000   4.926   9.446  0.4422 -0.0429 -0.9468
   27MOL0     H 3715  11.137   5.007   9.387 -0.9492 -1.5680 -1.4607
   27MOL0     H 3716  10.933   5.150   9.563 -0.2732 -0.4976  0.4397
   27MOL0     H 3717  11.107   5.196   9.548  0.0883 -0.3950  1.6108
   27MOL0     H 3718  11.022   4.946   9.681  0.0894 -0.0362  0.5353
   27MOL0     H 3719  11.192   5.004   9.652  0.4379  1.9885 -2.9745
   27MOL0     H 3720  11.084   5.062   9.887 -0.0539  0.1708  0.1358
   27MOL0     H 3721  10.955   5.147   9.806  0.2349  1.3436  0.4175
   27MOL0     H 3722  11.208   5.462   9.772 -1.4618  1.1038  1.3216
   27MOL0     H 3723  10.785   4.974   9.474  0.9585  1.0866  1.4423
   27MOL0     H 3724  10.587   4.930   9.544 -0.4233  0.0568 -0.0644
   27MOL0     H 3725  10.499   5.079   9.568  2.6229 -2.8329  4.0478
   27MOL0     H 3726  10.433   4.955   9.455  1.2692 -0.6231 -2.1840
   28MOL0     O 3727   8.442   8.187   2.356 -0.5521  0.1814 -0.7632
   28MOL0     C 3728   8.360   8.151   2.440 -0.1083  0.1172  0.4693
   28MOL0     O 3729   8.352   8.033   2.511  0.3959  0.0421  0.2276
   28MOL0     C 3730   8.459   7.951   2.535  0.8671  0.0338  0.8728
   28MOL0     C 3731   8.531   7.962   2.653  0.1450  0.8779 -0.5448
   28MOL0     C 3732   8.630   7.875   2.679 -0.0634  0.7264  0.5698
   28MOL0     C 3733   8.653   7.766   2.600  0.2699  0.1662  0.3143
   28MOL0     O 3734   8.741   7.671   2.648 -0.8971 -0.3923  0.0127
   28MOL0     C 3735   8.854   7.644   2.571 -0.6114  0.1250 -0.4496
   28MOL0     C 3736   8.899   7.497   2.592 -0.3640 -0.4228 -0.4244
   28MOL0     C 3737   8.977   7.486   2.724  0.0370  0.5080  0.4622
   28MOL0     C 3738   9.051   7.347   2.737 -0.2710 -0.5904  0.0220
   28MOL0     C 3739   9.175   7.330   2.646  0.8675  0.3511 -1.0030
   28MOL0     C 3740   9.308   7.306   2.711  0.2454  0.4546  0.3187
   28MOL0     C 3741   9.417   7.230   2.641  0.2415 -0.0637 -0.7071
   28MOL0     C 3742   9.552   7.294   2.677 -1.0011  0.1897 -0.0511
   28MOL0     N 3743   9.669   7.231   2.629  0.6882  0.1938  0.0196
   28MOL0     C 3744   9.673   7.157   2.516 -0.0008 -0.0902  0.0178
   28MOL0     C 3745   9.796   7.103   2.520  0.0606 -0.0216  0.4804
   28MOL0     C 3746   9.844   7.010   2.411  0.2023 -0.2796 -0.7917
   28MOL0     C 3747   9.984   7.023   2.350 -0.1558  0.2764 -0.3654
   28MOL0     C 3748  10.101   7.015   2.450 -0.6446 -0.3506  0.0927
   28MOL0     C 3749  10.228   7.083   2.396 -0.3182 -0.2827  0.5226
   28MOL0     O 3750  10.289   7.012   2.286  0.0223  0.2469  0.3184
   28MOL0     C 3751  10.420   7.029   2.264  0.1232 -0.0402  0.1208
   28MOL0     C 3752  10.465   7.078   2.136 -0.1790  0.1093 -0.0771
   28MOL0     C 3753  10.595   7.093   2.104 -0.3101 -0.1237  0.0247
   28MOL0     C 3754  10.640   7.141   1.962 -0.0151 -0.0606 -0.6341
   28MOL0     C 3755  10.700   7.056   2.201  0.2534 -0.8846  0.1159
   28MOL0     C 3756  10.843   7.096   2.177 -0.4039 -0.0181  0.8661
   28MOL0     O 3757  10.870   7.224   2.165 -0.3712 -0.2397  0.3163
   28MOL0     C 3758  10.999   7.271   2.141 -0.5255 -0.3783 -0.6633
   28MOL0     C 3759  11.025   7.404   2.197  0.8405 -0.4384  0.1308
   28MOL0     C 3760  11.132   7.479   2.173 -0.7332 -0.2678 -0.4994
   28MOL0     C 3761  11.227   7.429   2.082 -0.0455 -0.6171  0.2985
   28MOL0     O 3762  11.333   7.510   2.041  0.5029 -0.7372 -0.5037
   28MOL0     C 3763  11.416   7.553   2.151 -0.5802 -0.5731  0.0506
   28MOL0     C 3764  11.551   7.601   2.101  0.7439  0.0244 -0.0576
   28MOL0     C 3765  11.678   7.538   2.163 -0.2791  0.0154  1.0099
   28MOL0     C 3766  11.796   7.593   2.098  0.4099 -0.3266  0.0025
   28MOL0     C 3767  11.938   7.537   2.148  0.0639 -0.7488  0.4041
   28MOL0     C 3768  12.047   7.640   2.119  0.3424 -0.9510 -0.7510
   28MOL0     C 3769  12.174   7.590   2.178 -0.3086 -0.0665 -0.5300
   28MOL0     C 3770  12.200   7.442   2.152  0.5667  0.5311  1.1448
   28MOL0    Cl 3771  12.357   7.395   2.210  0.0657  0.3362  0.3713
   28MOL0     C 3772  11.206   7.306   2.014  0.6355 -0.6903  0.3843
   28MOL0     C 3773  11.096   7.229   2.047 -0.0205 -0.0623  0.5361
   28MOL0     O 3774  10.928   7.009   2.174  0.7874  0.3016  0.0090
   28MOL0     C 3775  10.652   7.006   2.323 -0.4442 -0.0088 -0.3727
   28MOL0     C 3776  10.517   6.986   2.351  0.0019 -0.1968 -0.1286
   28MOL0     N 3777   9.861   7.133   2.636  0.2568  0.2773 -0.3939
   28MOL0     N 3778   9.776   7.202   2.706 -0.2472  0.8031  0.2620
   28MOL0     C 3779   8.586   7.760   2.475  1.2321 -0.4680 -0.3912
   28MOL0     C 3780   8.482   7.847   2.437  0.0128  0.0727 -0.7498
   28MOL0     C 3781   8.254   8.257   2.459 -0.1873  0.5726 -0.3662
   28MOL0     C 3782   8.252   8.375   2.379 -0.4006 -0.2738  0.2286
   28MOL0     C 3783   8.144   8.464   2.384 -0.7798  0.5136  0.5575
   28MOL0     C 3784   8.047   8.446   2.481  0.0893  0.8576  0.0766
   28MOL0     O 3785   7.948   8.526   2.497  0.3145 -0.3109 -0.0056
   28MOL0     C 3786   7.924   8.632   2.402 -0.7943 -0.3000  0.7957
   28MOL0     C 3787   7.784   8.666   2.391 -0.2421  1.0377 -0.2579
   28MOL0     C 3788   7.761   8.790   2.321 -0.6237 -0.1667  1.1958
   28MOL0     C 3789   7.615   8.827   2.302  0.0657 -0.1058  0.0769
   28MOL0     C 3790   7.561   8.886   2.422 -1.0588  0.4590 -0.2488
   28MOL0     C 3791   7.517   8.925   2.524 -0.1731 -0.4970  0.0139
   28MOL0     C 3792   8.063   8.348   2.577 -1.3189  0.8748  0.0973
   28MOL0     C 3793   8.157   8.244   2.566  0.1568 -0.9222 -0.6464
   28MOL0     C 3794   8.147   8.134   2.667 -0.4561 -0.4024 -0.3859
   28MOL0     H 3795   8.526   8.047   2.721 -2.1499 -0.0453  0.5734
   28MOL0     H 3796   8.691   7.897   2.766  2.3457 -0.8089 -0.6281
   28MOL0     H 3797   8.932   7.714   2.605 -1.6158  1.9202 -1.6485
   28MOL0     H 3798   8.835   7.663   2.465  1.2136 -2.0988 -1.2561
   28MOL0     H 3799   8.821   7.425   2.567 -0.6347  0.4749 -2.4306
   28MOL0     H 3800   8.968   7.481   2.509  0.0583  1.0540 -0.3945
   28MOL0     H 3801   9.046   7.570   2.709  1.1034 -0.7868 -2.6820
   28MOL0     H 3802   8.907   7.512   2.804  0.9629  0.5965  1.2542
   28MOL0     H 3803   9.064   7.332   2.845 -1.7090 -1.1720  0.1353
   28MOL0     H 3804   8.978   7.271   2.711  1.0585 -1.7802 -0.3792
   28MOL0     H 3805   9.178   7.421   2.587 -0.7456  1.4318  0.4527
   28MOL0     H 3806   9.148   7.249   2.578  0.9562  0.9630 -1.7771
   28MOL0     H 3807   9.350   7.405   2.729  1.4450  0.0045  0.0957
   28MOL0     H 3808   9.300   7.255   2.807  1.3582 -1.1069 -0.3703
   28MOL0     H 3809   9.405   7.239   2.532 -0.1599  0.8467 -0.5958
   28MOL0     H 3810   9.411   7.121   2.654 -1.9427  0.3371  2.9737
   28MOL0     H 3811   9.550   7.399   2.647  2.1934  0.3815  0.0802
   28MOL0     H 3812   9.552   7.273   2.785 -1.2778  0.7123  0.0512
   28MOL0     H 3813   9.603   7.146   2.434 -1.9329  0.9136  1.4695
   28MOL0     H 3814   9.778   7.005   2.324  0.2200 -1.7219 -0.7552
   28MOL0     H 3815   9.842   6.912   2.459  0.4554 -0.1678 -0.5471
   28MOL0     H 3816   9.999   6.953   2.268  0.0808  1.3306 -1.2459
   28MOL0     H 3817   9.995   7.123   2.306  0.0544  0.3987 -0.0413
   28MOL0     H 3818  10.088   7.074   2.541  0.4328  0.3296 -0.1854
   28MOL0     H 3819  10.126   6.911   2.472 -1.4095 -0.7880 -0.9561
   28MOL0     H 3820  10.201   7.187   2.376  0.1194  0.2425  2.4764
   28MOL0     H 3821  10.303   7.087   2.476 -0.4196  1.8811  0.5747
   28MOL0     H 3822  10.383   7.103   2.069 -0.4274  3.2326  1.2468
   28MOL0     H 3823  10.721   7.074   1.932 -0.4869 -2.6357  3.0575
   28MOL0     H 3824  10.680   7.242   1.964  2.3106 -0.9278  0.5018
   28MOL0     H 3825  10.559   7.147   1.890 -0.4677 -0.1028 -0.1389
   28MOL0     H 3826  10.938   7.442   2.250  1.2627 -0.8093  1.1154
   28MOL0     H 3827  11.137   7.577   2.220  0.0001 -1.3995  2.0062
   28MOL0     H 3828  11.363   7.636   2.199 -0.4041 -1.0572  1.1046
   28MOL0     H 3829  11.428   7.477   2.228 -2.3582 -3.0554 -1.9470
   28MOL0     H 3830  11.545   7.583   1.993 -0.9592  3.6341 -0.7353
   28MOL0     H 3831  11.555   7.710   2.110 -0.1676 -0.0674  1.9551
   28MOL0     H 3832  11.671   7.430   2.144 -0.6519  0.3425 -0.9323
   28MOL0     H 3833  11.684   7.566   2.269 -2.0065 -0.4588  1.2715
   28MOL0     H 3834  11.798   7.701   2.109 -2.3829 -0.4203  3.5538
   28MOL0     H 3835  11.785   7.571   1.991 -1.0529 -0.6707  0.2013
   28MOL0     H 3836  11.924   7.514   2.254 -3.2377  0.2970  0.3146
   28MOL0     H 3837  11.960   7.451   2.085  4.6645  1.3054 -1.2145
   28MOL0     H 3838  12.032   7.736   2.168 -0.9220 -2.7055  2.6364
   28MOL0     H 3839  12.057   7.657   2.011  2.5587 -1.1555 -0.6146
   28MOL0     H 3840  12.172   7.608   2.286  1.9486  1.1759 -0.6231
   28MOL0     H 3841  12.261   7.652   2.155  0.1347 -0.6132 -0.3580
   28MOL0     H 3842  12.190   7.403   2.050  0.1341  3.9549 -0.2549
   28MOL0     H 3843  12.125   7.379   2.200  0.9740 -1.7044 -0.9798
   28MOL0     H 3844  11.276   7.282   1.935 -1.9914  2.1613 -3.1358
   28MOL0     H 3845  11.066   7.139   1.993  1.0651  0.1268 -0.4156
   28MOL0     H 3846  10.715   6.971   2.403 -1.1798 -0.8104 -0.1274
   28MOL0     H 3847  10.494   6.935   2.444 -0.5213 -3.5787 -1.9311
   28MOL0     H 3848   8.618   7.671   2.422  3.2915  0.3081 -0.5735
   28MOL0     H 3849   8.420   7.816   2.354 -0.1826 -1.9410  0.0820
   28MOL0     H 3850   8.326   8.383   2.300 -0.6737 -2.2746 -0.2979
   28MOL0     H 3851   8.159   8.539   2.306  2.1043 -0.6800 -0.1666
   28MOL0     H 3852   7.979   8.721   2.435 -2.1698  0.3023  1.5828
   28MOL0     H 3853   7.953   8.605   2.300  0.1021 -0.1047  0.9918
   28MOL0     H 3854   7.747   8.672   2.493  2.1241 -3.2219  1.1111
   28MOL0     H 3855   7.727   8.582   2.351  0.9140 -0.8419  1.7619
   28MOL0     H 3856   7.818   8.865   2.378  1.2192 -1.0455  0.5802
   28MOL0     H 3857   7.811   8.768   2.227  3.3000 -1.0176  3.2643
   28MOL0     H 3858   7.563   8.735   2.273  3.0514 -1.7286 -0.5547
   28MOL0     H 3859   7.610   8.912   2.234  2.5863 -0.2372 -0.3564
   28MOL0     H 3860   7.474   8.963   2.615 -4.8565 -1.1429 -1.6306
   28MOL0     H 3861   8.000   8.352   2.665  1.4547 -0.9951  2.3377
   28MOL0     H 3862   8.235   8.120   2.731 -0.5142 -1.2626 -0.4746
   28MOL0     H 3863   8.059   8.131   2.733 -0.0952 -2.5054  0.0778
   28MOL0     H 3864   8.131   8.044   2.606 -4.0496  1.1760 -2.0508
   29MOL0     O 3865   0.722   2.330   3.352 -0.2857 -0.0459  0.3023
   29MOL0     C 3866   0.635   2.375   3.271 -0.5423 -0.1841 -0.7858
   29MOL0     O 3867   0.660   2.453   3.160 -0.2633 -0.2765 -0.1469
   29MOL0     C 3868   0.788   2.484   3.116  1.1112  0.7230  0.4796
   29MOL0     C 3869   0.798   2.600   3.037 -0.3373 -0.6780  1.0499
   29MOL0     C 3870   0.930   2.644   3.005  0.4413 -1.0987 -0.0718
   29MOL0     C 3871   1.039   2.567   3.020 -0.0527  0.2617 -0.2572
   29MOL0     O 3872   1.168   2.610   2.985  0.1670  0.2285  0.8089
   29MOL0     C 3873   1.181   2.678   2.858 -0.2043  0.6072  0.0955
   29MOL0     C 3874   1.311   2.626   2.805  0.0451  0.7646 -0.8075
   29MOL0     C 3875   1.432   2.699   2.880  0.1256 -0.0564  0.8097
   29MOL0     C 3876   1.558   2.637   2.824  0.6519 -0.2823  0.6649
   29MOL0     C 3877   1.680   2.712   2.868 -0.4906  0.2896 -0.3060
   29MOL0     C 3878   1.806   2.668   2.802 -0.1136 -0.1108 -0.2672
   29MOL0     C 3879   1.924   2.753   2.843  0.3617 -0.2248  0.4843
   29MOL0     C 3880   2.042   2.659   2.877 -0.0737 -0.3083  0.3350
   29MOL0     N 3881   2.170   2.725   2.868 -0.1368 -0.4870  0.6424
   29MOL0     C 3882   2.219   2.812   2.961 -0.1041 -0.7134 -0.2348
   29MOL0     C 3883   2.344   2.845   2.917 -0.1944  0.1953  0.1875
   29MOL0     C 3884   2.430   2.956   2.977 -0.4353  0.4114  0.9152
   29MOL0     C 3885   2.581   2.925   2.974  0.0517  0.0429  0.7513
   29MOL0     C 3886   2.646   2.999   2.852 -0.6669 -0.1045  0.0160
   29MOL0     C 3887   2.790   2.965   2.827 -0.1492  0.0897 -0.3262
   29MOL0     O 3888   2.862   2.985   2.949  0.5041 -0.4640  0.0872
   29MOL0     C 3889   2.993   2.953   2.973 -0.8766  0.2473 -0.2035
   29MOL0     C 3890   3.049   2.964   3.096  0.3267 -0.0208 -0.1386
   29MOL0     C 3891   3.180   2.929   3.130 -0.3253 -0.0413  0.0709
   29MOL0     C 3892   3.225   2.934   3.279 -0.2838  1.0244  1.1461
   29MOL0     C 3893   3.267   2.890   3.024 -0.1970 -1.0820  0.5124
   29MOL0     C 3894   3.415   2.860   3.032  0.7877  0.4366  0.1666
   29MOL0     O 3895   3.469   2.804   2.924  0.4043 -0.3894 -0.1927
   29MOL0     C 3896   3.606   2.778   2.918 -0.2628 -0.1095 -0.4424
   29MOL0     C 3897   3.689   2.886   2.903 -0.0986  0.1528  0.4861
   29MOL0     C 3898   3.831   2.860   2.903  0.3546 -0.5229  1.1850
   29MOL0     C 3899   3.886   2.731   2.914 -0.4823  0.1289  0.1398
   29MOL0     O 3900   4.025   2.725   2.919  0.4397  0.5734  0.0694
   29MOL0     C 3901   4.079   2.595   2.921 -0.3241 -0.9105  0.1211
   29MOL0     C 3902   4.216   2.598   3.006  0.6576  0.0235  0.1086
   29MOL0     C 3903   4.301   2.718   2.967 -0.4080 -0.7930  0.5805
   29MOL0     C 3904   4.440   2.728   3.026  0.1333  0.7528  0.2810
   29MOL0     C 3905   4.497   2.869   2.997  0.3031  1.2838 -0.5083
   29MOL0     C 3906   4.440   2.968   3.103 -0.1671 -0.0514 -0.6242
   29MOL0     C 3907   4.525   3.095   3.128 -0.0232 -0.0937  0.0287
   29MOL0     C 3908   4.668   3.059   3.172 -0.1372 -0.2353 -0.0471
   29MOL0    Cl 3909   4.775   3.199   3.219 -0.5949 -0.1864 -0.1459
   29MOL0     C 3910   3.787   2.626   2.917  0.8223  0.7167 -0.9530
   29MOL0     C 3911   3.653   2.653   2.925 -0.1563 -0.2179  0.2766
   29MOL0     O 3912   3.470   2.877   3.143  0.0522  0.0642  0.2014
   29MOL0     C 3913   3.208   2.875   2.896  0.4541 -0.4177  0.2301
   29MOL0     C 3914   3.075   2.910   2.869  0.3183 -0.0251  0.2440
   29MOL0     N 3915   2.364   2.779   2.792  0.0654  0.4783  0.7029
   29MOL0     N 3916   2.254   2.718   2.756  0.2711 -0.2654 -0.3625
   29MOL0     C 3917   1.019   2.451   3.082  0.3722 -0.2899  0.8240
   29MOL0     C 3918   0.902   2.408   3.136 -0.2221 -0.0394 -0.8886
   29MOL0     C 3919   0.496   2.342   3.302  0.1001 -0.1347  0.5228
   29MOL0     C 3920   0.398   2.430   3.244 -0.2504 -0.1889  0.7414
   29MOL0     C 3921   0.262   2.406   3.262 -0.9483 -0.0355  0.1182
   29MOL0     C 3922   0.218   2.288   3.320  0.9236 -0.0986 -0.7944
   29MOL0     O 3923   0.079   2.266   3.330  0.6328 -0.1849  0.2988
   29MOL0     C 3924   0.024   2.167   3.416 -0.3788  0.1148  1.2291
   29MOL0     C 3925  -0.115   2.207   3.477 -0.6604 -0.2941  0.0812
   29MOL0     C 3926  -0.098   2.319   3.587  0.7813  0.3176  0.9364
   29MOL0     C 3927  -0.220   2.325   3.675  0.6899  0.3131 -0.6247
   29MOL0     C 3928  -0.217   2.418   3.784  0.0279 -0.1132  1.0617
   29MOL0     C 3929  -0.204   2.503   3.872 -0.0982 -0.1267 -0.4102
   29MOL0     C 3930   0.316   2.201   3.367 -0.1137 -0.3294 -0.2309
   29MOL0     C 3931   0.453   2.224   3.377 -0.8599  0.4403 -0.1244
   29MOL0     C 3932   0.540   2.133   3.467  1.2856  0.3863  0.6360
   29MOL0     H 3933   0.711   2.659   3.007  0.1607 -1.1931 -1.7333
   29MOL0     H 3934   0.940   2.746   2.969  2.3717 -1.4352 -0.6185
   29MOL0     H 3935   1.201   2.786   2.858  2.2099  0.2295  1.2286
   29MOL0     H 3936   1.106   2.662   2.781  1.7728  0.3818 -1.8828
   29MOL0     H 3937   1.315   2.519   2.828 -2.4644  0.8719  0.4486
   29MOL0     H 3938   1.303   2.638   2.697 -2.0832 -2.0984 -1.1073
   29MOL0     H 3939   1.442   2.805   2.859  0.4585 -0.4747 -1.4326
   29MOL0     H 3940   1.425   2.682   2.988  1.8526  0.9192  1.1052
   29MOL0     H 3941   1.559   2.535   2.865 -2.8451 -0.6738  0.0463
   29MOL0     H 3942   1.552   2.624   2.716 -0.7229 -3.9231  1.0473
   29MOL0     H 3943   1.697   2.697   2.975  0.0391 -5.7406 -0.9190
   29MOL0     H 3944   1.663   2.818   2.848 -1.4658 -0.0670 -1.4720
   29MOL0     H 3945   1.824   2.561   2.812 -0.0923 -0.1122 -0.3121
   29MOL0     H 3946   1.797   2.686   2.694 -1.2449 -2.4045 -0.6249
   29MOL0     H 3947   1.897   2.811   2.932  0.9825 -0.3142  0.7380
   29MOL0     H 3948   1.948   2.821   2.760 -1.9664  0.3958  0.2405
   29MOL0     H 3949   2.024   2.619   2.977  0.3842  1.1730  1.0417
   29MOL0     H 3950   2.044   2.573   2.809  1.9791  0.0963 -0.1907
   29MOL0     H 3951   2.157   2.852   3.040 -1.2720  2.8538 -2.6865
   29MOL0     H 3952   2.396   2.977   3.079 -1.3064  1.0458  0.5133
   29MOL0     H 3953   2.409   3.042   2.913  0.9297 -0.7857 -1.2455
   29MOL0     H 3954   2.620   2.968   3.067 -0.1784  0.8587  0.4789
   29MOL0     H 3955   2.602   2.817   2.977  2.7670  0.4998  0.6064
   29MOL0     H 3956   2.592   2.976   2.760  0.5642 -3.7901  0.0570
   29MOL0     H 3957   2.652   3.106   2.872  5.8790  0.2953 -1.7856
   29MOL0     H 3958   2.787   2.863   2.788 -1.2581  0.6614 -1.8582
   29MOL0     H 3959   2.832   3.027   2.748  2.4128 -1.4778 -0.3103
   29MOL0     H 3960   2.980   2.991   3.175 -0.3074  2.5628 -1.4933
   29MOL0     H 3961   3.286   2.845   3.298 -1.5453  0.0715  0.8897
   29MOL0     H 3962   3.138   2.924   3.345 -2.5103 -0.7673 -1.7983
   29MOL0     H 3963   3.289   3.022   3.287  1.9175 -0.2140 -1.2793
   29MOL0     H 3964   3.644   2.981   2.875 -0.4574  0.6225  2.5128
   29MOL0     H 3965   3.899   2.943   2.885 -1.5028  0.9387  0.6902
   29MOL0     H 3966   4.011   2.521   2.966 -3.3549  1.2492 -0.6010
   29MOL0     H 3967   4.107   2.585   2.816  1.3003  1.9233  0.1891
   29MOL0     H 3968   4.199   2.598   3.114  2.2783  2.4260  0.4368
   29MOL0     H 3969   4.275   2.508   2.983  1.1626  0.4800 -0.4105
   29MOL0     H 3970   4.244   2.806   2.996  1.4914  1.0330 -0.8907
   29MOL0     H 3971   4.312   2.722   2.858  0.6611  1.0422  0.7265
   29MOL0     H 3972   4.508   2.655   2.981  0.0708 -0.7135  2.4470
   29MOL0     H 3973   4.435   2.714   3.134  2.4323 -1.5059  0.1793
   29MOL0     H 3974   4.606   2.870   2.995  0.3078  0.5622 -2.3416
   29MOL0     H 3975   4.464   2.897   2.896 -1.0758 -2.1559 -1.1482
   29MOL0     H 3976   4.439   2.915   3.199 -0.1341  0.3434 -0.4065
   29MOL0     H 3977   4.333   2.987   3.088 -0.6968  1.1499  3.5767
   29MOL0     H 3978   4.489   3.161   3.207  2.6770  1.6232 -0.0360
   29MOL0     H 3979   4.538   3.167   3.047 -0.3258  0.5353  0.5293
   29MOL0     H 3980   4.723   3.002   3.097  0.6985  0.7850 -0.2212
   29MOL0     H 3981   4.669   2.999   3.264  0.3516  1.2911  0.9814
   29MOL0     H 3982   3.803   2.519   2.925 -0.4646  0.3274 -2.8175
   29MOL0     H 3983   3.576   2.577   2.928 -1.0545  0.7001  2.0268
   29MOL0     H 3984   3.279   2.858   2.815 -0.1717 -0.0392 -0.4061
   29MOL0     H 3985   3.033   2.901   2.770  0.6235 -3.4108  0.2758
   29MOL0     H 3986   1.107   2.393   3.109  0.2492 -0.0127  1.8933
   29MOL0     H 3987   0.908   2.320   3.200  0.0265  1.8904  1.9125
   29MOL0     H 3988   0.423   2.517   3.184  0.6728 -0.9802 -0.0617
   29MOL0     H 3989   0.188   2.470   3.215 -0.8198  0.0584  0.0427
   29MOL0     H 3990   0.030   2.073   3.360  1.2138 -0.5780  2.4830
   29MOL0     H 3991   0.094   2.150   3.498  1.0146 -0.8510 -0.1041
   29MOL0     H 3992  -0.163   2.116   3.513 -2.8959  1.3539  1.5091
   29MOL0     H 3993  -0.171   2.249   3.393  1.5086 -0.3512 -1.4741
   29MOL0     H 3994  -0.012   2.298   3.652  2.6864  2.5430 -0.6860
   29MOL0     H 3995  -0.076   2.417   3.544 -1.1404 -0.0464 -1.0508
   29MOL0     H 3996  -0.246   2.227   3.717 -3.5171  2.1838  1.7154
   29MOL0     H 3997  -0.314   2.346   3.622 -0.2281 -0.5477  0.5997
   29MOL0     H 3998  -0.203   2.572   3.954  0.1808 -1.6483  0.9038
   29MOL0     H 3999   0.292   2.104   3.409 -0.7014  0.1906  0.6561
   29MOL0     H 4000   0.593   2.196   3.539  1.4404  1.1606 -0.1397
   29MOL0     H 4001   0.473   2.062   3.517  2.9873 -0.8867  1.1840
   29MOL0     H 4002   0.611   2.084   3.401  4.3650  0.6725  3.5016
   30MOL0     O 4003   5.264   8.603   1.080 -0.1329 -0.3030 -0.3671
   30MOL0     C 4004   5.150   8.560   1.109  0.6260 -0.3078 -0.5694
   30MOL0     O 4005   5.124   8.434   1.148  0.2538  0.0219  0.1456
   30MOL0     C 4006   5.230   8.373   1.201  0.0005 -0.1973 -0.2095
   30MOL0     C 4007   5.294   8.264   1.145 -0.7764  0.0748 -0.0362
   30MOL0     C 4008   5.396   8.196   1.213 -0.1125  0.4274 -0.5366
   30MOL0     C 4009   5.445   8.238   1.337  0.9606 -0.4546  0.2760
   30MOL0     O 4010   5.541   8.179   1.412  0.7420 -0.4959 -0.4971
   30MOL0     C 4011   5.578   8.039   1.410 -0.0815  0.0423  0.2982
   30MOL0     C 4012   5.457   7.950   1.445 -0.1624  0.8480  0.0948
   30MOL0     C 4013   5.424   7.979   1.593  0.5141  0.7285  0.2396
   30MOL0     C 4014   5.348   7.854   1.646 -0.4167 -0.0611  0.8343
   30MOL0     C 4015   5.222   7.807   1.572 -0.1517  0.1334  0.1516
   30MOL0     C 4016   5.105   7.907   1.591  0.2407 -0.0018 -0.0502
   30MOL0     C 4017   4.968   7.851   1.585 -0.1900 -0.5822 -0.0247
   30MOL0     C 4018   4.927   7.804   1.443 -0.1300 -0.1418  0.1684
   30MOL0     N 4019   4.857   7.909   1.367 -1.0269 -0.1422  0.6779
   30MOL0     C 4020   4.928   7.988   1.276 -0.6445  0.3171  0.1374
   30MOL0     C 4021   4.830   8.078   1.230  0.4093  0.5680 -0.3503
   30MOL0     C 4022   4.861   8.199   1.148  0.1604 -0.5396  0.4329
   30MOL0     C 4023   4.860   8.157   1.000 -0.2780 -0.1795  1.2166
   30MOL0     C 4024   4.872   8.277   0.908 -0.0185 -0.3873  0.0535
   30MOL0     C 4025   4.872   8.239   0.764  0.1484  1.1956  0.1548
   30MOL0     O 4026   4.971   8.136   0.737 -0.7086  0.4249  0.6341
   30MOL0     C 4027   5.110   8.163   0.752 -0.0368  0.4974  0.1051
   30MOL0     C 4028   5.158   8.288   0.725  0.4240 -0.3180 -0.9431
   30MOL0     C 4029   5.288   8.313   0.726  0.0229 -0.4752  0.3408
   30MOL0     C 4030   5.332   8.449   0.684  0.1733 -0.6443  0.3429
   30MOL0     C 4031   5.381   8.213   0.759  1.0023 -0.5006  0.3114
   30MOL0     C 4032   5.529   8.240   0.772  0.1004 -0.2161 -0.0147
   30MOL0     O 4033   5.600   8.136   0.825 -0.0137 -0.1422  1.3893
   30MOL0     C 4034   5.728   8.157   0.865 -0.5725  0.2561 -0.4891
   30MOL0     C 4035   5.836   8.138   0.789  0.3119  0.4087 -0.2774
   30MOL0     C 4036   5.961   8.137   0.843 -0.0901  0.1469 -0.4235
   30MOL0     C 4037   5.977   8.179   0.974  0.3430 -0.7669  0.5070
   30MOL0     O 4038   6.107   8.190   1.028  0.7734 -1.1706 -0.4023
   30MOL0     C 4039   6.202   8.264   0.946  0.2662  0.1056 -0.3503
   30MOL0     C 4040   6.208   8.407   0.994 -0.7295  0.3841  0.3751
   30MOL0     C 4041   6.306   8.489   0.920 -0.2663 -0.7906 -0.2604
   30MOL0     C 4042   6.456   8.464   0.952  0.3446  0.0683  0.4912
   30MOL0     C 4043   6.538   8.578   0.890  0.1283 -0.0323  0.0055
   30MOL0     C 4044   6.695   8.572   0.905  0.0542  0.3149 -0.0246
   30MOL0     C 4045   6.771   8.651   0.809  0.2165  0.3666  0.3500
   30MOL0     C 4046   6.917   8.614   0.822  0.4059 -0.4418 -0.0506
   30MOL0    Cl 4047   7.000   8.677   0.966  0.3259 -0.0075 -0.3167
   30MOL0     C 4048   5.865   8.216   1.044  0.0928 -0.5523 -0.3766
   30MOL0     C 4049   5.734   8.196   0.999  0.6603  0.7475 -1.0066
   30MOL0     O 4050   5.574   8.352   0.754  0.6205 -0.1280  0.2948
   30MOL0     C 4051   5.330   8.079   0.767  0.0177  0.9850  0.1313
   30MOL0     C 4052   5.188   8.053   0.778 -0.6122 -0.8776  0.4433
   30MOL0     N 4053   4.713   8.051   1.298  0.6156  0.7567  0.0352
   30MOL0     N 4054   4.731   7.947   1.373 -0.1184 -0.6212 -0.0208
   30MOL0     C 4055   5.386   8.355   1.393 -0.1683  0.4085  0.4925
   30MOL0     C 4056   5.275   8.421   1.330  0.4015  0.1124  0.2903
   30MOL0     C 4057   5.038   8.652   1.104  1.1367  0.0330 -0.0162
   30MOL0     C 4058   4.900   8.609   1.144 -0.3143  0.3681 -0.2178
   30MOL0     C 4059   4.792   8.691   1.119 -0.2359 -0.2518 -0.5081
   30MOL0     C 4060   4.804   8.822   1.078 -0.1340 -0.0496  1.4249
   30MOL0     O 4061   4.689   8.893   1.065  0.3782 -1.0567  0.3398
   30MOL0     C 4062   4.681   9.030   1.030 -0.7161  0.2619 -0.2068
   30MOL0     C 4063   4.645   9.114   1.145 -0.4413  0.2796 -1.2317
   30MOL0     C 4064   4.496   9.100   1.185 -0.6364  0.8507 -0.4284
   30MOL0     C 4065   4.415   9.166   1.072  1.0079 -1.1427 -0.0090
   30MOL0     C 4066   4.267   9.157   1.107 -0.4309 -0.7729 -0.1047
   30MOL0     C 4067   4.150   9.146   1.121  1.0074  1.7406  0.2541
   30MOL0     C 4068   4.928   8.858   1.027  0.6971  0.2221  0.1026
   30MOL0     C 4069   5.044   8.787   1.052  0.4340 -0.1744  0.5663
   30MOL0     C 4070   5.165   8.854   0.996  0.0539  0.0138 -0.1130
   30MOL0     H 4071   5.266   8.233   1.045 -0.3520 -1.2279  0.2290
   30MOL0     H 4072   5.441   8.109   1.166 -0.8376 -0.4874  0.4007
   30MOL0     H 4073   5.658   8.033   1.485  1.0502 -0.4747 -0.9206
   30MOL0     H 4074   5.623   8.017   1.314  3.5897  1.1989  1.5803
   30MOL0     H 4075   5.373   7.968   1.377  0.7488 -0.6188 -1.5172
   30MOL0     H 4076   5.474   7.843   1.427 -2.3096  0.3336  0.8303
   30MOL0     H 4077   5.510   7.985   1.661  0.1364 -0.3160  0.8336
   30MOL0     H 4078   5.365   8.070   1.600  0.5236  0.7479  0.0829
   30MOL0     H 4079   5.421   7.773   1.638 -1.2994 -0.7685 -0.3974
   30MOL0     H 4080   5.325   7.875   1.751 -0.6826 -3.9488  1.6899
   30MOL0     H 4081   5.203   7.708   1.616  0.3507 -1.6054 -3.1898
   30MOL0     H 4082   5.244   7.800   1.465 -2.9449  0.3284 -0.5225
   30MOL0     H 4083   5.112   7.941   1.695 -1.0877 -1.6011  0.5997
   30MOL0     H 4084   5.126   7.983   1.515  0.9438 -0.7469 -0.6094
   30MOL0     H 4085   4.906   7.938   1.607 -1.2015 -1.1366 -0.6206
   30MOL0     H 4086   4.953   7.780   1.666 -0.4800 -0.2854  0.1849
   30MOL0     H 4087   5.020   7.768   1.399  0.1208 -1.0627  1.3881
   30MOL0     H 4088   4.871   7.711   1.454  1.6311 -0.9219  4.2930
   30MOL0     H 4089   5.031   7.969   1.250 -0.9882 -4.1448  1.2439
   30MOL0     H 4090   4.962   8.232   1.172  0.6467 -0.4249 -1.6069
   30MOL0     H 4091   4.792   8.281   1.170 -1.6446 -2.4792  2.5241
   30MOL0     H 4092   4.943   8.087   0.992  0.0154  0.1676  1.1691
   30MOL0     H 4093   4.771   8.098   0.976 -0.7436  0.4562  1.3374
   30MOL0     H 4094   4.796   8.356   0.911  1.8050  1.5670 -1.5430
   30MOL0     H 4095   4.968   8.324   0.932  0.1817 -0.3998 -0.7013
   30MOL0     H 4096   4.772   8.215   0.725  1.6874  0.4267 -3.7924
   30MOL0     H 4097   4.896   8.328   0.706 -1.8355  2.9041  1.7703
   30MOL0     H 4098   5.097   8.377   0.735  0.6197 -0.4522  3.4954
   30MOL0     H 4099   5.263   8.496   0.614  2.9740 -0.4340 -2.4754
   30MOL0     H 4100   5.422   8.451   0.623  1.2798  0.0448  1.9326
   30MOL0     H 4101   5.347   8.515   0.770 -0.7284 -0.7114  0.5693
   30MOL0     H 4102   5.823   8.108   0.685 -0.2001  1.1297 -0.4283
   30MOL0     H 4103   6.035   8.102   0.771 -1.1188 -1.6341 -0.6734
   30MOL0     H 4104   6.302   8.224   0.962  0.0401  0.4390  2.2790
   30MOL0     H 4105   6.178   8.242   0.842  1.5263 -0.8886 -0.4597
   30MOL0     H 4106   6.111   8.454   0.977 -0.2424  0.7045 -1.9060
   30MOL0     H 4107   6.228   8.407   1.102  1.7410 -2.7863  0.0525
   30MOL0     H 4108   6.281   8.590   0.954 -0.7767 -0.9067 -0.2847
   30MOL0     H 4109   6.274   8.485   0.815 -2.0069  1.6832  0.0821
   30MOL0     H 4110   6.475   8.369   0.901  3.4908 -0.2080  1.9738
   30MOL0     H 4111   6.473   8.442   1.058 -1.8950 -3.6864  0.2662
   30MOL0     H 4112   6.510   8.594   0.785 -0.8081 -0.8188  0.1241
   30MOL0     H 4113   6.499   8.671   0.932  1.8453  0.1620  1.2580
   30MOL0     H 4114   6.717   8.465   0.907 -2.7953 -0.4188  3.5119
   30MOL0     H 4115   6.722   8.604   1.006 -4.1667  1.6201  0.9090
   30MOL0     H 4116   6.747   8.758   0.809  0.3220  0.3932 -0.0915
   30MOL0     H 4117   6.740   8.613   0.711  1.3637 -2.5359  1.0017
   30MOL0     H 4118   6.966   8.655   0.733  2.3382 -2.1648  0.1364
   30MOL0     H 4119   6.937   8.506   0.820  4.0769  0.1238  0.2745
   30MOL0     H 4120   5.875   8.243   1.149 -1.2734 -0.7724 -0.1704
   30MOL0     H 4121   5.643   8.217   1.055  0.2440  2.2848 -2.1763
   30MOL0     H 4122   5.394   7.992   0.766 -0.5675  0.5277  0.9879
   30MOL0     H 4123   5.147   7.953   0.791  0.5232 -1.3861  0.2807
   30MOL0     H 4124   5.442   8.398   1.476  1.6646 -1.6389  0.4116
   30MOL0     H 4125   5.234   8.509   1.378  1.3102 -0.1723  1.6506
   30MOL0     H 4126   4.874   8.511   1.183  1.0556  0.5214  1.1427
   30MOL0     H 4127   4.692   8.660   1.147 -1.2137  3.2582  0.4343
   30MOL0     H 4128   4.773   9.066   0.981 -0.8496  1.3308  0.3064
   30MOL0     H 4129   4.610   9.046   0.948 -1.5322  0.7074  0.5823
   30MOL0     H 4130   4.663   9.221   1.131 -0.6378  0.0345 -3.8607
   30MOL0     H 4131   4.705   9.072   1.227  1.6392 -3.7992 -4.4971
   30MOL0     H 4132   4.465   8.996   1.187  0.6917  0.4438  1.4874
   30MOL0     H 4133   4.478   9.146   1.283  0.7516  2.8047 -1.0061
   30MOL0     H 4134   4.433   9.105   0.983 -0.1695 -0.4254 -0.7738
   30MOL0     H 4135   4.451   9.269   1.064 -0.0913 -0.7009  0.5031
   30MOL0     H 4136   4.044   9.136   1.130  1.0908  0.9595  0.4849
   30MOL0     H 4137   4.943   8.959   0.989  2.7632  0.1462  0.5676
   30MOL0     H 4138   5.259   8.858   1.052  1.7060  1.4173 -2.7852
   30MOL0     H 4139   5.196   8.796   0.908 -0.4709  1.2869 -1.1740
   30MOL0     H 4140   5.138   8.950   0.950  0.7257 -0.6778 -2.0825
   31MOL0     O 4141   2.332   6.234   2.681  0.7123 -0.5095  0.0547
   31MOL0     C 4142   2.246   6.315   2.647  0.2305  0.6137  0.4068
   31MOL0     O 4143   2.257   6.455   2.646  0.2486  0.6658  0.6146
   31MOL0     C 4144   2.365   6.515   2.708 -0.5262 -0.2480 -0.2446
   31MOL0     C 4145   2.405   6.647   2.676 -0.4051  0.6277  0.0917
   31MOL0     C 4146   2.488   6.721   2.750 -0.5629  0.0256 -0.1100
   31MOL0     C 4147   2.554   6.673   2.864  0.9039 -0.1010  0.0200
   31MOL0     O 4148   2.635   6.763   2.928 -0.3718 -0.4802 -0.2887
   31MOL0     C 4149   2.740   6.704   3.003  0.1172  0.1988  0.0749
   31MOL0     C 4150   2.837   6.626   2.910  0.0041 -0.5046  1.0721
   31MOL0     C 4151   2.927   6.717   2.838  0.0242 -0.3649 -0.5659
   31MOL0     C 4152   3.007   6.651   2.730 -0.3143  0.3909 -0.0112
   31MOL0     C 4153   3.118   6.746   2.671 -0.1995  0.2656 -0.0394
   31MOL0     C 4154   3.048   6.854   2.591  0.3131 -0.9229 -0.2227
   31MOL0     C 4155   3.155   6.944   2.527  0.5430  0.3969  0.5304
   31MOL0     C 4156   3.226   7.034   2.628 -1.4101  0.6521 -0.9985
   31MOL0     N 4157   3.332   6.965   2.702 -0.0518 -0.4073 -0.6304
   31MOL0     C 4158   3.441   6.912   2.649  0.1362 -0.8322  1.2854
   31MOL0     C 4159   3.530   6.891   2.743 -1.0449  0.1501 -0.6220
   31MOL0     C 4160   3.672   6.837   2.710  0.2228 -0.7417 -0.2597
   31MOL0     C 4161   3.764   6.935   2.638 -0.1127 -0.0710 -0.4787
   31MOL0     C 4162   3.715   6.987   2.506  0.3139 -0.6636 -0.2247
   31MOL0     C 4163   3.821   7.060   2.422  0.2546  0.3497 -0.3408
   31MOL0     O 4164   3.877   7.163   2.505 -0.1794  0.1560 -0.3181
   31MOL0     C 4165   3.985   7.238   2.459 -0.1631  0.4698 -0.7783
   31MOL0     C 4166   4.016   7.352   2.536  0.0293 -0.1974 -0.4960
   31MOL0     C 4167   4.111   7.440   2.492  0.0473  0.0760  0.8240
   31MOL0     C 4168   4.146   7.559   2.584 -0.2374  0.1924  0.2518
   31MOL0     C 4169   4.186   7.416   2.373 -0.6171 -0.0394  0.3925
   31MOL0     C 4170   4.270   7.518   2.305 -1.2747 -0.0797  0.3398
   31MOL0     O 4171   4.353   7.467   2.204  0.2145  0.8075 -0.4893
   31MOL0     C 4172   4.472   7.536   2.175  0.9941 -0.2339 -0.2732
   31MOL0     C 4173   4.576   7.447   2.179  0.4997 -0.4197  0.4225
   31MOL0     C 4174   4.711   7.489   2.134 -0.3233 -0.4663  0.5597
   31MOL0     C 4175   4.732   7.621   2.092 -0.4802 -0.4911 -0.5264
   31MOL0     O 4176   4.863   7.653   2.053  0.7461  0.0842  0.5305
   31MOL0     C 4177   4.875   7.773   1.980 -0.8161  0.6824  0.2776
   31MOL0     C 4178   5.017   7.814   1.963  0.2950 -0.4148  0.8076
   31MOL0     C 4179   5.095   7.824   2.097 -0.1796  0.3679 -0.2491
   31MOL0     C 4180   5.236   7.872   2.079 -0.9201  0.3881 -0.0939
   31MOL0     C 4181   5.309   7.889   2.210  0.1438 -0.5565  0.2776
   31MOL0     C 4182   5.451   7.943   2.177  0.4134 -0.3789 -0.4139
   31MOL0     C 4183   5.461   8.081   2.096  0.1348  0.4162  0.3024
   31MOL0     C 4184   5.590   8.155   2.124  0.1009  0.0432 -0.6374
   31MOL0    Cl 4185   5.731   8.102   2.022 -0.3468  0.1634 -0.6617
   31MOL0     C 4186   4.622   7.708   2.090 -0.2497 -0.2462  0.1268
   31MOL0     C 4187   4.491   7.666   2.126  0.6791 -0.0594  0.9202
   31MOL0     O 4188   4.265   7.636   2.343  0.2487 -0.0483 -0.3387
   31MOL0     C 4189   4.166   7.299   2.303 -0.3562  0.0821 -0.0832
   31MOL0     C 4190   4.053   7.220   2.341 -0.0880 -0.1892 -0.2130
   31MOL0     N 4191   3.466   6.906   2.869  0.6082 -0.7344  0.1052
   31MOL0     N 4192   3.345   6.956   2.840 -0.5306  0.3274  0.6823
   31MOL0     C 4193   2.508   6.548   2.910  0.4544 -0.6894 -0.5306
   31MOL0     C 4194   2.415   6.471   2.839  0.2868  0.3627 -0.1078
   31MOL0     C 4195   2.123   6.266   2.588 -1.0498 -0.2761 -0.3067
   31MOL0     C 4196   2.005   6.333   2.609  0.1322 -0.4054 -0.8253
   31MOL0     C 4197   1.886   6.285   2.551  0.6026  0.2685 -0.8362
   31MOL0     C 4198   1.884   6.155   2.491 -0.0082  0.4401  0.1187
   31MOL0     O 4199   1.770   6.093   2.445 -0.5488  0.4471  0.2340
   31MOL0     C 4200   1.639   6.155   2.479  0.5410 -0.2885 -0.6555
   31MOL0     C 4201   1.526   6.102   2.400  0.6106 -0.6648  0.0282
   31MOL0     C 4202   1.519   5.949   2.422 -0.3118 -0.2479 -0.2247
   31MOL0     C 4203   1.382   5.885   2.387 -0.0715  0.2753  0.2668
   31MOL0     C 4204   1.279   5.903   2.486 -0.0646 -0.2653 -0.1374
   31MOL0     C 4205   1.197   5.908   2.577  0.8141  0.2503  0.2648
   31MOL0     C 4206   2.007   6.093   2.479  0.3513  0.1832  0.0760
   31MOL0     C 4207   2.125   6.156   2.505  0.5817  0.4679 -0.7082
   31MOL0     C 4208   2.252   6.095   2.438  0.1504 -0.4170 -0.5196
   31MOL0     H 4209   2.361   6.690   2.587  1.6414  0.7701 -0.9066
   31MOL0     H 4210   2.502   6.825   2.723 -0.7772  0.4663  1.3700
   31MOL0     H 4211   2.695   6.631   3.071  0.8342  0.3196  0.7096
   31MOL0     H 4212   2.789   6.785   3.059 -1.6363  1.8700 -0.7062
   31MOL0     H 4213   2.910   6.569   2.968  0.4691 -1.8198 -0.7030
   31MOL0     H 4214   2.784   6.565   2.836  1.3101 -0.0186 -0.3238
   31MOL0     H 4215   2.876   6.809   2.806  2.3974  1.3683  0.3088
   31MOL0     H 4216   3.008   6.744   2.906  0.4623  1.5257 -1.7568
   31MOL0     H 4217   3.059   6.569   2.781 -1.9466 -0.4777  0.3180
   31MOL0     H 4218   2.950   6.613   2.645  2.5415 -1.0220 -1.4282
   31MOL0     H 4219   3.191   6.697   2.607 -0.8111 -2.1427  0.9819
   31MOL0     H 4220   3.159   6.799   2.757 -1.7252  3.5482 -1.1403
   31MOL0     H 4221   2.981   6.806   2.519  0.6443  0.1467 -1.2646
   31MOL0     H 4222   2.985   6.907   2.663 -2.0842 -1.4602 -1.8075
   31MOL0     H 4223   3.094   7.002   2.457 -1.6381 -1.8257  0.4393
   31MOL0     H 4224   3.225   6.890   2.462 -2.1280 -1.2481 -1.1735
   31MOL0     H 4225   3.269   7.117   2.571  2.1053 -0.7569 -0.6693
   31MOL0     H 4226   3.156   7.072   2.703  1.0413  2.0201  0.7190
   31MOL0     H 4227   3.457   6.914   2.542 -1.1462  2.8214  1.0359
   31MOL0     H 4228   3.658   6.746   2.650 -2.6246 -0.6088  0.0327
   31MOL0     H 4229   3.720   6.808   2.803 -1.4324 -0.5940  0.6842
   31MOL0     H 4230   3.773   7.024   2.701 -2.0552  0.0546 -0.2979
   31MOL0     H 4231   3.863   6.891   2.626  0.6802  1.3733  0.4817
   31MOL0     H 4232   3.667   6.900   2.461 -0.3003 -0.9077  0.8722
   31MOL0     H 4233   3.631   7.052   2.533 -0.2756 -2.2824  2.0857
   31MOL0     H 4234   3.904   7.004   2.379 -0.7631 -1.4499 -0.0501
   31MOL0     H 4235   3.774   7.122   2.345 -0.8612  1.9126  1.5041
   31MOL0     H 4236   3.967   7.362   2.632 -1.4328  1.5403 -1.3569
   31MOL0     H 4237   4.132   7.536   2.690  2.7783  1.7666  1.1145
   31MOL0     H 4238   4.080   7.641   2.555 -0.0683 -0.0197 -0.7776
   31MOL0     H 4239   4.253   7.585   2.585  0.0939 -0.9411 -1.0819
   31MOL0     H 4240   4.553   7.345   2.206  3.6644 -1.9998 -2.2457
   31MOL0     H 4241   4.795   7.421   2.134  1.2529  1.4108  0.3208
   31MOL0     H 4242   4.833   7.751   1.881 -3.0225 -1.0586  1.5111
   31MOL0     H 4243   4.820   7.863   2.006 -3.1418  0.5913 -3.5106
   31MOL0     H 4244   5.071   7.756   1.888  1.2712  1.5455 -0.0791
   31MOL0     H 4245   5.013   7.912   1.916  2.7014 -0.8087 -0.3500
   31MOL0     H 4246   5.097   7.724   2.141 -1.5608 -0.4773 -1.9834
   31MOL0     H 4247   5.048   7.892   2.168 -1.3189 -0.4154 -0.2283
   31MOL0     H 4248   5.216   7.974   2.046  1.0343  1.3543  1.4994
   31MOL0     H 4249   5.295   7.814   2.007  1.5680 -0.3599  2.3686
   31MOL0     H 4250   5.247   7.956   2.270  0.6687 -0.8458  1.1561
   31MOL0     H 4251   5.325   7.798   2.268 -0.6040 -0.5724  0.4685
   31MOL0     H 4252   5.502   7.865   2.121 -0.3375 -1.6495  0.6104
   31MOL0     H 4253   5.492   7.962   2.277  2.0495 -0.3527 -1.0641
   31MOL0     H 4254   5.378   8.146   2.125 -0.5632 -0.3789  0.1458
   31MOL0     H 4255   5.445   8.080   1.987  0.7065  1.8409  0.1831
   31MOL0     H 4256   5.612   8.135   2.229 -3.4528  1.4072  0.5189
   31MOL0     H 4257   5.570   8.262   2.113 -1.1029  0.1513  1.8254
   31MOL0     H 4258   4.637   7.805   2.044  0.3247 -0.6404 -0.5379
   31MOL0     H 4259   4.398   7.718   2.107  0.0951 -0.8080  1.6631
   31MOL0     H 4260   4.217   7.269   2.212 -0.7993 -0.5224 -0.1411
   31MOL0     H 4261   4.025   7.141   2.272  2.4910 -1.0834 -0.3259
   31MOL0     H 4262   2.541   6.505   3.004  0.4227 -0.7782 -0.5597
   31MOL0     H 4263   2.397   6.379   2.893 -0.5863  1.6823  1.9948
   31MOL0     H 4264   2.003   6.425   2.665 -1.0807  0.0682 -1.6074
   31MOL0     H 4265   1.798   6.347   2.563  0.0754 -0.5443 -0.4121
   31MOL0     H 4266   1.616   6.137   2.584  1.3356  0.8924 -0.2474
   31MOL0     H 4267   1.636   6.263   2.464  1.9268  0.0368  1.0144
   31MOL0     H 4268   1.539   6.119   2.292 -0.0932  1.6284  0.2434
   31MOL0     H 4269   1.432   6.149   2.430  1.2459  0.3653  0.4709
   31MOL0     H 4270   1.592   5.898   2.359 -0.1297  0.1366 -0.3272
   31MOL0     H 4271   1.537   5.925   2.527 -1.1110  0.2808  0.0426
   31MOL0     H 4272   1.397   5.777   2.388  2.8084  0.6136  0.9281
   31MOL0     H 4273   1.357   5.917   2.285  0.8504  0.1732 -0.0019
   31MOL0     H 4274   1.121   5.914   2.652 -0.5188  2.3896 -1.1310
   31MOL0     H 4275   2.003   5.990   2.444 -2.1154 -0.0274  0.7556
   31MOL0     H 4276   2.235   6.038   2.347  0.8274 -1.1829 -0.1717
   31MOL0     H 4277   2.313   6.183   2.414  2.7942 -1.7295  0.9011
   31MOL0     H 4278   2.313   6.040   2.510 -0.7686 -0.0835  0.5427
   32MOL0     O 4279   3.020   0.665   1.438 -0.0063  0.0922 -0.0706
   32MOL0     C 4280   3.012   0.784   1.423  0.4173 -0.1354  0.2674
   32MOL0     O 4281   3.122   0.869   1.424 -0.3090  0.1351 -0.6281
   32MOL0     C 4282   3.247   0.810   1.430 -0.5936 -0.5824  0.2935
   32MOL0     C 4283   3.311   0.783   1.308 -0.1765 -0.5135  0.4897
   32MOL0     C 4284   3.446   0.738   1.309 -0.8560  0.4075 -0.5229
   32MOL0     C 4285   3.519   0.720   1.426  0.4719 -0.0214  0.1051
   32MOL0     O 4286   3.649   0.692   1.422 -0.2816  1.3781  0.2459
   32MOL0     C 4287   3.729   0.746   1.533 -0.8003 -0.6778  0.5741
   32MOL0     C 4288   3.876   0.718   1.510  0.7779 -0.2673  0.1433
   32MOL0     C 4289   3.967   0.734   1.630 -0.4486  0.0540 -0.4597
   32MOL0     C 4290   3.944   0.622   1.729  0.0114 -0.3606 -0.3259
   32MOL0     C 4291   4.032   0.635   1.860  0.0254  0.3458  0.2488
   32MOL0     C 4292   3.989   0.744   1.965 -0.3551 -0.0099  1.0672
   32MOL0     C 4293   4.103   0.760   2.062  0.0512  0.3350  1.1534
   32MOL0     C 4294   4.060   0.830   2.183  0.1665 -0.0959  0.7886
   32MOL0     N 4295   4.166   0.917   2.236 -0.1896  0.0142  0.4589
   32MOL0     C 4296   4.292   0.885   2.285 -0.0231 -0.3951 -0.1304
   32MOL0     C 4297   4.355   0.998   2.302  0.5512  0.7473 -0.9429
   32MOL0     C 4298   4.494   1.017   2.352 -0.0105  0.0981 -0.5467
   32MOL0     C 4299   4.603   0.984   2.252 -0.0157 -0.0800  0.7738
   32MOL0     C 4300   4.606   1.084   2.131 -0.1048 -0.1293 -0.7341
   32MOL0     C 4301   4.697   1.205   2.161  0.2897 -0.5306 -0.1867
   32MOL0     O 4302   4.842   1.180   2.173  0.5232  0.0572 -0.1041
   32MOL0     C 4303   4.927   1.161   2.060 -0.5162 -0.1466  0.1311
   32MOL0     C 4304   4.892   1.170   1.923 -0.0252 -1.0302 -0.1559
   32MOL0     C 4305   4.979   1.140   1.820 -0.6838  0.1385  0.7350
   32MOL0     C 4306   4.927   1.141   1.673  0.3136  0.1925  0.2930
   32MOL0     C 4307   5.111   1.104   1.850 -0.1051 -0.3123 -0.0227
   32MOL0     C 4308   5.212   1.055   1.753  0.5578  0.5303 -0.7443
   32MOL0     O 4309   5.303   0.981   1.815 -0.2546 -0.0638  0.0919
   32MOL0     C 4310   5.406   0.923   1.744  0.2644 -0.3486 -0.2582
   32MOL0     C 4311   5.423   0.790   1.753  0.6222  0.3943  0.3354
   32MOL0     C 4312   5.538   0.725   1.700  0.0567  0.2943 -0.5487
   32MOL0     C 4313   5.626   0.787   1.609  0.6766 -0.3729 -0.2800
   32MOL0     O 4314   5.723   0.737   1.527 -0.3434  0.0531 -0.4399
   32MOL0     C 4315   5.758   0.602   1.552 -0.2161 -0.3680 -0.1169
   32MOL0     C 4316   5.898   0.553   1.495 -0.1105 -1.0169 -0.6551
   32MOL0     C 4317   5.889   0.539   1.341 -0.2400 -0.9114 -0.5749
   32MOL0     C 4318   6.031   0.485   1.300  0.3844 -0.3947 -0.4216
   32MOL0     C 4319   6.065   0.490   1.151  0.6639  0.4131 -0.9835
   32MOL0     C 4320   5.999   0.373   1.083  0.3539  1.2929  0.2898
   32MOL0     C 4321   6.042   0.345   0.943 -0.3064 -0.2774  0.4315
   32MOL0     C 4322   5.969   0.243   0.858  0.5643 -0.5271  0.1062
   32MOL0    Cl 4323   6.045   0.206   0.699  0.0806  0.2939 -0.0660
   32MOL0     C 4324   5.615   0.929   1.597  0.5544  0.0926  0.0746
   32MOL0     C 4325   5.503   1.000   1.666 -0.3719  0.8946  0.4783
   32MOL0     O 4326   5.196   1.059   1.634 -0.4463 -0.5150  0.6852
   32MOL0     C 4327   5.151   1.106   1.984 -0.1809 -0.2626 -0.5613
   32MOL0     C 4328   5.059   1.138   2.080  0.6841  0.9238 -1.1659
   32MOL0     N 4329   4.277   1.098   2.259  0.2382  0.2281  0.8494
   32MOL0     N 4330   4.167   1.057   2.217  0.2133  0.5343 -0.3940
   32MOL0     C 4331   3.441   0.748   1.542  0.1271 -1.3687 -0.1945
   32MOL0     C 4332   3.319   0.801   1.545  0.6863  0.5884  0.1835
   32MOL0     C 4333   2.872   0.844   1.449  0.3005 -0.5481  0.1960
   32MOL0     C 4334   2.867   0.968   1.521 -0.4490 -0.1320  0.4735
   32MOL0     C 4335   2.733   1.020   1.541 -0.2137 -0.1811  0.4684
   32MOL0     C 4336   2.624   0.962   1.481 -0.1302  0.8459 -0.3698
   32MOL0     O 4337   2.500   1.020   1.506 -0.1504  0.7449 -0.2016
   32MOL0     C 4338   2.388   0.991   1.427  0.9098  0.7173  0.1604
   32MOL0     C 4339   2.280   1.083   1.486  0.7904  0.4761 -0.4637
   32MOL0     C 4340   2.134   1.070   1.428  0.0946 -0.3150  0.2008
   32MOL0     C 4341   2.066   0.932   1.444 -0.0419 -0.6034 -0.3075
   32MOL0     C 4342   2.119   0.836   1.347  0.0170 -1.5674 -0.3529
   32MOL0     C 4343   2.169   0.754   1.279  0.6098 -0.2811 -0.0157
   32MOL0     C 4344   2.632   0.844   1.415  1.3240 -0.1429  0.9033
   32MOL0     C 4345   2.754   0.783   1.398  0.0711  0.0545  0.1499
   32MOL0     C 4346   2.755   0.661   1.313  0.4754 -0.0939 -0.3724
   32MOL0     H 4347   3.255   0.796   1.217  1.9238  1.5447 -0.6255
   32MOL0     H 4348   3.495   0.706   1.217 -0.9389 -2.3066  0.3112
   32MOL0     H 4349   3.698   0.712   1.632  0.0880 -0.8141  0.8119
   32MOL0     H 4350   3.720   0.855   1.533  0.5977 -0.5204  2.4587
   32MOL0     H 4351   3.892   0.618   1.469 -1.5048 -0.2966 -0.8728
   32MOL0     H 4352   3.916   0.791   1.438  1.8902 -1.5372 -0.5617
   32MOL0     H 4353   4.072   0.730   1.600 -0.2501  0.6655  0.1455
   32MOL0     H 4354   3.965   0.834   1.674 -1.2404 -0.4791  0.7609
   32MOL0     H 4355   3.839   0.639   1.756  0.3681  0.7659  0.4242
   32MOL0     H 4356   3.952   0.527   1.675 -1.2431 -0.4347 -0.4285
   32MOL0     H 4357   4.134   0.644   1.820  0.2275 -1.3226  0.3266
   32MOL0     H 4358   4.025   0.544   1.919 -0.0622 -0.0998 -0.4298
   32MOL0     H 4359   3.958   0.838   1.920 -2.2844 -0.8889  0.4437
   32MOL0     H 4360   3.906   0.704   2.025  0.4965 -1.2525  1.4650
   32MOL0     H 4361   4.185   0.803   2.004 -0.9459 -1.2025 -1.5801
   32MOL0     H 4362   4.140   0.662   2.094  1.6457 -1.5928 -5.1441
   32MOL0     H 4363   3.981   0.904   2.165  0.2076  0.0541  1.2163
   32MOL0     H 4364   4.027   0.762   2.262  0.3065  1.6051  2.3795
   32MOL0     H 4365   4.337   0.788   2.300  0.8250  0.0350  0.1478
   32MOL0     H 4366   4.511   0.960   2.444 -1.9042  0.0929 -0.1701
   32MOL0     H 4367   4.515   1.120   2.384  2.0254 -1.1470  2.6043
   32MOL0     H 4368   4.705   0.980   2.293  0.7863 -0.2307 -1.1265
   32MOL0     H 4369   4.594   0.881   2.216 -1.0268  0.9016 -1.9960
   32MOL0     H 4370   4.639   1.035   2.038  0.8007  0.8420 -0.9537
   32MOL0     H 4371   4.503   1.117   2.116  0.3130  0.4944 -2.5563
   32MOL0     H 4372   4.677   1.277   2.081  3.9829  2.0433  0.9256
   32MOL0     H 4373   4.663   1.258   2.251  1.0967 -1.1326  0.4873
   32MOL0     H 4374   4.790   1.198   1.896 -0.2962 -1.4863  0.3708
   32MOL0     H 4375   4.908   1.040   1.635  1.2781  0.4000 -0.8151
   32MOL0     H 4376   4.995   1.190   1.602  1.0790 -4.4318 -2.5724
   32MOL0     H 4377   4.832   1.196   1.670  0.4398  0.4613  1.0359
   32MOL0     H 4378   5.345   0.744   1.812 -1.0961  1.6190 -0.8861
   32MOL0     H 4379   5.541   0.618   1.719  0.8081  0.7739  2.7640
   32MOL0     H 4380   5.753   0.578   1.659 -1.2187 -1.1627 -0.3244
   32MOL0     H 4381   5.675   0.546   1.508 -1.0152 -0.0021  0.8915
   32MOL0     H 4382   5.974   0.624   1.527 -2.1647  0.2864  1.6527
   32MOL0     H 4383   5.913   0.453   1.536 -0.1098 -0.2469  1.3191
   32MOL0     H 4384   5.868   0.634   1.290 -0.6363 -0.1380  0.9707
   32MOL0     H 4385   5.811   0.471   1.306 -0.8410 -0.3946 -0.2650
   32MOL0     H 4386   6.051   0.391   1.353 -2.4210 -0.8929 -0.0806
   32MOL0     H 4387   6.107   0.555   1.336 -1.2577  2.1746 -1.6319
   32MOL0     H 4388   6.033   0.587   1.112  0.5079  3.2721  5.1562
   32MOL0     H 4389   6.174   0.490   1.141  0.7068 -0.0269 -0.5828
   32MOL0     H 4390   5.890   0.369   1.091  0.5106 -0.0675  2.8329
   32MOL0     H 4391   6.038   0.290   1.144  0.4543  0.5112 -0.8152
   32MOL0     H 4392   6.147   0.315   0.949  0.6582  2.5940 -0.4143
   32MOL0     H 4393   6.038   0.440   0.889 -0.4106 -1.1975 -1.2309
   32MOL0     H 4394   5.874   0.285   0.826  1.2787 -0.2389 -1.7384
   32MOL0     H 4395   5.968   0.145   0.908  0.9113 -0.4286  0.3062
   32MOL0     H 4396   5.685   0.990   1.542 -1.4651  1.0043 -1.6375
   32MOL0     H 4397   5.507   1.109   1.663 -0.6992  0.9009  0.2020
   32MOL0     H 4398   5.251   1.076   2.014  0.9224  2.7828 -0.8537
   32MOL0     H 4399   5.090   1.153   2.183 -0.2414 -1.6049 -0.4275
   32MOL0     H 4400   3.495   0.749   1.636  0.4225  1.5119 -0.2907
   32MOL0     H 4401   3.279   0.835   1.640 -3.1252  3.1374 -2.0856
   32MOL0     H 4402   2.958   1.022   1.546 -1.1919  1.1199  0.5335
   32MOL0     H 4403   2.727   1.121   1.580 -2.3196  0.4540 -1.2882
   32MOL0     H 4404   2.398   1.020   1.323  0.8341 -1.9707 -0.6780
   32MOL0     H 4405   2.358   0.886   1.433 -1.8886  1.4150 -0.0707
   32MOL0     H 4406   2.307   1.188   1.479  0.8082  0.3957 -1.7755
   32MOL0     H 4407   2.275   1.058   1.592  2.9268 -2.2581 -0.8932
   32MOL0     H 4408   2.078   1.152   1.475  2.1947  4.0953 -4.0604
   32MOL0     H 4409   2.129   1.090   1.320 -1.7832 -1.8754 -0.0627
   32MOL0     H 4410   1.959   0.952   1.435 -0.4773 -2.1065  1.0535
   32MOL0     H 4411   2.088   0.893   1.543  1.0919 -1.1502 -0.7545
   32MOL0     H 4412   2.213   0.689   1.206  1.3087 -1.9314  1.7756
   32MOL0     H 4413   2.550   0.803   1.357  1.1149 -0.5569  1.4843
   32MOL0     H 4414   2.804   0.678   1.217 -0.3116  3.4654 -0.2488
   32MOL0     H 4415   2.805   0.581   1.369  2.3126  1.6650  0.6592
   32MOL0     H 4416   2.655   0.624   1.289  0.7529 -1.7978  0.8891
   33MOL0     O 4417   7.874  10.155   0.435 -0.2413  0.2984  0.1873
   33MOL0     C 4418   7.831  10.104   0.534 -0.2547  0.0835 -0.1461
   33MOL0     O 4419   7.837  10.158   0.660  0.0961 -0.3855 -0.4653
   33MOL0     C 4420   7.857  10.290   0.672 -0.9924 -0.1688  0.3708
   33MOL0     C 4421   7.750  10.379   0.679  0.3992 -0.5741 -0.3364
   33MOL0     C 4422   7.782  10.517   0.705  0.0681 -0.2376 -0.1054
   33MOL0     C 4423   7.912  10.566   0.711 -0.3083 -0.0694 -0.4735
   33MOL0     O 4424   7.957  10.686   0.751 -0.5159  0.1636  0.7107
   33MOL0     C 4425   7.878  10.750   0.854 -0.3919 -0.6228  0.2607
   33MOL0     C 4426   7.928  10.893   0.875 -0.7960  0.7643  0.2053
   33MOL0     C 4427   8.062  10.891   0.947  0.0181 -0.1701  0.1076
   33MOL0     C 4428   8.105  11.039   0.949 -0.6353  0.9677 -0.4005
   33MOL0     C 4429   8.250  11.065   0.997 -0.3732 -0.4836  0.1211
   33MOL0     C 4430   8.269  11.022   1.135 -0.2391 -0.8592 -0.6022
   33MOL0     C 4431   8.386  11.097   1.199  0.2202 -0.4787  0.2551
   33MOL0     C 4432   8.530  11.046   1.156 -0.1930  0.4754  0.8724
   33MOL0     N 4433   8.631  11.133   1.210 -0.0534  0.5429  0.5272
   33MOL0     C 4434   8.629  11.194   1.332 -0.1163 -0.6359  0.2975
   33MOL0     C 4435   8.752  11.249   1.339  0.0722  0.2442 -0.3289
   33MOL0     C 4436   8.804  11.314   1.462  0.1993 -0.5534 -0.4624
   33MOL0     C 4437   8.853  11.466   1.441  1.0759 -0.7919 -0.0537
   33MOL0     C 4438   8.883  11.526   1.575  0.1123 -0.2360 -0.6804
   33MOL0     C 4439   9.018  11.488   1.624  1.3621 -0.9682 -0.6234
   33MOL0     O 4440   9.122  11.545   1.542 -0.6732  0.1310 -0.2865
   33MOL0     C 4441   9.243  11.583   1.598  0.0414  0.3713 -0.1439
   33MOL0     C 4442   9.292  11.543   1.723  0.0943 -0.4640  0.1068
   33MOL0     C 4443   9.415  11.597   1.771  0.5179  0.7824 -0.0875
   33MOL0     C 4444   9.466  11.562   1.907  0.6585 -0.6756  0.1889
   33MOL0     C 4445   9.477  11.697   1.697 -0.4246 -0.1800 -0.6120
   33MOL0     C 4446   9.596  11.769   1.744  0.3303  0.1299 -0.6604
   33MOL0     O 4447   9.596  11.813   1.878 -0.6802 -0.0608  0.6603
   33MOL0     C 4448   9.701  11.893   1.910  0.2527  0.0502  0.1932
   33MOL0     C 4449   9.814  11.836   1.970 -0.0378  0.0814  0.2525
   33MOL0     C 4450   9.922  11.912   2.021 -0.0973  0.2352 -0.5760
   33MOL0     C 4451   9.902  12.049   2.028  0.5941 -1.1849  0.2786
   33MOL0     O 4452   9.973  12.130   2.117 -0.2853 -0.5421 -0.7458
   33MOL0     C 4453   9.977  12.086   2.262 -1.1977 -0.5593 -0.2294
   33MOL0     C 4454  10.040  12.195   2.342  0.2849 -0.6375  0.4355
   33MOL0     C 4455  10.186  12.206   2.323 -0.7124 -0.3031  0.7799
   33MOL0     C 4456  10.238  12.341   2.374 -0.0129  0.2123  0.3509
   33MOL0     C 4457  10.386  12.347   2.369  0.0188 -0.0105  0.2857
   33MOL0     C 4458  10.437  12.357   2.223 -0.1238 -0.1011 -0.4645
   33MOL0     C 4459  10.595  12.398   2.232 -0.3177  0.4159  0.2380
   33MOL0     C 4460  10.662  12.382   2.098 -0.7415  0.6182  0.4148
   33MOL0    Cl 4461  10.841  12.401   2.131  0.0651  0.3184  0.1526
   33MOL0     C 4462   9.800  12.113   1.959 -0.4762 -0.1222 -0.8743
   33MOL0     C 4463   9.699  12.037   1.894  0.7706  0.2594 -0.5245
   33MOL0     O 4464   9.683  11.792   1.662 -0.3076  0.1889  0.6986
   33MOL0     C 4465   9.433  11.727   1.569  0.0550 -0.2203  0.4071
   33MOL0     C 4466   9.319  11.665   1.523  0.1974  0.2110  0.3571
   33MOL0     N 4467   8.817  11.237   1.218  0.3020  0.8582  0.2571
   33MOL0     N 4468   8.743  11.179   1.145  0.1058 -0.3804  0.2589
   33MOL0     C 4469   8.016  10.466   0.689 -0.0512 -0.9935  0.3344
   33MOL0     C 4470   7.989  10.334   0.661  0.2436 -0.3591 -0.3329
   33MOL0     C 4471   7.800   9.957   0.528  0.6273 -0.1348 -0.7106
   33MOL0     C 4472   7.691   9.908   0.607 -0.0423  0.1793 -0.4477
   33MOL0     C 4473   7.640   9.775   0.599  1.1947  0.1013  0.1409
   33MOL0     C 4474   7.706   9.680   0.518 -0.3963 -0.3659 -0.2687
   33MOL0     O 4475   7.680   9.549   0.518  0.1606  0.4520  0.7095
   33MOL0     C 4476   7.649   9.482   0.636 -0.6060 -0.1783 -0.5459
   33MOL0     C 4477   7.766   9.473   0.731  0.9652  0.4325 -0.2055
   33MOL0     C 4478   7.753   9.368   0.843 -0.0599 -1.0247 -0.2265
   33MOL0     C 4479   7.687   9.231   0.806  0.6447  0.4676 -0.4850
   33MOL0     C 4480   7.686   9.132   0.917 -0.2971  0.0614 -0.3391
   33MOL0     C 4481   7.662   9.053   1.008 -0.0927  0.6722  0.0461
   33MOL0     C 4482   7.812   9.726   0.439 -0.0203 -0.5148 -0.3974
   33MOL0     C 4483   7.854   9.863   0.442  0.1573 -0.4584 -0.1548
   33MOL0     C 4484   7.967   9.891   0.349  0.1364  0.1421  0.2248
   33MOL0     H 4485   7.650  10.339   0.673  0.0526 -0.3205  2.5969
   33MOL0     H 4486   7.708  10.596   0.709  2.0197  1.6349  2.0477
   33MOL0     H 4487   7.890  10.683   0.939 -0.6595 -1.0529 -0.0369
   33MOL0     H 4488   7.775  10.758   0.816 -0.2864 -1.8505 -0.3454
   33MOL0     H 4489   7.952  10.919   0.772  0.6331 -1.5930 -0.1337
   33MOL0     H 4490   7.847  10.955   0.913 -0.3491  0.4410  1.7958
   33MOL0     H 4491   8.060  10.843   1.045  4.8032 -2.0888 -0.4635
   33MOL0     H 4492   8.133  10.836   0.885  1.7027  1.8207  0.1691
   33MOL0     H 4493   8.095  11.074   0.845 -0.6141  1.7860 -0.1341
   33MOL0     H 4494   8.041  11.098   1.015 -2.1874 -0.1484 -0.8548
   33MOL0     H 4495   8.279  11.170   0.988  0.0845 -0.6242 -0.0661
   33MOL0     H 4496   8.309  11.008   0.924 -1.6200  2.1641 -3.2059
   33MOL0     H 4497   8.178  11.040   1.193  1.4206 -0.9959  2.2386
   33MOL0     H 4498   8.269  10.913   1.143  0.0646 -0.7396  2.2463
   33MOL0     H 4499   8.364  11.102   1.306  0.1123  2.7973  0.1821
   33MOL0     H 4500   8.376  11.203   1.172  2.2276 -0.7823 -1.9553
   33MOL0     H 4501   8.550  10.946   1.194  0.3762  1.1810  2.5348
   33MOL0     H 4502   8.539  11.046   1.047  0.8563 -0.6007  0.9497
   33MOL0     H 4503   8.557  11.200   1.413 -0.6811 -0.2355 -0.2165
   33MOL0     H 4504   8.884  11.248   1.497  1.3400  0.4952 -1.0108
   33MOL0     H 4505   8.720  11.310   1.532  0.6780 -2.8436  0.0456
   33MOL0     H 4506   8.945  11.478   1.384  0.7086 -1.1825 -0.7367
   33MOL0     H 4507   8.771  11.524   1.398 -0.2422 -1.2545  1.7157
   33MOL0     H 4508   8.884  11.635   1.569 -0.9298 -0.1583  0.2635
   33MOL0     H 4509   8.803  11.499   1.644 -0.7734  1.8509 -0.8217
   33MOL0     H 4510   9.025  11.528   1.726  5.4346 -0.6844 -0.8309
   33MOL0     H 4511   9.028  11.381   1.642  2.9875 -0.5851  1.0996
   33MOL0     H 4512   9.233  11.483   1.791  0.2569  0.8497  1.4479
   33MOL0     H 4513   9.435  11.462   1.937  1.1250 -1.3165 -1.3701
   33MOL0     H 4514   9.440  11.643   1.976 -0.4997  2.5132 -3.5929
   33MOL0     H 4515   9.575  11.555   1.894  0.7533 -0.1499  0.6448
   33MOL0     H 4516   9.831  11.730   1.989  3.3853 -0.1415 -2.8434
   33MOL0     H 4517  10.009  11.863   2.063 -0.1763  0.4458 -0.1593
   33MOL0     H 4518   9.874  12.073   2.295 -1.8932  0.0622 -2.0202
   33MOL0     H 4519  10.033  11.991   2.261  0.1692  0.2016 -2.4468
   33MOL0     H 4520   9.985  12.283   2.305  0.2123 -0.6808  0.4401
   33MOL0     H 4521  10.024  12.167   2.446  0.6254  2.5652  1.4741
   33MOL0     H 4522  10.211  12.200   2.216 -2.3472  2.9604  0.0753
   33MOL0     H 4523  10.220  12.120   2.381 -2.0961 -1.5036 -0.1357
   33MOL0     H 4524  10.212  12.349   2.480 -1.8852 -1.9575  0.1445
   33MOL0     H 4525  10.181  12.423   2.329 -1.0322 -1.0229 -0.7132
   33MOL0     H 4526  10.416  12.436   2.425 -0.2291  0.0180  0.3746
   33MOL0     H 4527  10.434  12.256   2.408  3.4562  2.0369  1.1985
   33MOL0     H 4528  10.386  12.430   2.159 -0.5132  2.0539  2.1272
   33MOL0     H 4529  10.426  12.257   2.181  1.6361 -1.2509  1.6088
   33MOL0     H 4530  10.643  12.325   2.298 -2.5160 -0.3872  1.0644
   33MOL0     H 4531  10.614  12.500   2.265  0.1814  0.6441 -0.7321
   33MOL0     H 4532  10.627  12.452   2.021  0.4898  0.3424 -0.4398
   33MOL0     H 4533  10.655  12.280   2.059 -0.7939 -0.1639  2.3642
   33MOL0     H 4534   9.796  12.221   1.968 -2.4609 -0.1544 -0.8785
   33MOL0     H 4535   9.618  12.090   1.846  0.3092 -1.8697 -2.2745
   33MOL0     H 4536   9.479  11.795   1.499 -0.7443 -1.4407 -1.3653
   33MOL0     H 4537   9.279  11.701   1.429 -1.2287 -0.6098  0.6223
   33MOL0     H 4538   8.118  10.504   0.679  0.3102 -2.4286 -2.9570
   33MOL0     H 4539   8.063  10.261   0.629  1.3420  0.5789 -0.0113
   33MOL0     H 4540   7.643   9.978   0.675 -0.7388 -0.5312 -0.1887
   33MOL0     H 4541   7.561   9.744   0.668  1.2226  1.5266  0.8372
   33MOL0     H 4542   7.557   9.524   0.677 -3.1248 -3.7335 -2.0768
   33MOL0     H 4543   7.635   9.383   0.594 -1.3786  0.9749 -3.2232
   33MOL0     H 4544   7.766   9.572   0.777 -0.4533  0.9161 -1.1395
   33MOL0     H 4545   7.859   9.458   0.676  1.2968 -0.4732  0.5814
   33MOL0     H 4546   7.856   9.354   0.877  0.2948 -1.2579 -1.3638
   33MOL0     H 4547   7.704   9.409   0.932  3.4858 -3.8074  3.3444
   33MOL0     H 4548   7.746   9.183   0.727  2.6923 -1.1352  1.8816
   33MOL0     H 4549   7.583   9.247   0.775  0.4276  2.4787  1.0762
   33MOL0     H 4550   7.634   8.982   1.083  1.2242 -0.0411 -0.1177
   33MOL0     H 4551   7.869   9.670   0.365  0.6783 -0.2713 -0.0502
   33MOL0     H 4552   7.937   9.942   0.257  1.3242 -0.5208 -0.5614
   33MOL0     H 4553   8.041   9.954   0.400 -0.3232 -0.0327  1.1216
   33MOL0     H 4554   8.017   9.796   0.325  0.3532 -0.0636  1.4283
   34MOL0     O 4555   1.309   4.280   7.347  0.1705 -0.0079 -0.0941
   34MOL0     C 4556   1.382   4.194   7.305 -0.0581 -0.3139 -0.2000
   34MOL0     O 4557   1.509   4.181   7.342 -0.3113  0.5756  0.8000
   34MOL0     C 4558   1.574   4.264   7.419 -0.0206 -0.9343 -0.7062
   34MOL0     C 4559   1.672   4.218   7.510  0.5225  0.1044 -0.1613
   34MOL0     C 4560   1.750   4.299   7.593  0.1415  0.2220 -0.1260
   34MOL0     C 4561   1.720   4.434   7.604 -0.6539 -0.1429 -0.4853
   34MOL0     O 4562   1.795   4.519   7.687 -0.2492  0.1908  0.1616
   34MOL0     C 4563   1.806   4.480   7.828 -0.2381 -0.8023  0.3505
   34MOL0     C 4564   1.898   4.590   7.903  0.3531  0.1237 -0.5852
   34MOL0     C 4565   1.925   4.557   8.046  0.3487  0.0108  0.1528
   34MOL0     C 4566   1.987   4.666   8.129  0.8262  0.0849 -0.9274
   34MOL0     C 4567   2.127   4.697   8.084  0.0420  0.5146  0.4555
   34MOL0     C 4568   2.179   4.830   8.142 -0.8559 -0.3962 -0.7106
   34MOL0     C 4569   2.327   4.854   8.105 -0.3920 -0.0538  0.4984
   34MOL0     C 4570   2.348   4.894   7.959 -0.0840  0.4294 -0.7413
   34MOL0     N 4571   2.482   4.942   7.930  0.2320 -0.0530  0.0784
   34MOL0     C 4572   2.588   4.861   7.891 -1.3757  0.0136  0.9394
   34MOL0     C 4573   2.691   4.947   7.853 -0.6824  0.3519 -0.3319
   34MOL0     C 4574   2.819   4.916   7.795 -0.0639 -0.5044 -0.2297
   34MOL0     C 4575   2.942   4.957   7.876 -0.5964 -0.5496 -0.5140
   34MOL0     C 4576   3.069   4.973   7.807 -0.2609 -0.2106  0.4379
   34MOL0     C 4577   3.196   5.019   7.876 -0.4312 -0.4634 -0.7474
   34MOL0     O 4578   3.173   5.144   7.946 -0.0838  0.3057  0.4219
   34MOL0     C 4579   3.273   5.196   8.016  0.6453  0.1588 -0.4059
   34MOL0     C 4580   3.390   5.141   8.054  0.2683  0.9572 -0.0506
   34MOL0     C 4581   3.478   5.212   8.134 -0.4364 -0.6686 -0.2915
   34MOL0     C 4582   3.603   5.141   8.177  0.2666 -0.7444  0.2513
   34MOL0     C 4583   3.454   5.345   8.171 -0.0457  0.4762  0.2000
   34MOL0     C 4584   3.544   5.436   8.239 -1.3284  0.1204  0.7708
   34MOL0     O 4585   3.521   5.574   8.232 -0.7568 -0.0215  0.3528
   34MOL0     C 4586   3.621   5.665   8.246 -0.1265 -1.0322 -0.0551
   34MOL0     C 4587   3.752   5.647   8.188  0.3248  0.3756  0.3029
   34MOL0     C 4588   3.849   5.739   8.209 -0.0525 -0.2936 -0.0877
   34MOL0     C 4589   3.834   5.851   8.289  0.2929 -0.8122 -0.3078
   34MOL0     O 4590   3.949   5.929   8.307  0.2370  0.4819 -0.6813
   34MOL0     C 4591   3.951   6.022   8.414  1.1397 -0.0079 -0.4446
   34MOL0     C 4592   4.088   6.091   8.422 -0.2238  0.3955 -0.1140
   34MOL0     C 4593   4.142   6.142   8.289  0.3255 -1.3253 -0.0464
   34MOL0     C 4594   4.287   6.085   8.257  0.9748  0.1895 -0.0891
   34MOL0     C 4595   4.346   6.168   8.142 -0.3451 -0.4905 -0.4738
   34MOL0     C 4596   4.486   6.119   8.114 -0.1058 -0.5204  0.0059
   34MOL0     C 4597   4.549   6.205   8.005 -0.1359 -0.6533 -0.1578
   34MOL0     C 4598   4.695   6.188   7.993 -0.6700  0.7465 -0.3307
   34MOL0    Cl 4599   4.760   6.294   7.880  0.6230 -0.0026  0.0408
   34MOL0     C 4600   3.709   5.860   8.360 -1.2160  0.0180 -0.1558
   34MOL0     C 4601   3.598   5.772   8.329  0.1149 -0.0816 -0.4198
   34MOL0     O 4602   3.641   5.394   8.304 -0.5078 -0.0678  0.4433
   34MOL0     C 4603   3.330   5.401   8.123 -0.1092  0.9443  0.6919
   34MOL0     C 4604   3.242   5.322   8.056 -0.1386  0.1045 -1.0168
   34MOL0     N 4605   2.646   5.074   7.878  1.1521  1.3467  0.2628
   34MOL0     N 4606   2.523   5.070   7.920  0.0695  0.7219  0.1095
   34MOL0     C 4607   1.637   4.481   7.502 -1.0840 -0.2159 -0.3724
   34MOL0     C 4608   1.554   4.397   7.428  0.0526 -0.2987  0.1022
   34MOL0     C 4609   1.340   4.105   7.197 -0.0624  0.8595  0.2611
   34MOL0     C 4610   1.213   4.127   7.145 -0.3639 -0.1289  0.2343
   34MOL0     C 4611   1.167   4.052   7.039 -0.1932  0.1106  0.2083
   34MOL0     C 4612   1.248   3.953   6.981  0.2012 -0.1390  0.3859
   34MOL0     O 4613   1.209   3.881   6.868  0.5144 -0.4673 -0.3233
   34MOL0     C 4614   1.079   3.885   6.823  0.6162  0.5510  0.3005
   34MOL0     C 4615   1.049   3.789   6.703 -0.5375  0.0442  0.6495
   34MOL0     C 4616   1.169   3.796   6.600  0.0355 -0.0878 -0.1736
   34MOL0     C 4617   1.162   3.690   6.491 -0.6699 -0.4328  0.4235
   34MOL0     C 4618   1.301   3.702   6.433  0.3829 -0.5911 -0.2273
   34MOL0     C 4619   1.417   3.710   6.394 -0.2848  0.2216 -0.2451
   34MOL0     C 4620   1.373   3.923   7.027 -0.1320  0.1269 -1.0201
   34MOL0     C 4621   1.425   4.006   7.131 -0.0332 -0.1753  0.0196
   34MOL0     C 4622   1.573   3.982   7.176 -0.2374  0.0622 -0.1159
   34MOL0     H 4623   1.690   4.111   7.518 -1.5514 -0.3213 -0.6693
   34MOL0     H 4624   1.813   4.233   7.651 -3.6105 -3.3065  0.3801
   34MOL0     H 4625   1.864   4.387   7.834 -1.3886 -1.4783  1.4317
   34MOL0     H 4626   1.710   4.471   7.880 -0.3854 -1.0605  0.0415
   34MOL0     H 4627   1.985   4.603   7.839  0.4754  1.1246 -0.2226
   34MOL0     H 4628   1.844   4.685   7.898 -0.5585 -0.2310  1.3534
   34MOL0     H 4629   1.831   4.534   8.098  1.0630  0.7795  1.8550
   34MOL0     H 4630   1.979   4.463   8.059 -1.4411 -1.0313  0.5386
   34MOL0     H 4631   1.921   4.753   8.118 -1.4061 -1.5512 -1.2859
   34MOL0     H 4632   1.987   4.656   8.238 -1.8116  1.2055 -0.7382
   34MOL0     H 4633   2.134   4.695   7.975 -4.0033 -2.3500  0.0275
   34MOL0     H 4634   2.182   4.615   8.130 -1.5289 -0.0799  1.3309
   34MOL0     H 4635   2.116   4.913   8.109  0.7554  0.4372 -1.8887
   34MOL0     H 4636   2.175   4.820   8.250 -2.6746 -1.8132 -0.8547
   34MOL0     H 4637   2.390   4.764   8.112  0.8321  0.6013 -1.2309
   34MOL0     H 4638   2.356   4.930   8.178 -2.2783  0.1804  1.0520
   34MOL0     H 4639   2.308   4.813   7.897  0.4417 -2.2147  2.1505
   34MOL0     H 4640   2.271   4.970   7.939 -1.3752 -1.3421 -3.0424
   34MOL0     H 4641   2.594   4.754   7.908  1.8041  0.3810  2.8738
   34MOL0     H 4642   2.821   4.972   7.701  0.7824 -0.7038 -0.3418
   34MOL0     H 4643   2.825   4.809   7.772  0.8493 -0.8158  1.2925
   34MOL0     H 4644   2.911   5.052   7.920 -1.6481 -1.1917  0.1866
   34MOL0     H 4645   2.957   4.887   7.959 -2.0381  1.7001  1.8104
   34MOL0     H 4646   3.096   4.880   7.755 -0.6565 -1.3426  2.1615
   34MOL0     H 4647   3.053   5.052   7.734  1.4432  2.0155  2.3154
   34MOL0     H 4648   3.211   4.940   7.950 -1.4613 -2.3710 -2.4716
   34MOL0     H 4649   3.284   5.011   7.811  0.3074  0.5812  0.0903
   34MOL0     H 4650   3.420   5.039   8.033 -0.9806  0.4994  0.2608
   34MOL0     H 4651   3.620   5.157   8.284 -0.7572  1.2053  0.1506
   34MOL0     H 4652   3.691   5.184   8.128 -0.9664  4.0034  1.6630
   34MOL0     H 4653   3.599   5.031   8.173 -1.2147 -0.7335  0.9995
   34MOL0     H 4654   3.790   5.566   8.128  1.5193  0.0555  1.4409
   34MOL0     H 4655   3.946   5.718   8.166 -0.1695 -0.2229 -0.3933
   34MOL0     H 4656   3.876   6.098   8.388 -0.4742 -0.6878  1.8796
   34MOL0     H 4657   3.925   5.982   8.512 -0.4820  1.8487 -0.0353
   34MOL0     H 4658   4.080   6.184   8.479 -1.8082  0.2198 -0.0019
   34MOL0     H 4659   4.162   6.025   8.469  1.6573  1.8729 -0.8812
   34MOL0     H 4660   4.144   6.250   8.304  1.1118 -1.3097 -0.2064
   34MOL0     H 4661   4.075   6.120   8.205 -0.9954 -2.0936  1.1748
   34MOL0     H 4662   4.275   5.987   8.211 -1.6031  2.0405 -3.9052
   34MOL0     H 4663   4.351   6.086   8.346  0.1378  0.7741  0.5252
   34MOL0     H 4664   4.288   6.165   8.049  2.7634 -1.4713 -2.5438
   34MOL0     H 4665   4.359   6.272   8.174 -0.4891 -0.0669 -1.7020
   34MOL0     H 4666   4.478   6.022   8.065 -1.7720 -1.3154  1.7461
   34MOL0     H 4667   4.541   6.096   8.206 -0.2648 -1.9305 -0.2392
   34MOL0     H 4668   4.521   6.307   8.031 -2.6539 -1.5558  1.0859
   34MOL0     H 4669   4.508   6.177   7.907 -2.6972  0.6367  0.4535
   34MOL0     H 4670   4.727   6.090   7.955 -1.5161  0.5302 -0.4938
   34MOL0     H 4671   4.733   6.204   8.095  0.7563 -2.6607 -0.1707
   34MOL0     H 4672   3.700   5.942   8.431 -0.2385 -0.1520  0.1807
   34MOL0     H 4673   3.508   5.768   8.389  0.8610 -0.5693  0.7062
   34MOL0     H 4674   3.306   5.506   8.137 -0.9263  0.8603 -0.0058
   34MOL0     H 4675   3.155   5.372   8.015 -2.2490 -2.6769 -0.2883
   34MOL0     H 4676   1.634   4.590   7.502  1.3080 -0.0649  1.2396
   34MOL0     H 4677   1.484   4.450   7.364 -3.0591 -0.2584  3.2362
   34MOL0     H 4678   1.140   4.198   7.185 -1.0023 -0.1013 -0.9368
   34MOL0     H 4679   1.067   4.074   7.002 -0.9239  0.4068  2.2677
   34MOL0     H 4680   1.010   3.848   6.899  0.2911  0.3983 -0.0679
   34MOL0     H 4681   1.042   3.986   6.802 -0.2139  1.2362  4.2708
   34MOL0     H 4682   0.970   3.830   6.640  1.9312  1.3002 -1.8732
   34MOL0     H 4683   1.028   3.687   6.736 -2.4710  0.3812  0.5793
   34MOL0     H 4684   1.162   3.895   6.554 -0.8314 -0.9545 -2.0295
   34MOL0     H 4685   1.252   3.787   6.670 -0.8251  0.7656  0.9902
   34MOL0     H 4686   1.097   3.714   6.406  2.5189  0.2593 -2.0214
   34MOL0     H 4687   1.134   3.591   6.527 -0.8733 -0.6464 -0.2887
   34MOL0     H 4688   1.519   3.707   6.363 -1.1966 -1.1735 -3.4667
   34MOL0     H 4689   1.439   3.846   6.987  0.0701 -0.5490  0.5624
   34MOL0     H 4690   1.626   3.904   7.121 -0.4559  0.1198 -0.4116
   34MOL0     H 4691   1.634   4.073   7.173  0.8140 -0.6435 -0.6270
   34MOL0     H 4692   1.578   3.954   7.282  0.2630  1.2107  0.1875
   35MOL0     O 4693   0.388   5.363   1.907  0.1779 -0.8450  0.1966
   35MOL0     C 4694   0.293   5.325   1.968  0.2510 -0.1995  0.5658
   35MOL0     O 4695   0.303   5.268   2.084 -0.4520 -0.2348 -0.2907
   35MOL0     C 4696   0.429   5.241   2.130 -0.3304  0.2568 -0.4425
   35MOL0     C 4697   0.492   5.127   2.098  0.1303  0.7194  0.1793
   35MOL0     C 4698   0.622   5.105   2.147  0.2704 -0.2151  0.3387
   35MOL0     C 4699   0.682   5.190   2.242  0.4492 -0.8847 -0.0455
   35MOL0     O 4700   0.807   5.166   2.297 -0.3945 -0.4025 -0.1819
   35MOL0     C 4701   0.835   5.226   2.423 -0.3959  0.0668 -0.7651
   35MOL0     C 4702   0.956   5.154   2.488 -0.1566  1.2127 -0.3296
   35MOL0     C 4703   1.093   5.207   2.435  0.0529 -0.5761 -0.2055
   35MOL0     C 4704   1.194   5.126   2.510 -0.4684 -0.3506  0.4502
   35MOL0     C 4705   1.328   5.191   2.476  0.5962 -0.2608 -0.1930
   35MOL0     C 4706   1.461   5.147   2.554  0.2798  0.2918  0.2803
   35MOL0     C 4707   1.438   5.121   2.703 -0.3483  0.3157 -0.2683
   35MOL0     C 4708   1.565   5.080   2.779 -0.8885  0.2451  0.1548
   35MOL0     N 4709   1.637   5.189   2.831  0.0797  0.0114  0.5841
   35MOL0     C 4710   1.729   5.265   2.759  0.7710  0.1149  0.3380
   35MOL0     C 4711   1.796   5.332   2.858  0.7997  0.7155 -0.3488
   35MOL0     C 4712   1.913   5.424   2.845  0.5601 -0.2363 -0.5387
   35MOL0     C 4713   2.035   5.370   2.910 -0.5352  0.9417  0.1570
   35MOL0     C 4714   2.158   5.456   2.882 -0.8155  0.2435 -0.9859
   35MOL0     C 4715   2.278   5.404   2.966 -0.1963 -0.4971  0.9279
   35MOL0     O 4716   2.255   5.373   3.104  0.4305  0.2068 -0.2758
   35MOL0     C 4717   2.357   5.385   3.197  0.3540 -0.4357 -0.0319
   35MOL0     C 4718   2.493   5.424   3.172  0.3012 -0.1766 -0.0310
   35MOL0     C 4719   2.581   5.441   3.281 -0.0817  0.3214  0.0416
   35MOL0     C 4720   2.714   5.500   3.244  0.2171 -0.3095 -0.7131
   35MOL0     C 4721   2.540   5.404   3.414  0.0134 -0.0244  0.3941
   35MOL0     C 4722   2.640   5.391   3.524 -0.2361 -0.1020  0.3415
   35MOL0     O 4723   2.596   5.360   3.651  0.4216 -0.0067  0.1885
   35MOL0     C 4724   2.700   5.356   3.745 -0.2173  0.2286 -0.4866
   35MOL0     C 4725   2.777   5.243   3.786  0.0201 -0.2504 -0.2708
   35MOL0     C 4726   2.875   5.265   3.888 -0.5978 -0.3585 -0.0952
   35MOL0     C 4727   2.897   5.393   3.950 -0.1392 -1.1235 -0.2355
   35MOL0     O 4728   2.996   5.408   4.047  0.1882 -0.0694  0.0522
   35MOL0     C 4729   3.061   5.536   4.062  0.3269 -0.1732  0.5507
   35MOL0     C 4730   3.207   5.513   4.120 -0.5988 -0.6610 -1.2595
   35MOL0     C 4731   3.272   5.659   4.133 -0.5809 -0.6139  0.0113
   35MOL0     C 4732   3.367   5.684   4.020 -0.2315 -0.4484  0.0147
   35MOL0     C 4733   3.376   5.831   3.991  0.9867 -0.1357  0.7200
   35MOL0     C 4734   3.469   5.904   4.089 -0.1472  0.4738 -0.1783
   35MOL0     C 4735   3.493   6.051   4.049 -0.2868 -0.6468  0.0775
   35MOL0     C 4736   3.634   6.096   4.103  0.7028 -0.5396 -1.0271
   35MOL0    Cl 4737   3.649   6.061   4.279  0.0747 -0.0247  0.2494
   35MOL0     C 4738   2.822   5.500   3.907 -0.3698 -0.1206 -0.2583
   35MOL0     C 4739   2.717   5.477   3.814 -0.1264  0.3083  0.0663
   35MOL0     O 4740   2.753   5.385   3.485  0.0717 -0.0671 -0.2512
   35MOL0     C 4741   2.408   5.362   3.425 -0.0247  0.5310 -0.1910
   35MOL0     C 4742   2.319   5.366   3.326  0.2223  0.3780 -0.5253
   35MOL0     N 4743   1.732   5.310   2.981  0.4036 -0.6632 -0.3554
   35MOL0     N 4744   1.639   5.218   2.966 -1.0085  0.2725  0.3056
   35MOL0     C 4745   0.613   5.306   2.274  0.5571  0.4069  0.2774
   35MOL0     C 4746   0.487   5.329   2.228 -0.2446 -0.1945 -0.3130
   35MOL0     C 4747   0.153   5.364   1.935  0.5629  0.4644 -0.7020
   35MOL0     C 4748   0.051   5.343   2.036 -0.7061 -0.5762  0.0395
   35MOL0     C 4749  -0.077   5.388   2.017  0.6366 -0.1971 -0.0656
   35MOL0     C 4750  -0.113   5.450   1.895 -0.1341  0.5320 -0.1286
   35MOL0     O 4751  -0.235   5.504   1.883 -0.6070 -0.4169 -0.6530
   35MOL0     C 4752  -0.263   5.597   1.775  0.2263  0.3423  0.4152
   35MOL0     C 4753  -0.410   5.635   1.786 -0.0144 -0.2247  0.0676
   35MOL0     C 4754  -0.425   5.754   1.877  0.3419  0.1998 -0.2482
   35MOL0     C 4755  -0.557   5.830   1.869 -0.5266  0.5420 -0.4085
   35MOL0     C 4756  -0.575   5.895   1.737  0.1768  0.6014 -0.0950
   35MOL0     C 4757  -0.591   5.936   1.625 -0.9294  0.1014  0.1182
   35MOL0     C 4758  -0.017   5.470   1.800  0.2234 -0.5255 -0.8194
   35MOL0     C 4759   0.115   5.417   1.808  0.0388 -0.2414  0.6584
   35MOL0     C 4760   0.196   5.434   1.686 -0.3152 -0.0849  0.4434
   35MOL0     H 4761   0.442   5.060   2.029  1.2164  0.4128 -0.3354
   35MOL0     H 4762   0.680   5.014   2.133 -0.3771 -0.4865 -0.6936
   35MOL0     H 4763   0.748   5.215   2.488  0.0985  1.5361  0.1951
   35MOL0     H 4764   0.865   5.331   2.421  1.0970 -0.1921  2.2640
   35MOL0     H 4765   0.945   5.172   2.595 -0.6930 -1.0057  0.0218
   35MOL0     H 4766   0.958   5.048   2.463  0.0462  1.0743  0.2528
   35MOL0     H 4767   1.096   5.194   2.327 -0.7930  1.2651 -0.5008
   35MOL0     H 4768   1.100   5.316   2.447 -0.6475 -0.4841 -0.5795
   35MOL0     H 4769   1.180   5.126   2.619 -1.4319 -2.4408  0.3739
   35MOL0     H 4770   1.189   5.017   2.499 -1.1202 -0.4362  1.4935
   35MOL0     H 4771   1.313   5.299   2.485 -4.0988 -0.3769 -3.1899
   35MOL0     H 4772   1.331   5.175   2.368 -3.5914  2.6418 -0.9661
   35MOL0     H 4773   1.486   5.047   2.517 -0.3109  0.0057  0.6461
   35MOL0     H 4774   1.537   5.225   2.550 -0.3287  0.9365  1.0667
   35MOL0     H 4775   1.364   5.041   2.700 -1.6672  1.5092 -0.5038
   35MOL0     H 4776   1.390   5.206   2.752 -1.3349 -0.1758 -0.3742
   35MOL0     H 4777   1.531   5.020   2.864  1.7633  2.8430  3.3216
   35MOL0     H 4778   1.635   5.031   2.710 -1.9159 -1.2700  0.1306
   35MOL0     H 4779   1.749   5.282   2.653 -1.2512  1.4483  0.1329
   35MOL0     H 4780   1.889   5.525   2.882  1.2064 -0.5466  0.7897
   35MOL0     H 4781   1.926   5.429   2.737 -0.7283  0.5235 -0.6773
   35MOL0     H 4782   2.011   5.364   3.017 -0.5830 -2.6768  0.0735
   35MOL0     H 4783   2.060   5.267   2.881 -1.7923 -0.0835  2.4020
   35MOL0     H 4784   2.179   5.466   2.775  0.7998 -1.3206 -0.8661
   35MOL0     H 4785   2.139   5.559   2.912  1.8439  0.2344  1.1182
   35MOL0     H 4786   2.326   5.318   2.918  2.3987 -0.2525  2.9137
   35MOL0     H 4787   2.346   5.488   2.959 -1.5429  0.7016  1.6227
   35MOL0     H 4788   2.522   5.445   3.070 -0.9211  1.4847 -0.0699
   35MOL0     H 4789   2.707   5.553   3.148 -1.7354 -0.1222 -0.5131
   35MOL0     H 4790   2.792   5.425   3.232 -1.1660 -1.5108 -3.0047
   35MOL0     H 4791   2.749   5.574   3.316  0.4443 -1.2189  0.1268
   35MOL0     H 4792   2.748   5.144   3.753  0.4606 -0.2295 -0.7336
   35MOL0     H 4793   2.922   5.179   3.935  0.3467  0.1606 -0.0757
   35MOL0     H 4794   3.057   5.574   3.959 -2.2183 -0.6485  0.4050
   35MOL0     H 4795   2.998   5.604   4.121 -2.8164 -3.8094  1.7909
   35MOL0     H 4796   3.201   5.465   4.218 -1.2354 -0.1434 -1.0410
   35MOL0     H 4797   3.259   5.447   4.049  2.4996  1.4466 -1.1085
   35MOL0     H 4798   3.320   5.681   4.228  1.6295  0.1814 -1.2085
   35MOL0     H 4799   3.196   5.738   4.135  0.7728  0.7941  3.4351
   35MOL0     H 4800   3.333   5.637   3.927  0.5973 -1.3852  0.1667
   35MOL0     H 4801   3.466   5.645   4.045 -0.0714  0.4384  0.8287
   35MOL0     H 4802   3.424   5.845   3.894 -2.3875 -0.6078 -1.1736
   35MOL0     H 4803   3.278   5.878   3.980  1.0016 -0.0075  1.1383
   35MOL0     H 4804   3.555   5.837   4.089 -0.6434 -0.2102 -1.5327
   35MOL0     H 4805   3.430   5.901   4.191 -2.7684  0.3108 -1.1026
   35MOL0     H 4806   3.422   6.127   4.083  1.8636  1.1200  0.9050
   35MOL0     H 4807   3.495   6.056   3.939 -0.0811 -2.8176 -0.0602
   35MOL0     H 4808   3.633   6.205   4.105 -0.9747 -0.5056  1.9274
   35MOL0     H 4809   3.712   6.046   4.045  0.8068 -0.4188 -0.9890
   35MOL0     H 4810   2.831   5.598   3.952 -0.3997 -0.2480  0.0230
   35MOL0     H 4811   2.644   5.551   3.783 -1.4459 -1.5777 -1.6104
   35MOL0     H 4812   2.375   5.337   3.526  0.3328 -2.4875 -0.7125
   35MOL0     H 4813   2.217   5.334   3.346  0.1888  1.1472  0.6331
   35MOL0     H 4814   0.647   5.384   2.341 -0.2550  1.7612 -0.8301
   35MOL0     H 4815   0.449   5.428   2.251 -3.2134 -0.5830 -2.8875
   35MOL0     H 4816   0.081   5.297   2.129  2.0561 -0.1366 -0.5559
   35MOL0     H 4817  -0.144   5.385   2.103  1.1925 -1.9509  0.3534
   35MOL0     H 4818  -0.200   5.686   1.773 -1.2548  1.4626 -2.7139
   35MOL0     H 4819  -0.238   5.551   1.680  2.8421  0.9835  0.7310
   35MOL0     H 4820  -0.469   5.549   1.818  2.2008 -1.2931  1.4579
   35MOL0     H 4821  -0.447   5.668   1.688  0.2303  2.0557  0.6810
   35MOL0     H 4822  -0.418   5.717   1.980  2.4330  2.7472  0.6507
   35MOL0     H 4823  -0.347   5.829   1.858  0.5373 -0.1666 -0.9360
   35MOL0     H 4824  -0.561   5.906   1.947  0.9378 -0.8784  1.1143
   35MOL0     H 4825  -0.633   5.751   1.867  0.9296 -0.8992 -0.7622
   35MOL0     H 4826  -0.604   5.985   1.531  0.3867  1.2125  0.4900
   35MOL0     H 4827  -0.046   5.515   1.705 -0.8886  0.0844 -0.2097
   35MOL0     H 4828   0.143   5.395   1.599  1.4589  0.6627 -1.0334
   35MOL0     H 4829   0.213   5.542   1.677 -1.8143  0.0056 -2.2478
   35MOL0     H 4830   0.290   5.377   1.690 -0.5434 -0.9050 -2.8056
   36MOL0     O 4831  10.375   3.363   5.597  0.0874 -0.0555  0.0545
   36MOL0     C 4832  10.358   3.454   5.512 -0.0026 -0.5509  0.0269
   36MOL0     O 4833  10.450   3.519   5.435  0.2125  0.1622  0.7219
   36MOL0     C 4834  10.586   3.519   5.449  0.1412 -0.1139 -0.9517
   36MOL0     C 4835  10.657   3.467   5.557 -0.4588 -0.9520  0.4600
   36MOL0     C 4836  10.800   3.472   5.549  1.1202 -0.4216  0.3685
   36MOL0     C 4837  10.869   3.518   5.433 -1.2899 -0.0206 -1.0216
   36MOL0     O 4838  11.004   3.522   5.409 -0.5526  0.0333  0.2983
   36MOL0     C 4839  11.088   3.453   5.500 -0.4987 -0.0993  0.0960
   36MOL0     C 4840  11.234   3.467   5.450 -0.4056  0.2642 -0.1808
   36MOL0     C 4841  11.314   3.598   5.471  0.6876 -0.2311 -0.6424
   36MOL0     C 4842  11.460   3.583   5.421  0.6040 -0.1174  0.5209
   36MOL0     C 4843  11.554   3.697   5.448 -0.1396 -0.1612 -1.3900
   36MOL0     C 4844  11.554   3.743   5.589  0.0869 -0.0451 -0.3827
   36MOL0     C 4845  11.649   3.859   5.622 -0.6073 -0.0222 -0.6634
   36MOL0     C 4846  11.783   3.808   5.660 -0.3685  0.2178 -0.5399
   36MOL0     N 4847  11.875   3.807   5.544 -0.0800 -0.1206  0.7409
   36MOL0     C 4848  11.944   3.705   5.492 -0.7812  0.2933  0.0673
   36MOL0     C 4849  12.034   3.752   5.400 -0.1561 -0.6041  0.5132
   36MOL0     C 4850  12.135   3.666   5.324 -0.1668 -0.4668 -0.5560
   36MOL0     C 4851  12.279   3.732   5.330 -0.3546 -0.3303 -0.1701
   36MOL0     C 4852  12.299   3.820   5.209 -0.7385 -0.4849  0.8162
   36MOL0     C 4853  12.404   3.923   5.220 -0.2270  0.6929 -0.1072
   36MOL0     O 4854  12.389   4.004   5.346 -0.3050  1.3339  0.4488
   36MOL0     C 4855  12.514   4.044   5.393 -0.0535  0.8808  0.5305
   36MOL0     C 4856  12.531   4.056   5.527  0.4400  0.0246 -0.3030
   36MOL0     C 4857  12.640   4.105   5.594  0.2149  0.4786 -0.3084
   36MOL0     C 4858  12.625   4.113   5.740  0.1304 -0.0185  0.2814
   36MOL0     C 4859  12.759   4.136   5.520  0.5315 -0.0031 -0.1338
   36MOL0     C 4860  12.887   4.165   5.587 -0.2409 -0.7231 -0.0231
   36MOL0     O 4861  12.993   4.171   5.496 -0.0401  0.2427 -0.4825
   36MOL0     C 4862  13.118   4.135   5.532 -0.2023  0.5886 -0.5947
   36MOL0     C 4863  13.154   3.999   5.551  0.0873  0.4066 -0.7760
   36MOL0     C 4864  13.287   3.964   5.577 -0.1984 -0.0969  0.4611
   36MOL0     C 4865  13.387   4.061   5.576 -0.0096 -0.0036 -0.7162
   36MOL0     O 4866  13.513   4.007   5.589 -0.3834 -0.1203  0.3225
   36MOL0     C 4867  13.595   4.072   5.688  0.9143  0.3873 -1.2185
   36MOL0     C 4868  13.700   3.968   5.734 -0.8191  0.3222  0.0278
   36MOL0     C 4869  13.812   4.033   5.828  0.1160 -0.0014  0.0155
   36MOL0     C 4870  13.904   3.927   5.886  0.2675  0.4374 -0.6276
   36MOL0     C 4871  14.007   3.982   5.983 -1.1021  0.0281 -0.6531
   36MOL0     C 4872  14.151   3.932   5.967  0.1237  0.3583  1.5040
   36MOL0     C 4873  14.257   4.036   6.020  0.3978 -0.1708 -0.2811
   36MOL0     C 4874  14.241   4.058   6.170 -0.1765  0.0055 -0.0736
   36MOL0    Cl 4875  14.112   4.190   6.213 -0.6099  0.1117 -0.4543
   36MOL0     C 4876  13.361   4.202   5.562  0.1160  0.1348 -0.1135
   36MOL0     C 4877  13.223   4.235   5.546 -0.1646 -0.0663  0.5035
   36MOL0     O 4878  12.900   4.174   5.708  0.0325 -0.1547 -0.1328
   36MOL0     C 4879  12.749   4.127   5.379  0.9032  1.3510 -0.3296
   36MOL0     C 4880  12.628   4.086   5.314 -0.3409  0.3513 -0.9639
   36MOL0     N 4881  12.015   3.888   5.391  0.4503 -0.4091  0.6135
   36MOL0     N 4882  11.911   3.919   5.468  0.1570  0.0612 -0.3484
   36MOL0     C 4883  10.790   3.563   5.328  0.1258 -0.3138  0.6188
   36MOL0     C 4884  10.656   3.554   5.332 -0.1695 -0.9820 -0.1398
   36MOL0     C 4885  10.219   3.495   5.484 -0.7173  0.0572 -0.9903
   36MOL0     C 4886  10.191   3.549   5.357  0.3654 -0.0373 -0.4272
   36MOL0     C 4887  10.059   3.585   5.324 -1.6667  0.5357  0.3555
   36MOL0     C 4888   9.956   3.551   5.404 -0.7435 -0.3675  0.2438
   36MOL0     O 4889   9.823   3.565   5.362 -0.1158  0.7220 -0.3588
   36MOL0     C 4890   9.791   3.559   5.223 -0.0288 -0.4417  0.1915
   36MOL0     C 4891   9.776   3.692   5.168 -0.7001 -0.1139 -0.3951
   36MOL0     C 4892   9.850   3.707   5.032 -0.8472 -0.3725  0.6601
   36MOL0     C 4893   9.884   3.849   5.010  1.4819 -0.2744 -0.1340
   36MOL0     C 4894  10.006   3.880   5.089  0.3059  0.1570  1.0442
   36MOL0     C 4895  10.102   3.898   5.156  0.1298  0.1084  0.1878
   36MOL0     C 4896   9.985   3.517   5.539 -0.1055 -0.4904  0.0226
   36MOL0     C 4897  10.114   3.488   5.585  0.2141  0.0006  0.4523
   36MOL0     C 4898  10.126   3.455   5.726 -0.7644  0.0003 -0.6553
   36MOL0     H 4899  10.600   3.421   5.637 -1.4240  1.9352  1.5661
   36MOL0     H 4900  10.848   3.457   5.646 -1.2182  2.9167  2.2516
   36MOL0     H 4901  11.062   3.347   5.515  2.0695 -0.7086  0.7937
   36MOL0     H 4902  11.083   3.491   5.603 -1.4058  0.6240 -0.1985
   36MOL0     H 4903  11.289   3.394   5.511 -1.9890  0.6886  1.8594
   36MOL0     H 4904  11.248   3.433   5.347 -1.5983 -1.9475  0.3207
   36MOL0     H 4905  11.261   3.687   5.434 -0.3351 -0.7435 -0.4509
   36MOL0     H 4906  11.321   3.602   5.580 -4.5971  1.5218 -0.0912
   36MOL0     H 4907  11.503   3.488   5.452  0.4866 -1.6196 -3.3362
   36MOL0     H 4908  11.461   3.580   5.311 -0.0158 -0.0607  0.5108
   36MOL0     H 4909  11.532   3.772   5.371  0.8500 -0.2932 -1.8249
   36MOL0     H 4910  11.652   3.656   5.419  0.2262 -0.6413  0.4226
   36MOL0     H 4911  11.455   3.777   5.619 -0.3328 -0.8577 -0.8270
   36MOL0     H 4912  11.582   3.656   5.650 -0.9957 -1.1603 -1.4247
   36MOL0     H 4913  11.611   3.905   5.714 -0.5219 -0.7184 -0.2738
   36MOL0     H 4914  11.642   3.927   5.537 -1.0011  0.4261 -0.2793
   36MOL0     H 4915  11.825   3.876   5.734  1.4701  0.2374 -1.5544
   36MOL0     H 4916  11.777   3.709   5.705 -3.0147  1.0718  1.2262
   36MOL0     H 4917  11.918   3.605   5.524 -0.2056  0.8876  2.5490
   36MOL0     H 4918  12.099   3.649   5.223 -1.1423 -0.0949 -0.2763
   36MOL0     H 4919  12.155   3.564   5.360  2.2976 -0.6250 -2.1396
   36MOL0     H 4920  12.279   3.791   5.422  0.6199 -1.1881  0.4018
   36MOL0     H 4921  12.356   3.655   5.341 -3.3470 -3.2886  2.6537
   36MOL0     H 4922  12.327   3.757   5.124 -1.7865 -0.2583  0.2862
   36MOL0     H 4923  12.204   3.871   5.194 -1.4467 -1.0072  3.2252
   36MOL0     H 4924  12.504   3.882   5.234 -0.3037  1.3667  3.7200
   36MOL0     H 4925  12.408   3.995   5.137  3.0836  0.5353 -0.1920
   36MOL0     H 4926  12.438   4.040   5.581 -0.6375 -1.5072 -2.4430
   36MOL0     H 4927  12.524   4.147   5.762  0.2964  0.1588  0.7976
   36MOL0     H 4928  12.690   4.190   5.784  0.6506 -1.6222  2.4813
   36MOL0     H 4929  12.655   4.023   5.795  2.9298  1.0583  0.7166
   36MOL0     H 4930  13.078   3.921   5.549 -1.3999  1.7940 -1.2806
   36MOL0     H 4931  13.320   3.861   5.582 -3.9852 -1.4744 -0.2607
   36MOL0     H 4932  13.636   4.162   5.642 -0.2108  0.9892 -1.0688
   36MOL0     H 4933  13.533   4.115   5.766 -0.7350  1.0412 -2.8193
   36MOL0     H 4934  13.654   3.883   5.784 -0.6237 -1.3405 -2.4860
   36MOL0     H 4935  13.743   3.934   5.640  1.9708 -0.1931  1.3800
   36MOL0     H 4936  13.776   4.095   5.911 -1.9207 -0.8059 -0.2003
   36MOL0     H 4937  13.875   4.102   5.771  0.0436  0.0321 -0.0250
   36MOL0     H 4938  13.943   3.876   5.798  0.3792 -1.1933  0.3310
   36MOL0     H 4939  13.847   3.848   5.934 -0.1566  0.6743 -0.7368
   36MOL0     H 4940  14.030   4.086   5.962  2.0816 -0.2663  0.8373
   36MOL0     H 4941  13.977   3.971   6.088 -3.2362 -0.4897 -1.2695
   36MOL0     H 4942  14.156   3.903   5.862 -2.5888  2.0687  0.8103
   36MOL0     H 4943  14.156   3.834   6.016  0.0606 -0.2716  0.2919
   36MOL0     H 4944  14.243   4.131   5.967 -1.3592 -1.2752 -1.9451
   36MOL0     H 4945  14.359   3.998   6.014  0.9815  1.2145  0.3923
   36MOL0     H 4946  14.340   4.088   6.207 -0.1545  0.8481 -0.7853
   36MOL0     H 4947  14.208   3.965   6.217  2.3496 -0.9724 -0.0338
   36MOL0     H 4948  13.446   4.266   5.545  0.4372 -0.2168  0.1463
   36MOL0     H 4949  13.200   4.337   5.517  0.1951  0.4227  1.8774
   36MOL0     H 4950  12.834   4.150   5.316  0.2135 -0.5159 -2.0573
   36MOL0     H 4951  12.626   4.076   5.206 -1.7837  0.7063 -0.9960
   36MOL0     H 4952  10.844   3.585   5.237  1.1217 -0.7397  1.0900
   36MOL0     H 4953  10.592   3.581   5.249  1.8946  2.2572 -0.8658
   36MOL0     H 4954  10.258   3.560   5.273 -0.6609  0.3256 -1.2215
   36MOL0     H 4955  10.051   3.603   5.217  0.9884 -0.7325 -0.1351
   36MOL0     H 4956   9.855   3.493   5.164 -1.8425 -0.5266 -1.7976
   36MOL0     H 4957   9.692   3.513   5.215  0.3494 -1.3796  0.6966
   36MOL0     H 4958   9.815   3.760   5.244 -1.7677 -0.5471  0.5673
   36MOL0     H 4959   9.672   3.712   5.142  0.2166  1.5942 -3.2765
   36MOL0     H 4960   9.942   3.650   5.020  0.9308  2.7150 -1.9978
   36MOL0     H 4961   9.789   3.670   4.949  3.5716  0.6810 -3.5297
   36MOL0     H 4962   9.794   3.904   5.038  0.1143 -2.9091  1.0155
   36MOL0     H 4963   9.897   3.861   4.902 -0.2442 -0.6075 -0.4031
   36MOL0     H 4964  10.175   3.905   5.235 -1.5275 -0.6717  1.8797
   36MOL0     H 4965   9.902   3.512   5.609 -1.0867 -2.0179 -1.1596
   36MOL0     H 4966  10.057   3.521   5.781  0.6270 -0.9196  2.4064
   36MOL0     H 4967  10.086   3.359   5.760  0.2327  1.5381  6.5671
   36MOL0     H 4968  10.229   3.458   5.761 -0.9096 -0.3780 -0.1814
   37MOL0     O 4969   9.708  10.690   6.389 -0.3402  0.2080 -0.1849
   37MOL0     C 4970   9.646  10.749   6.305  0.5247  0.0057 -0.9193
   37MOL0     O 4971   9.689  10.850   6.237 -0.4115 -1.2708 -0.2918
   37MOL0     C 4972   9.828  10.864   6.211  0.0901  0.4656 -1.1625
   37MOL0     C 4973   9.869  10.997   6.200  0.1753  0.1792  0.2039
   37MOL0     C 4974  10.000  11.013   6.161 -0.0087  0.2029  0.7526
   37MOL0     C 4975  10.094  10.907   6.141 -0.0416 -0.5119 -0.4017
   37MOL0     O 4976  10.223  10.949   6.109  0.0588 -0.8752 -0.4801
   37MOL0     C 4977  10.327  10.910   6.199 -0.5479  0.2575 -0.1267
   37MOL0     C 4978  10.456  10.999   6.173  0.3248 -0.2984  0.5140
   37MOL0     C 4979  10.505  11.026   6.026  0.4869  0.5437  0.8020
   37MOL0     C 4980  10.579  11.154   6.024  0.7101 -0.2892 -0.3654
   37MOL0     C 4981  10.675  11.169   5.907 -0.2189 -0.0136 -0.1180
   37MOL0     C 4982  10.816  11.129   5.926 -0.2743  0.1135 -0.3860
   37MOL0     C 4983  10.901  11.216   6.024  0.1914  0.1545  0.3919
   37MOL0     C 4984  10.917  11.365   5.982 -0.2452  0.2288 -0.0839
   37MOL0     N 4985  10.987  11.385   5.851  0.8269 -0.1815  0.3595
   37MOL0     C 4986  11.123  11.376   5.841  0.3209  0.1855 -0.4013
   37MOL0     C 4987  11.149  11.386   5.707  0.8765 -0.4109 -0.4861
   37MOL0     C 4988  11.282  11.361   5.640 -0.4462 -0.2400  0.8833
   37MOL0     C 4989  11.386  11.473   5.655  0.3422 -0.1773 -0.8676
   37MOL0     C 4990  11.456  11.484   5.789  0.2796  0.2396 -1.0671
   37MOL0     C 4991  11.575  11.580   5.772 -0.3972 -0.0456 -0.8735
   37MOL0     O 4992  11.678  11.542   5.856 -0.5535 -0.4229 -0.1395
   37MOL0     C 4993  11.791  11.618   5.877  0.0463  0.5312  0.1797
   37MOL0     C 4994  11.829  11.713   5.791 -0.5100  0.3930 -0.0994
   37MOL0     C 4995  11.961  11.764   5.797  0.7183 -0.4031  0.1076
   37MOL0     C 4996  12.012  11.856   5.687  0.5521  0.0705 -0.2923
   37MOL0     C 4997  12.053  11.716   5.895  0.1338  0.2351 -0.1549
   37MOL0     C 4998  12.195  11.738   5.882 -0.2455 -1.1535 -0.0341
   37MOL0     O 4999  12.231  11.875   5.892  0.1663  0.1107  0.4270
   37MOL0     C 5000  12.367  11.907   5.871  0.3551 -0.2073 -0.5199
   37MOL0     C 5001  12.474  11.841   5.938  0.0283  0.6619  0.1510
   37MOL0     C 5002  12.609  11.877   5.913  0.2197 -0.2457  0.5387
   37MOL0     C 5003  12.641  11.980   5.833  0.7009  0.0421 -0.0726
   37MOL0     O 5004  12.777  12.023   5.816  0.6070  0.0899  0.6036
   37MOL0     C 5005  12.828  12.094   5.939  0.8212  0.4267  0.7913
   37MOL0     C 5006  12.968  12.140   5.907  0.4530 -0.4150 -0.0031
   37MOL0     C 5007  13.017  12.226   6.021 -0.3193  0.2323  0.2019
   37MOL0     C 5008  13.163  12.264   5.993 -0.1581  0.5376 -0.8177
   37MOL0     C 5009  13.241  12.257   6.125 -0.0836 -0.0098 -0.1227
   37MOL0     C 5010  13.380  12.310   6.104  0.1692 -0.8100 -0.1548
   37MOL0     C 5011  13.482  12.278   6.215  0.2150  0.0570  0.1616
   37MOL0     C 5012  13.625  12.310   6.176  0.0265  0.2684 -0.8061
   37MOL0    Cl 5013  13.708  12.197   6.056 -0.1695 -0.1666 -0.1801
   37MOL0     C 5014  12.537  12.052   5.774  1.1151  0.5261 -0.3155
   37MOL0     C 5015  12.403  12.019   5.792  0.2557  0.4950  0.6490
   37MOL0     O 5016  12.265  11.641   5.861 -0.3551 -0.0808 -0.3648
   37MOL0     C 5017  12.008  11.628   5.988 -0.0785 -0.3702  0.2842
   37MOL0     C 5018  11.881  11.581   5.986  0.0777  0.8597  0.4739
   37MOL0     N 5019  11.028  11.425   5.642  0.0227  0.6142  0.5730
   37MOL0     N 5020  10.934  11.428   5.731  0.1301  0.2760 -0.3613
   37MOL0     C 5021  10.053  10.782   6.162  0.2500 -0.0118 -0.2394
   37MOL0     C 5022   9.919  10.761   6.194  1.2014  0.6665  0.4589
   37MOL0     C 5023   9.501  10.724   6.301  0.3235  0.4562  0.0623
   37MOL0     C 5024   9.426  10.774   6.190  0.8200  0.2855 -0.8818
   37MOL0     C 5025   9.291  10.746   6.181 -0.3008 -0.3142 -0.7044
   37MOL0     C 5026   9.221  10.689   6.281  0.9699  0.3567 -0.1252
   37MOL0     O 5027   9.082  10.658   6.279 -0.4568 -0.3524 -0.1183
   37MOL0     C 5028   9.024  10.643   6.148  0.2890 -0.4026 -0.0606
   37MOL0     C 5029   8.893  10.557   6.166 -0.1514 -0.1534  0.3791
   37MOL0     C 5030   8.779  10.630   6.098 -0.1602 -0.2057 -0.1862
   37MOL0     C 5031   8.670  10.534   6.043 -0.4314  0.3291 -0.5016
   37MOL0     C 5032   8.631  10.444   6.154  0.1346 -0.4429  0.1312
   37MOL0     C 5033   8.588  10.388   6.254  0.1220 -0.0240 -0.6798
   37MOL0     C 5034   9.289  10.650   6.390 -0.3495  0.1984  1.6019
   37MOL0     C 5035   9.424  10.666   6.400  0.3202  0.4762  0.3276
   37MOL0     C 5036   9.476  10.620   6.530 -0.0209  0.3984  0.2559
   37MOL0     H 5037   9.793  11.072   6.219  0.5098  0.6412 -0.2592
   37MOL0     H 5038  10.036  11.113   6.139  1.0652 -0.9752 -3.7547
   37MOL0     H 5039  10.345  10.803   6.185 -3.4613 -0.9878  3.7689
   37MOL0     H 5040  10.295  10.935   6.301 -1.2588  1.8473 -0.7091
   37MOL0     H 5041  10.422  11.097   6.207 -2.3530 -0.5107 -1.2164
   37MOL0     H 5042  10.535  10.968   6.241  0.4596 -1.9508 -0.3291
   37MOL0     H 5043  10.573  10.947   5.992 -1.8772 -0.7460 -1.3357
   37MOL0     H 5044  10.420  11.030   5.957  0.7979 -0.6317  0.3112
   37MOL0     H 5045  10.513  11.241   6.027  5.1954  3.4953  0.6302
   37MOL0     H 5046  10.638  11.165   6.115  1.4675  0.5365 -0.9342
   37MOL0     H 5047  10.686  11.273   5.875  0.1256 -0.0768 -0.2006
   37MOL0     H 5048  10.636  11.107   5.826  1.1238 -1.3681  0.2300
   37MOL0     H 5049  10.823  11.028   5.966 -0.2269  0.6745  1.1181
   37MOL0     H 5050  10.878  11.131   5.836  0.3959  0.0173  0.0679
   37MOL0     H 5051  11.003  11.176   6.029  0.2806  0.3764  0.4143
   37MOL0     H 5052  10.869  11.194   6.126  0.0516 -1.7582 -0.0285
   37MOL0     H 5053  10.823  11.420   5.974 -0.2511  0.0753 -1.3967
   37MOL0     H 5054  10.971  11.415   6.062  0.9043 -0.3324 -0.4898
   37MOL0     H 5055  11.195  11.360   5.920 -1.9901 -3.1996  1.2084
   37MOL0     H 5056  11.259  11.346   5.535  1.4179 -3.0266  0.7718
   37MOL0     H 5057  11.326  11.267   5.677 -0.0610 -0.1640  0.6127
   37MOL0     H 5058  11.457  11.461   5.573  1.1038  1.1646 -0.4419
   37MOL0     H 5059  11.347  11.571   5.626  1.9878  0.1801 -2.0041
   37MOL0     H 5060  11.388  11.514   5.869 -0.9236  1.2803 -2.4191
   37MOL0     H 5061  11.509  11.392   5.818 -1.2537 -0.0057  1.1972
   37MOL0     H 5062  11.615  11.564   5.671 -0.3179 -2.5853 -0.4866
   37MOL0     H 5063  11.551  11.685   5.789  0.9977  0.0133  1.0341
   37MOL0     H 5064  11.765  11.760   5.717  1.3536  2.4227 -0.5230
   37MOL0     H 5065  11.965  11.953   5.701 -1.2787 -0.2359 -3.3704
   37MOL0     H 5066  11.978  11.806   5.596  0.8402 -0.4797 -0.1028
   37MOL0     H 5067  12.119  11.874   5.682  0.7543 -1.0339 -0.3403
   37MOL0     H 5068  12.456  11.752   5.998  2.8324  1.1413  1.9222
   37MOL0     H 5069  12.689  11.816   5.952  0.9513  0.7320  0.5835
   37MOL0     H 5070  12.767  12.185   5.935 -1.9093 -1.2974  0.6146
   37MOL0     H 5071  12.820  12.036   6.032 -3.8012 -1.2717 -0.3852
   37MOL0     H 5072  13.032  12.052   5.902  0.2704 -0.6018  0.7784
   37MOL0     H 5073  12.973  12.195   5.812 -0.0431 -0.2190  0.0819
   37MOL0     H 5074  13.008  12.170   6.115  1.0038 -1.5192 -0.6457
   37MOL0     H 5075  12.971  12.325   6.017  2.8987  1.8903  1.0270
   37MOL0     H 5076  13.166  12.361   5.941 -1.6742  0.0014 -1.9940
   37MOL0     H 5077  13.213  12.196   5.923  1.0346 -0.6989  1.1292
   37MOL0     H 5078  13.182  12.312   6.199 -2.8077 -1.7313 -0.8379
   37MOL0     H 5079  13.251  12.152   6.154 -1.8492  0.2076  1.5020
   37MOL0     H 5080  13.370  12.418   6.095  0.6051 -0.8583 -1.4521
   37MOL0     H 5081  13.417  12.265   6.011 -2.8234 -1.8406 -0.9909
   37MOL0     H 5082  13.485  12.171   6.240  0.5260  0.1438  0.4900
   37MOL0     H 5083  13.458  12.330   6.308 -0.4936 -2.2766  1.3640
   37MOL0     H 5084  13.675  12.322   6.272 -2.3722 -0.0464  0.5742
   37MOL0     H 5085  13.628  12.412   6.136 -0.7532  1.2977  1.5569
   37MOL0     H 5086  12.557  12.135   5.707  2.9342  1.1292  0.9318
   37MOL0     H 5087  12.335  12.073   5.727 -0.3790 -1.9039 -0.7925
   37MOL0     H 5088  12.076  11.582   6.058  0.0430  0.8277  0.9851
   37MOL0     H 5089  11.858  11.500   6.054  2.1233  0.9714  1.3781
   37MOL0     H 5090  10.121  10.699   6.147  0.9903  0.5673 -0.1138
   37MOL0     H 5091   9.893  10.656   6.209  1.8880 -0.0114 -2.4519
   37MOL0     H 5092   9.474  10.814   6.101  1.6160 -1.4207 -1.2486
   37MOL0     H 5093   9.241  10.780   6.090 -0.6052 -2.4775 -1.3986
   37MOL0     H 5094   9.000  10.742   6.109 -0.5995  0.0777  1.5712
   37MOL0     H 5095   9.090  10.591   6.079  0.6528 -0.9355  0.6717
   37MOL0     H 5096   8.879  10.549   6.274 -1.2525  1.6555  0.4162
   37MOL0     H 5097   8.902  10.454   6.131  1.2280  0.1228 -0.1519
   37MOL0     H 5098   8.733  10.702   6.166  0.4491 -0.9816  1.0844
   37MOL0     H 5099   8.808  10.693   6.014 -1.5220  0.4956 -0.1636
   37MOL0     H 5100   8.710  10.468   5.966  0.8578 -0.7769  1.0549
   37MOL0     H 5101   8.583  10.588   6.005  1.3362  2.1685 -2.1326
   37MOL0     H 5102   8.551  10.341   6.342 -1.8391  1.6352 -0.5309
   37MOL0     H 5103   9.223  10.621   6.472 -1.5199 -0.7774  0.3742
   37MOL0     H 5104   9.521  10.710   6.574 -1.7779  1.2347  0.4246
   37MOL0     H 5105   9.389  10.582   6.585  0.8291  1.2726  2.3025
   37MOL0     H 5106   9.554  10.544   6.517 -0.4159  0.0233  0.0420
   38MOL0     O 5107   8.802   6.876   2.812  0.1889 -0.2800 -0.1512
   38MOL0     C 5108   8.861   6.982   2.810  0.4574 -0.9193 -0.2768
   38MOL0     O 5109   8.997   6.995   2.827  0.3501 -0.0384  0.1939
   38MOL0     C 5110   9.073   6.882   2.848 -0.7180 -0.7805 -0.0900
   38MOL0     C 5111   9.044   6.783   2.937  0.0902 -0.1379  0.9651
   38MOL0     C 5112   9.139   6.692   2.983  0.0750  0.0798  0.2835
   38MOL0     C 5113   9.266   6.708   2.943 -0.0021  0.5736  1.8544
   38MOL0     O 5114   9.357   6.625   2.989 -0.1948 -0.3538  0.5384
   38MOL0     C 5115   9.348   6.497   2.924  0.1121  0.1608 -0.7442
   38MOL0     C 5116   9.438   6.401   2.997 -0.0226 -0.2279 -1.8025
   38MOL0     C 5117   9.591   6.419   2.989  1.2107 -0.8487  0.0187
   38MOL0     C 5118   9.648   6.456   2.857 -0.9214  0.3805  0.1917
   38MOL0     C 5119   9.785   6.389   2.826 -0.3483  0.3535 -0.1719
   38MOL0     C 5120   9.890   6.429   2.929 -0.3890 -0.7453  0.2649
   38MOL0     C 5121  10.022   6.485   2.854 -0.0452 -0.7709  0.0676
   38MOL0     C 5122  10.098   6.376   2.787 -0.5516 -0.0816  0.1594
   38MOL0     N 5123  10.206   6.438   2.708 -0.4424 -0.6213 -0.0477
   38MOL0     C 5124  10.186   6.519   2.599 -0.3816 -0.7656  0.7771
   38MOL0     C 5125  10.298   6.524   2.537  0.2690  0.1315  0.3023
   38MOL0     C 5126  10.332   6.598   2.412 -0.0852 -0.0671 -0.1621
   38MOL0     C 5127  10.228   6.605   2.296  0.5662  0.0621  0.0391
   38MOL0     C 5128  10.282   6.687   2.174 -0.2484  0.0166 -0.9444
   38MOL0     C 5129  10.433   6.684   2.137  0.4732  0.7695 -0.0330
   38MOL0     O 5130  10.465   6.545   2.116 -0.0845 -0.5130 -0.1827
   38MOL0     C 5131  10.591   6.507   2.110 -0.0277 -0.2993  0.9965
   38MOL0     C 5132  10.700   6.598   2.075  0.4810  0.3160 -0.0005
   38MOL0     C 5133  10.826   6.557   2.045 -0.4320  0.5433  0.1649
   38MOL0     C 5134  10.920   6.663   1.989  0.3301  0.4062 -0.1986
   38MOL0     C 5135  10.847   6.413   2.051 -0.3678  0.1334 -0.5043
   38MOL0     C 5136  10.980   6.360   2.015 -0.5123 -0.5438 -0.1145
   38MOL0     O 5137  10.981   6.235   1.973  0.9617  0.4392  0.2484
   38MOL0     C 5138  11.097   6.164   1.982 -0.1067  0.0457 -0.4783
   38MOL0     C 5139  11.113   6.051   2.078  0.1113  0.0700  0.1684
   38MOL0     C 5140  11.235   5.983   2.082  0.1282  0.3453 -0.2465
   38MOL0     C 5141  11.348   6.019   2.003  0.6736 -0.4952  1.0828
   38MOL0     O 5142  11.467   5.957   1.984 -0.0376 -0.4238 -0.2017
   38MOL0     C 5143  11.457   5.815   2.023  0.6815  0.1971 -0.4815
   38MOL0     C 5144  11.579   5.741   1.983  0.3676 -0.5443 -0.2057
   38MOL0     C 5145  11.714   5.794   2.040 -1.3181  0.4899  0.3958
   38MOL0     C 5146  11.828   5.685   2.017 -0.0790 -0.4649  0.4359
   38MOL0     C 5147  11.861   5.657   1.870  0.0221 -0.1716  0.5437
   38MOL0     C 5148  12.005   5.591   1.852  0.2889 -0.0491  0.7018
   38MOL0     C 5149  12.037   5.590   1.701 -0.4258  0.5077 -0.1457
   38MOL0     C 5150  12.180   5.537   1.671 -1.0191 -0.4667 -0.4255
   38MOL0    Cl 5151  12.306   5.656   1.726  0.3460 -0.1288  0.7677
   38MOL0     C 5152  11.325   6.128   1.907  0.0198  0.5376  0.6644
   38MOL0     C 5153  11.201   6.192   1.895 -0.1381 -0.1105 -0.8764
   38MOL0     O 5154  11.080   6.430   2.033  0.6659  0.0365  0.0188
   38MOL0     C 5155  10.748   6.325   2.085  0.0390 -0.0313 -0.6094
   38MOL0     C 5156  10.621   6.373   2.107 -0.0604  0.1798 -0.2850
   38MOL0     N 5157  10.389   6.433   2.598  0.1791 -0.1880 -0.0606
   38MOL0     N 5158  10.333   6.397   2.706 -0.4334 -0.1903  0.7759
   38MOL0     C 5159   9.303   6.800   2.839 -0.1103  0.6169 -0.3027
   38MOL0     C 5160   9.199   6.878   2.791 -0.5534  0.6476  0.0724
   38MOL0     C 5161   8.777   7.102   2.790  0.3319  0.2104  0.2584
   38MOL0     C 5162   8.720   7.128   2.666 -0.2189 -0.2632  0.4870
   38MOL0     C 5163   8.612   7.227   2.659 -0.4921  1.1130  0.8481
   38MOL0     C 5164   8.600   7.329   2.752 -0.1205 -0.0117  0.0573
   38MOL0     O 5165   8.517   7.437   2.755  0.1543 -0.4813  0.4410
   38MOL0     C 5166   8.422   7.453   2.647  0.3461  0.0325  0.6169
   38MOL0     C 5167   8.321   7.550   2.689  0.1009  0.0122 -0.3058
   38MOL0     C 5168   8.215   7.577   2.585  0.1064 -0.7603  0.6729
   38MOL0     C 5169   8.109   7.469   2.552  0.6124  0.5331 -0.0911
   38MOL0     C 5170   8.033   7.424   2.668  0.9877 -0.4503 -0.5266
   38MOL0     C 5171   7.957   7.389   2.760  0.1431 -0.1829  0.4195
   38MOL0     C 5172   8.673   7.311   2.869 -0.1829  0.3436 -0.5831
   38MOL0     C 5173   8.756   7.204   2.889 -0.2787  0.1144  0.7611
   38MOL0     C 5174   8.845   7.199   3.015 -0.4608 -0.6684  0.1640
   38MOL0     H 5175   8.946   6.779   2.985  1.3584 -1.3065  3.6315
   38MOL0     H 5176   9.106   6.611   3.048 -3.4595  0.9486 -0.2050
   38MOL0     H 5177   9.360   6.499   2.816 -0.1230 -1.2810 -0.8177
   38MOL0     H 5178   9.249   6.451   2.938  0.8386 -1.1646  0.3675
   38MOL0     H 5179   9.390   6.399   3.096 -4.6743 -0.5786 -3.7908
   38MOL0     H 5180   9.410   6.302   2.959 -2.0433  0.4677 -2.2735
   38MOL0     H 5181   9.623   6.501   3.054  0.1334  0.9271 -1.5795
   38MOL0     H 5182   9.634   6.322   3.016  0.6512 -0.5333  2.2980
   38MOL0     H 5183   9.579   6.434   2.775 -1.0671  0.0367  0.4008
   38MOL0     H 5184   9.651   6.565   2.867 -1.3931  0.1797  4.0980
   38MOL0     H 5185   9.814   6.405   2.722 -2.5932  0.4309 -0.8462
   38MOL0     H 5186   9.768   6.281   2.825 -0.4274  0.3114  1.8617
   38MOL0     H 5187   9.856   6.509   2.996 -1.9516 -1.6287  0.5919
   38MOL0     H 5188   9.914   6.339   2.987 -1.5768 -1.6708 -0.6424
   38MOL0     H 5189  10.091   6.544   2.915 -0.0321 -3.1902  2.5760
   38MOL0     H 5190   9.985   6.556   2.778  0.0861 -0.3196  0.4233
   38MOL0     H 5191  10.145   6.305   2.856 -0.5664 -0.4397 -0.1974
   38MOL0     H 5192  10.028   6.319   2.726  0.3060  0.4673 -1.4051
   38MOL0     H 5193  10.098   6.578   2.576  1.0470  0.2146 -2.7884
   38MOL0     H 5194  10.422   6.560   2.363 -0.5139  0.1923 -1.1975
   38MOL0     H 5195  10.352   6.699   2.449 -1.3022  0.2290 -0.2469
   38MOL0     H 5196  10.207   6.503   2.263  1.0509  0.9136 -3.2628
   38MOL0     H 5197  10.136   6.658   2.320  0.7340  1.5243 -2.2235
   38MOL0     H 5198  10.224   6.636   2.097  0.4332  0.3935 -1.7269
   38MOL0     H 5199  10.253   6.793   2.169  2.4773  0.7964 -3.1170
   38MOL0     H 5200  10.455   6.736   2.043 -0.1941  1.0864 -0.0194
   38MOL0     H 5201  10.503   6.714   2.216 -0.4331  1.3916  0.5560
   38MOL0     H 5202  10.682   6.705   2.071 -2.3965 -0.0137  1.2444
   38MOL0     H 5203  10.880   6.764   2.006  1.3372  0.4860  1.9787
   38MOL0     H 5204  10.951   6.645   1.886 -0.7971  0.0583 -0.4984
   38MOL0     H 5205  11.007   6.676   2.054 -0.6557  0.5968  1.1508
   38MOL0     H 5206  11.032   6.017   2.142  1.1907  1.3217  2.2970
   38MOL0     H 5207  11.242   5.904   2.156 -2.3851 -1.4923 -1.7922
   38MOL0     H 5208  11.454   5.804   2.132 -0.0307  0.3451 -0.4819
   38MOL0     H 5209  11.365   5.774   1.980  0.6688  1.1806 -1.4520
   38MOL0     H 5210  11.569   5.635   2.006  1.5251 -0.4875  0.6699
   38MOL0     H 5211  11.585   5.745   1.874  0.2661  0.2135 -0.1921
   38MOL0     H 5212  11.698   5.831   2.142  0.1075  1.1248  0.4252
   38MOL0     H 5213  11.750   5.877   1.977  0.6506 -0.3644  0.3044
   38MOL0     H 5214  11.792   5.595   2.068  0.0291 -0.8723 -0.1882
   38MOL0     H 5215  11.921   5.712   2.068 -0.7727  1.7686  0.5938
   38MOL0     H 5216  11.786   5.591   1.825 -0.2288  1.6098 -1.8432
   38MOL0     H 5217  11.852   5.749   1.810 -0.9288 -0.6663 -0.1148
   38MOL0     H 5218  12.020   5.492   1.895 -0.9495 -1.1911 -1.3255
   38MOL0     H 5219  12.092   5.650   1.881  0.4729  0.0925 -0.1246
   38MOL0     H 5220  12.026   5.686   1.648  0.2058  0.7320  0.1247
   38MOL0     H 5221  11.971   5.524   1.643  0.6698  0.0173 -0.8723
   38MOL0     H 5222  12.186   5.514   1.564 -1.2193  0.1380 -0.5751
   38MOL0     H 5223  12.194   5.436   1.709 -0.7481 -1.8802 -3.8626
   38MOL0     H 5224  11.405   6.159   1.841  0.6430 -1.5357  0.3573
   38MOL0     H 5225  11.185   6.265   1.816  0.8586  1.0669 -0.0351
   38MOL0     H 5226  10.761   6.220   2.110  1.4474  0.2640 -0.0207
   38MOL0     H 5227  10.542   6.304   2.135  1.5672 -1.0927  1.4108
   38MOL0     H 5228   9.406   6.815   2.809 -0.0528 -1.6592 -1.4072
   38MOL0     H 5229   9.218   6.966   2.730  1.4884  0.3810  0.2332
   38MOL0     H 5230   8.740   7.064   2.580 -1.3310  1.9128 -1.5166
   38MOL0     H 5231   8.557   7.236   2.566  0.3811 -1.8549 -0.0473
   38MOL0     H 5232   8.471   7.501   2.561  1.1140 -1.2602  0.2965
   38MOL0     H 5233   8.374   7.358   2.621 -2.4593  2.0625 -2.2847
   38MOL0     H 5234   8.386   7.634   2.716  1.8147 -1.6034  0.9035
   38MOL0     H 5235   8.273   7.527   2.785 -0.9841  3.2195  0.0458
   38MOL0     H 5236   8.165   7.669   2.617 -1.5099 -1.9171  1.5749
   38MOL0     H 5237   8.248   7.618   2.489  0.3614  1.8653  1.7891
   38MOL0     H 5238   8.162   7.384   2.508  2.7212  1.5692  0.3032
   38MOL0     H 5239   8.041   7.517   2.480 -0.3913  0.0784  0.5286
   38MOL0     H 5240   7.900   7.355   2.844  0.8112  0.3540  1.1028
   38MOL0     H 5241   8.662   7.386   2.947 -0.4471 -0.8570  0.5850
   38MOL0     H 5242   8.804   7.274   3.083  0.7075  2.2827 -2.1344
   38MOL0     H 5243   8.846   7.097   3.052 -2.4420 -1.0585 -0.7604
   38MOL0     H 5244   8.950   7.223   2.991  0.4383 -1.7250  2.7469
   39MOL0     O 5245   5.265   0.698  10.450 -0.4883 -0.3969  0.4281
   39MOL0     C 5246   5.143   0.714  10.469  0.0222  0.1024 -0.2741
   39MOL0     O 5247   5.070   0.823  10.429 -0.2382  0.1599  0.1210
   39MOL0     C 5248   5.133   0.934  10.369 -0.4091 -0.1149  0.3106
   39MOL0     C 5249   5.087   0.995  10.257  0.0251  0.2026 -0.3852
   39MOL0     C 5250   5.153   1.103  10.197 -0.8347 -0.9562 -0.0467
   39MOL0     C 5251   5.264   1.159  10.258 -0.3637 -1.3717  0.0614
   39MOL0     O 5252   5.330   1.272  10.207 -0.1305  0.0945  0.4269
   39MOL0     C 5253   5.470   1.298  10.248  0.5687 -0.4221 -0.4360
   39MOL0     C 5254   5.555   1.377  10.150  0.2831  0.0685  0.8465
   39MOL0     C 5255   5.477   1.498  10.096 -0.7992  0.4384  0.6493
   39MOL0     C 5256   5.558   1.582   9.997  0.1264  0.5490  0.0876
   39MOL0     C 5257   5.472   1.675   9.894 -0.0416 -0.2708 -1.3405
   39MOL0     C 5258   5.449   1.818   9.939  0.9813 -0.7349 -0.0145
   39MOL0     C 5259   5.575   1.916   9.921  0.2221 -0.6036 -0.5403
   39MOL0     C 5260   5.608   1.948   9.770  0.4245  0.2136  0.3054
   39MOL0     N 5261   5.730   2.028   9.759  0.0954 -0.7705 -0.1087
   39MOL0     C 5262   5.799   2.079   9.871 -0.4171 -0.5883  0.2755
   39MOL0     C 5263   5.924   2.107   9.814 -0.1390  0.4258  0.1143
   39MOL0     C 5264   6.033   2.176   9.883  0.0292 -0.2105  0.8977
   39MOL0     C 5265   6.145   2.086   9.907 -0.6726  0.8235  0.3538
   39MOL0     C 5266   6.274   2.154   9.959 -0.3399 -0.1898  0.2546
   39MOL0     C 5267   6.392   2.058   9.980  0.1969 -0.5864 -0.7475
   39MOL0     O 5268   6.414   1.975   9.863 -0.2707 -0.8181 -0.6775
   39MOL0     C 5269   6.497   1.873   9.902 -1.0527 -0.3182  0.2487
   39MOL0     C 5270   6.449   1.755   9.962 -0.6668 -0.0264  0.0593
   39MOL0     C 5271   6.537   1.647  10.008 -0.1742  0.0326  0.2613
   39MOL0     C 5272   6.481   1.525  10.085 -0.0273  0.2470  0.4795
   39MOL0     C 5273   6.675   1.648   9.961  0.2898 -0.9216 -0.4009
   39MOL0     C 5274   6.778   1.548   9.987 -0.2460  0.4828 -1.1739
   39MOL0     O 5275   6.910   1.588   9.999 -0.1432 -0.0072  0.5648
   39MOL0     C 5276   7.013   1.505  10.026  0.7181  0.4824  0.0333
   39MOL0     C 5277   6.989   1.405  10.124  0.1892 -0.0270  0.7951
   39MOL0     C 5278   7.092   1.315  10.160 -0.2905 -0.3608 -0.0503
   39MOL0     C 5279   7.216   1.324  10.096 -0.1203 -1.1687  0.1107
   39MOL0     O 5280   7.324   1.250  10.136  0.3846 -0.5712 -0.5014
   39MOL0     C 5281   7.338   1.217  10.278 -0.4284  0.0789  0.5776
   39MOL0     C 5282   7.490   1.201  10.298 -0.1190 -0.9750 -0.7339
   39MOL0     C 5283   7.564   1.333  10.288 -0.0055 -0.7685 -1.2277
   39MOL0     C 5284   7.715   1.317  10.321  0.9258  0.2677  0.5348
   39MOL0     C 5285   7.763   1.445  10.372  0.2793 -0.5272 -0.8785
   39MOL0     C 5286   7.914   1.429  10.400 -0.1319  0.4817  0.1800
   39MOL0     C 5287   7.986   1.560  10.448 -0.4350 -0.5500  0.0599
   39MOL0     C 5288   8.139   1.558  10.424  0.0143  0.3761 -0.4084
   39MOL0    Cl 5289   8.177   1.549  10.251  0.6942  0.0739 -0.1067
   39MOL0     C 5290   7.241   1.427  10.001  1.5783  0.0475 -0.2491
   39MOL0     C 5291   7.140   1.511   9.971 -0.0507  0.5473  0.9940
   39MOL0     O 5292   6.739   1.433   9.978 -0.2616  0.0828 -0.6318
   39MOL0     C 5293   6.716   1.767   9.890 -0.1882  0.8387 -0.9067
   39MOL0     C 5294   6.635   1.871   9.874  0.1979 -0.4642 -0.1326
   39MOL0     N 5295   5.919   2.078   9.682 -0.2938 -0.6592 -0.6078
   39MOL0     N 5296   5.799   2.038   9.653 -0.7164 -0.3873 -0.8180
   39MOL0     C 5297   5.318   1.095  10.369  0.6144 -0.4190 -0.1037
   39MOL0     C 5298   5.254   0.977  10.422 -0.3023  0.1611  1.5509
   39MOL0     C 5299   5.068   0.599  10.536 -0.6472  0.6058 -0.5484
   39MOL0     C 5300   4.928   0.621  10.564  0.3260  0.4181  0.8875
   39MOL0     C 5301   4.854   0.525  10.644 -0.3868 -0.5318  0.2588
   39MOL0     C 5302   4.904   0.403  10.667 -0.0199 -0.4669 -0.7648
   39MOL0     O 5303   4.809   0.318  10.719 -0.2959  0.0792  0.2765
   39MOL0     C 5304   4.858   0.196  10.784 -0.4554 -1.1869  0.1596
   39MOL0     C 5305   4.746   0.150  10.872  0.3062 -0.6959 -0.1065
   39MOL0     C 5306   4.754   0.004  10.926  0.2009 -0.0206 -0.1435
   39MOL0     C 5307   4.633  -0.044  11.014 -0.3574  0.8702  0.0290
   39MOL0     C 5308   4.501   0.007  10.972 -0.2437 -0.2428 -0.1660
   39MOL0     C 5309   4.386   0.040  10.949 -0.5024  0.0341 -1.2110
   39MOL0     C 5310   5.036   0.370  10.642 -0.7396  0.2239  0.4530
   39MOL0     C 5311   5.120   0.473  10.577  0.7981  1.0533  0.1602
   39MOL0     C 5312   5.262   0.420  10.553  0.7899 -0.8138 -0.7957
   39MOL0     H 5313   4.994   0.963  10.211  0.5466  0.6988 -1.8303
   39MOL0     H 5314   5.103   1.154  10.115 -0.2823 -0.3930 -0.0479
   39MOL0     H 5315   5.521   1.203  10.267  1.1790 -0.7756 -3.3568
   39MOL0     H 5316   5.468   1.349  10.344 -3.2624 -0.7464 -0.1575
   39MOL0     H 5317   5.647   1.410  10.200  0.7139 -0.0027  0.1278
   39MOL0     H 5318   5.593   1.317  10.066  2.8950 -0.4104  2.2762
   39MOL0     H 5319   5.398   1.454  10.035 -1.3877  0.2490  1.5234
   39MOL0     H 5320   5.433   1.551  10.181 -0.9666 -1.6516  1.9291
   39MOL0     H 5321   5.617   1.649  10.060  1.5071 -0.0300 -0.5478
   39MOL0     H 5322   5.625   1.519   9.938  0.9621 -0.5348  2.1015
   39MOL0     H 5323   5.378   1.622   9.876 -1.9841  1.7792  1.7082
   39MOL0     H 5324   5.529   1.685   9.802 -0.1529  2.9753 -1.1632
   39MOL0     H 5325   5.363   1.857   9.885  1.8943  1.8713  0.2552
   39MOL0     H 5326   5.419   1.823  10.044 -1.9685  1.9907 -0.8207
   39MOL0     H 5327   5.658   1.863   9.969 -0.5030 -1.9744 -0.7319
   39MOL0     H 5328   5.563   2.013   9.969  0.5591 -0.9929  0.3647
   39MOL0     H 5329   5.622   1.862   9.705 -2.8946  0.2380 -0.6413
   39MOL0     H 5330   5.525   1.994   9.716 -1.8060 -5.1737 -1.5805
   39MOL0     H 5331   5.772   2.104   9.973 -1.6538 -0.9336  0.0583
   39MOL0     H 5332   5.993   2.217   9.977 -2.1038  1.7621 -0.7352
   39MOL0     H 5333   6.071   2.265   9.831  1.4607 -1.3063  0.0084
   39MOL0     H 5334   6.118   2.006   9.978  1.0313  1.1429  1.4255
   39MOL0     H 5335   6.167   2.032   9.814  1.0222  1.6939  0.2008
   39MOL0     H 5336   6.298   2.241   9.898 -0.2811  1.3001  2.2948
   39MOL0     H 5337   6.250   2.181  10.062 -0.3261 -2.4007  0.9069
   39MOL0     H 5338   6.483   2.117   9.989 -1.9769  2.9214 -0.1050
   39MOL0     H 5339   6.376   2.012  10.078 -0.2190  3.3866  1.2599
   39MOL0     H 5340   6.341   1.753   9.974 -0.5783  2.8035  2.2576
   39MOL0     H 5341   6.388   1.557  10.133  0.1160 -0.0781  0.9822
   39MOL0     H 5342   6.552   1.492  10.162  2.0205  0.7004 -1.1271
   39MOL0     H 5343   6.452   1.439  10.024 -1.4312  0.7823  0.3667
   39MOL0     H 5344   6.892   1.396  10.172  0.0736 -0.6655  0.4497
   39MOL0     H 5345   7.067   1.230  10.224 -2.2728 -1.3783 -2.0310
   39MOL0     H 5346   7.299   1.292  10.347  0.6933  0.7722  0.4809
   39MOL0     H 5347   7.287   1.122  10.298  1.5156 -0.7492  1.7684
   39MOL0     H 5348   7.515   1.152  10.392  1.3710 -3.8312 -2.4704
   39MOL0     H 5349   7.523   1.121  10.231  1.2165 -0.9472 -0.1417
   39MOL0     H 5350   7.521   1.396  10.366 -3.2217  1.9892 -4.7814
   39MOL0     H 5351   7.550   1.385  10.192 -2.4506 -1.4942 -1.3096
   39MOL0     H 5352   7.771   1.299  10.229 -0.3773  0.0896 -0.2436
   39MOL0     H 5353   7.728   1.237  10.395  0.9030 -1.9624 -1.7215
   39MOL0     H 5354   7.754   1.538  10.314  1.2201  0.1690  0.0408
   39MOL0     H 5355   7.726   1.466  10.473  1.5627  0.8330 -0.6406
   39MOL0     H 5356   7.958   1.381  10.313 -1.4554 -0.9098  0.2384
   39MOL0     H 5357   7.925   1.348  10.473  1.4961 -0.3503 -0.9551
   39MOL0     H 5358   7.980   1.574  10.556  0.8465 -1.2843  0.2443
   39MOL0     H 5359   7.935   1.643  10.397 -0.4188  0.2062  1.2251
   39MOL0     H 5360   8.193   1.476  10.473  0.3941  0.3362 -0.8820
   39MOL0     H 5361   8.184   1.644  10.475 -0.0429 -0.7682  1.6538
   39MOL0     H 5362   7.339   1.447   9.959  0.5307  3.2497 -1.4684
   39MOL0     H 5363   7.167   1.595   9.908 -0.8003  0.8306  1.0416
   39MOL0     H 5364   6.818   1.786   9.858  0.1498 -0.4314 -0.6370
   39MOL0     H 5365   6.682   1.959   9.831  1.4362 -0.4100  1.2416
   39MOL0     H 5366   5.405   1.126  10.427 -1.3589  2.7253  1.4312
   39MOL0     H 5367   5.310   0.919  10.495  3.1344  0.8340 -0.3678
   39MOL0     H 5368   4.880   0.716  10.543 -0.9289 -0.5723 -0.9862
   39MOL0     H 5369   4.758   0.555  10.685  0.2605  1.0025  0.7337
   39MOL0     H 5370   4.882   0.120  10.709  2.9057  0.8931 -1.0956
   39MOL0     H 5371   4.951   0.217  10.837  1.0831 -0.4223 -2.6457
   39MOL0     H 5372   4.657   0.163  10.810  2.6069 -2.4036 -4.2213
   39MOL0     H 5373   4.740   0.224  10.952 -1.3152  0.0470 -0.8786
   39MOL0     H 5374   4.777  -0.063  10.842 -0.3437 -2.1113  1.3086
   39MOL0     H 5375   4.838  -0.001  10.995 -0.4929 -2.5841  0.6163
   39MOL0     H 5376   4.648  -0.005  11.115  2.6610 -1.2244  0.5070
   39MOL0     H 5377   4.635  -0.152  11.029  1.1221  1.1303  2.1559
   39MOL0     H 5378   4.286   0.069  10.925 -1.6340 -2.7475 -0.2864
   39MOL0     H 5379   5.070   0.269  10.665 -0.5432  0.1204 -0.2950
   39MOL0     H 5380   5.278   0.425  10.445 -1.9209  2.2922 -1.1996
   39MOL0     H 5381   5.337   0.482  10.604  0.1146 -2.1052  1.9590
   39MOL0     H 5382   5.279   0.314  10.577  0.7085 -1.0117 -1.5948
   40MOL0     O 5383   3.436   2.864   6.393 -0.2382 -0.5840 -0.3253
   40MOL0     C 5384   3.384   2.752   6.380  0.3122 -1.0012 -0.2121
   40MOL0     O 5385   3.448   2.637   6.333  0.0454  0.0369  0.3808
   40MOL0     C 5386   3.561   2.641   6.255 -0.7255 -0.4098 -0.1510
   40MOL0     C 5387   3.569   2.714   6.138  0.1068  0.0495 -0.6152
   40MOL0     C 5388   3.694   2.735   6.069  0.2068 -0.1390 -0.5611
   40MOL0     C 5389   3.816   2.679   6.117 -0.4903 -0.7208 -0.5855
   40MOL0     O 5390   3.931   2.699   6.054 -0.6414 -0.3595  0.1538
   40MOL0     C 5391   3.928   2.702   5.914  0.5019 -0.2957  0.0245
   40MOL0     C 5392   4.051   2.641   5.848  0.7658  1.4373  0.4669
   40MOL0     C 5393   4.071   2.492   5.887  0.2418  0.7131 -0.2093
   40MOL0     C 5394   4.161   2.467   6.012  0.3681 -0.5791  0.6216
   40MOL0     C 5395   4.164   2.329   6.056 -0.0476  0.0367  0.7161
   40MOL0     C 5396   4.261   2.299   6.176 -0.1154  0.2044 -0.0089
   40MOL0     C 5397   4.265   2.148   6.215  0.6468  0.6202 -1.2231
   40MOL0     C 5398   4.332   2.123   6.349  0.7506  0.6927 -0.5787
   40MOL0     N 5399   4.375   1.981   6.355  0.3298  0.3242  0.1157
   40MOL0     C 5400   4.492   1.910   6.358 -0.0942 -0.2858 -0.0072
   40MOL0     C 5401   4.459   1.777   6.366  0.3216 -0.7177  0.5468
   40MOL0     C 5402   4.550   1.663   6.368 -0.0203  0.2075  0.5462
   40MOL0     C 5403   4.622   1.654   6.232  0.4149  1.4247 -0.4196
   40MOL0     C 5404   4.698   1.533   6.190  0.3520  0.0631 -0.8627
   40MOL0     C 5405   4.766   1.451   6.301 -0.1776 -0.0992  0.1494
   40MOL0     O 5406   4.872   1.527   6.366  0.0391 -0.1396 -0.8742
   40MOL0     C 5407   4.984   1.465   6.420  0.1855  0.9911  0.1488
   40MOL0     C 5408   4.971   1.339   6.472  0.7579 -0.1906 -0.7939
   40MOL0     C 5409   5.080   1.276   6.535 -0.1381  0.0772  0.0950
   40MOL0     C 5410   5.060   1.141   6.584 -0.5730  0.0618 -0.3629
   40MOL0     C 5411   5.200   1.338   6.527  0.5544 -0.5474 -0.6266
   40MOL0     C 5412   5.319   1.295   6.607 -0.2188  0.7666 -0.1858
   40MOL0     O 5413   5.432   1.304   6.536  0.3569  0.3656  0.2346
   40MOL0     C 5414   5.555   1.273   6.592 -0.6771  1.0598 -0.8601
   40MOL0     C 5415   5.660   1.318   6.509 -0.1659 -0.1364 -0.0164
   40MOL0     C 5416   5.790   1.296   6.547 -0.4075 -0.1229  0.1639
   40MOL0     C 5417   5.827   1.234   6.669  0.1135  0.0611 -0.3830
   40MOL0     O 5418   5.963   1.220   6.699 -0.1092 -0.7256  0.4842
   40MOL0     C 5419   5.997   1.150   6.820  0.4223 -0.2949  0.1160
   40MOL0     C 5420   6.147   1.142   6.828 -0.3011  0.0651  1.2733
   40MOL0     C 5421   6.209   1.107   6.694 -0.2691  1.3927  0.1141
   40MOL0     C 5422   6.356   1.052   6.691  0.3271  0.1453 -0.0077
   40MOL0     C 5423   6.396   1.021   6.552 -0.7628  0.4441 -0.1461
   40MOL0     C 5424   6.538   0.971   6.557  0.3826 -0.7790  0.2031
   40MOL0     C 5425   6.596   0.951   6.419 -0.5983 -0.3778  0.3144
   40MOL0     C 5426   6.640   1.073   6.338 -0.3995 -0.1275 -0.3793
   40MOL0    Cl 5427   6.710   1.043   6.171 -0.0690  0.3037  0.2079
   40MOL0     C 5428   5.725   1.194   6.752 -0.0077 -1.0091  0.4903
   40MOL0     C 5429   5.593   1.210   6.717  0.2316 -0.7843  0.4139
   40MOL0     O 5430   5.307   1.236   6.717  0.3748 -0.5070 -0.5505
   40MOL0     C 5431   5.217   1.472   6.489  0.3086  1.3150  0.0338
   40MOL0     C 5432   5.106   1.534   6.430 -0.5236  0.0358  0.0015
   40MOL0     N 5433   4.330   1.770   6.367 -0.4717 -0.0325  0.0566
   40MOL0     N 5434   4.275   1.888   6.370  0.0831 -0.0895 -0.2716
   40MOL0     C 5435   3.810   2.600   6.226 -0.1265 -0.6840 -0.2799
   40MOL0     C 5436   3.686   2.581   6.297 -0.6217 -0.1657 -0.0440
   40MOL0     C 5437   3.245   2.732   6.415 -0.6890  0.1686  0.2197
   40MOL0     C 5438   3.220   2.628   6.505  0.5769 -0.4059 -0.3593
   40MOL0     C 5439   3.084   2.594   6.527 -0.0360 -0.1629  0.2467
   40MOL0     C 5440   2.982   2.656   6.453 -0.8371  0.3559  0.0385
   40MOL0     O 5441   2.854   2.623   6.464  0.0369  0.1808  0.2924
   40MOL0     C 5442   2.819   2.494   6.525  0.8819 -0.2766 -0.3389
   40MOL0     C 5443   2.680   2.452   6.489  0.3493  0.0512  0.2751
   40MOL0     C 5444   2.663   2.432   6.338 -0.1468 -0.4267 -0.0649
   40MOL0     C 5445   2.510   2.455   6.296 -0.4268  1.0770  0.7872
   40MOL0     C 5446   2.418   2.346   6.338  0.9388  0.9478 -0.4327
   40MOL0     C 5447   2.339   2.258   6.367  0.3174  0.4793  0.4937
   40MOL0     C 5448   3.019   2.762   6.360 -0.1221 -0.2318 -1.0229
   40MOL0     C 5449   3.147   2.803   6.348 -0.9729  0.0112 -0.7295
   40MOL0     C 5450   3.183   2.920   6.250  1.0274  0.1354 -0.1527
   40MOL0     H 5451   3.483   2.769   6.102 -1.2690 -2.3261 -1.1469
   40MOL0     H 5452   3.690   2.809   5.989  0.3561  0.7323  0.2252
   40MOL0     H 5453   3.918   2.806   5.881  1.4793  0.0548  0.7561
   40MOL0     H 5454   3.842   2.650   5.873  0.8023 -0.0644 -0.9203
   40MOL0     H 5455   4.044   2.632   5.739 -2.2679  0.0425  0.6611
   40MOL0     H 5456   4.134   2.708   5.871 -0.4099  2.3516  2.2589
   40MOL0     H 5457   3.974   2.443   5.899 -0.1597  1.3865 -0.6322
   40MOL0     H 5458   4.105   2.435   5.801 -3.4852 -0.1679 -1.2836
   40MOL0     H 5459   4.261   2.506   5.991  1.1464 -3.5448 -1.8286
   40MOL0     H 5460   4.112   2.524   6.092 -1.4539 -0.7146 -0.3451
   40MOL0     H 5461   4.204   2.267   5.976  0.8750  1.1595  0.2829
   40MOL0     H 5462   4.068   2.287   6.086  1.3586 -1.6706  3.2309
   40MOL0     H 5463   4.360   2.331   6.141 -0.1814 -1.2720 -1.7407
   40MOL0     H 5464   4.221   2.353   6.262 -1.7941 -3.9124  2.0519
   40MOL0     H 5465   4.320   2.086   6.143  0.0572 -2.1660  0.5557
   40MOL0     H 5466   4.166   2.103   6.212  0.1842  1.6520 -1.5877
   40MOL0     H 5467   4.423   2.183   6.361  1.7484 -0.8702 -0.0305
   40MOL0     H 5468   4.271   2.148   6.436  0.9131 -4.8219  1.5371
   40MOL0     H 5469   4.591   1.952   6.362  0.9540 -2.6457  0.9243
   40MOL0     H 5470   4.487   1.576   6.392 -1.5387  0.9509 -0.6165
   40MOL0     H 5471   4.621   1.677   6.451 -0.7851  1.2865  1.0338
   40MOL0     H 5472   4.551   1.667   6.149  0.7996 -0.9413 -1.1671
   40MOL0     H 5473   4.700   1.731   6.228  2.4491 -0.5837 -0.9125
   40MOL0     H 5474   4.619   1.466   6.156 -1.4618  1.1614  0.9554
   40MOL0     H 5475   4.763   1.563   6.107 -0.2785 -0.3120 -1.5013
   40MOL0     H 5476   4.696   1.412   6.375 -2.0489  0.4791 -1.2245
   40MOL0     H 5477   4.815   1.369   6.248 -1.3688  0.5292 -2.0660
   40MOL0     H 5478   4.881   1.278   6.481  1.3685 -0.8646  1.6543
   40MOL0     H 5479   4.970   1.101   6.537 -0.1202  1.3853 -2.4878
   40MOL0     H 5480   5.034   1.144   6.691 -1.8815 -0.2025 -0.6633
   40MOL0     H 5481   5.146   1.076   6.568 -2.2727 -1.7880 -2.4720
   40MOL0     H 5482   5.636   1.355   6.410  0.6020  1.9794  0.5146
   40MOL0     H 5483   5.871   1.332   6.484  1.4096 -1.2835  1.7291
   40MOL0     H 5484   5.967   1.218   6.900 -3.0502 -0.7484 -0.6333
   40MOL0     H 5485   5.948   1.053   6.829 -0.2872 -0.2087 -2.1778
   40MOL0     H 5486   6.188   1.243   6.836 -3.4182  1.5898 -0.1992
   40MOL0     H 5487   6.180   1.081   6.912  3.4418 -2.3031 -1.5744
   40MOL0     H 5488   6.208   1.194   6.628  2.2275  0.4152 -1.3837
   40MOL0     H 5489   6.144   1.037   6.641 -0.9448 -0.0429  2.6542
   40MOL0     H 5490   6.365   0.955   6.740 -0.0720 -1.5252 -2.9758
   40MOL0     H 5491   6.424   1.133   6.718 -0.4446  1.2418 -1.2193
   40MOL0     H 5492   6.328   0.947   6.510  1.2219 -0.9473 -1.0465
   40MOL0     H 5493   6.380   1.112   6.492 -1.9788 -0.2458 -0.9050
   40MOL0     H 5494   6.528   0.871   6.601 -4.2528 -1.5856 -2.0104
   40MOL0     H 5495   6.594   1.040   6.620 -1.2183  0.6043  0.1927
   40MOL0     H 5496   6.527   0.903   6.348 -1.1747  1.7017 -0.6086
   40MOL0     H 5497   6.688   0.892   6.419  0.9937  1.7485 -3.2933
   40MOL0     H 5498   6.709   1.136   6.395  1.1238 -1.2763 -0.8893
   40MOL0     H 5499   6.546   1.130   6.326 -1.1624 -1.3254 -0.2340
   40MOL0     H 5500   5.735   1.155   6.853 -1.2011 -1.7453  0.3479
   40MOL0     H 5501   5.515   1.184   6.788 -0.7937  0.9687 -0.0230
   40MOL0     H 5502   5.312   1.524   6.493  0.0511  1.6847  3.1391
   40MOL0     H 5503   5.112   1.639   6.401  1.9391 -0.5721 -2.0441
   40MOL0     H 5504   3.900   2.562   6.272  0.3544  0.7295 -0.0326
   40MOL0     H 5505   3.703   2.526   6.389  1.3787 -1.8989 -1.3458
   40MOL0     H 5506   3.294   2.565   6.552 -1.7994 -1.5583  2.1385
   40MOL0     H 5507   3.058   2.521   6.603 -0.5575 -0.5134 -0.2643
   40MOL0     H 5508   2.882   2.412   6.490  1.8605 -1.9907  4.6282
   40MOL0     H 5509   2.835   2.501   6.633 -0.5681 -0.6563 -0.0697
   40MOL0     H 5510   2.612   2.530   6.526 -0.6314 -0.5396 -0.2377
   40MOL0     H 5511   2.669   2.358   6.543 -2.2520  0.8054  1.2121
   40MOL0     H 5512   2.714   2.510   6.281 -1.3619  1.3749  1.2124
   40MOL0     H 5513   2.702   2.336   6.303 -0.7295 -0.8231  0.3488
   40MOL0     H 5514   2.496   2.455   6.188 -1.6566  0.4583  0.9208
   40MOL0     H 5515   2.473   2.554   6.325 -1.4761  1.4528 -1.5978
   40MOL0     H 5516   2.276   2.176   6.395  1.0459 -0.3632 -0.2679
   40MOL0     H 5517   2.939   2.812   6.307 -0.1870  1.4943  0.5784
   40MOL0     H 5518   3.203   3.018   6.295  3.7201  0.7399 -2.3113
   40MOL0     H 5519   3.261   2.898   6.176  1.8863  1.9501  0.1470
   40MOL0     H 5520   3.097   2.932   6.183  0.2341  1.8762  1.1069
   41MOL0     O 5521   9.076   6.267   1.593  0.1452 -0.4205  0.2066
   41MOL0     C 5522   9.078   6.393   1.576 -0.3298  1.1185  0.0838
   41MOL0     O 5523   9.184   6.460   1.523  0.1860  0.5557  0.2497
   41MOL0     C 5524   9.312   6.398   1.522  0.3666 -0.0211  0.5253
   41MOL0     C 5525   9.357   6.324   1.414 -0.3008 -0.0263 -0.0775
   41MOL0     C 5526   9.491   6.285   1.417 -0.3830  0.4680  0.9540
   41MOL0     C 5527   9.576   6.304   1.529  0.2606 -0.9260 -0.2965
   41MOL0     O 5528   9.711   6.275   1.524  0.7482 -0.0728 -0.1383
   41MOL0     C 5529   9.739   6.140   1.477  0.0530 -0.3574 -0.0398
   41MOL0     C 5530   9.889   6.124   1.488 -0.6103 -0.0430 -0.0989
   41MOL0     C 5531   9.965   6.229   1.396  0.1256 -0.6918 -0.0220
   41MOL0     C 5532   9.928   6.214   1.253  0.2258 -0.4703 -0.2292
   41MOL0     C 5533  10.024   6.296   1.160  0.1814  0.1868  0.7355
   41MOL0     C 5534   9.964   6.296   1.023 -0.7493  0.3555  1.5043
   41MOL0     C 5535  10.047   6.377   0.930  0.4377  0.0993 -0.1823
   41MOL0     C 5536  10.185   6.311   0.882  0.8845  0.1272 -0.2196
   41MOL0     N 5537  10.173   6.178   0.812 -0.0892  0.4920  0.1381
   41MOL0     C 5538  10.079   6.150   0.716  0.6530 -0.1209 -0.2219
   41MOL0     C 5539  10.101   6.026   0.684  0.6591  0.4054  0.2792
   41MOL0     C 5540  10.045   5.945   0.571  0.1952  0.2469  0.8145
   41MOL0     C 5541  10.153   5.946   0.460 -0.0261 -0.0600 -0.2604
   41MOL0     C 5542  10.147   5.824   0.368 -0.3541  0.1074 -0.5450
   41MOL0     C 5543  10.251   5.832   0.259 -0.3808  0.5218  0.1525
   41MOL0     O 5544  10.307   5.708   0.218  0.8221 -0.0073 -0.4365
   41MOL0     C 5545  10.415   5.655   0.290  0.3909 -0.3687 -0.5351
   41MOL0     C 5546  10.444   5.528   0.244 -0.0842  0.1651 -0.6280
   41MOL0     C 5547  10.544   5.458   0.301 -0.2242 -0.3234 -0.3341
   41MOL0     C 5548  10.560   5.324   0.249  0.2494 -0.2028 -0.7141
   41MOL0     C 5549  10.640   5.521   0.385 -0.4253  0.8550 -0.9315
   41MOL0     C 5550  10.767   5.461   0.428  0.3304  0.2533 -0.2508
   41MOL0     O 5551  10.844   5.528   0.522 -0.2500  0.5866  0.0474
   41MOL0     C 5552  10.977   5.513   0.526  0.2682 -0.3800  0.4908
   41MOL0     C 5553  11.064   5.538   0.415  0.9536  0.3438 -0.0589
   41MOL0     C 5554  11.194   5.498   0.423  1.4055 -0.0074  0.1232
   41MOL0     C 5555  11.246   5.440   0.543 -1.2403  0.5857 -0.3454
   41MOL0     O 5556  11.381   5.415   0.540 -0.0624  0.5568 -0.5860
   41MOL0     C 5557  11.460   5.448   0.664  0.1452  0.2516 -0.2605
   41MOL0     C 5558  11.608   5.456   0.648  1.0364 -0.3056  0.4442
   41MOL0     C 5559  11.647   5.581   0.558 -0.8577 -0.0705  0.4433
   41MOL0     C 5560  11.641   5.533   0.403 -0.4935  0.1684  0.2090
   41MOL0     C 5561  11.677   5.643   0.304  0.7760 -0.2333 -1.0614
   41MOL0     C 5562  11.811   5.702   0.337 -0.3764 -0.0163 -0.1791
   41MOL0     C 5563  11.929   5.620   0.287 -0.2686 -0.7921 -0.5905
   41MOL0     C 5564  12.059   5.682   0.322 -0.1339  0.4009  0.3189
   41MOL0    Cl 5565  12.082   5.813   0.215 -0.2352 -0.0486 -0.1744
   41MOL0     C 5566  11.166   5.442   0.652  0.6556  0.0800  0.3910
   41MOL0     C 5567  11.035   5.477   0.642  0.2007  1.1339  0.0303
   41MOL0     O 5568  10.808   5.360   0.376  0.1825 -0.2621  0.2967
   41MOL0     C 5569  10.604   5.655   0.427 -0.5692 -0.1274 -0.1476
   41MOL0     C 5570  10.493   5.722   0.386  0.4173 -0.0432  0.1133
   41MOL0     N 5571  10.187   5.965   0.779  0.3065 -0.5960  0.2862
   41MOL0     N 5572  10.226   6.061   0.851  0.2815  0.7082  0.4384
   41MOL0     C 5573   9.521   6.361   1.642 -0.2427 -0.1825 -0.7439
   41MOL0     C 5574   9.390   6.402   1.639  0.2674  0.2512  0.3924
   41MOL0     C 5575   8.954   6.460   1.621 -0.0597 -0.0263  0.6758
   41MOL0     C 5576   8.834   6.381   1.648 -0.0833 -0.6677  0.0519
   41MOL0     C 5577   8.707   6.445   1.672 -0.3013  0.6266 -0.4080
   41MOL0     C 5578   8.693   6.587   1.679 -0.8379 -0.1531 -0.6146
   41MOL0     O 5579   8.582   6.661   1.709 -0.4395  0.0937  0.0469
   41MOL0     C 5580   8.460   6.599   1.733 -0.4739  0.0399 -0.4928
   41MOL0     C 5581   8.363   6.596   1.617 -1.2322  0.0595 -0.0349
   41MOL0     C 5582   8.228   6.534   1.650 -0.1314  0.7260 -0.1762
   41MOL0     C 5583   8.119   6.573   1.548 -0.2070 -0.3521  0.7080
   41MOL0     C 5584   7.989   6.536   1.595  0.7402  0.2819 -0.1574
   41MOL0     C 5585   7.876   6.514   1.631 -0.2436  0.1334 -0.2268
   41MOL0     C 5586   8.814   6.661   1.669 -0.5041 -0.8842  0.4112
   41MOL0     C 5587   8.944   6.605   1.639  0.1083 -0.5068 -0.3832
   41MOL0     C 5588   9.056   6.707   1.613 -0.5205  0.0660 -0.8263
   41MOL0     H 5589   9.299   6.318   1.322  0.3939 -1.9742 -0.4360
   41MOL0     H 5590   9.530   6.245   1.323 -2.1030 -0.9120  0.7944
   41MOL0     H 5591   9.711   6.117   1.374 -1.9816 -1.5646  0.7291
   41MOL0     H 5592   9.696   6.062   1.541 -5.0573  1.1483 -1.1893
   41MOL0     H 5593   9.920   6.137   1.593 -1.1443  4.1017 -0.2905
   41MOL0     H 5594   9.913   6.022   1.458  1.1845  0.2498  0.1936
   41MOL0     H 5595   9.935   6.330   1.426 -1.5236 -0.8308 -1.0655
   41MOL0     H 5596  10.073   6.222   1.406  0.2496  0.4955 -0.4096
   41MOL0     H 5597   9.926   6.111   1.215  1.9667  0.1154 -2.0981
   41MOL0     H 5598   9.833   6.268   1.249  0.0117 -0.8934 -1.2860
   41MOL0     H 5599  10.121   6.249   1.142  0.9510  2.7949 -3.4616
   41MOL0     H 5600  10.031   6.395   1.205  0.7163 -0.5974  2.4463
   41MOL0     H 5601   9.945   6.193   0.989 -1.9273  1.5661 -1.9442
   41MOL0     H 5602   9.868   6.347   1.025 -1.5630 -1.0147  0.0184
   41MOL0     H 5603  10.072   6.475   0.970 -1.5312  0.4800  0.2109
   41MOL0     H 5604   9.982   6.378   0.842  0.0516 -2.3946  0.0038
   41MOL0     H 5605  10.227   6.390   0.820 -0.5533  0.5827 -0.6429
   41MOL0     H 5606  10.252   6.295   0.968  1.4172 -1.1348 -0.8351
   41MOL0     H 5607  10.005   6.211   0.665 -0.6940 -0.4101  1.2837
   41MOL0     H 5608   9.954   5.986   0.526  0.1968 -0.5099  0.1178
   41MOL0     H 5609  10.018   5.848   0.613 -1.4237  0.3614  0.0811
   41MOL0     H 5610  10.150   6.037   0.399 -1.5145 -0.8369 -1.4110
   41MOL0     H 5611  10.248   5.945   0.513 -1.0400 -2.4793  1.6844
   41MOL0     H 5612  10.166   5.732   0.424  0.3359  0.6320  0.1053
   41MOL0     H 5613  10.050   5.813   0.320 -0.4193  0.8403 -0.6005
   41MOL0     H 5614  10.200   5.869   0.170 -1.7634 -3.1340 -0.7571
   41MOL0     H 5615  10.333   5.900   0.282 -0.3188 -0.1441  2.1443
   41MOL0     H 5616  10.376   5.476   0.178 -1.9644  0.6599  0.8445
   41MOL0     H 5617  10.592   5.258   0.330  1.3841  1.0016 -0.1286
   41MOL0     H 5618  10.635   5.312   0.171  1.3996  1.6551  0.0372
   41MOL0     H 5619  10.462   5.288   0.218 -0.9393 -0.2384  2.6579
   41MOL0     H 5620  11.026   5.572   0.320  0.4672  0.2189  0.0905
   41MOL0     H 5621  11.246   5.508   0.329  1.2538 -0.7603 -0.0498
   41MOL0     H 5622  11.423   5.543   0.704  0.1007 -0.5016  1.5984
   41MOL0     H 5623  11.442   5.368   0.736 -0.6101 -0.7431 -1.4959
   41MOL0     H 5624  11.658   5.451   0.745 -0.9812 -2.0175  1.4744
   41MOL0     H 5625  11.647   5.365   0.601 -0.0550 -0.0020 -1.1251
   41MOL0     H 5626  11.748   5.610   0.589 -0.8448 -1.1773  1.5159
   41MOL0     H 5627  11.577   5.663   0.576 -1.0282 -0.3694  1.1782
   41MOL0     H 5628  11.542   5.488   0.388 -0.7180 -1.3114  4.6039
   41MOL0     H 5629  11.710   5.450   0.384 -0.1093  0.3855  0.6589
   41MOL0     H 5630  11.672   5.602   0.203 -0.9973 -1.4654 -0.5327
   41MOL0     H 5631  11.612   5.730   0.315  1.5485  0.1742  0.6711
   41MOL0     H 5632  11.819   5.729   0.443 -3.6122 -0.6909  0.3408
   41MOL0     H 5633  11.823   5.795   0.280  2.1400 -0.2920 -0.1948
   41MOL0     H 5634  11.923   5.611   0.179 -0.1853 -0.9946 -0.5791
   41MOL0     H 5635  11.928   5.521   0.333  0.1823  0.4281  2.2553
   41MOL0     H 5636  12.135   5.604   0.308 -0.9881 -0.5799  0.9271
   41MOL0     H 5637  12.068   5.711   0.427  2.5187  3.9677 -0.7228
   41MOL0     H 5638  11.209   5.387   0.735  3.5421  0.1741 -0.9324
   41MOL0     H 5639  10.968   5.447   0.722 -0.8335 -1.3555 -1.6282
   41MOL0     H 5640  10.666   5.712   0.496  0.0766 -0.7848 -0.1889
   41MOL0     H 5641  10.475   5.821   0.426 -0.3002  1.1242 -2.8755
   41MOL0     H 5642   9.581   6.387   1.729 -0.9825 -0.6432 -0.0840
   41MOL0     H 5643   9.344   6.438   1.730 -1.2104 -2.1386  0.6735
   41MOL0     H 5644   8.840   6.274   1.634 -1.8686 -0.5462 -2.0366
   41MOL0     H 5645   8.619   6.383   1.677  1.2720 -1.6173  1.4836
   41MOL0     H 5646   8.472   6.501   1.780 -2.3476  0.4049  0.8830
   41MOL0     H 5647   8.405   6.649   1.813 -0.9335 -0.7625 -0.3035
   41MOL0     H 5648   8.423   6.540   1.543 -1.7375 -0.1526 -0.2922
   41MOL0     H 5649   8.346   6.698   1.581  0.6336 -0.0993 -1.5441
   41MOL0     H 5650   8.230   6.425   1.650  3.4332  0.6590 -1.7525
   41MOL0     H 5651   8.197   6.560   1.752  0.6224 -1.1827  0.5849
   41MOL0     H 5652   8.120   6.535   1.446 -0.9419 -1.4951  1.1081
   41MOL0     H 5653   8.120   6.681   1.532 -2.9739 -0.7721 -3.8026
   41MOL0     H 5654   7.773   6.511   1.659 -0.0676  1.9178  0.7361
   41MOL0     H 5655   8.801   6.769   1.671  0.2746 -0.7872  0.5953
   41MOL0     H 5656   9.067   6.731   1.507 -0.0279 -0.8148 -0.9847
   41MOL0     H 5657   9.029   6.796   1.670 -1.5879 -0.1568 -0.9636
   41MOL0     H 5658   9.151   6.670   1.653 -1.7667 -1.3308  1.0201
   42MOL0     O 5659   3.110   6.211   2.973  0.7591  0.6593 -0.7055
   42MOL0     C 5660   2.994   6.184   2.931 -0.3127 -0.7870  0.0656
   42MOL0     O 5661   2.900   6.129   2.999  0.7764  0.1347  0.7775
   42MOL0     C 5662   2.913   6.119   3.140 -0.7956 -0.0071  0.5294
   42MOL0     C 5663   2.933   6.229   3.217  0.2371 -0.1627  0.6253
   42MOL0     C 5664   2.965   6.217   3.355 -0.1206 -0.0916  0.5294
   42MOL0     C 5665   2.959   6.097   3.424  0.0217 -0.4660  0.2838
   42MOL0     O 5666   2.996   6.102   3.556  0.2981 -0.0121 -0.0092
   42MOL0     C 5667   2.951   6.010   3.657 -0.0156  0.0328 -0.3024
   42MOL0     C 5668   3.028   6.036   3.787 -0.5516  0.3919 -1.0176
   42MOL0     C 5669   3.007   6.171   3.854  0.9146  0.0984  0.4887
   42MOL0     C 5670   3.069   6.171   3.992 -0.6789  0.3241 -0.3765
   42MOL0     C 5671   3.029   6.285   4.078 -0.3884  0.2257 -0.0874
   42MOL0     C 5672   3.087   6.421   4.036  0.1516 -0.2781  0.0606
   42MOL0     C 5673   3.004   6.541   4.091  0.5264  0.7325 -0.6063
   42MOL0     C 5674   2.953   6.537   4.239  0.1144 -0.5482  0.2975
   42MOL0     N 5675   3.076   6.509   4.318  0.6319 -0.4470 -0.1844
   42MOL0     C 5676   3.090   6.398   4.397  0.3732  0.4714 -0.4719
   42MOL0     C 5677   3.210   6.417   4.464 -0.2868  0.1636  0.7688
   42MOL0     C 5678   3.269   6.335   4.566  0.3363  0.0613 -0.7576
   42MOL0     C 5679   3.420   6.325   4.561  0.1855  0.1076 -0.1953
   42MOL0     C 5680   3.492   6.251   4.677 -0.1064 -0.3426  0.2633
   42MOL0     C 5681   3.648   6.258   4.685  0.2704 -0.3393  0.0092
   42MOL0     O 5682   3.685   6.187   4.804 -0.6485 -0.2332  0.8370
   42MOL0     C 5683   3.796   6.111   4.806  1.0923  0.6069  0.4368
   42MOL0     C 5684   3.881   6.078   4.701 -0.9914 -1.0365  1.0359
   42MOL0     C 5685   3.994   6.005   4.723 -0.8247  1.0408  0.5949
   42MOL0     C 5686   4.079   5.967   4.599 -0.1449  0.4969 -1.1638
   42MOL0     C 5687   4.034   5.966   4.858  0.7467  0.3753 -0.0633
   42MOL0     C 5688   4.153   5.887   4.894  0.3799 -0.1378  0.2258
   42MOL0     O 5689   4.231   5.839   4.796 -0.0499 -0.4002 -0.7896
   42MOL0     C 5690   4.354   5.787   4.808  0.4103  0.0415  0.7944
   42MOL0     C 5691   4.447   5.798   4.703  0.5562 -0.6019  0.5568
   42MOL0     C 5692   4.567   5.734   4.702  0.0858 -1.0771  0.0835
   42MOL0     C 5693   4.614   5.671   4.819  0.6500  1.4942  0.0106
   42MOL0     O 5694   4.741   5.615   4.836  0.3316  0.6224  0.2761
   42MOL0     C 5695   4.834   5.610   4.719 -0.3920 -0.7518 -0.5449
   42MOL0     C 5696   4.962   5.530   4.754  0.7581 -0.0239 -0.0384
   42MOL0     C 5697   5.031   5.563   4.880  0.0031 -0.1754  0.2718
   42MOL0     C 5698   5.155   5.476   4.903  0.5797 -0.2766  0.3075
   42MOL0     C 5699   5.186   5.471   5.053  0.1450  0.0916 -1.4195
   42MOL0     C 5700   5.331   5.414   5.092 -0.1480 -0.0287 -1.2999
   42MOL0     C 5701   5.448   5.495   5.043 -0.5754 -0.5141  0.5375
   42MOL0     C 5702   5.581   5.446   5.100  0.4625  0.2924 -0.3229
   42MOL0    Cl 5703   5.721   5.564   5.057 -0.3471  0.4349  0.2377
   42MOL0     C 5704   4.526   5.664   4.922  0.3970  0.5748 -0.8509
   42MOL0     C 5705   4.398   5.713   4.916  0.4136 -0.5649 -0.5598
   42MOL0     O 5706   4.174   5.871   5.014  0.1928  0.0401  0.1092
   42MOL0     C 5707   3.940   6.000   4.958 -0.8578  0.0974 -0.5946
   42MOL0     C 5708   3.829   6.069   4.933 -0.1107 -0.0631  0.0899
   42MOL0     N 5709   3.255   6.536   4.416 -0.4061  0.3954 -0.2888
   42MOL0     N 5710   3.175   6.592   4.339 -0.2567 -0.1867  0.7095
   42MOL0     C 5711   2.914   5.984   3.348  0.5623 -0.0673  0.6909
   42MOL0     C 5712   2.886   5.995   3.209  0.5187 -0.8386  0.0092
   42MOL0     C 5713   2.962   6.206   2.783 -0.1669  0.6528 -0.1264
   42MOL0     C 5714   2.831   6.179   2.739  0.0429 -0.4034 -0.1128
   42MOL0     C 5715   2.792   6.200   2.613 -0.1126 -0.2496 -0.4826
   42MOL0     C 5716   2.871   6.251   2.518 -0.1810  0.4629 -0.1503
   42MOL0     O 5717   2.807   6.258   2.398 -0.1355  0.0830  0.3528
   42MOL0     C 5718   2.870   6.298   2.276  0.1012  0.2014  0.3175
   42MOL0     C 5719   2.777   6.288   2.152 -0.0195  0.2115 -0.2472
   42MOL0     C 5720   2.657   6.384   2.176  0.3366  0.0365 -0.7385
   42MOL0     C 5721   2.545   6.313   2.252  0.4775  0.7530  0.2285
   42MOL0     C 5722   2.428   6.262   2.172  0.1821  0.2330 -0.9981
   42MOL0     C 5723   2.342   6.194   2.129 -0.1707  0.0580 -0.0324
   42MOL0     C 5724   3.000   6.289   2.560 -0.5812 -0.6359 -0.9832
   42MOL0     C 5725   3.050   6.264   2.684 -0.4141  0.7900 -0.1930
   42MOL0     C 5726   3.189   6.314   2.722 -0.8980  0.8475 -0.4824
   42MOL0     H 5727   2.943   6.327   3.171 -0.2675  0.4202  1.7353
   42MOL0     H 5728   2.976   6.305   3.417 -0.4156 -0.6173  1.3529
   42MOL0     H 5729   2.963   5.907   3.622  0.4212  0.5962 -1.9035
   42MOL0     H 5730   2.843   6.017   3.675 -0.5734 -4.3363 -0.7912
   42MOL0     H 5731   3.012   5.956   3.859 -0.9481 -0.1601 -1.7034
   42MOL0     H 5732   3.132   6.029   3.753 -1.2906 -2.8930 -3.1058
   42MOL0     H 5733   3.050   6.247   3.788 -0.7681  1.7467  1.1938
   42MOL0     H 5734   2.899   6.187   3.860  0.9871  0.6437  0.3795
   42MOL0     H 5735   3.036   6.081   4.044 -0.6618 -0.4745 -1.7018
   42MOL0     H 5736   3.178   6.171   3.986 -0.6098 -1.6819  0.3565
   42MOL0     H 5737   3.075   6.271   4.177  1.7150  2.4017 -0.6645
   42MOL0     H 5738   2.922   6.293   4.097 -0.1313 -1.0636  2.4337
   42MOL0     H 5739   3.186   6.432   4.082 -0.2175  0.9600  0.6045
   42MOL0     H 5740   3.107   6.425   3.928  2.9946  2.5244  0.5267
   42MOL0     H 5741   2.916   6.541   4.027 -0.4728 -2.0355  0.5940
   42MOL0     H 5742   3.062   6.633   4.078 -0.2129  1.1945 -0.6928
   42MOL0     H 5743   2.912   6.633   4.272  1.0532 -0.8817  2.6092
   42MOL0     H 5744   2.882   6.459   4.268  0.0944 -0.2079  1.1858
   42MOL0     H 5745   3.033   6.307   4.415  0.8042  0.3087  0.1400
   42MOL0     H 5746   3.240   6.230   4.564  1.1902 -0.1940 -0.4130
   42MOL0     H 5747   3.233   6.366   4.664  1.6766 -1.2696  0.2088
   42MOL0     H 5748   3.450   6.281   4.466 -0.5677  0.3377 -0.5431
   42MOL0     H 5749   3.449   6.430   4.557  1.8420 -0.3539 -2.0342
   42MOL0     H 5750   3.458   6.298   4.770 -1.6081 -0.0806 -0.3854
   42MOL0     H 5751   3.453   6.149   4.682 -1.4354  0.1396  0.1738
   42MOL0     H 5752   3.679   6.230   4.584 -2.3396  2.8103 -1.8983
   42MOL0     H 5753   3.669   6.366   4.690 -3.7830  0.8765 -3.0552
   42MOL0     H 5754   3.863   6.112   4.600  0.4672  0.9306  1.3761
   42MOL0     H 5755   4.174   6.020   4.609 -1.6525  3.6304 -2.1070
   42MOL0     H 5756   4.043   6.014   4.507 -2.7684  0.6626 -0.1374
   42MOL0     H 5757   4.085   5.859   4.584 -0.8639  0.2680  0.1150
   42MOL0     H 5758   4.406   5.850   4.618  1.5827 -0.7007 -0.0108
   42MOL0     H 5759   4.620   5.738   4.608 -0.4293  1.7159 -0.1786
   42MOL0     H 5760   4.789   5.559   4.634 -0.6797 -0.0260 -0.8378
   42MOL0     H 5761   4.857   5.715   4.699  0.1988 -0.6672  0.4888
   42MOL0     H 5762   4.939   5.425   4.739 -2.4321  0.6008 -0.1546
   42MOL0     H 5763   5.028   5.566   4.674  0.9887 -2.2847 -0.9284
   42MOL0     H 5764   4.961   5.534   4.959  1.0153 -1.7733  0.6250
   42MOL0     H 5765   5.063   5.667   4.884  3.1383 -1.0748  2.6762
   42MOL0     H 5766   5.242   5.521   4.852 -0.8831  1.3107 -0.8909
   42MOL0     H 5767   5.133   5.374   4.869  0.5360 -0.8700  2.0299
   42MOL0     H 5768   5.197   5.573   5.092 -1.2305 -0.1467 -0.3529
   42MOL0     H 5769   5.110   5.412   5.105  1.2588  0.6861  1.0318
   42MOL0     H 5770   5.343   5.313   5.052  0.8327  0.2182 -1.6625
   42MOL0     H 5771   5.332   5.423   5.201 -2.0506  0.5985 -1.2938
   42MOL0     H 5772   5.448   5.604   5.057  0.4145 -0.3102 -0.8117
   42MOL0     H 5773   5.467   5.482   4.937 -2.3932 -1.2688  0.2847
   42MOL0     H 5774   5.589   5.344   5.062  0.5289  0.8984 -2.0409
   42MOL0     H 5775   5.581   5.441   5.209  0.2893  1.5418 -0.2520
   42MOL0     H 5776   4.562   5.615   5.012 -3.2456 -0.1373  0.3921
   42MOL0     H 5777   4.337   5.698   5.005 -0.4073  1.7544 -0.6479
   42MOL0     H 5778   3.967   5.985   5.062  1.9527 -0.9647 -1.3736
   42MOL0     H 5779   3.774   6.091   5.024  0.4044 -3.5493  1.3948
   42MOL0     H 5780   2.895   5.898   3.411 -0.4428 -0.0667  0.4085
   42MOL0     H 5781   2.846   5.918   3.144 -2.5752  0.1881  0.5372
   42MOL0     H 5782   2.761   6.127   2.804 -0.5367 -1.1052 -1.2562
   42MOL0     H 5783   2.692   6.173   2.583 -0.1704  0.4291 -0.9307
   42MOL0     H 5784   2.887   6.405   2.294 -4.3168  1.2746 -0.4952
   42MOL0     H 5785   2.970   6.256   2.267 -0.2712 -0.2405 -2.9040
   42MOL0     H 5786   2.748   6.186   2.126 -0.9311  0.9361 -2.2999
   42MOL0     H 5787   2.826   6.330   2.064 -1.8263 -2.2479 -2.5836
   42MOL0     H 5788   2.693   6.476   2.223  0.4173 -1.0527  1.4253
   42MOL0     H 5789   2.607   6.411   2.082 -2.2161 -1.9162 -0.0415
   42MOL0     H 5790   2.493   6.368   2.331  1.5260  0.8015  0.8963
   42MOL0     H 5791   2.595   6.231   2.303  0.5319 -0.0335 -1.0476
   42MOL0     H 5792   2.266   6.129   2.090 -1.2409  2.3792 -2.0750
   42MOL0     H 5793   3.074   6.327   2.490  4.0962 -2.2688  2.4964
   42MOL0     H 5794   3.226   6.364   2.632 -0.1426 -0.4758 -0.9303
   42MOL0     H 5795   3.186   6.384   2.806  0.3994  0.3997 -0.0350
   42MOL0     H 5796   3.264   6.236   2.736 -0.4985  1.2870 -0.1564
   43MOL0     O 5797   7.241   3.836   4.059 -0.2504 -0.2003  0.2207
   43MOL0     C 5798   7.217   3.841   3.939  0.1558  0.7304  0.4332
   43MOL0     O 5799   7.305   3.876   3.852  0.2195  0.6218  0.1664
   43MOL0     C 5800   7.428   3.930   3.874 -0.2112  0.0863 -0.6442
   43MOL0     C 5801   7.459   4.018   3.975 -0.1236 -0.6132  0.2218
   43MOL0     C 5802   7.579   4.085   3.982  0.8095  0.4405  0.4664
   43MOL0     C 5803   7.688   4.050   3.892  0.5837 -0.5855  1.4329
   43MOL0     O 5804   7.800   4.132   3.902 -0.1732 -0.0883  0.9291
   43MOL0     C 5805   7.906   4.096   3.810 -0.8497 -0.3543  0.4973
   43MOL0     C 5806   8.018   4.195   3.825  0.1069  0.4532  0.4888
   43MOL0     C 5807   8.135   4.134   3.752  0.1607 -0.0356 -0.4894
   43MOL0     C 5808   8.243   4.233   3.729 -0.0467  0.0997 -0.2430
   43MOL0     C 5809   8.317   4.283   3.858  0.0853  0.1695  0.9247
   43MOL0     C 5810   8.383   4.177   3.947 -0.3533  0.0542 -0.1722
   43MOL0     C 5811   8.367   4.219   4.096 -0.5357  0.7995 -0.3519
   43MOL0     C 5812   8.435   4.111   4.187  0.3205  0.0420 -0.4745
   43MOL0     N 5813   8.575   4.115   4.170 -0.7616  0.0186 -0.4101
   43MOL0     C 5814   8.664   4.217   4.201  0.4769 -0.0280  0.1956
   43MOL0     C 5815   8.787   4.160   4.184 -0.9864 -0.4983 -0.1497
   43MOL0     C 5816   8.927   4.225   4.184  0.1066 -0.3464  0.0968
   43MOL0     C 5817   9.036   4.156   4.089  0.2083  0.0126 -0.5386
   43MOL0     C 5818   9.172   4.209   4.133 -0.0769 -0.5023 -0.2397
   43MOL0     C 5819   9.290   4.151   4.054  0.4819  0.1561  0.0414
   43MOL0     O 5820   9.404   4.189   4.126 -1.0008  0.3499  0.0455
   43MOL0     C 5821   9.532   4.168   4.071 -0.3722 -0.1128 -0.3922
   43MOL0     C 5822   9.555   4.091   3.952  0.8865  0.1042  0.1069
   43MOL0     C 5823   9.686   4.071   3.901 -0.5753  0.0557 -0.6119
   43MOL0     C 5824   9.693   3.998   3.769 -0.1314  0.9382 -0.6527
   43MOL0     C 5825   9.799   4.105   3.978 -0.2794 -0.1495  0.4047
   43MOL0     C 5826   9.931   4.052   3.961  0.2114  0.8647  0.3167
   43MOL0     O 5827  10.040   4.136   3.984  0.1415 -0.1153  0.3693
   43MOL0     C 5828  10.160   4.071   3.997  0.2338 -0.8040 -0.7410
   43MOL0     C 5829  10.268   4.113   3.920 -0.0825  0.2617  0.1285
   43MOL0     C 5830  10.391   4.049   3.939  0.8706 -0.0792  0.0630
   43MOL0     C 5831  10.412   3.942   4.031 -0.2714 -0.9090  0.0181
   43MOL0     O 5832  10.531   3.873   4.030  0.4798 -0.2293  0.3902
   43MOL0     C 5833  10.569   3.818   4.158 -0.0291  0.6579 -0.2320
   43MOL0     C 5834  10.715   3.839   4.173 -0.5256  0.2663 -0.6678
   43MOL0     C 5835  10.761   3.987   4.192  0.5994  0.2984 -1.0457
   43MOL0     C 5836  10.907   4.002   4.146  0.3046 -0.3190 -0.3280
   43MOL0     C 5837  10.961   4.147   4.173 -0.2863  0.5319 -0.0824
   43MOL0     C 5838  11.117   4.139   4.156 -0.1418 -0.8606  0.3263
   43MOL0     C 5839  11.174   4.279   4.175 -0.3542 -0.2065 -0.6154
   43MOL0     C 5840  11.289   4.269   4.276  0.1494  0.4618  0.1367
   43MOL0    Cl 5841  11.221   4.224   4.444  0.1678 -0.6836  0.1439
   43MOL0     C 5842  10.306   3.916   4.115 -0.3303 -0.4369  0.3430
   43MOL0     C 5843  10.182   3.980   4.102  0.6760  0.6445  0.1197
   43MOL0     O 5844   9.939   3.932   3.918 -0.5645  0.2335  0.0467
   43MOL0     C 5845   9.775   4.182   4.096  0.1246  0.1778  1.0012
   43MOL0     C 5846   9.643   4.213   4.137  0.2024 -0.0523 -0.1673
   43MOL0     N 5847   8.772   4.022   4.182 -0.8244  0.6082 -0.0176
   43MOL0     N 5848   8.645   4.007   4.166  0.6258  0.4254 -0.0528
   43MOL0     C 5849   7.661   3.951   3.797  0.6283 -0.7987 -0.1578
   43MOL0     C 5850   7.537   3.901   3.786  0.0062  0.7897 -0.2868
   43MOL0     C 5851   7.086   3.793   3.880 -0.0727  0.7364  0.1667
   43MOL0     C 5852   7.080   3.772   3.736 -0.0436  0.9074  0.2797
   43MOL0     C 5853   6.967   3.716   3.682 -0.7713  0.5186 -0.4593
   43MOL0     C 5854   6.850   3.701   3.747  0.2821 -0.5798  0.5202
   43MOL0     O 5855   6.745   3.663   3.665 -0.0781  0.2005  0.3650
   43MOL0     C 5856   6.613   3.696   3.710 -0.0190 -0.3671  0.1283
   43MOL0     C 5857   6.519   3.638   3.598 -0.4498  0.1333 -0.2638
   43MOL0     C 5858   6.369   3.614   3.620 -0.1045 -0.5112 -0.5311
   43MOL0     C 5859   6.331   3.539   3.746 -0.4479 -0.5563 -0.2456
   43MOL0     C 5860   6.198   3.573   3.782  1.0342  0.0266  0.8259
   43MOL0     C 5861   6.080   3.602   3.801  0.5549 -0.4584 -0.3045
   43MOL0     C 5862   6.839   3.742   3.882 -0.1936 -0.2424 -0.3974
   43MOL0     C 5863   6.963   3.781   3.953 -0.0901  0.2477  0.1878
   43MOL0     C 5864   6.942   3.811   4.096 -0.2396 -0.2840 -0.2098
   43MOL0     H 5865   7.381   4.038   4.048 -1.8277  0.0959 -1.6830
   43MOL0     H 5866   7.614   4.149   4.063 -0.1838 -1.5416  2.5618
   43MOL0     H 5867   7.864   4.115   3.711  1.5376  2.0935 -0.1671
   43MOL0     H 5868   7.941   3.996   3.836  2.5843  0.6056  0.0198
   43MOL0     H 5869   7.996   4.289   3.775 -0.7144  0.4421  0.8088
   43MOL0     H 5870   8.043   4.211   3.930 -1.7241 -1.0843  1.2264
   43MOL0     H 5871   8.178   4.052   3.810 -2.6334 -0.5987  0.9705
   43MOL0     H 5872   8.094   4.094   3.658 -0.3046  0.1738 -0.3818
   43MOL0     H 5873   8.323   4.184   3.673  0.8974  1.3576 -0.0569
   43MOL0     H 5874   8.212   4.322   3.674 -2.1165  0.0792  0.8283
   43MOL0     H 5875   8.248   4.339   3.922 -0.6286 -1.3164  1.5085
   43MOL0     H 5876   8.387   4.358   3.819  0.7563 -0.6085  0.6100
   43MOL0     H 5877   8.330   4.082   3.939 -0.5579  0.0128  1.2992
   43MOL0     H 5878   8.486   4.174   3.911 -0.0447  1.0144  0.5886
   43MOL0     H 5879   8.263   4.214   4.129 -0.0519  0.3749  1.2242
   43MOL0     H 5880   8.400   4.319   4.125  2.9964  0.3584 -2.3073
   43MOL0     H 5881   8.408   4.129   4.291 -0.0666  4.0705 -1.1084
   43MOL0     H 5882   8.391   4.012   4.168  2.5185 -0.5981 -2.7441
   43MOL0     H 5883   8.637   4.321   4.215 -0.3739 -0.3174  0.7579
   43MOL0     H 5884   8.961   4.221   4.288 -2.6310 -2.7899  1.0319
   43MOL0     H 5885   8.927   4.328   4.146  1.3006 -1.3390 -2.8333
   43MOL0     H 5886   9.024   4.048   4.083  1.8979 -0.1908 -0.7263
   43MOL0     H 5887   9.021   4.197   3.989 -0.2918 -2.4969 -1.5452
   43MOL0     H 5888   9.151   4.315   4.117 -0.1090 -0.3960  0.4783
   43MOL0     H 5889   9.186   4.184   4.238 -2.1593  0.1753  0.2619
   43MOL0     H 5890   9.267   4.045   4.067 -0.6644  0.5870  2.0846
   43MOL0     H 5891   9.293   4.191   3.952  1.7176  0.1315  0.0584
   43MOL0     H 5892   9.468   4.055   3.897 -0.8881  0.6443  2.4315
   43MOL0     H 5893   9.640   3.903   3.763 -1.3670  1.6720 -2.2488
   43MOL0     H 5894   9.791   3.974   3.726  0.7770  0.1607  1.7197
   43MOL0     H 5895   9.632   4.073   3.717 -2.3936  0.2012  0.7881
   43MOL0     H 5896  10.246   4.185   3.842 -2.8486  0.5299  1.0616
   43MOL0     H 5897  10.464   4.085   3.867 -2.3477 -0.2608 -3.6417
   43MOL0     H 5898  10.521   3.854   4.249  0.0826  1.5540 -0.5166
   43MOL0     H 5899  10.543   3.712   4.163 -1.4030  1.0387  2.2005
   43MOL0     H 5900  10.746   3.787   4.264  0.2221  2.5868  0.4886
   43MOL0     H 5901  10.759   3.791   4.085  1.6194 -1.4207  1.1841
   43MOL0     H 5902  10.753   4.007   4.299 -1.0543 -0.1978 -1.0411
   43MOL0     H 5903  10.689   4.054   4.144  0.2557 -0.1326 -1.1491
   43MOL0     H 5904  10.906   3.985   4.038  2.0859 -0.7319 -0.3078
   43MOL0     H 5905  10.968   3.928   4.198  0.6525 -0.7540 -1.3154
   43MOL0     H 5906  10.923   4.217   4.099 -0.9951  0.6314  0.3621
   43MOL0     H 5907  10.929   4.170   4.275 -2.5840 -2.4031  0.0369
   43MOL0     H 5908  11.146   4.100   4.058  1.2463  0.3679  0.2115
   43MOL0     H 5909  11.150   4.076   4.240  2.2679 -1.3484 -0.8982
   43MOL0     H 5910  11.097   4.349   4.211 -0.4336  0.2698 -1.6766
   43MOL0     H 5911  11.206   4.320   4.079 -1.3300  0.6366 -0.6106
   43MOL0     H 5912  11.350   4.359   4.293 -0.0501  0.7139 -0.4722
   43MOL0     H 5913  11.365   4.198   4.242  0.0924  1.0249 -1.2306
   43MOL0     H 5914  10.315   3.845   4.197  1.2262 -0.3777  0.2567
   43MOL0     H 5915  10.100   3.944   4.164 -0.2221  0.5064 -1.0988
   43MOL0     H 5916   9.848   4.200   4.174  0.4876  2.7628  0.1881
   43MOL0     H 5917   9.626   4.261   4.233 -1.6685  0.8420 -0.9013
   43MOL0     H 5918   7.736   3.912   3.728  0.5417  0.8184 -1.2041
   43MOL0     H 5919   7.515   3.845   3.696  0.6527  1.1523 -0.6739
   43MOL0     H 5920   7.162   3.787   3.667  0.8332  1.5717  1.4413
   43MOL0     H 5921   6.976   3.687   3.578  3.4204  1.4384 -0.5101
   43MOL0     H 5922   6.583   3.650   3.805 -1.1921  2.3980  1.1961
   43MOL0     H 5923   6.588   3.802   3.721 -0.8842 -0.5731  0.2681
   43MOL0     H 5924   6.553   3.539   3.564 -0.6894 -0.1395  0.2680
   43MOL0     H 5925   6.535   3.704   3.513 -1.5520  0.3970 -0.2808
   43MOL0     H 5926   6.324   3.713   3.630 -1.7798 -1.2214 -0.5907
   43MOL0     H 5927   6.328   3.563   3.532 -0.9215 -1.3835  0.3252
   43MOL0     H 5928   6.396   3.564   3.831 -0.1464 -0.4508 -0.5056
   43MOL0     H 5929   6.331   3.430   3.739  2.0475 -0.7520  1.4304
   43MOL0     H 5930   5.979   3.623   3.827  0.5816  0.9277 -1.2533
   43MOL0     H 5931   6.744   3.732   3.933 -0.5563 -2.4787 -1.3720
   43MOL0     H 5932   6.837   3.810   4.127 -0.4529  0.9881 -0.8505
   43MOL0     H 5933   6.995   3.728   4.144  2.6872 -0.1242 -2.8782
   43MOL0     H 5934   6.989   3.907   4.117  0.4746 -0.7668  0.4897
   44MOL0     O 5935   6.555   0.985   2.227  0.5029  0.2416 -0.0420
   44MOL0     C 5936   6.446   0.991   2.170  0.7440 -0.0340 -0.1336
   44MOL0     O 5937   6.424   1.037   2.039 -0.9012  0.8226  0.6780
   44MOL0     C 5938   6.523   1.061   1.959 -0.0577  0.1740 -0.0279
   44MOL0     C 5939   6.487   1.125   1.842 -0.0368 -0.3060  0.8182
   44MOL0     C 5940   6.574   1.139   1.735 -0.2470 -0.3738  0.3065
   44MOL0     C 5941   6.704   1.089   1.743  0.0093  0.5576  0.6941
   44MOL0     O 5942   6.790   1.112   1.642  0.2085  0.1256 -0.2142
   44MOL0     C 5943   6.807   1.003   1.551 -0.0622  1.0522  0.3565
   44MOL0     C 5944   6.919   1.033   1.450  0.0482 -0.1935  1.2702
   44MOL0     C 5945   7.058   1.026   1.517 -0.0694 -0.1148  0.0489
   44MOL0     C 5946   7.179   1.044   1.431 -0.0363  1.0366  0.1447
   44MOL0     C 5947   7.203   1.169   1.340  0.2140 -0.3262  0.2173
   44MOL0     C 5948   7.323   1.152   1.236 -0.3252 -0.3025  0.1516
   44MOL0     C 5949   7.330   1.284   1.162  0.1842 -0.7492 -0.2113
   44MOL0     C 5950   7.459   1.306   1.084 -0.1306 -0.1126 -0.2868
   44MOL0     N 5951   7.575   1.306   1.171 -0.4874  1.0651  0.4640
   44MOL0     C 5952   7.651   1.194   1.201  0.2169 -0.6721 -0.2269
   44MOL0     C 5953   7.737   1.231   1.299 -0.2277 -0.7493  0.2496
   44MOL0     C 5954   7.836   1.136   1.357 -0.1927  0.1022  0.5834
   44MOL0     C 5955   7.865   1.156   1.505 -0.5288  1.0395 -0.2889
   44MOL0     C 5956   7.955   1.280   1.545  0.5792 -0.2815 -1.0654
   44MOL0     C 5957   8.104   1.243   1.538  0.1064  0.1877 -0.6366
   44MOL0     O 5958   8.168   1.226   1.413 -0.4846 -0.3884 -0.5134
   44MOL0     C 5959   8.310   1.240   1.426 -0.1070 -0.4123 -0.8286
   44MOL0     C 5960   8.363   1.360   1.407 -0.4940  0.5404 -0.0487
   44MOL0     C 5961   8.503   1.382   1.441  0.6891  0.9462  1.1458
   44MOL0     C 5962   8.561   1.522   1.408 -0.2037  0.1220 -0.1164
   44MOL0     C 5963   8.576   1.284   1.500 -0.5350  0.2748  0.1025
   44MOL0     C 5964   8.720   1.285   1.529 -1.1816  1.2214  0.5543
   44MOL0     O 5965   8.759   1.224   1.653  0.1438  0.2898  0.8506
   44MOL0     C 5966   8.888   1.187   1.681 -1.6875  0.3014  0.4257
   44MOL0     C 5967   9.005   1.266   1.673 -0.6934 -0.5984  0.1148
   44MOL0     C 5968   9.125   1.211   1.709 -0.6051  0.1424 -0.0859
   44MOL0     C 5969   9.129   1.091   1.781  0.3653 -0.6804 -0.5438
   44MOL0     O 5970   9.243   1.050   1.839 -0.6026 -0.5502 -0.6708
   44MOL0     C 5971   9.251   1.016   1.976  0.1941  0.1588  0.2539
   44MOL0     C 5972   9.398   0.977   2.010 -0.1214  0.0341  0.1466
   44MOL0     C 5973   9.487   1.099   1.988  0.0081 -0.5928 -0.6742
   44MOL0     C 5974   9.635   1.059   1.983 -0.0354  0.0342 -0.4367
   44MOL0     C 5975   9.731   1.179   1.976  0.3164 -0.4524  0.8258
   44MOL0     C 5976   9.875   1.137   1.980  0.6298 -0.1022  0.3671
   44MOL0     C 5977   9.967   1.263   1.974  0.6130 -0.0736 -0.0004
   44MOL0     C 5978  10.106   1.227   2.029 -0.2198 -0.4001 -0.4302
   44MOL0    Cl 5979  10.200   1.090   1.947 -0.2528 -0.1924  0.8035
   44MOL0     C 5980   9.014   1.011   1.802 -0.7628  0.8191  0.0699
   44MOL0     C 5981   8.897   1.057   1.743 -0.0920 -0.1655 -0.3291
   44MOL0     O 5982   8.799   1.320   1.438  0.5424  0.3122  0.0341
   44MOL0     C 5983   8.510   1.166   1.524 -0.5886  1.3203 -0.0930
   44MOL0     C 5984   8.382   1.138   1.488  0.3855 -0.4775 -0.5006
   44MOL0     N 5985   7.725   1.368   1.313  0.0909 -0.5176 -0.2239
   44MOL0     N 5986   7.627   1.412   1.232 -0.9364  0.1035 -0.2931
   44MOL0     C 5987   6.749   1.024   1.858  0.2244  0.0860  0.7294
   44MOL0     C 5988   6.646   0.997   1.962 -0.3470  0.3640 -0.8458
   44MOL0     C 5989   6.334   0.939   2.250 -0.8002 -0.7880  0.4934
   44MOL0     C 5990   6.317   0.977   2.383  0.5344 -0.1040  0.3583
   44MOL0     C 5991   6.213   0.932   2.463  0.0022  0.2354  0.8138
   44MOL0     C 5992   6.119   0.847   2.399 -0.2784  0.1678 -0.9111
   44MOL0     O 5993   6.017   0.806   2.479  0.0407  0.4298  1.0718
   44MOL0     C 5994   5.890   0.767   2.411 -0.2058  0.3340 -0.4715
   44MOL0     C 5995   5.763   0.802   2.489 -0.0499  0.3276 -0.0027
   44MOL0     C 5996   5.747   0.950   2.529 -0.2997  0.5900  0.3360
   44MOL0     C 5997   5.604   0.986   2.566  0.3317 -0.3644  0.2642
   44MOL0     C 5998   5.531   1.013   2.442 -0.0777 -0.7824 -0.1257
   44MOL0     C 5999   5.465   1.023   2.338 -0.4416 -0.0053 -0.2853
   44MOL0     C 6000   6.137   0.807   2.275  0.1447 -0.0503 -0.2683
   44MOL0     C 6001   6.242   0.846   2.195  0.2510 -0.6003  0.5303
   44MOL0     C 6002   6.241   0.796   2.049  0.5542  0.5420  0.6843
   44MOL0     H 6003   6.386   1.164   1.849  0.2964  0.7809 -0.2462
   44MOL0     H 6004   6.540   1.192   1.646  0.3105 -2.5052 -1.2767
   44MOL0     H 6005   6.721   0.974   1.490  1.3407  0.6514 -1.5034
   44MOL0     H 6006   6.835   0.912   1.605  1.6413  0.9527 -0.6232
   44MOL0     H 6007   6.911   0.958   1.371  0.4710  0.7112  0.3387
   44MOL0     H 6008   6.895   1.131   1.408  0.5103 -0.6404 -0.0727
   44MOL0     H 6009   7.054   1.101   1.597  0.1652  0.5036 -0.5108
   44MOL0     H 6010   7.073   0.932   1.570 -0.3185 -0.8391 -1.1350
   44MOL0     H 6011   7.262   1.032   1.501 -0.7437 -1.1042  0.7047
   44MOL0     H 6012   7.187   0.960   1.361 -0.8764 -0.5996  1.9117
   44MOL0     H 6013   7.227   1.250   1.409  2.8764 -1.6092  0.9188
   44MOL0     H 6014   7.112   1.196   1.284  1.2037 -2.7713 -2.8518
   44MOL0     H 6015   7.421   1.139   1.282  0.1773  1.4162 -0.3657
   44MOL0     H 6016   7.301   1.067   1.171  0.5491 -0.3264 -0.1181
   44MOL0     H 6017   7.322   1.371   1.228  0.1792 -0.0683 -1.0775
   44MOL0     H 6018   7.248   1.288   1.089  0.0189 -0.3771 -0.0101
   44MOL0     H 6019   7.468   1.227   1.008  3.5772 -0.4976  0.3516
   44MOL0     H 6020   7.453   1.402   1.032 -2.6218 -0.1502 -0.1736
   44MOL0     H 6021   7.639   1.094   1.160 -0.2568 -0.9836  0.6552
   44MOL0     H 6022   7.924   1.169   1.301 -0.1697  2.2109  1.7456
   44MOL0     H 6023   7.807   1.032   1.337 -0.2421  0.2971 -0.4468
   44MOL0     H 6024   7.772   1.166   1.561  0.1136 -0.6644  1.1945
   44MOL0     H 6025   7.900   1.062   1.549 -2.2592 -0.2632 -1.5540
   44MOL0     H 6026   7.925   1.369   1.490 -1.2371 -0.4591 -0.4139
   44MOL0     H 6027   7.936   1.308   1.648 -1.3060 -1.2317 -1.1180
   44MOL0     H 6028   8.151   1.325   1.593  1.2565 -0.3471 -0.7923
   44MOL0     H 6029   8.121   1.158   1.605  0.6293  0.7968  0.0151
   44MOL0     H 6030   8.312   1.448   1.369  0.9497  0.9006 -1.2838
   44MOL0     H 6031   8.485   1.588   1.364 -0.6091 -1.9426 -2.8182
   44MOL0     H 6032   8.654   1.521   1.351  1.8133  0.8976  2.9269
   44MOL0     H 6033   8.588   1.563   1.505 -1.2780  0.7361 -0.0586
   44MOL0     H 6034   8.998   1.367   1.636 -1.0788 -0.9249 -0.7247
   44MOL0     H 6035   9.218   1.268   1.710  2.0003 -3.7478  1.4253
   44MOL0     H 6036   9.201   1.087   2.043 -0.1813 -0.3857  0.5566
   44MOL0     H 6037   9.199   0.922   1.993 -2.4747  1.9731  3.1454
   44MOL0     H 6038   9.413   0.930   2.107  1.2738 -1.3525 -0.6959
   44MOL0     H 6039   9.434   0.904   1.937 -2.4978 -0.2387 -0.8553
   44MOL0     H 6040   9.464   1.169   2.070 -2.9161 -1.3883 -0.6990
   44MOL0     H 6041   9.465   1.157   1.898 -1.7725  0.7751  0.5552
   44MOL0     H 6042   9.631   0.997   1.893  0.0216  1.7058 -1.6173
   44MOL0     H 6043   9.654   1.003   2.076 -2.2222  1.8452  1.2089
   44MOL0     H 6044   9.709   1.240   1.888 -0.8703  0.0056  1.4023
   44MOL0     H 6045   9.707   1.239   2.065 -1.7928  0.2800 -0.1648
   44MOL0     H 6046   9.898   1.068   1.898 -2.4237 -1.4561  0.5363
   44MOL0     H 6047   9.897   1.086   2.074 -0.8071  2.4087  2.1929
   44MOL0     H 6048   9.940   1.356   2.025 -1.9768  1.5085 -3.8158
   44MOL0     H 6049   9.984   1.292   1.870  4.1145 -0.3410  0.3927
   44MOL0     H 6050  10.101   1.199   2.134  2.0728 -0.5482 -0.3045
   44MOL0     H 6051  10.175   1.312   2.025  2.4866 -2.4299 -0.0058
   44MOL0     H 6052   9.029   0.914   1.850 -3.0333 -0.4007 -1.4773
   44MOL0     H 6053   8.814   0.991   1.767  0.9217 -0.8873  1.4424
   44MOL0     H 6054   8.559   1.085   1.577 -3.6987  0.3933  1.6320
   44MOL0     H 6055   8.348   1.037   1.509 -3.5681  0.5454 -1.1571
   44MOL0     H 6056   6.849   0.984   1.869  1.7272  3.6766  1.8453
   44MOL0     H 6057   6.678   0.925   2.037 -3.1241  1.3442  1.4974
   44MOL0     H 6058   6.395   1.040   2.425 -0.1661  0.8892  0.1854
   44MOL0     H 6059   6.211   0.964   2.566 -2.5628  1.5243  0.4640
   44MOL0     H 6060   5.881   0.813   2.312  1.8902  0.3750 -0.6959
   44MOL0     H 6061   5.891   0.661   2.383  0.4953  0.0740  0.5059
   44MOL0     H 6062   5.762   0.733   2.574  0.5351  0.5740  0.2095
   44MOL0     H 6063   5.678   0.764   2.431 -0.4229 -0.5243  1.0733
   44MOL0     H 6064   5.811   0.965   2.617  3.0155 -0.4586 -1.7068
   44MOL0     H 6065   5.783   1.026   2.459 -2.6430  2.0513  0.6097
   44MOL0     H 6066   5.610   1.073   2.632 -0.4510 -1.5324  1.9610
   44MOL0     H 6067   5.557   0.902   2.620 -0.4758  1.0439  1.8384
   44MOL0     H 6068   5.396   1.036   2.257 -1.0668  1.0384  0.3984
   44MOL0     H 6069   6.077   0.722   2.245 -2.3704  2.4126 -2.8436
   44MOL0     H 6070   6.145   0.753   2.021  0.9600  0.2161 -0.2728
   44MOL0     H 6071   6.262   0.872   1.973  1.2222 -1.0302 -0.7850
   44MOL0     H 6072   6.307   0.710   2.035 -0.0307  0.5366 -2.8724
   45MOL0     O 6073   2.972  10.133   4.601 -0.1624  0.2229 -0.1497
   45MOL0     C 6074   2.867  10.087   4.574  0.0365 -0.4002  0.4724
   45MOL0     O 6075   2.845   9.958   4.541 -0.2755  0.6096  0.0046
   45MOL0     C 6076   2.950   9.883   4.489 -0.3138 -0.1287  0.0431
   45MOL0     C 6077   3.080   9.871   4.537 -0.7378  0.3628  0.2726
   45MOL0     C 6078   3.178   9.802   4.465 -0.5254  0.1084 -0.1960
   45MOL0     C 6079   3.159   9.736   4.341  1.3096 -0.4294 -0.1229
   45MOL0     O 6080   3.244   9.648   4.277  0.6188 -0.2453  0.2364
   45MOL0     C 6081   3.381   9.657   4.324 -0.4101  0.4989 -0.8980
   45MOL0     C 6082   3.469   9.571   4.222  0.2998 -0.4478  0.1774
   45MOL0     C 6083   3.620   9.575   4.240 -0.3635  0.0656 -0.5773
   45MOL0     C 6084   3.702   9.704   4.199  0.2343  0.4523 -1.3612
   45MOL0     C 6085   3.848   9.696   4.240  0.1072 -0.0460  0.6322
   45MOL0     C 6086   3.914   9.811   4.161  1.0021 -0.7617 -0.4723
   45MOL0     C 6087   4.066   9.804   4.162 -0.0561 -0.2415 -0.1144
   45MOL0     C 6088   4.111   9.741   4.036 -0.1459  0.3391  0.4171
   45MOL0     N 6089   4.261   9.762   4.019 -0.0859 -0.5498 -0.5676
   45MOL0     C 6090   4.359   9.767   4.118 -0.0660 -0.2002  0.7380
   45MOL0     C 6091   4.469   9.785   4.044 -0.9283 -0.3976 -0.0515
   45MOL0     C 6092   4.608   9.801   4.089 -0.3179  0.0774  0.0047
   45MOL0     C 6093   4.640   9.676   4.165 -0.1261  0.0495 -0.1675
   45MOL0     C 6094   4.789   9.672   4.202 -0.3224  0.0899  0.3194
   45MOL0     C 6095   4.869   9.662   4.073  0.2827  0.8246  0.4517
   45MOL0     O 6096   4.918   9.791   4.044  0.2605  0.0672 -0.4198
   45MOL0     C 6097   5.028   9.846   4.108 -0.2474 -0.4177  1.0173
   45MOL0     C 6098   5.122   9.767   4.179  0.1912  0.0198 -0.0191
   45MOL0     C 6099   5.245   9.817   4.230  0.0367  0.2674 -0.4997
   45MOL0     C 6100   5.338   9.721   4.299  0.1575 -0.1599 -0.6866
   45MOL0     C 6101   5.272   9.956   4.206  0.0266  0.4595 -0.4617
   45MOL0     C 6102   5.395  10.014   4.249 -0.5505 -0.5612  0.3235
   45MOL0     O 6103   5.448   9.986   4.381  0.7029  0.4370 -0.2856
   45MOL0     C 6104   5.570  10.032   4.418 -0.3852  0.5732 -0.1290
   45MOL0     C 6105   5.572  10.146   4.493 -0.3638  0.4551  0.7431
   45MOL0     C 6106   5.689  10.177   4.563 -0.4737  0.1138 -0.2637
   45MOL0     C 6107   5.808  10.102   4.555  0.0924 -0.2656  0.2237
   45MOL0     O 6108   5.911  10.128   4.644 -0.3835  0.2467  0.3477
   45MOL0     C 6109   6.042  10.078   4.626  0.2754  0.0388  0.2408
   45MOL0     C 6110   6.121  10.095   4.755  0.0746  0.3931  0.2717
   45MOL0     C 6111   6.240   9.999   4.763  0.1191 -0.2995 -0.2203
   45MOL0     C 6112   6.337  10.019   4.655 -0.0652 -0.4465  0.5271
   45MOL0     C 6113   6.453   9.923   4.666 -0.7324  0.3026  0.5566
   45MOL0     C 6114   6.565   9.919   4.543  0.1508  0.1811 -0.2003
   45MOL0     C 6115   6.670   9.797   4.540  0.6200  0.0853  0.4248
   45MOL0     C 6116   6.727   9.769   4.682 -0.1418 -0.1847 -0.1965
   45MOL0    Cl 6117   6.854   9.884   4.726  0.2046 -0.1400 -0.1443
   45MOL0     C 6118   5.810   9.992   4.465 -0.0066  0.2197  1.0614
   45MOL0     C 6119   5.692   9.965   4.391  0.3977 -0.4089 -0.1059
   45MOL0     O 6120   5.452  10.096   4.170 -0.1226 -0.3370 -0.5487
   45MOL0     C 6121   5.188  10.026   4.125 -0.1084 -1.2759 -0.2561
   45MOL0     C 6122   5.060   9.977   4.078 -0.5840 -0.4310 -0.7927
   45MOL0     N 6123   4.450   9.793   3.908  0.1235  0.4205 -0.4488
   45MOL0     N 6124   4.320   9.778   3.899  0.0603 -0.9647 -0.3907
   45MOL0     C 6125   3.034   9.762   4.286  0.6268 -0.5965  0.1876
   45MOL0     C 6126   2.929   9.826   4.359 -0.3877 -0.0126  0.1700
   45MOL0     C 6127   2.751  10.181   4.580  0.1314  0.2001  0.0682
   45MOL0     C 6128   2.780  10.320   4.559  0.1452  0.7772 -0.4279
   45MOL0     C 6129   2.682  10.419   4.569 -0.4234 -0.3698 -0.0709
   45MOL0     C 6130   2.549  10.385   4.588 -0.9066  0.1044 -1.2039
   45MOL0     O 6131   2.456  10.487   4.585  0.3167  0.9027 -0.2719
   45MOL0     C 6132   2.318  10.453   4.581  0.1929  0.3214  0.8092
   45MOL0     C 6133   2.232  10.574   4.549  0.8104 -0.1754 -0.3426
   45MOL0     C 6134   2.239  10.679   4.663 -1.0213  0.2464  0.1711
   45MOL0     C 6135   2.161  10.799   4.627  1.0609 -0.7643 -0.2301
   45MOL0     C 6136   2.011  10.789   4.647 -0.4520 -0.1459 -0.3582
   45MOL0     C 6137   1.897  10.771   4.687 -0.0805  0.4917 -0.1922
   45MOL0     C 6138   2.509  10.250   4.598 -0.3881  0.2351  0.5077
   45MOL0     C 6139   2.610  10.150   4.600 -0.4106 -0.0413 -0.0506
   45MOL0     C 6140   2.563  10.012   4.636 -0.1617 -1.0102 -0.0710
   45MOL0     H 6141   3.096   9.904   4.640 -1.5883  1.3890  0.0839
   45MOL0     H 6142   3.270   9.773   4.515 -0.9073 -4.3852 -1.6209
   45MOL0     H 6143   3.395   9.614   4.424 -0.4194 -0.3207 -1.2388
   45MOL0     H 6144   3.411   9.762   4.325  0.0391  0.4118 -2.4879
   45MOL0     H 6145   3.445   9.464   4.233 -1.8657 -0.1856 -1.3535
   45MOL0     H 6146   3.442   9.606   4.122  1.8807  1.8857  0.4849
   45MOL0     H 6147   3.648   9.547   4.342  0.7911  3.1983  0.0654
   45MOL0     H 6148   3.661   9.494   4.179  0.0917  1.6593 -2.4693
   45MOL0     H 6149   3.689   9.717   4.091 -0.4189 -1.0167 -1.4834
   45MOL0     H 6150   3.653   9.790   4.245 -3.2620 -1.6052 -0.9174
   45MOL0     H 6151   3.889   9.597   4.217  0.6513  0.1098  0.9168
   45MOL0     H 6152   3.861   9.707   4.348 -1.0077 -2.0085  1.0037
   45MOL0     H 6153   3.866   9.821   4.063 -1.1798 -3.4477  0.1839
   45MOL0     H 6154   3.895   9.906   4.211  0.1409 -0.4387 -1.3686
   45MOL0     H 6155   4.105   9.751   4.250  3.3107 -0.9325 -1.8565
   45MOL0     H 6156   4.104   9.907   4.161 -1.3884  0.2632 -0.5693
   45MOL0     H 6157   4.086   9.635   4.027 -2.5787  0.9715 -1.4676
   45MOL0     H 6158   4.055   9.786   3.953  0.1934  0.4289  0.2349
   45MOL0     H 6159   4.356   9.757   4.226  1.7125  1.7246  1.0153
   45MOL0     H 6160   4.630   9.895   4.139 -1.4521 -0.4103  1.5009
   45MOL0     H 6161   4.669   9.804   3.998  1.1647 -1.3142  0.8892
   45MOL0     H 6162   4.580   9.683   4.256  1.1333  1.5235  0.6088
   45MOL0     H 6163   4.616   9.582   4.115  0.3455  0.0944 -0.4846
   45MOL0     H 6164   4.813   9.763   4.257  0.7092 -0.9279  1.6525
   45MOL0     H 6165   4.813   9.581   4.259  0.2874  0.4346  0.6176
   45MOL0     H 6166   4.955   9.595   4.077  0.0951  0.5225 -0.3641
   45MOL0     H 6167   4.811   9.618   3.992 -0.8163  1.6279  0.7829
   45MOL0     H 6168   5.093   9.665   4.200 -1.6198  0.3519 -0.7845
   45MOL0     H 6169   5.297   9.622   4.275 -2.1010  0.6469 -0.4357
   45MOL0     H 6170   5.343   9.737   4.407  2.5151  1.6094 -0.9853
   45MOL0     H 6171   5.433   9.732   4.246  0.3973 -0.2245 -0.2742
   45MOL0     H 6172   5.481  10.204   4.506 -1.3777 -0.7332 -0.7314
   45MOL0     H 6173   5.689  10.263   4.630  5.6933  0.3926 -0.1201
   45MOL0     H 6174   6.039   9.974   4.591 -1.0318 -0.5078  1.8230
   45MOL0     H 6175   6.095  10.140   4.553  0.6874  1.2035  1.4892
   45MOL0     H 6176   6.147  10.200   4.767 -2.3643  1.4530 -2.6681
   45MOL0     H 6177   6.050  10.068   4.834  1.7006 -1.1198  1.2885
   45MOL0     H 6178   6.208   9.895   4.754  0.3170 -0.3661 -0.1612
   45MOL0     H 6179   6.288  10.027   4.857  0.7900  1.6976 -1.1047
   45MOL0     H 6180   6.372  10.123   4.661 -2.8234  0.6274 -0.3730
   45MOL0     H 6181   6.294   9.987   4.560 -0.3175  0.3031  0.3814
   45MOL0     H 6182   6.510   9.940   4.758  0.2022 -3.4109  0.8259
   45MOL0     H 6183   6.400   9.828   4.676 -0.6890  0.2787  0.5526
   45MOL0     H 6184   6.625  10.010   4.553  1.7733 -0.7313 -1.1124
   45MOL0     H 6185   6.515   9.929   4.447 -1.7624  2.9250  0.9565
   45MOL0     H 6186   6.750   9.808   4.466 -0.3508 -1.2380 -0.8982
   45MOL0     H 6187   6.605   9.714   4.513 -1.1349  0.9559  1.7845
   45MOL0     H 6188   6.757   9.664   4.675  1.6453  0.1646  1.4013
   45MOL0     H 6189   6.645   9.764   4.753  0.4684 -0.9390  0.4803
   45MOL0     H 6190   5.895   9.932   4.435  0.4138  0.5564  1.5601
   45MOL0     H 6191   5.684   9.884   4.319  0.6916 -0.6311  0.1075
   45MOL0     H 6192   5.213  10.126   4.092 -0.4614 -1.1597 -0.1732
   45MOL0     H 6193   4.992  10.036   4.017  1.1751  3.9750  1.0652
   45MOL0     H 6194   3.002   9.714   4.194 -3.7344  0.7059  0.7836
   45MOL0     H 6195   2.827   9.832   4.323 -1.1520  2.7859  2.4308
   45MOL0     H 6196   2.885  10.349   4.556  0.7435 -0.6856  2.3966
   45MOL0     H 6197   2.714  10.523   4.562 -0.2921 -0.2241  2.1190
   45MOL0     H 6198   2.288  10.371   4.516  0.5603 -0.0583  1.1164
   45MOL0     H 6199   2.303  10.417   4.684  0.8467 -1.1869  0.4014
   45MOL0     H 6200   2.131  10.532   4.540  0.7458 -0.1478  0.2186
   45MOL0     H 6201   2.260  10.617   4.453  2.2358  0.9427  0.5343
   45MOL0     H 6202   2.213  10.638   4.761 -1.9641 -0.1527 -0.2364
   45MOL0     H 6203   2.344  10.703   4.682 -0.4825 -1.7190 -0.0553
   45MOL0     H 6204   2.182  10.831   4.525  1.8628 -3.3693 -0.9653
   45MOL0     H 6205   2.210  10.876   4.687 -1.6741  0.5100  0.5505
   45MOL0     H 6206   1.799  10.735   4.712  0.4139 -2.7430 -2.2909
   45MOL0     H 6207   2.403  10.231   4.606 -0.7737  1.2492 -1.4354
   45MOL0     H 6208   2.608   9.968   4.725 -1.8938 -0.5342  1.0789
   45MOL0     H 6209   2.458  10.012   4.664 -0.1302  2.1918  0.3660
   45MOL0     H 6210   2.576   9.954   4.543 -1.1965 -0.5494 -0.5115
   46MOL0     O 6211   5.693   8.880   6.724 -0.2875  0.6276  0.6924
   46MOL0     C 6212   5.685   8.761   6.747 -0.5025 -0.1032  0.0669
   46MOL0     O 6213   5.787   8.689   6.795  0.1167 -0.0465 -0.2147
   46MOL0     C 6214   5.906   8.742   6.837 -0.4056  0.5674  0.8769
   46MOL0     C 6215   5.976   8.703   6.948 -0.0580  0.3867 -0.6742
   46MOL0     C 6216   6.104   8.749   6.970 -1.1662 -0.0302  0.3018
   46MOL0     C 6217   6.175   8.844   6.886  0.5411  0.8369  0.0086
   46MOL0     O 6218   6.299   8.887   6.890 -0.7212 -0.1127 -0.4786
   46MOL0     C 6219   6.361   8.870   7.016 -0.2224 -0.0563 -0.3927
   46MOL0     C 6220   6.443   8.743   7.016 -0.0807  0.0744 -0.4286
   46MOL0     C 6221   6.553   8.763   7.127  0.4503  0.0624 -0.0448
   46MOL0     C 6222   6.668   8.849   7.080 -1.3475 -0.1666  0.5801
   46MOL0     C 6223   6.764   8.892   7.193 -0.1172  0.2343  0.1764
   46MOL0     C 6224   6.844   8.782   7.251  0.7274 -0.2146 -0.6390
   46MOL0     C 6225   6.968   8.822   7.322 -0.5722  0.0043 -0.0329
   46MOL0     C 6226   7.021   8.709   7.407  0.2018 -0.2872  0.0221
   46MOL0     N 6227   7.157   8.740   7.454 -0.6558 -0.3466 -0.4687
   46MOL0     C 6228   7.248   8.650   7.496 -0.3282  0.2576 -0.4375
   46MOL0     C 6229   7.366   8.714   7.500  0.2199 -1.1992  0.0499
   46MOL0     C 6230   7.501   8.643   7.520 -0.1427 -0.0838 -0.1172
   46MOL0     C 6231   7.572   8.635   7.388 -0.2474  0.2424 -0.2266
   46MOL0     C 6232   7.703   8.551   7.386 -0.1108 -0.0821 -1.0399
   46MOL0     C 6233   7.789   8.577   7.508  0.4041 -0.6467 -0.2168
   46MOL0     O 6234   7.913   8.496   7.491  0.4648  0.3871 -0.0851
   46MOL0     C 6235   8.020   8.526   7.571  0.0549  0.4179 -0.1610
   46MOL0     C 6236   8.010   8.590   7.698  0.3082  0.4069 -1.2250
   46MOL0     C 6237   8.117   8.613   7.781 -0.4152 -0.2125 -0.9941
   46MOL0     C 6238   8.080   8.674   7.915 -0.6157  0.0768  0.6525
   46MOL0     C 6239   8.254   8.603   7.723  0.4091  0.3558  0.3576
   46MOL0     C 6240   8.373   8.647   7.791  0.2839 -0.0034 -0.8989
   46MOL0     O 6241   8.489   8.641   7.715  0.4528  0.2294  0.2559
   46MOL0     C 6242   8.602   8.710   7.765 -0.4790  0.8717 -1.2132
   46MOL0     C 6243   8.702   8.637   7.834  0.0143 -0.5581 -0.1372
   46MOL0     C 6244   8.814   8.705   7.883  0.2021 -0.4263 -0.3096
   46MOL0     C 6245   8.837   8.844   7.863 -0.4770  0.4221 -0.0612
   46MOL0     O 6246   8.938   8.911   7.927  0.2201  0.5416  0.1570
   46MOL0     C 6247   8.933   9.054   7.938 -0.0602 -0.7251 -0.4291
   46MOL0     C 6248   9.027   9.104   8.047  0.3984  0.5597 -0.0750
   46MOL0     C 6249   9.179   9.085   8.028  0.2159  0.2470  0.7187
   46MOL0     C 6250   9.241   9.165   7.910 -0.2455  1.0198  0.3873
   46MOL0     C 6251   9.389   9.162   7.924  0.4773 -0.1949  0.0512
   46MOL0     C 6252   9.463   9.212   7.807  0.0807 -0.0249 -0.2237
   46MOL0     C 6253   9.618   9.184   7.836 -0.8273  0.7935 -0.1376
   46MOL0     C 6254   9.708   9.169   7.703  0.4023  0.0622  0.0345
   46MOL0    Cl 6255   9.874   9.204   7.736  0.0645  0.0685 -0.1976
   46MOL0     C 6256   8.739   8.907   7.783  0.0626 -0.4742 -0.1439
   46MOL0     C 6257   8.628   8.842   7.733  0.5851  0.4839  0.5951
   46MOL0     O 6258   8.362   8.685   7.909 -0.4000  0.3248 -0.1698
   46MOL0     C 6259   8.271   8.541   7.596 -0.3454 -0.1206 -0.4818
   46MOL0     C 6260   8.150   8.507   7.519 -0.3090  0.3335  0.6503
   46MOL0     N 6261   7.342   8.847   7.460  0.3156  0.1005 -0.3800
   46MOL0     N 6262   7.216   8.862   7.435  0.0217  0.2842 -0.3270
   46MOL0     C 6263   6.103   8.885   6.774 -0.0866 -0.4430  0.2479
   46MOL0     C 6264   5.980   8.831   6.747  0.3751 -0.4381 -0.7401
   46MOL0     C 6265   5.563   8.682   6.723  0.0423 -0.1282  0.1456
   46MOL0     C 6266   5.584   8.546   6.700 -0.6030  0.1109  0.0496
   46MOL0     C 6267   5.479   8.470   6.659 -0.3390  0.4945 -0.3938
   46MOL0     C 6268   5.351   8.517   6.651 -0.0705  0.0820 -0.1247
   46MOL0     O 6269   5.263   8.424   6.610  0.4322 -0.1065  0.7039
   46MOL0     C 6270   5.127   8.446   6.599  0.2406  0.8180  0.0914
   46MOL0     C 6271   5.071   8.301   6.607 -0.4190 -0.3437 -0.4564
   46MOL0     C 6272   4.914   8.296   6.611 -0.4985 -0.7968  0.2887
   46MOL0     C 6273   4.868   8.153   6.641  0.3767  0.8836  0.3389
   46MOL0     C 6274   4.729   8.141   6.662  0.7251  0.1010  0.5500
   46MOL0     C 6275   4.610   8.160   6.667  0.2559 -0.6522  0.3033
   46MOL0     C 6276   5.321   8.647   6.677  0.1426  0.0859 -0.4602
   46MOL0     C 6277   5.429   8.728   6.720 -0.0044 -0.3135  1.0325
   46MOL0     C 6278   5.397   8.870   6.766 -0.4308  0.8471  0.3933
   46MOL0     H 6279   5.920   8.630   7.005  0.6862 -0.8281 -1.4624
   46MOL0     H 6280   6.159   8.705   7.053 -2.0193 -0.1358  0.8294
   46MOL0     H 6281   6.291   8.868   7.100 -1.2606 -0.4757 -1.2285
   46MOL0     H 6282   6.421   8.961   7.021 -2.9279  2.0541 -2.6585
   46MOL0     H 6283   6.385   8.651   7.030  0.7843 -0.1671  2.2834
   46MOL0     H 6284   6.501   8.730   6.925  1.8073 -2.3113  0.9865
   46MOL0     H 6285   6.500   8.811   7.209  1.2073 -0.3128  0.6708
   46MOL0     H 6286   6.589   8.669   7.168  1.6631  1.2724  1.8308
   46MOL0     H 6287   6.728   8.794   7.007  0.7712  2.3003  0.3244
   46MOL0     H 6288   6.634   8.946   7.040 -2.1763 -0.5906  0.2283
   46MOL0     H 6289   6.715   8.937   7.280  0.1548  1.1274 -0.1165
   46MOL0     H 6290   6.832   8.967   7.151 -2.2145  1.2912 -1.5254
   46MOL0     H 6291   6.784   8.720   7.319 -0.7319  4.7144  3.1576
   46MOL0     H 6292   6.877   8.709   7.176  2.0521 -1.6209  1.2212
   46MOL0     H 6293   6.935   8.907   7.382  0.3895  0.2831  0.1210
   46MOL0     H 6294   7.042   8.851   7.248  1.0192 -2.8355  0.2834
   46MOL0     H 6295   6.962   8.688   7.497  0.6823  0.5883  0.5506
   46MOL0     H 6296   7.026   8.624   7.338  0.9300  0.6290 -1.0909
   46MOL0     H 6297   7.228   8.547   7.524  0.9634  0.4748  1.4522
   46MOL0     H 6298   7.475   8.551   7.572 -0.2773  1.6852  3.2217
   46MOL0     H 6299   7.548   8.713   7.590 -3.5924  0.3193  2.0015
   46MOL0     H 6300   7.497   8.585   7.326 -4.5167  2.2175  2.8820
   46MOL0     H 6301   7.598   8.733   7.345  0.3715 -0.5686 -1.7919
   46MOL0     H 6302   7.676   8.445   7.377 -1.6097  0.4087 -2.7387
   46MOL0     H 6303   7.764   8.574   7.299  0.0524 -2.0003 -1.4777
   46MOL0     H 6304   7.808   8.684   7.526 -2.2567 -0.4612  2.2066
   46MOL0     H 6305   7.737   8.537   7.595  1.6968 -0.2912  0.7662
   46MOL0     H 6306   7.911   8.581   7.742  1.0814 -1.4390  0.2913
   46MOL0     H 6307   8.132   8.620   7.995 -0.0259 -1.9694 -1.0153
   46MOL0     H 6308   7.975   8.649   7.933 -0.6851 -2.6287 -2.5786
   46MOL0     H 6309   8.100   8.782   7.919  1.2771 -0.2547  1.1839
   46MOL0     H 6310   8.697   8.532   7.860 -1.3508 -0.4305  0.1839
   46MOL0     H 6311   8.887   8.650   7.942 -0.7942 -3.3108 -1.5944
   46MOL0     H 6312   8.956   9.092   7.838  0.2801 -1.4438 -0.6307
   46MOL0     H 6313   8.836   9.093   7.970 -0.9624 -1.0479 -2.6129
   46MOL0     H 6314   9.008   9.211   8.055  2.1873  0.7864  2.1963
   46MOL0     H 6315   9.003   9.048   8.138 -2.4482  0.3920 -0.8206
   46MOL0     H 6316   9.193   8.977   8.022 -1.0274 -0.1101  3.0288
   46MOL0     H 6317   9.214   9.117   8.127 -0.7277  3.7678  0.0497
   46MOL0     H 6318   9.203   9.268   7.912  0.1156  1.1785 -0.4577
   46MOL0     H 6319   9.203   9.124   7.815  3.1981 -0.1873 -0.6029
   46MOL0     H 6320   9.411   9.217   8.015  1.1017 -0.6075  0.1563
   46MOL0     H 6321   9.425   9.059   7.933 -0.1583 -0.4740 -0.4857
   46MOL0     H 6322   9.427   9.313   7.788 -0.7158 -0.8723 -4.0204
   46MOL0     H 6323   9.451   9.156   7.714 -1.7818 -0.9553  0.5255
   46MOL0     H 6324   9.636   9.096   7.898 -0.6082  0.6952 -0.3395
   46MOL0     H 6325   9.653   9.272   7.891  0.5523  2.0336 -2.8133
   46MOL0     H 6326   9.664   9.240   7.633 -2.7066 -1.0025  0.7558
   46MOL0     H 6327   9.699   9.069   7.661 -4.3048  0.5171 -0.6150
   46MOL0     H 6328   8.737   9.012   7.754  0.3326 -0.5708 -0.5317
   46MOL0     H 6329   8.558   8.889   7.665  0.7086 -2.7788 -2.0502
   46MOL0     H 6330   8.371   8.513   7.564  1.3347  2.8320  1.6840
   46MOL0     H 6331   8.148   8.462   7.421  1.3325  0.0915  0.6986
   46MOL0     H 6332   6.153   8.948   6.702 -1.8404 -2.3703 -2.9060
   46MOL0     H 6333   5.934   8.878   6.661 -2.6454  2.3921  2.0979
   46MOL0     H 6334   5.679   8.495   6.705  0.3251  1.7905  0.2312
   46MOL0     H 6335   5.492   8.366   6.633 -1.7351  0.3325 -0.5395
   46MOL0     H 6336   5.095   8.504   6.685  2.5853  1.1132  0.8240
   46MOL0     H 6337   5.093   8.493   6.506  2.4920  3.6894  0.5811
   46MOL0     H 6338   5.117   8.252   6.693  1.1202 -1.4635 -1.8583
   46MOL0     H 6339   5.110   8.245   6.521 -2.8659 -1.6848 -0.8032
   46MOL0     H 6340   4.882   8.362   6.692 -1.2007  0.6947 -1.1359
   46MOL0     H 6341   4.862   8.325   6.519 -2.6322 -2.3356  0.9459
   46MOL0     H 6342   4.911   8.129   6.739 -0.6261  2.0341  1.1052
   46MOL0     H 6343   4.898   8.083   6.563 -0.6689 -2.9336  3.0647
   46MOL0     H 6344   4.504   8.176   6.668  0.4365  0.8621  2.4951
   46MOL0     H 6345   5.225   8.697   6.671 -1.0926 -2.1197 -0.1080
   46MOL0     H 6346   5.471   8.941   6.727  1.6489 -1.6412 -0.4827
   46MOL0     H 6347   5.301   8.901   6.724 -0.0586  1.0215 -0.3445
   46MOL0     H 6348   5.393   8.888   6.874 -0.2889  1.3726  0.3134
   47MOL0     O 6349  10.690   8.367   6.211 -0.2169 -0.9004  0.3349
   47MOL0     C 6350  10.637   8.372   6.100  0.1088 -0.4792  0.7584
   47MOL0     O 6351  10.699   8.330   5.978 -0.2928 -0.0669  0.1595
   47MOL0     C 6352  10.821   8.276   5.965 -0.0440 -0.2073 -0.4714
   47MOL0     C 6353  10.922   8.276   6.061 -0.1402  0.7283  0.1074
   47MOL0     C 6354  11.042   8.226   6.031 -0.3105 -0.0233 -0.0983
   47MOL0     C 6355  11.075   8.180   5.904 -0.0447  0.5255 -0.2157
   47MOL0     O 6356  11.204   8.131   5.866  0.1418 -0.2061 -0.6843
   47MOL0     C 6357  11.231   8.084   5.734 -0.2886  0.3759  0.1552
   47MOL0     C 6358  11.389   8.081   5.725  0.3540 -0.3091 -0.2278
   47MOL0     C 6359  11.469   7.958   5.774  0.6561 -0.6419 -0.4204
   47MOL0     C 6360  11.602   8.003   5.834  0.6409 -0.2891 -0.4965
   47MOL0     C 6361  11.672   7.906   5.918 -0.8713  0.1516  0.2132
   47MOL0     C 6362  11.712   7.785   5.831 -0.0741 -0.3948 -0.3682
   47MOL0     C 6363  11.767   7.682   5.936  0.3341  0.2794  0.5469
   47MOL0     C 6364  11.824   7.557   5.876  0.0171  0.4763  0.4901
   47MOL0     N 6365  11.956   7.566   5.815 -1.1615 -0.1457  0.1879
   47MOL0     C 6366  12.074   7.582   5.886 -0.2857  1.0275  0.8988
   47MOL0     C 6367  12.171   7.578   5.797 -0.2031 -0.3654  0.1184
   47MOL0     C 6368  12.310   7.599   5.818 -0.1749  0.5591  0.2347
   47MOL0     C 6369  12.355   7.737   5.777 -0.5456 -0.2187 -0.1531
   47MOL0     C 6370  12.284   7.857   5.838  0.0156  0.3551  0.6169
   47MOL0     C 6371  12.305   7.856   5.994  0.2010  0.0031 -0.0763
   47MOL0     O 6372  12.442   7.845   6.030  0.2471  0.1942  0.9317
   47MOL0     C 6373  12.478   7.858   6.159  0.4619 -0.5585 -0.5135
   47MOL0     C 6374  12.391   7.869   6.267  0.0593  0.0306  0.4211
   47MOL0     C 6375  12.444   7.877   6.401 -0.0091  0.0657  0.1034
   47MOL0     C 6376  12.336   7.905   6.498 -1.0016 -0.3592 -0.0681
   47MOL0     C 6377  12.579   7.875   6.436 -0.9729  0.0152  1.6182
   47MOL0     C 6378  12.643   7.883   6.571 -0.0274  0.5571  0.2258
   47MOL0     O 6379  12.560   7.881   6.677 -0.2549 -0.1570 -0.0570
   47MOL0     C 6380  12.605   7.899   6.811 -0.0777 -0.4026  0.0024
   47MOL0     C 6381  12.523   7.848   6.910  0.1672  0.0477 -0.2653
   47MOL0     C 6382  12.565   7.843   7.034 -0.7737 -0.6050 -0.8737
   47MOL0     C 6383  12.686   7.901   7.081 -0.2818 -0.0744 -0.2374
   47MOL0     O 6384  12.739   7.878   7.208  0.1078 -0.6433 -0.3012
   47MOL0     C 6385  12.852   7.947   7.263  0.1771 -0.4852  0.2171
   47MOL0     C 6386  12.982   7.878   7.245  1.1615 -0.8257  0.8121
   47MOL0     C 6387  13.095   7.965   7.288 -0.3079  0.5560 -0.5823
   47MOL0     C 6388  13.227   7.894   7.273  1.0805 -0.4861  0.0984
   47MOL0     C 6389  13.345   7.977   7.306 -0.3672 -1.3121 -0.1582
   47MOL0     C 6390  13.478   7.899   7.319  0.5787 -0.4606 -0.5153
   47MOL0     C 6391  13.598   7.994   7.353  0.0750  0.9777 -0.0197
   47MOL0     C 6392  13.736   7.916   7.370  0.7556 -0.0167 -0.0936
   47MOL0    Cl 6393  13.761   7.823   7.218 -0.0501  0.3075  0.2335
   47MOL0     C 6394  12.762   7.968   6.984 -1.3856  0.1555  0.0656
   47MOL0     C 6395  12.726   7.963   6.849  0.2818 -0.0862 -0.0288
   47MOL0     O 6396  12.761   7.851   6.577  0.6793  0.7483  0.6734
   47MOL0     C 6397  12.664   7.861   6.319  0.1451  0.8001 -0.3396
   47MOL0     C 6398  12.611   7.855   6.188  0.7587 -0.1585  0.4400
   47MOL0     N 6399  12.108   7.554   5.673  1.2969  0.5987 -0.4314
   47MOL0     N 6400  11.986   7.541   5.688  0.4574 -0.2942 -0.1168
   47MOL0     C 6401  10.968   8.162   5.818 -0.8926 -0.0736  0.4329
   47MOL0     C 6402  10.842   8.210   5.842  0.3538  0.0819 -0.6315
   47MOL0     C 6403  10.501   8.428   6.095 -0.1136 -0.3007  0.1051
   47MOL0     C 6404  10.429   8.384   5.984 -0.0693  0.9675 -0.1157
   47MOL0     C 6405  10.295   8.406   5.964 -0.0721  0.3270 -0.1123
   47MOL0     C 6406  10.232   8.482   6.063 -0.0980 -0.2459  1.0910
   47MOL0     O 6407  10.096   8.502   6.036 -0.2445 -0.3339  0.1951
   47MOL0     C 6408  10.035   8.611   6.103  0.5390  0.1902 -0.4251
   47MOL0     C 6409   9.912   8.652   6.026  1.5473  0.8261  0.2242
   47MOL0     C 6410   9.945   8.733   5.897  0.4239 -0.8326  0.6647
   47MOL0     C 6411  10.006   8.645   5.788  1.2233  0.3277  0.1023
   47MOL0     C 6412  10.045   8.736   5.685 -0.3022 -0.1503 -0.5717
   47MOL0     C 6413  10.099   8.820   5.618  0.3686  0.0330  0.1014
   47MOL0     C 6414  10.301   8.551   6.161 -0.4447 -0.4750  0.1000
   47MOL0     C 6415  10.438   8.517   6.186 -0.9332  0.1254 -1.8605
   47MOL0     C 6416  10.510   8.586   6.303  1.3773 -0.0553  0.1835
   47MOL0     H 6417  10.917   8.342   6.147  1.4109  1.2554 -0.1685
   47MOL0     H 6418  11.118   8.219   6.108 -0.9768 -0.0346  0.5602
   47MOL0     H 6419  11.196   8.146   5.650  1.3527  3.2156  1.4253
   47MOL0     H 6420  11.195   7.982   5.724  0.8406  0.1206 -2.3829
   47MOL0     H 6421  11.410   8.070   5.618 -1.1525 -0.0710 -0.5624
   47MOL0     H 6422  11.425   8.175   5.768 -1.7549  0.9997 -1.1752
   47MOL0     H 6423  11.405   7.915   5.852  1.6507  0.5513  1.1227
   47MOL0     H 6424  11.489   7.897   5.686 -1.9914 -0.1810 -1.4395
   47MOL0     H 6425  11.667   8.034   5.751 -0.4967 -0.8498 -1.6371
   47MOL0     H 6426  11.596   8.092   5.896 -2.4447  0.5465 -1.7933
   47MOL0     H 6427  11.601   7.874   5.995  0.8172  0.7661  2.1126
   47MOL0     H 6428  11.760   7.949   5.966  0.5555 -1.0124 -1.2482
   47MOL0     H 6429  11.636   7.748   5.761 -0.6182 -1.1465  0.6033
   47MOL0     H 6430  11.795   7.819   5.768 -1.4121 -0.0333 -2.0103
   47MOL0     H 6431  11.689   7.653   6.006  2.1200 -4.6464  0.9437
   47MOL0     H 6432  11.841   7.726   6.004  0.7436 -1.4634  1.2840
   47MOL0     H 6433  11.837   7.473   5.945 -4.0454 -1.0000 -0.2725
   47MOL0     H 6434  11.755   7.527   5.797 -0.2828 -0.4739  1.1002
   47MOL0     H 6435  12.085   7.591   5.994  1.0390  3.0044  0.6585
   47MOL0     H 6436  12.363   7.521   5.762 -2.0300 -1.0777  0.6100
   47MOL0     H 6437  12.351   7.585   5.919  1.5892  0.0770 -0.5210
   47MOL0     H 6438  12.455   7.747   5.821 -1.8163  0.4353  2.8911
   47MOL0     H 6439  12.353   7.748   5.669 -1.5682  0.0901 -0.1109
   47MOL0     H 6440  12.339   7.944   5.803 -0.1446 -0.1862 -1.0412
   47MOL0     H 6441  12.182   7.859   5.797  1.1867 -0.5365 -2.6387
   47MOL0     H 6442  12.259   7.950   6.026 -0.3000  0.4546 -1.9712
   47MOL0     H 6443  12.246   7.770   6.028  0.6688 -0.3248 -0.0918
   47MOL0     H 6444  12.284   7.879   6.251  0.1228 -2.1951 -2.0414
   47MOL0     H 6445  12.341   7.838   6.584  0.9488 -0.0922  0.0683
   47MOL0     H 6446  12.236   7.899   6.455 -0.0579  1.2819 -2.7350
   47MOL0     H 6447  12.350   8.004   6.541  1.5527 -0.6198 -0.1545
   47MOL0     H 6448  12.429   7.803   6.880  0.8191 -3.2356  2.0457
   47MOL0     H 6449  12.503   7.785   7.103 -0.7204 -0.4290 -0.6760
   47MOL0     H 6450  12.849   8.056   7.261  2.3181 -0.1906  4.2459
   47MOL0     H 6451  12.846   7.935   7.371  0.4450  0.1977  0.3106
   47MOL0     H 6452  12.985   7.783   7.299 -2.0798 -0.5221  1.6943
   47MOL0     H 6453  13.001   7.858   7.139 -0.8415  1.2589 -0.0169
   47MOL0     H 6454  13.084   7.987   7.395  2.2037  3.0653 -0.6979
   47MOL0     H 6455  13.088   8.061   7.236 -0.7742  1.6368  1.3647
   47MOL0     H 6456  13.228   7.868   7.167  3.0336  2.3981 -0.7003
   47MOL0     H 6457  13.228   7.804   7.335  2.7421  1.1268  2.5542
   47MOL0     H 6458  13.353   8.058   7.233  0.9619 -0.0396  1.3065
   47MOL0     H 6459  13.317   8.019   7.403  0.7869  2.7975 -1.4279
   47MOL0     H 6460  13.506   7.850   7.225  0.8318  0.7518 -1.0983
   47MOL0     H 6461  13.462   7.815   7.387 -2.4008  1.0089  0.7928
   47MOL0     H 6462  13.567   8.039   7.448 -2.6813 -0.7052 -0.0131
   47MOL0     H 6463  13.601   8.066   7.271 -1.5212 -1.1445 -2.0980
   47MOL0     H 6464  13.741   7.843   7.451  0.0765  0.1183  0.0755
   47MOL0     H 6465  13.811   7.995   7.385 -1.3989  2.3967 -1.3855
   47MOL0     H 6466  12.860   8.005   7.013 -0.9310  0.2791 -1.5402
   47MOL0     H 6467  12.793   8.010   6.778 -0.4023 -0.2083 -0.7790
   47MOL0     H 6468  12.771   7.856   6.333 -0.0245 -2.3109  0.5367
   47MOL0     H 6469  12.682   7.846   6.106  1.0035 -2.3276  0.8362
   47MOL0     H 6470  10.992   8.121   5.720 -0.7116 -2.0828  1.2627
   47MOL0     H 6471  10.761   8.194   5.771  0.4584 -2.6751 -0.2297
   47MOL0     H 6472  10.468   8.322   5.904 -4.1936 -0.2754 -1.3968
   47MOL0     H 6473  10.248   8.368   5.874  2.1065 -0.2857 -1.0646
   47MOL0     H 6474  10.020   8.577   6.206  2.9748  1.2651  0.3589
   47MOL0     H 6475  10.100   8.699   6.099  0.0143  0.5419 -2.3549
   47MOL0     H 6476   9.848   8.706   6.097  1.0599 -1.4390  1.6052
   47MOL0     H 6477   9.849   8.565   6.003  1.9256  0.0789  1.8850
   47MOL0     H 6478   9.856   8.779   5.852  2.2156  3.2535  0.8048
   47MOL0     H 6479  10.013   8.818   5.912 -0.7063  0.6832 -1.9728
   47MOL0     H 6480   9.928   8.577   5.750 -0.9598  1.4679  2.3110
   47MOL0     H 6481  10.088   8.576   5.809 -0.0389 -1.0527  0.6977
   47MOL0     H 6482  10.131   8.902   5.558  1.1277  1.9288  2.9212
   47MOL0     H 6483  10.255   8.619   6.232 -0.3142  0.0970 -0.3532
   47MOL0     H 6484  10.504   8.524   6.394 -1.6971  1.8446  1.4015
   47MOL0     H 6485  10.611   8.612   6.271  0.5694  2.0301 -0.7951
   47MOL0     H 6486  10.448   8.671   6.329  1.9140  0.3056  0.3033
   48MOL0     O 6487   7.970  10.560   2.713  0.8447 -1.0925  0.1515
   48MOL0     C 6488   7.892  10.462   2.729  0.0492 -0.0181  0.1169
   48MOL0     O 6489   7.932  10.345   2.772 -0.6606  0.2240  0.0608
   48MOL0     C 6490   8.056  10.318   2.826  0.6071 -0.7625 -0.4560
   48MOL0     C 6491   8.183  10.353   2.764  0.6280 -0.2444 -0.2504
   48MOL0     C 6492   8.304  10.313   2.818 -0.4986 -0.1350 -0.5291
   48MOL0     C 6493   8.299  10.238   2.934 -0.8041  0.1978  0.6367
   48MOL0     O 6494   8.413  10.205   3.007  1.1371 -0.9492  0.8885
   48MOL0     C 6495   8.475  10.089   2.951 -0.0596  0.9524 -0.1247
   48MOL0     C 6496   8.626  10.080   3.001  0.2693 -1.0835 -0.4788
   48MOL0     C 6497   8.711  10.215   2.997  0.4069 -0.9014 -0.5376
   48MOL0     C 6498   8.696  10.298   2.858  0.6483  0.0644  0.6158
   48MOL0     C 6499   8.809  10.394   2.847  0.0493  0.8483 -0.3308
   48MOL0     C 6500   8.825  10.432   2.703 -0.5853 -0.5864  0.6729
   48MOL0     C 6501   8.938  10.536   2.690  0.1857 -0.3862  0.3034
   48MOL0     C 6502   8.964  10.550   2.540  0.1540  0.7126 -0.1530
   48MOL0     N 6503   8.850  10.585   2.457 -0.0991  1.6173  0.0747
   48MOL0     C 6504   8.809  10.502   2.351 -0.1745 -1.5054  0.1282
   48MOL0     C 6505   8.688  10.547   2.316  1.0182 -0.5328  0.0377
   48MOL0     C 6506   8.602  10.467   2.221  0.6341  0.1569  0.1389
   48MOL0     C 6507   8.458  10.512   2.202  0.6363  0.6691 -0.0230
   48MOL0     C 6508   8.363  10.476   2.323 -0.0745  0.4842 -0.1469
   48MOL0     C 6509   8.214  10.524   2.291 -0.1126 -0.6373 -0.1885
   48MOL0     O 6510   8.134  10.426   2.228 -0.1515  0.0355 -0.1257
   48MOL0     C 6511   8.035  10.484   2.153 -0.4337  0.0569  0.4891
   48MOL0     C 6512   7.911  10.443   2.181 -0.1312  0.1076 -0.2129
   48MOL0     C 6513   7.804  10.475   2.103 -0.3779 -0.7606  0.2931
   48MOL0     C 6514   7.674  10.404   2.152 -0.2755 -0.5138 -0.5575
   48MOL0     C 6515   7.815  10.568   1.996 -0.6819 -1.2854  0.1920
   48MOL0     C 6516   7.703  10.636   1.932  0.1789 -0.0578  0.5352
   48MOL0     O 6517   7.720  10.685   1.806  0.0804  0.1460  0.1013
   48MOL0     C 6518   7.597  10.714   1.743 -0.4862  0.7407 -0.0801
   48MOL0     C 6519   7.555  10.657   1.618 -0.3220 -0.4629  0.3194
   48MOL0     C 6520   7.434  10.697   1.562  0.1536  0.4512  0.0837
   48MOL0     C 6521   7.357  10.796   1.619 -0.1883 -0.0606 -0.5188
   48MOL0     O 6522   7.241  10.828   1.557 -0.5183  0.5861  0.9616
   48MOL0     C 6523   7.148  10.930   1.598 -0.5427  0.2015 -0.5519
   48MOL0     C 6524   7.012  10.876   1.564  0.3853  0.6001 -0.0036
   48MOL0     C 6525   6.906  10.985   1.548 -0.3726 -0.7703  0.2026
   48MOL0     C 6526   6.876  11.053   1.684 -0.1622  0.3425  0.4822
   48MOL0     C 6527   6.772  11.165   1.681 -0.1858  0.5099 -0.3833
   48MOL0     C 6528   6.710  11.184   1.824  0.6555  1.4253  0.2012
   48MOL0     C 6529   6.591  11.275   1.842 -0.3949  0.0472  0.2535
   48MOL0     C 6530   6.519  11.285   1.986 -0.3969  1.0864 -0.1072
   48MOL0    Cl 6531   6.393  11.411   1.977  0.1306 -0.3593  0.2576
   48MOL0     C 6532   7.398  10.859   1.738 -0.4680 -0.4149  0.7100
   48MOL0     C 6533   7.521  10.818   1.786  1.0139 -0.7703 -0.9769
   48MOL0     O 6534   7.596  10.632   1.986 -0.2469  0.6033 -0.8622
   48MOL0     C 6535   7.943  10.613   1.961 -0.0532 -0.7219  0.3889
   48MOL0     C 6536   8.048  10.566   2.041 -0.5294  0.2910  0.0327
   48MOL0     N 6537   8.656  10.654   2.402 -0.1020  0.5559  0.4591
   48MOL0     N 6538   8.757  10.678   2.481  0.6919 -0.0154 -0.1061
   48MOL0     C 6539   8.183  10.201   2.995  0.3494  0.5780  0.0703
   48MOL0     C 6540   8.059  10.245   2.949 -0.2997 -0.1920 -0.5922
   48MOL0     C 6541   7.751  10.470   2.715 -0.2997 -0.3852 -0.2621
   48MOL0     C 6542   7.656  10.392   2.791  0.0507  0.6213 -0.0095
   48MOL0     C 6543   7.516  10.392   2.768  0.0823 -0.0549  0.3019
   48MOL0     C 6544   7.458  10.470   2.665  0.7185  0.0453 -0.6714
   48MOL0     O 6545   7.325  10.479   2.642 -0.0958  0.3842 -0.4083
   48MOL0     C 6546   7.228  10.493   2.757 -0.3535  0.9647 -0.2201
   48MOL0     C 6547   7.160  10.361   2.787 -0.5195  0.2843 -0.0470
   48MOL0     C 6548   7.079  10.301   2.674 -0.8167  0.1464 -0.1384
   48MOL0     C 6549   7.019  10.165   2.711 -1.0881  0.0600  0.7438
   48MOL0     C 6550   7.123  10.053   2.705  0.0986 -0.4521  0.1243
   48MOL0     C 6551   7.207   9.969   2.702 -0.1995 -0.2336 -0.5823
   48MOL0     C 6552   7.546  10.541   2.590 -0.6476 -0.4294  0.5818
   48MOL0     C 6553   7.682  10.558   2.620 -0.5190  0.8781 -0.3720
   48MOL0     C 6554   7.766  10.642   2.526 -0.5615 -0.2768  0.0683
   48MOL0     H 6555   8.171  10.410   2.673 -0.0382  0.5319  0.3158
   48MOL0     H 6556   8.396  10.348   2.774 -1.4131  0.0663 -2.3760
   48MOL0     H 6557   8.465  10.086   2.842 -0.6288  3.0196 -0.1726
   48MOL0     H 6558   8.431   9.999   2.994  3.1317 -0.2976  0.8447
   48MOL0     H 6559   8.618  10.042   3.104  1.0818 -1.9033 -0.7063
   48MOL0     H 6560   8.681  10.003   2.946  1.6800 -1.3755  1.2524
   48MOL0     H 6561   8.691  10.280   3.083  1.7585 -0.9377 -0.1695
   48MOL0     H 6562   8.815  10.187   3.017  0.9542 -0.3124 -2.4189
   48MOL0     H 6563   8.701  10.222   2.780 -1.7741  0.8017 -0.3706
   48MOL0     H 6564   8.602  10.354   2.847  0.3944 -0.6344 -1.0922
   48MOL0     H 6565   8.896  10.338   2.883 -1.4095  0.2738  2.6900
   48MOL0     H 6566   8.792  10.479   2.914  2.7882 -0.2747  2.0401
   48MOL0     H 6567   8.838  10.341   2.645 -2.8787  0.4761 -1.7219
   48MOL0     H 6568   8.725  10.464   2.673  0.3155  1.3721 -0.4666
   48MOL0     H 6569   9.029  10.511   2.745  0.9518  2.7363  0.6222
   48MOL0     H 6570   8.906  10.632   2.729  0.7826  0.2155 -0.6487
   48MOL0     H 6571   9.046  10.622   2.528  1.9161 -0.9025  1.5944
   48MOL0     H 6572   8.999  10.451   2.512  0.1074 -0.4970  3.4910
   48MOL0     H 6573   8.861  10.418   2.306  0.1505  0.1000 -2.7271
   48MOL0     H 6574   8.604  10.363   2.254  1.9975 -0.3603 -1.4397
   48MOL0     H 6575   8.656  10.456   2.127  1.2506 -0.0879  0.5124
   48MOL0     H 6576   8.452  10.619   2.181  0.1893  0.4404 -1.1280
   48MOL0     H 6577   8.414  10.459   2.117  0.7196 -0.1908  0.4566
   48MOL0     H 6578   8.371  10.370   2.349  0.6491  0.8139  1.0496
   48MOL0     H 6579   8.405  10.522   2.413 -0.8970 -0.8219  0.9452
   48MOL0     H 6580   8.171  10.539   2.390  0.2297  2.0436 -0.3694
   48MOL0     H 6581   8.194  10.621   2.243 -0.9554 -1.2279 -1.0763
   48MOL0     H 6582   7.902  10.382   2.270  1.1857  2.5650  1.7421
   48MOL0     H 6583   7.582  10.429   2.099 -0.4105 -2.3884 -1.2696
   48MOL0     H 6584   7.669  10.411   2.261  0.8330 -0.5903 -0.4841
   48MOL0     H 6585   7.682  10.297   2.133  1.3906 -0.0375 -3.1789
   48MOL0     H 6586   7.617  10.582   1.569 -0.5842 -0.8266  0.5394
   48MOL0     H 6587   7.400  10.655   1.468 -2.0256 -1.7409  1.7105
   48MOL0     H 6588   7.154  10.950   1.706  0.5727  2.5771 -1.0058
   48MOL0     H 6589   7.162  11.020   1.538  0.7466  1.1869  1.1200
   48MOL0     H 6590   7.027  10.827   1.467  2.3006 -0.0345  0.5657
   48MOL0     H 6591   6.980  10.799   1.635  2.4300 -1.9388 -1.6363
   48MOL0     H 6592   6.820  10.923   1.520 -0.9052 -0.1690  0.4763
   48MOL0     H 6593   6.938  11.056   1.471  0.6177 -0.0965  1.1949
   48MOL0     H 6594   6.964  11.103   1.726  2.3856 -2.6167 -0.9024
   48MOL0     H 6595   6.844  10.969   1.747  0.8950  0.3237  1.0077
   48MOL0     H 6596   6.818  11.259   1.647  0.5075 -1.1208 -4.5056
   48MOL0     H 6597   6.688  11.137   1.617 -0.8699 -0.4446  0.8968
   48MOL0     H 6598   6.787  11.216   1.895  1.7341 -2.8245  1.2292
   48MOL0     H 6599   6.682  11.083   1.852 -0.3889  0.9282 -2.3724
   48MOL0     H 6600   6.513  11.252   1.770 -0.5260  1.3282 -0.0438
   48MOL0     H 6601   6.619  11.379   1.823 -0.9827  0.2138  0.2755
   48MOL0     H 6602   6.595  11.299   2.063  1.6990  1.7271 -2.1764
   48MOL0     H 6603   6.466  11.190   2.000  1.7474  0.2424  3.7900
   48MOL0     H 6604   7.340  10.931   1.794 -4.2001 -1.2672 -1.6707
   48MOL0     H 6605   7.555  10.874   1.872  1.6013 -0.8018 -1.1786
   48MOL0     H 6606   7.963  10.684   1.882  0.1177 -0.2171  0.8792
   48MOL0     H 6607   8.147  10.590   2.004 -0.6770  1.1575  0.1773
   48MOL0     H 6608   8.187  10.138   3.083 -0.6374 -0.2325 -0.4475
   48MOL0     H 6609   7.969  10.231   3.007 -1.0327  0.2932 -1.5795
   48MOL0     H 6610   7.702  10.330   2.868 -2.0197  0.4547  1.1598
   48MOL0     H 6611   7.459  10.324   2.831 -1.7362  1.5401  0.4564
   48MOL0     H 6612   7.283  10.520   2.847 -1.1541 -0.2852  0.6744
   48MOL0     H 6613   7.170  10.584   2.741  0.1744  1.4669  0.6456
   48MOL0     H 6614   7.094  10.369   2.874 -0.7527 -4.6388  0.4964
   48MOL0     H 6615   7.235  10.290   2.824 -0.7491 -0.5363 -1.1036
   48MOL0     H 6616   6.992  10.363   2.649  0.2503  1.7982  0.0861
   48MOL0     H 6617   7.150  10.298   2.590 -0.0225  1.4063  0.4611
   48MOL0     H 6618   6.938  10.147   2.640 -2.5721 -0.5606  2.4969
   48MOL0     H 6619   6.970  10.169   2.809 -3.3245  1.6000 -0.3523
   48MOL0     H 6620   7.293   9.906   2.699 -1.7197 -2.5921  1.6797
   48MOL0     H 6621   7.506  10.601   2.509  3.7784  4.0235  1.1700
   48MOL0     H 6622   7.822  10.574   2.460 -1.3270 -0.2830 -0.5907
   48MOL0     H 6623   7.690  10.698   2.471  0.5835  0.2070 -1.0828
   48MOL0     H 6624   7.837  10.711   2.573  1.5201 -3.5931  2.2716
   49MOL0     O 6625   8.711   3.049   8.324  0.8128 -0.2861 -0.2628
   49MOL0     C 6626   8.661   3.150   8.370  0.7291  0.5370  0.6156
   49MOL0     O 6627   8.723   3.227   8.462  0.1767  0.4972  0.6460
   49MOL0     C 6628   8.827   3.174   8.540 -0.7570  0.0818 -1.0529
   49MOL0     C 6629   8.926   3.261   8.587 -0.2592  1.1215  0.1532
   49MOL0     C 6630   9.034   3.218   8.674  0.4524 -0.1057 -0.0187
   49MOL0     C 6631   9.039   3.084   8.710 -0.2637  0.8155  0.5787
   49MOL0     O 6632   9.139   3.048   8.796  0.1156  0.4872  0.3551
   49MOL0     C 6633   9.177   2.907   8.807 -0.2565 -0.5733  0.3566
   49MOL0     C 6634   9.241   2.849   8.682 -0.1054  0.4453 -0.2524
   49MOL0     C 6635   9.365   2.918   8.625 -0.0673 -0.1561  0.2148
   49MOL0     C 6636   9.489   2.916   8.729  0.0580  0.5786 -0.4598
   49MOL0     C 6637   9.613   2.985   8.671  0.0879 -0.0544 -0.1537
   49MOL0     C 6638   9.723   2.981   8.787  0.3624  0.2377  0.7727
   49MOL0     C 6639   9.851   3.049   8.747  0.1385 -0.9990  0.5267
   49MOL0     C 6640   9.918   3.096   8.870  0.5325 -0.4167 -0.3987
   49MOL0     N 6641  10.043   3.163   8.865  0.1176 -0.6360 -0.2464
   49MOL0     C 6642  10.164   3.096   8.827 -0.1863 -0.1067 -1.0062
   49MOL0     C 6643  10.244   3.195   8.802  0.3542 -0.2488  0.1145
   49MOL0     C 6644  10.389   3.192   8.745  0.6193 -0.5393  0.2070
   49MOL0     C 6645  10.455   3.064   8.758 -0.7234  0.0573  0.8492
   49MOL0     C 6646  10.602   3.080   8.691  0.1727  0.1623 -0.3214
   49MOL0     C 6647  10.689   2.952   8.724  0.5075  0.1451  0.5169
   49MOL0     O 6648  10.771   2.977   8.844  0.3910  0.1134  0.6972
   49MOL0     C 6649  10.893   2.918   8.831  0.5717  0.0356  0.1203
   49MOL0     C 6650  10.913   2.788   8.781  0.5852  0.4877 -0.4327
   49MOL0     C 6651  11.041   2.734   8.751  0.0641  0.2079 -0.0944
   49MOL0     C 6652  11.043   2.598   8.680  0.4226  0.0646  0.6178
   49MOL0     C 6653  11.156   2.808   8.789 -0.3606  0.0464 -0.3975
   49MOL0     C 6654  11.289   2.752   8.774  0.6550 -0.3838 -0.0290
   49MOL0     O 6655  11.387   2.840   8.825  0.7395  0.0519 -0.5397
   49MOL0     C 6656  11.519   2.823   8.813 -1.0863  0.3110 -0.7938
   49MOL0     C 6657  11.589   2.705   8.808  0.4450  0.2725 -0.5350
   49MOL0     C 6658  11.718   2.703   8.785  0.4386 -0.2461 -0.7311
   49MOL0     C 6659  11.799   2.812   8.759  0.4220  0.0876 -0.0147
   49MOL0     O 6660  11.937   2.780   8.726 -0.0861  0.0988  1.1782
   49MOL0     C 6661  12.029   2.898   8.707  0.4508 -0.4077 -0.3419
   49MOL0     C 6662  12.088   2.932   8.842  0.3657 -0.0559  0.2226
   49MOL0     C 6663  12.129   2.807   8.917 -0.1929  0.2243 -0.6845
   49MOL0     C 6664  12.181   2.827   9.055 -0.5183  0.0362 -0.5056
   49MOL0     C 6665  12.294   2.740   9.107  0.4002 -0.2514 -0.1893
   49MOL0     C 6666  12.278   2.593   9.085 -0.4686 -0.0328  0.2709
   49MOL0     C 6667  12.166   2.522   9.175  0.1937  0.2969 -0.4229
   49MOL0     C 6668  12.146   2.372   9.139 -0.0265 -0.6942  0.2091
   49MOL0    Cl 6669  12.295   2.278   9.157 -0.1024  0.0760 -0.4419
   49MOL0     C 6670  11.733   2.938   8.756 -0.1509 -0.4190 -0.3669
   49MOL0     C 6671  11.602   2.942   8.801  0.2080  0.2559  0.0696
   49MOL0     O 6672  11.306   2.645   8.717  0.3944 -0.2345  0.3197
   49MOL0     C 6673  11.134   2.933   8.843  0.3194 -0.8898 -0.0541
   49MOL0     C 6674  11.003   2.986   8.855 -0.3765  0.1328  0.1211
   49MOL0     N 6675  10.168   3.311   8.805  0.1039  0.2215 -0.8876
   49MOL0     N 6676  10.044   3.293   8.844 -0.4450  1.3682  0.1520
   49MOL0     C 6677   8.938   2.995   8.666 -0.3497  0.2165  0.5102
   49MOL0     C 6678   8.832   3.042   8.590  0.2282 -0.2289 -0.6334
   49MOL0     C 6679   8.536   3.203   8.303 -0.5423 -0.5506  0.6208
   49MOL0     C 6680   8.491   3.333   8.354 -0.1610 -1.0348 -0.2176
   49MOL0     C 6681   8.377   3.395   8.305 -0.7278 -0.2999 -0.5457
   49MOL0     C 6682   8.317   3.345   8.189 -0.2222 -0.2240 -0.7283
   49MOL0     O 6683   8.207   3.410   8.143  0.7632  0.0302 -0.3688
   49MOL0     C 6684   8.163   3.399   8.009  0.2985  0.3934 -0.1106
   49MOL0     C 6685   8.037   3.483   8.005  0.2338  0.4509 -1.0396
   49MOL0     C 6686   8.079   3.636   8.019 -0.0151 -0.4194 -0.2069
   49MOL0     C 6687   7.948   3.714   8.048  0.5326 -0.2027  0.3404
   49MOL0     C 6688   7.964   3.857   8.046 -0.3415  0.0487 -0.3068
   49MOL0     C 6689   7.989   3.972   8.053 -0.1578 -0.5998  0.0271
   49MOL0     C 6690   8.375   3.243   8.123  0.1967 -0.0746 -0.6825
   49MOL0     C 6691   8.483   3.164   8.173 -0.1232  0.0863 -0.1975
   49MOL0     C 6692   8.541   3.056   8.080 -0.0733  0.2969 -0.6529
   49MOL0     H 6693   8.930   3.366   8.559  2.3467  0.3768 -2.8494
   49MOL0     H 6694   9.094   3.301   8.712  2.9615 -1.9055  0.1573
   49MOL0     H 6695   9.093   2.847   8.842 -1.1893 -0.1587 -1.0974
   49MOL0     H 6696   9.252   2.897   8.886  0.7114 -1.4522 -0.6372
   49MOL0     H 6697   9.275   2.747   8.705 -1.0212 -0.0847 -1.1829
   49MOL0     H 6698   9.166   2.849   8.603 -1.4863 -0.0137  1.0175
   49MOL0     H 6699   9.389   2.868   8.530  1.8539  0.1928  0.4667
   49MOL0     H 6700   9.350   3.022   8.597  2.2126  0.5204  1.2243
   49MOL0     H 6701   9.463   2.964   8.824  1.1067 -2.5493  1.5740
   49MOL0     H 6702   9.521   2.814   8.753 -1.9778 -0.0558 -0.2525
   49MOL0     H 6703   9.593   3.088   8.639 -0.5072 -0.6198 -1.7159
   49MOL0     H 6704   9.659   2.927   8.591  1.7119 -2.8290  2.5889
   49MOL0     H 6705   9.685   3.022   8.881  1.1443  0.0178  1.1960
   49MOL0     H 6706   9.747   2.875   8.795  0.0395 -0.4051 -3.9271
   49MOL0     H 6707   9.829   3.139   8.688  2.4727 -0.3080  0.5952
   49MOL0     H 6708   9.916   2.996   8.677  0.6020  2.1253 -1.6132
   49MOL0     H 6709   9.844   3.153   8.926 -0.0949 -1.6973  0.1250
   49MOL0     H 6710   9.927   3.006   8.933  0.9976 -0.4244 -0.4713
   49MOL0     H 6711  10.185   2.989   8.832  2.4578  0.3520  2.5293
   49MOL0     H 6712  10.439   3.270   8.803 -0.2375  0.4631 -0.3681
   49MOL0     H 6713  10.392   3.224   8.640  1.7035 -2.2775 -0.3321
   49MOL0     H 6714  10.455   3.034   8.863 -2.2507 -0.7488  0.6352
   49MOL0     H 6715  10.397   2.985   8.710  1.5236 -0.5949 -0.9933
   49MOL0     H 6716  10.583   3.086   8.584 -1.8496  1.2518  0.0326
   49MOL0     H 6717  10.654   3.171   8.723  0.5810 -0.3283  0.4303
   49MOL0     H 6718  10.639   2.856   8.734 -1.2795  1.0423  0.6116
   49MOL0     H 6719  10.756   2.944   8.637  0.6655  0.8198  0.5659
   49MOL0     H 6720  10.825   2.725   8.771  1.8343 -1.0781 -2.2208
   49MOL0     H 6721  10.946   2.558   8.650  1.1912  0.3017 -2.5678
   49MOL0     H 6722  11.099   2.524   8.738 -0.0061  0.7118  1.8880
   49MOL0     H 6723  11.094   2.629   8.588  0.8703 -0.6695  0.6099
   49MOL0     H 6724  11.529   2.615   8.825 -0.6482  1.2000  0.7097
   49MOL0     H 6725  11.769   2.608   8.792  0.7326 -0.0770 -0.5770
   49MOL0     H 6726  12.107   2.870   8.635 -0.0917 -0.2057 -1.0274
   49MOL0     H 6727  11.992   2.991   8.663 -1.8794  0.2002  2.6576
   49MOL0     H 6728  12.171   3.001   8.825  1.0379 -0.6131  1.1262
   49MOL0     H 6729  12.010   2.976   8.904 -1.0780  0.2291 -1.7022
   49MOL0     H 6730  12.205   2.763   8.853  0.2626 -1.0893  0.7003
   49MOL0     H 6731  12.047   2.738   8.938  0.2719 -0.0028  0.4454
   49MOL0     H 6732  12.089   2.816   9.113 -1.6314 -2.9173 -2.5882
   49MOL0     H 6733  12.224   2.927   9.070  3.1146 -1.4128 -0.2346
   49MOL0     H 6734  12.378   2.771   9.044  1.0234 -3.9937 -1.4764
   49MOL0     H 6735  12.308   2.762   9.213 -2.5945 -0.4051  0.3267
   49MOL0     H 6736  12.373   2.541   9.090 -1.4117 -2.0921 -1.4025
   49MOL0     H 6737  12.251   2.581   8.979  2.6443 -0.2244 -0.5827
   49MOL0     H 6738  12.066   2.563   9.157 -0.1131 -0.9881 -1.9224
   49MOL0     H 6739  12.193   2.523   9.280 -0.4463  0.4949 -0.2512
   49MOL0     H 6740  12.106   2.360   9.039  0.6802 -0.8502 -0.0631
   49MOL0     H 6741  12.080   2.325   9.212 -0.1817 -0.7067  0.0602
   49MOL0     H 6742  11.780   3.031   8.727 -1.0362  0.7922  1.8250
   49MOL0     H 6743  11.554   3.039   8.808 -1.4190 -0.5617  0.9665
   49MOL0     H 6744  11.216   2.994   8.880  0.9942 -1.2190 -0.9640
   49MOL0     H 6745  10.997   3.090   8.886  0.8746 -0.1235  1.3872
   49MOL0     H 6746   8.933   2.891   8.697  1.5624  0.2073  0.8656
   49MOL0     H 6747   8.735   2.995   8.578  0.4256 -0.9523  0.4813
   49MOL0     H 6748   8.544   3.381   8.436  1.0908  0.4499 -1.8267
   49MOL0     H 6749   8.309   3.462   8.356  1.9403  0.5333  2.2215
   49MOL0     H 6750   8.230   3.444   7.935  1.2668  0.7027  0.9334
   49MOL0     H 6751   8.152   3.293   7.984 -0.7739 -0.2142  2.6447
   49MOL0     H 6752   7.974   3.440   8.083  2.2012 -3.4233 -1.3247
   49MOL0     H 6753   7.972   3.474   7.918 -2.4743  3.0022  0.5171
   49MOL0     H 6754   8.152   3.651   8.099 -1.3250  1.5736  0.7015
   49MOL0     H 6755   8.111   3.678   7.923  0.9740  1.5690  0.9234
   49MOL0     H 6756   7.916   3.693   8.150 -0.9937  2.0417  0.4017
   49MOL0     H 6757   7.864   3.684   7.986 -1.5403  1.6163  2.1176
   49MOL0     H 6758   8.009   4.075   8.069 -0.2279  0.1341 -3.7875
   49MOL0     H 6759   8.348   3.225   8.019 -0.0284 -2.1070 -0.3138
   49MOL0     H 6760   8.474   3.045   7.994  0.8122 -1.2252 -1.1787
   49MOL0     H 6761   8.629   3.101   8.033 -0.5293 -0.7145 -2.6053
   49MOL0     H 6762   8.556   2.957   8.124 -1.5512  1.5635  3.0594
   50MOL0     O 6763   0.840  10.465   5.604  0.2010 -0.1522 -0.2829
   50MOL0     C 6764   0.873  10.492   5.486  0.4682 -0.7592  0.4292
   50MOL0     O 6765   0.819  10.441   5.368  0.2017 -0.1746 -0.4698
   50MOL0     C 6766   0.714  10.361   5.387 -0.4063  0.6910 -0.9004
   50MOL0     C 6767   0.589  10.415   5.410  0.4480 -0.1782  1.1317
   50MOL0     C 6768   0.476  10.324   5.429 -0.3597  0.1855 -0.4892
   50MOL0     C 6769   0.500  10.189   5.449 -0.0722  0.3035  0.5559
   50MOL0     O 6770   0.390  10.112   5.479  0.0791 -0.6775 -0.4604
   50MOL0     C 6771   0.412   9.987   5.540  0.2170 -0.5252 -0.3793
   50MOL0     C 6772   0.279   9.906   5.523  0.1442  0.6237 -1.0168
   50MOL0     C 6773   0.187   9.961   5.630  0.2994  0.4109 -0.2649
   50MOL0     C 6774   0.067   9.862   5.639 -0.1652  0.0923 -0.0590
   50MOL0     C 6775  -0.043   9.911   5.735 -0.0740  0.9900 -0.3285
   50MOL0     C 6776  -0.150   9.804   5.743 -0.2765  0.0774 -0.2682
   50MOL0     C 6777  -0.283   9.850   5.804  0.3683  0.2672  0.8311
   50MOL0     C 6778  -0.377   9.918   5.708  0.4767  0.6486  0.3039
   50MOL0     N 6779  -0.467  10.002   5.784 -0.2940 -0.1198 -0.0308
   50MOL0     C 6780  -0.441  10.132   5.834 -0.0639 -0.6597 -0.1260
   50MOL0     C 6781  -0.556  10.169   5.898 -0.8492  0.4000  0.1165
   50MOL0     C 6782  -0.583  10.299   5.968 -0.4237  0.4022 -0.4914
   50MOL0     C 6783  -0.712  10.364   5.914 -0.8198 -0.1398  0.0272
   50MOL0     C 6784  -0.693  10.387   5.767  0.0018 -0.0482 -0.3694
   50MOL0     C 6785  -0.569  10.480   5.734 -0.6605  1.3280 -0.5121
   50MOL0     O 6786  -0.450  10.395   5.708 -0.1617 -0.5160  0.1568
   50MOL0     C 6787  -0.329  10.454   5.683  0.0982  0.2177 -0.1614
   50MOL0     C 6788  -0.221  10.372   5.623 -0.5548 -0.7137  0.3069
   50MOL0     C 6789  -0.099  10.422   5.602 -0.3721  0.6159 -0.2037
   50MOL0     C 6790   0.012  10.335   5.538 -0.1377 -0.2888  0.0422
   50MOL0     C 6791  -0.066  10.552   5.648  0.6979  0.7827 -0.1365
   50MOL0     C 6792   0.063  10.611   5.631 -0.5833 -0.8359 -0.0948
   50MOL0     O 6793   0.113  10.615   5.501  0.7601 -0.8154  0.1897
   50MOL0     C 6794   0.230  10.666   5.461 -1.4807 -0.0673 -0.4831
   50MOL0     C 6795   0.341  10.716   5.540  0.0347 -0.0778  0.1691
   50MOL0     C 6796   0.457  10.764   5.481 -0.3775  0.0426 -0.3984
   50MOL0     C 6797   0.467  10.758   5.343 -0.3094  0.4406 -0.6506
   50MOL0     O 6798   0.591  10.798   5.298 -0.2165  0.2176  0.2248
   50MOL0     C 6799   0.638  10.749   5.174  0.3636 -0.1758  0.5148
   50MOL0     C 6800   0.793  10.779   5.177  0.1362 -0.0846  0.1550
   50MOL0     C 6801   0.836  10.914   5.242  0.3910  0.6035 -0.3608
   50MOL0     C 6802   0.957  10.966   5.165  0.4029  1.1924 -0.9209
   50MOL0     C 6803   1.004  11.089   5.232 -1.3898  0.0071 -0.1770
   50MOL0     C 6804   1.111  11.164   5.151  0.1085  0.5245 -0.0501
   50MOL0     C 6805   1.179  11.283   5.239 -0.4446  0.1683  0.4609
   50MOL0     C 6806   1.109  11.423   5.226  0.6746  0.3925 -0.5050
   50MOL0    Cl 6807   1.226  11.553   5.266 -0.0354  0.2454 -0.1484
   50MOL0     C 6808   0.363  10.712   5.263 -0.2989 -0.6605  0.5118
   50MOL0     C 6809   0.243  10.672   5.317 -0.1155  0.0578 -0.1141
   50MOL0     O 6810   0.115  10.668   5.729 -0.7337  0.5321 -0.4184
   50MOL0     C 6811  -0.169  10.628   5.712 -0.2632  0.6072 -0.0280
   50MOL0     C 6812  -0.297  10.577   5.730  0.5294  0.5635 -0.0210
   50MOL0     N 6813  -0.639  10.058   5.891  0.7406  0.7530  0.4076
   50MOL0     N 6814  -0.589   9.957   5.831 -0.2713 -0.1254  0.3553
   50MOL0     C 6815   0.629  10.141   5.435  1.3220  0.4285  1.4180
   50MOL0     C 6816   0.732  10.221   5.391 -0.5386  0.2948 -0.1782
   50MOL0     C 6817   0.989  10.591   5.465 -0.4207  0.3162  0.1061
   50MOL0     C 6818   1.057  10.578   5.337 -0.3105  0.2211 -0.7757
   50MOL0     C 6819   1.171  10.654   5.309 -0.0183 -0.8311  0.4525
   50MOL0     C 6820   1.212  10.752   5.396  0.2063 -0.7892  0.3302
   50MOL0     O 6821   1.322  10.829   5.351  0.5878  0.1504  0.5140
   50MOL0     C 6822   1.407  10.903   5.442 -0.7445 -0.4165  0.0173
   50MOL0     C 6823   1.484  10.808   5.535 -0.1968 -0.2240  0.3572
   50MOL0     C 6824   1.612  10.744   5.481  0.5171 -0.1081 -1.0648
   50MOL0     C 6825   1.740  10.833   5.477 -0.0643 -0.1469 -0.0122
   50MOL0     C 6826   1.793  10.883   5.613  0.5298  0.2308  0.0247
   50MOL0     C 6827   1.847  10.918   5.721  0.5598 -0.6359 -0.6694
   50MOL0     C 6828   1.145  10.771   5.523  0.1216  0.4399 -0.1837
   50MOL0     C 6829   1.037  10.690   5.560  0.2309 -0.4670 -1.0489
   50MOL0     C 6830   0.973  10.719   5.694  0.4390  0.2064  0.2313
   50MOL0     H 6831   0.577  10.521   5.388 -0.1745 -0.0487  2.0343
   50MOL0     H 6832   0.375  10.364   5.433 -0.9742 -1.3800  2.3598
   50MOL0     H 6833   0.441  10.006   5.644 -2.7975  0.3419  0.4258
   50MOL0     H 6834   0.486   9.926   5.488 -0.5289 -0.2345 -1.8433
   50MOL0     H 6835   0.244   9.923   5.421  2.6922  2.4953 -1.6871
   50MOL0     H 6836   0.292   9.798   5.536 -1.4652  0.5188  0.1057
   50MOL0     H 6837   0.221   9.973   5.733  0.8821 -0.5126 -0.3347
   50MOL0     H 6838   0.147  10.057   5.598 -0.3955  0.9036  1.9470
   50MOL0     H 6839   0.025   9.850   5.538  1.3237 -1.3892 -0.5386
   50MOL0     H 6840   0.109   9.765   5.667  0.3171  0.2357 -0.2836
   50MOL0     H 6841  -0.080  10.011   5.711 -3.1329 -0.1893 -0.8754
   50MOL0     H 6842   0.002   9.924   5.834  0.8469  0.9068 -0.7258
   50MOL0     H 6843  -0.168   9.766   5.642 -1.4210 -0.6127  0.1740
   50MOL0     H 6844  -0.114   9.721   5.804  0.4293  0.0100 -0.7596
   50MOL0     H 6845  -0.271   9.913   5.893  0.4229  0.5945  0.5955
   50MOL0     H 6846  -0.333   9.763   5.848  1.2475 -0.3488  0.6213
   50MOL0     H 6847  -0.321   9.976   5.634  1.3145  1.4782  1.5378
   50MOL0     H 6848  -0.438   9.839   5.663 -1.5693  1.1106  2.0584
   50MOL0     H 6849  -0.351  10.192   5.841  0.0750 -1.0094  1.5238
   50MOL0     H 6850  -0.497  10.366   5.963  1.0123 -1.0431  2.6240
   50MOL0     H 6851  -0.591  10.282   6.076 -1.9408  2.8648 -0.1246
   50MOL0     H 6852  -0.799  10.298   5.927 -0.9399 -0.3089 -1.4284
   50MOL0     H 6853  -0.735  10.461   5.960  1.8427  1.5619 -1.9017
   50MOL0     H 6854  -0.686  10.285   5.728  1.0465 -0.5651  1.0940
   50MOL0     H 6855  -0.781  10.440   5.728  1.4552  2.0918 -0.9043
   50MOL0     H 6856  -0.588  10.540   5.644  0.9078 -0.6205 -2.2452
   50MOL0     H 6857  -0.560  10.553   5.815 -1.1928  3.3572 -2.1625
   50MOL0     H 6858  -0.247  10.272   5.592  1.1334 -0.9851 -0.3187
   50MOL0     H 6859   0.105  10.326   5.595  0.9545 -0.7547 -1.7370
   50MOL0     H 6860   0.044  10.386   5.447 -1.7148  1.0075  0.1736
   50MOL0     H 6861  -0.013  10.233   5.510 -0.7395 -0.6179  1.6460
   50MOL0     H 6862   0.325  10.702   5.647  1.0253 -1.0640  0.2211
   50MOL0     H 6863   0.546  10.788   5.539 -0.5740 -0.6329  0.1994
   50MOL0     H 6864   0.614  10.643   5.163  0.8106 -0.2425  0.1567
   50MOL0     H 6865   0.585  10.809   5.100  0.5554  2.5669  2.4435
   50MOL0     H 6866   0.850  10.697   5.222 -1.7281 -0.5303  1.8760
   50MOL0     H 6867   0.817  10.781   5.071 -0.5587  1.0805 -0.0044
   50MOL0     H 6868   0.873  10.891   5.342  3.1249  0.8267 -1.2417
   50MOL0     H 6869   0.751  10.983   5.246 -1.5742 -1.7385  1.8583
   50MOL0     H 6870   0.935  10.983   5.059  1.2236 -2.4746 -1.8013
   50MOL0     H 6871   1.027  10.881   5.165 -2.2834 -1.1690  0.1721
   50MOL0     H 6872   0.924  11.160   5.252 -1.8481 -0.5042 -0.1633
   50MOL0     H 6873   1.047  11.070   5.331  2.0072  1.4851 -1.2270
   50MOL0     H 6874   1.072  11.209   5.059  0.3238  0.7302 -0.0423
   50MOL0     H 6875   1.188  11.088   5.135 -0.3967 -0.7836  3.0011
   50MOL0     H 6876   1.281  11.294   5.199 -1.1965 -0.6813 -1.8629
   50MOL0     H 6877   1.184  11.257   5.345 -1.1303 -1.5130  0.1100
   50MOL0     H 6878   1.017  11.416   5.285  0.0784 -0.6182 -1.5307
   50MOL0     H 6879   1.069  11.444   5.127  1.1586  3.4268 -0.1634
   50MOL0     H 6880   0.381  10.712   5.156 -1.7601  1.8019  0.1977
   50MOL0     H 6881   0.166  10.627   5.256  0.2620 -3.5894  1.8335
   50MOL0     H 6882  -0.131  10.719   5.757 -0.1285  0.0415  1.0409
   50MOL0     H 6883  -0.360  10.640   5.792 -3.6969 -0.1802 -3.1663
   50MOL0     H 6884   0.654  10.036   5.435 -1.8957 -0.5144 -1.2222
   50MOL0     H 6885   0.833  10.187   5.371 -0.6146 -1.0109  1.4443
   50MOL0     H 6886   1.034  10.503   5.263 -0.2489 -1.6019  0.9485
   50MOL0     H 6887   1.226  10.655   5.216  0.1356  1.0320  0.5154
   50MOL0     H 6888   1.471  10.967   5.381  0.2006 -2.1459 -0.8999
   50MOL0     H 6889   1.346  10.964   5.509 -1.2308 -3.0685  2.1657
   50MOL0     H 6890   1.419  10.735   5.585 -2.8609  1.7177 -0.0875
   50MOL0     H 6891   1.526  10.871   5.613 -0.9744 -1.0387  1.4709
   50MOL0     H 6892   1.633  10.649   5.532 -0.1426  1.0980  1.5872
   50MOL0     H 6893   1.574  10.710   5.384 -2.1890  0.8244 -0.4198
   50MOL0     H 6894   1.731  10.919   5.409  2.2497 -0.8784 -1.3569
   50MOL0     H 6895   1.817  10.765   5.439 -1.3487 -0.1013 -3.0051
   50MOL0     H 6896   1.896  10.958   5.807 -4.4291  0.8617  1.8634
   50MOL0     H 6897   1.184  10.835   5.602  0.2558  1.3261 -0.9571
   50MOL0     H 6898   0.868  10.687   5.701  0.9995 -1.6595  0.6782
   50MOL0     H 6899   1.023  10.668   5.776  1.7851  0.7374 -0.2394
   50MOL0     H 6900   0.976  10.828   5.705 -0.8142  0.4147 -1.0637
   51MOL0     O 6901   4.781   0.428   2.211  0.4478  0.1023 -0.2441
   51MOL0     C 6902   4.728   0.319   2.194  0.4689  0.0594 -0.2074
   51MOL0     O 6903   4.786   0.197   2.211 -0.4349  0.3865  0.0236
   51MOL0     C 6904   4.919   0.187   2.225 -0.8163 -0.0976 -0.5622
   51MOL0     C 6905   5.001   0.137   2.117  1.1086  0.3936 -0.7546
   51MOL0     C 6906   5.139   0.118   2.136  0.2201  0.2596 -0.3202
   51MOL0     C 6907   5.198   0.161   2.257 -0.1850 -0.6968  0.1476
   51MOL0     O 6908   5.332   0.161   2.277 -0.8743 -0.2170 -0.7153
   51MOL0     C 6909   5.415   0.072   2.202 -0.2039  0.2523  0.1643
   51MOL0     C 6910   5.559   0.046   2.262  0.9231 -0.1279 -0.0038
   51MOL0     C 6911   5.662   0.168   2.233 -0.3885 -0.3617  0.7988
   51MOL0     C 6912   5.799   0.143   2.300 -0.0065  0.6439  0.1509
   51MOL0     C 6913   5.865   0.276   2.305 -0.0429  0.3039  0.8242
   51MOL0     C 6914   6.013   0.268   2.339 -0.0720  0.5738  0.3772
   51MOL0     C 6915   6.070   0.408   2.312  0.5444  1.3915  0.2625
   51MOL0     C 6916   6.225   0.411   2.310 -0.0499  0.5592 -0.6015
   51MOL0     N 6917   6.280   0.406   2.445 -0.1684  0.0494  0.1321
   51MOL0     C 6918   6.301   0.512   2.538  0.1369 -0.1111  0.1644
   51MOL0     C 6919   6.334   0.456   2.658 -0.0861  0.2219 -0.3405
   51MOL0     C 6920   6.371   0.540   2.782  0.4030 -0.1770  0.9228
   51MOL0     C 6921   6.531   0.556   2.773 -0.1535 -0.1227 -0.7545
   51MOL0     C 6922   6.585   0.673   2.849  0.6364 -0.6507 -0.1889
   51MOL0     C 6923   6.580   0.642   2.993  0.4358 -0.6525 -1.1416
   51MOL0     O 6924   6.591   0.761   3.070  0.2081  0.5415 -0.0577
   51MOL0     C 6925   6.707   0.792   3.123 -0.1357  0.6906  0.0097
   51MOL0     C 6926   6.703   0.881   3.231 -0.0560 -0.1607  0.4035
   51MOL0     C 6927   6.819   0.915   3.308  0.6823 -0.5944 -0.1037
   51MOL0     C 6928   6.791   1.012   3.420 -0.5197 -0.0498 -0.2401
   51MOL0     C 6929   6.946   0.869   3.274 -0.4342  0.7467  0.5210
   51MOL0     C 6930   7.078   0.919   3.329 -0.7955 -0.0245  0.4595
   51MOL0     O 6931   7.187   0.844   3.301 -0.7110 -0.2325  0.4710
   51MOL0     C 6932   7.315   0.889   3.338  0.2791 -0.1858  0.1897
   51MOL0     C 6933   7.352   1.026   3.327  0.4921 -0.0874  0.1646
   51MOL0     C 6934   7.482   1.068   3.332 -0.2855 -1.4056 -0.0417
   51MOL0     C 6935   7.584   0.974   3.354 -0.6364 -0.8528 -0.5878
   51MOL0     O 6936   7.707   1.034   3.362  0.5671 -0.3075 -0.2515
   51MOL0     C 6937   7.823   0.960   3.316 -0.5294 -0.2357  0.2724
   51MOL0     C 6938   7.891   0.906   3.445  0.3223 -0.4307 -0.0469
   51MOL0     C 6939   8.024   0.830   3.416 -0.1287  0.2725  0.1369
   51MOL0     C 6940   8.074   0.759   3.538  0.6822  1.7059  0.0131
   51MOL0     C 6941   8.231   0.744   3.541  0.1242 -0.2723  0.3983
   51MOL0     C 6942   8.274   0.670   3.666  0.0803 -0.2394  0.6221
   51MOL0     C 6943   8.412   0.720   3.704 -0.3747  0.0486 -0.5416
   51MOL0     C 6944   8.479   0.639   3.808  0.3282  0.2479 -0.3300
   51MOL0    Cl 6945   8.506   0.462   3.766 -0.1616 -0.3634  0.2159
   51MOL0     C 6946   7.546   0.840   3.391  0.8079 -0.3688  0.2728
   51MOL0     C 6947   7.412   0.794   3.378 -0.2961 -1.0193  1.3169
   51MOL0     O 6948   7.081   1.027   3.397  0.3141  0.6608  0.2403
   51MOL0     C 6949   6.952   0.773   3.169 -0.4879  1.2415 -0.5934
   51MOL0     C 6950   6.839   0.746   3.087 -0.4353 -0.0862 -0.2217
   51MOL0     N 6951   6.342   0.321   2.639 -0.9081  0.0855 -0.1756
   51MOL0     N 6952   6.299   0.294   2.518 -0.7921 -0.4789 -0.7374
   51MOL0     C 6953   5.112   0.211   2.357  0.1709  0.1595 -0.0613
   51MOL0     C 6954   4.974   0.219   2.345 -0.1510  0.1511 -0.2014
   51MOL0     C 6955   4.584   0.311   2.140 -0.6518 -0.5383  1.1584
   51MOL0     C 6956   4.514   0.186   2.151 -0.9674  0.0393 -0.3043
   51MOL0     C 6957   4.375   0.165   2.110 -0.0694 -0.2110 -0.3157
   51MOL0     C 6958   4.312   0.270   2.043 -0.0537 -1.0473  0.6852
   51MOL0     O 6959   4.176   0.272   2.005 -0.4895  0.0877  0.4003
   51MOL0     C 6960   4.133   0.173   1.911 -0.6102 -0.2917 -0.1837
   51MOL0     C 6961   4.060   0.239   1.792  0.1537 -0.0727  0.2486
   51MOL0     C 6962   3.971   0.144   1.710  0.0485 -0.1086 -0.6286
   51MOL0     C 6963   3.917   0.229   1.596 -0.6620  0.1030  0.2690
   51MOL0     C 6964   3.804   0.308   1.630  0.6359  0.2281  0.6853
   51MOL0     C 6965   3.700   0.376   1.647  0.5939  0.4230 -0.5845
   51MOL0     C 6966   4.378   0.390   2.029 -0.5431 -0.6198 -0.9159
   51MOL0     C 6967   4.510   0.417   2.080  0.0006 -0.6176  0.1050
   51MOL0     C 6968   4.564   0.561   2.061 -0.9529 -0.5073 -0.5771
   51MOL0     H 6969   4.948   0.108   2.027  2.9588 -1.4728 -1.3157
   51MOL0     H 6970   5.197   0.073   2.056 -1.9967 -1.1860 -1.1889
   51MOL0     H 6971   5.429   0.103   2.098  0.2263 -1.6033 -0.3698
   51MOL0     H 6972   5.361  -0.024   2.203 -0.0165  0.1484  0.3714
   51MOL0     H 6973   5.544   0.022   2.368  1.3780 -0.4613 -0.0128
   51MOL0     H 6974   5.599  -0.046   2.218  1.6871 -0.4157  1.2390
   51MOL0     H 6975   5.684   0.179   2.127 -0.2239  2.2208  1.0549
   51MOL0     H 6976   5.624   0.264   2.269 -0.2927 -1.0637  2.9071
   51MOL0     H 6977   5.795   0.110   2.405  2.3084  2.4114  0.8741
   51MOL0     H 6978   5.855   0.068   2.243  1.1498  0.1770  1.8139
   51MOL0     H 6979   5.817   0.344   2.376  0.7402  1.8481 -0.0720
   51MOL0     H 6980   5.858   0.327   2.208  0.4576  0.3794  0.8234
   51MOL0     H 6981   6.026   0.243   2.445 -0.3068 -0.5003  0.1638
   51MOL0     H 6982   6.067   0.191   2.283 -0.4185  1.2192 -0.8907
   51MOL0     H 6983   6.035   0.480   2.386  1.7128  2.9911 -0.6677
   51MOL0     H 6984   6.052   0.453   2.214  0.0553  2.4302  0.8197
   51MOL0     H 6985   6.257   0.321   2.256  2.7916  0.2752  1.3413
   51MOL0     H 6986   6.268   0.494   2.253  1.8402 -0.1606 -0.2886
   51MOL0     H 6987   6.279   0.616   2.518  0.9500 -0.2016 -1.2998
   51MOL0     H 6988   6.343   0.485   2.872 -2.0579 -0.5926 -0.0322
   51MOL0     H 6989   6.321   0.637   2.786  2.4401  0.9982 -0.1089
   51MOL0     H 6990   6.589   0.468   2.803  1.3413  1.3934  1.0175
   51MOL0     H 6991   6.567   0.577   2.672  0.7907 -0.0325 -0.4093
   51MOL0     H 6992   6.685   0.694   2.810 -0.1656 -1.3727 -2.8673
   51MOL0     H 6993   6.525   0.758   2.814  2.4096  0.3248 -0.9999
   51MOL0     H 6994   6.475   0.619   3.014  0.5991  1.0004  2.0707
   51MOL0     H 6995   6.648   0.566   3.033  0.0000 -1.8299 -2.5361
   51MOL0     H 6996   6.607   0.921   3.261  0.8125  0.8641  1.9323
   51MOL0     H 6997   6.853   0.995   3.509 -0.7046  1.4732  0.1988
   51MOL0     H 6998   6.687   0.994   3.447  0.0993  0.2725  2.6482
   51MOL0     H 6999   6.801   1.116   3.389 -0.6477 -0.6930 -2.6649
   51MOL0     H 7000   7.280   1.102   3.299  1.4619  1.3195  1.3608
   51MOL0     H 7001   7.521   1.169   3.322  0.2011 -1.5945 -0.1135
   51MOL0     H 7002   7.808   0.878   3.246  0.1822 -1.3144  1.3400
   51MOL0     H 7003   7.893   1.030   3.269 -0.6489  0.8715  1.6873
   51MOL0     H 7004   7.919   0.998   3.497 -1.2619  0.8505 -1.3410
   51MOL0     H 7005   7.825   0.837   3.499  0.6749 -1.0681 -0.4258
   51MOL0     H 7006   8.100   0.902   3.385  0.8581 -1.2990 -1.1993
   51MOL0     H 7007   7.997   0.757   3.339 -2.1499  2.7877 -1.7271
   51MOL0     H 7008   8.038   0.655   3.541 -0.6753  2.1550 -0.2080
   51MOL0     H 7009   8.036   0.804   3.630 -1.3237 -0.9201  0.5964
   51MOL0     H 7010   8.259   0.703   3.444 -0.1964  0.5699 -0.0567
   51MOL0     H 7011   8.267   0.847   3.537  0.9019 -0.5377  0.4093
   51MOL0     H 7012   8.280   0.562   3.649  4.1260 -0.2272  1.0087
   51MOL0     H 7013   8.206   0.692   3.748 -1.1465  2.3853 -0.9708
   51MOL0     H 7014   8.400   0.824   3.734 -1.2342  0.5264 -2.4142
   51MOL0     H 7015   8.481   0.709   3.619  0.1720 -0.3356 -0.0565
   51MOL0     H 7016   8.416   0.640   3.898  2.7634  0.6957  1.4833
   51MOL0     H 7017   8.580   0.682   3.811  0.7233 -0.6840  0.1379
   51MOL0     H 7018   7.627   0.776   3.426  0.6813  0.8782  3.1136
   51MOL0     H 7019   7.388   0.689   3.392 -0.7010 -1.2033 -0.5167
   51MOL0     H 7020   7.050   0.738   3.140 -0.3002 -0.3443  1.7335
   51MOL0     H 7021   6.864   0.685   3.001  0.7642  2.9312 -2.1622
   51MOL0     H 7022   5.151   0.247   2.451  0.7216  0.2414 -0.3153
   51MOL0     H 7023   4.914   0.246   2.431  0.3485 -2.3335  1.0020
   51MOL0     H 7024   4.558   0.102   2.203 -2.4557 -0.7336 -0.2379
   51MOL0     H 7025   4.323   0.073   2.135 -1.2947  0.9559  1.7226
   51MOL0     H 7026   4.219   0.118   1.871  0.6936  0.1367  1.8422
   51MOL0     H 7027   4.082   0.098   1.971  2.8966  0.5537  4.4132
   51MOL0     H 7028   4.131   0.283   1.722 -1.8447  2.6575 -0.2309
   51MOL0     H 7029   3.997   0.317   1.835 -0.1105  0.5624 -1.2189
   51MOL0     H 7030   4.029   0.057   1.677 -1.7765 -1.8426  0.5506
   51MOL0     H 7031   3.889   0.114   1.775 -0.5944  1.5321 -0.6425
   51MOL0     H 7032   3.883   0.163   1.516 -0.3299  0.6669 -0.3408
   51MOL0     H 7033   3.994   0.288   1.547  0.5888 -1.0331  0.7924
   51MOL0     H 7034   3.628   0.455   1.659  2.3630  1.8109  1.6316
   51MOL0     H 7035   4.315   0.467   1.985 -1.0402 -1.2175 -1.2795
   51MOL0     H 7036   4.576   0.609   2.159  1.0408 -2.8099  0.4441
   51MOL0     H 7037   4.655   0.561   2.000 -2.2939  0.4821 -2.6798
   51MOL0     H 7038   4.490   0.617   2.004 -0.6268  1.5125  0.8668
   52MOL0     O 7039  10.251   3.168   3.140 -0.2391 -0.0902  0.1522
   52MOL0     C 7040  10.146   3.238   3.139 -0.5918  0.0431  0.1265
   52MOL0     O 7041  10.141   3.374   3.171  0.8468 -0.1014  0.0303
   52MOL0     C 7042  10.252   3.448   3.194  1.0281 -0.4130 -0.0579
   52MOL0     C 7043  10.343   3.410   3.295  0.8143  0.1214 -0.9346
   52MOL0     C 7044  10.451   3.493   3.332 -0.2456  0.0055  1.3445
   52MOL0     C 7045  10.468   3.619   3.269  0.0344  0.3956  0.2062
   52MOL0     O 7046  10.567   3.707   3.299  0.1279  0.5088  0.2578
   52MOL0     C 7047  10.545   3.848   3.298  0.1926 -0.3793 -0.1582
   52MOL0     C 7048  10.634   3.914   3.194 -0.7455  0.3986 -0.6257
   52MOL0     C 7049  10.787   3.893   3.226  0.2484 -0.0652 -0.3168
   52MOL0     C 7050  10.865   3.938   3.109  0.2136  0.4171  0.7743
   52MOL0     C 7051  11.018   3.937   3.124 -1.1149 -0.3688  0.0726
   52MOL0     C 7052  11.066   4.018   3.244  0.1849  0.6897  0.0609
   52MOL0     C 7053  11.211   4.049   3.238  0.0705 -0.3003 -0.1011
   52MOL0     C 7054  11.306   3.936   3.289  1.0566 -0.9527 -0.6446
   52MOL0     N 7055  11.441   3.995   3.317  0.2366  0.8913 -0.8116
   52MOL0     C 7056  11.466   4.069   3.430 -0.1490  0.6259  0.0953
   52MOL0     C 7057  11.597   4.105   3.407 -1.1823  0.2782  0.5842
   52MOL0     C 7058  11.692   4.179   3.490 -0.1082 -0.3868 -0.0843
   52MOL0     C 7059  11.806   4.092   3.551 -0.2028 -0.3698  0.8842
   52MOL0     C 7060  11.906   4.177   3.620  0.1369 -0.0539 -0.4376
   52MOL0     C 7061  12.022   4.080   3.659 -0.2197 -0.1629  0.2455
   52MOL0     O 7062  12.061   4.002   3.552 -0.4584  0.6725  0.1341
   52MOL0     C 7063  12.197   3.981   3.569 -0.3684 -0.0942 -0.0056
   52MOL0     C 7064  12.279   4.042   3.471 -0.4568 -0.1978 -0.8373
   52MOL0     C 7065  12.413   4.039   3.459 -0.0392  0.5648  0.6105
   52MOL0     C 7066  12.468   4.121   3.343  0.1498 -0.1356 -0.5687
   52MOL0     C 7067  12.481   3.962   3.557  0.0916 -0.2540  0.1685
   52MOL0     C 7068  12.633   3.951   3.554 -0.3718 -0.2618 -0.3333
   52MOL0     O 7069  12.702   4.059   3.501 -0.5186  0.0559  0.0555
   52MOL0     C 7070  12.837   4.066   3.509 -0.7262  0.1615 -0.7392
   52MOL0     C 7071  12.919   4.030   3.401  0.0706 -0.2033 -0.1591
   52MOL0     C 7072  13.056   4.033   3.405 -0.5306  0.6079 -0.1659
   52MOL0     C 7073  13.118   4.051   3.532 -0.6126 -0.6886 -0.3167
   52MOL0     O 7074  13.248   4.059   3.531 -0.6148 -0.0116  0.1006
   52MOL0     C 7075  13.298   3.926   3.560 -0.2106  0.0095  0.2252
   52MOL0     C 7076  13.449   3.939   3.538 -0.0907  0.5280 -0.5368
   52MOL0     C 7077  13.513   4.014   3.656 -0.1436 -0.0774  0.1517
   52MOL0     C 7078  13.659   3.969   3.673  0.3197  0.1951 -0.8096
   52MOL0     C 7079  13.724   4.044   3.791  0.3368 -0.9431  0.3234
   52MOL0     C 7080  13.757   4.186   3.747 -0.3419  0.4715  0.1819
   52MOL0     C 7081  13.806   4.278   3.864 -0.0858  0.0978 -1.2057
   52MOL0     C 7082  13.836   4.414   3.815  0.3593 -0.6472  0.1919
   52MOL0    Cl 7083  13.884   4.539   3.935  0.0705 -0.1517  0.0346
   52MOL0     C 7084  13.041   4.076   3.641 -0.1730  0.0335  0.7498
   52MOL0     C 7085  12.903   4.087   3.636  0.2384 -0.5145  0.2445
   52MOL0     O 7086  12.680   3.853   3.609  0.2511  0.5666 -0.3229
   52MOL0     C 7087  12.406   3.893   3.650  0.0046 -0.8719 -0.1912
   52MOL0     C 7088  12.267   3.918   3.661 -0.1931 -0.1095 -0.7433
   52MOL0     N 7089  11.644   4.052   3.287  0.1457  1.3057 -0.2773
   52MOL0     N 7090  11.546   3.983   3.234 -0.2382  0.6293 -0.5593
   52MOL0     C 7091  10.374   3.649   3.159 -0.5687  0.4804  0.2736
   52MOL0     C 7092  10.270   3.562   3.129  0.5990 -0.7736 -0.6010
   52MOL0     C 7093  10.019   3.178   3.096  0.0124  0.8310  0.0543
   52MOL0     C 7094   9.912   3.264   3.078  0.2986  0.4663  0.0103
   52MOL0     C 7095   9.787   3.216   3.035  0.4435  0.0822 -1.1746
   52MOL0     C 7096   9.754   3.080   3.024 -0.0817 -0.5825  0.4976
   52MOL0     O 7097   9.627   3.024   3.002 -0.1421  0.1073 -0.0431
   52MOL0     C 7098   9.543   3.066   2.897 -0.4149  0.5724 -0.0295
   52MOL0     C 7099   9.405   3.106   2.934 -0.0451  0.6221  0.3128
   52MOL0     C 7100   9.301   3.130   2.814  0.5517  0.8030  1.3815
   52MOL0     C 7101   9.275   2.994   2.753 -0.1758  0.5082 -0.1893
   52MOL0     C 7102   9.161   2.991   2.657 -0.1958  0.0698 -0.3259
   52MOL0     C 7103   9.074   2.989   2.569 -0.7482  0.6287 -0.0503
   52MOL0     C 7104   9.868   2.997   3.047  0.0333 -0.2428  0.5390
   52MOL0     C 7105   9.998   3.035   3.072 -0.9285  0.2874  0.2977
   52MOL0     C 7106  10.106   2.927   3.083 -0.5938  0.3893  0.0623
   52MOL0     H 7107  10.350   3.314   3.345  0.2726  0.1008 -0.8968
   52MOL0     H 7108  10.529   3.454   3.398  3.4235 -0.5300 -2.8522
   52MOL0     H 7109  10.571   3.885   3.398  0.1714 -2.4327  0.6586
   52MOL0     H 7110  10.442   3.881   3.284  1.4624  3.8010 -1.0518
   52MOL0     H 7111  10.591   3.863   3.106  0.5210 -1.7530 -0.0769
   52MOL0     H 7112  10.620   4.022   3.204 -0.9308  0.3851 -0.7282
   52MOL0     H 7113  10.806   3.950   3.317  0.5466 -0.8358  0.1081
   52MOL0     H 7114  10.798   3.785   3.241 -4.5892 -0.7438 -0.0639
   52MOL0     H 7115  10.839   3.873   3.025 -0.9304  1.4757  0.2859
   52MOL0     H 7116  10.825   4.035   3.079 -0.5311 -0.2296 -0.3694
   52MOL0     H 7117  11.077   3.974   3.040  1.1963 -0.4069  1.6040
   52MOL0     H 7118  11.057   3.835   3.134  1.1270 -0.6588 -6.5619
   52MOL0     H 7119  11.009   4.111   3.235 -1.1616  0.2070  2.6879
   52MOL0     H 7120  11.041   3.961   3.334 -3.0148 -0.9322 -1.6669
   52MOL0     H 7121  11.225   4.141   3.295 -0.1689 -0.2777 -0.0752
   52MOL0     H 7122  11.236   4.079   3.136  0.4099 -0.0537  0.0560
   52MOL0     H 7123  11.279   3.893   3.386  2.0660  2.3383  1.2506
   52MOL0     H 7124  11.307   3.864   3.207 -0.8700 -1.4435 -0.2684
   52MOL0     H 7125  11.406   4.092   3.517  1.5660  0.4347  1.3691
   52MOL0     H 7126  11.631   4.228   3.567 -2.0670 -1.3581 -0.9463
   52MOL0     H 7127  11.735   4.265   3.437 -1.6270  1.7241  1.8908
   52MOL0     H 7128  11.771   4.014   3.618  1.1985 -3.4234 -1.6741
   52MOL0     H 7129  11.851   4.042   3.464 -1.6160 -0.1198 -0.0316
   52MOL0     H 7130  11.931   4.261   3.555  0.8840  1.7878  2.0415
   52MOL0     H 7131  11.865   4.227   3.708 -1.8087 -2.3616  0.0626
   52MOL0     H 7132  12.106   4.135   3.702 -0.1361  0.7100 -0.9581
   52MOL0     H 7133  11.985   4.009   3.733  0.5654 -0.4343  0.3802
   52MOL0     H 7134  12.227   4.107   3.402 -0.5821 -1.8008 -2.3389
   52MOL0     H 7135  12.527   4.208   3.375 -1.2535  2.1903 -3.7225
   52MOL0     H 7136  12.393   4.166   3.278 -1.6823 -1.1229  0.7630
   52MOL0     H 7137  12.525   4.052   3.280  0.8788 -0.5308  0.4754
   52MOL0     H 7138  12.880   4.011   3.301  0.8041  2.0428 -0.9373
   52MOL0     H 7139  13.117   4.007   3.319  0.0148  2.3153 -0.3321
   52MOL0     H 7140  13.268   3.900   3.661 -5.5891  1.3524 -0.7367
   52MOL0     H 7141  13.263   3.843   3.497  3.6534 -0.7440 -1.2578
   52MOL0     H 7142  13.501   3.844   3.525  1.7373  1.2514  0.9999
   52MOL0     H 7143  13.471   3.991   3.444 -1.9694 -0.3408 -1.5023
   52MOL0     H 7144  13.450   4.001   3.745 -3.2829  0.9506 -1.7472
   52MOL0     H 7145  13.508   4.119   3.628 -3.1407 -0.4205 -0.9283
   52MOL0     H 7146  13.719   3.982   3.583  1.4626 -1.8649 -0.4125
   52MOL0     H 7147  13.671   3.861   3.686  4.9653  0.4432 -1.4778
   52MOL0     H 7148  13.655   4.049   3.876 -0.5043 -0.5334 -0.3737
   52MOL0     H 7149  13.820   3.994   3.809  0.6529  0.0108  1.3866
   52MOL0     H 7150  13.667   4.238   3.713 -2.1292 -2.0535  0.7611
   52MOL0     H 7151  13.833   4.182   3.669  0.9461 -0.4211  1.4299
   52MOL0     H 7152  13.897   4.241   3.913 -1.0744 -1.4998 -0.4498
   52MOL0     H 7153  13.729   4.299   3.939  2.0730  1.3330  0.7806
   52MOL0     H 7154  13.757   4.452   3.749 -0.0024 -0.6581  0.6138
   52MOL0     H 7155  13.924   4.412   3.750  0.6369 -0.4677  0.5589
   52MOL0     H 7156  13.080   4.095   3.740 -1.0592 -0.3129  1.1794
   52MOL0     H 7157  12.846   4.131   3.716 -0.3496  0.7916 -0.8492
   52MOL0     H 7158  12.449   3.825   3.723  1.9386  1.3898  0.9285
   52MOL0     H 7159  12.218   3.865   3.743  1.2052  0.5383  0.5579
   52MOL0     H 7160  10.381   3.741   3.101 -3.4305  1.4928  1.3220
   52MOL0     H 7161  10.198   3.597   3.056  0.7690  0.2609 -0.2956
   52MOL0     H 7162   9.922   3.371   3.094  0.4318  0.9520 -2.7841
   52MOL0     H 7163   9.703   3.284   3.041 -0.3441 -0.9881  0.9195
   52MOL0     H 7164   9.589   3.152   2.848 -0.4091  2.2566  2.7114
   52MOL0     H 7165   9.537   2.983   2.826  0.1988  1.0990 -0.7128
   52MOL0     H 7166   9.415   3.206   2.978 -0.8163  2.0805 -2.5475
   52MOL0     H 7167   9.359   3.038   3.006  1.8531 -0.7068  0.3346
   52MOL0     H 7168   9.208   3.169   2.855 -0.2619 -2.7919  3.3696
   52MOL0     H 7169   9.345   3.195   2.738 -2.6490 -0.5947 -1.9700
   52MOL0     H 7170   9.253   2.927   2.837 -0.5956  0.7762 -0.0807
   52MOL0     H 7171   9.361   2.949   2.703  0.2054 -1.0883  1.7618
   52MOL0     H 7172   9.000   2.988   2.492  0.3670 -3.1406 -1.2466
   52MOL0     H 7173   9.848   2.891   3.035  1.9660 -0.5015 -0.8147
   52MOL0     H 7174  10.203   2.952   3.038 -1.0552  0.3247 -1.0146
   52MOL0     H 7175  10.133   2.923   3.189  0.3308 -1.3096 -0.1996
   52MOL0     H 7176  10.073   2.827   3.055 -0.0718 -0.1520  1.3420
   53MOL0     O 7177   1.575   2.679   9.420  0.0422 -0.4454 -0.1993
   53MOL0     C 7178   1.606   2.773   9.346  0.1191  0.3123  0.5597
   53MOL0     O 7179   1.726   2.792   9.285 -1.0509  0.2115  0.4215
   53MOL0     C 7180   1.839   2.723   9.318 -0.7530 -0.4240 -0.7645
   53MOL0     C 7181   1.867   2.684   9.451 -0.0508  1.1062  0.9472
   53MOL0     C 7182   1.988   2.615   9.482 -0.3088 -1.6655  0.0463
   53MOL0     C 7183   2.088   2.608   9.391  0.4170  0.4173  0.2699
   53MOL0     O 7184   2.202   2.540   9.449  0.3853  0.2110 -0.5851
   53MOL0     C 7185   2.335   2.586   9.401  0.4094  0.2432 -1.0503
   53MOL0     C 7186   2.360   2.713   9.474 -0.5650  0.1371  0.5827
   53MOL0     C 7187   2.499   2.774   9.441 -0.0369  0.1342 -0.1338
   53MOL0     C 7188   2.531   2.890   9.528 -0.5938 -0.1740  0.1603
   53MOL0     C 7189   2.650   2.973   9.475 -0.1966 -1.5207  0.6340
   53MOL0     C 7190   2.687   3.088   9.571 -0.0376  0.4396  0.4880
   53MOL0     C 7191   2.814   3.165   9.514 -0.0988 -0.4439  0.0665
   53MOL0     C 7192   2.795   3.223   9.369 -0.2460 -0.6938 -0.5596
   53MOL0     N 7193   2.703   3.338   9.352 -0.3169  0.4520 -0.5082
   53MOL0     C 7194   2.706   3.461   9.411  0.6558  0.9097  0.6848
   53MOL0     C 7195   2.583   3.514   9.387 -0.3448 -0.4531  0.3948
   53MOL0     C 7196   2.528   3.652   9.414 -0.4875 -0.1920  0.1989
   53MOL0     C 7197   2.561   3.692   9.558 -0.2708 -0.3054  0.5353
   53MOL0     C 7198   2.500   3.830   9.583 -0.0194 -0.1136  0.1847
   53MOL0     C 7199   2.491   3.861   9.733 -0.4048 -0.1359 -0.3086
   53MOL0     O 7200   2.614   3.821   9.795  0.8354 -0.5032 -0.4540
   53MOL0     C 7201   2.641   3.887   9.918 -0.6261  0.4884 -0.1622
   53MOL0     C 7202   2.561   3.975   9.992 -0.0682 -0.1608  0.5877
   53MOL0     C 7203   2.603   4.042  10.103  0.0161 -0.5229 -0.1038
   53MOL0     C 7204   2.507   4.144  10.162  0.2839  0.2242 -0.9732
   53MOL0     C 7205   2.743   4.029  10.139  0.2422  0.5054 -1.0050
   53MOL0     C 7206   2.801   4.078  10.265 -0.0199  0.3216 -0.9653
   53MOL0     O 7207   2.897   4.009  10.329 -0.4244 -0.1217 -0.3445
   53MOL0     C 7208   2.976   4.054  10.437  0.6085 -0.2809  0.1966
   53MOL0     C 7209   2.915   4.066  10.557 -0.1082  0.0349 -0.5616
   53MOL0     C 7210   2.986   4.099  10.674  0.2773 -0.1451 -0.3838
   53MOL0     C 7211   3.126   4.123  10.665  0.2757  0.4967 -0.6722
   53MOL0     O 7212   3.196   4.154  10.783 -0.2039  0.1344 -0.6681
   53MOL0     C 7213   3.180   4.061  10.886 -0.3291  0.5264 -0.0110
   53MOL0     C 7214   3.298   4.075  10.990 -0.4770 -0.0731  0.0230
   53MOL0     C 7215   3.318   4.216  11.048  0.3618 -0.1765 -0.0553
   53MOL0     C 7216   3.433   4.221  11.147 -0.6118 -0.9350  0.0468
   53MOL0     C 7217   3.437   4.353  11.221 -0.6617 -0.3115  0.0487
   53MOL0     C 7218   3.561   4.359  11.306 -0.5677 -1.1221 -0.5634
   53MOL0     C 7219   3.583   4.505  11.362  0.1326  0.5447 -0.4095
   53MOL0     C 7220   3.549   4.528  11.512  0.5514  0.4660 -1.2866
   53MOL0    Cl 7221   3.557   4.715  11.513  0.3919  0.4373 -0.3755
   53MOL0     C 7222   3.190   4.109  10.542  0.4588 -0.1878  0.0605
   53MOL0     C 7223   3.121   4.067  10.434  0.5463  0.0664  0.3901
   53MOL0     O 7224   2.763   4.194  10.299 -0.6204 -0.0609 -0.0754
   53MOL0     C 7225   2.821   3.931  10.076  0.3902  0.1202 -0.5853
   53MOL0     C 7226   2.775   3.869   9.962 -0.1338 -0.0318 -0.2826
   53MOL0     N 7227   2.506   3.422   9.323  0.2701  0.7850 -0.0099
   53MOL0     N 7228   2.579   3.319   9.298 -0.0331  0.1925 -0.8862
   53MOL0     C 7229   2.073   2.650   9.258  0.1653 -0.4192  0.1281
   53MOL0     C 7230   1.947   2.719   9.223 -0.3269  0.0442 -0.1376
   53MOL0     C 7231   1.499   2.854   9.286  0.5996  0.5432  0.3923
   53MOL0     C 7232   1.525   2.993   9.266 -0.4222 -0.0909 -0.0535
   53MOL0     C 7233   1.438   3.081   9.213 -0.7220  0.6872 -0.5346
   53MOL0     C 7234   1.310   3.031   9.175 -0.1458 -0.0735  0.0908
   53MOL0     O 7235   1.231   3.125   9.113 -0.1937  0.2326  0.3961
   53MOL0     C 7236   1.120   3.081   9.045 -0.0788  0.6884  0.5295
   53MOL0     C 7237   1.030   3.205   9.022  0.2457  0.3536 -0.1766
   53MOL0     C 7238   0.979   3.276   9.144 -0.5714  0.1028 -0.4275
   53MOL0     C 7239   0.837   3.332   9.138  0.1753  0.4027 -0.9687
   53MOL0     C 7240   0.775   3.360   9.008 -0.7912 -0.3428 -0.1102
   53MOL0     C 7241   0.726   3.394   8.900  0.0445  1.2960  0.7902
   53MOL0     C 7242   1.276   2.892   9.199  0.1493 -0.0558 -0.3093
   53MOL0     C 7243   1.374   2.802   9.249 -0.0158 -0.2743  0.0462
   53MOL0     C 7244   1.333   2.662   9.255 -0.6951  0.4003  0.8495
   53MOL0     H 7245   1.799   2.701   9.534 -4.2269 -0.9037 -1.7695
   53MOL0     H 7246   2.007   2.581   9.583 -3.3583 -1.6125  0.7598
   53MOL0     H 7247   2.325   2.597   9.292 -3.5094  1.7414 -0.7340
   53MOL0     H 7248   2.412   2.514   9.428  0.6145  1.6511  2.6733
   53MOL0     H 7249   2.287   2.790   9.447  2.1890  2.3455 -1.0823
   53MOL0     H 7250   2.365   2.702   9.583  1.1628  1.3205  0.6602
   53MOL0     H 7251   2.580   2.701   9.448  0.3919  0.6525  0.3636
   53MOL0     H 7252   2.495   2.820   9.342  2.2254  1.7047  0.4496
   53MOL0     H 7253   2.444   2.956   9.521  0.8721  1.6707 -3.6537
   53MOL0     H 7254   2.549   2.853   9.630 -1.6761  1.1668  0.8677
   53MOL0     H 7255   2.618   3.019   9.382  0.2096  1.6238  1.9236
   53MOL0     H 7256   2.732   2.905   9.449 -1.0833 -1.5536 -2.4397
   53MOL0     H 7257   2.605   3.154   9.600 -1.1558 -0.6840 -0.0272
   53MOL0     H 7258   2.709   3.034   9.663 -1.0531 -1.7184 -0.4610
   53MOL0     H 7259   2.904   3.104   9.519 -0.0134 -0.6648 -2.7703
   53MOL0     H 7260   2.820   3.243   9.590  0.2039  0.5655 -0.9613
   53MOL0     H 7261   2.890   3.267   9.340 -0.6576 -1.5684 -3.6679
   53MOL0     H 7262   2.778   3.146   9.292 -0.7627  0.7939 -1.9960
   53MOL0     H 7263   2.793   3.507   9.457  2.3339  1.7361 -2.9166
   53MOL0     H 7264   2.420   3.643   9.395 -0.6497  0.1185  0.9271
   53MOL0     H 7265   2.562   3.729   9.345 -1.2352 -1.6773 -1.9466
   53MOL0     H 7266   2.511   3.627   9.630 -1.3615 -1.0214 -0.8185
   53MOL0     H 7267   2.668   3.682   9.579 -0.7104 -1.7379  2.3878
   53MOL0     H 7268   2.549   3.912   9.530 -0.2674  0.5299  0.9428
   53MOL0     H 7269   2.396   3.832   9.551 -0.1789 -2.2371  0.3797
   53MOL0     H 7270   2.491   3.969   9.747  0.2108 -0.3725  1.8655
   53MOL0     H 7271   2.401   3.823   9.782 -0.2349 -0.5869 -0.3384
   53MOL0     H 7272   2.461   3.991   9.951  0.4385 -2.6058 -1.9009
   53MOL0     H 7273   2.416   4.169  10.105 -1.2785 -0.3398  1.1448
   53MOL0     H 7274   2.562   4.237  10.180  3.0880 -1.3011 -1.2161
   53MOL0     H 7275   2.470   4.121  10.263 -1.6057  0.1386 -1.6304
   53MOL0     H 7276   2.808   4.067  10.574  0.2545  0.5104  2.3868
   53MOL0     H 7277   2.929   4.112  10.765 -1.2863  0.5415 -1.4280
   53MOL0     H 7278   3.087   4.068  10.944  0.5455  2.6455  1.2504
   53MOL0     H 7279   3.181   3.960  10.842  1.3314  1.1517 -1.5259
   53MOL0     H 7280   3.274   4.021  11.082 -0.0392  0.1712  0.2838
   53MOL0     H 7281   3.389   4.027  10.953 -0.0987 -1.3474  2.3592
   53MOL0     H 7282   3.229   4.257  11.096  0.9091  1.6360 -0.5074
   53MOL0     H 7283   3.335   4.290  10.970 -0.7926  0.3203  0.1387
   53MOL0     H 7284   3.531   4.210  11.099  1.2825 -0.5425  3.5147
   53MOL0     H 7285   3.430   4.126  11.201 -5.0496 -1.2800 -0.4380
   53MOL0     H 7286   3.459   4.428  11.144  1.1480 -0.7833  0.0528
   53MOL0     H 7287   3.343   4.373  11.272  0.0771  2.6322  0.4641
   53MOL0     H 7288   3.656   4.334  11.258  1.4614  1.7480  1.5932
   53MOL0     H 7289   3.552   4.289  11.390 -1.4416 -1.1480 -0.6712
   53MOL0     H 7290   3.507   4.571  11.319  0.8082  1.7133  0.1457
   53MOL0     H 7291   3.687   4.535  11.346  0.4892  0.7653  2.0226
   53MOL0     H 7292   3.618   4.482  11.583  0.2402 -2.6835 -2.8296
   53MOL0     H 7293   3.453   4.488  11.546  2.1956 -1.4814  1.4684
   53MOL0     H 7294   3.295   4.135  10.536  0.3830 -0.2184 -1.7592
   53MOL0     H 7295   3.167   4.047  10.338 -0.3656  0.7980 -0.2147
   53MOL0     H 7296   2.924   3.912  10.102  1.1174 -0.7645 -3.7132
   53MOL0     H 7297   2.846   3.821   9.896  0.7278 -0.2248  0.7583
   53MOL0     H 7298   2.154   2.627   9.189  0.1271 -1.0169  0.2803
   53MOL0     H 7299   1.919   2.763   9.128 -0.1018  0.3609 -0.0579
   53MOL0     H 7300   1.613   3.038   9.312 -0.8287  0.9146 -0.2251
   53MOL0     H 7301   1.470   3.182   9.193 -2.2764  1.0225 -1.5442
   53MOL0     H 7302   1.160   3.032   8.956  0.7452 -0.8980  1.7169
   53MOL0     H 7303   1.048   3.014   9.094  0.7712  0.1413  1.0696
   53MOL0     H 7304   0.949   3.165   8.962  0.8243  1.7267 -1.9820
   53MOL0     H 7305   1.081   3.277   8.956 -1.1549  2.3282  0.7783
   53MOL0     H 7306   1.005   3.218   9.233  2.6096  1.1791 -0.5153
   53MOL0     H 7307   1.046   3.363   9.150 -1.2343  0.6583 -0.9064
   53MOL0     H 7308   0.830   3.421   9.202 -0.7753 -0.1022 -0.3475
   53MOL0     H 7309   0.762   3.260   9.174 -0.2655  1.6081  0.6651
   53MOL0     H 7310   0.663   3.403   8.814  1.5189 -0.6461 -0.6108
   53MOL0     H 7311   1.175   2.861   9.173 -0.9081  1.2089  1.9805
   53MOL0     H 7312   1.293   2.626   9.349 -0.3437 -0.3050  0.7377
   53MOL0     H 7313   1.249   2.652   9.186 -2.0529  1.9323  2.2179
   53MOL0     H 7314   1.429   2.611   9.237 -0.1681  0.8516  2.2632
   54MOL0     O 7315   6.890   1.076  10.670 -0.4654 -0.2569 -0.3160
   54MOL0     C 7316   6.847   1.138  10.575 -0.0768  0.6720 -0.6307
   54MOL0     O 7317   6.872   1.274  10.552 -0.3277  0.1057  0.6837
   54MOL0     C 7318   6.972   1.328  10.630 -0.0905 -0.2170 -0.1592
   54MOL0     C 7319   6.941   1.392  10.752  0.3953  0.5889  0.1017
   54MOL0     C 7320   7.049   1.446  10.824 -0.6872  0.4445  0.0529
   54MOL0     C 7321   7.181   1.458  10.773 -1.0624  0.8218  0.1014
   54MOL0     O 7322   7.301   1.496  10.829  0.3552 -0.6808 -0.2853
   54MOL0     C 7323   7.292   1.569  10.953 -0.4602  0.2814 -1.1397
   54MOL0     C 7324   7.264   1.715  10.916 -0.2054 -0.3946 -0.1449
   54MOL0     C 7325   7.286   1.814  11.034 -0.0363  0.0173 -0.3356
   54MOL0     C 7326   7.196   1.788  11.155 -1.0185  0.1044  1.8006
   54MOL0     C 7327   7.171   1.907  11.247 -0.5606 -1.1168  0.4038
   54MOL0     C 7328   7.307   1.991  11.279  0.5013 -0.1703 -0.7508
   54MOL0     C 7329   7.305   2.095  11.397 -0.1814  0.5619  0.1637
   54MOL0     C 7330   7.281   2.041  11.533  0.2949  0.1188  0.6372
   54MOL0     N 7331   7.329   2.133  11.634  0.2207  0.1264 -0.0343
   54MOL0     C 7332   7.457   2.178  11.648  0.5153  0.4490  0.2354
   54MOL0     C 7333   7.455   2.250  11.760 -0.2891  0.4284 -0.5132
   54MOL0     C 7334   7.569   2.314  11.838  0.5918 -0.0983 -0.2122
   54MOL0     C 7335   7.526   2.442  11.916 -0.5712 -0.1512 -0.4360
   54MOL0     C 7336   7.639   2.526  11.982 -0.0779  0.1530 -0.9471
   54MOL0     C 7337   7.735   2.451  12.074  0.0415 -0.2278  0.7040
   54MOL0     O 7338   7.830   2.370  11.999  0.7579  0.2511 -0.8564
   54MOL0     C 7339   7.944   2.427  11.959 -0.6725  0.2756  0.3140
   54MOL0     C 7340   7.979   2.550  11.948 -0.9489 -0.6408 -0.3849
   54MOL0     C 7341   8.101   2.588  11.896 -0.7480  0.3789 -0.4708
   54MOL0     C 7342   8.132   2.738  11.882  0.5931  0.5477 -0.0478
   54MOL0     C 7343   8.195   2.494  11.846 -0.7874 -0.5942  0.4317
   54MOL0     C 7344   8.327   2.524  11.797  0.3244  0.3791  0.8564
   54MOL0     O 7345   8.377   2.649  11.794  0.0452  0.5886 -0.2532
   54MOL0     C 7346   8.516   2.671  11.794  0.8513  0.5287 -0.3326
   54MOL0     C 7347   8.603   2.598  11.876 -0.1817  0.2257  0.6565
   54MOL0     C 7348   8.741   2.630  11.871  0.5770 -0.6732  0.0988
   54MOL0     C 7349   8.790   2.747  11.807  0.3530  0.2084  0.7411
   54MOL0     O 7350   8.922   2.791  11.801  0.9705 -0.6747  0.0677
   54MOL0     C 7351   9.009   2.715  11.883  0.6088 -0.3533 -0.1636
   54MOL0     C 7352   9.155   2.763  11.860  0.2835 -0.0271 -0.2241
   54MOL0     C 7353   9.243   2.706  11.970 -0.0794  0.1249  0.3745
   54MOL0     C 7354   9.385   2.710  11.926  0.2943  0.4760  0.3208
   54MOL0     C 7355   9.473   2.615  12.008  0.2497 -0.5440  0.1831
   54MOL0     C 7356   9.619   2.648  12.002 -0.9750 -0.2279  0.1881
   54MOL0     C 7357   9.681   2.576  11.876 -0.3387  0.3337 -0.5696
   54MOL0     C 7358   9.829   2.628  11.851 -0.0902  0.1052  0.4870
   54MOL0    Cl 7359   9.935   2.591  11.988  0.5085  0.0533  0.7566
   54MOL0     C 7360   8.698   2.826  11.737  0.0348  0.4059  0.0060
   54MOL0     C 7361   8.566   2.785  11.727 -0.0896 -0.2269  0.8448
   54MOL0     O 7362   8.382   2.427  11.748  0.5138  0.3057  0.0401
   54MOL0     C 7363   8.154   2.362  11.859  0.0349  0.5405 -0.1234
   54MOL0     C 7364   8.034   2.332  11.919  0.4418 -0.5025  1.0839
   54MOL0     N 7365   7.320   2.262  11.800  0.1398  0.3705  0.7707
   54MOL0     N 7366   7.247   2.179  11.733 -0.2525 -0.7798  0.4014
   54MOL0     C 7367   7.204   1.401  10.651 -0.5548  0.2057  0.2680
   54MOL0     C 7368   7.103   1.323  10.582  0.2003 -0.2218 -1.1117
   54MOL0     C 7369   6.756   1.070  10.477 -0.0784  0.8120  0.1869
   54MOL0     C 7370   6.695   1.154  10.380 -0.4419 -0.2028  0.7552
   54MOL0     C 7371   6.617   1.098  10.284 -0.0854  0.9457  0.9370
   54MOL0     C 7372   6.591   0.954  10.277 -0.3771  0.6051 -0.3824
   54MOL0     O 7373   6.529   0.911  10.169 -0.3584 -0.5335  0.4237
   54MOL0     C 7374   6.491   0.770  10.158 -0.0457 -0.4477 -1.1160
   54MOL0     C 7375   6.348   0.744  10.226 -0.3681  0.9074 -0.7444
   54MOL0     C 7376   6.235   0.783  10.139  0.0569 -0.6117  0.4996
   54MOL0     C 7377   6.197   0.682  10.036  0.6762  0.2067  0.0411
   54MOL0     C 7378   6.084   0.731   9.961 -0.4434 -0.8041 -0.0118
   54MOL0     C 7379   5.992   0.768   9.891 -0.6264 -0.0355 -0.1696
   54MOL0     C 7380   6.648   0.879  10.378 -1.2143 -0.3180  0.0422
   54MOL0     C 7381   6.730   0.931  10.477  0.4492 -0.3094 -0.2549
   54MOL0     C 7382   6.780   0.839  10.579  0.7416  0.8614  0.1669
   54MOL0     H 7383   6.842   1.385  10.796  0.7199 -1.2521  0.5964
   54MOL0     H 7384   7.027   1.478  10.925 -0.9282  0.4385  0.0036
   54MOL0     H 7385   7.391   1.562  11.000 -0.6207 -0.4967 -0.9022
   54MOL0     H 7386   7.214   1.545  11.026 -0.6395  5.7646  0.9921
   54MOL0     H 7387   7.325   1.743  10.829 -1.7444  1.3662 -0.7098
   54MOL0     H 7388   7.159   1.712  10.888 -0.0057  0.8938 -1.0909
   54MOL0     H 7389   7.386   1.785  11.070 -1.1359 -2.9365  0.7043
   54MOL0     H 7390   7.276   1.916  10.997 -0.2676 -0.7304 -2.4353
   54MOL0     H 7391   7.101   1.744  11.124  0.1043 -1.8450  0.9049
   54MOL0     H 7392   7.241   1.706  11.211 -0.8192 -0.8500  0.2989
   54MOL0     H 7393   7.133   1.873  11.343 -2.0059  0.4936  0.4587
   54MOL0     H 7394   7.095   1.972  11.203 -0.3894 -1.0496  0.2038
   54MOL0     H 7395   7.387   1.918  11.291  0.5069 -0.2598 -1.3438
   54MOL0     H 7396   7.337   2.049  11.192  1.3778  1.2561  0.4500
   54MOL0     H 7397   7.221   2.165  11.396  0.4708  1.4607  2.3835
   54MOL0     H 7398   7.401   2.148  11.395 -1.0650  2.1950 -1.4706
   54MOL0     H 7399   7.174   2.022  11.543  0.4672 -2.1459 -0.9179
   54MOL0     H 7400   7.333   1.944  11.537  0.6500  0.3393  1.7394
   54MOL0     H 7401   7.547   2.142  11.598  0.9128  0.1604  1.1350
   54MOL0     H 7402   7.660   2.332  11.781  0.2135  0.9628 -0.5179
   54MOL0     H 7403   7.599   2.232  11.903 -2.2122 -1.1637 -0.1045
   54MOL0     H 7404   7.482   2.510  11.842 -1.7288  1.0151  1.2639
   54MOL0     H 7405   7.442   2.425  11.983 -0.4004 -0.9424 -0.4109
   54MOL0     H 7406   7.700   2.570  11.903 -0.5502  2.3123 -0.1762
   54MOL0     H 7407   7.596   2.605  12.045  0.5711  0.8822 -1.4066
   54MOL0     H 7408   7.777   2.529  12.138 -1.8010  0.3319  1.3021
   54MOL0     H 7409   7.676   2.388  12.142 -2.1359  1.5942  0.6278
   54MOL0     H 7410   7.906   2.625  11.976  1.5474  1.1866  1.7596
   54MOL0     H 7411   8.215   2.758  11.951 -0.5208  1.9537  0.9511
   54MOL0     H 7412   8.043   2.789  11.918 -0.6399  0.5636 -2.8910
   54MOL0     H 7413   8.157   2.773  11.782 -2.8181  2.2740 -0.4438
   54MOL0     H 7414   8.572   2.502  11.916  1.0440 -1.0115 -1.2309
   54MOL0     H 7415   8.812   2.568  11.924  1.3276 -1.5437 -1.8070
   54MOL0     H 7416   8.984   2.732  11.988 -0.1755  0.1816 -0.4206
   54MOL0     H 7417   9.004   2.612  11.846 -2.3719 -0.4721  0.3280
   54MOL0     H 7418   9.186   2.739  11.758 -0.4908  2.4969 -1.1106
   54MOL0     H 7419   9.158   2.872  11.866 -0.5721 -0.0780  1.7830
   54MOL0     H 7420   9.222   2.600  11.987 -0.1704  0.3850  1.9870
   54MOL0     H 7421   9.234   2.752  12.069 -1.1494  3.8074 -1.2428
   54MOL0     H 7422   9.423   2.813  11.931 -1.5784  1.1437  1.8336
   54MOL0     H 7423   9.393   2.666  11.826  0.3415  0.9149  0.1273
   54MOL0     H 7424   9.447   2.629  12.113 -0.2358 -0.7205  0.0867
   54MOL0     H 7425   9.454   2.510  11.982 -0.4309 -0.3538 -0.1070
   54MOL0     H 7426   9.669   2.605  12.088 -0.0316 -1.1112 -0.7706
   54MOL0     H 7427   9.645   2.754  12.001  1.2765 -0.6445 -3.5113
   54MOL0     H 7428   9.614   2.583  11.790 -0.8270 -3.3216 -0.6210
   54MOL0     H 7429   9.687   2.469  11.896 -2.8997  0.1895 -0.1621
   54MOL0     H 7430   9.825   2.734  11.822 -3.5210  0.4025  1.5826
   54MOL0     H 7431   9.872   2.576  11.765  0.6145  1.1198  0.1961
   54MOL0     H 7432   8.732   2.915  11.686  2.5764 -0.7927 -0.5299
   54MOL0     H 7433   8.493   2.844  11.672 -0.0580 -2.2085 -1.4397
   54MOL0     H 7434   8.228   2.284  11.845 -0.8929 -0.8325  2.1158
   54MOL0     H 7435   7.995   2.232  11.935 -0.8361 -0.8894 -3.3070
   54MOL0     H 7436   7.303   1.405  10.606 -0.0647  0.4231  1.3424
   54MOL0     H 7437   7.125   1.271  10.489  0.0755  1.2168 -1.9804
   54MOL0     H 7438   6.724   1.259  10.373 -1.2229 -0.0299 -0.1830
   54MOL0     H 7439   6.581   1.165  10.207 -0.6475 -0.6630 -0.2668
   54MOL0     H 7440   6.488   0.747  10.051  0.1225  1.6332 -1.6126
   54MOL0     H 7441   6.563   0.702  10.203 -0.4935  0.2946  0.8215
   54MOL0     H 7442   6.350   0.789  10.325  1.5669 -0.0770 -0.2808
   54MOL0     H 7443   6.328   0.637  10.244 -0.6969  1.3219  1.7033
   54MOL0     H 7444   6.150   0.801  10.206 -1.7131 -1.0305 -1.5174
   54MOL0     H 7445   6.268   0.874  10.089  1.1220 -1.6077 -0.6563
   54MOL0     H 7446   6.171   0.585  10.077  1.9131  0.8012  2.4011
   54MOL0     H 7447   6.276   0.663   9.962  0.0734  0.1449 -0.5938
   54MOL0     H 7448   5.910   0.806   9.832 -2.3904 -1.2037  1.4033
   54MOL0     H 7449   6.631   0.772  10.375 -0.6801 -0.3815 -1.3181
   54MOL0     H 7450   6.756   0.859  10.684  2.6305 -1.9515  1.2571
   54MOL0     H 7451   6.749   0.738  10.551  1.4816  1.0751 -1.5638
   54MOL0     H 7452   6.889   0.847  10.567  0.8637  0.6361  1.0729
   55MOL0     O 7453   6.622   1.606   1.773  0.8314 -0.3709  0.5648
   55MOL0     C 7454   6.538   1.564   1.687 -0.0587  0.0255  0.7896
   55MOL0     O 7455   6.571   1.529   1.561 -0.2750 -0.5156  0.0074
   55MOL0     C 7456   6.711   1.530   1.534 -0.4061 -0.0065 -0.0635
   55MOL0     C 7457   6.777   1.412   1.497  0.1374  0.0187 -0.8779
   55MOL0     C 7458   6.913   1.412   1.473 -0.5948  0.0592 -0.1592
   55MOL0     C 7459   6.991   1.525   1.488  0.6315 -0.7007  0.3982
   55MOL0     O 7460   7.125   1.511   1.458  0.1353  0.1551  0.1930
   55MOL0     C 7461   7.207   1.630   1.448 -0.1121 -1.2679  0.7254
   55MOL0     C 7462   7.263   1.685   1.579  0.1586 -0.2349 -0.3595
   55MOL0     C 7463   7.350   1.580   1.646  0.1759 -0.7436 -0.0381
   55MOL0     C 7464   7.483   1.533   1.585  0.2941  0.1087  0.1232
   55MOL0     C 7465   7.551   1.414   1.662  0.5737  1.1152 -1.4975
   55MOL0     C 7466   7.599   1.469   1.796 -0.2721  0.1913  0.4297
   55MOL0     C 7467   7.702   1.387   1.880  0.2585  0.9719  0.0286
   55MOL0     C 7468   7.643   1.252   1.916  0.0460 -0.2287  0.0708
   55MOL0     N 7469   7.718   1.194   2.032  0.2966 -0.5079 -0.6074
   55MOL0     C 7470   7.739   1.257   2.151 -0.4085 -0.8165 -0.8812
   55MOL0     C 7471   7.842   1.183   2.213 -0.5292 -0.5008 -0.0239
   55MOL0     C 7472   7.893   1.206   2.352  0.3827  0.0754  0.1639
   55MOL0     C 7473   8.031   1.150   2.378  0.1026  0.3209  0.2089
   55MOL0     C 7474   8.145   1.205   2.286  0.2729  0.2754  0.6946
   55MOL0     C 7475   8.249   1.100   2.257 -0.3606  0.3853  0.2339
   55MOL0     O 7476   8.356   1.123   2.165  0.5220  0.7987  0.6880
   55MOL0     C 7477   8.482   1.152   2.208 -0.4644  0.0913 -1.2376
   55MOL0     C 7478   8.597   1.121   2.132  0.0381  0.1137 -1.0134
   55MOL0     C 7479   8.731   1.145   2.172  0.0161  0.3240  0.4705
   55MOL0     C 7480   8.838   1.095   2.083  0.2104  0.5565 -0.5758
   55MOL0     C 7481   8.760   1.180   2.303  0.5863 -0.2574 -0.3282
   55MOL0     C 7482   8.895   1.180   2.373  0.7336 -0.7791  0.7095
   55MOL0     O 7483   8.891   1.184   2.510 -0.4093  0.1665 -0.5843
   55MOL0     C 7484   8.987   1.264   2.565  0.7569 -0.3657 -1.0310
   55MOL0     C 7485   9.002   1.399   2.516  0.6188 -0.0097 -0.1297
   55MOL0     C 7486   9.114   1.477   2.556  0.4366  0.9347 -0.8039
   55MOL0     C 7487   9.202   1.427   2.656 -0.0507 -0.2841  0.0291
   55MOL0     O 7488   9.320   1.481   2.692 -0.0354  0.1384  0.1145
   55MOL0     C 7489   9.374   1.579   2.599  0.4433 -0.1848 -0.5272
   55MOL0     C 7490   9.485   1.659   2.667 -0.0363  0.0376 -0.1341
   55MOL0     C 7491   9.530   1.779   2.579 -0.2353 -0.1793 -0.1438
   55MOL0     C 7492   9.643   1.851   2.657 -0.4670 -0.2258  0.1378
   55MOL0     C 7493   9.714   1.965   2.587 -0.7930  0.2336 -0.7006
   55MOL0     C 7494   9.827   1.934   2.492  0.1319 -0.0030 -0.4262
   55MOL0     C 7495   9.863   2.068   2.420  0.0512 -0.3469  0.4222
   55MOL0     C 7496   9.933   2.040   2.288  0.3100  0.6065 -0.4607
   55MOL0    Cl 7497  10.074   1.921   2.305 -0.5042  0.1798  0.2317
   55MOL0     C 7498   9.184   1.295   2.704  0.0879  0.2142 -0.3290
   55MOL0     C 7499   9.072   1.217   2.666  0.0188 -0.2377  0.3694
   55MOL0     O 7500   8.994   1.188   2.301  0.3985  0.0563 -0.5745
   55MOL0     C 7501   8.649   1.219   2.377  0.6110 -1.0295  0.6695
   55MOL0     C 7502   8.517   1.208   2.335  0.0010  1.2153  0.3375
   55MOL0     N 7503   7.880   1.085   2.119  0.0839 -0.4128  0.1540
   55MOL0     N 7504   7.806   1.091   2.013  0.0247  0.8369 -0.0376
   55MOL0     C 7505   6.929   1.645   1.528 -0.0782  0.6190  0.1868
   55MOL0     C 7506   6.789   1.649   1.540  0.0063 -0.0664 -0.3253
   55MOL0     C 7507   6.390   1.563   1.726  0.1312  0.8485  0.3482
   55MOL0     C 7508   6.353   1.600   1.860  0.4973 -0.4108  0.9034
   55MOL0     C 7509   6.234   1.566   1.923 -0.1769 -0.3729 -0.0058
   55MOL0     C 7510   6.130   1.523   1.838  0.4607  0.4271 -0.4793
   55MOL0     O 7511   5.998   1.494   1.879 -0.1483  0.0182 -0.3009
   55MOL0     C 7512   5.961   1.532   2.016  0.0450  0.2228 -0.1896
   55MOL0     C 7513   5.799   1.516   2.035 -0.7278  0.2070 -0.2302
   55MOL0     C 7514   5.742   1.617   1.942  0.7426  0.5165  0.3530
   55MOL0     C 7515   5.582   1.605   1.937 -0.3924 -0.4363  0.4209
   55MOL0     C 7516   5.512   1.716   1.865  0.5685 -0.2252  0.5443
   55MOL0     C 7517   5.449   1.795   1.796 -0.9013 -0.7164 -0.2659
   55MOL0     C 7518   6.158   1.496   1.710  0.3821 -0.1735  0.3777
   55MOL0     C 7519   6.281   1.516   1.648 -0.4262  0.2918  0.5346
   55MOL0     C 7520   6.287   1.468   1.494 -0.1742  0.2510 -0.3337
   55MOL0     H 7521   6.717   1.323   1.483  2.1899 -1.5347 -0.3204
   55MOL0     H 7522   6.962   1.316   1.462  3.2301  1.5969  1.5072
   55MOL0     H 7523   7.159   1.715   1.398  1.8318 -0.0010  0.8903
   55MOL0     H 7524   7.294   1.609   1.384 -0.7838 -0.2802 -0.5644
   55MOL0     H 7525   7.326   1.772   1.555  0.8260  0.5609  3.4965
   55MOL0     H 7526   7.186   1.728   1.644 -1.4874 -1.8446 -1.1535
   55MOL0     H 7527   7.379   1.619   1.744 -0.4662  0.2482 -0.2259
   55MOL0     H 7528   7.282   1.494   1.658 -2.4309  1.4724  2.6035
   55MOL0     H 7529   7.452   1.494   1.487  1.5361  2.1596 -1.1602
   55MOL0     H 7530   7.555   1.615   1.576  0.8831 -0.5680 -2.0010
   55MOL0     H 7531   7.629   1.375   1.596  1.1723 -0.9360  0.3081
   55MOL0     H 7532   7.472   1.341   1.682 -1.2479  3.4823  0.8016
   55MOL0     H 7533   7.642   1.565   1.768  0.3000 -0.1499  0.1082
   55MOL0     H 7534   7.508   1.483   1.854 -3.0505 -0.4672 -3.3650
   55MOL0     H 7535   7.722   1.438   1.974  3.1235 -1.2392  0.7738
   55MOL0     H 7536   7.795   1.378   1.822 -0.6749 -2.0733 -1.2380
   55MOL0     H 7537   7.539   1.257   1.949 -0.5253  1.7483 -1.8059
   55MOL0     H 7538   7.652   1.180   1.834 -1.4623  0.2186 -0.5254
   55MOL0     H 7539   7.687   1.341   2.197  0.3857 -0.7446 -0.0820
   55MOL0     H 7540   7.831   1.169   2.433  1.5483  0.8509  1.4579
   55MOL0     H 7541   7.900   1.315   2.358  3.0405  0.2191 -2.5322
   55MOL0     H 7542   8.056   1.165   2.484 -1.3927 -2.1355  1.0064
   55MOL0     H 7543   8.022   1.041   2.369  0.1748  0.4893 -2.5460
   55MOL0     H 7544   8.106   1.242   2.191 -0.0705  0.9088  1.0763
   55MOL0     H 7545   8.196   1.290   2.332 -0.7772  0.1501  2.1612
   55MOL0     H 7546   8.290   1.079   2.356 -1.0816  2.5822  1.0767
   55MOL0     H 7547   8.197   1.011   2.222 -0.8346  0.2628  1.2161
   55MOL0     H 7548   8.580   1.068   2.038 -0.6631 -0.2204 -0.7047
   55MOL0     H 7549   8.799   1.048   1.992  1.4273  1.7005 -1.7355
   55MOL0     H 7550   8.899   1.015   2.126  0.4585 -0.9732 -3.5342
   55MOL0     H 7551   8.896   1.181   2.048 -1.6524  1.5433 -1.4216
   55MOL0     H 7552   8.921   1.438   2.454 -0.6057 -2.3144 -0.0932
   55MOL0     H 7553   9.136   1.570   2.503  1.6723  0.9643 -0.2644
   55MOL0     H 7554   9.421   1.542   2.507  0.9089  1.6517 -1.0670
   55MOL0     H 7555   9.300   1.654   2.569 -0.3707 -0.2406  1.1969
   55MOL0     H 7556   9.436   1.697   2.757 -1.5175 -1.4303 -0.2583
   55MOL0     H 7557   9.565   1.591   2.698 -1.0931 -0.3559  1.9663
   55MOL0     H 7558   9.448   1.852   2.575 -0.8037 -0.7682  0.4336
   55MOL0     H 7559   9.547   1.754   2.474  0.7005 -4.1164  0.7834
   55MOL0     H 7560   9.716   1.780   2.698  0.2597  1.5114  1.9996
   55MOL0     H 7561   9.594   1.888   2.747 -1.7341  1.3406 -1.1237
   55MOL0     H 7562   9.633   2.018   2.536 -0.8683  1.1662  0.3598
   55MOL0     H 7563   9.748   2.032   2.665 -1.0396 -1.1228  0.6148
   55MOL0     H 7564   9.786   1.854   2.431 -1.1949 -0.4822  1.0217
   55MOL0     H 7565   9.913   1.894   2.545 -0.8332  1.0311  2.0695
   55MOL0     H 7566   9.909   2.148   2.478  0.7902  0.3116 -1.0367
   55MOL0     H 7567   9.767   2.112   2.389  0.5414  2.4684  2.5333
   55MOL0     H 7568   9.972   2.131   2.242  1.4420 -0.4524 -1.6767
   55MOL0     H 7569   9.862   1.988   2.223 -0.4025 -0.2455  0.9273
   55MOL0     H 7570   9.256   1.260   2.777 -0.5428 -0.4256  0.0017
   55MOL0     H 7571   9.067   1.118   2.709 -1.4946 -0.4455 -0.2021
   55MOL0     H 7572   8.676   1.233   2.481  5.0369 -3.4900  0.0976
   55MOL0     H 7573   8.440   1.245   2.403  0.2919 -0.1696  1.4665
   55MOL0     H 7574   6.983   1.736   1.552  2.2073 -0.4032 -0.7585
   55MOL0     H 7575   6.735   1.742   1.552  1.0595  0.3222  1.9467
   55MOL0     H 7576   6.431   1.651   1.917 -0.1227  3.2280 -1.2070
   55MOL0     H 7577   6.238   1.588   2.029  3.3238 -0.8195  0.0632
   55MOL0     H 7578   6.005   1.463   2.089 -1.3949  0.0926  0.5952
   55MOL0     H 7579   5.996   1.633   2.039  2.2026 -0.7664  1.1884
   55MOL0     H 7580   5.762   1.531   2.137 -3.3130  2.2386 -1.3533
   55MOL0     H 7581   5.768   1.414   2.009  0.6556 -0.7759  1.6611
   55MOL0     H 7582   5.762   1.722   1.965  0.1446  0.4047  1.4400
   55MOL0     H 7583   5.773   1.600   1.838 -1.2089  1.7168 -0.4854
   55MOL0     H 7584   5.538   1.618   2.037 -0.2946 -1.1842  0.5705
   55MOL0     H 7585   5.538   1.516   1.892 -1.9198  0.9017 -0.8551
   55MOL0     H 7586   5.385   1.875   1.762 -1.4238 -0.7596  0.5771
   55MOL0     H 7587   6.076   1.467   1.645 -0.9222  3.0035  0.4102
   55MOL0     H 7588   6.352   1.532   1.434 -0.2154 -1.3573 -2.1960
   55MOL0     H 7589   6.311   1.363   1.474 -1.3626 -0.0171 -0.4501
   55MOL0     H 7590   6.186   1.478   1.453  0.1702 -0.1158 -1.2835
   56MOL0     O 7591   4.718   0.046   0.299 -0.3358 -0.3144 -0.2759
   56MOL0     C 7592   4.813  -0.013   0.355  0.2006  0.1684  0.8482
   56MOL0     O 7593   4.797  -0.137   0.409  0.1332  0.0118  0.4469
   56MOL0     C 7594   4.671  -0.166   0.450  0.9127  0.3300 -0.7301
   56MOL0     C 7595   4.605  -0.279   0.403 -0.2070  0.9435 -0.1875
   56MOL0     C 7596   4.470  -0.312   0.438 -0.1082  0.3598  0.5093
   56MOL0     C 7597   4.400  -0.227   0.518  0.2057  0.1888 -0.2747
   56MOL0     O 7598   4.271  -0.262   0.547 -0.1566 -0.3894 -0.6240
   56MOL0     C 7599   4.179  -0.158   0.575  0.2403 -0.6241  0.0187
   56MOL0     C 7600   4.043  -0.215   0.592 -0.1360  0.4350  0.1096
   56MOL0     C 7601   3.981  -0.273   0.454  0.1283 -0.0448  0.5146
   56MOL0     C 7602   4.010  -0.422   0.448 -0.0949 -0.1661 -0.3977
   56MOL0     C 7603   3.942  -0.483   0.333 -0.0734  0.0826  0.3226
   56MOL0     C 7604   4.015  -0.611   0.284 -0.2375  0.0635  0.3600
   56MOL0     C 7605   4.041  -0.712   0.399  0.7780 -0.1668 -0.3382
   56MOL0     C 7606   4.083  -0.846   0.354  0.4474  0.1111  0.4372
   56MOL0     N 7607   4.129  -0.930   0.462 -0.5750  0.2259 -0.1341
   56MOL0     C 7608   4.258  -0.976   0.479 -0.1691  0.6320  0.6800
   56MOL0     C 7609   4.251  -1.062   0.585 -0.8638 -0.9584 -0.2292
   56MOL0     C 7610   4.358  -1.137   0.652 -0.3573  0.1677 -0.3331
   56MOL0     C 7611   4.420  -1.246   0.561  0.3179  0.8481 -0.6644
   56MOL0     C 7612   4.531  -1.333   0.633  0.3339 -0.8948  0.2043
   56MOL0     C 7613   4.610  -1.414   0.521  0.7804  0.1691  0.0235
   56MOL0     O 7614   4.746  -1.437   0.554 -0.3706  0.2813 -0.5103
   56MOL0     C 7615   4.826  -1.500   0.454  0.0807  0.3802  0.3460
   56MOL0     C 7616   4.780  -1.553   0.335  0.5999  0.1943  0.5113
   56MOL0     C 7617   4.866  -1.607   0.247 -0.1288 -0.7936  0.0055
   56MOL0     C 7618   4.804  -1.655   0.123  1.2659  0.2512  0.3291
   56MOL0     C 7619   5.005  -1.622   0.286 -0.6896 -0.8671  0.0939
   56MOL0     C 7620   5.109  -1.663   0.182  0.3809  0.1504  0.1992
   56MOL0     O 7621   5.228  -1.698   0.231 -0.5906 -0.0895 -0.8193
   56MOL0     C 7622   5.340  -1.713   0.154  0.7100 -0.3327 -0.3179
   56MOL0     C 7623   5.453  -1.635   0.185  0.9377  0.9853 -0.3857
   56MOL0     C 7624   5.569  -1.650   0.115  0.0170  0.1376 -0.5135
   56MOL0     C 7625   5.575  -1.735   0.007  0.3947  1.0897  1.4778
   56MOL0     O 7626   5.691  -1.742  -0.064 -0.2263  0.8187 -0.1491
   56MOL0     C 7627   5.693  -1.808  -0.189  0.8112  0.4216 -0.6936
   56MOL0     C 7628   5.822  -1.788  -0.261 -0.3135 -0.3011  0.1369
   56MOL0     C 7629   5.870  -1.643  -0.254 -0.3927 -0.0364  0.0537
   56MOL0     C 7630   6.006  -1.623  -0.322 -0.8569  0.3441  0.0737
   56MOL0     C 7631   6.057  -1.478  -0.305  0.0778  0.3509 -0.3600
   56MOL0     C 7632   6.183  -1.462  -0.388  0.5821 -0.1471 -0.0289
   56MOL0     C 7633   6.241  -1.322  -0.374 -0.3263 -0.2362 -0.2731
   56MOL0     C 7634   6.395  -1.315  -0.406  0.2488 -0.1038 -0.1375
   56MOL0    Cl 7635   6.487  -1.401  -0.292 -0.3904 -0.3090 -0.0855
   56MOL0     C 7636   5.460  -1.813  -0.024 -0.6401 -0.1534 -0.1314
   56MOL0     C 7637   5.342  -1.799   0.052 -0.1200  0.1727  0.6295
   56MOL0     O 7638   5.085  -1.645   0.064  0.1490 -0.1565  0.4756
   56MOL0     C 7639   5.042  -1.594   0.414 -0.0879 -0.1585  0.0592
   56MOL0     C 7640   4.958  -1.528   0.500 -0.6450 -0.0405  0.7604
   56MOL0     N 7641   4.120  -1.054   0.634  0.8020  0.6757  0.7341
   56MOL0     N 7642   4.055  -0.977   0.570  0.1421 -0.1782 -0.6216
   56MOL0     C 7643   4.462  -0.112   0.561 -0.1612 -1.0323 -0.5624
   56MOL0     C 7644   4.596  -0.083   0.536 -0.1589 -0.3499  0.2222
   56MOL0     C 7645   4.949   0.040   0.354  0.2607  1.8623 -0.0608
   56MOL0     C 7646   5.029   0.010   0.458 -0.5262  0.3352 -0.3330
   56MOL0     C 7647   5.164   0.049   0.451  0.5713 -0.7564 -0.4198
   56MOL0     C 7648   5.212   0.127   0.340  0.1590  1.4600  0.8828
   56MOL0     O 7649   5.349   0.146   0.349  0.5954  0.1572 -0.3461
   56MOL0     C 7650   5.410   0.219   0.239 -0.1729 -0.7519  0.1778
   56MOL0     C 7651   5.559   0.211   0.258 -0.6204 -0.2226 -0.1131
   56MOL0     C 7652   5.621   0.334   0.324 -0.9194 -0.5173  0.1139
   56MOL0     C 7653   5.783   0.333   0.310 -0.2286 -0.4787  0.6601
   56MOL0     C 7654   5.844   0.391   0.434  0.1266  0.2779  0.0323
   56MOL0     C 7655   5.887   0.448   0.527  0.2629  0.4528 -0.5950
   56MOL0     C 7656   5.127   0.167   0.238 -0.4157 -0.2564 -0.4409
   56MOL0     C 7657   4.995   0.117   0.241 -0.8406 -0.2093 -0.4966
   56MOL0     C 7658   4.917   0.145   0.116 -0.1759  0.2008  0.1399
   56MOL0     H 7659   4.657  -0.345   0.334  0.6579 -0.2667  1.5230
   56MOL0     H 7660   4.412  -0.397   0.405  0.0175  0.7863 -0.8978
   56MOL0     H 7661   4.181  -0.070   0.510  0.2972  0.4426  1.4340
   56MOL0     H 7662   4.211  -0.116   0.671  2.2031 -0.4273 -0.6743
   56MOL0     H 7663   4.060  -0.298   0.661  1.7508 -0.8298 -1.7519
   56MOL0     H 7664   3.991  -0.129   0.635  1.7779  1.0152  1.3526
   56MOL0     H 7665   3.874  -0.252   0.442  0.1059 -1.0374 -1.7451
   56MOL0     H 7666   4.031  -0.219   0.374 -1.4718  0.2873 -0.3116
   56MOL0     H 7667   4.118  -0.438   0.443  0.1836  0.8744  1.4630
   56MOL0     H 7668   3.971  -0.468   0.539  0.5425 -1.4975 -0.7668
   56MOL0     H 7669   3.944  -0.421   0.243 -1.3340 -1.5675 -0.9003
   56MOL0     H 7670   3.840  -0.512   0.359  0.4535 -1.0349  1.1978
   56MOL0     H 7671   3.959  -0.655   0.201 -1.5843 -0.6244  1.5777
   56MOL0     H 7672   4.111  -0.574   0.248 -0.4840  0.1010 -0.2767
   56MOL0     H 7673   3.946  -0.728   0.451  1.4084 -0.1586  0.8669
   56MOL0     H 7674   4.111  -0.673   0.473  1.4657 -4.0554  1.3262
   56MOL0     H 7675   3.990  -0.900   0.334  1.8357 -2.1743 -0.1384
   56MOL0     H 7676   4.146  -0.849   0.264 -1.8945 -0.9435 -1.2885
   56MOL0     H 7677   4.340  -0.951   0.413 -1.7018  3.8089 -0.2069
   56MOL0     H 7678   4.311  -1.190   0.736 -0.4456 -0.2586 -0.6500
   56MOL0     H 7679   4.427  -1.064   0.695 -0.1038  1.5401 -2.9301
   56MOL0     H 7680   4.336  -1.304   0.523  0.1279  0.6822 -0.0108
   56MOL0     H 7681   4.469  -1.186   0.483  3.0143 -0.1537  0.1241
   56MOL0     H 7682   4.603  -1.267   0.684 -0.1073  0.3631 -0.7448
   56MOL0     H 7683   4.484  -1.402   0.704  2.0069 -3.8962 -1.4008
   56MOL0     H 7684   4.555  -1.509   0.523 -1.1907  1.2878  0.9060
   56MOL0     H 7685   4.596  -1.368   0.424 -0.6371 -1.2021 -0.4594
   56MOL0     H 7686   4.679  -1.546   0.296  0.8820  1.3206 -0.0815
   56MOL0     H 7687   4.696  -1.638   0.115  1.0225  0.1455  2.7301
   56MOL0     H 7688   4.817  -1.764   0.120 -0.6171 -0.0141 -2.7145
   56MOL0     H 7689   4.855  -1.611   0.036  1.3296 -1.2137 -0.4231
   56MOL0     H 7690   5.442  -1.566   0.268 -0.7931  2.4880 -1.7809
   56MOL0     H 7691   5.653  -1.595   0.154 -1.2477  0.6612  1.6255
   56MOL0     H 7692   5.693  -1.917  -0.176  1.2666  0.4450 -0.4975
   56MOL0     H 7693   5.601  -1.777  -0.239  0.3226  0.8744  0.4696
   56MOL0     H 7694   5.891  -1.856  -0.211  1.2918  1.7988  0.8854
   56MOL0     H 7695   5.811  -1.811  -0.368  1.6993 -0.9429  0.0237
   56MOL0     H 7696   5.877  -1.603  -0.153 -0.6219 -0.9824  0.4513
   56MOL0     H 7697   5.792  -1.582  -0.301  0.7290  3.0009  1.8567
   56MOL0     H 7698   5.989  -1.635  -0.429 -2.1655 -2.5031  0.5199
   56MOL0     H 7699   6.078  -1.699  -0.291 -1.1428 -0.8431 -1.9867
   56MOL0     H 7700   5.984  -1.404  -0.339 -0.8851  0.5857  1.9985
   56MOL0     H 7701   6.093  -1.461  -0.203 -1.4090 -0.5158  0.3400
   56MOL0     H 7702   6.166  -1.488  -0.493  0.3661 -3.2318  0.6915
   56MOL0     H 7703   6.250  -1.533  -0.339  0.5440  1.2725  2.2077
   56MOL0     H 7704   6.227  -1.282  -0.273 -0.8658  1.9278 -1.1669
   56MOL0     H 7705   6.181  -1.257  -0.438 -0.6876  1.7825  1.9831
   56MOL0     H 7706   6.433  -1.213  -0.409  1.8400 -0.5683  1.6838
   56MOL0     H 7707   6.406  -1.359  -0.505 -1.8480  0.4799 -0.6737
   56MOL0     H 7708   5.461  -1.885  -0.105  1.4655  1.9004 -2.0926
   56MOL0     H 7709   5.256  -1.856   0.021 -0.1485  0.8157 -0.5386
   56MOL0     H 7710   5.139  -1.617   0.457 -0.0007 -0.0784 -0.0933
   56MOL0     H 7711   4.990  -1.473   0.588  2.0817  1.2645 -0.9468
   56MOL0     H 7712   4.416  -0.049   0.636 -0.7752  0.3130 -2.0247
   56MOL0     H 7713   4.642   0.003   0.583  1.7930  0.4569 -2.8595
   56MOL0     H 7714   4.987  -0.043   0.544  1.2416  0.4072  0.6219
   56MOL0     H 7715   5.238   0.021   0.525  0.2675 -2.8405 -0.8468
   56MOL0     H 7716   5.382   0.189   0.138  0.3956 -0.6582 -0.0146
   56MOL0     H 7717   5.381   0.324   0.249  2.4414  0.6056 -3.9864
   56MOL0     H 7718   5.610   0.200   0.161  3.0073 -1.1439  1.7090
   56MOL0     H 7719   5.585   0.124   0.319  1.4541  0.5108  0.1349
   56MOL0     H 7720   5.584   0.432   0.292  0.5061 -0.1485 -0.5019
   56MOL0     H 7721   5.600   0.325   0.431 -2.2280 -1.1826 -0.1792
   56MOL0     H 7722   5.810   0.393   0.223  1.0092  2.8051  3.1127
   56MOL0     H 7723   5.816   0.231   0.287  0.0879 -0.1917 -0.2027
   56MOL0     H 7724   5.917   0.500   0.615  0.6417 -2.9066  1.4075
   56MOL0     H 7725   5.177   0.222   0.159 -1.3149 -1.2619 -1.7563
   56MOL0     H 7726   4.850   0.228   0.138  2.3092  1.8826  1.8827
   56MOL0     H 7727   4.980   0.180   0.034 -0.7929  1.0251  0.0050
   56MOL0     H 7728   4.849   0.065   0.083 -1.7518  1.0802  1.1323
   57MOL0     O 7729   8.901   5.186   9.240 -0.8791  0.2333 -0.3105
   57MOL0     C 7730   8.984   5.093   9.249  0.0221 -0.1635  0.1515
   57MOL0     O 7731   9.120   5.101   9.225  1.0280 -0.2160 -0.0315
   57MOL0     C 7732   9.165   5.238   9.211  0.3076  0.4501  0.1723
   57MOL0     C 7733   9.134   5.331   9.314 -0.5832 -0.2269  0.1790
   57MOL0     C 7734   9.191   5.463   9.311 -0.4029 -0.5729  0.4352
   57MOL0     C 7735   9.284   5.489   9.209  0.0415  0.0943 -0.0834
   57MOL0     O 7736   9.357   5.605   9.196  0.0649  0.4387  0.0155
   57MOL0     C 7737   9.357   5.702   9.300  0.3530 -0.0175 -0.0593
   57MOL0     C 7738   9.260   5.814   9.252  0.9193 -0.5267  0.5532
   57MOL0     C 7739   9.333   5.883   9.134  0.2372 -0.2415  0.3100
   57MOL0     C 7740   9.281   6.021   9.092 -0.1517  0.6818 -0.6679
   57MOL0     C 7741   9.363   6.094   8.989  0.8210  0.1630  0.2483
   57MOL0     C 7742   9.500   6.130   9.040  0.9627 -0.4395  1.1738
   57MOL0     C 7743   9.578   6.185   8.928 -0.7146  0.2604  0.4578
   57MOL0     C 7744   9.713   6.257   8.974 -0.9935 -0.4495 -0.8111
   57MOL0     N 7745   9.802   6.178   9.059  0.0007 -0.5178  0.2087
   57MOL0     C 7746   9.778   6.154   9.197 -0.0406  0.3356  0.4565
   57MOL0     C 7747   9.877   6.065   9.236  0.0312 -0.7635 -0.1988
   57MOL0     C 7748   9.914   6.001   9.373  0.5635 -0.1549  0.7628
   57MOL0     C 7749  10.027   6.072   9.454  0.5538  0.0903 -0.6742
   57MOL0     C 7750  10.063   5.989   9.586  0.0551 -0.3745 -0.6478
   57MOL0     C 7751  10.179   6.057   9.655 -0.0703 -0.4988  0.7094
   57MOL0     O 7752  10.136   6.186   9.710  0.6184  0.3883 -0.3668
   57MOL0     C 7753  10.226   6.243   9.797 -0.0274 -0.6193 -0.9609
   57MOL0     C 7754  10.190   6.277   9.920  0.6350 -0.4311 -0.2044
   57MOL0     C 7755  10.277   6.341  10.006 -0.3874  0.7505 -0.5600
   57MOL0     C 7756  10.208   6.390  10.130 -0.1168  0.1903  1.0484
   57MOL0     C 7757  10.421   6.351   9.975  0.4477 -0.3714 -0.0170
   57MOL0     C 7758  10.517   6.393  10.075  0.7845  0.3859 -0.7991
   57MOL0     O 7759  10.645   6.378  10.040 -0.2883 -0.5095 -0.6977
   57MOL0     C 7760  10.738   6.430  10.126 -0.1661 -0.3601  0.3945
   57MOL0     C 7761  10.754   6.383  10.256 -0.2280 -1.0400  0.6824
   57MOL0     C 7762  10.843   6.449  10.345 -0.3574  0.0959 -0.1559
   57MOL0     C 7763  10.925   6.548  10.294 -0.1803 -0.7093  0.6401
   57MOL0     O 7764  11.017   6.614  10.376  0.5077  0.2795  0.2494
   57MOL0     C 7765  11.151   6.606  10.340  0.0384  0.1830  0.0831
   57MOL0     C 7766  11.227   6.737  10.367 -0.8751 -0.1690  0.1987
   57MOL0     C 7767  11.194   6.855  10.269 -0.4846 -0.1017 -0.4677
   57MOL0     C 7768  11.262   6.984  10.297  0.4252  0.1581 -1.1855
   57MOL0     C 7769  11.284   7.084  10.185 -0.2994 -0.1354 -0.1457
   57MOL0     C 7770  11.321   7.223  10.230 -0.3830 -0.4936 -0.6111
   57MOL0     C 7771  11.466   7.220  10.301  0.5773  0.1215  0.5371
   57MOL0     C 7772  11.510   7.362  10.326  0.1657  0.2288 -0.3845
   57MOL0    Cl 7773  11.682   7.377  10.347  0.2331 -0.0731  0.2753
   57MOL0     C 7774  10.899   6.598  10.164  0.3948 -0.6569 -0.5864
   57MOL0     C 7775  10.812   6.535  10.076  0.4083  0.9384  0.5091
   57MOL0     O 7776  10.478   6.431  10.184  0.9228 -0.0600 -0.1281
   57MOL0     C 7777  10.458   6.300   9.848  0.2225 -0.3042 -0.7928
   57MOL0     C 7778  10.361   6.262   9.759  0.0426  0.2058 -0.0756
   57MOL0     N 7779   9.943   6.030   9.117 -0.4576 -0.4465  0.3237
   57MOL0     N 7780   9.892   6.085   9.016  0.0848  0.3099 -0.1254
   57MOL0     C 7781   9.314   5.400   9.114 -0.2443  0.9599 -0.0295
   57MOL0     C 7782   9.260   5.270   9.121 -0.1106 -0.4282  0.4606
   57MOL0     C 7783   8.935   4.961   9.288  0.2734 -0.8062 -0.6008
   57MOL0     C 7784   9.026   4.872   9.334 -0.7703 -0.6833 -0.1512
   57MOL0     C 7785   8.991   4.743   9.382 -0.3849  0.3494  0.5263
   57MOL0     C 7786   8.860   4.698   9.364 -0.0980  0.2898  0.7796
   57MOL0     O 7787   8.810   4.576   9.387  0.3735  0.3449 -0.0215
   57MOL0     C 7788   8.890   4.466   9.441 -0.1871  0.1677 -1.0582
   57MOL0     C 7789   8.894   4.470   9.591 -0.4608  0.2137  0.4918
   57MOL0     C 7790   9.007   4.390   9.656 -0.0004  0.6376  0.1123
   57MOL0     C 7791   8.973   4.238   9.632 -0.3601  1.0643  0.2548
   57MOL0     C 7792   9.072   4.159   9.713  0.1086 -0.0111  0.0441
   57MOL0     C 7793   9.153   4.090   9.771 -0.0133  0.4224  0.6868
   57MOL0     C 7794   8.762   4.789   9.317  0.2412  0.4221 -0.3033
   57MOL0     C 7795   8.796   4.924   9.289 -0.0955 -0.4082  0.1405
   57MOL0     C 7796   8.689   5.009   9.241 -0.6700  0.1883 -0.3800
   57MOL0     H 7797   9.074   5.296   9.397 -1.1593  0.3733  0.0251
   57MOL0     H 7798   9.174   5.533   9.392 -0.6856 -0.8163  0.5845
   57MOL0     H 7799   9.457   5.738   9.322  2.0515 -3.6429 -0.9989
   57MOL0     H 7800   9.319   5.658   9.393 -0.9814 -1.0190 -1.0234
   57MOL0     H 7801   9.170   5.768   9.212  2.2110 -0.8903 -2.2279
   57MOL0     H 7802   9.245   5.887   9.332 -1.7348  1.4048 -1.5322
   57MOL0     H 7803   9.439   5.897   9.158  0.7258 -2.3206 -0.4305
   57MOL0     H 7804   9.335   5.825   9.041  2.1506  0.0240  0.1369
   57MOL0     H 7805   9.178   6.031   9.057 -0.4284  2.1214  0.4887
   57MOL0     H 7806   9.278   6.089   9.178 -4.2540 -0.4745  0.3298
   57MOL0     H 7807   9.318   6.192   8.967  1.1641  0.5762  1.3315
   57MOL0     H 7808   9.364   6.029   8.901  1.0515 -2.6064  2.2009
   57MOL0     H 7809   9.498   6.211   9.113  3.9127  1.8999 -1.0644
   57MOL0     H 7810   9.553   6.040   9.073  0.0334 -0.7909  1.7417
   57MOL0     H 7811   9.517   6.252   8.866 -0.3978  1.5783  1.5303
   57MOL0     H 7812   9.594   6.095   8.868  1.4301  1.9663 -1.7339
   57MOL0     H 7813   9.772   6.286   8.886 -0.9872  0.5898 -0.4820
   57MOL0     H 7814   9.690   6.349   9.029  0.8034  0.0265 -0.8085
   57MOL0     H 7815   9.710   6.207   9.263  0.5775  0.3874  1.0598
   57MOL0     H 7816   9.942   5.896   9.361 -0.9841 -0.3794 -1.4760
   57MOL0     H 7817   9.830   6.013   9.442  0.4208  1.5197  0.3432
   57MOL0     H 7818  10.109   6.085   9.383  1.5895  2.4649  0.8560
   57MOL0     H 7819  10.002   6.177   9.472 -1.5051 -0.7027  1.5839
   57MOL0     H 7820   9.974   5.979   9.649  1.4890  0.9667  1.7393
   57MOL0     H 7821  10.099   5.890   9.556  0.6544 -0.3616  0.0130
   57MOL0     H 7822  10.205   5.991   9.738  0.2685 -0.1447  0.8922
   57MOL0     H 7823  10.265   6.059   9.587  2.1708  0.1666  3.3930
   57MOL0     H 7824  10.083   6.269   9.937  0.4738  1.7211 -0.0093
   57MOL0     H 7825  10.249   6.343  10.220  1.1807  0.7682  0.7795
   57MOL0     H 7826  10.101   6.373  10.114  0.2689  0.4820 -2.9301
   57MOL0     H 7827  10.228   6.496  10.144  0.4787  0.5317 -1.7561
   57MOL0     H 7828  10.704   6.290  10.285 -1.4450 -0.6416 -0.0740
   57MOL0     H 7829  10.849   6.426  10.451  0.2035  1.2309  0.0748
   57MOL0     H 7830  11.193   6.525  10.401  0.7864 -0.2887 -1.0276
   57MOL0     H 7831  11.172   6.571  10.239  2.0831 -3.5399  1.5806
   57MOL0     H 7832  11.203   6.767  10.470 -1.1185 -2.1222  0.7615
   57MOL0     H 7833  11.333   6.714  10.353 -0.9196  0.4143 -1.1964
   57MOL0     H 7834  11.087   6.866  10.288 -0.2289 -1.5967  2.6740
   57MOL0     H 7835  11.222   6.827  10.167 -1.7480 -1.0958 -0.5551
   57MOL0     H 7836  11.358   6.947  10.335 -1.2356 -1.1553  2.1584
   57MOL0     H 7837  11.210   7.027  10.383 -0.1362 -1.0465 -0.9005
   57MOL0     H 7838  11.350   7.037  10.111 -0.1992  0.0757 -0.1907
   57MOL0     H 7839  11.188   7.090  10.134 -0.1627 -0.0584 -0.3980
   57MOL0     H 7840  11.250   7.256  10.306  0.1459 -1.0414  0.1295
   57MOL0     H 7841  11.315   7.294  10.147 -3.6516 -1.3632 -1.2805
   57MOL0     H 7842  11.534   7.176  10.228  0.2704  0.3238  0.1255
   57MOL0     H 7843  11.453   7.168  10.397 -1.7226 -1.7919 -0.7155
   57MOL0     H 7844  11.459   7.385  10.420 -1.7573 -1.0171 -1.0718
   57MOL0     H 7845  11.464   7.415  10.242 -0.1169 -0.7730 -0.8800
   57MOL0     H 7846  10.948   6.692  10.140 -2.2221  0.8350 -0.4367
   57MOL0     H 7847  10.794   6.568   9.974  1.5959 -0.7985 -0.3024
   57MOL0     H 7848  10.562   6.306   9.820  1.2486 -0.8013  2.4195
   57MOL0     H 7849  10.394   6.238   9.659  0.9866  0.3490  0.1925
   57MOL0     H 7850   9.384   5.425   9.034  1.0203  0.1389  0.7782
   57MOL0     H 7851   9.289   5.194   9.049 -0.5701 -1.0854  0.9672
   57MOL0     H 7852   9.129   4.898   9.356  0.1510 -1.9634 -2.6213
   57MOL0     H 7853   9.064   4.678   9.427  0.9531  2.3003  1.2880
   57MOL0     H 7854   8.854   4.372   9.399 -1.8165  0.7082 -0.9057
   57MOL0     H 7855   8.988   4.482   9.393 -1.3690 -0.2322 -3.8072
   57MOL0     H 7856   8.796   4.433   9.625 -0.9042  0.0692 -0.8820
   57MOL0     H 7857   8.894   4.577   9.616 -3.3681  1.4357 -3.6642
   57MOL0     H 7858   9.096   4.416   9.598 -1.9732  2.1740 -2.4300
   57MOL0     H 7859   9.025   4.402   9.763 -0.2422  0.2239  0.2000
   57MOL0     H 7860   8.983   4.206   9.528  2.1278 -3.0925  1.5281
   57MOL0     H 7861   8.872   4.218   9.669 -0.3958  0.9225  0.0789
   57MOL0     H 7862   9.225   4.022   9.813  0.0826  1.0274  1.5198
   57MOL0     H 7863   8.658   4.760   9.308  0.0175  1.4470 -1.3630
   57MOL0     H 7864   8.663   5.088   9.312 -2.2533 -0.2716 -0.4008
   57MOL0     H 7865   8.710   5.050   9.142  0.8657  0.2137 -0.0592
   57MOL0     H 7866   8.596   4.950   9.235 -0.0343 -0.8768 -0.1092
   58MOL0     O 7867   9.256   8.060   0.701 -0.1075 -0.0518 -0.4746
   58MOL0     C 7868   9.231   8.114   0.590  0.2882  0.2571  0.1602
   58MOL0     O 7869   9.304   8.216   0.528  0.1436 -0.0382  0.1249
   58MOL0     C 7870   9.423   8.246   0.589 -0.0586 -0.5203 -0.6638
   58MOL0     C 7871   9.427   8.363   0.667 -1.0078  1.1201  0.1933
   58MOL0     C 7872   9.540   8.407   0.730  0.4059 -0.1720 -0.1979
   58MOL0     C 7873   9.664   8.342   0.707  0.3816  0.0030 -0.7509
   58MOL0     O 7874   9.784   8.393   0.757 -0.8682 -0.3335  0.0790
   58MOL0     C 7875   9.899   8.411   0.668 -0.4326  0.0723 -0.4318
   58MOL0     C 7876  10.014   8.485   0.736 -0.1692 -0.1778 -0.3039
   58MOL0     C 7877  10.056   8.421   0.876 -0.3842  0.3761  0.3879
   58MOL0     C 7878  10.140   8.299   0.860  0.0401 -0.3310 -0.2277
   58MOL0     C 7879  10.215   8.271   0.987 -0.5463  0.2664 -0.1423
   58MOL0     C 7880  10.311   8.155   0.962  0.8015 -0.1104  0.2826
   58MOL0     C 7881  10.395   8.124   1.081  0.3365 -0.2347 -0.1361
   58MOL0     C 7882  10.335   8.030   1.189  0.3137  0.1079 -0.2384
   58MOL0     N 7883  10.427   8.011   1.299 -0.4984  0.0216  0.8788
   58MOL0     C 7884  10.557   7.971   1.291 -0.3532  0.9218  0.1917
   58MOL0     C 7885  10.603   7.949   1.416  0.0772 -0.9409  0.6759
   58MOL0     C 7886  10.727   7.873   1.441 -0.2569 -0.1333  0.0450
   58MOL0     C 7887  10.698   7.723   1.472 -0.6358  0.2566 -0.1218
   58MOL0     C 7888  10.825   7.648   1.468 -0.5824  0.0048  0.5818
   58MOL0     C 7889  10.901   7.634   1.602  0.5933  0.0466  0.3324
   58MOL0     O 7890  11.001   7.534   1.604  0.3255 -0.6789 -0.0980
   58MOL0     C 7891  11.133   7.561   1.561 -0.0836 -0.3292 -0.3557
   58MOL0     C 7892  11.229   7.471   1.597 -0.4951 -0.3524  0.0255
   58MOL0     C 7893  11.367   7.487   1.570 -0.2918  0.9776 -0.3087
   58MOL0     C 7894  11.457   7.362   1.597  0.1377  0.7111 -0.8311
   58MOL0     C 7895  11.411   7.601   1.511 -0.3241 -0.0080 -0.1155
   58MOL0     C 7896  11.555   7.631   1.492  0.0358 -0.3442 -0.2322
   58MOL0     O 7897  11.592   7.751   1.551  0.4063 -0.2308  0.0392
   58MOL0     C 7898  11.718   7.763   1.600 -0.1695 -0.5364  0.3181
   58MOL0     C 7899  11.757   7.700   1.714  0.2821  0.8703  0.9997
   58MOL0     C 7900  11.893   7.703   1.751 -0.4245  0.0007  0.1267
   58MOL0     C 7901  11.984   7.775   1.674 -0.3805 -0.0873  0.7215
   58MOL0     O 7902  12.119   7.764   1.703  0.6066 -0.1975 -0.2108
   58MOL0     C 7903  12.214   7.717   1.614  0.0798  1.0144  0.1169
   58MOL0     C 7904  12.242   7.568   1.645 -0.2999 -0.4004 -0.0433
   58MOL0     C 7905  12.302   7.511   1.523 -0.1399  0.5120 -0.0336
   58MOL0     C 7906  12.314   7.357   1.542 -1.3739  0.1469  0.2312
   58MOL0     C 7907  12.388   7.286   1.430 -0.3566 -0.4400 -1.0031
   58MOL0     C 7908  12.541   7.309   1.427 -0.1082 -0.1192  0.2686
   58MOL0     C 7909  12.607   7.214   1.321 -0.1412 -0.5305 -0.1688
   58MOL0     C 7910  12.755   7.190   1.328  0.3159  0.0574 -0.5528
   58MOL0    Cl 7911  12.796   7.125   1.489 -0.6913 -0.3017  0.0644
   58MOL0     C 7912  11.938   7.849   1.560  0.1795 -0.9743 -0.0760
   58MOL0     C 7913  11.812   7.838   1.528  0.6961 -0.3918  0.1815
   58MOL0     O 7914  11.637   7.549   1.445 -0.5213  0.1550 -0.3260
   58MOL0     C 7915  11.319   7.691   1.463  0.5522 -0.4795 -0.2309
   58MOL0     C 7916  11.178   7.676   1.494  0.4125  0.5737  0.4414
   58MOL0     N 7917  10.497   7.982   1.498  0.0855 -0.3155 -0.1093
   58MOL0     N 7918  10.392   8.015   1.433 -0.1096 -0.3728  0.1386
   58MOL0     C 7919   9.652   8.222   0.631  0.2558  0.3212 -0.5584
   58MOL0     C 7920   9.536   8.178   0.574  1.0672  0.0966  0.9833
   58MOL0     C 7921   9.100   8.096   0.526  0.1106 -0.3571  0.0183
   58MOL0     C 7922   9.055   8.203   0.443  0.1910  0.1746 -0.1374
   58MOL0     C 7923   8.930   8.189   0.385  0.5744 -0.6219 -0.1345
   58MOL0     C 7924   8.849   8.084   0.407  0.4560  0.3348  0.6185
   58MOL0     O 7925   8.727   8.065   0.349 -0.1075 -0.1435  0.0544
   58MOL0     C 7926   8.635   8.176   0.354 -0.2520  0.8646  0.4515
   58MOL0     C 7927   8.503   8.130   0.287  0.5276  0.1292  0.1084
   58MOL0     C 7928   8.400   8.238   0.285 -0.3903  0.2293 -0.2560
   58MOL0     C 7929   8.266   8.167   0.253  1.0764  0.0393  1.0963
   58MOL0     C 7930   8.155   8.265   0.255 -0.4009 -0.4594  0.8748
   58MOL0     C 7931   8.063   8.340   0.266 -0.6931 -0.6735 -0.0630
   58MOL0     C 7932   8.895   7.973   0.480  0.3336 -0.5425  0.6244
   58MOL0     C 7933   9.016   7.981   0.545  0.2031  1.7789 -0.4575
   58MOL0     C 7934   9.053   7.859   0.622  0.4359 -0.5982 -0.1902
   58MOL0     H 7935   9.336   8.419   0.684 -0.9962  0.5996  2.3356
   58MOL0     H 7936   9.533   8.499   0.786  1.2386  0.0273 -0.4080
   58MOL0     H 7937   9.866   8.470   0.582  0.4918 -0.5501 -1.2414
   58MOL0     H 7938   9.932   8.312   0.635 -0.6737 -0.2491  0.2580
   58MOL0     H 7939  10.099   8.494   0.668  1.5349  0.0181  1.7544
   58MOL0     H 7940   9.987   8.590   0.754  0.5690  0.1993 -1.3243
   58MOL0     H 7941  10.111   8.504   0.922  0.0093  0.7601 -0.7299
   58MOL0     H 7942   9.964   8.403   0.933 -1.8979  0.3975 -1.9362
   58MOL0     H 7943  10.068   8.220   0.836  1.3987 -1.4941 -0.6001
   58MOL0     H 7944  10.211   8.308   0.777 -0.5906  0.2725 -0.7077
   58MOL0     H 7945  10.143   8.244   1.066  0.3719 -1.8447  0.0324
   58MOL0     H 7946  10.263   8.366   1.008 -1.0700  0.7819 -1.2090
   58MOL0     H 7947  10.252   8.069   0.928 -0.7134  0.3103  1.6787
   58MOL0     H 7948  10.371   8.183   0.876 -0.9291  0.3496 -0.8273
   58MOL0     H 7949  10.432   8.209   1.139  1.2374  0.2692 -1.4067
   58MOL0     H 7950  10.479   8.080   1.026  1.3938  1.8518 -0.2731
   58MOL0     H 7951  10.240   8.067   1.229  1.7267  2.6784  0.9849
   58MOL0     H 7952  10.314   7.933   1.145 -0.8526  0.1671  0.1637
   58MOL0     H 7953  10.616   7.946   1.203 -0.5892  0.7254  0.0881
   58MOL0     H 7954  10.783   7.918   1.523  0.6945  0.7549 -1.0664
   58MOL0     H 7955  10.791   7.879   1.352  0.1436  1.8263  0.4265
   58MOL0     H 7956  10.654   7.715   1.572  0.7223  0.7092  0.5277
   58MOL0     H 7957  10.638   7.669   1.398 -1.7001 -0.0273  0.9189
   58MOL0     H 7958  10.796   7.548   1.433 -1.6106  0.4509  0.1280
   58MOL0     H 7959  10.889   7.697   1.393 -2.3686 -0.4171 -1.3006
   58MOL0     H 7960  10.940   7.734   1.621 -0.6752  0.2402  2.2066
   58MOL0     H 7961  10.835   7.608   1.686  1.6686 -1.6277  0.7212
   58MOL0     H 7962  11.198   7.379   1.646  0.1167  0.6454  2.4228
   58MOL0     H 7963  11.411   7.301   1.675  2.4673  1.5607  1.3653
   58MOL0     H 7964  11.551   7.394   1.643 -1.3476  0.6081  2.6194
   58MOL0     H 7965  11.487   7.302   1.510  2.3921  0.0888  0.2909
   58MOL0     H 7966  11.687   7.643   1.775 -0.6923 -0.2256 -1.0190
   58MOL0     H 7967  11.931   7.646   1.835 -0.3643  0.3975  0.3731
   58MOL0     H 7968  12.198   7.742   1.509 -0.8744  2.4280  0.5646
   58MOL0     H 7969  12.300   7.776   1.648 -1.8028  2.9979  1.7251
   58MOL0     H 7970  12.316   7.561   1.725 -0.3102  1.1934  0.1513
   58MOL0     H 7971  12.151   7.516   1.677 -2.0922  0.9624 -2.5081
   58MOL0     H 7972  12.400   7.554   1.507 -1.1475  3.8315  1.8244
   58MOL0     H 7973  12.232   7.520   1.439 -0.0792 -2.9660 -0.6200
   58MOL0     H 7974  12.209   7.334   1.558 -1.9788  0.9860 -2.1663
   58MOL0     H 7975  12.356   7.339   1.642  0.4166  1.6747 -0.1758
   58MOL0     H 7976  12.366   7.180   1.445 -0.9400  0.0782  2.5815
   58MOL0     H 7977  12.354   7.322   1.332  0.6742  4.3660  0.1072
   58MOL0     H 7978  12.587   7.288   1.524 -1.6581  0.8567  1.2819
   58MOL0     H 7979  12.565   7.413   1.404 -0.1855 -0.2729 -0.5079
   58MOL0     H 7980  12.580   7.248   1.220  0.5198  0.1889 -0.1118
   58MOL0     H 7981  12.570   7.112   1.330  0.3757 -1.0261 -2.7393
   58MOL0     H 7982  12.807   7.287   1.323  2.1571 -0.7122  1.9423
   58MOL0     H 7983  12.792   7.119   1.254  0.8722 -2.0557  1.6353
   58MOL0     H 7984  12.012   7.910   1.510  0.0047  0.0612  0.9032
   58MOL0     H 7985  11.782   7.889   1.436  0.4896 -1.9434 -0.6457
   58MOL0     H 7986  11.340   7.784   1.410  1.8661  0.0335  1.1172
   58MOL0     H 7987  11.104   7.751   1.471 -0.7911 -0.1165  1.9051
   58MOL0     H 7988   9.745   8.167   0.619 -0.4459 -1.0935  0.2224
   58MOL0     H 7989   9.546   8.091   0.510 -1.5881  1.5819 -1.6986
   58MOL0     H 7990   9.107   8.292   0.412  0.2419  0.0773 -0.3380
   58MOL0     H 7991   8.900   8.271   0.320  1.5819  0.6543  0.9503
   58MOL0     H 7992   8.626   8.211   0.457  0.0680 -0.0160  0.7904
   58MOL0     H 7993   8.688   8.251   0.294  0.9808 -0.5647 -0.3078
   58MOL0     H 7994   8.456   8.053   0.349 -0.4116 -0.6585 -1.5011
   58MOL0     H 7995   8.507   8.080   0.189  0.1470 -1.2899  0.7908
   58MOL0     H 7996   8.398   8.279   0.386 -0.1052  0.0589 -0.1813
   58MOL0     H 7997   8.423   8.316   0.211  1.3896 -0.1104 -0.1065
   58MOL0     H 7998   8.238   8.082   0.317 -1.7443  1.1480  1.4881
   58MOL0     H 7999   8.287   8.129   0.152 -1.3439  2.4227 -0.4562
   58MOL0     H 8000   7.968   8.389   0.268  0.4294  1.6128  0.2013
   58MOL0     H 8001   8.833   7.884   0.485 -1.6474  0.5374 -2.1443
   58MOL0     H 8002   9.059   7.894   0.725  0.1859  0.6922 -0.5913
   58MOL0     H 8003   8.973   7.785   0.620 -0.4997  0.3584 -2.8295
   58MOL0     H 8004   9.148   7.822   0.582  0.2943  2.0397 -3.4462
   59MOL0     O 8005   1.001   2.251   5.246 -0.1748 -0.2332  0.6295
   59MOL0     C 8006   0.999   2.375   5.253 -0.7082  0.3073 -0.6769
   59MOL0     O 8007   1.109   2.447   5.274  0.0929  0.2388  0.8606
   59MOL0     C 8008   1.225   2.384   5.290 -0.5915  0.1537 -0.7102
   59MOL0     C 8009   1.247   2.330   5.413 -0.6354  1.2784 -0.3508
   59MOL0     C 8010   1.377   2.280   5.442 -0.4142  0.6735 -0.2239
   59MOL0     C 8011   1.482   2.310   5.347 -0.1269 -0.1304 -0.8417
   59MOL0     O 8012   1.611   2.280   5.388  0.6460 -0.0023 -0.4001
   59MOL0     C 8013   1.702   2.381   5.355  0.5168  0.1356  0.3441
   59MOL0     C 8014   1.823   2.348   5.431 -0.0943  0.5829 -0.0279
   59MOL0     C 8015   1.939   2.441   5.384 -1.2954  0.2132 -0.7152
   59MOL0     C 8016   2.071   2.401   5.454 -0.0754 -0.1563 -0.5745
   59MOL0     C 8017   2.186   2.503   5.437 -0.5935 -0.3245 -0.1672
   59MOL0     C 8018   2.311   2.457   5.518 -0.0052  0.2345  0.9409
   59MOL0     C 8019   2.440   2.537   5.485  0.0080 -0.3594 -0.3165
   59MOL0     C 8020   2.568   2.452   5.446  0.3863 -0.8171 -1.0124
   59MOL0     N 8021   2.693   2.527   5.435  0.6472  0.9950  0.3128
   59MOL0     C 8022   2.803   2.485   5.366 -0.7380 -0.4482 -0.1606
   59MOL0     C 8023   2.882   2.591   5.378 -0.8068 -1.1529 -0.1108
   59MOL0     C 8024   3.008   2.597   5.308 -0.0775 -0.2497  0.5396
   59MOL0     C 8025   3.034   2.737   5.236  0.1581 -0.3066 -0.1418
   59MOL0     C 8026   3.122   2.839   5.312 -0.4051  0.3798 -0.8025
   59MOL0     C 8027   3.260   2.794   5.337  0.6340 -0.6004  0.1104
   59MOL0     O 8028   3.336   2.781   5.213  0.1219 -0.4037 -0.4085
   59MOL0     C 8029   3.468   2.732   5.217  0.7144 -0.7205 -0.0650
   59MOL0     C 8030   3.515   2.691   5.103 -0.2087 -1.0327  1.0010
   59MOL0     C 8031   3.643   2.642   5.090 -0.9705 -0.2770 -0.4366
   59MOL0     C 8032   3.692   2.605   4.952  0.9662 -0.4522  0.3389
   59MOL0     C 8033   3.735   2.630   5.207 -0.0111  0.1095 -0.2148
   59MOL0     C 8034   3.874   2.577   5.206  0.0194  0.9796 -0.1612
   59MOL0     O 8035   3.941   2.581   5.332  0.0900  0.7586 -0.3076
   59MOL0     C 8036   4.073   2.548   5.346 -0.5094  0.0186 -0.3578
   59MOL0     C 8037   4.171   2.590   5.253 -0.1644 -0.2807  0.4201
   59MOL0     C 8038   4.303   2.593   5.282 -0.3825  0.7065 -0.7846
   59MOL0     C 8039   4.345   2.535   5.401 -1.2964  0.2731 -0.4803
   59MOL0     O 8040   4.483   2.529   5.420  0.0874  0.4314  0.7615
   59MOL0     C 8041   4.530   2.513   5.558  0.8943 -0.4272 -0.4790
   59MOL0     C 8042   4.534   2.365   5.608  0.2292 -0.2527 -0.5420
   59MOL0     C 8043   4.560   2.356   5.760 -0.4570 -0.2099 -0.8614
   59MOL0     C 8044   4.713   2.374   5.790 -0.5186 -0.1240 -0.4323
   59MOL0     C 8045   4.748   2.373   5.934  0.3909  0.5538 -0.2734
   59MOL0     C 8046   4.735   2.233   5.994 -0.3922 -0.1463  0.6629
   59MOL0     C 8047   4.749   2.236   6.144 -0.6328 -0.4776 -0.4301
   59MOL0     C 8048   4.740   2.092   6.203 -0.0381 -0.4128  0.3469
   59MOL0    Cl 8049   4.882   2.003   6.145  0.0230 -0.0083  0.0430
   59MOL0     C 8050   4.246   2.484   5.498 -0.2099  0.3403  0.2094
   59MOL0     C 8051   4.108   2.490   5.463 -0.3066  0.1533 -1.1480
   59MOL0     O 8052   3.932   2.557   5.097 -0.0069  0.3909  0.1036
   59MOL0     C 8053   3.677   2.677   5.327 -0.5745 -0.2059 -0.8902
   59MOL0     C 8054   3.547   2.716   5.331 -0.8215  0.9510  0.5816
   59MOL0     N 8055   2.823   2.694   5.448  0.2839 -0.3596  0.1901
   59MOL0     N 8056   2.706   2.651   5.483  0.8405 -0.6024 -0.4238
   59MOL0     C 8057   1.454   2.378   5.220  0.6267 -0.4169 -0.4313
   59MOL0     C 8058   1.327   2.407   5.194  0.7203  0.6246  0.3470
   59MOL0     C 8059   0.865   2.428   5.239 -1.1075  0.9611  0.2278
   59MOL0     C 8060   0.754   2.341   5.252 -0.0560  0.0569 -0.3059
   59MOL0     C 8061   0.619   2.377   5.223  0.2522  0.6982 -0.3594
   59MOL0     C 8062   0.593   2.505   5.175  0.3176  0.6724  0.2408
   59MOL0     O 8063   0.458   2.526   5.156 -0.2215  0.0834 -0.5443
   59MOL0     C 8064   0.423   2.666   5.144 -0.3813  0.0723 -0.1642
   59MOL0     C 8065   0.279   2.689   5.124  0.1827 -0.3358 -0.3258
   59MOL0     C 8066   0.252   2.842   5.089 -0.1128 -0.4095  0.6510
   59MOL0     C 8067   0.116   2.865   5.032  0.0828  0.1634 -0.0862
   59MOL0     C 8068   0.000   2.817   5.109 -0.7292  0.2304  0.0397
   59MOL0     C 8069  -0.080   2.770   5.188  0.3012  0.3633 -0.1659
   59MOL0     C 8070   0.704   2.597   5.168 -0.0024  0.4744  0.8675
   59MOL0     C 8071   0.835   2.563   5.198  0.2300  1.1294  0.9574
   59MOL0     C 8072   0.944   2.672   5.183  0.3653  0.0904 -0.3397
   59MOL0     H 8073   1.170   2.314   5.488 -1.2977  2.2086 -0.8028
   59MOL0     H 8074   1.388   2.221   5.533 -0.2092  0.5997 -0.2980
   59MOL0     H 8075   1.673   2.482   5.385  1.5607  0.2785  0.9160
   59MOL0     H 8076   1.733   2.376   5.250  0.5310  1.2922  0.2742
   59MOL0     H 8077   1.809   2.361   5.539  0.0910  1.5328 -0.1045
   59MOL0     H 8078   1.844   2.241   5.427 -2.1384  0.1911 -1.5039
   59MOL0     H 8079   1.954   2.433   5.276 -3.0324 -0.2481 -0.9510
   59MOL0     H 8080   1.913   2.543   5.413 -0.8363 -0.0019  0.5170
   59MOL0     H 8081   2.034   2.384   5.556 -0.7564 -0.8887 -0.9273
   59MOL0     H 8082   2.100   2.305   5.412  2.5874  0.3473 -0.0325
   59MOL0     H 8083   2.155   2.602   5.472 -3.3430 -0.3236 -2.2931
   59MOL0     H 8084   2.227   2.515   5.336  1.8881  2.2477  0.9753
   59MOL0     H 8085   2.298   2.473   5.625  1.2532  2.6953  0.7898
   59MOL0     H 8086   2.332   2.352   5.496 -2.3052 -0.0666 -0.1321
   59MOL0     H 8087   2.466   2.593   5.576  2.8472 -0.5606 -0.9083
   59MOL0     H 8088   2.414   2.599   5.399  1.4062 -1.3707 -1.5175
   59MOL0     H 8089   2.577   2.377   5.525 -0.7672  0.4554  0.3812
   59MOL0     H 8090   2.525   2.400   5.359 -2.5413 -2.5245  1.2422
   59MOL0     H 8091   2.817   2.403   5.296 -1.1616  0.3831 -1.2494
   59MOL0     H 8092   3.001   2.527   5.224 -1.8446 -0.0865  0.5112
   59MOL0     H 8093   3.088   2.571   5.377 -0.4900  3.9496  2.9640
   59MOL0     H 8094   3.090   2.711   5.146 -1.5840 -2.3794 -0.7072
   59MOL0     H 8095   2.941   2.789   5.210 -1.2716 -3.0562 -0.9034
   59MOL0     H 8096   3.134   2.933   5.257  1.3269  1.1686  0.7975
   59MOL0     H 8097   3.066   2.861   5.403  3.4272  0.8195  1.6780
   59MOL0     H 8098   3.298   2.871   5.405 -1.4307  1.9141 -1.3893
   59MOL0     H 8099   3.253   2.694   5.382 -1.4847  0.4240  2.3044
   59MOL0     H 8100   3.452   2.707   5.016 -0.5556  0.2341  1.4685
   59MOL0     H 8101   3.711   2.497   4.952  0.7473 -0.5183 -1.7155
   59MOL0     H 8102   3.788   2.651   4.928  0.7388 -1.2534 -2.3968
   59MOL0     H 8103   3.619   2.642   4.879  4.1235  2.0645 -1.8165
   59MOL0     H 8104   4.141   2.644   5.164  1.8867 -0.3540 -0.3724
   59MOL0     H 8105   4.379   2.645   5.226  2.5942  1.4337  3.4855
   59MOL0     H 8106   4.634   2.549   5.566  0.0828  2.2463 -0.7977
   59MOL0     H 8107   4.463   2.570   5.623  2.1619  1.3972 -0.6931
   59MOL0     H 8108   4.439   2.316   5.590  0.5396 -1.2382  0.4302
   59MOL0     H 8109   4.615   2.309   5.561  1.1291 -1.7187  2.4913
   59MOL0     H 8110   4.525   2.258   5.794  0.0752  0.6886  2.6384
   59MOL0     H 8111   4.506   2.430   5.818 -2.7720 -2.0409 -0.5219
   59MOL0     H 8112   4.741   2.470   5.746  0.1997 -0.6027 -1.0660
   59MOL0     H 8113   4.768   2.293   5.740 -0.5855 -0.3053 -0.2107
   59MOL0     H 8114   4.854   2.398   5.942  0.4430  1.1434 -2.2677
   59MOL0     H 8115   4.686   2.443   5.991  1.7273  0.1544  1.7701
   59MOL0     H 8116   4.810   2.164   5.954 -1.0531 -0.7964  0.5221
   59MOL0     H 8117   4.637   2.188   5.973 -1.7021  2.1967  1.4259
   59MOL0     H 8118   4.666   2.299   6.178  0.5083  1.8004 -1.6031
   59MOL0     H 8119   4.843   2.274   6.187 -1.7156  1.6203  0.1920
   59MOL0     H 8120   4.653   2.031   6.176  1.2592 -1.5728 -1.4624
   59MOL0     H 8121   4.748   2.089   6.312 -2.9442 -2.2854  0.6206
   59MOL0     H 8122   4.273   2.428   5.587  1.3004 -0.3696 -0.6477
   59MOL0     H 8123   4.029   2.460   5.531 -0.1354  2.1918  0.0190
   59MOL0     H 8124   3.723   2.666   5.424 -1.7358 -1.9416 -0.4947
   59MOL0     H 8125   3.510   2.745   5.429  1.1479 -0.8671  1.9647
   59MOL0     H 8126   1.534   2.394   5.148 -1.2189  1.3670 -2.2567
   59MOL0     H 8127   1.300   2.462   5.104 -2.2280  3.0710  2.5183
   59MOL0     H 8128   0.781   2.250   5.306  0.5889  0.6219  0.3538
   59MOL0     H 8129   0.543   2.302   5.238 -1.7894  2.7793  0.3265
   59MOL0     H 8130   0.450   2.714   5.238  1.0058  0.7279 -0.8647
   59MOL0     H 8131   0.483   2.719   5.069  0.1019  1.2175  1.0014
   59MOL0     H 8132   0.216   2.663   5.210  1.5344 -3.5183 -0.1669
   59MOL0     H 8133   0.240   2.623   5.047  1.1180 -0.0607 -1.0512
   59MOL0     H 8134   0.261   2.898   5.182  0.7319 -1.4633  1.2251
   59MOL0     H 8135   0.327   2.885   5.021  1.1897 -1.6061  1.2756
   59MOL0     H 8136   0.119   2.821   4.932  2.2864 -2.7911  1.1647
   59MOL0     H 8137   0.110   2.974   5.024 -1.6204  0.0948 -0.3067
   59MOL0     H 8138  -0.159   2.725   5.246  0.5176  2.9970  2.4391
   59MOL0     H 8139   0.685   2.695   5.127 -0.7488 -1.4516 -4.1737
   59MOL0     H 8140   0.897   2.768   5.160 -1.5620 -1.2703 -2.5127
   59MOL0     H 8141   1.005   2.681   5.273  1.6635 -1.5573 -1.0076
   59MOL0     H 8142   1.004   2.640   5.097 -1.1749  1.4550 -1.9957
   60MOL0     O 8143   2.877   8.802   3.317  0.3667  0.3956  1.0679
   60MOL0     C 8144   2.782   8.719   3.310  0.9944 -0.1328  0.4226
   60MOL0     O 8145   2.674   8.755   3.232 -0.3395  0.1632 -0.1788
   60MOL0     C 8146   2.678   8.860   3.146  0.4384  0.8782 -0.9991
   60MOL0     C 8147   2.655   8.989   3.195  0.5593  0.1418  0.7620
   60MOL0     C 8148   2.663   9.109   3.116 -1.1541  0.1404 -0.0364
   60MOL0     C 8149   2.679   9.079   2.975  0.4615  0.0112 -0.0408
   60MOL0     O 8150   2.684   9.177   2.879  0.0728  0.0021 -0.0106
   60MOL0     C 8151   2.663   9.317   2.915  0.5675 -0.5491 -0.3463
   60MOL0     C 8152   2.679   9.413   2.802  0.9106 -0.2300  0.9547
   60MOL0     C 8153   2.823   9.419   2.750 -0.5004  0.2607  0.0021
   60MOL0     C 8154   2.833   9.546   2.671 -1.3644  0.3525  0.2156
   60MOL0     C 8155   2.986   9.569   2.638  0.0856 -0.8321  0.0362
   60MOL0     C 8156   3.078   9.564   2.762 -0.7327  0.2693  0.1313
   60MOL0     C 8157   3.221   9.617   2.725 -0.4592 -0.2991 -0.2090
   60MOL0     C 8158   3.303   9.501   2.667  0.0729 -0.4611  0.9706
   60MOL0     N 8159   3.440   9.555   2.648 -0.1967 -0.7330  1.0844
   60MOL0     C 8160   3.556   9.485   2.613 -0.1192  0.1993  0.2978
   60MOL0     C 8161   3.652   9.577   2.624 -0.5015  0.3172  1.1619
   60MOL0     C 8162   3.804   9.539   2.616 -0.0251 -0.3553  0.5741
   60MOL0     C 8163   3.876   9.629   2.520  0.3384 -0.0017 -0.1122
   60MOL0     C 8164   4.015   9.583   2.486 -0.2752 -0.1418 -0.8643
   60MOL0     C 8165   4.093   9.701   2.430  0.1186 -0.4354  0.2885
   60MOL0     O 8166   4.220   9.639   2.395  0.8913 -0.0505  0.7056
   60MOL0     C 8167   4.313   9.700   2.317 -0.5816 -0.6740  0.2531
   60MOL0     C 8168   4.306   9.830   2.264 -0.1791 -0.0651 -0.1123
   60MOL0     C 8169   4.410   9.886   2.185  0.6660 -0.5597  0.2716
   60MOL0     C 8170   4.395  10.028   2.134 -0.2225 -0.4912  0.7373
   60MOL0     C 8171   4.508   9.796   2.142 -0.0520  0.5261 -0.1089
   60MOL0     C 8172   4.619   9.843   2.065 -0.0167  0.0233  0.7075
   60MOL0     O 8173   4.635   9.794   1.936 -0.4015 -0.6886  0.0276
   60MOL0     C 8174   4.736   9.849   1.859  0.4684  0.6906  0.4798
   60MOL0     C 8175   4.788   9.978   1.869  0.6335  0.5740  0.5632
   60MOL0     C 8176   4.892  10.019   1.779 -0.2377 -0.3705 -0.5516
   60MOL0     C 8177   4.951   9.926   1.690  1.0533 -0.4704  0.1922
   60MOL0     O 8178   5.063   9.945   1.612 -0.2803 -0.0759 -1.4594
   60MOL0     C 8179   5.192   9.991   1.668  0.3076  0.3027 -0.3495
   60MOL0     C 8180   5.290   9.876   1.669 -1.1542  0.4684  0.0353
   60MOL0     C 8181   5.326   9.833   1.522  0.3117  0.6713 -0.4524
   60MOL0     C 8182   5.394   9.699   1.503  0.7140 -0.2775  0.0406
   60MOL0     C 8183   5.318   9.585   1.575 -0.2543  0.0630 -0.6197
   60MOL0     C 8184   5.411   9.555   1.696  0.7833  0.5697  0.1629
   60MOL0     C 8185   5.353   9.462   1.804  0.7960  0.1388  0.0437
   60MOL0     C 8186   5.380   9.317   1.757  0.6016  0.4030  0.5093
   60MOL0    Cl 8187   5.331   9.188   1.885 -0.3094  0.0885  0.0750
   60MOL0     C 8188   4.894   9.789   1.691 -0.0388  0.3670  0.3727
   60MOL0     C 8189   4.794   9.752   1.772 -0.0412  0.4589 -0.1199
   60MOL0     O 8190   4.699   9.912   2.135 -0.1670  0.2378  0.2721
   60MOL0     C 8191   4.517   9.669   2.188 -0.7444  0.1725  0.6891
   60MOL0     C 8192   4.422   9.623   2.275 -0.2399 -0.0812  0.4379
   60MOL0     N 8193   3.601   9.700   2.655  0.2223  0.0187  0.2729
   60MOL0     N 8194   3.471   9.689   2.668 -0.0896  0.5240 -0.1972
   60MOL0     C 8195   2.684   8.947   2.929  0.2483 -0.5642  0.0967
   60MOL0     C 8196   2.682   8.838   3.013 -0.7619 -0.1884  0.2973
   60MOL0     C 8197   2.777   8.582   3.385 -0.0628  0.4774 -0.0408
   60MOL0     C 8198   2.651   8.524   3.397 -0.8348 -0.5418  0.0337
   60MOL0     C 8199   2.637   8.401   3.451 -0.0037  0.3318  0.0760
   60MOL0     C 8200   2.749   8.331   3.497 -0.2619  0.0421 -0.1117
   60MOL0     O 8201   2.744   8.205   3.545  0.3926 -0.1098  0.3692
   60MOL0     C 8202   2.635   8.157   3.620 -0.3461  0.4563 -0.3956
   60MOL0     C 8203   2.656   8.017   3.664 -0.4584  0.5465  0.1570
   60MOL0     C 8204   2.782   7.995   3.750  0.6763 -1.1185 -0.2887
   60MOL0     C 8205   2.790   7.867   3.836 -0.0619  0.2535  0.5888
   60MOL0     C 8206   2.757   7.745   3.762  0.2625 -0.7001  0.5084
   60MOL0     C 8207   2.702   7.654   3.702  0.4186 -0.8015  0.1502
   60MOL0     C 8208   2.875   8.389   3.488  0.1170  0.0509  0.0695
   60MOL0     C 8209   2.893   8.512   3.427 -0.6593 -0.0511 -0.3106
   60MOL0     C 8210   3.033   8.562   3.417 -0.8020 -0.3210  0.2478
   60MOL0     H 8211   2.626   9.010   3.297  1.7673  0.6753  1.0151
   60MOL0     H 8212   2.642   9.206   3.159  0.7080 -0.2929  2.0356
   60MOL0     H 8213   2.736   9.332   2.995  2.4661  0.4900 -2.2026
   60MOL0     H 8214   2.557   9.318   2.944  0.8013  1.1978  0.5560
   60MOL0     H 8215   2.612   9.381   2.722 -1.3250  1.2697  2.0920
   60MOL0     H 8216   2.648   9.511   2.840  0.5343 -0.8787  2.4062
   60MOL0     H 8217   2.890   9.403   2.835  1.2862 -3.3350 -1.8467
   60MOL0     H 8218   2.850   9.335   2.686 -0.2642 -0.1386  0.6177
   60MOL0     H 8219   2.786   9.550   2.572  3.5634 -2.2044 -2.6416
   60MOL0     H 8220   2.802   9.624   2.741 -3.3544  1.6860 -2.0174
   60MOL0     H 8221   3.009   9.663   2.587  1.0176 -2.4924 -2.8085
   60MOL0     H 8222   3.016   9.495   2.563  1.4083  1.5008 -1.8960
   60MOL0     H 8223   3.041   9.625   2.844  2.5486  0.1409  1.8544
   60MOL0     H 8224   3.089   9.458   2.787 -1.6215  0.7836  3.0106
   60MOL0     H 8225   3.260   9.646   2.823  0.8874  1.0104 -1.0903
   60MOL0     H 8226   3.215   9.704   2.660 -1.3619  0.4679  0.8616
   60MOL0     H 8227   3.307   9.416   2.736 -0.2722 -0.0974  1.4511
   60MOL0     H 8228   3.262   9.470   2.571 -1.9568  1.2831  1.1910
   60MOL0     H 8229   3.576   9.380   2.591  3.2058  1.1663 -2.2906
   60MOL0     H 8230   3.798   9.438   2.572 -1.8210  0.1332 -0.3804
   60MOL0     H 8231   3.849   9.540   2.716 -0.0671  1.4101  0.5957
   60MOL0     H 8232   3.826   9.639   2.423  0.0208 -0.6240 -0.0139
   60MOL0     H 8233   3.886   9.726   2.569 -0.6683 -0.6088  1.3407
   60MOL0     H 8234   4.053   9.551   2.584 -2.0629 -0.3756 -0.2120
   60MOL0     H 8235   4.028   9.516   2.401  0.8855  0.7029 -1.3883
   60MOL0     H 8236   4.043   9.746   2.344 -0.3030  1.4290  1.4673
   60MOL0     H 8237   4.101   9.785   2.499 -1.6415  0.9280 -1.0775
   60MOL0     H 8238   4.227   9.899   2.294 -1.2157 -0.5555 -1.6124
   60MOL0     H 8239   4.293  10.053   2.165  0.3874 -0.2988  2.7436
   60MOL0     H 8240   4.391  10.048   2.027  0.6740  3.9233  1.3547
   60MOL0     H 8241   4.470  10.092   2.180 -3.1867  2.1267  2.2722
   60MOL0     H 8242   4.748  10.047   1.943  0.5186  0.3285  0.7286
   60MOL0     H 8243   4.925  10.122   1.788 -3.3302  0.7182 -0.6340
   60MOL0     H 8244   5.234  10.081   1.622  2.3785  0.9867  2.5857
   60MOL0     H 8245   5.178  10.024   1.772  1.7068  0.8232 -0.3045
   60MOL0     H 8246   5.384   9.897   1.720  0.2534 -0.2812 -2.1287
   60MOL0     H 8247   5.243   9.790   1.718 -0.9039 -0.9044 -2.0080
   60MOL0     H 8248   5.381   9.910   1.468  1.0885 -0.0809 -0.7440
   60MOL0     H 8249   5.230   9.825   1.469  0.5324 -3.0754 -0.5687
   60MOL0     H 8250   5.495   9.707   1.543 -0.1585 -0.3389  2.4280
   60MOL0     H 8251   5.393   9.669   1.398  0.6379 -3.1934  0.7929
   60MOL0     H 8252   5.214   9.603   1.604 -0.8975  1.5673 -3.5071
   60MOL0     H 8253   5.300   9.506   1.502 -2.0312  1.5906 -1.9145
   60MOL0     H 8254   5.439   9.650   1.741  2.7305 -0.0524  0.3321
   60MOL0     H 8255   5.506   9.512   1.664  0.9434  1.1978 -0.2342
   60MOL0     H 8256   5.248   9.484   1.826  1.2007 -0.6047  3.1984
   60MOL0     H 8257   5.417   9.492   1.887 -0.7121 -1.1777  1.7892
   60MOL0     H 8258   5.487   9.303   1.740  0.0097 -1.6232 -2.3546
   60MOL0     H 8259   5.317   9.300   1.669  3.3503 -2.0634 -1.1748
   60MOL0     H 8260   4.934   9.724   1.614  0.1150  2.0888 -1.0684
   60MOL0     H 8261   4.757   9.650   1.768 -0.6059  0.4928  2.6907
   60MOL0     H 8262   4.606   9.611   2.166  0.2389  2.0117 -0.3325
   60MOL0     H 8263   4.449   9.533   2.329 -1.8531 -0.5325  0.5581
   60MOL0     H 8264   2.697   8.942   2.821  1.1718 -0.9433  0.2085
   60MOL0     H 8265   2.709   8.744   2.966 -0.5923  0.7250 -1.5174
   60MOL0     H 8266   2.563   8.574   3.357  0.1656  0.7394 -0.6414
   60MOL0     H 8267   2.536   8.363   3.467  0.0183 -0.6101 -1.7181
   60MOL0     H 8268   2.620   8.208   3.716  0.1176  1.6799 -0.9438
   60MOL0     H 8269   2.545   8.173   3.560 -2.1416 -3.5326  0.9165
   60MOL0     H 8270   2.668   7.949   3.579 -6.0999 -1.6798  0.7313
   60MOL0     H 8271   2.566   7.987   3.718 -0.4096 -1.5704 -0.8545
   60MOL0     H 8272   2.866   7.992   3.681  0.7184 -1.2099 -0.2331
   60MOL0     H 8273   2.782   8.077   3.823 -0.1091 -2.0542  0.8070
   60MOL0     H 8274   2.708   7.869   3.908  0.2638 -0.5078  0.9848
   60MOL0     H 8275   2.888   7.856   3.883  0.7675  1.1898 -0.8248
   60MOL0     H 8276   2.648   7.579   3.647 -3.4623  1.8706 -0.0322
   60MOL0     H 8277   2.952   8.323   3.526 -0.6644 -0.0393  1.5692
   60MOL0     H 8278   3.049   8.629   3.503 -0.9656 -2.5362  2.0873
   60MOL0     H 8279   3.110   8.485   3.412 -0.8975 -0.3855 -0.2879
   60MOL0     H 8280   3.038   8.623   3.326 -1.2244  0.7136  0.8996
   61MOL0     O 8281   8.773  11.181   8.688  0.9634  0.2147 -0.5974
   61MOL0     C 8282   8.725  11.296   8.682  0.0657 -0.9025 -0.0416
   61MOL0     O 8283   8.788  11.413   8.693  0.2312  0.5814 -0.4297
   61MOL0     C 8284   8.928  11.409   8.695 -0.9766  0.0688 -0.0330
   61MOL0     C 8285   9.002  11.510   8.777 -0.3260  0.2247 -1.3086
   61MOL0     C 8286   9.145  11.512   8.787  0.7951 -0.2569  0.7617
   61MOL0     C 8287   9.209  11.428   8.692  0.2396  0.1306  0.2073
   61MOL0     O 8288   9.344  11.416   8.704 -0.5371 -0.1089 -0.0416
   61MOL0     C 8289   9.423  11.418   8.582 -0.4653 -0.2204 -0.7440
   61MOL0     C 8290   9.529  11.532   8.594  0.0368 -0.0816 -0.5986
   61MOL0     C 8291   9.659  11.498   8.672  0.5959  0.0972  0.5321
   61MOL0     C 8292   9.712  11.352   8.632 -0.3862  0.2652 -0.0720
   61MOL0     C 8293   9.849  11.341   8.676  0.2317 -0.0381  0.7840
   61MOL0     C 8294   9.859  11.342   8.825  0.0725  0.1862 -0.2770
   61MOL0     C 8295  10.002  11.325   8.870 -0.3143 -0.1365 -0.3824
   61MOL0     C 8296  10.089  11.449   8.849 -0.4142 -0.7483 -0.3756
   61MOL0     N 8297  10.231  11.423   8.888 -0.4304 -0.7358 -0.1438
   61MOL0     C 8298  10.290  11.439   9.009  0.7294 -0.7278 -0.6038
   61MOL0     C 8299  10.418  11.408   8.983  0.4509  0.3757  0.1621
   61MOL0     C 8300  10.538  11.417   9.073  0.4803  0.9617 -0.6074
   61MOL0     C 8301  10.571  11.564   9.100 -0.1830 -0.6517  0.0799
   61MOL0     C 8302  10.711  11.577   9.176  0.3371 -0.3753  0.6393
   61MOL0     C 8303  10.764  11.710   9.134  0.3197 -0.0119 -0.0579
   61MOL0     O 8304  10.878  11.747   9.219  0.7174  0.7410 -0.2255
   61MOL0     C 8305  11.001  11.718   9.168  0.3720  0.2348  0.1624
   61MOL0     C 8306  11.073  11.596   9.188 -0.6457 -0.4513 -0.4415
   61MOL0     C 8307  11.204  11.578   9.136  0.0854  0.8137 -0.1242
   61MOL0     C 8308  11.255  11.444   9.169 -0.0880  0.8087  0.9591
   61MOL0     C 8309  11.266  11.687   9.084  0.0435 -0.2218  0.3858
   61MOL0     C 8310  11.405  11.687   9.024 -0.4530 -0.5416 -0.0138
   61MOL0     O 8311  11.463  11.567   8.998 -0.5088  0.0634  0.6405
   61MOL0     C 8312  11.595  11.576   8.951 -0.6580 -0.0941 -0.7188
   61MOL0     C 8313  11.697  11.596   9.046 -0.3332  0.9453  0.1388
   61MOL0     C 8314  11.835  11.608   9.011  0.1863 -0.1718 -0.5813
   61MOL0     C 8315  11.863  11.604   8.873 -0.0392  0.3762  1.0834
   61MOL0     O 8316  11.991  11.621   8.823 -0.0936 -0.0814 -0.2232
   61MOL0     C 8317  12.046  11.502   8.765 -0.1758 -0.1664  0.5633
   61MOL0     C 8318  12.143  11.547   8.653 -0.4842 -0.1520  0.5308
   61MOL0     C 8319  12.178  11.429   8.562 -0.3254 -0.2450 -0.2577
   61MOL0     C 8320  12.321  11.383   8.566  0.1827  0.3116  0.0807
   61MOL0     C 8321  12.356  11.283   8.468  1.1238 -0.1616  0.5792
   61MOL0     C 8322  12.500  11.241   8.496  0.0150 -0.4982  0.9411
   61MOL0     C 8323  12.592  11.239   8.372  0.0062 -0.8424  0.4821
   61MOL0     C 8324  12.735  11.194   8.405  0.5210  0.1347  0.3230
   61MOL0    Cl 8325  12.826  11.315   8.498 -0.3205 -0.0674 -0.1058
   61MOL0     C 8326  11.763  11.586   8.773 -0.1404 -1.4446  0.0564
   61MOL0     C 8327  11.630  11.577   8.813  0.6988 -1.0755  0.5547
   61MOL0     O 8328  11.461  11.800   9.007 -0.0189  0.3245 -0.1670
   61MOL0     C 8329  11.198  11.806   9.064  0.1252 -0.0062  0.3079
   61MOL0     C 8330  11.068  11.821   9.101 -0.3872  0.5600 -0.5895
   61MOL0     N 8331  10.428  11.369   8.854 -0.5423  0.9748  0.3557
   61MOL0     N 8332  10.320  11.371   8.794  0.1812  0.0628  0.1487
   61MOL0     C 8333   9.140  11.345   8.603 -0.5521  0.4383  0.1435
   61MOL0     C 8334   9.001  11.327   8.608  0.1635 -1.3231  0.8081
   61MOL0     C 8335   8.578  11.309   8.666 -0.2428  0.2376 -0.0865
   61MOL0     C 8336   8.505  11.384   8.764 -0.0337 -1.0066 -0.0708
   61MOL0     C 8337   8.367  11.389   8.758 -0.3975 -0.1009  0.1255
   61MOL0     C 8338   8.299  11.341   8.647 -0.4469 -0.0953  0.3553
   61MOL0     O 8339   8.161  11.350   8.642 -0.4792  0.7075 -1.1027
   61MOL0     C 8340   8.088  11.352   8.517 -0.4696 -0.2179  0.3129
   61MOL0     C 8341   7.941  11.394   8.516 -0.2093 -0.5492  0.0530
   61MOL0     C 8342   7.850  11.300   8.588 -0.6671  0.0350  0.1812
   61MOL0     C 8343   7.703  11.342   8.545 -0.0513 -0.0978  0.2095
   61MOL0     C 8344   7.655  11.275   8.424 -0.1828  0.3527  0.0794
   61MOL0     C 8345   7.621  11.217   8.325 -0.1311  0.3039  0.6709
   61MOL0     C 8346   8.376  11.267   8.550 -0.1295  0.2642  0.1766
   61MOL0     C 8347   8.508  11.251   8.561 -0.1131 -1.1605  0.4604
   61MOL0     C 8348   8.571  11.155   8.459 -0.8548 -0.4640  0.1535
   61MOL0     H 8349   8.945  11.572   8.845 -0.4610  1.5317 -2.5768
   61MOL0     H 8350   9.205  11.579   8.847  0.9991  1.9410 -1.7235
   61MOL0     H 8351   9.365  11.444   8.493 -0.0734  0.5298 -0.7807
   61MOL0     H 8352   9.463  11.317   8.573 -0.3189 -0.8722  4.2542
   61MOL0     H 8353   9.539  11.562   8.489  0.9514  0.0721 -0.4717
   61MOL0     H 8354   9.483  11.611   8.654 -1.6198 -1.6935  0.3794
   61MOL0     H 8355   9.728  11.575   8.635 -1.6874  0.9278 -2.3508
   61MOL0     H 8356   9.650  11.507   8.781  0.0073  0.9759  0.4192
   61MOL0     H 8357   9.641  11.283   8.679 -0.7514 -0.6951 -1.9601
   61MOL0     H 8358   9.709  11.337   8.524  3.6442  1.1315 -0.4381
   61MOL0     H 8359   9.908  11.418   8.625 -0.8535 -0.8850 -1.9605
   61MOL0     H 8360   9.892  11.244   8.649  2.2215  1.1909 -0.8109
   61MOL0     H 8361   9.816  11.435   8.865 -0.9002  0.4509 -1.8429
   61MOL0     H 8362   9.813  11.250   8.863 -0.9034  0.5339 -0.5773
   61MOL0     H 8363  10.048  11.244   8.812 -2.2712 -1.8496  0.3024
   61MOL0     H 8364  10.014  11.292   8.973 -1.6468 -0.5562 -0.3351
   61MOL0     H 8365  10.073  11.495   8.751  0.6108  1.9470  0.6349
   61MOL0     H 8366  10.047  11.521   8.920  1.6215 -1.8216  2.0685
   61MOL0     H 8367  10.243  11.477   9.099 -0.9502 -1.2930 -1.1835
   61MOL0     H 8368  10.628  11.378   9.025  0.6626 -0.8381  1.0694
   61MOL0     H 8369  10.528  11.360   9.166  0.7847 -0.3592 -1.3535
   61MOL0     H 8370  10.581  11.615   9.004  0.7960 -0.2478  0.3804
   61MOL0     H 8371  10.493  11.616   9.157  1.0747  3.8584 -1.8636
   61MOL0     H 8372  10.696  11.575   9.284  0.8486 -0.7847  0.7034
   61MOL0     H 8373  10.783  11.499   9.148  0.3367  0.4978 -2.0621
   61MOL0     H 8374  10.782  11.707   9.026 -1.8489 -0.7699 -0.4482
   61MOL0     H 8375  10.688  11.783   9.163 -1.4555 -1.7349 -0.2035
   61MOL0     H 8376  11.017  11.523   9.245 -2.2216  0.2465 -1.0292
   61MOL0     H 8377  11.221  11.379   9.088  0.9790  0.8580  0.4613
   61MOL0     H 8378  11.229  11.413   9.271  0.4262 -1.1983  0.5304
   61MOL0     H 8379  11.364  11.436   9.175 -0.0075 -0.4407 -1.0542
   61MOL0     H 8380  11.670  11.587   9.151 -0.7573 -0.3183 -0.0519
   61MOL0     H 8381  11.900  11.616   9.097 -1.0865 -0.3041  0.4371
   61MOL0     H 8382  12.104  11.438   8.832  3.0264  0.6512 -1.2220
   61MOL0     H 8383  11.964  11.435   8.736 -1.6991  0.9348  2.1311
   61MOL0     H 8384  12.100  11.629   8.593  1.3888  1.7083  1.5659
   61MOL0     H 8385  12.231  11.596   8.696  0.7250  0.5602 -2.4707
   61MOL0     H 8386  12.154  11.461   8.460 -1.4562 -0.1455  0.0287
   61MOL0     H 8387  12.111  11.344   8.576 -0.3294 -0.3634 -0.9576
   61MOL0     H 8388  12.345  11.353   8.668 -0.8119  2.0886  0.8825
   61MOL0     H 8389  12.384  11.470   8.545 -0.2130  0.4265 -0.6944
   61MOL0     H 8390  12.276  11.209   8.480  0.4639 -0.2368 -3.0250
   61MOL0     H 8391  12.344  11.311   8.363 -1.1922 -0.7895  0.6134
   61MOL0     H 8392  12.496  11.136   8.525 -1.4505 -1.0259 -1.0032
   61MOL0     H 8393  12.551  11.297   8.575  1.1466  1.3854 -1.0180
   61MOL0     H 8394  12.596  11.344   8.343  1.1020 -1.1226 -0.4531
   61MOL0     H 8395  12.551  11.178   8.291  0.3359 -0.1102 -0.2460
   61MOL0     H 8396  12.786  11.167   8.312 -0.8977 -2.4204  0.1943
   61MOL0     H 8397  12.731  11.096   8.454  1.5005  0.2781  0.7182
   61MOL0     H 8398  11.792  11.586   8.669 -0.2834 -0.9169  0.0106
   61MOL0     H 8399  11.556  11.561   8.736  3.2511 -4.0455 -1.5021
   61MOL0     H 8400  11.248  11.892   9.021 -1.5893  0.3841 -1.0040
   61MOL0     H 8401  11.021  11.917   9.083 -1.7577  0.1071  0.3819
   61MOL0     H 8402   9.187  11.282   8.528 -2.7927 -2.1289  0.7698
   61MOL0     H 8403   8.959  11.253   8.541 -3.6074  0.5818  0.7994
   61MOL0     H 8404   8.542  11.442   8.849 -2.2063  4.0878 -2.1478
   61MOL0     H 8405   8.311  11.446   8.831  0.1342  3.4142 -1.9863
   61MOL0     H 8406   8.139  11.416   8.444  0.7869  0.2023  1.5249
   61MOL0     H 8407   8.096  11.252   8.474 -0.3898 -0.3934  0.7278
   61MOL0     H 8408   7.927  11.399   8.408  3.5058 -3.0346 -0.7228
   61MOL0     H 8409   7.939  11.498   8.552 -0.6467  0.2170 -2.0357
   61MOL0     H 8410   7.860  11.195   8.560  0.0419  0.2223 -0.3026
   61MOL0     H 8411   7.860  11.315   8.696  0.9214 -3.3783  0.6474
   61MOL0     H 8412   7.695  11.451   8.544  1.7434  0.0714 -1.2915
   61MOL0     H 8413   7.634  11.307   8.622  1.2971  0.7206  1.8678
   61MOL0     H 8414   7.584  11.156   8.246  2.3926 -2.5761  1.5310
   61MOL0     H 8415   8.332  11.214   8.466  0.2352  0.2916 -0.0314
   61MOL0     H 8416   8.525  11.162   8.360 -1.5950  3.0107  0.6128
   61MOL0     H 8417   8.673  11.185   8.435 -1.7504  1.3643 -1.6965
   61MOL0     H 8418   8.573  11.053   8.497  0.6444  0.4518  2.8437
   62MOL0     O 8419   8.618   5.566   4.295 -0.4646 -0.3049  0.5668
   62MOL0     C 8420   8.610   5.544   4.419  0.0937 -0.7087 -0.5013
   62MOL0     O 8421   8.719   5.527   4.504  0.6891 -0.6432  0.8791
   62MOL0     C 8422   8.850   5.518   4.455  0.2801 -0.1758 -0.7692
   62MOL0     C 8423   8.889   5.453   4.337  0.0858 -0.0069 -0.9719
   62MOL0     C 8424   9.024   5.454   4.300  0.2226  0.2057  0.7294
   62MOL0     C 8425   9.122   5.527   4.372 -0.0791 -0.1891 -0.3558
   62MOL0     O 8426   9.256   5.540   4.344  0.0652  0.2198 -0.0595
   62MOL0     C 8427   9.306   5.460   4.234 -0.5739 -0.1078 -0.3302
   62MOL0     C 8428   9.457   5.455   4.234 -0.2671 -0.3755 -0.4737
   62MOL0     C 8429   9.507   5.371   4.362 -0.6480  0.1763 -0.9031
   62MOL0     C 8430   9.662   5.415   4.377 -0.6524 -0.7559  0.3803
   62MOL0     C 8431   9.756   5.357   4.270 -0.6036  0.7374 -0.1691
   62MOL0     C 8432   9.895   5.422   4.269  0.2185  0.2286 -0.0227
   62MOL0     C 8433   9.979   5.396   4.402  0.3188 -0.1648 -1.3378
   62MOL0     C 8434  10.118   5.464   4.376  0.2648 -0.6152  0.1421
   62MOL0     N 8435  10.196   5.443   4.496 -0.1350  0.5777  1.1873
   62MOL0     C 8436  10.187   5.515   4.613 -0.2260 -0.8168 -0.4378
   62MOL0     C 8437  10.311   5.509   4.667 -0.2330 -0.7409 -0.4603
   62MOL0     C 8438  10.352   5.590   4.799  0.5877  0.5676 -0.4095
   62MOL0     C 8439  10.466   5.690   4.774 -0.1053 -0.2382  0.1354
   62MOL0     C 8440  10.490   5.775   4.895  0.2617  0.2682 -0.8412
   62MOL0     C 8441  10.607   5.881   4.889  0.2624 -0.1338 -0.1663
   62MOL0     O 8442  10.730   5.811   4.896 -0.2459  0.1905 -0.1118
   62MOL0     C 8443  10.843   5.883   4.879 -0.0849  0.3777  0.2996
   62MOL0     C 8444  10.943   5.814   4.835 -0.4370  0.7859  0.5673
   62MOL0     C 8445  11.075   5.871   4.812  0.3170 -0.2356  0.1324
   62MOL0     C 8446  11.197   5.775   4.790 -0.9747  0.1468 -0.4592
   62MOL0     C 8447  11.093   6.010   4.833 -0.2210 -0.3235 -0.0023
   62MOL0     C 8448  11.224   6.087   4.833  0.1891  1.0363 -0.2317
   62MOL0     O 8449  11.210   6.223   4.811  0.1301 -0.4144  0.2109
   62MOL0     C 8450  11.319   6.295   4.860  0.4363  0.1150 -0.1985
   62MOL0     C 8451  11.324   6.345   4.990  0.1452  1.0771  0.3357
   62MOL0     C 8452  11.426   6.437   5.025  0.4528  0.1456  0.3669
   62MOL0     C 8453  11.524   6.476   4.933 -0.4561  0.0907  0.2319
   62MOL0     O 8454  11.629   6.544   4.979 -0.6543 -0.0108 -0.0983
   62MOL0     C 8455  11.747   6.516   4.907 -0.6002 -0.2172 -0.0774
   62MOL0     C 8456  11.870   6.559   4.990  1.0902 -0.2327  0.3676
   62MOL0     C 8457  11.993   6.475   4.962 -1.2607  0.7272  0.2742
   62MOL0     C 8458  12.111   6.534   5.037 -0.3060  0.7174  0.2382
   62MOL0     C 8459  12.227   6.428   5.011 -0.0987 -0.4365  1.0425
   62MOL0     C 8460  12.341   6.469   5.105 -0.4650  0.6027  0.2344
   62MOL0     C 8461  12.473   6.401   5.068  0.3360 -0.1165 -0.1635
   62MOL0     C 8462  12.598   6.455   5.133  0.0963  0.4609 -0.0026
   62MOL0    Cl 8463  12.547   6.519   5.291  0.1082  0.1373 -0.0039
   62MOL0     C 8464  11.518   6.413   4.803 -0.2904 -0.3696 -0.4929
   62MOL0     C 8465  11.422   6.322   4.774  0.3346 -1.0842  0.1205
   62MOL0     O 8466  11.336   6.030   4.857  0.3749 -0.0667  0.1382
   62MOL0     C 8467  10.981   6.090   4.873 -0.0272  0.6408 -0.7922
   62MOL0     C 8468  10.864   6.023   4.900  0.4550  0.1367  0.0875
   62MOL0     N 8469  10.388   5.423   4.592 -0.2027 -0.9201 -0.0867
   62MOL0     N 8470  10.319   5.394   4.489 -0.4735  0.0265  0.2840
   62MOL0     C 8471   9.081   5.586   4.490 -0.1988  0.0829 -1.0133
   62MOL0     C 8472   8.947   5.579   4.531  0.2785 -0.1482  0.3942
   62MOL0     C 8473   8.473   5.540   4.473 -0.7024 -0.1549  0.3468
   62MOL0     C 8474   8.460   5.507   4.613  0.7455  0.1344  0.2267
   62MOL0     C 8475   8.337   5.477   4.669 -0.8112  0.1932 -0.5836
   62MOL0     C 8476   8.220   5.501   4.599 -0.0903  0.6603 -0.1518
   62MOL0     O 8477   8.104   5.480   4.670 -0.1970 -0.4023  0.1097
   62MOL0     C 8478   7.995   5.566   4.639 -0.1700  0.1667  0.5687
   62MOL0     C 8479   7.915   5.615   4.753 -0.5841 -0.1703 -0.0152
   62MOL0     C 8480   7.890   5.513   4.865  0.8676  0.5267 -0.0575
   62MOL0     C 8481   7.848   5.366   4.832 -0.3492 -0.4597 -0.1060
   62MOL0     C 8482   7.707   5.355   4.781 -0.1818 -0.2429  0.3915
   62MOL0     C 8483   7.597   5.365   4.728 -0.4075 -0.6800  0.6629
   62MOL0     C 8484   8.225   5.540   4.465 -0.2686  0.3149 -0.0364
   62MOL0     C 8485   8.354   5.555   4.403 -0.0494 -1.1591 -0.4744
   62MOL0     C 8486   8.349   5.621   4.269 -0.1101 -0.7322  0.4245
   62MOL0     H 8487   8.814   5.403   4.277  0.1331 -2.1964  0.6855
   62MOL0     H 8488   9.059   5.389   4.221  0.0154  0.7467  0.1796
   62MOL0     H 8489   9.258   5.500   4.145 -1.2717 -0.8805 -0.3149
   62MOL0     H 8490   9.272   5.356   4.240 -1.0003 -0.2495 -3.4667
   62MOL0     H 8491   9.477   5.397   4.144 -1.4502 -1.4130 -0.0936
   62MOL0     H 8492   9.500   5.555   4.221  0.3108 -0.8800 -2.9438
   62MOL0     H 8493   9.455   5.396   4.455 -0.0980  0.2809 -0.6198
   62MOL0     H 8494   9.514   5.264   4.339  0.1039 -0.0550  0.3026
   62MOL0     H 8495   9.671   5.524   4.379 -0.6416 -0.7599  0.5327
   62MOL0     H 8496   9.707   5.377   4.469  1.3094 -0.9085 -0.5915
   62MOL0     H 8497   9.712   5.387   4.175  0.0420  0.2114 -0.6423
   62MOL0     H 8498   9.767   5.248   4.272  5.9686  1.0094  1.1745
   62MOL0     H 8499   9.950   5.386   4.182  2.8246  0.2738  1.5029
   62MOL0     H 8500   9.885   5.531   4.264  1.6697  0.3638 -0.7254
   62MOL0     H 8501   9.979   5.291   4.433  0.2333  0.2223  0.0339
   62MOL0     H 8502   9.934   5.453   4.484  1.4619 -0.9651 -0.1193
   62MOL0     H 8503  10.165   5.410   4.293  0.5891 -2.7506  1.6392
   62MOL0     H 8504  10.109   5.569   4.350 -0.3550 -0.7804 -0.3436
   62MOL0     H 8505  10.101   5.553   4.667  1.5544 -0.2143  2.1379
   62MOL0     H 8506  10.396   5.515   4.865  1.6922  1.8069  0.3334
   62MOL0     H 8507  10.270   5.645   4.847  0.7328 -0.2469  0.8152
   62MOL0     H 8508  10.559   5.640   4.747 -0.8851 -0.0193 -3.3870
   62MOL0     H 8509  10.437   5.751   4.688  1.5922  0.9021  0.3155
   62MOL0     H 8510  10.398   5.830   4.916  1.0996  2.0949 -1.7193
   62MOL0     H 8511  10.493   5.707   4.981 -2.3057 -0.6458 -1.3929
   62MOL0     H 8512  10.601   5.944   4.799  1.0234  0.3161  0.0870
   62MOL0     H 8513  10.602   5.946   4.976  1.6054 -1.9699  1.3734
   62MOL0     H 8514  10.918   5.709   4.827 -1.1164  0.9798  0.0377
   62MOL0     H 8515  11.156   5.690   4.736 -0.0968  1.1459 -2.8092
   62MOL0     H 8516  11.241   5.745   4.886  1.7732  0.6602 -1.4769
   62MOL0     H 8517  11.277   5.821   4.731  0.0703 -0.5872  0.3585
   62MOL0     H 8518  11.247   6.311   5.059  0.9343 -0.4680  0.4830
   62MOL0     H 8519  11.419   6.487   5.121 -0.2153  0.3931  0.1966
   62MOL0     H 8520  11.759   6.410   4.885 -2.4323 -0.5879  0.5730
   62MOL0     H 8521  11.743   6.569   4.811 -2.2889  0.6277  0.4242
   62MOL0     H 8522  11.903   6.662   4.973 -0.3682  0.1418 -0.3332
   62MOL0     H 8523  11.840   6.544   5.094 -4.6061 -1.8620 -1.1726
   62MOL0     H 8524  12.014   6.482   4.855  3.7292  2.5660  1.0721
   62MOL0     H 8525  11.978   6.370   4.985 -0.8256  0.8036  0.9504
   62MOL0     H 8526  12.092   6.540   5.145 -2.9888 -1.4949 -0.0030
   62MOL0     H 8527  12.149   6.627   4.994  4.5223 -0.0069  2.3089
   62MOL0     H 8528  12.198   6.324   5.031 -0.8095 -0.1190  1.6751
   62MOL0     H 8529  12.254   6.426   4.905 -1.5594 -2.2054  0.6530
   62MOL0     H 8530  12.310   6.441   5.206  0.4597  2.5682  1.1290
   62MOL0     H 8531  12.362   6.576   5.091  1.7244  0.2265  0.2949
   62MOL0     H 8532  12.492   6.414   4.961 -0.5508 -0.0886 -0.3302
   62MOL0     H 8533  12.466   6.294   5.086  3.0720 -0.2195  0.6457
   62MOL0     H 8534  12.629   6.539   5.070  2.9366 -0.8741 -0.5358
   62MOL0     H 8535  12.675   6.378   5.143 -0.2164  0.2228  0.6166
   62MOL0     H 8536  11.591   6.442   4.729  1.3283  1.8150  1.8139
   62MOL0     H 8537  11.431   6.281   4.673  2.1187 -0.0932 -0.1758
   62MOL0     H 8538  10.979   6.198   4.886 -2.4556  0.3753  2.1783
   62MOL0     H 8539  10.767   6.065   4.926  0.0189  0.0024 -1.2369
   62MOL0     H 8540   9.163   5.631   4.545 -2.1696  0.9188  1.3932
   62MOL0     H 8541   8.911   5.621   4.624 -0.4695 -1.9686  0.9700
   62MOL0     H 8542   8.546   5.503   4.679  1.6192  2.2559 -0.6948
   62MOL0     H 8543   8.322   5.455   4.774 -1.7637  3.6086  0.1332
   62MOL0     H 8544   8.021   5.654   4.580  0.5386  0.1507  0.8533
   62MOL0     H 8545   7.928   5.514   4.569 -0.9068  0.8291  0.7640
   62MOL0     H 8546   7.820   5.652   4.712 -1.2852 -1.3463  0.4959
   62MOL0     H 8547   7.962   5.706   4.791 -0.4565 -0.8380  1.4649
   62MOL0     H 8548   7.988   5.507   4.914  0.4534  0.3539  0.7791
   62MOL0     H 8549   7.825   5.560   4.940  2.6543  0.0481  1.8848
   62MOL0     H 8550   7.864   5.296   4.915  2.0903 -3.0558 -2.5135
   62MOL0     H 8551   7.923   5.330   4.760  2.7184  2.8239  1.1202
   62MOL0     H 8552   7.506   5.374   4.672  0.6603  0.7761 -0.9601
   62MOL0     H 8553   8.132   5.559   4.410  0.2495  1.1264 -0.6706
   62MOL0     H 8554   8.249   5.665   4.259 -0.5484 -1.6584  0.6173
   62MOL0     H 8555   8.415   5.709   4.270  0.0624 -0.8589  0.2557
   62MOL0     H 8556   8.383   5.554   4.190 -0.4653  0.2557 -0.6102
   63MOL0     O 8557   8.986  10.798   4.797 -0.4116 -0.4555  0.3790
   63MOL0     C 8558   9.025  10.797   4.915  0.1299 -0.6778  0.5165
   63MOL0     O 8559   9.142  10.762   4.967 -0.1088 -0.4846 -0.0463
   63MOL0     C 8560   9.244  10.702   4.900  0.4753 -0.2482  0.0365
   63MOL0     C 8561   9.270  10.730   4.767 -0.2384 -0.3633 -0.4763
   63MOL0     C 8562   9.370  10.663   4.694 -0.1323  0.3781 -0.1547
   63MOL0     C 8563   9.439  10.558   4.760  0.3433 -0.1205  0.1523
   63MOL0     O 8564   9.535  10.478   4.707  0.1816  0.5355  0.0459
   63MOL0     C 8565   9.579  10.501   4.572  0.6380  0.3078 -0.1127
   63MOL0     C 8566   9.685  10.399   4.525  0.0066 -0.3637 -0.0976
   63MOL0     C 8567   9.807  10.375   4.615 -0.2828 -0.1932 -0.7052
   63MOL0     C 8568   9.876  10.239   4.585 -0.2045  0.5938 -0.2295
   63MOL0     C 8569   9.976  10.200   4.693  1.0281  0.0608  1.0077
   63MOL0     C 8570  10.079  10.306   4.698 -0.3296  0.6511 -0.3625
   63MOL0     C 8571  10.198  10.249   4.782  0.2418  0.1951 -0.6058
   63MOL0     C 8572  10.283  10.159   4.688  0.3049  0.2367 -0.0991
   63MOL0     N 8573  10.420  10.146   4.730 -0.1133 -0.2317 -0.2787
   63MOL0     C 8574  10.506  10.251   4.757 -0.6195 -0.0934 -0.0446
   63MOL0     C 8575  10.626  10.193   4.785 -0.5387  0.2562  0.3017
   63MOL0     C 8576  10.751  10.272   4.808  0.9870 -0.2098 -0.1240
   63MOL0     C 8577  10.843  10.264   4.690  0.4088 -0.1232  0.1971
   63MOL0     C 8578  10.949  10.381   4.717  0.7520  0.0085 -0.2229
   63MOL0     C 8579  11.063  10.359   4.622  0.6549 -0.7642 -0.2866
   63MOL0     O 8580  11.174  10.456   4.645  0.8425  0.0258 -0.2415
   63MOL0     C 8581  11.285  10.450   4.570  0.2286  0.0334  0.5673
   63MOL0     C 8582  11.371  10.558   4.589 -0.1802  0.3450  0.0628
   63MOL0     C 8583  11.487  10.576   4.511  0.4743 -0.1317 -0.2525
   63MOL0     C 8584  11.565  10.693   4.547 -0.1917  0.6325  0.8304
   63MOL0     C 8585  11.517  10.484   4.406  0.3516  0.3754  0.2205
   63MOL0     C 8586  11.630  10.494   4.320  0.0540  0.5740 -0.2471
   63MOL0     O 8587  11.596  10.445   4.197  0.0043 -0.0997 -0.0673
   63MOL0     C 8588  11.694  10.450   4.101  0.0051  0.3243 -0.6059
   63MOL0     C 8589  11.699  10.570   4.029  0.4283 -0.0637 -0.5542
   63MOL0     C 8590  11.784  10.587   3.918  1.0777  0.5182  0.4496
   63MOL0     C 8591  11.871  10.482   3.882 -0.2352  0.6868  0.4373
   63MOL0     O 8592  11.962  10.486   3.777 -0.0433  0.0223  0.1491
   63MOL0     C 8593  11.960  10.584   3.680  0.0100  0.2953 -0.6458
   63MOL0     C 8594  12.009  10.526   3.548 -1.1984 -0.4363 -0.1590
   63MOL0     C 8595  12.131  10.421   3.567 -0.4385 -0.7878 -0.9663
   63MOL0     C 8596  12.204  10.421   3.429 -0.7152 -1.5528 -0.0404
   63MOL0     C 8597  12.298  10.301   3.406  0.6691  0.5150 -0.7796
   63MOL0     C 8598  12.358  10.298   3.271  0.5755 -0.2478 -0.3474
   63MOL0     C 8599  12.436  10.169   3.267  0.4097 -0.2554 -0.0520
   63MOL0     C 8600  12.574  10.174   3.205  0.1486 -0.0729 -0.7204
   63MOL0    Cl 8601  12.656  10.017   3.230 -0.1079  0.3291 -0.5417
   63MOL0     C 8602  11.857  10.354   3.938  0.5669  0.4239 -0.3394
   63MOL0     C 8603  11.777  10.340   4.058 -0.4473  0.0448  0.7697
   63MOL0     O 8604  11.743  10.529   4.347  0.4711 -0.9669  0.7948
   63MOL0     C 8605  11.434  10.370   4.393  0.0976  0.9698  0.3244
   63MOL0     C 8606  11.321  10.352   4.478  0.1808 -0.0761  0.4112
   63MOL0     N 8607  10.602  10.051   4.787 -0.0795  0.3482 -0.1703
   63MOL0     N 8608  10.480  10.031   4.750 -0.2975  0.3643 -0.1409
   63MOL0     C 8609   9.411  10.523   4.894  0.7611  0.8761  0.5181
   63MOL0     C 8610   9.318  10.603   4.966 -0.2736  0.4243  0.9102
   63MOL0     C 8611   8.925  10.861   5.011 -0.4626  0.8761  0.0536
   63MOL0     C 8612   8.980  10.900   5.132 -0.2391  0.5143 -1.0201
   63MOL0     C 8613   8.896  10.950   5.239 -0.3128  1.3612  0.0533
   63MOL0     C 8614   8.756  10.944   5.219  0.1258 -0.6948 -0.2914
   63MOL0     O 8615   8.674  10.974   5.325 -0.2983 -0.0828 -0.2398
   63MOL0     C 8616   8.604  11.096   5.304 -0.5428 -0.0656 -0.1458
   63MOL0     C 8617   8.551  11.126   5.444 -0.9501 -0.5140  0.4198
   63MOL0     C 8618   8.472  11.010   5.506 -0.2394  0.2258 -0.7172
   63MOL0     C 8619   8.333  10.992   5.438  0.0053  0.2429 -0.5393
   63MOL0     C 8620   8.238  10.929   5.529 -0.9400  0.4044 -0.0035
   63MOL0     C 8621   8.153  10.899   5.609  0.3754 -0.1962 -0.3461
   63MOL0     C 8622   8.700  10.892   5.104  0.1424  0.4638 -0.2289
   63MOL0     C 8623   8.779  10.854   4.999  0.0558  0.0307  0.5243
   63MOL0     C 8624   8.718  10.788   4.877 -0.0680  0.4379 -0.1307
   63MOL0     H 8625   9.218  10.809   4.714  0.6924  1.6168  1.4337
   63MOL0     H 8626   9.373  10.689   4.589  0.0253 -1.3216 -0.5966
   63MOL0     H 8627   9.614  10.601   4.544 -0.4974  0.5112 -0.8678
   63MOL0     H 8628   9.489  10.481   4.513  0.6418  2.8043 -1.0990
   63MOL0     H 8629   9.631  10.307   4.503  1.0722 -0.7057 -1.4375
   63MOL0     H 8630   9.722  10.431   4.427 -2.0009 -0.6234 -0.9824
   63MOL0     H 8631   9.873  10.460   4.594  1.4120 -1.0302  0.9845
   63MOL0     H 8632   9.790  10.382   4.723 -0.2689  1.0756 -0.7669
   63MOL0     H 8633   9.796  10.166   4.569 -0.6140  1.0052 -0.0919
   63MOL0     H 8634   9.928  10.256   4.490 -0.8797 -3.0471 -1.4198
   63MOL0     H 8635  10.031  10.108   4.669 -1.5433 -1.4563  0.5831
   63MOL0     H 8636   9.925  10.195   4.790  1.5394 -1.5756  1.2340
   63MOL0     H 8637  10.115  10.337   4.599  0.2028  1.1093 -0.0273
   63MOL0     H 8638  10.037  10.387   4.758 -3.2986 -1.2458  0.3267
   63MOL0     H 8639  10.163  10.203   4.875 -1.1212  0.8471 -0.7722
   63MOL0     H 8640  10.258  10.335   4.815 -0.8610  2.4386 -3.8671
   63MOL0     H 8641  10.235  10.060   4.682 -0.5389  0.6332 -0.0507
   63MOL0     H 8642  10.286  10.198   4.586 -0.7576  0.9309  0.1132
   63MOL0     H 8643  10.479  10.356   4.753 -1.8049 -0.4197 -1.7537
   63MOL0     H 8644  10.794  10.233   4.901 -0.4524 -0.7623  0.3251
   63MOL0     H 8645  10.723  10.371   4.846 -0.7182 -1.1262  1.1055
   63MOL0     H 8646  10.889  10.165   4.680  0.0359 -0.1849 -1.0686
   63MOL0     H 8647  10.787  10.273   4.597 -1.4262 -5.9269  0.3535
   63MOL0     H 8648  10.902  10.478   4.698  1.4811  0.2143 -1.0017
   63MOL0     H 8649  10.991  10.375   4.818  2.1665  3.7370 -0.4313
   63MOL0     H 8650  11.120  10.268   4.640  3.0189  0.2249 -2.2319
   63MOL0     H 8651  11.036  10.350   4.516  2.5553 -1.8540 -0.7308
   63MOL0     H 8652  11.340  10.637   4.656  0.3785  1.2754 -0.7497
   63MOL0     H 8653  11.628  10.721   4.462  0.5668 -1.1269  0.7515
   63MOL0     H 8654  11.643  10.667   4.620  0.1845 -1.8274 -0.3291
   63MOL0     H 8655  11.498  10.774   4.577 -4.7632 -2.6564  0.4989
   63MOL0     H 8656  11.640  10.657   4.056 -0.4482 -1.1028  1.0637
   63MOL0     H 8657  11.799  10.684   3.872  3.0844  0.2463  0.4442
   63MOL0     H 8658  11.862  10.633   3.674  0.6168  1.5720 -0.3842
   63MOL0     H 8659  12.032  10.662   3.704 -0.9214  0.0815  3.6390
   63MOL0     H 8660  11.928  10.474   3.496 -2.5959  1.1564  0.3382
   63MOL0     H 8661  12.043  10.604   3.479  1.1061 -0.3758  0.9546
   63MOL0     H 8662  12.097  10.318   3.577 -2.0189 -0.2265 -0.0937
   63MOL0     H 8663  12.198  10.440   3.651  1.9991  3.0387 -3.4619
   63MOL0     H 8664  12.256  10.516   3.415 -1.5696 -1.1261 -0.3860
   63MOL0     H 8665  12.119  10.406   3.362 -1.6806 -2.4159  1.3097
   63MOL0     H 8666  12.372  10.302   3.486 -0.9533 -1.8669  0.9195
   63MOL0     H 8667  12.251  10.205   3.431  2.9601 -0.7949 -1.2682
   63MOL0     H 8668  12.417  10.388   3.249 -0.8501  1.1542  1.3119
   63MOL0     H 8669  12.282  10.303   3.193  0.5112  1.0328 -0.2242
   63MOL0     H 8670  12.380  10.093   3.212 -1.1730  0.3743  0.6527
   63MOL0     H 8671  12.444  10.115   3.362  0.3993 -0.0731  0.0527
   63MOL0     H 8672  12.635  10.250   3.256 -0.5289 -0.9931  1.5987
   63MOL0     H 8673  12.586  10.200   3.100  2.9310  2.1511  0.0164
   63MOL0     H 8674  11.915  10.269   3.903 -0.6266 -0.5160 -0.0969
   63MOL0     H 8675  11.778  10.250   4.118 -2.1397 -2.8571 -3.1509
   63MOL0     H 8676  11.449  10.285   4.327 -0.5440 -0.6236  2.1267
   63MOL0     H 8677  11.255  10.269   4.456  0.9433 -0.5970  0.0158
   63MOL0     H 8678   9.449  10.439   4.951 -1.6214 -3.2348 -3.3444
   63MOL0     H 8679   9.303  10.588   5.073 -1.4425  0.4182  0.7587
   63MOL0     H 8680   9.088  10.898   5.147 -0.4335 -0.9135  0.4736
   63MOL0     H 8681   8.948  10.980   5.329  2.5907  1.5630 -1.5631
   63MOL0     H 8682   8.669  11.175   5.266 -1.5168  1.1544  0.6555
   63MOL0     H 8683   8.524  11.085   5.231  1.5333 -1.1925 -2.3697
   63MOL0     H 8684   8.498  11.221   5.434  0.4272  0.1926 -0.5580
   63MOL0     H 8685   8.634  11.154   5.510 -0.3522  1.7862 -1.1528
   63MOL0     H 8686   8.517  10.910   5.501  1.6162  1.0395 -1.3072
   63MOL0     H 8687   8.449  11.033   5.610 -2.2452 -2.1585 -0.5486
   63MOL0     H 8688   8.348  10.931   5.349  3.2179  0.0465  0.0087
   63MOL0     H 8689   8.287  11.087   5.407  2.0999  0.8022 -2.1199
   63MOL0     H 8690   8.072  10.894   5.679 -0.3726  0.4026 -1.1437
   63MOL0     H 8691   8.594  10.872   5.113  0.6247 -2.7343 -0.6399
   63MOL0     H 8692   8.614  10.760   4.896 -1.0998  3.1687 -1.1952
   63MOL0     H 8693   8.734  10.838   4.781  0.5511  2.8556  1.1363
   63MOL0     H 8694   8.764  10.690   4.862  0.4428  0.8108 -1.0821
   64MOL0     O 8695   6.083   8.553   8.215 -0.8191  0.3433 -0.3141
   64MOL0     C 8696   6.070   8.677   8.220  0.7338  0.5388  0.2289
   64MOL0     O 8697   6.162   8.765   8.268 -0.2159 -0.4803  0.0313
   64MOL0     C 8698   6.254   8.703   8.354 -0.2750 -0.1089 -0.7791
   64MOL0     C 8699   6.363   8.630   8.306 -0.0802 -0.4464  0.7138
   64MOL0     C 8700   6.479   8.600   8.375 -0.5775 -0.5787  0.3683
   64MOL0     C 8701   6.480   8.630   8.513  0.6785  0.5314 -0.1718
   64MOL0     O 8702   6.580   8.591   8.592 -0.1544 -0.2091  0.3533
   64MOL0     C 8703   6.710   8.649   8.550 -0.6780 -0.0060  0.0972
   64MOL0     C 8704   6.801   8.651   8.684  0.2409 -0.2912  0.2502
   64MOL0     C 8705   6.824   8.511   8.731 -0.5248 -0.0259  0.1169
   64MOL0     C 8706   6.949   8.445   8.654  0.7435 -0.1422 -0.3203
   64MOL0     C 8707   6.955   8.298   8.704  0.3080  0.8432 -0.4199
   64MOL0     C 8708   7.078   8.233   8.637  1.2108  0.3085 -0.1794
   64MOL0     C 8709   7.210   8.293   8.682 -0.8073  0.0683 -0.4145
   64MOL0     C 8710   7.312   8.199   8.643  0.0469 -0.6000 -0.0620
   64MOL0     N 8711   7.441   8.255   8.690 -0.4717 -0.3193  0.2468
   64MOL0     C 8712   7.470   8.288   8.823  0.3445  0.1049 -0.3948
   64MOL0     C 8713   7.598   8.342   8.809  0.4228  1.0540 -0.7850
   64MOL0     C 8714   7.672   8.403   8.931  0.3700  0.0023 -1.0371
   64MOL0     C 8715   7.799   8.468   8.883  0.3980  0.0599 -0.3702
   64MOL0     C 8716   7.858   8.548   9.001 -0.6379  0.0737  0.0457
   64MOL0     C 8717   7.932   8.446   9.098  0.3052 -0.1497 -0.7466
   64MOL0     O 8718   8.070   8.461   9.113 -0.1287 -0.4828  0.4797
   64MOL0     C 8719   8.140   8.382   9.191  0.7437 -1.1096 -0.5417
   64MOL0     C 8720   8.276   8.402   9.178  0.1470  0.0419  0.6457
   64MOL0     C 8721   8.374   8.355   9.270 -0.6014 -0.5203 -0.6066
   64MOL0     C 8722   8.522   8.387   9.245 -0.0697  0.2423 -0.2277
   64MOL0     C 8723   8.327   8.268   9.368 -0.9050 -0.1298  0.7635
   64MOL0     C 8724   8.414   8.194   9.459  0.4541  0.5747 -0.0762
   64MOL0     O 8725   8.361   8.069   9.501 -0.2837  0.3825 -0.5283
   64MOL0     C 8726   8.421   8.003   9.607  0.5915 -0.4162 -0.3873
   64MOL0     C 8727   8.335   7.942   9.694  0.2563  0.0767 -0.6653
   64MOL0     C 8728   8.383   7.861   9.798  0.2443  0.2960 -0.3342
   64MOL0     C 8729   8.518   7.864   9.832  0.5827 -0.6202  0.7777
   64MOL0     O 8730   8.564   7.794   9.938  0.2814  0.0562  0.3051
   64MOL0     C 8731   8.557   7.647   9.922  0.7197  0.2335  0.2514
   64MOL0     C 8732   8.660   7.598   9.826  0.0930 -0.2120  0.5296
   64MOL0     C 8733   8.803   7.625   9.870  0.0939 -0.2914  0.7712
   64MOL0     C 8734   8.902   7.549   9.787 -0.1010 -0.0496 -0.2105
   64MOL0     C 8735   9.041   7.593   9.833  0.1179  0.0125  0.3110
   64MOL0     C 8736   9.143   7.491   9.783  0.3432  0.7515 -0.2683
   64MOL0     C 8737   9.279   7.535   9.825 -1.0899  0.5760 -0.4062
   64MOL0     C 8738   9.384   7.418   9.847 -0.4637 -0.1189  0.2525
   64MOL0    Cl 8739   9.522   7.477   9.941 -0.3823  0.1197  0.1646
   64MOL0     C 8740   8.609   7.939   9.745 -0.7202  0.6031 -0.7540
   64MOL0     C 8741   8.563   8.004   9.635 -0.1499 -0.6332  0.3943
   64MOL0     O 8742   8.509   8.251   9.507 -0.8169 -1.2000 -0.0794
   64MOL0     C 8743   8.192   8.248   9.384  0.2599  0.3546  0.3984
   64MOL0     C 8744   8.102   8.299   9.289 -1.3214  0.0375 -0.8596
   64MOL0     N 8745   7.641   8.317   8.685 -0.1348  0.5931  0.1333
   64MOL0     N 8746   7.549   8.253   8.617 -0.8503 -0.6900  0.0842
   64MOL0     C 8747   6.365   8.706   8.568  0.0678 -0.3033 -0.2633
   64MOL0     C 8748   6.258   8.747   8.488  0.0487  0.6156 -0.1128
   64MOL0     C 8749   5.926   8.729   8.201 -1.5983 -0.0643  0.4576
   64MOL0     C 8750   5.892   8.859   8.254 -0.4159 -0.0894 -0.1844
   64MOL0     C 8751   5.761   8.903   8.247 -0.4683 -0.1757 -0.0703
   64MOL0     C 8752   5.651   8.826   8.189  0.0790 -0.1995 -0.0460
   64MOL0     O 8753   5.519   8.876   8.189 -0.2268 -0.5238 -0.3523
   64MOL0     C 8754   5.405   8.805   8.146 -0.6823 -0.0343  0.0477
   64MOL0     C 8755   5.273   8.877   8.187 -0.3189  1.0247  0.1531
   64MOL0     C 8756   5.271   9.025   8.126  0.8020 -0.1707 -0.5631
   64MOL0     C 8757   5.162   9.107   8.185 -1.1146  0.3680  0.4627
   64MOL0     C 8758   5.026   9.079   8.138  0.2768 -0.0989 -0.5201
   64MOL0     C 8759   4.911   9.046   8.124  1.1721  0.3808 -0.4745
   64MOL0     C 8760   5.692   8.710   8.130  0.5301  0.3318 -0.4350
   64MOL0     C 8761   5.821   8.660   8.134 -0.1634 -0.3016 -0.5582
   64MOL0     C 8762   5.835   8.524   8.070  0.0859  0.2402  0.4398
   64MOL0     H 8763   6.368   8.613   8.199  0.7674  1.0086  0.4966
   64MOL0     H 8764   6.559   8.556   8.315 -1.0417 -1.3479  0.3006
   64MOL0     H 8765   6.687   8.746   8.503 -4.4289 -0.9211 -0.2404
   64MOL0     H 8766   6.766   8.590   8.477  0.5245  1.1539  0.0300
   64MOL0     H 8767   6.899   8.695   8.664 -0.8769  1.9732 -0.6053
   64MOL0     H 8768   6.753   8.717   8.758 -2.1363 -2.5833  0.9010
   64MOL0     H 8769   6.837   8.508   8.839  0.3005  5.0670  0.4151
   64MOL0     H 8770   6.733   8.460   8.700  0.6026 -2.3704  0.4452
   64MOL0     H 8771   6.946   8.440   8.544  2.8371 -3.2694 -0.3492
   64MOL0     H 8772   7.037   8.497   8.693  1.6626 -1.7755 -0.1327
   64MOL0     H 8773   6.867   8.242   8.670  1.8374 -0.4980 -2.3495
   64MOL0     H 8774   6.964   8.298   8.813 -2.9005  1.0672 -0.0407
   64MOL0     H 8775   7.072   8.125   8.658  3.9596  0.0344 -0.5320
   64MOL0     H 8776   7.071   8.237   8.528 -0.9781 -1.2182 -0.1722
   64MOL0     H 8777   7.212   8.301   8.791  0.4419  0.4370 -0.4446
   64MOL0     H 8778   7.232   8.386   8.629  3.3906 -0.0912  0.7067
   64MOL0     H 8779   7.290   8.107   8.697 -0.7597 -0.1432  0.4036
   64MOL0     H 8780   7.323   8.177   8.536  0.7246  0.7478 -0.2981
   64MOL0     H 8781   7.424   8.296   8.920  1.6094  0.8754  0.1712
   64MOL0     H 8782   7.708   8.328   9.002  0.9964 -0.1137 -1.4659
   64MOL0     H 8783   7.604   8.479   8.971  2.7274  1.6903  0.0293
   64MOL0     H 8784   7.872   8.409   8.827  1.1995  0.4384  0.2538
   64MOL0     H 8785   7.756   8.538   8.811 -1.5322 -2.3241 -1.7096
   64MOL0     H 8786   7.926   8.623   8.961 -2.6992  1.4460 -1.0696
   64MOL0     H 8787   7.791   8.603   9.068 -0.9982 -1.9760  1.4754
   64MOL0     H 8788   7.888   8.445   9.198 -1.6885 -2.3714 -1.5452
   64MOL0     H 8789   7.897   8.344   9.078 -0.3480 -0.5612  1.9840
   64MOL0     H 8790   8.296   8.479   9.104  1.6747  2.0717  3.0313
   64MOL0     H 8791   8.585   8.311   9.292 -0.6591 -0.0954  0.0388
   64MOL0     H 8792   8.557   8.482   9.288  1.9847 -0.8661  0.6870
   64MOL0     H 8793   8.544   8.378   9.139  2.3085  0.6948  0.1711
   64MOL0     H 8794   8.228   7.953   9.684 -0.3125 -1.5943  2.3722
   64MOL0     H 8795   8.311   7.807   9.858 -1.1231 -0.1826 -2.3373
   64MOL0     H 8796   8.579   7.601  10.019  2.3413 -0.3028 -0.3353
   64MOL0     H 8797   8.464   7.613   9.877  1.2681 -0.2250 -0.5520
   64MOL0     H 8798   8.644   7.490   9.821 -2.9479  0.2033 -2.5663
   64MOL0     H 8799   8.656   7.638   9.724  0.5511  0.5159  0.7932
   64MOL0     H 8800   8.819   7.610   9.977  2.0064  2.3140  0.9736
   64MOL0     H 8801   8.817   7.734   9.861 -1.7804  0.0727  1.7873
   64MOL0     H 8802   8.892   7.554   9.678  1.2803  1.5777 -0.3016
   64MOL0     H 8803   8.878   7.444   9.806 -1.8832  0.6117  1.5484
   64MOL0     H 8804   9.061   7.682   9.773 -1.7638  1.2391  1.4217
   64MOL0     H 8805   9.044   7.611   9.941  2.0621 -0.9764  0.4770
   64MOL0     H 8806   9.138   7.464   9.677  1.8993 -2.1662  0.3057
   64MOL0     H 8807   9.113   7.401   9.837 -0.3734  2.0569  1.6416
   64MOL0     H 8808   9.274   7.599   9.914 -1.8521 -1.3465  1.0106
   64MOL0     H 8809   9.320   7.601   9.748  0.4411  1.0241  0.7492
   64MOL0     H 8810   9.421   7.380   9.751  3.7015  1.5501  1.0052
   64MOL0     H 8811   9.343   7.332   9.902  2.3928 -0.7725  1.5469
   64MOL0     H 8812   8.713   7.946   9.777 -1.4108  1.1862  1.5149
   64MOL0     H 8813   8.634   8.057   9.572 -0.0495 -2.6244 -1.2532
   64MOL0     H 8814   8.155   8.196   9.473 -0.7923  1.1623  0.4576
   64MOL0     H 8815   7.995   8.287   9.305 -1.3121  1.7078  0.8536
   64MOL0     H 8816   6.366   8.746   8.669 -0.2274 -1.6259  0.2769
   64MOL0     H 8817   6.175   8.808   8.523 -1.2079 -1.3553  0.4728
   64MOL0     H 8818   5.969   8.920   8.301  0.9482 -0.4542 -1.8287
   64MOL0     H 8819   5.735   8.990   8.305  1.2400 -0.2249  0.8170
   64MOL0     H 8820   5.420   8.794   8.038  1.0874  5.4192 -0.5578
   64MOL0     H 8821   5.399   8.709   8.198 -1.2383 -0.3155 -0.5262
   64MOL0     H 8822   5.265   8.873   8.296  2.4702 -3.0141  0.4122
   64MOL0     H 8823   5.194   8.823   8.135  1.8685 -0.6238 -1.6392
   64MOL0     H 8824   5.360   9.081   8.155  0.9505 -0.6492 -0.0862
   64MOL0     H 8825   5.258   9.028   8.017  0.4192  1.0281 -0.4953
   64MOL0     H 8826   5.173   9.215   8.168 -1.6952  0.4052  0.2951
   64MOL0     H 8827   5.150   9.091   8.292 -1.1100  0.3550  0.4613
   64MOL0     H 8828   4.808   9.021   8.109  1.1464 -0.6223  1.1732
   64MOL0     H 8829   5.617   8.639   8.095  0.7310 -0.3373  0.4499
   64MOL0     H 8830   5.754   8.507   7.999 -0.3867 -2.5112  1.4887
   64MOL0     H 8831   5.927   8.517   8.012  0.4803 -0.7862  1.1589
   64MOL0     H 8832   5.835   8.443   8.144 -1.4639  1.3570  1.7562
   65MOL0     O 8833   3.951   4.045   6.318  0.2620  0.3868 -0.1794
   65MOL0     C 8834   3.976   4.158   6.308 -0.0729 -0.6075 -0.2735
   65MOL0     O 8835   4.085   4.221   6.355 -0.0293  0.2635  0.0935
   65MOL0     C 8836   4.178   4.148   6.424 -0.2842  0.1197 -0.3153
   65MOL0     C 8837   4.306   4.196   6.410 -0.1224  0.5339 -0.0795
   65MOL0     C 8838   4.416   4.142   6.490 -0.3257 -0.5163  0.2504
   65MOL0     C 8839   4.393   4.038   6.583  0.3225  0.2036  0.4070
   65MOL0     O 8840   4.478   3.995   6.680  0.0856 -0.3845 -0.4577
   65MOL0     C 8841   4.614   4.023   6.664 -0.9902  0.3438 -0.4645
   65MOL0     C 8842   4.688   3.943   6.769  0.6261 -0.7988  0.2524
   65MOL0     C 8843   4.678   3.798   6.728 -0.8748 -0.2314 -0.4667
   65MOL0     C 8844   4.777   3.717   6.822  0.3293 -0.8005 -0.0399
   65MOL0     C 8845   4.770   3.568   6.805  0.8150  0.0993  0.1089
   65MOL0     C 8846   4.815   3.519   6.666 -0.3491 -1.0504  0.3867
   65MOL0     C 8847   4.955   3.553   6.617 -0.6421  0.2137  0.2879
   65MOL0     C 8848   4.986   3.487   6.486 -0.2495 -0.2685 -0.2464
   65MOL0     N 8849   5.121   3.511   6.446 -0.6269  0.6534 -0.0593
   65MOL0     C 8850   5.174   3.632   6.400 -0.2408 -0.0195 -0.2087
   65MOL0     C 8851   5.294   3.596   6.348 -0.6144 -0.3376  0.5639
   65MOL0     C 8852   5.398   3.692   6.297 -0.3512  0.1013 -0.0972
   65MOL0     C 8853   5.449   3.789   6.413  0.1328  0.5279  0.0215
   65MOL0     C 8854   5.542   3.901   6.357 -0.0448 -0.3607  0.8235
   65MOL0     C 8855   5.684   3.848   6.313  0.7903  0.2708 -0.1782
   65MOL0     O 8856   5.746   3.961   6.258  0.4389 -0.2393 -0.4710
   65MOL0     C 8857   5.878   3.988   6.281 -0.4935  0.1465  0.4723
   65MOL0     C 8858   5.975   3.891   6.273 -0.2603 -0.7779 -0.4361
   65MOL0     C 8859   6.103   3.918   6.267  0.1325  1.0626  1.4208
   65MOL0     C 8860   6.190   3.793   6.249  0.5501  0.1030  0.3229
   65MOL0     C 8861   6.152   4.053   6.266 -0.2209  0.4535 -0.5703
   65MOL0     C 8862   6.294   4.098   6.254  0.2249  0.3405  0.1758
   65MOL0     O 8863   6.309   4.231   6.241 -0.1615  0.1046  0.7715
   65MOL0     C 8864   6.429   4.291   6.238  0.2320  0.9014  0.5206
   65MOL0     C 8865   6.426   4.415   6.170  0.5318 -0.4291  0.4968
   65MOL0     C 8866   6.551   4.482   6.157 -0.0021  0.1337 -0.7282
   65MOL0     C 8867   6.672   4.435   6.215 -0.0593 -0.6372 -1.0563
   65MOL0     O 8868   6.791   4.497   6.214  0.0290  1.1211 -0.7179
   65MOL0     C 8869   6.802   4.639   6.174 -0.4584 -0.0532 -0.2490
   65MOL0     C 8870   6.947   4.683   6.158 -0.6896  1.2005 -0.7729
   65MOL0     C 8871   7.021   4.696   6.293 -0.3632  0.1773 -0.2241
   65MOL0     C 8872   7.180   4.717   6.261  0.1265  0.3496 -1.0181
   65MOL0     C 8873   7.242   4.806   6.378  0.4766 -0.7079  0.3236
   65MOL0     C 8874   7.367   4.884   6.337  0.1517 -0.0028  0.3635
   65MOL0     C 8875   7.398   4.999   6.430  0.2676 -0.1807  0.5928
   65MOL0     C 8876   7.385   4.962   6.582  0.6544 -0.4168  0.1597
   65MOL0    Cl 8877   7.505   4.840   6.649 -0.0278 -0.4208  0.1489
   65MOL0     C 8878   6.661   4.312   6.281  0.2679  0.1216 -1.2104
   65MOL0     C 8879   6.549   4.243   6.288 -0.8065 -0.6164  0.6749
   65MOL0     O 8880   6.377   4.007   6.238  0.3923  0.0819  0.1562
   65MOL0     C 8881   6.049   4.157   6.282  0.3954 -0.4181 -0.4781
   65MOL0     C 8882   5.913   4.127   6.284  0.1744  1.2838 -0.5529
   65MOL0     N 8883   5.322   3.465   6.385  0.3964 -0.1421  0.0632
   65MOL0     N 8884   5.215   3.409   6.440  0.0383 -0.1018 -0.2122
   65MOL0     C 8885   4.260   3.994   6.597  0.1031 -0.5410  0.1550
   65MOL0     C 8886   4.152   4.048   6.519 -0.2095 -0.1031 -0.8159
   65MOL0     C 8887   3.886   4.232   6.226  0.3439  0.0055  0.4520
   65MOL0     C 8888   3.920   4.350   6.158  0.1046  0.2287  0.0705
   65MOL0     C 8889   3.837   4.422   6.074  0.1112 -0.4084  0.6618
   65MOL0     C 8890   3.707   4.383   6.064  0.2439 -0.5963 -0.5637
   65MOL0     O 8891   3.636   4.460   5.970 -0.0803 -0.0794  0.1735
   65MOL0     C 8892   3.499   4.425   5.949  0.4565 -0.0938  0.0367
   65MOL0     C 8893   3.441   4.533   5.856  0.7884  0.0674 -0.2637
   65MOL0     C 8894   3.289   4.512   5.844  1.4911  0.1962  0.3888
   65MOL0     C 8895   3.226   4.569   5.719 -0.7974  0.3649 -0.4270
   65MOL0     C 8896   3.252   4.703   5.713 -0.7755 -0.9902  0.0911
   65MOL0     C 8897   3.273   4.827   5.716 -0.3201 -0.1595  0.3889
   65MOL0     C 8898   3.652   4.271   6.135  0.2245 -0.9271  0.2936
   65MOL0     C 8899   3.740   4.195   6.219 -0.1760 -0.1735  0.5438
   65MOL0     C 8900   3.670   4.075   6.291  0.2480 -0.5150 -0.3321
   65MOL0     H 8901   4.332   4.273   6.338  2.7356 -0.0171  0.2829
   65MOL0     H 8902   4.516   4.176   6.466 -0.2399 -0.9501 -0.0141
   65MOL0     H 8903   4.640   4.129   6.675  0.0843  0.4963 -3.6082
   65MOL0     H 8904   4.640   3.992   6.562  1.8463  2.1534 -0.4242
   65MOL0     H 8905   4.794   3.970   6.761  0.4292 -0.0364  0.2392
   65MOL0     H 8906   4.661   3.967   6.872 -0.5916  0.3040 -0.3002
   65MOL0     H 8907   4.574   3.768   6.745 -0.8898  0.8123  1.5493
   65MOL0     H 8908   4.697   3.776   6.622  2.0860 -1.0120  0.1413
   65MOL0     H 8909   4.877   3.761   6.813  1.1379 -2.2596  1.2711
   65MOL0     H 8910   4.748   3.741   6.925 -0.8035 -0.9930 -0.3056
   65MOL0     H 8911   4.668   3.534   6.826  0.3819  0.7808 -0.8317
   65MOL0     H 8912   4.829   3.520   6.884  3.5829 -0.9056 -2.3780
   65MOL0     H 8913   4.823   3.411   6.679  1.5486 -1.0081 -0.1982
   65MOL0     H 8914   4.738   3.534   6.589 -1.5315 -1.1668  1.5123
   65MOL0     H 8915   5.029   3.517   6.689 -1.4069 -0.1739  0.8950
   65MOL0     H 8916   4.969   3.662   6.612 -0.5564  0.1560 -0.9029
   65MOL0     H 8917   4.976   3.378   6.493 -0.8267 -0.2958 -1.3731
   65MOL0     H 8918   4.912   3.521   6.414  0.4805 -2.2285 -2.0358
   65MOL0     H 8919   5.131   3.731   6.412  3.4502  1.4317  3.9553
   65MOL0     H 8920   5.351   3.743   6.213 -1.1699 -1.8236 -0.8686
   65MOL0     H 8921   5.491   3.649   6.258 -0.3667 -0.4629  0.4631
   65MOL0     H 8922   5.359   3.836   6.454  0.3550 -0.8361  2.2529
   65MOL0     H 8923   5.492   3.734   6.497  0.2758 -1.2067 -1.1452
   65MOL0     H 8924   5.500   3.951   6.269  3.8308  1.5546 -0.1613
   65MOL0     H 8925   5.558   3.965   6.445 -0.9197 -2.0907  2.3195
   65MOL0     H 8926   5.743   3.796   6.389  2.3404  0.4824 -1.1978
   65MOL0     H 8927   5.669   3.769   6.239 -1.9921 -1.1374  1.6807
   65MOL0     H 8928   5.945   3.786   6.273  1.2178 -1.2346  1.0713
   65MOL0     H 8929   6.258   3.787   6.334  2.1362 -5.1443 -0.9552
   65MOL0     H 8930   6.240   3.801   6.152  1.9479 -2.0486  0.8004
   65MOL0     H 8931   6.143   3.695   6.245 -2.2138  1.3694 -0.2534
   65MOL0     H 8932   6.336   4.455   6.126  0.1543 -0.7768  0.9289
   65MOL0     H 8933   6.555   4.579   6.109  0.8064  1.0434  1.0683
   65MOL0     H 8934   6.754   4.639   6.075  2.0090 -1.6881 -1.5653
   65MOL0     H 8935   6.743   4.705   6.239  1.0855 -0.7059  1.8980
   65MOL0     H 8936   6.991   4.603   6.098 -1.1847  0.8040 -0.6141
   65MOL0     H 8937   6.950   4.773   6.096 -2.3349  1.1762 -0.9155
   65MOL0     H 8938   7.002   4.600   6.343 -0.1220 -1.4680 -3.0849
   65MOL0     H 8939   6.990   4.791   6.338  2.3106  0.5863  0.9259
   65MOL0     H 8940   7.189   4.771   6.166  1.4573  0.5396 -0.7932
   65MOL0     H 8941   7.240   4.629   6.239  1.7610  1.2730 -0.4402
   65MOL0     H 8942   7.163   4.879   6.398  0.5631 -0.1759 -1.1247
   65MOL0     H 8943   7.255   4.732   6.457 -1.5721 -0.9387  0.4891
   65MOL0     H 8944   7.357   4.916   6.234  1.6022 -1.2287 -0.1969
   65MOL0     H 8945   7.448   4.811   6.347 -0.7546 -1.4512 -2.1568
   65MOL0     H 8946   7.328   5.080   6.405 -1.0104 -1.3102  0.4015
   65MOL0     H 8947   7.503   5.026   6.421 -0.1993  2.4308  1.8975
   65MOL0     H 8948   7.285   4.923   6.604  0.3619  0.9027  1.3375
   65MOL0     H 8949   7.409   5.056   6.633  1.9420 -0.4488 -0.3515
   65MOL0     H 8950   6.755   4.276   6.323  1.2531 -0.5360 -3.7959
   65MOL0     H 8951   6.555   4.141   6.326  0.0396 -0.5323  0.7774
   65MOL0     H 8952   6.078   4.261   6.284 -2.0209  0.3596  2.9606
   65MOL0     H 8953   5.831   4.198   6.285 -2.4297 -1.5335  1.3603
   65MOL0     H 8954   4.236   3.927   6.679  0.5982  0.8615  1.4933
   65MOL0     H 8955   4.058   3.997   6.538  0.2632 -1.1107 -1.1197
   65MOL0     H 8956   4.019   4.392   6.165  0.7992 -1.5455  2.0086
   65MOL0     H 8957   3.874   4.512   6.028 -2.1416  1.3488  2.0446
   65MOL0     H 8958   3.489   4.322   5.913  0.0399 -0.9563  2.4146
   65MOL0     H 8959   3.449   4.417   6.046 -4.1741 -1.7870 -2.2008
   65MOL0     H 8960   3.501   4.525   5.765  2.6884  2.1282  0.7074
   65MOL0     H 8961   3.462   4.634   5.890  1.8576 -0.4502  0.6787
   65MOL0     H 8962   3.276   4.404   5.836  2.7509  0.0568  0.0612
   65MOL0     H 8963   3.234   4.550   5.930 -4.2091 -0.1434 -2.6449
   65MOL0     H 8964   3.118   4.558   5.718 -0.6152 -2.0866  0.2166
   65MOL0     H 8965   3.268   4.519   5.631  0.3244 -0.8344  0.7370
   65MOL0     H 8966   3.264   4.933   5.712  1.2241 -0.0301 -3.0441
   65MOL0     H 8967   3.547   4.245   6.130 -0.8186  2.5507  1.6464
   65MOL0     H 8968   3.678   4.090   6.399  0.2131 -0.1725 -0.3757
   65MOL0     H 8969   3.564   4.074   6.266 -0.1273  3.1972  0.4077
   65MOL0     H 8970   3.698   3.974   6.260 -1.0131 -0.6774 -1.0224
   66MOL0     O 8971   9.031  10.006   4.891  0.1474 -1.0404 -0.3078
   66MOL0     C 8972   9.038  10.125   4.850  0.1372  0.2289  0.0816
   66MOL0     O 8973   9.160  10.190   4.822 -0.0004 -0.0548 -0.2565
   66MOL0     C 8974   9.278  10.128   4.848 -0.6722 -0.1052  0.9426
   66MOL0     C 8975   9.310  10.034   4.945 -1.6012  0.7923 -0.9221
   66MOL0     C 8976   9.441   9.977   4.948 -0.3104 -0.0150  0.3055
   66MOL0     C 8977   9.537  10.002   4.851  0.1857 -0.6956  0.1232
   66MOL0     O 8978   9.649   9.927   4.852 -0.3296 -0.0139 -0.2867
   66MOL0     C 8979   9.716   9.897   4.730 -0.0432 -0.1516  0.0603
   66MOL0     C 8980   9.829   9.786   4.754 -0.7709  0.3488  1.0254
   66MOL0     C 8981   9.950   9.857   4.807 -0.7272  0.2953 -0.1560
   66MOL0     C 8982  10.055   9.760   4.854 -1.1226 -0.5956  0.0778
   66MOL0     C 8983  10.183   9.826   4.890  0.0446  1.1881 -0.4401
   66MOL0     C 8984  10.243   9.782   5.014 -0.3391 -0.0563 -1.3058
   66MOL0     C 8985  10.361   9.866   5.049 -0.2497  0.0823  0.5313
   66MOL0     C 8986  10.493   9.792   5.001  0.1068 -0.9817 -0.2755
   66MOL0     N 8987  10.545   9.700   5.102  0.1566  0.4695 -0.3196
   66MOL0     C 8988  10.571   9.722   5.235  0.5718 -0.0550 -0.1503
   66MOL0     C 8989  10.601   9.601   5.298  0.6448  0.4331 -0.2090
   66MOL0     C 8990  10.624   9.578   5.441 -0.2591 -0.6550  0.1867
   66MOL0     C 8991  10.760   9.641   5.478  0.3027 -0.3689 -0.4649
   66MOL0     C 8992  10.876   9.546   5.441  0.7349  0.0395  1.1567
   66MOL0     C 8993  11.018   9.608   5.416  0.4500 -0.7031  0.7089
   66MOL0     O 8994  11.030   9.700   5.301  0.7560 -0.0325 -0.1352
   66MOL0     C 8995  11.068   9.643   5.186 -0.1243 -0.3678 -0.0288
   66MOL0     C 8996  10.967   9.576   5.113  0.4946  0.6821 -0.2146
   66MOL0     C 8997  10.993   9.496   5.004 -0.5620 -0.2582 -0.2431
   66MOL0     C 8998  10.871   9.426   4.949 -0.0868  0.5098  0.1432
   66MOL0     C 8999  11.127   9.488   4.960  0.4464  0.4964 -0.2437
   66MOL0     C 9000  11.179   9.397   4.856 -0.3702 -0.4755 -0.6488
   66MOL0     O 9001  11.313   9.377   4.848  0.1047 -0.1994 -0.4322
   66MOL0     C 9002  11.367   9.337   4.735  0.5833 -0.5245  0.6540
   66MOL0     C 9003  11.333   9.205   4.700  0.2124  0.2323  0.2175
   66MOL0     C 9004  11.403   9.139   4.603  0.2500  0.2394  0.2866
   66MOL0     C 9005  11.508   9.197   4.531 -0.6343 -0.5326  0.2753
   66MOL0     O 9006  11.586   9.142   4.438 -0.2016  0.8164  0.2427
   66MOL0     C 9007  11.594   8.996   4.440  0.9865  0.4618 -0.2612
   66MOL0     C 9008  11.718   8.961   4.354  1.0470 -1.0174 -0.3116
   66MOL0     C 9009  11.844   8.985   4.439  0.3204  0.0305  0.2165
   66MOL0     C 9010  11.973   8.930   4.380  0.1550  0.1679  0.2382
   66MOL0     C 9011  12.093   9.006   4.426  0.1988  0.7606  0.1552
   66MOL0     C 9012  12.209   8.983   4.334 -0.5538 -0.0161  0.1360
   66MOL0     C 9013  12.336   9.056   4.377  0.0044 -0.5722 -0.0133
   66MOL0     C 9014  12.430   9.100   4.269  0.0175 -0.7398  0.0420
   66MOL0    Cl 9015  12.520   8.964   4.205  0.0008 -0.1266 -0.0401
   66MOL0     C 9016  11.542   9.326   4.566  0.1153 -0.1989  0.7321
   66MOL0     C 9017  11.477   9.394   4.676  0.4693 -0.1503 -0.2239
   66MOL0     O 9018  11.090   9.359   4.777  0.1828  0.5096 -0.6403
   66MOL0     C 9019  11.227   9.559   5.024 -0.7503  0.0033  0.0604
   66MOL0     C 9020  11.198   9.631   5.145 -0.5283  0.3245 -0.5035
   66MOL0     N 9021  10.583   9.500   5.202  0.2374  0.4893 -0.1754
   66MOL0     N 9022  10.548   9.562   5.096 -0.3189  0.7570 -0.4861
   66MOL0     C 9023   9.504  10.102   4.757 -0.2435 -1.2702 -0.3030
   66MOL0     C 9024   9.383  10.167   4.757  0.1964  0.6139  0.1703
   66MOL0     C 9025   8.909  10.193   4.832  0.0917 -0.7277 -0.2338
   66MOL0     C 9026   8.784  10.121   4.837 -0.2223  0.1003 -0.8117
   66MOL0     C 9027   8.659  10.184   4.826  0.5403 -0.7824  0.1314
   66MOL0     C 9028   8.651  10.319   4.803 -0.2803 -0.3908 -0.1242
   66MOL0     O 9029   8.540  10.399   4.777  0.5158 -0.3161  0.3753
   66MOL0     C 9030   8.415  10.338   4.775 -0.5329 -0.7536  0.0985
   66MOL0     C 9031   8.296  10.430   4.771  0.2395 -0.3153  0.6879
   66MOL0     C 9032   8.279  10.528   4.889 -0.3002  0.6189 -0.1851
   66MOL0     C 9033   8.145  10.599   4.896 -1.3988 -0.3294  0.2802
   66MOL0     C 9034   8.129  10.679   4.772 -0.2303 -0.2616  0.5850
   66MOL0     C 9035   8.108  10.752   4.670  0.3473 -0.1709 -0.3667
   66MOL0     C 9036   8.769  10.386   4.796 -0.1474 -0.1622 -0.1445
   66MOL0     C 9037   8.893  10.339   4.823  0.0421  0.2926 -0.3091
   66MOL0     C 9038   9.008  10.432   4.820  0.3636  0.5581  0.6893
   66MOL0     H 9039   9.233  10.000   5.013 -0.6418 -0.9032 -0.6304
   66MOL0     H 9040   9.457   9.900   5.023  0.1442  0.4918  0.7325
   66MOL0     H 9041   9.762   9.988   4.693 -1.4962  0.3114 -0.6642
   66MOL0     H 9042   9.635   9.866   4.664  0.5264  0.1923 -0.8103
   66MOL0     H 9043   9.791   9.706   4.818 -2.0041 -2.3777 -2.7301
   66MOL0     H 9044   9.857   9.726   4.667 -0.9900 -2.1341  2.6023
   66MOL0     H 9045   9.985   9.926   4.729 -1.9381  1.5398  0.3421
   66MOL0     H 9046   9.919   9.916   4.894 -0.9092  1.0611 -0.7249
   66MOL0     H 9047  10.026   9.707   4.945  2.7326  0.8444  2.3881
   66MOL0     H 9048  10.076   9.693   4.771  0.3776  1.5168 -1.3362
   66MOL0     H 9049  10.167   9.933   4.906 -0.0169  0.7902  2.7829
   66MOL0     H 9050  10.255   9.816   4.808 -1.2020 -0.2214 -1.4148
   66MOL0     H 9051  10.167   9.788   5.093 -0.9879 -0.8024 -1.8551
   66MOL0     H 9052  10.279   9.680   4.997  1.6254  0.8905 -3.2427
   66MOL0     H 9053  10.369   9.883   5.157  0.6015 -1.8076  0.7979
   66MOL0     H 9054  10.359   9.964   4.999 -2.1457 -0.2888 -0.2053
   66MOL0     H 9055  10.488   9.743   4.904  0.7536  1.5508 -1.6707
   66MOL0     H 9056  10.563   9.872   4.977  0.3361 -1.6631 -2.0480
   66MOL0     H 9057  10.566   9.821   5.281 -0.2225 -0.2100  0.1098
   66MOL0     H 9058  10.641   9.470   5.449  1.1444 -0.6826 -2.0855
   66MOL0     H 9059  10.541   9.608   5.505  0.1003  0.0524  0.3323
   66MOL0     H 9060  10.786   9.742   5.445 -0.4707  0.0153  0.0663
   66MOL0     H 9061  10.770   9.663   5.584  0.7642  4.0086 -1.1934
   66MOL0     H 9062  10.883   9.473   5.522 -0.9132 -0.7767  0.6196
   66MOL0     H 9063  10.848   9.483   5.356 -2.3959 -0.2694  2.2756
   66MOL0     H 9064  11.056   9.652   5.508 -0.1052  1.8642 -0.1879
   66MOL0     H 9065  11.093   9.532   5.394  1.8778  0.9273 -0.3887
   66MOL0     H 9066  10.866   9.584   5.151  0.4012  0.6384 -0.4524
   66MOL0     H 9067  10.855   9.440   4.842 -0.0425 -2.7892 -0.3952
   66MOL0     H 9068  10.779   9.460   4.997 -1.1931  1.5774 -2.5339
   66MOL0     H 9069  10.880   9.318   4.962  0.6680  0.8816  3.4968
   66MOL0     H 9070  11.251   9.149   4.743 -0.9060 -0.0278 -2.1056
   66MOL0     H 9071  11.365   9.045   4.566  0.4797  1.5160 -3.6845
   66MOL0     H 9072  11.609   8.951   4.539  0.4380  0.3910 -0.2074
   66MOL0     H 9073  11.506   8.954   4.389  1.3916  0.1562 -0.7194
   66MOL0     H 9074  11.732   8.855   4.330 -0.7801 -1.4525  0.3906
   66MOL0     H 9075  11.717   9.027   4.267  2.7227  1.3177  1.2871
   66MOL0     H 9076  11.829   8.942   4.539  1.2160 -0.5409  0.1213
   66MOL0     H 9077  11.843   9.094   4.448 -1.0929  0.1930 -1.5351
   66MOL0     H 9078  11.964   8.953   4.273 -3.2472  2.3437  0.8211
   66MOL0     H 9079  11.984   8.822   4.394  1.2493  0.4146  1.4772
   66MOL0     H 9080  12.068   9.110   4.406 -1.2817  0.2589 -0.7481
   66MOL0     H 9081  12.121   8.980   4.529 -0.5236  1.2082  0.4698
   66MOL0     H 9082  12.192   9.009   4.229  0.4603 -3.6422 -1.0681
   66MOL0     H 9083  12.238   8.877   4.334  1.1766  0.4260  0.3839
   66MOL0     H 9084  12.388   8.996   4.453 -0.4016  2.4612  2.8651
   66MOL0     H 9085  12.309   9.148   4.430  2.0599  0.8458 -1.3154
   66MOL0     H 9086  12.498   9.181   4.300  0.2118 -0.3847 -1.2536
   66MOL0     H 9087  12.371   9.151   4.193 -1.8891 -1.5899  0.9076
   66MOL0     H 9088  11.636   9.372   4.538 -0.8746  1.5113  0.0394
   66MOL0     H 9089  11.516   9.481   4.728  0.3582 -1.7694  2.8113
   66MOL0     H 9090  11.332   9.545   5.001 -1.1935 -3.3419 -0.4003
   66MOL0     H 9091  11.270   9.683   5.207 -0.5438  1.8554 -1.6766
   66MOL0     H 9092   9.582  10.141   4.692 -0.3388 -2.6730 -1.2853
   66MOL0     H 9093   9.357  10.242   4.684 -2.0601 -0.7437 -0.5122
   66MOL0     H 9094   8.781  10.013   4.840 -0.2105  0.1161  0.5462
   66MOL0     H 9095   8.574  10.117   4.832 -0.1162 -0.0783 -0.8987
   66MOL0     H 9096   8.397  10.258   4.703 -1.4346  0.0945 -0.6490
   66MOL0     H 9097   8.415  10.289   4.873 -1.2628 -0.7278  0.1217
   66MOL0     H 9098   8.205  10.370   4.768  1.6766 -2.5833  0.1330
   66MOL0     H 9099   8.289  10.486   4.677 -2.3869  0.8317  1.4765
   66MOL0     H 9100   8.304  10.462   4.972 -0.4709  1.5233  0.5991
   66MOL0     H 9101   8.365  10.595   4.897  1.1002 -1.3456  3.0969
   66MOL0     H 9102   8.138  10.646   4.994  0.6988 -2.0697  1.3577
   66MOL0     H 9103   8.062  10.528   4.903 -1.5020 -0.3383 -0.8245
   66MOL0     H 9104   8.095  10.809   4.580 -1.1870  2.6115  1.4706
   66MOL0     H 9105   8.774  10.488   4.759 -1.6127 -0.1543 -0.3551
   66MOL0     H 9106   9.063  10.413   4.912 -0.5838 -0.6585  1.0281
   66MOL0     H 9107   9.068  10.415   4.730  0.0760 -0.6612  0.7209
   66MOL0     H 9108   8.987  10.539   4.805  1.5054  0.3899 -3.4890
   67MOL0     O 9109   0.517   5.517   5.042 -0.4776 -0.3209 -0.2384
   67MOL0     C 9110   0.486   5.453   4.947 -0.4426  0.4192  0.8006
   67MOL0     O 9111   0.568   5.404   4.853 -0.0173  0.1166  0.1868
   67MOL0     C 9112   0.707   5.406   4.893 -0.8127 -0.5263  0.5228
   67MOL0     C 9113   0.778   5.526   4.890 -0.7500  0.1252 -0.2033
   67MOL0     C 9114   0.910   5.522   4.923  0.4903  0.0797  1.5799
   67MOL0     C 9115   0.978   5.407   4.952 -0.0308 -0.2504 -0.6084
   67MOL0     O 9116   1.109   5.423   4.994 -0.0841  0.1175  0.0097
   67MOL0     C 9117   1.204   5.310   4.995  0.1903 -0.3619  0.2871
   67MOL0     C 9118   1.204   5.235   5.135 -0.4331  0.0476 -0.6860
   67MOL0     C 9119   1.306   5.294   5.231 -0.1624  0.6796  0.5101
   67MOL0     C 9120   1.437   5.214   5.218 -1.6644 -0.4913 -0.1406
   67MOL0     C 9121   1.533   5.282   5.321  0.1666  0.1691 -0.1896
   67MOL0     C 9122   1.664   5.200   5.347  0.3464  0.8114  0.9628
   67MOL0     C 9123   1.751   5.251   5.459  0.3727  0.3020  0.5758
   67MOL0     C 9124   1.880   5.182   5.479 -0.1578 -0.0802 -0.3332
   67MOL0     N 9125   1.969   5.264   5.563 -0.2127  0.4986  0.6234
   67MOL0     C 9126   2.018   5.232   5.686  0.6810 -0.2360  0.0133
   67MOL0     C 9127   2.072   5.349   5.732  0.4707 -0.1511  0.2518
   67MOL0     C 9128   2.114   5.373   5.868 -0.3346  0.5012  0.1744
   67MOL0     C 9129   2.263   5.353   5.885 -0.0162  0.0868  1.3611
   67MOL0     C 9130   2.339   5.469   5.830 -0.2976 -0.7877  0.4744
   67MOL0     C 9131   2.479   5.432   5.781 -1.1098 -0.9324  0.6820
   67MOL0     O 9132   2.571   5.392   5.886 -0.2992  0.0713  0.3371
   67MOL0     C 9133   2.703   5.377   5.844 -0.0982  0.0541 -0.5453
   67MOL0     C 9134   2.745   5.376   5.718 -1.0015  0.9428  0.3314
   67MOL0     C 9135   2.880   5.348   5.688 -0.2757 -0.1383  0.4046
   67MOL0     C 9136   2.921   5.336   5.547 -0.4139  0.5471 -0.2232
   67MOL0     C 9137   2.978   5.325   5.791 -0.1664 -0.0289 -0.2182
   67MOL0     C 9138   3.126   5.319   5.766  0.3895  0.4488  0.4621
   67MOL0     O 9139   3.187   5.410   5.680  0.4072 -0.4354 -0.5515
   67MOL0     C 9140   3.321   5.412   5.641  0.6176  0.0526 -0.4743
   67MOL0     C 9141   3.402   5.303   5.634  1.2778 -0.3355 -0.4110
   67MOL0     C 9142   3.535   5.312   5.592  0.2636 -0.0683  0.0858
   67MOL0     C 9143   3.579   5.432   5.530  0.3421 -0.0823 -0.5477
   67MOL0     O 9144   3.706   5.416   5.475 -0.8626 -0.0962  0.0052
   67MOL0     C 9145   3.751   5.525   5.397  0.2192  0.1373 -0.7800
   67MOL0     C 9146   3.866   5.484   5.306  0.4623  0.7568 -0.3803
   67MOL0     C 9147   4.008   5.475   5.369 -0.2550 -0.7098 -0.1049
   67MOL0     C 9148   4.113   5.488   5.262 -0.2765 -0.2231  0.9419
   67MOL0     C 9149   4.260   5.454   5.308  0.3150  0.1943  0.3418
   67MOL0     C 9150   4.353   5.436   5.187 -0.1298  0.5802 -0.1224
   67MOL0     C 9151   4.489   5.404   5.254 -0.4045  0.4204  0.3010
   67MOL0     C 9152   4.565   5.525   5.302 -0.5463 -0.3428 -0.2622
   67MOL0    Cl 9153   4.738   5.503   5.268  0.2843 -0.1319 -0.6816
   67MOL0     C 9154   3.491   5.540   5.543  0.0354 -0.9243 -0.2584
   67MOL0     C 9155   3.364   5.535   5.595 -0.0432 -0.0913 -0.3698
   67MOL0     O 9156   3.181   5.237   5.842 -0.2734 -0.8396 -0.1605
   67MOL0     C 9157   2.929   5.318   5.916  0.2614  0.2014 -0.3734
   67MOL0     C 9158   2.788   5.340   5.951 -1.4177  1.0199  0.7823
   67MOL0     N 9159   2.058   5.454   5.640  0.0275 -0.5794 -0.3432
   67MOL0     N 9160   1.997   5.401   5.537 -0.2872 -0.2806  0.3617
   67MOL0     C 9161   0.913   5.282   4.954 -0.0579 -0.3577 -0.5710
   67MOL0     C 9162   0.778   5.280   4.920 -0.5578 -0.2138  0.8809
   67MOL0     C 9163   0.339   5.439   4.916  0.9584 -1.2103  1.0988
   67MOL0     C 9164   0.298   5.392   4.792  0.1609  1.8556  0.1947
   67MOL0     C 9165   0.164   5.379   4.767 -0.5323  0.4039  0.7535
   67MOL0     C 9166   0.066   5.412   4.858  1.0357 -0.2532 -0.3909
   67MOL0     O 9167  -0.067   5.392   4.820 -0.0893 -0.3688 -0.0950
   67MOL0     C 9168  -0.172   5.385   4.915  0.0914 -0.4653  0.3061
   67MOL0     C 9169  -0.304   5.326   4.846  0.5869 -0.2837 -0.6760
   67MOL0     C 9170  -0.419   5.354   4.938 -0.4074  0.2718 -0.0415
   67MOL0     C 9171  -0.545   5.298   4.878  0.0996 -0.3258  0.2672
   67MOL0     C 9172  -0.600   5.375   4.768  0.4393 -0.4024  0.1283
   67MOL0     C 9173  -0.658   5.429   4.676  0.8335  0.7306  0.5208
   67MOL0     C 9174   0.101   5.471   4.975 -0.1222 -0.6966  0.0190
   67MOL0     C 9175   0.235   5.485   5.010 -0.3538 -0.2244 -0.7810
   67MOL0     C 9176   0.259   5.533   5.155 -0.1589  0.3588  0.0897
   67MOL0     H 9177   0.731   5.623   4.879 -3.0590 -0.8094  0.7318
   67MOL0     H 9178   0.966   5.615   4.928  0.1864  0.7898 -3.0715
   67MOL0     H 9179   1.306   5.345   4.980  0.2405 -0.4643  0.3824
   67MOL0     H 9180   1.198   5.239   4.912 -0.8675  1.6690 -1.4718
   67MOL0     H 9181   1.103   5.243   5.176  0.1716 -1.7725  1.3038
   67MOL0     H 9182   1.218   5.127   5.127  0.7937  0.0748  0.7998
   67MOL0     H 9183   1.321   5.400   5.207 -0.6323  0.4102 -1.1229
   67MOL0     H 9184   1.274   5.285   5.335 -0.5337 -2.2253  0.2035
   67MOL0     H 9185   1.428   5.107   5.235  1.1292 -0.9728 -1.2379
   67MOL0     H 9186   1.482   5.229   5.120  1.0959 -0.6751  1.0113
   67MOL0     H 9187   1.487   5.287   5.420  3.9848  0.7002  1.7418
   67MOL0     H 9188   1.563   5.384   5.296 -0.0545 -0.1754 -1.9929
   67MOL0     H 9189   1.647   5.092   5.356  0.6271  0.7718  1.0198
   67MOL0     H 9190   1.719   5.211   5.253 -5.0851 -0.3892 -2.8561
   67MOL0     H 9191   1.693   5.242   5.551 -2.4634 -2.0181 -1.2734
   67MOL0     H 9192   1.769   5.355   5.431 -1.7371  0.9869  1.5758
   67MOL0     H 9193   1.872   5.084   5.528 -1.3659 -0.4951 -1.2904
   67MOL0     H 9194   1.924   5.169   5.379  0.4996 -1.0995  0.0607
   67MOL0     H 9195   2.015   5.134   5.733  3.9411 -1.1373 -1.4041
   67MOL0     H 9196   2.062   5.299   5.929  0.3110  1.1235  1.5166
   67MOL0     H 9197   2.084   5.472   5.904 -1.1230  0.1611  0.4813
   67MOL0     H 9198   2.281   5.342   5.992  0.9615  1.2692  1.3413
   67MOL0     H 9199   2.292   5.257   5.843 -1.3533 -1.7131  4.2190
   67MOL0     H 9200   2.282   5.501   5.743  1.8501 -0.1122 -0.7482
   67MOL0     H 9201   2.350   5.536   5.916 -1.1094 -1.8672  1.4597
   67MOL0     H 9202   2.464   5.358   5.703 -2.1390  0.3811 -0.4291
   67MOL0     H 9203   2.520   5.522   5.733 -1.2300 -0.4656  1.4337
   67MOL0     H 9204   2.681   5.382   5.631 -2.4897 -2.2988  1.0704
   67MOL0     H 9205   2.930   5.440   5.512  0.1364 -0.4955 -3.5537
   67MOL0     H 9206   2.856   5.275   5.484 -0.1656 -0.0421  0.0896
   67MOL0     H 9207   3.019   5.288   5.538 -1.4466 -1.6874 -0.1083
   67MOL0     H 9208   3.370   5.204   5.666 -1.1226  0.3018 -0.6995
   67MOL0     H 9209   3.592   5.219   5.595 -0.8618 -0.7560  1.2571
   67MOL0     H 9210   3.664   5.561   5.340  0.2123  1.0717 -0.2004
   67MOL0     H 9211   3.791   5.604   5.461  3.7113 -1.5583 -0.6518
   67MOL0     H 9212   3.833   5.387   5.267  1.0977  0.3215  0.1364
   67MOL0     H 9213   3.869   5.547   5.217  1.2700 -0.4767 -1.2588
   67MOL0     H 9214   4.033   5.378   5.414  0.9627 -1.4044 -2.1623
   67MOL0     H 9215   4.034   5.549   5.445  0.7609 -0.1935 -0.9390
   67MOL0     H 9216   4.132   5.593   5.234  1.3571 -1.1170 -1.7159
   67MOL0     H 9217   4.092   5.420   5.179 -1.1304  0.7069  0.3724
   67MOL0     H 9218   4.300   5.530   5.376  0.5646 -1.6237  2.3450
   67MOL0     H 9219   4.253   5.360   5.363 -0.0794 -0.1578 -0.2982
   67MOL0     H 9220   4.353   5.529   5.129  1.3299 -0.4944 -1.9798
   67MOL0     H 9221   4.314   5.360   5.118  0.9492 -0.0843 -0.0288
   67MOL0     H 9222   4.556   5.354   5.184 -1.0867  0.3171 -0.2854
   67MOL0     H 9223   4.493   5.334   5.338  1.2835  0.1876  0.0577
   67MOL0     H 9224   4.547   5.550   5.407 -1.0943  2.5208 -0.9699
   67MOL0     H 9225   4.537   5.617   5.251  0.0332  1.1938  2.0136
   67MOL0     H 9226   3.539   5.633   5.514 -2.6495  0.8111  0.4254
   67MOL0     H 9227   3.300   5.623   5.598 -0.2665 -0.2638  0.2476
   67MOL0     H 9228   2.989   5.301   6.005 -0.5385 -0.3459  0.0736
   67MOL0     H 9229   2.762   5.343   6.057  0.3197  0.7757  1.2531
   67MOL0     H 9230   0.966   5.189   4.972  1.5996  1.0453  2.5651
   67MOL0     H 9231   0.722   5.188   4.933  0.6409 -0.8635  1.6379
   67MOL0     H 9232   0.365   5.358   4.713 -1.0300 -1.4287  0.4500
   67MOL0     H 9233   0.141   5.336   4.670  2.5876 -0.0665  0.1158
   67MOL0     H 9234  -0.148   5.317   4.997  5.2432  1.3239  0.6445
   67MOL0     H 9235  -0.185   5.489   4.947 -2.1297 -0.9930  1.2684
   67MOL0     H 9236  -0.297   5.218   4.835  2.0022 -0.7119  2.9915
   67MOL0     H 9237  -0.319   5.375   4.749  1.2685  2.5417  0.5365
   67MOL0     H 9238  -0.406   5.293   5.028 -4.1196  0.1566  0.5925
   67MOL0     H 9239  -0.435   5.461   4.957 -0.2010  0.3628 -0.3900
   67MOL0     H 9240  -0.614   5.294   4.962  0.9847  1.7241  1.1385
   67MOL0     H 9241  -0.532   5.192   4.851 -2.1250 -1.2528  2.4787
   67MOL0     H 9242  -0.721   5.468   4.598  1.3325 -1.1326 -0.9077
   67MOL0     H 9243   0.033   5.496   5.055  2.0816  1.6717  1.2767
   67MOL0     H 9244   0.328   5.464   5.204  0.7705  0.7585 -0.6204
   67MOL0     H 9245   0.293   5.638   5.157 -3.3948  1.6012 -1.9845
   67MOL0     H 9246   0.177   5.527   5.226  2.4917  1.2154  3.4885
   68MOL0     O 9247   1.709   3.864   2.455 -0.1184 -0.0227  0.2348
   68MOL0     C 9248   1.733   3.741   2.433 -0.1672  0.0046  0.0809
   68MOL0     O 9249   1.646   3.641   2.471 -0.2853 -0.3158 -0.1006
   68MOL0     C 9250   1.529   3.685   2.520  1.5671 -0.4732 -0.4664
   68MOL0     C 9251   1.414   3.684   2.441 -0.3203 -0.4660  0.4378
   68MOL0     C 9252   1.289   3.734   2.477  0.1387  0.7631  0.2188
   68MOL0     C 9253   1.278   3.782   2.608  0.6756 -0.2849 -0.0603
   68MOL0     O 9254   1.161   3.820   2.668  0.2611  0.4766 -0.1188
   68MOL0     C 9255   1.055   3.839   2.580 -0.2681  0.4917  0.0945
   68MOL0     C 9256   0.962   3.935   2.642  1.1173  0.0493  0.0593
   68MOL0     C 9257   0.910   3.903   2.779  0.0698  0.7285 -0.4719
   68MOL0     C 9258   0.797   4.007   2.810 -0.0484 -0.3124  0.6999
   68MOL0     C 9259   0.741   4.008   2.950  0.1978  0.2257 -0.2837
   68MOL0     C 9260   0.696   3.874   3.008  0.1580 -0.2335  0.3918
   68MOL0     C 9261   0.636   3.890   3.156 -0.4158  0.1177  0.2695
   68MOL0     C 9262   0.630   3.761   3.235 -0.4167  0.6413  0.6445
   68MOL0     N 9263   0.751   3.683   3.258  0.1851 -0.4415  0.1741
   68MOL0     C 9264   0.878   3.738   3.280 -0.3379 -0.1297  0.2974
   68MOL0     C 9265   0.959   3.630   3.316 -0.3223 -0.2538 -0.1276
   68MOL0     C 9266   1.090   3.630   3.382 -0.4785 -0.5864 -0.0109
   68MOL0     C 9267   1.199   3.698   3.302  0.0379 -0.0630 -0.7007
   68MOL0     C 9268   1.226   3.615   3.172 -0.1286 -0.2013  1.2479
   68MOL0     C 9269   1.354   3.669   3.095  0.1110  0.4494 -0.3772
   68MOL0     O 9270   1.471   3.655   3.171 -0.0414 -0.3246 -0.6571
   68MOL0     C 9271   1.592   3.598   3.134  0.3823 -0.3138 -0.1950
   68MOL0     C 9272   1.683   3.604   3.237 -0.4862  0.0922 -0.2468
   68MOL0     C 9273   1.812   3.570   3.217  0.1165 -0.3534  1.4226
   68MOL0     C 9274   1.907   3.575   3.332 -0.1399  0.3179  0.0852
   68MOL0     C 9275   1.855   3.539   3.084  0.0160  0.3230 -0.7749
   68MOL0     C 9276   1.994   3.519   3.056  0.5023 -0.0683 -0.6617
   68MOL0     O 9277   2.026   3.408   2.983 -1.1302  0.1562 -0.1579
   68MOL0     C 9278   2.151   3.412   2.924  0.2163  0.4050  0.1902
   68MOL0     C 9279   2.154   3.418   2.786 -0.6010  0.3704  0.6276
   68MOL0     C 9280   2.279   3.398   2.719 -0.4308 -0.6025 -0.7770
   68MOL0     C 9281   2.398   3.375   2.791  0.4233 -0.6191  0.6053
   68MOL0     O 9282   2.520   3.358   2.728  0.4259  0.4997  0.8382
   68MOL0     C 9283   2.538   3.429   2.600  0.0316  0.1251 -0.1590
   68MOL0     C 9284   2.689   3.436   2.579 -0.0850  0.3925  0.7470
   68MOL0     C 9285   2.763   3.298   2.563 -0.1279 -0.5037 -0.6549
   68MOL0     C 9286   2.854   3.288   2.441  0.6110  0.0824 -0.3231
   68MOL0     C 9287   2.901   3.149   2.437  0.2020 -0.2622 -0.4527
   68MOL0     C 9288   2.949   3.115   2.294  0.0679 -0.1144 -0.1519
   68MOL0     C 9289   2.993   2.962   2.271 -0.8911 -0.0701 -0.4053
   68MOL0     C 9290   3.033   2.942   2.120 -0.4578 -0.2370 -0.1386
   68MOL0    Cl 9291   3.165   2.823   2.102 -0.1786  0.1538  0.0891
   68MOL0     C 9292   2.393   3.364   2.934  0.7520 -0.5146 -0.5949
   68MOL0     C 9293   2.268   3.387   2.997 -0.1808  0.4779  0.2427
   68MOL0     O 9294   2.071   3.619   3.080  1.0257 -0.2075 -0.0867
   68MOL0     C 9295   1.765   3.544   2.976  0.1176 -0.9800 -0.1258
   68MOL0     C 9296   1.632   3.585   3.006  0.7727 -0.1304  0.2550
   68MOL0     N 9297   0.885   3.515   3.311  0.2107  0.1826  0.2226
   68MOL0     N 9298   0.766   3.551   3.275 -0.4665 -0.0539 -1.0385
   68MOL0     C 9299   1.389   3.801   2.690 -0.4826  0.5547 -0.0756
   68MOL0     C 9300   1.512   3.751   2.645 -0.0514  0.9367 -0.3404
   68MOL0     C 9301   1.867   3.695   2.377  1.0745 -0.2343 -0.1654
   68MOL0     C 9302   1.920   3.578   2.430 -0.3039 -0.4874  0.3393
   68MOL0     C 9303   2.031   3.520   2.369  0.3701 -0.1107 -0.1968
   68MOL0     C 9304   2.099   3.579   2.260  0.5575 -0.2740  0.3612
   68MOL0     O 9305   2.214   3.516   2.225  0.3770 -0.0495  0.5741
   68MOL0     C 9306   2.244   3.508   2.084  0.0331 -0.1336  0.1466
   68MOL0     C 9307   2.397   3.488   2.067  0.5916 -0.1176  0.4312
   68MOL0     C 9308   2.435   3.361   2.137  0.2910  0.1004 -0.3340
   68MOL0     C 9309   2.591   3.355   2.160 -0.3222  0.3477 -0.1615
   68MOL0     C 9310   2.660   3.338   2.029  0.0645 -0.4941  0.5824
   68MOL0     C 9311   2.734   3.337   1.934 -0.1140 -0.4820 -0.7848
   68MOL0     C 9312   2.048   3.704   2.212 -0.6186 -1.2949 -0.0596
   68MOL0     C 9313   1.927   3.758   2.261  0.1879 -0.4592  0.2695
   68MOL0     C 9314   1.879   3.889   2.198  0.2257  0.3075 -0.1431
   68MOL0     H 9315   1.420   3.649   2.338 -0.4037  1.2105 -0.1863
   68MOL0     H 9316   1.206   3.732   2.406 -0.9304  1.5446  1.4023
   68MOL0     H 9317   1.002   3.745   2.561  1.1126 -0.1268 -0.8770
   68MOL0     H 9318   1.080   3.884   2.483  1.1730  1.5075  0.9140
   68MOL0     H 9319   0.978   4.042   2.627 -5.4100  1.7009  1.6560
   68MOL0     H 9320   0.878   3.938   2.572  2.1564 -1.7376 -1.3448
   68MOL0     H 9321   0.880   3.800   2.800 -0.4927  1.2145  1.2742
   68MOL0     H 9322   0.989   3.929   2.851 -2.0905  0.9028  1.9983
   68MOL0     H 9323   0.836   4.109   2.802  1.3917 -0.6316  2.8680
   68MOL0     H 9324   0.713   3.996   2.741  1.8455  3.4588 -2.6141
   68MOL0     H 9325   0.661   4.081   2.962  0.1548  0.1860 -0.3254
   68MOL0     H 9326   0.825   4.046   3.009  1.6007 -1.3499 -1.1587
   68MOL0     H 9327   0.623   3.833   2.938  0.2262 -2.4499  1.5405
   68MOL0     H 9328   0.781   3.805   3.002 -1.3666 -2.2734  1.0584
   68MOL0     H 9329   0.532   3.922   3.146 -0.2268  0.3411 -1.2153
   68MOL0     H 9330   0.693   3.958   3.220  0.4200 -1.1231  0.8663
   68MOL0     H 9331   0.605   3.792   3.337  3.0010  0.2302  1.7334
   68MOL0     H 9332   0.544   3.698   3.211 -1.0354  1.6337  0.1916
   68MOL0     H 9333   0.899   3.845   3.287 -2.1543  0.1692  1.9785
   68MOL0     H 9334   1.113   3.526   3.403 -4.3542 -1.1396  2.6192
   68MOL0     H 9335   1.077   3.671   3.483 -0.6769 -3.6859  1.3156
   68MOL0     H 9336   1.177   3.802   3.275  2.1475  0.4676 -0.5479
   68MOL0     H 9337   1.290   3.706   3.363  0.8682 -2.1322 -1.5879
   68MOL0     H 9338   1.244   3.508   3.185  1.3947 -0.2021 -0.4881
   68MOL0     H 9339   1.146   3.632   3.100 -0.6297  0.4162  1.9344
   68MOL0     H 9340   1.353   3.607   3.005 -1.6865 -2.5552  1.4968
   68MOL0     H 9341   1.338   3.771   3.061 -0.3040  0.9874  1.2966
   68MOL0     H 9342   1.649   3.641   3.333 -1.9915  0.9316 -1.0548
   68MOL0     H 9343   1.992   3.641   3.313  1.8367 -2.1344 -0.2014
   68MOL0     H 9344   1.925   3.471   3.362 -2.3722  0.0349  0.6615
   68MOL0     H 9345   1.854   3.623   3.415  1.9195  4.6257 -0.8534
   68MOL0     H 9346   2.058   3.427   2.736  0.3383  1.7927 -1.0305
   68MOL0     H 9347   2.287   3.398   2.610  0.5593 -2.7480 -0.7535
   68MOL0     H 9348   2.497   3.367   2.520  0.0077 -0.5634  0.3770
   68MOL0     H 9349   2.478   3.520   2.603  0.1407  0.1825  0.3027
   68MOL0     H 9350   2.701   3.493   2.486 -3.0988 -1.3481 -0.8837
   68MOL0     H 9351   2.733   3.490   2.663  1.1778 -0.5650  0.7235
   68MOL0     H 9352   2.689   3.218   2.568 -0.8909  0.1128 -1.6853
   68MOL0     H 9353   2.821   3.278   2.653  0.8309 -0.6318 -1.2832
   68MOL0     H 9354   2.935   3.358   2.462 -1.0197  2.3691 -1.2149
   68MOL0     H 9355   2.803   3.326   2.351 -1.4106 -0.9203  0.3314
   68MOL0     H 9356   2.972   3.145   2.519 -0.4311 -0.9413  0.0686
   68MOL0     H 9357   2.820   3.080   2.461  0.0100  1.2047  3.8935
   68MOL0     H 9358   3.041   3.174   2.287  1.1249 -1.5986  0.6392
   68MOL0     H 9359   2.881   3.142   2.214 -1.0479 -1.2795  0.3738
   68MOL0     H 9360   2.905   2.898   2.287 -1.9736  1.7252  1.2355
   68MOL0     H 9361   3.071   2.949   2.347 -1.3507  5.1585  1.3343
   68MOL0     H 9362   3.062   3.039   2.080  0.6127  0.3653  1.9298
   68MOL0     H 9363   2.946   2.894   2.074  0.0679 -0.0486 -1.3769
   68MOL0     H 9364   2.482   3.351   2.995  0.3344 -1.2179 -0.1214
   68MOL0     H 9365   2.252   3.374   3.104  1.4079  1.7889  0.6722
   68MOL0     H 9366   1.805   3.530   2.876 -0.2508  0.7822 -0.5434
   68MOL0     H 9367   1.568   3.618   2.925  0.0758 -1.7079  0.1346
   68MOL0     H 9368   1.382   3.848   2.788 -3.0710  1.0054 -0.4080
   68MOL0     H 9369   1.599   3.774   2.706  2.3894  0.1850 -3.2619
   68MOL0     H 9370   1.868   3.528   2.511 -0.6274 -0.3902  0.1932
   68MOL0     H 9371   2.075   3.428   2.407 -0.2902 -0.6854 -0.7999
   68MOL0     H 9372   2.188   3.428   2.036 -1.8281  0.2119  1.6059
   68MOL0     H 9373   2.212   3.605   2.043  1.1852 -0.5650 -1.8657
   68MOL0     H 9374   2.442   3.576   2.113 -2.4346  0.5768  2.3674
   68MOL0     H 9375   2.422   3.488   1.960 -1.9752  0.0093 -0.2248
   68MOL0     H 9376   2.391   3.349   2.236  1.3674 -1.7344 -0.0372
   68MOL0     H 9377   2.414   3.277   2.070  4.2714 -0.2055 -1.4623
   68MOL0     H 9378   2.621   3.275   2.228  0.8033  2.0650  1.4676
   68MOL0     H 9379   2.603   3.449   2.215  2.0491 -0.5040  0.9145
   68MOL0     H 9380   2.802   3.347   1.851  0.2023  0.8886 -0.3697
   68MOL0     H 9381   2.086   3.760   2.127 -1.7334  1.1127  0.9346
   68MOL0     H 9382   1.773   3.907   2.221 -0.6443 -2.8487 -1.1141
   68MOL0     H 9383   1.945   3.970   2.230  0.3444  0.0520  0.2690
   68MOL0     H 9384   1.884   3.871   2.090 -0.3760 -0.2457 -0.0820
   69MOL0     O 9385   7.222   1.586   5.215  0.1876  0.1495  0.9613
   69MOL0     C 9386   7.237   1.523   5.114 -0.1034  0.7061  0.3062
   69MOL0     O 9387   7.350   1.520   5.038 -0.1244  0.1805  0.4437
   69MOL0     C 9388   7.469   1.597   5.059 -0.1171  0.3467  0.7277
   69MOL0     C 9389   7.459   1.737   5.079 -0.7635 -0.6304 -0.9648
   69MOL0     C 9390   7.574   1.815   5.090  0.1634  0.9053 -0.2806
   69MOL0     C 9391   7.698   1.749   5.081  0.0009  0.2809  0.3132
   69MOL0     O 9392   7.821   1.813   5.099  0.7049 -0.7202  0.1678
   69MOL0     C 9393   7.845   1.871   5.229  0.1995  0.5233  0.9495
   69MOL0     C 9394   7.967   1.952   5.231 -0.8890 -0.2582 -0.6536
   69MOL0     C 9395   8.094   1.868   5.224  1.0911  0.2412 -0.8765
   69MOL0     C 9396   8.218   1.953   5.239 -0.2702  0.3129 -0.4021
   69MOL0     C 9397   8.345   1.867   5.220  0.7734  0.4092  0.3046
   69MOL0     C 9398   8.477   1.942   5.260 -0.0918  0.8445  0.1724
   69MOL0     C 9399   8.519   2.071   5.191  0.8457  0.2416  0.5413
   69MOL0     C 9400   8.673   2.075   5.188 -0.1681 -1.0332  0.3447
   69MOL0     N 9401   8.715   2.212   5.165 -1.0614  0.2858 -0.3625
   69MOL0     C 9402   8.696   2.323   5.242  0.1550 -0.4556  0.2943
   69MOL0     C 9403   8.759   2.430   5.175 -0.3485  0.3142 -0.4133
   69MOL0     C 9404   8.802   2.561   5.232 -0.5862 -0.3811  0.6002
   69MOL0     C 9405   8.946   2.549   5.288 -0.3261 -0.0364  1.3903
   69MOL0     C 9406   9.003   2.685   5.333  0.0862  0.1606 -0.0973
   69MOL0     C 9407   9.139   2.672   5.393 -0.2099  0.1271  0.3001
   69MOL0     O 9408   9.126   2.623   5.524 -0.7044 -0.5747 -0.1847
   69MOL0     C 9409   9.233   2.569   5.591  0.7090 -0.1386 -0.5941
   69MOL0     C 9410   9.354   2.546   5.534 -0.2831 -0.8226  0.6045
   69MOL0     C 9411   9.459   2.483   5.600  0.9244 -0.1229  0.3677
   69MOL0     C 9412   9.592   2.474   5.523  0.3958 -0.0845  0.9720
   69MOL0     C 9413   9.442   2.443   5.735 -0.0612 -0.1085 -0.9344
   69MOL0     C 9414   9.547   2.386   5.821  0.1012  0.0099  0.5878
   69MOL0     O 9415   9.517   2.368   5.952 -0.1398 -0.5193 -0.1656
   69MOL0     C 9416   9.608   2.347   6.048  0.1243 -0.3221 -0.1346
   69MOL0     C 9417   9.570   2.373   6.173 -0.0860  0.3280 -0.0379
   69MOL0     C 9418   9.655   2.351   6.286 -0.2053 -0.6512  0.0253
   69MOL0     C 9419   9.787   2.300   6.270 -0.8399 -0.0548 -0.5387
   69MOL0     O 9420   9.881   2.278   6.368 -0.0887  0.3616  0.4258
   69MOL0     C 9421   9.850   2.323   6.500 -0.2650  0.4626 -0.7732
   69MOL0     C 9422   9.962   2.281   6.594 -0.0273 -0.1309 -0.1171
   69MOL0     C 9423  10.094   2.358   6.579 -0.8947  0.0318  0.2638
   69MOL0     C 9424  10.197   2.291   6.680  0.6000 -0.0167  0.5672
   69MOL0     C 9425  10.342   2.354   6.644  0.7616  0.0635 -0.7465
   69MOL0     C 9426  10.363   2.491   6.707  0.3546  0.2912 -0.2056
   69MOL0     C 9427  10.507   2.543   6.676 -0.3137  0.2033  0.0880
   69MOL0     C 9428  10.617   2.459   6.733 -0.6420  0.3047  0.6185
   69MOL0    Cl 9429  10.768   2.541   6.684  0.3263 -0.1569  0.2256
   69MOL0     C 9430   9.836   2.285   6.140 -0.1984  0.8750 -0.2507
   69MOL0     C 9431   9.746   2.301   6.033 -0.5799 -0.3969 -0.7649
   69MOL0     O 9432   9.661   2.392   5.773  0.3041 -0.1020  0.2404
   69MOL0     C 9433   9.316   2.468   5.792  0.2280 -0.3062  0.4202
   69MOL0     C 9434   9.206   2.524   5.724 -0.8356  0.4237  0.0592
   69MOL0     N 9435   8.796   2.381   5.054  0.6837 -0.0085  0.6398
   69MOL0     N 9436   8.772   2.256   5.052 -0.7952  0.9389 -0.2309
   69MOL0     C 9437   7.704   1.614   5.046 -0.3437  0.4693 -0.1105
   69MOL0     C 9438   7.588   1.536   5.030  0.5432 -0.1157 -0.8449
   69MOL0     C 9439   7.131   1.424   5.078 -0.5347 -1.0034 -0.4910
   69MOL0     C 9440   7.122   1.385   4.947  0.2939 -0.8136  0.1234
   69MOL0     C 9441   7.046   1.279   4.901  0.0866 -0.1543  0.5228
   69MOL0     C 9442   6.962   1.209   4.988  0.1190  0.7500 -0.8863
   69MOL0     O 9443   6.887   1.099   4.951 -0.3910 -0.6072  0.0260
   69MOL0     C 9444   6.834   1.113   4.818 -0.0584 -0.1769  0.3008
   69MOL0     C 9445   6.728   1.008   4.784 -0.5267 -0.1365  0.4260
   69MOL0     C 9446   6.610   1.031   4.874  0.4914 -0.5372  0.0478
   69MOL0     C 9447   6.512   0.919   4.842 -0.0738 -0.0524 -0.3955
   69MOL0     C 9448   6.385   0.917   4.913 -0.0364  0.0361  0.0557
   69MOL0     C 9449   6.287   0.912   4.989 -0.0535  0.9358  0.0033
   69MOL0     C 9450   6.957   1.251   5.121 -0.6461 -0.6119  0.0588
   69MOL0     C 9451   7.036   1.361   5.164  0.5880  0.4051 -0.3122
   69MOL0     C 9452   7.026   1.391   5.307  0.3561  0.7837 -0.6041
   69MOL0     H 9453   7.367   1.786   5.105  0.1667  1.7452 -1.8539
   69MOL0     H 9454   7.564   1.918   5.123 -2.0872  1.1878 -1.6304
   69MOL0     H 9455   7.856   1.787   5.299 -2.4218 -0.3016  0.4946
   69MOL0     H 9456   7.756   1.930   5.253 -2.8762 -2.5667 -1.7675
   69MOL0     H 9457   7.953   2.014   5.142  1.4942  0.3434 -0.6607
   69MOL0     H 9458   7.972   2.017   5.318  1.8679 -2.2828  0.8494
   69MOL0     H 9459   8.092   1.794   5.304  1.6021 -0.7750 -1.7780
   69MOL0     H 9460   8.104   1.802   5.137  0.7073  0.3187 -0.9857
   69MOL0     H 9461   8.220   2.033   5.164  1.1903  3.1127  2.3824
   69MOL0     H 9462   8.209   2.002   5.336  0.0007 -1.8532  0.7786
   69MOL0     H 9463   8.347   1.826   5.119 -2.1265 -1.4786  0.8969
   69MOL0     H 9464   8.343   1.773   5.276  0.0519  1.2289  1.7006
   69MOL0     H 9465   8.483   1.964   5.367 -0.6333 -0.3080  0.4596
   69MOL0     H 9466   8.554   1.867   5.241  1.1946  2.3720 -0.8508
   69MOL0     H 9467   8.477   2.158   5.241 -0.4394 -0.6887  1.1398
   69MOL0     H 9468   8.479   2.072   5.090 -2.1151 -0.5767  1.6136
   69MOL0     H 9469   8.715   2.045   5.284  0.2412  1.1199  0.8862
   69MOL0     H 9470   8.707   2.014   5.103 -0.3624 -1.2972  0.4548
   69MOL0     H 9471   8.677   2.325   5.349  0.6999  1.5636  0.3954
   69MOL0     H 9472   8.732   2.586   5.312 -0.7787  1.7776 -0.1830
   69MOL0     H 9473   8.798   2.644   5.162 -0.0388 -0.2805  0.6797
   69MOL0     H 9474   8.933   2.478   5.370 -1.1095 -0.1071  1.2063
   69MOL0     H 9475   9.016   2.507   5.215 -0.5625  3.0325 -0.7917
   69MOL0     H 9476   9.007   2.730   5.233  0.1408  1.0874  0.3143
   69MOL0     H 9477   8.937   2.731   5.406 -1.4475 -0.7686 -0.8493
   69MOL0     H 9478   9.188   2.593   5.335 -1.3041  0.3555 -1.0015
   69MOL0     H 9479   9.200   2.762   5.384  1.2801 -0.7568  1.0845
   69MOL0     H 9480   9.370   2.578   5.432 -1.2515 -1.1618  0.3342
   69MOL0     H 9481   9.666   2.537   5.574  1.0626 -0.8058  0.9174
   69MOL0     H 9482   9.588   2.503   5.418  2.0517  1.2372  1.2243
   69MOL0     H 9483   9.616   2.367   5.521  1.1821  0.0926  0.8182
   69MOL0     H 9484   9.466   2.405   6.185 -0.7572 -0.8986 -2.1176
   69MOL0     H 9485   9.612   2.357   6.385 -1.0028 -1.6083 -0.2411
   69MOL0     H 9486   9.820   2.428   6.509  0.5414  0.6234  0.2724
   69MOL0     H 9487   9.761   2.263   6.522 -1.2712  1.5367 -1.7776
   69MOL0     H 9488   9.927   2.312   6.693  2.6853  3.6975 -0.1608
   69MOL0     H 9489   9.975   2.172   6.598  2.3817  0.1283  0.3754
   69MOL0     H 9490  10.093   2.462   6.611 -0.3087 -0.5427  2.3090
   69MOL0     H 9491  10.124   2.355   6.474  2.5796  0.8639  1.0920
   69MOL0     H 9492  10.187   2.187   6.646 -0.6891  0.8298 -1.9313
   69MOL0     H 9493  10.181   2.298   6.788 -1.1130 -0.8185  0.4065
   69MOL0     H 9494  10.422   2.291   6.684  1.5631  0.3061 -1.9282
   69MOL0     H 9495  10.365   2.363   6.538  1.9498 -2.8746 -0.8266
   69MOL0     H 9496  10.351   2.478   6.815  0.5853 -2.6840 -0.4317
   69MOL0     H 9497  10.286   2.562   6.675  2.0326  2.0278 -0.5700
   69MOL0     H 9498  10.512   2.643   6.720 -1.0468  0.2111  0.1659
   69MOL0     H 9499  10.527   2.557   6.570  1.3259  0.4569  0.4087
   69MOL0     H 9500  10.615   2.355   6.698  0.3878  0.2662  0.6556
   69MOL0     H 9501  10.618   2.443   6.841  1.6778 -2.9623  0.2556
   69MOL0     H 9502   9.939   2.263   6.113 -1.1813 -0.3618 -3.5975
   69MOL0     H 9503   9.790   2.296   5.934  1.4732  3.5213 -0.2543
   69MOL0     H 9504   9.292   2.426   5.889 -1.3537 -3.5293 -1.2045
   69MOL0     H 9505   9.108   2.532   5.770 -1.1065 -0.8399 -0.2475
   69MOL0     H 9506   7.805   1.577   5.030 -0.3529 -0.5719  1.8104
   69MOL0     H 9507   7.590   1.430   5.007  0.5424 -0.6130  1.2424
   69MOL0     H 9508   7.198   1.427   4.882  0.7902 -1.1228  0.4956
   69MOL0     H 9509   7.058   1.251   4.797 -0.8014  2.3864 -0.3549
   69MOL0     H 9510   6.795   1.215   4.806  0.7413  0.0149 -0.8970
   69MOL0     H 9511   6.923   1.098   4.756 -1.1263 -1.3597 -1.0315
   69MOL0     H 9512   6.777   0.910   4.776 -1.2500 -0.3639 -1.9243
   69MOL0     H 9513   6.692   1.028   4.683  1.2816 -1.9798 -0.6702
   69MOL0     H 9514   6.643   1.044   4.978  1.6957 -0.5359 -0.3201
   69MOL0     H 9515   6.561   1.121   4.835 -2.0272 -1.3052  1.2156
   69MOL0     H 9516   6.550   0.821   4.874 -1.3521 -0.4466 -0.0425
   69MOL0     H 9517   6.488   0.918   4.736 -3.6816 -2.2168  0.2838
   69MOL0     H 9518   6.195   0.915   5.045 -0.3177  1.2600 -0.4416
   69MOL0     H 9519   6.904   1.196   5.198  1.6589 -0.0998  2.1468
   69MOL0     H 9520   7.024   1.496   5.338 -1.9926 -0.1470  2.9582
   69MOL0     H 9521   6.933   1.355   5.350  0.0168  3.1802  0.8722
   69MOL0     H 9522   7.107   1.336   5.355  0.1457 -1.4323 -2.6217
   70MOL0     O 9523   0.632   9.049   1.791 -0.0583  0.5748 -0.0627
   70MOL0     C 9524   0.564   9.052   1.689  0.4536 -0.2326 -0.1125
   70MOL0     O 9525   0.584   8.965   1.574 -0.2538 -0.6225  0.3709
   70MOL0     C 9526   0.712   8.920   1.578  0.3499 -0.7813  0.4874
   70MOL0     C 9527   0.742   8.787   1.598 -0.4278  0.0454  1.2522
   70MOL0     C 9528   0.871   8.741   1.599 -0.1650 -0.8806  0.5652
   70MOL0     C 9529   0.983   8.818   1.579  0.2087  0.1691  0.4566
   70MOL0     O 9530   1.113   8.783   1.560 -0.2685  0.8257 -0.9688
   70MOL0     C 9531   1.143   8.640   1.582 -0.0650 -0.0855  0.1289
   70MOL0     C 9532   1.301   8.635   1.594 -0.2702  0.0768 -0.5550
   70MOL0     C 9533   1.359   8.640   1.460 -0.2436  1.0852  0.2221
   70MOL0     C 9534   1.336   8.775   1.384  0.9621 -0.0474 -0.1360
   70MOL0     C 9535   1.416   8.793   1.256  0.3827 -0.7338  0.1639
   70MOL0     C 9536   1.558   8.729   1.228 -0.8249  0.0039 -0.6145
   70MOL0     C 9537   1.614   8.789   1.097  0.1480  0.2737 -0.2254
   70MOL0     C 9538   1.759   8.736   1.062  0.2928  0.4920  0.3731
   70MOL0     N 9539   1.862   8.782   1.151 -0.8093  0.6353  0.3108
   70MOL0     C 9540   1.948   8.882   1.136  0.8560 -0.1402 -0.9919
   70MOL0     C 9541   2.023   8.878   1.249  0.8010 -1.1276 -0.2188
   70MOL0     C 9542   2.137   8.977   1.273 -0.3977 -0.0057  0.0115
   70MOL0     C 9543   2.266   8.908   1.236  0.2782  0.2968  1.1575
   70MOL0     C 9544   2.394   8.991   1.263 -0.5650 -0.4516 -0.0075
   70MOL0     C 9545   2.521   8.932   1.205 -1.1685 -0.3917  0.2230
   70MOL0     O 9546   2.632   8.997   1.260  0.6477 -0.6010  0.5788
   70MOL0     C 9547   2.758   8.977   1.199 -0.4109 -0.9275  0.3395
   70MOL0     C 9548   2.772   8.870   1.107  0.0979  0.4206 -0.0795
   70MOL0     C 9549   2.901   8.837   1.045 -0.4282  0.1149 -0.7956
   70MOL0     C 9550   2.908   8.722   0.953  0.1844  0.6176  0.9489
   70MOL0     C 9551   3.017   8.908   1.077  0.2515 -0.9755 -0.1477
   70MOL0     C 9552   3.159   8.883   1.040  0.8432  1.1694  0.3877
   70MOL0     O 9553   3.261   8.965   1.091  0.6044 -0.2047 -0.5518
   70MOL0     C 9554   3.384   8.958   1.032 -0.8593 -0.0095 -0.2732
   70MOL0     C 9555   3.417   9.025   0.915  0.1865 -0.0443  0.1053
   70MOL0     C 9556   3.539   9.014   0.863  0.4756 -0.4984  0.5286
   70MOL0     C 9557   3.635   8.928   0.914  0.4701  0.2195 -0.0449
   70MOL0     O 9558   3.755   8.914   0.863  0.1570 -0.0432  0.5437
   70MOL0     C 9559   3.784   8.965   0.735 -0.1726 -0.3543  0.7438
   70MOL0     C 9560   3.930   8.933   0.690  0.5415  0.1616  0.0325
   70MOL0     C 9561   4.030   8.971   0.793 -0.5363  0.8439 -0.2340
   70MOL0     C 9562   4.174   8.954   0.745 -0.1732 -0.3690  0.1348
   70MOL0     C 9563   4.229   8.812   0.786 -0.9399 -0.2415  0.6169
   70MOL0     C 9564   4.379   8.796   0.768 -0.1845  1.0549  0.8512
   70MOL0     C 9565   4.422   8.649   0.817 -0.5922 -0.8293 -0.0144
   70MOL0     C 9566   4.581   8.632   0.834 -0.2604 -0.1158 -0.2432
   70MOL0    Cl 9567   4.677   8.642   0.681 -0.2560  0.1303  0.0745
   70MOL0     C 9568   3.601   8.856   1.022  0.0043 -0.7664 -0.5687
   70MOL0     C 9569   3.476   8.866   1.081  0.1359  0.4046 -0.4142
   70MOL0     O 9570   3.181   8.801   0.950 -0.6719  0.2144  0.1410
   70MOL0     C 9571   2.989   9.028   1.163  0.3796 -1.2494  0.0199
   70MOL0     C 9572   2.864   9.059   1.221 -0.5190  0.7320 -0.1177
   70MOL0     N 9573   1.985   8.765   1.322 -0.0930  0.5265  0.3427
   70MOL0     N 9574   1.886   8.705   1.262  0.2177 -1.0786 -1.1826
   70MOL0     C 9575   0.951   8.951   1.547 -0.1165  0.1140  0.0911
   70MOL0     C 9576   0.819   9.005   1.547  0.0642  0.0209 -0.6693
   70MOL0     C 9577   0.443   9.134   1.695  0.1287  0.5958  0.0651
   70MOL0     C 9578   0.369   9.113   1.808  0.7813 -0.9272  0.3385
   70MOL0     C 9579   0.247   9.177   1.820 -0.1169 -0.1466  0.1872
   70MOL0     C 9580   0.192   9.248   1.712 -0.1097 -0.3805  0.4872
   70MOL0     O 9581   0.066   9.305   1.702 -0.7736 -0.4530 -0.2979
   70MOL0     C 9582  -0.029   9.255   1.795  0.1361 -0.7512  0.0993
   70MOL0     C 9583  -0.086   9.107   1.770 -0.4238 -0.5326  0.5157
   70MOL0     C 9584  -0.179   9.092   1.646  0.7967  0.3036  0.4259
   70MOL0     C 9585  -0.306   9.182   1.673 -1.0432  0.2409 -0.0956
   70MOL0     C 9586  -0.427   9.151   1.598  0.0868  0.3901  0.2276
   70MOL0     C 9587  -0.497   9.111   1.507  0.5952 -0.3692  0.0249
   70MOL0     C 9588   0.269   9.270   1.598 -0.1964 -0.8769 -0.9489
   70MOL0     C 9589   0.400   9.220   1.594  0.5415  0.5678 -0.6159
   70MOL0     C 9590   0.493   9.259   1.482 -0.3999 -0.0821 -0.1570
   70MOL0     H 9591   0.666   8.714   1.624 -1.2705  0.9624  1.4604
   70MOL0     H 9592   0.886   8.634   1.611  1.4115 -0.9510 -1.4488
   70MOL0     H 9593   1.114   8.579   1.496 -0.4927 -0.6571  0.6669
   70MOL0     H 9594   1.095   8.600   1.672 -1.8230  2.4150  0.4152
   70MOL0     H 9595   1.345   8.713   1.658  1.2922  0.0368 -1.5287
   70MOL0     H 9596   1.329   8.539   1.639 -1.5241  0.6676  1.6314
   70MOL0     H 9597   1.466   8.623   1.477 -0.1900 -0.5582 -1.3946
   70MOL0     H 9598   1.322   8.553   1.405  1.1669 -0.1061  1.0721
   70MOL0     H 9599   1.231   8.777   1.353  1.4770 -1.6300 -2.2142
   70MOL0     H 9600   1.351   8.860   1.451 -0.0083 -0.8768  1.1873
   70MOL0     H 9601   1.418   8.902   1.241 -3.3379 -0.5290  0.0180
   70MOL0     H 9602   1.342   8.766   1.180  0.1626 -0.8666  0.4230
   70MOL0     H 9603   1.619   8.738   1.318 -0.1542 -1.1560 -0.9410
   70MOL0     H 9604   1.544   8.621   1.215 -0.8181 -0.1000  0.2374
   70MOL0     H 9605   1.626   8.895   1.120 -0.8962  0.6886 -1.5085
   70MOL0     H 9606   1.549   8.774   1.011 -3.3619 -2.1430  2.5459
   70MOL0     H 9607   1.760   8.627   1.051 -1.4401  0.5706 -1.1025
   70MOL0     H 9608   1.785   8.778   0.965  0.7820 -2.0364 -0.6765
   70MOL0     H 9609   1.955   8.945   1.048  0.7941  2.0239  0.4628
   70MOL0     H 9610   2.136   8.991   1.381  0.3313  0.1776 -0.0052
   70MOL0     H 9611   2.132   9.074   1.222 -0.6040  0.5162  0.9974
   70MOL0     H 9612   2.281   8.816   1.293  0.8908 -0.0854  0.3982
   70MOL0     H 9613   2.270   8.885   1.129  2.9586  1.9979  0.7865
   70MOL0     H 9614   2.381   9.092   1.223 -0.1264  0.6826  2.5083
   70MOL0     H 9615   2.401   9.007   1.371 -2.0824 -0.1565  0.0718
   70MOL0     H 9616   2.525   8.825   1.227 -1.9383 -0.4215  0.2126
   70MOL0     H 9617   2.523   8.950   1.097  2.3047  1.5498  0.4402
   70MOL0     H 9618   2.698   8.792   1.097  0.8411 -0.2798 -0.1896
   70MOL0     H 9619   2.936   8.741   0.849 -0.8033 -2.5000 -0.0135
   70MOL0     H 9620   2.812   8.670   0.942  1.5583 -1.9151  0.0497
   70MOL0     H 9621   2.974   8.641   0.987 -0.0089 -0.5481 -1.2724
   70MOL0     H 9622   3.349   9.094   0.866  0.2078 -0.1879 -0.1287
   70MOL0     H 9623   3.563   9.082   0.781  0.7455 -1.1675  0.0383
   70MOL0     H 9624   3.714   8.914   0.668 -0.9600 -2.3896  2.9947
   70MOL0     H 9625   3.759   9.072   0.733  0.7126 -0.0885  2.3423
   70MOL0     H 9626   3.941   8.825   0.682  2.0002  0.3856 -1.5298
   70MOL0     H 9627   3.960   8.975   0.594  1.3195  1.6121  0.8725
   70MOL0     H 9628   4.016   8.899   0.874 -1.6707  1.5747  0.2492
   70MOL0     H 9629   4.004   9.069   0.834 -2.3378 -0.6138  2.4211
   70MOL0     H 9630   4.231   9.036   0.790  0.8597 -0.7265 -0.5004
   70MOL0     H 9631   4.188   8.965   0.637  1.1043  0.9748  0.4048
   70MOL0     H 9632   4.215   8.794   0.892  0.2014 -1.0338  0.6526
   70MOL0     H 9633   4.179   8.740   0.720 -0.2845  0.3057 -0.5197
   70MOL0     H 9634   4.425   8.864   0.839  0.4021  1.7532 -0.1725
   70MOL0     H 9635   4.394   8.811   0.661 -2.6162  0.7837  0.4046
   70MOL0     H 9636   4.400   8.569   0.746  0.7415 -1.9024  0.7223
   70MOL0     H 9637   4.379   8.634   0.917  0.1632  0.4322  0.5235
   70MOL0     H 9638   4.617   8.537   0.875 -1.0845 -1.7469 -3.0294
   70MOL0     H 9639   4.604   8.716   0.899 -0.2644 -1.2038  1.2269
   70MOL0     H 9640   3.662   8.790   1.083 -3.7815  0.8368  5.9674
   70MOL0     H 9641   3.443   8.803   1.163  0.2279 -1.0278 -1.4344
   70MOL0     H 9642   3.071   9.095   1.187 -0.0777 -0.6584 -0.0257
   70MOL0     H 9643   2.840   9.148   1.277  0.3264  1.2559 -0.5588
   70MOL0     H 9644   1.033   9.017   1.521 -1.9047  2.7513  0.7153
   70MOL0     H 9645   0.810   9.112   1.531 -0.1199  0.0964 -0.1029
   70MOL0     H 9646   0.396   9.045   1.888 -2.3812 -3.2625 -0.3935
   70MOL0     H 9647   0.189   9.182   1.912 -0.6216  0.1133 -0.1410
   70MOL0     H 9648   0.011   9.264   1.897 -0.9321 -0.6056  0.5270
   70MOL0     H 9649  -0.113   9.325   1.788 -1.1226 -2.2073  0.0068
   70MOL0     H 9650  -0.148   9.078   1.856  0.4703 -0.0869  1.3412
   70MOL0     H 9651   0.002   9.042   1.767  0.7900  1.0011  1.3522
   70MOL0     H 9652  -0.128   9.132   1.559 -0.8112 -0.6974 -1.0378
   70MOL0     H 9653  -0.210   8.988   1.636 -2.3952  0.9333  2.1115
   70MOL0     H 9654  -0.277   9.283   1.645 -3.1727  0.5932 -1.2063
   70MOL0     H 9655  -0.323   9.175   1.781  0.3160  2.4209  0.3295
   70MOL0     H 9656  -0.548   9.074   1.420  0.2197 -1.5532  0.7158
   70MOL0     H 9657   0.218   9.328   1.522 -3.1699 -1.3162  0.5594
   70MOL0     H 9658   0.521   9.175   1.417 -0.1296  0.1270 -0.3148
   70MOL0     H 9659   0.451   9.343   1.425  0.0571 -0.2285 -0.7283
   70MOL0     H 9660   0.586   9.302   1.519 -0.1218  0.3941 -1.3677
   71MOL0     O 9661   0.179   2.847  10.717 -0.2170  0.6060 -0.5693
   71MOL0     C 9662   0.097   2.752  10.690  0.2019  0.1818  0.3021
   71MOL0     O 9663   0.129   2.632  10.637 -0.1127 -0.0063  0.4760
   71MOL0     C 9664   0.260   2.591  10.630  0.1535 -0.8222 -0.9246
   71MOL0     C 9665   0.282   2.478  10.548 -0.4900  0.4547  0.6888
   71MOL0     C 9666   0.413   2.424  10.538  0.2120 -0.0335  0.5176
   71MOL0     C 9667   0.522   2.476  10.614  0.0144  0.0782  0.1345
   71MOL0     O 9668   0.641   2.404  10.604 -0.2223  0.0729  0.4706
   71MOL0     C 9669   0.760   2.453  10.658 -0.7719 -0.2869  0.6025
   71MOL0     C 9670   0.864   2.347  10.650  0.0786  0.4652 -0.2631
   71MOL0     C 9671   0.996   2.390  10.715 -0.0120  0.3245 -0.1570
   71MOL0     C 9672   1.106   2.291  10.717  0.4749 -0.3358  0.2855
   71MOL0     C 9673   1.227   2.347  10.787 -0.0007 -0.6966  0.0608
   71MOL0     C 9674   1.344   2.253  10.807 -0.5931  1.0754  0.0814
   71MOL0     C 9675   1.475   2.331  10.850  0.0576 -1.0883 -0.3262
   71MOL0     C 9676   1.577   2.232  10.882  0.1914  0.0990  0.0218
   71MOL0     N 9677   1.695   2.303  10.934 -0.3152 -0.2323  1.2263
   71MOL0     C 9678   1.823   2.246  10.949  0.6597  0.4008  0.1958
   71MOL0     C 9679   1.893   2.319  11.033  0.0105 -0.4166  0.0029
   71MOL0     C 9680   2.021   2.313  11.102 -0.5374  0.6139 -0.7688
   71MOL0     C 9681   2.090   2.452  11.124  0.0447 -0.4425  0.4212
   71MOL0     C 9682   2.248   2.430  11.127 -0.2297 -0.0933  1.0283
   71MOL0     C 9683   2.279   2.329  11.234 -0.0702  0.0629 -0.8726
   71MOL0     O 9684   2.276   2.384  11.369  0.0075  0.7394 -0.1502
   71MOL0     C 9685   2.381   2.462  11.414 -0.4673 -0.1777 -0.1915
   71MOL0     C 9686   2.370   2.498  11.545  0.5944 -0.3764  0.4429
   71MOL0     C 9687   2.468   2.565  11.622  0.5144  0.8480  0.7187
   71MOL0     C 9688   2.441   2.573  11.774 -0.1939 -1.0558  0.5049
   71MOL0     C 9689   2.583   2.603  11.555 -0.1114  0.0624  0.1372
   71MOL0     C 9690   2.702   2.660  11.620 -0.1804 -0.0949 -0.4714
   71MOL0     O 9691   2.822   2.613  11.576 -0.0037 -0.2491  0.2139
   71MOL0     C 9692   2.949   2.639  11.623 -0.2486 -0.1122  0.4232
   71MOL0     C 9693   2.972   2.625  11.762 -0.1469 -1.0020 -0.8354
   71MOL0     C 9694   3.103   2.648  11.814  0.0105 -0.3804  0.2729
   71MOL0     C 9695   3.210   2.679  11.723 -0.1254 -0.0304  0.1822
   71MOL0     O 9696   3.333   2.698  11.778 -0.6829  0.4007 -0.0200
   71MOL0     C 9697   3.454   2.657  11.711 -0.2170  0.2809  0.0083
   71MOL0     C 9698   3.566   2.654  11.818 -0.0980  0.9667 -0.1677
   71MOL0     C 9699   3.548   2.544  11.926  0.1887 -0.2502 -0.1783
   71MOL0     C 9700   3.663   2.537  12.021 -0.2171  0.4478 -0.8154
   71MOL0     C 9701   3.643   2.448  12.141 -0.1708  0.3798 -0.2698
   71MOL0     C 9702   3.709   2.311  12.112 -0.3576  0.4429 -0.7400
   71MOL0     C 9703   3.855   2.310  12.165 -0.7688 -0.1748  0.2280
   71MOL0     C 9704   3.921   2.176  12.144 -0.5793  0.6558 -0.6822
   71MOL0    Cl 9705   4.050   2.139  12.264  0.1770 -0.0393 -0.6558
   71MOL0     C 9706   3.183   2.694  11.585 -0.5187  0.9267 -0.2733
   71MOL0     C 9707   3.054   2.669  11.537 -0.3613  0.0452  0.4523
   71MOL0     O 9708   2.684   2.743  11.710 -0.0507  0.1610  0.0610
   71MOL0     C 9709   2.591   2.581  11.420 -0.5667 -0.5064 -0.0904
   71MOL0     C 9710   2.495   2.512  11.349 -0.4418 -0.0016 -0.5533
   71MOL0     N 9711   1.816   2.426  11.063  0.2652  0.4884 -0.1498
   71MOL0     N 9712   1.697   2.416  11.011 -0.2744 -0.1311  0.8059
   71MOL0     C 9713   0.503   2.590  10.699 -0.2677  0.3211 -0.1133
   71MOL0     C 9714   0.371   2.638  10.706 -0.0584 -0.2854 -0.4131
   71MOL0     C 9715  -0.052   2.783  10.701 -1.0981 -0.4453 -0.1374
   71MOL0     C 9716  -0.089   2.911  10.763  0.4665 -0.2588  0.2713
   71MOL0     C 9717  -0.226   2.953  10.777  0.8183  0.0555  0.1661
   71MOL0     C 9718  -0.328   2.862  10.739  0.0451 -0.4107  0.5139
   71MOL0     O 9719  -0.464   2.888  10.755 -0.0405  0.0977  0.0763
   71MOL0     C 9720  -0.509   3.008  10.817  0.5058  0.0420 -0.1170
   71MOL0     C 9721  -0.663   3.001  10.840  0.2852 -0.4152 -0.3518
   71MOL0     C 9722  -0.739   2.990  10.706 -0.3441 -0.2705  0.9167
   71MOL0     C 9723  -0.706   3.094  10.604  0.5035 -0.1105 -0.5407
   71MOL0     C 9724  -0.812   3.108  10.497 -0.8182 -0.0162 -0.0977
   71MOL0     C 9725  -0.890   3.139  10.410 -0.1907 -0.4468 -0.2734
   71MOL0     C 9726  -0.288   2.748  10.672  0.3753  0.2250  0.1305
   71MOL0     C 9727  -0.155   2.700  10.651 -0.0976 -0.5377 -0.5462
   71MOL0     C 9728  -0.138   2.578  10.562 -1.0373  0.4939  0.7227
   71MOL0     H 9729   0.197   2.432  10.500 -0.8816  1.1747  0.6855
   71MOL0     H 9730   0.430   2.333  10.482  1.4852 -0.2809  1.2754
   71MOL0     H 9731   0.742   2.469  10.765 -2.6891  0.0476  0.2510
   71MOL0     H 9732   0.790   2.547  10.611  2.7054 -1.2162  0.6566
   71MOL0     H 9733   0.831   2.259  10.707 -0.6971  0.3555 -0.8654
   71MOL0     H 9734   0.887   2.316  10.548  2.6082 -0.1892  0.4181
   71MOL0     H 9735   1.026   2.486  10.671 -0.1587 -0.2457 -1.5505
   71MOL0     H 9736   0.970   2.413  10.819  1.8411  0.8210  0.2324
   71MOL0     H 9737   1.081   2.196  10.765  0.0444 -0.9577 -1.1013
   71MOL0     H 9738   1.129   2.263  10.614  3.5191 -2.4218  1.3821
   71MOL0     H 9739   1.197   2.369  10.890  0.6499  4.3332 -0.5602
   71MOL0     H 9740   1.259   2.443  10.745  2.3175 -1.9293 -1.2061
   71MOL0     H 9741   1.323   2.183  10.888 -0.9457  0.0840 -0.8401
   71MOL0     H 9742   1.361   2.193  10.717 -0.2848  0.4214  0.5675
   71MOL0     H 9743   1.451   2.380  10.945  3.8491  2.2037 -0.8082
   71MOL0     H 9744   1.515   2.400  10.776 -0.0427 -1.0521 -0.3474
   71MOL0     H 9745   1.537   2.160  10.954  2.0158 -0.4363  0.5540
   71MOL0     H 9746   1.612   2.182  10.792  1.4543  0.4127  0.3148
   71MOL0     H 9747   1.845   2.153  10.897 -1.0984 -0.0485  0.1690
   71MOL0     H 9748   2.085   2.254  11.036  0.9264  0.1701  0.9788
   71MOL0     H 9749   2.019   2.252  11.193  2.6784 -2.0590 -2.2728
   71MOL0     H 9750   2.060   2.508  11.035  2.6457 -1.0412 -0.9212
   71MOL0     H 9751   2.052   2.504  11.213 -5.1421 -3.1729  0.2171
   71MOL0     H 9752   2.284   2.394  11.030 -0.7144  3.7376 -0.7537
   71MOL0     H 9753   2.307   2.522  11.133 -0.2005  0.1613 -2.0024
   71MOL0     H 9754   2.216   2.240  11.242 -1.1894  0.7835 -1.4370
   71MOL0     H 9755   2.385   2.309  11.214 -0.2348 -0.8033 -0.8782
   71MOL0     H 9756   2.278   2.466  11.593  1.0467 -1.5826  0.5335
   71MOL0     H 9757   2.361   2.638  11.811 -0.0784  0.3320 -1.5232
   71MOL0     H 9758   2.534   2.600  11.825  0.2449  1.2148 -1.3297
   71MOL0     H 9759   2.421   2.471  11.807 -1.9404 -0.5856  0.9737
   71MOL0     H 9760   2.893   2.599  11.831 -0.5151  1.7246 -0.1113
   71MOL0     H 9761   3.121   2.639  11.920  1.2788  0.9649  0.1986
   71MOL0     H 9762   3.451   2.562  11.656  3.3378  0.9048 -1.5830
   71MOL0     H 9763   3.493   2.723  11.633 -2.2604 -1.0782 -2.3450
   71MOL0     H 9764   3.652   2.615  11.762  0.1588  0.3310  0.6479
   71MOL0     H 9765   3.585   2.755  11.854 -1.5671  1.0657  0.4040
   71MOL0     H 9766   3.535   2.449  11.874 -2.5228  0.2980 -0.6532
   71MOL0     H 9767   3.455   2.562  11.980  0.7040  0.6920  0.4179
   71MOL0     H 9768   3.675   2.635  12.069 -2.3734  0.2347  0.2655
   71MOL0     H 9769   3.761   2.525  11.974  0.3365  2.0193 -0.1357
   71MOL0     H 9770   3.688   2.487  12.233  1.5885 -2.9989  0.4573
   71MOL0     H 9771   3.537   2.439  12.164 -0.4093 -0.6020 -1.6680
   71MOL0     H 9772   3.714   2.289  12.005  0.9175 -2.2307 -0.2130
   71MOL0     H 9773   3.655   2.233  12.167 -0.5832  2.3102  1.8512
   71MOL0     H 9774   3.858   2.344  12.269  2.3023 -1.3834  0.6436
   71MOL0     H 9775   3.915   2.383  12.110  1.3108 -1.1288  1.1341
   71MOL0     H 9776   3.960   2.176  12.042 -0.9547  1.4938 -0.8320
   71MOL0     H 9777   3.842   2.100  12.153 -0.8037  0.7026 -2.0553
   71MOL0     H 9778   3.258   2.729  11.515  1.2227 -3.7903 -1.1309
   71MOL0     H 9779   3.029   2.682  11.432  0.0868 -2.3651 -0.0007
   71MOL0     H 9780   2.685   2.613  11.376 -2.0979  0.0637 -3.2897
   71MOL0     H 9781   2.520   2.485  11.246  0.7240 -0.0281 -0.2820
   71MOL0     H 9782   0.579   2.646  10.752  1.1700  1.1976 -2.9052
   71MOL0     H 9783   0.354   2.725  10.768  2.5515  1.0505 -1.4263
   71MOL0     H 9784  -0.015   2.974  10.812  0.1572 -0.7166  1.3628
   71MOL0     H 9785  -0.236   3.049  10.827  1.8913  0.1664  0.2114
   71MOL0     H 9786  -0.465   3.017  10.917  0.6488  2.8067 -0.3406
   71MOL0     H 9787  -0.479   3.091  10.752  2.2875 -0.2132  0.3205
   71MOL0     H 9788  -0.694   3.098  10.880 -0.0934 -0.2533 -1.0294
   71MOL0     H 9789  -0.697   2.918  10.903 -2.2394 -0.6815 -1.9139
   71MOL0     H 9790  -0.718   2.887  10.674  2.7101  0.5179  0.0616
   71MOL0     H 9791  -0.847   2.993  10.721 -0.7571  0.1508 -1.6854
   71MOL0     H 9792  -0.614   3.072  10.549 -0.3325  0.6222 -2.3121
   71MOL0     H 9793  -0.692   3.194  10.647 -0.4640 -0.1728 -0.0649
   71MOL0     H 9794  -0.953   3.154  10.325  1.1013 -0.9906 -1.3512
   71MOL0     H 9795  -0.374   2.688  10.644  0.3334  0.2271  0.2530
   71MOL0     H 9796  -0.222   2.565  10.494  0.6101 -0.0044 -1.3371
   71MOL0     H 9797  -0.046   2.587  10.503 -2.4450  1.2191 -1.4423
   71MOL0     H 9798  -0.139   2.487  10.622  0.2435 -0.1368 -0.1727
   72MOL0     O 9799   2.920   7.017   6.735 -0.1342  0.2045 -0.1616
   72MOL0     C 9800   2.985   6.926   6.790  0.6402  0.6035 -0.0190
   72MOL0     O 9801   2.932   6.826   6.873 -0.6347  0.5202  0.1963
   72MOL0     C 9802   2.792   6.818   6.885  0.1677  0.0607  0.0748
   72MOL0     C 9803   2.700   6.922   6.897  0.8659  0.6572 -0.8101
   72MOL0     C 9804   2.562   6.896   6.897 -0.1003  0.0385  0.1927
   72MOL0     C 9805   2.516   6.764   6.889  0.0190 -0.0880  0.1323
   72MOL0     O 9806   2.381   6.741   6.886  0.1824  0.1011  0.6319
   72MOL0     C 9807   2.329   6.614   6.863 -0.0896 -0.3236 -0.3582
   72MOL0     C 9808   2.174   6.621   6.866  0.3277  0.8260  0.5832
   72MOL0     C 9809   2.118   6.680   6.737  0.1715  0.3225 -0.3858
   72MOL0     C 9810   1.971   6.643   6.738  0.4835 -0.6427  0.2057
   72MOL0     C 9811   1.882   6.716   6.629 -0.7654 -0.3998 -0.4656
   72MOL0     C 9812   1.939   6.722   6.490  1.1593 -0.8082 -0.2829
   72MOL0     C 9813   1.942   6.578   6.427 -0.8958 -0.8685 -0.4900
   72MOL0     C 9814   2.054   6.582   6.309 -0.2511  0.4262 -0.8942
   72MOL0     N 9815   2.195   6.588   6.354 -0.2147 -0.2182 -0.1513
   72MOL0     C 9816   2.267   6.698   6.385  0.6174  0.0471  0.2591
   72MOL0     C 9817   2.382   6.657   6.433  1.0634  0.2562  0.1260
   72MOL0     C 9818   2.491   6.730   6.501  0.1206  0.0589  0.4733
   72MOL0     C 9819   2.620   6.720   6.430 -0.2418  0.8865  0.2600
   72MOL0     C 9820   2.721   6.814   6.500 -0.4067 -0.2224  0.9832
   72MOL0     C 9821   2.852   6.822   6.421  0.7152 -0.2151 -1.0934
   72MOL0     O 9822   2.831   6.889   6.292 -0.2344 -0.2786 -0.5911
   72MOL0     C 9823   2.835   6.822   6.172  0.3764 -0.5447  0.2649
   72MOL0     C 9824   2.861   6.898   6.054  0.4976  1.2396  0.2699
   72MOL0     C 9825   2.886   6.834   5.934 -0.7663 -0.7040 -1.1696
   72MOL0     C 9826   2.895   6.922   5.815 -0.4169  0.0829 -0.2960
   72MOL0     C 9827   2.884   6.690   5.916 -0.3386  0.6353 -0.6861
   72MOL0     C 9828   2.904   6.614   5.795  0.0280  1.2311  0.1835
   72MOL0     O 9829   2.988   6.653   5.701  0.0556 -0.7635  0.6888
   72MOL0     C 9830   3.002   6.595   5.573 -0.4506 -0.1177  0.4649
   72MOL0     C 9831   3.118   6.630   5.500  0.2727 -0.2765 -0.7493
   72MOL0     C 9832   3.167   6.567   5.392  0.7571  0.7302  0.4228
   72MOL0     C 9833   3.085   6.466   5.329  0.1634  0.3951  0.2725
   72MOL0     O 9834   3.124   6.399   5.210 -0.3149 -0.5152 -0.2184
   72MOL0     C 9835   3.222   6.465   5.130  0.0253 -0.1162 -0.2516
   72MOL0     C 9836   3.289   6.353   5.055  0.3761  0.5892  0.5952
   72MOL0     C 9837   3.360   6.246   5.136 -0.1210  0.7562  0.8483
   72MOL0     C 9838   3.350   6.110   5.057  0.3373  0.0234  0.2244
   72MOL0     C 9839   3.480   6.021   5.068  0.8878  0.1690  0.1320
   72MOL0     C 9840   3.442   5.877   5.014 -0.0397 -0.1962  0.0587
   72MOL0     C 9841   3.562   5.782   5.024  0.3427  0.3450 -0.2581
   72MOL0     C 9842   3.537   5.654   4.942  0.0085 -0.3073  1.2584
   72MOL0    Cl 9843   3.698   5.583   4.896 -0.3185 -0.4440  0.0214
   72MOL0     C 9844   2.967   6.438   5.390 -0.5461  0.0381 -0.7910
   72MOL0     C 9845   2.924   6.493   5.509  0.3005  0.6101  0.0831
   72MOL0     O 9846   2.837   6.503   5.792  0.6425  0.6376  0.2989
   72MOL0     C 9847   2.848   6.624   6.039  0.5441 -0.3377  0.5283
   72MOL0     C 9848   2.828   6.686   6.164  0.9718  0.3546  0.6166
   72MOL0     N 9849   2.381   6.516   6.424 -0.0785  0.1711 -0.9335
   72MOL0     N 9850   2.265   6.477   6.383 -0.1013  0.8158 -0.5000
   72MOL0     C 9851   2.607   6.659   6.886 -0.3555  0.7303  0.6623
   72MOL0     C 9852   2.744   6.689   6.893 -0.0056 -0.1722  0.0250
   72MOL0     C 9853   3.134   6.912   6.766 -0.8616 -0.2943  0.0056
   72MOL0     C 9854   3.199   6.822   6.845  0.1616 -0.2193  0.1580
   72MOL0     C 9855   3.335   6.787   6.818  0.2983 -0.5399  0.5272
   72MOL0     C 9856   3.412   6.856   6.725 -0.7051  0.6204  0.0493
   72MOL0     O 9857   3.545   6.838   6.701 -0.3282 -0.2202  0.0136
   72MOL0     C 9858   3.629   6.782   6.798  0.2919  0.4559  0.0400
   72MOL0     C 9859   3.778   6.812   6.773 -0.0142 -0.0169  0.2827
   72MOL0     C 9860   3.875   6.717   6.853  0.1146 -0.4774 -0.2406
   72MOL0     C 9861   3.898   6.572   6.804 -0.2025  0.2727 -0.2764
   72MOL0     C 9862   3.950   6.576   6.671  0.8146 -0.0721  0.5523
   72MOL0     C 9863   3.980   6.578   6.553 -0.9802 -0.8706 -0.0401
   72MOL0     C 9864   3.352   6.950   6.649 -0.2526  0.3560  0.2815
   72MOL0     C 9865   3.211   6.974   6.663 -0.0108 -0.0806 -0.9720
   72MOL0     C 9866   3.159   7.080   6.568 -0.2574 -0.5419 -0.4311
   72MOL0     H 9867   2.728   7.027   6.901  0.0974  0.8253  1.6660
   72MOL0     H 9868   2.505   6.987   6.882  3.0030  1.7963 -2.2679
   72MOL0     H 9869   2.369   6.543   6.936  0.3750 -0.2602 -0.5510
   72MOL0     H 9870   2.355   6.579   6.763 -1.6963 -1.7177 -0.3457
   72MOL0     H 9871   2.140   6.518   6.879  0.8360  0.7993  1.7738
   72MOL0     H 9872   2.144   6.679   6.954 -1.1644 -0.0403  0.6752
   72MOL0     H 9873   2.113   6.789   6.743 -2.3192  0.2325  0.3303
   72MOL0     H 9874   2.165   6.643   6.646  0.2129  1.8278 -0.9998
   72MOL0     H 9875   1.961   6.535   6.735  2.7931 -0.8943 -0.4084
   72MOL0     H 9876   1.922   6.667   6.833 -2.2270  0.3190 -1.3132
   72MOL0     H 9877   1.867   6.817   6.670  2.7064 -0.3757  1.1048
   72MOL0     H 9878   1.794   6.652   6.637  0.0914 -1.7097 -1.1604
   72MOL0     H 9879   1.884   6.790   6.426  1.5528  0.5938  0.8246
   72MOL0     H 9880   2.038   6.769   6.483  1.9203 -2.2396  0.3549
   72MOL0     H 9881   1.838   6.554   6.401 -2.4090  0.3098  3.5458
   72MOL0     H 9882   1.981   6.513   6.506  2.1917  1.1915 -0.1404
   72MOL0     H 9883   2.039   6.483   6.266  2.4849 -1.4630  2.0115
   72MOL0     H 9884   2.036   6.653   6.228 -2.8392  0.0748 -0.7282
   72MOL0     H 9885   2.240   6.802   6.402  0.3556  0.2712 -1.3449
   72MOL0     H 9886   2.508   6.668   6.589  1.0023 -0.5147 -0.0911
   72MOL0     H 9887   2.464   6.834   6.525 -0.9078  0.1422 -0.9358
   72MOL0     H 9888   2.655   6.616   6.432  0.9279  1.2365 -0.7678
   72MOL0     H 9889   2.609   6.745   6.324  2.0528 -0.5861 -0.3989
   72MOL0     H 9890   2.685   6.917   6.505  2.5593  0.8680  2.7550
   72MOL0     H 9891   2.750   6.769   6.596  2.3355  0.2852  0.4895
   72MOL0     H 9892   2.923   6.882   6.478 -0.7386  0.7945 -0.2834
   72MOL0     H 9893   2.892   6.723   6.397 -1.4395 -0.7614 -2.6759
   72MOL0     H 9894   2.873   7.006   6.061  1.6936  1.4559 -3.4335
   72MOL0     H 9895   2.805   6.926   5.753 -0.1782 -1.8220 -0.8341
   72MOL0     H 9896   2.986   6.902   5.758  0.1753  1.6684  0.0243
   72MOL0     H 9897   2.906   7.024   5.853 -3.9303  0.3285  0.3826
   72MOL0     H 9898   3.185   6.705   5.541 -0.6168  0.8087 -1.2200
   72MOL0     H 9899   3.259   6.612   5.355  0.0382  0.4168 -1.8791
   72MOL0     H 9900   3.169   6.539   5.070 -2.8113  0.3714  2.6316
   72MOL0     H 9901   3.302   6.501   5.194 -0.2200 -1.6031  0.9516
   72MOL0     H 9902   3.207   6.306   4.999  1.5821  0.1520 -0.8592
   72MOL0     H 9903   3.365   6.395   4.990  0.6423 -0.3925  0.2641
   72MOL0     H 9904   3.301   6.232   5.227 -1.5744 -0.0079 -0.1624
   72MOL0     H 9905   3.461   6.283   5.152 -0.8405  2.8081  0.9384
   72MOL0     H 9906   3.328   6.133   4.953  1.4465 -1.6845 -0.4328
   72MOL0     H 9907   3.268   6.048   5.094  1.2350 -1.9027 -0.8612
   72MOL0     H 9908   3.559   6.057   5.002  0.7469 -2.0816 -1.3749
   72MOL0     H 9909   3.518   6.021   5.171  0.9221  1.0659  0.1335
   72MOL0     H 9910   3.399   5.875   4.913 -1.2197 -0.2550  0.5445
   72MOL0     H 9911   3.365   5.828   5.074  1.4012 -3.0036 -0.2467
   72MOL0     H 9912   3.578   5.748   5.127 -1.2413  1.5582  0.4403
   72MOL0     H 9913   3.655   5.829   4.992  1.1913 -1.2734 -0.2746
   72MOL0     H 9914   3.482   5.679   4.851 -2.2818  0.4158  2.7526
   72MOL0     H 9915   3.484   5.579   5.000 -0.6286 -1.5832 -0.8476
   72MOL0     H 9916   2.910   6.358   5.343 -1.0138 -1.2884  1.8591
   72MOL0     H 9917   2.829   6.461   5.551  0.9752 -0.0960  1.1359
   72MOL0     H 9918   2.845   6.516   6.026  1.6973 -0.4223  0.8885
   72MOL0     H 9919   2.805   6.631   6.254 -0.5761  2.0758  1.3419
   72MOL0     H 9920   2.581   6.553   6.886  1.3248  0.2907 -0.1760
   72MOL0     H 9921   2.822   6.616   6.873  2.2911  2.2364 -0.3698
   72MOL0     H 9922   3.145   6.758   6.915  0.0734 -2.9920 -2.2681
   72MOL0     H 9923   3.381   6.711   6.880 -0.9972  0.8599  3.4120
   72MOL0     H 9924   3.607   6.812   6.901  2.8268 -1.1250  1.1384
   72MOL0     H 9925   3.614   6.673   6.802  2.3975  0.1392  3.2378
   72MOL0     H 9926   3.804   6.917   6.791 -0.1200  0.2610 -1.0828
   72MOL0     H 9927   3.792   6.798   6.665 -5.0044  1.4362 -0.8183
   72MOL0     H 9928   3.977   6.755   6.844  1.6290 -4.3168 -1.3682
   72MOL0     H 9929   3.839   6.715   6.956 -0.9803 -1.7537 -0.6137
   72MOL0     H 9930   3.806   6.516   6.781  1.0184 -0.6263 -3.3923
   72MOL0     H 9931   3.959   6.518   6.878 -0.3644  0.1098 -0.2589
   72MOL0     H 9932   3.992   6.564   6.447 -1.3107 -2.7450  0.1453
   72MOL0     H 9933   3.412   7.011   6.581 -2.1177 -0.6939 -2.5168
   72MOL0     H 9934   3.243   7.138   6.530 -0.8813 -0.0034 -1.0120
   72MOL0     H 9935   3.105   7.042   6.480  1.6087 -1.8032 -1.0955
   72MOL0     H 9936   3.087   7.148   6.613 -0.4071 -1.8905  1.4784
   73MOL0     O 9937   8.838   5.729  10.675  0.2100  0.8351  0.5445
   73MOL0     C 9938   8.789   5.609  10.680 -0.3075  0.0258  0.1864
   73MOL0     O 9939   8.850   5.508  10.747  0.2646  0.0696 -0.0222
   73MOL0     C 9940   8.935   5.548  10.845 -0.1664  0.0849 -0.1006
   73MOL0     C 9941   8.894   5.578  10.974  0.4608 -1.5335 -0.0740
   73MOL0     C 9942   8.982   5.631  11.068 -0.6501 -0.0775 -0.3229
   73MOL0     C 9943   9.117   5.639  11.041 -0.2144  0.3191 -0.2152
   73MOL0     O 9944   9.200   5.656  11.150  0.0554 -0.0345 -0.2339
   73MOL0     C 9945   9.344   5.649  11.143  0.6121  0.4369  1.4367
   73MOL0     C 9946   9.398   5.504  11.123  0.4116 -0.2118  0.1854
   73MOL0     C 9947   9.537   5.514  11.070 -0.3447  0.2211  1.1387
   73MOL0     C 9948   9.604   5.380  11.018 -0.0938 -0.5600  0.4758
   73MOL0     C 9949   9.751   5.405  10.964 -0.1518 -0.0303  0.5586
   73MOL0     C 9950   9.836   5.277  10.945 -0.6222 -0.1054 -0.4033
   73MOL0     C 9951   9.988   5.316  10.910  0.2007  0.1156 -0.7386
   73MOL0     C 9952  10.014   5.425  10.799  0.3208  0.2988  0.1932
   73MOL0     N 9953   9.996   5.373  10.656  0.0062  0.5251 -0.9055
   73MOL0     C 9954   9.878   5.347  10.586  0.3268 -0.2057 -0.8695
   73MOL0     C 9955   9.921   5.307  10.463 -0.0906 -0.3564 -0.3288
   73MOL0     C 9956   9.840   5.286  10.339 -0.4991 -0.0941 -0.5672
   73MOL0     C 9957   9.918   5.224  10.229  0.2915 -0.3487  0.3134
   73MOL0     C 9958   9.928   5.076  10.250 -0.2069  0.6603 -0.2935
   73MOL0     C 9959  10.013   5.029  10.128  0.7848  0.3239  0.2211
   73MOL0     O 9960  10.150   5.077  10.149  0.5469 -0.5966 -0.0495
   73MOL0     C 9961  10.255   5.043  10.075  0.6447 -0.0744  0.3938
   73MOL0     C 9962  10.382   5.084  10.114 -0.8362  0.2024 -0.4852
   73MOL0     C 9963  10.498   5.041  10.062  0.5939  0.0572  0.5288
   73MOL0     C 9964  10.632   5.079  10.124 -1.0706 -0.3264  0.2553
   73MOL0     C 9965  10.487   4.961   9.938 -0.3749 -1.1253  0.6331
   73MOL0     C 9966  10.603   4.918   9.862  0.4221  0.0516  0.9026
   73MOL0     O 9967  10.592   4.791   9.806 -0.2457  0.5365  0.4039
   73MOL0     C 9968  10.705   4.740   9.748  0.7074  0.1510  0.8561
   73MOL0     C 9969  10.818   4.713   9.821  0.7490 -0.0734  0.1013
   73MOL0     C 9970  10.929   4.649   9.768 -0.2795  1.0287  0.5379
   73MOL0     C 9971  10.935   4.619   9.632 -0.0372 -0.2451 -0.4131
   73MOL0     O 9972  11.041   4.570   9.568 -0.3774  1.1950  0.8236
   73MOL0     C 9973  11.168   4.576   9.630 -0.9229 -0.6750  0.4407
   73MOL0     C 9974  11.263   4.583   9.514 -0.1462  0.0243  0.6934
   73MOL0     C 9975  11.413   4.575   9.548  0.4351  0.8434 -0.8739
   73MOL0     C 9976  11.465   4.450   9.626 -0.1418 -0.4499  0.2791
   73MOL0     C 9977  11.621   4.452   9.618 -0.1878  0.1828  0.0321
   73MOL0     C 9978  11.695   4.329   9.688  0.5961  0.5158 -0.3956
   73MOL0     C 9979  11.848   4.340   9.680 -0.5307  0.1841 -0.0980
   73MOL0     C 9980  11.914   4.212   9.735 -0.4122 -1.1038 -0.3469
   73MOL0    Cl 9981  11.894   4.092   9.606 -0.4361 -0.0002 -0.3556
   73MOL0     C 9982  10.821   4.648   9.558  0.7617 -0.3629 -0.9579
   73MOL0     C 9983  10.698   4.704   9.608  0.2062  0.2421  0.0863
   73MOL0     O 9984  10.696   4.995   9.838  0.2614  0.3086  0.0007
   73MOL0     C 9985  10.358   4.925   9.892 -0.2567  0.3855  0.1885
   73MOL0     C 9986  10.240   4.960   9.961 -0.2203  0.8974  0.1651
   73MOL0     N 9987  10.059   5.305  10.468 -0.8173  0.9088 -0.0636
   73MOL0     N 9988  10.103   5.353  10.581 -0.0806 -0.0410 -0.0454
   73MOL0     C 9989   9.160   5.611  10.908 -0.4525 -0.5498 -0.2635
   73MOL0     C 9990   9.071   5.561  10.811  0.4819  0.2369 -0.0898
   73MOL0     C 9991   8.666   5.588  10.618  0.7213  0.2316  0.2053
   73MOL0     C 9992   8.570   5.689  10.627 -0.4050 -0.2951  0.1026
   73MOL0     C 9993   8.444   5.680  10.567  0.5930 -0.3599  0.5728
   73MOL0     C 9994   8.418   5.565  10.494 -0.3870  0.3575  0.3429
   73MOL0     O 9995   8.304   5.533  10.434  0.7089 -1.2579 -0.0607
   73MOL0     C 9996   8.181   5.616  10.464 -0.3041 -0.2072  0.6613
   73MOL0     C 9997   8.054   5.543  10.409 -0.1636 -0.0237  0.9711
   73MOL0     C 9998   8.063   5.528  10.259  0.4512 -0.2207 -0.9050
   73MOL0     C 9999   7.934   5.462  10.215  1.1995  0.3937 -0.5047
   73MOL0     C10000   7.937   5.322  10.261  0.1084 -0.5823 -0.4111
   73MOL0     C10001   7.934   5.203  10.291  0.3141  0.4470  1.2992
   73MOL0     C10002   8.526   5.481  10.456  0.2716  0.0653 -0.6794
   73MOL0     C10003   8.644   5.478  10.529  0.7604  0.9792 -0.2775
   73MOL0     C10004   8.756   5.387  10.494  0.3317 -0.5055 -0.7437
   73MOL0     H10005   8.789   5.568  10.997  1.0441  0.7873  4.7485
   73MOL0     H10006   8.947   5.665  11.165 -3.2349 -0.4324 -1.0588
   73MOL0     H10007   9.374   5.694  11.239  1.5711  2.9341  0.0680
   73MOL0     H10008   9.380   5.711  11.061 -4.3130  1.1749 -0.5398
   73MOL0     H10009   9.404   5.448  11.217 -0.4964 -0.7795 -0.0831
   73MOL0     H10010   9.332   5.451  11.053  0.7917 -0.2913 -0.1145
   73MOL0     H10011   9.531   5.577  10.981  1.5737 -2.3731 -1.0072
   73MOL0     H10012   9.599   5.566  11.144 -1.6177  2.4067  0.7678
   73MOL0     H10013   9.621   5.313  11.103  0.7843 -0.7604  0.1606
   73MOL0     H10014   9.553   5.333  10.934 -0.0328 -0.2599  0.2707
   73MOL0     H10015   9.807   5.458  11.042  0.7323 -0.3538  0.1621
   73MOL0     H10016   9.746   5.456  10.867  0.0809 -0.2839  0.4095
   73MOL0     H10017   9.823   5.215  11.034 -3.1423  1.0834  0.1698
   73MOL0     H10018   9.796   5.213  10.865 -0.1042 -3.1182  1.5849
   73MOL0     H10019  10.042   5.223  10.885  0.5994 -0.5042  2.0690
   73MOL0     H10020  10.030   5.354  11.004  1.1657  0.6777 -1.3873
   73MOL0     H10021   9.956   5.515  10.823 -0.1662 -0.0057  0.1748
   73MOL0     H10022  10.120   5.447  10.816  0.3896  1.4924 -1.5801
   73MOL0     H10023   9.774   5.363  10.610  0.1702 -1.6174 -0.5163
   73MOL0     H10024   9.820   5.389  10.309  1.2979  0.8892  1.3526
   73MOL0     H10025   9.747   5.239  10.371 -0.8063 -1.0336 -2.6487
   73MOL0     H10026   9.857   5.245  10.140 -3.4736 -1.1324  2.4770
   73MOL0     H10027  10.010   5.279  10.209 -1.2863  2.0848 -0.8482
   73MOL0     H10028   9.985   5.054  10.341  1.0215 -0.4242 -1.2886
   73MOL0     H10029   9.835   5.019  10.255  1.6631 -2.4857  1.8631
   73MOL0     H10030  10.006   4.920  10.126  1.5275  0.2845 -0.6745
   73MOL0     H10031   9.974   5.073  10.036 -0.3180 -2.3777 -0.6884
   73MOL0     H10032  10.392   5.147  10.202  1.1663 -1.6656  0.7281
   73MOL0     H10033  10.722   5.069  10.063 -0.0112 -2.5603  2.0201
   73MOL0     H10034  10.656   5.012  10.207 -0.9012  0.8624  1.1899
   73MOL0     H10035  10.620   5.181  10.162 -0.4028 -0.5208  1.0217
   73MOL0     H10036  10.816   4.739   9.926  0.2368  1.9523 -0.3545
   73MOL0     H10037  11.014   4.626   9.832  1.0808 -0.5074 -1.6848
   73MOL0     H10038  11.182   4.662   9.695  0.1137 -0.3909 -0.1266
   73MOL0     H10039  11.182   4.490   9.696  0.0232 -1.7180 -1.0341
   73MOL0     H10040  11.237   4.504   9.444 -2.4661  1.7907 -0.5551
   73MOL0     H10041  11.241   4.675   9.461  1.4758  0.2085  0.2775
   73MOL0     H10042  11.423   4.661   9.614  1.6741  0.4171 -0.4658
   73MOL0     H10043  11.461   4.584   9.449  1.6921  2.5339 -0.1684
   73MOL0     H10044  11.430   4.360   9.575  1.3541 -0.4283 -0.8495
   73MOL0     H10045  11.422   4.458   9.726 -0.6715  0.9202 -0.0238
   73MOL0     H10046  11.655   4.468   9.516 -2.1336 -2.8292 -1.2220
   73MOL0     H10047  11.649   4.538   9.681  2.3854 -1.2421  0.9923
   73MOL0     H10048  11.665   4.250   9.617 -0.7480 -0.7659  1.4863
   73MOL0     H10049  11.662   4.291   9.785  0.2133 -1.0909 -1.1087
   73MOL0     H10050  11.873   4.425   9.746  0.0162 -2.2126  3.0402
   73MOL0     H10051  11.871   4.357   9.575 -3.7503  1.0114 -0.7774
   73MOL0     H10052  11.860   4.197   9.829  1.7047 -1.3154  0.9020
   73MOL0     H10053  12.022   4.219   9.752 -0.4015  0.1672 -0.8121
   73MOL0     H10054  10.838   4.618   9.456  1.4488 -1.5353 -0.5204
   73MOL0     H10055  10.610   4.714   9.545 -0.6923  1.1554  1.4328
   73MOL0     H10056  10.349   4.864   9.802  0.4647 -2.7522  2.0916
   73MOL0     H10057  10.143   4.938   9.918 -0.0414  1.2736 -0.4367
   73MOL0     H10058   9.263   5.633  10.882  0.1611 -1.9991  0.7831
   73MOL0     H10059   9.112   5.524  10.717 -1.3474 -2.3365  0.0237
   73MOL0     H10060   8.589   5.780  10.685 -2.8113  0.8117 -0.7298
   73MOL0     H10061   8.369   5.757  10.578 -0.0092 -0.7039 -0.9083
   73MOL0     H10062   8.188   5.623  10.573  0.4354 -2.5766  0.8271
   73MOL0     H10063   8.189   5.713  10.413 -0.3101 -0.7423 -0.3837
   73MOL0     H10064   7.962   5.590  10.446  0.7387  3.2557 -0.5156
   73MOL0     H10065   8.059   5.442  10.451 -0.3099 -0.7098 -0.5702
   73MOL0     H10066   8.059   5.631  10.224 -1.4986  0.0171 -0.1255
   73MOL0     H10067   8.158   5.479  10.234  1.1254 -1.5966  3.4867
   73MOL0     H10068   7.923   5.460  10.106 -1.3955  1.4836 -0.3233
   73MOL0     H10069   7.846   5.519  10.247  0.5951  0.7019 -2.5568
   73MOL0     H10070   7.952   5.102  10.322  0.0675  0.6573  2.1430
   73MOL0     H10071   8.499   5.409  10.380  0.5316 -1.0376  0.2336
   73MOL0     H10072   8.712   5.306  10.435 -2.4618 -0.4108  1.0264
   73MOL0     H10073   8.834   5.442  10.441 -0.0522  1.6692  0.8154
   73MOL0     H10074   8.797   5.357  10.591  0.2143  1.5774  0.0044
   74MOL0     O10075   5.294   1.469   5.388  0.0616  0.3690 -0.2036
   74MOL0     C10076   5.236   1.489   5.286 -0.1275 -0.1695  0.3169
   74MOL0     O10077   5.291   1.472   5.158 -0.1898  0.4234  0.1198
   74MOL0     C10078   5.424   1.438   5.153 -0.6076  0.2114  0.0902
   74MOL0     C10079   5.462   1.308   5.127  0.2815  0.0301 -0.5211
   74MOL0     C10080   5.595   1.263   5.134  0.8662 -0.3746  0.4201
   74MOL0     C10081   5.693   1.363   5.165 -0.1401  0.0410 -0.0952
   74MOL0     O10082   5.825   1.333   5.180 -0.3122 -0.0203 -1.1150
   74MOL0     C10083   5.878   1.206   5.139 -0.5122 -0.2742 -0.0136
   74MOL0     C10084   5.879   1.104   5.251  0.6690 -0.1499  0.6964
   74MOL0     C10085   6.004   1.130   5.336  0.8576 -0.5486 -0.3972
   74MOL0     C10086   6.135   1.077   5.279 -0.1981  0.3203  0.3170
   74MOL0     C10087   6.248   1.073   5.374 -0.3202 -0.4024 -0.6264
   74MOL0     C10088   6.386   1.048   5.301  0.1438  0.8374 -0.3696
   74MOL0     C10089   6.503   1.087   5.403 -0.7988 -0.1301  0.2098
   74MOL0     C10090   6.645   1.086   5.336 -0.0628 -0.0301  0.4643
   74MOL0     N10091   6.744   1.091   5.449 -0.0315  0.6949  0.7048
   74MOL0     C10092   6.758   1.185   5.547  0.4227 -1.0812  0.4863
   74MOL0     C10093   6.857   1.142   5.613  0.2801 -0.6408 -0.4106
   74MOL0     C10094   6.902   1.215   5.731 -0.6679 -0.1324  0.3728
   74MOL0     C10095   7.038   1.277   5.714  0.0832  0.2109  0.8205
   74MOL0     C10096   7.047   1.431   5.732  0.7028 -0.6069  0.2017
   74MOL0     C10097   7.185   1.488   5.719  0.5623 -0.1262 -0.3335
   74MOL0     O10098   7.246   1.462   5.591  0.2501 -0.6753 -0.3383
   74MOL0     C10099   7.379   1.507   5.573  0.1049  0.4141  0.1674
   74MOL0     C10100   7.449   1.600   5.647  0.0946 -1.2602 -0.4047
   74MOL0     C10101   7.578   1.651   5.616  0.2558  0.0816  0.1500
   74MOL0     C10102   7.616   1.778   5.683  0.2702 -0.2899  0.4802
   74MOL0     C10103   7.658   1.582   5.516  0.3910  0.6047 -0.8223
   74MOL0     C10104   7.801   1.601   5.472  0.1770 -1.2163 -1.1052
   74MOL0     O10105   7.855   1.527   5.372  0.3135  0.2214  0.2504
   74MOL0     C10106   7.996   1.512   5.354  0.3602 -0.2730  0.2924
   74MOL0     C10107   8.098   1.519   5.457  0.1489  0.4163  1.3892
   74MOL0     C10108   8.232   1.505   5.424 -0.0657 -1.2445 -0.5176
   74MOL0     C10109   8.277   1.491   5.296 -0.8909 -0.1752 -0.1372
   74MOL0     O10110   8.405   1.456   5.269 -0.0001  0.0718  0.1614
   74MOL0     C10111   8.460   1.451   5.141  0.1329  0.8396  0.9292
   74MOL0     C10112   8.594   1.379   5.135 -0.7579  0.4747 -0.2036
   74MOL0     C10113   8.586   1.227   5.152  0.1166 -0.2758 -0.0529
   74MOL0     C10114   8.495   1.151   5.058  0.2813 -0.0091 -0.4611
   74MOL0     C10115   8.521   0.998   5.053  0.4653  0.3806  0.0710
   74MOL0     C10116   8.433   0.919   4.954  0.0673  0.2277  0.3863
   74MOL0     C10117   8.285   0.916   4.998 -0.7119 -0.3185  0.6952
   74MOL0     C10118   8.245   0.778   5.055 -0.4087 -0.7331 -0.3201
   74MOL0    Cl10119   8.193   0.684   4.915  0.0529  0.0400 -0.0058
   74MOL0     C10120   8.181   1.491   5.192  0.1471 -0.4947  0.8765
   74MOL0     C10121   8.040   1.496   5.216 -0.4320  0.9662 -0.5030
   74MOL0     O10122   7.863   1.691   5.531  0.2620  0.0986 -0.1785
   74MOL0     C10123   7.585   1.491   5.437  0.1585  0.2273 -0.2262
   74MOL0     C10124   7.446   1.459   5.463 -0.3947  0.4439  0.5805
   74MOL0     N10125   6.910   1.026   5.563  0.0843 -0.1090  0.1324
   74MOL0     N10126   6.846   0.992   5.459  0.3888 -0.8632 -0.4568
   74MOL0     C10127   5.653   1.493   5.198  0.5975  0.3546 -0.5072
   74MOL0     C10128   5.522   1.528   5.191  0.2797  0.2256  0.5247
   74MOL0     C10129   5.095   1.552   5.291 -0.0800  0.1601  0.2225
   74MOL0     C10130   5.015   1.525   5.172  0.1225 -0.1877 -0.4581
   74MOL0     C10131   4.885   1.577   5.172  0.7875  0.2036 -0.7105
   74MOL0     C10132   4.827   1.649   5.273 -0.8268  0.2445 -0.3781
   74MOL0     O10133   4.702   1.708   5.246 -0.2145  0.0637  0.4195
   74MOL0     C10134   4.606   1.713   5.356  0.0565  0.0522 -0.7381
   74MOL0     C10135   4.536   1.575   5.388  0.5924 -0.9583 -0.0285
   74MOL0     C10136   4.459   1.515   5.268  0.5661  0.2073 -0.0467
   74MOL0     C10137   4.391   1.386   5.322  0.0100  0.0174 -0.0236
   74MOL0     C10138   4.293   1.419   5.430 -0.5732  0.3484  0.1810
   74MOL0     C10139   4.209   1.444   5.513 -0.7970  0.0285 -0.6833
   74MOL0     C10140   4.900   1.672   5.389 -0.8699  1.0521 -0.1564
   74MOL0     C10141   5.036   1.621   5.398 -0.6445 -0.7380 -0.5959
   74MOL0     C10142   5.119   1.656   5.516 -0.5658 -1.2416  0.2618
   74MOL0     H10143   5.382   1.238   5.106  1.3691 -1.8608  1.2788
   74MOL0     H10144   5.623   1.159   5.121 -2.0033 -1.2199  0.3835
   74MOL0     H10145   5.981   1.221   5.105 -1.0667  1.9894 -0.7883
   74MOL0     H10146   5.814   1.163   5.061 -0.2026 -0.2603 -0.2765
   74MOL0     H10147   5.785   1.093   5.306 -0.7374  1.0214 -1.3506
   74MOL0     H10148   5.886   1.003   5.208 -2.4516 -0.1757  0.0221
   74MOL0     H10149   6.019   1.239   5.344  1.3963 -0.5698 -1.0639
   74MOL0     H10150   5.986   1.085   5.434  2.4516  0.6645  0.5124
   74MOL0     H10151   6.117   0.976   5.241  0.4235 -0.1293  1.1913
   74MOL0     H10152   6.163   1.134   5.190 -1.0971  0.0415 -0.1532
   74MOL0     H10153   6.225   1.001   5.453 -1.3982  1.3424  0.7192
   74MOL0     H10154   6.243   1.171   5.423  1.7070 -0.6036  0.1121
   74MOL0     H10155   6.381   0.940   5.283 -2.7788  0.7577  0.4124
   74MOL0     H10156   6.389   1.107   5.209  1.5259  0.4818 -0.5832
   74MOL0     H10157   6.498   1.030   5.496  2.6972 -0.0486  0.5493
   74MOL0     H10158   6.481   1.190   5.434 -0.1987 -0.3347  1.3323
   74MOL0     H10159   6.658   1.006   5.262  0.6537  0.4365  0.0775
   74MOL0     H10160   6.657   1.172   5.270  2.9653 -0.0017  0.9239
   74MOL0     H10161   6.701   1.276   5.561 -2.1704 -2.5439  0.1057
   74MOL0     H10162   6.908   1.146   5.816  2.1696  0.4306  0.7263
   74MOL0     H10163   6.827   1.292   5.752 -0.3265  1.6270 -3.7400
   74MOL0     H10164   7.111   1.243   5.787  3.2483  2.8205 -0.8739
   74MOL0     H10165   7.065   1.249   5.612 -1.1367  0.5169  0.3946
   74MOL0     H10166   6.988   1.477   5.652  2.8997  1.2078 -0.4727
   74MOL0     H10167   6.996   1.459   5.824 -0.2052 -0.4550 -0.3306
   74MOL0     H10168   7.180   1.596   5.735 -3.0532 -0.1333 -0.5950
   74MOL0     H10169   7.248   1.449   5.800  0.8573 -0.6041 -0.7831
   74MOL0     H10170   7.392   1.648   5.725 -1.3526 -1.5214 -1.2543
   74MOL0     H10171   7.707   1.768   5.743  1.8166 -0.0044 -1.7023
   74MOL0     H10172   7.533   1.811   5.746  0.9416 -0.8787  1.7202
   74MOL0     H10173   7.634   1.856   5.608 -0.0132  0.6908  1.4018
   74MOL0     H10174   8.075   1.544   5.560  0.0372  0.1920  1.4198
   74MOL0     H10175   8.308   1.518   5.500  0.3132 -1.0329 -0.9230
   74MOL0     H10176   8.385   1.404   5.077 -0.5174 -1.7163  3.3728
   74MOL0     H10177   8.482   1.553   5.108  0.7652  1.3593  2.8587
   74MOL0     H10178   8.647   1.406   5.043 -0.7835  3.4449  0.5434
   74MOL0     H10179   8.650   1.418   5.221 -1.0225 -0.0682  0.2200
   74MOL0     H10180   8.544   1.199   5.249 -2.3395  0.3124 -0.8574
   74MOL0     H10181   8.685   1.194   5.120 -0.2461  2.3254 -4.6845
   74MOL0     H10182   8.496   1.190   4.956  0.4642  0.1241 -0.4082
   74MOL0     H10183   8.398   1.163   5.107  0.8310 -0.3553  0.7536
   74MOL0     H10184   8.622   0.995   5.011  2.2415 -1.6986  3.9372
   74MOL0     H10185   8.523   0.956   5.154 -0.3535  1.1019  0.4002
   74MOL0     H10186   8.471   0.817   4.960 -1.5432 -0.3384  1.6686
   74MOL0     H10187   8.441   0.972   4.858  0.0712 -1.6688 -0.6978
   74MOL0     H10188   8.210   0.939   4.922 -0.0335  0.0623  0.1295
   74MOL0     H10189   8.273   0.987   5.081 -2.0282  0.7726 -0.3691
   74MOL0     H10190   8.174   0.795   5.137 -0.6854 -0.2632 -0.6516
   74MOL0     H10191   8.334   0.728   5.095 -0.0171 -0.7724 -1.2088
   74MOL0     H10192   8.213   1.479   5.089 -0.0278  0.8529  0.6487
   74MOL0     H10193   7.965   1.498   5.138  0.5785 -1.6219 -1.6495
   74MOL0     H10194   7.645   1.439   5.364  1.0893 -0.3058  0.8785
   74MOL0     H10195   7.396   1.387   5.398  1.2354 -1.8783  1.7379
   74MOL0     H10196   5.722   1.572   5.227  0.1340  1.3423 -1.9202
   74MOL0     H10197   5.504   1.631   5.218 -1.6341  0.7968 -2.4573
   74MOL0     H10198   5.048   1.451   5.100 -2.3757  0.2575 -2.2229
   74MOL0     H10199   4.821   1.543   5.092 -0.0274 -1.2600  0.5226
   74MOL0     H10200   4.643   1.744   5.454  0.4526 -0.8069 -0.6090
   74MOL0     H10201   4.535   1.792   5.331  0.6899  0.3354 -1.7320
   74MOL0     H10202   4.470   1.604   5.470  0.4244  1.9185 -1.0951
   74MOL0     H10203   4.612   1.502   5.420  0.9526 -0.8847 -0.6896
   74MOL0     H10204   4.387   1.594   5.244  1.6390  1.6987  1.3861
   74MOL0     H10205   4.528   1.491   5.187  1.2774  0.0239  0.6044
   74MOL0     H10206   4.470   1.321   5.361 -1.4296 -0.7821  1.7553
   74MOL0     H10207   4.326   1.338   5.247 -1.3978  1.7567  0.0201
   74MOL0     H10208   4.146   1.471   5.595 -1.2606 -1.1710 -0.6138
   74MOL0     H10209   4.863   1.728   5.474  0.0185  0.4288  0.6642
   74MOL0     H10210   5.215   1.694   5.480 -1.7025  1.2910 -0.3264
   74MOL0     H10211   5.079   1.740   5.573  4.4956  1.4188  0.5065
   74MOL0     H10212   5.128   1.566   5.577 -1.4887 -0.3905  1.6882
   75MOL0     O10213   9.999  11.294   5.126 -0.6687  0.6189 -0.2415
   75MOL0     C10214   9.956  11.397   5.158  0.7675 -0.9224 -0.0492
   75MOL0     O10215  10.017  11.509   5.129  0.6089  0.7125 -0.1017
   75MOL0     C10216  10.135  11.504   5.058 -0.3345 -0.3195  0.0933
   75MOL0     C10217  10.124  11.464   4.923  0.4736 -0.2835  0.2205
   75MOL0     C10218  10.242  11.477   4.845  0.6511  0.6290 -0.1336
   75MOL0     C10219  10.369  11.496   4.900  0.0622 -0.6430 -0.2388
   75MOL0     O10220  10.476  11.494   4.813 -0.3985 -0.1410  0.4464
   75MOL0     C10221  10.598  11.446   4.867  0.1779  0.1062  0.2464
   75MOL0     C10222  10.694  11.441   4.745 -0.4741  0.2624  0.4586
   75MOL0     C10223  10.844  11.404   4.779  0.2582 -0.2890 -0.0520
   75MOL0     C10224  10.918  11.414   4.642  0.0572 -0.1466  0.0637
   75MOL0     C10225  11.060  11.379   4.665 -0.6778  0.7127  0.9080
   75MOL0     C10226  11.142  11.402   4.528  0.2587  0.1840  0.5832
   75MOL0     C10227  11.162  11.551   4.493  0.7865  0.1970 -0.4726
   75MOL0     C10228  11.257  11.615   4.593 -0.1497 -0.4535 -0.1919
   75MOL0     N10229  11.396  11.582   4.577  0.3090  0.0004  0.7075
   75MOL0     C10230  11.462  11.573   4.462 -0.5806  0.1028  0.7568
   75MOL0     C10231  11.596  11.548   4.494  0.8440  0.6787 -0.0734
   75MOL0     C10232  11.712  11.550   4.399 -0.4902  0.0690 -0.8987
   75MOL0     C10233  11.792  11.419   4.409  0.4086 -0.3343 -0.9483
   75MOL0     C10234  11.885  11.407   4.532 -0.5249 -0.5477 -0.7750
   75MOL0     C10235  12.003  11.310   4.511  0.0729  0.1920 -0.0806
   75MOL0     O10236  12.083  11.366   4.408 -0.2871  0.1484 -0.0533
   75MOL0     C10237  12.188  11.287   4.362 -1.2496 -0.3009 -0.2298
   75MOL0     C10238  12.226  11.167   4.417 -0.2650 -0.5251 -0.7758
   75MOL0     C10239  12.343  11.099   4.378 -0.3253  0.1909  0.7118
   75MOL0     C10240  12.379  10.970   4.455  0.4281 -1.1313  0.6046
   75MOL0     C10241  12.420  11.154   4.267  0.0815  0.1600  0.9984
   75MOL0     C10242  12.563  11.108   4.231 -0.1710 -0.5438  0.2385
   75MOL0     O10243  12.649  11.205   4.189 -0.1325 -0.7317  0.2623
   75MOL0     C10244  12.766  11.176   4.131  0.9131  0.3882  0.0203
   75MOL0     C10245  12.879  11.123   4.195  0.4256 -0.4062  0.7334
   75MOL0     C10246  13.003  11.117   4.128 -0.6914 -0.9615  0.6764
   75MOL0     C10247  13.012  11.159   3.988  0.5017  0.3932  0.6844
   75MOL0     O10248  13.119  11.156   3.911  0.1626 -0.6473 -0.0260
   75MOL0     C10249  13.240  11.157   3.978 -0.6989 -0.5588 -0.2436
   75MOL0     C10250  13.342  11.190   3.873 -0.1768  0.7697  0.3480
   75MOL0     C10251  13.485  11.182   3.910 -0.5545  0.0694  0.0220
   75MOL0     C10252  13.532  11.040   3.893  0.0496 -0.0590  0.4033
   75MOL0     C10253  13.678  11.012   3.942  0.1872  0.2470 -0.8022
   75MOL0     C10254  13.785  11.058   3.842 -0.3489 -0.4198  0.3359
   75MOL0     C10255  13.928  11.051   3.893 -0.5335  0.2610 -0.4230
   75MOL0     C10256  13.960  10.938   3.990  0.2114  0.9754 -0.0976
   75MOL0    Cl10257  13.920  10.772   3.928  0.1284  0.1772  0.2137
   75MOL0     C10258  12.902  11.207   3.931 -0.2106  0.8862  0.8180
   75MOL0     C10259  12.786  11.216   4.000 -0.4751 -0.0911  0.3930
   75MOL0     O10260  12.592  10.989   4.238  0.4216 -0.1522 -0.0778
   75MOL0     C10261  12.371  11.265   4.198  0.7486 -0.3849  0.5174
   75MOL0     C10262  12.260  11.337   4.257 -0.1453  0.6038  0.0901
   75MOL0     N10263  11.607  11.555   4.635 -0.3940 -0.1348 -0.1727
   75MOL0     N10264  11.484  11.566   4.674  0.4214  0.3708  0.4988
   75MOL0     C10265  10.372  11.524   5.042 -0.1692 -1.5495  0.8984
   75MOL0     C10266  10.261  11.541   5.118  0.2670  0.7463  0.3427
   75MOL0     C10267   9.823  11.395   5.235  0.0771  0.6391 -0.1529
   75MOL0     C10268   9.822  11.329   5.358  0.3245 -0.2792  0.8357
   75MOL0     C10269   9.715  11.348   5.450 -0.7379 -0.2384  0.1210
   75MOL0     C10270   9.603  11.425   5.414 -0.6645 -0.4728  0.0638
   75MOL0     O10271   9.484  11.430   5.487 -0.3318 -0.1345 -0.3793
   75MOL0     C10272   9.478  11.345   5.610  0.0918  0.0209 -0.1106
   75MOL0     C10273   9.450  11.200   5.582  0.5354  0.4646 -0.0286
   75MOL0     C10274   9.303  11.167   5.559  0.1384 -0.3761  0.4926
   75MOL0     C10275   9.250  11.024   5.558 -0.2880  0.4533 -0.5054
   75MOL0     C10276   9.293  10.944   5.442 -0.1728 -0.2201 -0.2894
   75MOL0     C10277   9.339  10.878   5.357 -0.4373  0.6966  0.6695
   75MOL0     C10278   9.611  11.494   5.286  0.1955  0.0852  0.0129
   75MOL0     C10279   9.712  11.472   5.194  0.6928  0.5479  0.0711
   75MOL0     C10280   9.705  11.535   5.058 -0.3572 -0.7688 -0.0879
   75MOL0     H10281  10.025  11.448   4.882  0.2879  3.7897 -1.3738
   75MOL0     H10282  10.246  11.452   4.739  1.6863  0.8175 -0.1555
   75MOL0     H10283  10.581  11.350   4.915  0.3244  1.2398  2.7028
   75MOL0     H10284  10.636  11.513   4.945 -1.7838  1.7162 -0.0950
   75MOL0     H10285  10.652  11.378   4.666  0.2757  2.6501 -2.0313
   75MOL0     H10286  10.697  11.542   4.704  1.1489  0.8225  1.8229
   75MOL0     H10287  10.884  11.469   4.858 -2.2512  1.9002 -0.4340
   75MOL0     H10288  10.860  11.304   4.819  1.6955 -0.1500 -0.2475
   75MOL0     H10289  10.867  11.348   4.571 -3.0165  2.5335 -0.4642
   75MOL0     H10290  10.918  11.518   4.608  0.9565  1.1114  3.5176
   75MOL0     H10291  11.062  11.271   4.678 -1.8999  0.6685  0.7952
   75MOL0     H10292  11.108  11.422   4.754 -1.7296  0.5333  1.5770
   75MOL0     H10293  11.245  11.369   4.545  0.1582  0.3787  1.6662
   75MOL0     H10294  11.087  11.343   4.455 -0.2678 -1.9434  2.5747
   75MOL0     H10295  11.069  11.607   4.504  1.3860  0.6726  3.2916
   75MOL0     H10296  11.191  11.565   4.389  4.0052 -1.2192  0.1232
   75MOL0     H10297  11.252  11.723   4.575 -2.3320 -0.5877 -0.6593
   75MOL0     H10298  11.232  11.594   4.697  0.5905 -0.8426 -0.0889
   75MOL0     H10299  11.437  11.598   4.359  0.4234 -1.5617  0.0733
   75MOL0     H10300  11.774  11.637   4.423 -1.0175  0.1782  0.0948
   75MOL0     H10301  11.678  11.559   4.295  1.0659  4.0644 -1.2715
   75MOL0     H10302  11.724  11.334   4.410  0.6485 -0.5537  0.9223
   75MOL0     H10303  11.839  11.412   4.310 -0.0713 -0.7847 -1.1486
   75MOL0     H10304  11.909  11.508   4.565 -0.0401 -0.7763 -0.4072
   75MOL0     H10305  11.832  11.371   4.621  2.7402  1.2895  2.1748
   75MOL0     H10306  12.062  11.305   4.603 -0.6787 -0.1604  0.3935
   75MOL0     H10307  11.959  11.212   4.491  0.8095 -0.0715 -0.4424
   75MOL0     H10308  12.173  11.128   4.503 -0.3732 -0.2469 -0.7161
   75MOL0     H10309  12.299  10.943   4.524  2.0397 -0.0115  3.0722
   75MOL0     H10310  12.468  10.983   4.518  1.0685 -2.2174 -0.0311
   75MOL0     H10311  12.380  10.884   4.388 -1.8657 -0.1534 -0.8093
   75MOL0     H10312  12.873  11.084   4.296 -0.2375 -1.3660  0.3379
   75MOL0     H10313  13.091  11.081   4.181  1.5897  1.2688 -1.2594
   75MOL0     H10314  13.233  11.240   4.048  0.5499  1.3253 -2.2490
   75MOL0     H10315  13.260  11.066   4.036 -1.2961 -0.9337 -0.6079
   75MOL0     H10316  13.315  11.135   3.782  1.8668  1.4616 -0.7333
   75MOL0     H10317  13.314  11.295   3.859 -0.8103  0.4934 -0.5649
   75MOL0     H10318  13.503  11.221   4.010 -0.4415  1.1007 -0.3942
   75MOL0     H10319  13.542  11.238   3.836 -0.2082 -1.4836 -0.9318
   75MOL0     H10320  13.521  11.009   3.789 -4.2441  0.0766  0.6640
   75MOL0     H10321  13.462  10.972   3.942 -0.1006  0.7692  1.3656
   75MOL0     H10322  13.688  11.054   4.042 -1.2579  1.0403 -0.9638
   75MOL0     H10323  13.675  10.903   3.955 -1.5339  0.5465  2.1728
   75MOL0     H10324  13.757  11.159   3.811 -3.1582  0.0370  3.6850
   75MOL0     H10325  13.779  10.998   3.751  1.8579  0.7426 -0.6600
   75MOL0     H10326  13.966  11.133   3.954 -0.3153 -0.8735  1.0240
   75MOL0     H10327  13.996  11.042   3.809  0.1431 -2.4644  0.3141
   75MOL0     H10328  13.904  10.940   4.084 -0.8711  0.1156 -0.6907
   75MOL0     H10329  14.065  10.949   4.017  0.7341 -0.9168 -1.1715
   75MOL0     H10330  12.911  11.235   3.826 -0.0281  1.2499  0.9283
   75MOL0     H10331  12.705  11.273   3.957  1.8243  1.5396 -2.1539
   75MOL0     H10332  12.417  11.313   4.112  1.5573 -0.3871  0.9473
   75MOL0     H10333  12.233  11.436   4.221  0.2815  0.2828 -1.1647
   75MOL0     H10334  10.470  11.541   5.086 -0.3417 -2.1160  1.5172
   75MOL0     H10335  10.279  11.562   5.223  1.2189 -0.1851  0.3766
   75MOL0     H10336   9.908  11.275   5.394  0.4486 -0.1329  0.7588
   75MOL0     H10337   9.720  11.283   5.537  1.2490 -1.6558 -0.9853
   75MOL0     H10338   9.570  11.361   5.667 -1.3781  3.4114  1.5918
   75MOL0     H10339   9.400  11.381   5.678 -0.3182 -0.8145 -0.1302
   75MOL0     H10340   9.478  11.135   5.666 -1.8734 -0.2361  0.2941
   75MOL0     H10341   9.514  11.183   5.495  0.3058  2.6751 -0.6662
   75MOL0     H10342   9.243  11.215   5.638 -0.8240 -3.7317  2.0258
   75MOL0     H10343   9.286  11.206   5.459  1.8992  2.7290  1.2763
   75MOL0     H10344   9.141  11.023   5.559 -0.2992 -0.0034  1.3047
   75MOL0     H10345   9.278  10.969   5.649 -2.4629  0.6622  0.3625
   75MOL0     H10346   9.381  10.808   5.287 -2.7966 -1.1728  1.0057
   75MOL0     H10347   9.525  11.552   5.255 -2.5019 -2.6242  1.8345
   75MOL0     H10348   9.755  11.461   4.994 -2.7222 -2.7664  0.2048
   75MOL0     H10349   9.604  11.547   5.016 -0.1075 -0.9694 -0.7704
   75MOL0     H10350   9.764  11.626   5.048 -1.5669  0.1406  0.7415
   76MOL0     O10351   3.714   6.258   2.311  0.9689 -0.3528  0.1783
   76MOL0     C10352   3.706   6.133   2.300 -0.1657 -0.7953  0.2653
   76MOL0     O10353   3.809   6.058   2.252 -0.3043  0.3788 -0.9554
   76MOL0     C10354   3.932   6.123   2.234 -0.7775  0.0846 -0.1160
   76MOL0     C10355   3.982   6.165   2.111 -0.0739  0.6719 -0.3133
   76MOL0     C10356   4.111   6.218   2.105 -0.7103  0.0059 -0.2271
   76MOL0     C10357   4.175   6.260   2.223 -0.2456 -0.4653  1.1585
   76MOL0     O10358   4.287   6.334   2.198  0.2095 -0.0427  0.2785
   76MOL0     C10359   4.368   6.377   2.309 -0.0897  0.2185 -0.0936
   76MOL0     C10360   4.482   6.453   2.245 -0.1864 -0.1211 -0.4062
   76MOL0     C10361   4.593   6.494   2.352  0.3099 -0.1392  0.3932
   76MOL0     C10362   4.716   6.548   2.283  1.0707 -0.2567 -0.0438
   76MOL0     C10363   4.836   6.558   2.385  0.4833  0.0701 -0.4729
   76MOL0     C10364   4.804   6.638   2.512  0.3470  0.5924 -0.3148
   76MOL0     C10365   4.784   6.787   2.486  0.6455 -0.2620 -0.5330
   76MOL0     C10366   4.745   6.861   2.611  0.4360 -0.8403  0.4824
   76MOL0     N10367   4.610   6.830   2.655  0.6090  0.0426 -0.3706
   76MOL0     C10368   4.588   6.792   2.786  0.4216 -0.8103 -0.2572
   76MOL0     C10369   4.453   6.747   2.785  0.6158  0.4382 -0.1611
   76MOL0     C10370   4.362   6.715   2.907  0.0804 -0.0893  0.6481
   76MOL0     C10371   4.431   6.660   3.032 -0.5421  0.2494  0.2718
   76MOL0     C10372   4.469   6.780   3.123 -0.2429 -0.5196  0.5785
   76MOL0     C10373   4.586   6.740   3.216  0.8901  0.0070  0.8417
   76MOL0     O10374   4.704   6.722   3.139  0.0949  0.1960 -0.0066
   76MOL0     C10375   4.826   6.692   3.193  0.8109 -0.0087 -0.0616
   76MOL0     C10376   4.864   6.695   3.333  0.7148 -0.2772  0.3276
   76MOL0     C10377   4.996   6.681   3.367  0.9882  0.1892 -0.0820
   76MOL0     C10378   5.026   6.717   3.514 -0.0339  0.2688  0.4538
   76MOL0     C10379   5.090   6.632   3.275  0.4768  0.1620  0.3831
   76MOL0     C10380   5.238   6.607   3.309  0.6670 -0.0775  0.6247
   76MOL0     O10381   5.306   6.535   3.216  0.1842 -0.7274 -0.3185
   76MOL0     C10382   5.445   6.524   3.211  0.1058 -0.1969 -0.0512
   76MOL0     C10383   5.518   6.404   3.220 -0.1753 -0.0903  0.3292
   76MOL0     C10384   5.663   6.428   3.212  0.9628  0.4495 -0.3769
   76MOL0     C10385   5.725   6.539   3.176 -0.1681 -0.1957 -0.2416
   76MOL0     O10386   5.862   6.532   3.172  0.0094 -0.5959 -0.7501
   76MOL0     C10387   5.925   6.660   3.177  0.5899 -0.2820  1.1916
   76MOL0     C10388   6.079   6.636   3.166  0.4038  0.4972 -0.1805
   76MOL0     C10389   6.162   6.760   3.135  0.7701 -0.2044 -0.6593
   76MOL0     C10390   6.145   6.869   3.251  0.4239  0.2340  0.0684
   76MOL0     C10391   6.177   7.013   3.196 -0.1511 -0.2642  1.0660
   76MOL0     C10392   6.050   7.063   3.120  0.8239 -0.2104 -0.0212
   76MOL0     C10393   6.066   7.207   3.082 -0.8540 -0.5092  0.1262
   76MOL0     C10394   5.988   7.244   2.955  0.0227 -0.5004 -0.5379
   76MOL0    Cl10395   5.814   7.225   2.980 -0.3318  0.0411  0.4804
   76MOL0     C10396   5.651   6.656   3.166 -0.3310  0.2663  0.0019
   76MOL0     C10397   5.514   6.646   3.181 -0.0823 -0.2766 -0.8039
   76MOL0     O10398   5.285   6.646   3.412  0.0292 -0.8477 -0.5515
   76MOL0     C10399   5.045   6.605   3.145  0.2417  0.3070  0.2392
   76MOL0     C10400   4.928   6.648   3.102  0.7346 -0.7200 -0.0237
   76MOL0     N10401   4.402   6.766   2.658 -0.9295 -0.1779 -0.2002
   76MOL0     N10402   4.498   6.802   2.579  0.1419  0.4914  0.5726
   76MOL0     C10403   4.130   6.218   2.342  0.5508  0.0111  0.0450
   76MOL0     C10404   4.011   6.145   2.348  0.3466  0.4107 -0.0332
   76MOL0     C10405   3.578   6.075   2.333  0.5159  0.4163  0.0705
   76MOL0     C10406   3.462   6.152   2.349 -0.5879 -0.5634  0.5798
   76MOL0     C10407   3.338   6.107   2.386  0.5950 -0.1604 -0.7117
   76MOL0     C10408   3.314   5.972   2.391  0.7389  0.2098 -0.1662
   76MOL0     O10409   3.190   5.921   2.421  0.5802  0.3293  0.1917
   76MOL0     C10410   3.074   5.988   2.349 -0.7853  0.3473 -0.1329
   76MOL0     C10411   2.962   5.894   2.295  0.4117  0.3373 -0.0336
   76MOL0     C10412   2.894   5.823   2.409  0.1364 -0.6463  0.2814
   76MOL0     C10413   2.753   5.772   2.386  0.4341 -0.6863 -0.2601
   76MOL0     C10414   2.655   5.881   2.396 -0.0430 -0.1252 -0.0414
   76MOL0     C10415   2.581   5.973   2.423 -0.3312 -0.0166 -0.9204
   76MOL0     C10416   3.422   5.891   2.373  0.4762 -0.5050  0.5668
   76MOL0     C10417   3.550   5.939   2.350 -0.3612 -0.1184  0.2355
   76MOL0     C10418   3.665   5.835   2.350 -0.2605  0.4244 -0.3487
   76MOL0     H10419   3.932   6.138   2.019  0.0251  2.1309 -0.8236
   76MOL0     H10420   4.155   6.236   2.008 -0.5730 -1.1215 -0.3853
   76MOL0     H10421   4.403   6.294   2.371 -0.4970  0.7186  0.8327
   76MOL0     H10422   4.316   6.440   2.382  0.2863 -1.1641  1.4354
   76MOL0     H10423   4.523   6.394   2.163 -1.4101 -2.4302  0.5422
   76MOL0     H10424   4.444   6.542   2.193 -1.8175 -1.4194 -1.5549
   76MOL0     H10425   4.556   6.565   2.427 -0.2397 -1.3808  1.3270
   76MOL0     H10426   4.626   6.400   2.396  1.4446 -0.7903 -1.6837
   76MOL0     H10427   4.747   6.487   2.198 -2.7113  0.5448 -2.1874
   76MOL0     H10428   4.683   6.644   2.244  3.3779  0.9461  0.7392
   76MOL0     H10429   4.919   6.596   2.323 -0.1392 -0.7915 -1.8921
   76MOL0     H10430   4.863   6.458   2.420  0.7188  0.2878 -0.0381
   76MOL0     H10431   4.733   6.588   2.578 -0.8373 -1.7056 -3.1561
   76MOL0     H10432   4.904   6.636   2.556 -0.8014 -0.0838  2.4795
   76MOL0     H10433   4.709   6.807   2.409 -0.4876  2.3300  1.0866
   76MOL0     H10434   4.880   6.823   2.446  1.8173 -1.8617  0.6619
   76MOL0     H10435   4.813   6.839   2.695  0.8427 -0.2790  0.3014
   76MOL0     H10436   4.752   6.968   2.590  1.8499 -1.5517 -3.4067
   76MOL0     H10437   4.655   6.804   2.870 -3.8151 -1.8536  3.6692
   76MOL0     H10438   4.276   6.657   2.873 -1.0529  1.4501  0.7761
   76MOL0     H10439   4.320   6.814   2.930  1.8992  0.5805  1.2806
   76MOL0     H10440   4.380   6.590   3.098  1.1269  1.0298  2.5102
   76MOL0     H10441   4.531   6.622   3.009 -0.1819  0.8542  0.7962
   76MOL0     H10442   4.512   6.863   3.066 -3.0622 -0.2498 -1.3211
   76MOL0     H10443   4.386   6.822   3.180  1.1281  0.1629  2.1519
   76MOL0     H10444   4.606   6.810   3.298 -3.0262 -0.8997  2.7916
   76MOL0     H10445   4.573   6.642   3.264  1.7611 -0.0944  0.8941
   76MOL0     H10446   4.794   6.715   3.414  0.3774  1.9388 -0.4507
   76MOL0     H10447   5.060   6.622   3.556 -0.4469 -0.5530 -0.9925
   76MOL0     H10448   4.940   6.748   3.575 -2.5497 -3.5270 -0.8012
   76MOL0     H10449   5.107   6.790   3.523  1.4701 -1.0758 -1.4016
   76MOL0     H10450   5.478   6.305   3.239  0.8097 -0.9040 -1.5324
   76MOL0     H10451   5.728   6.344   3.236  0.2406  0.1144  0.4442
   76MOL0     H10452   5.891   6.728   3.098  1.4599 -1.8039 -0.5740
   76MOL0     H10453   5.898   6.720   3.265  2.5461  0.2821  1.4578
   76MOL0     H10454   6.118   6.585   3.255  2.4279  0.0897 -1.2439
   76MOL0     H10455   6.107   6.565   3.088  1.6473 -0.6688  1.2551
   76MOL0     H10456   6.123   6.795   3.038 -0.8713 -3.0901 -1.1448
   76MOL0     H10457   6.268   6.736   3.140  0.5856 -1.2316 -1.4904
   76MOL0     H10458   6.220   6.859   3.330 -0.3560  2.1389  1.1264
   76MOL0     H10459   6.052   6.865   3.310 -0.4686 -0.3885 -1.3261
   76MOL0     H10460   6.187   7.076   3.285  0.8427 -1.6363  1.9677
   76MOL0     H10461   6.261   7.005   3.126 -0.6880 -1.1260  0.4921
   76MOL0     H10462   5.961   7.050   3.182  0.9085  0.7497  0.3297
   76MOL0     H10463   6.034   6.996   3.035 -0.2965 -0.9176  0.7261
   76MOL0     H10464   6.169   7.228   3.053 -1.4925  2.2840 -0.4128
   76MOL0     H10465   6.043   7.271   3.167 -2.2931  0.4698 -0.9691
   76MOL0     H10466   6.023   7.184   2.870 -0.6079 -1.5464 -0.0697
   76MOL0     H10467   6.011   7.348   2.928 -2.5257 -0.0494 -1.1890
   76MOL0     H10468   5.686   6.754   3.135 -0.2255  0.7238  1.4916
   76MOL0     H10469   5.460   6.739   3.169  1.7094  0.8146 -0.7509
   76MOL0     H10470   5.115   6.562   3.074 -0.8010 -2.2228  0.6340
   76MOL0     H10471   4.912   6.651   2.994 -2.1030  0.6909  0.3511
   76MOL0     H10472   4.184   6.243   2.432  0.2021  2.5360 -0.3665
   76MOL0     H10473   3.995   6.111   2.450 -1.0355 -3.1846 -1.2691
   76MOL0     H10474   3.478   6.259   2.347  1.2340 -0.8076 -1.3737
   76MOL0     H10475   3.260   6.180   2.404 -0.7592 -1.2471 -1.9377
   76MOL0     H10476   3.034   6.068   2.413 -1.6429 -1.7985  2.1914
   76MOL0     H10477   3.111   6.045   2.264 -0.2626  0.7822  0.3771
   76MOL0     H10478   3.003   5.829   2.218  0.9112  2.1085 -1.3140
   76MOL0     H10479   2.886   5.941   2.232  1.3565  0.3421 -1.2047
   76MOL0     H10480   2.969   5.752   2.444  0.4527 -0.3607  0.1859
   76MOL0     H10481   2.883   5.904   2.482  0.1606 -1.2408  0.9566
   76MOL0     H10482   2.719   5.700   2.460 -1.0550 -0.3003 -0.5230
   76MOL0     H10483   2.753   5.727   2.286 -0.1713 -2.8942  0.6879
   76MOL0     H10484   2.511   6.054   2.435 -3.1863 -1.9244 -3.3179
   76MOL0     H10485   3.397   5.787   2.388 -0.5781 -0.5144 -1.0795
   76MOL0     H10486   3.742   5.868   2.420 -0.8348  0.5843  0.2081
   76MOL0     H10487   3.636   5.735   2.382 -0.6198  1.6951  3.7685
   76MOL0     H10488   3.714   5.828   2.252  3.6802  0.7295  1.4158
   77MOL0     O10489   8.550   0.725   9.295 -0.5359  0.3078 -0.0555
   77MOL0     C10490   8.485   0.648   9.359  0.4623 -0.2075  0.2573
   77MOL0     O10491   8.530   0.534   9.414 -0.1744  0.4061  0.0581
   77MOL0     C10492   8.670   0.507   9.429  0.8782  0.1356  0.7097
   77MOL0     C10493   8.699   0.392   9.509  0.5106 -0.0362  0.9146
   77MOL0     C10494   8.827   0.351   9.539  0.2171 -0.0743 -0.0352
   77MOL0     C10495   8.938   0.432   9.497  0.5570 -0.4333 -0.0536
   77MOL0     O10496   9.065   0.414   9.529 -0.0891 -0.2572  0.1584
   77MOL0     C10497   9.099   0.306   9.609 -0.7218  0.1004  0.0195
   77MOL0     C10498   9.073   0.359   9.753  0.4384  0.6748  0.5203
   77MOL0     C10499   9.157   0.279   9.858  0.2984  0.5182  0.5983
   77MOL0     C10500   9.110   0.302   9.995 -0.1671  0.2737 -0.1878
   77MOL0     C10501   9.188   0.223  10.100  0.8580 -0.5600 -1.1839
   77MOL0     C10502   9.311   0.300  10.160 -0.1725  0.0030  0.4732
   77MOL0     C10503   9.373   0.230  10.277  0.5255 -0.2840 -0.1882
   77MOL0     C10504   9.467   0.325  10.349  0.7864  0.6882  0.4626
   77MOL0     N10505   9.554   0.248  10.444  0.6649  0.2222  0.1980
   77MOL0     C10506   9.519   0.199  10.563  0.6619 -0.3451  0.8546
   77MOL0     C10507   9.626   0.144  10.616 -0.0909 -0.3805  0.2866
   77MOL0     C10508   9.632   0.084  10.754  0.1435  0.3314 -0.3197
   77MOL0     C10509   9.724  -0.043  10.763  0.8171 -0.6580  0.3051
   77MOL0     C10510   9.871  -0.005  10.790 -0.4297 -0.1971 -0.9680
   77MOL0     C10511   9.901   0.080  10.912 -0.0796 -0.2073  0.1716
   77MOL0     O10512  10.047   0.079  10.934  1.0230 -0.2125  0.1477
   77MOL0     C10513  10.105   0.166  11.029  0.4287  0.1071  0.7669
   77MOL0     C10514  10.024   0.261  11.104 -0.6702  0.3104  1.0866
   77MOL0     C10515  10.085   0.366  11.180  1.0681  0.2825  0.5878
   77MOL0     C10516   9.988   0.475  11.238  0.3731 -1.0513  0.0378
   77MOL0     C10517  10.223   0.353  11.208 -0.3993  0.1444 -0.0137
   77MOL0     C10518  10.293   0.427  11.315  0.1929  0.7466  0.0560
   77MOL0     O10519  10.423   0.465  11.294  0.2458  0.0361 -0.3613
   77MOL0     C10520  10.482   0.555  11.383 -0.0463 -0.3113  0.2568
   77MOL0     C10521  10.422   0.677  11.406  0.0457  0.7330  0.5232
   77MOL0     C10522  10.484   0.770  11.486  0.3077 -0.1919 -0.9565
   77MOL0     C10523  10.597   0.728  11.561 -0.1133  0.0317 -0.8135
   77MOL0     O10524  10.683   0.803  11.636 -0.2043 -0.6963 -0.1882
   77MOL0     C10525  10.646   0.941  11.658  0.9019 -0.2146 -0.2119
   77MOL0     C10526  10.756   1.015  11.731 -0.7440  0.6843  0.4154
   77MOL0     C10527  10.873   1.030  11.636 -0.0702  0.5832  0.1780
   77MOL0     C10528  10.979   1.117  11.707  0.3994 -1.0074  0.3094
   77MOL0     C10529  11.106   1.121  11.620  0.3643 -0.8299 -0.4677
   77MOL0     C10530  11.222   1.210  11.668  0.4674  0.7737  0.0674
   77MOL0     C10531  11.336   1.218  11.567 -0.0409 -0.3746  0.3363
   77MOL0     C10532  11.420   1.090  11.570 -0.1871 -0.0249  0.4429
   77MOL0    Cl10533  11.569   1.106  11.479  0.0125  0.1089  0.1114
   77MOL0     C10534  10.637   0.598  11.556 -0.3802  0.8510  0.6023
   77MOL0     C10535  10.588   0.511  11.457  0.2508  0.0429 -0.2310
   77MOL0     O10536  10.228   0.454  11.418  0.2837  0.1221  0.4428
   77MOL0     C10537  10.300   0.254  11.135 -0.2618  0.4480  0.2342
   77MOL0     C10538  10.237   0.165  11.045 -0.0385 -0.0636  0.4586
   77MOL0     N10539   9.732   0.165  10.524 -0.1055 -0.2171  0.3579
   77MOL0     N10540   9.683   0.214  10.415  0.6872  0.3157 -0.4604
   77MOL0     C10541   8.911   0.542   9.433  0.1067 -0.2353  0.4750
   77MOL0     C10542   8.780   0.584   9.400 -0.5542 -0.3009 -0.4583
   77MOL0     C10543   8.338   0.672   9.388 -0.2692  0.4406 -0.3673
   77MOL0     C10544   8.267   0.567   9.443  0.5643 -1.5446  0.0480
   77MOL0     C10545   8.132   0.578   9.465  0.2420 -0.0759  0.3634
   77MOL0     C10546   8.061   0.696   9.447  0.2013  0.7827 -0.2257
   77MOL0     O10547   7.926   0.693   9.487  0.1097 -0.1418 -0.0249
   77MOL0     C10548   7.824   0.791   9.456  0.0257 -0.0901  1.1267
   77MOL0     C10549   7.691   0.726   9.402  0.8879 -0.3321  0.2482
   77MOL0     C10550   7.606   0.633   9.491 -0.0680  0.5855 -0.2962
   77MOL0     C10551   7.666   0.491   9.516 -0.5375  0.0230 -0.2493
   77MOL0     C10552   7.575   0.404   9.597  0.8091  0.3014  0.3786
   77MOL0     C10553   7.508   0.314   9.650 -0.0445 -0.8248  0.3340
   77MOL0     C10554   8.132   0.794   9.379  0.3687  0.3538  0.2604
   77MOL0     C10555   8.267   0.790   9.356  0.1192 -0.1254 -0.9826
   77MOL0     C10556   8.338   0.920   9.312 -0.3071  0.6898  0.4005
   77MOL0     H10557   8.618   0.332   9.549 -0.6214  0.3174 -0.7809
   77MOL0     H10558   8.853   0.265   9.600  3.5856  1.3947  0.8743
   77MOL0     H10559   9.207   0.303   9.593 -0.1226 -0.2628  3.3406
   77MOL0     H10560   9.068   0.204   9.585  1.4178 -0.8989  1.2032
   77MOL0     H10561   9.093   0.466   9.744  0.4748  0.6040 -0.3482
   77MOL0     H10562   8.967   0.333   9.758  0.2488  0.1670 -3.1455
   77MOL0     H10563   9.156   0.171   9.841  1.7527  0.4708  0.6998
   77MOL0     H10564   9.254   0.328   9.848 -1.2457  3.5816 -0.8362
   77MOL0     H10565   9.112   0.410  10.016 -0.2325  0.1321  0.5768
   77MOL0     H10566   9.006   0.269  10.002  0.0485 -0.5432 -0.6784
   77MOL0     H10567   9.224   0.126  10.064  0.0968 -0.7489 -1.4415
   77MOL0     H10568   9.126   0.203  10.189 -0.3630  0.6006 -1.7427
   77MOL0     H10569   9.391   0.308  10.086  0.8423  0.3495  1.5778
   77MOL0     H10570   9.292   0.403  10.191 -1.1822 -0.5741  1.9086
   77MOL0     H10571   9.419   0.137  10.245 -0.7080 -0.9069 -0.2080
   77MOL0     H10572   9.298   0.209  10.354 -0.5843  5.2259  0.6969
   77MOL0     H10573   9.528   0.372  10.271  1.1842  1.1930  1.0649
   77MOL0     H10574   9.414   0.399  10.410 -0.7060  0.6492 -0.7285
   77MOL0     H10575   9.422   0.212  10.611 -0.6318 -0.9599 -1.4703
   77MOL0     H10576   9.528   0.057  10.772 -0.0740  1.5357  0.3852
   77MOL0     H10577   9.662   0.160  10.827 -3.0320 -0.7954  2.3815
   77MOL0     H10578   9.692  -0.109  10.844 -1.7056  1.1109  0.8853
   77MOL0     H10579   9.708  -0.102  10.672 -0.2064  3.1499 -2.2176
   77MOL0     H10580   9.931  -0.097  10.793  1.7006  1.1529  0.8901
   77MOL0     H10581   9.900   0.050  10.700 -1.0753 -1.0370 -1.7152
   77MOL0     H10582   9.870   0.180  10.879 -1.9583  0.0711  2.5245
   77MOL0     H10583   9.852   0.044  11.002  1.5010 -0.0368  1.1443
   77MOL0     H10584   9.921   0.278  11.075  0.2852  0.1070 -3.0927
   77MOL0     H10585  10.049   0.558  11.274 -1.7768 -0.2921  2.3163
   77MOL0     H10586   9.929   0.435  11.321 -0.1541  2.4458  1.5429
   77MOL0     H10587   9.926   0.512  11.156  3.7625 -2.7436 -3.6147
   77MOL0     H10588  10.333   0.701  11.348  0.6592 -4.0187 -2.8843
   77MOL0     H10589  10.449   0.872  11.501  0.8334 -0.0877 -0.3941
   77MOL0     H10590  10.625   1.000  11.568  0.8903 -2.0810 -1.4926
   77MOL0     H10591  10.558   0.938  11.722  0.1504 -1.3089 -1.2492
   77MOL0     H10592  10.718   1.113  11.762 -0.1430  0.8730  0.5635
   77MOL0     H10593  10.778   0.969  11.828  2.5047  1.9307  0.3717
   77MOL0     H10594  10.845   1.063  11.536 -0.4033  0.3654  0.1983
   77MOL0     H10595  10.907   0.926  11.628 -0.3802  0.3176  1.7895
   77MOL0     H10596  11.006   1.075  11.804  0.2389  2.2468  1.9164
   77MOL0     H10597  10.935   1.217  11.717  0.6794 -0.6072 -2.0268
   77MOL0     H10598  11.137   1.016  11.625  1.2104 -0.5766  4.5990
   77MOL0     H10599  11.087   1.154  11.517  1.2424  3.3179  0.5211
   77MOL0     H10600  11.254   1.173  11.766 -2.7238 -1.9852  0.2726
   77MOL0     H10601  11.177   1.309  11.679 -1.5497 -0.0126 -0.5033
   77MOL0     H10602  11.393   1.304  11.603 -0.7369  1.2572 -2.1829
   77MOL0     H10603  11.297   1.243  11.468 -3.0221 -0.6285  1.3165
   77MOL0     H10604  11.372   1.002  11.526  1.3466 -1.5565  1.6510
   77MOL0     H10605  11.453   1.056  11.669  0.8322 -1.6368 -0.4000
   77MOL0     H10606  10.724   0.568  11.614 -1.4121  1.1396  2.3562
   77MOL0     H10607  10.622   0.408  11.450 -1.6679 -1.0392  3.3087
   77MOL0     H10608  10.406   0.236  11.147 -0.5524 -1.7540 -0.1058
   77MOL0     H10609  10.303   0.091  11.001 -0.9753  0.2567 -1.6314
   77MOL0     H10610   8.986   0.608   9.391  0.6412 -0.6207  0.8195
   77MOL0     H10611   8.776   0.681   9.350 -1.0317  0.8332  1.6528
   77MOL0     H10612   8.320   0.473   9.457  0.1636 -1.9382 -0.9441
   77MOL0     H10613   8.078   0.488   9.491 -0.1085 -0.1801 -0.6955
   77MOL0     H10614   7.816   0.849   9.549 -0.1433  0.2953  0.8718
   77MOL0     H10615   7.864   0.864   9.385 -0.6413 -0.1908  0.6332
   77MOL0     H10616   7.719   0.673   9.311 -2.1186 -1.6751 -0.0084
   77MOL0     H10617   7.628   0.811   9.372 -2.6245 -2.7696  0.0480
   77MOL0     H10618   7.594   0.673   9.592 -1.4918 -0.2914 -0.0722
   77MOL0     H10619   7.504   0.627   9.452 -0.6056  0.3285  1.0685
   77MOL0     H10620   7.769   0.502   9.551 -0.3397 -0.8663 -0.5235
   77MOL0     H10621   7.678   0.434   9.423  0.8836 -2.4686  1.3527
   77MOL0     H10622   7.451   0.240   9.702 -0.1790 -0.4783  0.6882
   77MOL0     H10623   8.083   0.886   9.349  1.3243  0.9363  0.4338
   77MOL0     H10624   8.266   1.002   9.318 -0.9018  0.2134 -0.0742
   77MOL0     H10625   8.421   0.950   9.376  0.6934 -0.5615 -0.2666
   77MOL0     H10626   8.361   0.910   9.205 -0.3833 -2.9963  0.5951
   78MOL0     O10627   5.656   7.929   4.134  0.0002 -0.4209  0.1637
   78MOL0     C10628   5.608   7.817   4.108 -1.0987 -0.6468  0.4673
   78MOL0     O10629   5.676   7.706   4.134 -0.1666 -0.1104  0.0483
   78MOL0     C10630   5.750   7.696   4.248  0.2637  0.5341 -0.1382
   78MOL0     C10631   5.698   7.689   4.379  0.2970  0.0829  0.3712
   78MOL0     C10632   5.788   7.687   4.487 -0.3444 -0.6186 -0.0866
   78MOL0     C10633   5.926   7.690   4.477  1.2544 -0.7483 -0.4263
   78MOL0     O10634   6.016   7.706   4.576 -0.3143 -0.2885 -0.5390
   78MOL0     C10635   5.958   7.776   4.685 -0.0839 -0.8107  0.7241
   78MOL0     C10636   5.904   7.690   4.796 -0.4065  0.6156 -0.8318
   78MOL0     C10637   6.020   7.617   4.862  0.2376  0.7154  0.4748
   78MOL0     C10638   6.046   7.488   4.786  0.2400  0.3252  0.8408
   78MOL0     C10639   6.177   7.420   4.844  0.0736  0.0147  0.4416
   78MOL0     C10640   6.197   7.275   4.812  0.3291  1.0127  0.0799
   78MOL0     C10641   6.346   7.226   4.832 -1.1386 -0.2791  0.8248
   78MOL0     C10642   6.428   7.230   4.702 -0.1637  0.5528  0.2374
   78MOL0     N10643   6.569   7.245   4.744  0.0174  0.0718  1.0842
   78MOL0     C10644   6.643   7.150   4.816 -0.1514 -0.0130  0.2603
   78MOL0     C10645   6.762   7.213   4.833 -0.7843  0.6386 -0.6436
   78MOL0     C10646   6.873   7.142   4.907  0.3721  0.2239  0.0970
   78MOL0     C10647   7.006   7.159   4.843  0.1665  0.3440 -0.2070
   78MOL0     C10648   7.018   7.129   4.693 -0.2638 -0.4088 -0.4566
   78MOL0     C10649   7.149   7.175   4.638  0.5135 -0.6088 -0.9814
   78MOL0     O10650   7.256   7.086   4.678  0.5736 -0.2213 -0.4655
   78MOL0     C10651   7.389   7.125   4.662  0.3786  0.3542 -0.1788
   78MOL0     C10652   7.443   7.241   4.599  0.2925 -0.2160  0.8609
   78MOL0     C10653   7.579   7.265   4.578 -0.0452 -0.0151  0.2609
   78MOL0     C10654   7.621   7.382   4.494  0.3756  0.5424 -0.2353
   78MOL0     C10655   7.670   7.170   4.632 -0.9154 -0.2107 -0.9374
   78MOL0     C10656   7.818   7.189   4.615  0.4760 -0.0211  0.8106
   78MOL0     O10657   7.889   7.077   4.619  0.1150  0.1647 -0.7744
   78MOL0     C10658   8.024   7.076   4.594 -0.0174 -0.9764 -0.8598
   78MOL0     C10659   8.082   6.965   4.645  0.0096 -0.4848 -0.7021
   78MOL0     C10660   8.225   6.940   4.631 -0.2255  0.2116 -0.2113
   78MOL0     C10661   8.302   7.026   4.551 -0.0132  0.6418 -0.2625
   78MOL0     O10662   8.436   7.014   4.551  0.2669  0.0920 -0.4343
   78MOL0     C10663   8.525   7.123   4.527  0.1279 -0.5674 -0.0233
   78MOL0     C10664   8.674   7.102   4.562 -0.4282  0.3474  0.3549
   78MOL0     C10665   8.697   7.083   4.712 -0.5820  0.7279 -0.0733
   78MOL0     C10666   8.842   7.042   4.740 -0.2280 -0.5343  0.2936
   78MOL0     C10667   8.871   7.036   4.883 -0.1457 -0.2882  0.4049
   78MOL0     C10668   9.013   7.001   4.895 -0.3897  0.4260 -0.4318
   78MOL0     C10669   9.059   6.850   4.877  0.1187  0.0918 -0.0532
   78MOL0     C10670   9.208   6.843   4.870 -0.1509 -0.5285  0.3661
   78MOL0    Cl10671   9.258   6.951   4.732 -0.3794  0.2025  0.3466
   78MOL0     C10672   8.235   7.143   4.492 -0.9726  0.1475 -0.5553
   78MOL0     C10673   8.097   7.159   4.502 -0.0564  0.0289 -0.2050
   78MOL0     O10674   7.858   7.307   4.621 -0.1665  0.4532 -0.0063
   78MOL0     C10675   7.618   7.064   4.705 -0.0012  0.5379  0.6318
   78MOL0     C10676   7.483   7.038   4.715  0.5824 -0.7335 -0.3908
   78MOL0     N10677   6.755   7.343   4.780 -0.1793 -0.1498 -0.8203
   78MOL0     N10678   6.631   7.366   4.744 -0.0375  0.0979  0.3171
   78MOL0     C10679   5.976   7.697   4.346 -0.4213  0.2926 -1.0886
   78MOL0     C10680   5.888   7.688   4.233 -0.1750  0.3005 -0.5543
   78MOL0     C10681   5.493   7.811   4.010 -0.1104  0.5062 -0.5014
   78MOL0     C10682   5.442   7.679   3.986  0.1256 -0.0439 -0.6590
   78MOL0     C10683   5.318   7.659   3.930  0.6435  0.3066  0.6209
   78MOL0     C10684   5.248   7.757   3.861  0.2973 -0.5555  0.3866
   78MOL0     O10685   5.131   7.726   3.802  0.5716 -0.7723  0.0212
   78MOL0     C10686   5.011   7.703   3.877  0.7020 -0.0233  0.6571
   78MOL0     C10687   4.897   7.642   3.806 -0.2388 -0.0721 -0.1126
   78MOL0     C10688   4.779   7.626   3.903  0.0926  0.2763  1.2288
   78MOL0     C10689   4.718   7.753   3.969  0.7570 -1.8638 -0.8173
   78MOL0     C10690   4.711   7.746   4.114  0.1855 -0.3094  0.7671
   78MOL0     C10691   4.700   7.742   4.235  0.1526  0.5333  0.0393
   78MOL0     C10692   5.313   7.883   3.856 -0.8038  0.1382  0.4338
   78MOL0     C10693   5.426   7.911   3.937  0.3482 -0.4192 -0.2131
   78MOL0     C10694   5.466   8.051   3.947 -0.0173 -0.4175 -0.3654
   78MOL0     H10695   5.591   7.681   4.394  0.2691  0.5754  0.4394
   78MOL0     H10696   5.743   7.676   4.585 -1.1114 -0.9549 -0.4630
   78MOL0     H10697   5.894   7.861   4.658  1.0099 -0.1286  0.1840
   78MOL0     H10698   6.040   7.835   4.728 -0.1226 -0.9472  0.9875
   78MOL0     H10699   5.840   7.754   4.859  0.1306 -0.0168  0.4016
   78MOL0     H10700   5.838   7.613   4.756 -0.8295  0.6259 -0.1855
   78MOL0     H10701   6.106   7.684   4.863  0.6962  0.2270  3.8018
   78MOL0     H10702   5.994   7.593   4.965  1.4106 -3.3424 -0.0047
   78MOL0     H10703   5.961   7.424   4.812  0.1444 -0.1333 -0.5101
   78MOL0     H10704   6.048   7.502   4.677 -1.2898 -0.8243  0.6423
   78MOL0     H10705   6.176   7.422   4.954 -1.0468 -0.1902  0.4430
   78MOL0     H10706   6.261   7.470   4.794 -0.3304 -1.0168 -1.3602
   78MOL0     H10707   6.134   7.226   4.887  1.2365  1.5321  1.2122
   78MOL0     H10708   6.169   7.240   4.712  2.3994  0.2821 -0.2896
   78MOL0     H10709   6.356   7.126   4.877  1.1008 -0.3986  0.1865
   78MOL0     H10710   6.396   7.291   4.904  0.3736 -1.5895  1.0102
   78MOL0     H10711   6.419   7.141   4.639  2.9183  2.2359 -2.9544
   78MOL0     H10712   6.409   7.311   4.632  1.4275 -0.1333 -1.0584
   78MOL0     H10713   6.615   7.055   4.860  3.3674 -0.5225  1.6845
   78MOL0     H10714   6.848   7.037   4.926  1.2879 -0.2101 -1.0128
   78MOL0     H10715   6.879   7.190   5.005 -0.2019 -1.0647  0.7921
   78MOL0     H10716   7.043   7.260   4.860  4.5415 -0.7304 -1.7459
   78MOL0     H10717   7.077   7.096   4.898 -1.2151  1.7931  3.4713
   78MOL0     H10718   7.012   7.020   4.687  0.0661 -0.6563  2.3900
   78MOL0     H10719   6.943   7.188   4.640  1.6396  2.5063 -0.1046
   78MOL0     H10720   7.136   7.172   4.530  0.9729  0.3588 -1.0693
   78MOL0     H10721   7.176   7.278   4.662 -0.6179 -0.0129 -2.1674
   78MOL0     H10722   7.370   7.312   4.560  0.9162 -2.0829 -4.5778
   78MOL0     H10723   7.712   7.366   4.436 -0.5441 -1.5415 -1.2196
   78MOL0     H10724   7.632   7.468   4.560 -1.2554  0.8872 -0.3720
   78MOL0     H10725   7.544   7.413   4.423  1.0679  0.6263 -0.9615
   78MOL0     H10726   8.019   6.891   4.691 -1.7880  0.5274 -1.4232
   78MOL0     H10727   8.269   6.858   4.686  0.6027  1.1343  0.5437
   78MOL0     H10728   8.513   7.149   4.421 -1.1031 -0.6081  0.0862
   78MOL0     H10729   8.500   7.212   4.587  2.3023 -0.9845  1.6113
   78MOL0     H10730   8.718   7.021   4.503  0.8512  0.4085  1.1967
   78MOL0     H10731   8.733   7.190   4.534  0.2262  0.1505  1.0916
   78MOL0     H10732   8.643   6.995   4.750  0.1122  1.1190  1.9737
   78MOL0     H10733   8.666   7.163   4.780 -2.5413 -0.0652  0.0580
   78MOL0     H10734   8.893   7.128   4.696  0.2152 -0.4756  0.9048
   78MOL0     H10735   8.870   6.944   4.700  0.7000 -0.6992  1.2681
   78MOL0     H10736   8.832   7.124   4.934  1.2085  0.4335  0.2576
   78MOL0     H10737   8.822   6.950   4.929  0.0715  0.7466  2.7070
   78MOL0     H10738   9.033   7.025   5.000 -0.8697  0.5412 -0.3629
   78MOL0     H10739   9.067   7.071   4.831 -1.2670  1.3996 -0.1295
   78MOL0     H10740   9.016   6.811   4.785 -2.3942  2.5073 -0.0385
   78MOL0     H10741   9.031   6.788   4.963  0.9271  1.0670  0.9396
   78MOL0     H10742   9.245   6.741   4.854 -0.1300  0.0840 -5.5568
   78MOL0     H10743   9.252   6.893   4.956  0.5851 -1.3912  0.5122
   78MOL0     H10744   8.279   7.220   4.429 -1.9204  0.8472 -0.3934
   78MOL0     H10745   8.048   7.241   4.450  0.3198  0.5925  0.3268
   78MOL0     H10746   7.677   6.993   4.763 -1.0608 -0.0596  1.0006
   78MOL0     H10747   7.450   6.952   4.772  0.9824 -1.4165 -1.1596
   78MOL0     H10748   6.084   7.709   4.345 -0.2077 -1.2285  0.1577
   78MOL0     H10749   5.937   7.687   4.135  0.2946 -3.5203 -0.4212
   78MOL0     H10750   5.488   7.598   4.042 -1.5760  1.3780  3.0913
   78MOL0     H10751   5.270   7.562   3.933 -0.2474  0.3497 -4.0069
   78MOL0     H10752   5.039   7.644   3.965  0.2783 -2.0719 -0.5313
   78MOL0     H10753   4.985   7.805   3.907  0.9548  0.0492  0.6301
   78MOL0     H10754   4.930   7.554   3.749  1.6819  1.0011 -0.7625
   78MOL0     H10755   4.873   7.722   3.735  1.7471  0.2997 -0.4367
   78MOL0     H10756   4.695   7.578   3.852  0.1072 -0.8501  2.2072
   78MOL0     H10757   4.796   7.547   3.977 -1.5197 -0.6303  0.6725
   78MOL0     H10758   4.616   7.768   3.934  0.4675 -0.8110  0.3837
   78MOL0     H10759   4.780   7.840   3.947 -1.5887 -0.0609 -0.6459
   78MOL0     H10760   4.687   7.733   4.341  0.0943  1.4444  0.1207
   78MOL0     H10761   5.277   7.957   3.786  1.1426 -2.0389 -3.1914
   78MOL0     H10762   5.396   8.110   3.887 -5.4966 -3.4296  2.2699
   78MOL0     H10763   5.462   8.092   4.048 -0.1462 -0.3938 -0.3800
   78MOL0     H10764   5.565   8.064   3.901  1.1521 -3.4914  0.9775
   79MOL0     O10765   1.825   7.665   0.578 -0.3428  0.2164 -1.2311
   79MOL0     C10766   1.740   7.753   0.575  0.1689 -0.1248 -0.0077
   79MOL0     O10767   1.766   7.886   0.591  0.0722  0.7111 -0.0780
   79MOL0     C10768   1.883   7.910   0.656 -0.7389 -0.3092  0.3969
   79MOL0     C10769   1.898   7.874   0.789  0.5425  0.4641 -0.0974
   79MOL0     C10770   2.007   7.921   0.864 -0.7442  0.3869 -0.4320
   79MOL0     C10771   2.112   8.003   0.809  0.3535 -0.4505  0.0221
   79MOL0     O10772   2.214   8.044   0.886 -0.4108 -0.2608  0.2566
   79MOL0     C10773   2.319   8.124   0.823 -0.2546  0.1026  0.2594
   79MOL0     C10774   2.411   8.177   0.922 -0.1695 -0.1012  0.1085
   79MOL0     C10775   2.511   8.270   0.857  0.0709 -0.0484  0.3599
   79MOL0     C10776   2.622   8.191   0.804 -0.3321  0.0783 -0.6655
   79MOL0     C10777   2.732   8.274   0.748 -0.2966 -0.2225  0.2443
   79MOL0     C10778   2.860   8.190   0.720 -0.3675 -0.2875  0.2795
   79MOL0     C10779   2.946   8.253   0.609 -0.5001 -0.2064  0.1994
   79MOL0     C10780   3.068   8.161   0.586  0.2499  0.4786 -0.3337
   79MOL0     N10781   3.171   8.199   0.684  0.3129 -0.7703  0.1189
   79MOL0     C10782   3.262   8.305   0.674  0.0120  0.8218 -0.5764
   79MOL0     C10783   3.321   8.307   0.796 -0.1209  0.2133  0.0417
   79MOL0     C10784   3.441   8.396   0.835 -0.3108 -0.4601 -0.3213
   79MOL0     C10785   3.570   8.366   0.751 -0.0527 -0.3445  0.6146
   79MOL0     C10786   3.681   8.472   0.750 -0.0819 -0.1822  0.4525
   79MOL0     C10787   3.801   8.426   0.660  0.0732  0.2190 -0.1844
   79MOL0     O10788   3.925   8.497   0.682  0.2112  0.3777 -0.3669
   79MOL0     C10789   4.038   8.422   0.659 -0.1017  0.6044 -0.6091
   79MOL0     C10790   4.061   8.363   0.532 -0.8995 -1.2350 -0.0192
   79MOL0     C10791   4.170   8.279   0.507 -0.2499 -0.2016 -0.2719
   79MOL0     C10792   4.182   8.222   0.366 -0.0048  0.6413 -0.4558
   79MOL0     C10793   4.270   8.267   0.610 -0.0032 -1.4823  0.8473
   79MOL0     C10794   4.402   8.185   0.591  0.6755  0.3889 -0.7795
   79MOL0     O10795   4.406   8.093   0.496  0.4877 -1.1966 -0.3362
   79MOL0     C10796   4.521   8.017   0.472  0.1675 -0.4129 -0.1339
   79MOL0     C10797   4.495   7.888   0.414  0.4020 -1.1991  0.3083
   79MOL0     C10798   4.602   7.802   0.394 -0.2522  0.3366 -0.2938
   79MOL0     C10799   4.737   7.827   0.443  0.3761 -0.4671  1.2265
   79MOL0     O10800   4.845   7.737   0.430  0.0903  0.2500 -0.0998
   79MOL0     C10801   4.843   7.648   0.315  0.5282 -0.1768  0.0955
   79MOL0     C10802   4.951   7.540   0.336  0.0878 -0.1149  0.0932
   79MOL0     C10803   5.090   7.579   0.292 -0.0976 -0.2455 -0.0211
   79MOL0     C10804   5.121   7.522   0.163 -0.0345 -0.0909 -0.0758
   79MOL0     C10805   5.254   7.564   0.105  0.3837 -0.2529 -0.4965
   79MOL0     C10806   5.259   7.529  -0.041  0.3942 -0.3325  0.0973
   79MOL0     C10807   5.350   7.635  -0.112 -0.3085  0.0403  0.0433
   79MOL0     C10808   5.489   7.662  -0.045  0.5714 -0.2302  0.4032
   79MOL0    Cl10809   5.557   7.498   0.006 -0.2068 -0.4588 -0.5627
   79MOL0     C10810   4.759   7.961   0.475  0.3676  0.7276  0.6120
   79MOL0     C10811   4.652   8.055   0.488  0.3005 -0.1298  0.4868
   79MOL0     O10812   4.485   8.198   0.678 -0.3366  0.3835 -0.9776
   79MOL0     C10813   4.243   8.323   0.736 -0.1141 -0.3162 -0.0934
   79MOL0     C10814   4.127   8.405   0.758 -0.8372 -0.4071  0.0767
   79MOL0     N10815   3.258   8.214   0.878  0.1874 -1.1481 -0.0886
   79MOL0     N10816   3.177   8.148   0.809  0.5539  0.1308 -0.3132
   79MOL0     C10817   2.102   8.033   0.668 -0.2210 -0.1086  0.5627
   79MOL0     C10818   1.984   7.990   0.598  0.6184 -0.5670  0.3681
   79MOL0     C10819   1.602   7.710   0.529 -0.0417 -0.1459  1.2632
   79MOL0     C10820   1.577   7.572   0.498  0.6389 -1.0941  0.7757
   79MOL0     C10821   1.456   7.524   0.478 -0.1109  0.2252  0.2883
   79MOL0     C10822   1.348   7.611   0.470  0.7051 -0.4494  1.5400
   79MOL0     O10823   1.227   7.556   0.441  0.4209  0.5189 -0.2636
   79MOL0     C10824   1.101   7.630   0.446 -0.4703 -0.7820  0.4205
   79MOL0     C10825   0.979   7.551   0.473  0.0817 -0.0901  0.0415
   79MOL0     C10826   0.965   7.504   0.621 -0.4185 -0.2130  0.6700
   79MOL0     C10827   0.832   7.432   0.652 -0.1940  0.0216 -0.5347
   79MOL0     C10828   0.814   7.406   0.800 -0.1870 -0.4666 -0.2937
   79MOL0     C10829   0.783   7.387   0.918 -0.4618 -0.7479  0.6362
   79MOL0     C10830   1.367   7.747   0.482  0.3169 -0.0377 -0.1626
   79MOL0     C10831   1.492   7.799   0.503  0.6536 -1.1208 -0.3796
   79MOL0     C10832   1.504   7.943   0.523 -0.1710 -0.0355  0.2166
   79MOL0     H10833   1.826   7.814   0.844  0.1643 -0.0525 -1.1459
   79MOL0     H10834   2.012   7.881   0.965 -1.0260 -0.2080 -0.6453
   79MOL0     H10835   2.275   8.211   0.774 -0.6286 -0.3904 -0.2884
   79MOL0     H10836   2.373   8.069   0.746 -1.5565 -1.8231  0.6567
   79MOL0     H10837   2.354   8.233   0.996  1.6198 -0.8567  2.1627
   79MOL0     H10838   2.464   8.102   0.981  4.0655  1.5558 -1.2652
   79MOL0     H10839   2.464   8.326   0.776 -1.1383 -2.0690 -0.3971
   79MOL0     H10840   2.535   8.346   0.932 -2.0167  1.0682 -0.0331
   79MOL0     H10841   2.654   8.123   0.882  0.2181  0.2911 -0.6991
   79MOL0     H10842   2.582   8.131   0.722  2.5982 -0.5507 -1.7817
   79MOL0     H10843   2.752   8.349   0.825  3.2531  0.4775 -1.1597
   79MOL0     H10844   2.699   8.327   0.659  2.1451  0.8662 -0.1055
   79MOL0     H10845   2.921   8.186   0.811  0.8075  0.6535 -0.4362
   79MOL0     H10846   2.836   8.086   0.697 -0.8767 -0.1932  0.3725
   79MOL0     H10847   2.980   8.355   0.627  0.3948 -0.5311  0.3914
   79MOL0     H10848   2.876   8.257   0.525 -1.9077  0.5827  1.3642
   79MOL0     H10849   3.037   8.058   0.606  4.0324 -0.4889  1.3580
   79MOL0     H10850   3.111   8.168   0.485 -1.3462  2.3314 -0.9478
   79MOL0     H10851   3.269   8.371   0.588 -1.2719  0.1150 -1.2540
   79MOL0     H10852   3.475   8.388   0.938  3.2999  0.3916 -1.3003
   79MOL0     H10853   3.422   8.503   0.818  2.8394  0.9095  3.3786
   79MOL0     H10854   3.612   8.273   0.793 -3.2012 -1.9813  0.4082
   79MOL0     H10855   3.532   8.346   0.650 -1.5339 -0.8925  1.2516
   79MOL0     H10856   3.649   8.568   0.708 -3.1404 -1.4917 -0.5336
   79MOL0     H10857   3.721   8.485   0.851  0.4245 -0.8421  0.3368
   79MOL0     H10858   3.824   8.321   0.682  1.4397  0.8544  1.6189
   79MOL0     H10859   3.772   8.429   0.554 -0.5081 -0.6192 -0.0656
   79MOL0     H10860   3.983   8.379   0.459 -1.2262 -0.5891  0.4590
   79MOL0     H10861   4.199   8.114   0.370  3.6986  1.1010  2.3040
   79MOL0     H10862   4.269   8.262   0.313 -1.0306  3.2774 -0.3012
   79MOL0     H10863   4.091   8.233   0.306 -2.4929  0.4689  3.0071
   79MOL0     H10864   4.393   7.862   0.388  0.3507 -1.4268  0.7218
   79MOL0     H10865   4.586   7.708   0.341 -0.7856  0.9819 -1.3149
   79MOL0     H10866   4.745   7.606   0.293  0.5303 -0.3032  0.3234
   79MOL0     H10867   4.873   7.706   0.227 -0.3755  1.6610  0.9537
   79MOL0     H10868   4.944   7.506   0.439 -1.1312 -1.0273 -0.2703
   79MOL0     H10869   4.915   7.452   0.282  0.1391  1.4635 -2.7320
   79MOL0     H10870   5.170   7.555   0.362  0.2419  1.4858  0.2321
   79MOL0     H10871   5.098   7.688   0.284 -1.6847 -0.0925  0.1021
   79MOL0     H10872   5.043   7.545   0.090 -0.6149 -1.2685  0.1500
   79MOL0     H10873   5.128   7.413   0.175 -1.3200 -0.4912 -2.2414
   79MOL0     H10874   5.260   7.672   0.120  1.9431 -0.4521  0.5388
   79MOL0     H10875   5.343   7.518   0.148  0.2564 -0.3936 -0.3823
   79MOL0     H10876   5.161   7.525  -0.089  0.8778  3.1089 -1.4876
   79MOL0     H10877   5.303   7.430  -0.055 -0.0896 -0.6944  1.0872
   79MOL0     H10878   5.290   7.726  -0.123 -3.0447 -1.7754 -1.4646
   79MOL0     H10879   5.363   7.603  -0.216 -0.4499 -0.0626  0.0569
   79MOL0     H10880   5.486   7.719   0.048 -1.4128 -1.8611  1.4357
   79MOL0     H10881   5.554   7.717  -0.113 -1.1199  0.9679 -0.3294
   79MOL0     H10882   4.859   7.993   0.503 -0.3736  1.7284  2.2467
   79MOL0     H10883   4.682   8.158   0.506 -0.4970  0.4687 -1.3284
   79MOL0     H10884   4.308   8.299   0.819 -0.9108  1.6933  1.1933
   79MOL0     H10885   4.097   8.462   0.846 -1.7225 -3.5032  1.9446
   79MOL0     H10886   2.173   8.092   0.611 -1.0630  0.7845  0.4152
   79MOL0     H10887   1.963   8.013   0.494 -0.8752 -0.9379  0.5687
   79MOL0     H10888   1.659   7.501   0.508  0.5550 -1.4435 -0.8548
   79MOL0     H10889   1.431   7.419   0.466 -2.4349  0.3129  3.1024
   79MOL0     H10890   1.108   7.709   0.521 -2.9605  0.4264 -0.5053
   79MOL0     H10891   1.093   7.686   0.352 -0.5972  0.9402  1.4192
   79MOL0     H10892   0.981   7.465   0.405 -1.0335  0.8080 -1.1753
   79MOL0     H10893   0.891   7.611   0.447 -0.6299 -0.0841  2.2769
   79MOL0     H10894   1.058   7.451   0.645 -0.1774 -1.0709 -1.8111
   79MOL0     H10895   0.959   7.593   0.684 -2.1443  2.6927 -3.1736
   79MOL0     H10896   0.831   7.338   0.595  2.4066 -0.4030  0.0251
   79MOL0     H10897   0.741   7.481   0.614  0.5647  1.8086 -0.1344
   79MOL0     H10898   0.759   7.358   1.018  0.4168  0.7940  1.3453
   79MOL0     H10899   1.288   7.820   0.475  2.4285  2.3816 -0.2400
   79MOL0     H10900   1.408   7.990   0.499 -0.1480 -0.3143 -0.4532
   79MOL0     H10901   1.535   7.964   0.625  1.8943 -0.6340 -0.2447
   79MOL0     H10902   1.578   7.994   0.460  0.8106  1.7758  2.6899
   80MOL0     O10903   7.869   2.779   7.233 -0.5643 -0.0369  0.0467
   80MOL0     C10904   7.789   2.813   7.148 -0.2302  0.4340  0.9022
   80MOL0     O10905   7.822   2.846   7.019  0.0689  0.1375 -0.7056
   80MOL0     C10906   7.949   2.860   6.976 -0.4271 -0.6904  0.4673
   80MOL0     C10907   7.966   2.947   6.870 -0.4273  0.1991 -0.1227
   80MOL0     C10908   8.093   2.972   6.806 -0.8004 -0.1422  0.5747
   80MOL0     C10909   8.207   2.905   6.849 -0.1607 -0.4584  0.1659
   80MOL0     O10910   8.341   2.927   6.803 -0.0824 -0.0785 -0.4355
   80MOL0     C10911   8.360   3.018   6.692  0.0717  0.1136 -0.3587
   80MOL0     C10912   8.373   3.165   6.723 -0.9764  0.4504 -0.9814
   80MOL0     C10913   8.492   3.183   6.820  0.3314 -0.0523  0.7559
   80MOL0     C10914   8.508   3.318   6.880  0.5764 -0.4189 -0.0488
   80MOL0     C10915   8.623   3.317   6.979  0.1984  1.1843 -0.3424
   80MOL0     C10916   8.756   3.350   6.909  0.4876  0.0481 -0.1960
   80MOL0     C10917   8.872   3.338   7.016 -0.2182  0.6766 -1.4076
   80MOL0     C10918   8.888   3.451   7.112  0.1834  0.3489  0.0967
   80MOL0     N10919   9.008   3.431   7.196  0.8483  1.0159 -0.0542
   80MOL0     C10920   9.022   3.466   7.327  0.2427  0.1011 -0.0461
   80MOL0     C10921   9.149   3.412   7.355  0.4979 -0.3482  0.6062
   80MOL0     C10922   9.208   3.394   7.484 -0.4832  0.3261 -0.2601
   80MOL0     C10923   9.210   3.530   7.557  0.8555  0.6836  0.1049
   80MOL0     C10924   9.210   3.511   7.712  0.1040 -0.8460 -0.7475
   80MOL0     C10925   9.339   3.461   7.773 -0.1768  0.2361 -0.4747
   80MOL0     O10926   9.303   3.399   7.890  0.6786  0.2076 -0.1809
   80MOL0     C10927   9.301   3.262   7.904  0.3424 -0.2705 -0.1385
   80MOL0     C10928   9.286   3.181   7.802 -0.2598 -0.1221  0.4010
   80MOL0     C10929   9.297   3.043   7.818 -0.1257 -0.6998  0.1752
   80MOL0     C10930   9.295   2.948   7.702  0.3003 -0.6564 -0.8973
   80MOL0     C10931   9.321   2.986   7.944 -0.0192  0.8744  0.2771
   80MOL0     C10932   9.329   2.842   7.970 -0.3138 -0.2534 -0.5564
   80MOL0     O10933   9.450   2.817   8.020 -0.2200  0.2495  0.2879
   80MOL0     C10934   9.469   2.708   8.100 -0.8558 -0.3089  0.7025
   80MOL0     C10935   9.513   2.590   8.038  0.7644  0.4019 -0.8399
   80MOL0     C10936   9.543   2.474   8.115 -0.1051  0.6048 -0.6049
   80MOL0     C10937   9.525   2.479   8.250  0.1791  0.0547 -0.1972
   80MOL0     O10938   9.538   2.368   8.329 -0.6143  0.4143 -0.5516
   80MOL0     C10939   9.655   2.284   8.314 -0.2414  0.1574  1.0619
   80MOL0     C10940   9.641   2.151   8.383 -0.5949  0.2783  0.0804
   80MOL0     C10941   9.544   2.056   8.309 -0.0451 -0.1808  0.3901
   80MOL0     C10942   9.432   2.028   8.397  0.4219  0.6458  0.8591
   80MOL0     C10943   9.296   1.977   8.335  0.1452 -0.1841  0.3357
   80MOL0     C10944   9.187   1.937   8.431 -0.6104 -0.1807 -0.1547
   80MOL0     C10945   9.071   1.865   8.368 -0.1719  0.6357 -0.5756
   80MOL0     C10946   8.986   1.801   8.483 -0.2900 -0.4481  0.4269
   80MOL0    Cl10947   8.831   1.742   8.405  0.0298 -0.1973  0.1577
   80MOL0     C10948   9.486   2.597   8.315  0.7142  0.1173 -0.0239
   80MOL0     C10949   9.453   2.711   8.238  0.5140  0.4432  0.2530
   80MOL0     O10950   9.241   2.760   7.944 -0.5408 -0.0858 -0.7313
   80MOL0     C10951   9.332   3.077   8.051 -0.1924  0.0566 -0.1835
   80MOL0     C10952   9.324   3.212   8.032  0.5705 -0.1768  0.2575
   80MOL0     N10953   9.207   3.362   7.240  0.8203  0.2430 -0.4497
   80MOL0     N10954   9.123   3.387   7.151  0.0843  0.7194  0.8708
   80MOL0     C10955   8.190   2.813   6.957 -0.3986 -0.6051  0.7516
   80MOL0     C10956   8.066   2.797   7.023 -0.6018  0.0173  0.3224
   80MOL0     C10957   7.653   2.801   7.182 -0.5088 -0.7026 -0.4892
   80MOL0     C10958   7.619   2.682   7.256  0.3134 -0.0028 -0.6739
   80MOL0     C10959   7.489   2.660   7.294  0.9314  0.7853  0.2511
   80MOL0     C10960   7.382   2.744   7.269  0.9629 -1.0958  0.6356
   80MOL0     O10961   7.248   2.724   7.303 -0.0740 -0.5910 -0.6729
   80MOL0     C10962   7.213   2.618   7.395  0.3150 -0.5567  0.0833
   80MOL0     C10963   7.064   2.659   7.421  1.2657  1.1895 -0.1791
   80MOL0     C10964   6.992   2.539   7.498  0.0693  0.5741 -0.2930
   80MOL0     C10965   6.848   2.571   7.521 -0.4848  0.3761  0.0565
   80MOL0     C10966   6.773   2.472   7.606  0.7731 -0.3710  0.2154
   80MOL0     C10967   6.704   2.381   7.649 -0.0003 -0.1956 -0.6104
   80MOL0     C10968   7.417   2.854   7.187 -0.5849 -0.6554 -0.3250
   80MOL0     C10969   7.549   2.889   7.148 -0.0333  0.8181 -0.3206
   80MOL0     C10970   7.576   3.014   7.070  0.5250 -0.1095  0.8585
   80MOL0     H10971   7.884   3.013   6.843 -0.8487 -0.8474 -1.4978
   80MOL0     H10972   8.102   3.051   6.732 -1.6833 -1.8068 -1.4404
   80MOL0     H10973   8.269   3.011   6.631 -2.3533 -0.0422  2.9912
   80MOL0     H10974   8.438   2.981   6.625 -1.8278 -1.1699 -2.0206
   80MOL0     H10975   8.405   3.213   6.630  1.4234  0.7800 -0.0539
   80MOL0     H10976   8.288   3.211   6.774  1.6729  1.8490  2.6140
   80MOL0     H10977   8.487   3.114   6.904 -0.9627  0.8976  1.4962
   80MOL0     H10978   8.588   3.162   6.772  0.2465  1.3206 -0.0605
   80MOL0     H10979   8.523   3.404   6.813 -1.2751  1.0368  1.3066
   80MOL0     H10980   8.419   3.325   6.943 -0.1568 -1.5064 -0.9138
   80MOL0     H10981   8.634   3.216   7.020  0.9950  0.8830 -1.2544
   80MOL0     H10982   8.614   3.396   7.054  1.9710  1.1975 -0.1017
   80MOL0     H10983   8.773   3.278   6.829 -0.3721 -0.6750  0.2634
   80MOL0     H10984   8.745   3.452   6.870 -0.7374  0.5349  1.3269
   80MOL0     H10985   8.964   3.323   6.960  1.2728 -0.0416  1.1139
   80MOL0     H10986   8.859   3.251   7.081  2.5377  2.0905  1.2713
   80MOL0     H10987   8.886   3.551   7.068 -0.8117  0.9720  1.4443
   80MOL0     H10988   8.802   3.447   7.181 -1.6722  0.9769 -2.0495
   80MOL0     H10989   8.950   3.507   7.397  0.4536  0.5646 -0.0921
   80MOL0     H10990   9.310   3.353   7.481 -1.8246 -3.4067  0.2492
   80MOL0     H10991   9.155   3.323   7.548  1.1699 -0.2881  0.4979
   80MOL0     H10992   9.305   3.577   7.531  2.1446 -2.0836 -0.5881
   80MOL0     H10993   9.117   3.576   7.522 -0.8224 -3.1449 -0.9825
   80MOL0     H10994   9.179   3.608   7.752  0.1132 -1.0488 -0.2477
   80MOL0     H10995   9.122   3.447   7.724 -2.1405  1.6620 -2.4629
   80MOL0     H10996   9.403   3.396   7.712  0.9222  0.7329  0.1183
   80MOL0     H10997   9.403   3.548   7.793 -2.8010  2.2380 -0.1072
   80MOL0     H10998   9.272   3.230   7.706  1.6237  0.5697  0.4195
   80MOL0     H10999   9.212   2.877   7.707  0.7699 -1.3949 -2.8334
   80MOL0     H11000   9.391   2.898   7.697  0.5897 -0.4597  1.6501
   80MOL0     H11001   9.296   3.012   7.613  1.2362  1.8552  0.8135
   80MOL0     H11002   9.534   2.588   7.932  1.9020 -0.7868 -0.6338
   80MOL0     H11003   9.594   2.387   8.075 -1.6557  0.5684 -2.6586
   80MOL0     H11004   9.679   2.261   8.210 -0.8729  0.7120  0.7831
   80MOL0     H11005   9.740   2.338   8.357  0.5036 -0.8077  0.8401
   80MOL0     H11006   9.738   2.101   8.384 -2.0592 -2.8924 -0.4932
   80MOL0     H11007   9.621   2.159   8.491  1.1217 -1.3146  0.5613
   80MOL0     H11008   9.601   1.967   8.280 -0.7146 -0.9913  1.5176
   80MOL0     H11009   9.499   2.095   8.218 -2.9894 -0.8084  1.4767
   80MOL0     H11010   9.406   2.122   8.445 -1.1679  0.9286 -0.4497
   80MOL0     H11011   9.462   1.953   8.471  0.7262 -1.9700 -1.7329
   80MOL0     H11012   9.264   2.063   8.276  4.4786  1.8074  0.5418
   80MOL0     H11013   9.323   1.891   8.272  1.2336  1.1563 -1.0813
   80MOL0     H11014   9.149   2.015   8.497  0.3592 -0.4299  0.7109
   80MOL0     H11015   9.250   1.877   8.497  1.9501  1.6754 -0.8021
   80MOL0     H11016   9.107   1.785   8.303 -1.8675  0.8897 -1.9198
   80MOL0     H11017   9.000   1.929   8.314  0.5675  1.9564 -0.0236
   80MOL0     H11018   8.962   1.880   8.556  1.0271 -1.3605  1.9153
   80MOL0     H11019   9.049   1.727   8.533  0.1206 -0.1561  0.3453
   80MOL0     H11020   9.473   2.607   8.422 -1.7154 -0.3568 -0.2038
   80MOL0     H11021   9.433   2.812   8.273 -1.8207  1.5850 -3.8380
   80MOL0     H11022   9.355   3.039   8.150  0.5990 -1.5338 -0.9465
   80MOL0     H11023   9.327   3.270   8.124 -1.0900 -0.2123  0.3721
   80MOL0     H11024   8.283   2.773   6.995  0.8843  4.9526  4.6889
   80MOL0     H11025   8.049   2.735   7.111 -0.6888  2.2036  1.9322
   80MOL0     H11026   7.697   2.611   7.283 -0.0877  0.0344  0.6287
   80MOL0     H11027   7.469   2.580   7.366 -1.0586  2.9186  2.2116
   80MOL0     H11028   7.237   2.519   7.356  2.7737  0.2772 -0.7215
   80MOL0     H11029   7.270   2.625   7.489 -1.2605  1.3839  0.9676
   80MOL0     H11030   7.010   2.660   7.326 -1.1755 -1.3269  1.0193
   80MOL0     H11031   7.056   2.759   7.465  0.9425  0.1504  2.2570
   80MOL0     H11032   7.004   2.438   7.460 -1.1260 -0.7743  2.5838
   80MOL0     H11033   7.036   2.540   7.599  0.7836 -1.1766 -0.5581
   80MOL0     H11034   6.794   2.576   7.425 -1.9654  0.9770  0.8934
   80MOL0     H11035   6.839   2.669   7.568  1.1556  1.1696 -1.1800
   80MOL0     H11036   6.648   2.294   7.677  1.0313 -0.5856  0.2980
   80MOL0     H11037   7.343   2.919   7.141  0.3911 -0.1108 -1.1781
   80MOL0     H11038   7.484   3.070   7.050  1.9850  1.8073 -1.0620
   80MOL0     H11039   7.653   3.078   7.113  1.9152  0.5437 -2.2865
   80MOL0     H11040   7.612   2.985   6.971  0.3099 -1.3816  1.1388
   81MOL0     O11041   7.575   8.908   1.904  0.1684 -0.4405 -0.1693
   81MOL0     C11042   7.561   8.981   1.809  0.5170 -0.3381 -0.5469
   81MOL0     O11043   7.659   9.057   1.749 -0.6243  0.3741 -0.4027
   81MOL0     C11044   7.791   9.047   1.783 -0.9379  0.3562  0.3453
   81MOL0     C11045   7.858   8.948   1.861 -0.0247 -0.0353  0.4306
   81MOL0     C11046   7.999   8.951   1.878 -0.6002 -0.9518  0.1308
   81MOL0     C11047   8.082   9.048   1.809  0.4874  0.3594 -0.4070
   81MOL0     O11048   8.223   9.045   1.829 -0.0867  1.3374  0.2081
   81MOL0     C11049   8.287   8.908   1.811 -0.2266 -0.3505 -0.0950
   81MOL0     C11050   8.267   8.846   1.670 -0.1086  0.2947 -0.2027
   81MOL0     C11051   8.324   8.709   1.672 -0.4231  0.2037  0.0216
   81MOL0     C11052   8.306   8.649   1.535  0.6425  0.0250  0.0357
   81MOL0     C11053   8.318   8.495   1.529  0.2093 -0.2168 -0.1351
   81MOL0     C11054   8.283   8.440   1.399  0.2801  0.0358 -0.5890
   81MOL0     C11055   8.296   8.291   1.389 -0.0884  0.1495 -0.5178
   81MOL0     C11056   8.243   8.209   1.505  0.7928  0.2699 -0.1315
   81MOL0     N11057   8.103   8.205   1.524 -1.2718  0.9395  0.2562
   81MOL0     C11058   8.007   8.233   1.425  0.1039  0.3998 -0.1229
   81MOL0     C11059   7.891   8.204   1.483  0.0865 -0.4633  0.2092
   81MOL0     C11060   7.748   8.220   1.425  0.0711  0.2695 -0.2653
   81MOL0     C11061   7.690   8.078   1.414  0.1810 -0.5946 -0.1163
   81MOL0     C11062   7.756   7.986   1.320 -0.2898 -0.4055 -0.4859
   81MOL0     C11063   7.863   7.891   1.390 -0.0993 -0.4492  0.5148
   81MOL0     O11064   7.953   7.826   1.299 -0.3884  1.2433 -0.1537
   81MOL0     C11065   8.080   7.870   1.293 -0.2439 -0.1091  0.2432
   81MOL0     C11066   8.185   7.833   1.381 -0.5794  0.3889  0.0599
   81MOL0     C11067   8.322   7.871   1.376  0.8207  0.0488 -0.0655
   81MOL0     C11068   8.415   7.831   1.486 -0.0359 -0.5317  0.0681
   81MOL0     C11069   8.357   7.949   1.266  0.0479 -0.1329 -0.0106
   81MOL0     C11070   8.492   8.011   1.253 -0.9240 -0.1191 -0.8854
   81MOL0     O11071   8.604   7.942   1.306 -0.4274  0.0383  0.4789
   81MOL0     C11072   8.734   7.991   1.280  0.4668 -0.4810 -0.5241
   81MOL0     C11073   8.820   7.919   1.204  0.3565 -0.4074  0.2488
   81MOL0     C11074   8.949   7.970   1.178  0.3914 -0.1544  0.4877
   81MOL0     C11075   8.996   8.079   1.246  0.0568 -0.7227 -0.7978
   81MOL0     O11076   9.119   8.139   1.240 -0.0337  0.4078 -0.2721
   81MOL0     C11077   9.223   8.061   1.176  0.0199 -0.1950 -0.4741
   81MOL0     C11078   9.346   8.132   1.117  0.1018 -0.4951 -0.4431
   81MOL0     C11079   9.429   8.030   1.035 -0.9109 -0.3886 -1.4889
   81MOL0     C11080   9.561   8.102   0.980  0.5967 -0.5924  1.1507
   81MOL0     C11081   9.666   8.003   0.919  0.7099 -0.6947 -0.8326
   81MOL0     C11082   9.735   7.902   1.011 -0.6460 -0.9217  0.2244
   81MOL0     C11083   9.884   7.941   1.035  1.1011 -0.9257 -0.0950
   81MOL0     C11084   9.961   7.830   1.101 -0.0405  0.3439 -0.2365
   81MOL0    Cl11085  10.021   7.707   0.979  0.1396 -0.0984  0.0563
   81MOL0     C11086   8.905   8.153   1.322  0.4967  0.0600  0.1629
   81MOL0     C11087   8.774   8.103   1.347 -0.6089  0.5362  0.6719
   81MOL0     O11088   8.508   8.109   1.180  0.3525 -0.0233  0.3543
   81MOL0     C11089   8.269   7.979   1.159  0.2850 -0.1981 -0.4303
   81MOL0     C11090   8.127   7.936   1.175  0.3094  0.1326  0.3974
   81MOL0     N11091   7.912   8.144   1.607 -1.0230 -0.1107 -0.2847
   81MOL0     N11092   8.045   8.147   1.636  0.3508  0.5967  0.1421
   81MOL0     C11093   8.017   9.139   1.733 -0.0193 -0.5808 -0.2907
   81MOL0     C11094   7.876   9.140   1.724 -0.7794 -0.0322 -0.5019
   81MOL0     C11095   7.421   9.021   1.758  0.1446  0.7149 -0.3915
   81MOL0     C11096   7.401   9.149   1.703  0.9169  0.0329  0.0500
   81MOL0     C11097   7.272   9.189   1.652 -0.0227 -0.3517 -0.3269
   81MOL0     C11098   7.162   9.107   1.662  0.4360  0.5774 -0.6736
   81MOL0     O11099   7.040   9.145   1.617  0.1249  0.0337  0.2759
   81MOL0     C11100   6.947   9.049   1.573 -0.3776 -0.2980 -0.9467
   81MOL0     C11101   6.865   9.114   1.466 -0.8524 -0.1831 -0.0659
   81MOL0     C11102   6.945   9.125   1.337  0.3180  0.1442  0.7182
   81MOL0     C11103   6.872   9.218   1.230  0.9345 -0.3172 -0.1570
   81MOL0     C11104   6.861   9.354   1.260  0.3041  0.3634 -0.2388
   81MOL0     C11105   6.844   9.471   1.277 -0.2644  0.0065 -0.4719
   81MOL0     C11106   7.179   8.985   1.731 -0.4840  0.2766  0.7694
   81MOL0     C11107   7.303   8.935   1.769 -0.7876 -0.8857 -0.7109
   81MOL0     C11108   7.322   8.792   1.819  0.6173 -0.9087  0.1966
   81MOL0     H11109   7.799   8.888   1.930 -2.0637 -0.2493 -1.3909
   81MOL0     H11110   8.038   8.874   1.943 -0.8021 -1.7067 -0.6211
   81MOL0     H11111   8.245   8.839   1.885  2.0893 -2.7320 -0.8451
   81MOL0     H11112   8.391   8.916   1.843  0.2687 -2.4925 -0.9982
   81MOL0     H11113   8.160   8.846   1.649  0.1218  0.0004 -1.4222
   81MOL0     H11114   8.325   8.908   1.601 -0.8663  1.0491 -0.1816
   81MOL0     H11115   8.431   8.706   1.697 -0.5060 -4.3709  0.5606
   81MOL0     H11116   8.264   8.655   1.745 -0.1130  1.3672  1.1713
   81MOL0     H11117   8.209   8.682   1.497  0.7554  1.3224  0.8139
   81MOL0     H11118   8.387   8.680   1.468  0.5296 -4.1906 -2.3818
   81MOL0     H11119   8.250   8.457   1.606  0.0227  0.7397  0.1782
   81MOL0     H11120   8.422   8.469   1.552 -0.0174 -0.0012  1.1734
   81MOL0     H11121   8.182   8.465   1.363 -0.8441 -2.5486  0.5660
   81MOL0     H11122   8.351   8.489   1.329  1.5784 -0.1432  0.5100
   81MOL0     H11123   8.402   8.267   1.375 -0.3036  0.1111 -2.3866
   81MOL0     H11124   8.241   8.265   1.298 -2.2956  0.6927  0.5846
   81MOL0     H11125   8.274   8.105   1.491 -3.6111 -1.5283  1.5586
   81MOL0     H11126   8.299   8.237   1.595  0.6744  1.7464 -0.4912
   81MOL0     H11127   8.020   8.276   1.326 -2.1872  1.5070 -0.0080
   81MOL0     H11128   7.760   8.281   1.335  1.2073  2.4991  1.2893
   81MOL0     H11129   7.693   8.284   1.495  0.4298 -1.0254  1.2789
   81MOL0     H11130   7.675   8.026   1.509 -0.8646 -0.6154 -0.2828
   81MOL0     H11131   7.588   8.085   1.375  0.8971  0.6103 -1.9193
   81MOL0     H11132   7.682   7.924   1.268 -0.5349 -0.0948 -0.5108
   81MOL0     H11133   7.818   8.046   1.252 -2.5727  1.1838 -1.3072
   81MOL0     H11134   7.933   7.947   1.451  2.4528  0.6007 -3.0548
   81MOL0     H11135   7.822   7.814   1.456  0.9123 -0.5228  1.0694
   81MOL0     H11136   8.149   7.782   1.471  0.3188  0.6672  0.5883
   81MOL0     H11137   8.461   7.919   1.532  1.7821  0.9106 -4.0964
   81MOL0     H11138   8.490   7.762   1.447  1.3029  0.3036  1.0622
   81MOL0     H11139   8.354   7.776   1.558 -0.3586 -0.0439  0.1745
   81MOL0     H11140   8.778   7.832   1.155  0.0090 -0.8322  1.2605
   81MOL0     H11141   9.016   7.923   1.107  0.1976 -0.3283  0.4184
   81MOL0     H11142   9.254   7.992   1.255 -0.8356  1.1770  1.1241
   81MOL0     H11143   9.188   8.011   1.085 -0.4869  0.1516 -0.4761
   81MOL0     H11144   9.337   8.223   1.057  1.6027  0.5737  0.8459
   81MOL0     H11145   9.396   8.171   1.207 -0.5555  0.4232 -0.4648
   81MOL0     H11146   9.381   7.986   0.947  0.5483 -1.7282 -1.6525
   81MOL0     H11147   9.469   7.948   1.095 -0.3505 -1.1550 -2.8667
   81MOL0     H11148   9.599   8.168   1.059 -0.2115 -1.8143  2.6291
   81MOL0     H11149   9.528   8.170   0.901  1.3982  1.0135  2.1351
   81MOL0     H11150   9.608   7.958   0.838 -1.5578 -1.0890  0.9084
   81MOL0     H11151   9.734   8.073   0.870 -2.5857  1.3163 -2.8199
   81MOL0     H11152   9.743   7.804   0.964  0.7115  0.4831 -2.7444
   81MOL0     H11153   9.698   7.885   1.113  2.0417 -3.6765  0.8926
   81MOL0     H11154   9.893   8.031   1.097 -1.8242 -0.9217  0.4343
   81MOL0     H11155   9.924   7.958   0.934  1.1535  1.4898  0.2742
   81MOL0     H11156   9.898   7.792   1.182  0.5216  1.1216  0.5819
   81MOL0     H11157  10.045   7.876   1.153  1.0364  0.8275 -2.2851
   81MOL0     H11158   8.946   8.247   1.358 -2.5722  0.7284  2.2211
   81MOL0     H11159   8.696   8.161   1.395 -1.6383  0.6655 -1.0579
   81MOL0     H11160   8.292   8.033   1.067 -1.4242  2.3405  0.5235
   81MOL0     H11161   8.062   7.966   1.094  0.8360  0.2719  0.0169
   81MOL0     H11162   8.083   9.209   1.683  2.4753 -2.7938 -0.3253
   81MOL0     H11163   7.820   9.208   1.661 -2.3240  0.9749  1.8559
   81MOL0     H11164   7.475   9.228   1.707 -0.3934  1.3529 -0.6453
   81MOL0     H11165   7.264   9.287   1.607 -0.8902 -0.0044  0.5456
   81MOL0     H11166   7.000   8.965   1.526 -0.3629  1.2165 -3.8477
   81MOL0     H11167   6.882   9.022   1.657 -1.0599 -0.2319 -1.4443
   81MOL0     H11168   6.840   9.216   1.495 -0.4033  0.1293 -0.7608
   81MOL0     H11169   6.774   9.055   1.448 -0.7649 -0.9328  1.7031
   81MOL0     H11170   7.047   9.161   1.354 -0.7008  4.1498 -0.4536
   81MOL0     H11171   6.950   9.030   1.284 -4.9642  0.6133 -1.1928
   81MOL0     H11172   6.770   9.186   1.205 -0.0521  1.7792  0.9985
   81MOL0     H11173   6.935   9.209   1.140  0.1521  0.6254 -0.8212
   81MOL0     H11174   6.848   9.577   1.293 -1.1492 -0.0452  0.1254
   81MOL0     H11175   7.086   8.928   1.737 -0.7176  0.2396 -2.0418
   81MOL0     H11176   7.228   8.735   1.818 -0.3447  0.5722 -2.3776
   81MOL0     H11177   7.403   8.753   1.758  1.9909  0.1091  1.3138
   81MOL0     H11178   7.345   8.802   1.925 -0.7244 -0.5651  0.4804
   82MOL0     O11179   7.181  11.049   4.584 -0.0504  0.0355  1.0371
   82MOL0     C11180   7.095  11.137   4.562  0.0114 -0.0167  0.0242
   82MOL0     O11181   7.098  11.220   4.450 -0.9898 -0.3121  0.6768
   82MOL0     C11182   7.211  11.239   4.369 -0.1204 -0.2535 -0.5007
   82MOL0     C11183   7.340  11.211   4.393  0.1797  0.1101  0.4195
   82MOL0     C11184   7.444  11.255   4.304 -0.4511  0.1448 -0.2486
   82MOL0     C11185   7.419  11.327   4.190 -1.0239 -0.6616  0.5144
   82MOL0     O11186   7.527  11.374   4.107  0.5499  0.0668  0.1977
   82MOL0     C11187   7.504  11.480   4.013  0.1570  0.0822  0.1666
   82MOL0     C11188   7.647  11.534   3.990 -0.6113 -0.9041  0.0586
   82MOL0     C11189   7.713  11.593   4.115  0.3281 -0.2985 -0.4150
   82MOL0     C11190   7.814  11.497   4.182 -0.2876 -0.0781  0.3074
   82MOL0     C11191   7.874  11.555   4.313  0.0146 -0.5744  0.4115
   82MOL0     C11192   7.759  11.564   4.420  0.3208  0.1993  0.8755
   82MOL0     C11193   7.806  11.629   4.551  0.0291  0.3500  0.1552
   82MOL0     C11194   7.685  11.610   4.648 -0.7948  0.9273  0.3425
   82MOL0     N11195   7.734  11.634   4.789  0.0828  0.1099 -0.7700
   82MOL0     C11196   7.819  11.742   4.817  0.1455  0.3869 -0.7047
   82MOL0     C11197   7.863  11.716   4.943  0.0652  0.4015 -0.1077
   82MOL0     C11198   7.963  11.798   5.024  0.0408 -0.0822  0.2484
   82MOL0     C11199   8.095  11.723   5.047 -0.4057 -0.6975 -0.4436
   82MOL0     C11200   8.154  11.680   4.904  0.1600  0.4437 -0.4492
   82MOL0     C11201   8.306  11.652   4.913 -0.5310  0.0210  0.1097
   82MOL0     O11202   8.379  11.766   4.962 -0.1856  0.5284 -0.0768
   82MOL0     C11203   8.517  11.776   4.957 -0.3035 -0.3915 -0.3884
   82MOL0     C11204   8.584  11.897   4.996 -0.7050  0.7875  0.2767
   82MOL0     C11205   8.729  11.912   5.000 -0.2474  0.6409  0.1222
   82MOL0     C11206   8.789  12.046   5.038 -0.2161 -0.1017 -0.4913
   82MOL0     C11207   8.811  11.801   4.971  1.0618  0.4297  0.0345
   82MOL0     C11208   8.955  11.801   4.947 -0.2903 -0.4938  0.5583
   82MOL0     O11209   9.007  11.681   4.916  0.2627  0.8706  0.3803
   82MOL0     C11210   9.139  11.668   4.882  0.0211 -0.3137 -0.6165
   82MOL0     C11211   9.244  11.731   4.954 -0.1449  0.3147  0.7237
   82MOL0     C11212   9.380  11.711   4.921 -0.5031 -0.0095 -0.3806
   82MOL0     C11213   9.419  11.634   4.816  0.6753  0.6379  0.8305
   82MOL0     O11214   9.554  11.622   4.800  0.1121 -0.3708 -0.2029
   82MOL0     C11215   9.607  11.581   4.677  0.3858  0.6939 -0.0497
   82MOL0     C11216   9.765  11.563   4.683  0.0852  0.2705 -0.0317
   82MOL0     C11217   9.810  11.522   4.535  0.6905  0.3496 -0.3536
   82MOL0     C11218   9.933  11.431   4.532 -1.0643 -0.5111 -0.0991
   82MOL0     C11219   9.981  11.407   4.387 -0.4495  0.9727 -0.4190
   82MOL0     C11220  10.092  11.302   4.365 -0.2526  0.2456  0.3008
   82MOL0     C11221  10.125  11.292   4.213 -0.1926 -0.5730 -0.3614
   82MOL0     C11222  10.175  11.160   4.171  1.2723  1.4641  0.5852
   82MOL0    Cl11223  10.049  11.029   4.205  0.3443 -0.2854 -0.2218
   82MOL0     C11224   9.316  11.568   4.747  0.1799 -0.2060  0.6151
   82MOL0     C11225   9.173  11.577   4.788 -0.1437  0.8319  0.8837
   82MOL0     O11226   9.025  11.904   4.965  1.2690 -0.6543 -0.3580
   82MOL0     C11227   8.740  11.683   4.944  0.1281  0.0000 -0.0901
   82MOL0     C11228   8.599  11.663   4.938 -0.2215 -0.3904 -0.5778
   82MOL0     N11229   7.825  11.584   4.976 -0.4158  0.0771  0.7761
   82MOL0     N11230   7.751  11.536   4.883  0.3967 -0.0484  0.1253
   82MOL0     C11231   7.283  11.350   4.160 -0.7142  0.2923 -0.5606
   82MOL0     C11232   7.182  11.305   4.246 -0.3683 -0.3098 -0.2034
   82MOL0     C11233   6.973  11.139   4.650 -0.1218 -0.6782 -0.6990
   82MOL0     C11234   6.861  11.216   4.607  0.0261 -0.7623 -0.5624
   82MOL0     C11235   6.739  11.213   4.670 -0.6622 -0.8097 -0.6187
   82MOL0     C11236   6.719  11.130   4.774 -0.8952  0.5911  0.6512
   82MOL0     O11237   6.595  11.105   4.826  0.2367  0.4646  0.3614
   82MOL0     C11238   6.481  11.176   4.775  0.4556  0.3023  0.2579
   82MOL0     C11239   6.351  11.136   4.839  0.1526  0.6217  0.4633
   82MOL0     C11240   6.228  11.193   4.766 -0.8080  0.1158 -0.3564
   82MOL0     C11241   6.097  11.183   4.845  0.4798 -0.3540  0.6930
   82MOL0     C11242   6.039  11.051   4.842 -0.4717 -0.2043  0.5931
   82MOL0     C11243   5.989  10.939   4.839  0.3757 -0.2733  0.3496
   82MOL0     C11244   6.825  11.049   4.817 -0.2480 -0.5150  0.0998
   82MOL0     C11245   6.952  11.051   4.762  0.2099 -0.6662 -0.3550
   82MOL0     C11246   7.057  10.950   4.812 -0.2761 -0.0797  0.1673
   82MOL0     H11247   7.367  11.145   4.475 -3.4419 -1.2370  0.7282
   82MOL0     H11248   7.550  11.238   4.320 -0.2784  1.4814  0.1522
   82MOL0     H11249   7.446  11.561   4.057 -0.8379 -0.6146  0.1768
   82MOL0     H11250   7.445  11.449   3.926 -0.7538  1.2577  0.3445
   82MOL0     H11251   7.717  11.460   3.950  3.3309  2.4898  0.0666
   82MOL0     H11252   7.630  11.614   3.917  1.7312  2.5395  2.9333
   82MOL0     H11253   7.773  11.678   4.083  1.2566 -0.5553  0.5727
   82MOL0     H11254   7.634  11.631   4.180  0.6481  3.8067 -2.1385
   82MOL0     H11255   7.760  11.404   4.199  1.0332 -1.5007 -2.6129
   82MOL0     H11256   7.891  11.476   4.108  0.4674  0.8024  0.8145
   82MOL0     H11257   7.921  11.653   4.300 -2.4994  0.6820  0.2059
   82MOL0     H11258   7.952  11.484   4.343  0.2645  0.2219  1.7091
   82MOL0     H11259   7.676  11.618   4.374 -0.7274 -1.2103  1.0309
   82MOL0     H11260   7.725  11.462   4.441  1.6604  0.3639  4.5467
   82MOL0     H11261   7.826  11.734   4.526  2.5772  0.1722  1.1880
   82MOL0     H11262   7.893  11.571   4.582  0.5990  0.5007 -1.0951
   82MOL0     H11263   7.604  11.674   4.613 -0.9737  1.2367  1.3148
   82MOL0     H11264   7.652  11.506   4.648 -1.9332  1.2813  0.1678
   82MOL0     H11265   7.839  11.829   4.756 -0.3075  0.2169 -1.1025
   82MOL0     H11266   7.935  11.821   5.127  2.7888  2.2261  0.6139
   82MOL0     H11267   7.996  11.890   4.975  3.8805  0.0450  2.6769
   82MOL0     H11268   8.171  11.771   5.108 -0.6236 -1.6528  0.6294
   82MOL0     H11269   8.069  11.637   5.110 -2.1936  0.9791  1.2526
   82MOL0     H11270   8.119  11.588   4.857  2.8286  0.4477 -2.6746
   82MOL0     H11271   8.137  11.768   4.842 -3.1128  0.8233  0.7645
   82MOL0     H11272   8.328  11.564   4.973 -0.0074 -1.4807 -2.1485
   82MOL0     H11273   8.354  11.632   4.817  0.3882 -1.4257  0.8469
   82MOL0     H11274   8.526  11.987   5.015 -1.7448  0.7299 -2.1658
   82MOL0     H11275   8.821  12.102   4.950 -1.0629  3.7586  1.4038
   82MOL0     H11276   8.873  12.046   5.109 -2.2521  0.1525  2.0599
   82MOL0     H11277   8.717  12.117   5.080  1.9087  0.8732  1.8570
   82MOL0     H11278   9.224  11.798   5.037  0.5642  1.8550 -0.3033
   82MOL0     H11279   9.459  11.759   4.978 -1.6071  1.1480  0.2098
   82MOL0     H11280   9.566  11.482   4.655 -2.2486  1.5799  0.5580
   82MOL0     H11281   9.571  11.650   4.600 -2.8007 -1.2270 -0.4497
   82MOL0     H11282   9.816  11.650   4.725 -0.1790 -0.0951  1.0939
   82MOL0     H11283   9.793  11.479   4.747 -0.4622  0.7430  0.8671
   82MOL0     H11284   9.846  11.612   4.483  1.4995 -0.5725 -1.4219
   82MOL0     H11285   9.725  11.483   4.480  0.9655 -0.8298  0.0381
   82MOL0     H11286   9.912  11.332   4.573 -0.0329 -2.1054 -3.1470
   82MOL0     H11287  10.010  11.483   4.591  0.3168 -3.7345  1.1429
   82MOL0     H11288   9.902  11.352   4.335 -1.4120 -1.6061  3.3690
   82MOL0     H11289  10.008  11.507   4.353  2.2487  0.6288  0.4364
   82MOL0     H11290  10.065  11.209   4.416 -0.4097  1.1621  1.9409
   82MOL0     H11291  10.185  11.339   4.410  0.4107  0.8509 -1.4420
   82MOL0     H11292  10.212  11.355   4.195 -1.7074  2.1658  1.1171
   82MOL0     H11293  10.048  11.319   4.139  1.5339 -0.4249 -2.1882
   82MOL0     H11294  10.262  11.133   4.231  0.8988  1.4833  1.1495
   82MOL0     H11295  10.199  11.161   4.065  0.2857 -3.3119  0.0671
   82MOL0     H11296   9.352  11.487   4.685  2.4654 -0.2421  1.8583
   82MOL0     H11297   9.090  11.533   4.734 -0.4874  2.6523 -0.1551
   82MOL0     H11298   8.788  11.589   4.917 -0.8118  0.1585 -2.5553
   82MOL0     H11299   8.560  11.565   4.909 -1.3349 -0.7125  1.8286
   82MOL0     H11300   7.239  11.406   4.078 -1.8327  1.0332  0.5035
   82MOL0     H11301   7.079  11.338   4.232  0.6434  2.1023 -2.8260
   82MOL0     H11302   6.862  11.281   4.520  1.5526  0.8982  0.6332
   82MOL0     H11303   6.657  11.264   4.620  0.3300 -1.2445 -2.7991
   82MOL0     H11304   6.492  11.283   4.794  0.5898  0.1990  0.7682
   82MOL0     H11305   6.464  11.160   4.668  0.3018 -0.5008  0.3929
   82MOL0     H11306   6.345  11.166   4.944  0.4845 -0.7994  0.9190
   82MOL0     H11307   6.352  11.028   4.853  0.0281  0.7667  1.6990
   82MOL0     H11308   6.239  11.300   4.746  1.2908 -0.1440 -0.8883
   82MOL0     H11309   6.211  11.142   4.671  0.0513 -2.5925  0.8478
   82MOL0     H11310   6.018  11.238   4.793  0.4272  0.0648  1.2114
   82MOL0     H11311   6.104  11.206   4.951  2.4283 -1.0691  0.7471
   82MOL0     H11312   5.943  10.842   4.844  1.8572 -0.9461  2.4529
   82MOL0     H11313   6.805  10.988   4.904 -1.0663 -1.7051 -0.8877
   82MOL0     H11314   7.157  10.995   4.810  0.1511 -1.0147  0.0459
   82MOL0     H11315   7.041  10.911   4.913 -1.6346  0.2806  0.1143
   82MOL0     H11316   7.053  10.870   4.738 -0.9146 -0.3412  0.4790
   83MOL0     O11317   9.324   5.504   7.171  0.5155 -0.4337  0.1869
   83MOL0     C11318   9.216   5.450   7.205  0.1296  0.1854 -0.7555
   83MOL0     O11319   9.190   5.396   7.336  0.8123 -0.6082  0.2132
   83MOL0     C11320   9.264   5.430   7.446 -0.8517 -0.6045 -0.0041
   83MOL0     C11321   9.230   5.365   7.561  0.1063  0.1419  0.1548
   83MOL0     C11322   9.293   5.390   7.679 -0.5094 -0.0889  0.6938
   83MOL0     C11323   9.382   5.498   7.696 -0.9102  0.0132 -0.0978
   83MOL0     O11324   9.439   5.523   7.820 -0.9340 -0.6097 -0.2218
   83MOL0     C11325   9.565   5.600   7.838  0.1163  0.1431 -0.1846
   83MOL0     C11326   9.623   5.574   7.982  0.3743  0.0145 -0.0958
   83MOL0     C11327   9.767   5.599   7.991 -0.8120 -0.0044  0.3036
   83MOL0     C11328   9.808   5.572   8.138  0.8321 -0.2841  0.5151
   83MOL0     C11329   9.952   5.615   8.157  0.0043 -0.4409 -0.6678
   83MOL0     C11330   9.986   5.594   8.305  0.2667  0.1068  0.1625
   83MOL0     C11331  10.136   5.609   8.336  0.7974 -0.4207 -0.0667
   83MOL0     C11332  10.220   5.516   8.252 -0.4826  0.8359  0.6815
   83MOL0     N11333  10.360   5.562   8.262  0.3674  0.7908  0.8578
   83MOL0     C11334  10.412   5.678   8.210  0.5247 -0.5585 -0.3219
   83MOL0     C11335  10.539   5.699   8.256  0.0054  0.2460 -0.2681
   83MOL0     C11336  10.642   5.802   8.220 -0.1741  0.5801 -0.6220
   83MOL0     C11337  10.745   5.827   8.330  0.0627 -0.5958  0.3909
   83MOL0     C11338  10.695   5.893   8.461  0.5722 -0.0468 -0.3475
   83MOL0     C11339  10.804   5.934   8.557 -0.1143  0.1278  0.1211
   83MOL0     O11340  10.852   6.048   8.490 -0.4858  0.0192  0.3809
   83MOL0     C11341  10.983   6.079   8.517 -0.7557  0.7498  0.2918
   83MOL0     C11342  11.006   6.199   8.581 -1.3623  0.0450 -0.2110
   83MOL0     C11343  11.129   6.234   8.630 -0.0405  0.2648 -0.2239
   83MOL0     C11344  11.136   6.372   8.684 -0.1945  0.4845  0.0071
   83MOL0     C11345  11.232   6.131   8.611  0.3270  0.7634 -0.2819
   83MOL0     C11346  11.378   6.153   8.637  0.6734  0.2206  0.1291
   83MOL0     O11347  11.464   6.066   8.586  0.0624 -0.8112 -0.2316
   83MOL0     C11348  11.598   6.081   8.615  0.3983 -0.2254 -0.1114
   83MOL0     C11349  11.690   6.152   8.535  0.2495  1.5930  0.2553
   83MOL0     C11350  11.820   6.174   8.579  0.8205 -0.5474  0.9525
   83MOL0     C11351  11.870   6.121   8.696  0.6839 -0.1942 -0.4018
   83MOL0     O11352  11.996   6.151   8.729  0.1978 -0.3147  0.2066
   83MOL0     C11353  12.047   6.102   8.854 -0.0318 -1.2295 -0.9439
   83MOL0     C11354  12.199   6.126   8.868 -0.5412  0.4296  0.5537
   83MOL0     C11355  12.260   6.062   8.747  0.7076 -0.3351  1.8124
   83MOL0     C11356  12.408   6.079   8.731  0.2932  0.2626 -0.2380
   83MOL0     C11357  12.457   6.056   8.581  0.4573  0.1163  0.4780
   83MOL0     C11358  12.610   6.036   8.570  1.1827  0.1855 -0.1294
   83MOL0     C11359  12.653   5.972   8.440 -0.0187 -0.6749 -0.5088
   83MOL0     C11360  12.808   5.973   8.420  0.7385  0.0705 -0.7878
   83MOL0    Cl11361  12.868   6.136   8.411  0.3849 -0.2289 -0.0948
   83MOL0     C11362  11.774   6.053   8.775  0.2716 -0.8559  0.1779
   83MOL0     C11363  11.642   6.030   8.734 -0.1824  0.8901 -0.1520
   83MOL0     O11364  11.403   6.245   8.705  0.9133 -0.2020  0.3627
   83MOL0     C11365  11.204   6.008   8.551 -0.3098 -0.5900  0.8780
   83MOL0     C11366  11.081   5.991   8.489  1.2464  0.3163 -0.5735
   83MOL0     N11367  10.562   5.588   8.343 -0.1082  0.2594  0.2239
   83MOL0     N11368  10.453   5.513   8.347  0.0286  0.8772 -0.1752
   83MOL0     C11369   9.416   5.571   7.577 -0.2703  0.6901 -0.7479
   83MOL0     C11370   9.353   5.537   7.453 -0.2706 -0.1952 -0.3446
   83MOL0     C11371   9.117   5.427   7.095  0.1895  0.5332  0.3204
   83MOL0     C11372   9.146   5.482   6.973 -0.2655  0.4107  0.1409
   83MOL0     C11373   9.075   5.449   6.858  0.4127 -0.0627  0.3740
   83MOL0     C11374   8.953   5.377   6.865 -0.2356 -0.1176 -1.9788
   83MOL0     O11375   8.887   5.339   6.747  0.6554 -0.5917  0.1108
   83MOL0     C11376   8.775   5.258   6.733  0.4840 -0.5949 -0.1560
   83MOL0     C11377   8.649   5.353   6.748 -0.3930 -0.0685 -0.0538
   83MOL0     C11378   8.513   5.280   6.756 -0.3145  0.4268  0.4378
   83MOL0     C11379   8.491   5.235   6.899  0.1633 -0.2297 -0.6881
   83MOL0     C11380   8.530   5.101   6.945 -0.5170 -1.1433  0.4084
   83MOL0     C11381   8.596   5.001   6.971  0.8761  0.1848 -0.4651
   83MOL0     C11382   8.912   5.337   6.993  0.0983 -0.5289 -0.4667
   83MOL0     C11383   8.987   5.367   7.110  0.3320  0.3166  0.0207
   83MOL0     C11384   8.912   5.326   7.238  0.0464 -0.0890 -0.2129
   83MOL0     H11385   9.163   5.280   7.551  0.9337 -0.3352 -1.7652
   83MOL0     H11386   9.269   5.321   7.760 -1.0361  0.5360  1.0816
   83MOL0     H11387   9.543   5.707   7.838 -1.5797 -0.1540  1.6669
   83MOL0     H11388   9.642   5.572   7.765  1.7662  1.4109  0.9865
   83MOL0     H11389   9.580   5.643   8.055  0.4548  0.8354 -0.8069
   83MOL0     H11390   9.605   5.470   8.011  2.5610 -0.0528  1.2712
   83MOL0     H11391   9.816   5.529   7.923  0.7117  3.2824 -2.2805
   83MOL0     H11392   9.795   5.699   7.955 -0.9502 -0.1619 -0.2449
   83MOL0     H11393   9.747   5.627   8.210 -0.6787  2.3125 -2.4931
   83MOL0     H11394   9.800   5.464   8.157  4.7100 -0.5569  1.5564
   83MOL0     H11395   9.953   5.722   8.136  1.8971  0.0914  1.8219
   83MOL0     H11396  10.008   5.559   8.081  0.6395 -0.3230 -0.2858
   83MOL0     H11397   9.923   5.671   8.351 -0.0792  1.4788 -2.4035
   83MOL0     H11398   9.959   5.495   8.344  0.3368  0.7134  1.8268
   83MOL0     H11399  10.152   5.586   8.441  1.6782  0.5889  0.0388
   83MOL0     H11400  10.165   5.707   8.296 -0.4455 -1.3802 -3.7315
   83MOL0     H11401  10.226   5.414   8.292 -1.8053  1.0385  1.4581
   83MOL0     H11402  10.191   5.514   8.147  3.9618 -3.3192 -0.8112
   83MOL0     H11403  10.372   5.737   8.129 -0.3380 -2.6494 -1.4946
   83MOL0     H11404  10.589   5.895   8.198 -3.5347 -0.3352  2.5758
   83MOL0     H11405  10.686   5.767   8.126 -0.3826 -0.2775 -0.4101
   83MOL0     H11406  10.803   5.734   8.335 -0.6605 -1.1274 -0.8299
   83MOL0     H11407  10.822   5.890   8.285 -0.3215 -1.3076 -1.3460
   83MOL0     H11408  10.635   5.979   8.431  0.9481 -0.6737 -3.1706
   83MOL0     H11409  10.616   5.839   8.514 -1.2474  2.3310 -0.4515
   83MOL0     H11410  10.763   5.953   8.656  1.8136 -0.1780  1.0180
   83MOL0     H11411  10.876   5.854   8.576  1.7099  1.9618  1.3182
   83MOL0     H11412  10.924   6.270   8.578 -0.6985  0.8534 -3.4652
   83MOL0     H11413  11.181   6.374   8.783  0.5454  3.7643 -0.2860
   83MOL0     H11414  11.035   6.415   8.688 -1.0785 -1.5523  1.4849
   83MOL0     H11415  11.209   6.431   8.628  2.8422 -0.5339  2.6146
   83MOL0     H11416  11.644   6.180   8.441 -2.7073 -0.8645  0.7974
   83MOL0     H11417  11.879   6.247   8.524 -0.2508  0.1092  0.6452
   83MOL0     H11418  11.984   6.153   8.928  0.2637 -1.2016 -0.7084
   83MOL0     H11419  12.023   5.995   8.852 -2.1001 -0.7918 -1.8782
   83MOL0     H11420  12.233   6.229   8.884 -2.3941  1.0144  0.9445
   83MOL0     H11421  12.238   6.068   8.952  2.1242  3.0394  1.3229
   83MOL0     H11422  12.210   6.093   8.655  1.9253 -0.1499  1.1796
   83MOL0     H11423  12.234   5.957   8.761 -1.1620 -0.3327 -0.9249
   83MOL0     H11424  12.462   6.019   8.805  3.5062  2.2505 -0.7912
   83MOL0     H11425  12.432   6.180   8.766 -1.2520  0.2133  1.0993
   83MOL0     H11426  12.402   5.970   8.541  0.1756 -1.3859  3.7233
   83MOL0     H11427  12.433   6.141   8.517  0.5433 -0.3833 -0.2255
   83MOL0     H11428  12.638   5.963   8.647  1.2880  0.1717 -0.1805
   83MOL0     H11429  12.657   6.132   8.594  1.7691 -0.6483  2.4277
   83MOL0     H11430  12.608   6.027   8.358  0.1713 -0.2668 -0.3391
   83MOL0     H11431  12.616   5.868   8.436 -1.8919 -0.0361 -0.9830
   83MOL0     H11432  12.834   5.923   8.327  0.0544 -0.7267 -0.5653
   83MOL0     H11433  12.861   5.929   8.505 -1.0005 -1.6453 -0.5168
   83MOL0     H11434  11.803   6.035   8.878 -1.7619  1.7977  1.3024
   83MOL0     H11435  11.571   5.972   8.793  0.7196 -0.0080  0.0755
   83MOL0     H11436  11.282   5.934   8.534 -0.8804 -0.9797 -0.1180
   83MOL0     H11437  11.061   5.901   8.432 -1.0450  2.0713 -2.7707
   83MOL0     H11438   9.482   5.657   7.579  0.7687  0.3961 -6.3713
   83MOL0     H11439   9.390   5.603   7.376  1.7044  1.4056  1.8138
   83MOL0     H11440   9.236   5.539   6.957  2.6505 -3.1868  2.1912
   83MOL0     H11441   9.104   5.495   6.764 -1.0960 -0.7563 -0.4698
   83MOL0     H11442   8.778   5.216   6.632 -0.8863  0.6410 -0.7492
   83MOL0     H11443   8.770   5.175   6.803  1.0150 -1.8374 -1.5506
   83MOL0     H11444   8.634   5.420   6.663  1.1211  1.9665  1.1895
   83MOL0     H11445   8.661   5.419   6.834  0.0832 -1.0562  0.6572
   83MOL0     H11446   8.430   5.344   6.723 -1.7182 -0.9855  1.0656
   83MOL0     H11447   8.512   5.195   6.687  0.2988 -0.8746  1.9788
   83MOL0     H11448   8.382   5.229   6.899  0.1384 -0.3797  1.2391
   83MOL0     H11449   8.535   5.304   6.971  0.0526  3.6150 -3.9480
   83MOL0     H11450   8.636   4.907   7.003  1.6810  1.4119  2.4670
   83MOL0     H11451   8.813   5.299   7.016 -0.2889  2.0746  3.0517
   83MOL0     H11452   8.964   5.238   7.276  0.9411  0.0120 -1.1751
   83MOL0     H11453   8.897   5.415   7.300 -2.4925  1.0695 -2.2526
   83MOL0     H11454   8.810   5.287   7.226 -0.3092  1.2962 -2.1854
   84MOL0     O11455   9.543   3.490   4.944 -0.0667  0.1556 -0.9632
   84MOL0     C11456   9.433   3.429   4.937 -0.1387  0.3064  0.0557
   84MOL0     O11457   9.414   3.307   4.996  0.0988 -0.0282 -0.3539
   84MOL0     C11458   9.509   3.261   5.075 -0.2465  1.0488 -0.6176
   84MOL0     C11459   9.530   3.313   5.202  0.2627 -0.8963  1.1712
   84MOL0     C11460   9.642   3.269   5.276  0.2247 -0.2440  0.3251
   84MOL0     C11461   9.727   3.169   5.232 -0.5703 -0.4655 -0.4458
   84MOL0     O11462   9.834   3.131   5.310  0.1233  0.3547 -0.2243
   84MOL0     C11463   9.963   3.112   5.252  0.1105  0.0443 -0.2970
   84MOL0     C11464  10.072   3.086   5.363  0.2797 -0.1493 -0.0362
   84MOL0     C11465  10.218   3.121   5.334  0.0308 -0.7260  0.2478
   84MOL0     C11466  10.266   3.041   5.207  0.2095  0.6149 -0.6095
   84MOL0     C11467  10.386   3.106   5.131  0.6004 -0.1244 -0.3051
   84MOL0     C11468  10.510   3.120   5.217  0.2291  0.3235 -0.4821
   84MOL0     C11469  10.615   3.195   5.121 -0.2834  0.5189  0.5503
   84MOL0     C11470  10.719   3.106   5.049  0.2493 -0.1585 -0.2045
   84MOL0     N11471  10.784   3.189   4.950  0.6960 -0.1712  0.0411
   84MOL0     C11472  10.884   3.271   4.972 -0.0396 -0.8100  0.1311
   84MOL0     C11473  10.895   3.342   4.856 -0.0409  0.2995 -0.0191
   84MOL0     C11474  11.003   3.442   4.837 -0.2912  0.0730  0.1863
   84MOL0     C11475  11.149   3.373   4.836  0.5665 -0.4834 -0.0709
   84MOL0     C11476  11.263   3.478   4.812  0.1603 -0.9292 -0.1919
   84MOL0     C11477  11.276   3.567   4.947 -0.1291  0.1894  0.0200
   84MOL0     O11478  11.372   3.660   4.904  0.3233 -0.1172 -0.5462
   84MOL0     C11479  11.504   3.625   4.890  0.1323  0.0515 -0.4259
   84MOL0     C11480  11.582   3.660   5.006 -0.4900 -0.1395 -0.5814
   84MOL0     C11481  11.722   3.642   5.000 -0.4030  0.5557 -0.1502
   84MOL0     C11482  11.800   3.693   5.124  0.4609 -0.4817  0.2318
   84MOL0     C11483  11.788   3.573   4.894 -0.0225 -0.3079  0.3394
   84MOL0     C11484  11.938   3.535   4.900 -0.4513 -0.9600  0.5018
   84MOL0     O11485  11.998   3.498   4.783  0.2209 -0.8482 -0.0477
   84MOL0     C11486  12.131   3.472   4.781  0.1163  0.1379  0.2054
   84MOL0     C11487  12.225   3.552   4.845  0.5766 -0.3567  0.4653
   84MOL0     C11488  12.356   3.502   4.845  0.1195  0.1937 -0.5218
   84MOL0     C11489  12.393   3.391   4.768  0.2725 -0.1339 -0.1589
   84MOL0     O11490  12.531   3.365   4.776  0.2027  0.9165 -0.6235
   84MOL0     C11491  12.590   3.256   4.714  0.2950  0.2631  0.2024
   84MOL0     C11492  12.735   3.247   4.753 -0.5438  0.0708  1.0058
   84MOL0     C11493  12.817   3.140   4.679  0.4293 -0.3702  0.5990
   84MOL0     C11494  12.967   3.173   4.683 -0.6428  0.4829  0.0365
   84MOL0     C11495  13.055   3.083   4.591 -0.2777 -0.0743 -0.2448
   84MOL0     C11496  13.206   3.118   4.583 -0.1845  0.2823 -0.3170
   84MOL0     C11497  13.265   3.136   4.723  0.5612 -0.6323  0.4361
   84MOL0     C11498  13.412   3.156   4.716 -0.1040  0.1442 -0.3098
   84MOL0    Cl11499  13.473   3.137   4.877 -0.1171  0.1290 -0.1248
   84MOL0     C11500  12.301   3.314   4.695  0.8233  0.1726 -0.1693
   84MOL0     C11501  12.167   3.358   4.703  0.2819 -0.8865 -0.3897
   84MOL0     O11502  11.985   3.509   5.016 -0.1834  0.0586 -0.4173
   84MOL0     C11503  11.702   3.531   4.787  0.0461  0.2099  0.1823
   84MOL0     C11504  11.565   3.564   4.778  0.5628  0.5492 -0.4610
   84MOL0     N11505  10.798   3.306   4.765  0.7324  0.5760 -0.4343
   84MOL0     N11506  10.724   3.215   4.827 -0.5441  0.0217 -0.5815
   84MOL0     C11507   9.694   3.109   5.108  0.8875 -0.4731 -0.2257
   84MOL0     C11508   9.592   3.161   5.035  0.5192 -0.4083  0.9080
   84MOL0     C11509   9.317   3.479   4.860  0.4172 -0.7944  0.4199
   84MOL0     C11510   9.221   3.382   4.826  0.8239 -0.0879  0.0229
   84MOL0     C11511   9.122   3.404   4.744  0.3472 -0.3257  0.0181
   84MOL0     C11512   9.116   3.535   4.690 -0.8706  0.5302  0.5345
   84MOL0     O11513   9.022   3.566   4.595  0.1217 -0.1965 -0.1486
   84MOL0     C11514   8.983   3.467   4.500  0.4718 -0.5267 -0.1949
   84MOL0     C11515   8.878   3.523   4.410 -0.0705 -0.3267 -0.1653
   84MOL0     C11516   8.851   3.435   4.280 -0.2394  0.3456 -0.6507
   84MOL0     C11517   8.776   3.508   4.170  0.1006 -0.0927 -0.4059
   84MOL0     C11518   8.873   3.585   4.085 -0.0923  0.3469 -0.5893
   84MOL0     C11519   8.950   3.639   4.009 -0.2242 -1.0328  1.0508
   84MOL0     C11520   9.198   3.641   4.725  0.0611 -0.1920 -0.2191
   84MOL0     C11521   9.303   3.607   4.816 -0.0352 -0.8043  0.4095
   84MOL0     C11522   9.392   3.726   4.850 -0.0660 -0.2725 -0.2115
   84MOL0     H11523   9.467   3.397   5.230  0.6546 -0.3506  0.4635
   84MOL0     H11524   9.632   3.320   5.372 -0.5004  2.2858 -1.0097
   84MOL0     H11525   9.998   3.200   5.197 -0.0093 -0.0827 -0.5758
   84MOL0     H11526   9.969   3.018   5.196  0.6478 -0.3520  0.3951
   84MOL0     H11527  10.041   3.152   5.444  0.7392  1.9200 -1.4713
   84MOL0     H11528  10.066   2.986   5.406  2.5593 -0.9710 -1.4628
   84MOL0     H11529  10.228   3.228   5.317 -0.4555 -0.7265 -0.0736
   84MOL0     H11530  10.283   3.103   5.420  2.8760  1.1525 -1.3629
   84MOL0     H11531  10.300   2.944   5.246  2.5030  1.5852  0.0058
   84MOL0     H11532  10.191   3.012   5.133  1.1493  1.0289 -1.7584
   84MOL0     H11533  10.353   3.203   5.092  1.0945  0.8810  1.6367
   84MOL0     H11534  10.422   3.052   5.043  2.4865  1.5069 -0.6159
   84MOL0     H11535  10.492   3.178   5.308  0.6766  1.0382 -0.8487
   84MOL0     H11536  10.539   3.016   5.235  0.9743  0.4381 -0.9919
   84MOL0     H11537  10.676   3.264   5.180  1.7778  0.1609 -1.0581
   84MOL0     H11538  10.567   3.252   5.041  0.5311  0.3928 -0.0436
   84MOL0     H11539  10.786   3.069   5.126  0.4601  0.2639 -0.1790
   84MOL0     H11540  10.665   3.026   4.997  0.3351 -2.4929  3.0492
   84MOL0     H11541  10.953   3.278   5.055 -0.0664 -0.7555  0.1487
   84MOL0     H11542  11.003   3.515   4.919 -0.8922 -1.4771  1.6091
   84MOL0     H11543  10.988   3.509   4.752  0.9776  0.9308  0.6042
   84MOL0     H11544  11.164   3.327   4.934 -2.2010 -0.1830  0.5652
   84MOL0     H11545  11.164   3.302   4.753  0.8479  0.4007 -0.7946
   84MOL0     H11546  11.360   3.431   4.794  0.5568  0.6031 -2.5431
   84MOL0     H11547  11.239   3.552   4.735 -1.4481  2.0324  2.8967
   84MOL0     H11548  11.192   3.628   4.978  1.1316  2.7393 -1.2969
   84MOL0     H11549  11.302   3.512   5.038 -2.8274 -0.2117  0.6276
   84MOL0     H11550  11.533   3.697   5.095 -0.8592 -2.4905  0.2644
   84MOL0     H11551  11.880   3.762   5.096  1.9300 -1.3858  1.9602
   84MOL0     H11552  11.832   3.615   5.193 -2.6965 -1.5742  0.6152
   84MOL0     H11553  11.739   3.765   5.180 -0.0002 -0.3094 -0.4789
   84MOL0     H11554  12.193   3.644   4.893  2.8226  0.8008 -0.1126
   84MOL0     H11555  12.425   3.559   4.907 -3.6833  3.2540  1.2720
   84MOL0     H11556  12.539   3.166   4.750  0.3745  0.3764  0.5996
   84MOL0     H11557  12.560   3.261   4.609 -0.9969  1.4437  0.6020
   84MOL0     H11558  12.784   3.343   4.735 -0.3768 -0.3360 -0.8706
   84MOL0     H11559  12.734   3.220   4.859  1.7953 -1.7357  0.6427
   84MOL0     H11560  12.788   3.150   4.574 -0.6120 -3.3842  0.5094
   84MOL0     H11561  12.795   3.044   4.726 -0.3642 -0.7640 -0.5319
   84MOL0     H11562  12.991   3.163   4.789 -2.2144 -1.2794  0.2518
   84MOL0     H11563  12.987   3.279   4.661 -0.3022  0.1318 -1.5011
   84MOL0     H11564  13.050   2.980   4.625  0.0406 -0.1233 -0.3423
   84MOL0     H11565  13.013   3.083   4.490 -1.0597  0.6474  0.0673
   84MOL0     H11566  13.213   3.216   4.535  0.2427  0.8565  0.8754
   84MOL0     H11567  13.271   3.050   4.526 -0.2205 -0.8657  0.9730
   84MOL0     H11568  13.247   3.046   4.783  3.6173 -1.8951 -0.3532
   84MOL0     H11569  13.223   3.228   4.764  3.9427  1.3428 -0.1492
   84MOL0     H11570  13.443   3.248   4.665  1.6176 -0.2805 -0.0866
   84MOL0     H11571  13.450   3.069   4.663 -2.2306 -1.5131  0.7099
   84MOL0     H11572  12.324   3.223   4.641 -1.2756 -1.1067  0.9419
   84MOL0     H11573  12.094   3.307   4.640  0.1160  0.1536 -1.0614
   84MOL0     H11574  11.735   3.464   4.708  0.0577  2.4743 -1.8483
   84MOL0     H11575  11.508   3.533   4.691 -0.5961  0.0998  0.4385
   84MOL0     H11576   9.761   3.031   5.072  0.7461 -0.8047  0.2224
   84MOL0     H11577   9.574   3.118   4.937  0.3316  1.7218 -0.0624
   84MOL0     H11578   9.226   3.285   4.875  0.1672 -0.2156 -0.1537
   84MOL0     H11579   9.060   3.323   4.708 -2.0732  1.3093  0.2339
   84MOL0     H11580   9.074   3.426   4.455  0.0164 -0.0802 -1.5654
   84MOL0     H11581   8.928   3.390   4.556 -0.7625  0.2216 -0.3315
   84MOL0     H11582   8.920   3.622   4.389  1.0132 -0.1969  2.3022
   84MOL0     H11583   8.778   3.537   4.452 -0.1369 -1.3739  0.0619
   84MOL0     H11584   8.943   3.386   4.246 -0.3232  0.2281 -0.7044
   84MOL0     H11585   8.783   3.354   4.310 -1.1626  1.2135 -0.3280
   84MOL0     H11586   8.695   3.571   4.208 -2.7324 -1.8998 -2.9836
   84MOL0     H11587   8.728   3.425   4.117  0.7174 -1.6926  1.4453
   84MOL0     H11588   9.005   3.679   3.927 -1.9320 -2.9288 -1.1493
   84MOL0     H11589   9.185   3.742   4.689  0.3096  0.6690  1.9523
   84MOL0     H11590   9.490   3.728   4.802 -0.4010  0.4969 -0.9046
   84MOL0     H11591   9.341   3.811   4.803 -0.0323 -0.1031  0.0584
   84MOL0     H11592   9.415   3.733   4.956 -0.9225 -2.9054  0.2091
   85MOL0     O11593   7.603   0.773   6.775 -0.1401 -0.1210 -0.3447
   85MOL0     C11594   7.575   0.692   6.867 -0.3369  0.1189  0.6313
   85MOL0     O11595   7.670   0.630   6.936  0.2390  0.4017  1.2330
   85MOL0     C11596   7.798   0.662   6.946  0.3368 -0.4464  0.2120
   85MOL0     C11597   7.890   0.565   6.968  0.2359  0.2926  0.5065
   85MOL0     C11598   8.027   0.593   6.978 -0.1048 -0.0700 -0.2595
   85MOL0     C11599   8.063   0.726   6.967 -0.5044  0.0467 -0.4038
   85MOL0     O11600   8.196   0.753   6.969  0.7984 -0.0255 -0.1408
   85MOL0     C11601   8.248   0.885   6.946 -0.4390  0.7518  0.8854
   85MOL0     C11602   8.404   0.866   6.936 -0.0792 -1.3005  0.4436
   85MOL0     C11603   8.475   0.998   6.955 -0.4359 -0.2909 -0.1980
   85MOL0     C11604   8.628   0.963   6.984  0.6908  0.0084 -1.0904
   85MOL0     C11605   8.699   1.095   7.020 -0.7019 -0.7601 -0.0219
   85MOL0     C11606   8.849   1.079   7.045  0.1909 -0.2433 -0.3902
   85MOL0     C11607   8.921   1.106   6.913 -0.2718 -0.1480 -0.1566
   85MOL0     C11608   9.062   1.051   6.916 -0.0762 -0.3998  0.0132
   85MOL0     N11609   9.155   1.096   6.809  1.1737 -0.9925  0.1670
   85MOL0     C11610   9.125   1.063   6.680 -0.0504  0.2006  0.6807
   85MOL0     C11611   9.236   1.112   6.621 -0.3671  0.0346  1.2240
   85MOL0     C11612   9.247   1.121   6.470  0.5544  0.3807 -0.9836
   85MOL0     C11613   9.370   1.183   6.418 -0.2578 -0.0619  0.2837
   85MOL0     C11614   9.378   1.331   6.440  0.1340 -0.3455  0.3103
   85MOL0     C11615   9.511   1.375   6.379  1.3130 -0.6983 -0.6675
   85MOL0     O11616   9.511   1.521   6.396 -0.4773 -0.9046  0.6692
   85MOL0     C11617   9.629   1.584   6.372  0.3339  0.4483  0.1957
   85MOL0     C11618   9.627   1.718   6.397  0.2871 -0.5262 -0.1927
   85MOL0     C11619   9.732   1.805   6.389 -1.4332  0.0164  0.0317
   85MOL0     C11620   9.711   1.955   6.398 -0.0811 -0.6138 -0.0253
   85MOL0     C11621   9.858   1.758   6.365 -0.2352  2.1819 -0.4796
   85MOL0     C11622   9.976   1.837   6.349 -0.0430 -0.1719  0.3069
   85MOL0     O11623  10.018   1.915   6.460  0.2334  0.6332  0.7632
   85MOL0     C11624  10.137   1.980   6.437 -0.2483 -0.4881 -0.8529
   85MOL0     C11625  10.148   2.090   6.344  1.0548 -0.0241 -0.0529
   85MOL0     C11626  10.268   2.152   6.321 -0.4316  0.1458  0.5913
   85MOL0     C11627  10.384   2.104   6.391  1.1584 -0.2353  0.3899
   85MOL0     O11628  10.497   2.174   6.372  0.6907  0.4070  0.0970
   85MOL0     C11629  10.603   2.150   6.468 -0.7796  0.2599  0.4182
   85MOL0     C11630  10.718   2.253   6.442 -0.2305 -0.2225  0.1648
   85MOL0     C11631  10.837   2.212   6.525 -0.9258  0.3390  0.7741
   85MOL0     C11632  10.956   2.292   6.480 -0.7474 -0.6951  0.6726
   85MOL0     C11633  11.076   2.278   6.582  0.1965 -0.2925 -0.2771
   85MOL0     C11634  11.208   2.334   6.538 -0.2193 -0.5286  0.1712
   85MOL0     C11635  11.324   2.331   6.639  0.2140  0.1931 -0.7204
   85MOL0     C11636  11.462   2.337   6.562 -0.8028  0.1271 -0.1568
   85MOL0    Cl11637  11.487   2.506   6.505 -0.0242  0.5691  0.1696
   85MOL0     C11638  10.368   2.001   6.485  0.1283 -0.6719 -0.2536
   85MOL0     C11639  10.245   1.941   6.508 -0.7788  0.7352  0.2043
   85MOL0     O11640  10.036   1.821   6.244 -0.1494 -0.0218  0.7050
   85MOL0     C11641   9.869   1.612   6.335  0.2533  0.4362  0.0683
   85MOL0     C11642   9.752   1.529   6.334  0.2346  1.1532  0.2096
   85MOL0     N11643   9.327   1.165   6.710  0.2199 -0.3052 -0.5882
   85MOL0     N11644   9.273   1.157   6.834 -0.3800  0.5474  0.6917
   85MOL0     C11645   7.970   0.831   6.967 -0.6250  0.1824 -0.0454
   85MOL0     C11646   7.835   0.800   6.942 -0.5151 -0.3646 -0.9852
   85MOL0     C11647   7.425   0.667   6.899  0.5311  0.5444 -0.4051
   85MOL0     C11648   7.340   0.777   6.874 -0.3891 -1.0090 -1.0182
   85MOL0     C11649   7.207   0.767   6.901  0.4123 -0.0292 -0.2966
   85MOL0     C11650   7.152   0.652   6.975  0.6666  0.1545  0.4240
   85MOL0     O11651   7.022   0.637   7.026 -0.0159 -0.1224  0.8400
   85MOL0     C11652   6.937   0.753   7.021  0.5164  0.6953  0.5391
   85MOL0     C11653   6.818   0.734   7.117 -1.0716  0.5009 -0.2908
   85MOL0     C11654   6.725   0.614   7.075  1.2909 -1.6178 -0.5057
   85MOL0     C11655   6.662   0.554   7.200  0.4676  0.7332  0.2287
   85MOL0     C11656   6.537   0.632   7.233 -0.2320  0.4496  0.5325
   85MOL0     C11657   6.452   0.687   7.289  0.3263  0.3371 -0.2676
   85MOL0     C11658   7.238   0.547   7.004  0.0135 -0.1192  1.0168
   85MOL0     C11659   7.373   0.556   6.983 -0.5606  0.7614  0.4521
   85MOL0     C11660   7.455   0.438   7.026 -0.0491 -0.3799  0.4357
   85MOL0     H11661   7.845   0.467   6.978  2.7993 -1.0521 -0.1525
   85MOL0     H11662   8.100   0.513   6.978  1.8403  1.5908 -1.3121
   85MOL0     H11663   8.210   0.940   7.033 -3.6803 -1.5625  1.1410
   85MOL0     H11664   8.228   0.934   6.850  1.6855 -0.2359 -0.1292
   85MOL0     H11665   8.431   0.790   7.010 -3.5106 -1.5408  1.6294
   85MOL0     H11666   8.422   0.840   6.831  4.0419  0.0422  0.6401
   85MOL0     H11667   8.473   1.056   6.862 -0.1473 -1.1189 -0.7392
   85MOL0     H11668   8.428   1.047   7.040  0.0360 -0.9609  0.4544
   85MOL0     H11669   8.640   0.902   7.075 -1.7291 -1.2449 -1.5057
   85MOL0     H11670   8.670   0.900   6.905  0.4053 -0.5437 -0.8133
   85MOL0     H11671   8.656   1.137   7.112  0.0884  0.8574 -0.3547
   85MOL0     H11672   8.676   1.170   6.944 -0.1512 -0.6378 -0.0714
   85MOL0     H11673   8.886   1.137   7.130 -1.0914 -0.5347  0.3934
   85MOL0     H11674   8.872   0.974   7.069  1.9800  0.4575  1.2471
   85MOL0     H11675   8.923   1.215   6.905 -0.9438 -0.0644  0.6428
   85MOL0     H11676   8.863   1.062   6.832 -0.4510 -2.5555  1.1892
   85MOL0     H11677   9.115   1.083   7.005  0.6177  2.3800 -1.3050
   85MOL0     H11678   9.057   0.941   6.911  0.7724 -0.4341 -0.3197
   85MOL0     H11679   9.033   1.029   6.635  1.2668 -1.6844 -0.7725
   85MOL0     H11680   9.152   1.167   6.440  0.5466 -0.1061 -1.7261
   85MOL0     H11681   9.243   1.016   6.441  2.0959 -0.5627  1.8150
   85MOL0     H11682   9.453   1.134   6.470 -1.4145 -0.6723  1.6257
   85MOL0     H11683   9.366   1.164   6.311  1.1352  2.6418 -0.3164
   85MOL0     H11684   9.286   1.378   6.404  0.3391 -0.9956 -1.1528
   85MOL0     H11685   9.385   1.362   6.544  1.9428  1.6447 -0.3340
   85MOL0     H11686   9.598   1.331   6.428  0.8198 -0.6836  0.2504
   85MOL0     H11687   9.515   1.367   6.270 -1.5052  0.4580 -0.9417
   85MOL0     H11688   9.533   1.765   6.426 -0.4654 -1.0741 -1.6392
   85MOL0     H11689   9.688   1.977   6.502 -0.8402 -3.7055  0.5663
   85MOL0     H11690   9.617   1.975   6.346 -0.9717  2.9058  2.6185
   85MOL0     H11691   9.788   2.020   6.355  1.2283 -0.8090  1.9006
   85MOL0     H11692  10.067   2.133   6.285  1.2974  0.4237 -0.0693
   85MOL0     H11693  10.282   2.235   6.252  0.3974 -2.2106 -2.2638
   85MOL0     H11694  10.572   2.157   6.572  0.9331 -1.3616  1.0935
   85MOL0     H11695  10.641   2.050   6.446 -2.0193  0.0914 -1.1440
   85MOL0     H11696  10.747   2.248   6.337  0.6488 -2.4203  0.4674
   85MOL0     H11697  10.687   2.348   6.488  2.5910  1.0790 -0.3782
   85MOL0     H11698  10.857   2.104   6.524 -0.4668  0.4111  1.2367
   85MOL0     H11699  10.815   2.237   6.629 -0.0848  1.2653  0.7450
   85MOL0     H11700  10.931   2.398   6.490  1.9397 -0.0253  1.0666
   85MOL0     H11701  10.974   2.266   6.375 -1.9302 -0.3644  0.3697
   85MOL0     H11702  11.042   2.320   6.678  1.8519  1.5870 -0.4710
   85MOL0     H11703  11.093   2.171   6.597  1.2699 -0.0877  0.0264
   85MOL0     H11704  11.189   2.436   6.503 -1.0867 -0.7143  0.0728
   85MOL0     H11705  11.246   2.274   6.454  0.2648 -0.6612  0.4812
   85MOL0     H11706  11.314   2.233   6.686 -1.1651  0.1632 -1.0202
   85MOL0     H11707  11.323   2.409   6.716  0.3850  1.0146 -1.5326
   85MOL0     H11708  11.473   2.257   6.489 -2.0717 -0.2886  0.0719
   85MOL0     H11709  11.541   2.325   6.636 -0.2433  0.8444 -0.6227
   85MOL0     H11710  10.455   1.968   6.542  0.6741  0.3236 -0.4879
   85MOL0     H11711  10.252   1.854   6.572  1.0713 -0.8128 -1.9452
   85MOL0     H11712   9.965   1.564   6.315  0.4630  0.5001  0.8850
   85MOL0     H11713   9.754   1.423   6.311 -0.5010  0.0441  4.4356
   85MOL0     H11714   8.006   0.933   6.957  0.1152 -0.2126 -1.6026
   85MOL0     H11715   7.766   0.882   6.923  2.5799  3.0258  1.1828
   85MOL0     H11716   7.368   0.873   6.832  0.1298 -0.7782 -0.1752
   85MOL0     H11717   7.146   0.854   6.880  2.8937  1.7858 -0.4473
   85MOL0     H11718   6.990   0.847   7.042  1.4115  0.4002 -0.3357
   85MOL0     H11719   6.885   0.762   6.924 -0.7899 -1.4405  0.9674
   85MOL0     H11720   6.767   0.830   7.102  0.8683  1.1598 -4.2170
   85MOL0     H11721   6.862   0.709   7.214 -0.5744 -2.6205 -1.2175
   85MOL0     H11722   6.653   0.660   7.007 -0.6533 -2.0450  1.1612
   85MOL0     H11723   6.784   0.534   7.029  1.2668 -1.4908 -0.7554
   85MOL0     H11724   6.722   0.568   7.290 -1.2353 -1.7127  1.8633
   85MOL0     H11725   6.649   0.447   7.182  0.3157  0.6004  1.0736
   85MOL0     H11726   6.378   0.732   7.353 -0.6318  0.4099 -1.3868
   85MOL0     H11727   7.197   0.463   7.059 -0.7087 -0.5117 -0.0800
   85MOL0     H11728   7.553   0.413   6.984 -0.1348 -1.0520  0.6154
   85MOL0     H11729   7.483   0.474   7.126 -2.8881  0.3722  1.0657
   85MOL0     H11730   7.398   0.345   7.027 -4.3786  1.9720 -0.9860
   86MOL0     O11731   4.884   9.036  10.360 -0.1463  0.4902 -0.2671
   86MOL0     C11732   4.904   9.079  10.249 -0.2543 -0.2222 -0.0131
   86MOL0     O11733   5.019   9.058  10.181 -0.3054  0.0320  0.6043
   86MOL0     C11734   5.098   8.956  10.217  0.3790  0.4684  0.1590
   86MOL0     C11735   5.202   8.981  10.311 -0.7387 -0.5818  0.1208
   86MOL0     C11736   5.293   8.872  10.334 -0.0436 -0.3937 -0.5620
   86MOL0     C11737   5.273   8.744  10.277 -0.1654  1.0218 -0.0960
   86MOL0     O11738   5.364   8.637  10.290 -0.4817  0.6548 -0.0575
   86MOL0     C11739   5.470   8.652  10.388  0.2377 -0.0741  0.4051
   86MOL0     C11740   5.548   8.521  10.384 -0.2299  0.4100 -0.5783
   86MOL0     C11741   5.656   8.531  10.489  0.2557  0.8012 -0.4611
   86MOL0     C11742   5.764   8.430  10.471 -0.1933 -1.3388  0.2748
   86MOL0     C11743   5.861   8.462  10.361  0.3547 -0.3103 -0.2431
   86MOL0     C11744   5.948   8.341  10.334 -0.4723  0.5480 -0.4672
   86MOL0     C11745   6.056   8.378  10.234 -0.4193  0.1672  0.1109
   86MOL0     C11746   6.200   8.376  10.292 -0.6710  0.6514 -0.0449
   86MOL0     N11747   6.297   8.445  10.210 -0.7045 -0.0921  0.1433
   86MOL0     C11748   6.393   8.532  10.258 -0.4245  0.5938 -0.4550
   86MOL0     C11749   6.450   8.582  10.152 -0.3149 -0.2563  0.7814
   86MOL0     C11750   6.557   8.685  10.140  1.2636  0.9930 -0.0021
   86MOL0     C11751   6.700   8.626  10.106  0.8293  0.0920  0.5903
   86MOL0     C11752   6.733   8.510  10.201 -0.1460 -0.6748 -0.5708
   86MOL0     C11753   6.863   8.452  10.169 -0.2740 -0.3970 -0.2674
   86MOL0     O11754   6.897   8.356  10.272  0.2542 -0.2015  0.2378
   86MOL0     C11755   7.021   8.293  10.256 -0.0880 -0.5028  0.6755
   86MOL0     C11756   7.038   8.179  10.339  0.3236  0.0128  0.2792
   86MOL0     C11757   7.155   8.095  10.340  0.2470 -0.0760  0.0062
   86MOL0     C11758   7.177   7.981  10.437 -0.5133 -0.4718  0.7707
   86MOL0     C11759   7.267   8.130  10.253  0.2382 -0.3381  0.8847
   86MOL0     C11760   7.398   8.053  10.244 -0.1526 -0.4126  0.7677
   86MOL0     O11761   7.441   8.000  10.358 -0.0521  0.4965  0.2543
   86MOL0     C11762   7.547   7.909  10.352 -0.5684  0.3907  0.2343
   86MOL0     C11763   7.551   7.807  10.267  0.6523 -0.3405  0.2869
   86MOL0     C11764   7.662   7.722  10.256 -0.9179 -0.3701 -0.0895
   86MOL0     C11765   7.777   7.743  10.335  0.1454 -0.1558 -0.0913
   86MOL0     O11766   7.901   7.683  10.320 -0.4409 -0.1520 -0.5329
   86MOL0     C11767   7.899   7.546  10.283  0.3971  0.9017  0.1711
   86MOL0     C11768   7.932   7.521  10.137 -0.2080  0.0838  0.4011
   86MOL0     C11769   7.953   7.369  10.103  0.4816 -0.0144 -0.0205
   86MOL0     C11770   7.811   7.313  10.077  0.2852  0.3504 -0.3022
   86MOL0     C11771   7.792   7.159  10.119  1.1316 -0.1964  0.0185
   86MOL0     C11772   7.664   7.092  10.068  0.0936 -0.2713 -0.3705
   86MOL0     C11773   7.533   7.160  10.110 -0.5456 -0.4935 -0.3090
   86MOL0     C11774   7.409   7.075  10.077  0.4919 -0.4628  0.1588
   86MOL0    Cl11775   7.263   7.135  10.166 -0.4064 -0.0285 -0.3149
   86MOL0     C11776   7.768   7.851  10.421 -0.1850 -0.1398 -0.1706
   86MOL0     C11777   7.657   7.939  10.430 -1.1076 -0.1467  1.1888
   86MOL0     O11778   7.468   8.064  10.142 -0.0522 -0.7627 -1.0322
   86MOL0     C11779   7.244   8.243  10.169  1.0570 -0.5136 -0.6813
   86MOL0     C11780   7.127   8.320  10.172  0.6844  0.1685  0.0896
   86MOL0     N11781   6.388   8.540  10.038  0.8573 -0.2790  1.2080
   86MOL0     N11782   6.295   8.456  10.076 -0.3947  0.2742 -0.3278
   86MOL0     C11783   5.163   8.718  10.193  0.5137  0.2341  0.7329
   86MOL0     C11784   5.074   8.828  10.164 -0.4106 -0.0791  0.9749
   86MOL0     C11785   4.788   9.163  10.194  0.3086 -0.2780 -0.1058
   86MOL0     C11786   4.657   9.133  10.234  0.8153 -1.0683  1.1044
   86MOL0     C11787   4.549   9.209  10.185  0.1401  0.3715  0.0195
   86MOL0     C11788   4.569   9.321  10.098 -0.2267 -0.9754 -0.7823
   86MOL0     O11789   4.476   9.402  10.044 -0.6784 -0.5537 -0.2846
   86MOL0     C11790   4.350   9.342  10.015 -0.3219 -0.2247 -0.2798
   86MOL0     C11791   4.289   9.423   9.904  1.0201  0.4206 -0.1733
   86MOL0     C11792   4.323   9.573   9.925  0.0814  0.1473  0.8720
   86MOL0     C11793   4.250   9.641  10.041 -0.3375  1.1714  0.9077
   86MOL0     C11794   4.295   9.783  10.065  0.5359 -0.4099  0.4588
   86MOL0     C11795   4.335   9.897  10.083 -0.6491  0.2909  0.2758
   86MOL0     C11796   4.699   9.351  10.066  0.0085 -0.3545  0.0228
   86MOL0     C11797   4.812   9.276  10.110 -0.1885 -0.1464 -0.6802
   86MOL0     C11798   4.947   9.334  10.074  0.2101 -0.3579 -0.8074
   86MOL0     H11799   5.219   9.081  10.350  0.3836  0.6296 -3.1602
   86MOL0     H11800   5.380   8.896  10.394  0.0398  0.1101 -0.8798
   86MOL0     H11801   5.436   8.668  10.490  2.2126  1.2509  0.9144
   86MOL0     H11802   5.539   8.728  10.351 -0.5024 -0.5141 -2.0595
   86MOL0     H11803   5.478   8.439  10.407 -2.0588  1.8093 -0.9618
   86MOL0     H11804   5.586   8.504  10.283  1.2818  0.5212 -0.0526
   86MOL0     H11805   5.704   8.628  10.504  0.3106  0.7650 -0.3945
   86MOL0     H11806   5.592   8.510  10.575  0.2597 -0.5007 -0.7550
   86MOL0     H11807   5.826   8.415  10.560  0.9091 -4.2269 -0.8735
   86MOL0     H11808   5.713   8.336  10.447 -0.6211 -1.4040  1.3821
   86MOL0     H11809   5.923   8.541  10.407 -2.5455  1.2255  1.3127
   86MOL0     H11810   5.810   8.492  10.269 -3.3959 -2.1235  1.0783
   86MOL0     H11811   5.985   8.303  10.429 -0.6675  1.8496  0.1555
   86MOL0     H11812   5.894   8.259  10.284  1.9554 -0.5836 -1.3633
   86MOL0     H11813   6.046   8.478  10.190  3.4846  0.7067  0.0783
   86MOL0     H11814   6.062   8.306  10.152  2.4707  0.4955 -0.0539
   86MOL0     H11815   6.205   8.408  10.397  1.1986 -1.6510  0.6508
   86MOL0     H11816   6.240   8.275  10.303  3.3069  1.9170 -1.0886
   86MOL0     H11817   6.426   8.564  10.356  2.5289  1.6969 -1.6961
   86MOL0     H11818   6.562   8.734  10.238 -0.9594 -0.2361  0.8065
   86MOL0     H11819   6.514   8.752  10.065 -4.0642 -0.7575  1.0078
   86MOL0     H11820   6.704   8.595  10.002  1.4634 -0.0506  0.6539
   86MOL0     H11821   6.771   8.710  10.113 -0.1635  1.0259 -0.2112
   86MOL0     H11822   6.738   8.551  10.303 -2.2808 -1.2182 -0.1902
   86MOL0     H11823   6.650   8.439  10.193  1.3558 -2.4225 -1.4270
   86MOL0     H11824   6.858   8.403  10.071  0.0071 -2.9117  0.9170
   86MOL0     H11825   6.923   8.543  10.173 -3.5485  1.9290  0.7774
   86MOL0     H11826   6.959   8.145  10.405  1.5272 -0.2796  1.6263
   86MOL0     H11827   7.204   7.891  10.380 -0.5755  0.2654 -0.4398
   86MOL0     H11828   7.082   7.953  10.484  0.0853 -4.0605  0.1982
   86MOL0     H11829   7.259   7.997  10.508  1.6005  0.3038 -1.6989
   86MOL0     H11830   7.466   7.772  10.209 -0.0376  3.3762 -1.2176
   86MOL0     H11831   7.664   7.640  10.185  1.1261  0.2330 -0.8006
   86MOL0     H11832   7.965   7.478  10.337 -2.9014 -3.6107 -0.9207
   86MOL0     H11833   7.800   7.505  10.306  0.9303 -0.2153  0.5699
   86MOL0     H11834   7.854   7.567  10.075  1.6091  3.7985  0.5581
   86MOL0     H11835   8.021   7.584  10.122  1.1412 -1.8216  0.0735
   86MOL0     H11836   8.006   7.320  10.185  2.3745  1.9728  0.0508
   86MOL0     H11837   8.015   7.354  10.014  0.8990  1.4689 -0.0063
   86MOL0     H11838   7.797   7.320   9.969 -2.2678 -2.3685 -0.2590
   86MOL0     H11839   7.737   7.375  10.129  3.2144  0.6155  4.0766
   86MOL0     H11840   7.886   7.112  10.087  0.8277 -1.9893  1.5754
   86MOL0     H11841   7.787   7.154  10.228  0.3496  0.6194  0.0297
   86MOL0     H11842   7.655   6.987  10.098 -1.5562  0.1516  0.7343
   86MOL0     H11843   7.676   7.085   9.959 -0.0624  1.7510 -0.5411
   86MOL0     H11844   7.529   7.252  10.051  0.6281  0.9091  1.7075
   86MOL0     H11845   7.545   7.180  10.216 -1.2253  0.4083 -0.3919
   86MOL0     H11846   7.421   6.971  10.109 -0.8800 -0.7756 -0.2756
   86MOL0     H11847   7.380   7.087   9.972 -5.7485  0.6695  1.6137
   86MOL0     H11848   7.856   7.882  10.476 -0.0466 -0.5158 -0.1753
   86MOL0     H11849   7.650   8.022  10.501 -2.0763  1.6916 -0.9215
   86MOL0     H11850   7.313   8.268  10.090 -0.7587 -0.1992 -2.2318
   86MOL0     H11851   7.121   8.410  10.111 -2.9347 -2.2329 -3.6670
   86MOL0     H11852   5.142   8.623  10.146 -0.6704  0.4789  0.7576
   86MOL0     H11853   4.987   8.812  10.101 -1.5780 -1.5018  2.8621
   86MOL0     H11854   4.643   9.042  10.293  0.9512 -1.6079  0.3175
   86MOL0     H11855   4.455   9.167  10.221 -0.2850 -2.2894 -3.6051
   86MOL0     H11856   4.373   9.242   9.979 -0.6268 -0.0921 -0.8534
   86MOL0     H11857   4.289   9.345  10.106  1.2718  0.8150  0.8096
   86MOL0     H11858   4.181   9.406   9.899  1.0823  0.0046 -0.0629
   86MOL0     H11859   4.326   9.387   9.807 -0.5776  0.6028 -0.8895
   86MOL0     H11860   4.430   9.593   9.930  0.0451  0.0149  2.4113
   86MOL0     H11861   4.284   9.621   9.834  2.2397 -0.0398 -0.2179
   86MOL0     H11862   4.253   9.585  10.135  1.9172 -1.6752 -0.6979
   86MOL0     H11863   4.147   9.647  10.004  0.2809  0.9543 -0.9679
   86MOL0     H11864   4.381   9.993  10.095 -1.0895  0.7928 -1.7767
   86MOL0     H11865   4.715   9.445  10.015 -0.2082 -1.1702 -1.6088
   86MOL0     H11866   4.940   9.438  10.041 -0.4078 -0.1278  0.0107
   86MOL0     H11867   5.019   9.329  10.157  1.0895  2.8340 -1.2589
   86MOL0     H11868   4.987   9.278   9.990  0.4424  0.8547 -1.5216
   87MOL0     O11869   6.198   6.057  10.217  0.3268 -0.1372 -0.2255
   87MOL0     C11870   6.110   6.109  10.141 -0.2659 -0.8842  0.0256
   87MOL0     O11871   6.138   6.179  10.027  0.6490 -0.2134 -0.2216
   87MOL0     C11872   6.262   6.227   9.995  0.8239  0.1997  0.4435
   87MOL0     C11873   6.265   6.312   9.888 -0.2433 -0.3274  0.8709
   87MOL0     C11874   6.385   6.366   9.829 -0.3471  0.6142 -0.5385
   87MOL0     C11875   6.509   6.328   9.885 -0.1997  0.0114 -0.1388
   87MOL0     O11876   6.634   6.359   9.824 -0.0262 -0.0392  0.0454
   87MOL0     C11877   6.649   6.480   9.743 -0.3488  0.4937  0.0069
   87MOL0     C11878   6.797   6.509   9.726 -0.1772 -0.4513 -0.3267
   87MOL0     C11879   6.829   6.638   9.657  0.2656  0.1988  0.2633
   87MOL0     C11880   6.963   6.626   9.591  0.6701 -0.6311  0.1437
   87MOL0     C11881   7.029   6.762   9.567  0.3004 -0.8653 -0.5767
   87MOL0     C11882   7.171   6.744   9.500  0.4106 -0.4178 -0.3595
   87MOL0     C11883   7.168   6.707   9.352 -0.0170  0.1714 -0.6281
   87MOL0     C11884   7.281   6.626   9.290  0.6909 -0.3280 -0.6172
   87MOL0     N11885   7.411   6.671   9.335 -0.0294 -0.5619  0.1706
   87MOL0     C11886   7.476   6.787   9.291  0.0380  0.3312  0.4643
   87MOL0     C11887   7.604   6.768   9.318  0.4051 -0.1979 -0.5501
   87MOL0     C11888   7.701   6.870   9.288 -0.8537 -0.1338  0.4873
   87MOL0     C11889   7.820   6.812   9.212 -0.3365  0.4229 -0.9369
   87MOL0     C11890   7.919   6.932   9.177 -0.1702 -0.0721 -1.3476
   87MOL0     C11891   8.052   6.886   9.113 -0.4342 -0.5157 -0.8091
   87MOL0     O11892   8.105   6.788   9.203  0.8935  0.3846  0.1584
   87MOL0     C11893   8.190   6.692   9.155  0.5439 -0.9165 -0.7723
   87MOL0     C11894   8.191   6.577   9.230 -0.8931 -0.4863 -1.0811
   87MOL0     C11895   8.273   6.470   9.188  0.4238  0.3317  0.1357
   87MOL0     C11896   8.269   6.357   9.277  0.0498  0.3097 -0.5417
   87MOL0     C11897   8.352   6.476   9.069  0.5234  0.4958  0.1604
   87MOL0     C11898   8.443   6.374   9.011  0.0733  0.8297 -0.2451
   87MOL0     O11899   8.496   6.394   8.887 -0.5300  0.0597 -0.2668
   87MOL0     C11900   8.614   6.338   8.853 -0.6530  0.2703 -0.9246
   87MOL0     C11901   8.734   6.392   8.913  0.1283 -0.3430  0.4917
   87MOL0     C11902   8.855   6.339   8.866  0.3419  0.3765  0.1125
   87MOL0     C11903   8.860   6.226   8.791  0.0959 -0.9634  0.8714
   87MOL0     O11904   8.982   6.167   8.749  0.1859  0.0298 -0.0911
   87MOL0     C11905   9.086   6.253   8.693  0.2048  0.2009  0.6950
   87MOL0     C11906   9.192   6.154   8.650 -0.3778 -0.4757 -0.2833
   87MOL0     C11907   9.331   6.225   8.618 -0.1723 -0.5463  0.6182
   87MOL0     C11908   9.425   6.111   8.571 -0.8975 -0.3984  0.1507
   87MOL0     C11909   9.552   6.161   8.484  0.7478 -0.0381  0.6325
   87MOL0     C11910   9.643   6.248   8.575 -0.1311  0.6292  0.5971
   87MOL0     C11911   9.767   6.311   8.495 -0.1830 -0.2096  0.1909
   87MOL0     C11912   9.740   6.410   8.375  0.3018 -0.0475 -0.1884
   87MOL0    Cl11913   9.892   6.481   8.318  0.0796  0.0828 -0.0529
   87MOL0     C11914   8.741   6.166   8.745  0.3777  0.1132  0.3542
   87MOL0     C11915   8.618   6.224   8.769 -0.3336 -0.6491 -0.4744
   87MOL0     O11916   8.471   6.279   9.087 -0.5780 -0.1354  0.5766
   87MOL0     C11917   8.340   6.596   8.994  0.8910  0.3537  0.0422
   87MOL0     C11918   8.260   6.697   9.035 -0.3304  0.4467  0.3844
   87MOL0     N11919   7.626   6.642   9.362 -0.1491  0.3345  0.3561
   87MOL0     N11920   7.506   6.588   9.371 -0.9541  0.2826  0.0121
   87MOL0     C11921   6.505   6.245   9.993 -0.9488 -0.0357 -0.0246
   87MOL0     C11922   6.386   6.198  10.055 -0.7369  0.0127 -0.3954
   87MOL0     C11923   5.963   6.090  10.169 -0.4268  0.6807  0.1822
   87MOL0     C11924   5.925   5.994  10.266  0.2411 -0.0338 -0.3268
   87MOL0     C11925   5.794   5.977  10.311  0.5528  0.2386  0.1718
   87MOL0     C11926   5.696   6.047  10.249  0.4313  0.2182 -0.1916
   87MOL0     O11927   5.566   6.042  10.296  0.1715 -0.7980  0.2330
   87MOL0     C11928   5.544   6.056  10.437 -0.5946  0.8853  0.5079
   87MOL0     C11929   5.401   6.021  10.479  0.9569 -0.7247  0.0232
   87MOL0     C11930   5.363   6.082  10.612  0.4488  0.0144 -0.0046
   87MOL0     C11931   5.346   6.241  10.604  0.1225 -0.1816 -0.2388
   87MOL0     C11932   5.228   6.278  10.534  0.3444  0.0851 -0.0048
   87MOL0     C11933   5.124   6.322  10.485 -1.1049 -0.8166  0.4379
   87MOL0     C11934   5.722   6.132  10.145  0.0241 -0.7748 -1.1313
   87MOL0     C11935   5.854   6.153  10.102  0.9437 -0.2220  0.5466
   87MOL0     C11936   5.871   6.244   9.983  0.4624 -0.3988  0.1233
   87MOL0     H11937   6.169   6.345   9.850  0.4777  0.4957 -0.2981
   87MOL0     H11938   6.386   6.426   9.738  3.1353 -0.6392 -1.4727
   87MOL0     H11939   6.594   6.558   9.796 -3.1931 -2.5224  1.8545
   87MOL0     H11940   6.607   6.466   9.643  0.0806  0.3793 -0.1625
   87MOL0     H11941   6.845   6.519   9.824  0.0356 -1.8607 -0.2747
   87MOL0     H11942   6.848   6.425   9.677  1.9776 -0.2129  1.3339
   87MOL0     H11943   6.751   6.675   9.591  1.8570  1.5492 -0.9741
   87MOL0     H11944   6.846   6.712   9.736  0.4573 -0.8664  1.2513
   87MOL0     H11945   7.028   6.566   9.656 -1.7190 -2.4548  1.0116
   87MOL0     H11946   6.957   6.573   9.496 -0.7707 -1.4303  0.6462
   87MOL0     H11947   7.040   6.812   9.663 -0.1296  0.0075 -0.9663
   87MOL0     H11948   6.961   6.829   9.513 -1.5003 -3.0432 -1.1626
   87MOL0     H11949   7.223   6.840   9.504 -1.6321  0.7483 -0.5114
   87MOL0     H11950   7.223   6.666   9.556  0.1210 -1.9743 -2.1666
   87MOL0     H11951   7.141   6.796   9.294  1.9570  0.5487 -1.0399
   87MOL0     H11952   7.086   6.637   9.335 -0.6477  0.3541  1.3661
   87MOL0     H11953   7.260   6.522   9.316  0.5001  0.2761  1.9631
   87MOL0     H11954   7.272   6.628   9.181  0.7374  0.7012 -0.6130
   87MOL0     H11955   7.424   6.872   9.249  0.4903  1.4477  2.0588
   87MOL0     H11956   7.741   6.915   9.379  0.8428  2.8370 -1.5591
   87MOL0     H11957   7.661   6.954   9.232 -0.0245  0.9291  1.4421
   87MOL0     H11958   7.860   6.743   9.286 -0.1232  0.4328 -1.0408
   87MOL0     H11959   7.790   6.743   9.133 -0.2808 -1.8662  0.9243
   87MOL0     H11960   7.882   6.994   9.095  1.0657 -1.0338 -2.6893
   87MOL0     H11961   7.935   6.982   9.273  0.8420  1.8545 -2.4535
   87MOL0     H11962   8.040   6.851   9.010 -1.0423  0.5923 -1.1285
   87MOL0     H11963   8.113   6.976   9.107 -0.6244 -0.4527 -2.1066
   87MOL0     H11964   8.136   6.569   9.323  0.9798  2.2279  0.3948
   87MOL0     H11965   8.357   6.365   9.342  0.8217  0.2895 -1.5498
   87MOL0     H11966   8.281   6.258   9.234 -0.3476  0.1469 -0.2785
   87MOL0     H11967   8.182   6.361   9.342 -0.3161 -1.4070 -0.8973
   87MOL0     H11968   8.723   6.484   8.969 -1.4467  1.4751 -2.5250
   87MOL0     H11969   8.946   6.381   8.908 -0.9126  1.0914  2.2888
   87MOL0     H11970   9.048   6.322   8.616 -0.5048 -0.1530  0.7168
   87MOL0     H11971   9.135   6.324   8.759 -2.1931  1.2921  1.4282
   87MOL0     H11972   9.214   6.080   8.728  0.2349 -0.5001 -0.4738
   87MOL0     H11973   9.151   6.099   8.565  0.5754  0.4530 -1.3765
   87MOL0     H11974   9.359   6.273   8.711  1.1254  2.8222 -1.3314
   87MOL0     H11975   9.321   6.295   8.534 -1.2487  1.0267  1.9944
   87MOL0     H11976   9.366   6.058   8.495  0.0085  0.5782 -1.2867
   87MOL0     H11977   9.451   6.051   8.659  0.6572  0.9882  0.6856
   87MOL0     H11978   9.597   6.075   8.434 -3.4281 -1.1631 -1.6553
   87MOL0     H11979   9.508   6.228   8.410  0.8667  1.3094  1.7425
   87MOL0     H11980   9.691   6.186   8.651  0.7480 -0.8470 -1.1065
   87MOL0     H11981   9.585   6.327   8.625  1.6643  3.4526 -1.4871
   87MOL0     H11982   9.840   6.235   8.466 -1.0358 -1.0829  0.2831
   87MOL0     H11983   9.828   6.368   8.566 -0.5264  0.6814 -0.2139
   87MOL0     H11984   9.674   6.490   8.408  0.2514  0.5249 -1.5915
   87MOL0     H11985   9.697   6.344   8.299 -0.8526  0.0656  0.3607
   87MOL0     H11986   8.753   6.090   8.669 -0.6678 -1.3948  1.6190
   87MOL0     H11987   8.526   6.183   8.729 -1.4470 -0.6401  1.9139
   87MOL0     H11988   8.382   6.610   8.894 -2.2101  0.2512 -1.3789
   87MOL0     H11989   8.249   6.771   8.956  0.5938  0.0502 -0.1292
   87MOL0     H11990   6.598   6.196  10.018 -0.3119  1.7384  1.2706
   87MOL0     H11991   6.385   6.123  10.133  1.1295  0.8325  0.4755
   87MOL0     H11992   6.011   5.939  10.304  0.7008  2.4319  2.5955
   87MOL0     H11993   5.779   5.910  10.395  1.6807  1.4411  1.3937
   87MOL0     H11994   5.608   5.991  10.496 -0.0781 -0.0854 -1.0698
   87MOL0     H11995   5.571   6.161  10.457 -3.8676  1.6531  1.6322
   87MOL0     H11996   5.379   5.914  10.467  4.2989 -1.4479 -0.5433
   87MOL0     H11997   5.342   6.076  10.405  0.5634  1.5984  1.9410
   87MOL0     H11998   5.261   6.051  10.637 -0.3347  1.9883 -0.5481
   87MOL0     H11999   5.427   6.054  10.696  0.4998 -1.4653 -0.5120
   87MOL0     H12000   5.428   6.284  10.546 -0.8697  0.7182 -1.0053
   87MOL0     H12001   5.338   6.279  10.706  0.4756 -0.0634 -0.2549
   87MOL0     H12002   5.033   6.372  10.460  1.3523  3.7904 -0.3791
   87MOL0     H12003   5.643   6.193  10.103  0.7714  0.5002 -0.7443
   87MOL0     H12004   5.930   6.331  10.012 -0.3090  0.4873 -0.8843
   87MOL0     H12005   5.910   6.182   9.901  0.6238 -3.0365  2.0675
   87MOL0     H12006   5.775   6.276   9.941 -0.7541 -1.7028  1.7621
   88MOL0     O12007   0.837   2.017   8.827 -0.0985  0.1835  0.1551
   88MOL0     C12008   0.806   2.003   8.713  0.1335 -0.6687  0.0211
   88MOL0     O12009   0.901   2.011   8.612  1.0127  0.5284  0.1806
   88MOL0     C12010   1.035   2.026   8.635  0.1231 -0.2713 -0.8950
   88MOL0     C12011   1.090   2.135   8.575 -1.2092 -0.7730  0.4074
   88MOL0     C12012   1.228   2.170   8.607  0.0170  0.2600 -0.2256
   88MOL0     C12013   1.305   2.085   8.685 -0.2693  0.5937 -0.1566
   88MOL0     O12014   1.435   2.079   8.704 -0.4237 -0.6430 -0.1549
   88MOL0     C12015   1.515   2.187   8.658 -0.1545  0.4466 -0.1783
   88MOL0     C12016   1.662   2.157   8.684 -0.0256 -0.0337  1.0274
   88MOL0     C12017   1.717   2.038   8.593  0.5534 -0.0260  0.0955
   88MOL0     C12018   1.823   1.951   8.660 -0.9741  0.5269  0.6040
   88MOL0     C12019   1.950   2.037   8.680 -0.2610 -0.1242  0.0545
   88MOL0     C12020   2.074   1.958   8.722  0.5862 -0.0414 -0.0705
   88MOL0     C12021   2.196   2.043   8.710  0.2401 -0.3052 -0.2244
   88MOL0     C12022   2.314   1.953   8.750  0.3956 -0.5174 -0.1652
   88MOL0     N12023   2.445   2.016   8.736  0.4251 -0.6214 -0.9726
   88MOL0     C12024   2.486   2.055   8.614  0.3331  0.4602 -0.2533
   88MOL0     C12025   2.618   2.083   8.620 -0.1566 -0.4248 -0.5916
   88MOL0     C12026   2.712   2.088   8.505 -0.0628 -0.3982 -0.2703
   88MOL0     C12027   2.717   1.952   8.422 -0.4057 -0.0526  0.1695
   88MOL0     C12028   2.767   1.835   8.508 -1.1877  0.3921 -0.6678
   88MOL0     C12029   2.908   1.864   8.564 -0.0343  0.2479 -0.6019
   88MOL0     O12030   2.994   1.874   8.448 -0.2967 -0.1475 -0.5266
   88MOL0     C12031   3.126   1.897   8.477  0.0036 -0.3161  0.4118
   88MOL0     C12032   3.185   2.021   8.463  0.0127  0.1157 -0.5131
   88MOL0     C12033   3.320   2.046   8.491  0.0914  0.0072 -0.7731
   88MOL0     C12034   3.361   2.191   8.480 -0.6811 -0.3172 -0.3491
   88MOL0     C12035   3.407   1.946   8.536 -0.3415 -0.3888 -0.0541
   88MOL0     C12036   3.550   1.960   8.574  0.2247 -0.3469 -0.3971
   88MOL0     O12037   3.604   1.854   8.643  0.4193  0.0973 -0.0740
   88MOL0     C12038   3.736   1.863   8.687 -0.7337  0.2881 -0.1064
   88MOL0     C12039   3.819   1.759   8.637  0.5280  0.4628 -0.8770
   88MOL0     C12040   3.949   1.766   8.662  0.3723  0.2617  0.8567
   88MOL0     C12041   4.026   1.869   8.719  0.4638 -0.5407  0.0528
   88MOL0     O12042   4.159   1.881   8.730  0.1371 -0.0153  0.0088
   88MOL0     C12043   4.245   1.783   8.677 -0.0529 -0.2271  0.7200
   88MOL0     C12044   4.383   1.837   8.703 -0.8356  0.5043 -0.3549
   88MOL0     C12045   4.489   1.756   8.623 -0.3002  0.3373 -0.1597
   88MOL0     C12046   4.625   1.800   8.672 -0.0710 -0.8137  0.3031
   88MOL0     C12047   4.727   1.732   8.579  0.3574 -0.4028  0.0472
   88MOL0     C12048   4.724   1.806   8.444  0.7261 -0.4259  1.2461
   88MOL0     C12049   4.850   1.791   8.350  0.4853  0.4366 -0.5455
   88MOL0     C12050   4.832   1.889   8.223 -1.1547  0.8151 -0.2135
   88MOL0    Cl12051   4.705   1.833   8.118  0.2342  0.1342 -0.3327
   88MOL0     C12052   3.933   1.963   8.783 -0.5735 -0.5147  1.0303
   88MOL0     C12053   3.795   1.966   8.761 -0.1388 -0.3367 -0.8456
   88MOL0     O12054   3.604   2.068   8.549 -0.7033  0.4025 -0.2885
   88MOL0     C12055   3.345   1.811   8.533 -0.3669 -0.6258  0.1634
   88MOL0     C12056   3.209   1.793   8.505  0.8573  0.3353  0.0926
   88MOL0     N12057   2.653   2.070   8.763 -0.0790  0.1988  0.2095
   88MOL0     N12058   2.545   2.031   8.827  0.2527  0.1663  0.0088
   88MOL0     C12059   1.248   1.974   8.747  0.4735  0.0012  0.6119
   88MOL0     C12060   1.116   1.941   8.719  0.3745 -0.4032  0.1348
   88MOL0     C12061   0.662   1.984   8.684 -0.6667  0.2794 -0.7415
   88MOL0     C12062   0.567   2.037   8.770 -0.2763 -0.7686 -0.6522
   88MOL0     C12063   0.425   2.029   8.745  0.1352 -0.0810 -0.9110
   88MOL0     C12064   0.377   1.973   8.629  0.4312 -0.9025  0.0689
   88MOL0     O12065   0.245   1.982   8.607  0.3642  0.0764 -0.6078
   88MOL0     C12066   0.179   1.883   8.536  0.1964  0.0571  0.3404
   88MOL0     C12067   0.028   1.895   8.555 -1.0467  0.5249 -0.4387
   88MOL0     C12068   0.007   1.823   8.693  0.6653  0.7725  1.1712
   88MOL0     C12069  -0.144   1.774   8.704 -0.9696 -0.2264  0.3456
   88MOL0     C12070  -0.157   1.710   8.836 -0.0016 -0.1567 -0.4898
   88MOL0     C12071  -0.166   1.664   8.952  0.0337 -0.8266  0.4629
   88MOL0     C12072   0.469   1.912   8.540 -0.7097 -0.0235  0.4856
   88MOL0     C12073   0.610   1.907   8.575  0.5791  1.0412 -0.0589
   88MOL0     C12074   0.704   1.828   8.487 -0.5510 -0.2082  0.4438
   88MOL0     H12075   1.030   2.202   8.515 -0.0159  2.2549  2.3238
   88MOL0     H12076   1.275   2.248   8.548 -0.7428  0.3895 -0.6776
   88MOL0     H12077   1.479   2.282   8.698 -1.7443  0.4955 -1.6091
   88MOL0     H12078   1.511   2.188   8.549  0.0928 -2.8489 -0.3439
   88MOL0     H12079   1.703   2.255   8.657  0.1545 -0.3476  0.1223
   88MOL0     H12080   1.679   2.143   8.791  1.3983  0.5271  0.8944
   88MOL0     H12081   1.634   1.969   8.571 -2.4058  2.9050  1.2536
   88MOL0     H12082   1.748   2.074   8.495  1.3550 -1.8738 -0.3777
   88MOL0     H12083   1.799   1.911   8.759 -0.0359  0.8466  0.9735
   88MOL0     H12084   1.851   1.867   8.595  1.4884  1.8792 -0.2085
   88MOL0     H12085   1.930   2.120   8.749 -2.3714 -2.3909  2.3915
   88MOL0     H12086   1.971   2.081   8.582 -0.3010 -1.0879 -0.4035
   88MOL0     H12087   2.055   1.916   8.822  0.3684 -1.0813 -0.5326
   88MOL0     H12088   2.077   1.878   8.647 -0.3910  1.5075 -1.8203
   88MOL0     H12089   2.193   2.139   8.762 -0.3068 -0.3761 -0.1267
   88MOL0     H12090   2.211   2.074   8.606  0.3649  0.8705  0.1229
   88MOL0     H12091   2.303   1.933   8.857  0.5545 -0.4324 -0.1329
   88MOL0     H12092   2.312   1.860   8.692  0.4392 -0.4605 -0.2592
   88MOL0     H12093   2.427   2.041   8.524 -0.1571 -0.1113  0.1465
   88MOL0     H12094   2.813   2.112   8.541  0.5168 -4.8743  1.7724
   88MOL0     H12095   2.673   2.171   8.446 -0.2251  1.0989  1.8710
   88MOL0     H12096   2.619   1.922   8.385 -0.7911 -0.7758  1.6960
   88MOL0     H12097   2.779   1.962   8.333  0.9285  3.5955  1.3411
   88MOL0     H12098   2.688   1.833   8.584 -1.0355  1.6452 -0.4613
   88MOL0     H12099   2.769   1.740   8.454 -1.9276 -1.1310  1.8209
   88MOL0     H12100   2.917   1.960   8.616  2.2447  0.7874 -1.8564
   88MOL0     H12101   2.938   1.776   8.622 -0.9820 -0.0765 -0.5838
   88MOL0     H12102   3.115   2.101   8.438  1.1755  1.6063  0.7966
   88MOL0     H12103   3.433   2.209   8.399  1.5760 -1.5032  1.2883
   88MOL0     H12104   3.399   2.215   8.580 -1.1146  1.0677 -0.4929
   88MOL0     H12105   3.282   2.266   8.468  0.8160  1.2133 -1.1201
   88MOL0     H12106   3.775   1.671   8.591 -1.6285  0.6104  0.7920
   88MOL0     H12107   3.999   1.691   8.601 -0.4435  1.6038 -1.6217
   88MOL0     H12108   4.226   1.688   8.727 -2.8568  0.0804  0.3748
   88MOL0     H12109   4.220   1.785   8.571  1.2476  0.5713  0.4049
   88MOL0     H12110   4.388   1.938   8.660 -1.7735  0.7572  0.1106
   88MOL0     H12111   4.403   1.839   8.810  0.2042  0.5306 -0.5366
   88MOL0     H12112   4.466   1.789   8.521  1.6863  0.9679 -0.4584
   88MOL0     H12113   4.478   1.647   8.634 -0.1043  0.4011  0.6676
   88MOL0     H12114   4.632   1.774   8.778 -0.1928 -0.9282  0.2828
   88MOL0     H12115   4.638   1.908   8.664  2.3298 -1.1558 -1.4438
   88MOL0     H12116   4.821   1.734   8.636 -1.4125  2.5219  3.2291
   88MOL0     H12117   4.698   1.627   8.572 -0.1044 -0.4032  1.7503
   88MOL0     H12118   4.711   1.915   8.444  0.7737 -0.4121  0.1233
   88MOL0     H12119   4.639   1.771   8.385  1.7787  1.1388 -1.3834
   88MOL0     H12120   4.860   1.694   8.302  0.0171  0.1541 -0.0773
   88MOL0     H12121   4.945   1.804   8.403  0.0004  1.4333  0.1231
   88MOL0     H12122   4.923   1.889   8.162 -1.2646 -1.1810 -0.4455
   88MOL0     H12123   4.824   1.996   8.244  2.2723  1.2600 -0.6036
   88MOL0     H12124   3.968   2.046   8.845 -1.0861  1.1364 -0.7922
   88MOL0     H12125   3.728   2.042   8.800  0.0186 -1.9484  2.9244
   88MOL0     H12126   3.405   1.723   8.555  1.8311  0.5736 -0.7321
   88MOL0     H12127   3.168   1.692   8.506 -0.5844  0.9007  0.6219
   88MOL0     H12128   1.319   1.909   8.797  0.9475 -1.5141 -1.8828
   88MOL0     H12129   1.060   1.861   8.768 -1.5336 -0.5062 -2.0465
   88MOL0     H12130   0.597   2.087   8.861  0.1339 -1.0958 -0.6029
   88MOL0     H12131   0.357   2.076   8.816  1.7493 -0.1501  0.7592
   88MOL0     H12132   0.201   1.915   8.434 -3.2154  1.4324 -0.1016
   88MOL0     H12133   0.222   1.784   8.554  2.7638  1.0639  0.2132
   88MOL0     H12134  -0.026   1.843   8.476 -1.3689 -0.5011  0.4300
   88MOL0     H12135  -0.006   1.999   8.560  0.9423  1.1940  3.4290
   88MOL0     H12136   0.074   1.737   8.698  0.3706  0.5390  1.1382
   88MOL0     H12137   0.025   1.887   8.780  2.8303 -1.7719  2.7483
   88MOL0     H12138  -0.163   1.704   8.622  0.9117 -0.9096  0.4264
   88MOL0     H12139  -0.219   1.852   8.691  0.6744  1.2739 -0.6511
   88MOL0     H12140  -0.152   1.635   9.054 -0.5209  1.2963  1.1857
   88MOL0     H12141   0.435   1.870   8.445  0.4441 -1.6806  0.7583
   88MOL0     H12142   0.738   1.889   8.403  1.1006  0.1868  1.3374
   88MOL0     H12143   0.787   1.777   8.538 -0.0872 -1.2341 -1.2598
   88MOL0     H12144   0.656   1.745   8.433  0.1793 -0.2605 -0.1426
   89MOL0     O12145   3.773   1.876   6.759 -0.1641  0.3310  0.2652
   89MOL0     C12146   3.803   1.803   6.663  0.0967  0.2339 -0.1504
   89MOL0     O12147   3.883   1.691   6.661 -0.5280  0.3908 -1.0999
   89MOL0     C12148   3.969   1.665   6.766 -0.3669  0.1503  0.9710
   89MOL0     C12149   4.100   1.619   6.751 -0.1293  0.1151  0.7187
   89MOL0     C12150   4.181   1.593   6.849  1.4675  0.3117  0.2938
   89MOL0     C12151   4.133   1.611   6.979  0.0488  0.2722  0.1515
   89MOL0     O12152   4.209   1.588   7.085 -0.6409 -0.4621  0.5195
   89MOL0     C12153   4.321   1.494   7.086 -0.4875 -0.1981 -0.6846
   89MOL0     C12154   4.412   1.515   7.205  0.2831 -0.1903 -0.3928
   89MOL0     C12155   4.520   1.397   7.217 -0.0477 -0.2297 -0.5005
   89MOL0     C12156   4.448   1.264   7.258 -0.1382  0.7203 -0.9067
   89MOL0     C12157   4.548   1.148   7.262 -0.3256 -1.0379 -0.4637
   89MOL0     C12158   4.465   1.018   7.279 -0.7525 -0.5801  0.3786
   89MOL0     C12159   4.538   0.888   7.285 -0.3316 -0.4108 -0.0537
   89MOL0     C12160   4.453   0.772   7.337 -0.5089  0.0529 -0.2917
   89MOL0     N12161   4.426   0.787   7.484 -0.0005 -0.2539 -0.3185
   89MOL0     C12162   4.497   0.723   7.577 -0.9615  0.4375 -1.1530
   89MOL0     C12163   4.460   0.778   7.699  0.5763  0.4056  0.0520
   89MOL0     C12164   4.534   0.752   7.831 -0.4033  0.4072  0.9363
   89MOL0     C12165   4.555   0.605   7.850  0.0098 -0.2441 -0.9466
   89MOL0     C12166   4.697   0.579   7.809 -1.4493 -0.2869 -0.3282
   89MOL0     C12167   4.738   0.434   7.846 -0.6707  0.4164  0.6006
   89MOL0     O12168   4.879   0.426   7.817  0.4718 -0.1085 -0.7323
   89MOL0     C12169   4.946   0.313   7.854 -0.4253 -0.0228  0.1983
   89MOL0     C12170   4.897   0.195   7.915 -0.4010 -0.0932 -0.6021
   89MOL0     C12171   4.986   0.090   7.961  0.4897 -0.1187  0.2440
   89MOL0     C12172   4.902  -0.010   8.037  0.0934  0.6170  0.0945
   89MOL0     C12173   5.126   0.106   7.934  0.6320  0.1856  0.2220
   89MOL0     C12174   5.222  -0.002   7.963 -0.0886 -0.5222 -0.0086
   89MOL0     O12175   5.353   0.025   7.964 -0.3503 -0.3697 -0.0967
   89MOL0     C12176   5.438  -0.083   7.979  0.5732  1.2312  0.7318
   89MOL0     C12177   5.450  -0.142   8.107  0.6721  0.5557  0.7860
   89MOL0     C12178   5.556  -0.238   8.130  0.5593  0.0916  0.1221
   89MOL0     C12179   5.642  -0.276   8.028 -0.5926 -0.3083  0.2940
   89MOL0     O12180   5.734  -0.368   8.064  0.5373 -0.2927  0.0871
   89MOL0     C12181   5.841  -0.395   7.977 -0.9523  0.3809  0.8796
   89MOL0     C12182   5.934  -0.494   8.052 -0.2868  0.6610  0.5995
   89MOL0     C12183   6.076  -0.487   7.999 -0.0315  0.2295 -0.3135
   89MOL0     C12184   6.168  -0.580   8.076 -0.5606 -0.0209 -0.1613
   89MOL0     C12185   6.307  -0.567   8.019 -0.2215  0.8559 -0.0928
   89MOL0     C12186   6.414  -0.628   8.121 -0.5146 -0.5785  0.1607
   89MOL0     C12187   6.560  -0.666   8.059  0.2122 -0.6345 -0.0614
   89MOL0     C12188   6.587  -0.580   7.938 -0.7621  0.2542 -0.6030
   89MOL0    Cl12189   6.741  -0.622   7.869 -0.0022  0.0178 -0.3993
   89MOL0     C12190   5.616  -0.221   7.895 -0.2791  0.6133 -1.1509
   89MOL0     C12191   5.511  -0.139   7.874  0.6417  0.0894  0.6240
   89MOL0     O12192   5.172  -0.116   7.971 -0.8689  0.3128 -0.3532
   89MOL0     C12193   5.179   0.230   7.894 -0.4022 -0.1670  0.6858
   89MOL0     C12194   5.086   0.321   7.852 -0.3606 -1.1928 -0.6493
   89MOL0     N12195   4.355   0.865   7.675 -0.1735 -0.5194  0.2269
   89MOL0     N12196   4.336   0.868   7.538 -0.7361 -0.0174 -0.4846
   89MOL0     C12197   4.005   1.651   7.005 -0.6385  0.0669  0.0391
   89MOL0     C12198   3.927   1.683   6.898 -0.0802 -0.0646  0.1150
   89MOL0     C12199   3.736   1.828   6.534 -0.2194  0.0213  0.7273
   89MOL0     C12200   3.602   1.865   6.540 -0.0557 -0.1550  0.3364
   89MOL0     C12201   3.518   1.872   6.433  0.2356  0.6123  0.2358
   89MOL0     C12202   3.572   1.840   6.303  1.1164 -0.1468 -0.2564
   89MOL0     O12203   3.496   1.859   6.191 -0.0881  0.1298  0.0510
   89MOL0     C12204   3.366   1.918   6.194 -0.1498  0.1827 -0.0225
   89MOL0     C12205   3.366   2.073   6.188  0.4886  0.2389 -0.4308
   89MOL0     C12206   3.416   2.121   6.044  0.2847  0.1249 -0.0691
   89MOL0     C12207   3.445   2.276   6.043  0.3599  0.5970  0.0702
   89MOL0     C12208   3.329   2.357   6.077 -0.4070 -1.2604  0.1773
   89MOL0     C12209   3.250   2.440   6.109  0.1001  0.0480 -0.5045
   89MOL0     C12210   3.711   1.813   6.295 -0.4478  0.2151  0.1638
   89MOL0     C12211   3.793   1.801   6.402 -0.2784  0.4225  0.2833
   89MOL0     C12212   3.939   1.758   6.376 -0.1192  0.6843 -0.2151
   89MOL0     H12213   4.127   1.624   6.646 -1.0930  0.2649  0.4727
   89MOL0     H12214   4.283   1.564   6.826  0.9262 -2.0409  0.6597
   89MOL0     H12215   4.392   1.509   7.004  2.3856 -2.1057  1.2988
   89MOL0     H12216   4.271   1.397   7.077 -1.6101  0.1716  1.1097
   89MOL0     H12217   4.458   1.614   7.192 -1.8456  0.6393 -2.0889
   89MOL0     H12218   4.346   1.525   7.292 -0.1717  3.0668 -0.9776
   89MOL0     H12219   4.565   1.394   7.118  3.4290 -2.5344  0.9543
   89MOL0     H12220   4.591   1.420   7.297  0.7958 -0.3835 -1.1939
   89MOL0     H12221   4.408   1.279   7.359  0.0507  1.2108 -0.9039
   89MOL0     H12222   4.362   1.240   7.196 -0.0292  1.9746 -1.5735
   89MOL0     H12223   4.613   1.156   7.350  1.5030 -0.6878 -1.8067
   89MOL0     H12224   4.610   1.148   7.172 -0.2165  1.3738 -0.4638
   89MOL0     H12225   4.401   1.025   7.367 -0.9947 -2.2606  0.3758
   89MOL0     H12226   4.397   1.021   7.193 -1.3602 -0.1271  0.8698
   89MOL0     H12227   4.633   0.889   7.339  1.7762 -0.4880 -3.4658
   89MOL0     H12228   4.566   0.864   7.182  2.4080 -1.0199  0.7481
   89MOL0     H12229   4.364   0.770   7.273  0.9942 -0.8193 -2.4703
   89MOL0     H12230   4.511   0.680   7.327  1.9983  1.6148 -1.1080
   89MOL0     H12231   4.567   0.641   7.565 -3.0895 -2.0153  1.6879
   89MOL0     H12232   4.469   0.793   7.909 -1.8843  2.4613 -1.2269
   89MOL0     H12233   4.627   0.809   7.829  0.1769 -0.5257  0.8389
   89MOL0     H12234   4.532   0.572   7.952 -1.5697  0.8541 -0.9082
   89MOL0     H12235   4.490   0.552   7.780 -0.7836  3.3610 -3.1980
   89MOL0     H12236   4.721   0.600   7.704 -2.1059  0.2991 -0.3709
   89MOL0     H12237   4.750   0.650   7.873 -0.8785  0.5153 -1.6289
   89MOL0     H12238   4.722   0.419   7.953  2.4302  1.9961  1.4176
   89MOL0     H12239   4.681   0.361   7.788  0.2911  0.3583 -0.3023
   89MOL0     H12240   4.789   0.192   7.922 -0.3639  1.0648  0.7162
   89MOL0     H12241   4.837  -0.054   7.961  2.2312 -0.0141 -1.4651
   89MOL0     H12242   4.841   0.033   8.117 -3.3588 -1.9199 -0.9448
   89MOL0     H12243   4.955  -0.095   8.082 -2.3213 -0.9041  0.2573
   89MOL0     H12244   5.393  -0.111   8.195 -0.1873  0.9924  0.0938
   89MOL0     H12245   5.563  -0.270   8.234  0.3876  2.2684  0.8639
   89MOL0     H12246   5.804  -0.434   7.882 -4.3134 -1.0587  2.5708
   89MOL0     H12247   5.898  -0.304   7.960 -0.3690  0.0494  1.0292
   89MOL0     H12248   5.943  -0.472   8.159 -1.5891 -1.8101  1.3079
   89MOL0     H12249   5.899  -0.598   8.049  0.5222  0.4080 -0.7717
   89MOL0     H12250   6.120  -0.387   8.003 -1.1437  0.9576 -3.3575
   89MOL0     H12251   6.080  -0.518   7.894 -1.9202 -2.2116  0.2491
   89MOL0     H12252   6.135  -0.684   8.062  0.5156 -0.0484 -3.0763
   89MOL0     H12253   6.179  -0.562   8.184  1.1814 -2.2650  0.1244
   89MOL0     H12254   6.302  -0.632   7.932 -2.8443 -1.0543  1.3313
   89MOL0     H12255   6.331  -0.461   8.006 -0.8413  1.1590  1.0814
   89MOL0     H12256   6.379  -0.727   8.151  0.8784 -1.1417  0.0249
   89MOL0     H12257   6.429  -0.562   8.206  0.6509 -1.8878  1.0055
   89MOL0     H12258   6.553  -0.771   8.032  0.6166 -0.5539 -0.4991
   89MOL0     H12259   6.639  -0.656   8.134 -1.0609  3.3210  1.0033
   89MOL0     H12260   6.590  -0.481   7.983 -0.1164 -0.4315  0.9228
   89MOL0     H12261   6.506  -0.576   7.865 -0.4040 -1.2478 -1.1254
   89MOL0     H12262   5.690  -0.254   7.822  1.9095  1.3884  0.5947
   89MOL0     H12263   5.485  -0.097   7.778 -1.0082  0.0537  1.0250
   89MOL0     H12264   5.285   0.246   7.880 -0.1105 -2.6758 -0.5712
   89MOL0     H12265   5.120   0.414   7.809 -1.7451  0.2689  1.2119
   89MOL0     H12266   3.977   1.662   7.109  0.5638  1.5761  0.2455
   89MOL0     H12267   3.825   1.706   6.926  0.0978 -0.2391  0.9186
   89MOL0     H12268   3.557   1.891   6.635 -0.3917 -1.2027  0.4746
   89MOL0     H12269   3.414   1.894   6.453 -0.2577  1.0342 -2.3761
   89MOL0     H12270   3.320   1.875   6.105  0.3792  0.8590 -0.6351
   89MOL0     H12271   3.301   1.874   6.270 -0.1867  0.3867  0.0657
   89MOL0     H12272   3.432   2.124   6.259  1.3803 -0.7659 -0.5008
   89MOL0     H12273   3.266   2.115   6.201  0.4527 -0.0750  0.4156
   89MOL0     H12274   3.493   2.053   6.007  0.4935 -1.2038  2.5707
   89MOL0     H12275   3.343   2.105   5.964  0.1874  0.6129 -0.0829
   89MOL0     H12276   3.486   2.308   5.946  1.0549  1.6628  0.6956
   89MOL0     H12277   3.531   2.294   6.108  0.7295  0.2002 -0.3027
   89MOL0     H12278   3.187   2.521   6.139 -0.1659 -0.9472  1.9007
   89MOL0     H12279   3.753   1.782   6.201 -2.4424  0.9753 -1.0490
   89MOL0     H12280   3.959   1.664   6.429 -0.3050  1.9763  2.2644
   89MOL0     H12281   3.963   1.750   6.269 -0.9922 -0.9929 -0.3235
   89MOL0     H12282   4.006   1.834   6.416  0.4776 -1.1197  2.5180
   90MOL0     O12283   8.696   0.330   6.021 -0.4339  0.1575 -0.3999
   90MOL0     C12284   8.645   0.441   6.015  0.3597 -0.4066  0.0692
   90MOL0     O12285   8.670   0.539   5.922 -0.6810  0.0047  0.4237
   90MOL0     C12286   8.776   0.521   5.833 -1.1130  0.3561 -0.2321
   90MOL0     C12287   8.902   0.579   5.865  0.8488  0.2808 -0.1159
   90MOL0     C12288   9.004   0.566   5.770 -0.8785 -0.1588  1.0898
   90MOL0     C12289   8.996   0.505   5.638 -0.1368  0.1996 -0.1233
   90MOL0     O12290   9.109   0.516   5.564 -0.3735  0.7937 -0.4383
   90MOL0     C12291   9.123   0.427   5.453  0.0579  0.0764  0.3400
   90MOL0     C12292   9.205   0.490   5.334  0.9251 -0.0585  0.1672
   90MOL0     C12293   9.356   0.507   5.368  0.8125  1.5325  0.2393
   90MOL0     C12294   9.435   0.610   5.286  0.2435  0.3979 -0.0442
   90MOL0     C12295   9.582   0.614   5.339  0.7706  0.4325  0.0536
   90MOL0     C12296   9.660   0.487   5.308 -0.0911  0.1625 -0.2687
   90MOL0     C12297   9.809   0.478   5.360  0.6046 -0.1757 -0.3082
   90MOL0     C12298   9.885   0.358   5.314  0.6449  0.0999  0.0277
   90MOL0     N12299  10.010   0.350   5.378  0.8513 -0.3336 -0.0310
   90MOL0     C12300  10.115   0.427   5.325 -0.1109  0.4099  0.0966
   90MOL0     C12301  10.217   0.381   5.412  0.8052  0.7081  0.2194
   90MOL0     C12302  10.354   0.430   5.408  0.6116 -0.0435  0.0229
   90MOL0     C12303  10.379   0.554   5.317  0.0950 -0.0648 -0.5103
   90MOL0     C12304  10.503   0.618   5.351  1.3690  0.5210  0.6298
   90MOL0     C12305  10.632   0.536   5.389 -0.3868 -0.7250 -0.9288
   90MOL0     O12306  10.743   0.630   5.405 -0.7024 -0.3044  0.1823
   90MOL0     C12307  10.870   0.584   5.405  0.4363 -0.1690  0.5286
   90MOL0     C12308  10.914   0.452   5.411 -0.4657 -0.4043 -0.3359
   90MOL0     C12309  11.055   0.420   5.402 -0.3719  0.5138 -0.2728
   90MOL0     C12310  11.087   0.277   5.418 -0.1391  0.2122 -0.7849
   90MOL0     C12311  11.148   0.528   5.395 -0.0666  0.0118  0.0507
   90MOL0     C12312  11.294   0.514   5.409 -0.0574  0.1976 -0.4412
   90MOL0     O12313  11.360   0.625   5.396  0.2225  0.1840  0.5759
   90MOL0     C12314  11.496   0.620   5.378  0.1564  0.4376  0.3765
   90MOL0     C12315  11.545   0.654   5.262  0.7029  0.0670  0.2787
   90MOL0     C12316  11.681   0.675   5.236  0.1579  0.2834 -0.3545
   90MOL0     C12317  11.773   0.671   5.341 -0.4144  0.1822  0.5673
   90MOL0     O12318  11.911   0.687   5.325 -0.2423  0.2817  0.1538
   90MOL0     C12319  11.961   0.696   5.195 -0.1021  0.3644  0.3740
   90MOL0     C12320  12.105   0.753   5.192  0.2050 -0.4460 -0.3929
   90MOL0     C12321  12.149   0.731   5.047 -0.1520  0.1329 -0.2464
   90MOL0     C12322  12.295   0.782   5.032 -0.3734  0.1309 -0.4047
   90MOL0     C12323  12.404   0.677   5.064  0.0637  0.3286  0.8165
   90MOL0     C12324  12.390   0.551   4.981 -0.0159  0.3931 -0.9161
   90MOL0     C12325  12.507   0.466   5.024  0.0391 -0.3209  0.5035
   90MOL0     C12326  12.504   0.335   4.947  0.5632 -0.6916  0.0408
   90MOL0    Cl12327  12.568   0.361   4.783 -0.4318 -0.3314  0.0674
   90MOL0     C12328  11.725   0.625   5.460  0.7521 -0.6979 -0.3432
   90MOL0     C12329  11.590   0.604   5.488  0.2526  0.1398  0.4197
   90MOL0     O12330  11.352   0.405   5.413 -0.0341 -0.5663  0.5535
   90MOL0     C12331  11.097   0.660   5.381 -0.3113  0.2647  0.3988
   90MOL0     C12332  10.959   0.684   5.374  0.0416  0.7748  0.1797
   90MOL0     N12333  10.168   0.275   5.498  0.5100 -1.1424  0.1563
   90MOL0     N12334  10.044   0.269   5.480  0.9164  0.1414  0.7445
   90MOL0     C12335   8.867   0.453   5.602 -0.3329  0.2317 -0.3827
   90MOL0     C12336   8.769   0.460   5.701  0.3257  0.6091  0.7039
   90MOL0     C12337   8.545   0.475   6.122  0.6895 -0.4877  0.8088
   90MOL0     C12338   8.510   0.614   6.126  0.2342 -0.3295  0.3057
   90MOL0     C12339   8.434   0.659   6.232  0.1655 -0.7158 -1.0969
   90MOL0     C12340   8.375   0.572   6.339 -0.4613 -1.1547  0.3487
   90MOL0     O12341   8.292   0.628   6.439  0.5136  0.0418 -0.3784
   90MOL0     C12342   8.196   0.535   6.501  0.2705 -0.8716 -0.1649
   90MOL0     C12343   8.102   0.603   6.596  0.7376  0.1178  0.3611
   90MOL0     C12344   8.028   0.721   6.531 -0.0987 -0.0223  1.1019
   90MOL0     C12345   7.894   0.744   6.589 -0.1369  0.3989  0.3887
   90MOL0     C12346   7.871   0.884   6.631 -0.5680 -0.4369  0.4827
   90MOL0     C12347   7.844   1.001   6.655 -0.5535 -0.2226  1.0613
   90MOL0     C12348   8.417   0.433   6.326  0.5990  0.5357  0.0075
   90MOL0     C12349   8.495   0.388   6.220  0.3116  0.0379  0.5212
   90MOL0     C12350   8.531   0.237   6.231 -0.4002  0.4664 -0.6728
   90MOL0     H12351   8.917   0.632   5.959 -0.1675 -0.1304  0.2937
   90MOL0     H12352   9.103   0.599   5.800 -0.8280  0.2091  0.5356
   90MOL0     H12353   9.022   0.403   5.417 -0.4976  3.8657 -1.1611
   90MOL0     H12354   9.171   0.332   5.477  0.6038  0.7688  2.1189
   90MOL0     H12355   9.190   0.433   5.242 -0.6683  0.8579 -0.1716
   90MOL0     H12356   9.165   0.589   5.314  0.4701 -0.4485 -0.9340
   90MOL0     H12357   9.367   0.538   5.472 -2.6196  0.9330  0.8736
   90MOL0     H12358   9.402   0.410   5.350 -0.5785  0.5568  1.7188
   90MOL0     H12359   9.427   0.578   5.182 -2.2849  2.4918 -0.6300
   90MOL0     H12360   9.388   0.708   5.299  2.1289  1.4184 -0.5339
   90MOL0     H12361   9.575   0.628   5.447 -0.4126  0.7917 -0.0607
   90MOL0     H12362   9.637   0.699   5.300  0.4865 -0.7492 -3.2158
   90MOL0     H12363   9.612   0.400   5.354 -1.8103  1.2778  0.1671
   90MOL0     H12364   9.661   0.470   5.200 -1.1779 -1.7105 -0.0351
   90MOL0     H12365   9.812   0.477   5.469  1.7455  0.2045 -0.3295
   90MOL0     H12366   9.859   0.570   5.328  2.4577 -0.7624  0.7500
   90MOL0     H12367   9.830   0.268   5.344  0.9459  0.2223  0.9611
   90MOL0     H12368   9.897   0.357   5.205  1.9925 -0.8005  0.1628
   90MOL0     H12369  10.117   0.508   5.253  1.1193  0.1911 -0.1460
   90MOL0     H12370  10.415   0.344   5.378 -3.4821 -2.4202 -2.2757
   90MOL0     H12371  10.371   0.453   5.513 -1.3489 -1.8657  0.8003
   90MOL0     H12372  10.382   0.516   5.214  0.6778  0.2539 -0.6198
   90MOL0     H12373  10.296   0.625   5.320 -1.7496 -2.1138 -0.2441
   90MOL0     H12374  10.530   0.676   5.262  3.3360 -0.2414  0.6855
   90MOL0     H12375  10.482   0.687   5.434 -0.3093 -1.8423  2.3023
   90MOL0     H12376  10.608   0.477   5.477 -0.7833 -1.4789 -1.5313
   90MOL0     H12377  10.655   0.463   5.311  1.6027 -0.4644 -0.6406
   90MOL0     H12378  10.849   0.367   5.425 -0.4665 -0.4191 -0.4275
   90MOL0     H12379  11.114   0.249   5.519 -1.0556 -1.5576 -0.9942
   90MOL0     H12380  11.169   0.250   5.351  0.2743 -1.1239  0.2340
   90MOL0     H12381  11.008   0.206   5.390 -1.4974  0.9298  0.9949
   90MOL0     H12382  11.479   0.657   5.176  1.9160 -1.5635 -0.7710
   90MOL0     H12383  11.711   0.720   5.142  0.8294 -0.9702 -0.7728
   90MOL0     H12384  11.975   0.593   5.160  2.2238  0.9246 -0.5133
   90MOL0     H12385  11.896   0.744   5.122 -0.3450 -2.5688 -1.4920
   90MOL0     H12386  12.096   0.859   5.215 -1.5820 -0.1668 -2.1453
   90MOL0     H12387  12.166   0.704   5.268 -2.8656 -0.9496  1.9581
   90MOL0     H12388  12.088   0.796   4.984 -0.3148 -0.9268 -1.2155
   90MOL0     H12389  12.133   0.627   5.015  1.3472  0.4327 -2.2013
   90MOL0     H12390  12.311   0.875   5.087 -0.9601 -0.1302  0.2194
   90MOL0     H12391  12.298   0.805   4.925 -1.3852  1.9983 -0.0734
   90MOL0     H12392  12.500   0.722   5.036  2.3677 -4.6005 -0.3068
   90MOL0     H12393  12.401   0.654   5.171  0.3390 -1.2041  0.5153
   90MOL0     H12394  12.387   0.580   4.876  0.2930 -0.7610 -1.2467
   90MOL0     H12395  12.302   0.493   5.011  0.5282 -0.0470 -0.1436
   90MOL0     H12396  12.511   0.457   5.133  3.2859  0.6816  0.5619
   90MOL0     H12397  12.601   0.516   5.002  0.0276 -1.1675 -1.6679
   90MOL0     H12398  12.399   0.307   4.939  0.2179  0.3604  0.6004
   90MOL0     H12399  12.559   0.264   5.009 -0.9609  0.6534  3.1411
   90MOL0     H12400  11.788   0.608   5.546  2.6796  0.3087 -1.4778
   90MOL0     H12401  11.546   0.568   5.580 -0.1298 -0.9180 -0.1688
   90MOL0     H12402  11.161   0.746   5.365  2.8751 -2.1188 -0.8570
   90MOL0     H12403  10.916   0.783   5.364  0.8895  0.9517 -2.6336
   90MOL0     H12404   8.844   0.398   5.511 -0.2553 -0.2291 -0.1257
   90MOL0     H12405   8.666   0.432   5.677  0.3078 -1.2239  2.6196
   90MOL0     H12406   8.549   0.685   6.054 -0.6144  0.3673  0.5166
   90MOL0     H12407   8.409   0.765   6.235  1.2608 -0.4633  0.0987
   90MOL0     H12408   8.140   0.488   6.419 -0.9679 -3.0708  1.8352
   90MOL0     H12409   8.248   0.457   6.558  2.0789  1.6009  1.8031
   90MOL0     H12410   8.155   0.648   6.681 -0.3678  1.0804  0.5557
   90MOL0     H12411   8.032   0.530   6.638  0.0660  0.6767  0.2352
   90MOL0     H12412   8.095   0.808   6.540  0.6553 -0.2229 -1.7282
   90MOL0     H12413   8.020   0.705   6.423 -0.1227 -2.2104  1.3914
   90MOL0     H12414   7.861   0.676   6.669 -1.5362  0.7546  0.1290
   90MOL0     H12415   7.828   0.730   6.503  2.0013 -0.7107 -1.1557
   90MOL0     H12416   7.825   1.105   6.668  1.2912  0.5368 -1.4548
   90MOL0     H12417   8.385   0.361   6.400 -2.0996  1.3125 -0.2953
   90MOL0     H12418   8.504   0.191   6.135 -0.0095  1.8354 -1.4581
   90MOL0     H12419   8.640   0.225   6.240 -0.2784 -0.5527 -2.7189
   90MOL0     H12420   8.474   0.194   6.314  0.0196 -0.2470 -0.7426
   91MOL0     O12421   6.191   9.399   2.594 -0.5052  0.7100  0.2374
   91MOL0     C12422   6.149   9.456   2.496  0.1848 -0.0922 -0.4034
   91MOL0     O12423   6.203   9.454   2.371 -0.4465 -0.2073 -0.1787
   91MOL0     C12424   6.323   9.402   2.345 -1.1363 -1.1914 -0.5815
   91MOL0     C12425   6.335   9.267   2.342 -0.4155  0.1970  0.2836
   91MOL0     C12426   6.466   9.202   2.327  0.1733 -0.7453  0.4313
   91MOL0     C12427   6.576   9.284   2.323 -0.4136 -0.0867  0.2920
   91MOL0     O12428   6.702   9.241   2.339 -0.3452 -0.2796  0.0714
   91MOL0     C12429   6.725   9.100   2.361 -0.0908 -0.3452 -0.0102
   91MOL0     C12430   6.873   9.089   2.399  0.2510 -0.1303 -0.1238
   91MOL0     C12431   6.922   8.947   2.446 -0.1197  0.1975  0.9059
   91MOL0     C12432   7.050   8.903   2.379  1.1338  0.4198  1.1220
   91MOL0     C12433   7.112   8.777   2.426  0.3710  0.8306  0.2139
   91MOL0     C12434   7.225   8.726   2.339 -0.5217 -0.6121 -0.6496
   91MOL0     C12435   7.310   8.623   2.415  0.0759  0.3837  0.0193
   91MOL0     C12436   7.239   8.504   2.487  0.3683  0.3128  0.0388
   91MOL0     N12437   7.321   8.429   2.579  0.5998  0.6458 -0.0537
   91MOL0     C12438   7.457   8.443   2.605 -0.7006  0.6355  0.5326
   91MOL0     C12439   7.482   8.370   2.711 -0.5694 -0.0276  0.6364
   91MOL0     C12440   7.609   8.353   2.783 -0.6086 -0.0872 -0.0398
   91MOL0     C12441   7.626   8.472   2.876 -0.0412 -0.5303  1.7549
   91MOL0     C12442   7.743   8.429   2.966  0.5554 -0.3172 -0.9077
   91MOL0     C12443   7.796   8.549   3.047 -0.7499  0.5329  0.0503
   91MOL0     O12444   7.891   8.611   2.962  0.1511  0.1602  0.0221
   91MOL0     C12445   8.026   8.579   2.946  0.1040 -0.3743 -0.1411
   91MOL0     C12446   8.104   8.672   2.878  0.5755  0.2084  0.0293
   91MOL0     C12447   8.239   8.648   2.839 -0.2079 -0.2303 -0.2048
   91MOL0     C12448   8.312   8.773   2.780 -0.5446 -0.5374 -0.1255
   91MOL0     C12449   8.294   8.527   2.891 -0.2082  0.9957  0.3067
   91MOL0     C12450   8.435   8.485   2.859 -0.1142 -0.4639  0.0536
   91MOL0     O12451   8.463   8.347   2.883  0.2667  0.2624  0.1732
   91MOL0     C12452   8.590   8.306   2.839  0.6223  0.3072 -0.1201
   91MOL0     C12453   8.620   8.296   2.702 -0.1354  0.7169 -0.3751
   91MOL0     C12454   8.751   8.263   2.666  0.2285  1.1431 -0.6967
   91MOL0     C12455   8.850   8.232   2.766 -0.5412  0.8525 -0.4410
   91MOL0     O12456   8.979   8.212   2.728  0.0338 -0.7384  0.0869
   91MOL0     C12457   9.084   8.276   2.799  0.1209  0.2800 -0.6281
   91MOL0     C12458   9.220   8.280   2.729  0.0654  0.1416 -0.1679
   91MOL0     C12459   9.309   8.404   2.765  0.3261 -0.0221 -0.4155
   91MOL0     C12460   9.444   8.395   2.705  0.2403 -0.6748 -0.2401
   91MOL0     C12461   9.509   8.537   2.706 -0.2086  0.0118 -0.3624
   91MOL0     C12462   9.654   8.518   2.638  0.4061 -0.1050  0.5128
   91MOL0     C12463   9.699   8.659   2.597  1.1059  0.9906  1.3040
   91MOL0     C12464   9.841   8.679   2.633 -0.4900  0.7663  1.0925
   91MOL0    Cl12465   9.867   8.681   2.811 -0.0749  0.1987 -0.1749
   91MOL0     C12466   8.818   8.257   2.898  0.2964  0.1538 -0.5523
   91MOL0     C12467   8.685   8.280   2.932 -0.8157  0.5017  0.4292
   91MOL0     O12468   8.520   8.565   2.811 -0.2298 -0.0488 -0.0602
   91MOL0     C12469   8.221   8.437   2.968  0.3761 -0.7623  0.6010
   91MOL0     C12470   8.085   8.459   2.981 -0.0728  0.0501 -0.5117
   91MOL0     N12471   7.363   8.319   2.760  0.3253  0.0174  0.1925
   91MOL0     N12472   7.265   8.356   2.682 -0.1430 -0.5292 -0.2971
   91MOL0     C12473   6.562   9.424   2.322  0.8014  0.5214  0.2357
   91MOL0     C12474   6.434   9.484   2.323  0.0931  0.0917  0.2636
   91MOL0     C12475   6.013   9.502   2.517 -0.2740 -0.5788 -0.0462
   91MOL0     C12476   5.936   9.536   2.406 -0.1684  0.3267  0.0434
   91MOL0     C12477   5.808   9.590   2.392  0.6649  0.5466 -0.2331
   91MOL0     C12478   5.735   9.608   2.513 -0.3477  0.0490  0.4020
   91MOL0     O12479   5.607   9.652   2.516  0.7157  0.8468  0.5178
   91MOL0     C12480   5.526   9.635   2.391 -0.4732 -0.2070 -0.8004
   91MOL0     C12481   5.382   9.668   2.422  0.2512 -0.3081 -0.2446
   91MOL0     C12482   5.363   9.818   2.476 -0.3654  0.5310 -0.1119
   91MOL0     C12483   5.411   9.918   2.371 -0.5508  0.1184  1.3414
   91MOL0     C12484   5.375  10.056   2.390  0.5260 -0.5127 -0.1114
   91MOL0     C12485   5.366  10.180   2.397  0.6083 -0.5549 -0.3680
   91MOL0     C12486   5.805   9.577   2.629  0.2398  0.0879 -0.3344
   91MOL0     C12487   5.943   9.528   2.637 -0.7078 -0.4830 -0.7781
   91MOL0     C12488   5.998   9.497   2.771  0.1674  0.2999 -0.2759
   91MOL0     H12489   6.251   9.198   2.351  1.4220 -1.8949  3.4161
   91MOL0     H12490   6.483   9.096   2.310  0.2116 -0.7582  0.5537
   91MOL0     H12491   6.705   9.028   2.282 -2.5784 -1.3578  1.4369
   91MOL0     H12492   6.677   9.071   2.455  2.8047 -0.1383  1.6582
   91MOL0     H12493   6.925   9.109   2.306 -1.1573  1.6561 -0.5742
   91MOL0     H12494   6.897   9.172   2.467 -2.2001  1.0217 -0.5589
   91MOL0     H12495   6.936   8.941   2.555  0.9575  1.6095  0.8798
   91MOL0     H12496   6.845   8.876   2.416  0.3205  0.8793 -2.1009
   91MOL0     H12497   7.019   8.882   2.276  0.6411 -0.1949  1.3916
   91MOL0     H12498   7.119   8.987   2.370 -0.1729  1.3044 -2.4310
   91MOL0     H12499   7.034   8.701   2.443 -0.4662  1.6637  0.1641
   91MOL0     H12500   7.153   8.796   2.526 -1.2481  0.8065  0.9206
   91MOL0     H12501   7.185   8.681   2.248 -3.0466 -1.7731  0.9309
   91MOL0     H12502   7.292   8.807   2.307 -1.3834  0.1611 -0.5335
   91MOL0     H12503   7.363   8.676   2.494  0.5017  0.1385 -0.1027
   91MOL0     H12504   7.386   8.575   2.354 -0.3818 -1.1054  0.5694
   91MOL0     H12505   7.147   8.534   2.539  0.2506  0.0052  0.0094
   91MOL0     H12506   7.204   8.443   2.404 -0.2597  2.0209 -1.0074
   91MOL0     H12507   7.530   8.505   2.555 -1.5204  0.2746 -1.1927
   91MOL0     H12508   7.701   8.339   2.726 -0.5648  0.9168 -0.2354
   91MOL0     H12509   7.604   8.258   2.838  1.2270 -2.4509 -3.5074
   91MOL0     H12510   7.653   8.563   2.820 -1.9889 -0.7462  0.3265
   91MOL0     H12511   7.536   8.481   2.938 -0.7411 -1.3288  0.8878
   91MOL0     H12512   7.714   8.349   3.035 -0.2815 -1.2214 -2.2440
   91MOL0     H12513   7.825   8.387   2.907 -1.0471 -2.2192 -1.9138
   91MOL0     H12514   7.724   8.619   3.091  0.8927  1.6374  1.0748
   91MOL0     H12515   7.852   8.528   3.139  2.9257  1.9425 -1.6794
   91MOL0     H12516   8.067   8.769   2.848  1.5283  1.2058  1.9249
   91MOL0     H12517   8.238   8.839   2.735 -0.9761  1.7689  3.6449
   91MOL0     H12518   8.401   8.751   2.720  1.0488  0.9872  1.5645
   91MOL0     H12519   8.347   8.833   2.864  0.5790  0.1423 -1.0496
   91MOL0     H12520   8.537   8.307   2.632 -1.0544  0.7331  0.6917
   91MOL0     H12521   8.769   8.247   2.560 -0.6544  0.2699 -0.7361
   91MOL0     H12522   9.053   8.380   2.817 -0.5956 -0.1101  0.5414
   91MOL0     H12523   9.102   8.225   2.894  2.3843  0.4453 -0.9141
   91MOL0     H12524   9.269   8.182   2.734  0.2951  0.2335 -0.5788
   91MOL0     H12525   9.210   8.301   2.622  1.0973 -0.8575 -0.4805
   91MOL0     H12526   9.321   8.404   2.874 -3.6512  0.6739  0.1548
   91MOL0     H12527   9.266   8.499   2.730 -2.2025 -0.9112  0.0825
   91MOL0     H12528   9.444   8.354   2.604  3.5704 -2.8578  0.4856
   91MOL0     H12529   9.509   8.329   2.763 -0.1118 -0.8007  0.0153
   91MOL0     H12530   9.449   8.621   2.670 -1.5119 -0.8018 -0.1325
   91MOL0     H12531   9.533   8.565   2.809 -0.0203 -0.4235 -0.2861
   91MOL0     H12532   9.646   8.448   2.555 -1.2259  0.3504  0.2588
   91MOL0     H12533   9.725   8.473   2.708 -0.0025 -1.6413 -0.0348
   91MOL0     H12534   9.633   8.735   2.640  0.8089  1.3346  0.2756
   91MOL0     H12535   9.678   8.658   2.490 -0.8305 -0.0710  1.6438
   91MOL0     H12536   9.880   8.768   2.584  0.1959 -0.0160  0.1888
   91MOL0     H12537   9.886   8.593   2.582 -1.8026  0.3607  0.5854
   91MOL0     H12538   8.887   8.258   2.983 -2.1594  0.8111  1.5495
   91MOL0     H12539   8.664   8.296   3.037  2.2639  0.4483  1.1222
   91MOL0     H12540   8.276   8.353   3.010  0.2497  0.0174  2.4119
   91MOL0     H12541   8.037   8.381   3.039 -0.1145 -0.7281 -1.5636
   91MOL0     H12542   6.648   9.488   2.338  2.8226 -1.9065 -0.3175
   91MOL0     H12543   6.418   9.591   2.323  0.5259  0.2525  3.0662
   91MOL0     H12544   5.981   9.526   2.307 -0.7762 -0.3105 -0.1757
   91MOL0     H12545   5.779   9.606   2.289  0.9983  1.0966 -0.2466
   91MOL0     H12546   5.562   9.702   2.312  2.2481 -0.2349  0.3119
   91MOL0     H12547   5.533   9.531   2.358 -0.7877 -0.6998  0.6153
   91MOL0     H12548   5.336   9.601   2.496 -0.7794 -0.0977 -0.6799
   91MOL0     H12549   5.327   9.649   2.329 -0.1140 -0.1544 -0.0619
   91MOL0     H12550   5.255   9.833   2.486 -0.4381 -0.0741  0.0339
   91MOL0     H12551   5.416   9.825   2.571  0.0811 -0.0098 -0.3167
   91MOL0     H12552   5.403   9.876   2.270  4.0164 -0.2851  0.9567
   91MOL0     H12553   5.520   9.924   2.374 -0.4670 -0.3099  0.0182
   91MOL0     H12554   5.363  10.286   2.408  0.4209 -0.2976 -2.5455
   91MOL0     H12555   5.756   9.587   2.725  1.3154  2.2759  0.0627
   91MOL0     H12556   5.976   9.395   2.806  2.8902 -0.9194 -1.8162
   91MOL0     H12557   6.104   9.517   2.783  0.5715 -1.7730 -0.0421
   91MOL0     H12558   5.937   9.552   2.843  1.0152  2.0056 -0.8232
   92MOL0     O12559   0.095   9.827   3.236  0.9289  0.9700 -0.0821
   92MOL0     C12560  -0.014   9.823   3.291  0.7834 -0.7307 -0.2886
   92MOL0     O12561  -0.044   9.807   3.423  0.7915  1.4376 -0.5891
   92MOL0     C12562   0.066   9.767   3.499  0.8013  0.2319  0.1564
   92MOL0     C12563   0.139   9.644   3.486  0.6727 -0.1657 -0.5415
   92MOL0     C12564   0.237   9.608   3.582 -0.3256  0.0347  0.0520
   92MOL0     C12565   0.263   9.684   3.689 -0.6621 -0.3755  0.0955
   92MOL0     O12566   0.363   9.632   3.771  0.3881 -0.3974  0.3563
   92MOL0     C12567   0.385   9.695   3.893 -0.9552 -0.0978  0.1535
   92MOL0     C12568   0.496   9.623   3.962  0.0333  0.1847  0.4306
   92MOL0     C12569   0.456   9.475   3.983  0.1949 -0.4333  0.8739
   92MOL0     C12570   0.535   9.407   4.094  0.6411  0.2081  0.5539
   92MOL0     C12571   0.509   9.255   4.128 -0.3933 -0.2697  0.1679
   92MOL0     C12572   0.472   9.165   4.005 -0.0556 -0.9919 -0.5144
   92MOL0     C12573   0.591   9.152   3.909  0.4782 -0.1715  0.6076
   92MOL0     C12574   0.643   9.018   3.931 -0.4127  0.0160 -0.7973
   92MOL0     N12575   0.765   8.997   3.856  0.5451  0.3371 -1.0055
   92MOL0     C12576   0.885   9.041   3.910 -0.0922  0.4209 -0.4460
   92MOL0     C12577   0.975   8.997   3.814  0.1173  0.6421  0.1754
   92MOL0     C12578   1.120   9.024   3.816  0.2900  0.1717 -0.6649
   92MOL0     C12579   1.197   8.896   3.781 -0.9620 -0.1519 -0.0483
   92MOL0     C12580   1.348   8.904   3.801  0.6797  1.0779  0.3361
   92MOL0     C12581   1.402   9.039   3.774 -0.2963 -0.4093  0.4480
   92MOL0     O12582   1.551   9.040   3.783  0.1527 -0.1681  0.4093
   92MOL0     C12583   1.607   9.169   3.773  0.6776  0.2990 -0.4688
   92MOL0     C12584   1.741   9.181   3.807  0.3474 -0.2197 -0.3765
   92MOL0     C12585   1.807   9.304   3.817 -0.3259 -0.3487  0.1331
   92MOL0     C12586   1.959   9.294   3.856  0.4086  0.5358 -0.1946
   92MOL0     C12587   1.729   9.422   3.789 -0.5033  0.4018 -0.5267
   92MOL0     C12588   1.787   9.563   3.799 -0.3825 -0.4150  0.2351
   92MOL0     O12589   1.716   9.671   3.746  0.0614 -0.1300 -0.5280
   92MOL0     C12590   1.786   9.785   3.706 -0.1464  0.6084 -0.6564
   92MOL0     C12591   1.732   9.914   3.728 -0.2885 -0.1812 -0.5627
   92MOL0     C12592   1.794  10.030   3.682 -0.8648  0.0424  0.3757
   92MOL0     C12593   1.916  10.020   3.608 -0.0081 -0.4508 -0.4204
   92MOL0     O12594   1.954  10.136   3.532 -0.2249  0.7156  0.1502
   92MOL0     C12595   2.020  10.104   3.408  0.4234 -0.2303 -0.3747
   92MOL0     C12596   2.042  10.235   3.335  0.2604  0.9205 -0.0089
   92MOL0     C12597   2.121  10.220   3.204 -0.0432 -0.5988  0.7124
   92MOL0     C12598   2.179  10.361   3.170  0.7502  0.3259 -0.3141
   92MOL0     C12599   2.265  10.363   3.043 -0.6686 -1.2977 -0.1481
   92MOL0     C12600   2.204  10.306   2.909 -0.2031  0.4039  0.6340
   92MOL0     C12601   2.056  10.355   2.879 -0.8504  0.0385  0.8688
   92MOL0     C12602   2.053  10.499   2.834  1.0052  0.2159  0.1793
   92MOL0    Cl12603   2.048  10.624   2.955  0.0863 -0.0217  0.1367
   92MOL0     C12604   1.970   9.889   3.592 -0.2553 -0.4756 -0.4641
   92MOL0     C12605   1.910   9.779   3.645  1.2149  0.1005 -0.0274
   92MOL0     O12606   1.884   9.573   3.863 -0.1555  0.3630  0.7545
   92MOL0     C12607   1.597   9.406   3.748  0.8886  0.3312 -0.3270
   92MOL0     C12608   1.533   9.284   3.730 -0.4301 -0.6101  0.0843
   92MOL0     N12609   0.905   8.932   3.706  0.0946  0.0274  0.0109
   92MOL0     N12610   0.783   8.916   3.751 -0.8242  0.0914 -0.0938
   92MOL0     C12611   0.198   9.807   3.705  0.1699 -0.5957  1.2641
   92MOL0     C12612   0.101   9.852   3.610 -0.1393  0.5724  0.4426
   92MOL0     C12613  -0.128   9.843   3.195 -1.1002  0.7681  0.3990
   92MOL0     C12614  -0.101   9.905   3.068  0.4312  0.7722  0.3324
   92MOL0     C12615  -0.206   9.942   2.983  0.1315 -0.2379  0.7346
   92MOL0     C12616  -0.337   9.917   3.015  0.2532 -0.4229 -0.0674
   92MOL0     O12617  -0.449   9.946   2.944 -0.3233 -0.1063  0.8393
   92MOL0     C12618  -0.444  10.009   2.812  0.3214 -0.6734 -0.1468
   92MOL0     C12619  -0.425  10.158   2.832  0.9075  0.8285 -0.5644
   92MOL0     C12620  -0.524  10.218   2.937 -0.6617  0.0369 -0.7584
   92MOL0     C12621  -0.494  10.365   2.976 -0.4706 -0.6601  0.0684
   92MOL0     C12622  -0.461  10.442   2.860  0.3924 -0.8268  0.5062
   92MOL0     C12623  -0.424  10.496   2.758 -0.8950 -0.1098  1.0496
   92MOL0     C12624  -0.361   9.860   3.139 -0.1961  1.2007 -0.2177
   92MOL0     C12625  -0.265   9.820   3.228 -0.3906  0.2507 -1.1721
   92MOL0     C12626  -0.317   9.754   3.357 -0.2964 -0.3453 -0.4721
   92MOL0     H12627   0.112   9.569   3.412  0.9812 -1.3711  0.5342
   92MOL0     H12628   0.289   9.512   3.574  0.5094  0.4298  0.5435
   92MOL0     H12629   0.295   9.696   3.956  0.3052  2.5189  2.1294
   92MOL0     H12630   0.423   9.796   3.873  1.2589 -0.7369  0.8384
   92MOL0     H12631   0.584   9.625   3.897 -0.1024  1.6073  0.2653
   92MOL0     H12632   0.526   9.674   4.054  2.7865 -0.8187  0.1887
   92MOL0     H12633   0.349   9.474   4.005  0.2514  0.9273  1.2959
   92MOL0     H12634   0.469   9.420   3.889  3.0246  0.9810  0.3142
   92MOL0     H12635   0.641   9.412   4.068  0.4523 -1.6641 -0.7921
   92MOL0     H12636   0.513   9.474   4.177  0.1225 -0.2572  0.8000
   92MOL0     H12637   0.433   9.243   4.205  0.0924 -2.0771  0.4190
   92MOL0     H12638   0.606   9.222   4.166 -0.3135 -1.1024 -0.7157
   92MOL0     H12639   0.442   9.064   4.034  0.3830 -0.4136  2.2455
   92MOL0     H12640   0.393   9.221   3.954 -0.0619  1.2512  1.7212
   92MOL0     H12641   0.674   9.222   3.923  1.2307 -0.6254 -1.2931
   92MOL0     H12642   0.557   9.159   3.806  0.4174  4.9913  0.7113
   92MOL0     H12643   0.662   8.998   4.037 -0.5250  1.5089 -0.4765
   92MOL0     H12644   0.571   8.949   3.886  0.2714 -0.9895 -0.4077
   92MOL0     H12645   0.916   9.088   4.003 -0.0010  1.3031 -0.9056
   92MOL0     H12646   1.155   9.053   3.916  1.9532 -0.9151 -0.8983
   92MOL0     H12647   1.145   9.099   3.740  1.0379 -2.2344 -2.9163
   92MOL0     H12648   1.161   8.809   3.837  0.1732 -1.7174 -1.6440
   92MOL0     H12649   1.175   8.872   3.676  1.3240 -0.6913 -0.4705
   92MOL0     H12650   1.372   8.881   3.905 -1.6377 -0.7087  0.5617
   92MOL0     H12651   1.393   8.827   3.737  0.7091  0.6720  0.8405
   92MOL0     H12652   1.370   9.059   3.671 -0.7823  0.8008  0.8182
   92MOL0     H12653   1.359   9.119   3.835  1.0069  0.0644  0.7864
   92MOL0     H12654   1.810   9.098   3.818  1.1423 -0.2022 -3.9427
   92MOL0     H12655   2.010   9.211   3.805 -0.2682 -0.3247  0.4910
   92MOL0     H12656   1.976   9.276   3.962  1.3919 -2.3441 -0.7388
   92MOL0     H12657   2.017   9.378   3.819 -0.7534  0.8669 -1.3628
   92MOL0     H12658   1.629   9.917   3.760 -0.5965 -2.0480 -1.2491
   92MOL0     H12659   1.764  10.133   3.696 -0.9477 -0.2619  2.9131
   92MOL0     H12660   2.116  10.064   3.440  0.3197 -2.1590 -2.2785
   92MOL0     H12661   1.963  10.034   3.346 -1.7809 -1.0364  2.3850
   92MOL0     H12662   1.945  10.271   3.299  0.1479 -1.0883 -1.9253
   92MOL0     H12663   2.097  10.302   3.402  3.2139  0.8084 -2.1320
   92MOL0     H12664   2.066  10.177   3.121  0.0485 -1.0201  0.8658
   92MOL0     H12665   2.206  10.151   3.213  0.6682  0.2528  0.6291
   92MOL0     H12666   2.239  10.389   3.257 -0.7899 -0.7453  1.1697
   92MOL0     H12667   2.093  10.429   3.166  2.2454  2.3470  0.4517
   92MOL0     H12668   2.284  10.469   3.023 -0.7863 -1.3291 -0.4395
   92MOL0     H12669   2.366  10.326   3.065 -0.2658  0.0099  0.2553
   92MOL0     H12670   2.211  10.197   2.908 -0.1038  0.3886  1.6919
   92MOL0     H12671   2.267  10.341   2.827  1.0898 -0.0576  1.3943
   92MOL0     H12672   1.998  10.357   2.971 -0.0567  3.9301  1.4390
   92MOL0     H12673   2.005  10.305   2.796  0.6013 -1.1967  0.6718
   92MOL0     H12674   1.956  10.520   2.789  0.6554  1.6872  1.5432
   92MOL0     H12675   2.133  10.523   2.763  1.7739 -0.7561  0.7012
   92MOL0     H12676   2.053   9.859   3.528  1.4114  0.2788  1.2404
   92MOL0     H12677   1.949   9.677   3.642 -0.8418 -0.7179 -1.3072
   92MOL0     H12678   1.541   9.498   3.734  0.4728  0.0701 -0.4036
   92MOL0     H12679   1.435   9.291   3.684  0.7492  0.0968 -2.4795
   92MOL0     H12680   0.232   9.875   3.782  2.0379 -0.8276  0.6887
   92MOL0     H12681   0.065   9.954   3.600  0.8369  0.8966  0.0157
   92MOL0     H12682  -0.002   9.929   3.030  0.8399  0.6929  1.3272
   92MOL0     H12683  -0.189  10.002   2.893 -0.3368  0.0023  0.8042
   92MOL0     H12684  -0.361   9.982   2.747 -0.1492  0.1893 -1.1384
   92MOL0     H12685  -0.541   9.988   2.765 -0.5034  0.6598  0.8815
   92MOL0     H12686  -0.452  10.215   2.743 -2.9995 -0.0747 -0.1240
   92MOL0     H12687  -0.322  10.182   2.862  0.6902  0.7690  0.2500
   92MOL0     H12688  -0.630  10.217   2.910 -0.5662  1.3382 -1.2882
   92MOL0     H12689  -0.515  10.153   3.025 -0.1492  0.0747 -0.7810
   92MOL0     H12690  -0.413  10.360   3.049 -1.2030 -0.9571  0.8787
   92MOL0     H12691  -0.577  10.413   3.029  0.1898 -0.3925  0.8708
   92MOL0     H12692  -0.391  10.533   2.663 -1.0632  1.8227  1.6962
   92MOL0     H12693  -0.465   9.839   3.163  0.3891  0.4368  1.8107
   92MOL0     H12694  -0.307   9.645   3.368  2.3053 -0.0887  0.4937
   92MOL0     H12695  -0.283   9.815   3.442 -0.8860  1.4957 -1.5038
   92MOL0     H12696  -0.424   9.776   3.361 -0.0153  1.3173 -1.4071
   93MOL0     O12697   1.099   1.500   8.604  0.1402  0.4804 -0.2056
   93MOL0     C12698   1.069   1.554   8.705 -0.3944  0.9506  0.1182
   93MOL0     O12699   1.155   1.594   8.801 -0.6272  0.4114 -0.1730
   93MOL0     C12700   1.297   1.572   8.789  0.4076 -0.1873  0.5084
   93MOL0     C12701   1.373   1.649   8.692 -0.1222 -0.0543 -1.1913
   93MOL0     C12702   1.505   1.628   8.688 -0.9684  0.0991 -1.1497
   93MOL0     C12703   1.576   1.553   8.775 -0.7926  0.3595 -0.3312
   93MOL0     O12704   1.713   1.563   8.769 -0.6885 -0.0821 -0.1507
   93MOL0     C12705   1.791   1.500   8.878  0.1504 -0.7038 -0.7372
   93MOL0     C12706   1.939   1.515   8.859 -0.8480  0.4729  0.5162
   93MOL0     C12707   2.001   1.437   8.736 -0.3729 -0.3818  0.8617
   93MOL0     C12708   2.015   1.523   8.607  0.0341 -0.2980 -0.1555
   93MOL0     C12709   2.053   1.444   8.483  0.2366 -0.5824 -0.1987
   93MOL0     C12710   1.944   1.348   8.427  0.0399 -0.0258 -0.5975
   93MOL0     C12711   1.987   1.320   8.286 -0.4967  0.6777 -0.4400
   93MOL0     C12712   1.891   1.215   8.214  0.0741 -0.5700 -0.0057
   93MOL0     N12713   1.758   1.269   8.201 -0.6719  0.8532  0.4291
   93MOL0     C12714   1.648   1.248   8.280 -0.5791 -0.7175 -0.9555
   93MOL0     C12715   1.539   1.306   8.218  0.0688 -0.5838  0.3174
   93MOL0     C12716   1.393   1.311   8.251  0.4813  0.7490 -0.3394
   93MOL0     C12717   1.333   1.240   8.372 -0.4794  0.7610  0.6503
   93MOL0     C12718   1.367   1.296   8.514 -0.6655  0.2855 -0.6648
   93MOL0     C12719   1.332   1.204   8.629 -0.5420  0.6154 -0.2225
   93MOL0     O12720   1.390   1.066   8.615  0.3555  0.1712  0.4797
   93MOL0     C12721   1.521   1.045   8.623 -0.0141  0.3749 -0.7652
   93MOL0     C12722   1.574   0.922   8.593 -0.0523  0.4541 -0.1187
   93MOL0     C12723   1.715   0.909   8.602 -0.7288 -0.1691  0.0245
   93MOL0     C12724   1.763   0.765   8.573 -0.4555 -0.3391 -0.8001
   93MOL0     C12725   1.808   1.013   8.647  0.5749  0.4297  0.6227
   93MOL0     C12726   1.953   1.001   8.647 -1.0947 -0.4650 -0.1666
   93MOL0     O12727   2.026   1.091   8.720 -0.0029  0.2143  0.7220
   93MOL0     C12728   2.152   1.061   8.759 -0.4262 -0.1128 -0.8995
   93MOL0     C12729   2.262   1.104   8.691 -0.0813  0.7035  0.0638
   93MOL0     C12730   2.386   1.071   8.728 -0.1922  0.5052 -0.6932
   93MOL0     C12731   2.408   0.996   8.850 -0.0708 -0.1816  0.6074
   93MOL0     O12732   2.532   0.950   8.894  0.1580  0.2248  0.8962
   93MOL0     C12733   2.640   1.042   8.908 -0.1030 -0.8428 -0.0161
   93MOL0     C12734   2.622   1.140   9.028 -0.8836 -1.0494 -1.0871
   93MOL0     C12735   2.747   1.220   9.075  0.6973 -0.1680  0.4046
   93MOL0     C12736   2.729   1.337   9.176  0.6879  0.3095  0.0926
   93MOL0     C12737   2.864   1.373   9.239  1.1982 -0.1059 -0.4993
   93MOL0     C12738   2.987   1.383   9.144 -0.3210  0.2190 -0.2614
   93MOL0     C12739   3.116   1.387   9.233 -0.3843 -0.6775  0.0636
   93MOL0     C12740   3.247   1.437   9.159  0.1795 -0.0125  0.7887
   93MOL0    Cl12741   3.368   1.436   9.283 -0.3952 -0.2153  0.0181
   93MOL0     C12742   2.293   0.955   8.921 -0.2625  0.0607  0.4338
   93MOL0     C12743   2.166   0.982   8.876  0.5791 -0.6903  0.0941
   93MOL0     O12744   2.007   0.904   8.591 -0.0966 -1.5064 -0.3347
   93MOL0     C12745   1.746   1.130   8.695 -0.4515 -0.3946 -0.2675
   93MOL0     C12746   1.608   1.149   8.680 -0.0278  0.7198 -0.6170
   93MOL0     N12747   1.593   1.358   8.098  0.9248  0.2197  0.2471
   93MOL0     N12748   1.716   1.330   8.089  0.2910  0.2742 -0.7319
   93MOL0     C12749   1.500   1.482   8.866  0.0333  0.3624  0.3038
   93MOL0     C12750   1.364   1.486   8.876 -0.0197 -0.3476 -0.2348
   93MOL0     C12751   0.923   1.574   8.738  0.3717  0.4200 -0.7494
   93MOL0     C12752   0.903   1.610   8.872  1.2646  0.2623 -0.4133
   93MOL0     C12753   0.774   1.614   8.921 -0.5148  1.7285  0.5341
   93MOL0     C12754   0.667   1.559   8.854 -0.9288 -0.3522  1.2673
   93MOL0     O12755   0.547   1.548   8.912  0.5863  0.9462 -0.2705
   93MOL0     C12756   0.489   1.676   8.936 -0.4430 -0.6601  0.2938
   93MOL0     C12757   0.339   1.658   8.934  0.2387  0.0301 -0.2401
   93MOL0     C12758   0.289   1.574   9.050  0.3736  0.3790  0.6226
   93MOL0     C12759   0.136   1.553   9.031 -0.0623  0.7959  0.8717
   93MOL0     C12760   0.087   1.434   9.092 -0.1330 -0.2703 -0.0172
   93MOL0     C12761   0.038   1.338   9.144  0.0412  0.2103 -0.2190
   93MOL0     C12762   0.692   1.521   8.717  0.3073  0.2989  0.0265
   93MOL0     C12763   0.821   1.530   8.655  0.6128 -0.1915 -0.9929
   93MOL0     C12764   0.824   1.485   8.516 -0.3833  0.1269  1.1164
   93MOL0     H12765   1.328   1.723   8.626 -2.1905  2.8625  3.0365
   93MOL0     H12766   1.557   1.694   8.619  0.9621  0.4707  0.5708
   93MOL0     H12767   1.763   1.396   8.893  0.7594 -0.4243  3.5490
   93MOL0     H12768   1.772   1.550   8.974  1.6921 -4.2773  1.6322
   93MOL0     H12769   1.956   1.622   8.853 -0.0645  0.6031  3.7164
   93MOL0     H12770   1.998   1.479   8.944 -0.1267  1.2298  0.3392
   93MOL0     H12771   2.099   1.402   8.768  0.4355  1.8783  1.0423
   93MOL0     H12772   1.938   1.356   8.698 -0.6870  0.4981 -0.5860
   93MOL0     H12773   1.922   1.577   8.590 -0.4727 -0.6782  1.2592
   93MOL0     H12774   2.103   1.588   8.610 -0.4180  0.4495 -1.8087
   93MOL0     H12775   2.143   1.385   8.508  2.5998  1.1999 -3.6828
   93MOL0     H12776   2.081   1.514   8.404 -4.2446 -0.0821 -1.6233
   93MOL0     H12777   1.945   1.265   8.499  1.2797  1.5139  1.2586
   93MOL0     H12778   1.845   1.393   8.421  0.9109  2.2010  0.6519
   93MOL0     H12779   2.089   1.282   8.287 -0.3316  1.1144  0.5752
   93MOL0     H12780   1.985   1.411   8.225 -3.2198  0.5724 -0.6422
   93MOL0     H12781   1.938   1.203   8.116  1.5574 -0.9649  0.7130
   93MOL0     H12782   1.880   1.120   8.267 -3.3468  0.2307  0.9801
   93MOL0     H12783   1.654   1.196   8.375 -0.3486 -0.3183 -0.7529
   93MOL0     H12784   1.344   1.268   8.163  1.3735 -1.3424  0.1315
   93MOL0     H12785   1.372   1.418   8.259  0.5868  0.6614  1.7823
   93MOL0     H12786   1.225   1.243   8.358 -0.4916 -0.3813  0.3854
   93MOL0     H12787   1.358   1.134   8.373  2.4208  1.3686  0.9407
   93MOL0     H12788   1.472   1.327   8.520 -0.3489 -0.9774  2.0015
   93MOL0     H12789   1.312   1.391   8.515  0.3275  0.8912  1.2246
   93MOL0     H12790   1.348   1.254   8.725 -5.4706 -3.8140  3.4998
   93MOL0     H12791   1.223   1.205   8.620 -0.5740  0.7756  0.1505
   93MOL0     H12792   1.509   0.849   8.547  0.4665 -0.3374  0.3772
   93MOL0     H12793   1.820   0.733   8.661 -1.5187 -0.8693 -0.2775
   93MOL0     H12794   1.832   0.762   8.489  2.2798  2.8669  1.0836
   93MOL0     H12795   1.683   0.693   8.556  0.7138 -2.1791  1.0048
   93MOL0     H12796   2.255   1.156   8.596 -2.2841 -0.7302 -0.6469
   93MOL0     H12797   2.467   1.097   8.661 -1.0980  0.7092 -1.7462
   93MOL0     H12798   2.725   0.978   8.933  2.6007  2.8329  0.9848
   93MOL0     H12799   2.666   1.101   8.820  0.8547 -2.5441 -0.9211
   93MOL0     H12800   2.558   1.217   8.985  0.5236  1.3085  0.7444
   93MOL0     H12801   2.581   1.081   9.110  0.5595 -0.3076  0.2210
   93MOL0     H12802   2.795   1.258   8.984 -0.3423 -0.6535 -0.3679
   93MOL0     H12803   2.812   1.147   9.123 -0.5527 -0.9677  0.9052
   93MOL0     H12804   2.658   1.316   9.257  0.7409  3.4262  1.0575
   93MOL0     H12805   2.685   1.426   9.131 -2.0929 -0.5028  0.9475
   93MOL0     H12806   2.848   1.473   9.281  1.1459  0.4325 -1.7687
   93MOL0     H12807   2.882   1.306   9.323  1.1965 -0.0255 -0.4350
   93MOL0     H12808   2.975   1.473   9.082  1.1415  1.2524  0.8628
   93MOL0     H12809   2.984   1.295   9.079 -3.1015 -1.9733  2.5860
   93MOL0     H12810   3.141   1.290   9.276  0.0185 -1.0665 -1.0192
   93MOL0     H12811   3.106   1.454   9.319  1.2781 -1.2448  0.7298
   93MOL0     H12812   3.232   1.539   9.121  0.6821 -0.3682 -0.4277
   93MOL0     H12813   3.265   1.375   9.071 -0.9388  1.4590 -0.5410
   93MOL0     H12814   2.300   0.899   9.014  2.5047  1.1255  0.9627
   93MOL0     H12815   2.079   0.937   8.923  0.3926  3.7356  4.7222
   93MOL0     H12816   1.806   1.209   8.738 -1.4585  0.8448 -1.0755
   93MOL0     H12817   1.569   1.245   8.713  1.7405  1.0016  0.7837
   93MOL0     H12818   1.538   1.408   8.936 -1.9698 -0.5766  0.4755
   93MOL0     H12819   1.301   1.426   8.942  1.3395  1.6479  3.1321
   93MOL0     H12820   0.976   1.656   8.938  0.1907  0.6309  0.5616
   93MOL0     H12821   0.753   1.648   9.021 -0.7595 -0.6237  1.3596
   93MOL0     H12822   0.525   1.725   9.027 -1.9875  2.3647 -0.6268
   93MOL0     H12823   0.514   1.756   8.867 -2.5436  1.1107  1.4778
   93MOL0     H12824   0.309   1.635   8.832  1.5787 -0.8264 -0.4572
   93MOL0     H12825   0.296   1.757   8.955 -0.1154 -0.2618  0.4367
   93MOL0     H12826   0.333   1.475   9.038  1.3064  1.0993 -3.9182
   93MOL0     H12827   0.313   1.613   9.149 -0.1775  0.1481  0.8521
   93MOL0     H12828   0.105   1.538   8.927 -1.6150 -0.6645  1.5068
   93MOL0     H12829   0.082   1.642   9.068  2.4972  1.1786  4.1438
   93MOL0     H12830  -0.002   1.252   9.194 -0.6940  0.5417 -0.2293
   93MOL0     H12831   0.610   1.481   8.659  1.1513  0.8493 -1.6376
   93MOL0     H12832   0.866   1.385   8.505  0.7650  0.6132  0.9056
   93MOL0     H12833   0.723   1.480   8.474  0.6874  0.2833 -1.7404
   93MOL0     H12834   0.881   1.557   8.456  0.4944  0.2209  2.0469
   94MOL0     O12835   4.803   1.886   6.819 -0.5969  0.4333 -0.3388
   94MOL0     C12836   4.696   1.831   6.807 -0.2863  0.2055  0.3606
   94MOL0     O12837   4.675   1.697   6.831 -0.5986 -0.4037 -0.4510
   94MOL0     C12838   4.776   1.615   6.881 -0.5728 -0.4581  0.6602
   94MOL0     C12839   4.894   1.580   6.804 -0.1606 -0.3466  0.2693
   94MOL0     C12840   4.985   1.490   6.858 -0.1620 -0.0996  0.1758
   94MOL0     C12841   4.960   1.416   6.974  0.4890  0.1348 -0.3381
   94MOL0     O12842   5.039   1.328   7.036  0.6858  0.6786  0.0053
   94MOL0     C12843   5.166   1.286   6.982  0.3355 -0.0163  0.8106
   94MOL0     C12844   5.252   1.264   7.106  0.3069  0.2777 -0.1384
   94MOL0     C12845   5.396   1.234   7.060  0.5647  0.4681  0.4552
   94MOL0     C12846   5.474   1.197   7.183  0.0858  0.5892  0.3696
   94MOL0     C12847   5.623   1.160   7.153 -0.3490 -0.8809 -0.0574
   94MOL0     C12848   5.699   1.063   7.247 -0.1190  0.6200 -1.1279
   94MOL0     C12849   5.846   1.062   7.208 -0.0462 -0.1512  0.0740
   94MOL0     C12850   5.922   0.954   7.297  0.4443  0.3746  0.2818
   94MOL0     N12851   6.069   0.955   7.270  0.1996  0.4913  0.0001
   94MOL0     C12852   6.163   1.030   7.336 -0.6161  0.4530  1.1576
   94MOL0     C12853   6.279   1.007   7.264 -0.8808  0.7963 -1.2604
   94MOL0     C12854   6.410   1.065   7.301 -0.4474  0.1818 -0.1276
   94MOL0     C12855   6.521   1.053   7.192  0.1727  0.0458  0.0522
   94MOL0     C12856   6.468   1.109   7.061 -0.6136  0.1565  0.0790
   94MOL0     C12857   6.585   1.132   6.966 -0.6765 -0.2289  0.4585
   94MOL0     O12858   6.637   1.010   6.921 -0.0143 -0.4396  0.5790
   94MOL0     C12859   6.754   1.016   6.851  0.1313  0.7077  0.2524
   94MOL0     C12860   6.773   0.911   6.763  0.0565  0.1968 -0.6868
   94MOL0     C12861   6.891   0.896   6.690 -0.0504 -0.6562  0.4096
   94MOL0     C12862   6.899   0.755   6.612 -0.0582 -1.1110 -0.0068
   94MOL0     C12863   6.989   0.990   6.698  0.5759 -0.1421 -1.1941
   94MOL0     C12864   7.118   0.973   6.629  0.0270 -0.0304 -0.3244
   94MOL0     O12865   7.128   0.901   6.515 -0.0775 -0.1675  0.0236
   94MOL0     C12866   7.245   0.879   6.455 -0.7535  1.1244 -0.4977
   94MOL0     C12867   7.240   0.873   6.316 -0.0789 -0.0083  0.5082
   94MOL0     C12868   7.364   0.854   6.242  0.7331 -0.5698  0.4505
   94MOL0     C12869   7.490   0.849   6.309  0.4762  0.2212  0.3152
   94MOL0     O12870   7.600   0.839   6.231  0.6424 -0.0089  0.0994
   94MOL0     C12871   7.704   0.937   6.266  0.7965  0.1006  0.2960
   94MOL0     C12872   7.823   0.918   6.179  0.1899 -0.3292 -0.1875
   94MOL0     C12873   7.940   0.994   6.217 -0.3597 -0.1764 -0.3733
   94MOL0     C12874   8.047   0.983   6.106 -0.9173 -0.6005 -0.4780
   94MOL0     C12875   8.177   1.059   6.144 -0.2179  0.0535  0.1923
   94MOL0     C12876   8.298   1.018   6.061  0.5696 -0.5396 -0.9343
   94MOL0     C12877   8.425   1.104   6.115  0.6477  0.4880 -0.2868
   94MOL0     C12878   8.556   1.043   6.088 -1.1208 -0.6369 -0.3362
   94MOL0    Cl12879   8.667   1.161   6.177 -0.0989  0.5147 -0.3261
   94MOL0     C12880   7.493   0.859   6.446  0.2468  0.4382  0.4206
   94MOL0     C12881   7.373   0.867   6.520  0.2784 -0.3326 -0.6073
   94MOL0     O12882   7.208   1.044   6.676 -0.6463 -0.1097 -0.6389
   94MOL0     C12883   6.974   1.101   6.782 -0.2875 -0.0879 -0.3044
   94MOL0     C12884   6.856   1.111   6.858  0.0981  0.6322  0.8778
   94MOL0     N12885   6.251   0.909   7.171  0.2054  0.0174 -0.8004
   94MOL0     N12886   6.126   0.879   7.171 -0.3005 -0.0609 -0.4962
   94MOL0     C12887   4.843   1.453   7.042 -0.7596 -0.1831  0.6121
   94MOL0     C12888   4.750   1.547   6.993 -0.5089  0.1256 -0.3231
   94MOL0     C12889   4.572   1.910   6.775  0.2144  0.2895 -0.5783
   94MOL0     C12890   4.447   1.841   6.768 -0.4416 -0.7983 -0.0309
   94MOL0     C12891   4.328   1.908   6.722 -0.6120 -0.1285 -0.1561
   94MOL0     C12892   4.332   2.049   6.692  0.5408  0.0274 -0.4090
   94MOL0     O12893   4.230   2.128   6.654 -0.4768 -0.2276  0.0095
   94MOL0     C12894   4.096   2.067   6.642  0.3278  0.5087 -0.3990
   94MOL0     C12895   3.981   2.154   6.599 -0.3196  0.5727 -0.5505
   94MOL0     C12896   3.970   2.185   6.452 -0.2883  0.1297 -0.4375
   94MOL0     C12897   3.835   2.240   6.420 -0.9429 -0.3632  0.0285
   94MOL0     C12898   3.828   2.263   6.279  0.1413  0.1495 -0.5520
   94MOL0     C12899   3.818   2.283   6.160 -0.1494 -0.7992 -0.4646
   94MOL0     C12900   4.455   2.109   6.686  0.4963 -0.6566  0.1148
   94MOL0     C12901   4.565   2.044   6.730 -0.1266  0.1588  0.1354
   94MOL0     C12902   4.688   2.134   6.728  0.2785  0.0049  0.1679
   94MOL0     H12903   4.926   1.638   6.718 -1.5372 -0.0780 -0.1004
   94MOL0     H12904   5.073   1.468   6.799 -1.5870  0.2164 -2.2226
   94MOL0     H12905   5.215   1.362   6.920 -1.1781  1.1063  0.9311
   94MOL0     H12906   5.152   1.196   6.922  0.0045 -0.0433  0.9263
   94MOL0     H12907   5.253   1.351   7.172 -1.5649 -1.6190  2.5674
   94MOL0     H12908   5.210   1.182   7.164 -3.1682  0.6906 -1.8261
   94MOL0     H12909   5.398   1.148   6.992 -2.7795  1.4970 -1.1644
   94MOL0     H12910   5.448   1.318   7.013  2.9705 -0.2791  1.6411
   94MOL0     H12911   5.482   1.286   7.246  3.8994 -0.0252  0.9900
   94MOL0     H12912   5.427   1.115   7.239  1.5185 -0.3082  0.3234
   94MOL0     H12913   5.680   1.253   7.140  0.1296 -1.0268  0.9430
   94MOL0     H12914   5.621   1.119   7.051  0.1598 -0.3885 -0.2715
   94MOL0     H12915   5.681   1.095   7.350 -0.0734 -0.4295 -0.7813
   94MOL0     H12916   5.652   0.965   7.239 -2.1057  0.9921  3.1281
   94MOL0     H12917   5.892   1.159   7.231  2.6960 -2.1288  3.9936
   94MOL0     H12918   5.854   1.035   7.102 -0.3507  1.3911 -0.3654
   94MOL0     H12919   5.904   0.975   7.403 -1.2901  1.5571 -0.2006
   94MOL0     H12920   5.875   0.857   7.275 -1.3896  0.5290  2.9771
   94MOL0     H12921   6.156   1.101   7.417 -0.0204 -0.7070  2.2609
   94MOL0     H12922   6.442   1.002   7.384 -2.5067 -0.4296  0.2593
   94MOL0     H12923   6.404   1.168   7.337 -2.1680  0.7307 -1.7861
   94MOL0     H12924   6.603   1.118   7.221 -1.3691  3.1571 -2.0256
   94MOL0     H12925   6.545   0.947   7.175 -4.6677 -1.4385  0.7003
   94MOL0     H12926   6.411   1.034   7.006  1.8125  0.1699 -2.7385
   94MOL0     H12927   6.413   1.203   7.073 -0.5460  0.1963  0.0798
   94MOL0     H12928   6.550   1.182   6.875  2.1303  0.9299 -0.0823
   94MOL0     H12929   6.655   1.202   7.013  0.9301 -2.9830  2.4071
   94MOL0     H12930   6.708   0.826   6.778  0.4378  0.3871  2.9078
   94MOL0     H12931   6.943   0.675   6.673  1.7917 -1.5404 -1.7898
   94MOL0     H12932   6.955   0.759   6.518 -0.2189  0.8407 -0.0579
   94MOL0     H12933   6.795   0.733   6.590 -0.4416  2.2161 -2.0703
   94MOL0     H12934   7.156   0.863   6.249  1.5600  1.1617 -1.8607
   94MOL0     H12935   7.377   0.844   6.135  3.9404  2.5667  0.3624
   94MOL0     H12936   7.661   1.037   6.259  1.1330  0.4241  2.1809
   94MOL0     H12937   7.743   0.923   6.367  0.6779 -1.2101  0.1814
   94MOL0     H12938   7.843   0.810   6.179  0.8872 -0.2033 -0.8886
   94MOL0     H12939   7.794   0.941   6.076 -0.8409  2.9331  0.7168
   94MOL0     H12940   7.989   0.959   6.309  0.1109 -0.4610 -0.7240
   94MOL0     H12941   7.912   1.098   6.237  0.3828 -0.3466  1.8387
   94MOL0     H12942   8.017   1.024   6.009 -0.0605 -0.0669 -0.5236
   94MOL0     H12943   8.062   0.875   6.098 -0.4487 -0.4120 -3.6321
   94MOL0     H12944   8.157   1.166   6.131 -0.8989  0.1548  1.8255
   94MOL0     H12945   8.195   1.057   6.252  1.6534  0.1476 -0.0922
   94MOL0     H12946   8.272   1.044   5.958 -1.3206 -0.3354 -0.4437
   94MOL0     H12947   8.303   0.910   6.078 -0.2028 -0.4260  0.0492
   94MOL0     H12948   8.399   1.116   6.220 -0.3859 -0.3033 -0.4428
   94MOL0     H12949   8.419   1.198   6.058  1.7296  1.2395  0.7847
   94MOL0     H12950   8.589   1.044   5.983  1.3094 -0.3208  0.3710
   94MOL0     H12951   8.571   0.946   6.137 -2.9559  0.3757  2.4387
   94MOL0     H12952   7.586   0.873   6.502 -0.0815  0.1665  1.0428
   94MOL0     H12953   7.395   0.871   6.626  0.4474  0.6408 -0.6721
   94MOL0     H12954   7.042   1.186   6.780 -0.2209 -0.0917  1.0450
   94MOL0     H12955   6.843   1.189   6.933 -0.4942 -0.1993  1.6559
   94MOL0     H12956   4.818   1.410   7.138  0.6730  0.6875  1.4072
   94MOL0     H12957   4.657   1.573   7.042 -0.1830  2.3333 -0.7828
   94MOL0     H12958   4.434   1.735   6.788 -2.3325 -0.6021 -0.0270
   94MOL0     H12959   4.236   1.851   6.717 -0.0965 -0.8535 -1.9813
   94MOL0     H12960   4.109   1.991   6.565  1.4243  0.9580 -0.6762
   94MOL0     H12961   4.072   2.020   6.738 -0.1075 -0.2500 -0.8658
   94MOL0     H12962   3.986   2.247   6.657 -0.3460 -2.4971  5.1815
   94MOL0     H12963   3.887   2.106   6.628 -1.9364  3.0242 -1.4114
   94MOL0     H12964   4.043   2.264   6.432 -1.1580  0.3799 -2.9531
   94MOL0     H12965   3.985   2.097   6.389  0.3585 -0.4742  0.5383
   94MOL0     H12966   3.815   2.336   6.469  0.2669  0.7032 -1.4635
   94MOL0     H12967   3.759   2.171   6.457 -0.5705 -1.6101 -1.3949
   94MOL0     H12968   3.784   2.316   6.064 -1.4556 -1.7728 -0.3687
   94MOL0     H12969   4.459   2.211   6.648 -0.7497 -0.3398  0.7890
   94MOL0     H12970   4.745   2.103   6.816  0.9768  0.3637 -0.1500
   94MOL0     H12971   4.746   2.125   6.636 -0.3799 -5.7384 -0.0447
   94MOL0     H12972   4.659   2.240   6.727  2.1134  0.5397 -0.7265
   95MOL0     O12973   6.090  10.993   2.385 -0.3246  0.1545 -0.6297
   95MOL0     C12974   6.107  11.110   2.347  0.6235 -0.0209  0.0250
   95MOL0     O12975   6.002  11.199   2.328 -0.5481  0.0130 -1.1847
   95MOL0     C12976   5.877  11.157   2.366 -0.1756  0.4027 -0.7730
   95MOL0     C12977   5.822  11.188   2.491 -0.3224  0.7959 -0.6695
   95MOL0     C12978   5.688  11.148   2.523 -0.2778 -0.3314  0.1915
   95MOL0     C12979   5.612  11.081   2.434  0.4556  0.6106 -0.4772
   95MOL0     O12980   5.487  11.039   2.489 -0.1490  0.0160 -0.5439
   95MOL0     C12981   5.389  10.999   2.392  0.1393  0.4214  0.3257
   95MOL0     C12982   5.314  11.115   2.313  0.3050  0.0950  0.6785
   95MOL0     C12983   5.177  11.067   2.278 -0.3842  0.6276  0.4909
   95MOL0     C12984   5.082  11.169   2.216 -0.0067 -0.4402  0.7233
   95MOL0     C12985   4.944  11.102   2.180 -0.0036  0.5932 -0.0698
   95MOL0     C12986   4.840  11.209   2.143 -0.2273  0.4822 -0.9177
   95MOL0     C12987   4.699  11.151   2.116  0.2095 -0.0007 -0.0434
   95MOL0     C12988   4.615  11.110   2.244 -0.1932 -0.0736  0.0754
   95MOL0     N12989   4.576  11.224   2.322  1.0822 -0.1963  0.6167
   95MOL0     C12990   4.653  11.298   2.404 -0.5012 -0.3976 -0.2708
   95MOL0     C12991   4.569  11.368   2.475 -0.2130 -0.1607  0.3316
   95MOL0     C12992   4.618  11.462   2.582  0.1933 -0.0794  0.4580
   95MOL0     C12993   4.540  11.444   2.712  0.4921 -0.0617  0.5891
   95MOL0     C12994   4.553  11.318   2.793 -0.1227  0.5024 -0.3897
   95MOL0     C12995   4.685  11.246   2.792  0.2990 -0.4161 -0.9039
   95MOL0     O12996   4.773  11.320   2.872 -0.4108 -0.5250  0.2344
   95MOL0     C12997   4.894  11.277   2.900  0.2515  0.0209 -0.9471
   95MOL0     C12998   4.971  11.357   2.982  0.4027  0.6306 -0.4004
   95MOL0     C12999   5.098  11.320   3.026 -0.0408  0.3550  0.2161
   95MOL0     C13000   5.170  11.425   3.108 -0.4215  0.4841  1.2662
   95MOL0     C13001   5.154  11.193   2.990  0.2883 -0.8912 -0.2388
   95MOL0     C13002   5.295  11.146   3.016  0.0485  0.6977 -0.1624
   95MOL0     O13003   5.332  11.033   2.950 -0.1112 -0.2622  0.4023
   95MOL0     C13004   5.466  11.002   2.961  0.0548 -0.3065  0.0627
   95MOL0     C13005   5.509  10.932   3.075  0.2208  0.2392 -0.0207
   95MOL0     C13006   5.645  10.893   3.078  0.4924  0.3279  0.5489
   95MOL0     C13007   5.741  10.923   2.982  0.3629  0.1999  0.2061
   95MOL0     O13008   5.865  10.870   3.002 -0.0464  0.0241 -0.2180
   95MOL0     C13009   5.954  10.978   3.010  0.1013  0.7910 -0.2844
   95MOL0     C13010   6.084  10.927   3.066 -1.0335  0.1838 -0.1672
   95MOL0     C13011   6.155  10.839   2.952  1.5861 -0.0557  1.2203
   95MOL0     C13012   6.309  10.825   2.971  0.0191  0.7217  0.0427
   95MOL0     C13013   6.370  10.766   2.850  0.9906 -0.5480 -0.2715
   95MOL0     C13014   6.369  10.615   2.837 -0.1133  0.1180  0.0100
   95MOL0     C13015   6.488  10.572   2.757 -0.5567  0.2458 -0.2681
   95MOL0     C13016   6.478  10.426   2.705  0.6363 -0.2780 -0.2257
   95MOL0    Cl13017   6.598  10.402   2.572  0.1574 -0.1503 -0.0408
   95MOL0     C13018   5.699  10.997   2.871  0.5446  0.3080  0.2436
   95MOL0     C13019   5.559  11.030   2.859  0.2980  0.0366 -0.3466
   95MOL0     O13020   5.352  11.199   3.108 -0.3410  0.2183  0.1347
   95MOL0     C13021   5.068  11.113   2.904 -0.6723 -0.1051 -0.2246
   95MOL0     C13022   4.941  11.147   2.868  0.7059 -0.1805 -0.4050
   95MOL0     N13023   4.441  11.349   2.425  0.2172 -0.1063  0.2248
   95MOL0     N13024   4.449  11.260   2.334  0.4881  0.4872  0.3772
   95MOL0     C13025   5.670  11.040   2.312 -0.4967  0.8750 -0.2702
   95MOL0     C13026   5.805  11.077   2.280 -0.4971  0.8468  0.0279
   95MOL0     C13027   6.241  11.171   2.350  0.5891 -0.6966 -0.8449
   95MOL0     C13028   6.266  11.306   2.335  0.1556 -0.4428 -0.5752
   95MOL0     C13029   6.386  11.371   2.329 -0.1788  0.2205 -0.2863
   95MOL0     C13030   6.503  11.293   2.339 -0.0202  0.1469 -1.0451
   95MOL0     O13031   6.636  11.336   2.331  0.3031 -0.7303 -0.1867
   95MOL0     C13032   6.653  11.468   2.353  0.2068  0.2728 -0.0212
   95MOL0     C13033   6.804  11.490   2.353 -0.4892  0.1580 -0.2812
   95MOL0     C13034   6.816  11.640   2.381 -0.1463 -0.1197 -0.2633
   95MOL0     C13035   6.959  11.690   2.369 -0.2598 -0.5428 -0.1404
   95MOL0     C13036   7.039  11.642   2.474 -0.4111 -1.0712 -0.0733
   95MOL0     C13037   7.107  11.604   2.571 -0.2908 -0.2364 -0.5070
   95MOL0     C13038   6.490  11.154   2.352  0.3559 -0.1312  0.1769
   95MOL0     C13039   6.361  11.099   2.356 -0.1353  0.3440 -0.7982
   95MOL0     C13040   6.365  10.949   2.397  1.0191  0.3598  0.0198
   95MOL0     H13041   5.889  11.225   2.568 -2.1383 -0.6838  1.7501
   95MOL0     H13042   5.647  11.180   2.618 -2.4785 -0.9229 -0.5156
   95MOL0     H13043   5.316  10.937   2.444  0.7708  0.5087  1.3472
   95MOL0     H13044   5.442  10.934   2.322 -0.3149  1.1155 -0.6784
   95MOL0     H13045   5.304  11.204   2.376 -2.8479 -0.3972  1.0398
   95MOL0     H13046   5.375  11.141   2.226 -0.2933 -1.7157 -0.3398
   95MOL0     H13047   5.188  10.987   2.205  1.6168 -0.4109  1.8548
   95MOL0     H13048   5.133  11.022   2.368  1.8821  0.4744  1.5969
   95MOL0     H13049   5.071  11.264   2.269 -1.5788 -0.6076  0.7392
   95MOL0     H13050   5.135  11.199   2.125 -0.9234 -0.8724  0.0276
   95MOL0     H13051   4.902  11.055   2.270  0.0176  0.4219 -0.1478
   95MOL0     H13052   4.953  11.024   2.103  0.4947  1.1623 -0.5935
   95MOL0     H13053   4.844  11.279   2.227  2.6260 -2.0261  1.2747
   95MOL0     H13054   4.868  11.259   2.050 -0.0901  1.1979 -0.5049
   95MOL0     H13055   4.706  11.055   2.064 -4.3939  1.2949 -3.8708
   95MOL0     H13056   4.643  11.221   2.053 -1.2917 -1.4431 -0.3873
   95MOL0     H13057   4.529  11.050   2.215  0.4813 -1.8947  1.6329
   95MOL0     H13058   4.676  11.041   2.302  0.5338 -0.0780 -0.6759
   95MOL0     H13059   4.761  11.291   2.415 -0.5373 -0.2606  0.2306
   95MOL0     H13060   4.605  11.560   2.536  0.7658 -0.9160 -1.6508
   95MOL0     H13061   4.722  11.447   2.613  0.0632  0.3271  1.0946
   95MOL0     H13062   4.584  11.520   2.777 -0.0703  0.5960  0.2156
   95MOL0     H13063   4.439  11.487   2.710  1.3497  2.0244 -0.5904
   95MOL0     H13064   4.536  11.346   2.897  0.3234  0.1453 -0.2147
   95MOL0     H13065   4.471  11.253   2.763 -2.5503  2.6700  1.1103
   95MOL0     H13066   4.674  11.147   2.838  0.1254  0.1157  0.2547
   95MOL0     H13067   4.729  11.229   2.693  3.2815 -1.6787  0.4927
   95MOL0     H13068   4.926  11.450   3.016  3.6142  1.7282  1.3409
   95MOL0     H13069   5.264  11.457   3.062 -0.9396 -2.1124 -1.9935
   95MOL0     H13070   5.193  11.390   3.209  1.5466  0.0606  0.7065
   95MOL0     H13071   5.104  11.512   3.115 -1.3361 -0.2168  1.6598
   95MOL0     H13072   5.450  10.904   3.161 -1.1390 -0.4340 -1.1474
   95MOL0     H13073   5.687  10.833   3.159  1.3907  0.1920 -0.0000
   95MOL0     H13074   5.972  11.030   2.916 -2.1115  0.7357 -0.8067
   95MOL0     H13075   5.912  11.055   3.076 -0.0604 -0.6211  1.3438
   95MOL0     H13076   6.153  11.009   3.086 -0.2567 -0.2035 -1.1482
   95MOL0     H13077   6.070  10.874   3.160 -0.4862 -2.4016 -1.4423
   95MOL0     H13078   6.154  10.886   2.853  0.3788 -3.0834 -0.3501
   95MOL0     H13079   6.100  10.746   2.934  0.9806  0.4669  0.2793
   95MOL0     H13080   6.328  10.760   3.057 -2.2087  0.5370  0.4386
   95MOL0     H13081   6.347  10.926   2.992  0.3845  0.1965  2.1198
   95MOL0     H13082   6.324  10.810   2.761 -0.2483 -1.3208 -0.0272
   95MOL0     H13083   6.472  10.806   2.846  0.0667  2.0923  0.3321
   95MOL0     H13084   6.278  10.576   2.791  1.4666 -4.8056  0.4745
   95MOL0     H13085   6.368  10.583   2.942 -0.2495  2.0278  0.6325
   95MOL0     H13086   6.561  10.563   2.837 -0.1066  2.4523 -0.3519
   95MOL0     H13087   6.522  10.640   2.678  2.6438  1.1421  1.7016
   95MOL0     H13088   6.375  10.398   2.679  0.6309 -0.0447 -0.4595
   95MOL0     H13089   6.497  10.359   2.789 -3.2492 -0.3873  0.7591
   95MOL0     H13090   5.765  11.025   2.789  1.1724 -2.0668 -0.1298
   95MOL0     H13091   5.524  11.083   2.771  0.3886 -0.7388 -0.8600
   95MOL0     H13092   5.101  11.014   2.874 -0.2633 -0.2317  0.6045
   95MOL0     H13093   4.887  11.088   2.795  3.1663 -0.9269 -1.7298
   95MOL0     H13094   5.624  10.966   2.248  3.7712 -1.1192 -1.4502
   95MOL0     H13095   5.863  11.049   2.193  0.3472  2.4826  0.0235
   95MOL0     H13096   6.180  11.368   2.310 -0.4474 -1.7024 -1.7145
   95MOL0     H13097   6.381  11.477   2.305 -1.0495  0.2622  0.0589
   95MOL0     H13098   6.606  11.534   2.279 -1.1365 -0.6841 -0.0369
   95MOL0     H13099   6.611  11.507   2.446  0.0255  4.5760 -1.6609
   95MOL0     H13100   6.854  11.468   2.259  0.2218  2.2081 -0.4305
   95MOL0     H13101   6.856  11.441   2.435  0.4367  0.0230 -0.9348
   95MOL0     H13102   6.760  11.697   2.306  0.0475  0.4063 -0.0157
   95MOL0     H13103   6.786  11.667   2.482  0.9888 -0.4927  0.1912
   95MOL0     H13104   6.971  11.798   2.359  2.7315 -0.8799 -1.1234
   95MOL0     H13105   7.002  11.652   2.275 -1.7012  1.0278 -1.5021
   95MOL0     H13106   7.148  11.565   2.662 -4.1117  1.8049  2.3822
   95MOL0     H13107   6.576  11.089   2.364 -0.2444 -1.1752 -0.8704
   95MOL0     H13108   6.311  10.890   2.322  0.5003  1.5429 -0.5556
   95MOL0     H13109   6.468  10.917   2.416  0.0967 -0.6205  4.5391
   95MOL0     H13110   6.305  10.928   2.486  0.2757 -1.5875 -0.8810
   96MOL0     O13111   8.375   1.239   9.551 -0.3054  0.5788 -0.6673
   96MOL0     C13112   8.307   1.161   9.610  0.7743  0.6862 -0.2254
   96MOL0     O13113   8.362   1.062   9.692 -0.1589 -0.5454 -0.5202
   96MOL0     C13114   8.501   1.036   9.686 -0.2920  0.7939  0.2882
   96MOL0     C13115   8.546   0.907   9.649 -0.1994  0.7263 -0.7692
   96MOL0     C13116   8.684   0.869   9.665 -0.5868 -0.0204 -0.8255
   96MOL0     C13117   8.786   0.967   9.691  0.0158  0.7724  0.4319
   96MOL0     O13118   8.918   0.929   9.701 -0.2910 -0.0851  0.1239
   96MOL0     C13119   8.973   0.803   9.669  0.1887 -0.4511  0.1546
   96MOL0     C13120   9.124   0.807   9.689 -0.3048 -0.0402  0.4909
   96MOL0     C13121   9.160   0.799   9.839 -0.0716  0.0888  0.0183
   96MOL0     C13122   9.310   0.810   9.881 -0.3504  0.6505 -0.1728
   96MOL0     C13123   9.332   0.734  10.018  0.4274  0.0274 -0.1699
   96MOL0     C13124   9.478   0.736  10.056  0.1905  0.0140  0.2353
   96MOL0     C13125   9.498   0.700  10.201 -0.6628  0.6065  0.0817
   96MOL0     C13126   9.644   0.700  10.235  0.0296  0.6994 -0.8088
   96MOL0     N13127   9.661   0.674  10.375 -0.7525 -0.8901 -0.2084
   96MOL0     C13128   9.716   0.563  10.440  0.3829  0.3851 -0.4093
   96MOL0     C13129   9.721   0.584  10.571 -0.7080 -0.7826 -0.3484
   96MOL0     C13130   9.782   0.503  10.677  0.5864  0.7074 -0.5366
   96MOL0     C13131   9.927   0.535  10.676 -0.3009  0.9232 -0.5772
   96MOL0     C13132   9.991   0.460  10.790 -0.4042 -0.8162  0.7078
   96MOL0     C13133  10.135   0.498  10.814 -0.1923  0.9552 -0.2466
   96MOL0     O13134  10.142   0.639  10.839  0.3326 -0.2646 -0.0827
   96MOL0     C13135  10.251   0.688  10.913  1.4710  0.0042 -0.2788
   96MOL0     C13136  10.220   0.796  10.997 -0.5648  0.3270 -0.3885
   96MOL0     C13137  10.316   0.855  11.079  0.4138  0.5765 -0.4653
   96MOL0     C13138  10.281   0.980  11.153 -0.3999  0.5931  0.1756
   96MOL0     C13139  10.451   0.802  11.074 -0.0454  0.4384  0.5710
   96MOL0     C13140  10.572   0.860  11.141  0.3039 -0.2803 -0.2631
   96MOL0     O13141  10.695   0.816  11.107 -0.6216  0.8585  0.6732
   96MOL0     C13142  10.800   0.812  11.196  0.4519 -0.2875 -0.0839
   96MOL0     C13143  10.892   0.913  11.228  0.0940  0.0892 -0.0861
   96MOL0     C13144  10.998   0.901  11.317  0.3019 -0.4471 -0.2040
   96MOL0     C13145  11.009   0.786  11.391 -0.6191 -0.0134 -0.3047
   96MOL0     O13146  11.113   0.776  11.478  0.5975 -0.1317 -0.1191
   96MOL0     C13147  11.124   0.648  11.555 -0.0307  0.2490  0.2349
   96MOL0     C13148  11.226   0.661  11.661 -0.3917 -0.1043 -0.8024
   96MOL0     C13149  11.373   0.682  11.608  0.6291 -0.3561 -0.3232
   96MOL0     C13150  11.463   0.732  11.719  0.4145  0.4722 -0.4308
   96MOL0     C13151  11.607   0.712  11.666  0.4662 -0.4578  0.3449
   96MOL0     C13152  11.717   0.772  11.751 -1.2488  0.7426 -0.4494
   96MOL0     C13153  11.848   0.743  11.671 -0.5313  0.1868 -0.4425
   96MOL0     C13154  11.862   0.842  11.547  1.0805  0.2339  0.3703
   96MOL0    Cl13155  11.969   0.755  11.424  0.0080  0.0479 -0.0241
   96MOL0     C13156  10.915   0.691  11.366 -0.1038 -0.2935 -0.9165
   96MOL0     C13157  10.810   0.694  11.271 -0.8585 -0.2655 -0.9888
   96MOL0     O13158  10.554   0.931  11.240  0.6780  0.3816 -0.3811
   96MOL0     C13159  10.478   0.686  10.991 -0.1069  0.2156 -1.1774
   96MOL0     C13160  10.380   0.628  10.911 -0.1607  0.9065  0.7610
   96MOL0     N13161   9.670   0.707  10.589  1.3275  0.1390 -0.1196
   96MOL0     N13162   9.636   0.759  10.475 -0.5827  0.5223 -0.0444
   96MOL0     C13163   8.739   1.090   9.729 -0.7568  1.1317  0.4449
   96MOL0     C13164   8.603   1.124   9.719  0.1558 -0.4966  0.2598
   96MOL0     C13165   8.157   1.158   9.583  0.3276  0.3083  0.3076
   96MOL0     C13166   8.108   1.237   9.486  0.2695 -0.8017  0.0115
   96MOL0     C13167   7.973   1.253   9.458  0.0407 -0.2354 -0.6302
   96MOL0     C13168   7.870   1.180   9.525 -0.8227  0.3427 -1.4486
   96MOL0     O13169   7.737   1.178   9.499  0.3810  0.3827  0.0521
   96MOL0     C13170   7.705   1.223   9.368 -0.7200  0.4694  0.2249
   96MOL0     C13171   7.558   1.250   9.361 -0.8579  0.5548  0.6760
   96MOL0     C13172   7.465   1.129   9.362 -0.1243 -0.5041 -0.8281
   96MOL0     C13173   7.459   1.029   9.252  0.4088 -0.5962  0.6458
   96MOL0     C13174   7.352   0.931   9.258  0.2109  0.7527 -0.1947
   96MOL0     C13175   7.267   0.846   9.259 -0.1359  0.9596 -0.3781
   96MOL0     C13176   7.915   1.094   9.622 -0.0538 -0.5994  0.1653
   96MOL0     C13177   8.059   1.079   9.654  0.2656  0.0921 -0.5949
   96MOL0     C13178   8.094   0.969   9.756 -0.9363  0.4497 -0.3427
   96MOL0     H13179   8.469   0.831   9.643 -2.1938  2.3593  2.0820
   96MOL0     H13180   8.705   0.764   9.647 -0.8428 -0.3507  0.6514
   96MOL0     H13181   8.970   0.779   9.562  2.0838 -0.2093  0.0078
   96MOL0     H13182   8.919   0.723   9.721  0.7982 -0.9117  0.0879
   96MOL0     H13183   9.173   0.729   9.630  0.3770  0.7005  0.0513
   96MOL0     H13184   9.154   0.905   9.651 -0.2900  0.2732  1.2853
   96MOL0     H13185   9.098   0.868   9.897 -1.3379  0.2819 -1.4899
   96MOL0     H13186   9.119   0.702   9.869 -2.8306  0.8749 -0.9055
   96MOL0     H13187   9.355   0.749   9.802 -1.1005  0.6332 -0.5965
   96MOL0     H13188   9.341   0.914   9.873 -1.4632  0.9635 -0.7236
   96MOL0     H13189   9.281   0.638  10.004 -2.6984  1.2715  1.4713
   96MOL0     H13190   9.270   0.780  10.096  1.0033  0.4090  0.0618
   96MOL0     H13191   9.531   0.667   9.990 -0.3285  0.5075 -0.7036
   96MOL0     H13192   9.524   0.834  10.040 -1.1873  0.7400  0.6027
   96MOL0     H13193   9.458   0.600  10.222 -0.5405  0.4902 -0.2349
   96MOL0     H13194   9.433   0.769  10.255 -1.1370  0.3423 -0.1477
   96MOL0     H13195   9.691   0.617  10.181  1.7283  2.0906 -1.5445
   96MOL0     H13196   9.702   0.788  10.206 -0.6383  1.1140 -0.8889
   96MOL0     H13197   9.746   0.472  10.388  1.2241  1.1468 -1.3051
   96MOL0     H13198   9.772   0.396  10.658  1.4229  0.1424  1.8505
   96MOL0     H13199   9.732   0.521  10.773 -0.4263 -0.1216 -0.8885
   96MOL0     H13200   9.965   0.509  10.577 -1.0803 -2.1184 -0.1620
   96MOL0     H13201   9.937   0.643  10.692 -0.5259  0.7514  0.9187
   96MOL0     H13202   9.922   0.462  10.875 -2.8341 -1.8393 -1.1244
   96MOL0     H13203   9.994   0.353  10.766  0.0567 -0.5535 -0.5007
   96MOL0     H13204  10.169   0.449  10.906 -0.6117  1.2633  0.0741
   96MOL0     H13205  10.196   0.474  10.727 -0.7940  1.5845 -0.8473
   96MOL0     H13206  10.119   0.836  10.992 -1.0629 -0.9763 -1.1084
   96MOL0     H13207  10.274   0.961  11.261 -3.0946  0.8187  0.1276
   96MOL0     H13208  10.182   1.019  11.128  0.0164  1.0582 -0.7759
   96MOL0     H13209  10.353   1.054  11.117  0.2698 -1.4757 -3.1329
   96MOL0     H13210  10.884   1.008  11.175 -0.6847  0.1806  0.1803
   96MOL0     H13211  11.065   0.985  11.332 -1.5595  0.9579  0.7239
   96MOL0     H13212  11.038   0.622  11.617  0.4604 -0.2065  0.7274
   96MOL0     H13213  11.147   0.572  11.480 -2.2346  0.8905 -1.1905
   96MOL0     H13214  11.182   0.735  11.729 -2.3331  1.0842 -3.1726
   96MOL0     H13215  11.224   0.563  11.708  1.6363  0.2375  0.0835
   96MOL0     H13216  11.367   0.756  11.527  1.8152  3.0216  2.4082
   96MOL0     H13217  11.402   0.580  11.582  0.5728 -0.7520  1.0861
   96MOL0     H13218  11.446   0.665  11.803 -1.0445  2.7379  1.2080
   96MOL0     H13219  11.436   0.831  11.756  1.7053  0.5015  0.5065
   96MOL0     H13220  11.626   0.610  11.631 -1.9039  0.0619 -2.8831
   96MOL0     H13221  11.608   0.771  11.575 -2.9182 -0.3586  0.2308
   96MOL0     H13222  11.719   0.727  11.851  1.2890  0.6509 -0.4990
   96MOL0     H13223  11.702   0.880  11.755 -0.3430  0.8328  0.8940
   96MOL0     H13224  11.844   0.636  11.648 -3.4238  0.2729 -0.8031
   96MOL0     H13225  11.936   0.766  11.731 -1.5576  1.9529  0.4718
   96MOL0     H13226  11.902   0.935  11.589 -0.0078  0.6677  0.4704
   96MOL0     H13227  11.776   0.873  11.487  1.9482 -0.3904 -1.2670
   96MOL0     H13228  10.918   0.601  11.427  2.0699 -0.0731 -0.6333
   96MOL0     H13229  10.733   0.622  11.246 -0.1516 -0.7498 -1.8412
   96MOL0     H13230  10.578   0.643  10.988 -0.1684  0.0960 -1.6671
   96MOL0     H13231  10.404   0.535  10.861 -1.1265  0.5623  0.9055
   96MOL0     H13232   8.800   1.176   9.755  0.1104  0.2228  1.4934
   96MOL0     H13233   8.565   1.219   9.755 -1.5268 -1.3758  0.9620
   96MOL0     H13234   8.176   1.298   9.428 -0.4894  1.2975  1.2040
   96MOL0     H13235   7.940   1.334   9.394  0.4575 -0.4410 -1.1046
   96MOL0     H13236   7.756   1.315   9.338  3.5711 -2.1860 -1.6205
   96MOL0     H13237   7.735   1.150   9.293 -0.2040  0.8560  0.0507
   96MOL0     H13238   7.524   1.304   9.272 -1.5646  0.4753  0.8882
   96MOL0     H13239   7.541   1.310   9.451 -1.1480  1.3273  0.1132
   96MOL0     H13240   7.474   1.071   9.454 -2.1703  1.2121  0.5534
   96MOL0     H13241   7.367   1.176   9.374  0.2489  0.0281  0.2535
   96MOL0     H13242   7.555   0.977   9.245 -0.0705 -1.9912  3.3627
   96MOL0     H13243   7.452   1.083   9.157  4.2288 -1.9607 -0.5962
   96MOL0     H13244   7.202   0.762   9.246  1.6741 -0.0996 -3.8901
   96MOL0     H13245   7.827   1.048   9.665 -1.3375  1.7313  0.1712
   96MOL0     H13246   8.155   0.891   9.710 -0.0197 -0.6800  2.5624
   96MOL0     H13247   8.157   1.003   9.839  0.8294 -2.9848 -0.0744
   96MOL0     H13248   8.001   0.926   9.796 -0.0244  0.7510  2.3272
   97MOL0     O13249   9.657  10.470   5.812 -0.5561  0.0868  0.1811
   97MOL0     C13250   9.549  10.504   5.855  0.1343  0.3832  0.0514
   97MOL0     O13251   9.510  10.638   5.877 -0.1068 -0.1005  0.1386
   97MOL0     C13252   9.588  10.731   5.825 -0.2201 -1.2150 -0.3747
   97MOL0     C13253   9.709  10.770   5.881  0.3313 -0.4366  0.2920
   97MOL0     C13254   9.795  10.867   5.827 -0.2024  0.8529  0.0485
   97MOL0     C13255   9.762  10.930   5.702  0.7197 -0.0298 -0.6513
   97MOL0     O13256   9.856  10.998   5.627  0.3820  0.2303  0.0533
   97MOL0     C13257   9.974  11.038   5.693 -0.1993 -0.0609 -0.0450
   97MOL0     C13258  10.067  11.114   5.600  0.0793  0.1963 -0.1581
   97MOL0     C13259  10.190  11.140   5.683 -0.5268 -0.7662 -0.4055
   97MOL0     C13260  10.269  11.250   5.615  0.5429  0.4404 -0.2294
   97MOL0     C13261  10.391  11.280   5.697  0.3074 -0.5925  0.7475
   97MOL0     C13262  10.468  11.403   5.647 -0.5450 -0.1183  0.4314
   97MOL0     C13263  10.525  11.379   5.510 -0.3725 -0.4073 -0.1901
   97MOL0     C13264  10.672  11.441   5.493 -0.0094  0.3595 -0.1226
   97MOL0     N13265  10.721  11.414   5.356  0.6294 -0.4612 -0.0921
   97MOL0     C13266  10.797  11.307   5.323 -0.9934 -0.4762  0.7325
   97MOL0     C13267  10.840  11.345   5.202 -0.2564  0.4216 -0.3136
   97MOL0     C13268  10.925  11.256   5.113  0.5341 -0.0956  0.1599
   97MOL0     C13269  11.055  11.327   5.073  0.4404  0.4760 -0.3639
   97MOL0     C13270  11.140  11.339   5.199  0.1473 -0.2450  0.0648
   97MOL0     C13271  11.268  11.421   5.189  0.6207  0.2784  0.0184
   97MOL0     O13272  11.360  11.361   5.096 -0.4904 -0.0997 -0.5829
   97MOL0     C13273  11.482  11.426   5.089  0.0954  0.2186 -0.1844
   97MOL0     C13274  11.523  11.527   5.178  0.1550  0.4091  0.6891
   97MOL0     C13275  11.646  11.599   5.160 -0.2130 -0.4451 -0.8338
   97MOL0     C13276  11.690  11.707   5.257  0.0924 -0.5010  0.5064
   97MOL0     C13277  11.720  11.567   5.044  0.2182 -0.2949 -0.6378
   97MOL0     C13278  11.832  11.655   4.988  1.0779 -0.4191 -0.5520
   97MOL0     O13279  11.908  11.602   4.892  0.4282  0.1360  0.3246
   97MOL0     C13280  11.989  11.675   4.812 -0.5877 -0.2929  0.0751
   97MOL0     C13281  11.970  11.803   4.766  0.4543  0.2924 -0.2156
   97MOL0     C13282  12.070  11.877   4.699 -0.1469  0.2829  0.1184
   97MOL0     C13283  12.195  11.824   4.657  0.8650  0.3996  0.1314
   97MOL0     O13284  12.314  11.878   4.616  0.0259 -0.3326 -0.5874
   97MOL0     C13285  12.281  11.986   4.525 -0.9212  0.4735  0.0200
   97MOL0     C13286  12.406  12.041   4.451  0.0561 -0.8071  0.2372
   97MOL0     C13287  12.525  12.068   4.546 -0.8157 -0.7627  0.0108
   97MOL0     C13288  12.511  12.174   4.652  1.0951 -0.7211 -0.4241
   97MOL0     C13289  12.642  12.229   4.716 -0.9640  0.2041  0.2109
   97MOL0     C13290  12.730  12.117   4.764 -0.5186 -0.3494 -0.0803
   97MOL0     C13291  12.860  12.173   4.819  0.3504 -0.1416 -0.7258
   97MOL0     C13292  12.933  12.053   4.891 -0.2494 -0.4395 -0.6219
   97MOL0    Cl13293  12.862  12.009   5.059  0.3235 -0.6810  0.3706
   97MOL0     C13294  12.218  11.694   4.712  0.0093  0.3344  1.0003
   97MOL0     C13295  12.115  11.623   4.788 -0.1903  0.4472  0.2116
   97MOL0     O13296  11.846  11.771   5.033 -0.1978  0.8540 -0.1040
   97MOL0     C13297  11.678  11.472   4.955 -0.3905 -0.1591  0.2154
   97MOL0     C13298  11.559  11.405   4.974 -0.1083  0.1190 -0.2936
   97MOL0     N13299  10.784  11.459   5.158  0.1244 -0.2495  0.0080
   97MOL0     N13300  10.713  11.501   5.256  0.7413  0.4303 -0.2132
   97MOL0     C13301   9.640  10.897   5.637  1.0052 -0.3953  0.4854
   97MOL0     C13302   9.556  10.806   5.706 -0.3202  0.3908  0.1349
   97MOL0     C13303   9.442  10.396   5.867  0.0257  0.1574  0.2210
   97MOL0     C13304   9.316  10.437   5.920  0.3326  0.4582 -0.2344
   97MOL0     C13305   9.209  10.351   5.934  0.5463  0.1753  0.4408
   97MOL0     C13306   9.227  10.216   5.890  0.1523 -0.3249  0.3917
   97MOL0     O13307   9.134  10.123   5.914 -0.2684  0.1695 -0.1791
   97MOL0     C13308   8.995  10.144   5.899 -0.2752 -1.1400  0.5078
   97MOL0     C13309   8.949  10.149   5.757 -0.1465  0.2584  0.1283
   97MOL0     C13310   8.803  10.215   5.748 -0.7393 -0.3921 -0.0554
   97MOL0     C13311   8.746  10.236   5.611  0.6960  0.5051 -0.0463
   97MOL0     C13312   8.596  10.222   5.619 -0.3627  1.1979 -0.0013
   97MOL0     C13313   8.475  10.201   5.624  0.3123 -0.2439  0.6231
   97MOL0     C13314   9.351  10.172   5.853  0.1390 -0.4648  0.3522
   97MOL0     C13315   9.462  10.257   5.840 -0.5301  0.6002 -0.3542
   97MOL0     C13316   9.595  10.196   5.792  0.1832 -0.6740 -0.4025
   97MOL0     H13317   9.736  10.728   5.977 -0.3647 -1.8041 -0.0927
   97MOL0     H13318   9.888  10.883   5.880 -0.8286 -1.4886  2.0405
   97MOL0     H13319  10.030  10.948   5.719  0.4004  0.1251 -0.6899
   97MOL0     H13320   9.945  11.097   5.780 -0.0921  0.2625 -0.2307
   97MOL0     H13321  10.091  11.050   5.514  1.0001  1.5902 -0.9703
   97MOL0     H13322  10.013  11.204   5.567 -2.0100 -1.5037 -1.7140
   97MOL0     H13323  10.176  11.180   5.784 -0.1847 -0.0597 -0.6354
   97MOL0     H13324  10.251  11.049   5.688  0.2726 -0.3860 -2.3975
   97MOL0     H13325  10.290  11.213   5.514  0.5374 -0.1461 -0.0169
   97MOL0     H13326  10.211  11.343   5.608  0.1323  0.0984 -1.5774
   97MOL0     H13327  10.459  11.194   5.703  3.3700  1.5513 -0.3048
   97MOL0     H13328  10.369  11.298   5.803  0.2136 -1.6981  0.9247
   97MOL0     H13329  10.395  11.483   5.637  0.6338  0.8514 -0.9930
   97MOL0     H13330  10.551  11.447   5.703 -1.1944  2.9309 -0.8071
   97MOL0     H13331  10.459  11.423   5.435 -0.1493 -0.9733 -0.7317
   97MOL0     H13332  10.535  11.271   5.499  0.2174 -0.4216  0.3953
   97MOL0     H13333  10.667  11.550   5.500 -1.4615  0.2994  0.0644
   97MOL0     H13334  10.744  11.407   5.567  1.1914  1.7902 -0.5930
   97MOL0     H13335  10.825  11.218   5.379  1.3275 -1.6066 -1.9938
   97MOL0     H13336  10.874  11.234   5.019  3.5975 -4.5556 -0.7679
   97MOL0     H13337  10.946  11.159   5.159 -1.0850 -1.6904 -2.2071
   97MOL0     H13338  11.109  11.265   5.001  1.1140 -0.1857  0.6671
   97MOL0     H13339  11.032  11.428   5.037  2.0204  1.4595  1.2124
   97MOL0     H13340  11.078  11.375   5.282 -1.2274 -1.2915 -0.4685
   97MOL0     H13341  11.172  11.238   5.227  0.7829  0.0214  0.3113
   97MOL0     H13342  11.238  11.520   5.154 -0.7603 -0.4814 -1.0485
   97MOL0     H13343  11.314  11.418   5.289  1.4678  1.0530 -0.3359
   97MOL0     H13344  11.466  11.554   5.267  1.4915  2.0200  1.1126
   97MOL0     H13345  11.791  11.690   5.297  0.7851  1.7285 -0.1481
   97MOL0     H13346  11.613  11.712   5.335  0.6776  3.2364  1.0443
   97MOL0     H13347  11.699  11.808   5.216  1.7509 -1.2224 -1.0192
   97MOL0     H13348  11.873  11.847   4.787 -0.4827 -1.5392 -0.5526
   97MOL0     H13349  12.044  11.974   4.657  0.5396  1.5547  2.4448
   97MOL0     H13350  12.206  11.946   4.457 -0.3707 -0.2984 -0.1380
   97MOL0     H13351  12.239  12.063   4.591  3.4595  0.2729  3.5422
   97MOL0     H13352  12.442  11.980   4.368  0.2089  0.1163 -0.3915
   97MOL0     H13353  12.376  12.132   4.400 -1.0973 -1.3454 -0.0789
   97MOL0     H13354  12.605  12.090   4.475  0.7406  1.3917  2.2441
   97MOL0     H13355  12.561  11.977   4.594 -0.2456  0.5817  2.2756
   97MOL0     H13356  12.455  12.122   4.730 -0.0832  0.8788 -0.1662
   97MOL0     H13357  12.461  12.260   4.606  1.2900 -0.0108  0.6879
   97MOL0     H13358  12.700  12.279   4.638 -1.4916 -1.0448 -1.0327
   97MOL0     H13359  12.614  12.295   4.799 -2.8265  0.5689 -0.6611
   97MOL0     H13360  12.749  12.053   4.678 -4.1145 -0.6397 -0.8318
   97MOL0     H13361  12.682  12.050   4.836  0.7895  0.9030  2.0767
   97MOL0     H13362  12.849  12.260   4.884 -2.0079 -1.3940  0.6912
   97MOL0     H13363  12.901  12.218   4.729 -1.2563  2.5594 -0.2186
   97MOL0     H13364  13.039  12.076   4.902 -0.3511 -0.7713  1.4288
   97MOL0     H13365  12.913  11.955   4.848 -2.8536 -1.9698  3.4704
   97MOL0     H13366  12.308  11.638   4.687 -0.2932  0.6937 -1.0561
   97MOL0     H13367  12.137  11.532   4.843 -0.3143  0.1969 -0.1547
   97MOL0     H13368  11.723  11.445   4.861  0.4150  2.5251 -0.2524
   97MOL0     H13369  11.520  11.332   4.904  1.7738 -1.0547 -0.1975
   97MOL0     H13370   9.603  10.934   5.542  2.8977 -0.9666 -0.5235
   97MOL0     H13371   9.469  10.767   5.653  0.7521 -2.1825  0.1347
   97MOL0     H13372   9.300  10.540   5.952 -1.7167 -0.4067  1.8115
   97MOL0     H13373   9.120  10.404   5.968  0.3423  0.4677 -0.5252
   97MOL0     H13374   8.951  10.054   5.944  3.3515 -1.9561  2.8905
   97MOL0     H13375   8.960  10.234   5.951 -0.2649 -0.6398 -0.3381
   97MOL0     H13376   8.955  10.046   5.721 -1.8729  0.1552  0.0673
   97MOL0     H13377   9.016  10.216   5.702  2.2739 -2.2386 -0.1777
   97MOL0     H13378   8.740  10.146   5.804  0.9020 -1.2459  0.8133
   97MOL0     H13379   8.790  10.304   5.810 -1.5925 -1.3918  1.2553
   97MOL0     H13380   8.789  10.160   5.545 -0.2371  0.1542 -0.2649
   97MOL0     H13381   8.776  10.336   5.579  1.9628  0.2906  0.3958
   97MOL0     H13382   8.369  10.189   5.633  0.1060  1.7614  1.2982
   97MOL0     H13383   9.372  10.066   5.844  0.7380 -0.5153  2.0855
   97MOL0     H13384   9.589  10.087   5.804 -0.0069 -0.7170 -0.8600
   97MOL0     H13385   9.619  10.223   5.688 -0.8850  0.6859 -0.3221
   97MOL0     H13386   9.677  10.236   5.853  0.8882  0.3377 -1.9287
   98MOL0     O13387   2.734   2.153   5.225  0.1088 -0.0500  0.8036
   98MOL0     C13388   2.678   2.053   5.177  0.5637  0.0828  0.3003
   98MOL0     O13389   2.723   1.931   5.193 -0.0217 -0.5202 -0.2403
   98MOL0     C13390   2.841   1.909   5.258 -0.1100  0.1583 -0.7421
   98MOL0     C13391   2.843   1.821   5.373  0.3344 -0.4446 -0.0026
   98MOL0     C13392   2.953   1.811   5.463 -0.3219 -0.2498 -0.6838
   98MOL0     C13393   3.063   1.890   5.431 -0.2865 -0.6938  0.9232
   98MOL0     O13394   3.159   1.878   5.533  0.0799 -0.0979  0.0624
   98MOL0     C13395   3.257   1.982   5.551  0.1453 -0.0282  0.8653
   98MOL0     C13396   3.346   1.964   5.673 -0.4639  0.0294 -0.4609
   98MOL0     C13397   3.412   1.822   5.664 -0.6196  0.2362 -0.4322
   98MOL0     C13398   3.501   1.813   5.787 -0.5734 -0.3731 -1.0359
   98MOL0     C13399   3.553   1.664   5.789 -0.1152  0.7093 -0.9420
   98MOL0     C13400   3.625   1.637   5.917 -0.5610  0.2731 -1.4141
   98MOL0     C13401   3.635   1.489   5.933  0.6376 -0.4549 -0.5890
   98MOL0     C13402   3.746   1.424   5.854  0.6344  0.3812  0.2239
   98MOL0     N13403   3.880   1.471   5.891 -0.3267 -0.2811  0.7838
   98MOL0     C13404   3.940   1.460   6.009  0.2902  0.1920  0.7640
   98MOL0     C13405   4.078   1.460   5.984  0.1975 -0.1254  0.2586
   98MOL0     C13406   4.180   1.455   6.096 -0.4696 -1.1866  0.2022
   98MOL0     C13407   4.249   1.322   6.114 -0.2965  0.2495  0.0308
   98MOL0     C13408   4.245   1.264   6.257 -0.0521  0.1841 -0.2395
   98MOL0     C13409   4.346   1.149   6.290  0.0558 -0.1817 -0.0916
   98MOL0     O13410   4.463   1.204   6.341 -0.0679  0.0725 -0.8567
   98MOL0     C13411   4.558   1.109   6.355 -0.0057 -0.8008  0.3716
   98MOL0     C13412   4.571   1.017   6.466 -0.0572  0.5388  0.9017
   98MOL0     C13413   4.674   0.916   6.468 -0.2854 -0.7775  0.2019
   98MOL0     C13414   4.677   0.813   6.576  0.4087  0.4106  0.3019
   98MOL0     C13415   4.772   0.918   6.363  0.0892  0.0372  0.2219
   98MOL0     C13416   4.905   0.846   6.374  0.4759 -0.9187 -0.6435
   98MOL0     O13417   4.966   0.847   6.494 -0.1968  0.6729 -0.2216
   98MOL0     C13418   5.074   0.768   6.523 -0.1205  0.3717  0.1044
   98MOL0     C13419   5.129   0.789   6.650 -0.2419  0.6089 -0.2262
   98MOL0     C13420   5.241   0.719   6.702  0.3130 -0.3685 -0.3243
   98MOL0     C13421   5.302   0.628   6.626  0.1000 -0.1876 -0.5905
   98MOL0     O13422   5.423   0.562   6.654  0.6347  0.4881 -0.1778
   98MOL0     C13423   5.478   0.566   6.782 -0.8090 -0.6956 -0.3513
   98MOL0     C13424   5.607   0.472   6.780 -0.4686 -0.6483 -0.3781
   98MOL0     C13425   5.731   0.536   6.853  0.0810 -0.1135 -0.4731
   98MOL0     C13426   5.867   0.483   6.806  0.0969  0.9810  0.2351
   98MOL0     C13427   5.995   0.548   6.868 -0.2843 -0.3418 -0.1425
   98MOL0     C13428   6.117   0.492   6.815 -0.1371 -0.2623 -0.0856
   98MOL0     C13429   6.244   0.550   6.884  0.3421 -0.1790  0.3331
   98MOL0     C13430   6.260   0.706   6.861  0.0612 -0.6286  0.2868
   98MOL0    Cl13431   6.350   0.712   6.696 -0.2887 -0.1518  0.1185
   98MOL0     C13432   5.242   0.592   6.506  0.2842 -0.2327 -0.0796
   98MOL0     C13433   5.134   0.662   6.449  0.7155  0.1451  0.0798
   98MOL0     O13434   4.945   0.789   6.271 -0.6385 -0.5063 -0.2509
   98MOL0     C13435   4.766   1.016   6.259  0.8526  0.2609  0.1783
   98MOL0     C13436   4.654   1.108   6.256 -1.1816 -0.4756 -0.0280
   98MOL0     N13437   4.094   1.459   5.843 -0.1402 -0.8301 -0.7602
   98MOL0     N13438   3.976   1.475   5.790 -0.1133  0.4922 -0.5473
   98MOL0     C13439   3.067   1.969   5.313 -0.6530 -0.0130 -0.5607
   98MOL0     C13440   2.961   1.971   5.226  0.0199  0.3242  0.5139
   98MOL0     C13441   2.549   2.046   5.105  0.2513  0.4755  0.0789
   98MOL0     C13442   2.468   1.931   5.108 -0.1756  0.0553  0.0663
   98MOL0     C13443   2.341   1.935   5.067 -0.0844 -0.3426  0.3337
   98MOL0     C13444   2.281   2.042   5.005  0.0577 -0.9842  0.0153
   98MOL0     O13445   2.167   2.046   4.930  0.5302  0.4401 -0.3861
   98MOL0     C13446   2.103   1.920   4.890 -0.1125 -0.8176 -0.3661
   98MOL0     C13447   2.011   1.945   4.777  0.5861  1.2921 -0.6464
   98MOL0     C13448   1.883   2.007   4.827 -0.0826 -0.1340  0.8263
   98MOL0     C13449   1.777   2.038   4.715  0.4452 -0.8215  1.0212
   98MOL0     C13450   1.648   2.095   4.764 -0.1619  0.6071 -0.0394
   98MOL0     C13451   1.554   2.158   4.802  0.1816 -0.3487  0.4294
   98MOL0     C13452   2.361   2.164   5.004  0.0591 -0.5985 -0.0744
   98MOL0     C13453   2.493   2.164   5.050  0.3918 -0.1692 -1.0918
   98MOL0     C13454   2.564   2.291   5.026 -0.2667 -0.1291 -0.1827
   98MOL0     H13455   2.760   1.754   5.394 -0.2523  0.7614  1.6833
   98MOL0     H13456   2.950   1.740   5.545  0.6656 -0.5875 -0.9220
   98MOL0     H13457   3.221   2.085   5.553  0.9730  0.2615  1.8010
   98MOL0     H13458   3.319   1.976   5.461 -1.4988  0.1630 -0.3349
   98MOL0     H13459   3.426   2.038   5.679  0.4884 -1.0787  1.1567
   98MOL0     H13460   3.293   1.977   5.767  1.7713  0.2363  0.8217
   98MOL0     H13461   3.343   1.737   5.664  2.1708 -2.1876 -0.3946
   98MOL0     H13462   3.467   1.818   5.569  1.4295  1.0698  0.6643
   98MOL0     H13463   3.589   1.879   5.784  1.0357 -1.9931  3.1179
   98MOL0     H13464   3.443   1.836   5.876 -1.7229  1.2714 -2.1547
   98MOL0     H13465   3.621   1.652   5.705  2.8026 -1.8440  1.5608
   98MOL0     H13466   3.476   1.587   5.779  1.5565 -1.3742  1.1128
   98MOL0     H13467   3.725   1.681   5.922  0.5749 -2.2714  0.1626
   98MOL0     H13468   3.563   1.663   6.003  0.1405 -3.5495  0.4583
   98MOL0     H13469   3.535   1.449   5.914 -0.8018  1.9199  1.3351
   98MOL0     H13470   3.649   1.471   6.040 -0.6882  0.4968 -0.2247
   98MOL0     H13471   3.733   1.316   5.865 -2.5252  0.6323 -0.0843
   98MOL0     H13472   3.721   1.447   5.750 -2.3856  2.0802  1.2092
   98MOL0     H13473   3.897   1.438   6.106 -0.2039  0.5092  0.6171
   98MOL0     H13474   4.131   1.491   6.187  1.0175  1.5379  0.0510
   98MOL0     H13475   4.250   1.539   6.089 -0.8168 -0.9101 -0.0076
   98MOL0     H13476   4.200   1.243   6.057 -0.2986 -0.8941  1.5680
   98MOL0     H13477   4.349   1.336   6.073 -0.1612 -2.1011 -0.5453
   98MOL0     H13478   4.266   1.346   6.326 -0.8714  0.1732  0.0254
   98MOL0     H13479   4.143   1.230   6.277  1.5980 -4.3457  1.7758
   98MOL0     H13480   4.299   1.085   6.366  1.0647 -0.7465  0.0678
   98MOL0     H13481   4.353   1.086   6.201  2.2649 -1.0638  0.6568
   98MOL0     H13482   4.491   1.021   6.540 -0.8810 -1.2374  0.1596
   98MOL0     H13483   4.723   0.720   6.540  0.9938  0.5870  0.5958
   98MOL0     H13484   4.577   0.791   6.615  0.5258  0.9365  0.9154
   98MOL0     H13485   4.740   0.848   6.657  0.0555 -2.2675  1.8716
   98MOL0     H13486   5.076   0.854   6.720 -0.1047 -0.8403  1.2907
   98MOL0     H13487   5.262   0.753   6.803 -0.6051 -2.3494  0.5914
   98MOL0     H13488   5.502   0.669   6.809 -1.6451 -0.5639 -0.0722
   98MOL0     H13489   5.414   0.524   6.859  0.8541  0.9728  2.0879
   98MOL0     H13490   5.592   0.373   6.824  0.3835  0.0393  1.5764
   98MOL0     H13491   5.630   0.463   6.673 -0.2203 -2.1867 -0.2270
   98MOL0     H13492   5.715   0.520   6.960 -1.6036  1.5216 -0.4137
   98MOL0     H13493   5.737   0.643   6.832  1.9105 -0.2956 -1.0058
   98MOL0     H13494   5.868   0.502   6.698 -2.6031  0.8412  0.1201
   98MOL0     H13495   5.875   0.374   6.813 -1.8612  0.8273  0.5195
   98MOL0     H13496   5.985   0.657   6.859 -4.2612 -0.6606 -1.8285
   98MOL0     H13497   5.990   0.522   6.974  3.1413 -0.8044 -0.0031
   98MOL0     H13498   6.130   0.506   6.707  1.0874  0.5406  0.1416
   98MOL0     H13499   6.106   0.386   6.838 -2.2380 -0.7057 -2.6143
   98MOL0     H13500   6.334   0.500   6.847  0.3898 -0.8774  1.3415
   98MOL0     H13501   6.253   0.521   6.989  2.7890 -1.0546 -0.0420
   98MOL0     H13502   6.326   0.739   6.942  0.1260 -2.8252  1.2087
   98MOL0     H13503   6.166   0.760   6.845 -0.4223 -1.7956 -1.0447
   98MOL0     H13504   5.288   0.508   6.455  0.7531 -0.5743  0.8863
   98MOL0     H13505   5.093   0.636   6.351  1.1175  4.6142 -1.5336
   98MOL0     H13506   4.842   1.015   6.182 -0.3479 -0.1223 -1.0419
   98MOL0     H13507   4.637   1.169   6.168 -0.2129  1.3436  0.9979
   98MOL0     H13508   3.163   2.016   5.296  0.2697 -1.4736  0.2881
   98MOL0     H13509   2.976   2.038   5.142  1.5722  1.9327  1.9967
   98MOL0     H13510   2.505   1.840   5.154 -0.4691 -1.5848 -2.7104
   98MOL0     H13511   2.283   1.846   5.086  0.4331 -0.8715 -0.4810
   98MOL0     H13512   2.178   1.852   4.850  0.2219 -0.5222 -0.2503
   98MOL0     H13513   2.050   1.881   4.977  0.0445 -1.6954 -0.6625
   98MOL0     H13514   1.993   1.851   4.724  1.2995 -0.7323  2.4369
   98MOL0     H13515   2.067   2.001   4.702  2.3069 -0.0224 -0.3974
   98MOL0     H13516   1.833   1.929   4.886 -0.4502 -0.8474 -0.3978
   98MOL0     H13517   1.909   2.094   4.888  1.2126  2.3246 -2.9221
   98MOL0     H13518   1.762   1.950   4.651  1.7620 -0.4421  0.1366
   98MOL0     H13519   1.823   2.117   4.654 -2.0606 -0.7502 -0.9672
   98MOL0     H13520   1.475   2.226   4.827  1.6887  1.8844 -0.5259
   98MOL0     H13521   2.314   2.249   4.955  0.0531 -2.2083 -3.0776
   98MOL0     H13522   2.514   2.347   4.947 -1.4092 -1.0960 -0.1805
   98MOL0     H13523   2.567   2.347   5.120 -2.3125  1.2381 -0.8592
   98MOL0     H13524   2.666   2.271   4.992  0.7008 -0.2368  2.4964
   99MOL0     O13525   6.751   2.181   7.234 -0.3325  0.1375 -0.4392
   99MOL0     C13526   6.701   2.096   7.167 -0.2174  0.1169  0.2117
   99MOL0     O13527   6.761   2.000   7.096 -1.0917 -0.0948  0.1151
   99MOL0     C13528   6.896   2.024   7.069  1.2516  0.3287  0.7263
   99MOL0     C13529   6.931   2.068   6.939 -0.7208 -1.1441 -0.6050
   99MOL0     C13530   7.072   2.071   6.908  1.0076  0.2991  0.1589
   99MOL0     C13531   7.169   2.030   7.011  0.4329  0.0656  0.6643
   99MOL0     O13532   7.306   2.021   6.995 -0.0544  0.0083  0.2998
   99MOL0     C13533   7.350   1.913   6.905 -0.3818  0.1967  0.2539
   99MOL0     C13534   7.503   1.927   6.923  0.3705  0.4299 -0.1558
   99MOL0     C13535   7.577   1.826   6.831  0.5415 -0.3559 -0.5996
   99MOL0     C13536   7.528   1.686   6.850  0.7391  0.1477  0.1433
   99MOL0     C13537   7.624   1.593   6.777  0.2310 -0.4253 -0.4889
   99MOL0     C13538   7.755   1.555   6.861 -0.3966 -0.0249  0.6251
   99MOL0     C13539   7.855   1.468   6.781  1.0404 -0.3252  0.5055
   99MOL0     C13540   7.981   1.459   6.861 -1.2524 -0.0491  0.5357
   99MOL0     N13541   8.072   1.353   6.800 -0.1047  0.5631  0.5536
   99MOL0     C13542   8.068   1.295   6.678  0.0002  0.0875 -0.3866
   99MOL0     C13543   8.158   1.201   6.685  0.4593 -0.8446  0.2493
   99MOL0     C13544   8.189   1.112   6.563  0.4296 -0.0281  0.0519
   99MOL0     C13545   8.353   1.099   6.553  0.4496 -0.3011 -0.6927
   99MOL0     C13546   8.392   0.959   6.501  0.1308 -0.4119 -0.3345
   99MOL0     C13547   8.540   0.950   6.451 -0.0433 -1.1959  0.1374
   99MOL0     O13548   8.626   0.936   6.562  0.2923  0.0352 -0.0332
   99MOL0     C13549   8.749   0.887   6.528  0.3183 -0.2072 -0.2839
   99MOL0     C13550   8.810   0.919   6.408 -0.2616 -0.0290  0.6039
   99MOL0     C13551   8.935   0.871   6.366  0.7409  0.6878 -0.1204
   99MOL0     C13552   8.966   0.897   6.219  0.4936 -0.5588  0.2803
   99MOL0     C13553   9.004   0.770   6.440  0.6594  0.0812  0.3787
   99MOL0     C13554   9.132   0.711   6.393 -0.9481  0.4228 -0.3939
   99MOL0     O13555   9.167   0.590   6.441  0.3147 -0.0134 -0.4801
   99MOL0     C13556   9.293   0.544   6.416  0.6180 -0.4496 -0.0252
   99MOL0     C13557   9.290   0.416   6.370 -0.8491  0.6932  0.0250
   99MOL0     C13558   9.413   0.354   6.352  0.2605  0.2630 -0.0517
   99MOL0     C13559   9.538   0.410   6.397  0.3013 -0.5013 -0.2136
   99MOL0     O13560   9.658   0.355   6.392  0.2584 -0.1676 -0.2026
   99MOL0     C13561   9.666   0.212   6.413  0.5506 -0.4821 -0.2946
   99MOL0     C13562   9.806   0.188   6.469 -0.0423  0.1649  0.4444
   99MOL0     C13563   9.925   0.173   6.367  0.1116  0.4669 -0.4637
   99MOL0     C13564  10.058   0.168   6.440  0.4452  0.1460  0.3145
   99MOL0     C13565  10.175   0.156   6.345  0.0137  0.5385  0.3646
   99MOL0     C13566  10.300   0.137   6.437 -0.9207  0.9644  0.6175
   99MOL0     C13567  10.424   0.085   6.372  0.8901 -0.3911 -0.1203
   99MOL0     C13568  10.463   0.166   6.244  0.2758 -0.0210  0.3839
   99MOL0    Cl13569  10.638   0.199   6.238  0.1882  0.1726  0.0001
   99MOL0     C13570   9.528   0.538   6.449 -1.4594  0.2204  0.1606
   99MOL0     C13571   9.413   0.603   6.460  0.9593  0.0158 -0.7017
   99MOL0     O13572   9.208   0.787   6.337 -0.3161 -0.2215  0.0363
   99MOL0     C13573   8.943   0.739   6.558  0.4336 -0.4500 -0.5847
   99MOL0     C13574   8.828   0.809   6.603 -0.2433  0.2496 -0.2604
   99MOL0     N13575   8.233   1.206   6.803  0.2892 -0.3212 -0.4077
   99MOL0     N13576   8.171   1.290   6.877  0.0500  0.0520  0.0252
   99MOL0     C13577   7.116   2.008   7.142 -0.4616 -0.2638  0.1724
   99MOL0     C13578   6.983   2.000   7.167 -0.6174 -0.1387  0.0699
   99MOL0     C13579   6.550   2.102   7.152 -0.4355 -0.5855 -0.5728
   99MOL0     C13580   6.487   1.986   7.121 -0.3424 -0.1054  0.2669
   99MOL0     C13581   6.345   1.984   7.095 -0.9989  0.1019  0.7035
   99MOL0     C13582   6.270   2.099   7.129 -0.3860 -0.1956 -0.0902
   99MOL0     O13583   6.140   2.096   7.108  0.7129  0.0496 -0.4330
   99MOL0     C13584   6.088   2.171   6.994 -0.1564  0.8782 -0.4819
   99MOL0     C13585   6.094   2.101   6.861  0.0373  0.1168 -0.0525
   99MOL0     C13586   6.230   2.126   6.785  0.0116 -0.4008  0.8479
   99MOL0     C13587   6.247   2.041   6.660  0.3060 -0.1227  0.8711
   99MOL0     C13588   6.386   2.046   6.606 -0.9338  1.2223 -0.1609
   99MOL0     C13589   6.488   2.045   6.534  0.0597  0.0973 -0.1802
   99MOL0     C13590   6.331   2.221   7.177 -0.4035  0.0177  0.8884
   99MOL0     C13591   6.478   2.220   7.184 -0.3525 -0.3248 -0.4782
   99MOL0     C13592   6.533   2.352   7.234  0.2834  1.0061  0.4669
   99MOL0     H13593   6.843   2.086   6.879 -2.9137 -3.3205  1.6706
   99MOL0     H13594   7.101   2.093   6.806  0.1650 -0.0462 -0.1661
   99MOL0     H13595   7.324   1.949   6.805  2.0402 -2.1708 -1.3647
   99MOL0     H13596   7.305   1.818   6.933  0.7871 -1.0193 -1.7727
   99MOL0     H13597   7.532   2.029   6.898 -1.0367  0.8378 -0.2542
   99MOL0     H13598   7.519   1.901   7.028 -0.8878 -1.5246 -0.3887
   99MOL0     H13599   7.565   1.858   6.727  1.4697 -1.0322 -0.9237
   99MOL0     H13600   7.684   1.832   6.852  0.5802  1.4358 -1.1004
   99MOL0     H13601   7.511   1.644   6.950  2.5037 -0.4809  0.2085
   99MOL0     H13602   7.430   1.669   6.804 -0.8110 -1.6960  3.6776
   99MOL0     H13603   7.645   1.650   6.686 -2.9073 -0.0800 -1.0871
   99MOL0     H13604   7.571   1.504   6.743 -1.2714  0.6582 -1.0897
   99MOL0     H13605   7.803   1.647   6.898 -0.3441 -0.7790  2.5489
   99MOL0     H13606   7.728   1.499   6.951 -0.8644 -1.0711 -0.1534
   99MOL0     H13607   7.877   1.513   6.684 -1.4640 -0.8020 -0.3608
   99MOL0     H13608   7.815   1.368   6.762 -1.5380  0.5747  0.7196
   99MOL0     H13609   8.037   1.553   6.856  0.0016 -0.8313 -1.2627
   99MOL0     H13610   7.966   1.441   6.968  1.2843  1.7693  1.3088
   99MOL0     H13611   8.005   1.304   6.590  2.1511 -1.2664 -2.1735
   99MOL0     H13612   8.156   1.162   6.472  2.3684  0.4674 -0.4265
   99MOL0     H13613   8.145   1.012   6.569 -1.4065  0.6818 -1.0272
   99MOL0     H13614   8.400   1.167   6.482  3.2676 -2.0098 -0.6242
   99MOL0     H13615   8.409   1.117   6.645 -1.8600  2.1071  0.3799
   99MOL0     H13616   8.375   0.881   6.576  1.9192 -1.6159 -1.1332
   99MOL0     H13617   8.318   0.941   6.422 -1.4239  3.1892  0.0861
   99MOL0     H13618   8.544   0.870   6.376 -2.7226 -0.0547 -1.3593
   99MOL0     H13619   8.565   1.045   6.403 -0.9885 -1.1054 -0.1978
   99MOL0     H13620   8.752   0.985   6.345 -0.2976 -1.2100 -0.6464
   99MOL0     H13621   9.055   0.956   6.193 -1.6354  1.7091 -2.5091
   99MOL0     H13622   8.885   0.961   6.182  0.7902  1.8030  3.3262
   99MOL0     H13623   8.975   0.803   6.164  1.8061  0.4097 -1.2690
   99MOL0     H13624   9.196   0.362   6.370  0.2985 -1.4204 -1.0009
   99MOL0     H13625   9.418   0.252   6.316 -0.2909  0.2721 -0.1739
   99MOL0     H13626   9.586   0.182   6.481  0.8515 -2.6630 -0.8282
   99MOL0     H13627   9.657   0.154   6.321 -0.9576  0.8380 -1.0364
   99MOL0     H13628   9.833   0.266   6.540 -2.5489  1.7477 -0.1950
   99MOL0     H13629   9.801   0.105   6.539  2.1570  0.3401  0.8879
   99MOL0     H13630   9.928   0.253   6.293  0.7373 -1.2159 -2.3629
   99MOL0     H13631   9.910   0.083   6.307 -1.7013  2.3428 -3.0317
   99MOL0     H13632  10.056   0.086   6.512 -0.1391  0.3390  0.5266
   99MOL0     H13633  10.068   0.253   6.508 -1.7665  0.7887 -0.0671
   99MOL0     H13634  10.170   0.072   6.274  0.3629  1.6071 -0.9792
   99MOL0     H13635  10.180   0.242   6.277 -2.3201  1.2001  0.9328
   99MOL0     H13636  10.284   0.067   6.519 -3.2220 -1.2518 -1.5624
   99MOL0     H13637  10.329   0.240   6.461 -0.0279  1.1746 -1.1862
   99MOL0     H13638  10.415  -0.020   6.344  0.9807 -0.0588 -1.4454
   99MOL0     H13639  10.504   0.092   6.447  0.8543  0.7402 -0.1727
   99MOL0     H13640  10.427   0.269   6.254  2.3355  1.0115 -1.8357
   99MOL0     H13641  10.420   0.130   6.150  2.4329  1.9360 -1.4651
   99MOL0     H13642   9.617   0.582   6.494 -0.8716 -0.5901 -0.1752
   99MOL0     H13643   9.408   0.703   6.501  3.3359 -0.8070  1.9895
   99MOL0     H13644   8.996   0.673   6.626  0.1861  0.7314  0.7953
   99MOL0     H13645   8.794   0.789   6.704  0.2687  0.8382  0.0283
   99MOL0     H13646   7.185   1.983   7.222  0.0505 -1.5864 -0.6518
   99MOL0     H13647   6.955   1.979   7.269  0.2172  4.8174  1.6046
   99MOL0     H13648   6.546   1.895   7.107  0.4178  0.3632  0.3790
   99MOL0     H13649   6.303   1.893   7.053  0.5589 -1.7217  2.8258
   99MOL0     H13650   5.983   2.176   7.025 -0.0112 -0.4445  0.2943
   99MOL0     H13651   6.134   2.269   6.982  1.3026  0.2842  0.0403
   99MOL0     H13652   6.013   2.141   6.798  1.9137 -0.7640 -3.2856
   99MOL0     H13653   6.094   1.994   6.882 -0.9659  0.4399  1.7550
   99MOL0     H13654   6.225   2.232   6.759 -3.1020 -0.0382  2.4311
   99MOL0     H13655   6.320   2.115   6.846  1.1454  2.1929 -0.2303
   99MOL0     H13656   6.189   2.091   6.581 -0.1644  0.0016  1.2901
   99MOL0     H13657   6.209   1.940   6.673  0.2019 -0.1837  0.1454
   99MOL0     H13658   6.577   2.057   6.475  0.4184 -0.4024  0.2522
   99MOL0     H13659   6.270   2.304   7.213 -1.4159  0.7413 -2.1306
   99MOL0     H13660   6.573   2.336   7.334 -0.9279  0.1409  0.8345
   99MOL0     H13661   6.601   2.403   7.164  1.0382 -0.1954  0.2909
   99MOL0     H13662   6.450   2.422   7.248 -1.2419 -0.8203  0.9605
  100MOL0     O13663   1.532   3.107   7.996  0.1355 -0.8178 -0.2257
  100MOL0     C13664   1.528   3.165   7.884 -0.3757  0.9292 -0.5410
  100MOL0     O13665   1.624   3.242   7.826  0.3215  0.2143  0.2186
  100MOL0     C13666   1.727   3.298   7.890 -0.0130 -0.5110  0.8131
  100MOL0     C13667   1.754   3.437   7.864  0.4722  0.1744  0.1352
  100MOL0     C13668   1.860   3.503   7.917  0.1247  0.1814 -0.8286
  100MOL0     C13669   1.947   3.437   8.009 -0.3422  0.5178 -0.2750
  100MOL0     O13670   2.059   3.495   8.065 -0.5882 -0.3643  0.1712
  100MOL0     C13671   2.070   3.641   8.077  0.1163  0.2750  0.2731
  100MOL0     C13672   2.186   3.675   8.161 -0.2961 -0.4456 -0.0130
  100MOL0     C13673   2.313   3.620   8.107  0.6463  0.0682  0.5107
  100MOL0     C13674   2.426   3.679   8.199  0.6998 -0.5692 -0.0922
  100MOL0     C13675   2.559   3.615   8.167  0.1535  0.9125  0.0245
  100MOL0     C13676   2.660   3.654   8.275 -0.5547 -0.3372  0.6509
  100MOL0     C13677   2.782   3.561   8.273  0.6426 -0.2805  0.2927
  100MOL0     C13678   2.857   3.545   8.148 -0.5009  0.4297  0.1695
  100MOL0     N13679   2.959   3.450   8.154  0.3194  0.5684 -0.6437
  100MOL0     C13680   2.947   3.327   8.217 -0.3339 -0.3859 -0.3524
  100MOL0     C13681   3.052   3.250   8.174 -0.3719 -0.1672 -0.4952
  100MOL0     C13682   3.061   3.098   8.218 -0.9403 -0.1883 -0.3421
  100MOL0     C13683   2.937   3.023   8.172 -1.1619 -0.0900 -0.3602
  100MOL0     C13684   2.935   2.982   8.024  0.2824 -0.1384 -0.5795
  100MOL0     C13685   3.066   2.916   7.970 -0.3009  0.3916  0.0690
  100MOL0     O13686   3.106   2.806   8.049  0.6414  0.6159 -0.3243
  100MOL0     C13687   3.227   2.755   8.026 -0.7667  0.0226  1.1006
  100MOL0     C13688   3.330   2.761   8.122 -0.2326 -0.4779  0.2037
  100MOL0     C13689   3.469   2.719   8.100 -0.2522 -0.8654  0.2869
  100MOL0     C13690   3.572   2.744   8.201 -0.1426  0.5014 -0.3391
  100MOL0     C13691   3.493   2.646   7.984  0.6714  0.1389  0.0921
  100MOL0     C13692   3.619   2.588   7.931 -0.5238 -0.2089 -0.3489
  100MOL0     O13693   3.714   2.548   8.020  0.4578 -0.4561  0.1060
  100MOL0     C13694   3.842   2.514   7.977  0.4604 -0.6170  0.4914
  100MOL0     C13695   3.865   2.389   7.919 -1.0085 -0.2886 -0.6859
  100MOL0     C13696   3.998   2.371   7.877 -0.1767 -0.7430 -0.6730
  100MOL0     C13697   4.094   2.475   7.888  0.7997  0.2958  0.4970
  100MOL0     O13698   4.213   2.476   7.825 -0.5061 -0.1569 -0.7471
  100MOL0     C13699   4.267   2.359   7.765 -0.1116  0.3346  0.2358
  100MOL0     C13700   4.414   2.378   7.731 -0.3250 -1.2723 -0.4260
  100MOL0     C13701   4.430   2.493   7.628  0.9672  0.0507 -1.7518
  100MOL0     C13702   4.419   2.467   7.478 -0.2579 -0.2674 -0.2502
  100MOL0     C13703   4.539   2.385   7.422  0.2675 -0.4505 -0.8631
  100MOL0     C13704   4.520   2.351   7.266  0.0786 -0.8053 -0.1538
  100MOL0     C13705   4.530   2.465   7.168 -0.3658 -0.0312  0.9811
  100MOL0     C13706   4.539   2.423   7.018 -0.5021 -0.0512  0.9226
  100MOL0    Cl13707   4.383   2.332   6.965 -0.1756 -0.3065 -0.1443
  100MOL0     C13708   4.063   2.610   7.931  0.2614  0.4407  0.2782
  100MOL0     C13709   3.924   2.629   7.973 -0.0325 -0.2029 -0.3122
  100MOL0     O13710   3.636   2.596   7.809 -0.0479  0.8075  0.8605
  100MOL0     C13711   3.391   2.644   7.884 -0.2570  0.4923  0.0535
  100MOL0     C13712   3.259   2.698   7.900 -0.1916  0.1272  0.4438
  100MOL0     N13713   3.124   3.333   8.090  0.4572  0.2678  0.3509
  100MOL0     N13714   3.069   3.451   8.081 -0.2734 -0.3423 -0.5747
  100MOL0     C13715   1.928   3.306   8.031 -1.0319  0.8006  0.5309
  100MOL0     C13716   1.823   3.231   7.973 -0.6695  0.0300  0.3572
  100MOL0     C13717   1.403   3.140   7.799 -0.4764  0.2015  0.5495
  100MOL0     C13718   1.373   3.225   7.692  0.2728  0.3907  0.2005
  100MOL0     C13719   1.253   3.230   7.623  0.1889 -0.6372  0.0153
  100MOL0     C13720   1.158   3.123   7.658  0.6953 -0.8389 -0.2126
  100MOL0     O13721   1.035   3.118   7.595 -0.5106 -0.2214 -0.4717
  100MOL0     C13722   0.985   3.220   7.507 -0.2196  0.2348  0.5842
  100MOL0     C13723   0.852   3.186   7.454  0.8083  0.3017 -0.2559
  100MOL0     C13724   0.847   3.045   7.408 -0.0083 -0.7969 -0.3971
  100MOL0     C13725   0.718   2.973   7.391  0.2942  0.6230  0.3620
  100MOL0     C13726   0.635   2.968   7.508 -0.1901 -0.7168  0.5209
  100MOL0     C13727   0.553   2.938   7.593  0.6392 -0.2802 -1.0255
  100MOL0     C13728   1.188   3.025   7.754 -0.2857 -0.8163  0.2961
  100MOL0     C13729   1.311   3.034   7.825 -1.0000  0.4044  0.1256
  100MOL0     C13730   1.322   2.920   7.927 -0.2113  0.3343 -0.4849
  100MOL0     H13731   1.687   3.498   7.804  2.7706  2.5048 -0.2141
  100MOL0     H13732   1.866   3.610   7.899  0.7856  0.7220  2.0857
  100MOL0     H13733   1.987   3.697   8.122  1.2366  1.5071  0.8520
  100MOL0     H13734   2.079   3.683   7.976 -0.6647  2.3086  1.0055
  100MOL0     H13735   2.192   3.783   8.173 -0.7144 -0.7013  3.5396
  100MOL0     H13736   2.169   3.625   8.257  1.9318 -0.7578  0.2571
  100MOL0     H13737   2.323   3.512   8.117  1.0140 -0.1575 -1.8388
  100MOL0     H13738   2.323   3.652   8.003 -2.7392 -0.8149 -0.2182
  100MOL0     H13739   2.424   3.788   8.201 -4.3542 -0.3775  2.4787
  100MOL0     H13740   2.398   3.647   8.300  1.4392  2.0135  0.9864
  100MOL0     H13741   2.590   3.652   8.069 -2.1293 -1.7388 -1.8664
  100MOL0     H13742   2.542   3.508   8.155 -0.9171  1.1185 -0.4365
  100MOL0     H13743   2.695   3.756   8.255 -1.0262 -0.2727  0.1578
  100MOL0     H13744   2.615   3.642   8.374 -0.6513 -2.3929  0.4118
  100MOL0     H13745   2.741   3.465   8.306  1.1089 -0.6156 -0.0972
  100MOL0     H13746   2.847   3.600   8.352  0.0958 -0.7346  0.9778
  100MOL0     H13747   2.789   3.505   8.072 -1.7889 -1.5486  2.2213
  100MOL0     H13748   2.905   3.642   8.134  2.6025 -0.0422  4.9394
  100MOL0     H13749   2.867   3.287   8.278 -2.1216 -2.2754 -3.6683
  100MOL0     H13750   3.055   3.100   8.328  1.4317 -1.3854 -0.1260
  100MOL0     H13751   3.157   3.055   8.188 -2.1194 -2.4544 -1.0628
  100MOL0     H13752   2.941   2.927   8.223  0.9176 -0.1455 -0.5200
  100MOL0     H13753   2.850   3.084   8.195 -0.3707  1.2660 -0.8137
  100MOL0     H13754   2.866   2.898   8.016  1.5144 -1.6232  2.7147
  100MOL0     H13755   2.907   3.065   7.958 -0.0632 -0.8481 -1.3524
  100MOL0     H13756   3.052   2.867   7.874 -0.8206 -1.2672  0.9596
  100MOL0     H13757   3.141   2.995   7.960  0.4118 -0.1514  0.9707
  100MOL0     H13758   3.309   2.803   8.219 -1.7405  2.0728 -1.1214
  100MOL0     H13759   3.668   2.774   8.158  2.1683 -3.0808  1.7848
  100MOL0     H13760   3.585   2.653   8.261 -1.2419  0.2254 -0.5017
  100MOL0     H13761   3.542   2.824   8.270  0.2317  1.2100 -0.9894
  100MOL0     H13762   3.783   2.320   7.903  0.4349 -2.0203 -0.8991
  100MOL0     H13763   4.020   2.278   7.825 -1.6586 -1.4027 -0.1781
  100MOL0     H13764   4.258   2.280   7.840 -0.5234 -0.1182 -0.2868
  100MOL0     H13765   4.208   2.351   7.674  1.2913  1.0104 -0.7714
  100MOL0     H13766   4.469   2.414   7.818  1.1172  0.4816 -1.9675
  100MOL0     H13767   4.459   2.282   7.702 -0.4036 -2.1110  1.9961
  100MOL0     H13768   4.533   2.522   7.651  0.5293  1.1370 -1.1131
  100MOL0     H13769   4.358   2.571   7.655 -2.8003 -2.8431 -2.5835
  100MOL0     H13770   4.399   2.559   7.423 -0.3809  0.8041  1.4890
  100MOL0     H13771   4.335   2.401   7.454 -3.3647  2.4735  2.1848
  100MOL0     H13772   4.632   2.440   7.434  0.9898 -1.9566  0.8037
  100MOL0     H13773   4.541   2.297   7.487 -1.5920 -0.5973 -0.9256
  100MOL0     H13774   4.425   2.298   7.249 -1.2632  1.2298  0.5478
  100MOL0     H13775   4.602   2.283   7.245  0.8582 -0.0159  0.2620
  100MOL0     H13776   4.614   2.530   7.193  1.3903 -2.3840  1.4999
  100MOL0     H13777   4.439   2.526   7.175 -1.1307 -1.1126  0.8904
  100MOL0     H13778   4.625   2.358   7.004  1.3496  2.7349 -2.0850
  100MOL0     H13779   4.557   2.514   6.961  2.8235  0.0853  2.0183
  100MOL0     H13780   4.144   2.681   7.944  3.7354 -3.4217  1.9800
  100MOL0     H13781   3.887   2.721   8.017  0.2666  0.8888 -2.2011
  100MOL0     H13782   3.402   2.595   7.788 -1.2830 -2.6851  1.4128
  100MOL0     H13783   3.179   2.700   7.827 -1.9764  1.6244  2.3316
  100MOL0     H13784   1.983   3.247   8.104 -0.3144 -0.9078 -1.3189
  100MOL0     H13785   1.819   3.128   8.006  0.7732  0.5354  2.2933
  100MOL0     H13786   1.435   3.303   7.648  0.6114 -0.5272 -1.0075
  100MOL0     H13787   1.239   3.313   7.555  0.0053  0.2442  1.0879
  100MOL0     H13788   0.991   3.321   7.549  1.0302  0.1467  0.6540
  100MOL0     H13789   1.048   3.224   7.418 -1.4491 -2.1321 -0.5016
  100MOL0     H13790   0.837   3.263   7.377  2.1261  1.7461  0.8582
  100MOL0     H13791   0.781   3.210   7.534  2.4905  4.0555  0.3511
  100MOL0     H13792   0.895   3.059   7.310  0.8536  1.8211  0.3113
  100MOL0     H13793   0.908   2.976   7.467  0.4058 -0.5087 -0.4795
  100MOL0     H13794   0.733   2.868   7.365 -0.4184  0.4727  0.5324
  100MOL0     H13795   0.653   3.021   7.316 -1.9337 -1.3590  0.8873
  100MOL0     H13796   0.487   2.907   7.671  0.1585  0.5736 -1.0852
  100MOL0     H13797   1.114   2.948   7.770 -2.1085  0.9852  0.9202
  100MOL0     H13798   1.262   2.832   7.903 -1.8355  1.2988 -0.1277
  100MOL0     H13799   1.425   2.885   7.939 -0.0641  1.2572  1.4512
  100MOL0     H13800   1.299   2.971   8.021  1.8590 -0.2815  0.4134
  101MOL0     O13801   4.419   8.688   5.492  0.7945 -0.1178 -0.6293
  101MOL0     C13802   4.534   8.665   5.465  0.3898  0.1852  0.0922
  101MOL0     O13803   4.613   8.581   5.538  0.7806 -0.2228  0.1811
  101MOL0     C13804   4.579   8.557   5.668 -0.4982 -0.9096 -0.4845
  101MOL0     C13805   4.479   8.465   5.696 -0.0260 -0.3057 -0.6474
  101MOL0     C13806   4.461   8.418   5.833  1.4181  0.1141 -0.3828
  101MOL0     C13807   4.540   8.469   5.937  0.0104 -0.1711  0.2171
  101MOL0     O13808   4.521   8.434   6.067  0.6728 -0.1821 -0.0251
  101MOL0     C13809   4.416   8.343   6.096 -0.7285 -0.7992  0.2377
  101MOL0     C13810   4.427   8.303   6.245  0.1734  0.2150  1.1963
  101MOL0     C13811   4.397   8.426   6.323  0.0701 -0.0579  0.5084
  101MOL0     C13812   4.440   8.408   6.467  0.7452 -0.1628 -0.9320
  101MOL0     C13813   4.417   8.533   6.549  0.2931  0.5318  0.0595
  101MOL0     C13814   4.466   8.519   6.691 -0.3121  0.0726 -0.8723
  101MOL0     C13815   4.612   8.551   6.715 -0.6796  0.1366  0.0098
  101MOL0     C13816   4.657   8.568   6.866  0.3708 -0.1673 -0.9328
  101MOL0     N13817   4.807   8.580   6.892  0.1294  0.7755 -0.0954
  101MOL0     C13818   4.898   8.504   6.970  0.3529 -0.0185 -0.0096
  101MOL0     C13819   5.017   8.555   6.964  0.0900  0.1920  0.4163
  101MOL0     C13820   5.135   8.488   7.025  0.0316 -0.7464  0.4147
  101MOL0     C13821   5.228   8.611   7.066  0.2122 -0.0491 -0.8259
  101MOL0     C13822   5.349   8.561   7.139  0.8856  0.6139 -0.4145
  101MOL0     C13823   5.460   8.660   7.143 -0.0059 -0.3354  0.4102
  101MOL0     O13824   5.566   8.611   7.229 -0.1762  0.0941 -0.1027
  101MOL0     C13825   5.674   8.692   7.237 -0.0975 -0.4730  0.1395
  101MOL0     C13826   5.707   8.788   7.146 -0.5052 -0.1171 -0.1124
  101MOL0     C13827   5.824   8.866   7.160 -0.0293 -0.9893  0.0781
  101MOL0     C13828   5.849   8.989   7.077  0.0593  0.3067  0.4639
  101MOL0     C13829   5.910   8.848   7.274  0.1420 -0.0196 -0.8095
  101MOL0     C13830   6.041   8.925   7.303 -0.2921 -0.0349 -0.7494
  101MOL0     O13831   6.114   8.867   7.396 -0.5571 -0.3864 -0.3545
  101MOL0     C13832   6.240   8.916   7.439  0.1707  1.2355 -0.0698
  101MOL0     C13833   6.348   8.827   7.426  0.9294  0.4904 -0.2041
  101MOL0     C13834   6.463   8.865   7.495  0.4631  0.3095 -0.2596
  101MOL0     C13835   6.477   8.984   7.561  0.4064 -0.0974  0.4373
  101MOL0     O13836   6.594   9.031   7.610  0.5164  0.3822  0.2963
  101MOL0     C13837   6.697   8.937   7.639  0.6209  0.2168  0.1653
  101MOL0     C13838   6.813   9.015   7.700  0.2753 -0.4473  0.2011
  101MOL0     C13839   6.930   8.919   7.732 -0.1972 -0.7956  0.1327
  101MOL0     C13840   7.059   8.989   7.787  0.8639  0.1013 -0.3566
  101MOL0     C13841   7.141   8.906   7.886 -0.0079  0.2062 -0.3610
  101MOL0     C13842   7.254   8.988   7.933  0.3126 -0.0853 -0.0634
  101MOL0     C13843   7.355   9.016   7.812  0.3660  0.3693 -0.7030
  101MOL0     C13844   7.491   9.051   7.868 -0.3499 -0.0319  0.4092
  101MOL0    Cl13845   7.506   9.218   7.926 -0.3893 -0.0102 -0.2050
  101MOL0     C13846   6.372   9.067   7.566 -0.3044  0.0028 -0.3422
  101MOL0     C13847   6.254   9.038   7.500 -0.2401 -0.1573  0.0292
  101MOL0     O13848   6.071   9.033   7.252  0.0146 -0.2806  0.1932
  101MOL0     C13849   5.865   8.753   7.365  0.0187 -0.5292 -0.3162
  101MOL0     C13850   5.746   8.670   7.353  0.4249  0.3593 -0.2609
  101MOL0     N13851   5.004   8.663   6.883  0.1271 -1.5593 -0.2626
  101MOL0     N13852   4.885   8.682   6.854  1.0585 -0.3244  0.6649
  101MOL0     C13853   4.651   8.553   5.895  0.3656  0.6796 -0.9240
  101MOL0     C13854   4.668   8.598   5.768  0.7246 -0.8337 -0.1969
  101MOL0     C13855   4.590   8.714   5.329  0.2390 -0.2703 -0.1420
  101MOL0     C13856   4.682   8.632   5.263  0.0043  0.4298  0.6336
  101MOL0     C13857   4.744   8.666   5.148  0.6323 -0.0122 -0.1893
  101MOL0     C13858   4.727   8.791   5.095  0.6018  0.3000  0.0828
  101MOL0     O13859   4.795   8.829   4.975  0.0455 -0.2174  0.4835
  101MOL0     C13860   4.824   8.728   4.879  0.7834  0.6435 -0.9593
  101MOL0     C13861   4.855   8.799   4.743 -0.3755 -0.4906  0.5692
  101MOL0     C13862   4.986   8.870   4.751 -0.6358 -0.7902  0.8647
  101MOL0     C13863   5.049   8.889   4.610  0.5600  0.5736 -0.0727
  101MOL0     C13864   4.978   8.989   4.526 -0.3265 -0.2371  0.1174
  101MOL0     C13865   4.914   9.067   4.458 -0.5428 -0.5525  0.5533
  101MOL0     C13866   4.634   8.869   5.153 -0.2017  0.6294 -0.2310
  101MOL0     C13867   4.561   8.842   5.273 -0.2870  1.0061 -0.2032
  101MOL0     C13868   4.490   8.950   5.342 -0.4298  0.2029 -0.1154
  101MOL0     H13869   4.403   8.437   5.624  0.8938  0.7064 -2.0727
  101MOL0     H13870   4.375   8.353   5.839  2.2664 -0.9608  0.3763
  101MOL0     H13871   4.399   8.252   6.038 -1.8313  0.2058 -1.0605
  101MOL0     H13872   4.322   8.396   6.083 -0.1311  0.3599  0.4809
  101MOL0     H13873   4.345   8.234   6.266 -2.3399  2.1550 -1.5569
  101MOL0     H13874   4.523   8.260   6.277  0.3256  0.1011  0.5984
  101MOL0     H13875   4.445   8.517   6.285  0.5126 -0.3183  0.4384
  101MOL0     H13876   4.288   8.432   6.319 -0.1872 -3.5007 -0.7772
  101MOL0     H13877   4.373   8.333   6.511  1.0619  0.7364  1.1775
  101MOL0     H13878   4.544   8.374   6.468  0.5214 -1.0778 -2.9776
  101MOL0     H13879   4.309   8.548   6.551  0.1759 -0.3195  0.4869
  101MOL0     H13880   4.462   8.617   6.496  0.4462  0.7148  0.4709
  101MOL0     H13881   4.411   8.579   6.764  1.2432 -0.1696  0.5640
  101MOL0     H13882   4.445   8.418   6.725 -1.1541  0.7288  0.6720
  101MOL0     H13883   4.629   8.651   6.676  1.1621 -0.2734 -0.3566
  101MOL0     H13884   4.672   8.483   6.653 -2.3700  1.5583 -3.4585
  101MOL0     H13885   4.606   8.658   6.902  0.4129  0.1045 -1.5417
  101MOL0     H13886   4.619   8.482   6.923 -0.9578 -0.3129 -2.0015
  101MOL0     H13887   4.871   8.409   7.017  0.0201 -0.2254 -0.6145
  101MOL0     H13888   5.181   8.426   6.947  0.2584  1.7192 -1.5460
  101MOL0     H13889   5.103   8.430   7.112  0.0634 -1.5731 -0.1120
  101MOL0     H13890   5.270   8.661   6.978  2.4073 -0.7216 -0.2111
  101MOL0     H13891   5.176   8.684   7.128 -1.6707 -1.1111 -1.0989
  101MOL0     H13892   5.309   8.530   7.235 -0.0105 -3.0813 -1.8106
  101MOL0     H13893   5.391   8.476   7.083  1.7348  2.4279 -2.7145
  101MOL0     H13894   5.486   8.697   7.043 -2.0026  0.5365  0.1676
  101MOL0     H13895   5.424   8.751   7.192  2.9896  1.3424 -0.2213
  101MOL0     H13896   5.648   8.800   7.055 -2.3758  1.0160  1.1819
  101MOL0     H13897   5.759   9.015   7.022 -0.8846  2.0592  2.6469
  101MOL0     H13898   5.934   8.976   7.010  1.2985  3.0314  1.3519
  101MOL0     H13899   5.868   9.085   7.128  0.8039  0.2152  0.3798
  101MOL0     H13900   6.332   8.744   7.358  0.2734  0.8788 -0.5333
  101MOL0     H13901   6.552   8.806   7.481  1.8257  2.0967  0.5095
  101MOL0     H13902   6.656   8.865   7.711  4.5052 -0.3670  2.0111
  101MOL0     H13903   6.725   8.870   7.556 -1.7120 -1.5255  0.6643
  101MOL0     H13904   6.851   9.100   7.642 -0.5943 -0.2921 -0.1510
  101MOL0     H13905   6.776   9.062   7.791 -0.7099 -3.0756  1.2458
  101MOL0     H13906   6.955   8.856   7.647 -0.6007 -0.6950 -0.0656
  101MOL0     H13907   6.882   8.866   7.815 -0.8886  2.7448  2.1938
  101MOL0     H13908   7.024   9.074   7.846 -1.7550 -1.1164 -0.0139
  101MOL0     H13909   7.112   9.030   7.701 -0.0360 -0.5113 -1.2283
  101MOL0     H13910   7.089   8.881   7.979 -0.2986  0.8716 -0.3364
  101MOL0     H13911   7.178   8.814   7.841  2.4873 -0.1285  2.1298
  101MOL0     H13912   7.293   8.937   8.021  0.6983  1.3137  0.6124
  101MOL0     H13913   7.224   9.088   7.965  2.6694  0.4003  0.8531
  101MOL0     H13914   7.311   9.099   7.756 -0.5924 -0.0933 -0.6486
  101MOL0     H13915   7.371   8.922   7.758  1.0519  0.3918 -0.5531
  101MOL0     H13916   7.562   9.035   7.787 -1.3985 -2.9977 -0.0471
  101MOL0     H13917   7.517   8.976   7.943  0.5986 -0.0569  0.0695
  101MOL0     H13918   6.382   9.161   7.620  1.7557 -1.1349  1.4247
  101MOL0     H13919   6.171   9.108   7.499 -0.0457  0.0951  0.9776
  101MOL0     H13920   5.911   8.745   7.463  0.5203  0.4439 -0.4599
  101MOL0     H13921   5.720   8.599   7.431  0.5959  0.3779 -0.1864
  101MOL0     H13922   4.713   8.603   5.968  0.4791  0.8875 -1.1589
  101MOL0     H13923   4.742   8.665   5.726  2.8166 -3.3615 -0.8189
  101MOL0     H13924   4.704   8.534   5.302  1.3934  0.6621  0.4729
  101MOL0     H13925   4.803   8.592   5.095 -1.9953 -1.4075 -1.3420
  101MOL0     H13926   4.911   8.668   4.904  1.2257  0.7345 -2.1900
  101MOL0     H13927   4.742   8.660   4.853  1.7629 -1.3134  0.8229
  101MOL0     H13928   4.777   8.868   4.709  0.7889 -0.3176 -1.9426
  101MOL0     H13929   4.863   8.726   4.661 -1.3069 -0.5688  0.5281
  101MOL0     H13930   4.965   8.968   4.794  1.3503  0.0420  0.0614
  101MOL0     H13931   5.058   8.813   4.811  1.2388 -0.1059 -0.6309
  101MOL0     H13932   5.053   8.791   4.561 -1.9113  0.4126 -0.0517
  101MOL0     H13933   5.151   8.925   4.625  0.8946 -0.9827  1.9228
  101MOL0     H13934   4.839   9.121   4.403  0.3680 -1.4278 -1.6523
  101MOL0     H13935   4.615   8.962   5.101 -2.0360  0.4036 -0.0314
  101MOL0     H13936   4.533   8.959   5.443 -1.8726  0.0441  0.5286
  101MOL0     H13937   4.516   9.044   5.292  0.4706  0.9009  1.5669
  101MOL0     H13938   4.382   8.939   5.355 -0.4909  1.0580  0.1904
  102MOL0     O13939   0.285   1.533   7.611  0.3005 -0.0794 -0.0318
  102MOL0     C13940   0.314   1.646   7.642 -0.2748 -0.2237 -0.2084
  102MOL0     O13941   0.443   1.689   7.660  0.1615  0.5548 -0.4154
  102MOL0     C13942   0.550   1.611   7.628  0.6711 -0.0614  0.4859
  102MOL0     C13943   0.562   1.499   7.531 -1.0567 -1.1903  0.2023
  102MOL0     C13944   0.686   1.445   7.490  0.3149  0.5205 -0.6732
  102MOL0     C13945   0.808   1.487   7.545  0.0936 -0.0346  0.6241
  102MOL0     O13946   0.935   1.424   7.538 -0.0535  0.1285  0.4364
  102MOL0     C13947   0.959   1.344   7.421 -0.4521  0.4421  1.0869
  102MOL0     C13948   1.113   1.298   7.418  0.0039 -0.1970  0.5977
  102MOL0     C13949   1.212   1.414   7.396  0.7970 -0.2132  0.1027
  102MOL0     C13950   1.349   1.372   7.427 -0.7978 -0.7588 -0.8286
  102MOL0     C13951   1.445   1.474   7.368 -0.3934  0.2004  0.4636
  102MOL0     C13952   1.584   1.464   7.436  0.7794  0.2131  0.4353
  102MOL0     C13953   1.651   1.327   7.410 -0.2873  0.0264 -0.4117
  102MOL0     C13954   1.783   1.323   7.484  0.1141 -0.0094 -0.6124
  102MOL0     N13955   1.879   1.405   7.417 -0.9578  0.0091  0.3922
  102MOL0     C13956   1.974   1.479   7.482 -0.3062  0.3419 -0.5494
  102MOL0     C13957   2.019   1.574   7.395  0.6119  0.2676 -0.1910
  102MOL0     C13958   2.126   1.676   7.415 -0.0535 -0.7923 -0.6954
  102MOL0     C13959   2.271   1.627   7.406 -0.5366 -0.2146  0.3728
  102MOL0     C13960   2.364   1.748   7.403 -0.2515  0.2627 -0.0515
  102MOL0     C13961   2.513   1.697   7.392 -0.3066  1.3086  0.6892
  102MOL0     O13962   2.602   1.804   7.422  0.7384 -0.0468  0.1150
  102MOL0     C13963   2.717   1.776   7.497 -0.8686  0.7039  0.3485
  102MOL0     C13964   2.775   1.885   7.568 -0.3740 -0.2553  0.3579
  102MOL0     C13965   2.881   1.868   7.652 -0.4070 -0.3954 -0.7443
  102MOL0     C13966   2.926   1.997   7.729 -0.2123 -0.4275 -0.2402
  102MOL0     C13967   2.960   1.751   7.648  0.7900 -0.2063 -0.0333
  102MOL0     C13968   3.078   1.722   7.728  0.7508  0.1677 -0.3456
  102MOL0     O13969   3.128   1.599   7.699 -0.0633  0.0957  0.7653
  102MOL0     C13970   3.204   1.524   7.783  0.1931 -0.2772 -0.5381
  102MOL0     C13971   3.152   1.472   7.898  0.0691  0.6417  0.4771
  102MOL0     C13972   3.226   1.379   7.971 -1.0011 -0.3659 -0.0975
  102MOL0     C13973   3.356   1.347   7.928 -0.3328  0.5216  0.0053
  102MOL0     O13974   3.448   1.271   7.994 -0.7897  0.3986 -0.0058
  102MOL0     C13975   3.407   1.202   8.102  0.6017 -0.3756  0.5591
  102MOL0     C13976   3.524   1.114   8.151 -0.1434  0.3557  0.5336
  102MOL0     C13977   3.639   1.194   8.210  0.3298 -0.1039 -0.2427
  102MOL0     C13978   3.743   1.108   8.272  0.4680  0.1019 -0.1226
  102MOL0     C13979   3.883   1.170   8.268  0.0176 -0.0566 -0.3066
  102MOL0     C13980   3.914   1.288   8.359  0.3240 -0.1750 -0.1269
  102MOL0     C13981   4.066   1.302   8.396  1.5624 -0.3229  0.6020
  102MOL0     C13982   4.074   1.409   8.508 -0.5675  0.0512  0.1389
  102MOL0    Cl13983   4.246   1.443   8.566  0.2897 -0.1035  0.0592
  102MOL0     C13984   3.407   1.403   7.806  0.6297 -0.0420  0.3948
  102MOL0     C13985   3.334   1.500   7.733 -0.1392 -0.2884  0.3884
  102MOL0     O13986   3.119   1.794   7.820 -1.3643  0.3686 -0.1313
  102MOL0     C13987   2.905   1.655   7.561  1.0332  0.2169 -0.2022
  102MOL0     C13988   2.784   1.663   7.491 -0.1939  0.0564  0.3842
  102MOL0     N13989   1.951   1.547   7.274 -0.1213  0.1916 -0.1670
  102MOL0     N13990   1.885   1.437   7.288 -0.4476  0.0505  0.7073
  102MOL0     C13991   0.800   1.586   7.643  0.0841  0.1741  0.1356
  102MOL0     C13992   0.678   1.648   7.678  0.0530 -0.3465  0.9642
  102MOL0     C13993   0.219   1.747   7.677 -0.1888  0.4835  0.4263
  102MOL0     C13994   0.265   1.852   7.761  0.3905  1.0523  0.1135
  102MOL0     C13995   0.177   1.951   7.798 -0.0466 -0.2231 -0.8796
  102MOL0     C13996   0.036   1.950   7.768 -0.6896 -0.5149 -1.0881
  102MOL0     O13997  -0.022   2.070   7.798 -0.0034 -0.0644 -0.4520
  102MOL0     C13998  -0.162   2.063   7.803 -0.0435  0.3834 -0.4302
  102MOL0     C13999  -0.220   2.173   7.897  0.3959  0.1372 -0.2777
  102MOL0     C14000  -0.235   2.127   8.039  0.3478 -0.2057 -0.3298
  102MOL0     C14001  -0.106   2.119   8.111 -0.8132  0.0515 -0.3391
  102MOL0     C14002  -0.117   2.157   8.257 -0.5367  0.4634  0.0044
  102MOL0     C14003  -0.116   2.185   8.378  0.8889 -0.8258  0.5799
  102MOL0     C14004  -0.009   1.840   7.689 -0.0016 -0.3337  0.2988
  102MOL0     C14005   0.080   1.741   7.645  0.3041 -0.4673 -0.0079
  102MOL0     C14006   0.014   1.640   7.548 -0.1643 -0.4127 -0.2935
  102MOL0     H14007   0.475   1.466   7.474 -1.1256  1.3598 -1.2956
  102MOL0     H14008   0.689   1.376   7.406  2.9923  1.8218 -1.7605
  102MOL0     H14009   0.930   1.404   7.335 -1.0786  1.0847  1.7279
  102MOL0     H14010   0.900   1.254   7.437 -0.8393  0.4498 -0.1952
  102MOL0     H14011   1.141   1.242   7.508 -0.4631 -2.8712 -0.8295
  102MOL0     H14012   1.124   1.222   7.341  3.7809 -1.1871  1.8789
  102MOL0     H14013   1.206   1.440   7.290 -0.8738 -1.6267 -0.2082
  102MOL0     H14014   1.174   1.498   7.455 -0.7867 -0.6733 -0.1925
  102MOL0     H14015   1.365   1.373   7.535  1.5823  1.6439 -1.1074
  102MOL0     H14016   1.371   1.279   7.372  2.3505 -0.1551 -0.7983
  102MOL0     H14017   1.413   1.577   7.387 -0.3746 -0.0532  1.9596
  102MOL0     H14018   1.457   1.456   7.260 -0.5446  1.1634  0.2738
  102MOL0     H14019   1.651   1.545   7.407  1.3278  1.0113  3.5703
  102MOL0     H14020   1.559   1.478   7.542 -0.0358  3.5331 -0.0960
  102MOL0     H14021   1.666   1.308   7.303  1.4172  0.8241 -0.3294
  102MOL0     H14022   1.592   1.242   7.448  1.3005 -0.0348  2.1207
  102MOL0     H14023   1.770   1.370   7.582  0.6517  1.4073 -1.1866
  102MOL0     H14024   1.816   1.219   7.487 -0.5173 -0.2775 -2.0669
  102MOL0     H14025   2.000   1.479   7.588  1.6021 -2.5053 -0.8795
  102MOL0     H14026   2.113   1.724   7.512  0.3055 -1.7861 -0.1390
  102MOL0     H14027   2.109   1.748   7.335 -1.8516 -0.1154  0.2375
  102MOL0     H14028   2.303   1.556   7.483  1.1155 -0.9155 -0.8931
  102MOL0     H14029   2.286   1.573   7.312 -0.3463 -1.1424  0.9215
  102MOL0     H14030   2.344   1.814   7.319  1.1873  0.3322 -0.3579
  102MOL0     H14031   2.350   1.809   7.493  1.9157  1.0496 -0.1945
  102MOL0     H14032   2.523   1.605   7.451 -1.7996  1.1225  0.7044
  102MOL0     H14033   2.537   1.668   7.289  3.0703 -0.9715  1.9576
  102MOL0     H14034   2.718   1.976   7.549  0.0321 -0.1120 -0.2090
  102MOL0     H14035   3.025   2.032   7.699 -1.0713  3.1309  0.6210
  102MOL0     H14036   2.929   1.982   7.837  2.2873  1.8687  0.1157
  102MOL0     H14037   2.853   2.073   7.702  1.2358  0.3960 -2.0658
  102MOL0     H14038   3.047   1.479   7.924 -1.0986 -1.6786 -2.9021
  102MOL0     H14039   3.187   1.344   8.066  0.6449  1.0150  1.1582
  102MOL0     H14040   3.374   1.271   8.181  0.0448  2.9370 -2.3118
  102MOL0     H14041   3.324   1.135   8.077  2.4298 -2.6759  0.3871
  102MOL0     H14042   3.484   1.036   8.217 -0.3092 -1.4485 -1.5876
  102MOL0     H14043   3.558   1.061   8.061  0.5099 -0.5511  1.3016
  102MOL0     H14044   3.592   1.259   8.285  0.0712 -1.6321  0.9846
  102MOL0     H14045   3.689   1.251   8.131 -2.0342  0.5314 -1.3777
  102MOL0     H14046   3.750   1.024   8.203  0.2165 -0.6236  0.7166
  102MOL0     H14047   3.720   1.075   8.374  1.4033  0.5830  0.2577
  102MOL0     H14048   3.954   1.088   8.278  0.0225  0.0117  0.2808
  102MOL0     H14049   3.909   1.218   8.173  3.8407  1.2134  1.1955
  102MOL0     H14050   3.858   1.272   8.452  0.0017 -2.0930 -0.5996
  102MOL0     H14051   3.883   1.385   8.321  1.4375  1.6082  3.0755
  102MOL0     H14052   4.129   1.331   8.312  2.1707 -0.8802  0.8527
  102MOL0     H14053   4.095   1.206   8.440 -2.3664 -1.4891  1.0253
  102MOL0     H14054   4.032   1.367   8.600 -0.4850  2.7766  1.5251
  102MOL0     H14055   4.023   1.501   8.480  0.9297 -0.0109 -3.2641
  102MOL0     H14056   3.507   1.366   7.784  0.7336  1.7790 -2.7966
  102MOL0     H14057   3.374   1.549   7.645 -0.3024  0.0308  0.4898
  102MOL0     H14058   2.962   1.568   7.533  1.5819  0.7790 -0.8732
  102MOL0     H14059   2.748   1.589   7.421  1.1567 -0.7691  0.5341
  102MOL0     H14060   0.893   1.605   7.695  0.7541 -0.3249 -0.8457
  102MOL0     H14061   0.679   1.725   7.754 -0.3382  1.9091 -1.2080
  102MOL0     H14062   0.365   1.855   7.802 -0.0301  0.7922  1.2178
  102MOL0     H14063   0.224   2.038   7.843  1.0067 -1.1547 -0.1261
  102MOL0     H14064  -0.184   2.080   7.697  1.1657  0.7723 -0.6305
  102MOL0     H14065  -0.213   1.968   7.822  0.8405  0.0534  0.4085
  102MOL0     H14066  -0.317   2.200   7.855  1.2764  1.1371 -1.7525
  102MOL0     H14067  -0.158   2.263   7.894 -0.7060  0.9293  0.2951
  102MOL0     H14068  -0.308   2.199   8.077 -0.0273 -1.1156  0.7316
  102MOL0     H14069  -0.274   2.025   8.034  2.9569 -1.2393 -1.0744
  102MOL0     H14070  -0.027   2.182   8.070  0.0154 -0.8117 -0.1197
  102MOL0     H14071  -0.076   2.014   8.109  0.0739  0.3114 -2.0941
  102MOL0     H14072  -0.139   2.200   8.482  0.8803  1.8676  0.2793
  102MOL0     H14073  -0.109   1.840   7.647 -1.0532 -0.4843  2.6415
  102MOL0     H14074   0.070   1.638   7.454 -1.4884 -0.8072 -1.1080
  102MOL0     H14075   0.010   1.540   7.592  1.8019 -1.5511 -2.4802
  102MOL0     H14076  -0.089   1.676   7.536 -0.7749 -1.9627 -0.0391
  103MOL0     O14077   0.387   7.397   8.086 -0.5136 -0.1268  0.0372
  103MOL0     C14078   0.265   7.399   8.076  0.5483  0.0149 -0.8387
  103MOL0     O14079   0.195   7.490   8.004 -0.5402  0.5908  0.6884
  103MOL0     C14080   0.259   7.570   7.905 -0.1905 -0.2384 -0.2038
  103MOL0     C14081   0.392   7.561   7.859 -0.4116  0.0033  0.8680
  103MOL0     C14082   0.429   7.653   7.763  0.0230  0.2337 -0.4492
  103MOL0     C14083   0.346   7.751   7.702  0.1105  0.3984  0.2034
  103MOL0     O14084   0.381   7.827   7.596  0.5046  0.3581  0.7725
  103MOL0     C14085   0.515   7.887   7.609 -0.2115 -0.3221 -0.0868
  103MOL0     C14086   0.573   7.922   7.475 -0.0397 -0.5365 -0.0943
  103MOL0     C14087   0.698   8.013   7.498 -0.0875 -0.4282  0.2760
  103MOL0     C14088   0.747   8.060   7.358  0.1398 -0.0890  0.0517
  103MOL0     C14089   0.866   8.153   7.375  0.2276  0.1510  0.6468
  103MOL0     C14090   0.945   8.153   7.246  0.4649  0.1489  0.0732
  103MOL0     C14091   1.097   8.180   7.267 -0.0343 -0.3018 -0.0590
  103MOL0     C14092   1.137   8.333   7.272 -0.0500  0.1374  0.7735
  103MOL0     N14093   1.279   8.361   7.261  0.3373 -0.3083 -0.3159
  103MOL0     C14094   1.367   8.316   7.352  0.8466  0.2130  0.2869
  103MOL0     C14095   1.488   8.338   7.300 -0.5281  1.7758 -0.1653
  103MOL0     C14096   1.612   8.315   7.377 -0.9103  0.6059 -0.5628
  103MOL0     C14097   1.685   8.444   7.435  1.4038  0.6532  0.1590
  103MOL0     C14098   1.830   8.416   7.492 -0.8004 -0.1067  0.0588
  103MOL0     C14099   1.918   8.536   7.516  0.5611  0.1860  0.1626
  103MOL0     O14100   1.946   8.615   7.403  0.5050 -0.0145  0.0830
  103MOL0     C14101   2.065   8.678   7.413 -1.1535  0.6693 -0.4813
  103MOL0     C14102   2.092   8.779   7.513 -0.2132 -0.2037  0.2171
  103MOL0     C14103   2.218   8.842   7.526  0.3027  0.3022  0.0397
  103MOL0     C14104   2.237   8.944   7.633  0.6515  0.3951  0.4143
  103MOL0     C14105   2.330   8.784   7.457  0.5036  0.1170  0.1210
  103MOL0     C14106   2.469   8.813   7.491 -0.2749 -0.2823  0.5568
  103MOL0     O14107   2.555   8.700   7.499  0.1194 -0.4510 -0.4098
  103MOL0     C14108   2.684   8.711   7.539 -1.0293  0.4253 -0.7294
  103MOL0     C14109   2.783   8.623   7.489 -0.4743 -0.7383 -0.5070
  103MOL0     C14110   2.915   8.618   7.535  1.0089  0.9411  0.7533
  103MOL0     C14111   2.960   8.708   7.633 -0.2029 -0.4594  0.5215
  103MOL0     O14112   3.091   8.690   7.669 -0.5554 -0.2599 -0.2546
  103MOL0     C14113   3.161   8.794   7.731  0.4657 -0.1035 -0.5023
  103MOL0     C14114   3.293   8.760   7.797 -0.6584  0.1744  0.0761
  103MOL0     C14115   3.388   8.692   7.689  0.6230  0.2076  0.1781
  103MOL0     C14116   3.531   8.668   7.735  0.2227 -0.2150 -0.3186
  103MOL0     C14117   3.626   8.604   7.627  0.5026  0.1130 -0.0660
  103MOL0     C14118   3.761   8.576   7.691  0.0102 -0.4191 -0.1322
  103MOL0     C14119   3.879   8.575   7.590 -0.3387  0.1760 -0.4545
  103MOL0     C14120   4.002   8.516   7.657  0.4486  0.4768 -0.1708
  103MOL0    Cl14121   4.054   8.604   7.805 -0.1427  0.7960  0.2935
  103MOL0     C14122   2.869   8.797   7.686  0.1060  0.5296 -0.0460
  103MOL0     C14123   2.735   8.808   7.638  0.3595  0.1015  0.3018
  103MOL0     O14124   2.511   8.933   7.498 -0.4089  0.3090  0.0540
  103MOL0     C14125   2.305   8.686   7.355 -0.0100  0.3495 -0.2461
  103MOL0     C14126   2.172   8.633   7.332  0.4651 -0.3410 -0.2797
  103MOL0     N14127   1.482   8.372   7.170 -0.5706 -0.4932 -0.2317
  103MOL0     N14128   1.353   8.399   7.153  0.1426  0.6658 -0.0693
  103MOL0     C14129   0.212   7.739   7.731  0.1284 -0.1466  0.1366
  103MOL0     C14130   0.171   7.659   7.834  0.1729 -0.2969  0.5520
  103MOL0     C14131   0.192   7.297   8.156  0.3599 -0.0001  0.4183
  103MOL0     C14132   0.255   7.174   8.179 -0.6139  0.4746  0.3451
  103MOL0     C14133   0.192   7.083   8.252  0.4480  0.2059 -0.0471
  103MOL0     C14134   0.061   7.095   8.300  0.0244 -0.1206  0.2737
  103MOL0     O14135  -0.013   6.990   8.345 -0.2545 -0.4289 -0.8224
  103MOL0     C14136  -0.013   6.863   8.270 -0.7368 -0.5205 -0.3258
  103MOL0     C14137  -0.160   6.832   8.222 -0.8144  0.6991 -0.8902
  103MOL0     C14138  -0.168   6.707   8.135  0.6614  0.4256  0.1118
  103MOL0     C14139  -0.112   6.719   7.995  0.4789  0.4446 -0.0589
  103MOL0     C14140  -0.180   6.639   7.892 -0.1335  0.1961  0.5808
  103MOL0     C14141  -0.206   6.569   7.797  0.6151  0.0371 -0.4168
  103MOL0     C14142  -0.007   7.209   8.272 -0.0124  0.3352  0.0831
  103MOL0     C14143   0.058   7.315   8.198  0.3151  0.6218 -0.9609
  103MOL0     C14144  -0.020   7.437   8.174 -0.1634  0.1952  0.0805
  103MOL0     H14145   0.469   7.492   7.892  1.0629  1.5879  0.8216
  103MOL0     H14146   0.528   7.623   7.729 -0.0417  1.4834 -1.8608
  103MOL0     H14147   0.594   7.828   7.656  1.0965 -0.3345 -2.1349
  103MOL0     H14148   0.500   7.984   7.658  0.4438  0.1947 -0.8655
  103MOL0     H14149   0.594   7.823   7.433  0.8075 -0.5461  0.3326
  103MOL0     H14150   0.503   7.977   7.412  0.8337  0.6114 -0.0971
  103MOL0     H14151   0.672   8.095   7.565  1.6167  0.4118 -0.0544
  103MOL0     H14152   0.781   7.955   7.540  1.2658  1.0530 -0.2622
  103MOL0     H14153   0.773   7.971   7.301  0.8201  0.1162  0.0317
  103MOL0     H14154   0.672   8.108   7.294  0.9001 -0.7225 -1.3452
  103MOL0     H14155   0.922   8.101   7.454 -1.4045  0.7054  2.2526
  103MOL0     H14156   0.847   8.256   7.409  3.0835  1.4645 -1.3351
  103MOL0     H14157   0.934   8.060   7.189  0.8708  0.6653 -0.8739
  103MOL0     H14158   0.907   8.234   7.182  2.1668  0.4314 -0.6437
  103MOL0     H14159   1.145   8.136   7.179  0.8793  0.1197  0.2185
  103MOL0     H14160   1.132   8.130   7.358 -1.2642 -0.4790  0.3470
  103MOL0     H14161   1.102   8.379   7.179  2.3947 -0.9797 -0.8273
  103MOL0     H14162   1.083   8.384   7.352 -0.8090  2.1184 -0.9247
  103MOL0     H14163   1.334   8.285   7.450 -2.5490  0.4298 -0.6758
  103MOL0     H14164   1.686   8.273   7.308 -0.3109  2.4869 -1.1096
  103MOL0     H14165   1.594   8.242   7.457  2.8830  0.9831  0.8742
  103MOL0     H14166   1.695   8.509   7.347  0.0351  0.7054  0.0155
  103MOL0     H14167   1.624   8.497   7.509 -0.9221  0.0003 -1.1937
  103MOL0     H14168   1.800   8.364   7.584  0.6383 -0.6476  0.2415
  103MOL0     H14169   1.885   8.346   7.428 -1.7920 -0.2067 -0.7260
  103MOL0     H14170   1.878   8.601   7.594  1.3893  0.4953  0.3402
  103MOL0     H14171   2.007   8.494   7.564 -1.0253 -1.2081  2.0624
  103MOL0     H14172   2.003   8.810   7.566  1.1407  0.8314  1.9998
  103MOL0     H14173   2.267   9.043   7.597 -2.5804  1.2016 -0.4567
  103MOL0     H14174   2.306   8.906   7.708  0.8628  2.4482  1.3229
  103MOL0     H14175   2.136   8.962   7.673 -0.9712 -0.4661 -2.9156
  103MOL0     H14176   2.750   8.545   7.420 -2.2142  0.0678 -0.6336
  103MOL0     H14177   2.993   8.547   7.506  1.3267  1.5181  0.1806
  103MOL0     H14178   3.185   8.867   7.653  3.0859  0.1652  0.4674
  103MOL0     H14179   3.107   8.829   7.819  1.3982 -2.1744  0.9868
  103MOL0     H14180   3.346   8.847   7.834  0.8398 -0.4353 -0.5636
  103MOL0     H14181   3.277   8.685   7.875  1.7034  1.7358  2.2311
  103MOL0     H14182   3.393   8.752   7.598 -2.0424 -3.7161 -2.8648
  103MOL0     H14183   3.351   8.593   7.661 -1.6044  1.1632 -0.4828
  103MOL0     H14184   3.521   8.591   7.813  0.5521  1.5420  1.5256
  103MOL0     H14185   3.575   8.764   7.763 -1.9396  1.0056 -0.8576
  103MOL0     H14186   3.572   8.515   7.594  0.5395  0.6680 -1.6891
  103MOL0     H14187   3.625   8.678   7.547  2.5203  0.1057 -0.1616
  103MOL0     H14188   3.747   8.481   7.743  1.8257 -0.1017  1.0471
  103MOL0     H14189   3.786   8.647   7.771 -1.7527 -2.2348  2.1566
  103MOL0     H14190   3.905   8.675   7.555 -0.9209 -0.1426 -1.9035
  103MOL0     H14191   3.860   8.511   7.503 -1.3198 -2.3457  1.4743
  103MOL0     H14192   4.084   8.511   7.585  1.6928 -0.0685  1.2595
  103MOL0     H14193   3.980   8.418   7.699  2.2194  0.6138  1.1754
  103MOL0     H14194   2.907   8.862   7.765 -0.8567  1.1609 -0.0890
  103MOL0     H14195   2.671   8.878   7.692  0.2444 -1.1045  1.7843
  103MOL0     H14196   2.389   8.639   7.305 -0.8913 -1.7089  0.0791
  103MOL0     H14197   2.156   8.544   7.272  0.9296 -0.5590 -0.0814
  103MOL0     H14198   0.144   7.804   7.676  1.3895 -0.5448 -1.9930
  103MOL0     H14199   0.066   7.661   7.862  0.0616 -0.0741  0.1284
  103MOL0     H14200   0.356   7.148   8.151 -1.1029 -1.9227  0.5378
  103MOL0     H14201   0.237   6.987   8.272 -1.4934 -0.5969  0.7134
  103MOL0     H14202   0.045   6.871   8.178  2.2125  3.1000  1.5816
  103MOL0     H14203   0.015   6.772   8.325 -3.7040 -2.4411 -1.7312
  103MOL0     H14204  -0.194   6.925   8.175 -1.1117  1.0490  0.0007
  103MOL0     H14205  -0.207   6.817   8.319  2.9055  2.8729  1.5337
  103MOL0     H14206  -0.120   6.619   8.179  0.2707  0.4552  0.6187
  103MOL0     H14207  -0.273   6.678   8.131  0.1126  2.2913  0.2658
  103MOL0     H14208  -0.007   6.688   7.993 -0.2654 -2.3953  0.1969
  103MOL0     H14209  -0.123   6.823   7.963  0.4561  0.3118 -0.4848
  103MOL0     H14210  -0.220   6.512   7.707  2.4087  3.6862 -3.3321
  103MOL0     H14211  -0.105   7.231   8.314  0.5780  2.8542  0.2651
  103MOL0     H14212   0.049   7.521   8.183  0.2820 -0.2178  0.6675
  103MOL0     H14213  -0.074   7.421   8.081 -1.7843  1.1205  0.8314
  103MOL0     H14214  -0.098   7.447   8.250 -0.4311 -0.2759 -0.1290
  104MOL0     O14215   5.482   0.634   5.322  0.5048  0.0242  0.1482
  104MOL0     C14216   5.555   0.538   5.349 -0.0414  0.6834 -0.7755
  104MOL0     O14217   5.521   0.411   5.374 -0.1641  0.0200 -0.3185
  104MOL0     C14218   5.396   0.362   5.384  0.1388  0.4663  0.1453
  104MOL0     C14219   5.274   0.428   5.350 -0.2610 -0.5485 -0.2122
  104MOL0     C14220   5.152   0.358   5.341 -0.4425 -0.0801  0.7923
  104MOL0     C14221   5.147   0.227   5.383 -0.2735 -0.9275  0.7181
  104MOL0     O14222   5.038   0.150   5.408 -0.1723 -0.0940 -0.2437
  104MOL0     C14223   4.915   0.195   5.356  0.9634 -0.3503 -0.7654
  104MOL0     C14224   4.819   0.085   5.381  0.4407  0.6343 -0.5420
  104MOL0     C14225   4.678   0.116   5.314 -0.7555  0.8941 -0.2826
  104MOL0     C14226   4.586  -0.008   5.328  1.0716 -0.7369  0.3920
  104MOL0     C14227   4.450   0.034   5.276  0.5822  0.3115 -0.3356
  104MOL0     C14228   4.337  -0.074   5.284  0.2848  0.0674  0.7737
  104MOL0     C14229   4.226  -0.023   5.191  0.8955  0.0276 -0.0306
  104MOL0     C14230   4.112  -0.123   5.161 -0.3245  0.1191  0.0068
  104MOL0     N14231   4.010  -0.068   5.075  0.4506 -0.2855  0.5166
  104MOL0     C14232   3.895  -0.009   5.122 -0.5135 -0.3812 -0.6334
  104MOL0     C14233   3.812   0.014   5.013  0.2608 -0.0233 -0.5386
  104MOL0     C14234   3.666   0.045   5.007  0.0610 -0.4577  0.8115
  104MOL0     C14235   3.659   0.173   4.926 -0.4620  0.1970 -0.2439
  104MOL0     C14236   3.515   0.206   4.901  0.1773 -0.1095 -0.2805
  104MOL0     C14237   3.509   0.357   4.882  0.2258  0.0420 -0.5896
  104MOL0     O14238   3.546   0.428   4.999  0.2476 -0.1551  0.2312
  104MOL0     C14239   3.624   0.536   4.982 -0.3583 -0.3666  0.5752
  104MOL0     C14240   3.603   0.661   5.046  0.8245  0.3032  0.4945
  104MOL0     C14241   3.688   0.777   5.043  0.1908  0.0295  0.1146
  104MOL0     C14242   3.638   0.902   5.107 -0.0820 -0.8555 -0.5326
  104MOL0     C14243   3.812   0.761   4.981 -0.0976 -0.3719  0.3166
  104MOL0     C14244   3.917   0.855   4.990  0.5241  0.2403  0.6793
  104MOL0     O14245   4.003   0.859   4.877 -0.5721 -0.5223 -0.2633
  104MOL0     C14246   4.123   0.926   4.886 -0.4986 -0.7357 -0.7205
  104MOL0     C14247   4.251   0.853   4.869  0.2762 -0.1155  0.5185
  104MOL0     C14248   4.370   0.923   4.886  0.5765  0.4452 -0.3234
  104MOL0     C14249   4.374   1.055   4.936  0.1474 -0.0704  0.2638
  104MOL0     O14250   4.502   1.109   4.952 -0.1226 -0.1809 -0.2568
  104MOL0     C14251   4.525   1.246   4.950  0.3800  0.0481 -0.5265
  104MOL0     C14252   4.681   1.264   4.936 -0.1078 -0.0852  0.5057
  104MOL0     C14253   4.762   1.206   5.058  0.7063 -0.3590  0.5936
  104MOL0     C14254   4.909   1.204   5.027  1.1742 -0.1270 -0.2060
  104MOL0     C14255   4.994   1.138   5.135  0.5047 -0.1177 -0.0872
  104MOL0     C14256   4.968   0.992   5.167 -0.1032  0.3540  0.0519
  104MOL0     C14257   5.051   0.936   5.276 -1.0205 -0.2771 -0.0967
  104MOL0     C14258   5.003   0.787   5.304 -0.2629  0.5442 -0.4373
  104MOL0    Cl14259   4.842   0.780   5.382  0.3354  0.2538 -0.1710
  104MOL0     C14260   4.254   1.124   4.953  0.7345  0.3147 -1.0385
  104MOL0     C14261   4.127   1.060   4.940  0.0629 -0.9475 -0.1866
  104MOL0     O14262   3.925   0.926   5.088 -0.3761  0.1908  0.5364
  104MOL0     C14263   3.843   0.641   4.921 -0.0914  1.1788  0.2073
  104MOL0     C14264   3.754   0.529   4.926  1.1388 -0.2016 -0.3674
  104MOL0     N14265   3.890  -0.019   4.902 -0.4889  0.0279  0.0335
  104MOL0     N14266   4.007  -0.066   4.937  0.2041  0.3140  0.5795
  104MOL0     C14267   5.263   0.164   5.425 -0.3645  0.0292 -0.2147
  104MOL0     C14268   5.383   0.227   5.420 -0.7984  0.3583 -0.4301
  104MOL0     C14269   5.706   0.558   5.351 -0.2630  0.1608  0.3256
  104MOL0     C14270   5.785   0.464   5.290 -0.5275  0.5593 -0.8050
  104MOL0     C14271   5.922   0.477   5.289  0.7019  0.2400 -0.4364
  104MOL0     C14272   5.991   0.586   5.345  0.2985  0.2904 -0.5606
  104MOL0     O14273   6.126   0.595   5.322 -0.1347  0.1237  0.3618
  104MOL0     C14274   6.208   0.705   5.359 -1.0230 -1.1146 -0.1290
  104MOL0     C14275   6.268   0.693   5.507  0.3570 -0.5755  0.9643
  104MOL0     C14276   6.157   0.675   5.605 -1.1283 -0.1182 -0.5193
  104MOL0     C14277   6.212   0.629   5.745  0.9048 -0.4074  0.8274
  104MOL0     C14278   6.149   0.513   5.814 -1.1770  0.2123 -0.1309
  104MOL0     C14279   6.091   0.419   5.864  0.2040  0.2197  0.4831
  104MOL0     C14280   5.913   0.682   5.401  0.3109 -0.5057  0.1091
  104MOL0     C14281   5.766   0.674   5.402 -0.4194 -0.5009 -0.2976
  104MOL0     C14282   5.693   0.794   5.470  0.1214  0.7369 -0.1075
  104MOL0     H14283   5.281   0.531   5.316 -1.3798 -0.8171 -1.3237
  104MOL0     H14284   5.063   0.407   5.304 -1.3529 -1.5865  0.8938
  104MOL0     H14285   4.931   0.214   5.249  0.0428  1.2679 -0.6496
  104MOL0     H14286   4.879   0.287   5.402  0.6361 -1.3803  1.1268
  104MOL0     H14287   4.861  -0.012   5.351  2.8393  1.5734 -0.4304
  104MOL0     H14288   4.802   0.075   5.489  3.1917  1.8257  0.0800
  104MOL0     H14289   4.635   0.203   5.366 -2.0896 -1.6418  3.2995
  104MOL0     H14290   4.687   0.138   5.208 -1.6595 -2.6120 -1.2371
  104MOL0     H14291   4.612  -0.101   5.276  1.6630  0.0029 -0.6862
  104MOL0     H14292   4.576  -0.042   5.431 -3.2997 -3.8934 -0.7403
  104MOL0     H14293   4.463   0.066   5.173 -3.6039 -0.0814 -1.1567
  104MOL0     H14294   4.414   0.117   5.337 -0.0890  0.4182 -0.8716
  104MOL0     H14295   4.372  -0.173   5.251 -0.7279  0.0411 -0.2755
  104MOL0     H14296   4.291  -0.087   5.383 -0.0131 -0.7741  0.5346
  104MOL0     H14297   4.265   0.011   5.094 -0.5364  2.9090  0.2934
  104MOL0     H14298   4.193   0.073   5.233 -0.4988 -0.5050  0.1426
  104MOL0     H14299   4.172  -0.201   5.113  2.2473  1.7015  0.4183
  104MOL0     H14300   4.073  -0.164   5.254  0.0992 -2.3127 -0.8124
  104MOL0     H14301   3.857  -0.006   5.224 -0.6868  0.1480 -0.7097
  104MOL0     H14302   3.628   0.048   5.109 -0.4999  3.2355  0.6176
  104MOL0     H14303   3.618  -0.037   4.953 -0.7484  1.5664 -1.7599
  104MOL0     H14304   3.707   0.253   4.983 -0.6812 -0.2066  0.5204
  104MOL0     H14305   3.715   0.152   4.834  0.3266 -0.2838  0.3434
  104MOL0     H14306   3.463   0.159   4.817 -1.7754  0.4028  0.5800
  104MOL0     H14307   3.448   0.179   4.983 -0.6022  0.7462 -0.6068
  104MOL0     H14308   3.581   0.378   4.803 -0.1923  0.9674 -0.7421
  104MOL0     H14309   3.407   0.384   4.852 -0.1962  2.5166  2.4564
  104MOL0     H14310   3.505   0.672   5.092  0.4021 -0.4946 -0.1853
  104MOL0     H14311   3.655   0.995   5.053  0.3529 -0.2885  0.5574
  104MOL0     H14312   3.678   0.927   5.206 -4.0754 -1.6026  1.4576
  104MOL0     H14313   3.529   0.897   5.115 -0.1807  2.5200  2.2901
  104MOL0     H14314   4.253   0.754   4.826 -0.1688 -0.2546  0.8028
  104MOL0     H14315   4.461   0.863   4.881  0.8716  0.8684 -0.1397
  104MOL0     H14316   4.483   1.289   4.858 -1.0802 -0.3890 -0.0904
  104MOL0     H14317   4.484   1.299   5.036  1.0659 -0.4122  0.0937
  104MOL0     H14318   4.695   1.215   4.839 -0.8379  4.1771 -2.0023
  104MOL0     H14319   4.706   1.369   4.915  1.5983 -1.1352 -3.8383
  104MOL0     H14320   4.719   1.106   5.067  1.6029 -0.8757 -0.5549
  104MOL0     H14321   4.737   1.253   5.154  0.7874  0.8001  0.0665
  104MOL0     H14322   4.941   1.304   4.997  0.5676  0.2292  0.2988
  104MOL0     H14323   4.911   1.138   4.940 -2.9879  2.3575 -2.5188
  104MOL0     H14324   5.098   1.150   5.105  0.8129 -2.8697 -0.3550
  104MOL0     H14325   4.973   1.199   5.224  1.6746  0.9999 -0.5540
  104MOL0     H14326   4.983   0.933   5.076 -0.3587  2.1450 -1.2127
  104MOL0     H14327   4.865   0.984   5.204  0.2097 -0.4594  0.7766
  104MOL0     H14328   5.044   0.996   5.367 -0.5533 -0.6683  0.2034
  104MOL0     H14329   5.156   0.933   5.246 -1.0437  1.9802 -0.5466
  104MOL0     H14330   5.077   0.732   5.363  2.0404  1.0788 -2.6448
  104MOL0     H14331   4.995   0.730   5.211 -2.5163 -0.6916  0.4434
  104MOL0     H14332   4.278   1.223   4.990  0.5865 -0.3196  0.8997
  104MOL0     H14333   4.039   1.122   4.954  1.5582  1.7007 -1.5946
  104MOL0     H14334   3.937   0.620   4.871  0.0612  4.0441 -0.9067
  104MOL0     H14335   3.791   0.433   4.892 -0.4578 -2.0635  2.7698
  104MOL0     H14336   5.266   0.059   5.452  1.1248 -0.8899 -3.4584
  104MOL0     H14337   5.474   0.175   5.448 -2.1889 -1.3475  1.2148
  104MOL0     H14338   5.745   0.377   5.238  1.4787 -0.3595 -0.9218
  104MOL0     H14339   5.976   0.393   5.248  1.3370  0.4193  0.0272
  104MOL0     H14340   6.287   0.727   5.286  0.4789 -0.8334  1.5090
  104MOL0     H14341   6.162   0.804   5.362  2.8919  0.9882 -1.5560
  104MOL0     H14342   6.327   0.781   5.534 -1.9809  1.5904 -0.5540
  104MOL0     H14343   6.330   0.603   5.508  0.8805 -0.2340  0.2995
  104MOL0     H14344   6.109   0.773   5.605  1.1589  1.1017 -2.1884
  104MOL0     H14345   6.090   0.591   5.582 -0.0987 -1.4614  1.1192
  104MOL0     H14346   6.202   0.716   5.810  1.1359  1.6314 -1.6914
  104MOL0     H14347   6.319   0.606   5.741  0.9384 -0.1656 -2.1341
  104MOL0     H14348   6.038   0.330   5.889  0.1398  0.4637  1.2363
  104MOL0     H14349   5.957   0.775   5.436 -2.6536  0.4113  1.7611
  104MOL0     H14350   5.594   0.757   5.498  0.6720 -0.9694 -0.2451
  104MOL0     H14351   5.737   0.840   5.558 -0.2385 -0.8033  0.9208
  104MOL0     H14352   5.681   0.872   5.394  2.4229 -0.9703 -2.4085
  105MOL0     O14353   7.683   6.071   0.813 -0.2731 -0.3968 -0.1706
  105MOL0     C14354   7.572   6.036   0.836  0.1010  0.4670 -0.8740
  105MOL0     O14355   7.531   5.961   0.945  0.4903  0.4804 -0.1402
  105MOL0     C14356   7.632   5.909   1.025 -0.0782  0.6025 -0.3151
  105MOL0     C14357   7.627   5.933   1.164  0.4455 -0.0806 -0.1018
  105MOL0     C14358   7.699   5.867   1.260  0.1946 -0.4897  0.1891
  105MOL0     C14359   7.788   5.772   1.208 -0.5581 -0.0479 -0.1271
  105MOL0     O14360   7.868   5.691   1.291  0.1861 -0.7503  0.7028
  105MOL0     C14361   7.851   5.702   1.441 -0.2579 -0.3002 -0.6908
  105MOL0     C14362   7.922   5.597   1.526 -0.1866  0.4044  0.2582
  105MOL0     C14363   8.065   5.588   1.478 -0.0683 -0.0262 -0.1218
  105MOL0     C14364   8.121   5.441   1.484 -0.5128 -0.5058  0.7070
  105MOL0     C14365   8.264   5.437   1.439 -0.1317 -0.3137 -0.0352
  105MOL0     C14366   8.310   5.300   1.397 -0.0003 -0.6639 -0.1566
  105MOL0     C14367   8.459   5.317   1.374 -0.1301  0.6984  0.5591
  105MOL0     C14368   8.529   5.175   1.336  1.1297 -0.7542 -0.0232
  105MOL0     N14369   8.478   5.118   1.212 -0.2453  0.9226  0.1993
  105MOL0     C14370   8.432   4.988   1.195 -0.3634  0.3048  1.3428
  105MOL0     C14371   8.422   4.978   1.057 -0.1107  0.9106 -0.9516
  105MOL0     C14372   8.384   4.852   0.999  0.5532 -0.1388  0.2023
  105MOL0     C14373   8.405   4.841   0.857 -0.0292  0.3516  0.0091
  105MOL0     C14374   8.401   4.694   0.803  0.1675  0.0017 -0.1706
  105MOL0     C14375   8.432   4.700   0.652 -0.2425  0.1810 -0.1128
  105MOL0     O14376   8.460   4.575   0.590 -0.0835 -0.2451  0.0730
  105MOL0     C14377   8.590   4.522   0.583 -0.1595 -0.4599 -0.8660
  105MOL0     C14378   8.602   4.412   0.511 -0.5263  0.1274  0.0672
  105MOL0     C14379   8.723   4.341   0.486 -0.3824  0.0407 -0.4523
  105MOL0     C14380   8.709   4.214   0.408 -0.4642  0.0104  0.5262
  105MOL0     C14381   8.844   4.385   0.546 -0.4625 -0.0210 -0.5742
  105MOL0     C14382   8.974   4.318   0.530  0.1394  0.2071  0.6872
  105MOL0     O14383   9.056   4.331   0.639 -0.3432 -0.3743  0.3453
  105MOL0     C14384   9.169   4.260   0.652 -0.5364  0.1800 -0.4860
  105MOL0     C14385   9.272   4.307   0.745 -0.3088 -0.5782 -0.1969
  105MOL0     C14386   9.385   4.232   0.772 -0.4853  0.3182  0.2585
  105MOL0     C14387   9.417   4.114   0.705  0.7446 -0.5232 -0.4938
  105MOL0     O14388   9.529   4.055   0.746  0.6226  0.1478  0.1923
  105MOL0     C14389   9.604   3.971   0.650  0.5016  0.6438  0.6969
  105MOL0     C14390   9.734   3.938   0.725  0.6082 -0.3853 -0.5751
  105MOL0     C14391   9.863   3.896   0.651  0.9348 -0.1442  0.9460
  105MOL0     C14392   9.974   3.880   0.749 -0.2887  0.6739 -0.9961
  105MOL0     C14393  10.104   3.833   0.699 -0.2109  0.0191  1.3673
  105MOL0     C14394  10.192   3.786   0.819  0.3937  0.3455 -0.8087
  105MOL0     C14395  10.339   3.771   0.777 -0.6645 -0.0143 -0.1198
  105MOL0     C14396  10.419   3.747   0.899 -0.4106  0.4661 -0.3614
  105MOL0    Cl14397  10.408   3.885   1.017  0.0493 -0.0166 -0.2230
  105MOL0     C14398   9.323   4.069   0.611 -0.2019 -0.6493  0.0173
  105MOL0     C14399   9.209   4.142   0.581  0.0484  0.0664 -0.1982
  105MOL0     O14400   9.002   4.282   0.419  0.0413 -0.0806  0.7215
  105MOL0     C14401   8.828   4.502   0.631  0.2358  0.6898 -0.0208
  105MOL0     C14402   8.705   4.566   0.647 -0.0453 -0.4319  0.0733
  105MOL0     N14403   8.468   5.098   0.998  0.9764 -0.0944 -0.0491
  105MOL0     N14404   8.491   5.182   1.094 -0.5908  0.4258  0.5761
  105MOL0     C14405   7.793   5.730   1.070  0.2588 -0.4400 -0.0905
  105MOL0     C14406   7.719   5.807   0.979 -0.1901  0.1613 -0.4571
  105MOL0     C14407   7.461   6.080   0.739 -1.0108  0.0979  0.3206
  105MOL0     C14408   7.321   6.077   0.792 -0.6530  0.5347  0.4867
  105MOL0     C14409   7.220   6.117   0.707  0.3774 -1.2922  0.1100
  105MOL0     C14410   7.245   6.192   0.590  0.2281  0.4392 -0.5177
  105MOL0     O14411   7.150   6.249   0.511  0.8463  0.3889 -0.7449
  105MOL0     C14412   7.039   6.157   0.480 -0.1224  0.0817  0.1681
  105MOL0     C14413   6.978   6.213   0.354  0.6664  0.1499  0.3766
  105MOL0     C14414   6.852   6.138   0.302 -0.5797  0.9553 -0.2451
  105MOL0     C14415   6.723   6.174   0.386  0.5012  0.7178  0.2728
  105MOL0     C14416   6.712   6.087   0.498 -0.0369 -0.3992  0.2148
  105MOL0     C14417   6.682   6.019   0.593 -0.3598  0.2742  0.1999
  105MOL0     C14418   7.378   6.192   0.547  1.4593 -0.3640  0.4161
  105MOL0     C14419   7.484   6.140   0.617  0.4211  0.7175  0.2482
  105MOL0     C14420   7.619   6.160   0.554  0.3413  0.6640  0.4030
  105MOL0     H14421   7.562   6.012   1.202  2.8696  1.4006  1.2431
  105MOL0     H14422   7.696   5.890   1.366 -0.2650  3.0710 -0.4477
  105MOL0     H14423   7.745   5.691   1.465 -1.0302  3.7107 -1.6425
  105MOL0     H14424   7.877   5.800   1.483 -1.3947 -0.7815  1.2401
  105MOL0     H14425   7.908   5.631   1.629 -1.8798  0.3680  0.0627
  105MOL0     H14426   7.864   5.505   1.511 -0.9564  1.1170 -1.3671
  105MOL0     H14427   8.061   5.602   1.370 -2.3167 -3.2582 -0.5790
  105MOL0     H14428   8.136   5.654   1.529 -0.7803 -0.4258  1.4427
  105MOL0     H14429   8.119   5.392   1.581 -1.3044  0.7101  1.3251
  105MOL0     H14430   8.061   5.383   1.412  0.5139 -0.0648 -0.5489
  105MOL0     H14431   8.325   5.482   1.518 -0.9416 -0.9780  0.9949
  105MOL0     H14432   8.272   5.491   1.344  1.0640  0.5030  0.5032
  105MOL0     H14433   8.293   5.229   1.479  0.4175 -0.1521  0.3792
  105MOL0     H14434   8.255   5.267   1.308  0.2360 -1.0558 -0.1589
  105MOL0     H14435   8.509   5.356   1.464  3.1576  0.3316 -0.9757
  105MOL0     H14436   8.467   5.390   1.293 -1.9698  2.2313  1.6809
  105MOL0     H14437   8.637   5.192   1.331  1.0766  0.2425  1.4074
  105MOL0     H14438   8.521   5.102   1.417  3.1311 -1.3676 -0.3247
  105MOL0     H14439   8.403   4.909   1.263  1.6560 -1.1316  0.6164
  105MOL0     H14440   8.281   4.825   1.026  0.6483 -1.9058 -1.0534
  105MOL0     H14441   8.461   4.793   1.049  0.3501 -0.4860  0.1103
  105MOL0     H14442   8.320   4.895   0.815  0.5719  1.8712  0.6906
  105MOL0     H14443   8.505   4.878   0.836  0.4779 -0.8452  0.2642
  105MOL0     H14444   8.475   4.628   0.849  1.4650  2.3686  1.3870
  105MOL0     H14445   8.298   4.664   0.821 -0.0590  0.8385 -0.0304
  105MOL0     H14446   8.343   4.736   0.599 -0.0112  0.3143 -0.4182
  105MOL0     H14447   8.512   4.768   0.619  1.0780 -2.2929 -2.4909
  105MOL0     H14448   8.505   4.382   0.472 -1.1808 -1.6661  2.7753
  105MOL0     H14449   8.742   4.224   0.304  2.3352 -2.5805  1.0294
  105MOL0     H14450   8.604   4.189   0.393 -0.5510  0.9184 -0.5150
  105MOL0     H14451   8.751   4.127   0.459 -2.5825 -0.3846  1.6685
  105MOL0     H14452   9.261   4.405   0.791 -0.2123  0.5330 -2.4347
  105MOL0     H14453   9.446   4.285   0.845 -2.0042  2.1967  0.2405
  105MOL0     H14454   9.565   3.871   0.631 -0.0460  0.9029  0.4489
  105MOL0     H14455   9.616   4.021   0.553 -0.2430 -1.0381 -0.2988
  105MOL0     H14456   9.759   4.028   0.782 -0.7429 -0.4243  0.1135
  105MOL0     H14457   9.694   3.872   0.801  2.0237  0.4945  1.0206
  105MOL0     H14458   9.885   3.987   0.593  1.3688  0.3440  1.8610
  105MOL0     H14459   9.857   3.813   0.580  0.0365  0.7307 -0.0542
  105MOL0     H14460   9.937   3.796   0.810  0.3551  2.2683  1.7445
  105MOL0     H14461   9.992   3.959   0.822 -2.9150  0.5813 -0.1546
  105MOL0     H14462  10.092   3.758   0.621 -1.3313 -0.2142  1.7349
  105MOL0     H14463  10.149   3.922   0.655  0.7244  0.2028  2.6348
  105MOL0     H14464  10.151   3.693   0.859  1.4256  0.9822  1.9215
  105MOL0     H14465  10.187   3.860   0.899  1.5036 -2.0562  1.6637
  105MOL0     H14466  10.388   3.855   0.728 -0.8632  1.4462  2.0836
  105MOL0     H14467  10.352   3.679   0.719 -2.3168 -0.4286  0.1053
  105MOL0     H14468  10.526   3.736   0.876 -0.8362 -1.2498 -1.7755
  105MOL0     H14469  10.385   3.659   0.954  1.1957  0.8162  1.2840
  105MOL0     H14470   9.362   3.986   0.552  0.3039 -1.5192  1.5189
  105MOL0     H14471   9.152   4.099   0.499  0.3280 -0.2787 -0.2115
  105MOL0     H14472   8.912   4.550   0.681 -0.8068  1.2020  1.2994
  105MOL0     H14473   8.703   4.660   0.702 -2.4186 -0.5497  0.2870
  105MOL0     H14474   7.846   5.644   1.031 -1.1177 -0.8484 -1.1358
  105MOL0     H14475   7.720   5.790   0.872 -0.0970 -4.9735  0.1044
  105MOL0     H14476   7.287   6.045   0.890 -1.2209 -1.0407 -0.2015
  105MOL0     H14477   7.115   6.109   0.734  0.4411  0.4262  0.9829
  105MOL0     H14478   7.077   6.056   0.457  0.8419  1.0651 -3.0064
  105MOL0     H14479   6.959   6.146   0.554  0.5214 -2.2425  0.6174
  105MOL0     H14480   7.052   6.208   0.273  0.8886  0.7663  0.5347
  105MOL0     H14481   6.949   6.316   0.372 -1.1386 -0.3238  0.4140
  105MOL0     H14482   6.834   6.164   0.198 -3.0312  2.5217  0.4891
  105MOL0     H14483   6.871   6.031   0.292  0.2353  1.0633  0.0063
  105MOL0     H14484   6.636   6.149   0.324 -0.6806 -0.0510  2.1754
  105MOL0     H14485   6.709   6.279   0.414  0.4743  0.5251  1.0001
  105MOL0     H14486   6.648   5.987   0.689 -1.5503 -0.7433 -0.5298
  105MOL0     H14487   7.387   6.246   0.453 -0.6439  1.2098  1.0342
  105MOL0     H14488   7.610   6.188   0.448  0.7235 -3.4895 -0.9127
  105MOL0     H14489   7.691   6.227   0.601  0.8092  0.5134 -0.0893
  105MOL0     H14490   7.678   6.068   0.560 -2.2259 -1.2275 -1.1693
  106MOL0     O14491   7.201   8.740   0.258  0.2244  0.0819  0.1123
  106MOL0     C14492   7.134   8.788   0.170  0.3370  0.7420  0.3482
  106MOL0     O14493   7.180   8.835   0.054 -0.2139 -0.1577  0.1620
  106MOL0     C14494   7.304   8.789   0.014  1.2103  0.0809  0.6154
  106MOL0     C14495   7.321   8.677  -0.068  0.0727 -0.0875 -0.0381
  106MOL0     C14496   7.451   8.659  -0.122  1.2860  0.3561  0.4036
  106MOL0     C14497   7.560   8.739  -0.077 -0.6647  0.3053 -0.0595
  106MOL0     O14498   7.696   8.720  -0.106  0.0246  0.7733 -0.2152
  106MOL0     C14499   7.716   8.627  -0.215 -0.3239 -0.0402  0.0656
  106MOL0     C14500   7.685   8.693  -0.348 -0.3308  1.0046 -0.1910
  106MOL0     C14501   7.761   8.828  -0.363 -1.4908 -0.4462 -0.2346
  106MOL0     C14502   7.841   8.848  -0.498 -0.3404  0.3227  0.1328
  106MOL0     C14503   7.942   8.739  -0.525 -0.5497 -0.1305 -0.0006
  106MOL0     C14504   8.046   8.758  -0.644 -0.0007  0.0776 -0.2135
  106MOL0     C14505   7.978   8.784  -0.777  0.5279 -0.2233  0.0577
  106MOL0     C14506   8.062   8.807  -0.904  0.1682 -0.2209 -0.2092
  106MOL0     N14507   8.176   8.902  -0.879  0.3693 -0.6337  0.8936
  106MOL0     C14508   8.188   9.019  -0.943  0.6414 -0.3250  0.2725
  106MOL0     C14509   8.318   9.054  -0.935  0.0829 -0.3402 -0.3491
  106MOL0     C14510   8.388   9.172  -1.005 -0.0595 -0.3036 -0.6250
  106MOL0     C14511   8.304   9.264  -1.097 -0.5923 -0.1133 -0.4210
  106MOL0     C14512   8.203   9.355  -1.016 -0.0248 -1.0658 -0.6413
  106MOL0     C14513   8.053   9.340  -1.057 -0.2388  0.6906  0.6706
  106MOL0     O14514   8.028   9.257  -1.178  0.3331  0.4392 -0.6090
  106MOL0     C14515   7.900   9.218  -1.200 -0.3586 -0.1136  0.4336
  106MOL0     C14516   7.782   9.271  -1.150  0.0947  0.0422  0.2374
  106MOL0     C14517   7.658   9.226  -1.196  0.0288  1.2873 -0.0563
  106MOL0     C14518   7.524   9.288  -1.162  0.0723 -0.8654  0.2110
  106MOL0     C14519   7.657   9.113  -1.287  0.1197  0.6208  0.8176
  106MOL0     C14520   7.527   9.046  -1.341  0.3676 -0.5420  0.7995
  106MOL0     O14521   7.538   8.999  -1.469 -0.5904  0.1065 -0.5186
  106MOL0     C14522   7.451   8.910  -1.520  0.5100 -0.0409 -0.6559
  106MOL0     C14523   7.418   8.796  -1.450  0.1765  0.8381  0.4135
  106MOL0     C14524   7.322   8.708  -1.503  0.2544  0.8027  0.9575
  106MOL0     C14525   7.261   8.740  -1.629  0.4594  1.5192  0.2239
  106MOL0     O14526   7.152   8.658  -1.662 -0.2201  0.2504 -0.2214
  106MOL0     C14527   7.031   8.729  -1.697 -0.1546  1.0186  1.2537
  106MOL0     C14528   6.923   8.622  -1.741 -0.0180  0.0676 -0.3665
  106MOL0     C14529   6.869   8.547  -1.622  0.2608 -0.8611  0.5974
  106MOL0     C14530   6.764   8.452  -1.680 -0.3275  0.3359  0.0205
  106MOL0     C14531   6.713   8.341  -1.579  0.5601 -0.1341  0.5184
  106MOL0     C14532   6.588   8.267  -1.644  0.1898  0.1486  0.2317
  106MOL0     C14533   6.529   8.162  -1.548 -0.1739 -0.2792  0.3129
  106MOL0     C14534   6.439   8.065  -1.625  0.8013  0.1009  0.9584
  106MOL0    Cl14535   6.518   7.996  -1.767 -0.3016 -0.1087  0.3898
  106MOL0     C14536   7.298   8.852  -1.697 -0.0106 -0.1281  0.3794
  106MOL0     C14537   7.400   8.933  -1.645 -0.1480  0.2623  0.3114
  106MOL0     O14538   7.435   9.028  -1.261  0.0602 -0.4682 -0.2065
  106MOL0     C14539   7.779   9.060  -1.332  0.2526  0.5538  0.3341
  106MOL0     C14540   7.897   9.122  -1.297 -0.0822  0.3439 -0.2691
  106MOL0     N14541   8.382   8.954  -0.854  0.8311  0.2358 -0.4850
  106MOL0     N14542   8.297   8.864  -0.828 -0.0168 -0.2270 -0.2498
  106MOL0     C14543   7.534   8.845   0.006  0.0922  0.0376  0.7636
  106MOL0     C14544   7.405   8.872   0.053  0.9576 -0.2322  0.1628
  106MOL0     C14545   6.984   8.795   0.179 -0.2677 -0.2495 -0.3619
  106MOL0     C14546   6.916   8.848   0.065  0.6038 -0.1988 -0.0028
  106MOL0     C14547   6.779   8.859   0.059 -0.0602  0.1582  0.5671
  106MOL0     C14548   6.697   8.815   0.167  0.0039 -0.3377 -0.2838
  106MOL0     O14549   6.559   8.819   0.155  0.2275 -0.4677  0.2737
  106MOL0     C14550   6.484   8.901   0.249  0.2820  0.2122 -0.2709
  106MOL0     C14551   6.357   8.966   0.186 -0.0767  0.3791 -0.1689
  106MOL0     C14552   6.284   8.861   0.113 -1.2529  0.5638 -0.1229
  106MOL0     C14553   6.148   8.899   0.057  0.8194 -0.9222 -0.3283
  106MOL0     C14554   6.075   8.782   0.034 -0.0050  0.1770  0.2922
  106MOL0     C14555   6.022   8.676   0.012  0.4311  0.7380 -0.1893
  106MOL0     C14556   6.761   8.775   0.289 -0.3321 -0.2797 -0.4845
  106MOL0     C14557   6.906   8.765   0.297  0.0954 -0.5795  0.5892
  106MOL0     C14558   6.966   8.711   0.417 -0.1022  0.1696 -0.2164
  106MOL0     H14559   7.234   8.622  -0.100 -2.0183  2.7854  0.3058
  106MOL0     H14560   7.468   8.578  -0.192  0.2858  1.8730 -1.6922
  106MOL0     H14561   7.659   8.536  -0.194 -1.6775  0.9022  0.6345
  106MOL0     H14562   7.823   8.606  -0.208 -0.0151  1.4805  0.1078
  106MOL0     H14563   7.710   8.621  -0.427 -0.3924  1.0728 -0.2714
  106MOL0     H14564   7.579   8.715  -0.356 -0.7841 -0.9307 -0.0943
  106MOL0     H14565   7.684   8.905  -0.354  0.0610  0.9914  1.5966
  106MOL0     H14566   7.826   8.855  -0.279 -2.3529  0.6040  0.1206
  106MOL0     H14567   7.760   8.847  -0.573  0.3664 -0.7912 -0.6660
  106MOL0     H14568   7.889   8.945  -0.507 -1.7104  0.9322 -1.0215
  106MOL0     H14569   7.885   8.650  -0.555  0.0653 -0.5716  0.1323
  106MOL0     H14570   8.003   8.715  -0.438 -0.1707  1.4422  0.1956
  106MOL0     H14571   8.114   8.839  -0.617 -2.4129  2.0762  0.3202
  106MOL0     H14572   8.105   8.668  -0.663  2.0194  0.8581  1.8831
  106MOL0     H14573   7.909   8.868  -0.764  0.2380 -0.6501  1.4512
  106MOL0     H14574   7.920   8.695  -0.802  1.0633 -0.1992 -1.3769
  106MOL0     H14575   8.115   8.718  -0.939  2.2128  1.2178 -0.9699
  106MOL0     H14576   8.000   8.841  -0.987  0.4666 -0.5274 -0.5613
  106MOL0     H14577   8.109   9.068  -0.999  2.9818  1.2041 -1.9005
  106MOL0     H14578   8.475   9.150  -1.067 -0.2023  3.0747 -2.2671
  106MOL0     H14579   8.437   9.234  -0.929 -0.8991 -2.1308  1.5197
  106MOL0     H14580   8.370   9.331  -1.153  1.5872  0.3821  2.4763
  106MOL0     H14581   8.254   9.194  -1.164  1.2476 -2.6984  0.7422
  106MOL0     H14582   8.201   9.333  -0.909 -0.3926  1.0785 -0.1605
  106MOL0     H14583   8.232   9.460  -1.023 -0.7876 -0.7479  0.6563
  106MOL0     H14584   8.000   9.280  -0.983 -3.0288  0.3336 -1.4525
  106MOL0     H14585   8.012   9.441  -1.068  0.9776  1.1231 -0.0652
  106MOL0     H14586   7.782   9.360  -1.088 -1.2473  1.1370 -1.2528
  106MOL0     H14587   7.538   9.381  -1.105 -1.4410  0.3681 -1.3193
  106MOL0     H14588   7.465   9.225  -1.095 -0.6328  0.2720  0.7035
  106MOL0     H14589   7.469   9.317  -1.251  1.0547 -3.6322 -1.4087
  106MOL0     H14590   7.458   8.772  -1.352  3.1151  3.5428  0.0209
  106MOL0     H14591   7.297   8.622  -1.442 -0.8330  0.9069  0.6787
  106MOL0     H14592   6.990   8.779  -1.609 -0.7712 -0.3675  1.7952
  106MOL0     H14593   7.046   8.800  -1.779 -0.0445 -0.1941  0.1808
  106MOL0     H14594   6.842   8.670  -1.797  0.5611 -0.0652 -1.3565
  106MOL0     H14595   6.965   8.556  -1.817 -1.0550 -0.4862 -0.4795
  106MOL0     H14596   6.824   8.618  -1.552 -0.4844 -0.5643 -0.1688
  106MOL0     H14597   6.951   8.499  -1.567  0.3741 -2.2274 -0.6909
  106MOL0     H14598   6.801   8.409  -1.773 -0.7049 -0.8232  0.3828
  106MOL0     H14599   6.685   8.520  -1.713  0.3493  0.6892 -0.8862
  106MOL0     H14600   6.796   8.273  -1.558 -0.0988 -2.0694 -2.5166
  106MOL0     H14601   6.684   8.384  -1.483 -2.0280 -1.1061  0.2678
  106MOL0     H14602   6.607   8.216  -1.739 -3.4136 -1.6213  0.2655
  106MOL0     H14603   6.507   8.336  -1.670 -0.2031  0.1971  1.4805
  106MOL0     H14604   6.480   8.185  -1.452 -1.5692 -1.0712 -0.1860
  106MOL0     H14605   6.615   8.103  -1.515 -0.2946  0.8846  2.9868
  106MOL0     H14606   6.345   8.118  -1.645  0.2955 -1.6601 -1.7852
  106MOL0     H14607   6.411   7.984  -1.557 -0.0065  0.4578  1.0741
  106MOL0     H14608   7.254   8.893  -1.788  0.8422 -1.1989 -0.5447
  106MOL0     H14609   7.436   9.022  -1.696 -1.9447  0.7479 -0.1858
  106MOL0     H14610   7.772   8.971  -1.393  0.0720  0.2711  0.7688
  106MOL0     H14611   7.990   9.093  -1.346 -1.5350  1.4481 -4.0638
  106MOL0     H14612   7.609   8.922   0.021 -1.2557  2.0843 -2.1726
  106MOL0     H14613   7.392   8.962   0.112  1.0810  0.3978 -0.7485
  106MOL0     H14614   6.963   8.887  -0.025  4.0019 -0.0284  1.7085
  106MOL0     H14615   6.742   8.895  -0.037 -0.2833  0.9906  0.9580
  106MOL0     H14616   6.451   8.841   0.334  1.3532  1.7290  1.2646
  106MOL0     H14617   6.549   8.978   0.291 -0.4289  2.1494 -2.5098
  106MOL0     H14618   6.386   9.046   0.117  0.9432 -1.9473 -2.6186
  106MOL0     H14619   6.291   9.001   0.266 -1.5398 -0.3913 -0.9924
  106MOL0     H14620   6.344   8.822   0.030  1.0804  0.6300  1.4077
  106MOL0     H14621   6.274   8.783   0.190 -2.3033  2.1395  1.4071
  106MOL0     H14622   6.142   8.954  -0.038 -0.3055  0.7348  0.6465
  106MOL0     H14623   6.103   8.971   0.126  1.3881 -0.1745 -0.7069
  106MOL0     H14624   5.972   8.582  -0.002  2.4207 -0.1079 -2.0367
  106MOL0     H14625   6.696   8.759   0.374  1.5485  3.0180  1.8125
  106MOL0     H14626   6.888   8.693   0.492  0.9982  0.7381  1.1151
  106MOL0     H14627   7.023   8.619   0.401 -0.0489  0.3367 -1.0308
  106MOL0     H14628   7.034   8.781   0.466 -2.0518 -0.1383  3.3174
  107MOL0     O14629   3.844   0.699   3.744 -0.3209  0.0372  0.6021
  107MOL0     C14630   3.761   0.750   3.811  0.3379  0.0753 -0.1608
  107MOL0     O14631   3.785   0.817   3.931 -0.5623  0.1737 -0.8141
  107MOL0     C14632   3.917   0.815   3.980  0.0014  0.5116  0.4865
  107MOL0     C14633   4.030   0.866   3.911 -0.6432  0.6298 -0.4167
  107MOL0     C14634   4.153   0.853   3.981  0.0120 -0.1786  0.2388
  107MOL0     C14635   4.173   0.805   4.111 -0.6697 -0.6031  1.1475
  107MOL0     O14636   4.291   0.802   4.181 -0.5242  0.4114 -0.1012
  107MOL0     C14637   4.386   0.897   4.155  0.1341 -0.2213  0.2440
  107MOL0     C14638   4.440   0.957   4.286 -0.2297  0.5226  0.7646
  107MOL0     C14639   4.550   1.053   4.255 -0.1274  0.2096  0.0083
  107MOL0     C14640   4.595   1.116   4.385  0.3830  0.0269  0.0607
  107MOL0     C14641   4.696   1.238   4.371 -0.5431 -0.0431  0.6253
  107MOL0     C14642   4.830   1.198   4.304  0.1115 -0.0019 -0.1965
  107MOL0     C14643   4.906   1.323   4.257  0.1268  0.0180 -0.1023
  107MOL0     C14644   4.924   1.439   4.357  0.0688 -0.9341  0.1799
  107MOL0     N14645   4.975   1.394   4.490  0.1511 -0.2030  0.0826
  107MOL0     C14646   5.092   1.324   4.505  0.3256 -0.3219  0.0205
  107MOL0     C14647   5.089   1.295   4.641  0.2683  0.1534  0.2533
  107MOL0     C14648   5.196   1.217   4.702 -1.0773  0.0069  0.1229
  107MOL0     C14649   5.296   1.306   4.779 -0.2536  0.3787 -0.7772
  107MOL0     C14650   5.325   1.436   4.702  0.0187 -1.1477  0.5884
  107MOL0     C14651   5.451   1.510   4.744 -0.1595  0.7732 -0.6139
  107MOL0     O14652   5.562   1.438   4.682  0.6844 -0.0279  0.2225
  107MOL0     C14653   5.689   1.497   4.686 -0.4515 -0.5230 -0.4112
  107MOL0     C14654   5.743   1.562   4.797  0.7216 -0.9475 -0.3351
  107MOL0     C14655   5.870   1.628   4.796  0.7507  0.1341 -0.7079
  107MOL0     C14656   5.917   1.702   4.923  0.3409 -0.0990 -0.2802
  107MOL0     C14657   5.949   1.628   4.677  0.0138  0.2821 -0.3268
  107MOL0     C14658   6.081   1.696   4.670 -0.8635 -0.4595 -0.0756
  107MOL0     O14659   6.127   1.782   4.766  0.2758 -0.1514  0.4471
  107MOL0     C14660   6.254   1.838   4.775  0.0712  0.2885 -0.1387
  107MOL0     C14661   6.260   1.952   4.850  0.0183 -0.6760  0.1524
  107MOL0     C14662   6.387   2.012   4.884 -0.0847 -0.6638  0.5625
  107MOL0     C14663   6.505   1.956   4.834 -0.5477  0.9976 -0.3312
  107MOL0     O14664   6.636   1.992   4.864 -0.0079  0.0172 -0.7454
  107MOL0     C14665   6.663   2.087   4.975  0.5522  0.0988  0.3465
  107MOL0     C14666   6.817   2.106   4.974  0.2264 -0.7251 -0.1164
  107MOL0     C14667   6.850   2.218   5.079  0.2814 -0.7170 -0.0408
  107MOL0     C14668   6.997   2.220   5.099 -0.2018  0.4135 -0.4222
  107MOL0     C14669   7.044   2.330   5.196  0.7932 -0.1369  0.3521
  107MOL0     C14670   7.179   2.301   5.262 -0.3559  0.0262  0.1993
  107MOL0     C14671   7.219   2.429   5.334  0.2063  0.8806 -0.2047
  107MOL0     C14672   7.325   2.408   5.441 -0.7912 -0.8886 -0.4732
  107MOL0    Cl14673   7.471   2.466   5.364  0.3300 -0.0875  0.0511
  107MOL0     C14674   6.500   1.853   4.745  0.4423  0.6928  0.5080
  107MOL0     C14675   6.378   1.788   4.720  0.3871  0.0493 -0.5081
  107MOL0     O14676   6.152   1.665   4.579 -0.2789  0.0177 -0.0151
  107MOL0     C14677   5.898   1.552   4.572  0.0854  0.7158  1.2023
  107MOL0     C14678   5.771   1.496   4.567 -0.1654 -0.3558  0.2959
  107MOL0     N14679   4.963   1.333   4.697 -0.4580 -0.0181 -0.5279
  107MOL0     N14680   4.906   1.411   4.609  0.1063 -0.2862  0.0331
  107MOL0     C14681   4.059   0.770   4.178  0.3111 -0.5232 -0.4587
  107MOL0     C14682   3.933   0.774   4.116  0.3069  0.0206  0.0124
  107MOL0     C14683   3.614   0.749   3.772 -0.5047 -0.6235  0.0932
  107MOL0     C14684   3.520   0.758   3.880 -0.0858  0.1962  0.4413
  107MOL0     C14685   3.387   0.763   3.855 -0.1660  0.0788  0.9943
  107MOL0     C14686   3.335   0.749   3.721  0.8392 -0.2466 -0.0131
  107MOL0     O14687   3.200   0.740   3.718 -0.3298 -0.1148  0.4757
  107MOL0     C14688   3.139   0.709   3.586 -0.7401  0.5453 -0.0280
  107MOL0     C14689   2.993   0.667   3.608 -0.0790 -0.1165 -0.2434
  107MOL0     C14690   2.913   0.794   3.658 -0.4054  0.4159  0.6501
  107MOL0     C14691   2.765   0.757   3.679 -0.2166  0.2337  0.2625
  107MOL0     C14692   2.682   0.870   3.708  0.5701 -0.6793 -0.2783
  107MOL0     C14693   2.610   0.955   3.758 -0.8963 -0.4294  0.6954
  107MOL0     C14694   3.430   0.749   3.616  0.3944 -0.1666 -0.8644
  107MOL0     C14695   3.567   0.749   3.639 -0.0602  0.6716 -1.0411
  107MOL0     C14696   3.656   0.742   3.516 -0.3355  0.3352 -0.1719
  107MOL0     H14697   4.021   0.927   3.822 -1.6173  1.6147  0.3236
  107MOL0     H14698   4.239   0.888   3.926 -1.2939 -0.3963 -2.0403
  107MOL0     H14699   4.338   0.975   4.096  2.1237  1.1237  0.2998
  107MOL0     H14700   4.476   0.863   4.102  0.7340  2.0680 -0.3400
  107MOL0     H14701   4.356   1.007   4.334 -1.5205 -1.9734  1.2764
  107MOL0     H14702   4.469   0.877   4.356 -4.8414 -2.6355 -0.4657
  107MOL0     H14703   4.640   1.005   4.216  1.0652  1.7481  0.7697
  107MOL0     H14704   4.504   1.117   4.178  0.0361 -3.2025 -3.2343
  107MOL0     H14705   4.499   1.143   4.430  0.6404  1.3626 -0.1450
  107MOL0     H14706   4.629   1.036   4.451 -0.7377  0.9857  1.9063
  107MOL0     H14707   4.713   1.286   4.469  1.7639  0.0258  0.2588
  107MOL0     H14708   4.647   1.309   4.304 -2.7740 -1.2781  0.8529
  107MOL0     H14709   4.891   1.140   4.373 -0.8613 -1.0766 -0.2187
  107MOL0     H14710   4.814   1.135   4.216  1.5748  1.2113 -1.3887
  107MOL0     H14711   4.852   1.357   4.168 -0.1485 -0.6327 -0.1919
  107MOL0     H14712   5.008   1.295   4.227 -0.9278 -2.6575 -1.5839
  107MOL0     H14713   4.993   1.504   4.303  1.4239 -2.0682  0.4708
  107MOL0     H14714   4.834   1.498   4.373  1.3058  1.1974 -0.4061
  107MOL0     H14715   5.175   1.304   4.437  0.6252  1.2355 -0.0986
  107MOL0     H14716   5.258   1.171   4.625 -2.2490 -0.4682 -0.5735
  107MOL0     H14717   5.152   1.146   4.774  1.3773 -0.8336  0.8830
  107MOL0     H14718   5.255   1.316   4.880 -0.7500  1.3622 -1.0689
  107MOL0     H14719   5.394   1.258   4.790  1.5126  3.9770  0.6984
  107MOL0     H14720   5.319   1.405   4.598 -1.3752 -2.3509  0.9900
  107MOL0     H14721   5.240   1.504   4.716  1.2270 -0.0650  3.2898
  107MOL0     H14722   5.449   1.616   4.716 -0.2432  0.3813 -2.1642
  107MOL0     H14723   5.446   1.506   4.853  0.8131 -0.1326 -0.5895
  107MOL0     H14724   5.688   1.556   4.890 -4.3705  1.3713 -2.7856
  107MOL0     H14725   5.828   1.704   4.986  0.1965  3.0805 -0.4332
  107MOL0     H14726   5.948   1.805   4.902  0.5181  0.0441  0.6438
  107MOL0     H14727   6.003   1.650   4.966  0.7899  1.6081  1.0116
  107MOL0     H14728   6.169   1.973   4.905  1.1322  1.3255  1.3396
  107MOL0     H14729   6.393   2.096   4.952 -1.1558  0.7966 -1.0441
  107MOL0     H14730   6.604   2.178   4.961  2.3074  0.9469 -2.5528
  107MOL0     H14731   6.635   2.046   5.072 -1.1674 -1.0139 -0.5700
  107MOL0     H14732   6.863   2.009   4.997  1.5676 -0.4334 -1.3791
  107MOL0     H14733   6.846   2.139   4.873 -1.3909  1.1272 -0.0150
  107MOL0     H14734   6.803   2.214   5.177  2.4202  1.0528  1.1393
  107MOL0     H14735   6.835   2.315   5.031 -1.4158 -0.3743  1.1024
  107MOL0     H14736   7.045   2.238   5.002 -0.5077  0.9523 -0.4750
  107MOL0     H14737   7.032   2.121   5.132 -0.1164  0.7415  0.4704
  107MOL0     H14738   7.055   2.422   5.138 -1.6496  0.6954  1.1190
  107MOL0     H14739   6.976   2.363   5.275  0.2099  0.4197 -0.3673
  107MOL0     H14740   7.252   2.273   5.185 -1.4153  0.8973 -1.1646
  107MOL0     H14741   7.171   2.207   5.318 -0.5005 -1.3027 -1.9023
  107MOL0     H14742   7.136   2.464   5.395  0.3756  0.8053  0.0668
  107MOL0     H14743   7.242   2.506   5.259  0.2327 -0.7924 -1.9867
  107MOL0     H14744   7.326   2.307   5.483 -0.4646 -0.4908  0.4901
  107MOL0     H14745   7.315   2.476   5.526  0.3394  0.3028 -1.2683
  107MOL0     H14746   6.592   1.801   4.720 -0.4905 -0.6733 -0.2380
  107MOL0     H14747   6.370   1.703   4.653  1.2574 -2.1027  1.9245
  107MOL0     H14748   5.960   1.547   4.483  0.1088  1.9062  1.1363
  107MOL0     H14749   5.719   1.456   4.480 -0.3679 -2.1370  1.2014
  107MOL0     H14750   4.078   0.735   4.279 -0.0205 -2.1678 -0.9258
  107MOL0     H14751   3.845   0.746   4.173 -0.0904  0.3451 -0.4345
  107MOL0     H14752   3.560   0.776   3.979  0.5591  1.8136 -0.0838
  107MOL0     H14753   3.317   0.776   3.936  0.4282 -1.1501  1.7394
  107MOL0     H14754   3.142   0.793   3.516 -3.2219 -0.4772 -1.4931
  107MOL0     H14755   3.197   0.628   3.542 -1.0514 -1.1650  2.5149
  107MOL0     H14756   2.989   0.583   3.678  1.3061  1.3413  1.7021
  107MOL0     H14757   2.963   0.618   3.514  1.5842 -3.6247  0.8717
  107MOL0     H14758   2.957   0.827   3.752  0.7000  1.0411 -0.0637
  107MOL0     H14759   2.920   0.870   3.580 -1.7971  1.2445  1.3007
  107MOL0     H14760   2.757   0.697   3.769  0.6828 -0.1578  0.0972
  107MOL0     H14761   2.738   0.697   3.592  1.7130 -1.7205  0.8972
  107MOL0     H14762   2.550   1.036   3.796 -0.3808 -0.0459  0.7033
  107MOL0     H14763   3.389   0.736   3.516 -2.0752 -1.2074  0.2262
  107MOL0     H14764   3.737   0.815   3.519  1.0429 -1.1434  2.5794
  107MOL0     H14765   3.695   0.639   3.520 -1.1833 -0.1386 -2.4156
  107MOL0     H14766   3.602   0.756   3.422  2.6483  0.0952 -2.0821
  108MOL0     O14767   6.969   9.379   6.248  0.3554  0.3100  0.1155
  108MOL0     C14768   6.889   9.321   6.321  0.1701  0.1790  0.5081
  108MOL0     O14769   6.910   9.222   6.409  0.3995  0.5595 -0.5680
  108MOL0     C14770   7.037   9.184   6.430 -0.1524 -0.1559  1.1200
  108MOL0     C14771   7.065   9.051   6.393 -0.1421  0.3100 -0.0660
  108MOL0     C14772   7.197   9.005   6.397 -0.1338 -0.7006 -0.0989
  108MOL0     C14773   7.299   9.093   6.445 -0.0565  0.7657  0.6672
  108MOL0     O14774   7.436   9.058   6.447  0.0325 -0.2149  0.4332
  108MOL0     C14775   7.490   8.942   6.395 -0.1828 -0.4346 -0.2311
  108MOL0     C14776   7.622   8.918   6.469 -0.0532 -0.4160 -0.3743
  108MOL0     C14777   7.602   8.878   6.611  0.3223  0.5347 -0.1044
  108MOL0     C14778   7.728   8.896   6.692 -0.1026 -0.0899 -0.3151
  108MOL0     C14779   7.724   8.816   6.820 -0.0404 -0.7075 -0.2049
  108MOL0     C14780   7.864   8.765   6.865  0.2793 -0.0541  0.2170
  108MOL0     C14781   7.854   8.726   7.007 -1.2149 -0.1952 -0.8057
  108MOL0     C14782   7.975   8.646   7.051 -0.3829  0.5654  0.2207
  108MOL0     N14783   8.081   8.741   7.086  0.3143 -0.2019  0.8353
  108MOL0     C14784   8.091   8.812   7.206  0.2560 -0.4539  1.3761
  108MOL0     C14785   8.198   8.891   7.188 -0.5189 -0.4755 -0.1831
  108MOL0     C14786   8.254   8.998   7.277 -0.4973  0.0330 -0.5251
  108MOL0     C14787   8.404   9.000   7.287  0.3846  0.3172 -0.6044
  108MOL0     C14788   8.437   8.893   7.389 -0.4325  0.6526 -0.8241
  108MOL0     C14789   8.592   8.883   7.401  0.3048 -0.0342  0.2584
  108MOL0     O14790   8.646   9.009   7.430  0.5593 -0.2215 -0.8999
  108MOL0     C14791   8.781   9.026   7.437 -0.0124 -0.4484 -0.5106
  108MOL0     C14792   8.833   9.141   7.500 -0.0995  0.2551 -0.2002
  108MOL0     C14793   8.972   9.164   7.523 -0.1878  0.4954 -0.0689
  108MOL0     C14794   9.009   9.290   7.593  0.3348  0.7092  0.5607
  108MOL0     C14795   9.064   9.070   7.479 -0.2084  0.1293 -0.0318
  108MOL0     C14796   9.204   9.082   7.484  0.1055  0.4886 -0.1634
  108MOL0     O14797   9.284   8.985   7.422  0.0672  0.2973  0.1886
  108MOL0     C14798   9.421   8.999   7.406  0.1218  0.0778 -0.0491
  108MOL0     C14799   9.510   8.889   7.397  0.2716  0.4357  0.0464
  108MOL0     C14800   9.645   8.909   7.366 -0.2637 -0.4043  0.5532
  108MOL0     C14801   9.705   9.035   7.353 -0.7857 -0.7941 -0.0150
  108MOL0     O14802   9.838   9.068   7.346 -0.5211 -0.2819 -0.1300
  108MOL0     C14803   9.937   8.979   7.305 -0.4504  0.6144  0.7379
  108MOL0     C14804   9.996   9.019   7.166 -0.4927  0.1593  0.5691
  108MOL0     C14805  10.150   9.060   7.171  0.6803  0.2330 -0.6402
  108MOL0     C14806  10.208   9.051   7.025 -0.0083  0.3045 -0.3780
  108MOL0     C14807  10.361   9.053   7.054 -0.1000  0.6099 -0.6279
  108MOL0     C14808  10.420   9.060   6.915  0.4921  0.0748 -0.4468
  108MOL0     C14809  10.565   9.083   6.936 -1.7840 -0.1545 -0.5648
  108MOL0     C14810  10.660   9.123   6.819  0.0946  0.2212 -0.0480
  108MOL0    Cl14811  10.827   9.159   6.864 -0.1169  0.1214  0.2300
  108MOL0     C14812   9.610   9.138   7.367 -0.7870 -0.0104  0.2067
  108MOL0     C14813   9.472   9.124   7.382  0.0333 -0.4506  0.7681
  108MOL0     O14814   9.245   9.180   7.544 -0.6380  0.4760 -0.3732
  108MOL0     C14815   9.013   8.950   7.425  0.1401 -0.2015  0.7977
  108MOL0     C14816   8.878   8.929   7.402  0.6894  0.0723  0.4040
  108MOL0     N14817   8.256   8.860   7.067  0.0651  0.0413 -0.1081
  108MOL0     N14818   8.180   8.776   7.004  0.3904 -0.6551  0.1845
  108MOL0     C14819   7.269   9.217   6.491 -0.1815  0.2964 -0.5333
  108MOL0     C14820   7.140   9.256   6.485 -0.0290  0.4939 -0.9879
  108MOL0     C14821   6.753   9.384   6.325  0.2914 -0.3200 -0.8865
  108MOL0     C14822   6.680   9.389   6.208  0.1598 -0.0802  0.6587
  108MOL0     C14823   6.548   9.436   6.207 -0.1182 -0.0661 -0.2949
  108MOL0     C14824   6.486   9.486   6.323  0.0083 -0.8641  1.3914
  108MOL0     O14825   6.357   9.536   6.307 -0.4403 -0.0844  0.4481
  108MOL0     C14826   6.269   9.538   6.420  0.5950  0.0774  0.9741
  108MOL0     C14827   6.155   9.640   6.399 -0.0034 -0.4924  0.7813
  108MOL0     C14828   6.026   9.591   6.333  0.0318 -0.7584 -0.9518
  108MOL0     C14829   5.892   9.667   6.356 -0.3947 -1.0144  0.5764
  108MOL0     C14830   5.895   9.809   6.309  0.8098  0.4199  0.6164
  108MOL0     C14831   5.877   9.928   6.266 -0.0446 -0.2287 -0.1526
  108MOL0     C14832   6.557   9.471   6.445 -0.5227  0.1258 -0.2305
  108MOL0     C14833   6.686   9.422   6.452 -0.7287  0.4409  0.3199
  108MOL0     C14834   6.759   9.428   6.586  0.4755  0.6678  0.3481
  108MOL0     H14835   6.981   8.994   6.356  0.2374  1.6171 -3.2652
  108MOL0     H14836   7.235   8.910   6.361  1.4339 -0.0291 -0.2615
  108MOL0     H14837   7.507   8.944   6.287  1.7904  2.2909  0.0188
  108MOL0     H14838   7.426   8.856   6.411  1.7210 -1.6925  1.0681
  108MOL0     H14839   7.677   8.845   6.410 -1.9684 -0.8568 -1.7395
  108MOL0     H14840   7.679   9.011   6.476 -0.6175 -0.1973  2.8738
  108MOL0     H14841   7.522   8.940   6.652 -2.0419 -1.9621 -0.6560
  108MOL0     H14842   7.558   8.778   6.613 -1.2139  1.1511 -1.3399
  108MOL0     H14843   7.816   8.867   6.634  1.4602 -0.1781  1.9702
  108MOL0     H14844   7.736   8.998   6.731 -0.1761 -0.5177  0.8631
  108MOL0     H14845   7.665   8.726   6.797 -3.0431 -0.0326  3.8143
  108MOL0     H14846   7.674   8.885   6.888  2.6260  4.7515 -3.1412
  108MOL0     H14847   7.884   8.675   6.806 -1.6185 -0.3234 -0.0797
  108MOL0     H14848   7.941   8.840   6.847  1.6924 -1.5439 -0.1808
  108MOL0     H14849   7.763   8.668   7.020 -0.5445 -2.0459 -3.5434
  108MOL0     H14850   7.851   8.818   7.067  1.4288  0.6249 -1.7714
  108MOL0     H14851   7.955   8.585   7.140 -0.0190  0.7285  0.4164
  108MOL0     H14852   7.999   8.576   6.971 -0.3848  0.4828  0.2922
  108MOL0     H14853   8.025   8.814   7.292 -3.4653 -1.5395 -1.2091
  108MOL0     H14854   8.208   8.974   7.373 -0.8772  1.4171 -0.3471
  108MOL0     H14855   8.211   9.096   7.260 -0.9729 -0.1323 -0.2745
  108MOL0     H14856   8.457   8.970   7.196  0.7427 -1.8848  0.2534
  108MOL0     H14857   8.431   9.101   7.319  1.4171  0.8494 -2.9479
  108MOL0     H14858   8.389   8.905   7.486  2.2991  0.7839  0.5982
  108MOL0     H14859   8.404   8.796   7.349 -1.4341  0.4157  0.5113
  108MOL0     H14860   8.610   8.819   7.488 -1.2288  0.1040  0.7159
  108MOL0     H14861   8.644   8.834   7.318  1.6269  0.7477  0.6139
  108MOL0     H14862   8.755   9.211   7.529 -1.6924 -0.9958 -1.3176
  108MOL0     H14863   9.047   9.272   7.694 -0.1164  2.0293  0.9867
  108MOL0     H14864   8.926   9.361   7.586  1.1747  1.6513 -0.3229
  108MOL0     H14865   9.081   9.341   7.529 -1.0448  1.0656 -0.7482
  108MOL0     H14866   9.467   8.790   7.405  2.9302 -0.9006 -0.9861
  108MOL0     H14867   9.702   8.817   7.372  1.5390  0.6860  0.8530
  108MOL0     H14868  10.006   8.976   7.390 -1.0992  1.3527  1.3090
  108MOL0     H14869   9.898   8.877   7.302 -1.0546  0.8357  0.8576
  108MOL0     H14870   9.982   8.931   7.103  0.2978 -0.1575  0.8258
  108MOL0     H14871   9.941   9.098   7.113  0.4590  0.3855 -0.1073
  108MOL0     H14872  10.198   8.990   7.240  0.1045  1.9081  1.5866
  108MOL0     H14873  10.184   9.156   7.212  1.0280  0.9731 -2.5863
  108MOL0     H14874  10.173   9.135   6.965  1.0441  1.2321  0.2635
  108MOL0     H14875  10.170   8.964   6.972 -2.3932  0.2922  1.2199
  108MOL0     H14876  10.396   9.146   7.101 -0.5671  0.4244  0.1128
  108MOL0     H14877  10.392   8.964   7.111 -0.1674  2.2949  2.2674
  108MOL0     H14878  10.389   9.149   6.860  1.0639  0.0910 -0.7479
  108MOL0     H14879  10.400   8.970   6.856  0.8342 -0.4074  0.1516
  108MOL0     H14880  10.613   8.994   6.977 -2.3493  0.2075  0.9455
  108MOL0     H14881  10.571   9.153   7.020 -0.5959 -2.2932  1.2445
  108MOL0     H14882  10.609   9.211   6.778  0.5163  1.3378  1.7123
  108MOL0     H14883  10.658   9.051   6.736  0.1326  1.1919 -0.9134
  108MOL0     H14884   9.656   9.236   7.358  0.3591 -0.4644  0.8578
  108MOL0     H14885   9.415   9.216   7.378  2.6467  1.2509 -2.9447
  108MOL0     H14886   9.080   8.867   7.409  0.5766  0.2489  0.2619
  108MOL0     H14887   8.847   8.833   7.363  1.7470  0.4112 -1.3944
  108MOL0     H14888   7.342   9.282   6.537 -1.9282  2.4832 -0.7158
  108MOL0     H14889   7.126   9.349   6.539  1.4349  0.2010 -0.0518
  108MOL0     H14890   6.724   9.340   6.121  0.8400  2.3667 -0.4466
  108MOL0     H14891   6.489   9.421   6.117 -1.8888 -0.4849  0.8684
  108MOL0     H14892   6.221   9.442   6.437 -1.1407  0.7986  0.4022
  108MOL0     H14893   6.314   9.562   6.517  0.9969 -0.9035  1.0369
  108MOL0     H14894   6.189   9.723   6.336 -2.3575  0.2060  0.3071
  108MOL0     H14895   6.132   9.691   6.494 -0.6454  0.8915 -0.0790
  108MOL0     H14896   6.044   9.579   6.226  1.3736  1.9206 -1.1238
  108MOL0     H14897   6.000   9.493   6.373 -0.4847  0.4609  2.0063
  108MOL0     H14898   5.872   9.669   6.464 -0.3354  0.8312  0.5894
  108MOL0     H14899   5.812   9.614   6.304  1.1887 -0.6098 -2.4536
  108MOL0     H14900   5.881  10.030   6.232 -1.5588 -0.2361 -0.4081
  108MOL0     H14901   6.511   9.498   6.540 -0.6665 -1.6495  0.2238
  108MOL0     H14902   6.690   9.468   6.661 -0.5653 -1.2182  0.4419
  108MOL0     H14903   6.785   9.325   6.611 -1.3652  0.1126  0.0787
  108MOL0     H14904   6.846   9.495   6.577 -0.1114  1.3134 -0.5844
  109MOL0     O14905   0.804   1.108   4.588  0.4447  0.7813  0.1394
  109MOL0     C14906   0.918   1.105   4.643 -0.6269  0.4360  0.7146
  109MOL0     O14907   1.037   1.104   4.567 -0.5197  0.5772 -0.1899
  109MOL0     C14908   1.030   1.104   4.432  0.1146 -0.0047  0.0441
  109MOL0     C14909   0.958   1.199   4.363 -1.1194 -0.5577  0.3364
  109MOL0     C14910   0.958   1.193   4.221  0.1887 -0.5621 -1.0510
  109MOL0     C14911   1.029   1.096   4.147  0.4881 -1.3884  0.4616
  109MOL0     O14912   1.045   1.090   4.011 -0.3445 -0.2433 -0.0115
  109MOL0     C14913   0.961   1.179   3.935 -0.2540  0.6459 -0.4493
  109MOL0     C14914   1.001   1.171   3.781 -0.0481 -0.4263 -0.1257
  109MOL0     C14915   1.110   1.279   3.749 -0.1593  0.6922  0.1584
  109MOL0     C14916   1.141   1.263   3.597 -0.9622  0.0713  0.2695
  109MOL0     C14917   1.210   1.385   3.530  0.7963 -0.4522  0.7207
  109MOL0     C14918   1.341   1.421   3.604 -0.4930  0.4600  0.8168
  109MOL0     C14919   1.422   1.534   3.540 -0.2037 -0.3063  0.4613
  109MOL0     C14920   1.368   1.678   3.540 -0.3896 -0.7176 -0.4651
  109MOL0     N14921   1.474   1.761   3.479 -0.0358 -0.3846  1.1462
  109MOL0     C14922   1.584   1.818   3.547  0.1174 -0.3430  0.1894
  109MOL0     C14923   1.640   1.902   3.453 -0.3393  0.6443 -0.3929
  109MOL0     C14924   1.761   1.986   3.486 -0.5016  0.0956  0.5606
  109MOL0     C14925   1.873   1.959   3.377 -0.4521 -1.0777 -0.8910
  109MOL0     C14926   2.011   1.993   3.427  0.4603 -0.0623  0.0983
  109MOL0     C14927   2.127   1.987   3.319 -0.2081 -0.5200  0.3704
  109MOL0     O14928   2.244   2.048   3.382 -0.2463 -0.7342  0.3427
  109MOL0     C14929   2.365   2.021   3.331 -0.3027 -0.7518  0.4637
  109MOL0     C14930   2.402   1.958   3.210 -0.3887  0.0183 -0.3927
  109MOL0     C14931   2.531   1.947   3.161  0.1880 -0.5207 -0.3251
  109MOL0     C14932   2.543   1.890   3.021 -0.9755 -0.6056 -0.0167
  109MOL0     C14933   2.638   1.988   3.240  0.1450 -1.0788 -0.8674
  109MOL0     C14934   2.783   1.968   3.216 -0.1211 -0.0143 -0.6771
  109MOL0     O14935   2.874   1.937   3.330  0.1935  0.5943  0.5748
  109MOL0     C14936   3.002   1.978   3.315 -0.1378 -0.1020  0.9221
  109MOL0     C14937   3.039   2.096   3.260 -0.2092 -0.3966 -0.2060
  109MOL0     C14938   3.177   2.133   3.246  0.4778  0.0411  0.2624
  109MOL0     C14939   3.281   2.059   3.295 -0.2122  0.5268  0.7881
  109MOL0     O14940   3.411   2.099   3.269 -0.3346  0.0471 -0.0856
  109MOL0     C14941   3.513   2.047   3.348  0.3375  0.6760 -0.3999
  109MOL0     C14942   3.634   2.138   3.349 -0.2628  0.5444 -0.4440
  109MOL0     C14943   3.640   2.220   3.487 -0.0615  0.7779  0.0340
  109MOL0     C14944   3.714   2.149   3.593 -0.3813 -0.0577 -0.9347
  109MOL0     C14945   3.750   2.225   3.720 -0.4583  0.4538  0.9295
  109MOL0     C14946   3.849   2.328   3.674 -0.0530 -0.5982 -0.7698
  109MOL0     C14947   3.926   2.392   3.797  0.5493  0.1149  0.5810
  109MOL0     C14948   3.965   2.528   3.767  0.0710  0.4584  0.5844
  109MOL0    Cl14949   3.836   2.663   3.810 -0.7290 -0.2174 -0.2191
  109MOL0     C14950   3.247   1.936   3.349 -0.8175 -0.8101 -0.9903
  109MOL0     C14951   3.112   1.890   3.349 -0.2223 -0.8653 -0.3810
  109MOL0     O14952   2.818   1.964   3.100  0.3295 -0.0640 -0.0079
  109MOL0     C14953   2.602   2.054   3.361  0.5823 -0.7237  0.0050
  109MOL0     C14954   2.467   2.082   3.395 -0.1484 -0.3246  0.1687
  109MOL0     N14955   1.574   1.898   3.332  0.4571  0.2138  0.3838
  109MOL0     N14956   1.474   1.816   3.352 -0.0495 -0.3627  0.7225
  109MOL0     C14957   1.103   0.999   4.217 -0.4415  0.6258  0.2622
  109MOL0     C14958   1.102   1.002   4.356  0.3068 -0.5095  0.7671
  109MOL0     C14959   0.937   1.113   4.795 -0.0662  0.0904  0.6362
  109MOL0     C14960   1.071   1.117   4.844 -0.0951 -0.1525 -0.2391
  109MOL0     C14961   1.106   1.123   4.982  0.2146 -0.7217  0.0863
  109MOL0     C14962   1.008   1.160   5.077 -0.7101  0.0188  0.9211
  109MOL0     O14963   1.041   1.173   5.206 -0.2520 -0.3791  0.0948
  109MOL0     C14964   0.947   1.222   5.301  0.8385 -0.3725  0.2726
  109MOL0     C14965   0.881   1.098   5.373 -0.3917 -0.2007 -0.7428
  109MOL0     C14966   0.983   1.004   5.427 -0.4971 -0.4567  0.0109
  109MOL0     C14967   0.904   0.889   5.503 -0.7917  0.0305  0.7837
  109MOL0     C14968   0.851   0.931   5.631 -0.1839  0.0930 -0.5274
  109MOL0     C14969   0.809   0.972   5.741  0.1071 -0.6178  0.6577
  109MOL0     C14970   0.873   1.157   5.033  0.3029  0.5056 -0.3729
  109MOL0     C14971   0.840   1.127   4.895  0.6774 -0.0684  0.2923
  109MOL0     C14972   0.692   1.130   4.861 -0.3800 -0.3245  1.1331
  109MOL0     H14973   0.911   1.275   4.424 -0.3286 -2.0763  2.9584
  109MOL0     H14974   0.908   1.276   4.173  0.6083  1.9756  2.4511
  109MOL0     H14975   0.972   1.283   3.968 -1.0878  0.6497 -0.1329
  109MOL0     H14976   0.854   1.153   3.938  0.0208 -0.5274 -0.5105
  109MOL0     H14977   1.026   1.069   3.749  1.3253 -0.2349  0.3027
  109MOL0     H14978   0.911   1.194   3.722 -0.1680 -0.9674 -0.1637
  109MOL0     H14979   1.080   1.383   3.767 -0.3072  0.6344  0.2487
  109MOL0     H14980   1.203   1.265   3.805 -0.4547  1.9708  1.0236
  109MOL0     H14981   1.220   1.188   3.590  2.0866  2.8488  1.6269
  109MOL0     H14982   1.055   1.233   3.537 -0.2781 -0.2892 -0.5535
  109MOL0     H14983   1.149   1.474   3.517 -0.4824 -1.3860  0.1367
  109MOL0     H14984   1.238   1.352   3.429 -4.5956 -0.9695 -0.9074
  109MOL0     H14985   1.319   1.436   3.710 -0.1674  2.4334  0.6627
  109MOL0     H14986   1.399   1.329   3.605  0.7707  1.1000 -2.1090
  109MOL0     H14987   1.424   1.519   3.431 -2.9005  0.5934  0.2265
  109MOL0     H14988   1.519   1.532   3.590  0.0661  1.7575  0.1117
  109MOL0     H14989   1.274   1.680   3.484 -1.2755 -2.2839  0.8704
  109MOL0     H14990   1.354   1.712   3.643 -0.9736  1.1067 -1.1246
  109MOL0     H14991   1.607   1.790   3.649  1.3917 -1.5983 -0.4098
  109MOL0     H14992   1.809   1.952   3.578  0.8713 -3.0782 -1.1564
  109MOL0     H14993   1.746   2.095   3.485 -0.5401  0.1018  1.3715
  109MOL0     H14994   1.877   1.853   3.348  1.9155 -1.0631 -0.7620
  109MOL0     H14995   1.844   2.026   3.296  0.6500  1.7152  0.9031
  109MOL0     H14996   2.014   2.091   3.475 -1.3685  0.9431 -1.7097
  109MOL0     H14997   2.034   1.932   3.515  0.9728  0.9726  0.6883
  109MOL0     H14998   2.139   1.884   3.284 -1.6303  0.3479 -3.1439
  109MOL0     H14999   2.098   2.047   3.232 -0.6020  1.5439  1.8686
  109MOL0     H15000   2.324   1.930   3.139 -0.2305 -1.9497  0.1611
  109MOL0     H15001   2.462   1.823   2.989 -1.6159 -0.3736  1.0675
  109MOL0     H15002   2.639   1.841   3.004 -0.1045  1.2413 -0.7116
  109MOL0     H15003   2.527   1.972   2.950 -0.8692 -2.2805 -2.0673
  109MOL0     H15004   2.960   2.159   3.221 -0.6399  0.7956  2.3814
  109MOL0     H15005   3.185   2.238   3.219  1.5246 -0.0920  0.0376
  109MOL0     H15006   3.486   2.019   3.451  1.6773 -1.6603 -0.6087
  109MOL0     H15007   3.542   1.954   3.299 -1.9124 -0.0630 -0.4648
  109MOL0     H15008   3.727   2.084   3.326 -0.4379  0.5497 -1.1923
  109MOL0     H15009   3.625   2.215   3.272  0.9492 -0.5102 -1.6827
  109MOL0     H15010   3.543   2.246   3.530 -0.9066 -1.1509 -0.5919
  109MOL0     H15011   3.686   2.315   3.457  0.9273 -0.2344 -1.8762
  109MOL0     H15012   3.803   2.103   3.549  0.1162  0.8553 -0.8964
  109MOL0     H15013   3.649   2.070   3.632 -1.0565 -0.5176 -2.8822
  109MOL0     H15014   3.663   2.269   3.769 -1.9249 -1.7558  0.4426
  109MOL0     H15015   3.796   2.160   3.794  0.2154  0.5969  0.6482
  109MOL0     H15016   3.792   2.408   3.625  1.5750  0.4510 -1.0444
  109MOL0     H15017   3.928   2.292   3.606  2.7376  1.2128  1.2653
  109MOL0     H15018   4.011   2.328   3.823 -0.0130 -0.9134 -0.0224
  109MOL0     H15019   3.861   2.409   3.883 -0.0218 -1.4251  0.4929
  109MOL0     H15020   4.003   2.540   3.665 -2.5626  1.0907 -0.4015
  109MOL0     H15021   4.046   2.565   3.831  0.8930 -0.2798  0.0092
  109MOL0     H15022   3.325   1.866   3.378  0.3841 -0.0294 -2.1667
  109MOL0     H15023   3.090   1.793   3.392  0.8048 -0.2280  1.7055
  109MOL0     H15024   2.678   2.072   3.436 -2.8529 -2.2961  4.2640
  109MOL0     H15025   2.442   2.131   3.489 -3.8561 -1.1260 -0.2352
  109MOL0     H15026   1.154   0.926   4.154 -1.9505  0.2932 -0.6263
  109MOL0     H15027   1.163   0.934   4.414 -0.6469 -0.2830  2.0879
  109MOL0     H15028   1.157   1.107   4.779  1.2977  0.4902  1.4352
  109MOL0     H15029   1.207   1.111   5.019  0.1303 -0.7700  0.3031
  109MOL0     H15030   1.001   1.276   5.379 -2.6282  2.0035  1.2725
  109MOL0     H15031   0.879   1.295   5.257  3.7484  0.7149 -2.9070
  109MOL0     H15032   0.814   1.044   5.306 -0.8748 -2.0437  1.0952
  109MOL0     H15033   0.829   1.139   5.461 -0.3713 -3.2128  0.8142
  109MOL0     H15034   1.044   0.958   5.349  2.9870 -1.0520  2.7925
  109MOL0     H15035   1.043   1.055   5.504 -1.9415 -1.1689  1.6930
  109MOL0     H15036   0.972   0.804   5.506 -0.9820 -0.0962  1.8058
  109MOL0     H15037   0.826   0.863   5.431  0.6516  3.2069 -2.2327
  109MOL0     H15038   0.776   1.010   5.835 -1.5479 -0.6383  0.1159
  109MOL0     H15039   0.796   1.153   5.109  0.1879 -0.3534 -0.5261
  109MOL0     H15040   0.663   1.041   4.805 -0.5405  0.2430  0.2889
  109MOL0     H15041   0.626   1.134   4.948 -1.5457 -2.6312  0.4184
  109MOL0     H15042   0.669   1.210   4.790 -0.7333 -1.4595 -0.0700
  110MOL0     O15043   2.933   4.979   0.435 -0.5751 -1.0234 -0.4039
  110MOL0     C15044   2.838   4.999   0.355  0.3009  0.5199  0.0318
  110MOL0     O15045   2.704   5.028   0.396  0.4620  0.2937  0.0513
  110MOL0     C15046   2.688   5.082   0.516 -0.3691  0.1225 -0.4998
  110MOL0     C15047   2.564   5.067   0.570  0.1030  0.1773  0.3538
  110MOL0     C15048   2.532   5.095   0.703  0.2206 -0.2441  0.4941
  110MOL0     C15049   2.615   5.165   0.779 -0.3821 -0.5013 -0.4635
  110MOL0     O15050   2.602   5.212   0.908  0.9582 -0.2899  0.2526
  110MOL0     C15051   2.484   5.180   0.986  0.3190  0.6023  0.2256
  110MOL0     C15052   2.493   5.245   1.124 -0.2996  0.8963  1.3713
  110MOL0     C15053   2.613   5.186   1.213 -0.4929 -0.2421  0.1680
  110MOL0     C15054   2.611   5.266   1.339  1.2025 -0.1032  0.4008
  110MOL0     C15055   2.734   5.225   1.419  0.7297 -0.4074  0.2323
  110MOL0     C15056   2.748   5.308   1.542  0.9128 -0.2595 -0.1711
  110MOL0     C15057   2.870   5.273   1.627  0.4414 -0.5565  0.8916
  110MOL0     C15058   2.874   5.362   1.738  0.0193 -0.7894 -0.4185
  110MOL0     N15059   2.971   5.310   1.836 -0.3035 -0.2978  0.0537
  110MOL0     C15060   3.112   5.310   1.808 -0.1345 -0.2054  1.2064
  110MOL0     C15061   3.166   5.275   1.927 -0.0913  0.4316 -1.1950
  110MOL0     C15062   3.310   5.271   1.971  0.3468 -0.9334  0.5499
  110MOL0     C15063   3.391   5.401   1.978  0.4122 -0.3665  0.3844
  110MOL0     C15064   3.527   5.384   2.047  0.1290  0.7336 -0.2146
  110MOL0     C15065   3.633   5.346   1.942 -0.1045 -0.3505 -0.6585
  110MOL0     O15066   3.639   5.438   1.833  0.0742  0.0282 -0.0208
  110MOL0     C15067   3.757   5.498   1.817 -0.4493  0.2412  0.3296
  110MOL0     C15068   3.762   5.641   1.836 -0.9057 -0.6286 -0.8051
  110MOL0     C15069   3.887   5.711   1.827 -0.3387  0.0696 -0.2282
  110MOL0     C15070   3.871   5.856   1.862  0.4944  0.1513  0.2837
  110MOL0     C15071   4.002   5.638   1.785  0.3202 -0.3417 -0.1148
  110MOL0     C15072   4.141   5.707   1.774 -0.7494  1.2315  0.1174
  110MOL0     O15073   4.157   5.834   1.816  0.3282  0.6107 -0.6950
  110MOL0     C15074   4.282   5.885   1.815  0.4624 -0.3377  0.1149
  110MOL0     C15075   4.384   5.831   1.884  0.0205  0.5613  0.1261
  110MOL0     C15076   4.506   5.893   1.905 -0.8306 -0.3786 -0.7605
  110MOL0     C15077   4.531   6.020   1.855 -0.3806 -0.1953 -0.6508
  110MOL0     O15078   4.664   6.074   1.864  0.5976  0.0825 -0.3330
  110MOL0     C15079   4.676   6.217   1.832 -0.4429  0.0859  0.0114
  110MOL0     C15080   4.822   6.255   1.846 -0.4381 -0.1320 -0.0797
  110MOL0     C15081   4.879   6.279   1.986 -0.3527 -0.5152  0.1568
  110MOL0     C15082   4.973   6.173   2.032 -0.9180 -0.0362  0.3821
  110MOL0     C15083   5.037   6.222   2.163  1.0665 -0.5472 -0.4144
  110MOL0     C15084   5.072   6.118   2.260 -0.1646  0.4025 -0.7505
  110MOL0     C15085   5.103   6.170   2.403  0.3783  0.2993  0.6762
  110MOL0     C15086   5.102   6.043   2.497 -0.8905  0.4167 -0.0800
  110MOL0    Cl15087   5.249   5.954   2.465  0.0481 -0.0657 -0.0603
  110MOL0     C15088   4.428   6.079   1.780  0.1793  0.8619  0.6340
  110MOL0     C15089   4.308   6.011   1.760 -0.1645 -0.3379 -0.2585
  110MOL0     O15090   4.231   5.628   1.735  0.3576 -0.2310  0.6058
  110MOL0     C15091   3.989   5.500   1.763  0.1996  0.1407  0.4062
  110MOL0     C15092   3.870   5.425   1.775  0.0859  0.3135 -0.1854
  110MOL0     N15093   3.062   5.237   2.018 -0.2418 -0.3210 -0.9965
  110MOL0     N15094   2.948   5.262   1.960  0.2999 -0.2429  0.5382
  110MOL0     C15095   2.747   5.189   0.729  0.9647 -0.5790  1.0100
  110MOL0     C15096   2.779   5.142   0.603 -0.2185 -0.4748  0.1741
  110MOL0     C15097   2.873   4.981   0.209  0.4082  0.2055  0.9151
  110MOL0     C15098   3.010   4.968   0.177  0.2134  0.5685  0.9608
  110MOL0     C15099   3.054   4.929   0.050  0.0152 -0.7236 -0.8380
  110MOL0     C15100   2.963   4.912  -0.052  0.5755  0.0632 -0.1132
  110MOL0     O15101   2.995   4.873  -0.176 -0.4519 -0.6850 -0.4423
  110MOL0     C15102   3.131   4.845  -0.217 -0.1927 -0.4033 -0.5037
  110MOL0     C15103   3.165   4.694  -0.226  0.4170  0.4605  0.2814
  110MOL0     C15104   3.033   4.625  -0.287  0.1699 -0.4390  0.6475
  110MOL0     C15105   3.061   4.476  -0.318 -0.8395  0.3333 -0.7417
  110MOL0     C15106   2.930   4.412  -0.349  0.2937 -0.4156  0.0700
  110MOL0     C15107   2.829   4.358  -0.364  0.1974  0.3077 -0.4994
  110MOL0     C15108   2.826   4.937  -0.032 -0.3233 -0.4170 -0.0521
  110MOL0     C15109   2.781   4.969   0.093 -0.7438  0.3814 -0.0834
  110MOL0     C15110   2.629   4.979   0.107  0.1851 -0.2001  0.8655
  110MOL0     H15111   2.486   5.013   0.517 -1.4893  1.1684  1.6121
  110MOL0     H15112   2.429   5.072   0.729 -0.8869  2.6662 -0.8552
  110MOL0     H15113   2.470   5.074   1.006 -1.1843  0.7030 -0.1650
  110MOL0     H15114   2.399   5.228   0.937  2.6220  1.4683 -3.3907
  110MOL0     H15115   2.516   5.350   1.102  3.5579 -0.2610 -1.1416
  110MOL0     H15116   2.395   5.237   1.172 -0.4858 -0.0426  0.8555
  110MOL0     H15117   2.593   5.079   1.225  2.6260 -0.9295  0.2061
  110MOL0     H15118   2.709   5.198   1.162 -0.7516  1.9822  0.1212
  110MOL0     H15119   2.615   5.373   1.315  2.9144 -0.3369 -0.4890
  110MOL0     H15120   2.524   5.240   1.400  2.1032 -0.4500  1.5874
  110MOL0     H15121   2.814   5.255   1.351 -1.0163 -0.0988 -1.7899
  110MOL0     H15122   2.722   5.119   1.442 -0.7908  0.0200  1.6286
  110MOL0     H15123   2.739   5.414   1.517 -3.5952 -0.2915  0.4695
  110MOL0     H15124   2.652   5.300   1.595  1.7052  0.2656  1.3798
  110MOL0     H15125   2.962   5.279   1.567 -0.7690  0.8361 -0.9458
  110MOL0     H15126   2.864   5.168   1.655 -0.5546 -0.6562  0.3530
  110MOL0     H15127   2.892   5.467   1.713  1.8195 -1.4029 -1.9123
  110MOL0     H15128   2.774   5.358   1.781  0.4451 -0.8113  0.5998
  110MOL0     H15129   3.153   5.351   1.716 -1.5229  1.5220  1.2994
  110MOL0     H15130   3.371   5.213   1.900 -0.9379  0.1908 -1.5594
  110MOL0     H15131   3.308   5.223   2.069  1.5452 -2.2215 -0.0218
  110MOL0     H15132   3.402   5.442   1.878 -0.6487  0.8239  0.7244
  110MOL0     H15133   3.338   5.479   2.034  0.7768  1.1356 -1.2941
  110MOL0     H15134   3.547   5.480   2.095 -0.1697  2.3382 -3.0810
  110MOL0     H15135   3.515   5.304   2.121  0.0988  1.8688  1.0576
  110MOL0     H15136   3.726   5.354   2.000 -0.8211  0.1286  0.4466
  110MOL0     H15137   3.623   5.244   1.905  1.0076 -0.3143 -1.1155
  110MOL0     H15138   3.672   5.694   1.865  0.3593  0.6290  1.0434
  110MOL0     H15139   3.766   5.876   1.885 -0.3069 -2.2735 -0.8836
  110MOL0     H15140   3.899   5.913   1.772 -0.8774  3.3545  1.7177
  110MOL0     H15141   3.926   5.887   1.951  2.2360 -0.7519 -0.4195
  110MOL0     H15142   4.366   5.740   1.939  0.0965  0.9606  0.8280
  110MOL0     H15143   4.577   5.834   1.962 -1.7177  0.2326  1.0371
  110MOL0     H15144   4.641   6.233   1.729 -0.8343  0.1988  0.1606
  110MOL0     H15145   4.617   6.289   1.890  0.9664  2.0335 -0.8700
  110MOL0     H15146   4.882   6.171   1.810 -1.9767 -1.5207  0.4616
  110MOL0     H15147   4.832   6.346   1.787 -6.7507 -0.8051 -2.9350
  110MOL0     H15148   4.803   6.302   2.061  1.7402 -0.4179  2.3832
  110MOL0     H15149   4.942   6.368   1.983 -1.8118  0.5344  0.0374
  110MOL0     H15150   5.046   6.154   1.952 -0.5304  1.4374  0.3543
  110MOL0     H15151   4.906   6.091   2.057 -2.5258  1.9012  2.9396
  110MOL0     H15152   5.122   6.287   2.140 -0.6963  1.5670 -1.3489
  110MOL0     H15153   4.954   6.271   2.216 -1.3654 -2.7014 -1.9908
  110MOL0     H15154   5.155   6.059   2.220  0.4704  1.3817 -0.9269
  110MOL0     H15155   4.992   6.044   2.262  0.0523  0.0269 -2.8347
  110MOL0     H15156   5.026   6.240   2.436 -1.2800 -0.1635 -1.8612
  110MOL0     H15157   5.202   6.214   2.385  1.0224 -1.3062  0.1080
  110MOL0     H15158   5.016   5.979   2.475 -1.2054  0.7094  0.2980
  110MOL0     H15159   5.090   6.065   2.604  0.0726  0.2415  0.0803
  110MOL0     H15160   4.442   6.173   1.729  4.3549 -1.3291 -3.0153
  110MOL0     H15161   4.228   6.065   1.711  0.1698  0.1827 -0.2362
  110MOL0     H15162   4.075   5.452   1.717 -1.1553  0.4546 -2.7758
  110MOL0     H15163   3.861   5.320   1.751 -0.0646  0.2551  0.1204
  110MOL0     H15164   2.824   5.241   0.785  2.7895 -1.7169 -0.3233
  110MOL0     H15165   2.883   5.155   0.574 -0.5766  1.6626 -0.3973
  110MOL0     H15166   3.094   4.980   0.244  0.9142 -0.5647  0.3170
  110MOL0     H15167   3.162   4.931   0.041  0.0388  0.5368 -0.3989
  110MOL0     H15168   3.147   4.887  -0.316  1.2479  0.5099  0.0766
  110MOL0     H15169   3.214   4.890  -0.162 -0.4422  0.6678 -0.9948
  110MOL0     H15170   3.183   4.651  -0.127  0.7826 -1.2539 -0.5084
  110MOL0     H15171   3.240   4.671  -0.302 -0.0864 -1.8749  0.4251
  110MOL0     H15172   2.957   4.638  -0.209  0.5384  3.1629  0.5811
  110MOL0     H15173   3.006   4.670  -0.383  3.3608 -0.1820 -0.2507
  110MOL0     H15174   3.093   4.427  -0.225 -2.7794 -1.9130 -1.1508
  110MOL0     H15175   3.142   4.456  -0.388  0.8731  0.2619  1.1648
  110MOL0     H15176   2.733   4.311  -0.371 -1.2725  2.9879  0.3763
  110MOL0     H15177   2.760   4.918  -0.116 -1.6350  1.0971  0.5925
  110MOL0     H15178   2.570   4.972   0.015 -1.9072 -2.6982  2.2536
  110MOL0     H15179   2.600   4.896   0.173 -1.6749 -0.6487 -0.4247
  110MOL0     H15180   2.625   5.078   0.152  3.0337  1.8723 -2.8874
  111MOL0     O15181   7.642   4.918   8.385 -0.4993  0.0111 -0.2263
  111MOL0     C15182   7.618   4.926   8.268 -0.4243 -0.2774 -0.2964
  111MOL0     O15183   7.705   4.905   8.164 -0.2323 -0.7928  0.1012
  111MOL0     C15184   7.836   4.891   8.195 -0.4787 -0.7065 -0.3978
  111MOL0     C15185   7.927   4.989   8.146 -0.2739  0.2482  0.1343
  111MOL0     C15186   8.061   4.993   8.187  0.5907  0.3083  0.0019
  111MOL0     C15187   8.113   4.893   8.266 -0.3527 -0.1224 -0.5105
  111MOL0     O15188   8.242   4.907   8.307  0.6859 -0.6974  0.2868
  111MOL0     C15189   8.339   4.810   8.259  0.5519  0.3615  0.1117
  111MOL0     C15190   8.469   4.865   8.185  1.1680 -0.0616  0.0999
  111MOL0     C15191   8.438   4.919   8.045 -0.1286 -0.2317  1.2414
  111MOL0     C15192   8.330   4.834   7.961  0.1605  0.3582  1.2168
  111MOL0     C15193   8.312   4.889   7.814 -0.0477  0.5206  0.2692
  111MOL0     C15194   8.409   4.826   7.715 -0.7409  0.4178  0.5073
  111MOL0     C15195   8.389   4.868   7.562 -0.1089 -0.2413  0.2595
  111MOL0     C15196   8.518   4.813   7.476 -0.2291  1.0249 -0.3898
  111MOL0     N15197   8.647   4.877   7.513  0.0995  0.1452  0.0213
  111MOL0     C15198   8.680   5.006   7.516 -0.1763 -0.0390  0.0021
  111MOL0     C15199   8.802   5.006   7.578  0.2764 -0.5845 -0.5680
  111MOL0     C15200   8.880   5.128   7.607 -0.3809 -0.0424  0.1094
  111MOL0     C15201   8.857   5.167   7.749  0.4538  1.0176  0.5925
  111MOL0     C15202   8.966   5.258   7.806 -0.7073 -0.0358 -0.7801
  111MOL0     C15203   8.976   5.288   7.955  0.0103  0.6991 -0.9293
  111MOL0     O15204   9.087   5.367   7.975 -0.2631  0.3557 -0.1189
  111MOL0     C15205   9.138   5.376   8.104 -0.6681  0.4488  0.6278
  111MOL0     C15206   9.089   5.320   8.219 -0.2559 -0.0881 -0.3202
  111MOL0     C15207   9.164   5.337   8.348 -0.2770 -0.1445  0.1738
  111MOL0     C15208   9.097   5.295   8.477  0.0992 -0.8413 -0.8353
  111MOL0     C15209   9.287   5.414   8.341  1.1411  0.4343  0.5160
  111MOL0     C15210   9.393   5.423   8.453 -0.0557  0.0876 -0.7073
  111MOL0     O15211   9.389   5.318   8.544 -0.1388  0.2264  0.4246
  111MOL0     C15212   9.497   5.307   8.624  0.8565  0.1492 -0.6328
  111MOL0     C15213   9.475   5.298   8.759  0.6568 -0.3154  0.2677
  111MOL0     C15214   9.579   5.295   8.849 -0.2810  0.7582 -0.0959
  111MOL0     C15215   9.712   5.308   8.814  0.0208 -0.1664 -0.3439
  111MOL0     O15216   9.805   5.311   8.915 -0.2120  0.0853  0.1263
  111MOL0     C15217   9.940   5.322   8.885 -0.7017  0.9860 -0.3564
  111MOL0     C15218   9.983   5.183   8.835 -0.1484  0.4594 -0.9547
  111MOL0     C15219   9.936   5.054   8.924  1.0510  0.0870  0.2259
  111MOL0     C15220   9.923   4.920   8.844 -0.2672 -0.1782  0.3376
  111MOL0     C15221  10.064   4.842   8.839  0.4741  0.5678 -0.3799
  111MOL0     C15222  10.071   4.697   8.782  1.0461  0.5931  0.2688
  111MOL0     C15223  10.205   4.632   8.752  0.3047 -0.9002 -0.1632
  111MOL0     C15224  10.300   4.636   8.877 -0.1274  0.1923  0.3616
  111MOL0    Cl15225  10.462   4.573   8.827  0.1069 -0.0756  0.0454
  111MOL0     C15226   9.740   5.310   8.671 -0.3914  0.2108 -0.5115
  111MOL0     C15227   9.630   5.300   8.581 -0.0638  0.3819  0.2016
  111MOL0     O15228   9.468   5.517   8.456  0.2389 -0.8916  0.6779
  111MOL0     C15229   9.323   5.478   8.219  0.3778  0.5583 -0.1814
  111MOL0     C15230   9.250   5.459   8.107  0.2848 -0.1205 -0.3637
  111MOL0     N15231   8.843   4.870   7.596 -0.8677  0.2333  0.7508
  111MOL0     N15232   8.752   4.796   7.549  0.7950  0.0540  0.7146
  111MOL0     C15233   8.028   4.798   8.317  0.0882  0.4476 -0.3554
  111MOL0     C15234   7.886   4.796   8.284 -0.5893 -0.0220 -0.5854
  111MOL0     C15235   7.480   4.968   8.229 -0.1121 -1.0410  0.0402
  111MOL0     C15236   7.367   4.937   8.314 -0.4049 -0.0126 -0.2254
  111MOL0     C15237   7.238   4.975   8.278  0.6507  0.3097 -0.7903
  111MOL0     C15238   7.201   5.024   8.146  0.0541 -0.2307 -0.2587
  111MOL0     O15239   7.071   5.063   8.117  0.5358  0.2617  0.0768
  111MOL0     C15240   6.991   5.144   8.213 -0.0812 -0.1293  0.5505
  111MOL0     C15241   6.864   5.192   8.140  0.0718  0.7625 -0.3190
  111MOL0     C15242   6.790   5.271   8.247  0.1416 -0.7759  0.0666
  111MOL0     C15243   6.654   5.322   8.209  0.1959 -0.0944  0.2592
  111MOL0     C15244   6.645   5.457   8.159 -0.6059 -0.8709 -0.0295
  111MOL0     C15245   6.657   5.576   8.124  0.0551  1.0204  0.4900
  111MOL0     C15246   7.315   5.047   8.062  0.0960 -0.9307  0.4796
  111MOL0     C15247   7.448   5.024   8.100  0.1134 -0.7808  0.3527
  111MOL0     C15248   7.553   5.065   7.994  0.1354 -0.1445 -0.6707
  111MOL0     H15249   7.901   5.065   8.072  1.2672  0.4300 -0.2470
  111MOL0     H15250   8.137   5.070   8.173 -1.2195  2.1235 -0.2190
  111MOL0     H15251   8.301   4.735   8.188 -1.0378  0.5561  0.7051
  111MOL0     H15252   8.370   4.756   8.349  0.9977  0.1867 -0.1450
  111MOL0     H15253   8.510   4.952   8.238  1.6914 -1.0127  1.3066
  111MOL0     H15254   8.540   4.783   8.191  2.5209  0.9234 -1.6749
  111MOL0     H15255   8.414   5.026   8.042  0.9193  0.0048 -0.9671
  111MOL0     H15256   8.529   4.922   7.983  0.0735 -1.6846  1.4431
  111MOL0     H15257   8.358   4.729   7.961  1.8367  0.7885  1.0659
  111MOL0     H15258   8.230   4.841   8.007 -0.3120 -1.8029  0.6247
  111MOL0     H15259   8.339   4.994   7.799  0.6957  0.2793 -0.1732
  111MOL0     H15260   8.207   4.874   7.788 -0.4309 -2.5298  2.9787
  111MOL0     H15261   8.510   4.853   7.747  0.2306 -0.4390 -1.6274
  111MOL0     H15262   8.397   4.717   7.722  1.6176 -0.0094 -1.0203
  111MOL0     H15263   8.385   4.977   7.557  1.6077 -0.1402  0.6871
  111MOL0     H15264   8.297   4.825   7.520  0.4807 -1.2254 -0.0637
  111MOL0     H15265   8.531   4.706   7.497 -0.9094  0.5435 -2.2979
  111MOL0     H15266   8.501   4.837   7.371  0.1408 -0.1529 -0.7298
  111MOL0     H15267   8.625   5.086   7.469  1.1096  0.0494 -1.4216
  111MOL0     H15268   8.844   5.202   7.535  0.9738 -0.4417 -1.0187
  111MOL0     H15269   8.985   5.100   7.606 -0.2594  0.1115  2.7064
  111MOL0     H15270   8.757   5.206   7.766 -0.4855 -1.9752  2.6751
  111MOL0     H15271   8.850   5.078   7.812  2.7865  1.6194  1.8544
  111MOL0     H15272   9.068   5.228   7.779  0.2203  1.0813  1.2834
  111MOL0     H15273   8.939   5.351   7.755 -1.4561 -0.4724 -1.2074
  111MOL0     H15274   8.888   5.325   8.007 -0.4049 -0.8363 -0.5031
  111MOL0     H15275   9.002   5.195   8.005 -0.8798 -0.6096 -2.8098
  111MOL0     H15276   8.999   5.260   8.221 -0.6319  0.4924  0.8438
  111MOL0     H15277   9.074   5.379   8.542  0.0674 -1.6210  0.1949
  111MOL0     H15278   9.153   5.218   8.532 -0.2852  0.0861  0.9143
  111MOL0     H15279   9.005   5.240   8.453  0.0617 -0.6394 -1.1559
  111MOL0     H15280   9.371   5.293   8.790  0.8961 -2.0096  0.9215
  111MOL0     H15281   9.552   5.281   8.953 -0.3671 -2.1460 -0.4149
  111MOL0     H15282   9.966   5.402   8.816  1.0338  2.7411  2.1694
  111MOL0     H15283   9.999   5.337   8.976  0.6385  0.8168 -1.1637
  111MOL0     H15284   9.951   5.159   8.733  2.1536 -0.9460 -1.4149
  111MOL0     H15285  10.091   5.176   8.822 -0.1705  1.6903 -1.9385
  111MOL0     H15286   9.834   5.083   8.951  0.1161 -1.5201 -1.4020
  111MOL0     H15287  10.000   5.048   9.013 -0.4902 -0.3122  1.3495
  111MOL0     H15288   9.898   4.947   8.741 -0.1403 -1.6841 -0.1231
  111MOL0     H15289   9.843   4.855   8.881 -1.5749  0.8706 -0.5427
  111MOL0     H15290  10.124   4.912   8.781 -0.0278  1.4787  0.1854
  111MOL0     H15291  10.089   4.848   8.945 -0.0004 -1.1329 -0.1395
  111MOL0     H15292  10.012   4.691   8.690  3.0804 -3.4285 -0.9925
  111MOL0     H15293  10.011   4.626   8.841  2.7466 -3.3768 -2.3591
  111MOL0     H15294  10.254   4.683   8.669 -0.4369  0.8111  0.4170
  111MOL0     H15295  10.176   4.528   8.730 -3.6588  0.2959 -1.5362
  111MOL0     H15296  10.255   4.574   8.955 -0.0214 -2.0228 -1.2422
  111MOL0     H15297  10.317   4.739   8.908  3.7269 -0.6537  1.6380
  111MOL0     H15298   9.840   5.315   8.629 -0.1288  0.8610  0.1762
  111MOL0     H15299   9.660   5.287   8.478 -0.0197  2.1308 -0.0339
  111MOL0     H15300   9.400   5.554   8.220 -1.2828  2.4616  3.7199
  111MOL0     H15301   9.280   5.517   8.020  0.5785 -0.8330 -0.7484
  111MOL0     H15302   8.056   4.714   8.381  0.5710 -1.7713 -3.2796
  111MOL0     H15303   7.820   4.718   8.320 -0.4642 -0.7571 -1.8837
  111MOL0     H15304   7.388   4.888   8.408 -1.1746 -2.2216 -1.1307
  111MOL0     H15305   7.159   4.959   8.351  0.8488 -2.6772 -1.0979
  111MOL0     H15306   6.962   5.087   8.302 -1.8695 -0.8572 -0.4579
  111MOL0     H15307   7.063   5.223   8.239 -0.1534  1.6640 -3.8150
  111MOL0     H15308   6.813   5.104   8.099  1.6837 -0.5452  0.3936
  111MOL0     H15309   6.892   5.255   8.055 -1.2169  0.4705 -0.9843
  111MOL0     H15310   6.776   5.200   8.329  2.6910 -2.7218 -1.0194
  111MOL0     H15311   6.848   5.354   8.289  0.7731 -1.8307  1.3869
  111MOL0     H15312   6.595   5.325   8.301  3.5175  1.4976  2.5321
  111MOL0     H15313   6.615   5.249   8.137 -1.6941  0.8235  0.2869
  111MOL0     H15314   6.656   5.679   8.093 -1.8349  1.5609  2.1593
  111MOL0     H15315   7.307   5.099   7.968 -0.6112  0.3896  1.2513
  111MOL0     H15316   7.573   4.984   7.924  3.3293 -0.2601  0.2257
  111MOL0     H15317   7.518   5.151   7.936  3.8626  2.7271  0.8594
  111MOL0     H15318   7.651   5.099   8.030 -0.7966  1.5156  0.4654
  112MOL0     O15319   9.163   8.098   9.987  0.2147 -0.7906 -0.0811
  112MOL0     C15320   9.095   8.190  10.032  0.7726  0.1254  0.0533
  112MOL0     O15321   9.125   8.326  10.022 -0.2080  0.0819 -0.3931
  112MOL0     C15322   9.254   8.368   9.981  0.1586  0.0770  0.0521
  112MOL0     C15323   9.303   8.362   9.846  0.3522 -0.3584  0.4159
  112MOL0     C15324   9.427   8.414   9.812 -0.3263 -0.6980 -0.1082
  112MOL0     C15325   9.513   8.465   9.908  0.6482 -0.8468  0.1299
  112MOL0     O15326   9.635   8.526   9.880  0.1040  0.9317 -0.1083
  112MOL0     C15327   9.652   8.595   9.755 -0.1538 -1.1533  0.4812
  112MOL0     C15328   9.752   8.709   9.775  0.5128  0.5219 -0.4745
  112MOL0     C15329   9.692   8.814   9.873 -0.6522 -0.1922  0.1981
  112MOL0     C15330   9.799   8.927   9.906  0.3827 -0.0572 -0.4110
  112MOL0     C15331   9.727   9.035   9.990 -0.1089  0.0108 -0.0318
  112MOL0     C15332   9.810   9.162   9.977 -0.5062  0.5686  0.4501
  112MOL0     C15333   9.764   9.269  10.079  0.2051 -0.3770 -0.3872
  112MOL0     C15334   9.613   9.306  10.075  0.2505  0.1234 -0.2685
  112MOL0     N15335   9.580   9.384  10.192 -0.6888 -0.3968 -0.0982
  112MOL0     C15336   9.595   9.344  10.325 -0.1924  0.1985  0.3199
  112MOL0     C15337   9.579   9.462  10.395 -0.3150  0.3059  0.0211
  112MOL0     C15338   9.603   9.489  10.544 -0.0624  0.1639  0.7264
  112MOL0     C15339   9.749   9.526  10.568 -0.1999  0.9476  0.0244
  112MOL0     C15340   9.761   9.616  10.684  0.4053  0.3198 -0.4048
  112MOL0     C15341   9.909   9.663  10.708 -0.0014 -0.1383 -0.0694
  112MOL0     O15342   9.997   9.556  10.716 -0.7778 -0.0276  0.2246
  112MOL0     C15343  10.130   9.595  10.746  0.6015 -0.7800  0.4781
  112MOL0     C15344  10.225   9.494  10.754  0.8240  0.1895  0.4328
  112MOL0     C15345  10.362   9.515  10.765 -0.3147  0.4540 -0.5700
  112MOL0     C15346  10.444   9.390  10.743 -0.9148 -0.7995 -0.1877
  112MOL0     C15347  10.405   9.646  10.784 -0.5039  0.2063 -0.4270
  112MOL0     C15348  10.549   9.675  10.814 -0.2899  0.3554 -1.0391
  112MOL0     O15349  10.588   9.806  10.792 -0.2905  0.3479  0.1282
  112MOL0     C15350  10.713   9.837  10.779 -0.3445  0.7805 -1.0903
  112MOL0     C15351  10.764   9.892  10.666 -0.4681  0.5227  0.4937
  112MOL0     C15352  10.890   9.949  10.666  0.5823 -0.5137  0.1350
  112MOL0     C15353  10.973   9.945  10.777 -0.0564  0.2664 -0.1186
  112MOL0     O15354  11.109   9.982  10.772  0.1829 -0.3483 -0.4992
  112MOL0     C15355  11.192   9.963  10.883 -0.2828  0.3137 -0.5443
  112MOL0     C15356  11.328  10.017  10.850 -0.1523  0.3998  0.1137
  112MOL0     C15357  11.417   9.937  10.755  0.1604 -0.0315 -0.3973
  112MOL0     C15358  11.467   9.813  10.829  0.8700  0.1509  0.3446
  112MOL0     C15359  11.570   9.744  10.754 -0.3742  0.9443 -0.5771
  112MOL0     C15360  11.631   9.632  10.836 -0.7564  0.1653 -0.3796
  112MOL0     C15361  11.730   9.681  10.944 -0.4435  0.0645 -0.1592
  112MOL0     C15362  11.781   9.560  11.026 -0.1882 -0.6709  0.3641
  112MOL0    Cl15363  11.911   9.480  10.921 -0.0919 -0.1076 -0.0462
  112MOL0     C15364  10.916   9.894  10.891 -0.4020  0.4350  0.2525
  112MOL0     C15365  10.791   9.834  10.889  0.1925  0.0224 -0.6811
  112MOL0     O15366  10.615   9.586  10.865 -0.8967 -0.1293  0.2789
  112MOL0     C15367  10.314   9.748  10.788 -1.0837  0.6419 -0.6099
  112MOL0     C15368  10.175   9.727  10.769 -0.3992 -0.0348 -1.8538
  112MOL0     N15369   9.543   9.565  10.308  0.5103 -0.2600  0.1244
  112MOL0     N15370   9.540   9.513  10.189  1.1065 -0.0929  0.0380
  112MOL0     C15371   9.474   8.465  10.037  0.8394  0.4757 -0.9954
  112MOL0     C15372   9.344   8.425  10.073  0.3850  0.3749  0.2430
  112MOL0     C15373   8.963   8.148  10.089 -0.1608 -0.6787 -0.5781
  112MOL0     C15374   8.874   8.254  10.135  0.1169 -0.9552 -0.3624
  112MOL0     C15375   8.739   8.227  10.162  0.3282 -0.4228 -0.1574
  112MOL0     C15376   8.693   8.097  10.161  0.9417 -0.0369  0.7161
  112MOL0     O15377   8.563   8.086  10.205 -0.2040  0.2837 -0.5061
  112MOL0     C15378   8.503   7.954  10.223  0.4326 -0.4961 -0.0461
  112MOL0     C15379   8.366   7.946  10.144  0.6619  0.0285 -0.2920
  112MOL0     C15380   8.272   8.048  10.209 -0.9532  0.0678  0.0751
  112MOL0     C15381   8.135   7.986  10.218  0.1595  0.3910 -0.1879
  112MOL0     C15382   8.038   8.076  10.284  0.0927  0.6398 -0.0226
  112MOL0     C15383   7.944   8.137  10.330 -0.6043  0.1199 -0.3861
  112MOL0     C15384   8.784   7.991  10.128 -0.1988 -0.1466 -0.1314
  112MOL0     C15385   8.913   8.013  10.090 -0.4740  0.7098  1.0731
  112MOL0     C15386   9.008   7.891  10.067 -0.0666 -0.2190  0.8166
  112MOL0     H15387   9.234   8.329   9.768  2.4630  0.6889 -2.0457
  112MOL0     H15388   9.462   8.430   9.711  1.7147  0.4402  0.7322
  112MOL0     H15389   9.562   8.638   9.712 -0.1362 -1.8276 -0.2487
  112MOL0     H15390   9.695   8.530   9.678  1.6549  1.3319 -0.7483
  112MOL0     H15391   9.849   8.663   9.798 -0.7266 -0.7989  2.6602
  112MOL0     H15392   9.759   8.749   9.673  2.1631  0.5977 -0.3675
  112MOL0     H15393   9.606   8.863   9.825 -1.1070 -1.4768 -0.3678
  112MOL0     H15394   9.654   8.763   9.962  0.0945  0.3401  0.8307
  112MOL0     H15395   9.886   8.911   9.971  1.8724  3.4021 -1.3126
  112MOL0     H15396   9.829   8.971   9.810 -0.8294 -0.6333 -1.0703
  112MOL0     H15397   9.703   8.994  10.088 -1.0597 -1.0317 -0.6816
  112MOL0     H15398   9.627   9.050   9.949  0.4637  0.1893 -1.4227
  112MOL0     H15399   9.914   9.132   9.991  0.0969  1.8663 -0.9136
  112MOL0     H15400   9.811   9.205   9.877  1.1658  0.7402  0.5044
  112MOL0     H15401   9.817   9.365  10.072  1.7081 -1.0501  1.0108
  112MOL0     H15402   9.793   9.228  10.176  1.3445  1.6534  0.1904
  112MOL0     H15403   9.593   9.363   9.984 -3.2255 -1.0543 -0.3920
  112MOL0     H15404   9.549   9.217  10.071  2.8409 -1.9751  1.5673
  112MOL0     H15405   9.627   9.249  10.366 -0.5925 -0.5932 -1.1381
  112MOL0     H15406   9.587   9.398  10.604 -1.2289 -0.8343 -1.0160
  112MOL0     H15407   9.530   9.566  10.571  0.8608  0.9830  0.9204
  112MOL0     H15408   9.813   9.437  10.573 -1.2123  0.1786 -0.3627
  112MOL0     H15409   9.785   9.583  10.482  0.8331 -0.6841 -0.6744
  112MOL0     H15410   9.691   9.700  10.680  2.3216  2.1410  1.4298
  112MOL0     H15411   9.733   9.546  10.764 -2.0367  0.1306 -1.3233
  112MOL0     H15412   9.936   9.719  10.618  0.0734  1.6894  1.0311
  112MOL0     H15413   9.915   9.727  10.797  1.2790  0.0085 -0.2356
  112MOL0     H15414  10.195   9.390  10.753  1.2383  0.0536  1.1099
  112MOL0     H15415  10.545   9.419  10.710 -0.8038 -1.8628 -0.8091
  112MOL0     H15416  10.409   9.325  10.663  4.0606 -1.8905 -1.8701
  112MOL0     H15417  10.459   9.337  10.838 -0.9210  1.9931  1.4928
  112MOL0     H15418  10.694   9.900  10.584  0.1629 -2.1600 -0.3861
  112MOL0     H15419  10.918   9.997  10.573 -1.9559  2.1441  0.5997
  112MOL0     H15420  11.157  10.024  10.968 -0.4237  0.7226 -0.8915
  112MOL0     H15421  11.198   9.857  10.906  0.8527  0.9185  2.4025
  112MOL0     H15422  11.308  10.111  10.797  0.6010 -0.9540 -2.7442
  112MOL0     H15423  11.382  10.042  10.941  3.2007  1.2013 -1.9184
  112MOL0     H15424  11.501  10.003  10.730  0.8236  1.4786  4.6540
  112MOL0     H15425  11.362   9.917  10.663 -2.6206  1.4254  0.8216
  112MOL0     H15426  11.384   9.745  10.849 -0.1213  1.0833 -0.4155
  112MOL0     H15427  11.502   9.852  10.925 -1.4960 -0.6150  1.6072
  112MOL0     H15428  11.526   9.711  10.660  1.6307  0.3892 -1.3687
  112MOL0     H15429  11.648   9.817  10.731  0.2542  1.3866  2.5537
  112MOL0     H15430  11.691   9.567  10.772  2.5883  0.7459  1.8759
  112MOL0     H15431  11.565   9.558  10.883  0.4246 -0.3659  0.5038
  112MOL0     H15432  11.676   9.752  11.007  2.1000  3.8702 -1.9045
  112MOL0     H15433  11.810   9.743  10.904 -0.9077 -0.4238 -1.9783
  112MOL0     H15434  11.701   9.489  11.049  1.0794 -1.7253  1.7423
  112MOL0     H15435  11.825   9.588  11.122  0.1394 -0.6093  0.1994
  112MOL0     H15436  10.968   9.895  10.987  1.6985 -1.2346 -0.7674
  112MOL0     H15437  10.761   9.794  10.986 -1.3661 -0.0729 -1.1822
  112MOL0     H15438  10.345   9.850  10.805  1.5855 -0.4779  2.1748
  112MOL0     H15439  10.114   9.816  10.756 -1.3852 -0.7691 -2.4615
  112MOL0     H15440   9.546   8.504  10.108  1.2748 -1.4712 -0.2965
  112MOL0     H15441   9.314   8.422  10.178 -2.6512 -1.5455 -0.5278
  112MOL0     H15442   8.905   8.357  10.149 -0.6846 -0.5836 -1.2055
  112MOL0     H15443   8.670   8.309  10.179  0.8081  0.1829 -1.0927
  112MOL0     H15444   8.567   7.875  10.181 -0.1949 -0.6465 -0.7527
  112MOL0     H15445   8.488   7.943  10.331 -0.3035 -2.6235 -0.3135
  112MOL0     H15446   8.330   7.843  10.139 -2.7230  1.1561 -1.3299
  112MOL0     H15447   8.384   7.970  10.039  1.7649 -0.6539 -0.2845
  112MOL0     H15448   8.315   8.076  10.305 -2.7957 -3.6206  2.2090
  112MOL0     H15449   8.266   8.134  10.141 -2.8162 -2.3495 -3.1159
  112MOL0     H15450   8.137   7.895  10.279  2.1096 -1.1396 -2.3336
  112MOL0     H15451   8.102   7.962  10.116 -1.6991  1.2982  0.1636
  112MOL0     H15452   7.872   8.180  10.396 -0.1079  2.0644 -1.0371
  112MOL0     H15453   8.752   7.888  10.134  0.8381 -0.4720 -0.0723
  112MOL0     H15454   9.085   7.883  10.145  2.7899 -2.7648 -2.0097
  112MOL0     H15455   8.965   7.791  10.078 -1.3868  0.4594  2.1120
  112MOL0     H15456   9.045   7.893   9.964  1.8242  0.4635  1.4629
  113MOL0     O15457   8.649   9.593  11.302 -0.1726  0.0033 -0.2911
  113MOL0     C15458   8.679   9.479  11.340 -0.1333  0.6218  0.4032
  113MOL0     O15459   8.744   9.450  11.456 -0.1881  0.0074 -0.4016
  113MOL0     C15460   8.775   9.552  11.545 -0.1083 -0.4934  0.5899
  113MOL0     C15461   8.907   9.567  11.588  0.8156  0.2883  0.4970
  113MOL0     C15462   8.933   9.654  11.688  0.1191  0.2470 -0.7161
  113MOL0     C15463   8.830   9.727  11.754  0.9675  0.6332 -0.9143
  113MOL0     O15464   8.850   9.802  11.866 -0.3737 -0.6212 -1.1170
  113MOL0     C15465   8.748   9.818  11.962  0.2065  0.1409 -0.3672
  113MOL0     C15466   8.805   9.879  12.089 -0.4714 -0.5659  0.4458
  113MOL0     C15467   8.952   9.835  12.113 -0.2976  0.1310 -0.0290
  113MOL0     C15468   9.002   9.889  12.238  0.4066 -0.2257 -0.5560
  113MOL0     C15469   9.150   9.849  12.261 -0.2411  0.2990  0.1478
  113MOL0     C15470   9.215   9.944  12.357  0.3030  1.4595  0.0965
  113MOL0     C15471   9.331   9.890  12.434 -0.5243 -0.2663 -0.1400
  113MOL0     C15472   9.364   9.985  12.550 -0.4047 -0.8239 -0.1053
  113MOL0     N15473   9.474   9.932  12.633  0.4413  0.1772  0.1426
  113MOL0     C15474   9.570  10.012  12.695  0.3530  0.2983 -0.1114
  113MOL0     C15475   9.636   9.927  12.776 -0.0388 -0.8240  0.4782
  113MOL0     C15476   9.760   9.959  12.859 -0.5488 -0.3819 -0.5510
  113MOL0     C15477   9.866   9.856  12.835  0.3923  0.2538  0.1101
  113MOL0     C15478  10.000   9.895  12.887  0.3346  0.2567 -0.2765
  113MOL0     C15479  10.105   9.793  12.840  0.1688 -0.2935  0.0342
  113MOL0     O15480  10.222   9.839  12.902  0.4575  0.1154  0.8121
  113MOL0     C15481  10.340   9.776  12.881 -0.1629 -0.1873  0.0253
  113MOL0     C15482  10.358   9.650  12.831  0.2311 -0.0765  0.4114
  113MOL0     C15483  10.489   9.592  12.819  0.3757  0.2685 -0.3092
  113MOL0     C15484  10.493   9.451  12.763  0.8231  0.9968 -0.1298
  113MOL0     C15485  10.602   9.668  12.874 -0.7874  0.4585  0.1459
  113MOL0     C15486  10.745   9.621  12.850 -0.3609 -0.5220  0.0859
  113MOL0     O15487  10.770   9.517  12.766  0.3540 -0.3036 -0.2993
  113MOL0     C15488  10.892   9.462  12.730 -0.0635  0.1253 -0.1796
  113MOL0     C15489  11.005   9.464  12.806 -0.2763 -0.6918  0.3370
  113MOL0     C15490  11.124   9.420  12.748  0.1174  0.4788 -0.1507
  113MOL0     C15491  11.137   9.348  12.632  0.7130  0.4803 -0.3901
  113MOL0     O15492  11.262   9.320  12.575  0.1371 -0.0466  0.0096
  113MOL0     C15493  11.387   9.352  12.646 -0.0092  0.6998  0.6257
  113MOL0     C15494  11.519   9.287  12.577  0.4623 -0.9025 -0.5051
  113MOL0     C15495  11.558   9.141  12.613  0.8085 -0.6197 -0.2518
  113MOL0     C15496  11.454   9.030  12.583  0.0474  0.3658  1.1176
  113MOL0     C15497  11.492   8.890  12.614 -0.0128  0.3101 -0.2122
  113MOL0     C15498  11.442   8.841  12.756  0.4051 -0.1493  0.0309
  113MOL0     C15499  11.498   8.900  12.887 -0.1110 -0.3364  0.1038
  113MOL0     C15500  11.649   8.862  12.892 -0.0908 -0.5726  0.0512
  113MOL0    Cl15501  11.683   8.688  12.854 -0.0543  0.0824 -0.0556
  113MOL0     C15502  11.007   9.323  12.569 -0.2102 -0.2650 -0.4973
  113MOL0     C15503  10.892   9.386  12.614  0.1982  0.1393  0.8292
  113MOL0     O15504  10.828   9.687  12.913  0.6153  0.0690  0.5334
  113MOL0     C15505  10.570   9.786  12.937  0.1092  0.1151 -0.3620
  113MOL0     C15506  10.445   9.840  12.935  0.1166 -0.5508 -0.0077
  113MOL0     N15507   9.566   9.808  12.777 -0.0071 -0.0110 -0.1761
  113MOL0     N15508   9.477   9.805  12.693  0.2380  0.0896 -0.1423
  113MOL0     C15509   8.705   9.712  11.708 -0.3076 -0.6043 -0.0473
  113MOL0     C15510   8.673   9.623  11.604 -0.5313 -0.1302 -0.0117
  113MOL0     C15511   8.640   9.360  11.255 -0.1659 -0.3294  0.3063
  113MOL0     C15512   8.721   9.243  11.257 -0.0163 -0.3851 -0.3954
  113MOL0     C15513   8.703   9.143  11.163  0.3074  0.5549 -0.0998
  113MOL0     C15514   8.588   9.139  11.082 -0.9545  0.2736 -0.1211
  113MOL0     O15515   8.588   9.049  10.978 -0.8025  0.0408  0.5855
  113MOL0     C15516   8.469   9.016  10.905 -0.7367 -0.1877 -0.6284
  113MOL0     C15517   8.422   8.872  10.937  0.3489  0.2614 -0.2330
  113MOL0     C15518   8.525   8.771  10.935 -0.3639  0.1815  0.4224
  113MOL0     C15519   8.595   8.768  10.791  0.5417  0.3678 -0.1223
  113MOL0     C15520   8.702   8.664  10.793  0.3556 -0.3380  0.6673
  113MOL0     C15521   8.769   8.566  10.780 -0.0076  0.6304  0.6694
  113MOL0     C15522   8.504   9.247  11.084  0.6649 -0.6246  0.1493
  113MOL0     C15523   8.532   9.359  11.159 -0.7498 -0.2641  0.3503
  113MOL0     C15524   8.436   9.474  11.138  0.0954  0.6519 -0.2701
  113MOL0     H15525   8.987   9.501  11.559 -1.7848 -1.7597 -2.8226
  113MOL0     H15526   9.033   9.674  11.725  0.5899 -0.3665 -1.6257
  113MOL0     H15527   8.712   9.717  11.984  0.9284 -0.0358  0.0084
  113MOL0     H15528   8.670   9.889  11.932  1.2043  0.8206 -1.4076
  113MOL0     H15529   8.809   9.987  12.073  0.8164 -0.3633  1.8689
  113MOL0     H15530   8.745   9.869  12.180  0.4653  1.7486  1.4132
  113MOL0     H15531   8.953   9.726  12.122 -1.0630  0.1415  0.2420
  113MOL0     H15532   9.016   9.871  12.032 -0.6985  1.7375  0.3408
  113MOL0     H15533   8.985   9.997  12.240 -0.1846 -0.2829  2.3610
  113MOL0     H15534   8.945   9.857  12.326 -1.1887  1.4210 -0.9458
  113MOL0     H15535   9.200   9.856  12.164  1.5549 -0.4681  0.9676
  113MOL0     H15536   9.146   9.746  12.299 -1.7923 -0.2029 -1.2483
  113MOL0     H15537   9.233  10.032  12.294 -3.5036  1.0931 -1.7692
  113MOL0     H15538   9.133   9.962  12.427 -1.3173  0.8339 -1.5839
  113MOL0     H15539   9.419   9.895  12.370  0.1800 -2.0180  0.6376
  113MOL0     H15540   9.307   9.788  12.466 -1.6909  0.0380  0.0073
  113MOL0     H15541   9.382  10.085  12.508 -2.8924  0.5175  1.7663
  113MOL0     H15542   9.275   9.992  12.614 -0.6095  0.2358 -0.4825
  113MOL0     H15543   9.596  10.114  12.672  1.9672 -0.0161  0.2354
  113MOL0     H15544   9.730   9.959  12.965 -2.5066  0.7922 -1.0423
  113MOL0     H15545   9.805  10.058  12.844  3.8592 -2.1314 -0.2899
  113MOL0     H15546   9.839   9.757  12.875 -0.9087 -0.1954 -1.7321
  113MOL0     H15547   9.876   9.848  12.726  1.3395 -0.5845  0.2470
  113MOL0     H15548  10.029   9.989  12.838 -0.2476  1.6413  1.9089
  113MOL0     H15549  10.000   9.907  12.996 -2.6949  1.8499 -0.3389
  113MOL0     H15550  10.069   9.696  12.875  1.6477 -0.8796  0.0440
  113MOL0     H15551  10.118   9.787  12.732  0.3598  0.0116  0.0390
  113MOL0     H15552  10.282   9.581  12.793  0.9277 -0.9301  0.5308
  113MOL0     H15553  10.497   9.447  12.654 -0.5156  2.2862 -0.2505
  113MOL0     H15554  10.395   9.409  12.784  0.8214  0.1467 -1.6664
  113MOL0     H15555  10.567   9.384  12.809  1.8548  2.7160  0.8451
  113MOL0     H15556  11.007   9.513  12.903 -1.8704  0.7266 -0.3192
  113MOL0     H15557  11.208   9.433  12.815 -0.3824 -1.9660  1.0632
  113MOL0     H15558  11.393   9.460  12.659 -2.8029  1.0163 -0.0567
  113MOL0     H15559  11.368   9.307  12.744 -0.4201  2.7469  1.5316
  113MOL0     H15560  11.514   9.307  12.470  1.3120  1.3982 -0.1658
  113MOL0     H15561  11.601   9.351  12.611  1.0540 -1.9012 -0.0009
  113MOL0     H15562  11.582   9.144  12.720 -2.3525 -0.9959  0.5465
  113MOL0     H15563  11.642   9.116  12.548  0.8346 -1.6442  0.1573
  113MOL0     H15564  11.445   9.033  12.474 -1.0802  0.6193  1.2064
  113MOL0     H15565  11.355   9.057  12.621  0.2852  2.5460  0.3225
  113MOL0     H15566  11.443   8.832  12.536 -1.5657  0.0669  0.9085
  113MOL0     H15567  11.599   8.871  12.603  0.0066 -1.6450  2.2628
  113MOL0     H15568  11.461   8.733  12.755  2.8034  0.2139  0.9288
  113MOL0     H15569  11.333   8.853  12.761  0.6157  2.2356 -0.0849
  113MOL0     H15570  11.450   8.862  12.977  2.1453  1.5677  2.2479
  113MOL0     H15571  11.483   9.008  12.897 -1.9783 -0.4962 -0.4980
  113MOL0     H15572  11.682   8.879  12.995 -3.0751 -0.0094  1.0009
  113MOL0     H15573  11.709   8.918  12.820  0.4598 -1.2345 -0.0165
  113MOL0     H15574  11.013   9.268  12.476  2.2171 -1.7019  0.3994
  113MOL0     H15575  10.808   9.355  12.553  1.9175 -0.4273 -1.3951
  113MOL0     H15576  10.642   9.857  12.977 -1.0739  2.4540 -2.1250
  113MOL0     H15577  10.434   9.937  12.982 -1.4948 -0.2727 -0.8832
  113MOL0     H15578   8.617   9.769  11.733 -0.5838  0.6815 -3.4151
  113MOL0     H15579   8.575   9.614  11.558 -0.5367 -3.0304  0.3613
  113MOL0     H15580   8.811   9.220  11.314 -0.5137 -1.8970 -0.1807
  113MOL0     H15581   8.769   9.056  11.167 -0.0776  0.2791  0.3311
  113MOL0     H15582   8.378   9.069  10.935 -0.0600  0.9047 -0.4352
  113MOL0     H15583   8.480   9.026  10.796 -2.3335 -2.9021 -1.1138
  113MOL0     H15584   8.347   8.848  10.861  0.3418 -0.9566  0.1394
  113MOL0     H15585   8.371   8.868  11.034  1.0192  1.8679  0.2143
  113MOL0     H15586   8.599   8.780  11.015  1.2054 -3.3919 -0.4249
  113MOL0     H15587   8.477   8.677  10.965 -1.3787  1.0078  1.5064
  113MOL0     H15588   8.647   8.861  10.768  2.5661 -1.4218 -3.4993
  113MOL0     H15589   8.525   8.760  10.708 -0.1477  2.7012  0.1733
  113MOL0     H15590   8.840   8.486  10.776 -0.1643  0.3628  2.4415
  113MOL0     H15591   8.436   9.262  11.000  0.1707 -2.2716  0.2281
  113MOL0     H15592   8.404   9.522  11.231 -1.0465 -3.1699  1.5136
  113MOL0     H15593   8.490   9.551  11.082 -0.5749  2.2318  1.1648
  113MOL0     H15594   8.344   9.447  11.085 -0.5104  0.4983  0.8433
  114MOL0     O15595   2.175  10.947   2.062  0.0627 -0.0652 -0.2459
  114MOL0     C15596   2.115  11.034   2.126 -0.6482  0.2521  0.7851
  114MOL0     O15597   2.184  11.135   2.189  0.0700 -0.0097 -0.1427
  114MOL0     C15598   2.317  11.142   2.171 -0.3232  0.6070  0.3120
  114MOL0     C15599   2.398  11.065   2.250 -0.9051  0.3370  0.4066
  114MOL0     C15600   2.537  11.077   2.232 -0.2494 -0.2787  0.0907
  114MOL0     C15601   2.599  11.169   2.147  0.2496 -0.6864  0.3742
  114MOL0     O15602   2.735  11.183   2.136 -0.1087  0.2574  0.0007
  114MOL0     C15603   2.827  11.138   2.236 -0.7187  0.3052  0.3116
  114MOL0     C15604   2.970  11.138   2.182  0.1393  0.9873 -0.1151
  114MOL0     C15605   3.073  11.054   2.267  0.4472 -0.1467 -0.0067
  114MOL0     C15606   3.207  11.078   2.208 -0.3720  0.1629  0.1735
  114MOL0     C15607   3.317  11.005   2.268  0.3914  0.8471 -0.5022
  114MOL0     C15608   3.435  10.999   2.182 -1.6889  0.2206  0.3881
  114MOL0     C15609   3.554  10.980   2.280 -0.4986 -0.0191  0.1216
  114MOL0     C15610   3.566  10.842   2.349  1.0805  0.0608 -0.1028
  114MOL0     N15611   3.688  10.819   2.423  1.0431  0.0779  0.0860
  114MOL0     C15612   3.725  10.870   2.544 -0.4085 -0.2411  0.0112
  114MOL0     C15613   3.846  10.810   2.576 -0.5521 -0.1164 -0.8376
  114MOL0     C15614   3.915  10.828   2.704  0.3423  0.8510 -0.6413
  114MOL0     C15615   4.043  10.740   2.722  0.5234  0.1082 -1.2083
  114MOL0     C15616   4.010  10.594   2.751 -0.4077  0.3031 -0.2194
  114MOL0     C15617   4.137  10.511   2.789  0.5793 -0.1415 -0.9217
  114MOL0     O15618   4.220  10.568   2.890 -0.2090  0.0454  0.7112
  114MOL0     C15619   4.351  10.518   2.910  0.2243  0.1319 -0.2211
  114MOL0     C15620   4.405  10.413   2.825  0.0042  0.1954 -0.3929
  114MOL0     C15621   4.530  10.361   2.860  0.3970  0.4277  0.4556
  114MOL0     C15622   4.572  10.239   2.785 -1.0626  0.9972  0.4683
  114MOL0     C15623   4.601  10.415   2.966 -0.3016 -0.6559  0.3032
  114MOL0     C15624   4.743  10.384   3.002 -0.1237 -0.1439  0.4896
  114MOL0     O15625   4.806  10.290   2.924 -0.1146  0.2475 -1.1511
  114MOL0     C15626   4.935  10.267   2.921  0.0501  0.3055 -0.0510
  114MOL0     C15627   5.016  10.274   3.039 -0.0867  0.4107  0.1359
  114MOL0     C15628   5.150  10.250   3.026  0.0299  0.2870  0.7275
  114MOL0     C15629   5.214  10.229   2.911  0.7517 -0.1966  0.1466
  114MOL0     O15630   5.351  10.212   2.911 -0.5084  0.3513  1.1598
  114MOL0     C15631   5.422  10.157   2.795 -0.8550 -0.5509 -0.0903
  114MOL0     C15632   5.577  10.175   2.808 -0.1345  0.2655  0.2763
  114MOL0     C15633   5.646  10.083   2.701  0.1021 -0.6901 -0.2269
  114MOL0     C15634   5.797  10.085   2.725 -0.2507 -1.1655 -0.3729
  114MOL0     C15635   5.856   9.995   2.618  0.1611  0.2202  0.4910
  114MOL0     C15636   6.005  10.008   2.608 -0.3406  0.3875  0.4238
  114MOL0     C15637   6.058   9.875   2.548  0.6650 -0.0961  0.0918
  114MOL0     C15638   6.209   9.858   2.538  0.5954 -0.5898  0.3270
  114MOL0    Cl15639   6.268   9.973   2.408  0.0045 -0.1544 -0.0912
  114MOL0     C15640   5.134  10.211   2.798  0.1194 -0.5396 -0.0585
  114MOL0     C15641   4.999  10.227   2.801  0.4456  0.3819  0.3186
  114MOL0     O15642   4.799  10.449   3.088  0.3203 -0.2997 -0.5406
  114MOL0     C15643   4.540  10.506   3.049 -0.2900 -0.4652  0.0430
  114MOL0     C15644   4.421  10.565   3.016  0.7409  0.3871  0.5471
  114MOL0     N15645   3.875  10.733   2.461 -0.3985  0.4906 -0.3412
  114MOL0     N15646   3.782  10.732   2.374 -0.0096  0.0271  0.0349
  114MOL0     C15647   2.518  11.236   2.063  0.5543 -0.2504 -0.3010
  114MOL0     C15648   2.378  11.220   2.075 -0.0026  0.3696  0.7734
  114MOL0     C15649   1.971  11.015   2.161 -0.0722 -0.5308 -0.7664
  114MOL0     C15650   1.928  11.074   2.281 -0.0907  0.8889 -0.0311
  114MOL0     C15651   1.791  11.063   2.333  0.4406  0.2155  0.3932
  114MOL0     C15652   1.697  11.001   2.251  0.9276 -0.1882  0.1547
  114MOL0     O15653   1.559  10.990   2.277 -0.2412  0.9312  0.2034
  114MOL0     C15654   1.512  11.018   2.411 -0.5134  0.1521  0.5164
  114MOL0     C15655   1.458  11.168   2.418 -0.0634  0.3604 -1.1088
  114MOL0     C15656   1.338  11.196   2.321 -0.5178 -0.2234 -0.7260
  114MOL0     C15657   1.305  11.345   2.307  0.3369 -0.0298  0.4804
  114MOL0     C15658   1.175  11.366   2.237 -0.5845  0.2898  0.4481
  114MOL0     C15659   1.069  11.388   2.185 -0.1030 -0.7580 -0.4741
  114MOL0     C15660   1.744  10.934   2.134  0.3495 -0.3799  0.2789
  114MOL0     C15661   1.880  10.941   2.085 -0.2368  0.8623 -0.0971
  114MOL0     C15662   1.916  10.858   1.952 -0.1724  0.0109  0.6195
  114MOL0     H15663   2.356  11.000   2.326  0.4927  0.0863  1.0116
  114MOL0     H15664   2.594  11.021   2.305 -1.2495 -2.5875 -0.7882
  114MOL0     H15665   2.806  11.031   2.245 -4.2920  0.7475 -1.1243
  114MOL0     H15666   2.814  11.186   2.333 -0.4532  0.0896  0.4569
  114MOL0     H15667   2.964  11.096   2.081 -0.3429  1.2009 -0.1802
  114MOL0     H15668   3.007  11.241   2.181  1.0772  0.6871 -2.1729
  114MOL0     H15669   3.067  11.105   2.364  3.5363  2.9372 -1.1916
  114MOL0     H15670   3.042  10.950   2.269 -1.8887  0.4641  2.8669
  114MOL0     H15671   3.194  11.042   2.105 -0.2093  4.5335 -1.6179
  114MOL0     H15672   3.234  11.185   2.210 -0.0356  0.0730  1.8092
  114MOL0     H15673   3.291  10.899   2.273 -1.8031  1.3850  1.1098
  114MOL0     H15674   3.338  11.047   2.367  1.0779  0.0757 -0.2994
  114MOL0     H15675   3.440  10.918   2.109 -2.3432 -1.0551  1.7173
  114MOL0     H15676   3.445  11.095   2.129  0.0393 -0.8049 -1.2670
  114MOL0     H15677   3.543  11.051   2.362  0.0649 -0.6199  0.7317
  114MOL0     H15678   3.646  11.003   2.226 -2.2829  1.3389 -2.5132
  114MOL0     H15679   3.477  10.830   2.413 -0.4324 -2.0480 -2.4072
  114MOL0     H15680   3.562  10.774   2.264  0.6477  0.1410 -0.1489
  114MOL0     H15681   3.669  10.940   2.604 -2.1554 -0.2816 -1.4567
  114MOL0     H15682   3.855  10.815   2.795  0.2652  0.0081 -0.8103
  114MOL0     H15683   3.948  10.933   2.711  0.5493  0.7296  0.4199
  114MOL0     H15684   4.100  10.740   2.628  0.5736 -0.6542 -1.1858
  114MOL0     H15685   4.113  10.781   2.795 -0.4819  0.5056 -0.4537
  114MOL0     H15686   3.942  10.586   2.837  0.3039 -1.0987  0.2519
  114MOL0     H15687   3.960  10.531   2.677 -1.4097 -3.4903  3.2956
  114MOL0     H15688   4.100  10.412   2.815 -3.8638  1.3329 -0.7466
  114MOL0     H15689   4.199  10.500   2.699  4.5359 -1.3240  1.6685
  114MOL0     H15690   4.345  10.368   2.746 -1.6494  0.5019  0.6441
  114MOL0     H15691   4.495  10.194   2.722  2.4335 -3.9159 -0.9095
  114MOL0     H15692   4.621  10.165   2.849 -1.6343  0.8696  0.7613
  114MOL0     H15693   4.649  10.269   2.712 -1.8481  2.5745  0.2438
  114MOL0     H15694   4.975  10.303   3.135  1.2703  1.5075  0.4227
  114MOL0     H15695   5.214  10.268   3.112 -0.1504  1.2910  0.6598
  114MOL0     H15696   5.397  10.051   2.790 -1.1913 -0.4514 -0.4940
  114MOL0     H15697   5.392  10.209   2.704  0.0839  0.8213  0.3393
  114MOL0     H15698   5.607  10.278   2.789  0.1163  0.3525  1.1467
  114MOL0     H15699   5.604  10.140   2.907 -1.0328  0.3770  0.5711
  114MOL0     H15700   5.631  10.115   2.598  1.2389  3.7311  0.7469
  114MOL0     H15701   5.614   9.980   2.718 -0.6663 -0.4251  0.0035
  114MOL0     H15702   5.817  10.040   2.822 -0.5422  2.5471  1.5901
  114MOL0     H15703   5.832  10.189   2.721  0.1530 -1.2932 -0.2161
  114MOL0     H15704   5.833   9.891   2.640  4.0852 -1.5113 -2.3039
  114MOL0     H15705   5.809  10.024   2.524  1.8882 -0.3570 -0.6111
  114MOL0     H15706   6.055  10.020   2.705  0.4505 -0.1360  0.0953
  114MOL0     H15707   6.030  10.104   2.561 -1.2923  1.6212  2.3112
  114MOL0     H15708   6.008   9.861   2.452 -1.6019  0.2111  1.1448
  114MOL0     H15709   6.030   9.791   2.612 -0.1420  0.1521  0.0757
  114MOL0     H15710   6.239   9.756   2.511  3.5581  0.0765  0.7312
  114MOL0     H15711   6.258   9.881   2.634  0.9780 -0.8109  0.1889
  114MOL0     H15712   5.171  10.176   2.702 -0.3861  0.6073 -0.6807
  114MOL0     H15713   4.951  10.223   2.703 -0.0022 -2.9688  0.5475
  114MOL0     H15714   4.593  10.542   3.137  1.3217  0.1486 -1.1363
  114MOL0     H15715   4.371  10.625   3.091 -0.5649 -0.9640  0.8166
  114MOL0     H15716   2.563  11.305   1.992 -1.3583  2.2223  0.7577
  114MOL0     H15717   2.303  11.269   2.014 -1.2063 -0.8754  1.2018
  114MOL0     H15718   1.997  11.115   2.354  1.4061  0.8528 -1.3797
  114MOL0     H15719   1.764  11.112   2.426 -1.3911  0.9699 -0.5083
  114MOL0     H15720   1.438  10.942   2.441 -0.1268 -0.8909 -1.0837
  114MOL0     H15721   1.592  11.000   2.483  0.2127  1.9848  0.2081
  114MOL0     H15722   1.540  11.234   2.390 -0.2184 -0.0959 -2.7205
  114MOL0     H15723   1.429  11.197   2.520 -1.0956 -2.0059 -0.6609
  114MOL0     H15724   1.362  11.159   2.221 -0.3435 -0.5237 -0.5740
  114MOL0     H15725   1.248  11.148   2.359 -1.8551  0.1171 -3.2440
  114MOL0     H15726   1.384  11.401   2.258  0.1336 -0.1476  0.0068
  114MOL0     H15727   1.283  11.395   2.402  1.1906  0.6082  0.3474
  114MOL0     H15728   0.970  11.409   2.151 -0.0226  1.3146  0.4757
  114MOL0     H15729   1.666  10.900   2.067 -0.6048  0.5813  0.8589
  114MOL0     H15730   1.843  10.786   1.916  0.5406 -0.4262  0.0078
  114MOL0     H15731   1.920  10.935   1.874 -2.2372  0.2093  0.6559
  114MOL0     H15732   2.013  10.807   1.954 -0.1201 -0.1949 -2.6980
  115MOL0     O15733   7.936   9.232   3.425  0.2770  0.1852 -0.5706
  115MOL0     C15734   7.909   9.118   3.382 -0.9003  0.7167 -0.0460
  115MOL0     O15735   7.979   9.054   3.284  0.6852 -0.2915 -0.5092
  115MOL0     C15736   8.087   9.110   3.228  0.4947 -0.1234 -0.0893
  115MOL0     C15737   8.199   9.141   3.307  0.0408  0.0909  0.0879
  115MOL0     C15738   8.321   9.177   3.235  0.3799 -0.5062  0.1711
  115MOL0     C15739   8.325   9.178   3.098  0.3838 -0.3458  0.0958
  115MOL0     O15740   8.438   9.205   3.033  0.9044 -0.2579  0.1308
  115MOL0     C15741   8.480   9.093   2.955  0.5704 -0.5230 -0.1209
  115MOL0     C15742   8.629   9.077   2.963  0.3222  0.2286 -0.0241
  115MOL0     C15743   8.672   8.946   2.881  0.1219 -0.2465 -0.2869
  115MOL0     C15744   8.707   8.976   2.732  0.4169  0.3627  0.1982
  115MOL0     C15745   8.760   8.837   2.681  0.2844 -0.6349 -0.5372
  115MOL0     C15746   8.812   8.845   2.544 -0.1099  0.6137  1.2707
  115MOL0     C15747   8.858   8.700   2.502  0.0247 -0.0750 -0.4964
  115MOL0     C15748   8.975   8.647   2.583 -0.1238  0.2470  0.2089
  115MOL0     N15749   9.104   8.734   2.562  0.0754  0.3439 -0.3134
  115MOL0     C15750   9.156   8.783   2.446 -1.0089 -0.0665 -0.2717
  115MOL0     C15751   9.283   8.827   2.474 -0.3349 -0.2045 -0.1908
  115MOL0     C15752   9.393   8.882   2.382 -0.1238 -0.2523  0.5832
  115MOL0     C15753   9.451   8.774   2.287  0.2029 -0.6481 -0.4097
  115MOL0     C15754   9.566   8.822   2.203 -0.7595  1.0372 -0.5964
  115MOL0     C15755   9.621   8.715   2.108 -0.0282  0.7518  0.6043
  115MOL0     O15756   9.642   8.586   2.172 -0.7593 -0.2653  0.5350
  115MOL0     C15757   9.759   8.557   2.233 -0.8254  0.5781  0.4837
  115MOL0     C15758   9.759   8.430   2.300 -0.1429 -0.7217 -0.3244
  115MOL0     C15759   9.870   8.380   2.377  0.8848  0.5693 -0.7408
  115MOL0     C15760   9.837   8.261   2.470  0.1411  0.6171 -0.3099
  115MOL0     C15761   9.986   8.449   2.389  0.3806 -0.3070 -0.2212
  115MOL0     C15762  10.111   8.427   2.471 -0.0563  0.6722  0.1198
  115MOL0     O15763  10.229   8.487   2.424  0.4132 -0.4637  0.4016
  115MOL0     C15764  10.346   8.426   2.458  0.6964 -0.0637  0.4859
  115MOL0     C15765  10.411   8.447   2.581 -0.9623  0.4420 -0.2041
  115MOL0     C15766  10.527   8.376   2.619 -0.2746  0.0088 -0.4361
  115MOL0     C15767  10.593   8.305   2.523  0.2702  0.0353 -0.3300
  115MOL0     O15768  10.712   8.256   2.563 -0.0005 -0.2262  0.4344
  115MOL0     C15769  10.823   8.233   2.481 -0.5061 -0.0499 -0.3490
  115MOL0     C15770  10.943   8.188   2.573 -0.0548 -0.8759  0.9506
  115MOL0     C15771  11.080   8.229   2.510 -0.4279  0.4470 -0.2407
  115MOL0     C15772  11.217   8.219   2.589  0.1172  0.2762 -0.1363
  115MOL0     C15773  11.335   8.271   2.516 -0.2913  0.1575  0.8010
  115MOL0     C15774  11.448   8.304   2.623 -0.1668  0.7374 -0.3637
  115MOL0     C15775  11.569   8.372   2.568  0.4941 -0.2262 -0.0863
  115MOL0     C15776  11.656   8.295   2.472 -0.1232  0.2265 -0.4090
  115MOL0    Cl15777  11.800   8.397   2.449 -0.1340  0.1629 -0.1501
  115MOL0     C15778  10.543   8.300   2.391  0.5906  0.0469 -0.1072
  115MOL0     C15779  10.415   8.357   2.359 -0.5522 -0.3037  0.3314
  115MOL0     O15780  10.109   8.352   2.571  0.3649 -0.0739  0.2646
  115MOL0     C15781   9.984   8.579   2.328 -1.2602 -0.7568  0.5310
  115MOL0     C15782   9.879   8.628   2.245 -0.1735 -0.6735 -0.7727
  115MOL0     N15783   9.294   8.815   2.607 -0.3398  0.3431 -0.2596
  115MOL0     N15784   9.195   8.752   2.658  1.0286  0.6792 -0.3755
  115MOL0     C15785   8.211   9.148   3.023 -0.2240  0.3204  0.9291
  115MOL0     C15786   8.094   9.112   3.091  0.2875  0.1922 -0.4490
  115MOL0     C15787   7.789   9.050   3.435  0.2712  0.0197  0.1016
  115MOL0     C15788   7.733   9.092   3.558  0.2079  0.2076  0.1542
  115MOL0     C15789   7.620   9.037   3.617 -0.1843  0.2920  0.3088
  115MOL0     C15790   7.556   8.938   3.553 -0.4395 -0.3463  0.2068
  115MOL0     O15791   7.451   8.880   3.613  0.2258 -0.2474  0.0362
  115MOL0     C15792   7.481   8.747   3.663 -0.1257 -1.3940 -0.2595
  115MOL0     C15793   7.344   8.669   3.688 -0.3620  0.6675  0.0658
  115MOL0     C15794   7.381   8.517   3.733  0.2843  0.2191  0.6263
  115MOL0     C15795   7.263   8.423   3.695 -0.1502  0.3874 -0.7470
  115MOL0     C15796   7.306   8.285   3.721  0.8395 -0.2046 -0.1123
  115MOL0     C15797   7.355   8.177   3.761  0.3316 -0.5355  0.3639
  115MOL0     C15798   7.601   8.890   3.425  0.2507 -0.2679 -0.7314
  115MOL0     C15799   7.715   8.954   3.365  0.2081  0.2341 -0.1096
  115MOL0     C15800   7.755   8.894   3.237  0.4682  0.1539 -0.5273
  115MOL0     H15801   8.206   9.129   3.415  0.0165 -4.0431 -0.1975
  115MOL0     H15802   8.416   9.196   3.284  0.0422 -0.5239  0.8448
  115MOL0     H15803   8.455   9.103   2.849  1.1576 -2.0185 -0.4329
  115MOL0     H15804   8.435   9.003   2.998 -1.5874  0.7265  0.4038
  115MOL0     H15805   8.663   9.172   2.922 -1.8406  2.3136  2.6452
  115MOL0     H15806   8.660   9.066   3.068  1.7038  0.5473 -0.3772
  115MOL0     H15807   8.755   8.901   2.936 -0.8772 -0.7554  0.8521
  115MOL0     H15808   8.582   8.885   2.891 -0.8108  0.7653 -2.0961
  115MOL0     H15809   8.627   9.022   2.674 -1.8535  0.6855  3.3110
  115MOL0     H15810   8.789   9.049   2.737  2.5740 -1.8313 -0.7788
  115MOL0     H15811   8.690   8.752   2.679 -0.7541  0.2120 -1.1438
  115MOL0     H15812   8.842   8.814   2.750 -0.3077  0.8888  0.7323
  115MOL0     H15813   8.727   8.881   2.485  0.9179  0.7711 -0.1817
  115MOL0     H15814   8.882   8.927   2.529 -0.0606  0.2280 -0.9880
  115MOL0     H15815   8.884   8.716   2.397  1.3074 -0.3682 -0.2450
  115MOL0     H15816   8.778   8.627   2.513  2.4804 -2.6438  2.2674
  115MOL0     H15817   8.947   8.631   2.687 -0.8869 -0.0679 -0.0398
  115MOL0     H15818   9.007   8.551   2.541  0.3704  1.9142 -3.6878
  115MOL0     H15819   9.113   8.770   2.347 -0.8249  0.5740 -0.4404
  115MOL0     H15820   9.474   8.923   2.442  0.5381 -1.2348  0.3786
  115MOL0     H15821   9.355   8.968   2.326  0.7909 -1.1470 -1.5555
  115MOL0     H15822   9.477   8.685   2.345  0.1015 -0.3442  0.1019
  115MOL0     H15823   9.372   8.746   2.216 -1.2303  2.1013 -0.0153
  115MOL0     H15824   9.543   8.903   2.134  0.7842 -0.0266 -2.4454
  115MOL0     H15825   9.647   8.862   2.265 -1.8738  1.5122  0.6123
  115MOL0     H15826   9.549   8.704   2.026  0.4188 -0.9879  0.4097
  115MOL0     H15827   9.711   8.754   2.060 -0.4815  0.2690 -0.6752
  115MOL0     H15828   9.665   8.376   2.292 -0.3987 -0.1832 -1.0764
  115MOL0     H15829   9.903   8.178   2.445 -0.4187  0.1301 -0.1817
  115MOL0     H15830   9.733   8.236   2.447  0.4695 -1.0336 -0.0885
  115MOL0     H15831   9.856   8.283   2.575  0.2396  0.3891 -0.2806
  115MOL0     H15832  10.358   8.499   2.660 -0.8740 -1.0565  0.8800
  115MOL0     H15833  10.566   8.393   2.719  1.4395  0.8676 -1.2108
  115MOL0     H15834  10.804   8.161   2.400 -1.7940  0.6845 -0.7246
  115MOL0     H15835  10.840   8.331   2.437 -2.9296  0.3857 -0.4676
  115MOL0     H15836  10.930   8.249   2.663 -0.1823  0.3884  0.0942
  115MOL0     H15837  10.944   8.082   2.602 -0.0221 -0.5677  2.1362
  115MOL0     H15838  11.073   8.334   2.482 -1.1589  0.1914 -1.0650
  115MOL0     H15839  11.093   8.167   2.421  3.1202 -0.0965  0.5171
  115MOL0     H15840  11.242   8.119   2.626  3.4236  0.5213 -1.3453
  115MOL0     H15841  11.206   8.283   2.677 -2.0985 -0.6662  0.3451
  115MOL0     H15842  11.362   8.199   2.438 -1.3339  0.5114  0.0776
  115MOL0     H15843  11.313   8.368   2.470  0.3868 -1.1419 -2.5994
  115MOL0     H15844  11.472   8.205   2.664 -0.1189  1.0530  0.3787
  115MOL0     H15845  11.403   8.364   2.703 -1.6006  0.1506 -0.6868
  115MOL0     H15846  11.629   8.403   2.654 -1.5132 -0.5150  1.4874
  115MOL0     H15847  11.540   8.467   2.522  2.7528  0.0635 -1.0556
  115MOL0     H15848  11.602   8.272   2.379 -1.0144  1.0127 -0.1053
  115MOL0     H15849  11.677   8.200   2.522  0.4222 -0.2413 -1.4884
  115MOL0     H15850  10.588   8.259   2.301  1.3226  3.2650 -1.3390
  115MOL0     H15851  10.384   8.372   2.256 -1.8876  1.3832  0.9286
  115MOL0     H15852  10.069   8.644   2.342 -1.7989 -0.2708  1.7298
  115MOL0     H15853   9.893   8.723   2.195 -1.2159  0.1666  0.4719
  115MOL0     H15854   8.209   9.151   2.915  3.4881  0.3390  0.7572
  115MOL0     H15855   7.996   9.100   3.045 -2.1206  1.5109  3.8151
  115MOL0     H15856   7.761   9.183   3.611 -0.4160 -0.1739  1.1710
  115MOL0     H15857   7.580   9.080   3.708 -0.0208 -0.6345  0.8317
  115MOL0     H15858   7.538   8.693   3.587  1.0854 -1.2444  0.5063
  115MOL0     H15859   7.548   8.755   3.750  1.4747 -1.0620 -1.4627
  115MOL0     H15860   7.288   8.668   3.594 -1.8139  0.8571  0.8999
  115MOL0     H15861   7.285   8.718   3.766  0.2118 -0.6618  1.3654
  115MOL0     H15862   7.468   8.472   3.683 -1.4074 -0.6456 -1.7137
  115MOL0     H15863   7.413   8.525   3.837  0.4850  1.2520  0.4948
  115MOL0     H15864   7.242   8.421   3.588 -1.5997  0.7479 -0.4940
  115MOL0     H15865   7.175   8.444   3.758  0.8604  3.7408 -0.2350
  115MOL0     H15866   7.390   8.081   3.793 -0.5424 -0.9820  0.0216
  115MOL0     H15867   7.555   8.806   3.374  0.2234 -0.1130 -0.9601
  115MOL0     H15868   7.772   8.973   3.164 -3.6915  1.3817 -0.4217
  115MOL0     H15869   7.842   8.834   3.266 -0.2521 -0.4933  0.3681
  115MOL0     H15870   7.678   8.825   3.200  0.8043  1.1133 -3.1973
  116MOL0     O15871   3.215  10.778   3.991  0.1133 -0.0333 -0.7189
  116MOL0     C15872   3.208  10.894   3.948  0.1221 -0.0811 -0.1496
  116MOL0     O15873   3.268  11.009   3.993 -0.1114  0.3132  0.1402
  116MOL0     C15874   3.354  10.997   4.093 -0.4301  0.6193 -0.0484
  116MOL0     C15875   3.493  10.994   4.071 -0.1806  0.1524 -1.2394
  116MOL0     C15876   3.584  10.966   4.177 -0.1897  0.4052 -0.0060
  116MOL0     C15877   3.541  10.939   4.309 -0.2686  0.0889  0.4706
  116MOL0     O15878   3.638  10.933   4.413 -0.5944  0.0047 -0.4034
  116MOL0     C15879   3.655  10.796   4.443  0.9582 -0.3470  0.2871
  116MOL0     C15880   3.721  10.770   4.570 -0.0500  0.9390 -0.0921
  116MOL0     C15881   3.868  10.810   4.549  0.7862  0.2916 -0.0211
  116MOL0     C15882   3.964  10.803   4.662  0.6296  0.6946 -0.9638
  116MOL0     C15883   4.091  10.870   4.629  0.4151 -0.6354 -0.0817
  116MOL0     C15884   4.189  10.881   4.745 -0.2290  0.1276 -0.5329
  116MOL0     C15885   4.333  10.905   4.701 -0.1627  0.1530  0.8345
  116MOL0     C15886   4.375  11.030   4.629 -0.1503 -0.1857  0.1352
  116MOL0     N15887   4.509  11.079   4.619 -0.2830 -0.6838 -0.6734
  116MOL0     C15888   4.549  11.206   4.611 -0.1724 -0.5938  0.7922
  116MOL0     C15889   4.685  11.200   4.611  0.6270  0.1698 -1.1258
  116MOL0     C15890   4.785  11.322   4.614  0.3951  0.1071  0.1871
  116MOL0     C15891   4.865  11.323   4.497 -0.6023  0.9599 -0.0149
  116MOL0     C15892   4.978  11.424   4.510  1.1051  0.0351  0.0419
  116MOL0     C15893   5.069  11.423   4.397 -0.2479 -0.2566 -0.4087
  116MOL0     O15894   5.127  11.292   4.388  0.3244 -0.4948  0.0284
  116MOL0     C15895   5.239  11.270   4.310  0.1170  0.5302  0.7291
  116MOL0     C15896   5.317  11.363   4.236  0.1322  0.7492 -0.0770
  116MOL0     C15897   5.435  11.330   4.167 -0.6500 -0.1109 -0.5034
  116MOL0     C15898   5.499  11.453   4.102  0.2077 -0.2746  0.8706
  116MOL0     C15899   5.488  11.193   4.174  1.1542 -0.1411  0.6425
  116MOL0     C15900   5.618  11.139   4.114 -0.1328 -0.2397 -0.1031
  116MOL0     O15901   5.655  11.002   4.140 -1.1020  0.0435  0.4461
  116MOL0     C15902   5.766  10.956   4.071 -0.6006  0.0949  0.6208
  116MOL0     C15903   5.889  10.949   4.131  0.8079  0.7405 -0.5350
  116MOL0     C15904   5.992  10.892   4.070  0.1318  0.3004 -0.3365
  116MOL0     C15905   5.985  10.857   3.938 -0.1633 -0.0547  0.9358
  116MOL0     O15906   6.084  10.799   3.863 -0.4461  0.2434 -0.4573
  116MOL0     C15907   6.218  10.794   3.921 -0.9756  0.4495 -0.5290
  116MOL0     C15908   6.322  10.739   3.811 -0.6851 -0.3613 -0.1081
  116MOL0     C15909   6.476  10.732   3.844 -0.4083 -0.3738 -0.3317
  116MOL0     C15910   6.523  10.588   3.875 -0.3169 -0.1218 -0.4842
  116MOL0     C15911   6.677  10.577   3.891  0.0763  0.4681 -0.6539
  116MOL0     C15912   6.715  10.445   3.965 -0.1276 -1.0491  0.1803
  116MOL0     C15913   6.861  10.458   4.009  0.6967 -0.3379  0.2770
  116MOL0     C15914   6.959  10.429   3.888  0.0926  0.6161 -0.4898
  116MOL0    Cl15915   7.121  10.488   3.916  0.3358 -0.1035 -0.1334
  116MOL0     C15916   5.866  10.864   3.875 -1.1977  0.4457  0.8541
  116MOL0     C15917   5.751  10.915   3.933  0.1664  0.1203  0.0032
  116MOL0     O15918   5.683  11.216   4.042 -0.1912  0.5166 -0.1538
  116MOL0     C15919   5.409  11.101   4.247  0.4729  0.6226 -0.7472
  116MOL0     C15920   5.297  11.143   4.313  1.6239 -0.4854 -0.3783
  116MOL0     N15921   4.721  11.063   4.612 -0.2705  0.2704  0.0324
  116MOL0     N15922   4.615  10.999   4.623  0.4702  0.0338  0.0625
  116MOL0     C15923   3.406  10.934   4.328  0.5581  0.5628 -0.0973
  116MOL0     C15924   3.310  10.953   4.224 -0.3713 -0.4243 -0.2861
  116MOL0     C15925   3.095  10.923   3.849  0.3290  0.3846 -0.2783
  116MOL0     C15926   2.975  10.857   3.874  0.5361  0.1957  0.0117
  116MOL0     C15927   2.871  10.867   3.774  0.0651 -0.3391 -0.9175
  116MOL0     C15928   2.890  10.938   3.657  0.3868  0.5757  0.3749
  116MOL0     O15929   2.781  10.933   3.573  0.1501  0.2058 -0.3380
  116MOL0     C15930   2.747  11.059   3.524 -0.4994 -1.0558  0.0199
  116MOL0     C15931   2.613  11.055   3.455 -0.4810 -0.0815 -0.2462
  116MOL0     C15932   2.560  11.190   3.406  0.0805 -0.3322 -1.2016
  116MOL0     C15933   2.470  11.282   3.502  0.4486  0.0027 -1.1931
  116MOL0     C15934   2.537  11.333   3.619  0.5894  0.3625 -0.0092
  116MOL0     C15935   2.581  11.379   3.717  0.4307 -0.4231  0.0628
  116MOL0     C15936   3.006  11.020   3.643 -0.2078 -0.7654  0.4095
  116MOL0     C15937   3.114  11.010   3.735  0.1483 -0.0542  0.0939
  116MOL0     C15938   3.233  11.084   3.715 -0.8005  0.5480 -0.7670
  116MOL0     H15939   3.521  11.017   3.969  1.8036 -3.0466 -1.5564
  116MOL0     H15940   3.692  10.972   4.174 -0.1800  0.8536  0.8298
  116MOL0     H15941   3.683  10.738   4.354 -0.8379 -0.8731  0.0217
  116MOL0     H15942   3.553  10.756   4.453  0.6470 -1.1908 -4.0038
  116MOL0     H15943   3.672  10.824   4.651  0.0065  0.7574  0.0644
  116MOL0     H15944   3.714  10.663   4.592  2.2092  0.2462 -2.2933
  116MOL0     H15945   3.911  10.762   4.461 -1.1918 -0.4815 -0.6191
  116MOL0     H15946   3.857  10.916   4.526  3.3768  0.9085  1.2293
  116MOL0     H15947   3.924  10.858   4.748  2.2719  1.8027 -0.8611
  116MOL0     H15948   3.981  10.702   4.698 -1.1042  0.4303 -0.7844
  116MOL0     H15949   4.070  10.970   4.589  0.3565 -1.4801 -2.3306
  116MOL0     H15950   4.141  10.806   4.555  0.8927 -2.0486  1.4062
  116MOL0     H15951   4.159  10.959   4.814  1.6997  1.4332 -1.0939
  116MOL0     H15952   4.189  10.785   4.798  2.3407 -2.3601 -4.4498
  116MOL0     H15953   4.357  10.825   4.630 -1.4204  0.1354  0.4113
  116MOL0     H15954   4.394  10.895   4.792  1.6381 -2.1830 -0.5179
  116MOL0     H15955   4.321  11.027   4.533  1.7046 -0.1219 -0.9592
  116MOL0     H15956   4.324  11.107   4.688 -2.1348 -0.1427 -1.4881
  116MOL0     H15957   4.495  11.300   4.607 -1.3394 -1.2743 -1.3634
  116MOL0     H15958   4.849  11.313   4.702  3.2318  0.5905 -1.6838
  116MOL0     H15959   4.720  11.410   4.625  1.2469  0.8499 -0.5681
  116MOL0     H15960   4.922  11.230   4.508  1.0479  1.2391 -4.1525
  116MOL0     H15961   4.804  11.330   4.406 -0.0627  0.8594 -0.3937
  116MOL0     H15962   4.926  11.520   4.512  0.9587  0.0156 -1.6839
  116MOL0     H15963   5.039  11.418   4.601  0.9754  4.1998  0.6087
  116MOL0     H15964   5.033  11.465   4.302  0.9940  2.4878  0.2367
  116MOL0     H15965   5.156  11.483   4.426  0.1119 -1.7219  1.7098
  116MOL0     H15966   5.276  11.462   4.221  0.4348  0.7176 -1.2372
  116MOL0     H15967   5.505  11.546   4.159 -0.0003  1.4037 -1.6672
  116MOL0     H15968   5.453  11.475   4.005  2.0254 -0.5011 -0.0967
  116MOL0     H15969   5.602  11.428   4.075 -0.5050 -0.2443 -2.3928
  116MOL0     H15970   5.876  10.971   4.237 -0.2423  1.8703 -0.8638
  116MOL0     H15971   6.072  10.864   4.139  2.2122  1.6836 -2.0509
  116MOL0     H15972   6.235  10.895   3.958 -0.9959 -0.7549  3.3061
  116MOL0     H15973   6.228  10.727   4.008  0.8855 -0.9384 -1.7364
  116MOL0     H15974   6.292  10.638   3.780  1.3956 -1.8036  2.2660
  116MOL0     H15975   6.308  10.817   3.736 -2.9149  2.2644  2.7885
  116MOL0     H15976   6.504  10.802   3.923 -1.5131 -0.6828  0.3538
  116MOL0     H15977   6.531  10.766   3.755  0.4780  3.0944  1.3918
  116MOL0     H15978   6.497  10.531   3.786  1.0597  2.0091 -2.3382
  116MOL0     H15979   6.466  10.556   3.963  0.1097 -0.0194 -0.1665
  116MOL0     H15980   6.717  10.580   3.789  1.4962  1.1073 -0.1059
  116MOL0     H15981   6.698  10.664   3.954  0.2242  1.2633 -1.7613
  116MOL0     H15982   6.696  10.353   3.907  1.5995 -1.0198 -0.4706
  116MOL0     H15983   6.644  10.428   4.047 -3.7905  0.0477 -2.4578
  116MOL0     H15984   6.886  10.385   4.086  2.2558 -0.5341 -0.3713
  116MOL0     H15985   6.868  10.558   4.052 -1.8498 -0.3298  0.8085
  116MOL0     H15986   6.923  10.486   3.801 -0.1314  2.0320  0.4908
  116MOL0     H15987   6.964  10.325   3.856  3.3326  0.9260 -1.4194
  116MOL0     H15988   5.857  10.837   3.770  1.2647 -0.3132  0.7843
  116MOL0     H15989   5.657  10.916   3.879 -1.8328 -1.0319  3.1381
  116MOL0     H15990   5.431  10.996   4.261 -0.2244  0.7301  1.6566
  116MOL0     H15991   5.238  11.067   4.364 -1.5532 -1.6915 -5.1169
  116MOL0     H15992   3.375  10.918   4.430  0.4720 -0.8903 -0.3228
  116MOL0     H15993   3.204  10.946   4.246 -0.6127  2.5182 -0.0903
  116MOL0     H15994   2.958  10.792   3.960  3.1700 -2.3437 -1.2025
  116MOL0     H15995   2.776  10.820   3.798  0.3133  0.5840  2.2358
  116MOL0     H15996   2.748  11.131   3.606  2.3869 -0.3583 -0.5366
  116MOL0     H15997   2.828  11.097   3.461  0.2579 -0.6126  1.2231
  116MOL0     H15998   2.547  11.020   3.535  1.8380  0.2051  1.9262
  116MOL0     H15999   2.619  10.977   3.379 -1.9848 -0.9549  0.4804
  116MOL0     H16000   2.652  11.247   3.389  1.2430 -1.0060  2.1764
  116MOL0     H16001   2.506  11.162   3.315 -0.2406 -2.2169 -0.4768
  116MOL0     H16002   2.385  11.221   3.533 -0.0356  0.0052 -2.4219
  116MOL0     H16003   2.432  11.372   3.450 -1.0899  0.3389  0.4190
  116MOL0     H16004   2.613  11.426   3.808  1.6721  0.8561 -0.9954
  116MOL0     H16005   3.016  11.086   3.557 -3.0694 -2.6733 -1.5647
  116MOL0     H16006   3.245  11.168   3.784 -0.3484 -0.9679  1.0910
  116MOL0     H16007   3.320  11.019   3.726 -2.2930 -1.3867  0.2216
  116MOL0     H16008   3.239  11.136   3.619  3.7434  1.2529 -0.3179
  117MOL0     O16009   5.466   1.583   7.414  0.7424  0.0971 -0.1679
  117MOL0     C16010   5.392   1.660   7.471  0.2520  0.2530  0.1875
  117MOL0     O16011   5.425   1.735   7.585 -0.1288 -0.6131 -0.3841
  117MOL0     C16012   5.555   1.739   7.633  0.7411  0.6221 -0.4032
  117MOL0     C16013   5.590   1.870   7.686 -0.2066  0.2954 -0.8204
  117MOL0     C16014   5.713   1.877   7.756 -0.2482  0.8031  0.0429
  117MOL0     C16015   5.791   1.763   7.781  0.6819 -0.2154 -0.4451
  117MOL0     O16016   5.902   1.760   7.863  0.3796  0.8905 -0.0877
  117MOL0     C16017   6.015   1.825   7.810  0.7322  0.1806 -0.1710
  117MOL0     C16018   6.136   1.816   7.903 -0.1035 -0.1212 -0.2388
  117MOL0     C16019   6.240   1.925   7.864  0.9023 -0.2902 -0.0308
  117MOL0     C16020   6.375   1.909   7.940 -0.3703  0.3311  0.1744
  117MOL0     C16021   6.470   2.025   7.916  0.2840  0.2110 -0.0807
  117MOL0     C16022   6.602   2.011   7.998 -0.0844  0.3428  0.5807
  117MOL0     C16023   6.698   2.118   7.947 -0.0151  0.3477 -0.4250
  117MOL0     C16024   6.837   2.087   7.999  0.3571  0.2692 -0.8735
  117MOL0     N16025   6.937   2.194   7.982 -0.2898  0.6506  0.0077
  117MOL0     C16026   6.984   2.240   7.864  0.2384  0.0918  0.7913
  117MOL0     C16027   7.072   2.332   7.896  0.2035  0.1230  0.7451
  117MOL0     C16028   7.163   2.402   7.790  0.4143 -0.0276 -0.1136
  117MOL0     C16029   7.305   2.344   7.796 -0.2016 -0.0480  0.0287
  117MOL0     C16030   7.402   2.414   7.702 -0.3408  0.8962 -0.6552
  117MOL0     C16031   7.555   2.390   7.740 -0.1989 -0.3889  0.4464
  117MOL0     O16032   7.603   2.266   7.686 -0.5917 -0.5448  0.3868
  117MOL0     C16033   7.741   2.238   7.678 -0.1761 -0.6049 -0.6457
  117MOL0     C16034   7.799   2.129   7.611  0.0207 -0.1028  0.3502
  117MOL0     C16035   7.929   2.096   7.620 -0.3060 -0.3438  0.7037
  117MOL0     C16036   7.973   1.965   7.560  0.0682 -1.1327  0.6357
  117MOL0     C16037   8.023   2.175   7.687  0.4086  0.4587  0.1224
  117MOL0     C16038   8.170   2.150   7.680  0.0970 -0.6746  0.7782
  117MOL0     O16039   8.233   2.199   7.793 -0.4465 -1.0659  0.2704
  117MOL0     C16040   8.373   2.172   7.808 -0.0303 -0.4600  0.7274
  117MOL0     C16041   8.473   2.272   7.827  0.6925  0.8013 -0.1816
  117MOL0     C16042   8.598   2.242   7.875 -0.1994  0.3808  0.5170
  117MOL0     C16043   8.626   2.111   7.901  0.1718 -0.1739  0.5092
  117MOL0     O16044   8.749   2.062   7.956 -0.4470  0.2983  0.0437
  117MOL0     C16045   8.867   2.141   7.947  0.5565  0.1778 -0.0939
  117MOL0     C16046   8.875   2.235   8.064  0.8656 -0.0754 -0.0312
  117MOL0     C16047   8.870   2.179   8.206  0.0230 -0.0144 -0.1270
  117MOL0     C16048   8.848   2.298   8.302  0.8605  0.6887  0.6051
  117MOL0     C16049   8.852   2.252   8.452 -0.0183 -0.3845 -0.1603
  117MOL0     C16050   8.734   2.167   8.495 -0.3846 -0.0689 -0.0020
  117MOL0     C16051   8.750   2.129   8.641  0.6723  0.2803 -0.7366
  117MOL0     C16052   8.618   2.067   8.702  0.4467 -0.4687  0.0861
  117MOL0    Cl16053   8.563   1.932   8.602  0.0027 -0.0610  0.0061
  117MOL0     C16054   8.537   2.012   7.876  0.6037 -0.8228  0.1450
  117MOL0     C16055   8.408   2.038   7.835 -0.0941 -0.1643  0.1504
  117MOL0     O16056   8.229   2.116   7.580  0.2238  0.5418  0.1159
  117MOL0     C16057   7.975   2.283   7.760  0.1958 -0.4254  0.6425
  117MOL0     C16058   7.836   2.312   7.761 -0.2558 -0.5948  0.3976
  117MOL0     N16059   7.092   2.327   8.032 -0.8804  0.5288 -0.0690
  117MOL0     N16060   7.002   2.248   8.084  0.6873 -0.3535  0.2980
  117MOL0     C16061   5.750   1.635   7.741 -0.1193 -0.5090 -0.2341
  117MOL0     C16062   5.636   1.623   7.661 -0.1494  0.7354  1.3790
  117MOL0     C16063   5.248   1.660   7.436 -1.4049 -0.5450 -0.9233
  117MOL0     C16064   5.153   1.683   7.539  1.1928  0.2354 -0.1031
  117MOL0     C16065   5.017   1.673   7.513 -0.1961  0.1504 -0.9784
  117MOL0     C16066   4.968   1.620   7.388 -0.7419 -0.0231  0.0685
  117MOL0     O16067   4.835   1.608   7.358 -0.6997 -0.4370  0.1484
  117MOL0     C16068   4.735   1.688   7.422 -0.5483 -0.2709 -0.0998
  117MOL0     C16069   4.654   1.608   7.523 -0.7304  0.0849 -0.2166
  117MOL0     C16070   4.556   1.695   7.595 -1.0620  0.2031 -0.1456
  117MOL0     C16071   4.488   1.625   7.711 -0.7999 -0.6415 -0.2580
  117MOL0     C16072   4.484   1.482   7.711 -0.5356 -0.5856  0.5219
  117MOL0     C16073   4.491   1.364   7.711  0.3211 -0.1044 -0.3071
  117MOL0     C16074   5.064   1.593   7.294 -0.4157 -0.6170 -0.4088
  117MOL0     C16075   5.196   1.629   7.310 -0.6974  0.2393 -0.1903
  117MOL0     C16076   5.279   1.626   7.183 -0.1577 -0.4465  0.1482
  117MOL0     H16077   5.526   1.954   7.663 -2.5199 -1.8739 -3.0080
  117MOL0     H16078   5.755   1.970   7.794  1.1318 -0.8921  3.0162
  117MOL0     H16079   5.992   1.931   7.800  4.8029  1.1762 -0.5456
  117MOL0     H16080   6.042   1.785   7.712 -0.1512  2.2052 -1.3027
  117MOL0     H16081   6.119   1.806   8.010 -1.5533 -2.6326 -0.6224
  117MOL0     H16082   6.177   1.717   7.878 -5.3594 -3.9317  3.9115
  117MOL0     H16083   6.248   1.935   7.755 -1.2070  1.8805 -0.0653
  117MOL0     H16084   6.192   2.018   7.895  2.9994  0.3222  1.6336
  117MOL0     H16085   6.355   1.886   8.045 -0.7067  0.4675  0.1428
  117MOL0     H16086   6.422   1.819   7.898 -0.5512 -0.0952  0.8646
  117MOL0     H16087   6.419   2.120   7.930  1.4939  0.5637  2.6451
  117MOL0     H16088   6.502   2.021   7.811  2.3593  0.5190  0.5018
  117MOL0     H16089   6.567   2.023   8.101 -0.7191  0.7522  0.3243
  117MOL0     H16090   6.644   1.910   7.993  1.8951  1.0917  1.3206
  117MOL0     H16091   6.655   2.208   7.992 -1.1275 -0.6957  0.6380
  117MOL0     H16092   6.720   2.121   7.840  1.3666  0.2339 -0.1556
  117MOL0     H16093   6.829   2.067   8.106  1.1271  2.6956 -0.2956
  117MOL0     H16094   6.873   1.998   7.947 -1.9963 -2.0352  1.1161
  117MOL0     H16095   6.951   2.222   7.762  1.8286  1.6111 -0.0430
  117MOL0     H16096   7.150   2.511   7.785 -1.5560  0.0384  3.0739
  117MOL0     H16097   7.120   2.360   7.699 -1.0388 -0.2848  0.6584
  117MOL0     H16098   7.345   2.353   7.897 -2.8424 -0.2674  1.1704
  117MOL0     H16099   7.306   2.235   7.787  0.5901 -0.4589  3.6484
  117MOL0     H16100   7.383   2.359   7.609  1.5987  1.0864 -1.2165
  117MOL0     H16101   7.385   2.522   7.695 -0.6872  0.9785  0.9618
  117MOL0     H16102   7.603   2.473   7.687  1.5124 -0.0682  2.3843
  117MOL0     H16103   7.577   2.393   7.847  0.5558 -1.1374  0.3286
  117MOL0     H16104   7.730   2.059   7.564  0.2561 -0.6369  0.7888
  117MOL0     H16105   8.042   1.918   7.631  2.4947  2.0982  0.6578
  117MOL0     H16106   8.029   1.982   7.467 -1.4576 -1.3928 -0.3606
  117MOL0     H16107   7.889   1.906   7.522 -0.1685 -0.1492 -0.4245
  117MOL0     H16108   8.442   2.372   7.801 -0.9156  0.5692  0.7087
  117MOL0     H16109   8.673   2.321   7.876 -0.2530  0.5270 -1.9425
  117MOL0     H16110   8.954   2.075   7.958  0.2431 -0.1673  0.3241
  117MOL0     H16111   8.871   2.192   7.850  0.6249 -2.6781 -1.7046
  117MOL0     H16112   8.953   2.309   8.043 -1.9013  2.9994 -0.2896
  117MOL0     H16113   8.781   2.291   8.056  2.0539  2.0843  0.1792
  117MOL0     H16114   8.964   2.126   8.223  0.6152  1.0395  0.0116
  117MOL0     H16115   8.786   2.109   8.206  1.9032 -2.5308 -3.0944
  117MOL0     H16116   8.751   2.345   8.285  1.2000  0.9880 -0.6294
  117MOL0     H16117   8.927   2.373   8.288 -0.1758  1.9648  1.3613
  117MOL0     H16118   8.936   2.183   8.467  2.1429  1.8110 -1.4790
  117MOL0     H16119   8.866   2.342   8.512 -0.1306 -0.1037 -0.5518
  117MOL0     H16120   8.721   2.079   8.431 -0.8381 -0.8881  1.1835
  117MOL0     H16121   8.642   2.224   8.476 -0.8900 -1.3335 -1.6410
  117MOL0     H16122   8.780   2.217   8.698  0.0368 -1.3066  2.2580
  117MOL0     H16123   8.830   2.054   8.642  0.1658 -0.2672  0.0966
  117MOL0     H16124   8.542   2.146   8.709  0.8613 -0.1908  2.1244
  117MOL0     H16125   8.631   2.035   8.806  1.3001  1.1978  0.5287
  117MOL0     H16126   8.570   1.911   7.897  2.1604 -0.3846 -0.0328
  117MOL0     H16127   8.339   1.958   7.810  1.1214  0.2987 -6.7886
  117MOL0     H16128   8.038   2.353   7.815 -1.6025  2.4201 -0.6653
  117MOL0     H16129   7.797   2.402   7.806 -1.3536 -1.3903  1.0791
  117MOL0     H16130   5.813   1.550   7.764  0.9227 -1.1813 -4.7448
  117MOL0     H16131   5.597   1.531   7.620 -2.8397  2.3441 -0.0268
  117MOL0     H16132   5.175   1.714   7.640  0.6733 -1.0487  0.4286
  117MOL0     H16133   4.953   1.682   7.601  3.9393 -0.0829  2.3614
  117MOL0     H16134   4.787   1.776   7.462  2.2423 -1.1409 -1.5666
  117MOL0     H16135   4.664   1.726   7.349  0.6578  4.0239  0.6706
  117MOL0     H16136   4.724   1.563   7.594  1.2455  1.2894 -1.3187
  117MOL0     H16137   4.607   1.520   7.477 -0.0013 -2.7336  3.8068
  117MOL0     H16138   4.612   1.779   7.635  1.5551 -1.5715  0.1844
  117MOL0     H16139   4.471   1.718   7.531 -2.3200 -0.7174  1.1219
  117MOL0     H16140   4.385   1.661   7.716 -0.2467  1.0600 -0.3826
  117MOL0     H16141   4.551   1.651   7.797 -0.3698  1.2331 -1.0856
  117MOL0     H16142   4.483   1.258   7.711 -1.1751 -0.0260  0.5392
  117MOL0     H16143   5.043   1.556   7.194  2.2398 -2.5046 -0.3842
  117MOL0     H16144   5.227   1.616   7.088  1.4707  0.2104 -0.8550
  117MOL0     H16145   5.335   1.720   7.189 -1.6219  0.4242  0.6580
  117MOL0     H16146   5.357   1.550   7.196  1.2583  0.8363 -0.5750
  118MOL0     O16147   4.052   3.349   1.251 -0.0723  0.8896 -0.2282
  118MOL0     C16148   4.075   3.469   1.254 -0.8836 -0.0830  0.1757
  118MOL0     O16149   4.141   3.539   1.161 -0.1297 -0.4392  0.6276
  118MOL0     C16150   4.210   3.484   1.058  0.3155 -0.0441 -1.2046
  118MOL0     C16151   4.180   3.529   0.932 -0.2712  0.4913  0.5737
  118MOL0     C16152   4.251   3.472   0.822 -0.9959 -0.1094  0.0105
  118MOL0     C16153   4.356   3.377   0.839  0.3274 -1.0333  0.9919
  118MOL0     O16154   4.434   3.331   0.735  0.3223  0.3584 -0.5060
  118MOL0     C16155   4.384   3.359   0.606 -0.3174 -0.6431  0.2959
  118MOL0     C16156   4.463   3.293   0.495 -0.4331 -0.4523  0.4055
  118MOL0     C16157   4.604   3.363   0.487 -0.0259  0.4313 -0.1782
  118MOL0     C16158   4.664   3.317   0.349  0.1499 -0.7676  0.6193
  118MOL0     C16159   4.810   3.358   0.337 -0.0236 -0.1820 -0.3857
  118MOL0     C16160   4.888   3.296   0.228 -0.0132  0.4041 -0.3840
  118MOL0     C16161   5.038   3.320   0.220 -0.2551 -0.6146 -0.3950
  118MOL0     C16162   5.067   3.476   0.206 -0.7983 -0.1727 -0.4850
  118MOL0     N16163   5.208   3.509   0.174  0.6767 -0.7603 -0.1486
  118MOL0     C16164   5.277   3.478   0.059 -0.3060 -1.1940 -0.5336
  118MOL0     C16165   5.401   3.536   0.078 -0.7441  0.0694  0.4148
  118MOL0     C16166   5.520   3.500  -0.024  0.1705  0.0398 -0.2349
  118MOL0     C16167   5.639   3.448   0.055  0.0877  0.3122 -0.0505
  118MOL0     C16168   5.763   3.408  -0.027 -0.6521 -0.3750  0.8616
  118MOL0     C16169   5.852   3.322   0.057 -0.4362  0.7529 -0.4881
  118MOL0     O16170   5.893   3.394   0.177  0.4093 -0.2638 -0.2509
  118MOL0     C16171   5.995   3.486   0.170 -0.0667  0.3779 -0.3746
  118MOL0     C16172   5.999   3.565   0.282  0.0634  0.0680 -0.3944
  118MOL0     C16173   6.106   3.646   0.316 -0.5283  0.4198  0.5956
  118MOL0     C16174   6.079   3.741   0.431 -0.5600  0.5605  0.4129
  118MOL0     C16175   6.224   3.653   0.228  0.3550 -0.4429  0.0905
  118MOL0     C16176   6.342   3.750   0.240 -0.3395  0.2213 -0.8845
  118MOL0     O16177   6.434   3.752   0.139  0.1999  0.2647 -0.6900
  118MOL0     C16178   6.497   3.875   0.120 -0.3482 -0.5377 -0.8973
  118MOL0     C16179   6.625   3.895   0.155 -0.2426  0.2164 -0.1180
  118MOL0     C16180   6.686   4.014   0.114 -0.1106  0.4081  0.0445
  118MOL0     C16181   6.620   4.115   0.043 -0.6176 -1.2955 -0.6334
  118MOL0     O16182   6.680   4.248   0.031 -0.4820  0.1711 -0.0004
  118MOL0     C16183   6.583   4.350  -0.010  0.3103 -0.3127  0.2920
  118MOL0     C16184   6.645   4.488   0.028 -0.2529  0.4618  0.0695
  118MOL0     C16185   6.763   4.526  -0.062  0.1167 -0.2616  0.5116
  118MOL0     C16186   6.821   4.665  -0.016  0.7610  0.6065 -0.2997
  118MOL0     C16187   6.971   4.686  -0.052  0.1012  0.2132 -0.1154
  118MOL0     C16188   7.020   4.827  -0.001  0.8726 -0.1063  0.6428
  118MOL0     C16189   6.999   4.854   0.157 -1.0805 -0.8899  0.3640
  118MOL0     C16190   7.076   4.974   0.207  0.5876  0.0424  0.6405
  118MOL0    Cl16191   7.020   5.121   0.131  0.2984  0.0164 -0.0198
  118MOL0     C16192   6.485   4.096   0.026  0.2946 -0.3312 -0.1859
  118MOL0     C16193   6.428   3.980   0.067 -0.4410 -0.3263 -0.2650
  118MOL0     O16194   6.354   3.827   0.337 -0.3125 -0.9255  0.2807
  118MOL0     C16195   6.208   3.582   0.108  0.4398 -0.5945 -0.2645
  118MOL0     C16196   6.101   3.498   0.078  0.4348  0.1293 -0.6252
  118MOL0     N16197   5.405   3.593   0.201 -0.5367 -0.6031 -0.3301
  118MOL0     N16198   5.299   3.575   0.263 -0.1897 -0.6168 -0.1802
  118MOL0     C16199   4.375   3.334   0.966  0.1362  0.1472 -0.0038
  118MOL0     C16200   4.307   3.387   1.080 -0.1517  0.5859 -0.2784
  118MOL0     C16201   4.007   3.540   1.366  1.1545  0.2118 -0.5857
  118MOL0     C16202   3.883   3.489   1.409 -0.0662 -0.1324 -0.9514
  118MOL0     C16203   3.815   3.547   1.515  0.5025  0.1758 -0.7668
  118MOL0     C16204   3.858   3.657   1.581  0.5112 -0.6164  0.2156
  118MOL0     O16205   3.783   3.729   1.672 -0.3307 -0.6332 -0.1957
  118MOL0     C16206   3.678   3.674   1.749 -0.0369  0.5359 -0.6853
  118MOL0     C16207   3.683   3.722   1.897 -0.0329  0.3550 -0.0587
  118MOL0     C16208   3.816   3.680   1.968  0.6354 -0.7958  0.1624
  118MOL0     C16209   3.845   3.767   2.098  0.6209  0.6145  0.5785
  118MOL0     C16210   3.962   3.714   2.162  0.0136  0.0633  0.1232
  118MOL0     C16211   4.064   3.670   2.209 -0.2095  0.6231  0.7689
  118MOL0     C16212   3.975   3.713   1.529  0.7701  0.2339  0.0770
  118MOL0     C16213   4.053   3.656   1.431  0.1118 -0.4563  0.7106
  118MOL0     C16214   4.193   3.709   1.409 -0.0226 -0.1162 -0.2108
  118MOL0     H16215   4.106   3.603   0.903 -0.9108 -0.5708 -0.5702
  118MOL0     H16216   4.236   3.522   0.727 -0.4577  0.5451  0.2554
  118MOL0     H16217   4.405   3.465   0.585  0.6061 -0.8359  0.2511
  118MOL0     H16218   4.281   3.323   0.595  0.3670 -2.9494  1.0660
  118MOL0     H16219   4.469   3.187   0.524 -0.3771 -0.0755  1.8734
  118MOL0     H16220   4.410   3.307   0.400  0.8739  1.8590 -0.0442
  118MOL0     H16221   4.600   3.472   0.491  1.5319  0.4936  0.2725
  118MOL0     H16222   4.680   3.328   0.558  0.3774 -1.2104 -1.3419
  118MOL0     H16223   4.657   3.209   0.335  0.6611 -0.7999  0.6002
  118MOL0     H16224   4.601   3.369   0.275 -1.3507  0.1523  2.4668
  118MOL0     H16225   4.859   3.349   0.435  1.9739 -0.8337 -1.3886
  118MOL0     H16226   4.803   3.464   0.315 -2.9575 -0.1998  0.1045
  118MOL0     H16227   4.869   3.188   0.236 -2.3570  0.6658 -1.5517
  118MOL0     H16228   4.845   3.329   0.133  1.4218 -0.6489 -1.4355
  118MOL0     H16229   5.069   3.269   0.129 -0.5168 -0.6698 -0.4556
  118MOL0     H16230   5.090   3.281   0.308 -0.8681 -4.2210 -1.4755
  118MOL0     H16231   4.994   3.519   0.136 -2.0829 -0.4243  0.6491
  118MOL0     H16232   5.049   3.523   0.303  4.5358 -2.6347  2.1252
  118MOL0     H16233   5.247   3.414  -0.024 -1.2712 -0.4861 -0.7577
  118MOL0     H16234   5.545   3.590  -0.081  0.1100  1.0931  1.3422
  118MOL0     H16235   5.498   3.417  -0.091 -0.7002 -0.0943  0.2023
  118MOL0     H16236   5.673   3.521   0.129  2.4227 -1.6610  0.9287
  118MOL0     H16237   5.606   3.366   0.119  0.2653 -0.1578 -0.5494
  118MOL0     H16238   5.752   3.351  -0.120 -0.1552  3.1053 -1.4977
  118MOL0     H16239   5.818   3.497  -0.058  0.6613 -0.7710  1.9660
  118MOL0     H16240   5.798   3.228   0.079  0.2958 -0.2266 -2.6363
  118MOL0     H16241   5.944   3.297   0.004  0.3065  0.3453  0.9435
  118MOL0     H16242   5.920   3.552   0.355  0.8086 -0.3557  0.3559
  118MOL0     H16243   6.110   3.840   0.398 -2.9947  0.5896 -2.1626
  118MOL0     H16244   6.142   3.707   0.513 -0.0024 -0.4388 -0.3917
  118MOL0     H16245   5.976   3.746   0.468 -0.8981  2.3366 -0.6716
  118MOL0     H16246   6.695   3.829   0.205 -0.4447  0.3150  0.3051
  118MOL0     H16247   6.789   4.031   0.145  0.0590 -2.5685  1.4865
  118MOL0     H16248   6.561   4.352  -0.117  1.1946  1.4303  0.0878
  118MOL0     H16249   6.486   4.346   0.040  0.4687  0.7262  0.7135
  118MOL0     H16250   6.568   4.566   0.031 -0.1126  0.6265 -0.4419
  118MOL0     H16251   6.671   4.482   0.134 -3.8827 -1.5051  1.0187
  118MOL0     H16252   6.738   4.525  -0.168 -1.1973 -1.7399  0.7816
  118MOL0     H16253   6.838   4.449  -0.045 -1.4563 -2.1652 -0.7090
  118MOL0     H16254   6.803   4.677   0.091  0.9521 -0.5889 -0.1186
  118MOL0     H16255   6.747   4.731  -0.062 -2.8983 -0.9681  2.7407
  118MOL0     H16256   7.030   4.607  -0.004  0.2974  0.1552 -0.4512
  118MOL0     H16257   6.991   4.676  -0.159 -0.8501  1.1620 -0.4017
  118MOL0     H16258   6.962   4.903  -0.055  0.9873 -0.5390 -0.0940
  118MOL0     H16259   7.126   4.833  -0.026  0.5411  0.1731 -0.8016
  118MOL0     H16260   7.053   4.772   0.204 -1.6358 -0.5168  1.6897
  118MOL0     H16261   6.896   4.854   0.194 -1.4680  0.5846 -0.6537
  118MOL0     H16262   7.184   4.972   0.188  0.6658  1.7948  0.7207
  118MOL0     H16263   7.077   4.978   0.316  3.1226  2.4380  0.6415
  118MOL0     H16264   6.421   4.170  -0.021  2.2964 -0.6034 -3.6657
  118MOL0     H16265   6.323   3.961   0.049 -0.6166 -0.9471  1.2787
  118MOL0     H16266   6.286   3.589   0.033 -0.5219  0.3327 -1.2056
  118MOL0     H16267   6.096   3.440  -0.014  2.6817 -1.9238  0.4535
  118MOL0     H16268   4.452   3.260   0.981  0.1037  0.5950  3.2565
  118MOL0     H16269   4.318   3.348   1.180 -1.8423  0.8337  0.0285
  118MOL0     H16270   3.838   3.398   1.369 -1.3407  0.2025 -0.3180
  118MOL0     H16271   3.721   3.507   1.551  0.3717  1.4093  0.3203
  118MOL0     H16272   3.587   3.712   1.700 -0.5495  0.0415 -0.1347
  118MOL0     H16273   3.673   3.565   1.741 -1.4661  0.6735 -2.7371
  118MOL0     H16274   3.596   3.692   1.957  0.7529  0.0913  0.9750
  118MOL0     H16275   3.674   3.831   1.887  0.2372  0.6525  2.3413
  118MOL0     H16276   3.797   3.576   1.996  0.3151 -0.6905  0.3361
  118MOL0     H16277   3.902   3.705   1.905  1.0686  1.4739  1.5342
  118MOL0     H16278   3.760   3.775   2.166  1.3960  2.8883  1.3926
  118MOL0     H16279   3.862   3.873   2.072 -1.4031  1.1870  1.4478
  118MOL0     H16280   4.163   3.646   2.242  0.1117 -1.0866 -1.2072
  118MOL0     H16281   4.005   3.810   1.566 -0.2145  0.3912  0.4946
  118MOL0     H16282   4.266   3.630   1.430 -3.1407 -2.8022  1.4917
  118MOL0     H16283   4.194   3.753   1.309 -2.7721 -1.2003 -0.7797
  118MOL0     H16284   4.216   3.789   1.480  1.9748  1.1155 -2.1376
  119MOL0     O16285  10.645   7.103   4.250  0.4555 -0.1315  1.0810
  119MOL0     C16286  10.571   7.145   4.161  1.2145  0.3174 -0.1365
  119MOL0     O16287  10.593   7.132   4.025  0.5123 -0.0154 -0.1416
  119MOL0     C16288  10.700   7.055   3.984 -0.6130 -0.0407 -0.1780
  119MOL0     C16289  10.682   6.951   3.890  0.7936 -0.4872 -0.4021
  119MOL0     C16290  10.785   6.867   3.837  0.3411 -0.3128  0.4424
  119MOL0     C16291  10.915   6.900   3.871 -0.5396  0.0028  0.0097
  119MOL0     O16292  11.028   6.836   3.824  0.2310  0.1751 -0.0869
  119MOL0     C16293  11.084   6.747   3.919 -0.2840 -0.6406 -0.0767
  119MOL0     C16294  11.099   6.612   3.849  0.9905  0.3548  0.0693
  119MOL0     C16295  11.222   6.619   3.755  0.4422  0.1311 -0.3152
  119MOL0     C16296  11.250   6.488   3.681  0.4388 -0.3453 -1.3684
  119MOL0     C16297  11.365   6.504   3.583  0.1626  0.1708  0.3115
  119MOL0     C16298  11.402   6.363   3.528  0.0790 -0.0077 -0.8626
  119MOL0     C16299  11.547   6.366   3.473  0.3758  0.4582  0.5101
  119MOL0     C16300  11.591   6.233   3.397  0.0942  0.4869 -0.0245
  119MOL0     N16301  11.729   6.264   3.357 -0.7516  0.0606 -0.2182
  119MOL0     C16302  11.834   6.243   3.443  1.0754 -0.0051  0.0089
  119MOL0     C16303  11.946   6.280   3.370 -0.2266 -0.2202 -0.0962
  119MOL0     C16304  12.090   6.276   3.412  0.5775  0.3771 -0.0979
  119MOL0     C16305  12.177   6.232   3.293 -0.3310 -0.1012 -0.2075
  119MOL0     C16306  12.331   6.237   3.313 -0.6453 -0.2845 -0.6382
  119MOL0     C16307  12.407   6.248   3.185  0.6034  0.4221 -0.4118
  119MOL0     O16308  12.538   6.295   3.220 -0.5188 -0.4338  0.9150
  119MOL0     C16309  12.631   6.322   3.123 -0.1831  0.1022  0.2324
  119MOL0     C16310  12.656   6.233   3.019  0.2207 -0.6587 -0.1095
  119MOL0     C16311  12.745   6.262   2.910 -0.3540 -0.9227  0.0955
  119MOL0     C16312  12.768   6.151   2.820 -0.3921 -0.0344 -0.0127
  119MOL0     C16313  12.811   6.393   2.903  0.5360  0.4914 -0.0486
  119MOL0     C16314  12.922   6.418   2.812  0.2485 -0.6781  0.0358
  119MOL0     O16315  12.950   6.551   2.805 -0.1955  0.7147  0.0151
  119MOL0     C16316  13.055   6.592   2.732  0.1198 -0.4266 -0.4974
  119MOL0     C16317  13.052   6.610   2.596 -0.2659  0.1550 -0.1773
  119MOL0     C16318  13.170   6.646   2.524  0.1957 -0.9799  0.3793
  119MOL0     C16319  13.281   6.693   2.594 -0.0870 -0.2631 -1.0178
  119MOL0     O16320  13.393   6.740   2.531  0.6473  0.2204  0.1893
  119MOL0     C16321  13.402   6.783   2.393  0.3749  0.4353  0.1740
  119MOL0     C16322  13.543   6.836   2.369 -0.1016  0.6071 -0.4487
  119MOL0     C16323  13.593   6.953   2.458  0.4509  0.5995 -0.1875
  119MOL0     C16324  13.737   6.987   2.444  0.1771  1.1112  0.3316
  119MOL0     C16325  13.777   7.109   2.523  0.0584  0.5548  0.5892
  119MOL0     C16326  13.921   7.151   2.512  0.3263 -0.0203 -1.1933
  119MOL0     C16327  14.005   7.118   2.630 -0.6451 -0.1756  0.6645
  119MOL0     C16328  14.154   7.162   2.600  0.1256  0.0249  0.4218
  119MOL0    Cl16329  14.234   7.085   2.463 -0.2949  0.0222 -0.0166
  119MOL0     C16330  13.270   6.695   2.735 -0.2793  0.2454 -0.2022
  119MOL0     C16331  13.157   6.656   2.810  0.3056  0.0338  1.0829
  119MOL0     O16332  12.993   6.328   2.759  0.3617 -0.3615  0.0942
  119MOL0     C16333  12.783   6.481   3.007  0.1463 -0.1384 -0.2201
  119MOL0     C16334  12.699   6.449   3.109 -0.7055 -0.1476 -0.4837
  119MOL0     N16335  11.902   6.325   3.252  0.3516 -0.6651 -0.4421
  119MOL0     N16336  11.775   6.311   3.240 -0.0996 -0.6238 -0.1310
  119MOL0     C16337  10.942   6.996   3.976  0.0383 -0.4675  1.1135
  119MOL0     C16338  10.832   7.077   4.026 -0.6614 -0.3720  0.0737
  119MOL0     C16339  10.469   7.238   4.212 -0.5332 -0.5490 -0.3999
  119MOL0     C16340  10.456   7.362   4.141  0.1633 -0.4350  0.5350
  119MOL0     C16341  10.360   7.458   4.173  0.1825  0.5038  0.1193
  119MOL0     C16342  10.280   7.435   4.286 -0.1982 -0.0835 -0.2707
  119MOL0     O16343  10.195   7.538   4.318 -0.3252 -0.1612 -0.4109
  119MOL0     C16344  10.086   7.509   4.406 -0.7936 -0.6910  0.7744
  119MOL0     C16345  10.006   7.637   4.410 -0.3227 -0.6245 -0.3626
  119MOL0     C16346   9.867   7.620   4.489  0.3693  0.4854  0.9536
  119MOL0     C16347   9.790   7.747   4.502  0.0363 -0.3300 -0.1457
  119MOL0     C16348   9.849   7.849   4.585 -0.2914  0.0958  0.2067
  119MOL0     C16349   9.882   7.932   4.666 -0.2849 -0.4154 -0.5399
  119MOL0     C16350  10.299   7.317   4.364 -0.7091 -0.3391  0.1181
  119MOL0     C16351  10.392   7.215   4.327  0.1300 -0.6974 -0.1829
  119MOL0     C16352  10.410   7.095   4.427 -0.1476 -0.5855 -0.0128
  119MOL0     H16353  10.576   6.935   3.873  0.6203 -1.0636  1.0494
  119MOL0     H16354  10.782   6.777   3.776  1.3519  0.1929 -0.3836
  119MOL0     H16355  11.017   6.729   4.003 -0.0686  2.1503  0.7856
  119MOL0     H16356  11.183   6.781   3.952  0.4251 -1.6280 -1.0685
  119MOL0     H16357  11.117   6.538   3.927 -0.8062 -0.0913  0.1104
  119MOL0     H16358  11.007   6.590   3.794  0.3135 -1.1027  1.6782
  119MOL0     H16359  11.211   6.694   3.676  2.8590 -1.9097 -2.8005
  119MOL0     H16360  11.313   6.641   3.813 -0.3269  1.8818  0.3040
  119MOL0     H16361  11.262   6.412   3.758 -3.7069  0.0574 -0.1371
  119MOL0     H16362  11.159   6.463   3.626 -0.1865  0.4139 -0.7015
  119MOL0     H16363  11.449   6.541   3.644 -2.1732 -0.7068  4.4438
  119MOL0     H16364  11.339   6.576   3.506 -2.3348 -1.7625 -0.7853
  119MOL0     H16365  11.406   6.296   3.615  1.7230  1.5114  0.3134
  119MOL0     H16366  11.337   6.310   3.457 -1.3609 -1.5921  1.4815
  119MOL0     H16367  11.624   6.385   3.548  1.0654 -1.4491  0.3357
  119MOL0     H16368  11.540   6.448   3.400  1.8348  0.1410 -0.0206
  119MOL0     H16369  11.589   6.144   3.461  0.9799  1.1769  0.9817
  119MOL0     H16370  11.534   6.206   3.308  2.2074 -3.2271 -0.4442
  119MOL0     H16371  11.833   6.194   3.540 -2.5414  1.2987  0.7829
  119MOL0     H16372  12.115   6.214   3.498  0.6575 -0.0194 -0.4067
  119MOL0     H16373  12.115   6.381   3.433  0.8527  0.4287 -0.6690
  119MOL0     H16374  12.138   6.131   3.281 -1.2105 -0.0904  2.0249
  119MOL0     H16375  12.148   6.276   3.197 -2.5174 -0.8332  0.0593
  119MOL0     H16376  12.367   6.318   3.376  1.5489 -1.1656 -0.6667
  119MOL0     H16377  12.362   6.149   3.370 -1.3407  0.1875  0.4978
  119MOL0     H16378  12.424   6.148   3.143  0.1321 -1.4709  3.3997
  119MOL0     H16379  12.350   6.311   3.116 -1.4798  0.0610  0.8850
  119MOL0     H16380  12.606   6.137   3.023 -0.3042 -0.4384 -1.1216
  119MOL0     H16381  12.874   6.127   2.808  0.3192  3.5847 -2.9837
  119MOL0     H16382  12.745   6.173   2.715  0.2725  0.4775 -0.0628
  119MOL0     H16383  12.717   6.060   2.854  0.2123 -0.6119 -0.6074
  119MOL0     H16384  12.956   6.586   2.551 -0.6179  0.9974  0.1100
  119MOL0     H16385  13.167   6.625   2.418 -0.3824 -1.7222  0.5297
  119MOL0     H16386  13.381   6.697   2.330  0.0766  1.3269 -0.9766
  119MOL0     H16387  13.336   6.869   2.376 -0.2179 -0.1812 -0.7579
  119MOL0     H16388  13.608   6.749   2.376 -0.9870 -0.3251 -3.0078
  119MOL0     H16389  13.542   6.867   2.264  0.4043  1.8563 -0.1140
  119MOL0     H16390  13.574   6.932   2.564 -2.3367  0.2548 -0.6838
  119MOL0     H16391  13.537   7.044   2.435 -1.7910 -1.2041 -2.3672
  119MOL0     H16392  13.749   7.015   2.339 -3.5409  1.4036 -0.1457
  119MOL0     H16393  13.799   6.902   2.474 -0.5598  0.0347 -1.0611
  119MOL0     H16394  13.711   7.193   2.500  0.9641  0.7751 -1.4055
  119MOL0     H16395  13.770   7.080   2.629  4.2296 -0.6970  0.6963
  119MOL0     H16396  13.921   7.260   2.505 -0.2437  0.2774  1.9061
  119MOL0     H16397  13.964   7.117   2.418  2.7637  2.1428 -0.9511
  119MOL0     H16398  14.007   7.013   2.659  2.3501 -0.2860  0.3121
  119MOL0     H16399  13.972   7.176   2.717 -0.3470  2.0250 -0.6112
  119MOL0     H16400  14.209   7.148   2.693 -2.3166  0.7317  2.0721
  119MOL0     H16401  14.155   7.268   2.575  0.4049  0.6206  2.7415
  119MOL0     H16402  13.362   6.722   2.785 -0.4340  4.1147 -1.6100
  119MOL0     H16403  13.161   6.673   2.917  0.0733 -0.0700  1.1094
  119MOL0     H16404  12.828   6.578   3.022 -2.3610  1.2394 -0.9641
  119MOL0     H16405  12.685   6.523   3.187 -0.7822  0.5183 -1.1188
  119MOL0     H16406  11.047   7.001   4.003  1.1571 -0.7713 -2.5267
  119MOL0     H16407  10.853   7.163   4.088  3.2652 -0.0275 -1.4839
  119MOL0     H16408  10.508   7.379   4.047  1.6165 -0.9962  1.2268
  119MOL0     H16409  10.341   7.542   4.108 -2.0337 -0.0348 -0.0404
  119MOL0     H16410  10.029   7.424   4.365  2.4026 -2.0256 -1.2954
  119MOL0     H16411  10.119   7.482   4.507  1.8917  1.6391  0.6291
  119MOL0     H16412   9.981   7.678   4.312  0.6063  2.5992  0.6432
  119MOL0     H16413  10.056   7.718   4.463  2.1512 -3.1404  1.4807
  119MOL0     H16414   9.806   7.544   4.439 -1.0791  1.5062  1.1060
  119MOL0     H16415   9.886   7.581   4.590 -0.3500 -0.6621  0.6722
  119MOL0     H16416   9.687   7.720   4.524 -1.4739  2.6232 -2.7589
  119MOL0     H16417   9.785   7.791   4.402  1.0042  1.5449  0.5753
  119MOL0     H16418   9.924   7.997   4.740  0.4897  1.0774 -2.1976
  119MOL0     H16419  10.236   7.304   4.452 -0.6428  1.5894  0.4973
  119MOL0     H16420  10.496   7.123   4.488 -0.0347  5.1360 -2.2239
  119MOL0     H16421  10.327   7.081   4.496  0.2430 -1.8136  0.2396
  119MOL0     H16422  10.430   6.995   4.385 -1.0959 -0.4008 -0.9670
  120MOL0     O16423  10.874   1.260   7.266  0.2652  0.2945 -0.6200
  120MOL0     C16424  10.858   1.261   7.390  0.2461 -0.2877  0.3954
  120MOL0     O16425  10.946   1.210   7.482  0.2718 -0.2032 -0.0493
  120MOL0     C16426  11.076   1.200   7.439 -0.3005  0.4180 -0.8356
  120MOL0     C16427  11.177   1.290   7.476 -0.2246  0.0782  0.2151
  120MOL0     C16428  11.306   1.266   7.436 -0.5714  0.8308  0.1647
  120MOL0     C16429  11.340   1.147   7.371  0.6258 -0.8175 -0.1025
  120MOL0     O16430  11.473   1.122   7.338 -0.3162 -0.0548  0.2441
  120MOL0     C16431  11.560   1.052   7.424 -0.4318  0.7765 -0.1151
  120MOL0     C16432  11.706   1.123   7.436  0.5569  0.1412 -0.7225
  120MOL0     C16433  11.814   1.033   7.498 -0.6468 -0.4242 -0.2505
  120MOL0     C16434  11.878   0.946   7.385  0.1603  0.4803 -0.6700
  120MOL0     C16435  11.983   0.848   7.443  0.1872 -0.1391  0.6153
  120MOL0     C16436  12.054   0.773   7.336  0.4365 -0.3800  0.6518
  120MOL0     C16437  12.150   0.671   7.390  0.2481  0.6430 -0.5451
  120MOL0     C16438  12.212   0.571   7.295 -0.6346  0.5299 -0.1654
  120MOL0     N16439  12.301   0.476   7.367 -0.6975  0.3151  0.4525
  120MOL0     C16440  12.412   0.509   7.427 -0.1788 -0.3421  0.6014
  120MOL0     C16441  12.477   0.397   7.458  0.4963 -0.2876 -0.5724
  120MOL0     C16442  12.608   0.381   7.525 -0.3171 -0.3766  0.2193
  120MOL0     C16443  12.707   0.336   7.421 -0.7365  0.0570  0.3760
  120MOL0     C16444  12.862   0.359   7.449  0.8068  0.3529 -0.4524
  120MOL0     C16445  12.963   0.303   7.354  0.3490  1.4067  0.1969
  120MOL0     O16446  13.086   0.284   7.425  0.1186 -0.1073 -0.0246
  120MOL0     C16447  13.199   0.283   7.350  0.4664  0.5916 -0.0875
  120MOL0     C16448  13.317   0.299   7.428  0.4824 -0.3201  0.0391
  120MOL0     C16449  13.438   0.287   7.377 -0.1536 -0.0196  0.6707
  120MOL0     C16450  13.555   0.287   7.471 -0.3096 -0.7137 -0.0132
  120MOL0     C16451  13.454   0.267   7.237 -0.0809 -0.5888 -0.4311
  120MOL0     C16452  13.584   0.256   7.161 -0.0426  0.2803  0.4307
  120MOL0     O16453  13.575   0.225   7.026  0.1506 -0.3437 -0.5106
  120MOL0     C16454  13.683   0.201   6.951 -0.5676 -0.1141  0.1986
  120MOL0     C16455  13.656   0.176   6.816  0.1896 -0.4873  0.5678
  120MOL0     C16456  13.752   0.145   6.726 -0.5813 -0.1052  0.2191
  120MOL0     C16457  13.889   0.151   6.762  0.2040 -0.4566  0.0099
  120MOL0     O16458  13.982   0.135   6.661 -0.3733 -0.3664 -0.3130
  120MOL0     C16459  14.075   0.238   6.653  0.5209 -0.1566 -0.3407
  120MOL0     C16460  14.014   0.373   6.618 -1.3256 -0.0469 -0.2983
  120MOL0     C16461  14.101   0.474   6.558  0.3257 -0.7016  0.3353
  120MOL0     C16462  14.241   0.499   6.618  0.3284  0.2377 -0.7504
  120MOL0     C16463  14.300   0.607   6.535  0.2152  0.3501 -0.2848
  120MOL0     C16464  14.435   0.637   6.592  0.9007 -0.6901 -0.5199
  120MOL0     C16465  14.481   0.782   6.558 -0.2878  0.4810  0.6315
  120MOL0     C16466  14.514   0.859   6.683  0.4911  0.1310  0.1542
  120MOL0    Cl16467  14.373   0.880   6.788  0.1604 -1.2801  0.3751
  120MOL0     C16468  13.920   0.174   6.894 -0.7740  0.2720 -0.2209
  120MOL0     C16469  13.822   0.190   6.985 -0.5250 -0.5706  0.1606
  120MOL0     O16470  13.683   0.286   7.216 -0.8578 -0.8473 -1.1793
  120MOL0     C16471  13.338   0.249   7.160 -0.7122  0.1551 -0.0378
  120MOL0     C16472  13.215   0.257   7.215  0.7441 -0.5452 -0.0756
  120MOL0     N16473  12.410   0.290   7.404  0.7953  0.3741 -0.2592
  120MOL0     N16474  12.300   0.335   7.358 -0.3921  0.4637  0.0850
  120MOL0     C16475  11.231   1.057   7.346  0.0374  0.6236  1.4332
  120MOL0     C16476  11.098   1.080   7.374 -0.3594  0.1776  0.6865
  120MOL0     C16477  10.725   1.317   7.429  0.5352  0.2773 -0.0966
  120MOL0     C16478  10.625   1.319   7.332 -0.8079 -0.7935  0.6724
  120MOL0     C16479  10.505   1.388   7.358  0.2120 -0.1423 -0.5258
  120MOL0     C16480  10.482   1.439   7.482  0.1819 -0.9990  0.7032
  120MOL0     O16481  10.361   1.503   7.513  0.0643  0.6922  0.2310
  120MOL0     C16482  10.242   1.434   7.501 -0.5704  0.3933  0.1027
  120MOL0     C16483  10.233   1.338   7.623 -0.6981  1.2093 -0.2802
  120MOL0     C16484  10.213   1.412   7.758  0.3583  0.8413 -1.1632
  120MOL0     C16485  10.100   1.358   7.840  0.0050 -0.0041  0.0723
  120MOL0     C16486  10.129   1.216   7.881  0.4785 -0.6572  0.0935
  120MOL0     C16487  10.161   1.102   7.915 -0.2439  0.5536  0.9486
  120MOL0     C16488  10.582   1.440   7.570  0.1701 -0.4256 -0.5711
  120MOL0     C16489  10.704   1.380   7.548  0.9603 -0.8297  0.2795
  120MOL0     C16490  10.805   1.379   7.661  0.2317  0.0139 -0.6238
  120MOL0     H16491  11.157   1.365   7.552  0.4456 -0.0378  0.5197
  120MOL0     H16492  11.381   1.337   7.468 -2.6771  2.8175  0.9891
  120MOL0     H16493  11.572   0.951   7.386  2.2551  0.0351  2.3110
  120MOL0     H16494  11.529   1.044   7.529  1.6540  0.1603  0.5101
  120MOL0     H16495  11.737   1.158   7.337  1.3989 -0.0998 -0.5566
  120MOL0     H16496  11.699   1.206   7.508 -1.1341 -2.2282  2.0450
  120MOL0     H16497  11.885   1.110   7.529 -1.6336  1.1358 -1.7089
  120MOL0     H16498  11.771   0.975   7.580  0.6555 -0.9238  0.1113
  120MOL0     H16499  11.800   0.899   7.326 -0.0893  0.3905 -0.2718
  120MOL0     H16500  11.942   1.007   7.320 -0.5899  1.0372 -0.8983
  120MOL0     H16501  11.935   0.775   7.508 -0.5914 -1.2352 -1.1111
  120MOL0     H16502  12.061   0.907   7.493  1.3214  2.1037 -3.3210
  120MOL0     H16503  11.974   0.722   7.282  1.6612 -1.7051  0.0269
  120MOL0     H16504  12.102   0.853   7.278  0.7422 -0.6264  0.5601
  120MOL0     H16505  12.102   0.624   7.477  1.9494  1.7268  1.0567
  120MOL0     H16506  12.236   0.716   7.440  1.0800 -0.4374 -0.9820
  120MOL0     H16507  12.134   0.512   7.247  1.0260 -1.4585 -0.5951
  120MOL0     H16508  12.270   0.624   7.220 -3.3755  2.2196 -1.2219
  120MOL0     H16509  12.443   0.612   7.445  1.5188 -0.9575  1.3436
  120MOL0     H16510  12.601   0.305   7.603  1.2544 -1.3727 -0.5658
  120MOL0     H16511  12.638   0.477   7.570 -3.0110  0.3210  0.6603
  120MOL0     H16512  12.701   0.235   7.379  2.6096 -0.0240 -0.1888
  120MOL0     H16513  12.684   0.394   7.331  1.5599 -0.2453 -0.4615
  120MOL0     H16514  12.877   0.467   7.449  1.1631  0.3246  0.9415
  120MOL0     H16515  12.879   0.322   7.551 -0.3972 -0.4133 -0.5005
  120MOL0     H16516  12.925   0.204   7.327 -1.5018  1.3922  2.5117
  120MOL0     H16517  12.973   0.368   7.267  1.1094 -1.3959 -1.9530
  120MOL0     H16518  13.298   0.313   7.534 -1.3393  1.7080 -0.4692
  120MOL0     H16519  13.622   0.369   7.443 -0.4880  0.5041  2.7224
  120MOL0     H16520  13.610   0.193   7.471 -1.0281 -1.1366 -0.5107
  120MOL0     H16521  13.538   0.321   7.574  4.4204  3.7949 -0.2856
  120MOL0     H16522  13.555   0.200   6.785  0.6597  0.3975 -0.3241
  120MOL0     H16523  13.730   0.141   6.619 -3.1466  1.0902  0.6229
  120MOL0     H16524  14.133   0.255   6.744  0.2863  0.4832 -0.3066
  120MOL0     H16525  14.140   0.223   6.567  1.6608  3.0429 -0.1991
  120MOL0     H16526  13.937   0.352   6.544 -2.4655  1.4669  0.3877
  120MOL0     H16527  13.953   0.418   6.698 -1.7983  0.2826 -0.8356
  120MOL0     H16528  14.047   0.568   6.574  3.7507  1.7117 -1.0805
  120MOL0     H16529  14.106   0.450   6.451 -1.4290 -2.2055  0.5416
  120MOL0     H16530  14.316   0.419   6.626  1.2058  1.0705 -0.5249
  120MOL0     H16531  14.237   0.526   6.724  0.7033  0.3388 -0.7619
  120MOL0     H16532  14.308   0.592   6.427  0.7004 -1.8431  0.0125
  120MOL0     H16533  14.234   0.691   6.559  0.4765 -0.1231  2.3047
  120MOL0     H16534  14.507   0.559   6.565  0.4566 -0.2480 -3.2455
  120MOL0     H16535  14.434   0.630   6.701 -3.2720  0.5299 -0.3231
  120MOL0     H16536  14.412   0.838   6.494  1.8901  1.2864 -1.1423
  120MOL0     H16537  14.570   0.774   6.495 -1.6711 -2.4324 -1.1978
  120MOL0     H16538  14.560   0.954   6.653  1.0540 -0.4786 -0.9645
  120MOL0     H16539  14.589   0.804   6.740 -1.3040 -1.7664  0.8209
  120MOL0     H16540  14.023   0.187   6.926 -0.2973  0.2849 -1.7081
  120MOL0     H16541  13.842   0.185   7.091 -1.4535 -1.6929  0.3063
  120MOL0     H16542  13.345   0.234   7.052 -1.9852  1.5263 -0.3352
  120MOL0     H16543  13.133   0.218   7.156  0.2887 -1.2847  1.0115
  120MOL0     H16544  11.245   0.956   7.307  0.8575  1.8202 -1.7265
  120MOL0     H16545  11.015   1.013   7.355  0.0571  0.4109 -2.5615
  120MOL0     H16546  10.640   1.273   7.236 -0.0278  2.2968 -0.8197
  120MOL0     H16547  10.423   1.396   7.288  1.1909  0.1837 -1.6642
  120MOL0     H16548  10.152   1.496   7.495  0.1162  1.3591 -0.5457
  120MOL0     H16549  10.246   1.378   7.407  0.9008 -0.9146  0.9007
  120MOL0     H16550  10.317   1.270   7.637 -1.1404  1.1667  2.9819
  120MOL0     H16551  10.147   1.273   7.603 -1.0711  1.5110  0.2856
  120MOL0     H16552  10.312   1.409   7.804 -0.8877 -1.5343  1.7237
  120MOL0     H16553  10.189   1.517   7.740  0.0281  1.2937  1.5312
  120MOL0     H16554  10.011   1.361   7.776  1.0897  0.1055 -1.4715
  120MOL0     H16555  10.080   1.422   7.926  0.2039  1.3103 -0.8417
  120MOL0     H16556  10.186   1.009   7.961 -1.4642 -2.8566 -4.4309
  120MOL0     H16557  10.553   1.495   7.659 -1.7391  0.7322 -1.8431
  120MOL0     H16558  10.817   1.273   7.684  0.2914  0.2267  0.3401
  120MOL0     H16559  10.897   1.430   7.630 -0.8445  2.9812  0.6683
  120MOL0     H16560  10.764   1.438   7.743 -1.2012 -0.3649 -1.0397
  121MOL0     O16561  10.160   1.743   2.806  0.1095  0.2303  0.1339
  121MOL0     C16562  10.221   1.658   2.745  0.1150  0.6888 -0.5929
  121MOL0     O16563  10.354   1.680   2.697  0.1933  0.4051 -0.5362
  121MOL0     C16564  10.390   1.805   2.662 -0.6061 -1.0891 -0.1682
  121MOL0     C16565  10.527   1.840   2.680 -0.8314  0.5796 -0.0291
  121MOL0     C16566  10.587   1.948   2.607 -0.5011 -0.2171  0.6655
  121MOL0     C16567  10.513   2.031   2.522  0.5151  0.2546  0.5666
  121MOL0     O16568  10.560   2.125   2.439  0.1250  0.6808  0.0684
  121MOL0     C16569  10.683   2.196   2.469  0.1419 -0.2444  0.4445
  121MOL0     C16570  10.797   2.126   2.398 -0.3682  0.1535  0.4064
  121MOL0     C16571  10.935   2.179   2.444  0.3824  0.0781  0.2596
  121MOL0     C16572  10.968   2.324   2.399  0.2691 -0.4293 -0.1832
  121MOL0     C16573  11.119   2.339   2.411 -0.2708 -0.7265  0.2024
  121MOL0     C16574  11.163   2.455   2.315  0.5144 -0.6019 -0.4047
  121MOL0     C16575  11.316   2.471   2.329 -1.3563 -0.1034 -0.8185
  121MOL0     C16576  11.363   2.591   2.249 -0.9862 -0.3535 -0.0844
  121MOL0     N16577  11.511   2.600   2.246  0.3443  0.0902  0.1841
  121MOL0     C16578  11.597   2.641   2.344 -0.6733 -0.5563 -0.5558
  121MOL0     C16579  11.718   2.610   2.292 -0.7101  0.3326 -0.4185
  121MOL0     C16580  11.854   2.647   2.348  0.1042  0.4308  0.7839
  121MOL0     C16581  11.954   2.524   2.337  0.0878 -0.7444 -0.8676
  121MOL0     C16582  12.033   2.548   2.205 -0.4622 -0.3891 -0.4775
  121MOL0     C16583  12.151   2.445   2.179  0.3331 -0.0681 -0.7573
  121MOL0     O16584  12.260   2.476   2.269 -0.0862  0.8793 -0.7062
  121MOL0     C16585  12.370   2.387   2.274 -0.0324 -0.3606 -0.0718
  121MOL0     C16586  12.470   2.421   2.362  0.2764 -0.3360 -0.0751
  121MOL0     C16587  12.592   2.354   2.384 -0.3201 -0.3950 -0.3251
  121MOL0     C16588  12.694   2.416   2.474  0.3085 -0.0725 -0.7212
  121MOL0     C16589  12.613   2.236   2.303 -0.7173 -0.9725 -0.7480
  121MOL0     C16590  12.735   2.163   2.305 -0.9308  0.0679 -0.4365
  121MOL0     O16591  12.714   2.028   2.273  0.3957 -0.2136 -0.0035
  121MOL0     C16592  12.826   1.959   2.241 -0.2838  0.3514  0.1003
  121MOL0     C16593  12.857   1.844   2.318  0.3167  0.1244  0.1753
  121MOL0     C16594  12.959   1.752   2.276  0.3598  0.4441  0.3549
  121MOL0     C16595  13.043   1.789   2.170  0.4880 -0.1877  0.9582
  121MOL0     O16596  13.145   1.690   2.137  0.8417  0.1065 -0.2238
  121MOL0     C16597  13.271   1.736   2.081  0.0805  0.0610  1.2833
  121MOL0     C16598  13.333   1.836   2.179 -0.0032 -0.6915 -0.1675
  121MOL0     C16599  13.490   1.858   2.165  0.4861 -0.1793  0.5827
  121MOL0     C16600  13.526   1.987   2.233  0.4951  0.2384  0.1385
  121MOL0     C16601  13.680   2.007   2.244 -0.1140 -0.1192 -0.1688
  121MOL0     C16602  13.742   2.018   2.105  0.9290  0.5686  0.0587
  121MOL0     C16603  13.886   2.041   2.109 -0.1280  0.8335 -0.0660
  121MOL0     C16604  13.942   2.033   1.964 -0.4412  0.9607 -0.0435
  121MOL0    Cl16605  14.120   2.038   1.970 -0.4484 -0.0934  0.1481
  121MOL0     C16606  13.015   1.909   2.091 -0.5807 -0.0814  0.1138
  121MOL0     C16607  12.901   1.992   2.124  0.1219  0.2241  0.4364
  121MOL0     O16608  12.848   2.219   2.319  0.4423  0.5249  0.5359
  121MOL0     C16609  12.519   2.200   2.202  1.0859  0.6571  0.0947
  121MOL0     C16610  12.394   2.272   2.195 -0.0241  0.0088 -0.1588
  121MOL0     N16611  11.703   2.555   2.164 -0.2428 -0.4644 -0.2162
  121MOL0     N16612  11.576   2.564   2.138  0.1095  0.1084  0.5595
  121MOL0     C16613  10.380   2.004   2.512  0.1046  0.7738  0.2722
  121MOL0     C16614  10.322   1.890   2.569 -0.0881  1.3628  0.2081
  121MOL0     C16615  10.170   1.517   2.745 -0.3034 -0.1614 -0.8615
  121MOL0     C16616  10.040   1.496   2.802  0.1830 -0.4616  1.0154
  121MOL0     C16617   9.985   1.372   2.799 -0.4441  0.2063 -0.4474
  121MOL0     C16618  10.049   1.262   2.751  0.4444 -0.8163 -0.4864
  121MOL0     O16619  10.001   1.134   2.758 -0.3601  0.0329  0.0058
  121MOL0     C16620   9.897   1.098   2.851  0.3291 -0.4409 -0.7219
  121MOL0     C16621   9.923   0.959   2.907  0.5701  0.3253 -0.0479
  121MOL0     C16622   9.897   0.849   2.799 -0.0323  0.8423  0.7028
  121MOL0     C16623   9.898   0.708   2.873  0.7805  0.3114  0.2282
  121MOL0     C16624  10.029   0.665   2.917 -0.6989  0.1989 -0.4126
  121MOL0     C16625  10.132   0.642   2.978  0.1949 -0.2732 -0.0211
  121MOL0     C16626  10.177   1.269   2.702  0.1474 -0.2276  0.6935
  121MOL0     C16627  10.242   1.396   2.706  0.5108  0.1551  0.4115
  121MOL0     C16628  10.377   1.397   2.634 -0.5938  0.3325  0.2196
  121MOL0     H16629  10.589   1.782   2.748 -1.0257 -1.9655 -1.9083
  121MOL0     H16630  10.693   1.968   2.619 -0.4604 -0.9600  1.5841
  121MOL0     H16631  10.695   2.193   2.578  1.7885 -2.2022  0.2842
  121MOL0     H16632  10.673   2.298   2.433  0.8655 -0.5408 -0.6427
  121MOL0     H16633  10.799   2.018   2.414 -0.4250  0.3088  1.5043
  121MOL0     H16634  10.780   2.143   2.291  0.8854  0.9110  0.2991
  121MOL0     H16635  10.947   2.173   2.553  2.1667  3.8605  0.4345
  121MOL0     H16636  11.010   2.111   2.403  0.1936 -0.8950  1.4796
  121MOL0     H16637  10.938   2.346   2.296  2.2102  2.6738 -0.2054
  121MOL0     H16638  10.903   2.395   2.451  2.7036  1.4996  0.4350
  121MOL0     H16639  11.176   2.248   2.392 -0.9239 -1.2713  0.8064
  121MOL0     H16640  11.155   2.371   2.509  1.7152 -2.7686  0.1991
  121MOL0     H16641  11.134   2.434   2.212  0.0052  0.6140 -0.5280
  121MOL0     H16642  11.116   2.551   2.341  0.0944 -0.5842 -1.2125
  121MOL0     H16643  11.368   2.381   2.295  2.9837  1.2717  1.5323
  121MOL0     H16644  11.348   2.493   2.431 -0.1203  1.6129 -1.5212
  121MOL0     H16645  11.328   2.581   2.146  0.2377 -0.0633 -0.5539
  121MOL0     H16646  11.322   2.686   2.285 -0.4034 -0.0136 -0.2974
  121MOL0     H16647  11.558   2.693   2.431 -2.3917 -2.8586  0.1410
  121MOL0     H16648  11.836   2.672   2.452 -0.9027 -0.0850  0.7496
  121MOL0     H16649  11.888   2.727   2.282 -2.2875 -2.0413 -3.9976
  121MOL0     H16650  12.027   2.520   2.418 -0.9588 -0.8375  0.0878
  121MOL0     H16651  11.896   2.432   2.334 -0.6793 -0.3236  0.3784
  121MOL0     H16652  11.962   2.523   2.126  0.1626 -5.5597  0.2517
  121MOL0     H16653  12.067   2.652   2.197 -0.0556 -0.4635  0.2442
  121MOL0     H16654  12.107   2.347   2.195 -2.4941  1.1325 -0.5831
  121MOL0     H16655  12.189   2.461   2.077 -0.5508  2.7065 -0.7341
  121MOL0     H16656  12.447   2.506   2.425 -0.7176  0.7522 -1.8127
  121MOL0     H16657  12.654   2.499   2.532  0.3914  0.3219 -1.2108
  121MOL0     H16658  12.777   2.462   2.419  0.7154  1.0878  0.8136
  121MOL0     H16659  12.743   2.343   2.539  0.5378  0.6634 -0.0494
  121MOL0     H16660  12.799   1.830   2.408 -1.5274 -2.4008 -1.2849
  121MOL0     H16661  12.980   1.662   2.332 -0.3097  0.5753  0.8312
  121MOL0     H16662  13.339   1.654   2.057  0.4639  1.1362 -1.7634
  121MOL0     H16663  13.262   1.795   1.989 -1.3356 -1.8334  0.1245
  121MOL0     H16664  13.294   1.938   2.166  0.0268 -0.5192  1.0121
  121MOL0     H16665  13.310   1.797   2.279  0.2847  1.3103  0.7243
  121MOL0     H16666  13.513   1.883   2.061 -1.3427 -0.1341  0.1576
  121MOL0     H16667  13.537   1.768   2.205 -0.4894 -1.0854 -0.2398
  121MOL0     H16668  13.492   1.987   2.337 -1.8623  1.7624 -0.5723
  121MOL0     H16669  13.476   2.072   2.184 -1.7842 -0.0027  1.8915
  121MOL0     H16670  13.708   2.100   2.294  0.9586  1.3999 -3.2691
  121MOL0     H16671  13.717   1.916   2.293 -0.9672 -1.0460 -1.1676
  121MOL0     H16672  13.686   2.092   2.049 -0.5472 -1.3146 -1.0876
  121MOL0     H16673  13.724   1.916   2.068 -2.4087  0.0569  2.6177
  121MOL0     H16674  13.931   1.966   2.174 -2.0308  1.0458  1.5681
  121MOL0     H16675  13.912   2.136   2.156  0.5344 -0.0480  1.4263
  121MOL0     H16676  13.913   2.120   1.905  2.8169  1.1897 -1.4945
  121MOL0     H16677  13.900   1.946   1.912 -0.7394 -0.6723  2.6686
  121MOL0     H16678  13.080   1.927   2.005 -0.8879 -1.1599 -0.3641
  121MOL0     H16679  12.868   2.070   2.057  0.9163  1.2825  1.2471
  121MOL0     H16680  12.528   2.115   2.135  0.4526  0.5382  0.1543
  121MOL0     H16681  12.332   2.255   2.108  0.4487  0.3168 -0.5598
  121MOL0     H16682  10.317   2.062   2.445 -0.3863  1.3059  1.1605
  121MOL0     H16683  10.222   1.860   2.540 -0.5238  3.0584 -0.1105
  121MOL0     H16684   9.986   1.584   2.835 -0.1534  0.0460 -0.7982
  121MOL0     H16685   9.884   1.352   2.836  0.1732 -0.3309  1.0303
  121MOL0     H16686   9.899   1.163   2.940 -1.0921 -0.4648 -0.6629
  121MOL0     H16687   9.800   1.118   2.807  0.5032 -2.8710 -2.4192
  121MOL0     H16688   9.852   0.948   2.989  2.0039  1.5763  1.4479
  121MOL0     H16689  10.020   0.948   2.957  0.1808 -2.5836  0.2453
  121MOL0     H16690   9.801   0.853   2.747 -0.1223  0.2044  0.8058
  121MOL0     H16691   9.982   0.850   2.730  0.4853  3.6276  1.2796
  121MOL0     H16692   9.847   0.636   2.809  2.4887 -1.3327  0.6179
  121MOL0     H16693   9.840   0.701   2.966  1.9787 -1.4146  0.9078
  121MOL0     H16694  10.219   0.622   3.037  1.0361  0.6788 -0.8859
  121MOL0     H16695  10.220   1.172   2.680  1.0601  0.5099 -0.9244
  121MOL0     H16696  10.443   1.470   2.682 -0.5047 -1.1489  2.5203
  121MOL0     H16697  10.429   1.301   2.643  0.1190  0.7539  0.7722
  121MOL0     H16698  10.349   1.430   2.534 -2.3531 -3.4161 -0.6894
  122MOL0     O16699   0.033   1.236   0.741 -0.2470 -0.2619 -0.3327
  122MOL0     C16700  -0.031   1.136   0.700 -0.0327 -0.1630 -0.4280
  122MOL0     O16701   0.021   1.039   0.614  0.2312  0.4805  0.2486
  122MOL0     C16702   0.149   1.051   0.586  0.8216  0.2700 -0.2128
  122MOL0     C16703   0.203   1.139   0.494 -0.4816 -0.6129  0.0913
  122MOL0     C16704   0.346   1.152   0.488  0.1417 -0.0443 -0.7090
  122MOL0     C16705   0.432   1.073   0.559  0.4912  0.0904 -0.4446
  122MOL0     O16706   0.569   1.094   0.540  0.7815  0.2540 -0.5241
  122MOL0     C16707   0.651   1.028   0.631 -0.5881 -0.0672 -0.0929
  122MOL0     C16708   0.684   0.879   0.596  0.5487 -0.4249 -0.7185
  122MOL0     C16709   0.767   0.876   0.460  0.0872 -0.1458  0.0278
  122MOL0     C16710   0.832   0.747   0.444 -0.4502  0.1832  0.5766
  122MOL0     C16711   0.871   0.718   0.301  0.8170 -0.1030  0.1380
  122MOL0     C16712   1.018   0.777   0.266 -0.5497 -0.5655  0.3433
  122MOL0     C16713   1.049   0.797   0.117  0.0497  0.0868  0.2893
  122MOL0     C16714   1.177   0.861   0.078 -0.0972 -0.0562 -0.8035
  122MOL0     N16715   1.295   0.770   0.119  0.1174 -1.2387  0.3435
  122MOL0     C16716   1.312   0.648   0.061  0.0892  0.4293  0.5731
  122MOL0     C16717   1.415   0.600   0.130 -0.2327  0.4263 -0.2086
  122MOL0     C16718   1.468   0.460   0.111  0.5015  0.0049 -0.8037
  122MOL0     C16719   1.607   0.438   0.160 -0.0501  0.1640 -0.7028
  122MOL0     C16720   1.699   0.533   0.079 -0.7301 -0.5311 -0.4596
  122MOL0     C16721   1.852   0.525   0.092 -0.1109  0.7890 -0.7497
  122MOL0     O16722   1.906   0.548   0.220  0.3937  0.0619 -0.3559
  122MOL0     C16723   2.046   0.560   0.237  0.4397  0.4604 -0.3108
  122MOL0     C16724   2.144   0.501   0.156  0.5448  0.3688  0.1487
  122MOL0     C16725   2.286   0.537   0.163 -0.3147  1.0582 -0.1664
  122MOL0     C16726   2.384   0.473   0.072  0.2475  0.2687 -0.4891
  122MOL0     C16727   2.328   0.623   0.263 -0.3741 -0.7987 -0.0184
  122MOL0     C16728   2.472   0.664   0.283  0.6327 -0.0496 -0.3262
  122MOL0     O16729   2.480   0.767   0.374 -0.1225 -0.3798 -0.1146
  122MOL0     C16730   2.597   0.841   0.396  0.3126  1.0221  0.3723
  122MOL0     C16731   2.670   0.838   0.517  0.5436 -0.1147  0.4255
  122MOL0     C16732   2.788   0.917   0.531 -1.1657  0.1940  0.3878
  122MOL0     C16733   2.839   0.995   0.424  0.4805  0.4805  0.3634
  122MOL0     O16734   2.959   1.062   0.450 -0.6316 -0.6315 -0.0335
  122MOL0     C16735   2.970   1.192   0.393  0.3193  0.0420  0.7246
  122MOL0     C16736   3.081   1.271   0.463  0.5516 -0.5636 -0.1512
  122MOL0     C16737   3.210   1.241   0.394  0.5485 -0.2682  0.2872
  122MOL0     C16738   3.327   1.324   0.467 -0.2393 -0.5469 -0.2769
  122MOL0     C16739   3.436   1.318   0.362 -0.4686  0.0034 -1.7150
  122MOL0     C16740   3.558   1.393   0.419  0.6582  0.5265 -0.0827
  122MOL0     C16741   3.683   1.368   0.335  0.3946  0.4257  0.0293
  122MOL0     C16742   3.806   1.441   0.371 -0.1011  0.4022 -0.8963
  122MOL0    Cl16743   3.951   1.379   0.281 -0.4613  0.1133 -0.5390
  122MOL0     C16744   2.766   0.996   0.304 -0.7841 -0.4213 -0.4225
  122MOL0     C16745   2.642   0.921   0.295 -0.4922  0.2228  0.4872
  122MOL0     O16746   2.567   0.605   0.239 -0.0739 -0.3893 -0.3188
  122MOL0     C16747   2.229   0.664   0.354 -0.3167 -0.0310  0.1813
  122MOL0     C16748   2.087   0.631   0.348 -0.4206 -0.2217 -0.2256
  122MOL0     N16749   1.456   0.683   0.228  0.5057 -0.2226 -0.2880
  122MOL0     N16750   1.388   0.794   0.220  0.1079  0.6691 -0.3696
  122MOL0     C16751   0.371   0.976   0.644 -0.6751 -0.8031  0.2102
  122MOL0     C16752   0.231   0.971   0.663 -0.6209  0.2413 -0.2255
  122MOL0     C16753  -0.174   1.125   0.748 -0.3044  0.0194 -0.8808
  122MOL0     C16754  -0.250   1.033   0.676 -0.1002 -0.6866 -0.7934
  122MOL0     C16755  -0.389   1.007   0.717 -0.3470 -0.0474  0.3592
  122MOL0     C16756  -0.448   1.077   0.819 -0.2720  0.2982  0.6238
  122MOL0     O16757  -0.577   1.039   0.860 -0.0202 -0.0511  0.1203
  122MOL0     C16758  -0.674   1.142   0.858 -0.4261 -0.7870 -0.6132
  122MOL0     C16759  -0.816   1.088   0.832 -0.0442 -0.2765 -0.2304
  122MOL0     C16760  -0.825   1.000   0.697  0.9366 -0.0332  0.2508
  122MOL0     C16761  -0.975   0.957   0.698 -0.5124 -0.4908  0.4445
  122MOL0     C16762  -0.971   0.850   0.592 -0.1759  0.0557 -0.0460
  122MOL0     C16763  -0.960   0.761   0.504  0.0372  0.1708 -0.6326
  122MOL0     C16764  -0.368   1.162   0.893 -0.3571 -0.1360 -0.1619
  122MOL0     C16765  -0.230   1.186   0.871 -0.4508 -0.7132  0.8044
  122MOL0     C16766  -0.161   1.297   0.955 -0.8148 -0.5256 -0.0636
  122MOL0     H16767   0.140   1.209   0.441  3.4086  2.5196 -0.8049
  122MOL0     H16768   0.385   1.238   0.435 -0.0842 -0.9282 -2.3782
  122MOL0     H16769   0.619   1.028   0.736 -0.3679 -2.0154  0.0051
  122MOL0     H16770   0.741   1.089   0.619 -1.4453  1.2992  0.2422
  122MOL0     H16771   0.749   0.833   0.671 -2.1626 -0.7309  1.6044
  122MOL0     H16772   0.596   0.818   0.573  2.0318 -1.8182 -3.2238
  122MOL0     H16773   0.697   0.904   0.380 -1.3594  0.2797  1.3910
  122MOL0     H16774   0.840   0.958   0.461 -0.2971  0.2616  3.0579
  122MOL0     H16775   0.909   0.724   0.518 -1.0522 -1.4082  0.7515
  122MOL0     H16776   0.756   0.672   0.470 -1.0575  0.2662 -0.8802
  122MOL0     H16777   0.790   0.747   0.233  0.4662 -0.1450  0.5356
  122MOL0     H16778   0.875   0.610   0.287  0.8362 -0.1761  0.7106
  122MOL0     H16779   1.025   0.872   0.319  1.5994 -0.6943  0.3719
  122MOL0     H16780   1.084   0.699   0.303  1.3070  0.1619 -1.2735
  122MOL0     H16781   0.971   0.861   0.076  0.9032  0.9101 -0.0796
  122MOL0     H16782   1.040   0.700   0.066  1.6138  0.1343 -0.1489
  122MOL0     H16783   1.178   0.880  -0.030  0.3399 -0.2178 -0.8331
  122MOL0     H16784   1.195   0.956   0.130 -4.0188 -0.3041  1.3044
  122MOL0     H16785   1.249   0.599  -0.013 -0.3422 -0.4278  1.5005
  122MOL0     H16786   1.462   0.437   0.004 -0.3122 -0.8004 -0.5976
  122MOL0     H16787   1.403   0.392   0.167 -0.2647  0.6171 -0.9231
  122MOL0     H16788   1.598   0.457   0.268 -5.8175 -2.0353 -0.4507
  122MOL0     H16789   1.634   0.334   0.141 -0.5174  0.1880 -1.5147
  122MOL0     H16790   1.682   0.532  -0.029  3.6002 -0.8102 -1.3390
  122MOL0     H16791   1.681   0.631   0.123  1.8725 -1.6640  3.7654
  122MOL0     H16792   1.876   0.422   0.064 -1.2964  0.2476  0.1293
  122MOL0     H16793   1.892   0.593   0.016 -0.3843  0.5239 -1.1317
  122MOL0     H16794   2.127   0.422   0.084  1.0654  0.7260 -0.3819
  122MOL0     H16795   2.432   0.540   0.001 -1.2523 -0.8410 -2.6653
  122MOL0     H16796   2.325   0.400   0.015 -2.3692  0.4921  1.7047
  122MOL0     H16797   2.466   0.425   0.126  0.0623  0.8008  0.2727
  122MOL0     H16798   2.627   0.787   0.603 -0.4155 -1.1603 -0.6440
  122MOL0     H16799   2.852   0.909   0.618  1.8936  0.7915 -1.6740
  122MOL0     H16800   2.986   1.191   0.285 -0.3599  0.9994  0.5968
  122MOL0     H16801   2.875   1.237   0.425 -0.7388 -0.0131 -2.0584
  122MOL0     H16802   3.049   1.376   0.455  0.0306 -0.5256  1.9425
  122MOL0     H16803   3.095   1.242   0.567 -2.4248  0.7934  0.7574
  122MOL0     H16804   3.201   1.267   0.288  0.0483  3.4182  1.0860
  122MOL0     H16805   3.242   1.136   0.388  1.9200  0.1735 -0.6414
  122MOL0     H16806   3.361   1.265   0.552  0.1987 -1.0633 -0.7981
  122MOL0     H16807   3.290   1.421   0.503  0.7919 -0.0993 -0.3837
  122MOL0     H16808   3.460   1.212   0.350 -1.0786 -0.3811  0.1650
  122MOL0     H16809   3.402   1.363   0.268 -1.6824  3.4372  0.1871
  122MOL0     H16810   3.581   1.372   0.524  2.4592  0.9123 -0.3657
  122MOL0     H16811   3.529   1.498   0.413 -0.5330  0.3821  2.2277
  122MOL0     H16812   3.649   1.390   0.233 -0.7199  1.7467  0.6473
  122MOL0     H16813   3.695   1.259   0.336  1.0399  0.3362 -3.6596
  122MOL0     H16814   3.825   1.425   0.478  1.3872  1.2398 -1.0127
  122MOL0     H16815   3.783   1.547   0.360 -2.2898 -0.1812 -2.9090
  122MOL0     H16816   2.802   1.057   0.221  2.8565 -0.4759  0.9528
  122MOL0     H16817   2.581   0.929   0.206  1.5423 -1.7661 -1.2030
  122MOL0     H16818   2.257   0.728   0.438 -0.5255  4.3204 -2.7053
  122MOL0     H16819   2.024   0.664   0.429  0.2226 -0.3712  0.3472
  122MOL0     H16820   0.440   0.906   0.690  0.2227  1.2589  2.2172
  122MOL0     H16821   0.187   0.912   0.742 -0.6321 -1.8177 -1.7018
  122MOL0     H16822  -0.210   0.984   0.588 -0.6758  1.0528 -2.0701
  122MOL0     H16823  -0.448   0.935   0.660 -1.3040  1.6254 -0.8359
  122MOL0     H16824  -0.668   1.184   0.958 -1.5585 -2.8358  0.3919
  122MOL0     H16825  -0.650   1.225   0.791  0.6518 -0.2632  0.4016
  122MOL0     H16826  -0.882   1.175   0.839  3.7428  2.8465  0.6075
  122MOL0     H16827  -0.836   1.025   0.919 -0.4164  0.2419  0.0644
  122MOL0     H16828  -0.808   1.057   0.605  0.7476 -0.4293 -0.0348
  122MOL0     H16829  -0.751   0.920   0.700  1.0539 -0.1586 -2.5459
  122MOL0     H16830  -1.034   1.041   0.659  0.8086  0.8982  1.3060
  122MOL0     H16831  -1.010   0.932   0.799  3.0568 -0.0457  1.9171
  122MOL0     H16832  -0.956   0.677   0.437  0.5448 -1.2711  1.1434
  122MOL0     H16833  -0.410   1.227   0.969 -1.5506 -0.8566 -0.1961
  122MOL0     H16834  -0.216   1.317   1.047 -1.4684  3.6556 -1.1604
  122MOL0     H16835  -0.056   1.269   0.967 -0.7042 -0.5876 -1.0875
  122MOL0     H16836  -0.160   1.379   0.882 -1.0463 -2.6827 -2.6674
  123MOL0     O16837   1.288  10.283   3.725 -0.0455 -0.5409  0.2922
  123MOL0     C16838   1.290  10.184   3.655 -0.1893  0.2708 -0.5910
  123MOL0     O16839   1.398  10.147   3.583  0.4262 -0.8385  0.7209
  123MOL0     C16840   1.503  10.231   3.561  0.0154 -0.0316 -0.7376
  123MOL0     C16841   1.561  10.299   3.674 -1.1810  0.3835  0.9127
  123MOL0     C16842   1.678  10.373   3.650 -0.4829 -0.0270 -0.2496
  123MOL0     C16843   1.736  10.391   3.524  0.5647  1.1691  0.1170
  123MOL0     O16844   1.843  10.465   3.488 -0.7675  0.0326  0.8511
  123MOL0     C16845   1.906  10.553   3.585  0.3858  0.1408  0.6392
  123MOL0     C16846   2.008  10.647   3.533 -0.2776 -0.3134  0.6792
  123MOL0     C16847   2.144  10.581   3.501 -0.7177  0.2719 -0.5037
  123MOL0     C16848   2.252  10.687   3.495  0.3821  0.2344  0.0527
  123MOL0     C16849   2.366  10.647   3.404  0.0702  0.5399 -0.3025
  123MOL0     C16850   2.433  10.520   3.461 -0.0456  0.6939  0.2008
  123MOL0     C16851   2.577  10.491   3.405  0.1644 -0.6036  0.3193
  123MOL0     C16852   2.680  10.598   3.422 -0.5669 -0.7266 -0.7941
  123MOL0     N16853   2.776  10.546   3.510 -0.2895 -0.2548 -0.3997
  123MOL0     C16854   2.759  10.533   3.646 -0.1329 -0.2701 -0.0429
  123MOL0     C16855   2.878  10.499   3.699  0.1217 -0.2143 -0.0491
  123MOL0     C16856   2.901  10.473   3.850 -0.6311 -0.6152  0.4877
  123MOL0     C16857   3.045  10.515   3.885  0.0807  0.9130 -0.0642
  123MOL0     C16858   3.136  10.403   3.923  0.6915 -0.2025 -0.2040
  123MOL0     C16859   3.275  10.458   3.964 -0.6157 -0.6784  0.5091
  123MOL0     O16860   3.356  10.348   4.012  0.0933 -0.4480  0.3243
  123MOL0     C16861   3.464  10.367   4.087 -0.0403  0.2998  0.3804
  123MOL0     C16862   3.548  10.268   4.130 -0.1757  0.0666  0.2269
  123MOL0     C16863   3.669  10.290   4.203 -0.0629  0.5528  0.1348
  123MOL0     C16864   3.736  10.161   4.266 -0.1010 -0.0367 -0.1165
  123MOL0     C16865   3.718  10.421   4.223  0.3772  0.1858  0.0292
  123MOL0     C16866   3.848  10.457   4.285 -0.3957  0.4226  0.4328
  123MOL0     O16867   3.947  10.361   4.316 -0.0334 -0.2829  0.1313
  123MOL0     C16868   4.071  10.418   4.346  0.6233 -0.2938 -0.0695
  123MOL0     C16869   4.177  10.434   4.260  0.5921 -0.3329  0.3936
  123MOL0     C16870   4.297  10.488   4.314 -0.6142 -0.5306  0.5855
  123MOL0     C16871   4.317  10.516   4.444 -0.4291 -0.1330 -0.4977
  123MOL0     O16872   4.428  10.575   4.500 -0.2896  1.0659  0.7498
  123MOL0     C16873   4.552  10.527   4.439  0.3979 -0.3267  0.3626
  123MOL0     C16874   4.665  10.555   4.540 -0.9647  0.1791 -0.6659
  123MOL0     C16875   4.814  10.509   4.494  0.7110 -0.5827 -0.0089
  123MOL0     C16876   4.870  10.610   4.388  0.8591  0.4001 -0.0019
  123MOL0     C16877   4.979  10.548   4.301  0.5742 -0.3810 -0.7986
  123MOL0     C16878   5.091  10.492   4.393 -0.2750  0.1758  0.5133
  123MOL0     C16879   5.210  10.446   4.295  0.1692 -0.5440  0.0195
  123MOL0     C16880   5.323  10.370   4.373 -0.0793 -0.3213  1.0119
  123MOL0    Cl16881   5.236  10.244   4.460 -0.4712 -0.0102  0.1030
  123MOL0     C16882   4.211  10.491   4.532  0.3872 -0.4469  0.2407
  123MOL0     C16883   4.085  10.452   4.482  0.1048 -1.3352  0.1960
  123MOL0     O16884   3.856  10.574   4.304 -0.4024 -0.1217 -0.2820
  123MOL0     C16885   3.648  10.528   4.161  0.8472 -0.0402  0.3074
  123MOL0     C16886   3.524  10.502   4.098 -0.4205  0.4638  0.0296
  123MOL0     N16887   2.962  10.482   3.587 -0.1904  0.0115  0.1104
  123MOL0     N16888   2.904  10.503   3.477 -0.5032 -0.6583  0.6747
  123MOL0     C16889   1.670  10.325   3.416  0.2047 -0.8334 -0.1995
  123MOL0     C16890   1.561  10.245   3.432 -0.0052 -0.1012  0.0651
  123MOL0     C16891   1.171  10.098   3.689 -0.4408 -0.5911 -0.7382
  123MOL0     C16892   1.050  10.159   3.731  0.3166  0.7684 -0.3995
  123MOL0     C16893   0.939  10.081   3.749  1.4984  0.2106 -0.3131
  123MOL0     C16894   0.936   9.940   3.730  0.8141 -0.3263  0.8379
  123MOL0     O16895   0.816   9.884   3.755  0.0626  0.0953  0.1574
  123MOL0     C16896   0.812   9.742   3.730  0.4802  0.4377 -0.7586
  123MOL0     C16897   0.871   9.670   3.855  0.0932 -0.8944 -0.9316
  123MOL0     C16898   0.863   9.517   3.827 -0.8796 -0.3338 -0.5741
  123MOL0     C16899   0.944   9.429   3.921  0.4757 -0.1605  0.3724
  123MOL0     C16900   1.088   9.474   3.932  0.3604  0.1117  0.1348
  123MOL0     C16901   1.204   9.513   3.934  0.8028 -0.1611 -1.1509
  123MOL0     C16902   1.058   9.884   3.680  0.1624 -0.0654 -0.7759
  123MOL0     C16903   1.170   9.961   3.661 -0.6948 -0.6256 -0.1370
  123MOL0     C16904   1.295   9.892   3.612  1.0933  0.1030  0.0290
  123MOL0     H16905   1.517  10.297   3.773 -1.7875  0.5787  0.6498
  123MOL0     H16906   1.726  10.410   3.740 -0.9986 -2.8886  1.3071
  123MOL0     H16907   1.961  10.491   3.656 -0.0716 -2.2256 -0.9395
  123MOL0     H16908   1.832  10.619   3.631  0.3302  1.0926 -0.7433
  123MOL0     H16909   1.964  10.712   3.457 -2.7332  1.2767  3.2442
  123MOL0     H16910   2.023  10.714   3.618  0.6673 -0.4462  0.6225
  123MOL0     H16911   2.188  10.513   3.575 -0.6185  1.3519  0.4643
  123MOL0     H16912   2.133  10.547   3.398 -1.6968 -0.9694 -0.0013
  123MOL0     H16913   2.215  10.782   3.455 -0.3885 -0.3124 -0.5854
  123MOL0     H16914   2.289  10.702   3.596 -3.9345 -1.0924  2.0969
  123MOL0     H16915   2.425  10.739   3.411  0.9370  0.0463 -0.9678
  123MOL0     H16916   2.328  10.631   3.303 -1.5890 -0.7946  0.4783
  123MOL0     H16917   2.434  10.530   3.569  0.4295  0.3558  0.2313
  123MOL0     H16918   2.366  10.435   3.440  2.9017 -1.7206 -0.1339
  123MOL0     H16919   2.563  10.470   3.299 -0.4158  0.6086  0.1394
  123MOL0     H16920   2.611  10.393   3.439 -1.3085 -1.8129 -1.5135
  123MOL0     H16921   2.735  10.602   3.328 -0.2718 -1.1178 -0.6387
  123MOL0     H16922   2.649  10.695   3.460 -0.5558 -0.6565 -0.9616
  123MOL0     H16923   2.668  10.559   3.700 -1.8312 -0.6443 -2.5424
  123MOL0     H16924   2.895  10.365   3.866 -1.7717 -1.2146 -3.1009
  123MOL0     H16925   2.825  10.515   3.917  0.6297  1.0535  0.9289
  123MOL0     H16926   3.090  10.569   3.801 -1.0880  1.1364 -0.5669
  123MOL0     H16927   3.038  10.592   3.962 -2.4062  2.1412 -1.3910
  123MOL0     H16928   3.100  10.350   4.012  0.3361 -0.5162 -0.5352
  123MOL0     H16929   3.151  10.333   3.841  0.0231 -2.3531  1.4004
  123MOL0     H16930   3.320  10.500   3.874  0.8092 -0.1769  1.4262
  123MOL0     H16931   3.280  10.536   4.040 -0.0389  1.4970 -1.6579
  123MOL0     H16932   3.513  10.169   4.102  0.8841 -0.4239  0.5741
  123MOL0     H16933   3.809  10.116   4.197 -2.4126 -2.4218 -1.1717
  123MOL0     H16934   3.672  10.073   4.273 -0.5566  0.2192 -0.9529
  123MOL0     H16935   3.787  10.179   4.361  1.0440  0.0063 -0.7185
  123MOL0     H16936   4.176  10.394   4.159 -0.7565  1.0788 -0.1954
  123MOL0     H16937   4.381  10.494   4.246 -1.4370 -0.6600 -0.4647
  123MOL0     H16938   4.560  10.420   4.416  2.6139  0.0815 -1.1254
  123MOL0     H16939   4.559  10.587   4.348  1.0052 -1.9130 -0.6882
  123MOL0     H16940   4.658  10.662   4.562 -1.4334 -0.2531  1.6262
  123MOL0     H16941   4.642  10.498   4.631  1.0023 -1.6903 -1.2574
  123MOL0     H16942   4.799  10.411   4.446  0.2704  0.4463 -2.0796
  123MOL0     H16943   4.876  10.511   4.584  1.4218  0.7044 -0.5143
  123MOL0     H16944   4.910  10.703   4.430 -0.9496  1.1657  0.1289
  123MOL0     H16945   4.786  10.641   4.325  1.5203 -0.9015 -1.5974
  123MOL0     H16946   4.954  10.471   4.227 -2.5297 -1.5844  1.2940
  123MOL0     H16947   5.024  10.631   4.245 -0.1834 -0.1677 -1.1070
  123MOL0     H16948   5.055  10.411   4.457 -5.1318  0.3391 -1.5393
  123MOL0     H16949   5.113  10.579   4.455 -0.3200  1.6260 -1.3880
  123MOL0     H16950   5.253  10.534   4.245 -2.4882  0.2091 -1.1152
  123MOL0     H16951   5.164  10.382   4.219 -2.3491  0.6733  0.4099
  123MOL0     H16952   5.372  10.445   4.436  1.1063 -1.3396  1.3424
  123MOL0     H16953   5.388  10.329   4.295 -2.3882 -1.7448 -0.2561
  123MOL0     H16954   4.213  10.519   4.636  3.2364 -0.7288  0.3222
  123MOL0     H16955   4.005  10.434   4.554  1.3945 -1.0627  1.7684
  123MOL0     H16956   3.688  10.628   4.147  0.6429 -0.1523 -1.3000
  123MOL0     H16957   3.477  10.590   4.056  2.4914  2.0863 -0.1336
  123MOL0     H16958   1.714  10.351   3.320  2.1820  1.6123  1.2497
  123MOL0     H16959   1.505  10.197   3.352 -0.5516  1.9147 -0.8316
  123MOL0     H16960   1.034  10.266   3.739 -1.6128  0.5226 -0.3498
  123MOL0     H16961   0.853  10.139   3.781  3.6521  2.6357  1.5608
  123MOL0     H16962   0.711   9.710   3.704  0.1140  1.0026 -0.0647
  123MOL0     H16963   0.866   9.710   3.641  2.6631 -1.2136  1.0472
  123MOL0     H16964   0.820   9.691   3.950  0.8757  1.4101 -0.9729
  123MOL0     H16965   0.973   9.708   3.864 -0.6206  1.0731 -0.8156
  123MOL0     H16966   0.760   9.494   3.854 -0.7164 -1.8977 -1.1706
  123MOL0     H16967   0.871   9.491   3.721 -0.3400  1.1801 -0.9291
  123MOL0     H16968   0.953   9.327   3.884  1.9810  0.2726 -0.5354
  123MOL0     H16969   0.899   9.417   4.020  0.1470 -2.4113 -0.0011
  123MOL0     H16970   1.305   9.550   3.937  0.5589  0.6302  2.5029
  123MOL0     H16971   1.069   9.781   3.648 -1.4285 -0.1846 -1.0281
  123MOL0     H16972   1.294   9.783   3.611  2.2353  0.0709 -1.4880
  123MOL0     H16973   1.316   9.927   3.511  0.0070  2.4838  0.5426
  123MOL0     H16974   1.369   9.928   3.684 -0.5219  0.8965  1.3593
  124MOL0     O16975   4.213   1.698   9.305  0.0671  0.3553  0.0021
  124MOL0     C16976   4.092   1.708   9.305  0.4588  0.7615 -0.0735
  124MOL0     O16977   4.021   1.815   9.254  0.1837  0.2233  0.3409
  124MOL0     C16978   4.081   1.939   9.247  0.3342 -0.3274  0.5098
  124MOL0     C16979   4.091   2.024   9.356 -0.3610 -0.8075 -0.4733
  124MOL0     C16980   4.161   2.145   9.347 -0.1397  0.0826 -0.5118
  124MOL0     C16981   4.199   2.196   9.225 -0.1565  0.3889 -0.6027
  124MOL0     O16982   4.251   2.323   9.209 -0.6823  0.0921  0.2772
  124MOL0     C16983   4.350   2.340   9.105 -0.9678 -0.4479 -0.5784
  124MOL0     C16984   4.432   2.469   9.115  0.3701 -0.1170 -0.1994
  124MOL0     C16985   4.538   2.476   9.004 -0.9250  0.5962 -0.4068
  124MOL0     C16986   4.515   2.585   8.896  0.4043  0.8375  0.1782
  124MOL0     C16987   4.610   2.570   8.781 -0.3704  0.0342  1.1722
  124MOL0     C16988   4.582   2.672   8.676  0.3818 -0.3709  0.0070
  124MOL0     C16989   4.689   2.667   8.565 -0.6210  0.0533 -0.6423
  124MOL0     C16990   4.838   2.682   8.617 -0.4112 -0.8494  0.4288
  124MOL0     N16991   4.929   2.699   8.503  0.0380  0.5090 -0.3062
  124MOL0     C16992   4.909   2.643   8.378  0.6094 -0.5530  0.1960
  124MOL0     C16993   4.992   2.696   8.287 -0.3498  0.3048  0.4610
  124MOL0     C16994   5.027   2.655   8.145 -0.2886 -0.0161 -0.4784
  124MOL0     C16995   4.950   2.542   8.097  0.4165  1.1141 -0.0307
  124MOL0     C16996   4.801   2.580   8.072 -0.7004 -0.7415 -0.2932
  124MOL0     C16997   4.739   2.518   7.945 -0.2471  0.2819  0.7190
  124MOL0     O16998   4.678   2.387   7.973  0.6136  0.1936  0.0826
  124MOL0     C16999   4.756   2.280   7.941 -0.0786 -0.2711  0.5899
  124MOL0     C17000   4.770   2.239   7.806  0.0285 -0.2517 -0.1674
  124MOL0     C17001   4.862   2.146   7.753 -0.3825  0.3743 -0.4841
  124MOL0     C17002   4.866   2.120   7.603 -0.3778 -0.0704 -1.5555
  124MOL0     C17003   4.941   2.076   7.845  0.4623  0.2074 -0.6905
  124MOL0     C17004   5.041   1.962   7.817 -0.0137 -0.4481  0.4209
  124MOL0     O17005   5.094   1.899   7.928 -0.2450 -0.0617 -0.7186
  124MOL0     C17006   5.164   1.785   7.897 -0.1027 -0.2304 -0.5218
  124MOL0     C17007   5.088   1.671   7.882 -0.0953 -0.1720  0.6142
  124MOL0     C17008   5.148   1.540   7.883 -0.1731  0.1726 -0.4570
  124MOL0     C17009   5.286   1.531   7.896 -0.6296  0.1277  0.1411
  124MOL0     O17010   5.351   1.411   7.908 -0.2598 -0.6451 -0.0712
  124MOL0     C17011   5.286   1.288   7.932 -0.6463  0.2823 -0.1608
  124MOL0     C17012   5.393   1.180   7.964 -0.5279  0.5659  0.0646
  124MOL0     C17013   5.470   1.213   8.087  0.8629 -0.2308 -0.7080
  124MOL0     C17014   5.598   1.140   8.101 -0.4775  0.2805  0.1268
  124MOL0     C17015   5.673   1.191   8.224 -0.1323  0.4873 -0.2367
  124MOL0     C17016   5.819   1.147   8.202  0.8174  0.0596  0.1716
  124MOL0     C17017   5.919   1.142   8.323  0.5333 -0.1210 -0.0292
  124MOL0     C17018   6.056   1.090   8.285 -0.2658  0.3184 -0.3375
  124MOL0    Cl17019   6.121   1.175   8.149  0.1588  0.0793  0.4415
  124MOL0     C17020   5.362   1.647   7.896  0.1162  0.9603  0.4365
  124MOL0     C17021   5.297   1.767   7.917 -0.2759 -0.1958 -0.4150
  124MOL0     O17022   5.070   1.934   7.704 -0.4339  0.1883 -0.0966
  124MOL0     C17023   4.925   2.109   7.979  0.3141 -0.5658 -0.4470
  124MOL0     C17024   4.831   2.208   8.031  0.2953 -0.5747 -0.0741
  124MOL0     N17025   5.060   2.794   8.352 -0.1029 -1.0149 -0.1562
  124MOL0     N17026   5.029   2.796   8.480 -0.2393  0.9757  0.4907
  124MOL0     C17027   4.180   2.113   9.110  0.0401  0.3532  0.0984
  124MOL0     C17028   4.131   1.979   9.121  0.2313  0.5447 -0.4641
  124MOL0     C17029   4.018   1.584   9.334  0.1270  0.0194 -0.4491
  124MOL0     C17030   3.888   1.570   9.278 -0.4531  0.5254 -0.2153
  124MOL0     C17031   3.809   1.459   9.289  0.1050 -0.6337 -0.3481
  124MOL0     C17032   3.856   1.353   9.372  0.6447 -0.5572  0.4427
  124MOL0     O17033   3.787   1.240   9.405 -0.1356  0.2372 -0.4099
  124MOL0     C17034   3.653   1.214   9.380  0.7948  1.4047 -0.0147
  124MOL0     C17035   3.622   1.080   9.453 -0.1269  0.4362  0.3015
  124MOL0     C17036   3.480   1.023   9.424 -0.0150  0.2060  0.0209
  124MOL0     C17037   3.365   1.127   9.456  0.8222 -0.5111 -0.2954
  124MOL0     C17038   3.244   1.053   9.408 -0.4824  0.5788 -0.2619
  124MOL0     C17039   3.152   0.977   9.376 -0.1436 -0.6885  0.3457
  124MOL0     C17040   3.977   1.372   9.433  0.1313  0.5763  1.2715
  124MOL0     C17041   4.066   1.474   9.401  0.0755  0.3225  0.0657
  124MOL0     C17042   4.198   1.459   9.474 -0.5015  0.8648 -0.5131
  124MOL0     H17043   4.038   1.994   9.446  0.1517  0.1787  0.1766
  124MOL0     H17044   4.172   2.210   9.433 -1.1341 -2.0600  1.3516
  124MOL0     H17045   4.311   2.340   9.003  0.8270 -0.3483 -1.2863
  124MOL0     H17046   4.422   2.258   9.113  0.8719  0.9934 -1.7069
  124MOL0     H17047   4.369   2.557   9.100 -0.3008 -0.7052 -0.9305
  124MOL0     H17048   4.479   2.477   9.213 -0.4871 -1.3509  0.3442
  124MOL0     H17049   4.632   2.485   9.059 -1.4131 -0.5721  0.6619
  124MOL0     H17050   4.536   2.376   8.959  2.7522 -0.3554  1.1863
  124MOL0     H17051   4.417   2.574   8.850  0.8446 -2.3482 -0.1813
  124MOL0     H17052   4.511   2.682   8.947  0.3535  0.0906  1.6547
  124MOL0     H17053   4.590   2.475   8.732  2.1383  0.2708 -0.4817
  124MOL0     H17054   4.713   2.574   8.818 -1.4746  0.8324  4.5288
  124MOL0     H17055   4.480   2.646   8.646 -1.5335  1.3646  4.1433
  124MOL0     H17056   4.569   2.774   8.714 -2.8353  0.7750 -3.5441
  124MOL0     H17057   4.671   2.750   8.495 -2.1475  1.9044  1.8132
  124MOL0     H17058   4.679   2.573   8.510 -0.3270  0.4720 -1.4455
  124MOL0     H17059   4.838   2.776   8.673 -0.4243  1.7815 -3.5433
  124MOL0     H17060   4.879   2.595   8.669  1.8151  0.4231  0.9204
  124MOL0     H17061   4.847   2.558   8.350 -1.5107  0.3402  1.8783
  124MOL0     H17062   5.125   2.606   8.145  0.7425  1.9431  0.8279
  124MOL0     H17063   5.030   2.737   8.074  4.7749 -1.0452 -1.8214
  124MOL0     H17064   4.994   2.503   8.005  5.2463  5.5944 -0.0892
  124MOL0     H17065   4.946   2.457   8.166  3.9747  1.7349  1.1960
  124MOL0     H17066   4.734   2.550   8.153 -1.5876  1.0850 -0.3016
  124MOL0     H17067   4.785   2.688   8.072  0.5932 -0.5273 -0.8711
  124MOL0     H17068   4.662   2.590   7.918 -0.3122  0.7053  1.9588
  124MOL0     H17069   4.812   2.516   7.863  1.6605  1.0202  2.3202
  124MOL0     H17070   4.703   2.290   7.737 -0.1347 -1.4132 -0.9008
  124MOL0     H17071   4.808   2.202   7.560 -0.9961  0.8121  0.8050
  124MOL0     H17072   4.834   2.018   7.577  1.5013 -1.3841  0.7707
  124MOL0     H17073   4.967   2.140   7.567  0.2433 -0.1445  0.0607
  124MOL0     H17074   4.981   1.688   7.873  0.0906  1.7191  1.4001
  124MOL0     H17075   5.090   1.450   7.868 -1.2105  0.8718 -0.7943
  124MOL0     H17076   5.210   1.293   8.011  1.9051 -0.2142  2.5027
  124MOL0     H17077   5.237   1.257   7.839  0.6874 -0.2972 -0.6819
  124MOL0     H17078   5.342   1.084   7.976 -1.2788  0.4116 -3.3280
  124MOL0     H17079   5.461   1.181   7.878 -1.4732  1.7325 -0.7147
  124MOL0     H17080   5.398   1.191   8.166  0.3125  4.6551  0.4553
  124MOL0     H17081   5.474   1.322   8.098 -2.7208 -0.1547  0.9097
  124MOL0     H17082   5.656   1.159   8.010  1.7936 -2.2683  0.9212
  124MOL0     H17083   5.585   1.032   8.111 -0.2143 -0.0236 -2.1586
  124MOL0     H17084   5.658   1.295   8.254 -1.2829 -0.3631  2.5054
  124MOL0     H17085   5.629   1.136   8.308 -1.2405  0.1549 -1.0232
  124MOL0     H17086   5.862   1.207   8.121 -0.0493 -1.1233 -1.2168
  124MOL0     H17087   5.812   1.046   8.158 -2.2125 -0.2921  1.2372
  124MOL0     H17088   5.886   1.070   8.398 -1.7078 -1.2024 -1.9216
  124MOL0     H17089   5.928   1.243   8.364 -0.1727  1.2710 -2.9906
  124MOL0     H17090   6.066   0.981   8.277 -0.9207  0.1969  0.3706
  124MOL0     H17091   6.126   1.113   8.366  1.5130 -1.6337 -1.2160
  124MOL0     H17092   5.470   1.655   7.896  0.1572  2.8467 -3.4310
  124MOL0     H17093   5.353   1.855   7.947 -0.0980 -0.6875  0.7471
  124MOL0     H17094   4.990   2.070   8.057  0.9301  1.0368 -0.1115
  124MOL0     H17095   4.836   2.234   8.136  1.8843  0.8939 -0.4711
  124MOL0     H17096   4.199   2.156   9.012  1.4261  0.5882  0.4508
  124MOL0     H17097   4.126   1.908   9.040  0.1668  0.3735 -0.3097
  124MOL0     H17098   3.830   1.651   9.233 -0.1153  1.9145  1.6784
  124MOL0     H17099   3.710   1.458   9.245 -1.4255 -1.5500  2.7850
  124MOL0     H17100   3.593   1.293   9.427  2.0682  1.4947  1.5346
  124MOL0     H17101   3.630   1.201   9.273  1.4451 -4.7037  0.2469
  124MOL0     H17102   3.644   1.092   9.560  0.6369  4.3724 -0.1509
  124MOL0     H17103   3.699   1.007   9.428 -1.9002 -2.6737  2.9696
  124MOL0     H17104   3.476   0.985   9.321  0.4638  2.6765 -0.9807
  124MOL0     H17105   3.474   0.930   9.481 -1.3226  0.0134 -0.3784
  124MOL0     H17106   3.382   1.222   9.405 -0.6018  0.5060  1.0393
  124MOL0     H17107   3.355   1.152   9.562 -0.3959  1.5667 -0.8407
  124MOL0     H17108   3.066   0.913   9.367  0.4028 -1.1896 -2.6362
  124MOL0     H17109   4.012   1.304   9.510 -1.3892  1.3466  2.6844
  124MOL0     H17110   4.194   1.524   9.562  2.1987 -0.9088  1.0607
  124MOL0     H17111   4.230   1.360   9.509  2.4812  2.0497  0.4749
  124MOL0     H17112   4.287   1.501   9.426  0.8867  0.2985  1.4149
  125MOL0     O17113   3.605   6.995  10.560 -0.4226  0.3130  0.2765
  125MOL0     C17114   3.552   6.906  10.626 -0.1983 -0.0840  0.7215
  125MOL0     O17115   3.611   6.799  10.690  0.0462  0.5234  0.2324
  125MOL0     C17116   3.741   6.780  10.700 -0.8931  0.2932  1.0113
  125MOL0     C17117   3.828   6.883  10.729  0.5653 -0.0214  0.5202
  125MOL0     C17118   3.966   6.861  10.735 -0.0571  1.0118  0.3645
  125MOL0     C17119   4.024   6.729  10.712  0.4263 -0.6287 -0.1239
  125MOL0     O17120   4.155   6.693  10.720  1.2722 -0.3647 -0.4716
  125MOL0     C17121   4.231   6.751  10.610  0.4952  0.9502 -0.1207
  125MOL0     C17122   4.378   6.702  10.602  0.2758 -0.1264 -0.1799
  125MOL0     C17123   4.452   6.709  10.737 -0.6146 -0.3280 -0.0507
  125MOL0     C17124   4.467   6.854  10.789 -0.5118 -0.2458  0.0888
  125MOL0     C17125   4.536   6.850  10.927 -0.0003 -0.2648  0.0406
  125MOL0     C17126   4.595   6.990  10.941 -0.0605  0.3979  0.0078
  125MOL0     C17127   4.691   7.005  11.058  0.2338  0.0724 -0.1180
  125MOL0     C17128   4.836   6.989  11.005  0.9771 -0.0967 -0.5987
  125MOL0     N17129   4.890   7.101  10.931  0.4778  0.1155  0.0508
  125MOL0     C17130   4.841   7.234  10.933 -0.0763  0.1880 -0.6248
  125MOL0     C17131   4.932   7.303  10.865 -1.2880 -0.3846  0.3932
  125MOL0     C17132   4.917   7.450  10.843  0.2881  0.6093  0.5177
  125MOL0     C17133   5.039   7.509  10.769  0.3769  0.6402  0.0905
  125MOL0     C17134   5.158   7.538  10.863 -0.2189 -0.4550  0.0283
  125MOL0     C17135   5.262   7.428  10.854  0.1028  0.1482  0.0764
  125MOL0     O17136   5.373   7.464  10.941 -0.4006  0.1680  0.5129
  125MOL0     C17137   5.493   7.401  10.908 -0.2105  0.3546  0.1498
  125MOL0     C17138   5.538   7.368  10.773 -0.9013  0.0844  0.4307
  125MOL0     C17139   5.651   7.295  10.748 -0.6315 -0.7006  0.0369
  125MOL0     C17140   5.669   7.265  10.593  0.1575  0.3481  0.0784
  125MOL0     C17141   5.733   7.248  10.855 -0.1158  0.4980 -0.2023
  125MOL0     C17142   5.871   7.190  10.843 -0.6046  0.3044 -0.6803
  125MOL0     O17143   5.943   7.150  10.956 -0.0034  0.3005  0.2043
  125MOL0     C17144   6.060   7.082  10.935 -0.2039 -0.3471  0.5484
  125MOL0     C17145   6.069   6.954  10.878  0.8473  0.2190  0.3625
  125MOL0     C17146   6.190   6.880  10.877 -0.1665 -1.0385 -0.3211
  125MOL0     C17147   6.303   6.946  10.911 -0.0626 -0.7170  0.7337
  125MOL0     O17148   6.426   6.885  10.883  0.3924 -0.7439 -0.2061
  125MOL0     C17149   6.530   6.922  10.979 -0.5764 -1.0742  0.2064
  125MOL0     C17150   6.612   6.809  11.037 -0.0294 -0.0197  0.0060
  125MOL0     C17151   6.697   6.859  11.154 -0.4915 -0.1625 -0.7203
  125MOL0     C17152   6.804   6.754  11.196 -0.2553  0.0014  0.1116
  125MOL0     C17153   6.885   6.790  11.315  0.4080  0.5609  0.2044
  125MOL0     C17154   7.004   6.692  11.343  0.4798  0.1497  0.1956
  125MOL0     C17155   6.972   6.539  11.364 -0.3611 -0.3574 -1.0194
  125MOL0     C17156   7.059   6.488  11.481 -0.3913  0.7863 -0.6082
  125MOL0    Cl17157   7.007   6.558  11.640  0.3835 -0.0761 -0.6019
  125MOL0     C17158   6.299   7.078  10.957 -1.3063  0.2984  0.2963
  125MOL0     C17159   6.180   7.148  10.972 -0.7537  0.1292  0.5395
  125MOL0     O17160   5.908   7.161  10.730  0.3334 -0.1596 -0.2303
  125MOL0     C17161   5.690   7.282  10.986 -0.3856 -0.3972 -0.0007
  125MOL0     C17162   5.574   7.357  11.008  0.3694  0.7844  0.3393
  125MOL0     N17163   5.025   7.222  10.808  0.5122  0.3654 -0.0678
  125MOL0     N17164   5.000   7.101  10.846  0.5198 -0.7157 -0.5090
  125MOL0     C17165   3.931   6.622  10.696 -0.1570  0.1455 -0.7271
  125MOL0     C17166   3.791   6.649  10.682  0.5961 -0.6376 -0.4346
  125MOL0     C17167   3.406   6.896  10.627  0.5399 -0.0028 -0.6487
  125MOL0     C17168   3.346   6.780  10.688  0.3098 -0.6064  0.0980
  125MOL0     C17169   3.208   6.769  10.698  0.6892  0.4426 -0.3626
  125MOL0     C17170   3.119   6.867  10.640  0.2631 -0.1837 -0.8276
  125MOL0     O17171   2.986   6.844  10.615  0.3774  0.4238 -0.6362
  125MOL0     C17172   2.926   6.724  10.672  0.6434  0.3430 -0.3861
  125MOL0     C17173   2.888   6.748  10.824 -0.9439 -1.2545  1.3627
  125MOL0     C17174   2.811   6.634  10.871  0.3866  0.4623  0.8873
  125MOL0     C17175   2.785   6.657  11.017 -0.1727  0.4581 -0.2628
  125MOL0     C17176   2.723   6.551  11.092  0.1187 -0.4746 -0.4902
  125MOL0     C17177   2.667   6.467  11.159  0.0494  0.1747  0.6677
  125MOL0     C17178   3.173   6.980  10.584 -0.2947 -0.2084 -0.4564
  125MOL0     C17179   3.313   6.997  10.579 -0.1404  1.0342  0.6349
  125MOL0     C17180   3.364   7.127  10.516 -0.6387  0.2408 -0.6508
  125MOL0     H17181   3.785   6.981  10.747  3.7795  1.3419  1.4886
  125MOL0     H17182   4.042   6.938  10.746  1.9201 -0.3769 -2.3134
  125MOL0     H17183   4.211   6.859  10.609 -0.4491  0.7839 -0.9740
  125MOL0     H17184   4.200   6.717  10.510  2.9253 -0.2693 -0.5253
  125MOL0     H17185   4.385   6.598  10.569 -2.3881 -0.7951  1.0107
  125MOL0     H17186   4.434   6.767  10.534  2.3830 -1.2735  0.3619
  125MOL0     H17187   4.396   6.654  10.813  2.1289 -0.4939  1.9917
  125MOL0     H17188   4.552   6.671  10.717 -0.8634  0.7473 -4.2999
  125MOL0     H17189   4.513   6.909  10.706 -1.5104 -0.6761 -0.7821
  125MOL0     H17190   4.372   6.903  10.813 -2.3514 -3.4523 -0.1626
  125MOL0     H17191   4.607   6.767  10.939  1.0373  0.9904  4.7211
  125MOL0     H17192   4.468   6.829  11.010  0.2557 -2.4958 -0.2497
  125MOL0     H17193   4.651   7.017  10.852  0.0263  0.8045  0.1814
  125MOL0     H17194   4.511   7.059  10.956 -0.6167 -0.3742  0.5209
  125MOL0     H17195   4.675   6.919  11.124 -0.6055 -1.0040 -1.6419
  125MOL0     H17196   4.671   7.099  11.109 -2.2043 -1.5696  2.2501
  125MOL0     H17197   4.904   6.983  11.090 -0.7907  0.5143  0.9332
  125MOL0     H17198   4.835   6.906  10.934 -0.6456 -1.0507  0.4627
  125MOL0     H17199   4.751   7.273  10.980  0.1703  0.7357 -0.6054
  125MOL0     H17200   4.920   7.502  10.940  0.9350 -1.0977  1.4622
  125MOL0     H17201   4.832   7.478  10.781  1.1855 -0.2341 -1.1490
  125MOL0     H17202   5.071   7.449  10.683  2.1189 -1.7011  2.2459
  125MOL0     H17203   5.004   7.609  10.738  0.9387  1.1475  1.0401
  125MOL0     H17204   5.200   7.633  10.829 -2.6455 -0.4655 -3.5054
  125MOL0     H17205   5.137   7.547  10.971  1.0944 -3.5189  0.6435
  125MOL0     H17206   5.220   7.335  10.894  1.5194  0.0181  1.3096
  125MOL0     H17207   5.285   7.414  10.748  0.3038 -2.1087  0.3639
  125MOL0     H17208   5.479   7.402  10.689  1.2686 -0.2466 -1.3286
  125MOL0     H17209   5.720   7.168  10.592 -1.5789 -0.6041 -0.5381
  125MOL0     H17210   5.730   7.339  10.541 -0.7962  0.2081 -1.3117
  125MOL0     H17211   5.579   7.262  10.530 -1.2097 -2.0706  1.9856
  125MOL0     H17212   5.983   6.903  10.835 -0.9982  0.6637  3.2631
  125MOL0     H17213   6.191   6.777  10.844 -2.2527 -0.9865 -0.6660
  125MOL0     H17214   6.602   6.992  10.933 -0.5027 -1.6436 -0.5704
  125MOL0     H17215   6.498   6.972  11.071  0.2370 -0.5110  0.2027
  125MOL0     H17216   6.542   6.731  11.071 -0.3676  0.2998  0.0499
  125MOL0     H17217   6.675   6.756  10.965  1.0602  1.4399 -0.1493
  125MOL0     H17218   6.641   6.881  11.246  0.9842  1.0480 -0.0761
  125MOL0     H17219   6.748   6.951  11.127  0.4600 -1.2570 -2.8517
  125MOL0     H17220   6.870   6.738  11.111  1.2162 -1.5878  1.4780
  125MOL0     H17221   6.761   6.657  11.221 -0.5981  0.7038  2.5393
  125MOL0     H17222   6.926   6.891  11.313  2.4303 -0.2065 -1.3619
  125MOL0     H17223   6.816   6.786  11.400  2.1409 -1.2921  1.6442
  125MOL0     H17224   7.064   6.733  11.425  0.7904  3.3591 -1.4669
  125MOL0     H17225   7.073   6.689  11.258  0.3037 -2.7380  0.0548
  125MOL0     H17226   7.007   6.494  11.271  1.1414  1.4880 -1.4073
  125MOL0     H17227   6.869   6.515  11.389 -0.7723  3.1570  1.4215
  125MOL0     H17228   7.163   6.521  11.471  0.8001 -1.5816  2.2953
  125MOL0     H17229   7.062   6.378  11.482 -1.7086  0.7170 -1.6576
  125MOL0     H17230   6.390   7.133  10.974 -3.0010  3.4431  0.0307
  125MOL0     H17231   6.178   7.254  10.997 -3.1338  0.0552  0.8955
  125MOL0     H17232   5.744   7.243  11.071 -2.8111  0.6276  2.1257
  125MOL0     H17233   5.540   7.371  11.110  1.1516 -0.4099  0.7859
  125MOL0     H17234   3.969   6.524  10.671  0.4290 -0.1463  1.1692
  125MOL0     H17235   3.726   6.570  10.646  0.7307 -0.2103 -1.6659
  125MOL0     H17236   3.404   6.697  10.725  1.7844 -0.2515 -1.2848
  125MOL0     H17237   3.177   6.684  10.757 -0.8850  2.9492  2.7360
  125MOL0     H17238   2.833   6.721  10.614  1.4356  0.9024 -1.7068
  125MOL0     H17239   2.975   6.630  10.647 -2.2864 -1.3096 -0.4350
  125MOL0     H17240   2.819   6.834  10.821  0.5505  0.0252 -2.3368
  125MOL0     H17241   2.978   6.778  10.877 -0.2676  0.0445 -0.3977
  125MOL0     H17242   2.713   6.629  10.822  2.1401  3.9247 -3.7449
  125MOL0     H17243   2.867   6.543  10.847 -1.2784  0.5599 -4.9725
  125MOL0     H17244   2.731   6.751  11.034 -1.0966 -0.1890  0.5131
  125MOL0     H17245   2.880   6.675  11.068 -0.0397  0.3934 -0.4872
  125MOL0     H17246   2.620   6.389  11.216 -2.2393  1.4790  0.6821
  125MOL0     H17247   3.121   7.057  10.528  1.4103  0.2697 -1.4536
  125MOL0     H17248   3.281   7.179  10.467 -0.2352  2.3155  0.7252
  125MOL0     H17249   3.418   7.185  10.591 -1.3022  0.3677 -0.2670
  125MOL0     H17250   3.429   7.116  10.428 -0.9840 -2.5498 -0.6285
  126MOL0     O17251   2.878   6.288   6.760  0.3092 -0.2592  0.1388
  126MOL0     C17252   2.780   6.350   6.723  0.9497  0.8967 -0.2342
  126MOL0     O17253   2.784   6.444   6.627  0.3419  0.6000  0.5125
  126MOL0     C17254   2.904   6.458   6.563 -0.5470  0.4470  0.3501
  126MOL0     C17255   2.938   6.397   6.440  0.6591  0.1074 -1.0452
  126MOL0     C17256   3.062   6.417   6.377  0.9228  0.2860 -0.3288
  126MOL0     C17257   3.151   6.501   6.432 -0.0910  0.4330  0.1076
  126MOL0     O17258   3.279   6.496   6.383 -0.1923 -1.0064 -0.0683
  126MOL0     C17259   3.356   6.622   6.388  0.3870  0.6303  0.0197
  126MOL0     C17260   3.480   6.618   6.299 -0.6489  0.6593 -0.1173
  126MOL0     C17261   3.589   6.733   6.315  0.1917  0.9998 -0.2127
  126MOL0     C17262   3.521   6.875   6.299  0.3342  0.3806  0.1308
  126MOL0     C17263   3.626   6.984   6.321  0.1316 -0.0128 -0.2662
  126MOL0     C17264   3.563   7.122   6.311 -0.2930  0.6034  0.6909
  126MOL0     C17265   3.665   7.231   6.358  0.5438  0.3116 -0.3719
  126MOL0     C17266   3.583   7.365   6.357  0.4953  0.8059 -0.3470
  126MOL0     N17267   3.673   7.478   6.362  0.0303  1.2607  0.2068
  126MOL0     C17268   3.756   7.527   6.266  1.0176  0.3610 -0.1681
  126MOL0     C17269   3.844   7.606   6.326  1.6875 -0.2060  0.9342
  126MOL0     C17270   3.958   7.671   6.254  0.8388 -0.3187 -0.1411
  126MOL0     C17271   4.082   7.586   6.239 -0.5026 -0.1891 -0.0913
  126MOL0     C17272   4.149   7.548   6.370  0.1640 -0.5556 -0.4285
  126MOL0     C17273   4.300   7.544   6.369  0.6029  0.5152 -0.5556
  126MOL0     O17274   4.343   7.667   6.322  0.1404 -0.3149 -0.1479
  126MOL0     C17275   4.476   7.689   6.321 -0.6635 -0.0088  0.0473
  126MOL0     C17276   4.518   7.820   6.273  0.2257  0.1619  0.4954
  126MOL0     C17277   4.651   7.868   6.300 -0.7487  0.7430 -0.5780
  126MOL0     C17278   4.676   8.009   6.249  0.2464 -0.2550  0.7078
  126MOL0     C17279   4.753   7.778   6.354  0.9213 -0.1217  0.5670
  126MOL0     C17280   4.896   7.818   6.357  0.1406 -0.6847 -0.7737
  126MOL0     O17281   4.966   7.768   6.461 -0.6017 -0.4793  1.2353
  126MOL0     C17282   5.090   7.813   6.490 -1.0121  0.6153 -0.1219
  126MOL0     C17283   5.169   7.719   6.553 -0.0628 -0.0114 -0.6429
  126MOL0     C17284   5.298   7.745   6.593 -0.0398  0.2342 -0.7685
  126MOL0     C17285   5.360   7.862   6.562  0.4747 -0.8339 -0.4375
  126MOL0     O17286   5.488   7.872   6.612 -0.6912 -1.0150 -0.7392
  126MOL0     C17287   5.535   7.998   6.662  0.0072 -0.1919  0.0882
  126MOL0     C17288   5.685   7.985   6.691 -0.1018 -0.4477 -0.6294
  126MOL0     C17289   5.709   7.888   6.800  0.1464  0.0645 -0.4742
  126MOL0     C17290   5.852   7.919   6.841  0.3147  0.3813 -0.7770
  126MOL0     C17291   5.899   7.833   6.958 -0.5691  0.2233  0.1222
  126MOL0     C17292   6.013   7.902   7.034 -0.1102 -0.9097  0.0641
  126MOL0     C17293   6.143   7.923   6.950  0.0290  0.0227  0.8614
  126MOL0     C17294   6.253   7.988   7.027  0.2259 -0.5008 -0.2358
  126MOL0    Cl17295   6.317   7.876   7.147 -0.0364 -0.0288  0.0106
  126MOL0     C17296   5.282   7.964   6.499 -0.3473  0.6190  0.8399
  126MOL0     C17297   5.152   7.934   6.463 -0.4188 -0.0344  1.0335
  126MOL0     O17298   4.938   7.896   6.267  0.1094  0.4663  0.0418
  126MOL0     C17299   4.709   7.652   6.397  0.3638 -0.6214  0.1495
  126MOL0     C17300   4.576   7.619   6.398  0.4318  0.5677  0.0011
  126MOL0     N17301   3.822   7.598   6.462 -0.3239 -0.4548 -1.0381
  126MOL0     N17302   3.721   7.521   6.487  0.3923  0.3648 -0.0076
  126MOL0     C17303   3.125   6.565   6.556 -0.3173  0.3019  0.1778
  126MOL0     C17304   2.998   6.547   6.616  0.0256 -0.1795  0.2496
  126MOL0     C17305   2.642   6.307   6.770 -0.1577  0.6708  0.1562
  126MOL0     C17306   2.531   6.339   6.689  0.2838  0.2776 -0.2632
  126MOL0     C17307   2.398   6.318   6.727 -0.5759 -0.1893 -1.0533
  126MOL0     C17308   2.371   6.258   6.854  0.2852 -0.1550 -0.1923
  126MOL0     O17309   2.246   6.240   6.903  0.6875  0.0527 -0.0291
  126MOL0     C17310   2.182   6.111   6.881 -0.0307  0.0565  0.2415
  126MOL0     C17311   2.120   6.109   6.741  0.0377  0.7172  0.4622
  126MOL0     C17312   2.009   6.212   6.730 -0.4298 -0.5615  0.2709
  126MOL0     C17313   1.921   6.202   6.608 -0.1127 -0.3985 -0.7607
  126MOL0     C17314   1.805   6.284   6.621  0.4039 -0.3999  1.0141
  126MOL0     C17315   1.707   6.349   6.646  0.1066 -0.8144 -0.1055
  126MOL0     C17316   2.480   6.213   6.931 -0.0532 -0.3292 -0.4686
  126MOL0     C17317   2.614   6.238   6.893 -0.7445  0.1641 -0.0237
  126MOL0     C17318   2.725   6.209   6.993  0.1888  0.1629  0.4895
  126MOL0     H17319   2.864   6.332   6.393 -1.9475  1.1843  1.2505
  126MOL0     H17320   3.083   6.358   6.289 -1.1356  0.3524 -0.9170
  126MOL0     H17321   3.392   6.622   6.491 -0.6105  1.2451  0.3763
  126MOL0     H17322   3.297   6.713   6.376 -0.3354  0.1298 -0.2904
  126MOL0     H17323   3.535   6.529   6.331 -2.2164  0.1163  1.1636
  126MOL0     H17324   3.455   6.607   6.193  0.0918  0.2586 -0.2590
  126MOL0     H17325   3.643   6.712   6.407 -1.7738 -3.3783  0.1662
  126MOL0     H17326   3.659   6.717   6.233  1.2824 -2.0535  1.1714
  126MOL0     H17327   3.467   6.878   6.204  1.0891 -2.2323 -0.4670
  126MOL0     H17328   3.442   6.884   6.374  0.4788  1.5579  0.1510
  126MOL0     H17329   3.697   6.974   6.239 -1.5658 -0.6964 -1.7212
  126MOL0     H17330   3.664   6.975   6.423 -0.3983  1.4012  0.0823
  126MOL0     H17331   3.538   7.141   6.206  0.8034  0.9028  0.4706
  126MOL0     H17332   3.468   7.127   6.364 -0.2686 -0.2809  0.8374
  126MOL0     H17333   3.748   7.243   6.288 -0.6656  2.1053 -1.5826
  126MOL0     H17334   3.696   7.206   6.460 -0.1205  1.3352  0.1018
  126MOL0     H17335   3.532   7.376   6.260  2.7899  3.0381 -1.4238
  126MOL0     H17336   3.511   7.349   6.437  0.5626 -4.7777 -1.0515
  126MOL0     H17337   3.740   7.500   6.162  0.6068 -2.7300  0.6087
  126MOL0     H17338   3.978   7.765   6.308  0.2505 -1.0240  1.3741
  126MOL0     H17339   3.932   7.683   6.149  0.9294 -0.1527 -0.1458
  126MOL0     H17340   4.046   7.499   6.184 -0.3553 -1.5018  1.7925
  126MOL0     H17341   4.149   7.643   6.173  0.9487  0.7901  2.1024
  126MOL0     H17342   4.127   7.622   6.448 -0.3670  1.1616 -2.1059
  126MOL0     H17343   4.107   7.450   6.394  1.2599 -0.4497  2.2945
  126MOL0     H17344   4.337   7.524   6.470  2.3944  0.0192 -1.2744
  126MOL0     H17345   4.335   7.464   6.304  1.1794 -0.7755  1.2633
  126MOL0     H17346   4.447   7.890   6.232 -1.2266 -1.7953 -0.4795
  126MOL0     H17347   4.756   8.010   6.174 -3.0967 -0.3846 -3.2314
  126MOL0     H17348   4.699   8.073   6.334  2.9323 -2.0915  1.5151
  126MOL0     H17349   4.597   8.061   6.194 -0.4213 -1.6966  0.2385
  126MOL0     H17350   5.125   7.621   6.569 -0.4386  0.2876  0.1917
  126MOL0     H17351   5.353   7.669   6.647 -0.5242  0.1279 -0.4188
  126MOL0     H17352   5.528   8.073   6.583  3.5175 -0.8641 -1.0697
  126MOL0     H17353   5.473   8.018   6.750 -1.1295 -0.0178 -0.7352
  126MOL0     H17354   5.738   7.958   6.600 -2.8427 -3.9373 -1.4242
  126MOL0     H17355   5.704   8.090   6.715 -0.5001 -0.7340  1.1556
  126MOL0     H17356   5.696   7.783   6.775  0.7994 -0.4899  1.3843
  126MOL0     H17357   5.640   7.901   6.885  1.8831  2.3874  0.6963
  126MOL0     H17358   5.862   8.024   6.870 -0.2859  1.0957 -2.9759
  126MOL0     H17359   5.911   7.900   6.751  1.9003 -0.2961  0.3455
  126MOL0     H17360   5.823   7.822   7.036  1.1184  0.3434  1.8542
  126MOL0     H17361   5.936   7.739   6.918  1.2684  1.4844 -1.2902
  126MOL0     H17362   6.046   7.844   7.120  1.1032 -0.4352 -0.0583
  126MOL0     H17363   5.982   7.999   7.074  2.3271  0.5049 -1.2095
  126MOL0     H17364   6.140   7.985   6.860 -1.9436  0.0098  0.8831
  126MOL0     H17365   6.179   7.826   6.914 -0.2508 -0.3787  1.6373
  126MOL0     H17366   6.207   8.064   7.091  0.0779 -1.6195  1.0179
  126MOL0     H17367   6.335   8.027   6.966  1.7077 -2.4621  0.3904
  126MOL0     H17368   5.330   8.057   6.471  0.0447  0.3990  0.7785
  126MOL0     H17369   5.082   8.004   6.418  0.9435  2.0936  2.0523
  126MOL0     H17370   4.776   7.578   6.441 -0.5166 -1.0370  0.8080
  126MOL0     H17371   4.543   7.525   6.441  1.9888  0.1291  0.2871
  126MOL0     H17372   3.198   6.636   6.594 -2.7526  3.3046 -0.4131
  126MOL0     H17373   2.982   6.604   6.707 -1.6308  4.2406 -2.5154
  126MOL0     H17374   2.560   6.399   6.604 -1.0917  0.5784 -0.5481
  126MOL0     H17375   2.320   6.355   6.662 -1.3506  0.2050  0.0714
  126MOL0     H17376   2.257   6.032   6.893 -1.8373 -1.7588  0.1208
  126MOL0     H17377   2.100   6.089   6.949  0.7912 -0.5644  1.0444
  126MOL0     H17378   2.090   6.004   6.734  0.2858  0.5793  1.3534
  126MOL0     H17379   2.201   6.125   6.669  1.3332  2.2591  2.1813
  126MOL0     H17380   1.942   6.207   6.817  0.8796  0.6380  1.3987
  126MOL0     H17381   2.053   6.309   6.753 -1.4045 -0.3595  1.4383
  126MOL0     H17382   1.895   6.102   6.572  1.1487 -0.5254 -1.3737
  126MOL0     H17383   1.985   6.243   6.529  2.2540 -0.5287  0.9631
  126MOL0     H17384   1.640   6.429   6.670  1.5821 -0.2860  2.6603
  126MOL0     H17385   2.468   6.160   7.025 -1.2438 -1.8659 -1.4312
  126MOL0     H17386   2.684   6.206   7.094  0.9403  0.1681  0.8045
  126MOL0     H17387   2.768   6.118   6.951 -0.4682  0.5799 -1.1840
  126MOL0     H17388   2.802   6.287   7.003  1.8218 -1.3893  0.5761
  127MOL0     O17389  11.300   6.634   1.499  0.7053  0.4643 -0.6891
  127MOL0     C17390  11.274   6.523   1.541  0.5083  0.6065  0.2862
  127MOL0     O17391  11.380   6.434   1.583  0.4066 -0.3730  0.3720
  127MOL0     C17392  11.508   6.467   1.545 -0.5104  0.6544  0.0049
  127MOL0     C17393  11.554   6.424   1.418  0.8239 -1.1535  0.4548
  127MOL0     C17394  11.687   6.439   1.370 -0.3045 -0.9139 -0.3688
  127MOL0     C17395  11.785   6.496   1.457  0.2880 -0.4439  0.1805
  127MOL0     O17396  11.916   6.501   1.408 -0.1204 -0.6498 -0.3822
  127MOL0     C17397  12.016   6.592   1.471 -0.0666  0.2529  0.6551
  127MOL0     C17398  12.146   6.585   1.404  0.1531  0.4057 -0.2746
  127MOL0     C17399  12.219   6.449   1.440  0.3631  0.0238 -0.3841
  127MOL0     C17400  12.271   6.402   1.298  0.3890 -0.4596 -0.8662
  127MOL0     C17401  12.354   6.275   1.330  0.8339  0.4685  0.5210
  127MOL0     C17402  12.506   6.307   1.307  0.2304  0.0352 -0.1447
  127MOL0     C17403  12.600   6.202   1.385  0.5934  0.2830 -0.0926
  127MOL0     C17404  12.608   6.062   1.326 -0.6197  0.8810 -0.2945
  127MOL0     N17405  12.628   6.061   1.177  1.1438  0.1557 -0.4627
  127MOL0     C17406  12.748   6.119   1.120 -0.1179 -0.0474  0.3460
  127MOL0     C17407  12.741   6.079   0.990 -0.1184 -0.3175 -0.0365
  127MOL0     C17408  12.838   6.093   0.870 -0.9286  0.3297  0.1149
  127MOL0     C17409  12.907   6.229   0.873 -0.0919 -0.2434  0.2207
  127MOL0     C17410  12.973   6.267   0.740 -0.1182  0.5719  0.1212
  127MOL0     C17411  13.029   6.404   0.740 -0.2960  0.4648  0.3447
  127MOL0     O17412  13.147   6.433   0.827 -0.4025 -0.3868 -0.1193
  127MOL0     C17413  13.200   6.560   0.815  0.0247 -0.0562 -0.0943
  127MOL0     C17414  13.172   6.663   0.726 -0.5722 -0.0330 -0.3034
  127MOL0     C17415  13.230   6.788   0.715 -0.9535  0.1592 -0.0475
  127MOL0     C17416  13.215   6.863   0.584  0.4470  0.1959 -0.1713
  127MOL0     C17417  13.318   6.828   0.816 -0.3938 -0.2840  0.3766
  127MOL0     C17418  13.396   6.961   0.811 -0.0003  0.6805 -0.5994
  127MOL0     O17419  13.382   7.053   0.711  0.1068  0.1600 -0.5267
  127MOL0     C17420  13.459   7.175   0.722  0.4563  0.2078  0.4263
  127MOL0     C17421  13.595   7.180   0.727 -0.1654 -0.5505 -0.6527
  127MOL0     C17422  13.657   7.306   0.727 -0.2097 -0.7753  0.0859
  127MOL0     C17423  13.583   7.426   0.723  0.2769  0.3467 -0.7881
  127MOL0     O17424  13.655   7.544   0.736  0.0127  0.6459 -0.3858
  127MOL0     C17425  13.608   7.649   0.656 -0.0915 -0.5003 -0.5756
  127MOL0     C17426  13.714   7.758   0.654 -0.0792 -0.2458 -0.5688
  127MOL0     C17427  13.844   7.712   0.563 -0.0034  0.3819  0.6264
  127MOL0     C17428  13.907   7.837   0.502  0.1338  0.2174 -0.1825
  127MOL0     C17429  14.040   7.823   0.427  0.2653 -0.5783 -0.0005
  127MOL0     C17430  14.067   7.946   0.349 -0.0824  0.2139 -0.5169
  127MOL0     C17431  14.220   7.969   0.332 -0.6842  0.5602 -1.0082
  127MOL0     C17432  14.288   7.860   0.242  0.1838  0.0134  1.1578
  127MOL0    Cl17433  14.230   7.903   0.081  0.2932 -0.1320 -0.0151
  127MOL0     C17434  13.445   7.414   0.717  0.2045  0.3498  0.2344
  127MOL0     C17435  13.387   7.286   0.704  0.2806  0.9339  0.4226
  127MOL0     O17436  13.462   6.982   0.913  0.6825  0.2146  0.0776
  127MOL0     C17437  13.328   6.744   0.923  0.5141  0.7964 -0.5655
  127MOL0     C17438  13.275   6.609   0.920 -0.2184  0.2786  0.1262
  127MOL0     N17439  12.628   6.000   0.985 -1.4280  0.3730  0.2989
  127MOL0     N17440  12.563   5.983   1.097  1.5135 -0.2197 -1.0408
  127MOL0     C17441  11.739   6.555   1.577 -0.2920  0.2402 -0.2755
  127MOL0     C17442  11.602   6.542   1.618  0.2466 -0.1410 -0.3218
  127MOL0     C17443  11.133   6.480   1.554 -0.9059 -0.4749  0.0230
  127MOL0     C17444  11.102   6.345   1.556 -0.6771  0.4103 -0.0020
  127MOL0     C17445  10.969   6.301   1.574  0.0922 -0.4862 -0.0906
  127MOL0     C17446  10.874   6.392   1.602  0.5667 -0.6948  0.2227
  127MOL0     O17447  10.747   6.342   1.615 -0.2669 -0.1124  0.1890
  127MOL0     C17448  10.664   6.419   1.699 -0.1175 -0.4734 -0.5555
  127MOL0     C17449  10.550   6.342   1.758 -0.1022 -0.5904 -0.4110
  127MOL0     C17450  10.585   6.197   1.795 -0.5970  0.8052 -0.0362
  127MOL0     C17451  10.469   6.136   1.879 -0.2414 -0.3168 -0.2294
  127MOL0     C17452  10.349   6.106   1.798 -0.0011 -0.8522  0.1517
  127MOL0     C17453  10.257   6.084   1.719 -0.0769  0.6611 -0.2365
  127MOL0     C17454  10.901   6.530   1.601  0.3598 -0.5798 -0.2937
  127MOL0     C17455  11.031   6.579   1.583 -0.0085 -0.0241 -0.2901
  127MOL0     C17456  11.051   6.726   1.618 -0.0529  0.0468 -0.3050
  127MOL0     H17457  11.491   6.368   1.350  1.6186 -1.2075 -0.2469
  127MOL0     H17458  11.716   6.411   1.270  1.2364 -2.0599  0.3560
  127MOL0     H17459  12.030   6.565   1.576  1.7473 -0.9832  0.1543
  127MOL0     H17460  11.982   6.695   1.469 -2.7099 -0.5145  1.8168
  127MOL0     H17461  12.119   6.590   1.299 -0.2507  0.6229 -0.1596
  127MOL0     H17462  12.208   6.673   1.426  2.5268 -1.2417  0.0750
  127MOL0     H17463  12.306   6.456   1.506 -0.8092 -0.6064  1.3069
  127MOL0     H17464  12.161   6.369   1.487  1.3196 -0.9996 -0.8852
  127MOL0     H17465  12.199   6.374   1.222 -1.5108 -0.8730  0.9982
  127MOL0     H17466  12.329   6.484   1.253 -1.7205  0.4883 -1.9585
  127MOL0     H17467  12.320   6.194   1.265 -1.1762  2.1133 -0.5588
  127MOL0     H17468  12.344   6.245   1.435  2.2571  0.0667  0.5683
  127MOL0     H17469  12.537   6.333   1.205  0.2510  0.4122 -0.0466
  127MOL0     H17470  12.528   6.398   1.363 -1.3224 -0.8557  2.0369
  127MOL0     H17471  12.566   6.190   1.488  1.6564 -2.2830  0.0395
  127MOL0     H17472  12.699   6.246   1.384 -0.0666  1.8134 -0.2131
  127MOL0     H17473  12.678   5.992   1.373 -3.5977 -1.1905  1.3691
  127MOL0     H17474  12.508   6.023   1.344 -0.8853  0.0835 -3.0235
  127MOL0     H17475  12.832   6.166   1.171  0.1032  0.6338 -0.6340
  127MOL0     H17476  12.790   6.065   0.776  0.6911 -0.6456 -0.4576
  127MOL0     H17477  12.916   6.017   0.885  0.6094  1.9977  0.8601
  127MOL0     H17478  12.840   6.307   0.908  0.2809 -0.6827  1.9808
  127MOL0     H17479  12.982   6.222   0.952  0.9034  3.9088 -0.1292
  127MOL0     H17480  13.061   6.202   0.744 -1.0709 -0.6836  2.1049
  127MOL0     H17481  12.904   6.238   0.660 -0.7525 -4.7197  2.1908
  127MOL0     H17482  13.054   6.423   0.635 -2.7837  1.0705 -0.2094
  127MOL0     H17483  12.945   6.470   0.763  0.5576  1.0122  2.0264
  127MOL0     H17484  13.102   6.651   0.645  0.3044 -0.8260 -0.9601
  127MOL0     H17485  13.311   6.895   0.543  0.1612 -0.7135 -1.6413
  127MOL0     H17486  13.144   6.946   0.591 -0.1866 -0.3058 -0.5122
  127MOL0     H17487  13.182   6.796   0.503  2.4112 -0.8015 -0.2198
  127MOL0     H17488  13.641   7.082   0.726  3.9293  1.1308 -2.6924
  127MOL0     H17489  13.764   7.319   0.727 -0.6013  4.3299  0.4168
  127MOL0     H17490  13.601   7.613   0.553 -0.5308 -0.6048 -0.5103
  127MOL0     H17491  13.512   7.691   0.689  0.4010  1.1920 -1.1676
  127MOL0     H17492  13.675   7.845   0.602 -1.6922 -0.6989 -0.1710
  127MOL0     H17493  13.733   7.780   0.760 -1.0910  2.1505 -0.8310
  127MOL0     H17494  13.820   7.648   0.478  2.4891 -0.5733  0.5756
  127MOL0     H17495  13.924   7.663   0.619  1.0762 -1.2558 -2.1651
  127MOL0     H17496  13.936   7.908   0.580  0.8094 -1.0388  0.7303
  127MOL0     H17497  13.835   7.893   0.441 -0.1253  1.4697  1.1989
  127MOL0     H17498  14.114   7.812   0.507  0.0325  1.5027  0.5760
  127MOL0     H17499  14.033   7.731   0.369  3.0449 -0.6239 -0.4296
  127MOL0     H17500  14.031   8.032   0.405  1.5184  0.1789  0.6375
  127MOL0     H17501  14.018   7.937   0.252 -1.0472  0.2453 -0.0369
  127MOL0     H17502  14.275   7.971   0.427  0.4276  0.9996 -1.6465
  127MOL0     H17503  14.247   8.063   0.283 -0.8310  0.6397 -0.9417
  127MOL0     H17504  14.265   7.760   0.280  0.7668 -0.8348 -0.6403
  127MOL0     H17505  14.397   7.861   0.251  0.3400 -0.1032 -0.4490
  127MOL0     H17506  13.375   7.496   0.716 -0.5400 -0.2261 -2.1251
  127MOL0     H17507  13.278   7.284   0.704  0.2748 -0.0841 -0.6334
  127MOL0     H17508  13.386   6.778   1.008 -0.4613  2.8334 -0.6658
  127MOL0     H17509  13.275   6.540   1.003 -1.9606 -0.4527 -0.4378
  127MOL0     H17510  11.811   6.611   1.636 -0.9577  2.4025 -1.4201
  127MOL0     H17511  11.577   6.577   1.718 -0.5215  1.0760 -0.9227
  127MOL0     H17512  11.173   6.266   1.534  0.1512  1.7319 -2.5264
  127MOL0     H17513  10.956   6.193   1.578 -1.4710 -0.2784  1.4710
  127MOL0     H17514  10.718   6.465   1.781 -0.4742 -0.2307 -0.4522
  127MOL0     H17515  10.618   6.494   1.633  1.5264 -0.7023 -2.0279
  127MOL0     H17516  10.466   6.330   1.690 -0.4129 -0.9703  0.0309
  127MOL0     H17517  10.517   6.400   1.845  3.3635  0.0987  0.6063
  127MOL0     H17518  10.594   6.144   1.699 -2.5354 -2.1949  1.2918
  127MOL0     H17519  10.682   6.198   1.846 -0.7459 -1.1685  0.3805
  127MOL0     H17520  10.444   6.203   1.961  0.5515  2.1411 -1.8769
  127MOL0     H17521  10.494   6.035   1.914  2.2625 -0.1481 -1.3421
  127MOL0     H17522  10.172   6.080   1.654  1.5118  0.8819 -2.4241
  127MOL0     H17523  10.829   6.609   1.622  0.0593 -0.4191 -1.7828
  127MOL0     H17524  10.967   6.789   1.649  0.3702  0.6300 -0.3267
  127MOL0     H17525  11.133   6.737   1.689  0.9514  0.1764 -1.4690
  127MOL0     H17526  11.075   6.782   1.528  1.4385  0.7517  0.5087
  128MOL0     O17527   8.566   0.503  10.483 -0.7100 -0.2058 -0.1048
  128MOL0     C17528   8.456   0.473  10.526  0.2589  0.1561  0.7022
  128MOL0     O17529   8.413   0.515  10.654 -0.1817  0.0374 -0.2111
  128MOL0     C17530   8.481   0.619  10.712  0.1172 -0.0113  0.5560
  128MOL0     C17531   8.511   0.609  10.845 -0.4346  0.4430  0.8563
  128MOL0     C17532   8.562   0.712  10.917 -0.1881  0.5927  0.0352
  128MOL0     C17533   8.593   0.836  10.849 -0.7849 -0.6994  0.3043
  128MOL0     O17534   8.657   0.950  10.901 -0.2505 -0.3678 -0.5499
  128MOL0     C17535   8.673   0.960  11.043 -0.1845 -0.1814 -0.3391
  128MOL0     C17536   8.739   1.083  11.100 -0.0828  0.3725  0.2534
  128MOL0     C17537   8.876   1.115  11.036 -0.0535  0.4329  0.0332
  128MOL0     C17538   8.924   1.262  11.065 -0.1159  0.8530  0.3936
  128MOL0     C17539   9.071   1.284  11.052 -0.2646 -0.1430  0.9275
  128MOL0     C17540   9.118   1.425  11.069 -0.2250  0.4534  0.2023
  128MOL0     C17541   9.265   1.426  11.118  0.0112 -0.7365 -1.2150
  128MOL0     C17542   9.362   1.429  10.996 -0.4506  0.6220  0.1949
  128MOL0     N17543   9.495   1.441  11.047  0.1802 -0.0930 -0.5806
  128MOL0     C17544   9.572   1.341  11.103 -0.0470 -0.4968  0.0836
  128MOL0     C17545   9.687   1.402  11.138 -0.4662  0.2720  0.7168
  128MOL0     C17546   9.819   1.345  11.194 -0.5950  1.0033  0.7223
  128MOL0     C17547   9.948   1.383  11.105 -0.5503 -0.4410  0.0267
  128MOL0     C17548  10.068   1.340  11.177 -0.5897 -1.3837 -0.2013
  128MOL0     C17549  10.196   1.396  11.116 -0.3938  0.1410  0.4397
  128MOL0     O17550  10.311   1.329  11.173  0.4367 -0.0435 -0.6191
  128MOL0     C17551  10.432   1.360  11.118 -0.4183 -1.2411  1.2907
  128MOL0     C17552  10.456   1.469  11.025 -0.3040 -0.2528  0.1212
  128MOL0     C17553  10.580   1.498  10.967  0.3588  0.6270 -0.5723
  128MOL0     C17554  10.591   1.607  10.858  0.7006 -0.1364  0.1812
  128MOL0     C17555  10.698   1.439  11.036 -0.7244 -0.0886 -0.6004
  128MOL0     C17556  10.838   1.473  10.992  0.5034  0.0865 -0.7923
  128MOL0     O17557  10.923   1.444  11.090 -0.5547 -0.1006  0.0677
  128MOL0     C17558  11.061   1.417  11.064 -0.4810 -1.0686 -0.1534
  128MOL0     C17559  11.138   1.496  10.973  0.6731 -0.1993  0.1086
  128MOL0     C17560  11.273   1.465  10.967  0.0178 -0.0039 -0.0182
  128MOL0     C17561  11.332   1.365  11.041  0.1399 -0.7758  0.9748
  128MOL0     O17562  11.466   1.344  11.020 -0.0615  0.4331 -0.0015
  128MOL0     C17563  11.515   1.210  11.050  0.5322  0.2553  0.2991
  128MOL0     C17564  11.664   1.214  11.012 -0.6415 -0.3326  0.3354
  128MOL0     C17565  11.729   1.087  11.060 -0.1466 -0.4477 -0.7453
  128MOL0     C17566  11.872   1.077  11.014  0.2380 -0.7448  0.6043
  128MOL0     C17567  11.942   0.964  11.077 -0.0259  0.7450  0.3951
  128MOL0     C17568  12.092   0.980  11.083  0.4687  0.2310  0.4183
  128MOL0     C17569  12.166   0.855  11.133 -0.0567 -0.6524  0.6463
  128MOL0     C17570  12.307   0.839  11.082 -0.4647  0.3801 -0.3545
  128MOL0    Cl17571  12.393   0.999  11.116  0.2132 -0.1077  0.2365
  128MOL0     C17572  11.255   1.292  11.131  0.6119  0.6901 -0.4434
  128MOL0     C17573  11.117   1.328  11.159 -0.1189 -0.3233 -0.4185
  128MOL0     O17574  10.867   1.505  10.877  0.2744 -0.2971  0.5245
  128MOL0     C17575  10.674   1.334  11.134  0.2858  0.9660 -0.0422
  128MOL0     C17576  10.541   1.295  11.159 -0.0401 -0.5779 -0.6372
  128MOL0     N17577   9.684   1.537  11.098 -0.2188  0.4541 -0.1697
  128MOL0     N17578   9.555   1.556  11.068 -0.0385 -1.1365  0.6852
  128MOL0     C17579   8.566   0.852  10.714 -0.3477  0.4847  1.0241
  128MOL0     C17580   8.509   0.737  10.644  0.2650  0.3340  0.2787
  128MOL0     C17581   8.374   0.381  10.454  0.3382  0.2605  0.8898
  128MOL0     C17582   8.266   0.327  10.525  0.0812  0.3753  0.3145
  128MOL0     C17583   8.178   0.239  10.461 -0.7711 -0.0676  0.0496
  128MOL0     C17584   8.189   0.195  10.331  0.6918 -0.4752 -0.1747
  128MOL0     O17585   8.103   0.117  10.259 -0.9673 -0.7282 -0.1092
  128MOL0     C17586   7.962   0.138  10.264  0.7439 -0.0592 -0.4125
  128MOL0     C17587   7.886   0.003  10.299  0.0735  0.2452 -0.3938
  128MOL0     C17588   7.947  -0.070  10.423  0.4025 -0.2319  0.7730
  128MOL0     C17589   7.852  -0.156  10.515  0.6298  0.7423 -0.3326
  128MOL0     C17590   7.756  -0.248  10.448  0.2139  0.9987  0.2221
  128MOL0     C17591   7.673  -0.327  10.386 -0.5985  1.2392 -0.2909
  128MOL0     C17592   8.298   0.240  10.260  0.1786 -0.1679  0.1733
  128MOL0     C17593   8.398   0.327  10.323  0.0738 -0.6759 -0.2379
  128MOL0     C17594   8.519   0.349  10.239  0.3015  0.2225 -0.5381
  128MOL0     H17595   8.495   0.512  10.892  1.7794 -0.6725 -0.5511
  128MOL0     H17596   8.588   0.690  11.020  1.5753  1.7206 -0.1158
  128MOL0     H17597   8.710   0.865  11.083  0.6532  0.8276  1.3884
  128MOL0     H17598   8.568   0.964  11.072 -0.0469  1.5428  0.0036
  128MOL0     H17599   8.663   1.160  11.089 -1.9303 -1.2715  0.8461
  128MOL0     H17600   8.753   1.070  11.207 -3.4772 -1.4267  0.6191
  128MOL0     H17601   8.947   1.042  11.074  2.1071  1.9015 -0.9625
  128MOL0     H17602   8.869   1.099  10.928  0.3703 -1.6141  0.2732
  128MOL0     H17603   8.881   1.330  10.991 -1.7746 -1.2906 -0.7026
  128MOL0     H17604   8.897   1.298  11.164  3.5854  3.4534  0.6807
  128MOL0     H17605   9.091   1.254  10.949 -2.0188 -1.7184  0.9893
  128MOL0     H17606   9.109   1.205  11.117  0.1366  0.6294  1.6517
  128MOL0     H17607   9.101   1.493  10.985 -2.0749  3.3392  2.6752
  128MOL0     H17608   9.062   1.477  11.147  1.1981 -1.0552  2.3378
  128MOL0     H17609   9.289   1.342  11.184  0.2599 -0.6843 -1.2417
  128MOL0     H17610   9.262   1.524  11.166 -3.2879 -0.0550 -2.5240
  128MOL0     H17611   9.356   1.342  10.931 -0.1460 -0.0945  1.1074
  128MOL0     H17612   9.335   1.510  10.927 -1.8149 -0.8750 -1.1125
  128MOL0     H17613   9.552   1.234  11.110 -0.3169 -0.3665  1.7158
  128MOL0     H17614   9.813   1.236  11.188 -0.7249  0.9720  1.3490
  128MOL0     H17615   9.853   1.384  11.291  1.5437  4.0760 -1.0855
  128MOL0     H17616   9.940   1.336  11.006 -2.7910  1.4392 -0.8156
  128MOL0     H17617   9.947   1.493  11.099 -2.3133 -0.4595 -0.9214
  128MOL0     H17618  10.070   1.362  11.284  1.0530 -0.6091 -0.3575
  128MOL0     H17619  10.076   1.231  11.181 -0.2556 -1.3231  1.6896
  128MOL0     H17620  10.193   1.378  11.008 -1.0205  1.3505  0.2368
  128MOL0     H17621  10.212   1.503  11.109 -1.5807  0.2199 -3.3153
  128MOL0     H17622  10.372   1.520  10.979 -0.8772 -0.7836  0.5673
  128MOL0     H17623  10.605   1.567  10.757  0.0482 -2.5577  0.9733
  128MOL0     H17624  10.680   1.660  10.893  2.0126 -3.4294  2.2984
  128MOL0     H17625  10.501   1.669  10.864  0.0126 -0.9259 -1.3187
  128MOL0     H17626  11.102   1.580  10.914  1.4861  0.3711  0.4125
  128MOL0     H17627  11.336   1.512  10.892 -0.3382  0.9112  0.2548
  128MOL0     H17628  11.501   1.185  11.156  2.7626 -0.9799  0.3656
  128MOL0     H17629  11.449   1.141  10.998 -0.4820 -0.2902  2.2156
  128MOL0     H17630  11.683   1.237  10.907 -1.5843  1.0539  0.4477
  128MOL0     H17631  11.713   1.288  11.076  1.9366  0.1524 -2.0061
  128MOL0     H17632  11.680   1.001  11.012 -2.5902  1.9379 -2.8138
  128MOL0     H17633  11.720   1.085  11.169  2.8437 -2.1046 -0.4258
  128MOL0     H17634  11.924   1.168  11.043  1.1611 -0.8722 -0.5468
  128MOL0     H17635  11.872   1.086  10.905 -1.4192  4.8473  0.7654
  128MOL0     H17636  11.908   0.953  11.181  1.8039 -1.1153  0.8720
  128MOL0     H17637  11.911   0.872  11.026  1.1269  0.3709  0.3483
  128MOL0     H17638  12.116   1.069  11.142 -2.7774  2.3370 -1.1439
  128MOL0     H17639  12.133   0.996  10.983 -0.7104 -0.0328 -0.1260
  128MOL0     H17640  12.103   0.767  11.117 -2.2576  1.1610 -1.5173
  128MOL0     H17641  12.184   0.866  11.241 -0.8022 -0.7521  0.7873
  128MOL0     H17642  12.298   0.812  10.976 -2.6926  1.6677 -0.5536
  128MOL0     H17643  12.355   0.758  11.139  1.2083  1.1601 -0.6044
  128MOL0     H17644  11.290   1.209  11.191 -1.3134  0.8719  1.0538
  128MOL0     H17645  11.067   1.278  11.241  1.8758 -0.4904  0.7488
  128MOL0     H17646  10.743   1.270  11.187 -2.3042 -2.4030 -0.3927
  128MOL0     H17647  10.541   1.208  11.224  0.8157  1.1700  1.8730
  128MOL0     H17648   8.582   0.938  10.650 -2.3031 -0.6846 -1.1591
  128MOL0     H17649   8.487   0.758  10.540 -0.5703  0.2601  0.4335
  128MOL0     H17650   8.239   0.362  10.624  1.0438  1.0299  0.3536
  128MOL0     H17651   8.088   0.220  10.517 -1.5382  0.8846 -0.8316
  128MOL0     H17652   7.935   0.204  10.347 -1.6554 -0.7776 -0.5430
  128MOL0     H17653   7.926   0.184  10.171  1.4631 -1.9639 -1.6819
  128MOL0     H17654   7.894  -0.068  10.216  2.2149  0.1686 -0.1720
  128MOL0     H17655   7.778   0.015  10.314 -0.1343 -0.7485 -0.9938
  128MOL0     H17656   8.030  -0.129  10.384 -0.3411 -0.4433 -0.5900
  128MOL0     H17657   7.990   0.000  10.495  0.6306 -1.9891  2.4240
  128MOL0     H17658   7.786  -0.097  10.580  1.1012 -0.9587  1.8088
  128MOL0     H17659   7.910  -0.217  10.584 -0.3092  0.9379  0.6535
  128MOL0     H17660   7.593  -0.375  10.334  0.2532  0.2335 -0.6890
  128MOL0     H17661   8.310   0.208  10.157  0.3157 -0.5159  0.2976
  128MOL0     H17662   8.518   0.307  10.138  2.2330  0.7002 -0.7904
  128MOL0     H17663   8.538   0.456  10.229  3.0956 -0.1208  0.2132
  128MOL0     H17664   8.617   0.328  10.282  0.8382  1.9635 -0.8373
  129MOL0     O17665   8.394   9.175   0.572  0.1377  0.7700 -0.3063
  129MOL0     C17666   8.428   9.244   0.475  0.8978  1.4256  0.0722
  129MOL0     O17667   8.549   9.299   0.457  0.1084 -0.3593 -0.3591
  129MOL0     C17668   8.651   9.310   0.550 -0.2212  0.6351  0.1690
  129MOL0     C17669   8.682   9.229   0.663 -0.3362  0.6028 -0.5160
  129MOL0     C17670   8.802   9.248   0.735 -0.5709  0.1797  0.3076
  129MOL0     C17671   8.897   9.343   0.704  0.8388 -0.3922 -0.1205
  129MOL0     O17672   8.996   9.341   0.797 -0.0976 -0.3714  0.3232
  129MOL0     C17673   9.118   9.416   0.778 -0.4770 -0.1350  0.8566
  129MOL0     C17674   9.212   9.373   0.659 -0.7542 -0.7738 -0.7577
  129MOL0     C17675   9.337   9.464   0.626 -0.3656 -0.3458 -0.0301
  129MOL0     C17676   9.442   9.467   0.744  0.2519  0.2925 -0.3440
  129MOL0     C17677   9.564   9.559   0.703  0.2138 -0.1232  0.3449
  129MOL0     C17678   9.665   9.549   0.815 -0.3249 -0.0655 -0.5390
  129MOL0     C17679   9.800   9.623   0.780  0.2071 -0.2411  0.2433
  129MOL0     C17680   9.834   9.653   0.637 -0.3245  0.8858 -0.6381
  129MOL0     N17681   9.966   9.718   0.638 -0.1079 -0.2797  0.4506
  129MOL0     C17682   9.983   9.851   0.635  0.3622  0.4968  0.2639
  129MOL0     C17683  10.116   9.868   0.660 -0.3835  0.3331  0.3267
  129MOL0     C17684  10.181  10.003   0.694 -0.6793  0.3098 -0.0823
  129MOL0     C17685  10.337   9.994   0.694 -0.3019 -0.8955 -0.8870
  129MOL0     C17686  10.414  10.131   0.691  0.7341  0.3651  0.0266
  129MOL0     C17687  10.556  10.124   0.713  0.5807  0.1275 -0.0935
  129MOL0     O17688  10.631  10.252   0.693  0.2923 -0.0128  0.1831
  129MOL0     C17689  10.768  10.249   0.710 -0.3114  0.7999  0.4968
  129MOL0     C17690  10.848  10.135   0.726 -0.0022  0.2898  0.4341
  129MOL0     C17691  10.987  10.127   0.712  0.0614 -0.5513  0.4085
  129MOL0     C17692  11.060   9.994   0.729 -0.4045 -0.7953  1.0099
  129MOL0     C17693  11.054  10.247   0.679  0.5128  0.1416  0.0207
  129MOL0     C17694  11.204  10.251   0.646 -0.4801 -0.0443  0.0981
  129MOL0     O17695  11.291  10.200   0.752 -0.5365  0.1924  0.2573
  129MOL0     C17696  11.425  10.168   0.728 -0.6237  0.2900 -0.0441
  129MOL0     C17697  11.474  10.067   0.803 -0.3299 -0.1325  0.3831
  129MOL0     C17698  11.609  10.033   0.792  0.3743  0.7062 -0.1921
  129MOL0     C17699  11.696  10.081   0.686 -0.7165 -0.1903 -0.3238
  129MOL0     O17700  11.828  10.036   0.660  0.1309  0.8448 -0.1288
  129MOL0     C17701  11.844   9.907   0.712 -0.5073 -0.4253 -0.7419
  129MOL0     C17702  11.968   9.842   0.640 -0.1437 -0.8261  0.4563
  129MOL0     C17703  12.098   9.910   0.673 -0.0744  0.4747  0.1690
  129MOL0     C17704  12.225   9.844   0.631  0.1264 -0.2803 -0.6386
  129MOL0     C17705  12.352   9.912   0.671 -0.1895 -0.5869  0.1167
  129MOL0     C17706  12.359  10.060   0.624  0.6621  0.2525  0.3662
  129MOL0     C17707  12.499  10.113   0.629 -0.7045 -0.6242 -0.4206
  129MOL0     C17708  12.552  10.106   0.771  0.8604  0.8406  0.0371
  129MOL0    Cl17709  12.671  10.223   0.804 -0.4544  0.5669  0.0895
  129MOL0     C17710  11.642  10.185   0.609  0.5251  0.1902 -0.6293
  129MOL0     C17711  11.511  10.221   0.632  0.1444 -0.7820 -0.6900
  129MOL0     O17712  11.241  10.309   0.544  0.6127  0.2999  0.2413
  129MOL0     C17713  10.976  10.366   0.672 -0.3942 -0.5757  0.2744
  129MOL0     C17714  10.844  10.363   0.691 -0.0622 -0.3841 -0.3156
  129MOL0     N17715  10.180   9.743   0.660  0.5673  0.1983 -0.0396
  129MOL0     N17716  10.085   9.659   0.642  1.1005  0.3147  0.0441
  129MOL0     C17717   8.862   9.431   0.596 -0.0712  0.5590  0.2919
  129MOL0     C17718   8.735   9.421   0.527 -0.1379  0.4806  0.3083
  129MOL0     C17719   8.337   9.240   0.359 -0.4507  0.0346  0.4127
  129MOL0     C17720   8.402   9.264   0.236  0.0927 -0.0289  0.7947
  129MOL0     C17721   8.331   9.260   0.118 -0.4167  0.1690  0.1838
  129MOL0     C17722   8.196   9.224   0.117 -0.0970 -0.7879 -0.7598
  129MOL0     O17723   8.129   9.212  -0.001  0.1508 -0.1865  0.4499
  129MOL0     C17724   8.181   9.121  -0.100  0.0745 -0.5352  0.9660
  129MOL0     C17725   8.177   8.974  -0.060 -0.8140 -0.3883 -0.2438
  129MOL0     C17726   8.035   8.911  -0.084 -0.1035  0.3810  0.3912
  129MOL0     C17727   8.038   8.767  -0.026  0.0912 -0.1748  0.6387
  129MOL0     C17728   8.092   8.686  -0.135 -0.2780  0.3877  0.7237
  129MOL0     C17729   8.127   8.637  -0.235  0.0674  0.0428 -0.1628
  129MOL0     C17730   8.134   9.202   0.236 -0.0581  0.2302 -0.0054
  129MOL0     C17731   8.203   9.208   0.354 -0.8660 -0.3111 -0.6530
  129MOL0     C17732   8.115   9.180   0.470  0.6491 -0.6334  0.2289
  129MOL0     H17733   8.621   9.145   0.692 -2.3745  2.0598 -0.3687
  129MOL0     H17734   8.812   9.188   0.825 -0.7716 -0.7787 -0.2942
  129MOL0     H17735   9.181   9.398   0.866  0.8328 -0.4866 -0.1160
  129MOL0     H17736   9.096   9.522   0.764 -0.9309 -0.6056 -2.7342
  129MOL0     H17737   9.268   9.285   0.692  2.2174  1.8668  1.8376
  129MOL0     H17738   9.148   9.348   0.573 -0.9310  0.6564 -1.0722
  129MOL0     H17739   9.380   9.429   0.532 -1.4791  0.3697 -0.8235
  129MOL0     H17740   9.302   9.567   0.628 -0.0630 -0.2521  1.0249
  129MOL0     H17741   9.396   9.517   0.830  4.4514  1.9422  1.1937
  129MOL0     H17742   9.475   9.368   0.778 -1.5091  0.5908  2.5882
  129MOL0     H17743   9.522   9.658   0.683  1.2906  0.7862  2.2215
  129MOL0     H17744   9.609   9.529   0.608 -0.8886 -0.4216 -0.0905
  129MOL0     H17745   9.631   9.587   0.912  3.6344 -0.4203  1.2061
  129MOL0     H17746   9.681   9.442   0.830 -1.4207 -0.0808  0.7746
  129MOL0     H17747   9.875   9.562   0.830 -0.4528 -0.3785  1.1051
  129MOL0     H17748   9.796   9.723   0.826 -0.2940  0.5678 -1.4588
  129MOL0     H17749   9.833   9.569   0.567  1.7767  0.9868 -0.8539
  129MOL0     H17750   9.758   9.727   0.608  0.9839  2.4524 -0.1991
  129MOL0     H17751   9.909   9.930   0.626  0.2674  0.8240  3.0345
  129MOL0     H17752  10.144  10.030   0.794  0.9163  2.2773  0.0352
  129MOL0     H17753  10.140  10.080   0.628 -2.2261  0.1677  0.6603
  129MOL0     H17754  10.354   9.951   0.793 -1.7837  1.0253  0.2655
  129MOL0     H17755  10.370   9.928   0.613  2.4952 -2.6818  1.5020
  129MOL0     H17756  10.398  10.185   0.597  1.4239  0.2354 -0.1719
  129MOL0     H17757  10.376  10.184   0.778  1.5957  0.2685  0.4672
  129MOL0     H17758  10.554  10.094   0.818 -3.7272  2.9536  0.8938
  129MOL0     H17759  10.603  10.047   0.651 -0.4966  2.8811 -4.8414
  129MOL0     H17760  10.799  10.041   0.752 -1.9743  1.0696 -0.2568
  129MOL0     H17761  11.152  10.008   0.786  0.6686 -0.9624 -0.6075
  129MOL0     H17762  11.100   9.952   0.636  2.3739  2.0747  0.7555
  129MOL0     H17763  10.994   9.919   0.775 -1.5452  0.7601  2.0344
  129MOL0     H17764  11.414  10.022   0.881 -1.9047 -0.5890 -1.0183
  129MOL0     H17765  11.650   9.966   0.867  0.2047  0.7277 -0.0802
  129MOL0     H17766  11.869   9.916   0.818 -1.9185  2.2522 -0.5579
  129MOL0     H17767  11.759   9.839   0.710 -1.2650  0.4817 -0.3206
  129MOL0     H17768  11.972   9.738   0.676 -1.0386 -1.3034 -0.7393
  129MOL0     H17769  11.955   9.855   0.532 -0.3392 -0.7431  0.4893
  129MOL0     H17770  12.092   9.911   0.782 -1.9424 -1.9016  0.1555
  129MOL0     H17771  12.090  10.011   0.631 -2.0442 -0.3727 -1.6604
  129MOL0     H17772  12.230   9.835   0.522  1.1989 -0.0147 -0.6229
  129MOL0     H17773  12.223   9.740   0.667 -1.8756 -0.8547 -2.2306
  129MOL0     H17774  12.338   9.909   0.779 -1.0478 -2.0367 -0.0028
  129MOL0     H17775  12.438   9.861   0.627  0.0711 -1.3488  1.4430
  129MOL0     H17776  12.291  10.119   0.686 -0.5111  0.3591 -0.9744
  129MOL0     H17777  12.318  10.069   0.523 -0.7362 -4.9171  0.2074
  129MOL0     H17778  12.497  10.218   0.598 -3.7582 -0.8622 -1.4129
  129MOL0     H17779  12.567  10.052   0.569  1.0531  1.7134 -0.9864
  129MOL0     H17780  12.600  10.010   0.789  3.4329  2.2003  1.0449
  129MOL0     H17781  12.468  10.110   0.841  0.1650  0.1689 -0.7496
  129MOL0     H17782  11.705  10.232   0.534  1.2806 -1.1969 -0.9012
  129MOL0     H17783  11.472  10.306   0.576  1.1671  0.9449  1.0776
  129MOL0     H17784  11.018  10.463   0.647 -0.5777 -0.6323 -0.2692
  129MOL0     H17785  10.795  10.455   0.662  2.1485  0.5480 -1.3316
  129MOL0     H17786   8.935   9.506   0.567  0.5118  0.3942  1.2835
  129MOL0     H17787   8.708   9.491   0.449  0.8073 -1.2236 -1.6366
  129MOL0     H17788   8.507   9.289   0.235  0.5157 -1.2725  3.9370
  129MOL0     H17789   8.390   9.281   0.029 -0.3452 -0.4897  0.0673
  129MOL0     H17790   8.126   9.138  -0.193  0.9332  2.5806  0.8959
  129MOL0     H17791   8.282   9.154  -0.129  0.9708 -4.6453 -1.2686
  129MOL0     H17792   8.213   8.959   0.043  2.4105 -0.7618 -1.2982
  129MOL0     H17793   8.258   8.923  -0.113  0.5744  1.0546  0.4029
  129MOL0     H17794   7.961   8.980  -0.042  1.8418  3.7043 -1.2714
  129MOL0     H17795   8.011   8.913  -0.191  0.3471 -1.3482  0.2271
  129MOL0     H17796   7.943   8.726   0.010 -0.6150  0.9034  0.0665
  129MOL0     H17797   8.099   8.762   0.064 -1.4126 -1.8132  1.6267
  129MOL0     H17798   8.174   8.576  -0.309 -2.3711 -2.4349  0.1993
  129MOL0     H17799   8.035   9.157   0.241  0.8120 -1.6325  2.1210
  129MOL0     H17800   8.163   9.223   0.558  1.8540 -1.6510  0.0889
  129MOL0     H17801   8.014   9.222   0.462  1.2689  1.0592  0.7404
  129MOL0     H17802   8.093   9.074   0.488 -1.0903 -0.8232 -2.4041
  130MOL0     O17803  11.221  10.352   8.876  0.1105  0.0848  0.7636
  130MOL0     C17804  11.151  10.410   8.960 -0.2752  0.0669  0.7312
  130MOL0     O17805  11.190  10.453   9.081  0.5109  0.0874  0.4600
  130MOL0     C17806  11.318  10.479   9.119  0.0847  0.0670  0.2519
  130MOL0     C17807  11.342  10.585   9.209  0.3940 -0.2405 -0.3157
  130MOL0     C17808  11.465  10.617   9.257 -0.0501  0.7131  0.0390
  130MOL0     C17809  11.580  10.547   9.212  0.1325  0.5880 -0.1579
  130MOL0     O17810  11.701  10.593   9.260 -0.0543 -0.3706 -0.0378
  130MOL0     C17811  11.828  10.545   9.212 -0.2102  0.7737  0.6793
  130MOL0     C17812  11.925  10.605   9.311  0.7658  0.1973  0.3358
  130MOL0     C17813  12.071  10.582   9.291 -0.2010 -0.7324 -0.0501
  130MOL0     C17814  12.130  10.662   9.174  0.6196 -0.2360  0.1872
  130MOL0     C17815  12.285  10.679   9.193  0.7309 -1.0410 -0.0322
  130MOL0     C17816  12.355  10.767   9.080  0.0635  0.1802  0.2012
  130MOL0     C17817  12.336  10.698   8.940  0.4229 -0.0900  1.1973
  130MOL0     C17818  12.391  10.550   8.919 -0.2057 -0.2243 -0.5892
  130MOL0     N17819  12.532  10.533   8.962 -0.3702  0.5459 -0.0645
  130MOL0     C17820  12.633  10.627   8.951 -0.0300 -0.5036  0.7792
  130MOL0     C17821  12.742  10.563   8.982  0.4782  0.3865 -0.0914
  130MOL0     C17822  12.875  10.631   8.985 -0.4517  0.3707 -0.0977
  130MOL0     C17823  12.954  10.573   8.862 -0.0610  0.3439 -0.0872
  130MOL0     C17824  13.101  10.634   8.865  1.0763 -0.1668  0.0448
  130MOL0     C17825  13.156  10.646   8.725 -0.2944 -0.7517 -0.0167
  130MOL0     O17826  13.200  10.523   8.676  0.2206  0.6911  0.4660
  130MOL0     C17827  13.320  10.524   8.607  0.6781 -0.4866 -0.0304
  130MOL0     C17828  13.341  10.575   8.469 -0.1151  0.1871  0.3907
  130MOL0     C17829  13.467  10.584   8.406 -0.8323  0.1591  0.0307
  130MOL0     C17830  13.463  10.626   8.261  0.9756  0.0002  0.3660
  130MOL0     C17831  13.578  10.546   8.483  0.1404 -0.6407  0.2000
  130MOL0     C17832  13.719  10.568   8.438  0.4605 -0.2512  1.6513
  130MOL0     O17833  13.743  10.650   8.332  0.3037 -0.3898 -0.3227
  130MOL0     C17834  13.870  10.649   8.285  1.0070  0.4226  0.5495
  130MOL0     C17835  13.907  10.548   8.197 -0.8554  0.2943 -0.0289
  130MOL0     C17836  14.043  10.542   8.146  0.0215 -0.2113 -0.4196
  130MOL0     C17837  14.140  10.635   8.184 -0.4902  0.3251  0.5018
  130MOL0     O17838  14.263  10.617   8.116 -0.2908 -0.3390  0.8894
  130MOL0     C17839  14.363  10.713   8.145  0.0375 -0.1619  0.1841
  130MOL0     C17840  14.489  10.642   8.096 -0.2663  0.0348 -0.0455
  130MOL0     C17841  14.510  10.658   7.945 -0.0288  0.6575 -0.6998
  130MOL0     C17842  14.642  10.614   7.885 -0.3003 -0.4519 -0.1337
  130MOL0     C17843  14.635  10.585   7.734  0.2093 -0.5918  0.1806
  130MOL0     C17844  14.768  10.591   7.657  0.4060  0.1580  0.1916
  130MOL0     C17845  14.717  10.575   7.512 -0.1473  0.0899 -0.4438
  130MOL0     C17846  14.832  10.561   7.400  1.0072  0.1212 -0.4793
  130MOL0    Cl17847  14.927  10.713   7.400 -0.3347  0.0147 -0.1659
  130MOL0     C17848  14.108  10.726   8.283 -0.8675 -0.3998 -0.1504
  130MOL0     C17849  13.973  10.733   8.333  0.1736 -0.1336  0.0002
  130MOL0     O17850  13.802  10.497   8.494  0.1885  0.6556 -0.3989
  130MOL0     C17851  13.558  10.496   8.616 -0.0766 -0.4882  0.4160
  130MOL0     C17852  13.432  10.487   8.670 -0.2342  0.6852  0.6435
  130MOL0     N17853  12.709  10.434   9.017 -0.2766 -0.8697  0.3990
  130MOL0     N17854  12.582  10.415   9.012 -0.0978  0.1508  0.5014
  130MOL0     C17855  11.556  10.429   9.125 -0.0848  0.7093 -1.0150
  130MOL0     C17856  11.429  10.395   9.086  0.3606  0.0496  0.0044
  130MOL0     C17857  10.997  10.396   8.945  0.7009 -0.6828 -0.2636
  130MOL0     C17858  10.908  10.495   9.007 -0.4313 -1.2750 -1.1521
  130MOL0     C17859  10.767  10.482   9.012 -0.0695  0.9543  0.6226
  130MOL0     C17860  10.707  10.384   8.931 -0.0971 -0.7216  0.5333
  130MOL0     O17861  10.565  10.379   8.922  0.0088 -0.0027 -0.4940
  130MOL0     C17862  10.496  10.278   8.846  0.1022  0.2640 -0.6250
  130MOL0     C17863  10.366  10.320   8.795  0.3906 -0.5412 -0.2998
  130MOL0     C17864  10.271  10.335   8.917 -0.2092  0.4999  0.5192
  130MOL0     C17865  10.125  10.358   8.858 -0.2188  0.3640 -1.0599
  130MOL0     C17866  10.036  10.407   8.968 -0.3364 -0.2957  0.4700
  130MOL0     C17867   9.966  10.440   9.063  0.2335  0.7594 -0.8032
  130MOL0     C17868  10.789  10.289   8.873 -0.5781  0.1297  0.3176
  130MOL0     C17869  10.933  10.294   8.875  0.1814 -0.8401 -0.7381
  130MOL0     C17870  11.000  10.184   8.790  0.3152  0.3678 -0.0638
  130MOL0     H17871  11.258  10.643   9.246 -0.2633 -1.9966  1.1083
  130MOL0     H17872  11.482  10.687   9.338 -0.3451 -0.3414  1.0417
  130MOL0     H17873  11.848  10.570   9.108  1.0573 -2.0386  0.1432
  130MOL0     H17874  11.829  10.436   9.223 -0.4943  0.7429  0.4003
  130MOL0     H17875  11.913  10.714   9.302  0.9795  0.0564 -5.3470
  130MOL0     H17876  11.901  10.566   9.410  0.2843  1.0732  0.5739
  130MOL0     H17877  12.127  10.608   9.381  1.7819 -1.5563 -1.0011
  130MOL0     H17878  12.087  10.475   9.274 -1.4733 -0.7967 -0.9693
  130MOL0     H17879  12.107  10.614   9.079 -1.2759  1.8013 -0.4612
  130MOL0     H17880  12.082  10.760   9.172  2.3783  0.7123  1.3419
  130MOL0     H17881  12.334  10.581   9.196  1.1000 -0.8541  0.1711
  130MOL0     H17882  12.307  10.728   9.289  0.3888  0.7645 -0.8279
  130MOL0     H17883  12.301  10.862   9.070 -0.9694 -0.6063 -2.6149
  130MOL0     H17884  12.461  10.782   9.101  0.0001  0.2240  0.4940
  130MOL0     H17885  12.381  10.762   8.864 -3.8603  2.0526  0.1602
  130MOL0     H17886  12.232  10.697   8.906  0.8826 -3.3899 -0.5372
  130MOL0     H17887  12.324  10.484   8.974  0.2744  0.1251  0.4575
  130MOL0     H17888  12.371  10.519   8.816 -2.4409  2.7905 -1.1973
  130MOL0     H17889  12.626  10.731   8.923  0.6190 -0.3609  1.1245
  130MOL0     H17890  12.930  10.610   9.078  0.5196 -3.4881 -1.3857
  130MOL0     H17891  12.857  10.739   8.980  0.7203  0.5169 -1.6929
  130MOL0     H17892  12.952  10.465   8.846 -0.0685  0.8408 -4.7172
  130MOL0     H17893  12.900  10.610   8.775 -0.8465  1.9813  1.0511
  130MOL0     H17894  13.120  10.730   8.914  1.1181 -0.0346 -0.2318
  130MOL0     H17895  13.173  10.565   8.912  0.5381  0.2338  1.5258
  130MOL0     H17896  13.080  10.679   8.653  0.5034  0.4993 -0.3032
  130MOL0     H17897  13.234  10.722   8.720 -0.5490 -0.5528 -1.5317
  130MOL0     H17898  13.253  10.591   8.407 -0.2691 -3.4636 -0.5226
  130MOL0     H17899  13.360  10.613   8.225  1.1099 -0.6229  0.1856
  130MOL0     H17900  13.527  10.558   8.204  0.9685 -0.9801  1.4853
  130MOL0     H17901  13.481  10.733   8.253 -0.2336  0.1016 -1.8405
  130MOL0     H17902  13.832  10.483   8.155 -1.6365  1.9557 -1.3108
  130MOL0     H17903  14.058  10.462   8.074 -0.3235 -0.8373  0.1914
  130MOL0     H17904  14.346  10.804   8.087  1.8420 -0.2899 -0.6241
  130MOL0     H17905  14.376  10.740   8.251  3.8823 -1.8031  0.3280
  130MOL0     H17906  14.576  10.686   8.145 -2.4274  4.9729 -0.1114
  130MOL0     H17907  14.476  10.536   8.121 -3.2262  0.0176 -1.2258
  130MOL0     H17908  14.495  10.763   7.920  1.6497  1.5563  1.6437
  130MOL0     H17909  14.440  10.596   7.889  2.9507 -0.7003 -3.2134
  130MOL0     H17910  14.682  10.530   7.943  1.4719 -0.2156 -0.9286
  130MOL0     H17911  14.719  10.688   7.911 -2.3036  0.5616  3.6022
  130MOL0     H17912  14.592  10.487   7.712  1.2645 -0.4442 -3.0211
  130MOL0     H17913  14.569  10.660   7.690 -0.3541 -0.6912  0.8528
  130MOL0     H17914  14.832  10.507   7.686  0.2040 -0.1168 -0.1597
  130MOL0     H17915  14.831  10.678   7.680  1.5772 -0.8401  0.9393
  130MOL0     H17916  14.659  10.662   7.478  1.0546  0.8657 -0.5970
  130MOL0     H17917  14.646  10.494   7.499 -0.7133  0.4193  0.4836
  130MOL0     H17918  14.781  10.548   7.304 -2.2063 -2.2943  1.3304
  130MOL0     H17919  14.889  10.471   7.426 -0.8437 -0.1001  3.6420
  130MOL0     H17920  14.179  10.790   8.332 -0.8675 -1.8019  1.8040
  130MOL0     H17921  13.940  10.804   8.407 -1.3178 -0.7886 -0.0071
  130MOL0     H17922  13.641  10.481   8.683  1.0400  0.8813 -0.5952
  130MOL0     H17923  13.429  10.476   8.778  1.7091  0.5360  0.7084
  130MOL0     H17924  11.640  10.374   9.085 -0.2567 -0.2078 -0.1645
  130MOL0     H17925  11.408  10.299   9.039 -1.1998 -0.5427  1.7831
  130MOL0     H17926  10.950  10.574   9.069 -0.9229  0.2483 -2.6830
  130MOL0     H17927  10.703  10.546   9.072  1.3403  2.9152  0.1236
  130MOL0     H17928  10.555  10.265   8.755  1.2280 -0.7814  0.2278
  130MOL0     H17929  10.479  10.190   8.909  0.1699  0.0389 -0.9203
  130MOL0     H17930  10.325  10.245   8.726 -1.7828  1.5183 -1.3712
  130MOL0     H17931  10.365  10.418   8.746  1.6244 -0.4278 -0.1152
  130MOL0     H17932  10.271  10.241   8.973 -0.0372  0.3915  0.3361
  130MOL0     H17933  10.295  10.418   8.983 -1.9176  0.1876  1.6274
  130MOL0     H17934  10.089  10.263   8.819 -0.7506 -1.1765  2.7350
  130MOL0     H17935  10.122  10.432   8.778 -1.3440  0.3567 -1.0409
  130MOL0     H17936   9.902  10.479   9.139 -0.8174 -0.6284 -0.9234
  130MOL0     H17937  10.747  10.201   8.824  1.7140 -1.6987  1.4307
  130MOL0     H17938  11.089  10.143   8.838 -0.7108 -1.4863  0.3566
  130MOL0     H17939  10.932  10.100   8.775  0.7707  0.2243 -1.4811
  130MOL0     H17940  11.033  10.218   8.691  1.8465  0.9732  0.6152
  131MOL0     O17941   9.853   5.382   6.768 -0.0358  0.9536  0.1434
  131MOL0     C17942   9.863   5.474   6.679  0.1035 -0.5760 -0.2352
  131MOL0     O17943   9.974   5.508   6.612 -0.8174  0.0579  0.6286
  131MOL0     C17944  10.094   5.438   6.622 -0.0550 -0.2907 -0.1899
  131MOL0     C17945  10.202   5.523   6.584 -0.0671 -0.2602 -0.5514
  131MOL0     C17946  10.334   5.472   6.581  0.3209 -0.3241  0.2943
  131MOL0     C17947  10.360   5.336   6.606 -0.2773  0.4607 -1.0655
  131MOL0     O17948  10.493   5.301   6.611 -0.5672 -0.7481  0.3385
  131MOL0     C17949  10.525   5.167   6.561  0.3801  0.2748  0.1413
  131MOL0     C17950  10.662   5.169   6.509 -0.9770 -0.2329 -0.3579
  131MOL0     C17951  10.770   5.193   6.613  0.0590  0.3953 -0.4956
  131MOL0     C17952  10.913   5.158   6.561  0.0992  1.1412 -0.0369
  131MOL0     C17953  11.029   5.164   6.657  0.4118 -0.6939 -0.7343
  131MOL0     C17954  11.169   5.166   6.577 -0.0879  0.2204  0.3005
  131MOL0     C17955  11.274   5.227   6.671  0.1288  0.6106  0.1899
  131MOL0     C17956  11.416   5.201   6.596 -0.1101  0.6995 -0.2612
  131MOL0     N17957  11.525   5.261   6.667 -0.1279  0.4655  0.9977
  131MOL0     C17958  11.539   5.259   6.807 -0.4919  0.5116 -0.5473
  131MOL0     C17959  11.626   5.352   6.839 -0.9879 -0.2953 -0.3513
  131MOL0     C17960  11.658   5.399   6.979  0.3049 -0.1694 -0.4795
  131MOL0     C17961  11.740   5.525   6.980  0.0996 -0.3074 -0.2455
  131MOL0     C17962  11.668   5.658   6.940  0.2206  0.4695  0.6601
  131MOL0     C17963  11.758   5.773   6.897 -0.2814  0.1471 -0.1491
  131MOL0     O17964  11.828   5.822   7.012 -0.2955  0.2534 -0.0877
  131MOL0     C17965  11.943   5.890   6.981 -0.5150 -0.5571  0.6290
  131MOL0     C17966  12.063   5.821   6.951  0.0314 -0.2437 -0.2940
  131MOL0     C17967  12.188   5.883   6.942  1.6440  0.2842 -0.2332
  131MOL0     C17968  12.306   5.791   6.907 -0.7967 -0.4883  0.1973
  131MOL0     C17969  12.192   6.025   6.969  0.0963  0.4734 -0.5581
  131MOL0     C17970  12.313   6.100   6.989  0.1604 -0.0849 -0.4294
  131MOL0     O17971  12.309   6.227   6.953 -0.3099  0.6614  0.6549
  131MOL0     C17972  12.410   6.322   6.993  0.0610  0.4857 -0.4007
  131MOL0     C17973  12.368   6.452   7.030  0.0789  0.4566  0.0513
  131MOL0     C17974  12.462   6.550   7.065  0.2098  0.3619  0.0427
  131MOL0     C17975  12.593   6.513   7.091  0.2334 -0.7993  0.7096
  131MOL0     O17976  12.688   6.600   7.157 -0.3688  0.1230 -0.1081
  131MOL0     C17977  12.637   6.719   7.213 -0.0548  0.0107  0.0340
  131MOL0     C17978  12.747   6.758   7.312 -0.2901  0.2958  0.0455
  131MOL0     C17979  12.722   6.894   7.373  0.0075  0.4379  0.1596
  131MOL0     C17980  12.807   6.899   7.494  0.0463 -0.1188 -0.2872
  131MOL0     C17981  12.776   7.020   7.577 -0.2674 -0.0090  0.4204
  131MOL0     C17982  12.878   7.040   7.681 -0.2594 -0.6751 -0.6518
  131MOL0     C17983  12.856   7.178   7.745  0.6596 -0.8503 -0.4264
  131MOL0     C17984  12.976   7.223   7.828  0.2975  0.4308 -0.6186
  131MOL0    Cl17985  12.919   7.340   7.942  0.1877  0.4428  0.1765
  131MOL0     C17986  12.633   6.394   7.043 -0.0756 -0.2523  1.2917
  131MOL0     C17987  12.551   6.291   6.992 -0.3231 -0.6475  1.0166
  131MOL0     O17988  12.414   6.040   7.027 -0.4625  0.4164 -1.0309
  131MOL0     C17989  12.067   6.091   6.993  0.4659 -0.2428  0.6981
  131MOL0     C17990  11.944   6.027   6.997  0.3938 -1.2635  0.4064
  131MOL0     N17991  11.666   5.414   6.729 -0.6023 -0.1925 -0.8414
  131MOL0     N17992  11.593   5.374   6.629 -0.2036 -0.2223  0.9484
  131MOL0     C17993  10.252   5.255   6.627  0.1796  0.3313 -0.1155
  131MOL0     C17994  10.119   5.304   6.646 -0.1573  1.0752  0.6252
  131MOL0     C17995   9.739   5.551   6.650  0.0700 -0.3086 -0.4509
  131MOL0     C17996   9.628   5.538   6.738  0.9108 -0.7754 -0.1338
  131MOL0     C17997   9.518   5.622   6.726 -0.6220  0.9352 -0.2705
  131MOL0     C17998   9.507   5.710   6.615  0.3432 -0.0429  0.0864
  131MOL0     O17999   9.403   5.796   6.586  0.3627  0.4324 -1.2861
  131MOL0     C18000   9.350   5.878   6.693 -0.1197  0.1994  0.2737
  131MOL0     C18001   9.328   6.016   6.634 -0.4041  0.5761 -0.7642
  131MOL0     C18002   9.195   6.078   6.650  0.5548 -0.6937 -0.7980
  131MOL0     C18003   9.192   6.231   6.608  0.2738 -0.0298  0.3526
  131MOL0     C18004   9.267   6.331   6.680 -0.1056  0.2373  0.6519
  131MOL0     C18005   9.335   6.415   6.728  0.0271 -1.5435  0.3580
  131MOL0     C18006   9.607   5.715   6.522  0.0294  0.0293 -0.7449
  131MOL0     C18007   9.723   5.640   6.535 -0.1285 -0.0042 -0.0709
  131MOL0     C18008   9.830   5.674   6.424  0.4429  0.9277  0.4782
  131MOL0     H18009  10.186   5.627   6.556  1.5177  0.5802  1.3880
  131MOL0     H18010  10.417   5.539   6.560 -0.4398  0.5909  0.1667
  131MOL0     H18011  10.456   5.152   6.477  1.8621  1.6440 -1.4098
  131MOL0     H18012  10.511   5.093   6.640 -4.2313  0.9397  0.2331
  131MOL0     H18013  10.684   5.074   6.459  2.9512 -0.9999  2.4155
  131MOL0     H18014  10.665   5.258   6.446  0.7609  0.9580  1.2980
  131MOL0     H18015  10.778   5.298   6.640  0.6205 -0.6194  4.0723
  131MOL0     H18016  10.756   5.131   6.702  1.4334  1.0182  0.1773
  131MOL0     H18017  10.910   5.057   6.521  0.3475  0.4955  1.5209
  131MOL0     H18018  10.930   5.225   6.476  0.7528 -1.4947 -2.0982
  131MOL0     H18019  11.031   5.097   6.744  2.3065  1.0369  0.6452
  131MOL0     H18020  11.020   5.264   6.700  1.8922  0.4262 -2.8938
  131MOL0     H18021  11.185   5.063   6.543 -0.6097  1.0950 -2.9120
  131MOL0     H18022  11.169   5.229   6.488  1.3290 -0.1837 -0.0223
  131MOL0     H18023  11.277   5.169   6.764  3.1762 -2.3765 -1.5453
  131MOL0     H18024  11.250   5.330   6.696  0.6140  0.4529  1.3924
  131MOL0     H18025  11.428   5.093   6.581 -1.1648  0.7601 -1.7279
  131MOL0     H18026  11.405   5.239   6.494  1.1865  2.1387  0.1024
  131MOL0     H18027  11.491   5.191   6.878  0.6464  1.1968  0.9268
  131MOL0     H18028  11.708   5.326   7.044  3.8047  0.0562 -2.6709
  131MOL0     H18029  11.561   5.414   7.028 -0.6542 -0.7198 -2.1344
  131MOL0     H18030  11.772   5.541   7.083 -2.8300  3.7776  0.2810
  131MOL0     H18031  11.827   5.508   6.916  0.5887 -0.5531  0.4774
  131MOL0     H18032  11.611   5.631   6.851  2.5680 -0.8187 -0.5055
  131MOL0     H18033  11.588   5.684   7.011 -2.2275 -1.0289 -1.3740
  131MOL0     H18034  11.835   5.746   6.824 -0.0279  3.0981 -1.1131
  131MOL0     H18035  11.697   5.853   6.856  0.1302  1.3950  1.5587
  131MOL0     H18036  12.070   5.714   6.935 -0.7380 -0.3136 -0.1972
  131MOL0     H18037  12.381   5.836   6.842  1.6777 -2.2811  1.5802
  131MOL0     H18038  12.265   5.703   6.856 -0.5565 -1.3897  1.4950
  131MOL0     H18039  12.361   5.757   6.996 -1.3186  0.7350  1.0067
  131MOL0     H18040  12.267   6.486   7.010  0.1889  0.1753 -1.0671
  131MOL0     H18041  12.409   6.643   7.087 -0.3182  0.6841 -2.3876
  131MOL0     H18042  12.621   6.801   7.143  1.1586  2.3455  2.3141
  131MOL0     H18043  12.547   6.710   7.274  0.1327 -2.8524 -0.0029
  131MOL0     H18044  12.768   6.679   7.384  1.5638  0.7765  0.0837
  131MOL0     H18045  12.843   6.757   7.260 -1.2369  1.1823 -1.8526
  131MOL0     H18046  12.621   6.912   7.409  0.5403 -0.7597  2.3810
  131MOL0     H18047  12.748   6.967   7.296 -1.6032 -0.1834 -1.0255
  131MOL0     H18048  12.911   6.891   7.462  0.5089 -0.1211  1.1646
  131MOL0     H18049  12.775   6.809   7.546 -2.1677  0.7855  0.0135
  131MOL0     H18050  12.793   7.103   7.508  1.6450 -0.0041  0.8291
  131MOL0     H18051  12.676   7.011   7.621 -0.2978  0.1287  0.3813
  131MOL0     H18052  12.980   7.021   7.645  0.8205 -0.3751  1.9964
  131MOL0     H18053  12.859   6.957   7.750 -0.6039 -1.1210 -1.2702
  131MOL0     H18054  12.763   7.178   7.803  1.1749 -2.8626  0.4776
  131MOL0     H18055  12.848   7.254   7.667  0.4986 -1.2136 -0.7690
  131MOL0     H18056  13.049   7.261   7.757  0.4707  1.3733  0.0401
  131MOL0     H18057  13.013   7.142   7.891  0.7731 -0.3713 -1.8890
  131MOL0     H18058  12.740   6.376   7.048  0.3487  0.1992 -2.6730
  131MOL0     H18059  12.590   6.197   6.955  3.2956  0.7637  0.7528
  131MOL0     H18060  12.070   6.199   7.001  2.4892 -0.3872  2.7096
  131MOL0     H18061  11.852   6.079   7.021  0.4456 -0.6208 -0.7472
  131MOL0     H18062  10.268   5.151   6.649  4.2274  0.1135 -3.0915
  131MOL0     H18063  10.035   5.239   6.667 -0.3839  0.2692 -2.3643
  131MOL0     H18064   9.633   5.470   6.822 -0.6999 -0.4770  0.2381
  131MOL0     H18065   9.441   5.616   6.803  1.6563 -0.6533  2.0718
  131MOL0     H18066   9.259   5.831   6.732  0.3905  0.9453  2.4886
  131MOL0     H18067   9.426   5.874   6.771  1.3086 -0.5190 -1.1097
  131MOL0     H18068   9.360   6.018   6.529 -1.1507  1.1385 -0.9893
  131MOL0     H18069   9.396   6.078   6.694  0.2274 -0.8248  0.0189
  131MOL0     H18070   9.119   6.043   6.580 -1.1164  2.0849 -0.5218
  131MOL0     H18071   9.157   6.072   6.752  3.1239 -0.2437  0.2799
  131MOL0     H18072   9.088   6.263   6.618  0.1014 -0.1850 -0.7730
  131MOL0     H18073   9.213   6.225   6.501  1.1850 -0.8688  0.5604
  131MOL0     H18074   9.391   6.495   6.770 -2.3218  0.0960  0.5793
  131MOL0     H18075   9.586   5.786   6.442 -1.1080  0.4873 -0.0640
  131MOL0     H18076   9.892   5.590   6.394 -1.2404 -0.9009  1.8658
  131MOL0     H18077   9.780   5.715   6.336  0.5377 -1.8214 -0.9562
  131MOL0     H18078   9.900   5.754   6.450  2.0393  0.1555 -1.2546
  132MOL0     O18079   7.670   2.035   0.061  0.0141  0.1572 -0.7963
  132MOL0     C18080   7.675   2.073  -0.054  0.4831  0.5453 -0.1331
  132MOL0     O18081   7.669   2.210  -0.091  0.4234 -0.1639  0.0980
  132MOL0     C18082   7.667   2.311   0.007 -0.1032  0.2369  0.1288
  132MOL0     C18083   7.787   2.316   0.082 -0.2315  0.1218  0.2415
  132MOL0     C18084   7.813   2.424   0.165 -0.0738  0.1391  0.6456
  132MOL0     C18085   7.719   2.520   0.182  0.7415 -0.5967 -0.1114
  132MOL0     O18086   7.730   2.618   0.272  0.2980 -0.3095  0.2002
  132MOL0     C18087   7.802   2.733   0.226 -0.7331  0.0877  0.1357
  132MOL0     C18088   7.835   2.827   0.341  0.0307 -0.6697 -0.2595
  132MOL0     C18089   7.711   2.914   0.367 -0.6263 -0.9729 -0.0222
  132MOL0     C18090   7.720   3.026   0.471 -0.1681  0.2643 -0.7291
  132MOL0     C18091   7.584   3.089   0.489 -0.3402 -0.4479  0.2368
  132MOL0     C18092   7.488   3.007   0.584  0.5189 -0.1980 -0.4455
  132MOL0     C18093   7.350   3.068   0.612 -0.2215  0.8023  0.7643
  132MOL0     C18094   7.278   2.978   0.712 -0.5805 -0.1456 -0.1203
  132MOL0     N18095   7.148   3.019   0.750  0.3969 -0.1157  0.5986
  132MOL0     C18096   7.108   3.150   0.781 -0.3272  0.2744 -0.1665
  132MOL0     C18097   6.973   3.131   0.822  0.0388 -0.1212  0.3737
  132MOL0     C18098   6.895   3.251   0.874 -0.7675  0.3468 -0.1584
  132MOL0     C18099   6.747   3.246   0.834 -0.0121 -0.8928 -0.4573
  132MOL0     C18100   6.663   3.142   0.900 -0.3692  0.2616  0.7185
  132MOL0     C18101   6.509   3.157   0.904 -0.8776  0.1601  0.6477
  132MOL0     O18102   6.446   3.050   0.984  0.3060  0.1731 -0.3524
  132MOL0     C18103   6.314   3.040   0.996 -0.0213 -0.0082 -0.7222
  132MOL0     C18104   6.218   3.140   0.952 -0.4254  0.2219  0.0737
  132MOL0     C18105   6.085   3.119   0.962  0.0461 -0.0417 -0.4145
  132MOL0     C18106   5.995   3.231   0.915  0.2740 -1.0259 -0.1283
  132MOL0     C18107   6.036   3.003   1.014  0.1600  0.2692 -0.1504
  132MOL0     C18108   5.894   2.979   1.045  0.5627 -0.9012  1.2887
  132MOL0     O18109   5.809   2.992   0.925 -0.2768  0.8025 -0.3300
  132MOL0     C18110   5.685   2.938   0.933 -0.3943  1.2148 -0.5646
  132MOL0     C18111   5.667   2.810   0.892  0.4905  0.2967  0.0066
  132MOL0     C18112   5.548   2.747   0.882 -0.3666  0.0319 -0.1645
  132MOL0     C18113   5.432   2.813   0.911  0.1248 -0.1108 -0.0647
  132MOL0     O18114   5.306   2.757   0.926  0.4661 -0.8004 -0.1108
  132MOL0     C18115   5.287   2.624   0.881  0.2269  0.3075 -0.2758
  132MOL0     C18116   5.141   2.595   0.922  0.5607  1.0336  0.4224
  132MOL0     C18117   5.035   2.695   0.864 -0.5637 -0.1133 -0.4696
  132MOL0     C18118   4.919   2.611   0.793 -0.2293 -0.5183  0.1015
  132MOL0     C18119   4.796   2.700   0.756  0.0618 -0.3303 -0.3419
  132MOL0     C18120   4.708   2.725   0.873  0.2512 -0.5216 -0.5728
  132MOL0     C18121   4.615   2.827   0.836  0.1278  0.0909  0.3974
  132MOL0     C18122   4.526   2.851   0.957  0.7552  0.1482  0.5558
  132MOL0    Cl18123   4.442   2.698   1.009  0.1837 -0.0910 -0.4283
  132MOL0     C18124   5.443   2.944   0.954 -0.2566 -0.0245 -0.4382
  132MOL0     C18125   5.571   3.013   0.966 -0.6051  0.9589  0.4584
  132MOL0     O18126   5.851   2.958   1.157 -0.3435  0.0255 -0.4828
  132MOL0     C18127   6.122   2.906   1.065  0.3717  0.0697 -0.0355
  132MOL0     C18128   6.259   2.924   1.050  0.1380  1.2440 -1.0096
  132MOL0     N18129   6.938   2.996   0.825 -0.8186 -0.8889  0.1365
  132MOL0     N18130   7.044   2.934   0.776  0.3967 -0.1243 -0.5397
  132MOL0     C18131   7.598   2.513   0.111 -0.1352 -0.3863  0.1641
  132MOL0     C18132   7.567   2.408   0.017 -0.1785 -0.1828 -0.5173
  132MOL0     C18133   7.678   1.970  -0.156  0.3346 -0.4922  0.5632
  132MOL0     C18134   7.718   2.018  -0.283 -0.8133  0.5505 -0.0988
  132MOL0     C18135   7.728   1.932  -0.388 -0.6115  0.1625 -0.3704
  132MOL0     C18136   7.717   1.794  -0.370 -0.1517 -0.5684  0.1119
  132MOL0     O18137   7.731   1.699  -0.473 -0.0642  0.3765 -0.2285
  132MOL0     C18138   7.792   1.727  -0.597 -0.1668  0.2698  0.0570
  132MOL0     C18139   7.674   1.770  -0.694 -1.4058 -0.2296 -0.1332
  132MOL0     C18140   7.730   1.857  -0.800  0.6231  0.2978 -1.1943
  132MOL0     C18141   7.640   1.878  -0.910  0.3373  0.2827  0.1196
  132MOL0     C18142   7.512   1.943  -0.876  0.3297  0.0133 -0.2075
  132MOL0     C18143   7.404   1.995  -0.843  0.1324  0.5013  0.9243
  132MOL0     C18144   7.680   1.745  -0.252 -0.1066  0.0893 -0.3027
  132MOL0     C18145   7.661   1.831  -0.142 -0.4039 -0.3074 -0.8386
  132MOL0     C18146   7.627   1.762  -0.014 -0.3931 -1.1165 -0.2305
  132MOL0     H18147   7.874   2.252   0.070  1.6836  2.4881  0.8835
  132MOL0     H18148   7.909   2.427   0.217 -0.3718 -1.5691  1.3700
  132MOL0     H18149   7.745   2.785   0.149 -0.9969 -0.4566 -0.0427
  132MOL0     H18150   7.899   2.707   0.181 -0.5910  0.9249 -0.0616
  132MOL0     H18151   7.858   2.768   0.430 -1.3287 -1.4874 -0.4279
  132MOL0     H18152   7.920   2.895   0.327  0.2394 -0.5672  1.3155
  132MOL0     H18153   7.680   2.966   0.276 -2.3918 -1.1165  0.4615
  132MOL0     H18154   7.629   2.847   0.393 -0.2530 -0.7791  1.7480
  132MOL0     H18155   7.754   2.982   0.565  1.8920  1.5471 -0.8229
  132MOL0     H18156   7.792   3.103   0.442 -1.5291  0.8470 -2.7979
  132MOL0     H18157   7.538   3.114   0.394 -2.4887 -1.0004  1.0832
  132MOL0     H18158   7.597   3.190   0.530 -1.5066 -0.1801 -0.0399
  132MOL0     H18159   7.465   2.911   0.538 -0.2459 -0.4409  0.4126
  132MOL0     H18160   7.541   2.998   0.680  0.6692 -2.9342 -0.6997
  132MOL0     H18161   7.291   3.069   0.520 -0.0629 -2.1474  0.5108
  132MOL0     H18162   7.361   3.169   0.651  1.7118  1.4916 -1.3558
  132MOL0     H18163   7.278   2.874   0.676  0.4289 -1.0067  2.1724
  132MOL0     H18164   7.337   2.986   0.804 -1.4030 -0.0013  0.4087
  132MOL0     H18165   7.163   3.243   0.775 -1.9934  1.3502  0.5847
  132MOL0     H18166   6.943   3.344   0.842  0.2415 -0.4149 -0.9305
  132MOL0     H18167   6.898   3.235   0.982  1.2959 -2.7603 -0.5312
  132MOL0     H18168   6.712   3.344   0.868  2.2188 -0.0092 -0.5511
  132MOL0     H18169   6.735   3.237   0.726  1.5358 -1.4162 -0.6128
  132MOL0     H18170   6.688   3.051   0.843  1.4149  0.3519  1.3032
  132MOL0     H18171   6.697   3.120   1.001  3.5240  1.3474 -0.1733
  132MOL0     H18172   6.481   3.257   0.937  1.5275  0.7044  1.2169
  132MOL0     H18173   6.460   3.142   0.807  0.9684  3.2799 -0.9112
  132MOL0     H18174   6.249   3.231   0.902 -0.6349 -0.4335 -1.2946
  132MOL0     H18175   6.021   3.332   0.949 -0.4303  0.2713 -3.0665
  132MOL0     H18176   5.888   3.226   0.939 -0.0749 -0.3659 -1.4581
  132MOL0     H18177   6.004   3.254   0.809 -0.8485 -0.7149 -0.1740
  132MOL0     H18178   5.756   2.759   0.856 -0.1730 -0.1703 -0.9899
  132MOL0     H18179   5.536   2.647   0.843  1.6899 -0.2099 -0.2922
  132MOL0     H18180   5.300   2.604   0.774 -1.8170 -2.9227 -0.0287
  132MOL0     H18181   5.348   2.555   0.939  0.2703  1.0607  0.5956
  132MOL0     H18182   5.113   2.494   0.889 -1.1346  1.2994  0.9340
  132MOL0     H18183   5.134   2.588   1.031 -2.3209 -0.4526  0.2651
  132MOL0     H18184   5.083   2.767   0.797  2.0093 -0.4403  0.8802
  132MOL0     H18185   4.985   2.750   0.945 -2.8899 -1.4814 -0.8836
  132MOL0     H18186   4.898   2.529   0.863  0.8241 -0.9091 -0.0119
  132MOL0     H18187   4.968   2.571   0.704 -1.1977 -1.7306  0.0854
  132MOL0     H18188   4.829   2.789   0.702 -0.8953 -0.1636 -0.6728
  132MOL0     H18189   4.734   2.649   0.681  1.0951  0.6250 -1.9049
  132MOL0     H18190   4.768   2.769   0.954 -1.3686  1.3972 -0.3304
  132MOL0     H18191   4.670   2.632   0.916  0.2288 -1.3398 -2.2739
  132MOL0     H18192   4.557   2.790   0.751  1.7321 -0.4879 -0.4993
  132MOL0     H18193   4.658   2.925   0.810 -2.7717  1.6266  0.9376
  132MOL0     H18194   4.455   2.933   0.948 -0.8751 -1.1686  0.8259
  132MOL0     H18195   4.584   2.864   1.049  3.6689 -3.5496 -0.4986
  132MOL0     H18196   5.352   2.992   0.988  0.9085  1.0573  1.3525
  132MOL0     H18197   5.588   3.117   0.990  0.2465  0.8233  0.4783
  132MOL0     H18198   6.074   2.822   1.114  2.5502 -2.7331 -2.3943
  132MOL0     H18199   6.338   2.862   1.092  0.6919  2.3004 -0.4478
  132MOL0     H18200   7.523   2.589   0.131  1.2647  0.4745  2.5103
  132MOL0     H18201   7.477   2.392  -0.040 -1.6952  2.3270  0.9792
  132MOL0     H18202   7.751   2.118  -0.307 -1.0906 -0.1234 -3.8774
  132MOL0     H18203   7.745   1.964  -0.490 -0.8109 -0.7601 -0.7115
  132MOL0     H18204   7.871   1.802  -0.584 -0.4227  0.0575  3.9358
  132MOL0     H18205   7.849   1.642  -0.637 -1.7288 -2.0430  2.4211
  132MOL0     H18206   7.604   1.820  -0.626 -0.7329  1.4385 -0.6364
  132MOL0     H18207   7.626   1.684  -0.741 -1.5732  0.3187 -0.9784
  132MOL0     H18208   7.743   1.956  -0.757 -1.1489  0.4085 -0.8384
  132MOL0     H18209   7.829   1.823  -0.830  1.6174  0.7900  1.2774
  132MOL0     H18210   7.610   1.782  -0.953 -2.6196  0.6675  1.1662
  132MOL0     H18211   7.683   1.946  -0.984  0.8806  1.6850  1.6723
  132MOL0     H18212   7.312   2.033  -0.806 -2.0033 -0.3815 -2.9147
  132MOL0     H18213   7.680   1.637  -0.255 -0.8014  0.0246  1.1991
  132MOL0     H18214   7.561   1.681  -0.045 -1.6300  0.3911 -1.7917
  132MOL0     H18215   7.709   1.722   0.045 -1.0616 -0.8080  0.9375
  132MOL0     H18216   7.561   1.827   0.045 -0.4970 -0.6784 -0.8142
  133MOL0     O18217   2.994   5.620   0.355  0.0201 -0.6086  0.6034
  133MOL0     C18218   2.975   5.538   0.448 -1.2194 -0.4165  0.8902
  133MOL0     O18219   2.867   5.464   0.460 -0.2795 -0.4982  0.4574
  133MOL0     C18220   2.774   5.466   0.361  0.5305  0.1279  0.3649
  133MOL0     C18221   2.786   5.362   0.265  0.7425  0.4013 -0.0558
  133MOL0     C18222   2.681   5.353   0.174  0.3763 -0.2013 -0.4223
  133MOL0     C18223   2.571   5.442   0.173  0.1962  0.8356 -0.3124
  133MOL0     O18224   2.475   5.423   0.074  0.1292  0.2722  0.2805
  133MOL0     C18225   2.446   5.289   0.020 -0.1475  0.2002 -0.6101
  133MOL0     C18226   2.304   5.290  -0.049 -0.3853 -0.4686  0.4949
  133MOL0     C18227   2.278   5.187  -0.161 -0.1758  0.1401  0.3413
  133MOL0     C18228   2.199   5.254  -0.277  1.0605 -0.4833  0.3038
  133MOL0     C18229   2.053   5.284  -0.224  0.0759 -0.0144 -0.0019
  133MOL0     C18230   1.954   5.347  -0.324 -0.0687 -0.3687 -0.3343
  133MOL0     C18231   1.828   5.408  -0.276  0.3581 -0.0112  0.0095
  133MOL0     C18232   1.745   5.434  -0.406 -0.4045  0.8831  0.1629
  133MOL0     N18233   1.625   5.511  -0.385  0.7009  0.0303 -0.0659
  133MOL0     C18234   1.625   5.649  -0.374  0.7134 -0.0003 -0.1608
  133MOL0     C18235   1.496   5.685  -0.384  1.7922 -0.1500 -0.4832
  133MOL0     C18236   1.453   5.824  -0.374  0.3604  0.5154 -0.4830
  133MOL0     C18237   1.562   5.915  -0.311  0.4892 -0.8348 -1.1889
  133MOL0     C18238   1.524   6.059  -0.263 -0.4642  0.9337  0.4384
  133MOL0     C18239   1.636   6.135  -0.188  1.2348  0.5885  0.0276
  133MOL0     O18240   1.747   6.140  -0.275  0.0198 -0.6789 -0.4286
  133MOL0     C18241   1.874   6.183  -0.227  0.0046  0.4312 -0.8215
  133MOL0     C18242   1.881   6.273  -0.121  0.0640  1.1874  0.6966
  133MOL0     C18243   2.001   6.309  -0.065  0.7118  0.5393  0.0540
  133MOL0     C18244   2.003   6.393   0.063 -0.0371  1.0089 -0.0204
  133MOL0     C18245   2.120   6.256  -0.119 -0.5821  0.4510 -0.2127
  133MOL0     C18246   2.248   6.309  -0.078 -0.7078  0.2714 -0.2202
  133MOL0     O18247   2.306   6.246   0.019  0.0282  0.1247 -0.1064
  133MOL0     C18248   2.415   6.296   0.092 -0.4055  0.2811 -1.6854
  133MOL0     C18249   2.476   6.425   0.077  0.4642 -0.1221  0.4019
  133MOL0     C18250   2.574   6.467   0.170  0.5829  0.3167  0.0630
  133MOL0     C18251   2.615   6.381   0.274 -1.0047 -0.1383  0.0079
  133MOL0     O18252   2.705   6.436   0.365  0.8956  0.0056 -0.2829
  133MOL0     C18253   2.735   6.371   0.488 -0.5986  0.0226  0.7414
  133MOL0     C18254   2.776   6.482   0.580  0.3244  0.8290 -0.0420
  133MOL0     C18255   2.839   6.408   0.702 -0.3361  1.0523 -0.1891
  133MOL0     C18256   2.852   6.514   0.818  0.3433 -0.3568 -0.6280
  133MOL0     C18257   2.919   6.438   0.939 -0.7161 -0.3210 -0.0065
  133MOL0     C18258   2.812   6.358   1.026 -0.1985  0.6516  0.4846
  133MOL0     C18259   2.881   6.259   1.118 -0.2514  0.3836 -0.1535
  133MOL0     C18260   2.790   6.147   1.185 -0.4947  0.4261 -0.2612
  133MOL0    Cl18261   2.648   6.190   1.274 -0.2037 -0.4016  0.0251
  133MOL0     C18262   2.564   6.251   0.283  0.2872  0.3591  0.1086
  133MOL0     C18263   2.460   6.213   0.200 -0.1081 -0.2066  0.1682
  133MOL0     O18264   2.299   6.399  -0.152  0.0937  0.2259 -0.2875
  133MOL0     C18265   2.116   6.163  -0.221 -0.0905  0.0810 -0.6966
  133MOL0     C18266   1.990   6.127  -0.272 -0.3680 -0.2308 -0.3810
  133MOL0     N18267   1.422   5.572  -0.406  0.2236  1.0738  0.2320
  133MOL0     N18268   1.502   5.473  -0.427  0.4359 -0.5558 -0.6291
  133MOL0     C18269   2.569   5.543   0.271 -0.3257 -0.3947 -0.1468
  133MOL0     C18270   2.666   5.556   0.367 -0.4965  0.5946 -0.1134
  133MOL0     C18271   3.081   5.528   0.555  0.2586 -0.5556  0.2206
  133MOL0     C18272   3.026   5.493   0.685 -0.0417  0.0728 -0.1022
  133MOL0     C18273   3.103   5.506   0.794 -0.5458 -0.0943 -0.2369
  133MOL0     C18274   3.244   5.528   0.784  0.1793  0.1457  0.1198
  133MOL0     O18275   3.318   5.522   0.897  0.0881 -0.2166 -0.3987
  133MOL0     C18276   3.291   5.638   0.980  0.9135 -0.4505  0.4496
  133MOL0     C18277   3.414   5.717   1.002  0.5584 -0.5629  0.0034
  133MOL0     C18278   3.510   5.646   1.096  0.2080  0.6082  0.7390
  133MOL0     C18279   3.651   5.700   1.090  0.3597  0.8960  0.2560
  133MOL0     C18280   3.640   5.843   1.117  0.0331 -0.5288 -0.3710
  133MOL0     C18281   3.632   5.965   1.140  0.7600  0.5861  0.1552
  133MOL0     C18282   3.296   5.553   0.659  0.1281  0.7947 -0.6357
  133MOL0     C18283   3.220   5.555   0.543  0.4158 -0.7460  0.5502
  133MOL0     C18284   3.300   5.587   0.415  0.3090 -0.6599  0.4008
  133MOL0     H18285   2.871   5.294   0.261  2.5008  2.2713  2.3457
  133MOL0     H18286   2.690   5.280   0.094  1.0135  1.4922 -1.9815
  133MOL0     H18287   2.435   5.215   0.100  0.2557  1.2198  0.4311
  133MOL0     H18288   2.517   5.258  -0.057 -2.5090 -0.6893 -2.5333
  133MOL0     H18289   2.222   5.295   0.023  0.1518 -0.2431  1.1006
  133MOL0     H18290   2.309   5.387  -0.098 -0.6332 -1.2893 -1.2232
  133MOL0     H18291   2.373   5.146  -0.195  0.1033  0.9631  0.1253
  133MOL0     H18292   2.216   5.107  -0.118  0.9083 -1.4107 -0.8657
  133MOL0     H18293   2.249   5.344  -0.313  0.3534 -0.5974 -1.0271
  133MOL0     H18294   2.193   5.188  -0.365 -1.0461  1.0049 -0.7409
  133MOL0     H18295   2.063   5.361  -0.148 -1.7125  0.1891  0.0645
  133MOL0     H18296   2.004   5.191  -0.192 -0.5902 -0.0045 -0.9341
  133MOL0     H18297   2.012   5.416  -0.386 -0.1433 -0.1419 -0.1540
  133MOL0     H18298   1.926   5.262  -0.387 -1.7691  1.3448 -2.0461
  133MOL0     H18299   1.836   5.494  -0.209  1.9371  1.1162 -1.5432
  133MOL0     H18300   1.763   5.336  -0.225  0.2709 -0.2508 -0.4423
  133MOL0     H18301   1.809   5.483  -0.479 -1.0612  1.0520 -0.3030
  133MOL0     H18302   1.710   5.345  -0.460 -1.4381  2.4943 -1.9671
  133MOL0     H18303   1.712   5.712  -0.359 -0.1574  1.0065  0.8009
  133MOL0     H18304   1.358   5.832  -0.321 -0.7797 -1.5799 -2.0688
  133MOL0     H18305   1.424   5.868  -0.470 -0.8765  1.8671  0.4745
  133MOL0     H18306   1.609   5.867  -0.225 -0.8350  0.4194  0.3031
  133MOL0     H18307   1.635   5.923  -0.391  0.6280 -2.0120 -1.1869
  133MOL0     H18308   1.483   6.121  -0.343 -0.8561 -1.6928 -1.5423
  133MOL0     H18309   1.439   6.031  -0.201 -0.1986  2.9017  1.7652
  133MOL0     H18310   1.591   6.230  -0.160  0.0937 -0.4071  1.8045
  133MOL0     H18311   1.650   6.076  -0.096 -1.5252 -1.7218 -0.8878
  133MOL0     H18312   1.785   6.310  -0.085 -0.7502  0.1013 -0.2826
  133MOL0     H18313   2.080   6.350   0.128 -1.2826 -0.9465  0.2283
  133MOL0     H18314   1.903   6.379   0.103 -0.7147  0.1120 -1.9148
  133MOL0     H18315   2.034   6.497   0.052 -0.8881  1.4364  1.4081
  133MOL0     H18316   2.452   6.492  -0.005 -0.0370  2.9866  2.8383
  133MOL0     H18317   2.628   6.560   0.155  0.7142  0.1570 -0.4781
  133MOL0     H18318   2.659   6.305   0.532  1.1043 -0.6835  2.7417
  133MOL0     H18319   2.819   6.306   0.464  0.6704  2.1404 -0.9035
  133MOL0     H18320   2.850   6.541   0.526  1.2289 -0.1340  0.0936
  133MOL0     H18321   2.689   6.539   0.613 -0.8333 -1.6652  1.6008
  133MOL0     H18322   2.933   6.365   0.665  0.0135  2.4853 -1.0412
  133MOL0     H18323   2.773   6.327   0.734  0.1647 -0.3372 -2.4345
  133MOL0     H18324   2.761   6.571   0.842  0.6762 -0.2518  0.4402
  133MOL0     H18325   2.917   6.598   0.794 -0.9676  0.4472 -1.4894
  133MOL0     H18326   2.998   6.375   0.896 -0.7469 -0.1885 -0.2613
  133MOL0     H18327   2.965   6.512   1.006 -1.1636  0.7962 -0.9109
  133MOL0     H18328   2.750   6.297   0.958  0.7466  0.9423 -0.6650
  133MOL0     H18329   2.746   6.425   1.081  0.0382  2.0213 -0.8551
  133MOL0     H18330   2.943   6.306   1.196  1.0379  0.1478 -0.9962
  133MOL0     H18331   2.957   6.208   1.057  2.9129  0.3372  3.4141
  133MOL0     H18332   2.861   6.104   1.256  1.2463  2.7655 -0.4836
  133MOL0     H18333   2.768   6.065   1.116  1.2795 -0.0233 -0.3383
  133MOL0     H18334   2.594   6.171   0.350 -0.2182  1.1024  1.2369
  133MOL0     H18335   2.412   6.119   0.224  0.1654 -0.4437 -0.2063
  133MOL0     H18336   2.210   6.125  -0.260 -0.5917 -2.9410  0.7140
  133MOL0     H18337   1.992   6.045  -0.344 -0.3848 -3.2027  2.7111
  133MOL0     H18338   2.491   5.618   0.272  1.0633  1.1174  0.0928
  133MOL0     H18339   2.670   5.641   0.435  0.1825  0.4329  0.0492
  133MOL0     H18340   2.920   5.475   0.703 -0.5151  2.8356  0.3874
  133MOL0     H18341   3.065   5.488   0.894  0.8933  1.1035  0.5853
  133MOL0     H18342   3.219   5.708   0.936  0.7621 -1.9136 -1.8181
  133MOL0     H18343   3.252   5.610   1.079 -0.6575 -3.2818 -0.8462
  133MOL0     H18344   3.386   5.811   1.051  0.0197 -0.2863 -0.8267
  133MOL0     H18345   3.461   5.729   0.904 -1.7651  2.1529 -0.9208
  133MOL0     H18346   3.473   5.667   1.196  0.3804  2.2850  0.4785
  133MOL0     H18347   3.509   5.539   1.074  2.5750  0.9031 -1.3464
  133MOL0     H18348   3.695   5.673   0.993 -0.1926  3.5373 -0.8189
  133MOL0     H18349   3.718   5.652   1.161  2.0757 -2.4511 -3.2578
  133MOL0     H18350   3.615   6.066   1.170 -2.5895 -0.3696  1.9248
  133MOL0     H18351   3.404   5.561   0.652  0.8222 -4.1039  0.7650
  133MOL0     H18352   3.406   5.602   0.437  0.5997 -1.7382 -0.1862
  133MOL0     H18353   3.295   5.494   0.357  0.4659 -1.7766  2.1110
  133MOL0     H18354   3.247   5.670   0.366 -1.6198 -2.5478 -0.9130
  134MOL0     O18355   5.087   0.652   3.254  0.2361  0.2031 -0.1197
  134MOL0     C18356   5.141   0.674   3.147 -0.5419  0.3096 -0.1265
  134MOL0     O18357   5.267   0.634   3.115 -0.3249 -0.0677  0.2074
  134MOL0     C18358   5.335   0.562   3.213  0.3801 -0.4107  0.1419
  134MOL0     C18359   5.469   0.596   3.239  0.5653  0.0357 -0.6432
  134MOL0     C18360   5.541   0.521   3.327 -0.8560 -0.0538 -0.3850
  134MOL0     C18361   5.501   0.409   3.388  0.5978 -0.5644 -0.2059
  134MOL0     O18362   5.574   0.362   3.497 -0.1231 -0.6333  0.4598
  134MOL0     C18363   5.544   0.227   3.547 -0.0112 -0.4965 -0.4696
  134MOL0     C18364   5.647   0.188   3.655 -0.2070 -0.3863 -0.2333
  134MOL0     C18365   5.639   0.263   3.791 -0.1731  0.1521 -0.4159
  134MOL0     C18366   5.772   0.226   3.866  0.4291  0.1064  0.0901
  134MOL0     C18367   5.780   0.299   4.004  0.8645  0.0084  0.3875
  134MOL0     C18368   5.902   0.251   4.072  0.0261 -0.4868 -0.0288
  134MOL0     C18369   5.923   0.337   4.205 -0.5879  0.6172  0.3439
  134MOL0     C18370   6.057   0.297   4.275  0.3477  0.1526 -0.9362
  134MOL0     N18371   6.175   0.306   4.186 -0.0403 -0.3346  0.1756
  134MOL0     C18372   6.259   0.196   4.160  0.4222  0.7193 -0.3498
  134MOL0     C18373   6.363   0.247   4.095  0.8983  0.4428 -0.4377
  134MOL0     C18374   6.469   0.165   4.029  0.3002  0.4191 -0.0401
  134MOL0     C18375   6.603   0.215   4.071  0.4200 -0.3973 -0.2937
  134MOL0     C18376   6.722   0.134   3.998  0.4352 -0.3910 -0.0149
  134MOL0     C18377   6.858   0.152   4.070 -0.6251  1.1032  0.5296
  134MOL0     O18378   6.902   0.291   4.066 -0.0632 -0.1252  0.3255
  134MOL0     C18379   7.023   0.306   4.115  0.4770 -1.2096  0.1993
  134MOL0     C18380   7.112   0.388   4.035  0.4203 -0.2626 -1.0019
  134MOL0     C18381   7.231   0.414   4.086  0.0818 -0.1264  0.0329
  134MOL0     C18382   7.323   0.489   3.991 -0.1028  0.6358  0.0867
  134MOL0     C18383   7.270   0.376   4.216 -0.0442 -0.2068  0.3731
  134MOL0     C18384   7.404   0.413   4.277  0.0227 -0.2411 -0.6269
  134MOL0     O18385   7.464   0.525   4.229  0.0645  0.0214  0.4113
  134MOL0     C18386   7.581   0.569   4.274 -0.3147 -0.2647 -0.7255
  134MOL0     C18387   7.604   0.632   4.402 -0.0225 -0.1310 -1.1470
  134MOL0     C18388   7.730   0.678   4.427  0.3333 -0.3698  0.1530
  134MOL0     C18389   7.846   0.659   4.343 -0.2443  0.0145 -0.1559
  134MOL0     O18390   7.974   0.720   4.354  0.0319  0.1800 -0.2120
  134MOL0     C18391   8.018   0.728   4.494 -0.3095 -0.0742  0.2148
  134MOL0     C18392   8.140   0.823   4.501 -0.3416 -0.8305  0.4495
  134MOL0     C18393   8.102   0.966   4.470  0.2336  0.6624  0.0426
  134MOL0     C18394   8.212   1.065   4.505  0.5422 -0.0050 -0.1837
  134MOL0     C18395   8.326   1.072   4.402  0.5811  0.6936  0.6520
  134MOL0     C18396   8.424   1.186   4.414 -0.4174 -0.0853  0.1220
  134MOL0     C18397   8.512   1.166   4.538  0.1593 -0.6418 -0.2174
  134MOL0     C18398   8.604   1.286   4.558  0.0299 -0.6784 -0.1531
  134MOL0    Cl18399   8.715   1.259   4.702 -0.0484  0.0083  0.0612
  134MOL0     C18400   7.823   0.610   4.220  0.8689 -0.1858 -0.6858
  134MOL0     C18401   7.691   0.570   4.179 -0.5692  0.4732 -0.5165
  134MOL0     O18402   7.444   0.351   4.374 -0.1814  0.5015 -0.1957
  134MOL0     C18403   7.186   0.286   4.292  0.7607 -0.4464 -0.2714
  134MOL0     C18404   7.055   0.259   4.243 -0.3038  1.3697 -0.0035
  134MOL0     N18405   6.355   0.384   4.097 -0.7578  0.3827  0.2397
  134MOL0     N18406   6.244   0.420   4.152  0.6972  0.0169  0.3407
  134MOL0     C18407   5.371   0.364   3.353 -0.4388 -0.2480 -0.3337
  134MOL0     C18408   5.285   0.437   3.268 -0.2297 -0.1404 -0.4218
  134MOL0     C18409   5.065   0.759   3.054  0.0087 -0.3972  0.7053
  134MOL0     C18410   4.927   0.778   3.074  0.1715 -0.2618 -0.2258
  134MOL0     C18411   4.844   0.846   2.975 -1.0378  0.1380 -0.1689
  134MOL0     C18412   4.904   0.914   2.881 -0.4575 -0.0326 -0.1704
  134MOL0     O18413   4.819   0.996   2.806  0.1593  0.2808  0.1459
  134MOL0     C18414   4.873   1.090   2.708  0.4602  0.0058  0.1310
  134MOL0     C18415   4.758   1.156   2.635 -0.7808 -0.0395 -0.0654
  134MOL0     C18416   4.801   1.232   2.505 -0.1852 -0.2555 -0.6394
  134MOL0     C18417   4.895   1.353   2.530  0.2834 -0.6675  0.4815
  134MOL0     C18418   5.030   1.304   2.501  0.4123 -0.8327  0.2587
  134MOL0     C18419   5.139   1.275   2.459 -0.3487 -0.4616  0.7454
  134MOL0     C18420   5.045   0.915   2.869 -0.7113  1.0661  0.0351
  134MOL0     C18421   5.124   0.834   2.950  0.4480  0.9400  1.2868
  134MOL0     C18422   5.274   0.837   2.925  0.5567 -0.5830 -0.5239
  134MOL0     H18423   5.512   0.684   3.192  0.5908  0.0772 -0.5424
  134MOL0     H18424   5.640   0.555   3.355 -1.1657 -1.6101  3.0518
  134MOL0     H18425   5.541   0.146   3.473 -1.4088 -0.4163 -0.5180
  134MOL0     H18426   5.443   0.232   3.588  0.2532  2.5034 -0.0018
  134MOL0     H18427   5.628   0.082   3.676 -2.5800  0.0933  0.3261
  134MOL0     H18428   5.746   0.211   3.614 -0.0108  0.1573  0.5213
  134MOL0     H18429   5.645   0.373   3.785  0.9505  0.1190 -0.2144
  134MOL0     H18430   5.546   0.243   3.844  1.0327 -0.9960  1.3550
  134MOL0     H18431   5.786   0.117   3.871  0.3324 -0.0154 -1.5715
  134MOL0     H18432   5.857   0.260   3.805 -1.0548  2.6147 -0.7234
  134MOL0     H18433   5.687   0.277   4.057 -0.0676 -1.8415 -1.8496
  134MOL0     H18434   5.793   0.408   3.997 -0.5850  0.2749  1.3737
  134MOL0     H18435   5.894   0.142   4.085  2.0546 -0.6553  0.1401
  134MOL0     H18436   5.983   0.277   4.004 -1.1663  0.6646 -1.0626
  134MOL0     H18437   5.835   0.312   4.266 -3.1662  2.1612 -2.4781
  134MOL0     H18438   5.927   0.445   4.189 -1.0001  0.2790 -2.6768
  134MOL0     H18439   6.072   0.371   4.353  1.9204 -0.0245 -1.0330
  134MOL0     H18440   6.054   0.200   4.326 -0.8305  0.8314  0.3604
  134MOL0     H18441   6.240   0.092   4.187 -0.7848  1.0873  0.2849
  134MOL0     H18442   6.472   0.183   3.921 -0.4661  2.0672  0.1884
  134MOL0     H18443   6.453   0.059   4.051  2.4963 -0.5118 -2.3683
  134MOL0     H18444   6.616   0.322   4.057  0.7991 -0.5734 -1.3984
  134MOL0     H18445   6.611   0.194   4.178  2.6436  0.7719 -0.1741
  134MOL0     H18446   6.705   0.026   4.000 -2.7706  0.0142  0.6795
  134MOL0     H18447   6.734   0.172   3.896 -2.2911 -2.2885 -1.1526
  134MOL0     H18448   6.855   0.121   4.175  2.2307  1.3049  0.7486
  134MOL0     H18449   6.937   0.099   4.016 -1.3527  1.4307 -0.9246
  134MOL0     H18450   7.086   0.441   3.944  0.3998  4.3658  1.3592
  134MOL0     H18451   7.306   0.452   3.889  0.5250  0.8617 -0.1082
  134MOL0     H18452   7.427   0.463   4.014 -0.9862 -3.1857  0.4376
  134MOL0     H18453   7.299   0.595   3.980 -1.4073  0.3970  0.5827
  134MOL0     H18454   7.531   0.660   4.477  2.2707 -1.2357  1.6393
  134MOL0     H18455   7.738   0.734   4.520 -0.0642 -0.1796  0.0725
  134MOL0     H18456   7.935   0.767   4.554 -1.2498 -1.5829 -0.0275
  134MOL0     H18457   8.037   0.633   4.546  1.8260  1.6795  2.9184
  134MOL0     H18458   8.186   0.807   4.599  1.2370  0.6328 -0.0035
  134MOL0     H18459   8.213   0.789   4.427 -0.8854 -0.0199 -0.4800
  134MOL0     H18460   8.018   0.990   4.535  0.9213 -0.9068  1.6186
  134MOL0     H18461   8.064   0.974   4.368  0.1798 -0.1334 -0.0084
  134MOL0     H18462   8.242   1.055   4.610 -0.5199  1.1784  0.2607
  134MOL0     H18463   8.156   1.159   4.497 -0.3700 -0.5890 -0.8058
  134MOL0     H18464   8.378   0.976   4.405 -1.3908 -0.6972 -2.9864
  134MOL0     H18465   8.283   1.080   4.302 -0.0297  1.6750  0.9730
  134MOL0     H18466   8.361   1.274   4.428 -2.8556 -1.4171 -1.6385
  134MOL0     H18467   8.497   1.189   4.333 -0.2293 -1.8916  0.1774
  134MOL0     H18468   8.572   1.076   4.525  1.5375  0.2283 -0.0586
  134MOL0     H18469   8.449   1.150   4.626 -1.5346 -0.9281 -1.4169
  134MOL0     H18470   8.546   1.376   4.576 -0.3129 -1.0445  0.6215
  134MOL0     H18471   8.667   1.317   4.475  2.1312 -3.9312  0.0202
  134MOL0     H18472   7.908   0.618   4.154  0.6111  2.3944 -0.8109
  134MOL0     H18473   7.680   0.538   4.076 -1.6810  1.0362 -0.5871
  134MOL0     H18474   7.217   0.247   4.388 -2.8910  1.3159  1.8284
  134MOL0     H18475   6.980   0.212   4.306 -0.6082  0.9101 -0.7010
  134MOL0     H18476   5.331   0.274   3.400  0.2684 -0.9452 -1.0348
  134MOL0     H18477   5.183   0.402   3.255 -0.5478  0.4392  0.3800
  134MOL0     H18478   4.874   0.741   3.161 -2.5283 -1.3108 -2.1720
  134MOL0     H18479   4.738   0.847   2.994 -0.8707 -1.1734  1.0492
  134MOL0     H18480   4.944   1.159   2.754  1.7733 -0.5570 -0.9768
  134MOL0     H18481   4.931   1.041   2.630  0.8252  2.2421 -1.0813
  134MOL0     H18482   4.708   1.232   2.695 -1.1257  1.1419 -1.7542
  134MOL0     H18483   4.690   1.075   2.606 -0.5358 -0.3661  0.2732
  134MOL0     H18484   4.854   1.164   2.437  1.3457  0.5367 -0.2837
  134MOL0     H18485   4.714   1.263   2.445  0.8966  2.0643 -1.1311
  134MOL0     H18486   4.878   1.391   2.631 -2.9821 -0.3277 -0.0742
  134MOL0     H18487   4.873   1.428   2.453  2.4825 -0.0029  0.4320
  134MOL0     H18488   5.241   1.251   2.436 -0.1618  0.7786  0.2509
  134MOL0     H18489   5.099   0.982   2.803  3.1008  1.5188  3.2563
  134MOL0     H18490   5.322   0.840   3.024 -0.3826  0.5983 -0.0829
  134MOL0     H18491   5.301   0.739   2.884  0.4339 -0.0167 -1.9900
  134MOL0     H18492   5.306   0.922   2.866  0.2500  0.5951  0.9394
  135MOL0     O18493   2.464   9.150   8.462  0.0618 -0.2489 -0.0769
  135MOL0     C18494   2.439   9.145   8.587 -0.0896 -0.6906 -0.3291
  135MOL0     O18495   2.537   9.142   8.689 -0.3789  0.2651 -0.3745
  135MOL0     C18496   2.665   9.154   8.646 -0.3382 -0.6710  0.5007
  135MOL0     C18497   2.717   9.287   8.640 -0.3972 -0.4762  0.0302
  135MOL0     C18498   2.851   9.305   8.620  0.3233 -0.1431 -0.0904
  135MOL0     C18499   2.936   9.201   8.598 -0.0492  0.6877 -0.2274
  135MOL0     O18500   3.063   9.234   8.573 -0.4885 -0.3255 -0.0221
  135MOL0     C18501   3.160   9.150   8.627 -0.0126  0.5648  0.6949
  135MOL0     C18502   3.301   9.202   8.631  0.2283  0.6029 -0.4734
  135MOL0     C18503   3.307   9.303   8.738  0.1512 -0.4381  0.4151
  135MOL0     C18504   3.458   9.331   8.767  0.4561 -0.2650  0.1418
  135MOL0     C18505   3.480   9.450   8.856 -0.5914  0.6517 -0.2738
  135MOL0     C18506   3.631   9.491   8.847  1.3176  0.0777 -0.5482
  135MOL0     C18507   3.735   9.409   8.919 -0.6726  0.7581  0.2765
  135MOL0     C18508   3.784   9.293   8.822  0.2651 -0.3276  0.5582
  135MOL0     N18509   3.925   9.248   8.854 -0.1211  0.6983  0.3634
  135MOL0     C18510   4.028   9.272   8.778 -0.1064 -0.2530  0.1748
  135MOL0     C18511   4.129   9.184   8.811 -0.0568 -0.7528 -0.4641
  135MOL0     C18512   4.265   9.158   8.769  0.4521  0.4833  0.6561
  135MOL0     C18513   4.370   9.268   8.783 -0.3394  0.4120 -0.2809
  135MOL0     C18514   4.328   9.379   8.692 -0.5593 -0.5397  0.7714
  135MOL0     C18515   4.419   9.495   8.680  0.0537  0.6616  0.3339
  135MOL0     O18516   4.398   9.590   8.789 -0.1080 -0.3749  0.4492
  135MOL0     C18517   4.504   9.666   8.837  0.2062  0.1628 -0.3166
  135MOL0     C18518   4.491   9.733   8.965  0.2240 -0.1224 -0.9597
  135MOL0     C18519   4.593   9.803   9.025 -0.0973  0.3580  0.6381
  135MOL0     C18520   4.573   9.859   9.165  0.3459  0.0985  0.1475
  135MOL0     C18521   4.715   9.812   8.955 -0.1543  0.4209 -0.2576
  135MOL0     C18522   4.831   9.888   9.005 -0.4276  0.4973  0.3309
  135MOL0     O18523   4.913   9.934   8.902  0.4383 -0.0416  0.7235
  135MOL0     C18524   5.031   9.994   8.941  0.5329 -0.4822 -0.3199
  135MOL0     C18525   5.144   9.913   8.934 -0.0599 -1.1916 -0.5882
  135MOL0     C18526   5.270   9.962   8.949 -0.0340  0.7236  0.8843
  135MOL0     C18527   5.293  10.099   8.967  0.3283  0.3259 -0.1270
  135MOL0     O18528   5.415  10.155   8.953 -0.1846  0.8678  0.9404
  135MOL0     C18529   5.535  10.074   8.986  0.0034 -0.5537  0.4704
  135MOL0     C18530   5.664  10.154   8.992  0.0815 -0.2398  0.1329
  135MOL0     C18531   5.660  10.238   9.127  0.5223 -0.0211 -0.3543
  135MOL0     C18532   5.773  10.340   9.145  0.6818  0.2533 -0.0550
  135MOL0     C18533   5.758  10.419   9.274  0.2011  1.0072  0.3826
  135MOL0     C18534   5.875  10.413   9.382  1.1796  0.1202 -0.0229
  135MOL0     C18535   5.875  10.271   9.445 -0.3200  0.1854 -0.1974
  135MOL0     C18536   6.007  10.274   9.529  0.4988 -0.0102  0.5325
  135MOL0    Cl18537   6.014  10.404   9.637 -0.0163  0.3339 -0.4245
  135MOL0     C18538   5.181  10.175   8.983 -0.2310 -0.0951  0.0149
  135MOL0     C18539   5.050  10.125   8.979  0.7625 -0.2138 -0.1309
  135MOL0     O18540   4.858   9.892   9.128 -0.0440 -0.2072 -0.0084
  135MOL0     C18541   4.733   9.735   8.839 -0.0987  0.2110  0.1305
  135MOL0     C18542   4.629   9.661   8.778  0.3748 -0.7216  0.7705
  135MOL0     N18543   4.084   9.115   8.920 -0.5661 -0.0395  0.0402
  135MOL0     N18544   3.968   9.151   8.950  0.3270 -0.5630 -0.2739
  135MOL0     C18545   2.885   9.074   8.608 -0.0456  0.2680 -0.3890
  135MOL0     C18546   2.749   9.046   8.626  0.0583 -0.5593  0.3454
  135MOL0     C18547   2.299   9.143   8.630 -0.0375  0.4482 -0.2379
  135MOL0     C18548   2.269   9.109   8.768  0.1101  0.1531  0.3325
  135MOL0     C18549   2.132   9.099   8.815 -0.7426 -0.1005  0.4857
  135MOL0     C18550   2.028   9.118   8.725  0.0066  0.2552  0.2558
  135MOL0     O18551   1.894   9.116   8.754 -0.0737  0.1210  0.1671
  135MOL0     C18552   1.850   9.064   8.881  0.1754 -0.5374  0.3455
  135MOL0     C18553   1.704   9.006   8.881  0.0606 -0.0897 -0.2240
  135MOL0     C18554   1.611   9.085   8.795 -0.3123  0.1267  0.2620
  135MOL0     C18555   1.468   9.041   8.806  0.0998 -0.0494  0.7728
  135MOL0     C18556   1.374   9.134   8.740 -0.2743 -0.9519  0.5420
  135MOL0     C18557   1.305   9.227   8.695 -1.2106  0.5260  0.9054
  135MOL0     C18558   2.059   9.147   8.592  0.1780 -0.4507 -0.0724
  135MOL0     C18559   2.182   9.162   8.546  0.6987  0.3750  0.8301
  135MOL0     C18560   2.193   9.201   8.402 -0.6281 -0.2728  0.0198
  135MOL0     H18561   2.651   9.373   8.646  2.0286  1.8792 -3.3252
  135MOL0     H18562   2.881   9.408   8.606 -2.0678  0.5695 -0.4370
  135MOL0     H18563   3.169   9.056   8.572 -0.8903  0.3684  0.8836
  135MOL0     H18564   3.126   9.123   8.727 -3.0610 -1.8239 -0.8159
  135MOL0     H18565   3.366   9.120   8.661 -1.6514 -1.2725 -1.3292
  135MOL0     H18566   3.335   9.231   8.531  0.3885 -0.6954 -0.8076
  135MOL0     H18567   3.256   9.385   8.688 -2.3869 -2.3938 -0.4648
  135MOL0     H18568   3.247   9.274   8.826  0.8790 -0.6484  0.8533
  135MOL0     H18569   3.503   9.236   8.797 -0.9455 -1.7320 -2.0762
  135MOL0     H18570   3.504   9.353   8.670 -1.8672 -2.1810 -1.5295
  135MOL0     H18571   3.439   9.431   8.956 -1.3963 -1.3954 -0.9313
  135MOL0     H18572   3.421   9.534   8.818 -1.0845  0.0232 -0.9284
  135MOL0     H18573   3.651   9.501   8.740 -0.7818 -1.3554 -1.1204
  135MOL0     H18574   3.638   9.586   8.901 -1.1295 -1.6421  3.1791
  135MOL0     H18575   3.683   9.367   9.005 -3.4241  1.9597 -0.6673
  135MOL0     H18576   3.820   9.475   8.939 -0.4848  0.9402 -1.0162
  135MOL0     H18577   3.713   9.210   8.820 -0.6988  0.4405  1.7337
  135MOL0     H18578   3.782   9.340   8.723 -0.5872 -0.6475  0.4134
  135MOL0     H18579   4.032   9.347   8.699  4.4457  0.0062  0.3497
  135MOL0     H18580   4.261   9.126   8.664  2.2859  1.1372  0.3479
  135MOL0     H18581   4.312   9.074   8.822  3.6782  1.9988  0.4788
  135MOL0     H18582   4.370   9.307   8.885  0.2375  3.4072 -1.3277
  135MOL0     H18583   4.471   9.234   8.761 -0.2843  0.9985 -0.9715
  135MOL0     H18584   4.303   9.344   8.591  0.0946  2.7533 -0.6808
  135MOL0     H18585   4.234   9.412   8.738 -0.4871  1.2773 -0.2880
  135MOL0     H18586   4.522   9.460   8.672 -0.0919  0.4258 -0.6919
  135MOL0     H18587   4.400   9.549   8.586 -1.1190 -0.2343  0.0326
  135MOL0     H18588   4.399   9.722   9.022  1.4772 -0.6419  1.0681
  135MOL0     H18589   4.599   9.779   9.235  0.4260  1.0559  1.2487
  135MOL0     H18590   4.463   9.861   9.170  0.0761  0.4946 -3.4175
  135MOL0     H18591   4.628   9.950   9.191 -1.7445  1.2140  0.9338
  135MOL0     H18592   5.130   9.807   8.913  0.9061 -1.8501  1.8091
  135MOL0     H18593   5.351   9.890   8.940 -1.8334 -1.3094  0.0405
  135MOL0     H18594   5.524  10.014   9.077  0.4847 -2.0570 -0.4424
  135MOL0     H18595   5.560   9.998   8.912  0.0673  1.1567 -1.3597
  135MOL0     H18596   5.756  10.095   8.997  1.5782  1.8670 -1.0443
  135MOL0     H18597   5.660  10.209   8.898  0.2352 -0.1728  0.1655
  135MOL0     H18598   5.675  10.167   9.209  0.4234 -0.3339 -0.6055
  135MOL0     H18599   5.566  10.295   9.131  1.3489  1.6746 -2.6540
  135MOL0     H18600   5.761  10.410   9.062 -0.2724 -1.6271 -1.5904
  135MOL0     H18601   5.870  10.291   9.141  1.3476  1.4330  0.8996
  135MOL0     H18602   5.753  10.520   9.232 -1.9848  1.0894  0.7145
  135MOL0     H18603   5.659  10.403   9.317 -0.4548 -0.6173 -1.5945
  135MOL0     H18604   5.848  10.479   9.466  0.9027 -3.1042  2.6230
  135MOL0     H18605   5.972  10.436   9.337  1.0104  0.4933 -0.1979
  135MOL0     H18606   5.882  10.192   9.371  0.9991  0.0853  0.0032
  135MOL0     H18607   5.788  10.274   9.510 -1.2779 -1.6697 -1.3379
  135MOL0     H18608   6.087  10.266   9.455 -1.7298  0.3381 -2.0296
  135MOL0     H18609   6.018  10.183   9.589 -0.1543 -0.7904 -0.5013
  135MOL0     H18610   5.200  10.279   9.010  0.5764  0.3177 -1.9897
  135MOL0     H18611   4.958  10.178   9.000 -0.1979 -2.6540  2.4146
  135MOL0     H18612   4.826   9.739   8.783 -0.0207  2.4341  0.3095
  135MOL0     H18613   4.641   9.614   8.681 -1.4703 -2.9579  1.5463
  135MOL0     H18614   2.951   8.990   8.592  1.0570  1.2915 -1.3109
  135MOL0     H18615   2.707   8.946   8.631 -1.2871 -0.4802 -4.7296
  135MOL0     H18616   2.346   9.093   8.843 -1.5716 -1.4427  1.7924
  135MOL0     H18617   2.121   9.080   8.921  2.7068  1.9878  1.3911
  135MOL0     H18618   1.902   8.973   8.911 -0.4994 -1.3769 -0.9346
  135MOL0     H18619   1.868   9.137   8.961  0.2485  0.9025 -0.9280
  135MOL0     H18620   1.675   8.992   8.986  1.3257 -2.5122 -0.1323
  135MOL0     H18621   1.720   8.909   8.833  1.9335  0.1458 -0.1812
  135MOL0     H18622   1.627   9.188   8.827 -0.3703  0.0347  0.5919
  135MOL0     H18623   1.648   9.076   8.692  0.9647 -0.9620  0.7883
  135MOL0     H18624   1.451   9.038   8.914  0.3690 -1.3945  0.7890
  135MOL0     H18625   1.460   8.938   8.770 -2.0042  0.6216 -0.9414
  135MOL0     H18626   1.248   9.316   8.673  1.6679  3.3761  3.8071
  135MOL0     H18627   1.974   9.157   8.524 -0.2681  0.9572  0.6524
  135MOL0     H18628   2.277   9.268   8.381 -2.2534  1.3138 -1.7516
  135MOL0     H18629   2.226   9.112   8.348  0.9490 -0.6874  1.5657
  135MOL0     H18630   2.104   9.245   8.356 -0.5795 -2.1536 -2.0507
  136MOL0     O18631   9.842   9.505   1.413  0.1340  0.4246 -0.2388
  136MOL0     C18632   9.749   9.483   1.331  0.5266  0.1439  0.9474
  136MOL0     O18633   9.772   9.479   1.200  0.1963 -0.3239  0.9045
  136MOL0     C18634   9.889   9.541   1.158  0.2471 -0.1585 -0.5355
  136MOL0     C18635   9.991   9.454   1.129 -0.0254 -0.5193 -0.2477
  136MOL0     C18636  10.113   9.508   1.089 -1.2543 -0.4900 -0.3000
  136MOL0     C18637  10.123   9.646   1.059  0.5869 -0.6561  0.6477
  136MOL0     O18638  10.243   9.700   1.017 -0.1840  0.7442 -0.8420
  136MOL0     C18639  10.371   9.634   1.042  0.0726  0.0101  0.1719
  136MOL0     C18640  10.488   9.725   1.011  0.1974 -0.4206 -0.9506
  136MOL0     C18641  10.615   9.699   1.097  0.2124  0.0508 -0.2627
  136MOL0     C18642  10.740   9.756   1.028  0.0111 -0.2207  0.0585
  136MOL0     C18643  10.858   9.734   1.115  1.1449  0.9670  0.2942
  136MOL0     C18644  10.986   9.775   1.044 -0.5224  1.0946 -1.3321
  136MOL0     C18645  11.107   9.728   1.142 -1.0593  0.0884  0.5057
  136MOL0     C18646  11.244   9.768   1.085  0.1769 -0.6653 -0.6348
  136MOL0     N18647  11.306   9.681   0.984 -0.7928  0.4849  0.2481
  136MOL0     C18648  11.280   9.680   0.846  0.1368 -0.6336 -0.9531
  136MOL0     C18649  11.363   9.577   0.803  0.2644 -0.3906  0.0353
  136MOL0     C18650  11.387   9.548   0.656 -0.3698 -0.3117  0.9415
  136MOL0     C18651  11.479   9.658   0.585 -0.0194  0.4691 -0.9838
  136MOL0     C18652  11.466   9.661   0.435  1.0289 -0.1045  0.0283
  136MOL0     C18653  11.487   9.532   0.358 -0.3602 -0.2539  0.0746
  136MOL0     O18654  11.497   9.557   0.215 -0.3443 -0.2402 -0.2773
  136MOL0     C18655  11.631   9.530   0.175  0.0964 -0.5685 -0.2823
  136MOL0     C18656  11.746   9.598   0.228 -0.1011  0.8531  0.1028
  136MOL0     C18657  11.883   9.584   0.179  0.2429  0.1573  0.2124
  136MOL0     C18658  11.991   9.671   0.250  0.5812 -0.2465 -0.7686
  136MOL0     C18659  11.897   9.498   0.069 -0.8220  1.7538  0.0151
  136MOL0     C18660  12.028   9.468   0.004  0.9038  0.2995 -0.3961
  136MOL0     O18661  12.037   9.365  -0.089  0.5186 -0.0222  0.6614
  136MOL0     C18662  12.155   9.326  -0.139  0.5883 -0.1941 -0.5194
  136MOL0     C18663  12.179   9.331  -0.269 -0.0043 -0.2757  0.7272
  136MOL0     C18664  12.305   9.277  -0.319 -0.3746 -0.4206 -0.3918
  136MOL0     C18665  12.399   9.220  -0.237  0.3750  1.0945  0.4592
  136MOL0     O18666  12.525   9.174  -0.269  0.5364  1.3087 -1.0644
  136MOL0     C18667  12.594   9.234  -0.379 -0.3551  0.3709 -0.4975
  136MOL0     C18668  12.639   9.380  -0.356  0.1722  0.9475 -0.2582
  136MOL0     C18669  12.713   9.438  -0.478 -0.7404  0.4699  0.2943
  136MOL0     C18670  12.861   9.409  -0.481  0.0977 -0.3760 -0.4317
  136MOL0     C18671  12.935   9.450  -0.609  0.5456  0.4401  0.0762
  136MOL0     C18672  13.083   9.394  -0.618 -0.4627 -0.5020 -0.5069
  136MOL0     C18673  13.149   9.472  -0.728 -0.1844 -0.4272 -0.4787
  136MOL0     C18674  13.298   9.443  -0.736  0.5302  0.0855  0.5392
  136MOL0    Cl18675  13.308   9.276  -0.796  0.1930  0.3859  0.3449
  136MOL0     C18676  12.372   9.205  -0.105 -0.1779 -0.5572  0.3501
  136MOL0     C18677  12.251   9.268  -0.054  0.0179  0.5173  0.3550
  136MOL0     O18678  12.119   9.545   0.020 -0.6734 -0.3218  0.2944
  136MOL0     C18679  11.778   9.434   0.017 -0.6405 -0.5369  1.1985
  136MOL0     C18680  11.649   9.450   0.069  0.9057 -0.4528 -0.3408
  136MOL0     N18681  11.433   9.528   0.915  0.8661  0.0343 -0.8352
  136MOL0     N18682  11.383   9.581   1.020  0.4724  0.5777  0.1040
  136MOL0     C18683  10.006   9.729   1.075  0.4860  0.1205 -0.5193
  136MOL0     C18684   9.890   9.678   1.127 -0.6486 -0.4870  0.3515
  136MOL0     C18685   9.607   9.454   1.379 -0.4173 -0.3311 -0.0109
  136MOL0     C18686   9.584   9.423   1.513  0.0256 -0.5352 -0.4908
  136MOL0     C18687   9.450   9.411   1.561  0.3450 -0.1509  0.3740
  136MOL0     C18688   9.340   9.402   1.474  0.1987 -0.4723 -0.6246
  136MOL0     O18689   9.212   9.375   1.521 -0.2899  0.3208 -0.2689
  136MOL0     C18690   9.183   9.344   1.660 -0.6232 -0.0827 -0.3447
  136MOL0     C18691   9.043   9.307   1.675 -0.3296 -0.2600 -0.4698
  136MOL0     C18692   8.943   9.424   1.676 -0.7364  0.7681  0.5447
  136MOL0     C18693   8.962   9.532   1.786 -1.0486  0.3210 -0.3942
  136MOL0     C18694   8.848   9.621   1.793 -0.5338  0.3536 -0.6747
  136MOL0     C18695   8.753   9.688   1.813  0.2907  0.6072 -0.0526
  136MOL0     C18696   9.364   9.433   1.343  0.2742  0.1656 -0.1545
  136MOL0     C18697   9.491   9.470   1.295  0.3030  0.2289 -0.1120
  136MOL0     C18698   9.504   9.516   1.155  0.2181  0.9879  0.0796
  136MOL0     H18699   9.982   9.346   1.125 -0.6980 -0.4275 -2.5606
  136MOL0     H18700  10.203   9.448   1.081 -0.4297  0.6651  0.1187
  136MOL0     H18701  10.378   9.550   0.973  0.6189  2.0153 -2.3450
  136MOL0     H18702  10.369   9.592   1.143 -0.1816  1.7777  0.9375
  136MOL0     H18703  10.512   9.701   0.907 -2.3681 -0.5845 -1.5611
  136MOL0     H18704  10.464   9.831   1.012  0.0511 -0.4503  0.1637
  136MOL0     H18705  10.598   9.745   1.195 -1.0751 -1.8666  0.4786
  136MOL0     H18706  10.620   9.592   1.121  1.5113 -0.1846 -1.4938
  136MOL0     H18707  10.759   9.706   0.932 -0.8348  0.2548 -0.3620
  136MOL0     H18708  10.726   9.863   1.013  0.4958 -0.2549 -0.6966
  136MOL0     H18709  10.860   9.629   1.148 -0.0155  1.3422  1.6551
  136MOL0     H18710  10.827   9.790   1.204 -1.5002  1.3611 -0.7806
  136MOL0     H18711  10.987   9.720   0.949 -3.1267 -1.1640 -0.1663
  136MOL0     H18712  10.982   9.883   1.024  0.1467  0.7475 -3.7213
  136MOL0     H18713  11.113   9.620   1.159  0.6705 -0.4329 -2.6523
  136MOL0     H18714  11.102   9.781   1.238  0.8757  2.5092 -0.6234
  136MOL0     H18715  11.235   9.870   1.047  0.8721 -0.7797 -1.1256
  136MOL0     H18716  11.317   9.779   1.166  0.9811  1.1551 -1.5597
  136MOL0     H18717  11.214   9.746   0.791 -1.6167 -0.7655  0.8624
  136MOL0     H18718  11.294   9.541   0.600 -0.2175  0.1888  0.6267
  136MOL0     H18719  11.440   9.453   0.646  2.1196  0.8935  1.8603
  136MOL0     H18720  11.463   9.752   0.638  0.8477 -0.4449  1.0008
  136MOL0     H18721  11.586   9.651   0.609  0.1367  4.0320 -0.0935
  136MOL0     H18722  11.361   9.681   0.410  0.6685 -0.2472  1.3697
  136MOL0     H18723  11.531   9.738   0.394  1.2035  0.5889  1.5465
  136MOL0     H18724  11.574   9.476   0.393  0.3972 -0.9682 -2.6949
  136MOL0     H18725  11.397   9.472   0.372 -0.8415  0.0138 -1.5869
  136MOL0     H18726  11.732   9.681   0.296  0.1319 -1.4169  3.0952
  136MOL0     H18727  12.005   9.767   0.200 -0.7670 -0.7674 -2.2260
  136MOL0     H18728  12.088   9.619   0.250 -0.2479 -1.9082  0.4238
  136MOL0     H18729  11.965   9.680   0.356 -1.0939 -0.1034 -1.1618
  136MOL0     H18730  12.116   9.371  -0.349  1.7638 -0.7162 -0.9672
  136MOL0     H18731  12.324   9.277  -0.426 -3.7095 -4.9997 -1.2882
  136MOL0     H18732  12.678   9.168  -0.403 -0.5544  0.4387 -1.4082
  136MOL0     H18733  12.527   9.245  -0.465  0.0255 -2.4311 -1.2336
  136MOL0     H18734  12.552   9.442  -0.334  0.0664  1.0821 -1.0179
  136MOL0     H18735  12.699   9.387  -0.265 -0.0459 -4.1910  0.5500
  136MOL0     H18736  12.709   9.547  -0.486  0.2514  0.5334  0.5324
  136MOL0     H18737  12.659   9.405  -0.568 -2.0954  0.8900  0.9147
  136MOL0     H18738  12.878   9.304  -0.458 -0.2510 -0.1075  1.1642
  136MOL0     H18739  12.900   9.473  -0.401 -1.2473  1.0987 -0.9019
  136MOL0     H18740  12.881   9.422  -0.700  2.2622  1.3083 -1.2905
  136MOL0     H18741  12.939   9.559  -0.608  3.1696  0.4199  1.3425
  136MOL0     H18742  13.083   9.287  -0.638  0.8597 -0.8984  1.3332
  136MOL0     H18743  13.136   9.411  -0.524  2.0218 -0.9247 -1.7447
  136MOL0     H18744  13.143   9.581  -0.721  1.1823 -0.3164 -0.7319
  136MOL0     H18745  13.101   9.462  -0.826 -4.0312  0.9801  1.0769
  136MOL0     H18746  13.343   9.460  -0.638  0.9575 -1.0355  0.5559
  136MOL0     H18747  13.338   9.504  -0.817 -1.3524  0.8693  0.1565
  136MOL0     H18748  12.437   9.155  -0.035  1.4977  0.5424 -0.3747
  136MOL0     H18749  12.238   9.258   0.053  2.4033  0.4967  0.6946
  136MOL0     H18750  11.771   9.375  -0.074 -2.3806  4.6581 -2.5376
  136MOL0     H18751  11.562   9.412   0.016 -0.1640  1.0885  0.2218
  136MOL0     H18752  10.016   9.834   1.049  0.7589  0.6565  1.6050
  136MOL0     H18753   9.795   9.729   1.139 -0.4528 -0.0957  0.2429
  136MOL0     H18754   9.674   9.412   1.572 -0.0349  2.3088  0.2446
  136MOL0     H18755   9.438   9.389   1.667  0.7460 -3.8100 -0.2095
  136MOL0     H18756   9.235   9.254   1.694  0.2203  1.2516  2.1780
  136MOL0     H18757   9.214   9.421   1.732  1.4226 -1.0087 -0.1556
  136MOL0     H18758   9.038   9.256   1.772  1.5398  0.7417  0.2110
  136MOL0     H18759   9.021   9.235   1.596 -4.3031  0.7659 -0.4852
  136MOL0     H18760   8.952   9.475   1.580 -0.4054 -1.0825 -0.4565
  136MOL0     H18761   8.840   9.387   1.683 -0.1221 -1.1957 -0.1323
  136MOL0     H18762   9.049   9.597   1.773 -1.2373  0.5772 -0.3728
  136MOL0     H18763   8.980   9.474   1.877 -0.5413  1.2911  0.1344
  136MOL0     H18764   8.663   9.741   1.832  0.4230  0.8574 -0.1170
  136MOL0     H18765   9.280   9.433   1.274  0.2895  3.2524 -0.2815
  136MOL0     H18766   9.573   9.599   1.137  1.6730 -0.6341 -2.4821
  136MOL0     H18767   9.531   9.428   1.095  1.1577 -0.2327  2.1723
  136MOL0     H18768   9.411   9.563   1.124  0.9846  2.8270  0.4720
  137MOL0     O18769   7.580   2.997  10.237  0.4952  0.6056  0.3049
  137MOL0     C18770   7.547   2.938  10.130  1.0001 -0.1757  0.1509
  137MOL0     O18771   7.618   2.831  10.080 -0.2499  0.2025 -0.0307
  137MOL0     C18772   7.742   2.802  10.137  0.0778 -0.0701  0.4334
  137MOL0     C18773   7.779   2.674  10.181  0.2329  0.3591 -0.5364
  137MOL0     C18774   7.905   2.641  10.235  0.3151 -0.5936  0.0590
  137MOL0     C18775   8.005   2.742  10.235 -0.4861 -0.1587  0.9558
  137MOL0     O18776   8.144   2.726  10.266  0.6608 -0.1180 -0.1577
  137MOL0     C18777   8.201   2.596  10.257  0.2333  0.2317  0.3335
  137MOL0     C18778   8.353   2.600  10.299  0.4589  0.3196 -0.4783
  137MOL0     C18779   8.438   2.700  10.215  1.1321 -0.8305 -0.3023
  137MOL0     C18780   8.580   2.669  10.224 -0.0097  0.2443  0.1193
  137MOL0     C18781   8.671   2.765  10.141  0.1714  0.2385 -0.0432
  137MOL0     C18782   8.806   2.713  10.111 -0.4185 -0.0448  1.3436
  137MOL0     C18783   8.908   2.733  10.226  0.6956 -0.2220 -0.1200
  137MOL0     C18784   9.053   2.700  10.170 -0.5988 -0.7137 -0.8119
  137MOL0     N18785   9.113   2.799  10.073 -0.6346 -0.1721  0.4064
  137MOL0     C18786   9.187   2.761   9.966  0.3351  0.4775  0.1560
  137MOL0     C18787   9.210   2.872   9.906  0.1514  0.7540 -0.7618
  137MOL0     C18788   9.303   2.881   9.784 -0.2082 -0.0560 -0.3446
  137MOL0     C18789   9.428   2.959   9.819 -0.9100  0.0271 -0.4356
  137MOL0     C18790   9.503   3.018   9.698 -0.4618  0.0097  0.0969
  137MOL0     C18791   9.557   2.904   9.605  0.1439 -0.2974 -0.7570
  137MOL0     O18792   9.632   2.812   9.684  0.6403  0.5372 -0.3332
  137MOL0     C18793   9.731   2.751   9.619  0.2653 -0.7310  0.5239
  137MOL0     C18794   9.856   2.734   9.684  0.0411  0.8213  0.5628
  137MOL0     C18795   9.963   2.658   9.630 -0.3901  1.3208 -0.0174
  137MOL0     C18796  10.098   2.651   9.713  0.3370 -0.4535 -0.3355
  137MOL0     C18797   9.941   2.587   9.505 -1.5987 -0.2500 -0.7130
  137MOL0     C18798  10.040   2.496   9.444 -0.1912  0.6336  0.0912
  137MOL0     O18799   9.992   2.405   9.343 -0.1789  0.7644  1.1857
  137MOL0     C18800  10.081   2.334   9.262  0.0855  0.4971 -0.5492
  137MOL0     C18801  10.205   2.283   9.301  0.1743 -0.5975 -0.6851
  137MOL0     C18802  10.284   2.218   9.204  0.1459 -0.6574  0.6683
  137MOL0     C18803  10.236   2.201   9.069 -0.5396 -0.1017 -0.1519
  137MOL0     O18804  10.324   2.148   8.980 -0.3039  0.0593 -0.4000
  137MOL0     C18805  10.299   2.156   8.838 -0.9759 -0.0428  0.5852
  137MOL0     C18806  10.364   2.032   8.779 -0.4562 -1.3495  0.1101
  137MOL0     C18807  10.506   1.991   8.824  0.3969  0.4105  0.0758
  137MOL0     C18808  10.583   1.878   8.747  0.4509  0.0330  0.8710
  137MOL0     C18809  10.734   1.890   8.776  0.0274 -0.1512 -0.0510
  137MOL0     C18810  10.806   2.000   8.700  0.1445  0.7830  0.5778
  137MOL0     C18811  10.800   1.977   8.549  0.4224 -1.3063 -0.2423
  137MOL0     C18812  10.926   2.053   8.497 -0.1887  1.1511 -0.1266
  137MOL0    Cl18813  10.924   2.058   8.317 -0.3701  0.0873 -0.1109
  137MOL0     C18814  10.102   2.226   9.042 -0.6829 -0.3890 -0.9358
  137MOL0     C18815  10.024   2.306   9.134 -0.0738 -0.2118  0.0475
  137MOL0     O18816  10.156   2.515   9.470 -0.2001  0.3268 -0.3564
  137MOL0     C18817   9.817   2.607   9.444 -0.0603  0.0208 -0.1722
  137MOL0     C18818   9.721   2.694   9.494 -0.0292 -0.5457 -0.2415
  137MOL0     N18819   9.162   2.983   9.984  0.5647 -0.1621  0.0792
  137MOL0     N18820   9.099   2.932  10.076  0.3438 -0.1702 -0.7727
  137MOL0     C18821   7.973   2.866  10.183 -0.1237  0.1858 -0.7205
  137MOL0     C18822   7.848   2.899  10.129  0.4758  0.0445 -0.9772
  137MOL0     C18823   7.434   2.996  10.057  0.6048  0.8848  0.5639
  137MOL0     C18824   7.363   3.094  10.123  0.6567 -0.3841 -0.1829
  137MOL0     C18825   7.243   3.143  10.067 -0.5119  0.8982 -1.1401
  137MOL0     C18826   7.199   3.097   9.940 -0.3361 -0.5065 -0.1654
  137MOL0     O18827   7.072   3.137   9.888  0.3390 -0.1021 -0.4068
  137MOL0     C18828   7.021   3.275   9.898  0.0914  0.6257  0.6004
  137MOL0     C18829   6.898   3.310   9.805  0.0924  0.4366 -0.1497
  137MOL0     C18830   6.820   3.439   9.839  0.7675  0.0461 -0.5034
  137MOL0     C18831   6.901   3.562   9.831  0.3917 -0.9240  0.4779
  137MOL0     C18832   6.969   3.583   9.705  0.2540 -0.5639 -0.5042
  137MOL0     C18833   7.015   3.601   9.594  0.5733 -0.6794  0.0365
  137MOL0     C18834   7.277   3.004   9.871  0.5437 -0.0131  0.3890
  137MOL0     C18835   7.396   2.948   9.929 -0.8670  0.3489  0.4024
  137MOL0     C18836   7.480   2.850   9.848  0.2580 -0.9984  0.4425
  137MOL0     H18837   7.699   2.602  10.174  0.7783 -0.1079 -3.7953
  137MOL0     H18838   7.927   2.540  10.270  1.5215 -0.9047 -1.4623
  137MOL0     H18839   8.193   2.548  10.159 -0.4263 -1.8947  1.3545
  137MOL0     H18840   8.156   2.529  10.332  0.8255 -0.3173  0.2035
  137MOL0     H18841   8.362   2.638  10.401 -0.0710 -0.2889 -0.1995
  137MOL0     H18842   8.393   2.498  10.294  0.7073  0.4579 -3.0933
  137MOL0     H18843   8.405   2.688  10.111  1.6636  1.2254 -0.7523
  137MOL0     H18844   8.409   2.803  10.238 -1.7753 -1.6057 -0.0882
  137MOL0     H18845   8.607   2.661  10.330 -0.4688 -3.5188  0.0868
  137MOL0     H18846   8.593   2.568  10.185  2.7294  1.6214 -2.9709
  137MOL0     H18847   8.674   2.866  10.183  3.2671  0.6673 -1.0429
  137MOL0     H18848   8.622   2.764  10.043  0.0660  1.8749 -0.0366
  137MOL0     H18849   8.805   2.610  10.075 -0.8059  0.1955  0.6424
  137MOL0     H18850   8.850   2.760  10.022  0.8913 -4.9631 -0.9648
  137MOL0     H18851   8.878   2.663  10.305 -2.6319  2.3936  1.1591
  137MOL0     H18852   8.921   2.838  10.255  1.0102  0.2012 -1.7185
  137MOL0     H18853   9.125   2.678  10.249  0.7880 -1.7886 -2.3133
  137MOL0     H18854   9.041   2.605  10.117 -4.9729  0.3256 -2.1246
  137MOL0     H18855   9.222   2.661   9.943  1.3829  0.4007  1.8963
  137MOL0     H18856   9.260   2.945   9.706 -0.8167  1.3530  1.0911
  137MOL0     H18857   9.323   2.781   9.743  1.7146  0.3222 -0.4446
  137MOL0     H18858   9.396   3.048   9.873 -1.8410 -0.7372  0.3052
  137MOL0     H18859   9.493   2.896   9.882  0.3533 -0.4803 -2.1596
  137MOL0     H18860   9.437   3.089   9.645 -0.6570 -0.3441 -0.1373
  137MOL0     H18861   9.579   3.088   9.735  1.1724 -2.2499  1.1919
  137MOL0     H18862   9.471   2.855   9.558 -2.3571  1.5724  1.5432
  137MOL0     H18863   9.607   2.953   9.521  0.1175  1.9528  0.4816
  137MOL0     H18864   9.871   2.788   9.777 -0.2960 -0.9567  1.6928
  137MOL0     H18865  10.175   2.686   9.644 -1.4332  1.0714 -1.6617
  137MOL0     H18866  10.129   2.552   9.747  1.4331  0.6335  2.1000
  137MOL0     H18867  10.095   2.719   9.799 -0.8819 -0.5273 -0.2930
  137MOL0     H18868  10.230   2.302   9.405 -1.5282 -4.0443  0.5192
  137MOL0     H18869  10.388   2.202   9.231  0.2442 -2.6777 -0.7360
  137MOL0     H18870  10.194   2.159   8.809 -0.9887  1.9640  0.7067
  137MOL0     H18871  10.345   2.240   8.785 -0.5399 -1.7400 -1.9240
  137MOL0     H18872  10.295   1.952   8.807 -0.9947 -0.0944  2.6724
  137MOL0     H18873  10.366   2.029   8.669 -2.6964 -2.5877  0.0329
  137MOL0     H18874  10.503   1.963   8.930 -0.1889 -2.8497 -0.6814
  137MOL0     H18875  10.571   2.079   8.815  3.8351 -1.7612  1.7009
  137MOL0     H18876  10.568   1.881   8.638 -2.2747 -2.1029  1.0751
  137MOL0     H18877  10.547   1.778   8.774  3.1104 -0.9823  0.9559
  137MOL0     H18878  10.747   1.900   8.884  0.8641  0.6844 -0.2173
  137MOL0     H18879  10.771   1.792   8.743 -0.2400  0.0796 -1.0719
  137MOL0     H18880  10.911   2.000   8.732  0.2497  2.0094  0.2921
  137MOL0     H18881  10.758   2.095   8.725 -0.6304  0.4758  0.2775
  137MOL0     H18882  10.714   2.031   8.511 -0.1816 -0.8885  1.6135
  137MOL0     H18883  10.815   1.874   8.513  0.0975 -1.0443 -1.1544
  137MOL0     H18884  11.014   1.996   8.527 -1.3402 -0.6074  0.0500
  137MOL0     H18885  10.936   2.152   8.544  0.3196  0.6557  0.8419
  137MOL0     H18886  10.065   2.195   8.945  0.7034  0.2056 -1.6800
  137MOL0     H18887   9.922   2.336   9.112 -0.1690 -1.2318 -1.0532
  137MOL0     H18888   9.802   2.571   9.343 -0.2050  2.8339 -1.2520
  137MOL0     H18889   9.633   2.713   9.433  1.8300  2.7703 -2.1577
  137MOL0     H18890   8.046   2.946  10.170  0.3661 -0.0014  0.7466
  137MOL0     H18891   7.828   2.998  10.090  2.6210  0.1446 -1.9600
  137MOL0     H18892   7.406   3.141  10.211  1.0511  0.6894 -0.9240
  137MOL0     H18893   7.184   3.213  10.126  0.9174  1.0528  0.1778
  137MOL0     H18894   6.994   3.286  10.003  1.7464  2.9867  0.8397
  137MOL0     H18895   7.104   3.343   9.881  0.1047  0.4529 -0.0636
  137MOL0     H18896   6.822   3.232   9.814  1.7409 -1.0449  1.9001
  137MOL0     H18897   6.929   3.311   9.700  0.0881 -0.4636 -0.1642
  137MOL0     H18898   6.741   3.441   9.762  2.0827  2.8442 -1.9388
  137MOL0     H18899   6.775   3.440   9.939 -4.2882  1.2685 -2.4696
  137MOL0     H18900   6.975   3.565   9.911  1.2832 -1.8019 -0.3063
  137MOL0     H18901   6.843   3.655   9.843  2.1456  0.4164 -0.9107
  137MOL0     H18902   7.041   3.622   9.492 -5.0969 -0.8682 -1.7997
  137MOL0     H18903   7.255   2.972   9.771  3.3422  1.6441 -0.8948
  137MOL0     H18904   7.468   2.751   9.893 -2.8420  0.5246  3.5211
  137MOL0     H18905   7.438   2.838   9.748  0.9025  2.4667 -0.3744
  137MOL0     H18906   7.583   2.887   9.850 -0.1173  0.0650  0.4648
  138MOL0     O18907   0.193   8.642   4.516 -0.0596 -0.2388 -0.1226
  138MOL0     C18908   0.212   8.638   4.393  0.3947 -0.7058  0.7302
  138MOL0     O18909   0.324   8.601   4.332 -0.3786 -0.3193  0.0716
  138MOL0     C18910   0.408   8.520   4.402 -0.1656 -0.3587 -0.2657
  138MOL0     C18911   0.460   8.554   4.523 -0.0850  0.5801 -0.4355
  138MOL0     C18912   0.541   8.462   4.594 -0.2230  0.1453 -0.0721
  138MOL0     C18913   0.556   8.331   4.553  0.0703  0.2310 -0.4358
  138MOL0     O18914   0.622   8.243   4.640  0.0072 -0.0646  0.4386
  138MOL0     C18915   0.616   8.109   4.614  0.6524  0.0454  0.1654
  138MOL0     C18916   0.688   8.049   4.727 -0.2905 -0.8032  0.5980
  138MOL0     C18917   0.739   7.901   4.703 -0.0228 -0.4619 -0.3324
  138MOL0     C18918   0.866   7.911   4.614  0.2772  0.2600 -0.1387
  138MOL0     C18919   0.921   7.767   4.587 -0.0820 -0.1633  0.2502
  138MOL0     C18920   1.062   7.753   4.538 -0.2084 -0.0877  0.1792
  138MOL0     C18921   1.087   7.818   4.406 -0.1270 -0.7988  1.2214
  138MOL0     C18922   1.010   7.758   4.289  0.0733  0.2616 -0.0654
  138MOL0     N18923   1.075   7.790   4.161 -0.1126 -0.3731 -0.2149
  138MOL0     C18924   1.169   7.708   4.105 -0.2865 -0.4491  0.8175
  138MOL0     C18925   1.177   7.749   3.976  0.7891  0.4919 -0.5183
  138MOL0     C18926   1.288   7.700   3.891  0.4552  0.0468 -0.0116
  138MOL0     C18927   1.243   7.589   3.798 -0.1588  0.4222  0.8329
  138MOL0     C18928   1.348   7.482   3.785 -0.2471 -0.1782  0.0512
  138MOL0     C18929   1.480   7.531   3.708  0.3030 -0.2699 -0.5704
  138MOL0     O18930   1.538   7.656   3.747  0.1022 -0.3411  0.1350
  138MOL0     C18931   1.636   7.719   3.665  1.1364 -1.2311  0.4865
  138MOL0     C18932   1.703   7.648   3.567 -0.0567  0.1743 -0.2915
  138MOL0     C18933   1.788   7.713   3.471  0.3574  0.2647 -0.2838
  138MOL0     C18934   1.845   7.629   3.360  0.2455 -0.0419  0.1210
  138MOL0     C18935   1.816   7.857   3.484  0.6471 -0.6325 -0.3629
  138MOL0     C18936   1.904   7.940   3.402 -0.8947 -0.4030  0.6462
  138MOL0     O18937   1.921   8.067   3.442  0.5610  0.0978 -0.4075
  138MOL0     C18938   2.000   8.155   3.366  0.4276 -0.0001 -0.4312
  138MOL0     C18939   1.998   8.167   3.231  0.2001 -0.1378  0.0309
  138MOL0     C18940   2.079   8.262   3.161 -0.2788  0.1554 -0.6353
  138MOL0     C18941   2.165   8.346   3.237  0.1445 -0.1790 -0.6322
  138MOL0     O18942   2.218   8.451   3.169 -0.3106  0.0884 -0.9208
  138MOL0     C18943   2.357   8.465   3.176 -0.3289  0.2565  0.0548
  138MOL0     C18944   2.396   8.600   3.119 -0.4848 -0.5126  0.2137
  138MOL0     C18945   2.381   8.612   2.963  0.6184 -0.2679  0.2945
  138MOL0     C18946   2.347   8.761   2.920  0.2492  0.4876  0.6858
  138MOL0     C18947   2.372   8.807   2.777  0.1038 -0.4466  0.3657
  138MOL0     C18948   2.281   8.922   2.739 -0.6466 -0.4177  0.3405
  138MOL0     C18949   2.339   9.049   2.800 -0.1963  1.0760 -0.9277
  138MOL0     C18950   2.263   9.163   2.748  1.4851 -1.4267 -0.3319
  138MOL0    Cl18951   2.306   9.328   2.813 -0.1978  0.4159 -0.2093
  138MOL0     C18952   2.178   8.334   3.374  0.2145  0.8597  0.6759
  138MOL0     C18953   2.089   8.238   3.435  0.4808 -0.2221 -0.6814
  138MOL0     O18954   1.956   7.894   3.307  1.2226 -0.1169 -0.4748
  138MOL0     C18955   1.752   7.924   3.594 -0.4637  0.2671  0.6514
  138MOL0     C18956   1.661   7.862   3.686 -0.1762 -0.0231 -0.2061
  138MOL0     N18957   1.094   7.851   3.961  0.1930  0.0155  0.1171
  138MOL0     N18958   1.028   7.871   4.071  0.0267  0.5022  0.6696
  138MOL0     C18959   0.500   8.294   4.429 -0.0913  0.0574  0.1537
  138MOL0     C18960   0.441   8.391   4.354 -0.0221 -0.1162  0.2352
  138MOL0     C18961   0.095   8.696   4.307 -0.3019 -0.1963 -0.3418
  138MOL0     C18962   0.127   8.746   4.184 -0.6381 -0.7136 -0.0410
  138MOL0     C18963   0.041   8.802   4.094 -0.0949  0.1075 -0.4210
  138MOL0     C18964  -0.093   8.814   4.133 -0.1527  0.0002 -0.9322
  138MOL0     O18965  -0.170   8.890   4.048 -0.3052 -0.2053  0.2371
  138MOL0     C18966  -0.311   8.895   4.076  0.1863  0.3220 -1.2159
  138MOL0     C18967  -0.387   8.935   3.951  0.1133  0.1890 -0.4132
  138MOL0     C18968  -0.363   9.085   3.919  0.1345  0.9508 -0.7268
  138MOL0     C18969  -0.356   9.115   3.772 -0.1393  0.6482 -0.2079
  138MOL0     C18970  -0.364   9.263   3.750  0.0880  0.3649  0.4824
  138MOL0     C18971  -0.358   9.382   3.724 -0.4214  0.5654  0.1518
  138MOL0     C18972  -0.127   8.763   4.265 -0.7746 -0.0707 -0.5127
  138MOL0     C18973  -0.038   8.701   4.350  0.0687 -0.3051  0.0383
  138MOL0     C18974  -0.090   8.676   4.486  0.1966 -0.7181 -0.6188
  138MOL0     H18975   0.444   8.655   4.559  2.3812  0.3059  1.7677
  138MOL0     H18976   0.598   8.490   4.682  0.4279 -3.7717  0.9339
  138MOL0     H18977   0.667   8.094   4.518 -1.5161 -1.4574 -0.8218
  138MOL0     H18978   0.516   8.065   4.618  1.1793 -1.2279 -0.1958
  138MOL0     H18979   0.767   8.120   4.751 -1.7133  0.8561  0.5167
  138MOL0     H18980   0.630   8.056   4.819  1.8611  0.9676  1.8990
  138MOL0     H18981   0.765   7.842   4.792 -0.5471 -0.8020 -0.3998
  138MOL0     H18982   0.657   7.842   4.660 -2.0255  2.6827 -1.1262
  138MOL0     H18983   0.828   7.955   4.521  0.5172  0.0845 -0.3226
  138MOL0     H18984   0.941   7.975   4.661  1.3968 -1.5227  0.5780
  138MOL0     H18985   0.855   7.698   4.534 -0.2780  1.1120 -1.2317
  138MOL0     H18986   0.924   7.717   4.684  1.4330 -2.0742 -0.7083
  138MOL0     H18987   1.131   7.791   4.614 -0.2630  1.6790 -0.5986
  138MOL0     H18988   1.086   7.647   4.522  0.4034 -0.4930  3.0949
  138MOL0     H18989   1.188   7.798   4.370 -0.7035 -1.4280 -0.1074
  138MOL0     H18990   1.076   7.927   4.407 -1.3294 -0.8589 -0.6321
  138MOL0     H18991   0.988   7.654   4.313  0.6698  0.4980  1.6940
  138MOL0     H18992   0.905   7.791   4.287 -0.3381 -1.0079 -0.8656
  138MOL0     H18993   1.232   7.635   4.155  1.2824 -1.0790 -1.9135
  138MOL0     H18994   1.364   7.650   3.951  2.3694 -0.3563 -2.6271
  138MOL0     H18995   1.331   7.784   3.836 -2.2624  0.5835 -1.5347
  138MOL0     H18996   1.147   7.543   3.825 -0.7571  0.2741 -1.4014
  138MOL0     H18997   1.234   7.638   3.701 -0.0308  1.6261  1.4126
  138MOL0     H18998   1.379   7.455   3.886 -0.3315 -1.1577 -0.1748
  138MOL0     H18999   1.300   7.400   3.730  2.6913 -2.9822  1.3403
  138MOL0     H19000   1.555   7.452   3.719 -0.6431 -1.1642 -0.3295
  138MOL0     H19001   1.459   7.538   3.601  3.0667  1.1427 -1.1076
  138MOL0     H19002   1.679   7.542   3.563 -2.3523  0.6479 -1.6773
  138MOL0     H19003   1.806   7.659   3.262 -0.3220 -1.4415 -0.1001
  138MOL0     H19004   1.821   7.523   3.372  4.7932 -1.1184  1.9376
  138MOL0     H19005   1.953   7.635   3.377 -0.2242  0.8120  3.6371
  138MOL0     H19006   1.922   8.109   3.178 -0.0176  0.0273  0.1595
  138MOL0     H19007   2.078   8.260   3.053 -2.8340 -2.4348 -0.7013
  138MOL0     H19008   2.397   8.459   3.278  1.7045  1.2880 -0.6244
  138MOL0     H19009   2.399   8.379   3.123 -2.7284 -2.4083  2.1452
  138MOL0     H19010   2.332   8.676   3.163 -1.4435 -1.6430  0.8448
  138MOL0     H19011   2.503   8.621   3.128 -0.0792 -1.5499 -1.6073
  138MOL0     H19012   2.304   8.542   2.929 -1.7388  1.3483  1.9470
  138MOL0     H19013   2.469   8.569   2.916 -1.5996 -3.6984 -1.1657
  138MOL0     H19014   2.398   8.827   2.990  2.2040 -1.5449  1.2996
  138MOL0     H19015   2.242   8.776   2.948  0.3437  0.4408  1.0747
  138MOL0     H19016   2.480   8.819   2.768  0.0225  1.9937  1.9734
  138MOL0     H19017   2.345   8.725   2.709 -1.6155  2.2783 -2.4944
  138MOL0     H19018   2.175   8.907   2.760 -0.5661 -0.1454  0.9616
  138MOL0     H19019   2.264   8.930   2.631 -0.8861  2.6202  0.5146
  138MOL0     H19020   2.442   9.064   2.767 -0.1731 -0.3372 -1.5625
  138MOL0     H19021   2.340   9.042   2.909  1.1032 -1.3643 -1.0231
  138MOL0     H19022   2.157   9.145   2.768  1.3755 -0.7689 -0.2875
  138MOL0     H19023   2.268   9.166   2.638  3.2634 -0.7363 -0.2657
  138MOL0     H19024   2.252   8.386   3.434  1.1819 -0.8524  1.0383
  138MOL0     H19025   2.110   8.230   3.541  0.7275 -1.1339 -0.7949
  138MOL0     H19026   1.761   8.028   3.623  0.7150  0.9587 -1.9184
  138MOL0     H19027   1.628   7.917   3.773  4.0621  1.9793  0.3676
  138MOL0     H19028   0.509   8.189   4.403  1.7973 -0.8736  3.8460
  138MOL0     H19029   0.411   8.369   4.252  2.2647 -0.9030 -0.3155
  138MOL0     H19030   0.225   8.747   4.139 -0.7936  2.9462 -0.5986
  138MOL0     H19031   0.075   8.846   4.001  2.4122 -0.6792  0.0290
  138MOL0     H19032  -0.352   8.804   4.120 -0.8060  0.2451 -2.2623
  138MOL0     H19033  -0.332   8.969   4.154 -1.9511  0.5826 -1.9894
  138MOL0     H19034  -0.492   8.910   3.965 -0.8202  2.7892 -2.0734
  138MOL0     H19035  -0.348   8.867   3.874 -1.0201 -0.0041 -0.8348
  138MOL0     H19036  -0.442   9.143   3.968 -0.0520 -0.5333  0.8104
  138MOL0     H19037  -0.267   9.109   3.964  0.5620 -0.7361 -0.7038
  138MOL0     H19038  -0.440   9.080   3.712 -0.2539 -2.0730  1.3926
  138MOL0     H19039  -0.262   9.076   3.732  1.0534  2.1922  0.9528
  138MOL0     H19040  -0.359   9.480   3.679  1.4423 -0.6578 -2.8904
  138MOL0     H19041  -0.227   8.776   4.305 -0.1290 -1.8035  1.8843
  138MOL0     H19042  -0.093   8.760   4.556  0.7048 -0.2976 -1.0900
  138MOL0     H19043  -0.193   8.640   4.479 -0.3554  0.5394  0.5787
  138MOL0     H19044  -0.035   8.589   4.524 -2.4751 -2.7410 -1.0738
  139MOL0     O19045   8.403   8.714   0.447 -0.5682  0.1842 -0.1504
  139MOL0     C19046   8.370   8.603   0.484 -0.0947  0.7655 -0.1473
  139MOL0     O19047   8.449   8.491   0.500 -0.1452  0.2418  0.8151
  139MOL0     C19048   8.587   8.508   0.473 -0.1759 -0.5128 -0.0195
  139MOL0     C19049   8.628   8.491   0.343 -0.2338 -0.7284 -0.3290
  139MOL0     C19050   8.764   8.524   0.313  0.7702 -0.0810  0.7151
  139MOL0     C19051   8.859   8.549   0.415 -0.0793  0.3522 -1.0027
  139MOL0     O19052   8.990   8.578   0.400 -0.4525 -0.1161 -0.0743
  139MOL0     C19053   9.050   8.597   0.273 -0.5807  0.4274 -0.1463
  139MOL0     C19054   9.202   8.585   0.301 -0.2293 -0.5687  0.0886
  139MOL0     C19055   9.283   8.568   0.170 -0.0945  0.0749  0.2655
  139MOL0     C19056   9.396   8.467   0.199  0.1702  0.3912  0.7518
  139MOL0     C19057   9.491   8.403   0.096 -0.2152 -0.2231 -0.0171
  139MOL0     C19058   9.588   8.308   0.162 -0.5617  0.6312  0.4869
  139MOL0     C19059   9.679   8.230   0.048  0.3343 -0.5444 -0.2989
  139MOL0     C19060   9.792   8.140   0.109  1.0794  0.4276  0.2990
  139MOL0     N19061   9.878   8.225   0.191  1.0009  0.7769 -0.3108
  139MOL0     C19062   9.908   8.362   0.178 -0.2743  0.4823 -0.3030
  139MOL0     C19063   9.990   8.385   0.290 -0.9633 -0.1483  0.2863
  139MOL0     C19064  10.066   8.506   0.312  0.3199 -0.1989 -0.6419
  139MOL0     C19065  10.208   8.479   0.374 -0.3024  0.6086 -0.3397
  139MOL0     C19066  10.255   8.627   0.405 -0.6403 -0.1879 -0.1827
  139MOL0     C19067  10.406   8.616   0.432  0.1298  0.1910 -0.2081
  139MOL0     O19068  10.429   8.565   0.560  0.2231 -0.5343 -0.0761
  139MOL0     C19069  10.546   8.534   0.611 -1.4667 -0.6380  0.2614
  139MOL0     C19070  10.552   8.492   0.748 -0.0971 -0.1897  0.7874
  139MOL0     C19071  10.670   8.470   0.823  0.2077 -0.1958  0.0900
  139MOL0     C19072  10.652   8.421   0.970  0.7406 -0.4609  1.0002
  139MOL0     C19073  10.799   8.485   0.758  0.5805  1.0892  0.1654
  139MOL0     C19074  10.929   8.459   0.816 -1.0769  0.4409 -0.1364
  139MOL0     O19075  11.038   8.462   0.729  0.2684 -0.1887 -0.0666
  139MOL0     C19076  11.158   8.456   0.790  0.4045  0.6238 -0.2532
  139MOL0     C19077  11.226   8.331   0.814 -0.0053  0.9920 -0.3923
  139MOL0     C19078  11.344   8.327   0.876 -0.3348 -0.1298 -0.9848
  139MOL0     C19079  11.400   8.438   0.935 -0.1233 -0.1308  0.1208
  139MOL0     O19080  11.501   8.418   1.031  0.2540 -0.6037  0.0694
  139MOL0     C19081  11.626   8.373   0.973  0.6108  0.0295  0.0396
  139MOL0     C19082  11.720   8.482   0.940 -0.3083 -0.1407  0.7756
  139MOL0     C19083  11.729   8.585   1.048  0.2209 -0.2854  0.0630
  139MOL0     C19084  11.847   8.686   1.020  0.6844 -0.1678  0.3431
  139MOL0     C19085  11.858   8.800   1.115 -0.1157  0.0543 -0.5141
  139MOL0     C19086  11.994   8.878   1.094 -0.8195 -0.7632 -0.2358
  139MOL0     C19087  12.030   8.962   1.212 -1.2596  0.2500 -0.6635
  139MOL0     C19088  12.161   9.040   1.199 -0.4146 -0.7536  0.6187
  139MOL0    Cl19089  12.299   8.939   1.239  0.1715 -0.0551 -0.4725
  139MOL0     C19090  11.342   8.562   0.907  0.3777 -0.0991 -0.4011
  139MOL0     C19091  11.215   8.571   0.843  0.5008  0.6334 -0.4698
  139MOL0     O19092  10.943   8.440   0.936  0.0509 -0.1953 -0.5487
  139MOL0     C19093  10.787   8.524   0.622  0.6028 -0.2728  0.3695
  139MOL0     C19094  10.667   8.548   0.556  0.0505 -1.3348  0.4792
  139MOL0     N19095   9.994   8.274   0.378  0.0151 -0.1564 -0.4186
  139MOL0     N19096   9.921   8.185   0.318 -1.0166 -0.3039 -0.6671
  139MOL0     C19097   8.822   8.538   0.544  0.4154  0.0041 -0.7075
  139MOL0     C19098   8.680   8.516   0.576 -0.5208 -0.5706  0.8252
  139MOL0     C19099   8.227   8.584   0.515  0.9385  0.2483  0.2490
  139MOL0     C19100   8.198   8.472   0.594  0.1467  0.5446 -0.2681
  139MOL0     C19101   8.072   8.435   0.629  0.6100 -0.4525  0.2100
  139MOL0     C19102   7.962   8.518   0.589  1.7214 -0.0935  0.6034
  139MOL0     O19103   7.833   8.480   0.626  0.6019 -0.6614  0.8353
  139MOL0     C19104   7.772   8.368   0.553 -0.9391 -0.6921 -0.7224
  139MOL0     C19105   7.615   8.388   0.567 -0.0978 -0.0593  0.4425
  139MOL0     C19106   7.540   8.294   0.467 -0.1791 -0.8111 -0.8731
  139MOL0     C19107   7.579   8.301   0.326 -0.3878 -0.3586 -0.1171
  139MOL0     C19108   7.599   8.446   0.287  0.5337 -0.2608  0.0675
  139MOL0     C19109   7.604   8.564   0.261 -1.2297 -0.7928  0.3865
  139MOL0     C19110   7.977   8.635   0.517 -0.5835  0.1023 -0.5319
  139MOL0     C19111   8.107   8.669   0.481 -0.5830 -0.4830  0.2718
  139MOL0     C19112   8.123   8.792   0.398 -0.6039 -0.1610  1.4072
  139MOL0     H19113   8.557   8.474   0.263 -0.4825  0.4933 -0.3985
  139MOL0     H19114   8.797   8.529   0.210 -3.1124  0.8466 -0.6292
  139MOL0     H19115   9.028   8.697   0.234 -2.2644  0.5051  0.8985
  139MOL0     H19116   9.022   8.527   0.193 -2.1157  1.9872 -1.0432
  139MOL0     H19117   9.231   8.681   0.344  1.3832 -0.1640 -1.7221
  139MOL0     H19118   9.219   8.508   0.376  2.3993  0.3755  0.5628
  139MOL0     H19119   9.212   8.517   0.105 -1.8463 -1.7685  3.3300
  139MOL0     H19120   9.326   8.660   0.129 -2.0248 -0.1207 -2.4550
  139MOL0     H19121   9.456   8.513   0.278  2.2014 -0.3261 -0.2826
  139MOL0     H19122   9.349   8.379   0.244 -1.0639  0.4437 -0.3674
  139MOL0     H19123   9.543   8.488   0.052 -0.8217  1.7525  2.7668
  139MOL0     H19124   9.431   8.354   0.018 -0.0525  0.0706 -0.3281
  139MOL0     H19125   9.657   8.372   0.217 -0.9830  1.7783 -0.2893
  139MOL0     H19126   9.527   8.243   0.226 -1.8580  1.3812  0.0540
  139MOL0     H19127   9.722   8.305  -0.020  1.4729 -0.1005  0.8533
  139MOL0     H19128   9.617   8.159  -0.007 -0.1769 -0.3011 -0.0452
  139MOL0     H19129   9.748   8.057   0.166 -0.5602  0.4616 -0.8606
  139MOL0     H19130   9.843   8.087   0.028  0.7339 -0.0458  0.3826
  139MOL0     H19131   9.884   8.426   0.093  1.4013 -2.6667 -3.4335
  139MOL0     H19132  10.010   8.580   0.370  2.6384  1.7808 -0.7305
  139MOL0     H19133  10.083   8.547   0.212  2.2933 -1.7066 -0.9882
  139MOL0     H19134  10.192   8.423   0.466  1.3160  0.9294  0.1733
  139MOL0     H19135  10.274   8.422   0.309 -1.4043  0.3068 -1.2126
  139MOL0     H19136  10.258   8.685   0.313  0.4519 -1.5311 -1.0257
  139MOL0     H19137  10.197   8.670   0.488  0.5483  0.2884  0.4243
  139MOL0     H19138  10.456   8.543   0.367  1.4885  1.5645 -0.7602
  139MOL0     H19139  10.445   8.718   0.423  0.5092  0.0753  0.1034
  139MOL0     H19140  10.453   8.504   0.791 -1.4387  0.8774 -2.2791
  139MOL0     H19141  10.725   8.348   1.006  0.3081 -1.7942 -0.7337
  139MOL0     H19142  10.550   8.392   0.998  1.1443 -2.0126  0.9694
  139MOL0     H19143  10.681   8.509   1.029  0.8627 -0.6907  1.2864
  139MOL0     H19144  11.186   8.236   0.782 -0.4515  1.5444 -1.5106
  139MOL0     H19145  11.387   8.228   0.889  0.4727  0.4602  1.1708
  139MOL0     H19146  11.688   8.321   1.047  1.9117 -0.1082 -1.0993
  139MOL0     H19147  11.611   8.313   0.882 -0.6160  0.8119 -0.2985
  139MOL0     H19148  11.820   8.440   0.926  2.1058  3.8985  3.6495
  139MOL0     H19149  11.698   8.533   0.846 -0.4565 -2.9485 -0.8236
  139MOL0     H19150  11.749   8.537   1.144 -0.2751  1.1661  0.9203
  139MOL0     H19151  11.642   8.649   1.068 -0.7045 -1.5881  0.2924
  139MOL0     H19152  11.846   8.729   0.919 -0.8686  1.5254  1.0269
  139MOL0     H19153  11.940   8.629   1.032  1.7915  1.8595  2.0338
  139MOL0     H19154  11.773   8.867   1.096 -0.2177  0.7286  1.9339
  139MOL0     H19155  11.851   8.772   1.220 -5.1981  0.5992 -0.4432
  139MOL0     H19156  11.982   8.940   1.005 -2.5490 -1.0536 -0.2262
  139MOL0     H19157  12.076   8.811   1.066  0.1987 -0.4618  1.8401
  139MOL0     H19158  12.047   8.909   1.306  2.6409  0.8362 -0.8807
  139MOL0     H19159  11.954   9.040   1.227 -2.1666 -0.2415 -2.4277
  139MOL0     H19160  12.163   9.134   1.254 -0.7777  0.5641 -1.5028
  139MOL0     H19161  12.166   9.068   1.093  1.2253 -2.9678  0.0325
  139MOL0     H19162  11.384   8.655   0.944 -2.9282  0.6421  1.9899
  139MOL0     H19163  11.161   8.665   0.836  1.7834  1.9144  3.8392
  139MOL0     H19164  10.881   8.522   0.566  1.6809  1.8693  1.9613
  139MOL0     H19165  10.674   8.573   0.451  2.9302 -1.1518  0.6340
  139MOL0     H19166   8.893   8.549   0.626 -1.4255  4.1458  0.6535
  139MOL0     H19167   8.650   8.514   0.680  2.5161  2.7876  1.9489
  139MOL0     H19168   8.276   8.408   0.636 -0.9535 -0.6972 -0.0361
  139MOL0     H19169   8.041   8.349   0.688 -2.5480  0.2044 -0.3138
  139MOL0     H19170   7.815   8.365   0.453 -0.4125 -0.1624 -0.5221
  139MOL0     H19171   7.802   8.269   0.590  1.2627 -0.3157 -1.3332
  139MOL0     H19172   7.582   8.487   0.534  0.1819 -0.6607 -1.8029
  139MOL0     H19173   7.584   8.384   0.672 -0.1939 -0.1091  0.4131
  139MOL0     H19174   7.553   8.193   0.507  0.1077  0.0665  1.4088
  139MOL0     H19175   7.433   8.313   0.480  0.2820  0.6613  1.3997
  139MOL0     H19176   7.505   8.255   0.260  1.3691 -0.7320 -1.9535
  139MOL0     H19177   7.668   8.242   0.303 -1.3660 -1.8752 -0.1271
  139MOL0     H19178   7.603   8.670   0.247 -3.1338 -0.8920 -0.4599
  139MOL0     H19179   7.898   8.700   0.480  0.4879  0.4976 -2.2378
  139MOL0     H19180   8.031   8.820   0.345  0.0937 -0.6744 -0.1391
  139MOL0     H19181   8.162   8.868   0.467 -0.0073 -0.4092  1.3506
  139MOL0     H19182   8.197   8.774   0.319 -1.6805  2.3000 -0.3071
  140MOL0     O19183   4.196  10.875   9.190  0.0760  0.4177 -0.4465
  140MOL0     C19184   4.188  10.789   9.283 -0.2876  0.0424 -0.3687
  140MOL0     O19185   4.288  10.709   9.320  0.2734 -0.2434 -0.1086
  140MOL0     C19186   4.412  10.731   9.255  0.2537  1.2182 -0.1373
  140MOL0     C19187   4.508  10.799   9.334 -0.6667 -0.9488  0.0228
  140MOL0     C19188   4.648  10.778   9.310 -0.7185  0.1222 -0.1683
  140MOL0     C19189   4.685  10.713   9.191  0.7589  0.2666  0.2792
  140MOL0     O19190   4.813  10.694   9.155  0.4699  0.1265  0.0505
  140MOL0     C19191   4.892  10.623   9.253  0.2997  0.9526  0.0211
  140MOL0     C19192   5.016  10.580   9.182 -0.9014  0.3703 -0.2604
  140MOL0     C19193   5.118  10.695   9.171 -0.8405 -0.0083  0.3972
  140MOL0     C19194   5.229  10.643   9.091  0.1727 -0.2409  0.4399
  140MOL0     C19195   5.345  10.739   9.056 -0.1168 -0.2519  0.9346
  140MOL0     C19196   5.482  10.678   9.034 -0.1248 -0.0671 -0.8720
  140MOL0     C19197   5.590  10.786   9.002  0.5048  0.7504 -0.7510
  140MOL0     C19198   5.723  10.712   8.952 -0.6330 -0.3489  0.8759
  140MOL0     N19199   5.810  10.804   8.880  0.0270 -0.4395 -0.4283
  140MOL0     C19200   5.893  10.900   8.930 -0.6135  0.9731  0.5868
  140MOL0     C19201   5.996  10.918   8.836  0.3811  0.8444 -0.7805
  140MOL0     C19202   6.112  11.006   8.860 -0.0954 -1.0101 -0.1119
  140MOL0     C19203   6.225  10.918   8.896  0.1724  0.4940 -0.0585
  140MOL0     C19204   6.350  11.011   8.932 -0.6084 -0.6363  0.0504
  140MOL0     C19205   6.484  10.942   8.917 -0.4413  0.0243  0.4782
  140MOL0     O19206   6.526  10.858   9.025  0.8344 -0.1460  0.1117
  140MOL0     C19207   6.656  10.819   9.059  0.3235  0.1915  0.3395
  140MOL0     C19208   6.674  10.730   9.157 -0.6936  0.5479  0.3892
  140MOL0     C19209   6.799  10.681   9.202  0.1554  0.1671 -0.3149
  140MOL0     C19210   6.801  10.590   9.327  0.4875 -0.2864 -0.1185
  140MOL0     C19211   6.913  10.734   9.136 -0.5511 -0.2224 -0.0275
  140MOL0     C19212   7.045  10.666   9.169 -1.5092 -0.2318 -0.7737
  140MOL0     O19213   7.165  10.744   9.176  0.1865  0.2329  0.0774
  140MOL0     C19214   7.276  10.689   9.246  0.2488 -0.2119  0.0636
  140MOL0     C19215   7.405  10.734   9.231 -0.4037  0.3651 -0.1720
  140MOL0     C19216   7.514  10.671   9.291 -0.5248 -0.3590  0.2139
  140MOL0     C19217   7.503  10.561   9.381 -0.6007 -0.5160 -0.0477
  140MOL0     O19218   7.613  10.516   9.450 -0.0746 -0.3594  0.0308
  140MOL0     C19219   7.609  10.533   9.588  0.4970 -0.9753  0.1521
  140MOL0     C19220   7.733  10.610   9.641 -0.1912 -0.4220 -0.2305
  140MOL0     C19221   7.851  10.512   9.634 -1.5569  0.0107  0.5354
  140MOL0     C19222   7.983  10.581   9.677 -0.2254 -0.3579  0.0203
  140MOL0     C19223   8.022  10.683   9.583 -0.7523 -0.7206  0.6761
  140MOL0     C19224   8.154  10.748   9.633  1.3849 -0.2468 -0.7934
  140MOL0     C19225   8.186  10.875   9.564 -0.3010 -0.5962  0.5914
  140MOL0     C19226   8.318  10.940   9.617 -0.5205 -0.5657  0.0184
  140MOL0    Cl19227   8.288  11.017   9.781 -0.3873  0.3799  0.2910
  140MOL0     C19228   7.367  10.524   9.409 -0.4847  0.2450 -0.7747
  140MOL0     C19229   7.262  10.588   9.346 -0.0332 -0.1423  0.4718
  140MOL0     O19230   7.038  10.547   9.180 -0.0788 -0.2654  0.3524
  140MOL0     C19231   6.892  10.820   9.027  0.3962 -0.0022 -0.7096
  140MOL0     C19232   6.767  10.863   8.991 -0.3430  0.0680  1.2630
  140MOL0     N19233   5.962  10.835   8.724 -0.3479 -0.5079 -0.3913
  140MOL0     N19234   5.853  10.777   8.752 -0.1693  0.4021  0.3933
  140MOL0     C19235   4.587  10.657   9.107  0.0763  0.1417 -0.7736
  140MOL0     C19236   4.445  10.664   9.133 -0.4883 -0.5232  0.6334
  140MOL0     C19237   4.061  10.740   9.330  0.6633 -0.7455  0.3285
  140MOL0     C19238   4.014  10.616   9.289 -1.2032 -0.3114  0.0739
  140MOL0     C19239   3.889  10.575   9.328 -0.1152 -0.3005  0.3696
  140MOL0     C19240   3.805  10.652   9.411 -1.0354 -0.5197  0.5232
  140MOL0     O19241   3.692  10.590   9.454 -0.2439  0.2182  0.3624
  140MOL0     C19242   3.595  10.674   9.518 -0.2645 -0.0773 -0.1906
  140MOL0     C19243   3.451  10.606   9.512  0.1777  0.2955  0.3755
  140MOL0     C19244   3.357  10.666   9.627  0.3331  0.5316  0.1730
  140MOL0     C19245   3.225  10.592   9.622  0.6896 -0.0313  0.9906
  140MOL0     C19246   3.151  10.607   9.498 -0.3252 -0.1324  0.5179
  140MOL0     C19247   3.082  10.613   9.398 -0.0241  0.3377  0.4594
  140MOL0     C19248   3.852  10.781   9.451  0.4819  0.5236 -0.8211
  140MOL0     C19249   3.974  10.826   9.406 -0.2247 -0.2983 -0.2858
  140MOL0     C19250   4.014  10.973   9.434  0.2257  0.2934 -0.3222
  140MOL0     H19251   4.487  10.850   9.428  1.8960 -0.9050  0.6332
  140MOL0     H19252   4.731  10.812   9.371  1.8261 -1.8511 -2.2914
  140MOL0     H19253   4.836  10.535   9.286  1.0410  0.1827 -0.7201
  140MOL0     H19254   4.917  10.681   9.343  2.9816  1.7631 -1.1417
  140MOL0     H19255   5.048  10.494   9.241 -2.9324 -0.5899 -0.4538
  140MOL0     H19256   4.993  10.526   9.090  0.9331 -2.8817  1.0456
  140MOL0     H19257   5.076  10.782   9.120 -1.6058 -0.9334 -0.5892
  140MOL0     H19258   5.151  10.717   9.272  0.1431 -0.7552  0.2571
  140MOL0     H19259   5.267  10.563   9.156 -0.9889  0.3055  1.8529
  140MOL0     H19260   5.203  10.586   9.001  1.4050  3.1311 -2.2650
  140MOL0     H19261   5.356  10.802   9.144 -0.3943 -0.6506  1.2569
  140MOL0     H19262   5.318  10.803   8.972 -0.6566 -2.6780 -0.8755
  140MOL0     H19263   5.513  10.619   9.120  0.8857  0.6762 -0.7113
  140MOL0     H19264   5.473  10.605   8.953 -1.3584  1.2069 -1.9461
  140MOL0     H19265   5.608  10.831   9.100  2.9267  0.4150 -0.9822
  140MOL0     H19266   5.552  10.862   8.932 -1.0180  0.5396 -0.1979
  140MOL0     H19267   5.780  10.656   9.027  1.9204 -1.2687 -1.5665
  140MOL0     H19268   5.693  10.633   8.882 -0.2473  0.1533  0.1352
  140MOL0     H19269   5.905  10.934   9.032  0.5525  0.4865  0.6238
  140MOL0     H19270   6.096  11.067   8.949  0.0691  2.1856 -2.1339
  140MOL0     H19271   6.136  11.082   8.786  1.7320 -0.2920  1.1375
  140MOL0     H19272   6.195  10.867   8.988 -0.2998 -2.0776 -1.5283
  140MOL0     H19273   6.239  10.852   8.810 -1.9350  1.3543 -1.1144
  140MOL0     H19274   6.362  11.089   8.856  0.6826 -0.6754  0.1892
  140MOL0     H19275   6.338  11.050   9.033 -4.5233  0.0771 -0.5367
  140MOL0     H19276   6.483  10.889   8.821 -0.0855  1.2474 -0.2318
  140MOL0     H19277   6.557  11.023   8.910 -2.2813  1.6538 -1.3339
  140MOL0     H19278   6.584  10.706   9.214 -0.2225  0.6285  1.1856
  140MOL0     H19279   6.785  10.486   9.299 -1.7934  0.1095 -0.5624
  140MOL0     H19280   6.716  10.613   9.393  0.9287 -0.5491  0.5483
  140MOL0     H19281   6.892  10.603   9.386 -0.4643 -3.2388  2.2722
  140MOL0     H19282   7.407  10.814   9.158 -1.7716  0.4097 -0.1939
  140MOL0     H19283   7.612  10.706   9.261  0.4428 -1.8214  1.5207
  140MOL0     H19284   7.516  10.586   9.614  1.0548 -0.3796  0.9748
  140MOL0     H19285   7.607  10.433   9.631 -1.7380 -1.0250  0.0442
  140MOL0     H19286   7.745  10.708   9.593 -1.8116  0.8538  1.7672
  140MOL0     H19287   7.715  10.609   9.749 -0.2925 -2.3219 -0.2343
  140MOL0     H19288   7.874  10.471   9.535  1.9342 -0.2473  1.3493
  140MOL0     H19289   7.833  10.429   9.703 -0.2679 -1.9599 -1.3744
  140MOL0     H19290   8.065  10.512   9.698 -1.0922 -1.5593 -0.4362
  140MOL0     H19291   7.964  10.640   9.768 -1.8905  0.3712 -0.7635
  140MOL0     H19292   8.031  10.651   9.478 -3.3837  3.5395 -1.1316
  140MOL0     H19293   7.947  10.762   9.575  1.5920  1.8773  2.3903
  140MOL0     H19294   8.241  10.683   9.620  1.4019 -0.0707 -1.6394
  140MOL0     H19295   8.141  10.769   9.739 -0.0999  0.8084 -1.1487
  140MOL0     H19296   8.100  10.942   9.568 -0.0626  0.0596 -2.7904
  140MOL0     H19297   8.212  10.856   9.460  2.7513 -2.1243  1.5007
  140MOL0     H19298   8.339  11.022   9.547  1.5295  0.3864  1.6779
  140MOL0     H19299   8.399  10.868   9.613 -0.2670 -0.4261  1.8988
  140MOL0     H19300   7.359  10.459   9.495  0.8296  0.3391 -0.5602
  140MOL0     H19301   7.166  10.552   9.382  0.2962 -0.5367  0.9744
  140MOL0     H19302   6.983  10.834   8.970  1.7345  0.2057  1.3863
  140MOL0     H19303   6.748  10.929   8.907 -2.9215 -2.6655 -0.5123
  140MOL0     H19304   4.604  10.594   9.020  3.1450 -1.2368  0.6501
  140MOL0     H19305   4.379  10.610   9.065  1.0122 -2.8969  0.9455
  140MOL0     H19306   4.055  10.550   9.214 -2.5211 -1.0481 -0.0213
  140MOL0     H19307   3.849  10.477   9.304  1.4890 -0.1911 -3.3567
  140MOL0     H19308   3.626  10.685   9.622  0.0613 -2.7078  0.0752
  140MOL0     H19309   3.593  10.766   9.459  3.1269  0.2745 -0.0035
  140MOL0     H19310   3.467  10.501   9.537 -1.3446  0.3336  1.6749
  140MOL0     H19311   3.407  10.611   9.413  0.2924 -0.6392  0.2735
  140MOL0     H19312   3.406  10.657   9.724  4.3072  1.1781 -1.5797
  140MOL0     H19313   3.342  10.772   9.603 -0.6192  0.2285 -0.6620
  140MOL0     H19314   3.170  10.636   9.705  3.0708 -0.3379  2.8154
  140MOL0     H19315   3.239  10.485   9.640  2.1403 -0.0091  0.1665
  140MOL0     H19316   3.015  10.628   9.316 -1.3871  0.4653  1.5602
  140MOL0     H19317   3.792  10.846   9.514 -2.1065 -1.9404 -0.5146
  140MOL0     H19318   4.043  11.015   9.337  1.8583 -1.4306 -0.6438
  140MOL0     H19319   3.932  11.026   9.483 -0.5330  0.0190 -1.2623
  140MOL0     H19320   4.091  10.974   9.512 -0.0629  4.2055  0.1154
  141MOL0     O19321   1.218   9.694   2.565  0.4052 -0.2650 -0.0298
  141MOL0     C19322   1.238   9.579   2.595  0.0707  0.3636 -0.7496
  141MOL0     O19323   1.349   9.508   2.571  0.6435 -0.0820 -0.4825
  141MOL0     C19324   1.454   9.547   2.490  0.4553 -0.0208  0.0742
  141MOL0     C19325   1.564   9.460   2.495  1.2999 -0.3793  0.2206
  141MOL0     C19326   1.677   9.486   2.413 -0.7258 -0.2949 -0.0524
  141MOL0     C19327   1.685   9.600   2.331  0.0423  0.3923 -0.3290
  141MOL0     O19328   1.803   9.606   2.260 -0.4691 -0.0996 -0.9202
  141MOL0     C19329   1.838   9.738   2.219  0.3185 -0.2110 -0.1323
  141MOL0     C19330   1.977   9.728   2.165  0.2011  0.1428 -0.1275
  141MOL0     C19331   2.034   9.863   2.121  0.5507  0.1295  0.6027
  141MOL0     C19332   2.176   9.847   2.074 -0.0253 -0.2390 -0.2897
  141MOL0     C19333   2.245   9.990   2.051  0.6349  0.1551 -0.0768
  141MOL0     C19334   2.387   9.994   1.994  0.3403 -0.2857 -1.2579
  141MOL0     C19335   2.447  10.127   2.024 -0.0165 -0.7399  0.3814
  141MOL0     C19336   2.581  10.146   1.959  0.2899  0.6939 -0.0783
  141MOL0     N19337   2.642  10.277   1.977  0.1535  0.4986  0.3244
  141MOL0     C19338   2.745  10.301   2.067 -0.6859  0.3288  0.5399
  141MOL0     C19339   2.812  10.403   2.017  1.0644 -0.2707 -0.0221
  141MOL0     C19340   2.932  10.475   2.074  0.4140  0.4189  0.3462
  141MOL0     C19341   2.938  10.475   2.223  0.6521 -0.6502 -0.8360
  141MOL0     C19342   3.022  10.584   2.272  0.1940  0.4862  0.8104
  141MOL0     C19343   3.004  10.595   2.423  0.3587  0.4633  0.8146
  141MOL0     O19344   3.043  10.474   2.497 -0.5604 -0.3809  0.0797
  141MOL0     C19345   3.167  10.452   2.556  0.5788  0.2623 -0.3022
  141MOL0     C19346   3.276  10.546   2.555 -0.5845 -0.0238 -0.3920
  141MOL0     C19347   3.397  10.522   2.619  0.2218 -0.3348  0.6464
  141MOL0     C19348   3.493  10.642   2.618  0.6753 -0.5280  0.2932
  141MOL0     C19349   3.413  10.393   2.682 -0.9394  0.1990  0.2129
  141MOL0     C19350   3.540  10.352   2.752 -0.0702 -0.2300 -0.1140
  141MOL0     O19351   3.564  10.221   2.740  0.2222  0.0010 -0.3391
  141MOL0     C19352   3.684  10.165   2.769  0.5183  1.1856  0.9198
  141MOL0     C19353   3.812  10.214   2.749  0.0080 -0.6657 -0.3603
  141MOL0     C19354   3.927  10.144   2.760 -0.4560  0.5499  0.6920
  141MOL0     C19355   3.921  10.009   2.776  0.4561  1.3253  0.0972
  141MOL0     O19356   4.024   9.920   2.774 -0.0881 -0.4139  0.3599
  141MOL0     C19357   4.161   9.964   2.748  0.0360  0.0933 -0.2186
  141MOL0     C19358   4.262   9.865   2.803  0.6806 -0.5293 -0.3620
  141MOL0     C19359   4.405   9.888   2.777 -0.1679 -0.3414  0.4769
  141MOL0     C19360   4.439   9.895   2.625 -0.2011 -0.3914  0.1592
  141MOL0     C19361   4.590   9.864   2.617 -0.2518  0.0026  0.6036
  141MOL0     C19362   4.660   9.911   2.486  0.0909 -0.0830  0.2683
  141MOL0     C19363   4.804   9.967   2.509 -0.7916  0.5070 -0.2761
  141MOL0     C19364   4.867  10.015   2.376  0.2070 -0.2996  0.5046
  141MOL0    Cl19365   5.033  10.080   2.394 -0.5137 -0.1238  0.1625
  141MOL0     C19366   3.801   9.953   2.782 -0.9336  0.4276  0.9446
  141MOL0     C19367   3.685  10.024   2.775  0.8918  0.5499  0.7207
  141MOL0     O19368   3.598  10.431   2.822  0.3105 -0.3757 -0.8331
  141MOL0     C19369   3.312  10.297   2.673  0.1748 -0.1284  0.2961
  141MOL0     C19370   3.189  10.330   2.624 -0.0006 -0.4306 -0.9006
  141MOL0     N19371   2.766  10.438   1.889  0.6124 -0.1615 -0.2824
  141MOL0     N19372   2.661  10.356   1.869 -0.7831 -0.6817  0.5857
  141MOL0     C19373   1.571   9.685   2.325  0.1664  0.2338 -0.0298
  141MOL0     C19374   1.456   9.659   2.404  1.0686 -0.6682 -0.2803
  141MOL0     C19375   1.118   9.510   2.659 -1.2249  0.8982  0.4553
  141MOL0     C19376   1.028   9.596   2.727  1.2611  0.1599  0.2882
  141MOL0     C19377   0.919   9.545   2.803  0.2071 -1.2341  0.6774
  141MOL0     C19378   0.896   9.405   2.811 -0.0311 -1.1858  0.9753
  141MOL0     O19379   0.783   9.360   2.872 -0.2072  0.1570 -0.2741
  141MOL0     C19380   0.684   9.449   2.935  0.5099  0.2609 -0.8224
  141MOL0     C19381   0.562   9.369   2.987 -0.1632 -0.1999 -0.3293
  141MOL0     C19382   0.470   9.458   3.066 -0.2806 -0.2951  0.1587
  141MOL0     C19383   0.528   9.514   3.202  1.2518  1.1378  0.2033
  141MOL0     C19384   0.446   9.620   3.260 -0.4237 -0.3394  0.6091
  141MOL0     C19385   0.390   9.715   3.306  0.2298 -0.0934 -0.7413
  141MOL0     C19386   0.988   9.320   2.746 -0.6156 -0.2130  0.4568
  141MOL0     C19387   1.091   9.372   2.666 -0.5833 -0.0846 -0.6290
  141MOL0     C19388   1.180   9.274   2.592  0.0875  0.1402  0.4864
  141MOL0     H19389   1.560   9.369   2.554 -0.3011 -0.3579  0.1753
  141MOL0     H19390   1.764   9.424   2.429  0.5403  1.4787  0.2648
  141MOL0     H19391   1.825   9.810   2.300 -1.4984 -0.0554 -0.5135
  141MOL0     H19392   1.776   9.774   2.136  1.7609 -1.0379 -1.6239
  141MOL0     H19393   2.040   9.700   2.250  2.3457  2.2654 -0.8873
  141MOL0     H19394   1.971   9.661   2.080 -3.8572 -0.8048  0.7044
  141MOL0     H19395   1.965   9.896   2.043  1.1691 -0.2303 -0.1104
  141MOL0     H19396   2.020   9.942   2.195 -0.0547 -1.9535  2.8420
  141MOL0     H19397   2.224   9.794   2.158  0.1842  0.6363  0.1562
  141MOL0     H19398   2.195   9.786   1.986  3.3410  0.8416 -0.4669
  141MOL0     H19399   2.259  10.037   2.149  0.8300  0.0861 -0.0726
  141MOL0     H19400   2.182  10.056   1.991 -0.9042 -0.0712  1.2189
  141MOL0     H19401   2.452   9.913   2.026  2.6250  0.9633 -2.4627
  141MOL0     H19402   2.375   9.979   1.886 -1.7332  0.2218 -1.1499
  141MOL0     H19403   2.460  10.148   2.130 -1.9928  0.2391  0.4683
  141MOL0     H19404   2.379  10.206   1.990  1.3166 -0.2605 -1.3465
  141MOL0     H19405   2.648  10.069   2.000 -2.6216 -1.0297  1.7983
  141MOL0     H19406   2.571  10.134   1.850 -2.3097  2.3827 -0.0892
  141MOL0     H19407   2.763  10.255   2.163  3.0935  1.3050  0.4661
  141MOL0     H19408   2.932  10.574   2.028  1.2564  0.7981  1.1496
  141MOL0     H19409   3.020  10.423   2.035 -0.9402 -0.7924 -1.3057
  141MOL0     H19410   2.837  10.507   2.251  0.3460  0.0194 -2.5578
  141MOL0     H19411   2.966  10.378   2.265  0.6839 -0.2339  0.1322
  141MOL0     H19412   3.130  10.573   2.253  0.0299  3.0643 -2.6394
  141MOL0     H19413   2.989  10.675   2.221  0.6939  0.8427  1.1146
  141MOL0     H19414   3.065  10.680   2.456 -0.4662  1.4099 -0.0522
  141MOL0     H19415   2.902  10.617   2.453  0.0670 -1.8329  1.7330
  141MOL0     H19416   3.269  10.645   2.512  1.1441 -0.0577 -0.8275
  141MOL0     H19417   3.439  10.734   2.644  2.1899  0.1697  1.0584
  141MOL0     H19418   3.541  10.649   2.520  1.1196 -2.3308  0.3395
  141MOL0     H19419   3.574  10.643   2.690  0.0809 -1.4897  0.9960
  141MOL0     H19420   3.819  10.322   2.740 -2.3158 -0.5939 -2.3226
  141MOL0     H19421   4.017  10.206   2.753 -0.9457  1.0925 -1.8128
  141MOL0     H19422   4.179   9.989   2.643 -0.7685  2.4182  0.1420
  141MOL0     H19423   4.184  10.054   2.806 -0.0104 -0.0267 -0.0128
  141MOL0     H19424   4.239   9.868   2.910 -1.0092  5.3689 -0.5125
  141MOL0     H19425   4.238   9.764   2.767 -2.2825 -1.6041  3.8125
  141MOL0     H19426   4.466   9.814   2.829  0.1181 -0.8308 -0.5182
  141MOL0     H19427   4.431   9.983   2.825 -2.0772  0.5287 -0.1336
  141MOL0     H19428   4.427   9.997   2.589  0.4077 -0.7546 -1.1543
  141MOL0     H19429   4.376   9.828   2.566  2.0707 -1.6563 -0.9762
  141MOL0     H19430   4.629   9.929   2.695  0.2917 -0.0266  0.3621
  141MOL0     H19431   4.608   9.759   2.644 -1.7370  0.2932  3.1135
  141MOL0     H19432   4.604   9.987   2.430  1.1371  1.2022  0.9189
  141MOL0     H19433   4.657   9.826   2.416  0.2622  1.5029 -1.7514
  141MOL0     H19434   4.869   9.882   2.532  0.3891  0.7115 -2.5989
  141MOL0     H19435   4.811  10.041   2.590  1.1593 -0.9300  0.9709
  141MOL0     H19436   4.809  10.101   2.342 -0.2279 -1.0084 -0.5898
  141MOL0     H19437   4.867   9.933   2.303  0.4280  0.5521 -0.4665
  141MOL0     H19438   3.797   9.845   2.782  2.7159  0.1446 -0.0651
  141MOL0     H19439   3.591   9.969   2.771  1.4655 -0.4211  0.2920
  141MOL0     H19440   3.333  10.206   2.727  1.8180  1.6154  2.7950
  141MOL0     H19441   3.112  10.260   2.653 -0.4414  1.0103  1.7538
  141MOL0     H19442   1.572   9.776   2.265 -0.0595 -0.1550 -0.6355
  141MOL0     H19443   1.370   9.717   2.371  2.1011  0.4765 -1.0657
  141MOL0     H19444   1.041   9.704   2.729 -0.5854  0.4309 -0.1430
  141MOL0     H19445   0.865   9.615   2.865  1.2693 -1.4492  1.8963
  141MOL0     H19446   0.732   9.477   3.030 -0.1153  0.1130 -0.4527
  141MOL0     H19447   0.657   9.540   2.881  1.8218  0.9558 -0.3698
  141MOL0     H19448   0.592   9.285   3.050 -0.8886  0.2775  0.6701
  141MOL0     H19449   0.516   9.332   2.895  0.5627  1.0971 -1.2438
  141MOL0     H19450   0.428   9.534   3.000 -2.5672 -0.8427  0.8826
  141MOL0     H19451   0.381   9.402   3.097 -0.9561  0.0783 -1.0259
  141MOL0     H19452   0.632   9.550   3.199  1.1284  1.6498  1.3452
  141MOL0     H19453   0.534   9.429   3.270  1.0880 -0.5530 -1.8057
  141MOL0     H19454   0.327   9.799   3.327  0.6905  0.4581 -1.5015
  141MOL0     H19455   0.969   9.214   2.764 -0.4698  0.0329  2.1976
  141MOL0     H19456   1.223   9.316   2.500  0.1483  1.5484  1.1400
  141MOL0     H19457   1.262   9.240   2.655 -0.9185 -1.1725  1.1404
  141MOL0     H19458   1.129   9.179   2.573 -1.0714  1.2954 -2.9889
  142MOL0     O19459  10.510   7.681   2.118 -0.5879 -0.7889  0.0819
  142MOL0     C19460  10.482   7.620   2.019  0.1277  0.5571 -0.3275
  142MOL0     O19461  10.557   7.620   1.904 -0.4556 -0.6535  0.3721
  142MOL0     C19462  10.677   7.674   1.915 -0.7228  0.0422  0.0044
  142MOL0     C19463  10.689   7.807   1.872 -0.3647 -0.9162  0.7433
  142MOL0     C19464  10.820   7.869   1.854 -0.2910 -0.0324  0.3977
  142MOL0     C19465  10.937   7.804   1.884 -0.2421 -0.2338  0.4054
  142MOL0     O19466  11.052   7.877   1.880 -0.0789  0.2132  0.3938
  142MOL0     C19467  11.178   7.803   1.881 -0.5457 -0.1804 -0.6851
  142MOL0     C19468  11.308   7.881   1.872 -0.1252  0.0827 -0.7275
  142MOL0     C19469  11.339   7.919   1.729 -0.8602  0.0804 -0.1435
  142MOL0     C19470  11.396   8.063   1.710  0.2049  0.5594  0.0943
  142MOL0     C19471  11.428   8.084   1.564 -0.5681 -0.4046 -0.4347
  142MOL0     C19472  11.441   8.236   1.531  0.2881 -0.5819 -0.9062
  142MOL0     C19473  11.471   8.282   1.387 -0.0945 -0.6479 -0.5227
  142MOL0     C19474  11.464   8.438   1.384  0.0925  0.0485  0.7521
  142MOL0     N19475  11.322   8.481   1.389 -0.4387  0.2671 -0.5591
  142MOL0     C19476  11.237   8.496   1.289  0.0347 -0.1153  0.1331
  142MOL0     C19477  11.122   8.529   1.336  0.1632  0.9657 -0.1081
  142MOL0     C19478  11.003   8.560   1.250  0.9158 -0.4898 -0.1061
  142MOL0     C19479  10.970   8.709   1.248  0.1204 -0.5457 -0.8062
  142MOL0     C19480  10.935   8.773   1.384  0.5382  0.2855  0.1696
  142MOL0     C19481  10.830   8.699   1.471 -0.7377  0.4445  0.5687
  142MOL0     O19482  10.709   8.700   1.398 -0.0692 -0.3271  0.2286
  142MOL0     C19483  10.598   8.619   1.438  1.3418 -0.7795 -1.0672
  142MOL0     C19484  10.476   8.616   1.370  0.8758 -0.5899  1.2380
  142MOL0     C19485  10.370   8.519   1.394  0.4877 -0.0659  0.0790
  142MOL0     C19486  10.250   8.528   1.308 -0.1356  0.1433  0.8447
  142MOL0     C19487  10.372   8.449   1.516 -0.3323  0.4813  0.0374
  142MOL0     C19488  10.258   8.350   1.552 -0.6644  0.3858 -0.2018
  142MOL0     O19489  10.214   8.259   1.456  0.0237 -0.1166 -0.3793
  142MOL0     C19490  10.084   8.210   1.477 -0.2968  0.0269 -0.2113
  142MOL0     C19491  10.071   8.086   1.544 -1.5046  0.2556  0.0726
  142MOL0     C19492   9.947   8.022   1.556 -0.0947 -1.2895  0.2765
  142MOL0     C19493   9.835   8.095   1.516 -0.5538  0.9377 -0.7515
  142MOL0     O19494   9.716   8.038   1.541 -0.7459 -0.2280  0.5718
  142MOL0     C19495   9.594   8.116   1.516 -1.4560  0.1331 -0.2271
  142MOL0     C19496   9.465   8.035   1.558  0.6173  0.0564 -0.4621
  142MOL0     C19497   9.324   8.087   1.516  0.0508 -0.6420 -0.8338
  142MOL0     C19498   9.268   8.160   1.635  0.5655  0.6871  0.2212
  142MOL0     C19499   9.134   8.237   1.623 -0.4561 -0.5026  0.0067
  142MOL0     C19500   9.015   8.139   1.631 -0.0970  0.9696 -0.4613
  142MOL0     C19501   8.876   8.202   1.642  0.3920 -0.1365  0.0328
  142MOL0     C19502   8.838   8.254   1.776 -0.2792  0.2096 -0.4571
  142MOL0    Cl19503   8.664   8.290   1.781 -0.6278  0.0528 -0.1428
  142MOL0     C19504   9.851   8.216   1.448 -0.9957 -0.1019  0.7620
  142MOL0     C19505   9.975   8.269   1.431  1.1195 -0.6804 -0.6885
  142MOL0     O19506  10.211   8.355   1.667  0.2265  0.0992  0.0971
  142MOL0     C19507  10.480   8.471   1.602  0.3302 -0.6149 -0.3456
  142MOL0     C19508  10.588   8.551   1.558 -0.2098 -0.0897 -0.6501
  142MOL0     N19509  11.129   8.524   1.468 -0.1811 -0.5365 -0.4439
  142MOL0     N19510  11.253   8.503   1.504  0.3615  0.4783  0.3578
  142MOL0     C19511  10.927   7.670   1.935  0.3109 -0.5096  0.0668
  142MOL0     C19512  10.800   7.611   1.948  0.2560  0.1278  0.0810
  142MOL0     C19513  10.368   7.531   2.022  1.3688 -0.5299  0.0221
  142MOL0     C19514  10.373   7.418   1.944 -0.6052 -0.4636 -0.6242
  142MOL0     C19515  10.266   7.333   1.939  0.0032  0.1389 -0.2945
  142MOL0     C19516  10.150   7.360   2.012  0.1314  0.4207  0.2751
  142MOL0     O19517  10.047   7.275   1.985 -0.1827 -0.1339 -0.7820
  142MOL0     C19518   9.929   7.284   2.072  0.2707 -0.1918  0.5075
  142MOL0     C19519   9.826   7.191   2.018  0.1249  0.3734 -0.5104
  142MOL0     C19520   9.687   7.199   2.086  0.0377 -0.2271  0.3048
  142MOL0     C19521   9.575   7.121   2.029 -0.2087 -0.5913  0.3157
  142MOL0     C19522   9.601   6.974   2.036  1.4137 -0.6008 -0.1120
  142MOL0     C19523   9.609   6.851   2.045 -0.0630 -0.5227 -0.0607
  142MOL0     C19524  10.144   7.466   2.104 -0.1102  0.0970  0.2425
  142MOL0     C19525  10.251   7.560   2.102 -0.2227  0.0369 -0.3695
  142MOL0     C19526  10.233   7.681   2.188  0.3531  0.5232 -1.0314
  142MOL0     H19527  10.604   7.871   1.848  0.3759  1.9696  4.8304
  142MOL0     H19528  10.812   7.968   1.810 -3.0761 -0.3278  0.1014
  142MOL0     H19529  11.177   7.729   1.801 -1.2579 -1.2606  0.2964
  142MOL0     H19530  11.189   7.744   1.972  1.8965  0.3825 -0.5659
  142MOL0     H19531  11.292   7.979   1.919 -3.1449 -0.9260  0.5817
  142MOL0     H19532  11.394   7.832   1.919  1.4484  3.9091  0.8533
  142MOL0     H19533  11.415   7.846   1.700 -1.8428 -0.5062 -1.3791
  142MOL0     H19534  11.259   7.908   1.655  0.7987  1.2552 -2.2305
  142MOL0     H19535  11.319   8.135   1.737  0.4638  1.6292 -1.8370
  142MOL0     H19536  11.482   8.071   1.777  0.5545 -0.7413 -0.1729
  142MOL0     H19537  11.355   8.039   1.497 -1.3039 -2.0177  1.3589
  142MOL0     H19538  11.521   8.039   1.528 -1.1254  0.8251 -3.7340
  142MOL0     H19539  11.339   8.269   1.553  0.9386  0.4176  0.8484
  142MOL0     H19540  11.502   8.283   1.609  0.3260 -3.5067  0.9572
  142MOL0     H19541  11.388   8.240   1.329 -4.9233  2.0454  3.5891
  142MOL0     H19542  11.573   8.252   1.364  1.2161  0.4608  3.1970
  142MOL0     H19543  11.520   8.471   1.473 -0.5873 -1.3689  1.7492
  142MOL0     H19544  11.510   8.490   1.300 -0.4479 -0.0075  0.4199
  142MOL0     H19545  11.264   8.493   1.183 -0.8863  0.0065 -0.1099
  142MOL0     H19546  10.928   8.492   1.292  2.1600 -1.7257  0.1924
  142MOL0     H19547  11.018   8.531   1.146 -0.3810 -0.8224 -0.2216
  142MOL0     H19548  11.056   8.768   1.215 -0.3872  0.2256 -0.7913
  142MOL0     H19549  10.890   8.733   1.177 -2.8519 -1.4161  2.0408
  142MOL0     H19550  11.024   8.803   1.441  0.7481  0.5064 -0.2647
  142MOL0     H19551  10.879   8.865   1.365  1.4812  1.2743  1.9457
  142MOL0     H19552  10.864   8.596   1.490 -1.4114 -0.0346 -0.7193
  142MOL0     H19553  10.818   8.746   1.569  0.9834  0.6756  0.7141
  142MOL0     H19554  10.460   8.688   1.290 -2.4568 -2.0220  0.4528
  142MOL0     H19555  10.238   8.437   1.248 -0.5673  0.4187  0.5050
  142MOL0     H19556  10.258   8.611   1.238 -0.2958 -1.4003 -1.0752
  142MOL0     H19557  10.167   8.531   1.379 -0.7421  0.8124  0.1305
  142MOL0     H19558  10.157   8.040   1.591  0.7369  1.2382 -2.7507
  142MOL0     H19559   9.927   7.928   1.605  0.3024 -0.2996  2.4698
  142MOL0     H19560   9.612   8.208   1.573  1.1772 -0.8155  0.5921
  142MOL0     H19561   9.580   8.149   1.413 -1.8110 -2.4060 -1.0502
  142MOL0     H19562   9.481   7.934   1.519  1.0696 -1.0205  2.2673
  142MOL0     H19563   9.471   8.031   1.667 -2.9082  0.2018 -0.1588
  142MOL0     H19564   9.270   8.001   1.477 -0.8533  0.3272 -1.7802
  142MOL0     H19565   9.328   8.167   1.441 -1.2143 -0.1445 -0.3925
  142MOL0     H19566   9.346   8.234   1.654  1.8975 -0.6883  0.2492
  142MOL0     H19567   9.261   8.082   1.712  1.4125 -1.4285 -1.7353
  142MOL0     H19568   9.124   8.308   1.706  1.9789  0.1653 -0.2014
  142MOL0     H19569   9.132   8.298   1.532 -0.6935 -0.3281  0.1280
  142MOL0     H19570   9.028   8.069   1.714 -0.9599  0.1599 -0.9870
  142MOL0     H19571   9.019   8.069   1.548  2.3805 -1.0528  1.2150
  142MOL0     H19572   8.800   8.127   1.616  0.7120  0.0177 -1.4439
  142MOL0     H19573   8.872   8.290   1.577 -0.2359  0.5360  0.9471
  142MOL0     H19574   8.908   8.330   1.811  0.7171 -0.5617 -0.7186
  142MOL0     H19575   8.862   8.172   1.845  0.3855  0.2884 -0.5817
  142MOL0     H19576   9.767   8.264   1.398 -0.7335 -0.0952  0.3270
  142MOL0     H19577  10.001   8.360   1.377 -0.7417  0.2634 -0.0593
  142MOL0     H19578  10.488   8.423   1.699  0.3570  2.8718  1.5477
  142MOL0     H19579  10.675   8.562   1.623 -0.4835  0.2558 -0.3362
  142MOL0     H19580  11.020   7.615   1.950  1.7019  0.5892 -3.3954
  142MOL0     H19581  10.796   7.506   1.974 -2.6523  0.0022 -0.5717
  142MOL0     H19582  10.462   7.387   1.890 -0.2768 -3.2126  1.2347
  142MOL0     H19583  10.265   7.242   1.880 -1.0273  0.7737 -1.3014
  142MOL0     H19584   9.951   7.276   2.179  1.6396 -2.5239  0.1014
  142MOL0     H19585   9.889   7.384   2.053  0.4703 -0.2539 -0.2828
  142MOL0     H19586   9.858   7.087   2.029  0.7928  0.6872  0.7439
  142MOL0     H19587   9.813   7.215   1.912 -0.4912  0.7645 -0.3517
  142MOL0     H19588   9.703   7.174   2.191  0.1152 -1.1715  0.0773
  142MOL0     H19589   9.651   7.301   2.072  2.4566  0.5473 -0.8886
  142MOL0     H19590   9.554   7.150   1.926  2.5616 -2.2557 -0.8259
  142MOL0     H19591   9.481   7.141   2.081 -0.9615  0.5825 -1.4020
  142MOL0     H19592   9.632   6.747   2.054  2.2673  0.0044  0.5789
  142MOL0     H19593  10.054   7.480   2.163 -0.1546  0.4793  0.0879
  142MOL0     H19594  10.223   7.768   2.123 -1.9355  1.2616  0.2150
  142MOL0     H19595  10.141   7.676   2.247  0.9271 -1.8495 -0.2246
  142MOL0     H19596  10.314   7.696   2.260 -1.9217 -1.5501  2.2448
  143MOL0     O19597   5.270   0.104   8.852 -0.1926  0.1164  0.2930
  143MOL0     C19598   5.248   0.114   8.977  0.0737  0.1940 -0.5650
  143MOL0     O19599   5.347   0.149   9.072 -0.2815 -0.0831  0.1365
  143MOL0     C19600   5.477   0.114   9.035 -0.5390  0.0049  0.3890
  143MOL0     C19601   5.562   0.220   8.997 -0.3540 -0.0612 -0.5609
  143MOL0     C19602   5.688   0.205   8.938  0.1401 -1.1247 -0.5015
  143MOL0     C19603   5.738   0.077   8.944 -0.1237 -0.1486  0.3878
  143MOL0     O19604   5.863   0.057   8.899  0.3189  0.1375 -0.4657
  143MOL0     C19605   5.876   0.034   8.757 -0.2955  0.7426 -0.0856
  143MOL0     C19606   6.017  -0.002   8.728  0.8634  0.2652  0.2932
  143MOL0     C19607   6.122   0.107   8.752  0.8249  0.3705  0.3548
  143MOL0     C19608   6.268   0.065   8.702 -0.5360  0.0066 -0.6885
  143MOL0     C19609   6.396   0.160   8.731 -0.1763  0.1573  0.4632
  143MOL0     C19610   6.525   0.099   8.682 -0.0485 -0.4035  0.3737
  143MOL0     C19611   6.648   0.174   8.740  0.7092 -0.6504 -0.2129
  143MOL0     C19612   6.779   0.104   8.698 -0.6641  0.0671 -0.0622
  143MOL0     N19613   6.805  -0.004   8.787  0.7377  0.5359  0.0493
  143MOL0     C19614   6.903  -0.001   8.882 -0.8996  0.2923 -0.0118
  143MOL0     C19615   6.901  -0.129   8.933  0.7724 -0.0961  0.3357
  143MOL0     C19616   6.993  -0.189   9.033  0.4061 -0.0009 -0.1729
  143MOL0     C19617   7.116  -0.243   8.953 -0.3188  0.6351 -0.5731
  143MOL0     C19618   7.206  -0.315   9.055  0.2022 -0.0234  0.2710
  143MOL0     C19619   7.352  -0.249   9.058  0.3377  0.9241  0.0578
  143MOL0     O19620   7.415  -0.289   9.187  0.7783 -0.0778 -0.2962
  143MOL0     C19621   7.552  -0.305   9.201  0.1620  0.5848 -0.0288
  143MOL0     C19622   7.597  -0.330   9.331 -0.1657 -0.5842  0.3536
  143MOL0     C19623   7.733  -0.345   9.369  0.1433  0.4295  0.3176
  143MOL0     C19624   7.767  -0.353   9.515  0.3555  0.3815  0.2363
  143MOL0     C19625   7.828  -0.322   9.259  0.0318 -0.4241  0.2378
  143MOL0     C19626   7.975  -0.302   9.285  0.0825 -0.4620  0.2568
  143MOL0     O19627   8.049  -0.259   9.177  0.2217  0.1257 -0.3502
  143MOL0     C19628   8.183  -0.245   9.185  0.7221 -0.6671 -0.4539
  143MOL0     C19629   8.266  -0.338   9.252  0.3340  0.4929 -0.5770
  143MOL0     C19630   8.406  -0.336   9.262 -0.1399 -0.1755  0.2602
  143MOL0     C19631   8.470  -0.227   9.195  0.0127 -0.0585  0.1223
  143MOL0     O19632   8.603  -0.212   9.215  0.4550 -0.1464  0.4829
  143MOL0     C19633   8.677  -0.199   9.093  0.4149 -0.5080  0.0196
  143MOL0     C19634   8.822  -0.239   9.130  0.5206 -0.7040 -0.3594
  143MOL0     C19635   8.925  -0.234   9.007 -0.1145  0.4019 -0.4698
  143MOL0     C19636   9.062  -0.278   9.058 -0.3116  0.2183 -0.7444
  143MOL0     C19637   9.165  -0.262   8.940 -0.4449 -0.2313  0.1286
  143MOL0     C19638   9.316  -0.280   8.974  0.3341 -0.5770  0.0508
  143MOL0     C19639   9.334  -0.419   9.039  0.8602 -0.6730 -0.6053
  143MOL0     C19640   9.479  -0.436   9.097  0.4885 -0.7106 -0.4703
  143MOL0    Cl19641   9.527  -0.308   9.222 -0.3099 -0.1237 -0.1143
  143MOL0     C19642   8.387  -0.132   9.127  1.0239  0.2232 -0.1032
  143MOL0     C19643   8.246  -0.144   9.114  0.2818 -0.4598  0.1911
  143MOL0     O19644   8.024  -0.298   9.398 -0.6444  0.5563 -0.1530
  143MOL0     C19645   7.779  -0.309   9.123  0.1009 -0.6514 -0.0017
  143MOL0     C19646   7.641  -0.300   9.099  0.1626  0.1987  0.3636
  143MOL0     N19647   6.807  -0.206   8.861 -0.3492 -0.1235 -0.1979
  143MOL0     N19648   6.757  -0.132   8.763  0.2185 -0.2115 -0.0993
  143MOL0     C19649   5.665  -0.029   8.992 -0.0250  0.0002  0.0999
  143MOL0     C19650   5.527  -0.018   9.027 -0.2817 -0.9095 -0.2060
  143MOL0     C19651   5.111   0.101   9.039  0.5205  1.1314 -0.8066
  143MOL0     C19652   5.100   0.123   9.183 -0.0506  1.0145 -0.2402
  143MOL0     C19653   4.977   0.117   9.244  0.3857 -0.6777  0.1437
  143MOL0     C19654   4.857   0.088   9.169  0.2535  0.3365 -0.5837
  143MOL0     O19655   4.740   0.061   9.248 -0.2463 -0.5076 -0.2763
  143MOL0     C19656   4.628   0.006   9.182 -0.7309 -0.5961 -0.4125
  143MOL0     C19657   4.508   0.014   9.275 -0.7723  0.4859 -0.0583
  143MOL0     C19658   4.393  -0.066   9.211 -0.3822 -0.5257  1.0315
  143MOL0     C19659   4.263  -0.045   9.277  0.1463  0.1781 -0.0330
  143MOL0     C19660   4.145  -0.072   9.198  0.9766  0.3292  0.3753
  143MOL0     C19661   4.049  -0.094   9.127  0.4485  0.1738 -0.0695
  143MOL0     C19662   4.872   0.055   9.031  0.2586  0.2996 -0.2927
  143MOL0     C19663   4.997   0.075   8.960  0.0493  0.0288 -0.1205
  143MOL0     C19664   5.004   0.036   8.812  0.2269  0.0629 -0.4515
  143MOL0     H19665   5.535   0.325   9.001  1.5718  0.5715 -2.4287
  143MOL0     H19666   5.746   0.291   8.906  0.2655 -1.0474 -0.0756
  143MOL0     H19667   5.852   0.124   8.699 -0.6193  0.7689  0.0861
  143MOL0     H19668   5.813  -0.050   8.726  0.6421 -0.2798  0.7496
  143MOL0     H19669   6.037  -0.088   8.793 -3.2200  0.0673  1.5721
  143MOL0     H19670   6.017  -0.030   8.623  1.7711 -0.0650  0.3695
  143MOL0     H19671   6.089   0.192   8.690 -0.9322  0.5282  1.4242
  143MOL0     H19672   6.122   0.146   8.854 -3.0622  0.8993  0.3248
  143MOL0     H19673   6.287  -0.033   8.748 -0.2827  0.1536 -0.4742
  143MOL0     H19674   6.268   0.046   8.595 -4.1268 -0.3099 -0.7400
  143MOL0     H19675   6.390   0.181   8.839 -1.0732  0.3537  0.3805
  143MOL0     H19676   6.386   0.257   8.682  0.2975 -0.7952 -1.5916
  143MOL0     H19677   6.532  -0.007   8.708 -1.5057 -0.4803  0.4859
  143MOL0     H19678   6.539   0.100   8.573 -0.5535 -1.6851  0.2703
  143MOL0     H19679   6.648   0.191   8.848 -1.6660  1.3042 -0.4274
  143MOL0     H19680   6.647   0.273   8.693  0.2847 -0.4178  0.2752
  143MOL0     H19681   6.759   0.089   8.592 -1.3558  4.7993 -0.8223
  143MOL0     H19682   6.870   0.164   8.696 -0.2178 -0.6133 -0.5107
  143MOL0     H19683   6.968   0.083   8.906 -1.6234  1.1105 -0.8086
  143MOL0     H19684   6.930  -0.266   9.079 -1.9702  1.0907 -1.3904
  143MOL0     H19685   7.019  -0.113   9.107 -0.3530 -0.9116  1.0538
  143MOL0     H19686   7.084  -0.320   8.883  1.6981  0.0021 -0.8599
  143MOL0     H19687   7.162  -0.169   8.887 -0.8448  2.8396  1.3697
  143MOL0     H19688   7.159  -0.308   9.153 -1.2058  1.0934 -0.4491
  143MOL0     H19689   7.214  -0.422   9.035 -2.9158 -0.6264  1.7716
  143MOL0     H19690   7.408  -0.276   8.968 -1.8360  0.6255 -1.2784
  143MOL0     H19691   7.359  -0.140   9.048 -0.7147  1.0253  0.3385
  143MOL0     H19692   7.521  -0.338   9.408 -2.2761 -0.7150 -1.6479
  143MOL0     H19693   7.688  -0.332   9.587  2.2001 -0.6438  2.7211
  143MOL0     H19694   7.837  -0.270   9.536  0.4413  0.6372 -1.0036
  143MOL0     H19695   7.804  -0.453   9.539 -0.0189  0.3514  0.7071
  143MOL0     H19696   8.217  -0.429   9.283  0.3685  0.2459 -1.2362
  143MOL0     H19697   8.464  -0.415   9.307  1.3845  0.6104 -0.2725
  143MOL0     H19698   8.637  -0.273   9.024 -2.1505  1.0343 -0.2865
  143MOL0     H19699   8.679  -0.098   9.051 -0.0192  0.1102  1.4107
  143MOL0     H19700   8.863  -0.171   9.205  0.2420 -0.5648 -0.3314
  143MOL0     H19701   8.810  -0.339   9.172  0.1416 -1.2886 -1.8048
  143MOL0     H19702   8.925  -0.133   8.963 -0.5686  0.7336  0.2686
  143MOL0     H19703   8.890  -0.308   8.935 -2.4798 -1.4053  2.3297
  143MOL0     H19704   9.056  -0.383   9.087  1.5030 -0.5903 -2.9640
  143MOL0     H19705   9.089  -0.214   9.143 -0.9736  0.7218 -0.8966
  143MOL0     H19706   9.136  -0.325   8.855  0.4178  0.5069 -0.7407
  143MOL0     H19707   9.152  -0.161   8.901  0.3308  0.1884  0.9338
  143MOL0     H19708   9.335  -0.195   9.041 -1.5630 -0.4406  0.4653
  143MOL0     H19709   9.372  -0.285   8.879 -0.4772 -3.0779 -0.3625
  143MOL0     H19710   9.318  -0.500   8.968 -0.4985  1.0599 -2.3950
  143MOL0     H19711   9.256  -0.437   9.114  2.1828 -0.5708  0.8455
  143MOL0     H19712   9.548  -0.423   9.012  4.1928  2.1144  2.5999
  143MOL0     H19713   9.484  -0.539   9.133 -1.1553 -0.4831  0.4818
  143MOL0     H19714   8.433  -0.052   9.071 -2.2869  1.0428 -1.9153
  143MOL0     H19715   8.184  -0.061   9.082 -0.8923 -1.0114  0.9601
  143MOL0     H19716   7.841  -0.289   9.036 -3.5772 -1.3457 -3.0966
  143MOL0     H19717   7.616  -0.288   8.994  1.2823 -0.1061  0.0418
  143MOL0     H19718   5.709  -0.129   8.991  3.1633  1.2818  0.7973
  143MOL0     H19719   5.472  -0.106   9.061  2.2488 -1.4266  3.0475
  143MOL0     H19720   5.193   0.137   9.238  0.4050  1.9692 -1.2008
  143MOL0     H19721   4.966   0.133   9.351 -0.3725  3.2014 -0.3750
  143MOL0     H19722   4.601   0.060   9.091 -1.7458 -0.6038 -0.1236
  143MOL0     H19723   4.654  -0.097   9.155  0.9696 -0.3432  0.1251
  143MOL0     H19724   4.478   0.116   9.300  4.7988  2.0960  1.4931
  143MOL0     H19725   4.541  -0.036   9.367  0.9072  0.6368 -0.5515
  143MOL0     H19726   4.376  -0.029   9.110 -3.0049 -0.0291  1.5668
  143MOL0     H19727   4.418  -0.172   9.206  2.3918  0.0994 -2.7573
  143MOL0     H19728   4.250   0.060   9.305  0.8855  0.5649 -1.0717
  143MOL0     H19729   4.257  -0.096   9.374  2.1437 -0.5169 -0.2189
  143MOL0     H19730   3.969  -0.112   9.059  1.6280 -1.0861 -1.1717
  143MOL0     H19731   4.779   0.024   8.986  0.7232 -0.9588 -0.4135
  143MOL0     H19732   5.024   0.125   8.752 -2.5460  1.6649  0.8260
  143MOL0     H19733   5.078  -0.043   8.796 -2.0110 -2.9530  2.6004
  143MOL0     H19734   4.909  -0.005   8.777 -0.2734  1.0569 -0.2966
  144MOL0     O19735  11.104   3.361   0.921 -0.2569 -0.1643 -0.1005
  144MOL0     C19736  11.139   3.403   1.027 -0.2614  0.2562  0.2784
  144MOL0     O19737  11.251   3.474   1.052  0.2991  0.0919 -0.3916
  144MOL0     C19738  11.328   3.514   0.943 -0.7610  0.3868 -0.1812
  144MOL0     C19739  11.376   3.421   0.844 -0.5064 -0.2091 -0.2812
  144MOL0     C19740  11.458   3.464   0.738 -0.1660 -0.7160  0.3699
  144MOL0     C19741  11.497   3.595   0.726 -0.3257  0.3281 -0.0768
  144MOL0     O19742  11.578   3.629   0.619 -0.4077 -0.0465  0.6757
  144MOL0     C19743  11.677   3.738   0.640  0.0766  0.2275 -0.0581
  144MOL0     C19744  11.807   3.684   0.582  0.0025 -0.8139  0.0074
  144MOL0     C19745  11.877   3.591   0.686  0.2268  0.3098 -0.5428
  144MOL0     C19746  12.021   3.551   0.639 -0.1634 -0.5570  0.4039
  144MOL0     C19747  12.101   3.493   0.755 -0.2670 -0.9139 -0.3775
  144MOL0     C19748  12.244   3.462   0.703 -0.4005 -0.0762  0.1952
  144MOL0     C19749  12.309   3.362   0.801 -0.5378 -0.4176  0.0226
  144MOL0     C19750  12.341   3.432   0.936 -0.4149 -0.7369  0.5409
  144MOL0     N19751  12.456   3.522   0.916 -0.4862 -0.8118 -0.4948
  144MOL0     C19752  12.582   3.504   0.846 -0.2457 -0.1879 -0.3869
  144MOL0     C19753  12.643   3.621   0.868 -0.2995 -0.2086 -0.0813
  144MOL0     C19754  12.777   3.657   0.804 -0.5504 -0.0382 -0.3889
  144MOL0     C19755  12.879   3.706   0.911 -0.1754 -0.4428  0.3374
  144MOL0     C19756  12.946   3.603   0.992 -0.3779 -0.2196 -0.1633
  144MOL0     C19757  13.074   3.559   0.927 -1.1031  1.2027 -0.0391
  144MOL0     O19758  13.059   3.512   0.791 -0.1758  0.1898  0.4259
  144MOL0     C19759  13.185   3.480   0.734 -0.3390 -0.6365  0.0555
  144MOL0     C19760  13.184   3.470   0.595 -0.5443 -1.1998 -1.0101
  144MOL0     C19761  13.291   3.446   0.511  0.1407  0.1377 -0.1472
  144MOL0     C19762  13.272   3.463   0.359  0.5696 -0.2191 -0.0314
  144MOL0     C19763  13.417   3.402   0.575 -0.4319 -0.2233  0.1838
  144MOL0     C19764  13.545   3.365   0.499  1.0578 -1.1652  0.5319
  144MOL0     O19765  13.635   3.309   0.585 -0.1543  0.0382 -0.1766
  144MOL0     C19766  13.756   3.276   0.519 -0.8448  0.3697 -0.4426
  144MOL0     C19767  13.787   3.145   0.484 -0.6474 -0.4910 -0.2587
  144MOL0     C19768  13.908   3.115   0.436 -0.0783  0.4062  0.0778
  144MOL0     C19769  14.001   3.215   0.413  0.3705 -0.2643  0.1823
  144MOL0     O19770  14.117   3.189   0.346 -0.1738 -0.5905 -0.1804
  144MOL0     C19771  14.157   3.055   0.347 -0.0261  0.4908  0.3363
  144MOL0     C19772  14.308   3.049   0.297  0.3211  0.0169  0.1114
  144MOL0     C19773  14.410   3.143   0.360 -0.2869  0.8719 -0.4685
  144MOL0     C19774  14.547   3.098   0.316  0.1879 -0.2273  0.0629
  144MOL0     C19775  14.645   3.205   0.379 -0.4483  0.4303  0.6664
  144MOL0     C19776  14.790   3.149   0.394 -0.5996 -0.4441 -0.3079
  144MOL0     C19777  14.862   3.142   0.258 -0.2331 -0.4485 -0.5530
  144MOL0     C19778  15.006   3.193   0.277  0.4900  0.4642 -0.1658
  144MOL0    Cl19779  15.077   3.101   0.413 -0.1801  0.1196  0.1778
  144MOL0     C19780  13.976   3.343   0.459 -0.2928  0.3960  0.2669
  144MOL0     C19781  13.852   3.375   0.520  0.4146  0.1236 -0.4336
  144MOL0     O19782  13.569   3.389   0.376 -0.6207  0.0422  0.3546
  144MOL0     C19783  13.421   3.407   0.716  0.0689 -0.2923 -0.4025
  144MOL0     C19784  13.312   3.448   0.786  0.7975 -0.0692 -0.1639
  144MOL0     N19785  12.568   3.694   0.958  0.3481 -0.7616 -0.2275
  144MOL0     N19786  12.450   3.639   0.988 -0.2531 -0.2446  0.1819
  144MOL0     C19787  11.449   3.688   0.824  0.1557 -0.3442  0.6171
  144MOL0     C19788  11.367   3.646   0.929 -0.2712 -0.6071 -0.4496
  144MOL0     C19789  11.056   3.364   1.147  0.1159 -0.4800  0.9488
  144MOL0     C19790  11.096   3.415   1.269  0.0422  0.1339 -0.4963
  144MOL0     C19791  11.024   3.398   1.388  0.5222  0.0227  0.4825
  144MOL0     C19792  10.911   3.311   1.384 -0.1309 -0.0437 -0.2978
  144MOL0     O19793  10.826   3.290   1.493 -0.2400 -0.2151 -0.2218
  144MOL0     C19794  10.867   3.317   1.626 -0.0087  0.9832 -0.5015
  144MOL0     C19795  10.825   3.464   1.666 -0.4488  0.1445  0.2996
  144MOL0     C19796  10.671   3.482   1.683  0.1780 -0.4719 -0.2515
  144MOL0     C19797  10.635   3.609   1.758 -0.1118  0.2712 -0.4430
  144MOL0     C19798  10.495   3.641   1.734  0.8018 -1.0638 -0.0672
  144MOL0     C19799  10.376   3.673   1.735  0.4908 -0.1042 -0.2759
  144MOL0     C19800  10.874   3.256   1.260  0.2166  0.8021  0.2419
  144MOL0     C19801  10.948   3.277   1.146  0.4038 -0.6583  0.6512
  144MOL0     C19802  10.884   3.219   1.016 -0.6427 -0.3474 -0.0053
  144MOL0     H19803  11.353   3.315   0.850  0.0843 -0.4179 -1.4338
  144MOL0     H19804  11.476   3.386   0.665 -0.6389 -2.1579  1.7354
  144MOL0     H19805  11.683   3.763   0.746 -1.4419  3.2119 -0.5453
  144MOL0     H19806  11.655   3.835   0.593  0.6578 -0.0619 -0.9543
  144MOL0     H19807  11.783   3.646   0.483 -1.5827  0.2690 -0.0563
  144MOL0     H19808  11.871   3.772   0.571  0.8018 -1.4731 -0.7294
  144MOL0     H19809  11.874   3.635   0.787 -1.3576 -1.5505  0.2898
  144MOL0     H19810  11.809   3.507   0.700 -1.6398  1.6123 -1.3543
  144MOL0     H19811  12.016   3.484   0.552 -0.7626  0.2920 -0.2229
  144MOL0     H19812  12.063   3.649   0.613  0.2551 -0.6629  0.6612
  144MOL0     H19813  12.058   3.400   0.794  0.8526 -0.0287  3.3702
  144MOL0     H19814  12.103   3.564   0.839 -3.1766  0.4710 -1.3771
  144MOL0     H19815  12.247   3.417   0.603  0.8856  1.9928 -0.7698
  144MOL0     H19816  12.302   3.553   0.686  0.5853 -0.3726  1.7712
  144MOL0     H19817  12.404   3.319   0.767 -1.2960 -3.4103  1.3665
  144MOL0     H19818  12.240   3.279   0.814  2.0821 -2.8948 -0.7568
  144MOL0     H19819  12.257   3.485   0.982  1.0363  2.4745 -0.2032
  144MOL0     H19820  12.366   3.347   1.002  2.1674 -0.9527 -0.5911
  144MOL0     H19821  12.607   3.412   0.795 -3.1072 -1.2724 -0.0634
  144MOL0     H19822  12.758   3.732   0.727  0.3182  2.9702  2.0948
  144MOL0     H19823  12.818   3.565   0.761 -1.6554  0.0273 -1.6208
  144MOL0     H19824  12.955   3.767   0.863 -1.5282  1.3558  0.3787
  144MOL0     H19825  12.825   3.768   0.984 -0.7586 -1.4884  0.8262
  144MOL0     H19826  12.985   3.642   1.086 -1.8005  0.3426  0.2208
  144MOL0     H19827  12.877   3.518   0.992 -1.1847  0.3956 -1.7199
  144MOL0     H19828  13.155   3.631   0.912  4.1716 -3.7821  0.6504
  144MOL0     H19829  13.114   3.479   0.990  0.7545  2.3351  0.3109
  144MOL0     H19830  13.088   3.501   0.556 -0.7994  1.2710  1.3199
  144MOL0     H19831  13.310   3.555   0.311 -1.3767  0.8125  0.2950
  144MOL0     H19832  13.166   3.483   0.343  1.1888  2.6531 -1.3138
  144MOL0     H19833  13.312   3.379   0.302 -0.3890  1.0277 -2.7671
  144MOL0     H19834  13.712   3.069   0.500  0.1632 -0.9444  1.7651
  144MOL0     H19835  13.925   3.011   0.409  0.3820  0.6750 -0.6891
  144MOL0     H19836  14.150   3.006   0.445 -0.5985 -0.1514 -0.0122
  144MOL0     H19837  14.091   3.000   0.279  1.2534 -0.3877 -0.2386
  144MOL0     H19838  14.336   2.944   0.310 -2.2358 -0.6365  1.0238
  144MOL0     H19839  14.306   3.063   0.188 -1.7105 -0.9548 -0.0208
  144MOL0     H19840  14.404   3.128   0.468 -1.0400  0.0767 -0.6190
  144MOL0     H19841  14.382   3.247   0.340 -2.2205  0.4490 -0.1026
  144MOL0     H19842  14.547   3.087   0.207 -1.1515 -1.1752  0.1288
  144MOL0     H19843  14.568   2.997   0.352  0.9052  0.3193  1.2506
  144MOL0     H19844  14.651   3.300   0.325  1.4589 -0.3370 -0.6025
  144MOL0     H19845  14.615   3.223   0.482  0.7924  1.0242  0.9537
  144MOL0     H19846  14.786   3.053   0.447 -0.9477  2.1160  5.0114
  144MOL0     H19847  14.836   3.214   0.469 -3.6418  2.5070 -0.7860
  144MOL0     H19848  14.819   3.215   0.189  2.7146  5.4220  2.9805
  144MOL0     H19849  14.862   3.043   0.212 -0.9916 -1.1530  0.9052
  144MOL0     H19850  15.003   3.298   0.309 -0.4800 -0.0265  1.4415
  144MOL0     H19851  15.057   3.181   0.181 -1.1049  0.0389 -0.9864
  144MOL0     H19852  14.050   3.421   0.441 -1.5360  1.4915 -0.1896
  144MOL0     H19853  13.816   3.474   0.545 -1.7621 -0.4229 -1.1969
  144MOL0     H19854  13.511   3.385   0.773  1.0624  0.3725 -1.6434
  144MOL0     H19855  13.324   3.460   0.893 -0.4207 -0.3408  0.0200
  144MOL0     H19856  11.485   3.789   0.807  1.0153 -1.1013 -2.9913
  144MOL0     H19857  11.333   3.727   0.993  0.3750  0.2375 -1.1515
  144MOL0     H19858  11.177   3.486   1.283  0.1219 -0.3471  1.8356
  144MOL0     H19859  11.057   3.454   1.475  0.7278  0.0416  0.3922
  144MOL0     H19860  10.805   3.257   1.693 -1.1246  0.5573 -1.8746
  144MOL0     H19861  10.973   3.304   1.652  0.1983  1.5264 -1.0717
  144MOL0     H19862  10.864   3.533   1.591  1.3466 -0.9575  0.1555
  144MOL0     H19863  10.864   3.485   1.766 -0.6321 -2.0264  0.8766
  144MOL0     H19864  10.623   3.477   1.585 -2.5076 -0.1241  0.9833
  144MOL0     H19865  10.645   3.390   1.736  0.6755 -0.7640 -0.5000
  144MOL0     H19866  10.702   3.691   1.731 -2.0972  2.3253  0.5480
  144MOL0     H19867  10.661   3.595   1.863  2.9704 -3.0345 -1.4279
  144MOL0     H19868  10.270   3.687   1.742  0.7742  1.4809  2.1436
  144MOL0     H19869  10.793   3.184   1.267  3.0859 -2.8633 -0.9649
  144MOL0     H19870  10.851   3.310   0.966  0.9406  0.3228  0.1129
  144MOL0     H19871  10.954   3.154   0.962 -0.6337 -1.0874  0.8697
  144MOL0     H19872  10.798   3.154   1.037 -1.2321  0.8971  1.6594
  145MOL0     O19873   4.164   7.723   5.784  0.1660 -0.0158 -0.4487
  145MOL0     C19874   4.171   7.639   5.877 -0.6235 -0.9142 -0.4484
  145MOL0     O19875   4.274   7.624   5.962 -0.1220 -0.9486 -0.1141
  145MOL0     C19876   4.387   7.704   5.949 -0.0259  1.2430 -0.4163
  145MOL0     C19877   4.508   7.639   5.974  0.3980 -0.2731 -0.8783
  145MOL0     C19878   4.630   7.712   5.962  0.2622 -0.0882  1.1642
  145MOL0     C19879   4.630   7.841   5.916 -0.5568 -0.7988  0.3129
  145MOL0     O19880   4.745   7.912   5.911 -0.2052  0.0079 -0.2920
  145MOL0     C19881   4.827   7.889   5.790 -0.7161 -0.0934 -0.6522
  145MOL0     C19882   4.957   7.972   5.793 -0.1069  0.9297 -0.2391
  145MOL0     C19883   4.928   8.119   5.796 -0.8479  0.1926  0.6224
  145MOL0     C19884   5.046   8.211   5.754 -0.0968 -1.0075  0.3047
  145MOL0     C19885   4.982   8.340   5.717 -1.0793 -0.4720  0.1195
  145MOL0     C19886   5.094   8.424   5.658 -0.6769 -0.2664  0.5473
  145MOL0     C19887   5.045   8.563   5.615 -0.4029  0.1478  0.2930
  145MOL0     C19888   4.943   8.555   5.496  0.1027  0.0541  0.5257
  145MOL0     N19889   5.002   8.498   5.380  0.0977 -0.0180 -0.6099
  145MOL0     C19890   5.101   8.552   5.312 -0.9396 -0.0747  0.5766
  145MOL0     C19891   5.133   8.458   5.222 -0.0404 -0.7579  0.2202
  145MOL0     C19892   5.243   8.475   5.115  1.0888  0.3668 -1.3476
  145MOL0     C19893   5.186   8.527   4.984  0.4271  0.2298 -0.1546
  145MOL0     C19894   5.293   8.554   4.872 -0.2103 -0.4471 -0.1155
  145MOL0     C19895   5.384   8.673   4.903  0.8891  1.5090 -0.3133
  145MOL0     O19896   5.303   8.794   4.911 -0.2138  0.0355  0.5514
  145MOL0     C19897   5.355   8.917   4.941 -0.6174  0.2682 -0.7804
  145MOL0     C19898   5.278   9.030   4.933 -0.3431 -0.2149 -0.2100
  145MOL0     C19899   5.325   9.164   4.965 -0.1318  0.8404 -0.0465
  145MOL0     C19900   5.218   9.270   4.944  0.2339 -0.1989 -0.1713
  145MOL0     C19901   5.456   9.184   5.006 -0.8712  0.6898 -0.6207
  145MOL0     C19902   5.521   9.316   5.025 -0.2266 -0.0671 -0.2469
  145MOL0     O19903   5.660   9.312   5.062 -0.6442  0.2541 -0.3939
  145MOL0     C19904   5.737   9.427   5.045 -0.0908  0.6813 -0.0242
  145MOL0     C19905   5.846   9.444   5.142 -0.0453  0.6905 -0.2980
  145MOL0     C19906   5.941   9.543   5.117 -0.4112 -0.2610 -0.1564
  145MOL0     C19907   5.922   9.630   5.009 -0.2038 -0.0325 -0.4380
  145MOL0     O19908   6.015   9.728   4.998  0.3160  0.0432 -0.3428
  145MOL0     C19909   6.151   9.703   5.026  0.5291  0.0312 -0.4710
  145MOL0     C19910   6.209   9.604   4.911  0.2234  0.7320  0.1700
  145MOL0     C19911   6.340   9.541   4.960 -0.5907 -0.6259  0.1992
  145MOL0     C19912   6.410   9.468   4.849  0.8252 -0.6274  0.8742
  145MOL0     C19913   6.550   9.450   4.884 -0.2533 -0.4070 -0.4680
  145MOL0     C19914   6.627   9.380   4.766 -0.0259 -0.6096 -0.3769
  145MOL0     C19915   6.777   9.381   4.799 -0.0676  0.3230 -0.6099
  145MOL0     C19916   6.856   9.344   4.670  0.1311 -0.2817  0.8666
  145MOL0    Cl19917   7.027   9.388   4.692 -0.3199 -0.1197 -0.6084
  145MOL0     C19918   5.808   9.620   4.928  0.0681  0.5996  0.0295
  145MOL0     C19919   5.718   9.516   4.941  0.4306 -0.7681 -0.0476
  145MOL0     O19920   5.454   9.419   5.016 -0.6036  0.1739 -0.0517
  145MOL0     C19921   5.535   9.066   5.018  0.6719  0.3271 -0.4693
  145MOL0     C19922   5.484   8.934   4.991 -0.4537 -0.9230 -1.5243
  145MOL0     N19923   5.048   8.351   5.234  0.2592 -0.5373 -0.6426
  145MOL0     N19924   4.965   8.381   5.322 -0.5640  0.5246 -0.2906
  145MOL0     C19925   4.509   7.903   5.892 -0.4785  0.2922 -0.7062
  145MOL0     C19926   4.390   7.834   5.909 -0.0269  0.5217 -0.9158
  145MOL0     C19927   4.057   7.542   5.888  0.0261 -0.2374 -0.4179
  145MOL0     C19928   3.927   7.587   5.869  1.0059 -0.0443  0.6158
  145MOL0     C19929   3.821   7.492   5.875 -0.2191 -0.3020 -0.2111
  145MOL0     C19930   3.842   7.358   5.887  0.2306  1.4762 -0.4929
  145MOL0     O19931   3.727   7.277   5.885  1.3705  0.2875  0.2144
  145MOL0     C19932   3.669   7.264   5.754 -0.4878  0.0244 -0.1336
  145MOL0     C19933   3.514   7.270   5.762 -0.0327  0.0885 -0.0789
  145MOL0     C19934   3.448   7.153   5.831  0.0886  0.3024  0.6366
  145MOL0     C19935   3.294   7.149   5.817  0.0984 -0.2741  0.4245
  145MOL0     C19936   3.232   7.100   5.942  0.3128  0.1904  0.7653
  145MOL0     C19937   3.191   7.054   6.043 -0.1107  0.0357 -0.8357
  145MOL0     C19938   3.976   7.310   5.896 -0.2232  0.0357  0.3662
  145MOL0     C19939   4.079   7.407   5.906 -0.4238  0.4153  0.2679
  145MOL0     C19940   4.208   7.341   5.941  0.0713  0.1096  0.3487
  145MOL0     H19941   4.506   7.536   6.009  0.8813  0.8223  2.8327
  145MOL0     H19942   4.724   7.667   5.992 -0.1630 -1.9000 -0.1291
  145MOL0     H19943   4.760   7.905   5.705  0.7156  0.6475 -1.6856
  145MOL0     H19944   4.862   7.785   5.781  1.4158  0.5159 -0.0667
  145MOL0     H19945   5.016   7.935   5.877 -2.1603 -1.0518  0.4522
  145MOL0     H19946   5.011   7.948   5.701  0.9490 -0.2988  0.6472
  145MOL0     H19947   4.842   8.146   5.733 -0.4920 -0.4953 -0.1752
  145MOL0     H19948   4.901   8.157   5.895  0.6068  0.8309  0.8014
  145MOL0     H19949   5.114   8.221   5.839  0.7170 -1.8329 -0.2296
  145MOL0     H19950   5.102   8.168   5.670 -0.8373 -0.2021 -0.6294
  145MOL0     H19951   4.934   8.387   5.803 -1.2824  0.6567 -0.5857
  145MOL0     H19952   4.904   8.330   5.640 -0.5245  1.2132 -0.6990
  145MOL0     H19953   5.174   8.445   5.730 -0.6871  0.6995  0.2888
  145MOL0     H19954   5.130   8.373   5.568 -1.1741  1.8142 -0.9073
  145MOL0     H19955   5.134   8.622   5.592 -0.1143 -0.2400  0.4128
  145MOL0     H19956   5.002   8.617   5.700  0.5422  1.7771 -0.2186
  145MOL0     H19957   4.857   8.497   5.529  0.4196  0.5812  2.3935
  145MOL0     H19958   4.910   8.655   5.465 -0.0543 -0.1442  0.0503
  145MOL0     H19959   5.149   8.646   5.337  0.2407 -0.3045 -0.7238
  145MOL0     H19960   5.287   8.376   5.099  1.5083  0.5507 -1.3333
  145MOL0     H19961   5.315   8.545   5.158  1.5393 -1.8710  1.8279
  145MOL0     H19962   5.109   8.459   4.944  0.4793 -0.7880  1.3996
  145MOL0     H19963   5.136   8.622   5.005  1.8235  1.3977 -1.8181
  145MOL0     H19964   5.350   8.463   4.851 -0.8997 -1.7442  3.0912
  145MOL0     H19965   5.243   8.588   4.781 -0.1695  0.6412  0.2620
  145MOL0     H19966   5.435   8.651   4.998  1.2805  0.3716 -0.7654
  145MOL0     H19967   5.459   8.680   4.824  0.8804  0.6294 -0.4088
  145MOL0     H19968   5.176   9.026   4.897  0.6552  0.6600 -3.5155
  145MOL0     H19969   5.260   9.356   4.891  1.9931 -0.2158  1.1031
  145MOL0     H19970   5.172   9.302   5.038  0.6322  1.1928 -0.4368
  145MOL0     H19971   5.132   9.228   4.891  1.0547 -0.4296 -1.3524
  145MOL0     H19972   5.864   9.375   5.223 -2.7371 -2.3345 -2.0285
  145MOL0     H19973   6.030   9.532   5.179  0.9140  2.1501 -1.5025
  145MOL0     H19974   6.206   9.797   5.023 -0.8159  0.8777  0.3678
  145MOL0     H19975   6.174   9.672   5.128  1.9890  0.7118 -0.5676
  145MOL0     H19976   6.149   9.515   4.888  2.8764 -0.7665 -1.4730
  145MOL0     H19977   6.228   9.664   4.822 -1.5604  0.9430 -0.0897
  145MOL0     H19978   6.330   9.473   5.045  0.1491  0.7861  1.4651
  145MOL0     H19979   6.407   9.622   4.989 -0.4807 -0.6117 -0.1010
  145MOL0     H19980   6.401   9.525   4.756 -1.5734 -0.2118  1.2932
  145MOL0     H19981   6.372   9.366   4.836  0.8832 -0.6656  1.0021
  145MOL0     H19982   6.595   9.549   4.891  0.0054 -0.5038 -0.7382
  145MOL0     H19983   6.554   9.381   4.969 -0.2258 -1.2723 -1.1489
  145MOL0     H19984   6.598   9.437   4.677  0.1627  0.9417  0.5376
  145MOL0     H19985   6.591   9.278   4.747  0.5834 -0.3541 -3.3590
  145MOL0     H19986   6.802   9.310   4.878  2.0707  3.2270  1.5484
  145MOL0     H19987   6.800   9.480   4.838 -1.0997  1.2461 -2.1988
  145MOL0     H19988   6.816   9.393   4.581  2.2202 -2.7576 -1.6256
  145MOL0     H19989   6.847   9.237   4.650  0.0620  0.0601 -1.1363
  145MOL0     H19990   5.794   9.695   4.852  0.5635 -0.0421 -0.7219
  145MOL0     H19991   5.630   9.512   4.877  0.6804 -0.0683 -0.4404
  145MOL0     H19992   5.642   9.081   5.036  0.6561  1.6203 -1.3307
  145MOL0     H19993   5.545   8.844   5.004 -0.9096 -1.0777 -0.3430
  145MOL0     H19994   4.508   8.009   5.867  0.2688  0.6562  0.7061
  145MOL0     H19995   4.305   7.891   5.871 -0.7067  0.6546  0.7502
  145MOL0     H19996   3.901   7.692   5.866  0.2606 -0.2160 -2.0644
  145MOL0     H19997   3.719   7.529   5.878  0.1335  0.6844 -0.0739
  145MOL0     H19998   3.707   7.347   5.693 -0.7451  0.0019 -0.3287
  145MOL0     H19999   3.696   7.167   5.712  0.1487 -0.2766  0.9545
  145MOL0     H20000   3.468   7.274   5.663 -0.4289 -1.9877 -0.0146
  145MOL0     H20001   3.485   7.362   5.813  0.9308  0.2381  0.2194
  145MOL0     H20002   3.476   7.054   5.794  1.0880  0.3169  1.3495
  145MOL0     H20003   3.478   7.162   5.935 -0.1751 -0.0858  0.7475
  145MOL0     H20004   3.269   7.079   5.736 -1.2017  0.4105  0.2024
  145MOL0     H20005   3.255   7.246   5.785 -1.4008 -1.0415 -0.1890
  145MOL0     H20006   3.133   7.003   6.118 -0.7229  1.4911 -0.2878
  145MOL0     H20007   4.001   7.206   5.913  0.8984  0.0218 -1.1594
  145MOL0     H20008   4.291   7.375   5.878  0.7000 -1.1690  0.4796
  145MOL0     H20009   4.230   7.367   6.045 -3.5859  1.4556  0.9518
  145MOL0     H20010   4.196   7.233   5.938 -2.9390  0.3596 -0.2941
  146MOL0     O20011   9.719   8.566   9.422  0.3139  0.3267  0.0635
  146MOL0     C20012   9.690   8.598   9.309 -0.1293 -0.4661  0.5884
  146MOL0     O20013   9.760   8.697   9.249  0.1232 -0.6570  0.6093
  146MOL0     C20014   9.869   8.748   9.319  0.4001 -0.6706  0.1989
  146MOL0     C20015   9.846   8.861   9.395  0.2180 -0.4228 -1.0031
  146MOL0     C20016   9.954   8.924   9.461  0.0932 -0.5864  0.4351
  146MOL0     C20017  10.080   8.873   9.454  0.4684  0.6563 -0.7779
  146MOL0     O20018  10.174   8.928   9.529  0.6205 -0.3106 -0.6233
  146MOL0     C20019  10.170   8.869   9.663 -0.1024  0.0973 -0.4472
  146MOL0     C20020  10.177   8.984   9.770 -0.6969 -0.4305 -0.3514
  146MOL0     C20021  10.319   9.057   9.768 -0.1676  0.2542 -0.2586
  146MOL0     C20022  10.327   9.160   9.873 -0.1968  0.3967  0.4351
  146MOL0     C20023  10.449   9.253   9.859  0.4674 -0.3726 -0.5124
  146MOL0     C20024  10.435   9.365   9.966  0.6159 -1.1359 -1.1015
  146MOL0     C20025  10.535   9.481   9.941  1.1725 -0.5856 -0.2278
  146MOL0     C20026  10.532   9.607  10.038 -0.2027  0.0240 -0.6495
  146MOL0     N20027  10.660   9.677  10.023  0.8991 -0.0609 -0.1618
  146MOL0     C20028  10.784   9.639  10.065 -0.6162 -0.7401 -0.2011
  146MOL0     C20029  10.875   9.729  10.022  0.5938  0.6657 -0.2909
  146MOL0     C20030  11.022   9.710  10.040  0.3220  0.4965 -0.0570
  146MOL0     C20031  11.094   9.699   9.906 -0.5408  0.7710  0.5608
  146MOL0     C20032  11.246   9.717   9.930 -0.1725  0.7174  0.5439
  146MOL0     C20033  11.305   9.837  10.002  0.0654 -0.0922 -0.9707
  146MOL0     O20034  11.444   9.824   9.979  0.2194 -0.5952  0.3491
  146MOL0     C20035  11.531   9.918  10.035 -0.0514 -0.3230  0.9640
  146MOL0     C20036  11.487  10.016  10.118  0.5582  1.2854  0.0606
  146MOL0     C20037  11.571  10.104  10.179  0.1547  0.1513  0.8107
  146MOL0     C20038  11.507  10.210  10.261 -0.4267  0.1442 -0.7143
  146MOL0     C20039  11.703  10.101  10.139 -0.0120  0.2599  0.4596
  146MOL0     C20040  11.799  10.200  10.163  0.4631 -0.3445 -0.3429
  146MOL0     O20041  11.925  10.160  10.194  0.7414  0.1687 -0.6365
  146MOL0     C20042  12.009  10.258  10.236 -0.0999  0.3756  0.4925
  146MOL0     C20043  12.018  10.288  10.372 -0.1778 -0.3797 -1.2122
  146MOL0     C20044  12.119  10.377  10.417  0.6974  0.7328  0.1829
  146MOL0     C20045  12.215  10.439  10.334 -0.7166 -0.1182  0.7510
  146MOL0     O20046  12.304  10.530  10.381  0.0512 -0.8932  0.2485
  146MOL0     C20047  12.262  10.622  10.484 -0.2906 -0.1695 -0.2728
  146MOL0     C20048  12.169  10.734  10.418 -0.2626 -0.5645  0.5499
  146MOL0     C20049  12.086  10.799  10.531 -0.1330  0.3966  0.2446
  146MOL0     C20050  12.018  10.925  10.483  0.5796 -0.3452 -0.2200
  146MOL0     C20051  11.922  10.979  10.602 -0.0793 -0.2489  0.2175
  146MOL0     C20052  11.846  11.110  10.578  0.3384 -0.2343 -0.3768
  146MOL0     C20053  11.741  11.156  10.675 -0.4005  1.0948 -0.6856
  146MOL0     C20054  11.797  11.220  10.809  0.0263 -0.6355 -0.5545
  146MOL0    Cl20055  11.681  11.194  10.941 -0.1136 -0.3209 -0.1092
  146MOL0     C20056  12.208  10.401  10.204 -0.5772  0.3047 -0.2926
  146MOL0     C20057  12.106  10.315  10.153  0.1001  0.4559 -0.3885
  146MOL0     O20058  11.762  10.315  10.167 -0.1829  0.4781 -0.0893
  146MOL0     C20059  11.755   9.998  10.059  0.9113  0.6692  0.7726
  146MOL0     C20060  11.668   9.904  10.008 -0.9172 -0.0149  0.0740
  146MOL0     N20061  10.807   9.835   9.965 -0.4449  0.1847  0.4149
  146MOL0     N20062  10.686   9.801   9.966 -0.3577  0.0972  0.2822
  146MOL0     C20063  10.095   8.763   9.371 -0.0060  0.4860  0.6388
  146MOL0     C20064   9.992   8.694   9.301 -0.6285 -0.5530 -0.0988
  146MOL0     C20065   9.568   8.546   9.234  0.3119  0.0750 -0.1850
  146MOL0     C20066   9.565   8.570   9.095 -0.5024  0.2739  0.4243
  146MOL0     C20067   9.460   8.538   9.016  0.6567  0.3456 -0.0901
  146MOL0     C20068   9.346   8.476   9.080 -0.0539  0.5796  0.7540
  146MOL0     O20069   9.228   8.438   9.019 -0.3506  0.6992 -0.1737
  146MOL0     C20070   9.197   8.509   8.897  0.6270  0.3189 -1.0341
  146MOL0     C20071   9.060   8.464   8.847 -0.3068  0.1330  0.0510
  146MOL0     C20072   8.999   8.567   8.743 -0.3449  0.0374 -0.6749
  146MOL0     C20073   8.872   8.507   8.687 -0.8516  0.5343  0.1094
  146MOL0     C20074   8.801   8.604   8.603  0.0252 -0.0401  0.6000
  146MOL0     C20075   8.716   8.668   8.547  0.2873  0.4849  0.5695
  146MOL0     C20076   9.343   8.451   9.215 -0.3827  0.1844  0.8789
  146MOL0     C20077   9.453   8.487   9.291  0.5971  0.1418 -0.5309
  146MOL0     C20078   9.434   8.450   9.438  0.7040  0.4586 -0.5828
  146MOL0     H20079   9.739   8.882   9.398  0.4712  1.3815 -2.6255
  146MOL0     H20080   9.943   9.005   9.532 -3.2632 -1.3928  1.0361
  146MOL0     H20081  10.251   8.797   9.673 -1.4582 -1.8735 -2.7867
  146MOL0     H20082  10.076   8.824   9.696  1.8712 -1.8109  3.1948
  146MOL0     H20083  10.100   9.062   9.772  0.2122  0.5784 -2.2516
  146MOL0     H20084  10.176   8.931   9.866 -1.7242 -2.4841 -1.4369
  146MOL0     H20085  10.399   8.983   9.771 -1.1332 -0.9732 -2.2968
  146MOL0     H20086  10.334   9.102   9.669  0.1565 -0.4790 -0.5512
  146MOL0     H20087  10.235   9.217   9.883 -1.9939 -2.3416  0.6440
  146MOL0     H20088  10.342   9.114   9.971 -0.3422 -0.4191  0.0850
  146MOL0     H20089  10.439   9.307   9.764 -0.5050  1.0073  0.3409
  146MOL0     H20090  10.550   9.212   9.853  0.6396  0.2572 -2.9868
  146MOL0     H20091  10.337   9.412   9.971  1.2683  0.1493  1.8001
  146MOL0     H20092  10.461   9.318  10.062  2.1090 -0.4120 -1.1295
  146MOL0     H20093  10.527   9.516   9.837  2.8475  2.7883  0.6197
  146MOL0     H20094  10.640   9.450   9.949  1.4988 -0.0206 -1.7857
  146MOL0     H20095  10.442   9.665  10.015 -1.2819 -1.4174 -0.1986
  146MOL0     H20096  10.537   9.579  10.144  3.0799  1.3398 -0.3256
  146MOL0     H20097  10.805   9.551  10.124 -0.8610 -1.0874 -0.6309
  146MOL0     H20098  11.045   9.622  10.101 -0.0010 -0.5838 -1.4365
  146MOL0     H20099  11.048   9.799  10.099 -1.2716 -1.2813  3.6308
  146MOL0     H20100  11.067   9.600   9.869  0.4380  0.0830  1.5969
  146MOL0     H20101  11.048   9.767   9.834  1.1056 -1.1353 -2.5094
  146MOL0     H20102  11.276   9.632   9.992  1.1205  0.4439 -0.4213
  146MOL0     H20103  11.296   9.705   9.834 -0.0128 -2.3055  0.9083
  146MOL0     H20104  11.268   9.924   9.945  0.3447  0.2575 -0.6211
  146MOL0     H20105  11.280   9.835  10.108 -1.1293 -0.7554 -1.2490
  146MOL0     H20106  11.382  10.023  10.144  0.5803  2.5628 -0.1574
  146MOL0     H20107  11.398  10.200  10.271 -0.3472 -0.5516 -0.5178
  146MOL0     H20108  11.522  10.310  10.221  3.4680 -0.3494 -0.8766
  146MOL0     H20109  11.548  10.212  10.362  0.0701  4.4181 -0.8111
  146MOL0     H20110  11.949  10.245  10.444  0.6743  1.2530  0.6838
  146MOL0     H20111  12.122  10.389  10.525  2.3865 -0.2181  0.2882
  146MOL0     H20112  12.209  10.575  10.567 -0.0112  1.5393  0.9253
  146MOL0     H20113  12.349  10.683  10.508 -1.3449  0.9374  0.8453
  146MOL0     H20114  12.222  10.811  10.360 -2.3344 -0.9384 -2.0296
  146MOL0     H20115  12.097  10.693  10.346 -1.2067 -1.1146  1.7876
  146MOL0     H20116  12.161  10.831  10.604  1.5581  0.8220 -1.5719
  146MOL0     H20117  12.013  10.731  10.575 -1.4191  1.5419 -0.0660
  146MOL0     H20118  11.955  10.913  10.395  0.2064  0.5574 -0.0884
  146MOL0     H20119  12.097  10.999  10.461  0.5738  0.0829  1.1285
  146MOL0     H20120  11.850  10.901  10.630 -0.3153 -0.5155 -1.0721
  146MOL0     H20121  11.989  10.997  10.686 -0.3504  0.2860  0.3268
  146MOL0     H20122  11.805  11.105  10.477  0.7299  0.9187 -0.6109
  146MOL0     H20123  11.921  11.189  10.582 -1.0024  1.2197 -2.0826
  146MOL0     H20124  11.672  11.074  10.696 -0.4760  0.8145 -1.9577
  146MOL0     H20125  11.687  11.232  10.618 -0.6279 -0.3600 -2.4861
  146MOL0     H20126  11.802  11.327  10.787 -2.2339 -0.2348  0.5836
  146MOL0     H20127  11.891  11.171  10.834 -0.3309 -0.2835  1.7485
  146MOL0     H20128  12.277  10.456  10.141  0.6459 -0.9490 -0.1084
  146MOL0     H20129  12.103  10.298  10.046 -0.9911 -1.2925 -0.1226
  146MOL0     H20130  11.855   9.981  10.022 -0.5583 -2.3965 -2.4218
  146MOL0     H20131  11.717   9.822   9.958 -2.6340  0.0643 -1.8358
  146MOL0     H20132  10.197   8.727   9.369 -0.3504 -0.4996 -0.2608
  146MOL0     H20133  10.000   8.614   9.229  2.1863  1.4328 -2.1830
  146MOL0     H20134   9.649   8.614   9.042 -0.2883 -0.1844  0.3743
  146MOL0     H20135   9.456   8.550   8.909  1.6695 -1.6873 -0.3985
  146MOL0     H20136   9.178   8.613   8.924  0.5846  0.1037 -0.2014
  146MOL0     H20137   9.275   8.500   8.821  2.3808 -0.7536  0.7787
  146MOL0     H20138   9.000   8.461   8.938  3.0494  2.8819  2.6422
  146MOL0     H20139   9.067   8.364   8.804 -0.0959  0.7021 -1.2834
  146MOL0     H20140   8.986   8.667   8.787 -1.9429 -0.8707  1.0542
  146MOL0     H20141   9.083   8.585   8.675  2.2396  0.1446  2.3029
  146MOL0     H20142   8.808   8.474   8.769  0.4651 -0.7703  0.6527
  146MOL0     H20143   8.898   8.415   8.634 -1.5179 -0.4909  1.4985
  146MOL0     H20144   8.643   8.720   8.488  0.4070  1.8663  1.5739
  146MOL0     H20145   9.260   8.392   9.250 -1.7752  0.2211 -2.0919
  146MOL0     H20146   9.528   8.410   9.477  1.3758  2.2774 -0.2247
  146MOL0     H20147   9.411   8.544   9.491  2.0059  0.7725 -0.5369
  146MOL0     H20148   9.356   8.376   9.454  0.1438  1.6964  3.4467
  147MOL0     O20149   0.798   7.994   8.554 -0.2612 -1.0526  0.3384
  147MOL0     C20150   0.724   7.942   8.472  0.0429  0.0458 -0.3581
  147MOL0     O20151   0.619   8.013   8.405 -0.2016 -0.0512 -0.3738
  147MOL0     C20152   0.566   8.127   8.464  0.7259  0.0662  0.6503
  147MOL0     C20153   0.642   8.237   8.493  0.5298 -0.6281 -0.8990
  147MOL0     C20154   0.573   8.350   8.539 -0.8388  0.1151 -0.6458
  147MOL0     C20155   0.435   8.364   8.561 -0.6599  0.7969  0.5512
  147MOL0     O20156   0.394   8.476   8.610 -0.1415 -0.7022  0.2115
  147MOL0     C20157   0.262   8.491   8.664 -0.1280 -0.2990  0.6556
  147MOL0     C20158   0.264   8.609   8.753 -0.6725  0.5728  0.4659
  147MOL0     C20159   0.379   8.604   8.859 -0.0891  0.1527  0.0868
  147MOL0     C20160   0.395   8.475   8.940  0.1736  0.8356 -0.1930
  147MOL0     C20161   0.529   8.481   9.017 -0.5452  0.0816 -0.7504
  147MOL0     C20162   0.551   8.351   9.101 -0.1278  1.0676 -0.6535
  147MOL0     C20163   0.696   8.311   9.140 -0.2222  0.3515  0.2783
  147MOL0     C20164   0.758   8.424   9.219  0.0096 -0.0134  0.6135
  147MOL0     N20165   0.899   8.395   9.232 -0.9372 -0.2323 -0.3983
  147MOL0     C20166   0.950   8.317   9.333 -0.5109 -0.2912  0.1898
  147MOL0     C20167   1.080   8.349   9.346  0.1170  0.5389 -0.3411
  147MOL0     C20168   1.182   8.304   9.459 -0.4281  0.2843  0.2541
  147MOL0     C20169   1.311   8.241   9.397 -0.6943  0.0959  0.1955
  147MOL0     C20170   1.422   8.244   9.508 -0.1890  0.9278  0.2439
  147MOL0     C20171   1.546   8.190   9.446  0.1413  0.1548  0.3836
  147MOL0     O20172   1.657   8.209   9.538 -0.0649 -0.3083  0.0917
  147MOL0     C20173   1.792   8.189   9.495  1.6096  0.5553  0.4268
  147MOL0     C20174   1.825   8.123   9.372 -0.8597  0.1155  0.3945
  147MOL0     C20175   1.973   8.102   9.345  0.3885  0.8862 -0.4864
  147MOL0     C20176   2.008   8.036   9.210  0.6173  0.1803  0.0839
  147MOL0     C20177   2.074   8.139   9.442  0.2718 -0.4975 -0.6686
  147MOL0     C20178   2.222   8.112   9.438 -0.7217  0.3447  0.0695
  147MOL0     O20179   2.305   8.189   9.516  0.3041 -0.5170  0.3818
  147MOL0     C20180   2.432   8.176   9.536  0.0265  0.1300  0.5609
  147MOL0     C20181   2.503   8.296   9.534 -0.4669 -0.3775  0.6674
  147MOL0     C20182   2.636   8.297   9.559 -0.3308 -0.5075 -0.2429
  147MOL0     C20183   2.703   8.175   9.588 -0.2972 -0.3311 -0.5185
  147MOL0     O20184   2.843   8.160   9.603 -0.3346  0.7258 -0.5079
  147MOL0     C20185   2.922   8.256   9.525  0.7321  0.2980 -0.1521
  147MOL0     C20186   3.066   8.226   9.525 -0.9099  0.8423  0.2547
  147MOL0     C20187   3.155   8.348   9.541  1.1306 -0.1178  0.4835
  147MOL0     C20188   3.303   8.306   9.538  0.6550 -0.5308  0.3076
  147MOL0     C20189   3.375   8.434   9.541 -0.2890  0.1985  0.2982
  147MOL0     C20190   3.528   8.419   9.539 -0.1557 -0.1116  0.5365
  147MOL0     C20191   3.574   8.345   9.410 -0.5239 -0.6755 -1.0615
  147MOL0     C20192   3.631   8.200   9.426 -1.2807 -0.2965 -0.1822
  147MOL0    Cl20193   3.735   8.186   9.571  0.1411  0.0011  0.2672
  147MOL0     C20194   2.629   8.056   9.596  0.0020  1.0943  0.4259
  147MOL0     C20195   2.490   8.057   9.561  0.3591  0.7967 -0.2954
  147MOL0     O20196   2.250   8.008   9.385  0.1008  0.3318  0.3829
  147MOL0     C20197   2.024   8.211   9.555  0.5726 -0.1082  0.4591
  147MOL0     C20198   1.887   8.232   9.577  0.5006  0.0886  0.5588
  147MOL0     N20199   1.104   8.439   9.239 -0.5352 -0.5478  0.3486
  147MOL0     N20200   0.995   8.468   9.179 -0.0512  0.2492 -0.1504
  147MOL0     C20201   0.356   8.253   8.518 -0.0910 -1.0505 -0.1012
  147MOL0     C20202   0.419   8.138   8.468  0.3294  0.3331  0.1483
  147MOL0     C20203   0.734   7.806   8.417  0.2308  0.3341 -0.5145
  147MOL0     C20204   0.625   7.746   8.357 -0.3321  0.8352  0.2438
  147MOL0     C20205   0.628   7.608   8.322 -0.2573  0.4999  0.3929
  147MOL0     C20206   0.744   7.533   8.333 -0.0566  0.0486  0.4992
  147MOL0     O20207   0.746   7.397   8.321  0.1131  0.0234 -0.1625
  147MOL0     C20208   0.649   7.338   8.231 -0.1527 -0.1419  1.0908
  147MOL0     C20209   0.716   7.233   8.148 -0.9424 -0.1597 -0.5104
  147MOL0     C20210   0.826   7.279   8.062 -0.3652  1.0785 -0.2846
  147MOL0     C20211   0.890   7.167   7.977  0.7964  0.2108  0.5579
  147MOL0     C20212   0.796   7.127   7.871 -1.3977 -0.1882 -0.1189
  147MOL0     C20213   0.733   7.095   7.774  0.7110 -0.2376  0.0096
  147MOL0     C20214   0.860   7.600   8.372 -0.8918  0.1624  0.3230
  147MOL0     C20215   0.854   7.733   8.426 -0.3358  0.6109 -0.2250
  147MOL0     C20216   0.982   7.785   8.486  0.1145 -0.1214 -0.1455
  147MOL0     H20217   0.750   8.237   8.496  0.5278 -1.4156 -0.6665
  147MOL0     H20218   0.635   8.434   8.568  0.9556 -0.4803 -2.5472
  147MOL0     H20219   0.234   8.404   8.725  1.6657 -1.5897 -0.2598
  147MOL0     H20220   0.194   8.507   8.580 -0.5363  0.4783  1.1314
  147MOL0     H20221   0.280   8.687   8.678  1.7894 -0.0516  0.2308
  147MOL0     H20222   0.162   8.621   8.789 -1.2482 -3.4365  0.6793
  147MOL0     H20223   0.470   8.639   8.809 -1.1813  2.9302 -0.1236
  147MOL0     H20224   0.357   8.682   8.932 -1.1235 -0.5688  0.5669
  147MOL0     H20225   0.307   8.474   9.005  0.5202  3.0162  0.4081
  147MOL0     H20226   0.400   8.386   8.877  0.2183  0.8959 -0.2745
  147MOL0     H20227   0.544   8.561   9.090  3.6675 -1.6425  0.6178
  147MOL0     H20228   0.608   8.489   8.941 -1.8314  1.4092 -1.9852
  147MOL0     H20229   0.485   8.362   9.188  0.8728 -0.3033  0.3109
  147MOL0     H20230   0.510   8.263   9.051  1.2922  0.3792 -0.6569
  147MOL0     H20231   0.765   8.296   9.056  0.2771  2.1086  0.3335
  147MOL0     H20232   0.703   8.221   9.202  0.8738 -1.7758 -2.7198
  147MOL0     H20233   0.747   8.516   9.162 -1.1572 -1.5523 -1.8545
  147MOL0     H20234   0.701   8.441   9.311  0.9181 -1.6589  1.5322
  147MOL0     H20235   0.892   8.247   9.393  0.1763 -1.5697 -0.6070
  147MOL0     H20236   1.131   8.237   9.529 -1.5217 -1.8915 -2.4267
  147MOL0     H20237   1.216   8.393   9.512  0.2545  0.9272 -1.1926
  147MOL0     H20238   1.298   8.143   9.352  2.9416 -1.3625  1.8829
  147MOL0     H20239   1.352   8.311   9.323  1.5393  0.2836  1.5242
  147MOL0     H20240   1.444   8.343   9.548 -0.2120 -0.1694  3.2176
  147MOL0     H20241   1.407   8.180   9.596 -0.1038 -0.2092 -0.5465
  147MOL0     H20242   1.529   8.083   9.428 -2.9667  0.6437 -0.1101
  147MOL0     H20243   1.579   8.240   9.355  2.1481 -1.4425  0.1712
  147MOL0     H20244   1.753   8.084   9.301  0.5380  0.2576 -1.1504
  147MOL0     H20245   2.110   8.055   9.177  0.0094 -0.2196 -2.2280
  147MOL0     H20246   1.943   8.066   9.127  0.9748 -0.0943 -0.2979
  147MOL0     H20247   1.988   7.928   9.214 -2.1793  0.6118 -0.3208
  147MOL0     H20248   2.454   8.386   9.498  1.5245  0.4497 -0.1280
  147MOL0     H20249   2.692   8.390   9.561 -0.7565 -0.2361  1.6145
  147MOL0     H20250   2.878   8.270   9.426 -0.1919  2.3377  0.4824
  147MOL0     H20251   2.902   8.355   9.568  0.0020 -0.0994  0.4436
  147MOL0     H20252   3.095   8.167   9.613 -1.5209  2.2223  1.4226
  147MOL0     H20253   3.094   8.163   9.440 -0.4120  1.0831  0.2376
  147MOL0     H20254   3.135   8.390   9.641  0.2964 -0.7190  0.5750
  147MOL0     H20255   3.141   8.422   9.462  1.0499 -0.7511 -0.1022
  147MOL0     H20256   3.320   8.246   9.448 -2.8886 -1.4183  0.0564
  147MOL0     H20257   3.325   8.244   9.625 -1.0274 -1.3186  0.2216
  147MOL0     H20258   3.340   8.490   9.454 -3.6870 -1.1268  0.6717
  147MOL0     H20259   3.337   8.493   9.625  0.9408 -0.0543  1.0648
  147MOL0     H20260   3.558   8.365   9.630  0.1228 -0.2585  0.3572
  147MOL0     H20261   3.565   8.522   9.535  0.5927 -0.3912  0.0505
  147MOL0     H20262   3.657   8.408   9.375  0.0764 -0.5732  0.4766
  147MOL0     H20263   3.495   8.363   9.338  0.4449  2.1740 -1.5281
  147MOL0     H20264   3.696   8.179   9.340 -0.6219  0.7536  0.0246
  147MOL0     H20265   3.552   8.126   9.431 -1.6709  0.1320  0.0645
  147MOL0     H20266   2.681   7.972   9.640  2.2228  2.0930 -0.1742
  147MOL0     H20267   2.426   7.969   9.569  0.5460  0.5713 -1.1418
  147MOL0     H20268   2.091   8.230   9.638 -0.0487  1.2495  0.6885
  147MOL0     H20269   1.856   8.273   9.672 -1.6308  1.1356 -0.5096
  147MOL0     H20270   0.248   8.260   8.516 -0.0409  0.5684  0.8355
  147MOL0     H20271   0.356   8.054   8.443 -0.2466  0.6693  0.4549
  147MOL0     H20272   0.532   7.799   8.340  0.2207  1.8203  0.2443
  147MOL0     H20273   0.533   7.567   8.288 -0.4763  0.6817  0.7843
  147MOL0     H20274   0.566   7.294   8.287 -2.0144  2.7855  0.9003
  147MOL0     H20275   0.613   7.412   8.158  2.8729 -0.5065 -0.9484
  147MOL0     H20276   0.641   7.188   8.083  0.2657  0.3647 -2.3333
  147MOL0     H20277   0.764   7.157   8.211 -0.1088 -1.4331 -2.5893
  147MOL0     H20278   0.798   7.352   7.985  0.8325 -0.8798 -2.7087
  147MOL0     H20279   0.896   7.328   8.130 -3.4072  0.7912  3.3967
  147MOL0     H20280   0.910   7.078   8.037 -1.3765 -1.9995 -1.7633
  147MOL0     H20281   0.986   7.202   7.936  0.6193  1.5625  1.2212
  147MOL0     H20282   0.666   7.066   7.696  0.2854 -2.0734  0.9985
  147MOL0     H20283   0.948   7.539   8.386  0.9886  2.6790  0.1121
  147MOL0     H20284   1.009   7.875   8.430 -2.4820  0.4184 -0.6332
  147MOL0     H20285   0.983   7.797   8.594 -1.1510 -2.1524  0.1476
  147MOL0     H20286   1.056   7.707   8.463  0.0450 -0.0240 -0.7306
  148MOL0     O20287   9.837   7.569   2.985 -0.0479 -0.1412  0.1762
  148MOL0     C20288   9.824   7.670   3.054  0.1031  0.0684 -0.1699
  148MOL0     O20289   9.926   7.730   3.124 -0.1277  1.0414  0.6989
  148MOL0     C20290  10.058   7.732   3.065  0.3333 -0.0084  0.1253
  148MOL0     C20291  10.131   7.626   3.002  0.3248 -0.0726 -0.0040
  148MOL0     C20292  10.269   7.638   2.975 -0.5100  0.0904  0.1441
  148MOL0     C20293  10.340   7.752   3.004  0.4966  0.0839 -0.1874
  148MOL0     O20294  10.476   7.771   2.993  0.4074 -0.4435  0.0319
  148MOL0     C20295  10.554   7.665   2.926  0.4329  0.0416 -0.1835
  148MOL0     C20296  10.697   7.732   2.924 -0.4404  0.4376  0.5161
  148MOL0     C20297  10.795   7.668   2.821 -0.2638 -0.9560 -0.5062
  148MOL0     C20298  10.896   7.772   2.783  0.1802 -0.0927  0.2128
  148MOL0     C20299  11.022   7.731   2.715 -0.5443 -0.3568  0.7043
  148MOL0     C20300  11.083   7.840   2.622 -0.3958 -0.2640  0.1809
  148MOL0     C20301  11.215   7.785   2.563  0.9867 -0.5158  0.4873
  148MOL0     C20302  11.338   7.780   2.662  0.1439  0.7480 -0.1154
  148MOL0     N20303  11.463   7.780   2.588 -0.3990  0.0134  0.0590
  148MOL0     C20304  11.569   7.867   2.622  0.4099 -0.9015 -0.3127
  148MOL0     C20305  11.656   7.845   2.518  0.0618  0.1473  0.4652
  148MOL0     C20306  11.791   7.916   2.489  0.4905  0.2351  1.1503
  148MOL0     C20307  11.893   7.821   2.439 -0.4814  0.1923 -0.4429
  148MOL0     C20308  11.934   7.713   2.539  0.6363 -0.1845  0.9111
  148MOL0     C20309  11.973   7.775   2.675 -0.2026 -0.2483 -0.0127
  148MOL0     O20310  12.061   7.890   2.651 -0.6078  0.6274 -0.2346
  148MOL0     C20311  12.189   7.875   2.588 -0.9983 -0.3421 -0.7181
  148MOL0     C20312  12.257   7.752   2.578 -0.0715 -1.1029 -0.4854
  148MOL0     C20313  12.383   7.737   2.506  0.7165 -0.1394 -0.3596
  148MOL0     C20314  12.429   7.594   2.500 -0.8653  0.1357  0.5358
  148MOL0     C20315  12.445   7.849   2.432  0.8277  0.1219 -0.5985
  148MOL0     C20316  12.579   7.849   2.368 -0.3745 -0.3252 -0.8614
  148MOL0     O20317  12.659   7.741   2.391  0.4058  0.3483  0.5950
  148MOL0     C20318  12.780   7.730   2.327  0.8203  0.2130 -0.8606
  148MOL0     C20319  12.902   7.730   2.405  0.2068  0.6669 -0.1646
  148MOL0     C20320  13.030   7.716   2.342  0.2993 -0.1986 -0.4818
  148MOL0     C20321  13.032   7.686   2.205  0.1515  0.0559 -0.1610
  148MOL0     O20322  13.158   7.670   2.156  0.4594 -0.1838  0.0941
  148MOL0     C20323  13.161   7.665   2.007  0.0371  0.7368 -0.3848
  148MOL0     C20324  13.309   7.646   1.971  0.1263  0.3334  0.0795
  148MOL0     C20325  13.332   7.653   1.822 -0.4521  0.4224  1.0386
  148MOL0     C20326  13.461   7.590   1.782 -0.1343  0.4028  0.2340
  148MOL0     C20327  13.477   7.621   1.637 -0.0845 -0.0168  0.2766
  148MOL0     C20328  13.596   7.546   1.560 -0.4291 -0.5057  1.0098
  148MOL0     C20329  13.724   7.535   1.637 -0.3250 -0.6243 -0.3458
  148MOL0     C20330  13.841   7.475   1.555 -0.0531 -0.7205 -0.1165
  148MOL0    Cl20331  13.991   7.457   1.652 -0.2129  0.0657 -0.1440
  148MOL0     C20332  12.915   7.667   2.131 -0.4450 -0.8485  0.4048
  148MOL0     C20333  12.789   7.693   2.195  0.5944  0.6214 -0.2174
  148MOL0     O20334  12.615   7.953   2.314  0.3027  0.1119 -0.3440
  148MOL0     C20335  12.382   7.972   2.465  0.2074 -0.1762  0.6626
  148MOL0     C20336  12.255   7.990   2.534  0.0874  0.5285 -0.5742
  148MOL0     N20337  11.600   7.753   2.426  0.9165 -0.0902 -0.2770
  148MOL0     N20338  11.487   7.710   2.470 -0.1892  0.7009 -0.3858
  148MOL0     C20339  10.275   7.853   3.067  0.4809 -0.5886  0.2187
  148MOL0     C20340  10.143   7.841   3.091 -0.8447  0.0996 -0.0398
  148MOL0     C20341   9.686   7.732   3.076  0.1977  0.2124 -0.2884
  148MOL0     C20342   9.670   7.839   3.163 -1.0943 -0.2556  0.4103
  148MOL0     C20343   9.554   7.893   3.197  0.4839  0.2180 -0.5055
  148MOL0     C20344   9.431   7.838   3.147 -0.7991 -0.4019 -1.3970
  148MOL0     O20345   9.307   7.895   3.163  0.5984 -0.3527 -0.7226
  148MOL0     C20346   9.295   8.039   3.186  0.1047  0.1990 -0.6942
  148MOL0     C20347   9.146   8.073   3.214 -0.0233 -0.0881 -0.5968
  148MOL0     C20348   9.127   8.225   3.229 -0.5927  0.2094  0.2414
  148MOL0     C20349   9.133   8.276   3.371  0.2431  0.1612 -0.5645
  148MOL0     C20350   9.268   8.272   3.435  0.5645  0.4146 -0.3878
  148MOL0     C20351   9.374   8.265   3.488 -0.3510 -0.0951  0.3486
  148MOL0     C20352   9.448   7.743   3.047 -0.4115  0.5245 -0.0140
  148MOL0     C20353   9.572   7.688   3.013  0.3754  0.5240  0.7470
  148MOL0     C20354   9.567   7.577   2.905  0.1530 -0.0104 -0.1581
  148MOL0     H20355  10.082   7.533   2.974  1.8276 -1.0274  0.4500
  148MOL0     H20356  10.315   7.544   2.946  2.7613  0.4203  3.5465
  148MOL0     H20357  10.517   7.642   2.826  0.7176  2.0049 -0.7793
  148MOL0     H20358  10.553   7.578   2.992 -2.9264  1.1323  1.4268
  148MOL0     H20359  10.680   7.838   2.904 -1.5043 -0.0145 -1.2097
  148MOL0     H20360  10.744   7.723   3.022  3.2863 -3.7625 -1.2714
  148MOL0     H20361  10.847   7.586   2.872  0.4875  1.0481  2.1908
  148MOL0     H20362  10.738   7.626   2.738 -1.5568 -1.9566  0.8347
  148MOL0     H20363  10.840   7.831   2.710  1.7038 -1.3328 -2.0870
  148MOL0     H20364  10.926   7.829   2.871  0.0754  2.4650 -1.3057
  148MOL0     H20365  11.002   7.639   2.660  1.3499 -0.8905  0.8121
  148MOL0     H20366  11.096   7.709   2.793  1.6836  0.1055 -1.1582
  148MOL0     H20367  11.020   7.864   2.535 -0.7131 -0.0307  0.4760
  148MOL0     H20368  11.101   7.928   2.683  0.0063 -1.3157  1.6482
  148MOL0     H20369  11.240   7.858   2.484  2.2376 -0.3195  1.0370
  148MOL0     H20370  11.197   7.687   2.517 -4.1812  0.6046 -0.5352
  148MOL0     H20371  11.335   7.852   2.745  2.1484  0.5851  0.1592
  148MOL0     H20372  11.327   7.681   2.708 -2.2127 -0.1177 -2.3103
  148MOL0     H20373  11.570   7.939   2.703 -2.3080  1.2816 -2.0291
  148MOL0     H20374  11.827   7.963   2.581 -0.0418 -1.7523  2.4301
  148MOL0     H20375  11.780   7.991   2.410  0.2419 -1.2432 -0.2836
  148MOL0     H20376  11.874   7.768   2.346  2.4427 -1.7373 -0.0986
  148MOL0     H20377  11.976   7.888   2.413  0.0376 -0.3449 -0.2097
  148MOL0     H20378  11.849   7.651   2.565  0.6990 -0.2716  0.9074
  148MOL0     H20379  12.001   7.638   2.496  1.2521  1.4344 -1.1460
  148MOL0     H20380  11.880   7.799   2.728 -1.3814  1.3572 -2.6360
  148MOL0     H20381  12.018   7.693   2.731  3.1379  0.9739 -0.7021
  148MOL0     H20382  12.214   7.662   2.620 -1.0551 -0.8362 -0.9026
  148MOL0     H20383  12.347   7.521   2.488 -0.9540  0.5744 -2.1662
  148MOL0     H20384  12.485   7.578   2.593 -2.0808 -0.0566  1.2585
  148MOL0     H20385  12.490   7.561   2.416 -1.0493 -0.2509  0.5465
  148MOL0     H20386  12.895   7.729   2.513  0.8101  0.4041 -0.1272
  148MOL0     H20387  13.124   7.715   2.396  0.9840 -0.9766 -1.6398
  148MOL0     H20388  13.119   7.575   1.963 -1.6282  0.5525  1.4433
  148MOL0     H20389  13.112   7.754   1.967  0.0810  1.4612  1.0907
  148MOL0     H20390  13.360   7.733   2.014 -2.4511  2.3415 -0.6020
  148MOL0     H20391  13.334   7.549   2.015 -1.6783 -0.6915 -1.0090
  148MOL0     H20392  13.318   7.757   1.791  0.3993  1.1681  2.9863
  148MOL0     H20393  13.253   7.599   1.769 -0.1070  0.6108  0.3178
  148MOL0     H20394  13.452   7.483   1.801  3.1393  0.0183  0.1237
  148MOL0     H20395  13.549   7.624   1.837 -0.4308  0.0846  0.9043
  148MOL0     H20396  13.382   7.595   1.588 -0.6092 -0.2454  1.3984
  148MOL0     H20397  13.488   7.729   1.622 -1.6293 -0.2384 -3.6564
  148MOL0     H20398  13.613   7.593   1.463  0.6622  0.1584  1.5111
  148MOL0     H20399  13.561   7.443   1.543  1.7361 -0.7938 -3.1024
  148MOL0     H20400  13.704   7.468   1.722 -0.4938  0.3470  0.3909
  148MOL0     H20401  13.747   7.633   1.679 -0.4947 -0.4531 -0.6581
  148MOL0     H20402  13.853   7.547   1.473 -2.6075 -1.1975 -1.0279
  148MOL0     H20403  13.812   7.379   1.511  1.0019 -0.4389 -1.4846
  148MOL0     H20404  12.921   7.626   2.031 -0.4411  0.8828 -0.3353
  148MOL0     H20405  12.690   7.682   2.152  1.1542 -1.0227 -1.2186
  148MOL0     H20406  12.409   8.055   2.401 -1.0951 -0.0899  0.1898
  148MOL0     H20407  12.200   8.083   2.546  3.4305  2.3967  1.5771
  148MOL0     H20408  10.327   7.938   3.111 -0.8039 -0.3957  1.4239
  148MOL0     H20409  10.096   7.932   3.128  0.7222 -0.0677  2.6382
  148MOL0     H20410   9.756   7.880   3.215 -1.0332 -0.3531  0.3837
  148MOL0     H20411   9.548   7.971   3.273 -0.0811  0.2628 -0.5898
  148MOL0     H20412   9.356   8.069   3.271 -0.1306  0.6890 -0.6939
  148MOL0     H20413   9.335   8.091   3.098 -0.6342  0.4736 -0.8731
  148MOL0     H20414   9.117   8.020   3.305  2.3263 -0.6313 -0.1162
  148MOL0     H20415   9.083   8.040   3.130 -0.6442 -0.0576 -0.1544
  148MOL0     H20416   9.209   8.271   3.172  0.8053  0.5802  2.4347
  148MOL0     H20417   9.037   8.261   3.178 -0.9858 -0.3551  0.5312
  148MOL0     H20418   9.060   8.217   3.427  0.1704 -1.0402 -1.8536
  148MOL0     H20419   9.105   8.382   3.367 -1.4717 -0.2009  0.6931
  148MOL0     H20420   9.471   8.263   3.535  0.9759  1.9415 -2.0179
  148MOL0     H20421   9.364   7.701   2.993 -0.7157  0.6675  0.3438
  148MOL0     H20422   9.591   7.485   2.958 -0.1563  0.2140  0.3711
  148MOL0     H20423   9.469   7.557   2.862  0.4211 -1.3581 -0.1714
  148MOL0     H20424   9.640   7.586   2.823 -1.3427  0.4130 -1.5011
  149MOL0     O20425   5.830   4.417   3.388  0.0832  0.5316  0.0498
  149MOL0     C20426   5.759   4.321   3.371 -1.0421  1.0368 -0.3640
  149MOL0     O20427   5.799   4.213   3.294 -0.7228  0.0831 -0.1281
  149MOL0     C20428   5.931   4.203   3.257  0.1947 -0.1615 -0.3195
  149MOL0     C20429   5.950   4.190   3.122  1.4813  0.8977 -0.5183
  149MOL0     C20430   6.079   4.187   3.072 -0.2266 -0.0318  0.3479
  149MOL0     C20431   6.187   4.201   3.153 -0.0644  0.0463  0.5587
  149MOL0     O20432   6.302   4.191   3.072 -0.2304  0.2581 -1.0262
  149MOL0     C20433   6.419   4.207   3.154 -0.4433 -0.0965  0.4046
  149MOL0     C20434   6.533   4.202   3.058 -0.4268  0.7713 -0.5481
  149MOL0     C20435   6.665   4.195   3.137  0.0017 -0.5375  0.5285
  149MOL0     C20436   6.777   4.163   3.033  0.4246 -0.4677  0.5036
  149MOL0     C20437   6.921   4.160   3.093 -1.3662 -0.4914 -0.0408
  149MOL0     C20438   7.025   4.130   2.982  0.2882  0.7393  0.3456
  149MOL0     C20439   7.177   4.140   3.028  0.5151  0.0146 -0.2214
  149MOL0     C20440   7.230   4.281   3.054 -0.1897  1.4181  0.0207
  149MOL0     N20441   7.374   4.291   3.059  0.5284  0.0974  1.2751
  149MOL0     C20442   7.441   4.333   3.172  0.2900  0.7186 -0.3100
  149MOL0     C20443   7.569   4.358   3.133  0.6717  0.1606  0.2650
  149MOL0     C20444   7.677   4.412   3.221  0.5422 -0.5599 -0.5974
  149MOL0     C20445   7.631   4.542   3.277 -0.6683 -0.3004  0.4170
  149MOL0     C20446   7.614   4.657   3.178 -0.1626  0.9951  0.5703
  149MOL0     C20447   7.739   4.736   3.140 -0.2123 -0.3580  0.7881
  149MOL0     O20448   7.794   4.792   3.260 -0.4132 -0.3407  0.3998
  149MOL0     C20449   7.932   4.830   3.260  0.6192 -0.3574 -0.3855
  149MOL0     C20450   7.997   4.824   3.137 -0.4766  0.2195 -0.6815
  149MOL0     C20451   8.131   4.869   3.130 -0.2995  0.0615  0.3152
  149MOL0     C20452   8.202   4.853   2.996  0.1460 -0.2601  0.3518
  149MOL0     C20453   8.199   4.922   3.242 -0.8031 -0.6274 -0.4317
  149MOL0     C20454   8.341   4.964   3.249 -0.2228 -0.1564  0.4633
  149MOL0     O20455   8.397   5.009   3.129  0.5955  0.4475  0.2508
  149MOL0     C20456   8.533   5.046   3.122  0.7207 -0.6001 -0.9175
  149MOL0     C20457   8.604   5.091   3.233 -0.3431  0.4444 -0.0994
  149MOL0     C20458   8.735   5.132   3.219 -0.0988  0.2006 -0.0890
  149MOL0     C20459   8.805   5.129   3.088  0.4235 -0.7268 -0.3778
  149MOL0     O20460   8.936   5.174   3.063  0.5632  0.0679  0.1213
  149MOL0     C20461   9.019   5.211   3.170 -0.3105 -0.6515  0.1876
  149MOL0     C20462   9.169   5.238   3.126  0.1113  0.2200  0.1956
  149MOL0     C20463   9.230   5.128   3.044  1.2716  0.7423  0.0164
  149MOL0     C20464   9.376   5.135   3.008 -0.5515  0.7179 -0.2294
  149MOL0     C20465   9.400   5.271   2.936  0.8212 -0.8141 -0.2093
  149MOL0     C20466   9.545   5.293   2.907 -0.2962 -0.8551 -0.6920
  149MOL0     C20467   9.566   5.392   2.794 -0.0248  0.5138 -0.4094
  149MOL0     C20468   9.523   5.535   2.842 -0.1577 -0.4884  0.0522
  149MOL0    Cl20469   9.557   5.660   2.703  0.2460 -0.4345 -0.0620
  149MOL0     C20470   8.725   5.079   2.977  0.1406  0.1401 -0.1704
  149MOL0     C20471   8.594   5.039   3.000  0.8234 -0.2241  0.0302
  149MOL0     O20472   8.400   4.962   3.355  0.3278  0.1953 -1.1585
  149MOL0     C20473   8.122   4.933   3.363 -0.7831  0.0830 -0.1339
  149MOL0     C20474   7.991   4.890   3.367  0.6810 -0.2104  0.0498
  149MOL0     N20475   7.576   4.328   2.991 -0.0796 -0.0165 -0.0176
  149MOL0     N20476   7.458   4.296   2.953  0.4811  0.0558  0.2950
  149MOL0     C20477   6.173   4.221   3.286 -0.3537  0.9434 -0.8239
  149MOL0     C20478   6.040   4.230   3.345  0.2124 -0.6697 -0.2942
  149MOL0     C20479   5.623   4.332   3.424  0.1986  0.2249 -0.1891
  149MOL0     C20480   5.570   4.457   3.447 -0.4947  0.5691 -0.3338
  149MOL0     C20481   5.447   4.477   3.493 -0.4198 -0.0105  0.6307
  149MOL0     C20482   5.369   4.361   3.516  0.4103 -0.3311  0.3250
  149MOL0     O20483   5.244   4.380   3.562  0.1337 -0.3164  0.3394
  149MOL0     C20484   5.148   4.416   3.464 -0.1091  0.2228  0.4407
  149MOL0     C20485   5.032   4.317   3.471 -0.6255 -0.1760 -0.2743
  149MOL0     C20486   4.963   4.304   3.614  0.3818 -0.1811  0.1846
  149MOL0     C20487   4.865   4.186   3.633  0.5109  0.3879 -0.1507
  149MOL0     C20488   4.732   4.193   3.572 -0.6182 -0.0784  0.9606
  149MOL0     C20489   4.623   4.215   3.520  0.3905  0.0255  0.4995
  149MOL0     C20490   5.420   4.233   3.495 -0.4387 -0.4427  0.3013
  149MOL0     C20491   5.548   4.216   3.452 -0.0465 -0.0662  1.1795
  149MOL0     C20492   5.613   4.074   3.452 -0.2241  0.0389  0.2010
  149MOL0     H20493   5.863   4.180   3.058  0.1392  1.1712  1.1821
  149MOL0     H20494   6.105   4.177   2.968  2.7830  2.9833  0.6509
  149MOL0     H20495   6.422   4.124   3.226 -1.9056 -0.6283 -0.1059
  149MOL0     H20496   6.418   4.300   3.212  2.9384 -0.4999  1.3089
  149MOL0     H20497   6.510   4.111   3.002  0.3297  0.0462  0.2757
  149MOL0     H20498   6.531   4.290   2.994  1.0982 -0.7405 -2.8100
  149MOL0     H20499   6.693   4.288   3.186  0.9171  0.7296 -2.2237
  149MOL0     H20500   6.655   4.117   3.213 -2.6158 -1.1902 -0.3721
  149MOL0     H20501   6.756   4.069   2.982  0.3470 -0.7920  1.1198
  149MOL0     H20502   6.772   4.245   2.960 -1.7756 -0.3411  0.7304
  149MOL0     H20503   6.922   4.082   3.169 -2.2405  2.3978  3.1571
  149MOL0     H20504   6.946   4.257   3.135  1.1672 -1.1929  0.1998
  149MOL0     H20505   7.004   4.029   2.946  0.4441  1.1765 -1.0209
  149MOL0     H20506   7.006   4.195   2.897  0.3725 -0.6822 -0.7906
  149MOL0     H20507   7.239   4.101   2.946 -0.4546  1.2343 -1.5984
  149MOL0     H20508   7.184   4.077   3.117  0.6021 -0.2116 -0.3887
  149MOL0     H20509   7.189   4.338   2.970  0.6201  2.5446  0.3726
  149MOL0     H20510   7.180   4.321   3.143 -0.8393  1.0619 -0.1726
  149MOL0     H20511   7.411   4.346   3.275 -0.7088 -1.6833 -0.2303
  149MOL0     H20512   7.770   4.417   3.164  1.1129 -0.5275  0.3240
  149MOL0     H20513   7.697   4.343   3.304 -1.2612 -0.6864 -0.2219
  149MOL0     H20514   7.535   4.521   3.325  0.1348  0.6483  2.5822
  149MOL0     H20515   7.696   4.564   3.362 -2.1687 -0.6210  1.6828
  149MOL0     H20516   7.563   4.618   3.089 -3.3366 -0.9859  3.0052
  149MOL0     H20517   7.540   4.730   3.212 -1.0680  1.0986 -1.4718
  149MOL0     H20518   7.798   4.669   3.077  1.6623  0.0902  1.9634
  149MOL0     H20519   7.709   4.818   3.075 -1.2611 -0.9286  0.5400
  149MOL0     H20520   7.964   4.778   3.044  0.9604  0.5255 -1.3785
  149MOL0     H20521   8.148   4.805   2.914  2.0103 -0.3201 -0.9061
  149MOL0     H20522   8.297   4.801   3.000  0.9945  1.3006  1.3984
  149MOL0     H20523   8.228   4.953   2.958 -0.6594  0.6403  2.0385
  149MOL0     H20524   8.558   5.093   3.331 -3.6848 -0.4474 -1.4758
  149MOL0     H20525   8.780   5.178   3.306  1.5185  2.1768 -1.8485
  149MOL0     H20526   8.991   5.300   3.226 -2.3717  0.0466 -1.7918
  149MOL0     H20527   9.019   5.128   3.242 -0.3924 -1.0905 -0.3132
  149MOL0     H20528   9.160   5.334   3.073 -2.8146 -0.7479 -1.2965
  149MOL0     H20529   9.228   5.257   3.216  0.2589 -0.6358  0.2804
  149MOL0     H20530   9.169   5.124   2.954 -0.8988 -0.4817  1.4566
  149MOL0     H20531   9.206   5.040   3.104 -1.8919  0.3744 -1.6188
  149MOL0     H20532   9.393   5.048   2.944  0.6773  0.9356 -0.2309
  149MOL0     H20533   9.429   5.128   3.104 -1.0890 -0.3633  0.0113
  149MOL0     H20534   9.337   5.263   2.847 -0.3140 -0.5396  0.5487
  149MOL0     H20535   9.358   5.356   2.991 -2.6601 -1.8830 -0.9221
  149MOL0     H20536   9.590   5.202   2.866  0.0636 -0.9581 -0.0761
  149MOL0     H20537   9.601   5.315   2.998  3.4181  0.2997 -2.9765
  149MOL0     H20538   9.511   5.362   2.704 -1.3184  2.7275 -0.4194
  149MOL0     H20539   9.671   5.398   2.767  0.0792 -0.9155 -0.4306
  149MOL0     H20540   9.564   5.567   2.938 -1.7128 -3.2133  1.7562
  149MOL0     H20541   9.415   5.526   2.857  0.0189  0.5189  2.2657
  149MOL0     H20542   8.777   5.066   2.883  1.7452 -0.3077  0.7543
  149MOL0     H20543   8.543   4.999   2.912 -1.7825  0.1085  1.2944
  149MOL0     H20544   8.158   4.965   3.460  0.6967  0.6936 -0.8622
  149MOL0     H20545   7.927   4.898   3.454  1.4578 -2.0663  0.8448
  149MOL0     H20546   6.248   4.232   3.364 -2.0895 -0.5892  1.1837
  149MOL0     H20547   6.024   4.247   3.451  1.0140 -1.3165 -0.0549
  149MOL0     H20548   5.635   4.542   3.432  1.8176 -1.4430 -2.7338
  149MOL0     H20549   5.399   4.574   3.494 -1.2816 -0.3780 -1.0810
  149MOL0     H20550   5.117   4.519   3.481 -0.2396 -0.0280  1.7695
  149MOL0     H20551   5.180   4.418   3.359 -3.0730  1.7851 -0.5805
  149MOL0     H20552   5.071   4.219   3.440 -1.8642 -1.4881  2.0622
  149MOL0     H20553   4.956   4.356   3.402 -1.3282  0.7588  0.9887
  149MOL0     H20554   5.041   4.266   3.681 -0.8344 -3.9397 -0.2743
  149MOL0     H20555   4.922   4.401   3.644  0.9078 -0.1283  0.7606
  149MOL0     H20556   4.862   4.174   3.742 -1.1120  1.4330 -0.0509
  149MOL0     H20557   4.920   4.100   3.591  0.5094 -0.2273  1.0594
  149MOL0     H20558   4.526   4.249   3.488  0.3546  0.1869  0.7809
  149MOL0     H20559   5.365   4.143   3.521 -4.4888  2.0790  1.2882
  149MOL0     H20560   5.712   4.082   3.498 -1.0155  2.7902  1.7077
  149MOL0     H20561   5.555   4.001   3.510 -1.1433 -1.7590 -2.7951
  149MOL0     H20562   5.630   4.041   3.350  0.3427 -2.3247  1.0106
  150MOL0     O20563   3.042   6.595   8.281  0.0645  0.2217 -0.0194
  150MOL0     C20564   2.990   6.676   8.353 -0.0282 -0.0696  0.6989
  150MOL0     O20565   2.962   6.807   8.325  0.0961 -0.4076 -0.5246
  150MOL0     C20566   2.988   6.854   8.201  0.4903  0.2651  0.1551
  150MOL0     C20567   3.113   6.853   8.133 -0.7723 -0.0435  1.0739
  150MOL0     C20568   3.129   6.929   8.013 -0.5928  0.3067  0.5665
  150MOL0     C20569   3.035   7.004   7.953  0.6604  0.8171 -0.1236
  150MOL0     O20570   3.052   7.088   7.851 -0.0029 -0.0848  0.0293
  150MOL0     C20571   3.069   7.012   7.725  0.4100 -0.0127 -0.3507
  150MOL0     C20572   3.085   7.106   7.604  0.5378 -0.5646 -0.2792
  150MOL0     C20573   3.220   7.180   7.609 -0.4109 -0.3849  0.0298
  150MOL0     C20574   3.257   7.246   7.472 -1.5690  0.0676  0.2236
  150MOL0     C20575   3.408   7.268   7.463  0.6215  0.3728 -0.7359
  150MOL0     C20576   3.444   7.325   7.327 -0.0763  0.9822 -0.3590
  150MOL0     C20577   3.595   7.325   7.305  0.5438 -0.5944 -0.6321
  150MOL0     C20578   3.672   7.456   7.313  0.2324  0.3474 -0.1248
  150MOL0     N20579   3.818   7.442   7.287  0.6383  0.2635 -0.3398
  150MOL0     C20580   3.887   7.431   7.175  0.4693 -0.1534 -0.4853
  150MOL0     C20581   4.019   7.417   7.214  0.4109  0.3949  0.4047
  150MOL0     C20582   4.129   7.379   7.124 -0.3519  0.4348  0.0827
  150MOL0     C20583   4.275   7.408   7.181 -0.3772 -1.2119  0.4728
  150MOL0     C20584   4.380   7.368   7.068 -0.0718  0.4428  0.4502
  150MOL0     C20585   4.527   7.365   7.111 -0.5237 -0.0649  0.1971
  150MOL0     O20586   4.565   7.503   7.123  0.0783 -0.3548  0.4623
  150MOL0     C20587   4.693   7.533   7.173 -1.4670  0.4956 -0.8607
  150MOL0     C20588   4.779   7.433   7.227 -0.1060  0.4603 -0.0686
  150MOL0     C20589   4.903   7.466   7.268 -0.3027 -0.2696  0.2142
  150MOL0     C20590   4.981   7.348   7.327  0.5270 -0.2012 -0.5647
  150MOL0     C20591   4.956   7.598   7.264 -0.1350  0.2188 -0.3540
  150MOL0     C20592   5.096   7.638   7.283  0.7219  0.5713  0.2224
  150MOL0     O20593   5.189   7.604   7.187  0.0293 -0.2556  0.0343
  150MOL0     C20594   5.315   7.593   7.223 -0.6081  0.3499 -0.7830
  150MOL0     C20595   5.356   7.526   7.345  0.2111 -0.5944  0.0335
  150MOL0     C20596   5.487   7.490   7.362 -0.3248 -0.2678  0.3341
  150MOL0     C20597   5.577   7.508   7.254 -0.4222  0.4391 -0.0902
  150MOL0     O20598   5.699   7.453   7.266 -0.8839  0.5076 -0.0322
  150MOL0     C20599   5.801   7.505   7.182 -0.8409 -0.6335  1.0467
  150MOL0     C20600   5.930   7.441   7.212 -0.3647 -1.1317 -0.3923
  150MOL0     C20601   6.042   7.525   7.147  0.1659  0.3629 -0.2593
  150MOL0     C20602   6.180   7.446   7.158  0.2696 -0.2609 -0.4206
  150MOL0     C20603   6.305   7.542   7.140  0.3517 -1.2224 -0.0065
  150MOL0     C20604   6.428   7.453   7.125 -0.1068 -0.7488  0.0734
  150MOL0     C20605   6.526   7.500   7.007  0.0532 -0.4566  0.1094
  150MOL0     C20606   6.656   7.424   7.043 -0.1332 -0.0177 -0.0918
  150MOL0    Cl20607   6.805   7.481   6.957 -0.0884 -0.6013  0.3304
  150MOL0     C20608   5.536   7.567   7.139  1.3304 -0.2093  1.0221
  150MOL0     C20609   5.409   7.616   7.130  0.3637  0.8435 -0.2435
  150MOL0     O20610   5.121   7.694   7.388 -0.7912 -0.2015 -0.1419
  150MOL0     C20611   4.861   7.697   7.217 -0.2030 -0.3062  0.5975
  150MOL0     C20612   4.731   7.664   7.172 -0.4253 -0.6780 -0.0799
  150MOL0     N20613   4.026   7.422   7.355 -0.0913  0.4010  0.1542
  150MOL0     N20614   3.900   7.437   7.392 -0.6266 -0.3211  0.3450
  150MOL0     C20615   2.909   7.013   8.017 -0.2055 -0.5769  0.1473
  150MOL0     C20616   2.885   6.933   8.135 -0.1719  0.0446 -0.7281
  150MOL0     C20617   2.942   6.630   8.484 -0.4301 -0.3628  0.2865
  150MOL0     C20618   2.848   6.712   8.551  0.1385 -0.3389 -0.5924
  150MOL0     C20619   2.786   6.678   8.672  0.0040  0.3032 -1.0292
  150MOL0     C20620   2.807   6.551   8.722 -0.4539 -0.6797 -0.6741
  150MOL0     O20621   2.725   6.515   8.825 -0.2039  0.6053 -0.4288
  150MOL0     C20622   2.740   6.383   8.884 -0.2330 -0.4838 -0.8982
  150MOL0     C20623   2.627   6.354   8.980  0.0678 -0.1695  0.2246
  150MOL0     C20624   2.492   6.354   8.897  0.0447  0.6451 -0.2795
  150MOL0     C20625   2.371   6.307   8.985 -0.1895 -0.5473  0.1559
  150MOL0     C20626   2.237   6.332   8.931 -0.2760 -0.1093 -0.2164
  150MOL0     C20627   2.128   6.387   8.901  0.5014 -0.5266  0.2205
  150MOL0     C20628   2.899   6.465   8.658 -0.1159 -0.1055  0.5870
  150MOL0     C20629   2.974   6.499   8.545 -0.0688  0.3698 -0.5765
  150MOL0     C20630   3.054   6.394   8.482  0.0725 -0.1007  0.0427
  150MOL0     H20631   3.206   6.808   8.167 -1.1760 -1.3653  0.4753
  150MOL0     H20632   3.225   6.903   7.970 -1.0391 -1.3012  0.4740
  150MOL0     H20633   2.990   6.938   7.711  0.8255 -0.3339 -1.0750
  150MOL0     H20634   3.159   6.951   7.723  1.2018  1.1213 -2.4000
  150MOL0     H20635   3.077   7.053   7.508 -0.8674  1.9811 -1.6721
  150MOL0     H20636   3.001   7.176   7.612  0.4836 -0.6168 -0.3957
  150MOL0     H20637   3.224   7.266   7.677 -1.0773  0.4770 -0.9983
  150MOL0     H20638   3.298   7.108   7.635  2.2379  1.8547 -1.1669
  150MOL0     H20639   3.228   7.172   7.397  0.7589 -2.4444  1.6104
  150MOL0     H20640   3.202   7.337   7.447  2.2323  2.5960  0.3633
  150MOL0     H20641   3.461   7.178   7.494 -2.3929 -0.0678  4.1967
  150MOL0     H20642   3.433   7.343   7.539 -1.0039  1.1732 -0.9514
  150MOL0     H20643   3.403   7.273   7.240  0.6260  1.2687 -0.8636
  150MOL0     H20644   3.409   7.429   7.323 -1.9241  0.5829  2.2562
  150MOL0     H20645   3.610   7.282   7.206 -3.3976 -2.2337 -0.7162
  150MOL0     H20646   3.638   7.251   7.372  1.2849 -3.7404 -4.2338
  150MOL0     H20647   3.637   7.534   7.244  1.2871  0.9288 -0.0295
  150MOL0     H20648   3.657   7.499   7.412 -1.4894  1.6087 -0.8841
  150MOL0     H20649   3.853   7.430   7.072 -2.5833  0.5606  0.4331
  150MOL0     H20650   4.119   7.433   7.029  0.4477 -0.4853 -0.5416
  150MOL0     H20651   4.117   7.272   7.101 -1.5069  0.9482 -1.9087
  150MOL0     H20652   4.283   7.516   7.194 -3.0604 -0.8238 -0.5676
  150MOL0     H20653   4.282   7.339   7.266 -0.7371 -0.4920  1.0958
  150MOL0     H20654   4.339   7.273   7.031 -0.0057 -0.1650  1.8583
  150MOL0     H20655   4.374   7.445   6.991 -1.0984  2.1437  2.1409
  150MOL0     H20656   4.540   7.324   7.212 -2.3492  1.4420  1.1263
  150MOL0     H20657   4.588   7.313   7.037  0.9105 -0.4576  1.6020
  150MOL0     H20658   4.749   7.329   7.230  0.2562  0.3742  0.7438
  150MOL0     H20659   4.917   7.292   7.395  1.0118  0.5681  0.5527
  150MOL0     H20660   5.059   7.374   7.398 -1.7148 -0.2594  2.0735
  150MOL0     H20661   5.020   7.281   7.250  0.3307  0.2472 -1.0652
  150MOL0     H20662   5.278   7.502   7.415 -1.2005  3.7825  0.2563
  150MOL0     H20663   5.538   7.444   7.447  2.6893  0.9931 -0.6654
  150MOL0     H20664   5.785   7.488   7.075 -0.9900  1.8250  0.6403
  150MOL0     H20665   5.808   7.613   7.194 -0.1138 -0.1727 -2.4624
  150MOL0     H20666   5.951   7.431   7.319  1.1233 -3.3748 -0.8253
  150MOL0     H20667   5.935   7.341   7.169 -0.9925 -1.6511  0.7054
  150MOL0     H20668   6.050   7.623   7.195 -0.0267 -0.8296  2.4097
  150MOL0     H20669   6.035   7.539   7.039  1.9502  0.4246 -0.3869
  150MOL0     H20670   6.179   7.362   7.088  0.2427 -1.8706  1.4310
  150MOL0     H20671   6.188   7.414   7.263 -2.2077 -0.8938 -0.3742
  150MOL0     H20672   6.293   7.617   7.061 -0.2865 -0.5750  0.6948
  150MOL0     H20673   6.313   7.607   7.227 -2.0830 -2.5021  1.2696
  150MOL0     H20674   6.397   7.351   7.100  2.1130 -1.7431  1.0414
  150MOL0     H20675   6.479   7.452   7.222 -0.5107 -1.1945  0.2870
  150MOL0     H20676   6.535   7.608   7.014 -2.9413  0.0347 -1.5821
  150MOL0     H20677   6.479   7.465   6.914  1.2987 -0.8751 -0.3891
  150MOL0     H20678   6.634   7.320   7.019 -1.7549 -0.4926  3.0010
  150MOL0     H20679   6.677   7.429   7.150 -0.8743  0.2865  0.0418
  150MOL0     H20680   5.590   7.567   7.045 -2.9177 -3.5762 -1.8177
  150MOL0     H20681   5.379   7.628   7.026 -3.5857 -1.0162  0.4687
  150MOL0     H20682   4.891   7.802   7.211  0.6201 -0.5961 -0.7480
  150MOL0     H20683   4.667   7.747   7.143  2.7724  1.4826 -1.5201
  150MOL0     H20684   2.828   7.077   7.983 -0.8023 -1.2449  0.2882
  150MOL0     H20685   2.790   6.934   8.188 -0.1424 -1.2369 -0.6211
  150MOL0     H20686   2.832   6.813   8.513  0.2077  1.0680  2.7994
  150MOL0     H20687   2.723   6.739   8.736 -0.4745  0.2277 -1.4293
  150MOL0     H20688   2.745   6.301   8.812 -1.0318  0.3094 -1.8820
  150MOL0     H20689   2.834   6.388   8.939 -1.3259  0.6545  0.9861
  150MOL0     H20690   2.621   6.435   9.054  1.6443 -0.9339  1.2559
  150MOL0     H20691   2.623   6.259   9.033 -0.0936 -0.1454  0.2547
  150MOL0     H20692   2.482   6.456   8.858 -0.4006  0.1893 -1.4174
  150MOL0     H20693   2.506   6.284   8.814 -1.0944 -1.4297  1.1873
  150MOL0     H20694   2.375   6.360   9.081 -0.2345 -1.6257  0.7767
  150MOL0     H20695   2.387   6.200   9.006  2.7887 -0.2915 -0.3834
  150MOL0     H20696   2.034   6.424   8.865  1.5496  2.0396 -0.0338
  150MOL0     H20697   2.912   6.366   8.702  0.7166  0.4584  1.6463
  150MOL0     H20698   3.081   6.311   8.548  0.9933 -0.2185 -0.4712
  150MOL0     H20699   2.994   6.356   8.399  0.5289 -0.1085 -0.2846
  150MOL0     H20700   3.140   6.442   8.435  0.6108  0.1033  1.1833
  151MOL0     O20701   5.926   8.464   9.113  0.8603 -0.0568 -0.4828
  151MOL0     C20702   5.853   8.392   9.175  0.3585 -0.1862 -0.5083
  151MOL0     O20703   5.861   8.368   9.308  0.0336 -0.5909  0.1089
  151MOL0     C20704   5.972   8.406   9.374 -0.0667  0.4946  0.1375
  151MOL0     C20705   6.110   8.382   9.333  0.3618 -0.0804  0.0556
  151MOL0     C20706   6.215   8.418   9.423  0.8927  0.2568 -0.4498
  151MOL0     C20707   6.187   8.475   9.547  0.5081 -0.0808  0.0981
  151MOL0     O20708   6.288   8.500   9.632  0.0570 -0.4546 -0.3744
  151MOL0     C20709   6.301   8.626   9.687  0.3146 -0.1312  0.2546
  151MOL0     C20710   6.410   8.697   9.616  0.0905  1.2117  0.0509
  151MOL0     C20711   6.393   8.850   9.633  0.2429 -0.3917 -0.5059
  151MOL0     C20712   6.395   8.886   9.783 -0.1648  0.6353  0.5192
  151MOL0     C20713   6.404   9.033   9.811 -0.9444 -0.0289 -0.4683
  151MOL0     C20714   6.380   9.062   9.965 -0.5722  0.0223 -0.3904
  151MOL0     C20715   6.397   9.204  10.005  0.2481 -0.1086 -0.8851
  151MOL0     C20716   6.284   9.291   9.956  0.1063 -0.3610 -0.1974
  151MOL0     N20717   6.308   9.432   9.994  0.1298 -0.4283  0.1029
  151MOL0     C20718   6.291   9.548   9.905  0.2092  0.9537 -0.9855
  151MOL0     C20719   6.313   9.652   9.982 -0.2654 -0.3931 -0.0272
  151MOL0     C20720   6.312   9.797   9.929 -0.2209 -0.8825  0.7527
  151MOL0     C20721   6.461   9.826   9.906  0.4833  0.2412 -0.8550
  151MOL0     C20722   6.486   9.951   9.831 -0.4173  0.3531  0.1816
  151MOL0     C20723   6.633   9.988   9.820  0.3608  0.0058 -0.0136
  151MOL0     O20724   6.671  10.084   9.717 -0.2733  0.4543 -0.0422
  151MOL0     C20725   6.795  10.147   9.739  0.4733  0.2701  0.5155
  151MOL0     C20726   6.815  10.276   9.698  0.6720 -0.1970  0.8331
  151MOL0     C20727   6.940  10.346   9.716  0.2622 -0.0443  0.0477
  151MOL0     C20728   6.940  10.494   9.676 -0.5153  0.1062  0.3160
  151MOL0     C20729   7.039  10.279   9.798 -0.4098 -0.1314  0.0190
  151MOL0     C20730   7.173  10.345   9.837 -0.7640 -0.5743 -0.3977
  151MOL0     O20731   7.250  10.282   9.937 -0.0166 -0.4938  0.4960
  151MOL0     C20732   7.383  10.324   9.943 -0.3722 -0.9750 -0.3264
  151MOL0     C20733   7.426  10.454   9.963  0.0989  0.4677  0.3785
  151MOL0     C20734   7.561  10.484   9.968 -0.0529 -0.6786 -0.5793
  151MOL0     C20735   7.661  10.392   9.954 -0.5457 -0.3518  0.2184
  151MOL0     O20736   7.799  10.396   9.974  0.1405  0.0627  0.7589
  151MOL0     C20737   7.848  10.507  10.045 -0.2807 -0.5540  0.7029
  151MOL0     C20738   7.985  10.465  10.091 -1.3910  0.2491  0.2541
  151MOL0     C20739   8.052  10.573  10.187 -0.8088  0.6369 -0.4871
  151MOL0     C20740   8.181  10.511  10.246 -1.3800  0.1681 -0.4450
  151MOL0     C20741   8.268  10.609  10.326  0.3293  0.5373 -0.9496
  151MOL0     C20742   8.410  10.548  10.365 -0.7065  0.3705  0.0119
  151MOL0     C20743   8.499  10.654  10.433 -1.1893 -0.2341 -0.4847
  151MOL0     C20744   8.617  10.582  10.477  0.4224 -0.3992  1.1632
  151MOL0    Cl20745   8.718  10.692  10.572  0.2385  0.2613  0.0742
  151MOL0     C20746   7.615  10.259   9.939 -0.2856  0.5603 -0.2165
  151MOL0     C20747   7.481  10.229   9.936  0.0354 -0.3570  0.0310
  151MOL0     O20748   7.213  10.438   9.764 -0.1333  0.0350  0.5684
  151MOL0     C20749   7.020  10.151   9.849 -0.2382 -0.6309 -0.3606
  151MOL0     C20750   6.897  10.088   9.810 -0.0623 -0.4423 -0.1683
  151MOL0     N20751   6.354   9.615  10.110 -0.3050  0.2960 -0.5618
  151MOL0     N20752   6.362   9.485  10.113  0.4937 -0.5567 -0.5560
  151MOL0     C20753   6.050   8.495   9.580  0.2937  0.0131  0.4297
  151MOL0     C20754   5.945   8.466   9.495  0.0794 -0.2870  0.6267
  151MOL0     C20755   5.742   8.318   9.089 -0.5240  0.0293 -0.1196
  151MOL0     C20756   5.761   8.290   8.958 -0.4108 -0.2161  1.0100
  151MOL0     C20757   5.658   8.238   8.877  0.8577 -0.0139  0.2792
  151MOL0     C20758   5.537   8.191   8.932  0.1475 -0.6633  0.0383
  151MOL0     O20759   5.448   8.140   8.840 -0.3227  0.0336 -0.5196
  151MOL0     C20760   5.340   8.069   8.896  0.0991  0.8087 -0.4897
  151MOL0     C20761   5.279   7.983   8.788  0.4439 -0.0650 -0.3588
  151MOL0     C20762   5.371   7.871   8.742  0.4546 -0.3824  0.7054
  151MOL0     C20763   5.376   7.758   8.841 -0.1691  0.4460 -0.3632
  151MOL0     C20764   5.258   7.676   8.831  0.0067  0.0606  0.0703
  151MOL0     C20765   5.169   7.598   8.824 -0.4287 -0.7744 -0.0072
  151MOL0     C20766   5.516   8.227   9.064 -0.2663  0.8494 -0.1167
  151MOL0     C20767   5.613   8.294   9.138 -0.3603  0.1418  0.2342
  151MOL0     C20768   5.572   8.336   9.279  0.8429 -0.8297  0.1762
  151MOL0     H20769   6.120   8.325   9.241  1.2332 -0.9371  0.6553
  151MOL0     H20770   6.322   8.409   9.407  0.5221 -0.9880 -2.5932
  151MOL0     H20771   6.334   8.627   9.791  2.7785 -1.8595 -0.4236
  151MOL0     H20772   6.212   8.689   9.683  1.6275  1.7141 -1.5689
  151MOL0     H20773   6.502   8.663   9.663 -1.0290 -4.2979 -1.0612
  151MOL0     H20774   6.409   8.670   9.510  0.9822  0.5766  0.1944
  151MOL0     H20775   6.481   8.894   9.586  1.8191 -2.0504  0.8066
  151MOL0     H20776   6.298   8.885   9.590 -0.3822  0.1967  1.2508
  151MOL0     H20777   6.300   8.866   9.834 -0.5745  2.4914  0.5621
  151MOL0     H20778   6.474   8.837   9.840  0.3151 -2.7438 -2.6581
  151MOL0     H20779   6.321   9.081   9.758 -2.2994 -0.7362  0.9263
  151MOL0     H20780   6.508   9.047   9.782  0.0956 -2.0536  1.8438
  151MOL0     H20781   6.279   9.029   9.991 -0.3458  1.1498  2.0944
  151MOL0     H20782   6.446   9.002  10.028  0.8831  0.3981 -1.4915
  151MOL0     H20783   6.488   9.249   9.964  0.6456  1.0456  1.1209
  151MOL0     H20784   6.398   9.210  10.115 -1.2546 -0.3765 -0.8390
  151MOL0     H20785   6.268   9.292   9.848  1.2458 -1.7049 -0.4038
  151MOL0     H20786   6.194   9.265  10.012 -1.4802  1.9614 -1.4988
  151MOL0     H20787   6.261   9.544   9.801 -1.4952  1.8459 -0.5582
  151MOL0     H20788   6.271   9.867  10.002 -1.8925  1.9284 -2.5786
  151MOL0     H20789   6.250   9.818   9.841 -0.1548  0.8598  1.0850
  151MOL0     H20790   6.509   9.846  10.002  2.8888  2.0181 -2.3252
  151MOL0     H20791   6.506   9.743   9.850  0.4383 -0.9018  0.7271
  151MOL0     H20792   6.457   9.937   9.726 -2.2358  0.9549  0.5588
  151MOL0     H20793   6.427  10.036   9.867 -0.6770  0.4376 -0.4227
  151MOL0     H20794   6.663  10.025   9.919  1.8266  0.9150 -0.7735
  151MOL0     H20795   6.689   9.895   9.808  0.2608  0.1781 -2.2411
  151MOL0     H20796   6.734  10.318   9.640  0.4892  0.6942  1.6942
  151MOL0     H20797   6.975  10.544   9.767  1.1273 -1.1671  0.4318
  151MOL0     H20798   6.840  10.520   9.642 -0.6905  2.1268  2.1363
  151MOL0     H20799   7.016  10.504   9.597 -0.6156 -2.1789 -0.1144
  151MOL0     H20800   7.350  10.530   9.967 -1.5096 -1.1252  3.6593
  151MOL0     H20801   7.578  10.585  10.006  1.7221 -1.9463  2.3243
  151MOL0     H20802   7.834  10.589   9.973 -2.2690 -0.7694  0.8041
  151MOL0     H20803   7.785  10.533  10.130  0.6518  1.5395  0.8256
  151MOL0     H20804   7.971  10.378  10.156 -0.7274  0.3187  0.5051
  151MOL0     H20805   8.050  10.437  10.008 -2.0060  3.6522 -1.5593
  151MOL0     H20806   7.982  10.599  10.267 -1.3568  2.1793 -1.4235
  151MOL0     H20807   8.095  10.660  10.136 -0.3089  0.8592  0.2900
  151MOL0     H20808   8.250  10.461  10.178  0.1472  0.4713  0.8264
  151MOL0     H20809   8.145  10.434  10.316  1.5794 -1.0557 -0.1320
  151MOL0     H20810   8.287  10.693  10.259 -1.0930  1.0005 -0.8171
  151MOL0     H20811   8.212  10.650  10.411 -0.2006  0.1060 -1.0830
  151MOL0     H20812   8.457  10.493  10.283  2.2610  3.3125 -0.4565
  151MOL0     H20813   8.404  10.471  10.442  1.7320 -1.7582 -1.7347
  151MOL0     H20814   8.450  10.696  10.521 -0.4238  0.8695 -0.5681
  151MOL0     H20815   8.525  10.733  10.361  0.0979  0.1814  0.3956
  151MOL0     H20816   8.682  10.543  10.399  1.5030 -0.1429  1.8959
  151MOL0     H20817   8.594  10.492  10.535  3.0360 -0.7001  1.8456
  151MOL0     H20818   7.691  10.183   9.921 -1.0261  0.1227 -1.6293
  151MOL0     H20819   7.446  10.128   9.916 -1.4136  0.2665 -0.7341
  151MOL0     H20820   7.095  10.108   9.914  1.4273  1.4784 -0.7702
  151MOL0     H20821   6.880   9.996   9.866  1.3047  0.4022  1.7518
  151MOL0     H20822   6.046   8.553   9.672 -0.6284  2.6116 -1.1540
  151MOL0     H20823   5.841   8.484   9.518 -0.8963 -2.6668 -1.4458
  151MOL0     H20824   5.856   8.317   8.913 -1.8739 -0.3374 -2.4462
  151MOL0     H20825   5.668   8.218   8.771 -1.6529  0.6713 -0.1600
  151MOL0     H20826   5.375   8.007   8.979 -1.2494 -0.0144 -0.5203
  151MOL0     H20827   5.264   8.142   8.927 -0.5602  1.0531 -2.5793
  151MOL0     H20828   5.248   8.045   8.703 -1.4882  1.4790  1.3844
  151MOL0     H20829   5.189   7.940   8.831  0.6101  1.2384  1.4204
  151MOL0     H20830   5.339   7.832   8.646 -1.2271  1.0247  0.6447
  151MOL0     H20831   5.476   7.898   8.726  1.2858  0.7233  5.9620
  151MOL0     H20832   5.400   7.782   8.945 -3.2677  1.8349  0.1649
  151MOL0     H20833   5.455   7.687   8.815 -2.2675 -2.7035  1.2632
  151MOL0     H20834   5.085   7.532   8.819 -2.0545  1.0620  1.7480
  151MOL0     H20835   5.419   8.218   9.112  0.0212 -0.9832  0.1838
  151MOL0     H20836   5.578   8.255   9.352  2.3900 -0.0407  0.9813
  151MOL0     H20837   5.633   8.416   9.322 -2.9404  2.6659 -0.3002
  151MOL0     H20838   5.471   8.376   9.269  0.8211 -0.9368 -0.0485
  152MOL0     O20839   4.945  10.229   9.500 -0.1633  0.0082  0.1183
  152MOL0     C20840   4.918  10.230   9.378 -0.3468  0.4989 -0.0985
  152MOL0     O20841   5.008  10.209   9.279 -0.6021  0.7842  0.0416
  152MOL0     C20842   5.138  10.173   9.313  0.7120  1.2465  0.8221
  152MOL0     C20843   5.166  10.032   9.321  0.0359 -0.2594  0.1558
  152MOL0     C20844   5.295   9.986   9.347 -0.2254  0.2294 -0.1704
  152MOL0     C20845   5.398  10.078   9.374  0.0396 -0.5172  0.4521
  152MOL0     O20846   5.528  10.047   9.416 -0.1731 -0.4442  0.0983
  152MOL0     C20847   5.581   9.919   9.395  1.0328  0.4253  1.0085
  152MOL0     C20848   5.568   9.839   9.520  0.0557  0.2588  0.0778
  152MOL0     C20849   5.654   9.707   9.513 -0.7071  0.5650 -0.1346
  152MOL0     C20850   5.639   9.622   9.642 -0.7024  0.5368 -0.1506
  152MOL0     C20851   5.710   9.490   9.625 -0.5007 -0.6914  0.4127
  152MOL0     C20852   5.723   9.405   9.752 -0.3042 -0.7506 -0.7936
  152MOL0     C20853   5.803   9.466   9.875  0.2295  0.8027 -0.0311
  152MOL0     C20854   5.950   9.505   9.838 -0.6107  0.1152 -0.2212
  152MOL0     N20855   5.960   9.647   9.801  0.9844  0.1656 -0.5340
  152MOL0     C20856   5.957   9.763   9.877  0.2048 -0.2506 -0.1772
  152MOL0     C20857   5.950   9.869   9.792 -0.4813  0.4097 -0.5200
  152MOL0     C20858   5.923  10.014   9.818  1.0394 -0.4010 -0.4333
  152MOL0     C20859   5.789  10.029   9.897  0.1276 -0.3717  0.1139
  152MOL0     C20860   5.738  10.178   9.896  0.3357  0.2281  0.1380
  152MOL0     C20861   5.606  10.185   9.986 -0.8187 -0.6366  0.4778
  152MOL0     O20862   5.636  10.133  10.124  0.1238  0.6047 -0.2398
  152MOL0     C20863   5.526  10.128  10.208 -0.4254 -0.2077 -0.2381
  152MOL0     C20864   5.544  10.081  10.336 -0.0058 -0.4186  0.2279
  152MOL0     C20865   5.451  10.080  10.441 -0.1573 -0.6608 -0.6869
  152MOL0     C20866   5.484  10.014  10.570 -0.2259 -0.1026  0.5688
  152MOL0     C20867   5.320  10.133  10.408  0.2325 -0.4929 -0.4079
  152MOL0     C20868   5.203  10.134  10.504 -0.1196 -0.2225  0.0351
  152MOL0     O20869   5.088  10.213  10.464  0.5461 -0.1055  0.1696
  152MOL0     C20870   4.986  10.219  10.555 -0.1391 -0.7397 -0.3539
  152MOL0     C20871   4.997  10.259  10.689 -0.7427 -0.7451 -0.5975
  152MOL0     C20872   4.895  10.275  10.780 -0.1265  0.3148 -0.4999
  152MOL0     C20873   4.771  10.227  10.752 -0.2524 -0.4406 -0.4336
  152MOL0     O20874   4.675  10.225  10.849 -0.2378 -0.1328 -0.2126
  152MOL0     C20875   4.542  10.235  10.804  0.2960  0.9173  0.5309
  152MOL0     C20876   4.451  10.243  10.928  0.1158 -0.1337  0.8965
  152MOL0     C20877   4.450  10.386  10.977  0.2792  0.2273 -0.0206
  152MOL0     C20878   4.377  10.489  10.873  0.2547 -0.0302 -0.7699
  152MOL0     C20879   4.343  10.628  10.943  0.5923  0.6572  0.3810
  152MOL0     C20880   4.469  10.708  10.996  1.2236 -0.9925  0.7699
  152MOL0     C20881   4.435  10.833  11.080  0.2154 -0.2552 -0.7454
  152MOL0     C20882   4.354  10.943  11.011  0.3615 -0.5564 -0.2388
  152MOL0    Cl20883   4.458  11.003  10.876 -0.0335  0.7737 -0.0402
  152MOL0     C20884   4.753  10.186  10.621 -0.0593 -0.1600  0.4109
  152MOL0     C20885   4.852  10.193  10.523  0.1052 -0.3098  0.0787
  152MOL0     O20886   5.213  10.075  10.612  0.6005 -0.4877 -0.1112
  152MOL0     C20887   5.294  10.171  10.279 -0.4707  0.0209 -0.0356
  152MOL0     C20888   5.395  10.172  10.180  0.2314 -0.2632 -0.3130
  152MOL0     N20889   5.978   9.822   9.665 -0.2262  0.2618  0.4421
  152MOL0     N20890   5.978   9.692   9.676  0.2644 -1.1331  0.1722
  152MOL0     C20891   5.375  10.215   9.360 -0.6252  0.9494 -0.3380
  152MOL0     C20892   5.244  10.258   9.335 -0.3924 -0.5132 -0.0546
  152MOL0     C20893   4.772  10.240   9.342  0.2977 -0.0216  0.3225
  152MOL0     C20894   4.732  10.268   9.204 -0.3635 -0.6625 -0.1996
  152MOL0     C20895   4.599  10.285   9.156  0.4979 -0.2392  0.3819
  152MOL0     C20896   4.501  10.283   9.258 -0.8251  0.1542 -0.1841
  152MOL0     O20897   4.368  10.301   9.234  0.3804  0.4367  0.3540
  152MOL0     C20898   4.252  10.240   9.298  0.6117 -0.0517  0.4287
  152MOL0     C20899   4.219  10.112   9.233  0.6102  0.5845  0.5578
  152MOL0     C20900   4.107  10.034   9.302  0.3948  0.1382  0.1600
  152MOL0     C20901   3.991  10.131   9.327  0.3821 -0.6001  0.3538
  152MOL0     C20902   3.923  10.190   9.214 -0.4649  0.1825  1.0692
  152MOL0     C20903   3.860  10.249   9.124 -0.3674  0.4422 -0.4406
  152MOL0     C20904   4.544  10.248   9.386 -0.2932 -1.4529 -0.5040
  152MOL0     C20905   4.671  10.217   9.438 -0.5404  0.3088  0.4863
  152MOL0     C20906   4.686  10.154   9.577 -0.0122 -0.3326  0.6864
  152MOL0     H20907   5.086   9.960   9.304  0.0983 -0.3095  0.0704
  152MOL0     H20908   5.319   9.880   9.341 -0.5370  0.2066 -1.1880
  152MOL0     H20909   5.688   9.920   9.371  1.3221  2.7097  2.1639
  152MOL0     H20910   5.527   9.852   9.326  1.8913 -1.2052  1.8653
  152MOL0     H20911   5.600   9.907   9.599 -0.5744  1.7549 -0.9012
  152MOL0     H20912   5.463   9.816   9.541  0.3754  0.3056  1.8196
  152MOL0     H20913   5.629   9.639   9.431 -1.4592  0.9821 -0.2653
  152MOL0     H20914   5.759   9.735   9.497 -0.6644 -1.4050 -5.2045
  152MOL0     H20915   5.691   9.668   9.726  0.1998 -0.2175 -0.2700
  152MOL0     H20916   5.537   9.609   9.680  0.8136 -4.2625  3.2466
  152MOL0     H20917   5.809   9.515   9.586 -1.5546  1.6279 -1.0170
  152MOL0     H20918   5.665   9.429   9.547 -1.8581 -0.8948  1.3162
  152MOL0     H20919   5.617   9.390   9.775 -0.4187 -0.2440 -0.9976
  152MOL0     H20920   5.766   9.307   9.729  0.9527 -0.2669 -0.5773
  152MOL0     H20921   5.798   9.384   9.947 -2.4171  1.5555  0.7673
  152MOL0     H20922   5.748   9.547   9.924 -2.1036 -0.0775 -1.0288
  152MOL0     H20923   6.012   9.484   9.926 -1.5765 -1.8083  0.0415
  152MOL0     H20924   5.990   9.437   9.762  2.4674  4.3459 -2.8312
  152MOL0     H20925   5.939   9.769   9.984  2.6717  2.4827  0.2250
  152MOL0     H20926   5.921  10.069   9.724 -1.0904 -0.7119 -0.6386
  152MOL0     H20927   6.006  10.060   9.871 -0.1942  2.1407 -0.5441
  152MOL0     H20928   5.715   9.976   9.837  0.5631  0.7645 -1.5137
  152MOL0     H20929   5.799   9.999  10.001 -1.4762 -0.9666  0.1231
  152MOL0     H20930   5.815  10.238   9.947 -0.4112  0.2949  1.2256
  152MOL0     H20931   5.720  10.219   9.796 -1.9811 -0.0790  0.3871
  152MOL0     H20932   5.572  10.289   9.980 -0.2885 -0.4935 -0.0150
  152MOL0     H20933   5.532  10.120   9.939 -1.3214 -1.1788  1.9312
  152MOL0     H20934   5.645  10.046  10.356 -0.4816 -1.3160  1.2115
  152MOL0     H20935   5.453  10.079  10.652 -2.5309 -1.7467  1.0905
  152MOL0     H20936   5.585   9.972  10.569  0.2420  0.8794 -2.0261
  152MOL0     H20937   5.416   9.928  10.565 -0.3095  0.0409 -1.4609
  152MOL0     H20938   5.096  10.284  10.728 -0.3641 -2.5145 -0.3513
  152MOL0     H20939   4.937  10.289  10.880  0.4803 -1.2096 -0.5196
  152MOL0     H20940   4.533  10.320  10.736  0.6504  0.1794 -0.4550
  152MOL0     H20941   4.515  10.144  10.750 -0.4008  0.7200  1.1888
  152MOL0     H20942   4.354  10.199  10.902  0.8788 -1.9796  0.9730
  152MOL0     H20943   4.490  10.175  11.005  0.9494 -2.3190 -1.3370
  152MOL0     H20944   4.556  10.411  10.989  1.6714 -3.3428 -3.0544
  152MOL0     H20945   4.397  10.381  11.072  1.2805  1.1469  0.6157
  152MOL0     H20946   4.286  10.436  10.843  0.8558 -0.4859 -1.8564
  152MOL0     H20947   4.429  10.503  10.778 -0.2152  0.4476 -0.9552
  152MOL0     H20948   4.287  10.694  10.877  2.7008  1.0745 -1.1125
  152MOL0     H20949   4.286  10.607  11.034  3.0614 -0.2560  1.8154
  152MOL0     H20950   4.531  10.733  10.909 -0.5940  2.4730  0.3095
  152MOL0     H20951   4.516  10.644  11.071 -1.2326  0.1511  3.4999
  152MOL0     H20952   4.537  10.869  11.101  0.9784 -0.3601 -3.8129
  152MOL0     H20953   4.388  10.799  11.172  2.7643  0.4933  0.9473
  152MOL0     H20954   4.338  11.016  11.091  0.2862 -1.5956  0.7103
  152MOL0     H20955   4.254  10.912  10.980 -0.7907  1.8124  0.8137
  152MOL0     H20956   4.656  10.146  10.592 -0.0135  1.0069 -1.4843
  152MOL0     H20957   4.831  10.169  10.419 -1.9319  0.9254  0.1374
  152MOL0     H20958   5.193  10.198  10.249  0.2193  3.7593  0.5304
  152MOL0     H20959   5.379  10.213  10.081  0.7421  0.8181  0.0439
  152MOL0     H20960   5.452  10.292   9.366  0.3397 -0.1071  2.1266
  152MOL0     H20961   5.230  10.364   9.316  1.6193 -0.0176  0.9078
  152MOL0     H20962   4.813  10.269   9.132 -0.6206  0.9709 -0.4953
  152MOL0     H20963   4.570  10.308   9.054  1.8384  0.1028  0.0562
  152MOL0     H20964   4.264  10.229   9.406  2.7603 -0.0021  0.2453
  152MOL0     H20965   4.168  10.308   9.276 -0.3062 -1.6368 -1.2227
  152MOL0     H20966   4.307  10.048   9.222  0.4922  0.7520 -2.0421
  152MOL0     H20967   4.195  10.132   9.128  0.7811  3.8535  1.0171
  152MOL0     H20968   4.079   9.946   9.243 -0.9948  1.0571 -0.6092
  152MOL0     H20969   4.148   9.998   9.396 -0.3892 -0.4540  0.2905
  152MOL0     H20970   4.023  10.204   9.401 -1.5400 -1.7288  2.4225
  152MOL0     H20971   3.908  10.075   9.370 -0.3821  0.4292  0.2588
  152MOL0     H20972   3.801  10.289   9.044 -0.1587  1.9765  0.1420
  152MOL0     H20973   4.457  10.240   9.451 -0.0766  3.8694  0.8726
  152MOL0     H20974   4.736  10.219   9.650 -1.5767 -0.0477  1.5514
  152MOL0     H20975   4.587  10.119   9.605 -1.0176  1.6502 -0.2165
  152MOL0     H20976   4.756  10.070   9.568  0.8934  0.4050  0.6616
  153MOL0     O20977   0.909   1.582   2.817 -0.0632 -0.4140  0.4256
  153MOL0     C20978   0.796   1.523   2.801 -0.4458  0.2495  0.5248
  153MOL0     O20979   0.764   1.438   2.696  0.0315  0.1855 -0.3666
  153MOL0     C20980   0.861   1.422   2.603 -0.3990 -0.2129  0.0233
  153MOL0     C20981   0.981   1.355   2.619 -0.7159 -0.1467  0.2813
  153MOL0     C20982   1.076   1.349   2.518  0.2534 -0.3409 -0.0400
  153MOL0     C20983   1.042   1.388   2.389 -0.0338  0.0325 -0.3818
  153MOL0     O20984   1.129   1.385   2.293 -0.1513  0.9017 -0.1404
  153MOL0     C20985   1.132   1.255   2.234 -0.7040  0.2765  0.0307
  153MOL0     C20986   1.239   1.259   2.117 -0.0661 -0.4064  0.6642
  153MOL0     C20987   1.262   1.117   2.066  1.3218  0.0285 -0.1029
  153MOL0     C20988   1.355   1.122   1.949 -0.0031 -0.1619  0.3077
  153MOL0     C20989   1.405   0.987   1.902 -0.8156 -0.2486 -0.2267
  153MOL0     C20990   1.510   0.935   1.995  0.0162  0.0144 -0.5015
  153MOL0     C20991   1.568   0.801   1.952  0.6544  0.5632  0.7041
  153MOL0     C20992   1.632   0.810   1.804 -0.4096  0.3161 -1.2760
  153MOL0     N20993   1.742   0.907   1.796 -0.3959 -0.5391  0.8696
  153MOL0     C20994   1.831   0.935   1.892 -0.1893  0.0566  0.4642
  153MOL0     C20995   1.934   1.000   1.832 -1.1019  0.2102 -0.0085
  153MOL0     C20996   2.066   1.047   1.885 -0.8754  0.6532 -0.7349
  153MOL0     C20997   2.163   0.944   1.947  0.0863 -0.0739  0.0810
  153MOL0     C20998   2.205   0.833   1.845 -0.1821  0.0408 -0.8478
  153MOL0     C20999   2.297   0.734   1.915  0.0169  0.1731 -0.0121
  153MOL0     O21000   2.413   0.810   1.943  0.3412  0.6132 -0.4639
  153MOL0     C21001   2.509   0.758   2.036  0.3672  0.1930  0.7318
  153MOL0     C21002   2.611   0.845   2.074  0.0547 -0.2596 -0.1980
  153MOL0     C21003   2.711   0.808   2.162  0.4034  1.0072 -0.8784
  153MOL0     C21004   2.801   0.915   2.191 -0.8958 -1.2873 -0.8071
  153MOL0     C21005   2.714   0.674   2.222  0.6288 -0.5658  0.6304
  153MOL0     C21006   2.819   0.625   2.311  0.7237 -0.1940 -0.4891
  153MOL0     O21007   2.792   0.529   2.405  0.4241 -0.0010  0.1123
  153MOL0     C21008   2.900   0.511   2.493 -0.6518 -0.1721 -0.5846
  153MOL0     C21009   2.900   0.584   2.608  0.1296  0.1622 -0.7905
  153MOL0     C21010   3.011   0.582   2.698  0.0818  0.8232  0.5181
  153MOL0     C21011   3.124   0.505   2.665  0.3500  0.7753  0.9238
  153MOL0     O21012   3.230   0.525   2.749 -0.2038  0.5236 -0.1067
  153MOL0     C21013   3.361   0.469   2.720 -0.4653 -0.8007  0.4137
  153MOL0     C21014   3.436   0.584   2.663  0.1917  0.3912  0.4738
  153MOL0     C21015   3.455   0.698   2.768  0.6823  0.2460 -1.3741
  153MOL0     C21016   3.602   0.717   2.833  0.1731  0.2011  0.5343
  153MOL0     C21017   3.598   0.823   2.941  0.4040  0.2484 -0.3450
  153MOL0     C21018   3.731   0.825   3.022  0.2170  0.0054  0.2782
  153MOL0     C21019   3.741   0.953   3.110  0.4579  0.2768  0.2846
  153MOL0     C21020   3.870   0.964   3.189  0.2062  0.3797  0.9201
  153MOL0    Cl21021   4.025   0.967   3.093  0.1685  0.2034  0.0884
  153MOL0     C21022   3.129   0.433   2.542  0.4627  0.1169  0.6400
  153MOL0     C21023   3.012   0.432   2.461  0.7960  0.4892 -0.5815
  153MOL0     O21024   2.927   0.677   2.296 -0.2904 -0.8752 -0.3892
  153MOL0     C21025   2.600   0.593   2.196  0.4189 -0.0377  0.0772
  153MOL0     C21026   2.493   0.640   2.115  0.2144  0.2144 -0.7104
  153MOL0     N21027   1.901   1.015   1.705 -0.2117  0.1898  0.0750
  153MOL0     N21028   1.790   0.954   1.680  0.4362  0.7511 -0.3044
  153MOL0     C21029   0.920   1.452   2.371  0.7158 -0.2227 -0.2898
  153MOL0     C21030   0.829   1.473   2.479 -0.1976  0.2031 -0.2372
  153MOL0     C21031   0.697   1.543   2.905 -0.1452 -0.6570  0.1124
  153MOL0     C21032   0.737   1.559   3.036  0.2878 -0.5792  0.2248
  153MOL0     C21033   0.648   1.605   3.138 -0.4577 -0.5284  0.5677
  153MOL0     C21034   0.509   1.619   3.112  0.4823 -0.3316  0.7017
  153MOL0     O21035   0.412   1.667   3.197  0.0134  0.4581  0.7878
  153MOL0     C21036   0.446   1.743   3.312 -0.1929 -0.6386  0.3029
  153MOL0     C21037   0.456   1.649   3.440 -0.2672  0.1564  0.4480
  153MOL0     C21038   0.426   1.719   3.574  0.4847 -0.8218 -0.6473
  153MOL0     C21039   0.421   1.623   3.694  0.2806  0.8136  0.2145
  153MOL0     C21040   0.301   1.541   3.670  0.7408  0.1007 -0.3173
  153MOL0     C21041   0.208   1.462   3.658  0.4380  0.7691 -0.0391
  153MOL0     C21042   0.470   1.609   2.979  0.1534  0.0620  0.2497
  153MOL0     C21043   0.561   1.576   2.875 -0.4294 -0.1459  0.1248
  153MOL0     C21044   0.514   1.605   2.735 -0.1793  0.0493  1.0346
  153MOL0     H21045   1.001   1.316   2.719 -1.4437 -1.2173  0.0271
  153MOL0     H21046   1.171   1.299   2.534  0.0393  0.0717  2.9814
  153MOL0     H21047   1.040   1.220   2.187  0.5362 -0.5925 -1.8585
  153MOL0     H21048   1.171   1.190   2.313  0.1741  0.5265 -0.1844
  153MOL0     H21049   1.195   1.322   2.039 -2.8901 -3.2642 -0.2819
  153MOL0     H21050   1.335   1.287   2.160  1.0966 -2.1400 -0.7026
  153MOL0     H21051   1.302   1.058   2.149 -1.4862  0.3281  1.6020
  153MOL0     H21052   1.168   1.081   2.022 -0.5512  3.9519  0.1558
  153MOL0     H21053   1.311   1.170   1.861  2.7187  0.8065 -0.6330
  153MOL0     H21054   1.444   1.178   1.981 -1.3959  1.6139  1.3077
  153MOL0     H21055   1.429   0.996   1.796 -1.5127 -3.4426 -0.7667
  153MOL0     H21056   1.325   0.911   1.906 -1.0934  0.0749  0.7291
  153MOL0     H21057   1.595   1.003   2.007  1.6569 -1.6451 -2.0486
  153MOL0     H21058   1.472   0.927   2.097  2.3012  2.1817  0.6289
  153MOL0     H21059   1.479   0.737   1.951  0.4788  0.7710  1.7318
  153MOL0     H21060   1.649   0.765   2.016  1.5367 -0.2106 -0.7842
  153MOL0     H21061   1.676   0.711   1.784  1.8523  1.0587 -0.3574
  153MOL0     H21062   1.547   0.825   1.738 -2.4991 -1.3315  0.8761
  153MOL0     H21063   1.811   0.908   1.995 -0.0872  2.8193  1.2860
  153MOL0     H21064   2.041   1.122   1.961  0.1609 -0.5926  0.9242
  153MOL0     H21065   2.125   1.084   1.800  0.3593 -2.4050 -1.3541
  153MOL0     H21066   2.248   1.008   1.971  1.1239 -0.7022 -1.6945
  153MOL0     H21067   2.121   0.896   2.036 -2.6430 -0.4816 -1.3032
  153MOL0     H21068   2.115   0.789   1.800 -0.9461  0.6703  0.0383
  153MOL0     H21069   2.263   0.886   1.769 -0.9203  1.5576 -0.3914
  153MOL0     H21070   2.263   0.704   2.014 -0.1550  0.1400 -0.0797
  153MOL0     H21071   2.333   0.649   1.857  0.4921 -1.5117  2.5945
  153MOL0     H21072   2.615   0.934   2.011 -0.7572  2.0929  2.8201
  153MOL0     H21073   2.804   0.938   2.298  0.2505 -0.2463 -1.0397
  153MOL0     H21074   2.782   1.015   2.151  1.8442 -0.6643 -0.7413
  153MOL0     H21075   2.899   0.885   2.154  0.3330  1.1896  0.1968
  153MOL0     H21076   2.812   0.646   2.624 -0.6686 -1.5215  1.9630
  153MOL0     H21077   3.009   0.643   2.788 -1.2991 -0.1012  1.1572
  153MOL0     H21078   3.403   0.435   2.816  1.9364  0.0006 -0.2833
  153MOL0     H21079   3.356   0.385   2.650  2.8297 -1.6061  1.0024
  153MOL0     H21080   3.527   0.537   2.626  1.2341  0.5044  2.7195
  153MOL0     H21081   3.390   0.618   2.570 -3.6342 -3.9302  0.3921
  153MOL0     H21082   3.380   0.703   2.847  4.0458  1.5876  2.0559
  153MOL0     H21083   3.441   0.792   2.714 -1.2739 -0.6318 -2.5019
  153MOL0     H21084   3.672   0.742   2.752 -1.0852  3.8329  0.4043
  153MOL0     H21085   3.631   0.621   2.877  1.5653  0.5906  0.5291
  153MOL0     H21086   3.564   0.920   2.903  2.5616  1.6359  1.0587
  153MOL0     H21087   3.528   0.796   3.020  0.3142  1.3083 -0.0547
  153MOL0     H21088   3.814   0.821   2.951  1.2346  0.2061  1.4202
  153MOL0     H21089   3.740   0.741   3.090  0.1029  1.7890  2.6278
  153MOL0     H21090   3.661   0.950   3.184 -0.2925  5.1273  0.0300
  153MOL0     H21091   3.735   1.043   3.047 -0.5064  0.4192  0.5706
  153MOL0     H21092   3.875   0.881   3.259 -1.2961  0.1163  0.7366
  153MOL0     H21093   3.848   1.049   3.255  0.0137 -1.5259  3.4618
  153MOL0     H21094   3.214   0.384   2.496 -1.3434 -2.5563 -0.1164
  153MOL0     H21095   3.007   0.378   2.367 -2.0750  0.1971 -0.3417
  153MOL0     H21096   2.582   0.503   2.254  0.1968  1.1866  2.0305
  153MOL0     H21097   2.409   0.573   2.103  2.5781 -2.9315 -1.1273
  153MOL0     H21098   0.892   1.488   2.272 -0.3012  1.6773  0.6369
  153MOL0     H21099   0.737   1.529   2.471  0.1324  0.8107  0.1067
  153MOL0     H21100   0.845   1.557   3.047  0.3849  1.4124  0.0441
  153MOL0     H21101   0.683   1.629   3.238  0.7630  0.2538 -0.0265
  153MOL0     H21102   0.544   1.792   3.306 -2.1071  3.4112 -1.3022
  153MOL0     H21103   0.363   1.814   3.321 -2.2273 -2.6906 -1.2295
  153MOL0     H21104   0.550   1.594   3.447  0.4169  1.4578  2.5214
  153MOL0     H21105   0.384   1.572   3.410  1.8425 -0.7722 -2.7143
  153MOL0     H21106   0.515   1.782   3.588  1.0807 -1.9374  0.8659
  153MOL0     H21107   0.332   1.775   3.570  1.0774  0.3098  0.4629
  153MOL0     H21108   0.399   1.699   3.770 -2.0619  3.9882 -3.2694
  153MOL0     H21109   0.516   1.575   3.722  1.4465  3.1692  0.5887
  153MOL0     H21110   0.124   1.395   3.652  1.5567 -0.5119 -2.9983
  153MOL0     H21111   0.369   1.632   2.946 -0.0873  2.4094  2.3396
  153MOL0     H21112   0.413   1.646   2.731 -0.1394  0.1088 -3.2781
  153MOL0     H21113   0.574   1.683   2.688  1.5218 -0.6894  1.8789
  153MOL0     H21114   0.519   1.515   2.674 -2.1347 -1.0962  2.4459
  154MOL0     O21115   3.385   6.673   8.432  0.3211 -0.1550 -0.2366
  154MOL0     C21116   3.400   6.556   8.457 -0.4811 -0.2416  0.0689
  154MOL0     O21117   3.443   6.468   8.362 -0.1432 -0.2717 -0.1709
  154MOL0     C21118   3.446   6.519   8.237  0.6636 -0.4860  0.5868
  154MOL0     C21119   3.360   6.462   8.138  0.1227 -0.8118  0.5247
  154MOL0     C21120   3.353   6.503   8.006  0.4717  0.6650  0.1223
  154MOL0     C21121   3.445   6.595   7.956 -0.5303 -0.5239  0.9478
  154MOL0     O21122   3.467   6.620   7.823  0.4016  0.9699 -0.3341
  154MOL0     C21123   3.348   6.647   7.750 -0.6636 -0.1974 -0.0484
  154MOL0     C21124   3.298   6.533   7.659 -0.4270 -0.4129 -0.2211
  154MOL0     C21125   3.404   6.475   7.567  0.2832  0.3646 -0.2920
  154MOL0     C21126   3.439   6.574   7.444  0.3066  0.3330 -0.9284
  154MOL0     C21127   3.473   6.495   7.322 -0.8547 -0.4919  0.0241
  154MOL0     C21128   3.609   6.416   7.339  0.8290  0.6366  0.9190
  154MOL0     C21129   3.718   6.443   7.230 -0.2923 -1.1171  0.0640
  154MOL0     C21130   3.836   6.355   7.265  0.2600  0.1489 -0.2407
  154MOL0     N21131   3.935   6.351   7.153  0.7492  0.0500 -0.5671
  154MOL0     C21132   3.948   6.247   7.060 -0.3458 -0.2763 -0.4783
  154MOL0     C21133   4.060   6.268   6.986  0.4948 -0.4690 -0.0836
  154MOL0     C21134   4.095   6.179   6.869  0.0385  0.4688 -0.1960
  154MOL0     C21135   4.187   6.068   6.919  0.2461 -0.1623 -0.9089
  154MOL0     C21136   4.320   6.116   6.983 -0.2160 -0.0249 -0.5974
  154MOL0     C21137   4.411   6.193   6.883  0.4457  0.9203 -0.2110
  154MOL0     O21138   4.536   6.234   6.937 -0.8435  0.2278  0.2111
  154MOL0     C21139   4.638   6.225   6.851 -0.2957  0.1564  0.6930
  154MOL0     C21140   4.627   6.267   6.711 -0.1905 -0.5081 -0.5959
  154MOL0     C21141   4.744   6.280   6.636 -0.2230  0.0064 -1.0051
  154MOL0     C21142   4.719   6.340   6.495 -0.0575  1.3026 -0.5572
  154MOL0     C21143   4.872   6.239   6.686 -0.3146 -0.0192 -0.3173
  154MOL0     C21144   4.995   6.235   6.609 -0.0145  0.6267  0.4501
  154MOL0     O21145   5.110   6.180   6.664  0.8451 -0.0300 -0.0535
  154MOL0     C21146   5.202   6.117   6.588  0.1259  0.1206  0.2573
  154MOL0     C21147   5.199   5.998   6.520  1.2017  0.3332 -0.1414
  154MOL0     C21148   5.316   5.949   6.465  0.4849  0.2681 -0.5679
  154MOL0     C21149   5.440   6.011   6.474 -0.1080  0.0769  0.1144
  154MOL0     O21150   5.544   5.952   6.409  0.7305  0.1468  0.0261
  154MOL0     C21151   5.674   6.015   6.397 -0.5265 -0.4847  0.1596
  154MOL0     C21152   5.756   5.958   6.513  0.8591  0.4301 -0.8180
  154MOL0     C21153   5.901   6.006   6.514  0.0378  0.0502  0.0509
  154MOL0     C21154   5.921   6.123   6.616  0.2571  0.1949  1.0180
  154MOL0     C21155   6.069   6.164   6.615 -0.3724 -0.3122  0.2718
  154MOL0     C21156   6.122   6.245   6.501  0.6145 -0.2456 -0.4798
  154MOL0     C21157   6.268   6.294   6.534  0.5852 -0.1138  0.6739
  154MOL0     C21158   6.335   6.344   6.402  0.7943  0.0016 -1.0185
  154MOL0    Cl21159   6.511   6.375   6.423  0.1049 -0.0151  0.1573
  154MOL0     C21160   5.440   6.132   6.539 -0.1844  1.2544 -0.8339
  154MOL0     C21161   5.328   6.181   6.601  0.5614 -0.7750 -0.3524
  154MOL0     O21162   4.991   6.254   6.493 -0.3673  0.3958  0.7689
  154MOL0     C21163   4.879   6.194   6.824  0.4886 -0.3442 -0.1774
  154MOL0     C21164   4.770   6.191   6.902  0.6048 -0.4047  0.3176
  154MOL0     N21165   4.119   6.384   7.035  0.3259  0.3543  0.8765
  154MOL0     N21166   4.042   6.430   7.131  0.5484  1.0577  0.5314
  154MOL0     C21167   3.532   6.653   8.049  0.1599  0.3150 -0.0549
  154MOL0     C21168   3.534   6.608   8.182 -0.0172 -1.1939 -0.3410
  154MOL0     C21169   3.368   6.505   8.594  0.1739 -0.2374  0.3496
  154MOL0     C21170   3.408   6.375   8.620 -0.1963 -0.5832 -0.2671
  154MOL0     C21171   3.381   6.309   8.740 -0.2332  0.8458  0.2409
  154MOL0     C21172   3.294   6.375   8.835 -0.4531 -0.6358  1.1656
  154MOL0     O21173   3.247   6.324   8.953 -0.4731  0.8961  0.6140
  154MOL0     C21174   3.264   6.181   8.966 -1.1632  0.9283 -0.3129
  154MOL0     C21175   3.155   6.097   8.897 -0.3189 -0.6987  0.0231
  154MOL0     C21176   3.022   6.103   8.971  0.2805  0.2811  1.0663
  154MOL0     C21177   2.930   6.015   8.894  0.3956  0.1589  1.0056
  154MOL0     C21178   2.799   5.994   8.961 -0.7783 -0.1232  1.0126
  154MOL0     C21179   2.691   5.965   9.010 -0.1269 -0.5280  0.6913
  154MOL0     C21180   3.242   6.502   8.803 -0.7306  0.3155 -0.1902
  154MOL0     C21181   3.283   6.569   8.691 -0.0888  0.5653  0.2732
  154MOL0     C21182   3.229   6.709   8.671  0.3167  0.1187 -0.3761
  154MOL0     H21183   3.292   6.381   8.162  3.2512 -2.7889  3.6436
  154MOL0     H21184   3.284   6.455   7.937 -1.3239  1.1182  1.5225
  154MOL0     H21185   3.370   6.734   7.687  0.0397 -1.4160 -1.5633
  154MOL0     H21186   3.268   6.686   7.813 -0.3738 -1.4234  1.1176
  154MOL0     H21187   3.248   6.451   7.711  0.0343  0.1640  1.1612
  154MOL0     H21188   3.219   6.583   7.601  1.1771 -1.2128 -3.2997
  154MOL0     H21189   3.497   6.454   7.621  0.3129  0.7904 -0.1742
  154MOL0     H21190   3.369   6.378   7.530  1.9068 -0.9323  1.3742
  154MOL0     H21191   3.339   6.613   7.421 -0.2477 -1.8443 -2.5064
  154MOL0     H21192   3.518   6.647   7.466  0.0846 -0.0303  1.2800
  154MOL0     H21193   3.495   6.563   7.240  2.0529 -1.4628 -0.1119
  154MOL0     H21194   3.395   6.421   7.301 -1.9029  0.1770  1.3588
  154MOL0     H21195   3.641   6.443   7.440 -4.3696  0.5646  2.8842
  154MOL0     H21196   3.583   6.309   7.342  2.7699  0.1019  0.0592
  154MOL0     H21197   3.753   6.547   7.233  1.0953 -1.4573 -2.2408
  154MOL0     H21198   3.687   6.431   7.126 -0.5170  2.3656 -0.3963
  154MOL0     H21199   3.872   6.395   7.361 -1.8260  0.3111  0.5323
  154MOL0     H21200   3.795   6.258   7.292  1.1046  0.2518  1.5384
  154MOL0     H21201   3.873   6.168   7.056 -1.4532  0.7687 -1.1881
  154MOL0     H21202   4.145   6.230   6.786  2.5716  0.2620  1.1017
  154MOL0     H21203   4.011   6.121   6.830  0.7328 -2.0209  1.7236
  154MOL0     H21204   4.139   6.010   6.998  0.2570 -0.1995 -0.9296
  154MOL0     H21205   4.203   5.992   6.841 -2.1387 -3.0248  1.1647
  154MOL0     H21206   4.294   6.192   7.057  1.4215  0.8288 -0.8626
  154MOL0     H21207   4.380   6.048   7.043 -0.1189  2.4190  2.3468
  154MOL0     H21208   4.420   6.141   6.787 -1.7322 -0.2998  0.1733
  154MOL0     H21209   4.359   6.286   6.860 -0.0369  0.0954 -2.7812
  154MOL0     H21210   4.529   6.304   6.683  0.4693  0.3785 -1.8069
  154MOL0     H21211   4.619   6.381   6.478 -1.1871 -1.4856 -1.2408
  154MOL0     H21212   4.740   6.269   6.414  0.3918 -0.0912  0.7310
  154MOL0     H21213   4.796   6.417   6.494  1.3672 -0.0482 -1.9557
  154MOL0     H21214   5.109   5.943   6.493  2.1574 -0.2720 -2.3687
  154MOL0     H21215   5.315   5.859   6.405  0.2890  0.4761 -0.8794
  154MOL0     H21216   5.734   5.985   6.311 -1.1146 -1.6520  0.1267
  154MOL0     H21217   5.688   6.123   6.406  0.6121 -0.4323 -1.7109
  154MOL0     H21218   5.708   5.973   6.610 -0.8328 -3.4943 -0.8226
  154MOL0     H21219   5.754   5.848   6.520 -1.1719  0.4856  0.6681
  154MOL0     H21220   5.924   6.030   6.410 -4.3360  3.2977 -0.4394
  154MOL0     H21221   5.966   5.921   6.539 -1.6088 -1.8391 -1.7148
  154MOL0     H21222   5.889   6.091   6.716 -0.2652  1.1097  1.1592
  154MOL0     H21223   5.857   6.206   6.583 -3.2360 -1.4144  3.1874
  154MOL0     H21224   6.080   6.226   6.705 -1.9077 -1.1922  1.1313
  154MOL0     H21225   6.135   6.077   6.620  1.3089  0.9601  3.3012
  154MOL0     H21226   6.053   6.323   6.469  0.8147  1.0422  1.9436
  154MOL0     H21227   6.124   6.178   6.415 -3.2917 -1.8635  0.4868
  154MOL0     H21228   6.330   6.211   6.570  1.8696 -0.3788 -1.8923
  154MOL0     H21229   6.272   6.378   6.603 -0.6754  2.4952 -2.1825
  154MOL0     H21230   6.282   6.435   6.371 -2.2262 -0.6664  1.5851
  154MOL0     H21231   6.335   6.257   6.336  2.9870 -2.6932  2.1982
  154MOL0     H21232   5.535   6.182   6.554  1.9587 -2.1064 -1.9902
  154MOL0     H21233   5.326   6.276   6.652  1.4724 -1.8557  1.8307
  154MOL0     H21234   4.975   6.163   6.866  1.2804 -2.4378 -3.1530
  154MOL0     H21235   4.764   6.151   7.002 -2.1221  0.2626  0.5187
  154MOL0     H21236   3.607   6.722   8.010  0.2102 -1.1282 -2.7696
  154MOL0     H21237   3.612   6.648   8.246  0.4269 -1.0895 -0.9441
  154MOL0     H21238   3.449   6.309   8.544  2.5200  0.1547  0.4680
  154MOL0     H21239   3.399   6.205   8.764  0.6174  1.2349  1.4107
  154MOL0     H21240   3.368   6.150   8.946 -1.2202  0.0616  0.6727
  154MOL0     H21241   3.254   6.151   9.070  0.4533  2.8946  0.4856
  154MOL0     H21242   3.187   5.993   8.885 -0.5827 -1.3435  3.6748
  154MOL0     H21243   3.144   6.131   8.794  0.9387  1.4683  0.5365
  154MOL0     H21244   3.027   6.060   9.072 -1.8408  2.0608  2.0233
  154MOL0     H21245   2.986   6.206   8.979 -0.2526  0.2810 -0.8713
  154MOL0     H21246   2.976   5.916   8.883 -2.5535 -1.2176  0.1589
  154MOL0     H21247   2.931   6.059   8.794 -1.8786 -0.0708  0.8204
  154MOL0     H21248   2.591   5.930   9.030 -0.3719  0.8575  2.1612
  154MOL0     H21249   3.166   6.534   8.874  0.1164 -0.6369  1.2072
  154MOL0     H21250   3.315   6.777   8.678  0.4332 -0.0428 -0.2319
  154MOL0     H21251   3.186   6.717   8.571 -0.7607 -0.8247 -0.0001
  154MOL0     H21252   3.161   6.742   8.750  1.3557  4.0855 -0.8936
  155MOL0     O21253  10.885   6.938   6.126 -0.4003  0.0973  0.8071
  155MOL0     C21254  10.790   6.998   6.077  0.0878  0.1204 -0.8104
  155MOL0     O21255  10.771   7.036   5.944  0.4026  0.0699 -0.7114
  155MOL0     C21256  10.875   7.012   5.869 -0.0653  0.0489  0.2412
  155MOL0     C21257  10.984   7.101   5.850 -0.2616 -0.0254 -0.5181
  155MOL0     C21258  11.101   7.053   5.784  1.6232  0.6234  0.7247
  155MOL0     C21259  11.103   6.928   5.709 -0.1686 -0.8262 -0.8987
  155MOL0     O21260  11.205   6.883   5.627 -0.1213  0.6939  0.4209
  155MOL0     C21261  11.340   6.936   5.632 -0.5364  1.0910 -0.5757
  155MOL0     C21262  11.410   6.914   5.771 -0.2284  0.0645  0.9906
  155MOL0     C21263  11.555   6.883   5.744  0.4409  0.1807  0.1571
  155MOL0     C21264  11.635   7.017   5.708  0.1860 -0.0368  0.8113
  155MOL0     C21265  11.779   6.977   5.732  0.4458 -0.7706  0.8867
  155MOL0     C21266  11.851   7.118   5.727  0.1823 -0.4078 -0.0187
  155MOL0     C21267  11.993   7.101   5.781  0.0809 -0.0502  0.5925
  155MOL0     C21268  12.071   7.233   5.792  0.1564 -0.7984  0.1523
  155MOL0     N21269  12.218   7.206   5.820 -0.9928 -0.7388  0.1271
  155MOL0     C21270  12.321   7.187   5.726  0.0386  0.5290  0.2084
  155MOL0     C21271  12.429   7.151   5.795 -0.4958  0.4393  0.0349
  155MOL0     C21272  12.566   7.129   5.738  0.4332 -0.1111 -0.2112
  155MOL0     C21273  12.642   7.249   5.673 -0.2332 -0.5517 -0.0708
  155MOL0     C21274  12.661   7.367   5.764 -0.2330  0.2914 -0.2634
  155MOL0     C21275  12.788   7.349   5.864  0.2786 -0.5670  0.2779
  155MOL0     O21276  12.914   7.302   5.820 -0.2499 -0.5558 -0.5200
  155MOL0     C21277  13.003   7.387   5.754 -0.3315 -0.3215  0.9585
  155MOL0     C21278  13.130   7.342   5.736  0.1676  0.2122  0.6398
  155MOL0     C21279  13.231   7.425   5.678 -0.6825  0.7163  0.4871
  155MOL0     C21280  13.368   7.369   5.665 -0.5334 -0.0746 -0.5184
  155MOL0     C21281  13.201   7.556   5.639  0.0390 -1.0792  0.7855
  155MOL0     C21282  13.308   7.657   5.602  1.2181 -0.2105  0.3569
  155MOL0     O21283  13.249   7.760   5.529  0.1335 -0.8702  0.2695
  155MOL0     C21284  13.329   7.870   5.496 -0.1347  0.9287 -0.3310
  155MOL0     C21285  13.357   7.897   5.362  0.1906 -0.6324 -0.2458
  155MOL0     C21286  13.424   8.010   5.327  0.2234 -0.7038  0.1025
  155MOL0     C21287  13.466   8.101   5.427 -0.5842 -0.1580  0.1150
  155MOL0     O21288  13.526   8.220   5.399  0.1399  0.1250 -0.8829
  155MOL0     C21289  13.477   8.317   5.303 -0.1114  0.3207  0.0074
  155MOL0     C21290  13.540   8.449   5.352 -0.0078  0.5808 -0.1791
  155MOL0     C21291  13.452   8.516   5.463 -0.5360  0.4492 -0.1489
  155MOL0     C21292  13.535   8.622   5.547 -0.3119  0.0388  0.2817
  155MOL0     C21293  13.463   8.659   5.677  0.0808 -0.3004 -0.5204
  155MOL0     C21294  13.547   8.763   5.751  0.9153 -0.1109 -0.6766
  155MOL0     C21295  13.702   8.761   5.750  0.7331  0.7310  0.3904
  155MOL0     C21296  13.758   8.847   5.850 -0.5445 -0.0281  0.5204
  155MOL0    Cl21297  13.740   8.778   6.021  0.0319 -0.1119 -0.0935
  155MOL0     C21298  13.437   8.077   5.563  0.1170  1.2542  0.0094
  155MOL0     C21299  13.363   7.964   5.594  0.2832  0.0200  0.7420
  155MOL0     O21300  13.426   7.650   5.631 -0.6141  0.4825 -0.5250
  155MOL0     C21301  13.063   7.595   5.646 -0.3068  0.3311 -0.6593
  155MOL0     C21302  12.969   7.511   5.705 -0.3437 -1.2487  1.2705
  155MOL0     N21303  12.405   7.154   5.930  0.7777  0.3702 -1.3318
  155MOL0     N21304  12.276   7.183   5.945 -0.4145  0.0273  0.1661
  155MOL0     C21305  10.989   6.859   5.713 -0.1082  0.3445  0.7627
  155MOL0     C21306  10.875   6.899   5.785  0.6511 -0.1614 -0.1933
  155MOL0     C21307  10.682   7.032   6.167 -0.7470  0.6487  0.5357
  155MOL0     C21308  10.577   7.106   6.107  0.7973 -0.6866  1.3257
  155MOL0     C21309  10.471   7.152   6.179  0.5611 -0.0374 -0.6040
  155MOL0     C21310  10.467   7.139   6.318  0.1860 -0.9042  0.4879
  155MOL0     O21311  10.369   7.208   6.388 -0.5609 -0.9133 -0.1784
  155MOL0     C21312  10.287   7.126   6.467  0.1757 -0.6063  0.3067
  155MOL0     C21313  10.148   7.193   6.493 -0.5805  0.2717 -0.0873
  155MOL0     C21314  10.084   7.182   6.348  0.0051 -0.3268  0.6136
  155MOL0     C21315   9.937   7.149   6.363 -0.1343  0.5910  0.6834
  155MOL0     C21316   9.878   7.270   6.407  1.1174 -0.3916 -0.7538
  155MOL0     C21317   9.837   7.381   6.446 -0.3249 -0.1320 -0.0993
  155MOL0     C21318  10.564   7.070   6.384  1.2037 -0.3821 -0.7073
  155MOL0     C21319  10.673   7.020   6.313  0.6915 -0.2924  0.5188
  155MOL0     C21320  10.779   6.956   6.395  0.4017 -0.4244  0.0463
  155MOL0     H21321  10.984   7.183   5.920 -1.5552 -0.5249  0.0889
  155MOL0     H21322  11.183   7.124   5.790  2.4365 -0.3990  4.5569
  155MOL0     H21323  11.355   7.039   5.598  0.6987  1.0132 -0.3182
  155MOL0     H21324  11.398   6.870   5.566  0.5608 -0.0206  1.4107
  155MOL0     H21325  11.405   7.008   5.828  0.3557  1.2700 -0.8592
  155MOL0     H21326  11.358   6.827   5.812 -1.7450 -0.4637 -1.7312
  155MOL0     H21327  11.594   6.849   5.841  0.2880 -4.2078 -1.1064
  155MOL0     H21328  11.581   6.800   5.679 -2.5454 -2.2918  1.8079
  155MOL0     H21329  11.616   7.048   5.605  2.4774  2.6260  1.0799
  155MOL0     H21330  11.600   7.090   5.782 -2.0783 -1.3363  1.1565
  155MOL0     H21331  11.820   6.906   5.660  1.4839  0.4983  0.1796
  155MOL0     H21332  11.792   6.950   5.837 -1.8973 -0.2998  1.3345
  155MOL0     H21333  11.853   7.156   5.625  1.2868 -1.6477 -0.4950
  155MOL0     H21334  11.798   7.184   5.797  0.0111 -0.9169  0.3427
  155MOL0     H21335  12.063   7.051   5.712  0.6177 -0.2584  1.2748
  155MOL0     H21336  11.997   7.040   5.871 -2.1180  0.0890  0.8276
  155MOL0     H21337  12.072   7.284   5.695  3.5658 -1.5609 -0.3121
  155MOL0     H21338  12.034   7.299   5.871 -0.8234  0.5818 -1.3810
  155MOL0     H21339  12.318   7.205   5.619 -1.7562 -2.3321 -0.3304
  155MOL0     H21340  12.550   7.052   5.663 -1.7561  0.2452 -0.1792
  155MOL0     H21341  12.632   7.097   5.820 -0.6984  1.4403  1.3821
  155MOL0     H21342  12.739   7.214   5.636  1.1794  3.0066 -0.0723
  155MOL0     H21343  12.582   7.287   5.590 -1.2328  1.1344  1.3545
  155MOL0     H21344  12.658   7.452   5.696 -2.0683  0.2403 -0.3005
  155MOL0     H21345  12.575   7.375   5.832  0.5624 -1.8875  1.1399
  155MOL0     H21346  12.797   7.442   5.921 -1.8751  0.0558 -0.2896
  155MOL0     H21347  12.758   7.276   5.940  1.6476 -0.4737  0.9461
  155MOL0     H21348  13.155   7.250   5.787 -2.4967 -0.6505  0.5109
  155MOL0     H21349  13.434   7.402   5.745  1.6611 -2.9303 -0.9826
  155MOL0     H21350  13.420   7.390   5.571  1.0784 -3.6591 -0.5761
  155MOL0     H21351  13.362   7.260   5.677 -0.7343  0.0715  0.9089
  155MOL0     H21352  13.324   7.834   5.280 -1.3497 -0.4576  0.2233
  155MOL0     H21353  13.451   8.031   5.224 -0.1339 -2.4806 -0.3932
  155MOL0     H21354  13.508   8.306   5.199 -1.4876  2.0965 -0.6378
  155MOL0     H21355  13.370   8.335   5.305 -0.0085  1.0864 -0.7137
  155MOL0     H21356  13.637   8.439   5.401 -0.5806 -1.6600  0.6551
  155MOL0     H21357  13.553   8.514   5.265  4.6481  0.2670  0.0602
  155MOL0     H21358  13.426   8.435   5.532 -1.9637 -0.5192 -1.7200
  155MOL0     H21359  13.364   8.570   5.427 -1.0493 -1.2456 -1.5835
  155MOL0     H21360  13.548   8.711   5.486  0.8430 -0.0830  0.3266
  155MOL0     H21361  13.632   8.580   5.575  0.5703 -0.4242 -3.0471
  155MOL0     H21362  13.357   8.678   5.657 -0.0751  2.2572  1.9487
  155MOL0     H21363  13.464   8.579   5.751  0.9426  0.3248  0.1755
  155MOL0     H21364  13.506   8.771   5.852  0.6890  0.1803 -0.7901
  155MOL0     H21365  13.525   8.862   5.709 -2.0569 -0.2739  0.2686
  155MOL0     H21366  13.735   8.796   5.652  0.9118  0.2455  0.2742
  155MOL0     H21367  13.740   8.659   5.762 -1.0652  0.0491  0.5633
  155MOL0     H21368  13.699   8.937   5.830  1.3446  0.9201 -1.1512
  155MOL0     H21369  13.861   8.876   5.829 -0.7452  0.7334  0.5629
  155MOL0     H21370  13.474   8.142   5.642  1.2841  1.5502 -0.7608
  155MOL0     H21371  13.339   7.943   5.698 -2.3409  1.0169  0.4233
  155MOL0     H21372  13.034   7.692   5.605  0.0647 -0.2162 -2.3299
  155MOL0     H21373  12.868   7.550   5.718  0.6194  1.9836  0.0219
  155MOL0     H21374  10.978   6.767   5.657  0.5771  1.6473 -1.6372
  155MOL0     H21375  10.788   6.835   5.773 -1.1879  2.2164 -0.3353
  155MOL0     H21376  10.576   7.133   6.002  1.6329  0.7529  1.6645
  155MOL0     H21377  10.404   7.223   6.130 -2.2141 -1.0575  1.4579
  155MOL0     H21378  10.268   7.028   6.424  0.8935 -1.3829  1.6964
  155MOL0     H21379  10.345   7.100   6.556 -0.4503  0.4718  1.0551
  155MOL0     H21380  10.147   7.292   6.539 -2.1226 -0.1073  0.7223
  155MOL0     H21381  10.097   7.129   6.565 -1.4945  1.3960  0.2793
  155MOL0     H21382  10.121   7.264   6.285  2.2351 -0.7793  1.2280
  155MOL0     H21383  10.121   7.098   6.288  1.5636  0.7354  0.0139
  155MOL0     H21384   9.909   7.059   6.419 -0.9223  1.1032  1.1328
  155MOL0     H21385   9.892   7.126   6.266 -1.4394  0.5946  1.2686
  155MOL0     H21386   9.792   7.476   6.468 -2.0230 -0.9932  0.3897
  155MOL0     H21387  10.547   7.060   6.490  0.3000 -0.2915 -0.8326
  155MOL0     H21388  10.768   6.847   6.395 -0.4411 -0.3464  0.0592
  155MOL0     H21389  10.873   7.002   6.362  0.1057 -0.1528 -0.4367
  155MOL0     H21390  10.771   6.987   6.499 -4.2531  1.2002 -0.5692
  156MOL0     O21391   2.551   9.366   9.881  0.2615  0.7245  0.0417
  156MOL0     C21392   2.567   9.449   9.967  0.3295 -0.4198 -0.0610
  156MOL0     O21393   2.478   9.482  10.064  0.2879  0.3728  0.0600
  156MOL0     C21394   2.365   9.399  10.091 -0.0341 -1.3494  0.2878
  156MOL0     C21395   2.251   9.472  10.127  0.1888  0.1107  0.3409
  156MOL0     C21396   2.125   9.412  10.137  0.1193  0.2947  0.4278
  156MOL0     C21397   2.118   9.276  10.122 -0.0487 -0.5749 -0.1353
  156MOL0     O21398   2.004   9.209  10.134  0.9400  0.6602  0.1716
  156MOL0     C21399   1.939   9.206  10.266  0.3071 -0.3400  0.0989
  156MOL0     C21400   1.803   9.133  10.273 -0.5964 -0.3396 -0.4327
  156MOL0     C21401   1.690   9.170  10.170  1.1870 -1.3753 -0.0400
  156MOL0     C21402   1.722   9.094  10.039  0.4382  0.0780  0.6258
  156MOL0     C21403   1.620   9.113   9.927 -0.0089 -0.4654  0.3184
  156MOL0     C21404   1.480   9.073   9.965  0.8327 -0.0930  0.2228
  156MOL0     C21405   1.383   9.066   9.844  0.9126 -0.2200  0.1073
  156MOL0     C21406   1.382   9.206   9.772  0.0886 -0.1323 -0.0469
  156MOL0     N21407   1.248   9.252   9.726 -0.0766  0.0599  0.1077
  156MOL0     C21408   1.153   9.181   9.663  0.7315 -0.2928  0.0469
  156MOL0     C21409   1.045   9.266   9.655  0.1073  0.8820 -0.5110
  156MOL0     C21410   0.905   9.252   9.616  0.1721 -0.1969  0.1826
  156MOL0     C21411   0.878   9.235   9.464 -0.5199 -0.3741 -1.4093
  156MOL0     C21412   0.942   9.346   9.372 -0.5470  0.9781 -0.9828
  156MOL0     C21413   0.935   9.314   9.217  0.0904 -0.3272 -0.2839
  156MOL0     O21414   1.011   9.202   9.169 -0.0685  0.3001 -0.1612
  156MOL0     C21415   1.145   9.228   9.164  0.6148 -0.2258 -0.3873
  156MOL0     C21416   1.229   9.186   9.269 -0.0424 -0.9089 -0.4307
  156MOL0     C21417   1.365   9.221   9.270  0.1368 -0.0756  0.8562
  156MOL0     C21418   1.445   9.193   9.397  0.0851 -0.3312  1.5672
  156MOL0     C21419   1.427   9.258   9.152 -0.7099 -0.2522  0.7077
  156MOL0     C21420   1.571   9.277   9.137 -1.0271  0.5290 -0.0313
  156MOL0     O21421   1.618   9.397   9.097  0.6183  0.3502 -0.9943
  156MOL0     C21422   1.750   9.408   9.076  1.0413  0.8585 -0.4536
  156MOL0     C21423   1.792   9.405   8.949  0.0227 -0.1513  0.2150
  156MOL0     C21424   1.932   9.425   8.918 -0.4181 -0.7674 -0.4415
  156MOL0     C21425   2.025   9.427   9.024 -0.0293 -0.1623 -0.5013
  156MOL0     O21426   2.165   9.442   9.027  0.0930  0.1292  0.1193
  156MOL0     C21427   2.225   9.466   8.897 -0.2848 -0.1002  1.4481
  156MOL0     C21428   2.374   9.437   8.898 -0.5365  0.0279 -0.3950
  156MOL0     C21429   2.468   9.522   8.995  0.2893  0.4368  0.1696
  156MOL0     C21430   2.600   9.457   8.997 -0.6820 -0.5442 -0.3865
  156MOL0     C21431   2.711   9.557   9.055  0.5398  0.8251  0.3744
  156MOL0     C21432   2.855   9.508   9.034 -0.6617 -0.6360 -0.0816
  156MOL0     C21433   2.938   9.620   8.963  0.1434  1.5069 -0.3244
  156MOL0     C21434   3.080   9.567   8.952 -0.1387  1.0759  0.3367
  156MOL0    Cl21435   3.138   9.619   8.792 -0.1412  0.3793  0.2814
  156MOL0     C21436   1.974   9.433   9.153  0.3662  0.3547 -0.4087
  156MOL0     C21437   1.840   9.422   9.183  0.0748 -0.0597  0.0340
  156MOL0     O21438   1.636   9.173   9.160 -0.2441  0.2474 -0.8264
  156MOL0     C21439   1.342   9.279   9.039  0.0471  0.4646  0.0783
  156MOL0     C21440   1.206   9.257   9.041 -0.2861 -0.0739 -0.0888
  156MOL0     N21441   1.095   9.389   9.690 -0.1840  0.3648 -0.9911
  156MOL0     N21442   1.210   9.380   9.731 -0.5649 -0.3642 -0.5656
  156MOL0     C21443   2.233   9.193  10.110 -0.8713 -0.3123  0.2148
  156MOL0     C21444   2.358   9.259  10.085  0.3212  0.3608  0.3606
  156MOL0     C21445   2.691   9.530   9.978 -0.2768 -0.7033  0.0441
  156MOL0     C21446   2.686   9.649  10.052  0.1391  0.7490 -0.0324
  156MOL0     C21447   2.796   9.731  10.080 -0.1457  0.3667  0.1101
  156MOL0     C21448   2.920   9.705  10.021 -0.1843  0.6874  0.2367
  156MOL0     O21449   3.037   9.777  10.041  0.1623  0.1860 -0.6521
  156MOL0     C21450   3.033   9.897  10.106 -0.1433 -1.1420  0.6414
  156MOL0     C21451   3.169   9.959  10.116 -0.3556 -0.4269  0.2310
  156MOL0     C21452   3.270   9.872  10.184  0.0108 -0.5967 -0.1600
  156MOL0     C21453   3.409   9.931  10.198  0.4273 -0.2402  0.7303
  156MOL0     C21454   3.510   9.854  10.273 -0.0466 -0.0648 -0.0988
  156MOL0     C21455   3.591   9.806  10.342 -0.1751 -0.2470  0.0647
  156MOL0     C21456   2.931   9.588   9.946 -0.3690 -0.1950 -0.2783
  156MOL0     C21457   2.820   9.501   9.930 -0.3802 -0.0477  0.7449
  156MOL0     C21458   2.835   9.377   9.848  0.8243 -0.9069 -0.8786
  156MOL0     H21459   2.278   9.577  10.131  1.8595 -0.3149  2.4535
  156MOL0     H21460   2.032   9.460  10.167 -0.0101 -0.2777  0.9782
  156MOL0     H21461   1.917   9.308  10.298  1.3432 -0.4557  1.2324
  156MOL0     H21462   2.013   9.168  10.336 -0.4236  2.0287  2.2841
  156MOL0     H21463   1.822   9.025  10.265  0.6568 -0.0625 -1.5833
  156MOL0     H21464   1.760   9.160  10.370 -2.7147  1.5328 -1.7970
  156MOL0     H21465   1.593   9.159  10.219 -0.2858  1.3370 -2.0843
  156MOL0     H21466   1.698   9.277  10.151  0.0082 -1.0881  0.9607
  156MOL0     H21467   1.821   9.112   9.996  1.0643 -0.7631  1.6563
  156MOL0     H21468   1.742   8.988  10.055  5.8330  0.9086  1.5000
  156MOL0     H21469   1.644   9.058   9.835 -2.9340  1.4784 -1.7990
  156MOL0     H21470   1.609   9.219   9.899  3.7878 -0.0006  0.1082
  156MOL0     H21471   1.470   8.974  10.012 -1.5341 -0.3608 -0.7276
  156MOL0     H21472   1.449   9.151  10.034  1.2713  1.3907 -1.2005
  156MOL0     H21473   1.280   9.054   9.880  2.2911 -1.4307  4.1543
  156MOL0     H21474   1.415   8.994   9.769  0.4641 -0.8956  0.5523
  156MOL0     H21475   1.426   9.286   9.831  0.4320 -0.0896 -0.3551
  156MOL0     H21476   1.449   9.195   9.686  1.4827  0.5720  0.9136
  156MOL0     H21477   1.148   9.075   9.638 -0.3287 -0.1385 -0.4593
  156MOL0     H21478   0.852   9.344   9.643  0.6066  0.2525 -0.4726
  156MOL0     H21479   0.857   9.171   9.673 -2.1242 -0.4788 -1.9924
  156MOL0     H21480   0.920   9.136   9.441  1.3707  0.5388 -2.1739
  156MOL0     H21481   0.769   9.231   9.454 -0.8580 -0.6038  1.6144
  156MOL0     H21482   0.889   9.440   9.391 -2.1912  0.4011 -2.4523
  156MOL0     H21483   1.047   9.348   9.402 -0.7001 -2.2531  0.1777
  156MOL0     H21484   0.832   9.308   9.180  0.5674  0.2183 -1.7728
  156MOL0     H21485   0.984   9.398   9.168  1.3816 -0.7801  0.1929
  156MOL0     H21486   1.190   9.160   9.366 -1.4528  2.2285 -0.0268
  156MOL0     H21487   1.541   9.245   9.398 -0.0261 -0.0665  0.1397
  156MOL0     H21488   1.459   9.084   9.392 -2.5405 -0.7034 -2.6900
  156MOL0     H21489   1.389   9.222   9.486  0.2401  0.0992  1.5253
  156MOL0     H21490   1.721   9.382   8.871 -0.4963  3.1400 -0.4652
  156MOL0     H21491   1.966   9.418   8.815  0.3167  0.7815 -0.3284
  156MOL0     H21492   2.189   9.401   8.817  0.8875  3.7059 -2.5227
  156MOL0     H21493   2.217   9.571   8.867 -3.3440 -1.2273 -2.4784
  156MOL0     H21494   2.390   9.330   8.915 -1.7532 -0.3535 -1.4482
  156MOL0     H21495   2.412   9.461   8.798  2.5444  0.5936  0.8125
  156MOL0     H21496   2.415   9.517   9.090 -3.0826 -1.6112 -1.6208
  156MOL0     H21497   2.461   9.626   8.962 -3.1690  0.1925 -0.2398
  156MOL0     H21498   2.623   9.411   8.900  1.6040 -2.3582  0.9126
  156MOL0     H21499   2.590   9.370   9.063  0.6125 -0.1555  0.3480
  156MOL0     H21500   2.691   9.648   8.999 -0.1542 -0.4264 -1.5060
  156MOL0     H21501   2.691   9.571   9.162 -2.1755 -0.7221  0.1511
  156MOL0     H21502   2.856   9.415   8.976 -1.1891 -0.2737 -0.6929
  156MOL0     H21503   2.886   9.480   9.135 -0.9904  2.1055  0.8516
  156MOL0     H21504   2.940   9.716   9.016  0.7147  2.2757 -1.6777
  156MOL0     H21505   2.903   9.640   8.861 -3.3541 -0.1296  0.3965
  156MOL0     H21506   3.092   9.459   8.944  1.4919  1.1289  1.6373
  156MOL0     H21507   3.144   9.604   9.032  0.0386  2.2034 -0.2994
  156MOL0     H21508   2.041   9.453   9.236 -3.2855  1.2966  2.6111
  156MOL0     H21509   1.792   9.419   9.281 -0.1632 -0.5541 -0.0955
  156MOL0     H21510   1.390   9.313   8.948  0.9960  2.5690  1.2939
  156MOL0     H21511   1.150   9.271   8.948  0.3072  1.4819 -0.2483
  156MOL0     H21512   2.208   9.088  10.100  1.6665 -0.8301 -1.9509
  156MOL0     H21513   2.446   9.204  10.053 -0.0864  0.4244 -0.9316
  156MOL0     H21514   2.595   9.688  10.096 -0.9454 -1.0965 -0.5339
  156MOL0     H21515   2.774   9.808  10.153 -0.2029  0.0253  0.4590
  156MOL0     H21516   2.956   9.958  10.057  0.9170  1.0418  1.5473
  156MOL0     H21517   3.007   9.879  10.210 -0.0804  2.2039  1.3665
  156MOL0     H21518   3.157  10.050  10.175 -1.6997 -0.7719  0.5163
  156MOL0     H21519   3.209   9.982  10.017  0.5631  1.4445  0.9941
  156MOL0     H21520   3.231   9.857  10.285  0.1827  1.1551  0.1964
  156MOL0     H21521   3.278   9.770  10.146  0.0830 -0.8622  0.5553
  156MOL0     H21522   3.403  10.033  10.237  6.8386  1.1707 -0.8615
  156MOL0     H21523   3.451   9.945  10.099 -2.8026 -1.5685 -0.9773
  156MOL0     H21524   3.669   9.777  10.410 -0.4884 -0.9800  0.1289
  156MOL0     H21525   3.033   9.575   9.913  0.4907  1.7086  1.3821
  156MOL0     H21526   2.767   9.362   9.764  0.8212  1.0638 -1.2713
  156MOL0     H21527   2.931   9.381   9.795 -0.5654  2.1555 -3.4586
  156MOL0     H21528   2.838   9.287   9.911  0.4815 -0.2573  0.0884
  157MOL0     O21529  10.455   5.598   5.851  0.7224 -0.2647  0.5525
  157MOL0     C21530  10.384   5.598   5.950 -0.1822  0.9233 -0.6771
  157MOL0     O21531  10.438   5.610   6.080  0.1594 -0.6411  0.1573
  157MOL0     C21532  10.572   5.617   6.112 -0.2069 -0.0637 -1.0085
  157MOL0     C21533  10.679   5.583   6.031  0.8119  0.8036  0.0451
  157MOL0     C21534  10.810   5.567   6.089 -0.0240 -0.1799  0.6993
  157MOL0     C21535  10.834   5.583   6.223 -0.0766 -0.6781  0.7117
  157MOL0     O21536  10.967   5.575   6.261  0.2500 -0.0244  0.0599
  157MOL0     C21537  10.991   5.531   6.394 -0.6713  0.3235  0.2662
  157MOL0     C21538  11.138   5.486   6.393 -0.5259 -0.1449  0.1481
  157MOL0     C21539  11.235   5.602   6.347 -0.4874 -0.1461 -0.3172
  157MOL0     C21540  11.382   5.566   6.385 -0.0473 -0.4540 -0.7832
  157MOL0     C21541  11.472   5.686   6.350 -0.4352 -0.2744 -0.8065
  157MOL0     C21542  11.616   5.662   6.395  0.6326 -0.1254 -0.5874
  157MOL0     C21543  11.705   5.781   6.354  0.7237  0.3165  0.0630
  157MOL0     C21544  11.747   5.762   6.215 -0.3230  0.4312  0.4518
  157MOL0     N21545  11.866   5.842   6.186  1.0690  0.0831 -0.1012
  157MOL0     C21546  11.863   5.963   6.126 -0.4336  1.0132 -0.7698
  157MOL0     C21547  11.994   6.008   6.141 -0.2902  0.1238 -0.8239
  157MOL0     C21548  12.054   6.138   6.085 -0.1330  0.6077 -0.2556
  157MOL0     C21549  12.153   6.113   5.967  0.3152  0.1224 -0.0786
  157MOL0     C21550  12.242   6.239   5.934  0.0464  0.5301 -1.4218
  157MOL0     C21551  12.161   6.364   5.891  0.1449  0.1735 -0.2104
  157MOL0     O21552  12.088   6.429   6.004  0.6878 -0.6273  0.6245
  157MOL0     C21553  12.163   6.479   6.107 -0.5118  0.0989 -0.1578
  157MOL0     C21554  12.122   6.447   6.239 -0.1599  0.0728 -0.2195
  157MOL0     C21555  12.199   6.490   6.347  0.6613  0.5480 -0.2431
  157MOL0     C21556  12.155   6.458   6.484  0.2618  0.2921 -0.2788
  157MOL0     C21557  12.317   6.568   6.316  0.4079 -0.8967 -0.9120
  157MOL0     C21558  12.406   6.617   6.424 -0.0072 -0.2391  0.1630
  157MOL0     O21559  12.539   6.636   6.390 -0.2796 -0.2514  0.2250
  157MOL0     C21560  12.629   6.639   6.491 -0.1649  0.2443  0.4176
  157MOL0     C21561  12.742   6.720   6.479  0.2376 -0.2261 -0.6779
  157MOL0     C21562  12.838   6.731   6.577  0.1648 -1.0741  0.2679
  157MOL0     C21563  12.838   6.651   6.694  0.8543 -0.1150 -0.2575
  157MOL0     O21564  12.935   6.681   6.785  0.0547 -0.1904  0.3449
  157MOL0     C21565  12.903   6.631   6.913 -0.6068  0.1187 -0.1242
  157MOL0     C21566  13.027   6.625   6.999 -0.4481 -0.0026 -0.3938
  157MOL0     C21567  13.098   6.759   7.021  0.3220 -0.0713 -0.1506
  157MOL0     C21568  13.234   6.753   7.090 -0.8835 -1.2885 -0.1700
  157MOL0     C21569  13.310   6.885   7.092 -0.3419 -0.1005  0.5915
  157MOL0     C21570  13.249   6.992   7.190 -0.1649 -0.2897 -0.2532
  157MOL0     C21571  13.234   6.940   7.331  0.0900  0.2509 -0.4129
  157MOL0     C21572  13.209   7.042   7.440 -0.1559 -0.3223 -0.5221
  157MOL0    Cl21573  13.327   7.178   7.439 -0.2271  0.0746 -0.4259
  157MOL0     C21574  12.736   6.555   6.699  1.1409  0.4215 -0.5914
  157MOL0     C21575  12.628   6.549   6.603 -0.1860 -0.0087 -0.5995
  157MOL0     O21576  12.351   6.654   6.527  0.4578 -0.7761 -0.7921
  157MOL0     C21577  12.358   6.594   6.186 -0.4535  0.3024  0.8210
  157MOL0     C21578  12.275   6.561   6.082  0.3144 -0.1409 -0.2879
  157MOL0     N21579  12.070   5.915   6.199 -0.3270  0.7224 -0.4793
  157MOL0     N21580  11.998   5.810   6.214  0.0845  0.2647 -0.2726
  157MOL0     C21581  10.726   5.622   6.297  0.0355  0.1091 -0.4383
  157MOL0     C21582  10.597   5.634   6.245  0.1825 -0.3960  0.0109
  157MOL0     C21583  10.237   5.579   5.940  0.0831  0.0524  0.4043
  157MOL0     C21584  10.188   5.559   5.809 -1.1028 -0.6099  0.1457
  157MOL0     C21585  10.051   5.551   5.777  0.4441  0.1592  0.4334
  157MOL0     C21586   9.959   5.562   5.889 -0.2947 -0.4912 -0.2652
  157MOL0     O21587   9.827   5.570   5.844 -0.2687 -0.2627  0.0568
  157MOL0     C21588   9.727   5.606   5.938 -0.7985 -0.1055  0.2855
  157MOL0     C21589   9.598   5.610   5.859  0.0866  0.3518  0.7833
  157MOL0     C21590   9.605   5.721   5.750  0.2019  1.0106 -0.0579
  157MOL0     C21591   9.460   5.761   5.716 -0.3763  1.1202  0.5789
  157MOL0     C21592   9.454   5.857   5.605 -0.1741  0.0576  0.0923
  157MOL0     C21593   9.434   5.941   5.512  0.0675 -0.4769 -0.7479
  157MOL0     C21594  10.006   5.598   6.016 -0.4562 -0.2374  0.8056
  157MOL0     C21595  10.143   5.609   6.046 -0.5715 -0.0528 -0.4385
  157MOL0     C21596  10.182   5.648   6.195  0.6321 -0.0548  0.5991
  157MOL0     H21597  10.675   5.574   5.923 -0.7181  0.4224  0.1103
  157MOL0     H21598  10.898   5.532   6.035 -0.6034  0.9301 -1.0498
  157MOL0     H21599  10.927   5.447   6.423  1.4401 -1.0519  1.1366
  157MOL0     H21600  10.965   5.611   6.464 -0.3867  0.1337  0.5885
  157MOL0     H21601  11.159   5.470   6.499 -0.3198  0.5134  0.2078
  157MOL0     H21602  11.145   5.394   6.334  1.2512  2.0558 -3.3988
  157MOL0     H21603  11.227   5.619   6.239  1.0976  0.0964 -0.4185
  157MOL0     H21604  11.193   5.694   6.388  1.5392 -0.2495  2.2563
  157MOL0     H21605  11.391   5.554   6.493 -2.4085  1.2487 -0.3362
  157MOL0     H21606  11.419   5.474   6.337 -0.3712 -0.5835 -0.7879
  157MOL0     H21607  11.443   5.779   6.401 -0.1752  1.0651 -2.9929
  157MOL0     H21608  11.455   5.696   6.243  1.2848  0.3901 -1.0452
  157MOL0     H21609  11.619   5.661   6.504 -1.4591 -1.0482 -0.4965
  157MOL0     H21610  11.656   5.571   6.350  0.0696 -1.0284  0.7024
  157MOL0     H21611  11.793   5.770   6.419  0.6146  1.7761  0.4876
  157MOL0     H21612  11.657   5.879   6.362 -3.3200 -1.4532  0.1686
  157MOL0     H21613  11.786   5.660   6.208 -0.9826  0.2552 -1.0145
  157MOL0     H21614  11.664   5.790   6.150  2.5279 -0.5009 -4.0362
  157MOL0     H21615  11.785   6.029   6.089 -0.5992  0.9128 -0.6044
  157MOL0     H21616  12.108   6.174   6.173 -1.0647 -0.6337  0.8739
  157MOL0     H21617  11.976   6.204   6.045 -0.0529 -1.2065 -3.7772
  157MOL0     H21618  12.222   6.033   5.996 -0.6705 -0.1850  1.5791
  157MOL0     H21619  12.094   6.083   5.880 -0.4607  2.5387 -0.4670
  157MOL0     H21620  12.294   6.262   6.028 -1.3377 -0.9549 -0.2257
  157MOL0     H21621  12.315   6.216   5.856 -1.3821 -1.3073 -2.2976
  157MOL0     H21622  12.223   6.439   5.841  2.0095 -1.4589 -0.4750
  157MOL0     H21623  12.098   6.323   5.811 -0.8098  0.2318  0.4949
  157MOL0     H21624  12.034   6.386   6.259  0.3258 -0.1553  1.3259
  157MOL0     H21625  12.130   6.548   6.540 -1.4711 -0.4854  0.2828
  157MOL0     H21626  12.245   6.427   6.538  0.7776 -3.2096 -2.7849
  157MOL0     H21627  12.087   6.374   6.505 -1.1801  1.3629 -0.5173
  157MOL0     H21628  12.767   6.771   6.387  0.1988  1.8853  0.4240
  157MOL0     H21629  12.917   6.805   6.564 -1.6001  0.8060 -0.3544
  157MOL0     H21630  12.822   6.688   6.959 -0.3973 -1.4983  2.4234
  157MOL0     H21631  12.866   6.528   6.915  1.5473 -0.7275 -0.7965
  157MOL0     H21632  13.005   6.587   7.099  0.4589  2.4183  0.8100
  157MOL0     H21633  13.096   6.559   6.946 -1.2279 -0.0693 -1.3456
  157MOL0     H21634  13.048   6.823   7.094  1.6969 -1.8048  2.4713
  157MOL0     H21635  13.099   6.814   6.927 -0.9821 -0.6391 -0.5122
  157MOL0     H21636  13.307   6.681   7.050 -1.3645 -1.1479 -1.3347
  157MOL0     H21637  13.221   6.714   7.192  1.3771 -0.3268  0.5667
  157MOL0     H21638  13.412   6.864   7.127 -0.2518 -2.0324 -0.6732
  157MOL0     H21639  13.323   6.926   6.991 -0.2238 -0.4189  0.4764
  157MOL0     H21640  13.153   7.032   7.156  0.3931  0.9675 -0.3950
  157MOL0     H21641  13.323   7.072   7.186  1.0080 -0.8903  4.0615
  157MOL0     H21642  13.323   6.886   7.364  0.4618  1.0418 -0.0799
  157MOL0     H21643  13.148   6.873   7.333 -1.4830  2.1197  2.3912
  157MOL0     H21644  13.208   6.995   7.539 -0.4969 -0.1652 -0.4463
  157MOL0     H21645  13.110   7.087   7.425 -0.9128 -1.5295  0.6535
  157MOL0     H21646  12.733   6.489   6.785  0.7907  1.5977  0.3237
  157MOL0     H21647  12.555   6.469   6.610  0.7980 -1.1222 -2.4575
  157MOL0     H21648  12.451   6.648   6.166  1.2862 -2.1192  1.8633
  157MOL0     H21649  12.292   6.591   5.979 -3.0584  2.0341 -0.3904
  157MOL0     H21650  10.726   5.626   6.406  1.1661  0.3563 -0.4356
  157MOL0     H21651  10.514   5.649   6.314 -1.5132 -0.9769 -1.8081
  157MOL0     H21652  10.258   5.555   5.726  3.9769 -0.5210  3.9517
  157MOL0     H21653  10.021   5.532   5.675  2.3140  3.8130 -0.9692
  157MOL0     H21654   9.726   5.528   6.014  2.1576 -0.7386 -0.1846
  157MOL0     H21655   9.737   5.704   5.985 -1.2043  0.2743 -0.3955
  157MOL0     H21656   9.518   5.619   5.933  1.1544  3.2707  1.7367
  157MOL0     H21657   9.585   5.516   5.806  2.3048 -0.0178  0.7759
  157MOL0     H21658   9.664   5.808   5.783 -0.9142  0.6164  3.3700
  157MOL0     H21659   9.645   5.685   5.654 -0.0346 -1.4959  0.7133
  157MOL0     H21660   9.410   5.810   5.800 -2.6958  2.0886 -1.2510
  157MOL0     H21661   9.410   5.668   5.691  2.6254 -0.8068  1.1805
  157MOL0     H21662   9.420   6.013   5.434 -0.9497  0.3903  0.1904
  157MOL0     H21663   9.924   5.613   6.086 -1.3064 -0.7370 -0.0524
  157MOL0     H21664  10.250   5.577   6.242  0.8528 -1.4266 -1.6874
  157MOL0     H21665  10.239   5.741   6.202  1.0746 -0.2952  0.1660
  157MOL0     H21666  10.092   5.663   6.256  0.3577 -5.4227  2.0048
  158MOL0     O21667  10.611   7.795   5.301 -0.1018 -0.5615  0.2748
  158MOL0     C21668  10.490   7.816   5.287 -0.4578 -0.0893 -0.0599
  158MOL0     O21669  10.438   7.911   5.205 -0.5057  0.2036  0.2982
  158MOL0     C21670  10.520   8.002   5.138  0.4924  0.1532  0.4431
  158MOL0     C21671  10.456   8.128   5.121  0.1143 -0.5380 -0.9007
  158MOL0     C21672  10.528   8.232   5.065  0.5359  0.4036 -0.1190
  158MOL0     C21673  10.663   8.211   5.019  0.4407  0.0833 -0.2882
  158MOL0     O21674  10.732   8.324   4.981  0.4929 -0.6723  0.2284
  158MOL0     C21675  10.873   8.323   4.996 -0.5574 -0.7123 -0.5555
  158MOL0     C21676  10.916   8.467   5.041  0.5155 -0.2931 -0.9199
  158MOL0     C21677  11.064   8.479   5.072  0.3738  0.5074 -0.0567
  158MOL0     C21678  11.082   8.612   5.144 -0.0646  0.3296 -0.2637
  158MOL0     C21679  11.232   8.633   5.179 -0.2154  0.5551 -0.1711
  158MOL0     C21680  11.252   8.725   5.296  0.8997  0.4499  0.2802
  158MOL0     C21681  11.397   8.764   5.334 -0.0367 -1.2278 -0.1614
  158MOL0     C21682  11.475   8.817   5.217  0.1197 -1.2351  0.3224
  158MOL0     N21683  11.599   8.876   5.258 -1.1405  0.7299  0.2700
  158MOL0     C21684  11.716   8.868   5.187 -0.4783 -0.3698  0.2568
  158MOL0     C21685  11.822   8.911   5.261  0.0015  0.3338 -0.3049
  158MOL0     C21686  11.966   8.910   5.218 -0.1051 -0.7126 -0.5535
  158MOL0     C21687  12.016   9.029   5.129  0.5505 -0.2584  0.6740
  158MOL0     C21688  12.014   9.162   5.213  0.8460  0.2231  0.1041
  158MOL0     C21689  12.119   9.168   5.320 -0.0952 -0.2943 -1.2701
  158MOL0     O21690  12.259   9.154   5.281 -0.1896 -0.1203  0.1050
  158MOL0     C21691  12.357   9.157   5.384  0.5622  1.3455  0.6453
  158MOL0     C21692  12.347   9.087   5.503 -0.3673 -0.3255  0.4754
  158MOL0     C21693  12.454   9.082   5.597  0.4371 -0.0738  0.3376
  158MOL0     C21694  12.421   9.006   5.726 -0.1745  0.3264  0.2291
  158MOL0     C21695  12.578   9.152   5.575  1.0776 -0.2206  0.2808
  158MOL0     C21696  12.682   9.159   5.668 -0.8861 -1.0770 -0.1956
  158MOL0     O21697  12.746   9.274   5.668 -0.0689  0.1429 -0.7092
  158MOL0     C21698  12.875   9.282   5.724  1.1706 -0.8642  0.0167
  158MOL0     C21699  12.904   9.257   5.860  0.1071 -0.2005 -0.0885
  158MOL0     C21700  13.034   9.271   5.908 -0.5799 -0.1603  0.0965
  158MOL0     C21701  13.136   9.310   5.823 -0.1100  0.1010  0.4013
  158MOL0     O21702  13.260   9.324   5.867 -0.0796 -0.1524 -0.1211
  158MOL0     C21703  13.309   9.288   5.999 -0.0991  0.0842 -0.8437
  158MOL0     C21704  13.336   9.142   6.010  0.7791 -0.3543 -0.0421
  158MOL0     C21705  13.383   9.118   6.152 -0.0309  0.1702 -0.6500
  158MOL0     C21706  13.384   8.966   6.190 -0.3527  0.3279 -0.0142
  158MOL0     C21707  13.475   8.937   6.313 -0.5748 -0.0704 -0.2877
  158MOL0     C21708  13.522   8.793   6.337 -0.1529  0.3100  0.1189
  158MOL0     C21709  13.586   8.761   6.476  0.1674  0.2626  0.9141
  158MOL0     C21710  13.703   8.850   6.512  0.2429 -0.1855  0.4042
  158MOL0    Cl21711  13.845   8.861   6.400  0.0580  0.3118 -0.0489
  158MOL0     C21712  13.106   9.347   5.687  0.5990 -0.0156 -0.5506
  158MOL0     C21713  12.971   9.323   5.637 -0.4381  0.5605  0.9316
  158MOL0     O21714  12.717   9.061   5.727 -0.3462  0.1504  0.3429
  158MOL0     C21715  12.585   9.212   5.443  0.1254 -0.5142 -0.8480
  158MOL0     C21716  12.477   9.214   5.351 -0.2274 -0.7529  0.0900
  158MOL0     N21717  11.764   8.957   5.381 -0.3096  0.6289 -0.6037
  158MOL0     N21718  11.634   8.936   5.373  0.5935  0.0562 -0.2551
  158MOL0     C21719  10.720   8.083   5.024 -0.0094  0.5915 -0.1558
  158MOL0     C21720  10.643   7.975   5.079 -0.2613 -1.1070 -0.0578
  158MOL0     C21721  10.405   7.747   5.380  0.1394  0.3826 -0.2361
  158MOL0     C21722  10.306   7.819   5.446 -0.3282  0.1524  0.7877
  158MOL0     C21723  10.220   7.765   5.534 -0.3879  0.5663 -0.3348
  158MOL0     C21724  10.229   7.640   5.585 -0.0021 -0.0203  1.3194
  158MOL0     O21725  10.154   7.590   5.688 -0.6023  0.3144 -0.5250
  158MOL0     C21726  10.150   7.672   5.804 -0.3162 -0.2027  0.1840
  158MOL0     C21727  10.216   7.612   5.924 -0.1211 -0.2848 -0.7884
  158MOL0     C21728  10.363   7.588   5.901 -0.0993 -0.1561 -0.6775
  158MOL0     C21729  10.428   7.529   6.028 -0.9949 -0.0290 -0.2678
  158MOL0     C21730  10.552   7.468   6.005 -0.9637  0.6005  0.4193
  158MOL0     C21731  10.653   7.416   5.960 -0.1296  0.0658 -1.0508
  158MOL0     C21732  10.316   7.562   5.508 -0.7611 -0.9081 -1.1433
  158MOL0     C21733  10.414   7.612   5.416  0.0934  0.5328 -0.0786
  158MOL0     C21734  10.509   7.510   5.344 -0.0702 -0.0427 -0.2588
  158MOL0     H21735  10.363   8.151   5.171 -0.0849 -0.9896 -1.0601
  158MOL0     H21736  10.488   8.333   5.063  0.7260  0.4895  0.2667
  158MOL0     H21737  10.926   8.285   4.909 -1.8175 -2.6534 -0.5476
  158MOL0     H21738  10.898   8.252   5.076 -0.9736 -0.2935 -0.0424
  158MOL0     H21739  10.882   8.548   4.975  1.6012 -0.5187 -1.7838
  158MOL0     H21740  10.870   8.467   5.140  0.5003 -1.0865 -0.9180
  158MOL0     H21741  11.080   8.405   5.151  1.3869  1.5864  0.7847
  158MOL0     H21742  11.130   8.476   4.985  1.0089 -1.1091  0.4451
  158MOL0     H21743  11.054   8.693   5.076 -2.9859 -0.7818 -0.5276
  158MOL0     H21744  11.019   8.624   5.232 -1.8689 -1.5918 -1.2126
  158MOL0     H21745  11.291   8.669   5.094  0.5858  1.3628  0.7088
  158MOL0     H21746  11.268   8.532   5.200  0.4407  0.3382 -2.1107
  158MOL0     H21747  11.208   8.820   5.263  0.1059 -0.2738 -0.7743
  158MOL0     H21748  11.201   8.691   5.386  2.2013  1.6308  1.5411
  158MOL0     H21749  11.444   8.674   5.374 -0.3157 -1.2812  0.0457
  158MOL0     H21750  11.392   8.842   5.410  1.1571 -0.7747 -0.5103
  158MOL0     H21751  11.484   8.747   5.133  1.2722  2.7257 -3.1628
  158MOL0     H21752  11.410   8.892   5.171  1.4098 -0.6400 -0.6024
  158MOL0     H21753  11.731   8.828   5.087  1.0072  1.1477 -0.1753
  158MOL0     H21754  11.986   8.821   5.158  2.2873 -2.0730  2.0025
  158MOL0     H21755  12.026   8.895   5.308 -2.7234 -0.3949  1.3788
  158MOL0     H21756  12.112   9.012   5.078  0.9981  4.9113 -0.7860
  158MOL0     H21757  11.948   9.034   5.044  2.6040  0.6890 -1.0063
  158MOL0     H21758  12.031   9.246   5.145  2.2634  0.2494  0.4482
  158MOL0     H21759  11.910   9.177   5.244  0.8117  1.2127 -0.4730
  158MOL0     H21760  12.108   9.266   5.366  1.0197 -0.2706 -1.0363
  158MOL0     H21761  12.095   9.093   5.397 -0.2118  1.8493  0.8891
  158MOL0     H21762  12.261   9.025   5.525 -0.3483 -0.9003 -1.0157
  158MOL0     H21763  12.397   8.902   5.702  1.1759 -0.7385  3.0689
  158MOL0     H21764  12.330   9.041   5.776 -0.4640 -0.5013  0.3069
  158MOL0     H21765  12.498   9.016   5.802 -0.2546  1.3739  0.1922
  158MOL0     H21766  12.831   9.220   5.931  2.9663 -1.7795  2.3160
  158MOL0     H21767  13.042   9.246   6.013  0.9293 -2.9978 -0.5738
  158MOL0     H21768  13.400   9.345   6.019 -0.0511  0.0880 -1.0745
  158MOL0     H21769  13.252   9.323   6.086 -0.5322  0.0765 -1.1240
  158MOL0     H21770  13.248   9.079   5.991 -0.6517  1.2660  0.8614
  158MOL0     H21771  13.408   9.112   5.934  0.3436 -1.6696  0.0301
  158MOL0     H21772  13.322   9.166   6.229 -0.2994 -0.8024 -0.2339
  158MOL0     H21773  13.485   9.158   6.160  0.3720 -1.1556  1.5993
  158MOL0     H21774  13.427   8.912   6.105 -0.6634 -1.9987  1.2427
  158MOL0     H21775  13.284   8.925   6.211 -0.5986 -0.0627 -1.7574
  158MOL0     H21776  13.562   8.998   6.290  0.1274 -1.5782 -1.8432
  158MOL0     H21777  13.444   8.972   6.412  1.7567 -4.0460  2.0882
  158MOL0     H21778  13.604   8.765   6.269 -0.3200 -2.1921  0.8427
  158MOL0     H21779  13.439   8.726   6.313 -0.7568  1.2120 -0.3258
  158MOL0     H21780  13.633   8.665   6.455  0.2869  1.1848 -4.2794
  158MOL0     H21781  13.513   8.748   6.557 -0.3458 -2.5254  0.1007
  158MOL0     H21782  13.732   8.818   6.612  1.3896 -3.4596 -0.8421
  158MOL0     H21783  13.672   8.954   6.517  1.2952  0.1783 -0.3046
  158MOL0     H21784  13.192   9.377   5.627  1.1082 -1.0832 -0.3710
  158MOL0     H21785  12.951   9.346   5.533  0.0708 -1.2133  0.4110
  158MOL0     H21786  12.669   9.275   5.419 -1.1311  0.8446 -1.8671
  158MOL0     H21787  12.485   9.280   5.266  1.6571  0.5619  1.2079
  158MOL0     H21788  10.820   8.074   4.982 -0.9533 -3.2281 -2.0274
  158MOL0     H21789  10.682   7.875   5.064 -0.3212 -0.8016 -2.6435
  158MOL0     H21790  10.287   7.925   5.429  2.4605  0.6030 -0.0238
  158MOL0     H21791  10.134   7.821   5.570  0.3792  1.8658 -0.4536
  158MOL0     H21792  10.192   7.768   5.773 -1.2227 -0.7640 -3.2171
  158MOL0     H21793  10.047   7.693   5.836 -0.0785 -1.1613  1.6695
  158MOL0     H21794  10.166   7.518   5.948 -1.3204  0.4289 -0.4180
  158MOL0     H21795  10.204   7.678   6.011  0.2190  0.3551 -1.2138
  158MOL0     H21796  10.377   7.522   5.815 -1.1814 -1.9279  0.4458
  158MOL0     H21797  10.416   7.684   5.894  0.3472 -0.2288  1.2337
  158MOL0     H21798  10.359   7.455   6.069 -1.9797  2.0013  1.9505
  158MOL0     H21799  10.451   7.600   6.108  0.0069  0.1740 -0.7208
  158MOL0     H21800  10.737   7.373   5.910  0.0303  0.9028 -1.5215
  158MOL0     H21801  10.316   7.457   5.532  2.6651 -1.4621 -2.8753
  158MOL0     H21802  10.446   7.444   5.284 -1.2405  0.5856  0.2528
  158MOL0     H21803  10.578   7.559   5.275 -1.9027  0.7039 -1.6262
  158MOL0     H21804  10.565   7.445   5.413  1.5718  0.3832 -1.1522
  159MOL0     O21805   8.912   1.382  10.056  0.5912 -0.2429 -0.1522
  159MOL0     C21806   8.877   1.408   9.937  0.1001  0.4001  0.5383
  159MOL0     O21807   8.953   1.379   9.820 -0.5288 -0.3546 -0.3020
  159MOL0     C21808   9.081   1.323   9.828 -0.4833  0.0670 -0.2530
  159MOL0     C21809   9.169   1.349   9.938  0.2880  0.3161 -0.4965
  159MOL0     C21810   9.302   1.299   9.930 -1.1933 -0.0376 -0.3910
  159MOL0     C21811   9.349   1.215   9.823 -0.4610  0.2080  0.5591
  159MOL0     O21812   9.482   1.171   9.814 -0.4470  0.5376  0.0926
  159MOL0     C21813   9.564   1.142   9.933 -0.3818  0.2161  0.8384
  159MOL0     C21814   9.687   1.052   9.888 -0.4415 -0.2002 -0.3550
  159MOL0     C21815   9.772   1.110   9.776 -0.0437 -0.3399  0.0882
  159MOL0     C21816   9.893   1.016   9.741  0.9254 -0.8187  0.0380
  159MOL0     C21817  10.002   1.103   9.671 -0.2199 -0.4505  0.8106
  159MOL0     C21818  10.135   1.027   9.643  0.3414  0.5087  0.1890
  159MOL0     C21819  10.236   1.119   9.573  0.1102  0.3464  0.2997
  159MOL0     C21820  10.275   1.069   9.436  0.4268 -0.0919 -1.4015
  159MOL0     N21821  10.390   1.142   9.380 -0.2011  0.1211  0.7458
  159MOL0     C21822  10.523   1.140   9.420 -0.0272  0.5056  0.1967
  159MOL0     C21823  10.575   1.249   9.368  0.7223  0.4514  0.7089
  159MOL0     C21824  10.711   1.312   9.396  0.1842  0.6918  0.2417
  159MOL0     C21825  10.692   1.449   9.460 -0.3799 -0.1013  0.4940
  159MOL0     C21826  10.661   1.449   9.607 -0.2069 -0.6289  0.3314
  159MOL0     C21827  10.525   1.400   9.658 -0.0359 -0.2749 -0.1216
  159MOL0     O21828  10.420   1.467   9.585 -0.3273 -0.4109 -0.5993
  159MOL0     C21829  10.295   1.482   9.640 -0.4542 -0.4146  1.0402
  159MOL0     C21830  10.261   1.441   9.768  0.1731 -0.0141 -0.3433
  159MOL0     C21831  10.137   1.469   9.823 -1.0047 -0.2418 -0.1537
  159MOL0     C21832  10.117   1.432   9.967 -0.4032  0.7549  0.1187
  159MOL0     C21833  10.032   1.530   9.737 -0.2472  0.4872 -0.9997
  159MOL0     C21834   9.894   1.547   9.783  0.2283 -0.1293  0.2138
  159MOL0     O21835   9.807   1.572   9.679  1.1110 -0.3253  0.4946
  159MOL0     C21836   9.683   1.621   9.701  0.9358  0.1794 -0.4147
  159MOL0     C21837   9.583   1.539   9.748  0.6305  1.5031 -0.2895
  159MOL0     C21838   9.459   1.594   9.781 -0.0671  0.9707 -0.6050
  159MOL0     C21839   9.428   1.727   9.762  0.8324 -0.4914  0.8344
  159MOL0     O21840   9.308   1.789   9.792  0.1134 -0.7029  0.2117
  159MOL0     C21841   9.226   1.724   9.886  0.0964  0.0015 -0.4370
  159MOL0     C21842   9.099   1.805   9.926 -0.3819 -0.5222 -0.4791
  159MOL0     C21843   9.046   1.758  10.068 -0.9508 -0.1480 -0.3750
  159MOL0     C21844   8.900   1.784  10.101  0.1040 -0.3364  0.0759
  159MOL0     C21845   8.871   1.754  10.250 -1.0778 -0.5687  0.4456
  159MOL0     C21846   8.724   1.785  10.288  0.4999 -1.2205 -0.0442
  159MOL0     C21847   8.693   1.737  10.434 -0.4116  0.0721  0.0216
  159MOL0     C21848   8.539   1.717  10.457  0.2500 -0.2899 -0.1520
  159MOL0    Cl21849   8.495   1.573  10.365 -0.3238  0.1819 -0.2451
  159MOL0     C21850   9.526   1.811   9.709 -0.8503  0.2262  0.5651
  159MOL0     C21851   9.651   1.761   9.685 -0.2464 -0.3015  0.7413
  159MOL0     O21852   9.874   1.577   9.903  0.4627  0.4453 -0.2399
  159MOL0     C21853  10.066   1.559   9.601 -0.4288  0.6596  0.1768
  159MOL0     C21854  10.196   1.542   9.555 -0.0359  0.1428 -0.2617
  159MOL0     N21855  10.484   1.308   9.276 -0.2353  0.3988 -0.2067
  159MOL0     N21856  10.374   1.246   9.288 -0.5933  1.0741  0.0546
  159MOL0     C21857   9.258   1.186   9.717 -0.4493  0.3712 -0.5341
  159MOL0     C21858   9.122   1.240   9.725  0.7003 -0.1110  0.6138
  159MOL0     C21859   8.732   1.440   9.903  0.1661 -0.3626 -1.0484
  159MOL0     C21860   8.641   1.442  10.016 -0.5993 -0.2287 -0.6502
  159MOL0     C21861   8.506   1.480  10.000  0.3229 -0.1290  0.5024
  159MOL0     C21862   8.458   1.511   9.879 -0.7561 -0.5452  0.1512
  159MOL0     O21863   8.331   1.550   9.862 -0.3581  0.0522  0.2932
  159MOL0     C21864   8.267   1.512   9.736 -0.0428 -0.2434 -1.3079
  159MOL0     C21865   8.116   1.519   9.754 -0.3234 -0.0557 -0.8785
  159MOL0     C21866   8.037   1.424   9.852 -0.1609  0.1566 -0.0933
  159MOL0     C21867   7.892   1.435   9.811  0.0411  1.0449 -0.7153
  159MOL0     C21868   7.817   1.332   9.888 -0.6716 -0.4471  0.7600
  159MOL0     C21869   7.758   1.237   9.932  0.6484 -0.6118  0.3833
  159MOL0     C21870   8.555   1.522   9.775  0.1006  0.5126  1.0767
  159MOL0     C21871   8.690   1.490   9.779  0.4050  0.7920  0.6692
  159MOL0     C21872   8.779   1.532   9.671 -0.5915 -0.1486  0.9688
  159MOL0     H21873   9.134   1.413  10.018 -0.1400 -0.9377  0.3510
  159MOL0     H21874   9.376   1.312  10.008  0.7772  0.0452 -2.1748
  159MOL0     H21875   9.500   1.091  10.004 -3.2468  2.6337  0.1825
  159MOL0     H21876   9.602   1.235   9.976  2.2561 -0.4883  0.2260
  159MOL0     H21877   9.751   1.031   9.974  0.2062 -0.3351 -0.8659
  159MOL0     H21878   9.647   0.957   9.851 -0.7994  0.3660 -1.4664
  159MOL0     H21879   9.716   1.146   9.689 -0.5441  2.0382  1.3139
  159MOL0     H21880   9.816   1.201   9.817 -0.6551 -0.4055  0.9001
  159MOL0     H21881   9.939   0.980   9.833  0.7109 -1.1487  0.0217
  159MOL0     H21882   9.871   0.926   9.681 -1.4874 -1.3585  1.5718
  159MOL0     H21883  10.024   1.181   9.745  0.9044  1.7683 -1.7158
  159MOL0     H21884   9.971   1.157   9.581  0.1603 -1.6704 -0.0754
  159MOL0     H21885  10.171   0.991   9.740  0.5837 -0.0039 -0.0881
  159MOL0     H21886  10.109   0.941   9.581 -1.9656  0.8238  0.6304
  159MOL0     H21887  10.325   1.138   9.633  1.0819  4.5245 -2.0214
  159MOL0     H21888  10.193   1.219   9.559 -2.2453  0.0800  4.2613
  159MOL0     H21889  10.299   0.963   9.447  1.1067  0.1609 -0.3497
  159MOL0     H21890  10.193   1.091   9.366  1.3947  1.6573 -2.0338
  159MOL0     H21891  10.571   1.069   9.487  0.7389  2.0963  1.4284
  159MOL0     H21892  10.773   1.314   9.306  0.9827  1.7570  0.7972
  159MOL0     H21893  10.751   1.247   9.474 -3.6608 -0.9778  1.1063
  159MOL0     H21894  10.783   1.509   9.456  0.1652 -0.8912  0.8313
  159MOL0     H21895  10.614   1.498   9.401 -1.7878 -0.6356  1.8457
  159MOL0     H21896  10.738   1.386   9.653 -0.2940 -1.8375 -1.0984
  159MOL0     H21897  10.679   1.551   9.639 -0.5090 -0.9558  1.5769
  159MOL0     H21898  10.522   1.292   9.648  0.2400 -0.2348 -0.6785
  159MOL0     H21899  10.532   1.427   9.764 -0.1659  0.1002 -0.2072
  159MOL0     H21900  10.341   1.411   9.835  0.9405  2.5201 -0.0160
  159MOL0     H21901  10.117   1.516  10.036  0.7769  0.2029  0.8191
  159MOL0     H21902  10.190   1.359  10.002 -1.0951 -0.4970 -0.9139
  159MOL0     H21903  10.023   1.376   9.968  0.4165 -0.6836  1.4060
  159MOL0     H21904   9.603   1.435   9.773 -1.8314  1.2412  0.8929
  159MOL0     H21905   9.383   1.531   9.826  0.7599  0.7696  0.5557
  159MOL0     H21906   9.182   1.636   9.839 -1.2990  0.5629 -0.2103
  159MOL0     H21907   9.286   1.692   9.972  0.2637 -0.9935 -0.9105
  159MOL0     H21908   9.128   1.908   9.943  0.1105 -0.5585 -1.0880
  159MOL0     H21909   9.018   1.787   9.855  0.6574 -0.3541 -1.7265
  159MOL0     H21910   9.119   1.790  10.143  0.5153 -2.1076 -0.8954
  159MOL0     H21911   9.057   1.649  10.060  1.5701  0.1231 -1.7405
  159MOL0     H21912   8.846   1.728  10.024 -0.7828  2.0178 -1.1308
  159MOL0     H21913   8.876   1.889  10.083 -0.2284 -0.1847  1.3719
  159MOL0     H21914   8.889   1.648  10.265  1.6360 -0.2736 -0.0845
  159MOL0     H21915   8.935   1.805  10.323 -3.1415  4.9948 -1.0539
  159MOL0     H21916   8.653   1.732  10.223 -1.8609 -0.7618  1.9824
  159MOL0     H21917   8.702   1.891  10.277  1.7442 -0.7515  1.6722
  159MOL0     H21918   8.741   1.814  10.495  0.5102 -1.7636  1.7250
  159MOL0     H21919   8.745   1.646  10.463  2.2410  1.2217 -0.8157
  159MOL0     H21920   8.476   1.803  10.435 -0.0720 -0.3600  0.4889
  159MOL0     H21921   8.533   1.695  10.564  3.2873 -0.4667  0.0571
  159MOL0     H21922   9.500   1.915   9.693  0.7987  0.9804  2.3922
  159MOL0     H21923   9.732   1.827   9.655 -1.0871 -0.3900 -2.0434
  159MOL0     H21924   9.987   1.602   9.540  0.0418  0.8363 -0.3094
  159MOL0     H21925  10.238   1.558   9.456  1.9677 -1.9816  0.1507
  159MOL0     H21926   9.299   1.119   9.641  1.4974 -0.0575  0.8197
  159MOL0     H21927   9.053   1.214   9.645  0.2885 -1.8791  1.4823
  159MOL0     H21928   8.676   1.425  10.117 -0.7498  2.5676 -0.0435
  159MOL0     H21929   8.439   1.475  10.086  0.9501  1.4128  1.1271
  159MOL0     H21930   8.307   1.576   9.656  4.1033 -0.6445  0.1877
  159MOL0     H21931   8.291   1.408   9.712 -1.7244 -1.1264  0.6004
  159MOL0     H21932   8.074   1.499   9.655 -2.7605  1.3348 -0.2183
  159MOL0     H21933   8.085   1.623   9.769  0.7800  0.4335 -1.8556
  159MOL0     H21934   8.069   1.319   9.850 -2.9376 -0.7484 -1.3161
  159MOL0     H21935   8.059   1.466   9.951 -0.0383 -1.2532  0.4991
  159MOL0     H21936   7.873   1.409   9.707 -1.5511  0.8188 -0.4053
  159MOL0     H21937   7.840   1.527   9.840 -2.1373  0.0499 -1.2650
  159MOL0     H21938   7.691   1.164   9.972  1.5511 -0.6090  1.9593
  159MOL0     H21939   8.518   1.554   9.678  3.4218 -2.9942 -1.6792
  159MOL0     H21940   8.805   1.444   9.610  0.7670 -0.0534  1.3671
  159MOL0     H21941   8.734   1.598   9.597  0.3283 -3.6177 -3.1292
  159MOL0     H21942   8.873   1.575   9.708 -0.0693 -0.9287  0.5925
  160MOL0     O21943   5.347   7.303   6.302  0.4933  0.3549  0.1786
  160MOL0     C21944   5.344   7.179   6.295 -0.5282 -0.1343 -0.3262
  160MOL0     O21945   5.452   7.101   6.251  0.2357 -0.5200  0.1342
  160MOL0     C21946   5.574   7.167   6.232 -0.1553  0.1028 -0.6175
  160MOL0     C21947   5.633   7.248   6.338  0.2168 -0.9089  0.9670
  160MOL0     C21948   5.762   7.295   6.324  0.1860 -0.7056  0.8887
  160MOL0     C21949   5.835   7.261   6.208 -0.2651 -0.2043 -0.0588
  160MOL0     O21950   5.970   7.290   6.186 -0.2215 -0.3269 -0.6361
  160MOL0     C21951   6.040   7.384   6.276  0.2132 -0.2240  1.2177
  160MOL0     C21952   6.180   7.427   6.237 -1.0566  0.3654  1.3306
  160MOL0     C21953   6.257   7.521   6.325  0.8972 -0.0063 -0.2576
  160MOL0     C21954   6.409   7.512   6.299  0.2006  0.4000 -0.2921
  160MOL0     C21955   6.483   7.612   6.393 -1.0553  0.0275  0.6484
  160MOL0     C21956   6.632   7.604   6.354 -0.2092 -0.4991 -0.3070
  160MOL0     C21957   6.717   7.676   6.455  0.1758 -0.5025  0.2667
  160MOL0     C21958   6.866   7.662   6.433 -0.4684 -0.7597  0.0227
  160MOL0     N21959   6.948   7.730   6.529 -0.0930  0.0823 -0.6860
  160MOL0     C21960   6.975   7.678   6.659 -0.1831  0.2179 -0.2150
  160MOL0     C21961   7.004   7.790   6.732  0.2767  1.5245  0.5182
  160MOL0     C21962   7.038   7.786   6.875  0.1587 -0.0595  0.6882
  160MOL0     C21963   7.188   7.773   6.906  0.4712 -0.2948 -0.6024
  160MOL0     C21964   7.249   7.912   6.881  0.1899 -0.0526  0.4527
  160MOL0     C21965   7.395   7.911   6.917  0.1816  0.1684  0.2505
  160MOL0     O21966   7.469   7.832   6.821  0.4072 -0.1041  0.5796
  160MOL0     C21967   7.604   7.819   6.863  0.8605  0.2083 -0.6951
  160MOL0     C21968   7.650   7.714   6.943 -0.0555  0.0545 -0.6167
  160MOL0     C21969   7.780   7.703   7.001  0.4127  0.4642  0.0247
  160MOL0     C21970   7.805   7.587   7.094  0.3304  0.2416  0.3027
  160MOL0     C21971   7.871   7.797   6.971 -0.6786  0.9338  0.1931
  160MOL0     C21972   8.009   7.809   7.028 -0.5331 -0.3364 -0.0157
  160MOL0     O21973   8.100   7.839   6.932  0.1471  0.3085 -0.6016
  160MOL0     C21974   8.229   7.892   6.959 -0.1354 -0.3025 -0.3468
  160MOL0     C21975   8.277   7.925   7.083  0.4550  0.1652 -0.2361
  160MOL0     C21976   8.409   7.968   7.099  0.7611  0.3491  0.0480
  160MOL0     C21977   8.499   7.966   6.985 -0.4141  0.6278 -0.1019
  160MOL0     O21978   8.629   7.996   7.016 -0.5853 -0.2306  0.4743
  160MOL0     C21979   8.736   7.983   6.921 -0.3182 -0.6096  0.5221
  160MOL0     C21980   8.760   7.837   6.879 -0.2504 -0.3562 -0.8338
  160MOL0     C21981   8.889   7.811   6.799  0.2424  0.0436 -0.4763
  160MOL0     C21982   9.014   7.797   6.893  0.0999 -0.3911  0.7215
  160MOL0     C21983   9.131   7.754   6.802 -0.0655 -0.1304 -0.2439
  160MOL0     C21984   9.268   7.755   6.875 -0.2316 -0.1925 -0.7609
  160MOL0     C21985   9.383   7.707   6.781  0.4223 -0.2805  0.1850
  160MOL0     C21986   9.517   7.694   6.846  0.2315  0.5625  0.9492
  160MOL0    Cl21987   9.627   7.625   6.734 -0.4421 -0.0295 -0.4809
  160MOL0     C21988   8.446   7.928   6.858  0.0541 -0.2274 -1.1973
  160MOL0     C21989   8.309   7.899   6.851  0.9246  0.4579 -0.2850
  160MOL0     O21990   8.026   7.779   7.140  0.0096 -0.3219 -0.5989
  160MOL0     C21991   7.829   7.907   6.888  0.4654 -0.2629  0.2970
  160MOL0     C21992   7.700   7.915   6.833  0.5849 -0.5460 -0.6813
  160MOL0     N21993   6.989   7.905   6.655 -0.0941  0.3964 -0.2633
  160MOL0     N21994   6.959   7.866   6.536 -0.0051  0.4798  0.1731
  160MOL0     C21995   5.778   7.174   6.116  0.0393  0.8781  0.6648
  160MOL0     C21996   5.642   7.131   6.116 -0.6443  0.2721  0.1610
  160MOL0     C21997   5.209   7.105   6.310 -0.5669 -0.0282  0.4179
  160MOL0     C21998   5.211   6.971   6.284  0.1563 -0.5825  0.1502
  160MOL0     C21999   5.099   6.894   6.290  0.6174 -0.4377  0.7660
  160MOL0     C22000   4.977   6.943   6.316 -0.4125  0.1539  0.7511
  160MOL0     O22001   4.887   6.844   6.323 -0.7437 -0.1235  1.2324
  160MOL0     C22002   4.762   6.884   6.368 -0.0140 -0.2132  0.3140
  160MOL0     C22003   4.682   6.755   6.385 -0.0015  0.6208  0.0338
  160MOL0     C22004   4.530   6.768   6.367 -0.2748 -0.1625 -0.3817
  160MOL0     C22005   4.457   6.882   6.441 -0.3566  0.7123 -0.2817
  160MOL0     C22006   4.317   6.868   6.417  0.0206 -0.1089  0.2394
  160MOL0     C22007   4.196   6.849   6.408 -0.1755 -1.0816  0.1807
  160MOL0     C22008   4.968   7.076   6.352 -0.4077  0.5598 -0.0568
  160MOL0     C22009   5.086   7.157   6.355  0.0712  0.6708 -0.1017
  160MOL0     C22010   5.060   7.297   6.416 -0.0731 -0.3816  0.4895
  160MOL0     H22011   5.578   7.277   6.427  1.0420  3.6751  0.2524
  160MOL0     H22012   5.807   7.360   6.399  1.9152 -0.3602 -0.3908
  160MOL0     H22013   6.059   7.336   6.372  0.7822  0.4421  1.4527
  160MOL0     H22014   5.978   7.473   6.292  0.2597 -0.6020  3.9790
  160MOL0     H22015   6.238   7.335   6.232 -2.3831 -0.4441 -0.4292
  160MOL0     H22016   6.167   7.470   6.137 -2.3144 -0.0756  1.2840
  160MOL0     H22017   6.222   7.625   6.320  1.2721  0.4101  3.1877
  160MOL0     H22018   6.237   7.501   6.431 -2.3314  1.5663 -0.4299
  160MOL0     H22019   6.439   7.410   6.324 -2.4645 -0.0445  1.5578
  160MOL0     H22020   6.434   7.525   6.193  2.1208  0.3947  0.1293
  160MOL0     H22021   6.462   7.586   6.497 -1.0893  0.1512  0.6726
  160MOL0     H22022   6.441   7.712   6.374 -1.2223 -0.2516 -0.5574
  160MOL0     H22023   6.654   7.497   6.353 -0.6514 -0.7260  3.0022
  160MOL0     H22024   6.641   7.645   6.253  0.0170 -1.8984 -0.8754
  160MOL0     H22025   6.692   7.635   6.553 -1.0749  1.4826  0.8488
  160MOL0     H22026   6.675   7.777   6.462  0.2578 -0.5522  1.8820
  160MOL0     H22027   6.905   7.560   6.444 -0.6078 -0.9510 -1.1683
  160MOL0     H22028   6.892   7.686   6.329  1.6823 -1.2987  0.3762
  160MOL0     H22029   6.965   7.574   6.687  1.5843  0.3813  1.1552
  160MOL0     H22030   6.996   7.688   6.896 -3.4323  0.7369 -1.8519
  160MOL0     H22031   6.981   7.860   6.932  1.7312  1.5796  0.2367
  160MOL0     H22032   7.209   7.746   7.010 -2.4073  2.4344  0.8550
  160MOL0     H22033   7.230   7.691   6.847 -3.4907 -2.7896 -0.3209
  160MOL0     H22034   7.233   7.942   6.778 -1.6471 -3.1822 -0.3084
  160MOL0     H22035   7.196   7.979   6.950  0.3575 -1.7349  2.3294
  160MOL0     H22036   7.421   8.018   6.912  2.2887 -0.3321 -0.5724
  160MOL0     H22037   7.414   7.877   7.019 -2.4062 -1.5197  0.2551
  160MOL0     H22038   7.577   7.636   6.957 -0.8935  0.2768 -3.2060
  160MOL0     H22039   7.804   7.623   7.198 -0.5814  1.5922 -0.1437
  160MOL0     H22040   7.904   7.543   7.088 -0.5239 -1.5317 -2.5728
  160MOL0     H22041   7.730   7.509   7.080 -1.2025  1.6271  0.3593
  160MOL0     H22042   8.221   7.912   7.175  0.1443 -3.7446 -0.7881
  160MOL0     H22043   8.452   7.983   7.197 -0.6550  6.0258  0.1253
  160MOL0     H22044   8.734   8.060   6.843 -1.4777  0.1821  1.2923
  160MOL0     H22045   8.827   8.014   6.973  0.2872 -0.2128 -0.7347
  160MOL0     H22046   8.773   7.772   6.966  1.9222  1.0848 -0.0053
  160MOL0     H22047   8.674   7.800   6.823  1.3007 -1.0869 -2.8557
  160MOL0     H22048   8.909   7.891   6.727 -2.8685  1.8866  0.5257
  160MOL0     H22049   8.872   7.718   6.743 -2.3928 -1.3632  2.3751
  160MOL0     H22050   8.996   7.738   6.983 -1.2138 -0.3287  0.5114
  160MOL0     H22051   9.046   7.895   6.929  0.2261 -0.1018 -0.1322
  160MOL0     H22052   9.113   7.659   6.752  2.5843 -1.1565  0.6148
  160MOL0     H22053   9.138   7.831   6.725 -2.4083  1.6206  1.1371
  160MOL0     H22054   9.269   7.677   6.951 -0.3381 -0.7847 -1.3624
  160MOL0     H22055   9.281   7.857   6.913 -3.1321  0.7605 -2.0454
  160MOL0     H22056   9.389   7.773   6.694 -0.5597  0.0751  0.3728
  160MOL0     H22057   9.364   7.608   6.737  0.9942 -0.8456  1.1632
  160MOL0     H22058   9.519   7.618   6.925  1.7457 -0.8653 -0.4008
  160MOL0     H22059   9.556   7.788   6.886  1.0287  0.1869  1.0806
  160MOL0     H22060   8.507   7.922   6.769 -0.1746  0.0297 -1.3745
  160MOL0     H22061   8.259   7.857   6.765 -0.5011  1.1134  0.2006
  160MOL0     H22062   7.904   7.979   6.857 -0.6309  1.0295  0.5672
  160MOL0     H22063   7.679   7.988   6.757 -0.8137 -2.0101 -1.7651
  160MOL0     H22064   5.844   7.140   6.037  0.6166  1.9630  0.6519
  160MOL0     H22065   5.604   7.062   6.042  1.6102  0.9775 -1.7648
  160MOL0     H22066   5.297   6.911   6.255 -0.8986 -2.5498  0.9778
  160MOL0     H22067   5.114   6.788   6.270 -0.0566 -0.2157 -1.0768
  160MOL0     H22068   4.774   6.949   6.456 -0.6528  2.3097 -1.3618
  160MOL0     H22069   4.723   6.943   6.285  2.4907  2.4001  0.8396
  160MOL0     H22070   4.709   6.728   6.488  3.4702  0.8169 -0.7126
  160MOL0     H22071   4.712   6.670   6.323 -5.7755  0.0114 -2.5268
  160MOL0     H22072   4.504   6.778   6.261  1.1488 -1.6907 -0.9152
  160MOL0     H22073   4.487   6.674   6.402 -3.0714  1.1492 -0.0521
  160MOL0     H22074   4.492   6.979   6.405 -0.1035  2.3100  3.8296
  160MOL0     H22075   4.472   6.875   6.549 -2.8277  1.6807  0.1944
  160MOL0     H22076   4.094   6.819   6.393 -1.0293  1.7341 -0.1036
  160MOL0     H22077   4.873   7.109   6.393 -1.5699 -2.1154 -0.4069
  160MOL0     H22078   5.143   7.364   6.392  1.2655 -1.9811  0.4963
  160MOL0     H22079   4.970   7.339   6.369 -0.2294 -0.1007  1.0355
  160MOL0     H22080   5.057   7.279   6.523 -2.4105 -0.7884  0.4058
  161MOL0     O22081   4.539   2.401   2.963  0.0728 -0.8472  1.1752
  161MOL0     C22082   4.588   2.322   3.041  0.5226 -0.4461 -0.3531
  161MOL0     O22083   4.678   2.360   3.138  0.6630  0.4485 -0.4142
  161MOL0     C22084   4.753   2.478   3.127  1.2804  0.1456  0.1796
  161MOL0     C22085   4.771   2.550   3.241  0.0658 -1.3789  0.2103
  161MOL0     C22086   4.832   2.673   3.232  0.5597 -1.6457  0.6173
  161MOL0     C22087   4.889   2.724   3.115  0.7033  0.6882  0.1902
  161MOL0     O22088   4.943   2.847   3.104 -0.0278 -0.7306 -0.2784
  161MOL0     C22089   4.991   2.902   3.231 -0.2958 -0.9508  0.4376
  161MOL0     C22090   5.087   3.014   3.194  0.6548  0.1548 -0.6914
  161MOL0     C22091   5.210   2.962   3.131 -0.3129  0.6279 -1.3655
  161MOL0     C22092   5.321   2.942   3.226  0.1002 -0.0863  0.0680
  161MOL0     C22093   5.456   2.926   3.164  0.3569  0.1034 -0.5176
  161MOL0     C22094   5.524   3.055   3.120  0.0939 -0.4443 -0.5282
  161MOL0     C22095   5.621   3.051   2.993  0.4444  0.1197  0.3536
  161MOL0     C22096   5.764   3.016   3.013  0.2693 -0.3268 -0.0523
  161MOL0     N22097   5.791   2.892   3.091 -0.3484 -0.2737 -0.2168
  161MOL0     C22098   5.786   2.765   3.051 -0.1710 -0.1184  0.4052
  161MOL0     C22099   5.815   2.692   3.163 -0.1199  0.0636 -0.8682
  161MOL0     C22100   5.818   2.539   3.188  0.3463 -0.8714 -0.1523
  161MOL0     C22101   5.952   2.492   3.130 -0.6407  0.0977  0.6597
  161MOL0     C22102   5.938   2.346   3.074 -0.0586  0.1222 -0.3926
  161MOL0     C22103   6.059   2.288   2.994  0.3359 -0.3093 -0.6507
  161MOL0     O22104   6.176   2.292   3.075 -0.4043  0.2287 -0.0395
  161MOL0     C22105   6.301   2.281   3.018 -0.2841  0.3553 -0.0559
  161MOL0     C22106   6.326   2.226   2.894 -0.5440 -0.6557 -0.8774
  161MOL0     C22107   6.463   2.204   2.852 -0.1377 -0.3216 -0.4319
  161MOL0     C22108   6.483   2.133   2.719  0.0073 -0.2434  0.1814
  161MOL0     C22109   6.578   2.255   2.939  0.3349  0.8771  0.6237
  161MOL0     C22110   6.720   2.250   2.903  0.1789  1.0398  0.1537
  161MOL0     O22111   6.808   2.287   3.004 -0.4445 -0.6143 -0.0615
  161MOL0     C22112   6.931   2.239   3.009 -0.7681 -0.5023  0.0581
  161MOL0     C22113   7.012   2.304   3.110  0.3043 -0.2027 -0.2974
  161MOL0     C22114   7.138   2.259   3.138 -0.6420  0.0046 -0.4482
  161MOL0     C22115   7.193   2.149   3.074  0.8881 -0.0275  0.5549
  161MOL0     O22116   7.311   2.089   3.094 -0.9221  0.3115  0.1023
  161MOL0     C22117   7.417   2.157   3.162  0.1758 -0.0538 -0.2734
  161MOL0     C22118   7.545   2.083   3.190  0.2509 -0.4559  0.0597
  161MOL0     C22119   7.643   2.066   3.081  0.2293 -0.5327  0.1223
  161MOL0     C22120   7.718   2.200   3.051 -0.8104  0.7791 -0.0112
  161MOL0     C22121   7.826   2.177   2.954 -0.7286  0.1922  0.0240
  161MOL0     C22122   7.885   2.311   2.926 -0.7456  0.2990 -0.6183
  161MOL0     C22123   8.013   2.298   2.842 -0.4910  0.0440 -0.0570
  161MOL0     C22124   8.103   2.414   2.817  0.0078  0.2095 -0.7799
  161MOL0    Cl22125   8.183   2.439   2.980 -0.0918 -0.5552  0.2349
  161MOL0     C22126   7.121   2.087   2.971  0.2724 -0.6785  0.1924
  161MOL0     C22127   6.990   2.127   2.939 -0.4377 -0.8648  0.5432
  161MOL0     O22128   6.750   2.237   2.786 -0.5783 -0.1642  0.6416
  161MOL0     C22129   6.538   2.312   3.056 -0.6366  0.3234 -0.2107
  161MOL0     C22130   6.403   2.317   3.098  0.7081 -0.2364 -0.1436
  161MOL0     N22131   5.833   2.774   3.271  0.1625 -1.0571  0.1910
  161MOL0     N22132   5.817   2.902   3.223  0.3420  0.2692  0.3949
  161MOL0     C22133   4.880   2.642   3.005  0.5486  0.2270  0.4555
  161MOL0     C22134   4.820   2.521   3.007 -1.4916  0.6723 -0.0804
  161MOL0     C22135   4.513   2.198   3.044  0.1635  0.1367  0.1858
  161MOL0     C22136   4.373   2.194   3.062 -0.4898 -0.4268  0.1244
  161MOL0     C22137   4.302   2.077   3.079 -0.4973  0.4694  0.2254
  161MOL0     C22138   4.377   1.956   3.078  0.3990 -0.3369  0.2264
  161MOL0     O22139   4.312   1.832   3.079  0.0206 -0.7945 -0.4473
  161MOL0     C22140   4.285   1.793   2.949 -1.2660  0.5236  0.2897
  161MOL0     C22141   4.147   1.731   2.958  0.0473 -0.2752 -0.0528
  161MOL0     C22142   4.047   1.852   2.969 -0.6791 -0.4260  0.8169
  161MOL0     C22143   3.906   1.811   2.953 -1.3585  0.3316 -0.1119
  161MOL0     C22144   3.818   1.925   2.984  0.3507 -0.1698  0.7089
  161MOL0     C22145   3.740   2.014   3.008 -0.1307  0.1864  0.2799
  161MOL0     C22146   4.518   1.949   3.062 -0.0667 -0.2332 -0.3112
  161MOL0     C22147   4.583   2.077   3.045 -0.5186  0.4074  0.7949
  161MOL0     C22148   4.733   2.070   3.030  0.1239  0.5190  0.0201
  161MOL0     H22149   4.740   2.526   3.342  0.4020 -1.1916  0.3591
  161MOL0     H22150   4.828   2.746   3.313 -0.4969  2.9036 -3.1172
  161MOL0     H22151   5.049   2.835   3.295 -1.1591 -3.2221 -1.0251
  161MOL0     H22152   4.911   2.933   3.300  0.2262  2.3048 -0.2452
  161MOL0     H22153   5.019   3.069   3.128  0.6177  0.6349 -0.2593
  161MOL0     H22154   5.108   3.064   3.289  2.6384 -1.8592  0.0188
  161MOL0     H22155   5.185   2.869   3.080  0.6323 -1.0217  1.0069
  161MOL0     H22156   5.246   3.041   3.065  0.5083 -0.3701 -2.1427
  161MOL0     H22157   5.332   3.029   3.291  0.0118  0.0654 -0.1174
  161MOL0     H22158   5.297   2.853   3.284 -3.9726  0.0593 -1.1018
  161MOL0     H22159   5.438   2.860   3.078 -2.2292 -0.0107  0.0394
  161MOL0     H22160   5.526   2.874   3.230 -0.1273  0.9335  0.6691
  161MOL0     H22161   5.452   3.134   3.100  1.7125  2.7955  4.5597
  161MOL0     H22162   5.581   3.100   3.202  0.2233  1.2202 -1.4941
  161MOL0     H22163   5.614   3.143   2.934  0.4606 -1.1335 -1.6584
  161MOL0     H22164   5.564   2.977   2.937  0.5180 -0.1026  0.5725
  161MOL0     H22165   5.819   3.012   2.918  0.2074  0.2567 -0.1153
  161MOL0     H22166   5.805   3.094   3.077 -1.2582 -2.0939  3.3571
  161MOL0     H22167   5.763   2.726   2.953  3.9807  0.5486 -1.0713
  161MOL0     H22168   5.734   2.495   3.134  1.4528 -2.5197 -0.6495
  161MOL0     H22169   5.806   2.514   3.294 -1.2751 -0.6837 -0.2735
  161MOL0     H22170   5.983   2.558   3.048 -0.6896 -1.0404 -0.3048
  161MOL0     H22171   6.031   2.497   3.206 -0.6831 -0.0109  0.7112
  161MOL0     H22172   5.926   2.278   3.159  0.9906  0.5305  0.1060
  161MOL0     H22173   5.845   2.328   3.019 -1.2564 -2.6616  2.2512
  161MOL0     H22174   6.043   2.183   2.969 -1.8756 -0.5358  1.3417
  161MOL0     H22175   6.069   2.339   2.898 -0.4632 -1.4097 -1.3444
  161MOL0     H22176   6.239   2.191   2.839  0.7276 -2.4409 -1.8644
  161MOL0     H22177   6.573   2.071   2.724  1.2804  1.5735  1.0042
  161MOL0     H22178   6.504   2.213   2.647  2.9172 -0.8690  0.2100
  161MOL0     H22179   6.398   2.068   2.697  0.4078 -0.3357 -1.2041
  161MOL0     H22180   6.975   2.393   3.160  0.4975 -0.5280  0.4379
  161MOL0     H22181   7.198   2.304   3.217 -0.9420  1.4200 -1.0052
  161MOL0     H22182   7.447   2.249   3.111  1.1501  0.6020  1.4173
  161MOL0     H22183   7.375   2.182   3.260 -0.6904 -1.8328 -0.1395
  161MOL0     H22184   7.595   2.141   3.268 -0.2379 -0.2789  0.2438
  161MOL0     H22185   7.509   1.985   3.222  1.8943 -1.4240 -0.9414
  161MOL0     H22186   7.599   2.040   2.984  0.1596 -0.4568  0.1333
  161MOL0     H22187   7.713   1.988   3.114  1.2080  0.3820  0.2851
  161MOL0     H22188   7.762   2.236   3.145 -0.8705  2.6186 -0.6429
  161MOL0     H22189   7.652   2.273   3.003  0.0382  0.9582 -0.9288
  161MOL0     H22190   7.904   2.113   2.997 -0.3804  1.2682  1.0357
  161MOL0     H22191   7.781   2.132   2.865  3.5255 -0.5443 -2.0041
  161MOL0     H22192   7.905   2.364   3.020  1.9176 -0.4600 -0.7055
  161MOL0     H22193   7.815   2.380   2.877  0.9329  0.8845 -2.2965
  161MOL0     H22194   7.977   2.260   2.746  1.1585  1.5139 -1.3358
  161MOL0     H22195   8.075   2.218   2.883  0.2482 -0.4944 -2.1185
  161MOL0     H22196   8.044   2.496   2.775  0.1850  0.7464  0.0017
  161MOL0     H22197   8.184   2.391   2.747  1.0732 -0.0598  0.4965
  161MOL0     H22198   7.170   1.996   2.938  0.7533 -0.4230  0.2041
  161MOL0     H22199   6.951   2.093   2.844 -0.6205  1.3362 -0.2206
  161MOL0     H22200   6.607   2.365   3.120  0.7650  2.0498 -2.9267
  161MOL0     H22201   6.378   2.370   3.190  0.4438  1.7112 -1.2703
  161MOL0     H22202   4.916   2.676   2.908 -1.9159 -0.8149 -0.9203
  161MOL0     H22203   4.814   2.466   2.914  0.6251 -0.9691  0.6647
  161MOL0     H22204   4.319   2.287   3.077 -2.5260 -1.4690 -0.3325
  161MOL0     H22205   4.196   2.077   3.100 -1.0195  0.3754 -2.1872
  161MOL0     H22206   4.290   1.869   2.870  0.6266  0.5340  0.3848
  161MOL0     H22207   4.352   1.714   2.916 -0.7574  1.0892 -0.0679
  161MOL0     H22208   4.148   1.668   3.047  2.4350  2.0865  1.7909
  161MOL0     H22209   4.123   1.667   2.873 -0.6175  0.6454 -0.5805
  161MOL0     H22210   4.059   1.901   3.066 -3.4553  2.5202 -0.1528
  161MOL0     H22211   4.068   1.924   2.889  0.5793 -0.6185  0.9540
  161MOL0     H22212   3.882   1.737   3.030  1.6584 -1.4634 -0.7173
  161MOL0     H22213   3.883   1.774   2.853  0.8609 -0.1736 -0.5014
  161MOL0     H22214   3.667   2.087   3.035  0.8662  1.8717 -1.4214
  161MOL0     H22215   4.575   1.856   3.066 -0.4186 -0.4313  0.1708
  161MOL0     H22216   4.790   2.154   3.070  0.6971  0.8725 -1.4425
  161MOL0     H22217   4.770   1.985   3.088 -1.5884  1.1479  2.1485
  161MOL0     H22218   4.758   2.049   2.925  1.6563  1.2614  0.2131
  162MOL0     O22219   0.300  11.260   7.043  0.7523  0.5943 -0.0003
  162MOL0     C22220   0.272  11.146   6.996 -0.0801 -1.1509 -0.3154
  162MOL0     O22221   0.360  11.087   6.907 -0.6403  0.7303 -0.3258
  162MOL0     C22222   0.415  11.161   6.803 -0.6149 -0.3738 -0.2886
  162MOL0     C22223   0.547  11.211   6.830  0.8667 -0.6202 -0.5360
  162MOL0     C22224   0.602  11.293   6.739 -0.1694  0.0732  0.5394
  162MOL0     C22225   0.533  11.330   6.620  0.5750  1.0204 -0.3382
  162MOL0     O22226   0.617  11.387   6.529 -0.1585  0.3743 -0.3310
  162MOL0     C22227   0.559  11.485   6.446  0.5769 -0.4992  0.9653
  162MOL0     C22228   0.670  11.525   6.348 -0.1882 -0.4985  1.2952
  162MOL0     C22229   0.767  11.624   6.410  0.5364 -0.1968  0.3880
  162MOL0     C22230   0.896  11.654   6.321  1.0076  0.1337 -0.1968
  162MOL0     C22231   0.979  11.742   6.407  0.4726 -1.0533 -0.0343
  162MOL0     C22232   1.114  11.780   6.334  0.6756  0.1988  0.2823
  162MOL0     C22233   1.178  11.889   6.408 -0.2708 -0.0838 -0.3387
  162MOL0     C22234   1.302  11.956   6.336 -0.2652 -0.9708  0.2733
  162MOL0     N22235   1.423  11.879   6.333 -0.1066 -0.2935 -0.2682
  162MOL0     C22236   1.466  11.781   6.238 -0.9554 -0.1085 -0.5699
  162MOL0     C22237   1.600  11.764   6.252 -0.1135 -0.4148 -0.0906
  162MOL0     C22238   1.699  11.667   6.196 -0.5377  0.7379  0.5095
  162MOL0     C22239   1.682  11.526   6.253  0.4038  0.1889 -0.3585
  162MOL0     C22240   1.734  11.503   6.389  0.6112  0.6164 -0.5782
  162MOL0     C22241   1.670  11.378   6.456 -0.5436  1.0283  0.1848
  162MOL0     O22242   1.669  11.259   6.375  0.0024 -0.1637 -0.0552
  162MOL0     C22243   1.789  11.197   6.357  0.4150  0.6452  0.0245
  162MOL0     C22244   1.777  11.080   6.283 -0.3970 -0.1872 -0.5489
  162MOL0     C22245   1.877  10.986   6.267 -0.8707 -0.9292  0.3794
  162MOL0     C22246   1.844  10.867   6.186 -0.0021  0.1323 -0.0316
  162MOL0     C22247   2.000  11.020   6.318  0.3340  0.9702  1.0738
  162MOL0     C22248   2.128  10.938   6.286 -0.0512  0.4727 -1.0082
  162MOL0     O22249   2.231  10.972   6.358 -0.2660 -0.0235 -0.2780
  162MOL0     C22250   2.330  10.885   6.373  0.3327 -0.2387 -0.4021
  162MOL0     C22251   2.339  10.791   6.474 -0.3833  0.7038  0.3793
  162MOL0     C22252   2.440  10.690   6.471 -0.0158 -0.5267 -0.1980
  162MOL0     C22253   2.539  10.695   6.375  0.2543 -0.6182  0.2765
  162MOL0     O22254   2.642  10.600   6.376 -0.3447  0.3355 -0.2997
  162MOL0     C22255   2.608  10.456   6.366  0.4645  0.1720 -0.0466
  162MOL0     C22256   2.735  10.380   6.399 -0.1828  0.3487  0.0795
  162MOL0     C22257   2.697  10.230   6.420 -0.2098  0.4301  1.0841
  162MOL0     C22258   2.823  10.148   6.462 -0.2734  0.1981  0.6676
  162MOL0     C22259   2.805   9.997   6.466  0.1491  0.7029  0.1347
  162MOL0     C22260   2.936   9.911   6.481 -0.7372  0.2765  0.1724
  162MOL0     C22261   2.916   9.757   6.497 -0.2514  0.2479 -0.6280
  162MOL0     C22262   2.858   9.684   6.370 -0.0579  0.5919 -0.4128
  162MOL0    Cl22263   2.994   9.692   6.250  0.0681 -0.4824  0.1097
  162MOL0     C22264   2.536  10.796   6.284 -0.1871 -0.3350 -0.1785
  162MOL0     C22265   2.436  10.892   6.286  0.9125  0.5927 -0.2325
  162MOL0     O22266   2.127  10.845   6.202 -0.6719  0.3496  0.4831
  162MOL0     C22267   2.012  11.135   6.401 -0.1837  0.1250 -0.3799
  162MOL0     C22268   1.912  11.218   6.425 -1.1028 -0.6027 -0.2871
  162MOL0     N22269   1.636  11.853   6.353 -0.2434  0.3416  0.0226
  162MOL0     N22270   1.538  11.922   6.401  0.8845  0.0143  0.1012
  162MOL0     C22271   0.404  11.278   6.592 -0.0397 -0.6122 -0.1647
  162MOL0     C22272   0.343  11.200   6.686 -0.2766  0.0238  0.4435
  162MOL0     C22273   0.144  11.086   7.032 -0.1509  0.6874 -0.0803
  162MOL0     C22274   0.060  11.156   7.120  1.1830 -0.3078  0.2180
  162MOL0     C22275  -0.064  11.100   7.166 -0.2546  0.2955 -0.1301
  162MOL0     C22276  -0.106  10.987   7.111 -0.8794 -0.5214 -0.5134
  162MOL0     O22277  -0.238  10.953   7.147  0.2636 -0.4033 -0.1504
  162MOL0     C22278  -0.255  10.868   7.264 -0.6612  0.9917  1.1191
  162MOL0     C22279  -0.217  10.718   7.254 -0.5763  0.3790 -0.1619
  162MOL0     C22280  -0.327  10.649   7.167 -0.6897  0.2356 -0.8768
  162MOL0     C22281  -0.261  10.520   7.107  0.9381 -0.5649 -0.3917
  162MOL0     C22282  -0.362  10.435   7.043 -0.6966 -0.1686 -0.0781
  162MOL0     C22283  -0.453  10.378   6.985  0.2112  0.1871 -0.3565
  162MOL0     C22284  -0.024  10.915   7.018  0.2354  1.1213  0.0532
  162MOL0     C22285   0.101  10.958   6.978  0.2609  0.3316  0.0864
  162MOL0     C22286   0.185  10.869   6.887 -0.1406 -0.1699 -0.0395
  162MOL0     H22287   0.594  11.189   6.925  2.4108  0.9274 -0.8933
  162MOL0     H22288   0.696  11.341   6.765 -0.0143  0.8538 -1.3373
  162MOL0     H22289   0.536  11.576   6.501  0.1624  0.7504 -1.1460
  162MOL0     H22290   0.471  11.454   6.389  0.6181 -1.8439  1.6013
  162MOL0     H22291   0.724  11.439   6.307 -1.4300  0.0630 -1.8164
  162MOL0     H22292   0.616  11.577   6.268  0.8523  0.7597  1.3764
  162MOL0     H22293   0.710  11.717   6.427  0.7138 -0.1753  0.8792
  162MOL0     H22294   0.793  11.574   6.504 -2.4310 -2.8601 -0.0201
  162MOL0     H22295   0.956  11.563   6.309  0.3127 -0.4194  0.4535
  162MOL0     H22296   0.877  11.705   6.226  0.8761 -2.3186 -1.5650
  162MOL0     H22297   1.009  11.700   6.504  1.7430 -0.6036 -0.2118
  162MOL0     H22298   0.936  11.841   6.428  3.0366  0.1821 -0.2621
  162MOL0     H22299   1.185  11.697   6.341  1.6117  1.0400  0.9614
  162MOL0     H22300   1.096  11.799   6.228 -0.5768 -1.0800  0.2311
  162MOL0     H22301   1.229  11.849   6.496  1.8769  0.5616 -1.2237
  162MOL0     H22302   1.110  11.971   6.431 -1.9787 -0.1559 -4.4349
  162MOL0     H22303   1.267  11.979   6.235 -1.3979 -3.4319  0.0189
  162MOL0     H22304   1.320  12.049   6.390  2.1684 -1.5184  0.5128
  162MOL0     H22305   1.416  11.737   6.153  0.3993  0.8868 -1.9525
  162MOL0     H22306   1.801  11.702   6.212 -0.9038  1.1218  2.2343
  162MOL0     H22307   1.681  11.668   6.089 -1.0213  2.6203  0.5714
  162MOL0     H22308   1.577  11.492   6.254  0.6375 -0.6216 -1.5530
  162MOL0     H22309   1.744  11.469   6.183 -2.1081  0.5330 -3.0867
  162MOL0     H22310   1.842  11.488   6.382  0.4865  0.4534 -4.2747
  162MOL0     H22311   1.707  11.592   6.447 -1.1648  0.7869 -1.5944
  162MOL0     H22312   1.710  11.358   6.556  0.0112  0.2313 -0.1835
  162MOL0     H22313   1.565  11.389   6.484 -0.0059 -0.9058  3.3749
  162MOL0     H22314   1.684  11.070   6.227 -1.0331 -0.8867  0.5892
  162MOL0     H22315   1.736  10.856   6.172 -1.0582  3.6641  3.3647
  162MOL0     H22316   1.882  10.774   6.230 -0.4648 -0.1428 -0.1984
  162MOL0     H22317   1.906  10.882   6.097  0.2462 -0.9062 -0.0414
  162MOL0     H22318   2.267  10.782   6.555  1.7293  0.0749  2.2938
  162MOL0     H22319   2.439  10.608   6.541 -2.6268 -1.1820 -0.9004
  162MOL0     H22320   2.535  10.438   6.445 -0.2311 -1.7243 -1.0653
  162MOL0     H22321   2.569  10.425   6.269  3.9511  1.5125 -2.0664
  162MOL0     H22322   2.795  10.388   6.307 -2.7106 -0.8861 -1.8042
  162MOL0     H22323   2.780  10.420   6.490  1.8721 -1.9177  0.1702
  162MOL0     H22324   2.664  10.175   6.331  0.3438 -0.5812  1.4772
  162MOL0     H22325   2.618  10.230   6.495 -1.2511 -1.0267  0.0281
  162MOL0     H22326   2.853  10.180   6.563  1.4168 -2.2896  1.0407
  162MOL0     H22327   2.901  10.165   6.388 -0.4478  0.0929  0.4596
  162MOL0     H22328   2.735   9.969   6.545  0.2151 -4.2658 -1.2470
  162MOL0     H22329   2.753   9.962   6.376 -1.8654 -1.4308  1.9958
  162MOL0     H22330   2.988   9.940   6.572  0.4930 -0.0053 -0.4180
  162MOL0     H22331   2.996   9.929   6.391  0.5764  0.4285  1.0567
  162MOL0     H22332   2.861   9.735   6.589  1.9632 -0.4065  0.6116
  162MOL0     H22333   3.016   9.719   6.521 -0.0717  0.2419 -1.3436
  162MOL0     H22334   2.771   9.741   6.335 -0.3012 -0.1096 -0.9763
  162MOL0     H22335   2.834   9.578   6.387  1.4655  0.4423  1.1041
  162MOL0     H22336   2.618  10.815   6.216 -0.1922 -0.0971 -0.1189
  162MOL0     H22337   2.434  10.974   6.215 -1.9121  0.5384 -0.3336
  162MOL0     H22338   2.111  11.160   6.436 -0.0028  0.0407 -0.8229
  162MOL0     H22339   1.936  11.314   6.468  1.7048  0.4145 -3.6147
  162MOL0     H22340   0.359  11.309   6.498 -2.8767  1.5559  1.7217
  162MOL0     H22341   0.239  11.167   6.685 -0.7514  1.3102  1.7663
  162MOL0     H22342   0.077  11.257   7.156  0.4904 -0.2007  0.2478
  162MOL0     H22343  -0.130  11.142   7.241 -1.4405 -0.6427 -0.6266
  162MOL0     H22344  -0.190  10.908   7.342  4.7100 -0.7195 -1.9173
  162MOL0     H22345  -0.356  10.871   7.305  0.3026 -1.0820  4.0568
  162MOL0     H22346  -0.212  10.676   7.355  0.8265  2.0790  0.5416
  162MOL0     H22347  -0.121  10.701   7.204 -2.1342 -1.5205 -2.7546
  162MOL0     H22348  -0.417  10.613   7.219  0.0184 -0.3724 -0.0469
  162MOL0     H22349  -0.346  10.722   7.088  0.2371  3.1571  1.4374
  162MOL0     H22350  -0.215  10.464   7.189  1.3969  0.3606  0.0020
  162MOL0     H22351  -0.184  10.540   7.032  1.7535 -1.1410  0.2742
  162MOL0     H22352  -0.522  10.308   6.943  1.8801 -1.5283 -0.3752
  162MOL0     H22353  -0.070  10.821   6.987 -1.2699  1.3404  1.4388
  162MOL0     H22354   0.183  10.897   6.782 -1.0501 -0.5918 -0.1457
  162MOL0     H22355   0.290  10.861   6.916 -0.4607 -0.0118  1.2578
  162MOL0     H22356   0.135  10.772   6.894 -1.3202  0.4500  0.6054
  163MOL0     O22357   1.348   4.722   7.125  0.1950 -0.8093  0.0023
  163MOL0     C22358   1.256   4.802   7.111 -0.1771  0.0631  0.0184
  163MOL0     O22359   1.262   4.926   7.156  0.4658 -0.5433  0.0511
  163MOL0     C22360   1.367   4.965   7.238  0.0999  0.2208  0.1707
  163MOL0     C22361   1.434   5.087   7.217  0.0292  0.0746 -0.3766
  163MOL0     C22362   1.529   5.137   7.304 -0.8184  0.2713  0.6084
  163MOL0     C22363   1.573   5.053   7.411 -0.4983 -0.0596  0.2727
  163MOL0     O22364   1.677   5.101   7.490 -0.2502 -0.2564  0.4121
  163MOL0     C22365   1.642   5.099   7.624 -0.3246 -1.0838 -0.5975
  163MOL0     C22366   1.754   5.188   7.693  0.0917 -0.3919 -0.1648
  163MOL0     C22367   1.735   5.340   7.675 -0.7271 -0.3867  0.1407
  163MOL0     C22368   1.826   5.424   7.761  0.7939  0.2811  0.0151
  163MOL0     C22369   1.804   5.576   7.743 -0.4555  0.5931  1.0711
  163MOL0     C22370   1.889   5.659   7.832 -0.1880  0.4998 -0.1470
  163MOL0     C22371   1.833   5.658   7.975 -0.1102  0.1195  0.0102
  163MOL0     C22372   1.907   5.749   8.068 -0.6085 -0.4022  0.1677
  163MOL0     N22373   1.838   5.880   8.086 -0.0506 -0.1582  0.1227
  163MOL0     C22374   1.866   5.995   8.017 -0.8932  0.5268  0.7406
  163MOL0     C22375   1.762   6.077   8.038  0.1443 -0.1207 -0.9673
  163MOL0     C22376   1.745   6.207   7.974 -0.1964  0.3542  0.4507
  163MOL0     C22377   1.806   6.331   8.044 -0.0668  0.1750 -0.8185
  163MOL0     C22378   1.783   6.330   8.203  0.3183  0.9863  0.4384
  163MOL0     C22379   1.871   6.229   8.293  0.7045  0.1178 -0.6540
  163MOL0     O22380   2.009   6.224   8.253  0.3964  0.3272 -0.0092
  163MOL0     C22381   2.070   6.101   8.245  0.3282 -0.3165  0.5443
  163MOL0     C22382   2.034   6.003   8.330 -0.2337 -0.1959 -0.4722
  163MOL0     C22383   2.100   5.880   8.331  0.3762 -0.5343 -0.5355
  163MOL0     C22384   2.045   5.778   8.438  0.0301  0.1791 -0.2858
  163MOL0     C22385   2.210   5.858   8.249  0.5809  0.1248 -0.6086
  163MOL0     C22386   2.300   5.744   8.267 -0.4626 -0.0304 -0.8646
  163MOL0     O22387   2.407   5.730   8.176  0.7573 -0.9371  0.3124
  163MOL0     C22388   2.491   5.626   8.186 -0.0773  0.1686 -0.4762
  163MOL0     C22389   2.569   5.606   8.299  0.6177  0.0371  0.0327
  163MOL0     C22390   2.668   5.512   8.304 -0.3190  0.2045  0.9616
  163MOL0     C22391   2.681   5.413   8.202  0.8347  0.1027 -0.2370
  163MOL0     O22392   2.772   5.314   8.227 -0.3908  0.4640  0.0575
  163MOL0     C22393   2.754   5.180   8.176  0.5135 -0.2197 -0.1291
  163MOL0     C22394   2.849   5.077   8.241  0.5693 -0.8614  0.3375
  163MOL0     C22395   2.817   4.926   8.215  0.4087 -0.2228  0.3015
  163MOL0     C22396   2.922   4.853   8.289 -0.3445  0.2945 -0.2796
  163MOL0     C22397   2.910   4.702   8.281  0.1621  0.1514 -0.7173
  163MOL0     C22398   2.942   4.648   8.148 -0.3171  0.2328  0.7244
  163MOL0     C22399   2.905   4.494   8.129 -0.2229 -0.0712  0.2703
  163MOL0     C22400   2.946   4.462   7.978 -0.4222  0.1080 -0.6491
  163MOL0    Cl22401   3.122   4.482   7.956 -0.1074  0.1605 -0.4650
  163MOL0     C22402   2.602   5.433   8.088  0.1207  0.7048 -0.4173
  163MOL0     C22403   2.511   5.541   8.079  0.8236  0.5059 -0.5860
  163MOL0     O22404   2.273   5.650   8.346  0.0205 -0.0946 -0.0709
  163MOL0     C22405   2.245   5.959   8.152  0.4018 -0.3674  0.0306
  163MOL0     C22406   2.176   6.082   8.155 -0.8445  0.4502 -0.4323
  163MOL0     N22407   1.672   6.011   8.124  0.5811  0.1938  0.3612
  163MOL0     N22408   1.723   5.893   8.162 -0.2359  0.3871  0.2743
  163MOL0     C22409   1.507   4.932   7.435 -0.5581  0.0117 -0.7077
  163MOL0     C22410   1.396   4.896   7.353 -1.0983 -0.1975  0.4466
  163MOL0     C22411   1.141   4.767   7.024 -0.3172 -0.1947  0.0775
  163MOL0     C22412   1.066   4.879   6.972  0.2110 -0.7532  0.4158
  163MOL0     C22413   0.962   4.854   6.879 -0.0475  1.1428 -0.0355
  163MOL0     C22414   0.933   4.728   6.837  0.4461  0.1384 -0.3492
  163MOL0     O22415   0.838   4.712   6.733 -0.4429 -0.0786  0.0496
  163MOL0     C22416   0.905   4.749   6.609 -0.0021 -0.2393 -0.6223
  163MOL0     C22417   0.831   4.691   6.491 -0.2962 -0.0019  0.0232
  163MOL0     C22418   0.680   4.718   6.509 -0.3748 -0.0176  0.2725
  163MOL0     C22419   0.609   4.668   6.387  0.3165  0.6245 -0.1969
  163MOL0     C22420   0.467   4.647   6.406  0.2751  0.1643 -1.2731
  163MOL0     C22421   0.348   4.628   6.433 -0.1580  0.3868  0.5047
  163MOL0     C22422   1.004   4.620   6.892  0.2669 -0.3965 -0.0074
  163MOL0     C22423   1.106   4.642   6.981 -0.1761  0.0097 -0.2693
  163MOL0     C22424   1.172   4.512   7.015  0.9604 -0.6286 -0.1642
  163MOL0     H22425   1.393   5.153   7.142  0.3864 -0.3839 -0.9899
  163MOL0     H22426   1.576   5.233   7.288 -1.9525  0.4765 -1.9637
  163MOL0     H22427   1.644   4.999   7.669  2.9125 -0.9327 -0.1481
  163MOL0     H22428   1.548   5.149   7.648 -0.7978  0.0795 -4.2399
  163MOL0     H22429   1.758   5.152   7.796  0.3937  2.5953  0.9908
  163MOL0     H22430   1.850   5.152   7.657  0.3640  0.7675 -0.6524
  163MOL0     H22431   1.771   5.360   7.574  0.1260  2.6557  0.9270
  163MOL0     H22432   1.631   5.371   7.686 -1.0175 -0.4698 -2.0239
  163MOL0     H22433   1.812   5.381   7.860  2.6929 -1.6509 -0.4845
  163MOL0     H22434   1.930   5.410   7.730  1.1587  0.5377  1.0777
  163MOL0     H22435   1.701   5.605   7.764 -1.1970  0.4935 -2.0043
  163MOL0     H22436   1.832   5.601   7.640  1.5214  0.4663  1.5254
  163MOL0     H22437   1.994   5.629   7.822  0.0907  1.9227 -2.1632
  163MOL0     H22438   1.873   5.762   7.800 -4.2394 -0.1019 -0.5245
  163MOL0     H22439   1.843   5.557   8.016 -0.1589  0.3599  0.6323
  163MOL0     H22440   1.728   5.687   7.970 -0.4987 -1.2210 -0.0037
  163MOL0     H22441   1.914   5.698   8.164  3.1618 -1.3362 -0.4741
  163MOL0     H22442   2.005   5.765   8.024  0.3485 -3.0413  1.1758
  163MOL0     H22443   1.948   6.012   7.948 -0.4586  0.4834  1.2406
  163MOL0     H22444   1.635   6.214   7.974 -0.3290 -1.1247 -0.6713
  163MOL0     H22445   1.788   6.196   7.874  0.8718 -2.9081  1.1535
  163MOL0     H22446   1.915   6.329   8.032  0.1712 -1.9081  0.8357
  163MOL0     H22447   1.768   6.425   8.004  0.5911 -0.0127 -1.9155
  163MOL0     H22448   1.781   6.434   8.237 -4.4205  0.4075  2.8423
  163MOL0     H22449   1.685   6.288   8.229  1.1164 -1.1189  0.1899
  163MOL0     H22450   1.880   6.277   8.391  0.4749 -0.6345 -0.2562
  163MOL0     H22451   1.822   6.133   8.310  3.4507 -1.2627  0.1184
  163MOL0     H22452   1.959   6.024   8.405 -1.0131  1.1131 -1.5706
  163MOL0     H22453   2.023   5.685   8.386 -1.4311  1.4507 -2.0771
  163MOL0     H22454   1.955   5.821   8.484  0.4966  1.0523 -0.1675
  163MOL0     H22455   2.124   5.767   8.513  0.0480  0.3978 -0.2705
  163MOL0     H22456   2.570   5.675   8.384  0.3117 -0.1467  0.1865
  163MOL0     H22457   2.731   5.509   8.391  1.8591  0.0541 -0.5391
  163MOL0     H22458   2.656   5.155   8.219  0.6770  0.9862  1.0269
  163MOL0     H22459   2.761   5.176   8.067 -1.1914  1.2298 -0.3410
  163MOL0     H22460   2.949   5.098   8.201  0.4089 -1.3005 -0.3278
  163MOL0     H22461   2.855   5.091   8.349 -2.0269  0.9657  0.3331
  163MOL0     H22462   2.826   4.920   8.106 -0.6595 -3.0382  0.3046
  163MOL0     H22463   2.717   4.904   8.253  1.5300 -0.0501  3.6605
  163MOL0     H22464   2.906   4.883   8.393 -1.8431 -0.8696 -0.1456
  163MOL0     H22465   3.024   4.885   8.265 -0.3105 -0.1186 -0.7127
  163MOL0     H22466   2.968   4.651   8.359 -3.4328 -3.7175 -0.1885
  163MOL0     H22467   2.806   4.672   8.299  0.0264  0.6429 -0.6671
  163MOL0     H22468   3.048   4.668   8.130 -0.2205  0.6009  1.6534
  163MOL0     H22469   2.897   4.711   8.072 -1.7569 -0.2437  1.1434
  163MOL0     H22470   2.798   4.476   8.139 -0.2015 -0.7551 -0.6047
  163MOL0     H22471   2.954   4.431   8.204  2.0550  1.2631  0.0107
  163MOL0     H22472   2.898   4.535   7.912 -0.0368  0.4738 -0.5304
  163MOL0     H22473   2.911   4.362   7.954  2.0907 -0.7707 -0.9408
  163MOL0     H22474   2.610   5.361   8.007 -0.4092 -0.1938  0.3162
  163MOL0     H22475   2.452   5.540   7.988 -2.3318 -1.4655  1.2936
  163MOL0     H22476   2.324   5.932   8.084  1.3784 -1.5656  1.5760
  163MOL0     H22477   2.201   6.158   8.081  0.0075 -2.2872 -3.1946
  163MOL0     H22478   1.538   4.862   7.511  3.6209 -0.0178 -2.1857
  163MOL0     H22479   1.336   4.810   7.383 -3.2367  2.3006  4.1789
  163MOL0     H22480   1.078   4.982   7.001  0.6217 -0.3651 -1.0274
  163MOL0     H22481   0.913   4.939   6.832 -1.6853 -0.2883 -1.0525
  163MOL0     H22482   0.890   4.857   6.611 -0.7357 -0.3233  1.8242
  163MOL0     H22483   1.013   4.730   6.604 -0.3930 -3.5905  1.0384
  163MOL0     H22484   0.835   4.582   6.500 -0.7279  0.1243  2.1085
  163MOL0     H22485   0.869   4.720   6.392  0.9530  0.3461  0.5865
  163MOL0     H22486   0.636   4.676   6.600 -1.8414 -2.1621 -1.3391
  163MOL0     H22487   0.659   4.825   6.522 -1.9558  0.2722 -3.5246
  163MOL0     H22488   0.650   4.574   6.349 -1.9534 -1.1145  1.3849
  163MOL0     H22489   0.635   4.738   6.307  1.7046  0.8763  0.4505
  163MOL0     H22490   0.242   4.611   6.444 -0.1080 -0.0681  0.3219
  163MOL0     H22491   0.985   4.519   6.858 -0.6162 -0.9101  1.8552
  163MOL0     H22492   1.103   4.429   6.995 -1.4477  1.6886 -2.3517
  163MOL0     H22493   1.256   4.498   6.946  3.8543  2.6533  2.3413
  163MOL0     H22494   1.212   4.509   7.117  0.5349 -0.5753  0.0057
  164MOL0     O22495   5.305   0.061   5.811  0.2062  0.0145  0.1199
  164MOL0     C22496   5.300   0.184   5.802  0.2566 -0.5670 -0.3248
  164MOL0     O22497   5.406   0.267   5.774  0.4686 -0.6563  0.4243
  164MOL0     C22498   5.525   0.232   5.711 -0.1855  0.3423 -1.0459
  164MOL0     C22499   5.611   0.337   5.688 -0.1333  0.8263 -0.6650
  164MOL0     C22500   5.727   0.315   5.616  0.5629  0.0931 -0.0444
  164MOL0     C22501   5.771   0.177   5.601  1.0291 -0.2028  0.7148
  164MOL0     O22502   5.884   0.137   5.537  0.0058  0.7343 -0.6542
  164MOL0     C22503   5.994   0.230   5.533  0.3854  0.0870  0.0215
  164MOL0     C22504   6.120   0.152   5.508 -0.2738  0.7302 -0.2932
  164MOL0     C22505   6.229   0.262   5.514  0.0218  0.1069 -0.2355
  164MOL0     C22506   6.364   0.199   5.488 -0.2649  0.1954  0.5851
  164MOL0     C22507   6.481   0.307   5.483  1.0182 -0.6353  0.4340
  164MOL0     C22508   6.614   0.260   5.419 -0.2660  0.4556 -0.1095
  164MOL0     C22509   6.703   0.216   5.536 -0.2558 -0.1148  0.2923
  164MOL0     C22510   6.841   0.153   5.487  0.7433 -0.3982 -0.2831
  164MOL0     N22511   6.948   0.244   5.451 -0.0695 -0.6517 -0.1385
  164MOL0     C22512   7.041   0.291   5.539  0.5232 -0.4197  0.0885
  164MOL0     C22513   7.144   0.336   5.460  0.3258 -1.0917 -0.5962
  164MOL0     C22514   7.257   0.403   5.523 -0.7219 -0.8282 -0.0358
  164MOL0     C22515   7.350   0.288   5.565 -0.8536 -0.2654 -0.1169
  164MOL0     C22516   7.470   0.344   5.641 -0.4585 -0.5462  0.0313
  164MOL0     C22517   7.588   0.248   5.646  0.4397 -0.9731 -0.0185
  164MOL0     O22518   7.665   0.263   5.527 -0.1954  0.0770  0.2036
  164MOL0     C22519   7.800   0.226   5.524 -0.0258 -0.2700  0.7625
  164MOL0     C22520   7.852   0.144   5.621 -0.1644 -0.0644  0.6787
  164MOL0     C22521   7.979   0.088   5.611 -0.6368  0.0508  0.0108
  164MOL0     C22522   8.030  -0.000   5.731 -0.0420  0.0390  0.2649
  164MOL0     C22523   8.070   0.136   5.508  0.3324 -0.0207 -0.3638
  164MOL0     C22524   8.219   0.098   5.489 -0.5634 -0.2762 -0.5963
  164MOL0     O22525   8.286   0.168   5.392  0.3544  0.1543 -0.2411
  164MOL0     C22526   8.426   0.164   5.373  0.0566  0.7550 -0.2796
  164MOL0     C22527   8.487   0.241   5.276  0.4197  0.2226  0.3575
  164MOL0     C22528   8.626   0.257   5.270 -0.4140  0.2789  0.2844
  164MOL0     C22529   8.710   0.195   5.365 -1.1428  1.1624 -0.0010
  164MOL0     O22530   8.848   0.202   5.349  0.2085  0.1122  0.2510
  164MOL0     C22531   8.899   0.074   5.303 -0.6055 -0.0290 -0.3072
  164MOL0     C22532   9.046   0.083   5.250 -0.3808 -0.2544 -0.5749
  164MOL0     C22533   9.091  -0.065   5.222  0.1759  0.3042 -0.2687
  164MOL0     C22534   9.235  -0.088   5.192 -0.4933  0.8165  0.1158
  164MOL0     C22535   9.257  -0.077   5.040  0.1212  0.3854  0.3092
  164MOL0     C22536   9.400  -0.076   4.998  0.4044  0.2733  0.1487
  164MOL0     C22537   9.467  -0.216   4.992  0.4815 -0.3177  1.3033
  164MOL0     C22538   9.622  -0.212   4.984 -0.6608  0.0892  0.6576
  164MOL0    Cl22539   9.685  -0.125   4.832  0.7673  0.1028  0.2129
  164MOL0     C22540   8.653   0.119   5.463 -0.0195 -0.5706  0.3229
  164MOL0     C22541   8.512   0.106   5.469 -0.1391 -0.5664 -0.6480
  164MOL0     O22542   8.259  -0.004   5.547 -0.4589 -0.2366 -0.4579
  164MOL0     C22543   8.014   0.226   5.414  0.3863  0.4363  0.4144
  164MOL0     C22544   7.885   0.267   5.419 -0.8338 -0.3143 -0.3665
  164MOL0     N22545   7.110   0.308   5.331 -0.3300 -0.5414  0.7004
  164MOL0     N22546   6.993   0.268   5.323 -0.5183  0.1538 -0.3150
  164MOL0     C22547   5.688   0.068   5.641  0.0259  0.1916  0.0273
  164MOL0     C22548   5.564   0.101   5.694 -0.0485  0.6488  0.1924
  164MOL0     C22549   5.170   0.255   5.842  0.2149  0.3342 -0.6688
  164MOL0     C22550   5.166   0.390   5.877 -0.2594 -0.0205 -0.3658
  164MOL0     C22551   5.053   0.454   5.919 -0.2432  0.8081 -0.3544
  164MOL0     C22552   4.937   0.380   5.945  0.4802 -0.2604 -0.0735
  164MOL0     O22553   4.816   0.427   6.000 -0.1817 -0.5055  0.2862
  164MOL0     C22554   4.806   0.569   6.029 -0.6030 -0.5883  0.7304
  164MOL0     C22555   4.657   0.607   6.048  0.3488 -0.3976 -0.1895
  164MOL0     C22556   4.634   0.754   6.075  0.2048  0.0165  0.4020
  164MOL0     C22557   4.496   0.803   6.018 -0.0171  0.8959  0.2263
  164MOL0     C22558   4.485   0.806   5.874 -0.2783  0.2799 -0.6206
  164MOL0     C22559   4.457   0.816   5.757  1.7215  0.1494  0.4401
  164MOL0     C22560   4.937   0.243   5.913  0.1003 -0.2923  0.3380
  164MOL0     C22561   5.047   0.183   5.855 -0.8683  0.5137 -0.2159
  164MOL0     C22562   5.030   0.033   5.809 -0.1199  0.2948 -0.7006
  164MOL0     H22563   5.579   0.436   5.720  0.0012  1.5042 -2.4988
  164MOL0     H22564   5.784   0.400   5.581 -3.0274  2.5684 -0.3541
  164MOL0     H22565   6.004   0.290   5.624  0.0439  2.0866 -1.1954
  164MOL0     H22566   5.981   0.298   5.448 -0.5805  2.1042  1.7002
  164MOL0     H22567   6.151   0.078   5.582  0.8471 -0.4156 -1.8291
  164MOL0     H22568   6.112   0.104   5.410 -2.4748  0.2217  0.0842
  164MOL0     H22569   6.216   0.347   5.447  1.7957  0.6487  0.0441
  164MOL0     H22570   6.232   0.298   5.617  3.7072  2.1123 -0.8401
  164MOL0     H22571   6.383   0.124   5.564  1.3288 -0.0227  0.0014
  164MOL0     H22572   6.362   0.138   5.397 -0.0786  1.0830 -0.0273
  164MOL0     H22573   6.502   0.341   5.584 -0.7404 -2.0711  1.3516
  164MOL0     H22574   6.443   0.389   5.421 -0.6817 -1.0880  0.8184
  164MOL0     H22575   6.588   0.185   5.344  2.3799  1.2667 -1.9593
  164MOL0     H22576   6.663   0.347   5.374 -2.8732  3.2081  1.9104
  164MOL0     H22577   6.647   0.137   5.588 -1.4548 -0.0130 -0.7923
  164MOL0     H22578   6.732   0.303   5.596  3.4765 -0.6100 -0.4965
  164MOL0     H22579   6.872   0.080   5.562  0.5879  1.6641  1.8892
  164MOL0     H22580   6.823   0.100   5.393 -1.3127 -2.3906  1.1461
  164MOL0     H22581   7.047   0.296   5.647  1.0633  0.4221  0.0362
  164MOL0     H22582   7.237   0.472   5.605  3.8245 -0.7864  1.3337
  164MOL0     H22583   7.317   0.454   5.448 -2.2043 -2.7848 -2.7331
  164MOL0     H22584   7.295   0.207   5.614 -1.7519  0.0161 -0.6576
  164MOL0     H22585   7.385   0.245   5.471 -2.2818 -0.4349 -0.5802
  164MOL0     H22586   7.502   0.432   5.585 -3.0512  0.9071  0.6413
  164MOL0     H22587   7.429   0.359   5.742 -2.2738 -2.2539 -0.3798
  164MOL0     H22588   7.643   0.270   5.738  1.5949 -1.2324 -0.6220
  164MOL0     H22589   7.553   0.145   5.656 -2.0507 -0.4905 -2.4627
  164MOL0     H22590   7.783   0.115   5.699 -1.6394  3.7795  1.0153
  164MOL0     H22591   8.130   0.028   5.766  0.5155 -1.2310 -0.2660
  164MOL0     H22592   8.031  -0.100   5.686  1.5607 -0.3393  1.0636
  164MOL0     H22593   7.961  -0.002   5.816  1.9744  0.8686  2.0200
  164MOL0     H22594   8.419   0.291   5.208  1.0172  2.4264  1.2644
  164MOL0     H22595   8.673   0.322   5.197 -2.8292  0.3992 -1.2640
  164MOL0     H22596   8.905  -0.007   5.376  1.0805 -0.4680 -0.8710
  164MOL0     H22597   8.840   0.034   5.220 -0.5651 -2.4937  0.7595
  164MOL0     H22598   9.043   0.147   5.161 -0.4520  1.6644  0.7531
  164MOL0     H22599   9.099   0.135   5.330 -2.9599  1.7291 -0.0518
  164MOL0     H22600   9.035  -0.115   5.142  2.0135 -1.2166 -0.6928
  164MOL0     H22601   9.068  -0.132   5.305  1.5658  0.4701  0.2852
  164MOL0     H22602   9.271  -0.187   5.222  1.3424  1.4099  0.0228
  164MOL0     H22603   9.297  -0.012   5.240 -2.1118  1.0228  1.9564
  164MOL0     H22604   9.216  -0.161   4.983  0.5355  0.4359 -0.0689
  164MOL0     H22605   9.217   0.017   5.003 -1.6906 -1.9754 -4.4708
  164MOL0     H22606   9.457  -0.029   5.079 -1.7762  0.1215  1.8328
  164MOL0     H22607   9.410  -0.016   4.907 -1.1932  3.0655  1.6822
  164MOL0     H22608   9.449  -0.271   4.899  2.4699 -0.1660  0.7933
  164MOL0     H22609   9.417  -0.265   5.076 -3.4775  2.4039  0.8614
  164MOL0     H22610   9.659  -0.314   4.974  1.3923  0.8811 -0.2773
  164MOL0     H22611   9.667  -0.163   5.070  0.0594  1.4267 -0.4391
  164MOL0     H22612   8.712   0.073   5.541 -0.3042 -0.1873  0.7734
  164MOL0     H22613   8.481   0.060   5.563  0.3736 -0.5297 -0.4605
  164MOL0     H22614   8.072   0.245   5.324 -2.5416 -0.7101 -1.8655
  164MOL0     H22615   7.838   0.327   5.341  0.3052 -2.2748 -2.6794
  164MOL0     H22616   5.720  -0.029   5.606  0.1548  0.8678 -1.8890
  164MOL0     H22617   5.506   0.020   5.737  0.3951  0.2517  0.0517
  164MOL0     H22618   5.255   0.451   5.866  0.2999 -1.0072 -1.6512
  164MOL0     H22619   5.052   0.560   5.940 -1.9262  0.7267  0.2008
  164MOL0     H22620   4.865   0.591   6.118  0.6706  0.2899 -0.2977
  164MOL0     H22621   4.844   0.634   5.949  0.0894 -2.4494 -0.5230
  164MOL0     H22622   4.622   0.554   6.138 -3.2614  0.8741 -0.6999
  164MOL0     H22623   4.600   0.579   5.959  0.7519  2.2998 -1.3847
  164MOL0     H22624   4.642   0.777   6.182  4.2157 -0.3226  0.3354
  164MOL0     H22625   4.721   0.808   6.035 -0.3712  1.3040  0.8283
  164MOL0     H22626   4.483   0.907   6.049  3.2205  2.2608 -2.4272
  164MOL0     H22627   4.409   0.751   6.058 -0.7611  1.4128 -0.6611
  164MOL0     H22628   4.459   0.837   5.652  2.6198 -1.4357  0.1038
  164MOL0     H22629   4.855   0.182   5.950 -1.6103 -0.6217 -3.5948
  164MOL0     H22630   5.095  -0.031   5.869 -1.3018 -2.2660 -1.9919
  164MOL0     H22631   4.926  -0.001   5.811 -0.2559  0.7017 -0.8788
  164MOL0     H22632   5.076   0.016   5.711  1.4965  0.3971  0.0064
  165MOL0     O22633   1.936   4.520   5.073 -0.3257  0.7914 -0.0726
  165MOL0     C22634   1.877   4.543   5.182 -0.6059  0.5073  0.2946
  165MOL0     O22635   1.933   4.530   5.301  0.2784  0.0056 -0.0081
  165MOL0     C22636   2.068   4.498   5.300  0.2008 -0.9109 -1.0623
  165MOL0     C22637   2.123   4.375   5.250  1.5167  0.4717  0.2391
  165MOL0     C22638   2.252   4.358   5.246 -0.2678  0.1667 -0.0151
  165MOL0     C22639   2.343   4.452   5.295 -0.1930 -0.7117  0.6865
  165MOL0     O22640   2.472   4.424   5.319 -0.1515 -0.5025  0.2568
  165MOL0     C22641   2.539   4.414   5.191  0.0211  0.7672  0.4003
  165MOL0     C22642   2.684   4.394   5.232 -0.2374  0.1518 -0.7855
  165MOL0     C22643   2.770   4.340   5.104  0.2995 -0.4449  0.1336
  165MOL0     C22644   2.875   4.233   5.148 -0.5098  0.0410  0.3952
  165MOL0     C22645   2.968   4.273   5.266  0.0252 -0.2948 -0.7569
  165MOL0     C22646   3.095   4.192   5.312 -0.0303 -1.3114  0.0038
  165MOL0     C22647   3.051   4.066   5.397  0.6170  0.0080  0.6994
  165MOL0     C22648   3.076   3.937   5.305  0.2142 -0.3237  0.4875
  165MOL0     N22649   3.209   3.887   5.321  0.7111 -0.1344  0.2590
  165MOL0     C22650   3.314   3.922   5.242  0.2629  0.0901 -0.1296
  165MOL0     C22651   3.418   3.850   5.293 -1.1974 -0.4968 -0.4699
  165MOL0     C22652   3.569   3.862   5.252  0.0079  0.1762  0.3950
  165MOL0     C22653   3.660   3.940   5.365  0.0481 -0.2346  0.2787
  165MOL0     C22654   3.814   3.958   5.332  0.0536  0.2186  0.8060
  165MOL0     C22655   3.890   3.847   5.263 -0.3089 -0.0050 -0.4080
  165MOL0     O22656   3.857   3.843   5.125 -0.3140  0.1749  0.3668
  165MOL0     C22657   3.955   3.791   5.041 -1.6478 -0.2645 -0.8878
  165MOL0     C22658   4.073   3.726   5.087 -0.9328  0.3150  0.4007
  165MOL0     C22659   4.175   3.679   5.001 -0.8697  1.0136  0.4062
  165MOL0     C22660   4.299   3.608   5.067  0.5058 -0.0496 -0.0782
  165MOL0     C22661   4.158   3.695   4.861  0.7767  0.5351  0.2477
  165MOL0     C22662   4.263   3.650   4.759  0.3305 -0.1781 -0.5919
  165MOL0     O22663   4.225   3.653   4.624  0.3827 -0.3134 -0.3507
  165MOL0     C22664   4.312   3.611   4.529 -0.1796 -0.3103  0.5581
  165MOL0     C22665   4.332   3.700   4.427 -0.5256  0.2145 -0.7346
  165MOL0     C22666   4.443   3.668   4.341 -0.7645  0.2167 -0.4924
  165MOL0     C22667   4.530   3.559   4.359 -0.5271  0.9313 -0.4617
  165MOL0     O22668   4.631   3.519   4.284  0.4080 -0.5236 -0.1386
  165MOL0     C22669   4.733   3.620   4.254 -0.7001  0.1160 -0.9093
  165MOL0     C22670   4.846   3.565   4.175 -0.1954  0.4364  0.2338
  165MOL0     C22671   4.800   3.468   4.066 -0.0836  0.1148  0.6942
  165MOL0     C22672   4.911   3.428   3.971 -0.2818  0.8211 -0.3722
  165MOL0     C22673   4.879   3.322   3.877 -0.3310  0.5131 -0.0937
  165MOL0     C22674   4.964   3.332   3.748  0.1238 -0.7789  0.0145
  165MOL0     C22675   4.907   3.233   3.650 -0.4150  0.5660 -0.5432
  165MOL0     C22676   4.984   3.242   3.517  0.1889  0.4201  0.3805
  165MOL0    Cl22677   5.143   3.161   3.526  0.4622 -0.0604 -0.2715
  165MOL0     C22678   4.504   3.477   4.467 -0.1227 -0.0950 -0.4548
  165MOL0     C22679   4.397   3.503   4.546  0.4570  0.2610 -0.8502
  165MOL0     O22680   4.383   3.635   4.802  0.3334  0.2253 -0.1619
  165MOL0     C22681   4.041   3.762   4.819  0.8735 -0.1317 -0.1039
  165MOL0     C22682   3.943   3.813   4.905 -0.6893 -0.7047 -0.0225
  165MOL0     N22683   3.368   3.788   5.404 -0.4687  0.0188  0.4115
  165MOL0     N22684   3.244   3.811   5.424  0.3750  0.0979  1.0885
  165MOL0     C22685   2.301   4.569   5.352 -0.5402  0.4582  0.1505
  165MOL0     C22686   2.160   4.591   5.347  0.2197  0.4725 -0.4854
  165MOL0     C22687   1.742   4.611   5.186  0.5730 -0.2100 -0.2071
  165MOL0     C22688   1.658   4.588   5.077 -0.3714 -0.5412 -0.2098
  165MOL0     C22689   1.538   4.646   5.064 -0.0314 -0.0375  0.8125
  165MOL0     C22690   1.493   4.739   5.159 -0.3604 -0.4437 -0.8364
  165MOL0     O22691   1.374   4.808   5.156  0.0381 -0.0064  0.1793
  165MOL0     C22692   1.280   4.773   5.053  1.0359 -0.7019 -0.3556
  165MOL0     C22693   1.134   4.823   5.076 -0.6192  0.1191  0.6035
  165MOL0     C22694   1.066   4.772   5.205  0.1148 -0.5631  0.4332
  165MOL0     C22695   1.121   4.843   5.323 -0.3136 -0.6581  0.3450
  165MOL0     C22696   1.054   4.809   5.449 -0.0901 -0.2119 -0.8082
  165MOL0     C22697   0.998   4.803   5.560  0.7350 -0.9404  0.6100
  165MOL0     C22698   1.577   4.774   5.265  0.3537  0.3871 -0.1172
  165MOL0     C22699   1.697   4.714   5.278  1.0578 -0.2922 -0.6093
  165MOL0     C22700   1.771   4.751   5.406 -0.5126 -0.3300 -0.3619
  165MOL0     H22701   2.059   4.304   5.198  1.7134  0.2710  0.2711
  165MOL0     H22702   2.296   4.268   5.206 -2.3091 -0.1833 -1.6201
  165MOL0     H22703   2.520   4.494   5.119  0.4694  1.7564  1.3416
  165MOL0     H22704   2.503   4.321   5.147 -0.4988  0.9556  0.4178
  165MOL0     H22705   2.731   4.486   5.267  1.7846 -0.4622 -1.7000
  165MOL0     H22706   2.684   4.328   5.319 -2.6680  1.5624  0.3660
  165MOL0     H22707   2.701   4.278   5.045 -0.5832  0.6144  0.0222
  165MOL0     H22708   2.817   4.420   5.046 -0.7099 -0.7471 -1.1578
  165MOL0     H22709   2.820   4.139   5.163  0.2583 -0.5366 -0.3029
  165MOL0     H22710   2.936   4.224   5.058  1.5837 -1.1061  1.8455
  165MOL0     H22711   2.901   4.288   5.352 -0.3305 -2.3282 -0.6340
  165MOL0     H22712   2.994   4.378   5.251  2.2573 -0.3670  1.8353
  165MOL0     H22713   3.169   4.178   5.232  1.6829 -2.3486  1.6633
  165MOL0     H22714   3.141   4.265   5.379  0.9084  1.5940 -3.4525
  165MOL0     H22715   2.944   4.068   5.419  0.8444  2.0273  1.8701
  165MOL0     H22716   3.102   4.058   5.493 -2.1419 -0.4584  2.2083
  165MOL0     H22717   3.003   3.861   5.337 -2.5358  1.5881 -0.7893
  165MOL0     H22718   3.044   3.949   5.201  1.2745 -3.9959 -0.4023
  165MOL0     H22719   3.316   3.990   5.157  1.4442  0.9807  0.5783
  165MOL0     H22720   3.574   3.928   5.165  1.1077  2.4828  2.0984
  165MOL0     H22721   3.615   3.768   5.219 -1.1142 -0.0338 -0.6168
  165MOL0     H22722   3.630   4.044   5.384  0.0577  0.2388 -1.9981
  165MOL0     H22723   3.629   3.892   5.458 -2.0248 -0.6973 -0.5982
  165MOL0     H22724   3.838   4.044   5.269  0.4596  1.8679  3.0943
  165MOL0     H22725   3.868   3.976   5.426  1.1320  0.5321  0.1394
  165MOL0     H22726   3.995   3.871   5.282 -0.6440  0.0068  1.6674
  165MOL0     H22727   3.870   3.749   5.307 -1.9303 -1.3661 -3.7939
  165MOL0     H22728   4.090   3.719   5.194  0.1841 -1.8649  0.1474
  165MOL0     H22729   4.287   3.606   5.176  1.5207  1.0490  0.0819
  165MOL0     H22730   4.390   3.665   5.044  0.8901  0.5067  2.4223
  165MOL0     H22731   4.311   3.513   5.016  0.8617 -0.5179  0.8475
  165MOL0     H22732   4.270   3.785   4.400 -3.6921 -1.4975  0.5934
  165MOL0     H22733   4.469   3.721   4.250 -0.4962 -2.0925 -1.8200
  165MOL0     H22734   4.679   3.700   4.202  0.0790  0.5254 -1.1063
  165MOL0     H22735   4.769   3.671   4.343 -2.5773  0.5344 -0.3425
  165MOL0     H22736   4.899   3.652   4.136 -0.6826 -0.1760 -1.9224
  165MOL0     H22737   4.915   3.515   4.244  0.2345  1.4892  0.5898
  165MOL0     H22738   4.723   3.515   4.003 -0.8736 -3.1370 -0.9961
  165MOL0     H22739   4.760   3.381   4.119 -0.0956  0.3752  1.1184
  165MOL0     H22740   4.998   3.404   4.034 -0.3226  0.2589 -0.5171
  165MOL0     H22741   4.949   3.520   3.927  4.4904  0.1297  1.6287
  165MOL0     H22742   4.900   3.227   3.927 -0.0445  1.2914  1.3295
  165MOL0     H22743   4.771   3.324   3.862 -0.3819 -0.2194  0.1352
  165MOL0     H22744   5.071   3.311   3.762  0.1837  0.2780  1.3657
  165MOL0     H22745   4.953   3.432   3.706 -0.6575 -0.6688  0.4635
  165MOL0     H22746   4.803   3.254   3.623 -1.3617  0.6444  2.7968
  165MOL0     H22747   4.913   3.137   3.702 -0.9521  0.7332 -0.1594
  165MOL0     H22748   5.002   3.347   3.491  0.7769  0.3013  0.3023
  165MOL0     H22749   4.933   3.197   3.432  1.7414 -1.7374  0.5253
  165MOL0     H22750   4.567   3.391   4.480  4.3526  2.3257 -3.4279
  165MOL0     H22751   4.371   3.433   4.625 -1.2538  2.8529  1.0626
  165MOL0     H22752   4.036   3.777   4.712  0.3807 -1.1297 -0.2322
  165MOL0     H22753   3.865   3.877   4.865 -0.1879  0.3917  0.6862
  165MOL0     H22754   2.367   4.633   5.409 -0.7456  1.5054 -0.7564
  165MOL0     H22755   2.115   4.677   5.397  0.9942  2.0113 -2.3511
  165MOL0     H22756   1.678   4.523   4.992 -0.9995  0.8151 -1.4386
  165MOL0     H22757   1.472   4.622   4.982 -0.5161 -1.9617  1.7104
  165MOL0     H22758   1.312   4.822   4.961  1.6963  0.7216  0.5938
  165MOL0     H22759   1.272   4.664   5.042 -1.0281 -0.6292  0.0896
  165MOL0     H22760   1.070   4.799   4.991  0.4149  3.3744 -1.2689
  165MOL0     H22761   1.138   4.931   5.091  0.4042 -0.1420  2.5949
  165MOL0     H22762   0.958   4.778   5.187  0.3323 -2.2937 -1.9856
  165MOL0     H22763   1.085   4.665   5.202  2.4799 -0.2196  1.1146
  165MOL0     H22764   1.112   4.950   5.307  1.9544 -0.6122 -1.0508
  165MOL0     H22765   1.228   4.822   5.334  0.3663  2.2447 -0.1675
  165MOL0     H22766   0.951   4.796   5.657  1.0626  1.3958  0.9885
  165MOL0     H22767   1.533   4.839   5.340 -1.4173  0.6109 -1.2636
  165MOL0     H22768   1.734   4.835   5.466  1.1005 -0.2458  0.5782
  165MOL0     H22769   1.782   4.663   5.470  1.0367  1.2494  1.6734
  165MOL0     H22770   1.871   4.781   5.375 -1.6370  3.0833 -1.1204
  166MOL0     O22771   2.576  11.261   1.359 -0.1843  0.1133 -0.2699
  166MOL0     C22772   2.486  11.328   1.414 -0.0015 -0.5260  0.3838
  166MOL0     O22773   2.499  11.394   1.531 -0.5539  0.3802 -0.1038
  166MOL0     C22774   2.613  11.373   1.596  0.4869  0.5769 -0.1289
  166MOL0     C22775   2.637  11.270   1.689 -0.1993  0.3252 -0.0432
  166MOL0     C22776   2.767  11.248   1.736  0.3666 -0.3394  0.0555
  166MOL0     C22777   2.877  11.335   1.706  0.3912  0.2797 -0.8297
  166MOL0     O22778   2.998  11.313   1.766 -0.0793  0.1947  0.7308
  166MOL0     C22779   3.109  11.365   1.700 -0.7063  0.2246 -0.0790
  166MOL0     C22780   3.228  11.307   1.785 -0.8783  1.1518  0.0782
  166MOL0     C22781   3.364  11.354   1.734 -0.0434  0.2219  0.0881
  166MOL0     C22782   3.470  11.268   1.797 -0.4481  0.4746  0.0328
  166MOL0     C22783   3.605  11.286   1.726  0.0112 -0.3828  0.7219
  166MOL0     C22784   3.710  11.189   1.779  0.0077  0.4262 -0.6068
  166MOL0     C22785   3.757  11.238   1.921  0.7690  1.3218 -0.2373
  166MOL0     C22786   3.846  11.131   1.986 -0.4569  0.2916 -0.6500
  166MOL0     N22787   3.941  11.177   2.092 -0.0994 -0.0900 -0.2840
  166MOL0     C22788   3.925  11.167   2.229 -0.2562 -0.7467 -0.1818
  166MOL0     C22789   4.032  11.237   2.279 -0.8538  0.4262  0.8832
  166MOL0     C22790   4.092  11.234   2.417 -0.3302 -0.6596  0.2784
  166MOL0     C22791   4.122  11.377   2.462  0.4329 -0.3597 -0.5238
  166MOL0     C22792   4.174  11.369   2.602 -0.8055  0.0158  0.7041
  166MOL0     C22793   4.064  11.354   2.707 -0.1255  1.4525 -0.4349
  166MOL0     O22794   4.118  11.360   2.844  0.1138 -0.0419  0.0350
  166MOL0     C22795   4.027  11.338   2.947  0.0970  0.4255 -0.7203
  166MOL0     C22796   3.924  11.246   2.945 -0.8628 -0.2198 -0.2411
  166MOL0     C22797   3.852  11.220   3.067 -0.6490 -0.0398 -0.3995
  166MOL0     C22798   3.742  11.112   3.056  0.1743 -0.4160 -0.2859
  166MOL0     C22799   3.874  11.287   3.186 -0.1548 -0.1813 -1.2543
  166MOL0     C22800   3.796  11.278   3.311  0.0654  0.1360  0.3519
  166MOL0     O22801   3.817  11.377   3.408 -0.4382 -0.1787 -0.4897
  166MOL0     C22802   3.756  11.349   3.529 -0.0431  0.0230 -0.4786
  166MOL0     C22803   3.836  11.356   3.646  0.1878 -0.8763 -1.1315
  166MOL0     C22804   3.780  11.326   3.770 -0.3124  0.4445 -0.2210
  166MOL0     C22805   3.640  11.319   3.785  0.2133  0.3205  0.5179
  166MOL0     O22806   3.567  11.297   3.897 -0.1283 -0.5834  0.2577
  166MOL0     C22807   3.644  11.311   4.015 -0.2736  0.0196  0.0994
  166MOL0     C22808   3.557  11.329   4.139  0.0467  0.3967 -0.0521
  166MOL0     C22809   3.439  11.430   4.131  0.3041  0.4397 -0.3434
  166MOL0     C22810   3.309  11.357   4.098 -0.0511 -0.1398  0.6318
  166MOL0     C22811   3.203  11.462   4.061 -0.4007 -0.7425  0.1442
  166MOL0     C22812   3.060  11.410   4.066  0.8450  0.1000 -0.4288
  166MOL0     C22813   3.012  11.340   3.945 -0.4063 -0.7532 -0.0588
  166MOL0     C22814   2.862  11.304   3.947 -0.7992  0.2196 -1.8733
  166MOL0    Cl22815   2.843  11.161   4.051 -0.0775  0.4281  0.3345
  166MOL0     C22816   3.558  11.322   3.672  0.1179  0.0560 -0.5061
  166MOL0     C22817   3.617  11.342   3.547  0.1776  0.4791 -0.7670
  166MOL0     O22818   3.717  11.181   3.328 -0.0029 -0.7634  0.1939
  166MOL0     C22819   3.986  11.374   3.179 -0.0246  0.7122 -0.4795
  166MOL0     C22820   4.049  11.409   3.059  0.4068 -0.1719 -0.3565
  166MOL0     N22821   4.098  11.298   2.167 -0.2686  0.6251 -0.3122
  166MOL0     N22822   4.048  11.252   2.058 -0.3443 -0.3830  0.3781
  166MOL0     C22823   2.848  11.448   1.624  0.4091  0.0663  0.0312
  166MOL0     C22824   2.722  11.464   1.568 -0.5614 -0.2297  1.1253
  166MOL0     C22825   2.365  11.338   1.335  0.0401 -0.1593 -0.0305
  166MOL0     C22826   2.360  11.313   1.198  0.6518  0.4547  0.6792
  166MOL0     C22827   2.236  11.304   1.130  0.2859 -0.2519 -0.4229
  166MOL0     C22828   2.120  11.343   1.190  0.0117  0.0323  0.3393
  166MOL0     O22829   2.016  11.341   1.112 -0.2387 -0.4329 -0.4758
  166MOL0     C22830   1.887  11.323   1.173 -0.8773 -0.0819 -0.7375
  166MOL0     C22831   1.776  11.389   1.098 -0.1233  0.0918  0.0799
  166MOL0     C22832   1.646  11.351   1.161  0.1659  0.2210  0.0676
  166MOL0     C22833   1.644  11.388   1.309 -0.3059 -0.0980  0.0285
  166MOL0     C22834   1.500  11.384   1.345 -0.3894  0.3688 -0.7450
  166MOL0     C22835   1.378  11.388   1.360 -0.1943  0.3541 -0.0680
  166MOL0     C22836   2.132  11.403   1.322  0.1698 -0.1921 -0.8488
  166MOL0     C22837   2.253  11.399   1.389  0.3234 -0.5286  0.9546
  166MOL0     C22838   2.242  11.459   1.524 -0.1548  0.1762  0.2282
  166MOL0     H22839   2.554  11.204   1.711 -0.4471  1.6957  3.8013
  166MOL0     H22840   2.786  11.156   1.790 -0.1192 -2.3980 -3.0212
  166MOL0     H22841   3.101  11.473   1.710  0.7388  0.4202 -0.7023
  166MOL0     H22842   3.116  11.333   1.596  0.8410 -1.9211  0.6006
  166MOL0     H22843   3.215  11.325   1.892  1.7809  0.0420  0.6646
  166MOL0     H22844   3.229  11.201   1.760 -0.7258  0.4796  2.7343
  166MOL0     H22845   3.364  11.350   1.625 -1.2804  0.2370  0.0754
  166MOL0     H22846   3.385  11.455   1.771  0.8067 -0.1867  0.7770
  166MOL0     H22847   3.477  11.288   1.905 -0.2910  1.6191 -0.1720
  166MOL0     H22848   3.439  11.164   1.783 -2.5986  1.1135 -0.2754
  166MOL0     H22849   3.643  11.388   1.740 -0.7143  0.2251 -1.4125
  166MOL0     H22850   3.589  11.267   1.620  2.2141  0.2688  0.2121
  166MOL0     H22851   3.660  11.092   1.782 -1.8726  1.3666  1.4815
  166MOL0     H22852   3.795  11.199   1.711  0.8964  0.6814  0.5128
  166MOL0     H22853   3.672  11.252   1.988  3.0725  1.0388  2.9755
  166MOL0     H22854   3.818  11.328   1.905  1.5458  0.6741 -1.0150
  166MOL0     H22855   3.785  11.048   2.021 -0.8680  0.2643 -1.4208
  166MOL0     H22856   3.915  11.092   1.911  1.3234 -0.3104  1.1703
  166MOL0     H22857   3.852  11.117   2.292 -1.9824 -0.5449 -1.9110
  166MOL0     H22858   4.186  11.178   2.412  0.3634  0.4244  0.9779
  166MOL0     H22859   4.030  11.182   2.491 -1.2234  0.3770  0.2813
  166MOL0     H22860   4.190  11.433   2.397 -0.2892  0.3322 -0.6983
  166MOL0     H22861   4.037  11.445   2.454  2.0530  1.5987 -2.1245
  166MOL0     H22862   4.253  11.294   2.605 -2.5919 -2.2109 -2.0102
  166MOL0     H22863   4.223  11.463   2.628  0.1636 -0.7740  1.8378
  166MOL0     H22864   4.001  11.444   2.706 -0.2769  1.3802  0.8907
  166MOL0     H22865   4.010  11.261   2.691  0.8577  0.8569 -0.3364
  166MOL0     H22866   3.907  11.176   2.863 -2.1321  2.1324 -2.1230
  166MOL0     H22867   3.727  11.068   2.958 -1.6606  0.0086 -0.2286
  166MOL0     H22868   3.646  11.164   3.070  1.1879  0.6722  4.6520
  166MOL0     H22869   3.760  11.037   3.134  1.5695  1.4350  1.2854
  166MOL0     H22870   3.945  11.351   3.643  0.4438  1.7439  0.5201
  166MOL0     H22871   3.849  11.328   3.854  0.9399 -4.7695 -0.7717
  166MOL0     H22872   3.712  11.225   4.017  1.0082  0.9152 -1.7814
  166MOL0     H22873   3.710  11.399   4.012 -1.1635  0.6731 -1.5871
  166MOL0     H22874   3.512  11.233   4.165 -1.6342  1.2999  0.5819
  166MOL0     H22875   3.613  11.365   4.225 -0.4073 -2.4833  1.5696
  166MOL0     H22876   3.464  11.510   4.062  1.1948  1.7125  1.3750
  166MOL0     H22877   3.415  11.477   4.227  0.7818 -0.5525  0.2780
  166MOL0     H22878   3.280  11.295   4.183  1.1534  0.4330  1.4832
  166MOL0     H22879   3.319  11.284   4.017 -0.1608 -2.6232  2.7206
  166MOL0     H22880   3.214  11.537   4.140 -2.8914  0.5781 -0.6286
  166MOL0     H22881   3.234  11.510   3.968  1.2682  1.8022  1.8771
  166MOL0     H22882   2.994  11.496   4.078 -0.4747 -0.1732 -4.3290
  166MOL0     H22883   3.042  11.347   4.153 -1.6351  2.2548  0.7540
  166MOL0     H22884   3.080  11.258   3.920  0.3824  0.3856 -1.8014
  166MOL0     H22885   3.019  11.399   3.854  0.0869  0.1100  0.5182
  166MOL0     H22886   2.832  11.274   3.846  1.3305  0.7149 -2.7152
  166MOL0     H22887   2.805  11.385   3.993 -1.6069 -1.8285  0.9522
  166MOL0     H22888   3.450  11.331   3.682  0.2967  1.1569  0.7243
  166MOL0     H22889   3.567  11.353   3.451 -0.1023 -0.4659 -0.7427
  166MOL0     H22890   4.024  11.428   3.265  0.0788  2.2343 -1.4351
  166MOL0     H22891   4.140  11.468   3.064  0.1895  0.2367 -1.1675
  166MOL0     H22892   2.922  11.517   1.586 -1.4266  2.8837  1.2909
  166MOL0     H22893   2.704  11.537   1.490 -0.6379 -1.3586  0.0680
  166MOL0     H22894   2.443  11.290   1.132 -1.4335 -1.0568 -1.5705
  166MOL0     H22895   2.233  11.269   1.027 -0.9927  3.0518 -1.6141
  166MOL0     H22896   1.870  11.215   1.182 -0.6816 -0.0085  0.9016
  166MOL0     H22897   1.896  11.354   1.278  0.7541  0.2366 -0.9367
  166MOL0     H22898   1.775  11.364   0.991 -2.5841  0.0934  0.0582
  166MOL0     H22899   1.784  11.498   1.101  3.0818 -0.0479 -0.0486
  166MOL0     H22900   1.566  11.405   1.110 -0.3174  0.4750  1.0729
  166MOL0     H22901   1.629  11.243   1.150  2.9717 -0.2066 -0.8896
  166MOL0     H22902   1.669  11.494   1.310 -0.2269 -0.1167  0.6095
  166MOL0     H22903   1.707  11.327   1.374  1.1393  0.2582 -0.9985
  166MOL0     H22904   1.272  11.393   1.373 -0.8623 -1.3268 -3.6647
  166MOL0     H22905   2.046  11.454   1.365  1.2458  1.8579 -1.0354
  166MOL0     H22906   2.140  11.495   1.540  0.1278  1.5673 -0.8269
  166MOL0     H22907   2.268  11.380   1.594 -2.1421  1.4081  2.5126
  166MOL0     H22908   2.306  11.548   1.528 -3.7806  3.1363 -1.1535
  167MOL0     O22909   8.534   8.563  10.347  0.2923 -0.3496 -0.3166
  167MOL0     C22910   8.507   8.669  10.280  0.4009 -0.2893 -0.4683
  167MOL0     O22911   8.588   8.776  10.268 -0.7903  0.3961  0.5960
  167MOL0     C22912   8.719   8.760  10.311 -0.6641  0.3741 -0.0388
  167MOL0     C22913   8.816   8.761  10.212  0.4424 -0.2466  0.5126
  167MOL0     C22914   8.942   8.733  10.261 -0.4908 -0.5903 -0.2422
  167MOL0     C22915   8.980   8.728  10.391 -0.0953  1.4026  0.3362
  167MOL0     O22916   9.110   8.692  10.425 -0.9670  0.0384 -0.2391
  167MOL0     C22917   9.119   8.590  10.530  0.3990  0.1507 -0.4102
  167MOL0     C22918   9.269   8.548  10.547 -0.6954 -0.3724  0.3312
  167MOL0     C22919   9.354   8.674  10.565  0.3407 -0.1475  0.0227
  167MOL0     C22920   9.502   8.640  10.592 -0.5996  0.5545  0.2663
  167MOL0     C22921   9.568   8.763  10.643 -0.6065  0.2378 -0.5584
  167MOL0     C22922   9.724   8.764  10.636  0.6951 -0.1130  0.2777
  167MOL0     C22923   9.774   8.743  10.495 -0.4996  0.4999  0.0077
  167MOL0     C22924   9.745   8.839  10.387  0.0421  0.5075  0.1026
  167MOL0     N22925   9.805   8.968  10.413 -0.6614 -0.0926 -0.2754
  167MOL0     C22926   9.940   8.999  10.404 -0.0822 -0.0447 -0.2985
  167MOL0     C22927   9.948   9.128  10.459 -0.3358 -0.5065  0.2377
  167MOL0     C22928  10.061   9.229  10.463 -0.3625 -0.1045  0.7548
  167MOL0     C22929  10.057   9.307  10.328  0.3776 -0.7031 -0.0936
  167MOL0     C22930  10.184   9.394  10.297 -0.0842 -0.4295 -0.2708
  167MOL0     C22931  10.213   9.484  10.410 -0.0871  0.1625  0.9496
  167MOL0     O22932  10.308   9.582  10.383  0.1002  0.0089 -0.0352
  167MOL0     C22933  10.439   9.554  10.390 -0.6831 -0.1715 -0.4011
  167MOL0     C22934  10.500   9.423  10.398 -0.5351  0.1060 -0.3377
  167MOL0     C22935  10.640   9.400  10.413  0.2490 -0.0291  0.7935
  167MOL0     C22936  10.686   9.258  10.432  0.2355  0.2027 -0.0699
  167MOL0     C22937  10.728   9.514  10.415 -0.6030  0.3306 -1.5212
  167MOL0     C22938  10.876   9.501  10.422  0.3452  0.1389  0.0809
  167MOL0     O22939  10.948   9.618  10.448 -0.1118  0.2314  0.3120
  167MOL0     C22940  11.081   9.627  10.431  0.2114 -0.1964 -0.8193
  167MOL0     C22941  11.175   9.530  10.451 -0.4602  0.3712 -0.5849
  167MOL0     C22942  11.313   9.557  10.447 -0.4065  0.3922  0.4026
  167MOL0     C22943  11.356   9.681  10.413  0.1813  0.8919  0.2321
  167MOL0     O22944  11.486   9.718  10.402  0.6886  0.1496  0.0392
  167MOL0     C22945  11.587   9.612  10.383  1.0763 -0.2112 -0.2633
  167MOL0     C22946  11.702   9.667  10.305 -0.1202  0.7260 -0.3137
  167MOL0     C22947  11.772   9.766  10.404  0.0386  0.6710  0.9033
  167MOL0     C22948  11.899   9.810  10.322  0.7473  0.2779  0.2283
  167MOL0     C22949  11.983   9.909  10.403  0.8671 -0.4621  0.5755
  167MOL0     C22950  12.019   9.874  10.552  0.0110 -0.9456 -0.7759
  167MOL0     C22951  12.098   9.746  10.574 -0.0803  0.6586 -0.3063
  167MOL0     C22952  12.102   9.711  10.725 -0.0673 -0.9102  0.1900
  167MOL0    Cl22953  12.245   9.606  10.789 -0.0176 -0.0717  0.3362
  167MOL0     C22954  11.261   9.786  10.408 -0.2905  0.1771  0.5588
  167MOL0     C22955  11.124   9.754  10.415 -0.2058 -0.2138 -0.3109
  167MOL0     O22956  10.928   9.398  10.382  0.3720 -0.1239 -0.4363
  167MOL0     C22957  10.669   9.639  10.391 -0.5806 -0.2410 -1.6682
  167MOL0     C22958  10.527   9.663  10.385 -0.0803 -0.5271  0.6562
  167MOL0     N22959   9.822   9.166  10.497  0.4765 -0.1336 -0.5182
  167MOL0     N22960   9.742   9.074  10.461  0.0711 -0.1032  0.1395
  167MOL0     C22961   8.891   8.755  10.487 -0.2220 -0.0604  0.3501
  167MOL0     C22962   8.749   8.765  10.450  0.1221 -0.9937 -0.5057
  167MOL0     C22963   8.373   8.680  10.216  0.5730 -0.6027  0.4489
  167MOL0     C22964   8.326   8.808  10.181 -0.0157  0.1107 -0.2194
  167MOL0     C22965   8.197   8.831  10.147  0.2514 -0.0084  1.0828
  167MOL0     C22966   8.104   8.727  10.122 -0.4374  0.2457 -0.2125
  167MOL0     O22967   7.982   8.755  10.081  0.2419 -0.4239  0.4868
  167MOL0     C22968   7.884   8.657  10.045 -0.1521 -0.2053  0.2981
  167MOL0     C22969   7.817   8.584  10.165 -0.2869 -0.4657 -0.1682
  167MOL0     C22970   7.758   8.449  10.116 -0.5089 -0.0612  0.6222
  167MOL0     C22971   7.629   8.457  10.027 -0.4995  0.6155 -0.7048
  167MOL0     C22972   7.518   8.507  10.113 -0.0949 -0.4140  0.8503
  167MOL0     C22973   7.429   8.532  10.189 -0.0529 -0.7708  0.4547
  167MOL0     C22974   8.156   8.596  10.137  0.0219 -0.0390  0.2192
  167MOL0     C22975   8.284   8.570  10.193  0.4422  0.9526 -0.3549
  167MOL0     C22976   8.331   8.430  10.194  0.0883  0.7576 -1.0638
  167MOL0     H22977   8.794   8.760  10.106 -1.0074  1.5157  0.7433
  167MOL0     H22978   9.027   8.716  10.195  1.1507 -0.1882  1.6787
  167MOL0     H22979   9.065   8.507  10.483  2.4074 -0.7644 -1.2111
  167MOL0     H22980   9.071   8.618  10.624  1.8692  2.4380 -0.2737
  167MOL0     H22981   9.283   8.475  10.627  3.5517 -0.9660 -0.7099
  167MOL0     H22982   9.303   8.490  10.460 -2.7479 -2.9828  1.1124
  167MOL0     H22983   9.345   8.741  10.479 -0.4167  2.2501  1.8373
  167MOL0     H22984   9.321   8.731  10.652  1.6378 -1.7527  1.6543
  167MOL0     H22985   9.529   8.558  10.660 -1.1855 -0.6986 -0.9460
  167MOL0     H22986   9.537   8.604  10.495 -1.2950 -0.2559  0.3022
  167MOL0     H22987   9.540   8.776  10.748 -0.0828  0.9298 -0.4957
  167MOL0     H22988   9.532   8.850  10.588 -1.0733 -0.8571 -2.0222
  167MOL0     H22989   9.760   8.862  10.669 -0.5248  0.0652  1.1556
  167MOL0     H22990   9.754   8.680  10.699 -1.7098 -1.9586 -0.8761
  167MOL0     H22991   9.731   8.649  10.459  0.5337  1.4855 -4.4667
  167MOL0     H22992   9.883   8.740  10.499 -0.4920  1.3167  0.6243
  167MOL0     H22993   9.778   8.795  10.292  1.2326 -1.7626  1.4568
  167MOL0     H22994   9.636   8.841  10.380 -0.2508 -2.8803  1.5309
  167MOL0     H22995  10.025   8.934  10.386  0.0241 -0.1773  0.6228
  167MOL0     H22996  10.159   9.182  10.467  0.7528  1.9332 -0.7656
  167MOL0     H22997  10.054   9.296  10.549 -0.1532  0.3085  0.4528
  167MOL0     H22998  10.049   9.232  10.249  0.9909 -2.8122  1.7145
  167MOL0     H22999   9.973   9.377  10.332  0.0467 -1.0525 -0.8183
  167MOL0     H23000  10.270   9.338  10.259  1.1968  0.6052  1.0220
  167MOL0     H23001  10.157   9.461  10.214 -1.9031  1.5671  1.7947
  167MOL0     H23002  10.121   9.532  10.446 -1.0398 -0.0767 -1.0492
  167MOL0     H23003  10.251   9.415  10.486  4.0217  0.5706 -0.5046
  167MOL0     H23004  10.442   9.331  10.401  0.7035 -0.6858  0.7891
  167MOL0     H23005  10.737   9.216  10.344  1.0607 -0.0244  0.5038
  167MOL0     H23006  10.604   9.194  10.465 -0.4764  0.6153 -1.0016
  167MOL0     H23007  10.754   9.252  10.517  1.7325  1.7595 -1.0842
  167MOL0     H23008  11.142   9.430  10.476  2.3356 -0.9472 -1.6733
  167MOL0     H23009  11.379   9.475  10.475  0.4485  0.5289 -1.1343
  167MOL0     H23010  11.609   9.583  10.487 -1.7470  2.0850  1.1449
  167MOL0     H23011  11.546   9.525  10.330 -3.2810  1.5090 -0.1336
  167MOL0     H23012  11.773   9.590  10.272 -1.0713 -0.7328  0.8980
  167MOL0     H23013  11.670   9.721  10.215  1.3750 -0.2574 -1.4913
  167MOL0     H23014  11.806   9.714  10.494  2.6149  0.3222 -0.1819
  167MOL0     H23015  11.707   9.851  10.427 -0.5230  0.4107  0.3065
  167MOL0     H23016  11.875   9.866  10.231 -0.2972 -0.6180 -0.0640
  167MOL0     H23017  11.962   9.724  10.297  0.3226 -1.0546  3.3227
  167MOL0     H23018  12.084   9.932  10.367  1.8187 -1.9289  2.1607
  167MOL0     H23019  11.933  10.007  10.405  0.9115 -0.4477  1.4195
  167MOL0     H23020  11.932   9.883  10.618 -0.4758  4.7951 -1.7386
  167MOL0     H23021  12.084   9.958  10.577 -0.4583 -0.2885 -1.6950
  167MOL0     H23022  12.198   9.757  10.530  0.5225 -3.7578 -0.4856
  167MOL0     H23023  12.053   9.657  10.529  0.6057 -0.9094  1.8929
  167MOL0     H23024  12.007   9.663  10.751 -0.1520 -0.1199  1.4821
  167MOL0     H23025  12.098   9.804  10.783 -2.1678 -0.9637  0.2121
  167MOL0     H23026  11.296   9.889  10.401 -0.2556  0.1161 -0.2767
  167MOL0     H23027  11.050   9.834  10.410 -0.7311 -0.7322 -1.1307
  167MOL0     H23028  10.746   9.716  10.389 -1.0723  0.3383  0.0752
  167MOL0     H23029  10.477   9.757  10.368  0.7934 -0.3442 -1.1442
  167MOL0     H23030   8.916   8.761  10.592  1.3837 -1.0867  0.0658
  167MOL0     H23031   8.667   8.780  10.520 -0.5142 -1.3774 -1.1549
  167MOL0     H23032   8.380   8.898  10.207 -0.3017 -0.2034  1.6003
  167MOL0     H23033   8.161   8.933  10.136  0.2495 -0.1288 -0.1832
  167MOL0     H23034   7.815   8.692   9.967 -0.9974 -0.4653  0.9101
  167MOL0     H23035   7.936   8.577   9.991 -0.6355 -2.2966  2.7227
  167MOL0     H23036   7.748   8.641  10.228  0.9289 -1.1661  1.8994
  167MOL0     H23037   7.895   8.557  10.237  0.6221  1.0707 -0.5237
  167MOL0     H23038   7.825   8.392  10.051 -0.6202  0.6765 -0.1574
  167MOL0     H23039   7.743   8.381  10.200  0.1357 -0.9984 -0.0018
  167MOL0     H23040   7.606   8.357   9.991  2.4808  0.3619 -2.2161
  167MOL0     H23041   7.647   8.519   9.938 -2.2569  1.1422 -0.7170
  167MOL0     H23042   7.339   8.562  10.239 -1.2106 -1.7110 -0.9792
  167MOL0     H23043   8.089   8.518  10.103 -0.0111  0.8984 -2.0898
  167MOL0     H23044   8.343   8.396  10.297  0.8211 -0.2731 -1.4621
  167MOL0     H23045   8.255   8.364  10.151 -0.4340 -1.0135  2.2248
  167MOL0     H23046   8.422   8.417  10.134  0.5386  1.4481 -0.5427
  168MOL0     O23047   4.811   7.353  11.224 -0.5823  0.4705 -0.0182
  168MOL0     C23048   4.818   7.256  11.306  0.3832  0.7153  0.2279
  168MOL0     O23049   4.713   7.223  11.386 -0.3616  0.0733  0.5957
  168MOL0     C23050   4.615   7.312  11.403  0.3282 -0.2928 -0.7596
  168MOL0     C23051   4.615   7.448  11.426 -0.9875 -0.0667 -0.6615
  168MOL0     C23052   4.506   7.519  11.474 -0.6068 -0.0381  0.0950
  168MOL0     C23053   4.380   7.454  11.482  0.2996  0.8112 -0.3914
  168MOL0     O23054   4.263   7.513  11.528 -0.1418 -0.3692 -0.0747
  168MOL0     C23055   4.249   7.652  11.469 -0.8087  0.3182  0.5160
  168MOL0     C23056   4.101   7.687  11.517  0.5427 -0.9068  0.0015
  168MOL0     C23057   4.062   7.838  11.511  0.2451  0.1565  0.1610
  168MOL0     C23058   3.943   7.872  11.594 -0.0288 -0.7083  0.5429
  168MOL0     C23059   3.888   8.007  11.543  0.3048 -0.6609  0.5265
  168MOL0     C23060   3.777   8.058  11.630  0.6195  0.3080 -0.3690
  168MOL0     C23061   3.696   8.182  11.568  0.4463 -0.6280  0.4305
  168MOL0     C23062   3.774   8.305  11.515 -0.5039  0.5821 -0.1203
  168MOL0     N23063   3.692   8.404  11.444 -0.3478 -0.2296  0.6463
  168MOL0     C23064   3.567   8.444  11.475  0.1419 -0.3466  0.3621
  168MOL0     C23065   3.542   8.544  11.381  0.2767 -1.2022 -0.0290
  168MOL0     C23066   3.422   8.641  11.370 -0.8135  0.5321 -0.1438
  168MOL0     C23067   3.447   8.781  11.440  0.2450 -0.1378 -0.2421
  168MOL0     C23068   3.562   8.860  11.387 -0.8845  0.3948  0.4623
  168MOL0     C23069   3.554   8.871  11.233 -0.4342 -0.4783  0.1528
  168MOL0     O23070   3.645   8.966  11.175 -0.4705 -0.0498  0.0247
  168MOL0     C23071   3.782   8.953  11.196 -0.2208 -0.8498 -0.5005
  168MOL0     C23072   3.860   9.066  11.179 -0.0984  0.5734 -0.4403
  168MOL0     C23073   4.001   9.066  11.197  0.5084 -0.5185  0.2915
  168MOL0     C23074   4.066   9.199  11.196 -0.3999 -1.2816  0.7865
  168MOL0     C23075   4.065   8.947  11.222  0.0181 -0.1209 -0.1517
  168MOL0     C23076   4.215   8.928  11.253 -0.2713 -0.1620  0.0659
  168MOL0     O23077   4.311   9.018  11.220  0.3210  0.6525 -0.3783
  168MOL0     C23078   4.437   8.988  11.263 -0.2070 -0.3758 -0.2955
  168MOL0     C23079   4.525   8.930  11.178  0.7741  0.1041 -0.0068
  168MOL0     C23080   4.647   8.877  11.217  0.0747 -0.1815  0.0259
  168MOL0     C23081   4.679   8.890  11.355 -0.2411  0.1585  0.1856
  168MOL0     O23082   4.801   8.843  11.392 -0.3861  0.1592  0.2955
  168MOL0     C23083   4.839   8.807  11.524 -0.3096 -0.3170  0.4701
  168MOL0     C23084   4.979   8.736  11.528  0.1627 -0.9123 -0.4018
  168MOL0     C23085   5.090   8.826  11.483 -0.4081  0.6151 -0.1099
  168MOL0     C23086   5.224   8.763  11.536  0.1378 -0.5734  1.1254
  168MOL0     C23087   5.349   8.850  11.511 -0.0613 -0.0056 -0.1177
  168MOL0     C23088   5.479   8.780  11.540 -0.3709 -0.2254 -0.1966
  168MOL0     C23089   5.594   8.864  11.473  0.6036 -0.6496  0.3809
  168MOL0     C23090   5.731   8.803  11.496  0.0126 -0.1786 -0.0524
  168MOL0    Cl23091   5.793   8.829  11.664 -0.1336 -0.1238  0.2017
  168MOL0     C23092   4.593   8.952  11.445 -0.5522 -0.5963 -0.7411
  168MOL0     C23093   4.466   9.001  11.396 -0.0420 -0.2747  0.3659
  168MOL0     O23094   4.231   8.820  11.306 -0.8836  0.1187 -0.5492
  168MOL0     C23095   3.985   8.831  11.227 -0.4816 -0.5097  0.4380
  168MOL0     C23096   3.850   8.838  11.220  0.7486 -0.1796  0.7126
  168MOL0     N23097   3.657   8.557  11.306  0.4943  0.3965  0.0444
  168MOL0     N23098   3.746   8.473  11.337  0.1748  0.1905 -0.0063
  168MOL0     C23099   4.368   7.316  11.451  0.3989  0.5303  0.4925
  168MOL0     C23100   4.485   7.251  11.412  0.0768  0.5596  0.2783
  168MOL0     C23101   4.958   7.196  11.298  0.2696 -0.0624 -0.1252
  168MOL0     C23102   5.055   7.246  11.206 -0.3035 -0.0603 -0.3479
  168MOL0     C23103   5.185   7.191  11.204  0.8264 -0.5929 -0.2571
  168MOL0     C23104   5.226   7.084  11.284 -0.8456  0.1473 -0.1432
  168MOL0     O23105   5.344   7.017  11.298 -0.1924 -0.5823  0.4453
  168MOL0     C23106   5.456   7.069  11.221 -0.2366  0.0529  0.5099
  168MOL0     C23107   5.555   6.957  11.196 -0.1936  0.2913 -0.6167
  168MOL0     C23108   5.618   6.898  11.326  0.7521 -0.4250 -0.2140
  168MOL0     C23109   5.760   6.839  11.313  0.2673 -0.4749  0.1159
  168MOL0     C23110   5.867   6.938  11.293  0.2939 -1.1601  0.0756
  168MOL0     C23111   5.958   7.010  11.257  0.1976 -0.6159  0.3354
  168MOL0     C23112   5.121   7.027  11.363 -0.0200  0.7925 -0.4473
  168MOL0     C23113   4.994   7.084  11.375 -0.2661 -0.0049 -0.8820
  168MOL0     C23114   4.899   7.012  11.458  0.7362 -0.2081  0.4177
  168MOL0     H23115   4.708   7.504  11.424 -0.8492 -0.2944 -0.6709
  168MOL0     H23116   4.520   7.624  11.500  1.9479 -0.1680 -0.4674
  168MOL0     H23117   4.259   7.645  11.361  0.7757 -0.8286  0.6969
  168MOL0     H23118   4.322   7.723  11.509 -0.0830 -0.2489  0.2387
  168MOL0     H23119   4.023   7.624  11.472 -1.7297  0.5623  1.6399
  168MOL0     H23120   4.087   7.665  11.623 -1.1903 -0.7168 -0.1509
  168MOL0     H23121   4.154   7.892  11.533  0.2803  0.7502 -1.3273
  168MOL0     H23122   4.038   7.864  11.407  0.4889 -1.7254 -0.4065
  168MOL0     H23123   3.866   7.797  11.579 -1.9947  1.1071  1.0681
  168MOL0     H23124   3.953   7.878  11.702 -1.4753 -1.1735  0.7198
  168MOL0     H23125   3.853   7.989  11.441 -1.0601  2.7135  0.2554
  168MOL0     H23126   3.968   8.081  11.536 -1.2600  0.9936 -0.9578
  168MOL0     H23127   3.709   7.976  11.652 -0.2778  0.5558 -1.9838
  168MOL0     H23128   3.817   8.091  11.726 -0.2458 -2.4329  1.0455
  168MOL0     H23129   3.634   8.222  11.648 -0.3374 -0.1140 -0.4165
  168MOL0     H23130   3.632   8.145  11.488  0.1214  0.6202  0.0881
  168MOL0     H23131   3.834   8.350  11.595  1.3342  0.7186 -1.5102
  168MOL0     H23132   3.836   8.271  11.432 -3.0682  0.0394 -1.9018
  168MOL0     H23133   3.502   8.408  11.554  2.0020 -0.5165  1.8735
  168MOL0     H23134   3.347   8.592  11.434  0.0473  1.6872  1.8387
  168MOL0     H23135   3.397   8.651  11.264 -1.1374 -2.1492 -0.4056
  168MOL0     H23136   3.358   8.844  11.431 -0.4435 -0.8089  1.3866
  168MOL0     H23137   3.458   8.752  11.545 -1.2771 -1.0513 -0.3024
  168MOL0     H23138   3.554   8.956  11.438  2.7044  1.4717 -0.6841
  168MOL0     H23139   3.648   8.802  11.422 -0.8328 -1.8141 -2.8090
  168MOL0     H23140   3.571   8.778  11.178  0.4111 -0.0533 -0.3230
  168MOL0     H23141   3.450   8.904  11.229 -0.4116 -0.5499 -1.6781
  168MOL0     H23142   3.803   9.158  11.167 -0.9855  0.1599  0.4127
  168MOL0     H23143   4.130   9.211  11.284 -0.1218  1.2066  0.3202
  168MOL0     H23144   4.002   9.288  11.192  1.4385  0.1084 -3.2732
  168MOL0     H23145   4.131   9.211  11.109  1.0193  1.1356  2.0883
  168MOL0     H23146   4.490   8.918  11.076  0.5266 -0.5211  0.1444
  168MOL0     H23147   4.710   8.833  11.140  3.4223  1.0493  1.8065
  168MOL0     H23148   4.833   8.891  11.594 -4.0286  0.1646 -0.2111
  168MOL0     H23149   4.762   8.745  11.570 -0.4908  0.5170  1.3219
  168MOL0     H23150   5.000   8.703  11.630  1.2566 -0.7507 -0.5583
  168MOL0     H23151   4.981   8.646  11.466  0.2113  0.3250 -2.2774
  168MOL0     H23152   5.076   8.923  11.531 -0.9040  0.4492  0.0884
  168MOL0     H23153   5.088   8.852  11.377  0.1765  1.3851  0.0591
  168MOL0     H23154   5.238   8.668  11.484 -2.1040  0.5682 -1.8100
  168MOL0     H23155   5.219   8.745  11.644  2.2476 -1.5782  1.1089
  168MOL0     H23156   5.359   8.881  11.407  2.8961  1.2943  0.4678
  168MOL0     H23157   5.347   8.935  11.580  0.4721 -2.7351  3.6064
  168MOL0     H23158   5.465   8.675  11.510 -4.6213 -0.6864  2.5323
  168MOL0     H23159   5.499   8.779  11.647  0.0088 -1.5867 -0.2618
  168MOL0     H23160   5.585   8.970  11.499 -0.2016 -0.1659 -1.6964
  168MOL0     H23161   5.566   8.855  11.368 -2.0970 -1.1460  1.0837
  168MOL0     H23162   5.798   8.856  11.428 -0.9588  2.1330  0.7047
  168MOL0     H23163   5.716   8.697  11.473  0.4775 -0.2084 -0.2278
  168MOL0     H23164   4.612   8.970  11.550 -3.3927 -0.1930 -0.2221
  168MOL0     H23165   4.402   9.052  11.467  1.3112  2.1925 -0.0678
  168MOL0     H23166   4.028   8.731  11.236 -0.5631 -0.9267 -2.6485
  168MOL0     H23167   3.799   8.744  11.203  0.6844 -0.2723  1.4190
  168MOL0     H23168   4.274   7.262  11.456 -0.4474  1.8967  0.0915
  168MOL0     H23169   4.479   7.146  11.386 -0.4590  0.6950 -0.1488
  168MOL0     H23170   5.037   7.335  11.148 -2.8636  1.2280  2.1588
  168MOL0     H23171   5.247   7.252  11.139  2.4212 -0.3274  1.4428
  168MOL0     H23172   5.430   7.117  11.126  3.5183  0.6485 -0.3704
  168MOL0     H23173   5.496   7.156  11.275  0.6528 -0.2410  0.3333
  168MOL0     H23174   5.640   6.990  11.136  1.5146 -1.7489  0.5158
  168MOL0     H23175   5.501   6.881  11.139  0.0523 -1.5838  1.5352
  168MOL0     H23176   5.622   6.971  11.408 -2.2669 -0.1498 -0.2073
  168MOL0     H23177   5.550   6.819  11.359  0.7196 -0.1978  0.2803
  168MOL0     H23178   5.765   6.775  11.225  0.8489 -2.0306  1.2311
  168MOL0     H23179   5.786   6.770  11.395  2.3359 -0.4530 -0.4598
  168MOL0     H23180   6.039   7.073  11.225  0.2682 -1.7613 -1.9991
  168MOL0     H23181   5.138   6.938  11.423  0.8038  2.1235  1.3512
  168MOL0     H23182   4.867   7.075  11.542  0.3534  1.0736 -0.6476
  168MOL0     H23183   4.818   6.976  11.394 -0.0420  4.3524 -1.5305
  168MOL0     H23184   4.940   6.921  11.502 -0.9330 -1.1585  0.0941
  169MOL0     O23185   2.353   9.031  10.966 -0.0344 -0.6492  0.7277
  169MOL0     C23186   2.313   9.108  11.051  0.3840 -0.1798 -0.2132
  169MOL0     O23187   2.393   9.201  11.121 -0.6001 -0.5249  0.6208
  169MOL0     C23188   2.517   9.229  11.070 -0.1563 -0.1935 -0.0919
  169MOL0     C23189   2.524   9.326  10.972  0.0236 -0.6796  0.1276
  169MOL0     C23190   2.648   9.361  10.911  0.1638  0.1662  0.1358
  169MOL0     C23191   2.765   9.294  10.947 -0.1549  0.2139  0.0680
  169MOL0     O23192   2.891   9.304  10.887 -0.9926 -0.5348 -0.1914
  169MOL0     C23193   2.907   9.405  10.793  0.1546 -0.8033  0.4164
  169MOL0     C23194   3.039   9.376  10.733  0.2765 -0.1843 -0.5528
  169MOL0     C23195   3.051   9.238  10.669  0.2135 -0.2073  0.8780
  169MOL0     C23196   3.188   9.207  10.614 -0.5383 -0.1802 -0.5556
  169MOL0     C23197   3.204   9.062  10.564 -0.4550 -0.6276 -0.4419
  169MOL0     C23198   3.334   9.039  10.484 -0.1820  0.5037 -0.8410
  169MOL0     C23199   3.353   8.899  10.455 -0.2989  0.0777  0.1838
  169MOL0     C23200   3.479   8.874  10.383  0.1660  0.9322  0.0572
  169MOL0     N23201   3.466   8.912  10.243  0.6147  0.1763  0.8466
  169MOL0     C23202   3.548   9.010  10.195  0.3044 -0.4490  0.3500
  169MOL0     C23203   3.528   9.005  10.064  0.4232 -0.4692  0.3495
  169MOL0     C23204   3.575   9.107   9.962 -0.1380 -0.0829 -0.1916
  169MOL0     C23205   3.715   9.081   9.917 -0.1182 -0.0951 -0.0792
  169MOL0     C23206   3.756   8.939   9.925 -0.5375  0.3059 -0.6012
  169MOL0     C23207   3.904   8.921   9.874  0.2472  1.1566  0.1333
  169MOL0     O23208   3.986   8.953   9.989  0.8582  0.1096  0.1486
  169MOL0     C23209   4.125   8.948   9.971  0.0073 -0.1427 -0.4361
  169MOL0     C23210   4.203   8.906  10.078 -0.2062 -0.2430 -0.3329
  169MOL0     C23211   4.343   8.879  10.076  0.2630  0.2829  0.1469
  169MOL0     C23212   4.413   8.833  10.203 -0.1250 -0.4483  0.6899
  169MOL0     C23213   4.409   8.900   9.953 -0.5420 -0.0234 -0.0170
  169MOL0     C23214   4.554   8.868   9.919  0.0555 -0.2351 -0.5018
  169MOL0     O23215   4.589   8.875   9.788  0.0063 -0.2995 -0.3032
  169MOL0     C23216   4.723   8.885   9.751 -0.3243 -0.0204 -0.2488
  169MOL0     C23217   4.781   8.782   9.676  0.1423  0.2165  0.5282
  169MOL0     C23218   4.916   8.792   9.640 -0.0192  0.3919  0.0283
  169MOL0     C23219   5.000   8.886   9.704 -0.5354  0.6838 -0.0510
  169MOL0     O23220   5.137   8.880   9.682 -0.3635 -0.1992 -0.5732
  169MOL0     C23221   5.209   8.859   9.802  1.0497 -0.1441  0.1968
  169MOL0     C23222   5.346   8.893   9.779 -0.4242 -0.2406  0.4102
  169MOL0     C23223   5.436   8.859   9.897  0.0762 -0.2913  0.3792
  169MOL0     C23224   5.481   8.714   9.900  0.2523 -0.2472 -0.6588
  169MOL0     C23225   5.603   8.699   9.990  0.0370 -0.6126  0.1453
  169MOL0     C23226   5.648   8.554  10.004 -0.0150 -0.5654  0.0886
  169MOL0     C23227   5.666   8.501   9.867 -0.6179  0.3452 -0.1494
  169MOL0     C23228   5.756   8.372   9.880  0.3694 -0.0304  0.0394
  169MOL0    Cl23229   5.923   8.422   9.928 -0.4297  0.1024 -0.4457
  169MOL0     C23230   4.946   8.986   9.771 -0.3732 -0.1180 -0.2443
  169MOL0     C23231   4.805   8.996   9.792  0.1781 -0.0458 -0.0297
  169MOL0     O23232   4.628   8.833  10.010  0.4148  0.2342 -0.3631
  169MOL0     C23233   4.329   8.948   9.843 -0.3791 -0.7337 -0.0407
  169MOL0     C23234   4.196   8.976   9.851 -0.4405 -0.3573 -1.1730
  169MOL0     N23235   3.434   8.915  10.034  0.5238  0.3011 -0.0918
  169MOL0     N23236   3.402   8.852  10.141  0.5338  0.7550 -0.3255
  169MOL0     C23237   2.749   9.189  11.035  0.0653 -0.4891  0.5643
  169MOL0     C23238   2.629   9.152  11.093 -0.2158  0.1709  0.5552
  169MOL0     C23239   2.169   9.102  11.088 -0.0463  0.3920 -0.3141
  169MOL0     C23240   2.132   9.047  11.207  0.4182  0.4358  0.0069
  169MOL0     C23241   1.997   9.034  11.240 -0.2519  0.5492 -0.8136
  169MOL0     C23242   1.899   9.072  11.154 -0.4482  1.0606 -0.0379
  169MOL0     O23243   1.770   9.042  11.191 -0.4189 -0.2106 -0.7016
  169MOL0     C23244   1.666   9.065  11.092 -0.5930  0.1011 -0.3451
  169MOL0     C23245   1.540   9.018  11.155 -0.0443 -0.7862  0.3001
  169MOL0     C23246   1.502   9.131  11.257 -0.0430  0.1260 -0.1893
  169MOL0     C23247   1.386   9.077  11.346  0.4661  0.6883  0.6037
  169MOL0     C23248   1.372   9.150  11.469 -0.4355  0.5161 -0.5968
  169MOL0     C23249   1.346   9.194  11.574  0.1071  0.5092  0.4956
  169MOL0     C23250   1.942   9.126  11.024  0.3799 -0.1154 -0.5008
  169MOL0     C23251   2.077   9.142  10.998 -0.4777 -0.2105 -0.0632
  169MOL0     C23252   2.112   9.198  10.864  0.2888 -0.7190  0.0945
  169MOL0     H23253   2.426   9.363  10.944  0.8239 -0.4434 -2.6575
  169MOL0     H23254   2.655   9.431  10.828  0.9078  0.6720  0.6155
  169MOL0     H23255   2.917   9.499  10.847  2.5113 -1.2375  0.8515
  169MOL0     H23256   2.828   9.404  10.717  0.3245 -1.2445  0.2392
  169MOL0     H23257   3.067   9.457  10.665 -0.1234 -1.0035 -1.7160
  169MOL0     H23258   3.121   9.382  10.806  2.8273 -1.2207 -3.1752
  169MOL0     H23259   3.046   9.153  10.739  2.4046 -2.2706 -1.2698
  169MOL0     H23260   2.976   9.222  10.592  0.4145  1.3490  0.3270
  169MOL0     H23261   3.190   9.273  10.527 -2.0726  1.3366  0.4871
  169MOL0     H23262   3.263   9.237  10.688 -0.0519  0.4924 -1.3005
  169MOL0     H23263   3.120   9.042  10.497 -0.3025  3.3863 -2.1092
  169MOL0     H23264   3.188   9.002  10.654  0.1233  0.3918  0.3518
  169MOL0     H23265   3.346   9.112  10.403  2.7080  0.4895 -0.5094
  169MOL0     H23266   3.416   9.061  10.552  0.1826  0.2620 -1.1990
  169MOL0     H23267   3.258   8.860  10.416 -0.8166  0.8451  0.6443
  169MOL0     H23268   3.366   8.861  10.557 -1.4916  1.9546  1.0995
  169MOL0     H23269   3.561   8.929  10.431  0.5150 -0.1435  0.7276
  169MOL0     H23270   3.498   8.766  10.384  1.3985  1.1038  2.3888
  169MOL0     H23271   3.608   9.086  10.245  0.4285 -0.2562 -0.0869
  169MOL0     H23272   3.566   9.210   9.996 -1.0762  1.2271 -3.9336
  169MOL0     H23273   3.504   9.102   9.879  0.8178  0.4703 -1.0643
  169MOL0     H23274   3.713   9.120   9.815 -1.1966 -0.1737 -0.0966
  169MOL0     H23275   3.777   9.144   9.982  0.2020 -0.0088 -0.4669
  169MOL0     H23276   3.748   8.903  10.028  1.1617 -3.9318 -1.7353
  169MOL0     H23277   3.691   8.874   9.865 -0.4318  1.1718 -1.6911
  169MOL0     H23278   3.927   8.819   9.842 -2.9963  0.7839 -1.3816
  169MOL0     H23279   3.919   8.991   9.791  1.1658 -1.4954 -2.0663
  169MOL0     H23280   4.148   8.905  10.171  2.4406 -0.6704  1.3397
  169MOL0     H23281   4.495   8.762  10.188  0.7714  0.6827  0.0838
  169MOL0     H23282   4.345   8.787  10.276  1.4595 -1.3918  1.6429
  169MOL0     H23283   4.468   8.916  10.248 -0.9272  0.4769 -0.0020
  169MOL0     H23284   4.731   8.694   9.636 -0.9322  0.7951  0.5923
  169MOL0     H23285   4.960   8.701   9.600  0.7510  0.3022  1.0245
  169MOL0     H23286   5.165   8.917   9.883 -1.0353  0.8306 -1.5229
  169MOL0     H23287   5.192   8.756   9.834 -0.8278  0.7370  2.2650
  169MOL0     H23288   5.374   8.852   9.681 -1.6643  2.7988 -1.3644
  169MOL0     H23289   5.349   8.998   9.751  0.6751 -0.2903  0.3122
  169MOL0     H23290   5.396   8.883   9.996 -0.7983 -1.7122  0.3966
  169MOL0     H23291   5.524   8.923   9.886 -0.0641 -0.3881 -1.8124
  169MOL0     H23292   5.508   8.693   9.796  0.7555  1.9262 -1.0165
  169MOL0     H23293   5.408   8.653   9.953 -0.6968  0.3461 -1.2474
  169MOL0     H23294   5.673   8.772   9.948  1.0995 -2.7268 -1.9672
  169MOL0     H23295   5.579   8.731  10.092  0.5569 -0.7660  0.3146
  169MOL0     H23296   5.560   8.506  10.048 -0.6856  0.5933  0.0752
  169MOL0     H23297   5.736   8.550  10.069  0.0736  2.9734  0.3804
  169MOL0     H23298   5.728   8.564   9.803  1.4300 -2.6985 -1.4116
  169MOL0     H23299   5.572   8.470   9.821  0.2574  0.1327 -1.8683
  169MOL0     H23300   5.761   8.326   9.781  1.5396  1.4697 -0.6249
  169MOL0     H23301   5.705   8.309   9.954 -1.4080  2.2729  0.9046
  169MOL0     H23302   5.016   9.057   9.814 -0.5127 -0.2957  0.2779
  169MOL0     H23303   4.749   9.064   9.855 -1.3295 -3.1004  2.1959
  169MOL0     H23304   4.371   8.969   9.746  1.7921 -0.5250  0.8758
  169MOL0     H23305   4.142   8.998   9.760  1.4649  0.1983 -2.2112
  169MOL0     H23306   2.836   9.133  11.068  0.3662  1.0165  2.4825
  169MOL0     H23307   2.618   9.070  11.163  0.0418  0.6959  1.2289
  169MOL0     H23308   2.212   9.013  11.272 -0.6917 -0.6318  0.8562
  169MOL0     H23309   1.959   9.002  11.337 -2.0363  1.3803 -1.1762
  169MOL0     H23310   1.657   9.169  11.060 -4.1352  0.2545  0.7051
  169MOL0     H23311   1.683   8.992  11.012  0.7419  1.2160 -1.1156
  169MOL0     H23312   1.548   8.923  11.209 -0.0322 -0.8664  0.1577
  169MOL0     H23313   1.461   8.987  11.087 -0.1828 -2.1659  1.0594
  169MOL0     H23314   1.583   9.165  11.321 -0.1812 -0.6096  0.3884
  169MOL0     H23315   1.469   9.213  11.192  1.4420 -1.2315 -2.8267
  169MOL0     H23316   1.405   8.971  11.368  1.4705  1.1322  2.0721
  169MOL0     H23317   1.288   9.091  11.300  0.9502  0.0563 -0.6720
  169MOL0     H23318   1.328   9.263  11.654  1.3127  0.0878  1.1770
  169MOL0     H23319   1.863   9.148  10.953 -2.2308 -1.8125  1.6956
  169MOL0     H23320   2.101   9.119  10.789 -0.3863 -0.1904 -0.3747
  169MOL0     H23321   2.028   9.264  10.841 -1.9286 -2.6284  2.0723
  169MOL0     H23322   2.212   9.244  10.866  0.6008 -1.4056  0.6030
  170MOL0     O23323   0.120   0.710   4.566 -0.5272  0.6940 -0.3305
  170MOL0     C23324   0.152   0.660   4.672 -0.7376  0.7140 -0.8243
  170MOL0     O23325   0.279   0.638   4.715  0.2607 -0.1021  0.5645
  170MOL0     C23326   0.371   0.663   4.612 -0.2337 -0.4469 -0.1263
  170MOL0     C23327   0.412   0.564   4.521 -0.4590 -0.4505  0.9431
  170MOL0     C23328   0.500   0.587   4.423 -0.7796  0.5856  0.5376
  170MOL0     C23329   0.562   0.709   4.416 -0.3232 -0.1176 -0.8076
  170MOL0     O23330   0.645   0.727   4.317 -0.1525  0.3101 -0.9738
  170MOL0     C23331   0.617   0.843   4.239 -0.2238 -0.3039 -0.4700
  170MOL0     C23332   0.738   0.896   4.170 -0.5413  0.8550 -0.5005
  170MOL0     C23333   0.809   0.803   4.070 -0.4607 -0.2979 -0.6334
  170MOL0     C23334   0.746   0.778   3.936 -0.8749 -0.1519 -0.0174
  170MOL0     C23335   0.806   0.647   3.874 -0.2254  0.8589  0.1846
  170MOL0     C23336   0.958   0.653   3.864  0.0581 -0.0643 -0.1977
  170MOL0     C23337   1.015   0.531   3.799 -0.4918  0.9659  0.5984
  170MOL0     C23338   1.165   0.561   3.774 -0.5125 -0.1598 -0.5838
  170MOL0     N23339   1.254   0.582   3.892  0.3477 -0.4040  0.2357
  170MOL0     C23340   1.224   0.582   4.033 -0.0959  0.2386  0.1546
  170MOL0     C23341   1.340   0.602   4.092 -0.4539 -0.3862 -0.7082
  170MOL0     C23342   1.377   0.593   4.239  0.0606 -0.0504 -0.0639
  170MOL0     C23343   1.470   0.472   4.262  0.5843  0.1449  0.1414
  170MOL0     C23344   1.507   0.445   4.403  0.7000 -0.4058  0.0869
  170MOL0     C23345   1.581   0.559   4.466 -0.3212 -0.0556  0.3839
  170MOL0     O23346   1.619   0.550   4.603  0.5510  0.0822 -0.0177
  170MOL0     C23347   1.738   0.494   4.631  0.7555  0.7979 -0.4954
  170MOL0     C23348   1.743   0.351   4.641 -0.4423 -0.9032  1.0444
  170MOL0     C23349   1.872   0.294   4.666 -0.3793 -0.4758 -0.1321
  170MOL0     C23350   1.868   0.138   4.667  0.1682  0.0619  0.7844
  170MOL0     C23351   1.990   0.373   4.685  1.1548 -0.1056 -0.5196
  170MOL0     C23352   2.125   0.316   4.712  0.2826 -0.3029  0.3670
  170MOL0     O23353   2.227   0.398   4.717 -0.4241  1.1226  0.0930
  170MOL0     C23354   2.330   0.362   4.799 -0.4294 -0.7170  0.1910
  170MOL0     C23355   2.334   0.423   4.927  0.7336 -0.6645 -0.4100
  170MOL0     C23356   2.427   0.390   5.015  0.0709  0.0592 -0.7933
  170MOL0     C23357   2.523   0.293   4.991 -0.8557  0.4910 -0.2873
  170MOL0     O23358   2.623   0.257   5.080 -0.6565 -0.7478 -0.5744
  170MOL0     C23359   2.602   0.293   5.213  0.9697 -0.2852  0.2823
  170MOL0     C23360   2.725   0.257   5.300  0.1029  0.1351  0.2207
  170MOL0     C23361   2.696   0.298   5.440 -0.8551 -0.0574  0.7948
  170MOL0     C23362   2.776   0.427   5.465  0.5359 -0.2227  0.9244
  170MOL0     C23363   2.770   0.507   5.602 -0.7638 -0.0822 -0.1741
  170MOL0     C23364   2.632   0.553   5.636 -0.9643 -0.4148 -0.4321
  170MOL0     C23365   2.603   0.685   5.563 -0.5814  0.2548  0.0883
  170MOL0     C23366   2.469   0.743   5.607 -0.3186  0.5125  0.6526
  170MOL0    Cl23367   2.317   0.666   5.578  0.2031  0.0870  0.2798
  170MOL0     C23368   2.522   0.232   4.867 -0.1928  0.1475  0.6165
  170MOL0     C23369   2.426   0.272   4.767 -0.2237  0.1376 -0.7455
  170MOL0     O23370   2.136   0.197   4.737  0.2112 -0.2905  0.6921
  170MOL0     C23371   1.974   0.515   4.677 -0.3661  0.5061  0.6832
  170MOL0     C23372   1.849   0.567   4.650  0.1194 -0.1194  0.0507
  170MOL0     N23373   1.442   0.630   3.994  0.7104  0.1396 -0.1574
  170MOL0     N23374   1.385   0.616   3.879 -0.0018 -0.0801  0.9730
  170MOL0     C23375   0.544   0.803   4.518 -0.8451  0.2298 -0.3614
  170MOL0     C23376   0.451   0.779   4.611 -0.1326 -0.3815  0.5883
  170MOL0     C23377   0.057   0.613   4.769 -1.2261  0.3261 -0.3140
  170MOL0     C23378   0.086   0.503   4.845 -0.1767  0.3011 -0.0262
  170MOL0     C23379  -0.003   0.450   4.937  0.8422  0.4960  0.1685
  170MOL0     C23380  -0.130   0.509   4.964  0.1318  0.0887  0.2076
  170MOL0     O23381  -0.214   0.457   5.055  0.1254 -0.0751 -0.1222
  170MOL0     C23382  -0.353   0.474   5.042 -1.0004 -0.1269 -0.6976
  170MOL0     C23383  -0.412   0.398   4.919  0.2190 -0.1877 -0.0345
  170MOL0     C23384  -0.566   0.415   4.913 -0.2878 -0.0003 -0.2424
  170MOL0     C23385  -0.624   0.554   4.925 -0.1667  0.2091 -0.1848
  170MOL0     C23386  -0.583   0.638   4.812  0.3095  0.1901 -0.4968
  170MOL0     C23387  -0.546   0.706   4.718 -0.1547  0.3037 -0.4864
  170MOL0     C23388  -0.167   0.624   4.883  0.0432  0.7812 -0.7739
  170MOL0     C23389  -0.074   0.672   4.784 -0.8247  0.4272 -0.1464
  170MOL0     C23390  -0.109   0.803   4.731 -0.0076  0.3078  0.7443
  170MOL0     H23391   0.357   0.471   4.522 -1.5365  0.1264 -0.9614
  170MOL0     H23392   0.549   0.515   4.359 -0.3620  0.6608  0.7677
  170MOL0     H23393   0.579   0.924   4.301  1.9649 -0.0132  0.5910
  170MOL0     H23394   0.548   0.813   4.160  0.2888 -0.3128 -0.9203
  170MOL0     H23395   0.718   0.991   4.119 -0.0024  1.7486  0.8935
  170MOL0     H23396   0.807   0.918   4.252 -0.2106  1.5091 -0.9352
  170MOL0     H23397   0.906   0.849   4.053  0.1087 -0.9737  0.6390
  170MOL0     H23398   0.839   0.709   4.118  1.4510  0.4094 -0.3523
  170MOL0     H23399   0.639   0.759   3.948 -1.0463  0.3719 -0.6657
  170MOL0     H23400   0.745   0.866   3.872 -1.4727  0.4462  0.7835
  170MOL0     H23401   0.761   0.623   3.777 -3.1211 -0.2715  1.6875
  170MOL0     H23402   0.791   0.561   3.940  1.3671  0.6926  0.3808
  170MOL0     H23403   0.982   0.747   3.813  0.5323  0.3191  0.6989
  170MOL0     H23404   1.005   0.666   3.962  0.9895  0.8195 -0.7374
  170MOL0     H23405   0.967   0.525   3.701  1.6783 -1.9582 -0.4541
  170MOL0     H23406   0.993   0.443   3.861  1.1357 -0.0935 -0.2322
  170MOL0     H23407   1.206   0.479   3.714  0.9001  1.5575 -2.0757
  170MOL0     H23408   1.169   0.654   3.717  0.6913  0.0231 -0.2353
  170MOL0     H23409   1.127   0.566   4.078 -1.1592 -1.5720 -2.5590
  170MOL0     H23410   1.296   0.584   4.311  0.2012  1.6153  0.3544
  170MOL0     H23411   1.437   0.682   4.259  2.5644 -1.1682 -1.9640
  170MOL0     H23412   1.406   0.386   4.242  1.8497 -0.9616  0.6843
  170MOL0     H23413   1.553   0.461   4.191 -0.3117  2.0614 -1.2865
  170MOL0     H23414   1.413   0.432   4.457  2.8194  1.8657  4.8627
  170MOL0     H23415   1.565   0.353   4.409  2.1152  0.3240 -1.3621
  170MOL0     H23416   1.667   0.585   4.404 -1.3532 -1.3266 -1.7071
  170MOL0     H23417   1.520   0.649   4.470  1.5814  1.2588  1.0531
  170MOL0     H23418   1.655   0.290   4.623  0.8872 -2.1883 -1.7731
  170MOL0     H23419   1.765   0.104   4.677 -0.5643  2.4641  2.1558
  170MOL0     H23420   1.912   0.091   4.755 -0.4998 -1.9410  0.0994
  170MOL0     H23421   1.925   0.097   4.583  0.9017  1.6134  0.4910
  170MOL0     H23422   2.266   0.505   4.948  1.7750  0.3722 -0.9264
  170MOL0     H23423   2.413   0.444   5.107 -2.2571 -1.0058 -0.4488
  170MOL0     H23424   2.584   0.401   5.220 -1.5291 -0.4267 -2.1690
  170MOL0     H23425   2.514   0.242   5.252 -1.3033  2.5505 -0.8373
  170MOL0     H23426   2.745   0.150   5.292 -1.6378 -0.1477 -0.6648
  170MOL0     H23427   2.815   0.306   5.260  0.0343  0.0210 -0.0720
  170MOL0     H23428   2.732   0.228   5.517  1.7854  3.0913  2.6972
  170MOL0     H23429   2.590   0.317   5.455 -0.3844  1.3394  2.6724
  170MOL0     H23430   2.732   0.486   5.385  2.9804  0.5342  0.0588
  170MOL0     H23431   2.882   0.407   5.443  0.8212 -1.3294  3.0154
  170MOL0     H23432   2.799   0.437   5.681 -1.3192  3.2976  3.3098
  170MOL0     H23433   2.843   0.588   5.602  1.3050 -1.8444 -0.9438
  170MOL0     H23434   2.631   0.565   5.745  3.3882  2.3276 -0.4625
  170MOL0     H23435   2.559   0.480   5.601 -0.9885 -0.3858 -0.4419
  170MOL0     H23436   2.600   0.676   5.455 -0.3162  0.2043  0.0858
  170MOL0     H23437   2.685   0.755   5.578 -1.4549  1.1678  0.7850
  170MOL0     H23438   2.464   0.837   5.552 -1.5200 -0.8496 -1.6869
  170MOL0     H23439   2.468   0.765   5.714  1.9536  1.7345  0.4816
  170MOL0     H23440   2.601   0.160   4.845 -0.6254  0.2004 -1.3303
  170MOL0     H23441   2.430   0.217   4.673  1.0987 -1.5377  0.2304
  170MOL0     H23442   2.060   0.580   4.693  0.7073 -0.2084 -1.8049
  170MOL0     H23443   1.835   0.675   4.649 -3.9506 -0.4707 -1.6564
  170MOL0     H23444   0.600   0.896   4.522  2.7675 -1.7802  1.7917
  170MOL0     H23445   0.434   0.852   4.690  0.9974  2.4269 -1.5957
  170MOL0     H23446   0.177   0.445   4.834  0.4939  1.3173  0.0872
  170MOL0     H23447   0.024   0.358   4.988 -0.9720 -0.9060 -1.2408
  170MOL0     H23448  -0.399   0.444   5.136  2.1197 -0.2912  0.9343
  170MOL0     H23449  -0.376   0.581   5.052  0.2370 -0.0582  4.8860
  170MOL0     H23450  -0.382   0.295   4.939  0.2531 -0.2529 -0.4117
  170MOL0     H23451  -0.366   0.431   4.825 -1.2272 -0.0556 -0.7283
  170MOL0     H23452  -0.605   0.363   4.825  1.1050  0.3884 -1.1309
  170MOL0     H23453  -0.610   0.355   4.993 -0.4394  1.0023  0.4534
  170MOL0     H23454  -0.590   0.602   5.018 -0.9932  0.4236  0.0224
  170MOL0     H23455  -0.733   0.545   4.932 -0.1163 -0.6297 -0.3585
  170MOL0     H23456  -0.518   0.764   4.632 -2.5188  1.0149 -0.8541
  170MOL0     H23457  -0.259   0.680   4.899 -0.8856 -1.0201  0.5220
  170MOL0     H23458  -0.039   0.880   4.765 -0.2036  1.4132 -1.2368
  170MOL0     H23459  -0.092   0.806   4.623 -1.7776 -0.9005  0.3940
  170MOL0     H23460  -0.212   0.837   4.745 -0.4996  0.4700 -2.6370
  171MOL0     O23461  11.268   1.014   3.586  0.2929  0.1621  0.4938
  171MOL0     C23462  11.172   1.054   3.524 -0.1571  0.3295 -0.0850
  171MOL0     O23463  11.146   1.011   3.402 -0.6406 -0.1069  0.0402
  171MOL0     C23464  11.246   0.954   3.328 -0.0856 -0.2221  0.3253
  171MOL0     C23465  11.349   1.025   3.275 -0.5254 -0.3369  0.4266
  171MOL0     C23466  11.447   0.970   3.195 -0.4345  0.2521  0.3120
  171MOL0     C23467  11.457   0.836   3.177  0.9549  0.5754 -0.2104
  171MOL0     O23468  11.566   0.788   3.107 -0.0436  0.0529  0.2554
  171MOL0     C23469  11.677   0.738   3.184 -0.3132 -0.7211 -0.3888
  171MOL0     C23470  11.799   0.704   3.095 -0.4166  0.5413  0.6089
  171MOL0     C23471  11.922   0.651   3.169  0.3599  0.4606  0.4603
  171MOL0     C23472  12.053   0.674   3.097  0.0432 -0.0009  1.0930
  171MOL0     C23473  12.161   0.601   3.169  0.2086 -0.3999 -0.3736
  171MOL0     C23474  12.302   0.649   3.138 -0.1457 -0.1040  0.2176
  171MOL0     C23475  12.401   0.569   3.232 -0.1200  0.2332 -0.2363
  171MOL0     C23476  12.545   0.615   3.211 -0.1899  0.3519 -0.0938
  171MOL0     N23477  12.644   0.516   3.264  0.5743  0.3385  0.7195
  171MOL0     C23478  12.682   0.524   3.394 -0.6072 -0.5176 -0.2423
  171MOL0     C23479  12.762   0.408   3.403 -1.4473 -0.2816 -0.2522
  171MOL0     C23480  12.812   0.341   3.526 -0.3073 -0.6700 -0.3516
  171MOL0     C23481  12.962   0.331   3.528 -0.0769 -1.2083  0.1783
  171MOL0     C23482  13.044   0.462   3.507 -0.4116  0.0829  1.3706
  171MOL0     C23483  13.053   0.554   3.634  0.0275  0.2580 -1.1045
  171MOL0     O23484  13.136   0.668   3.593 -0.3852 -0.4067 -0.6165
  171MOL0     C23485  13.216   0.717   3.695 -0.5758  0.1348 -0.2867
  171MOL0     C23486  13.341   0.753   3.666 -0.7756  0.0200 -0.7143
  171MOL0     C23487  13.444   0.779   3.763 -0.1066 -0.5300  0.1683
  171MOL0     C23488  13.583   0.815   3.715  0.2698  0.2135 -0.0256
  171MOL0     C23489  13.398   0.771   3.896 -0.0281 -0.2109 -0.1240
  171MOL0     C23490  13.486   0.799   4.013 -0.1177  0.1110  0.5334
  171MOL0     O23491  13.450   0.738   4.131 -0.3375 -0.6177 -0.4046
  171MOL0     C23492  13.524   0.739   4.244  0.6939  0.3656 -0.3578
  171MOL0     C23493  13.552   0.621   4.304 -0.1619 -0.3465  0.5262
  171MOL0     C23494  13.624   0.615   4.422 -0.7660  0.3243  0.3506
  171MOL0     C23495  13.663   0.733   4.482  0.9852 -0.7285  0.5938
  171MOL0     O23496  13.704   0.718   4.612  0.0734  0.4880  0.0821
  171MOL0     C23497  13.728   0.842   4.683 -0.1954  0.2051 -0.1063
  171MOL0     C23498  13.783   0.804   4.827 -0.1531 -0.0595 -0.1618
  171MOL0     C23499  13.933   0.771   4.808 -0.6465 -0.2762 -0.4415
  171MOL0     C23500  14.013   0.749   4.941 -0.1815  0.1588  0.5857
  171MOL0     C23501  14.154   0.696   4.927 -0.1222 -0.5487  1.0226
  171MOL0     C23502  14.224   0.682   5.061  0.1145 -0.6612 -0.4390
  171MOL0     C23503  14.357   0.606   5.045 -0.8263 -0.4218 -0.9290
  171MOL0     C23504  14.469   0.677   4.966 -0.9076 -0.3251 -0.1505
  171MOL0    Cl23505  14.542   0.798   5.064  0.2832 -0.0167  0.5614
  171MOL0     C23506  13.623   0.862   4.430 -1.0165  0.0393  0.1760
  171MOL0     C23507  13.557   0.855   4.310 -0.6171 -0.1075  0.0637
  171MOL0     O23508  13.586   0.870   3.999  0.3706  0.2522  0.1667
  171MOL0     C23509  13.262   0.741   3.924 -0.0726 -0.0557  0.1262
  171MOL0     C23510  13.176   0.715   3.820  0.1845 -0.1029  0.2325
  171MOL0     N23511  12.780   0.348   3.274 -0.0575  0.2306  0.6293
  171MOL0     N23512  12.709   0.410   3.189 -0.1099 -1.2002 -0.2755
  171MOL0     C23513  11.360   0.753   3.234 -0.6505  0.1384  0.0765
  171MOL0     C23514  11.249   0.814   3.307 -0.1301  0.4707 -0.1721
  171MOL0     C23515  11.073   1.148   3.590 -1.1315  0.3103  0.6089
  171MOL0     C23516  10.953   1.171   3.532 -0.2136  0.0286  0.2411
  171MOL0     C23517  10.882   1.282   3.586  0.0286  0.0924  0.1555
  171MOL0     C23518  10.925   1.356   3.692  0.5374  0.0024 -0.3324
  171MOL0     O23519  10.862   1.463   3.751 -0.3111  0.7720 -0.1441
  171MOL0     C23520  10.722   1.466   3.746  0.6654 -0.0567  0.8780
  171MOL0     C23521  10.680   1.602   3.702 -0.2230  0.0336  0.1546
  171MOL0     C23522  10.692   1.623   3.542 -0.5705  0.4592  0.4736
  171MOL0     C23523  10.686   1.770   3.493 -0.4139  0.0580 -0.6277
  171MOL0     C23524  10.560   1.823   3.532  0.8468 -0.7687  0.9675
  171MOL0     C23525  10.442   1.863   3.546  0.0112 -0.3937 -0.0879
  171MOL0     C23526  11.045   1.322   3.752  0.6704 -0.6135 -0.1286
  171MOL0     C23527  11.118   1.214   3.711  0.3388  0.6270  0.4854
  171MOL0     C23528  11.241   1.192   3.794  0.6203 -0.3139 -0.1445
  171MOL0     H23529  11.347   1.132   3.296  1.2878 -0.3067  0.5658
  171MOL0     H23530  11.529   1.031   3.158 -0.9459  3.2772  3.6591
  171MOL0     H23531  11.648   0.652   3.244 -0.6985 -0.6119 -0.4193
  171MOL0     H23532  11.707   0.823   3.245 -1.6866  1.6207 -2.7473
  171MOL0     H23533  11.773   0.629   3.020 -1.0515  0.0716  1.2902
  171MOL0     H23534  11.817   0.801   3.048 -1.6486  1.7096  2.4197
  171MOL0     H23535  11.924   0.697   3.269 -0.4889  0.6550  0.3943
  171MOL0     H23536  11.897   0.545   3.181 -0.1739 -0.0293 -3.6209
  171MOL0     H23537  12.045   0.650   2.991 -0.9674 -1.7092  1.5042
  171MOL0     H23538  12.074   0.781   3.108 -0.5650  0.0321  2.1078
  171MOL0     H23539  12.149   0.493   3.157 -4.0504 -0.3557  1.7505
  171MOL0     H23540  12.141   0.608   3.276 -0.3987 -0.4216 -0.4791
  171MOL0     H23541  12.328   0.636   3.032  2.3269  0.0484  0.7361
  171MOL0     H23542  12.314   0.755   3.162 -0.3074  0.4018 -1.7418
  171MOL0     H23543  12.394   0.462   3.209  0.0033  0.5077 -1.6869
  171MOL0     H23544  12.371   0.581   3.337 -1.0642  0.2338 -0.4909
  171MOL0     H23545  12.558   0.631   3.104 -0.5484  1.9642  0.0768
  171MOL0     H23546  12.562   0.715   3.251  1.7577 -0.3920  1.0289
  171MOL0     H23547  12.651   0.583   3.479  0.4589 -1.5747  0.9289
  171MOL0     H23548  12.779   0.237   3.532  0.4023 -0.8136  2.3659
  171MOL0     H23549  12.771   0.402   3.607 -0.9411  0.6511 -1.6040
  171MOL0     H23550  12.988   0.279   3.621 -0.2166 -2.8298 -0.6477
  171MOL0     H23551  12.992   0.255   3.456  0.7651  0.1624 -0.9570
  171MOL0     H23552  13.147   0.431   3.489 -1.9278 -3.8572 -2.2742
  171MOL0     H23553  13.014   0.516   3.417  1.1465 -3.2269 -1.3894
  171MOL0     H23554  12.957   0.586   3.677  1.4917  2.8265  0.4772
  171MOL0     H23555  13.104   0.495   3.711 -0.7641  0.4498 -0.4199
  171MOL0     H23556  13.366   0.745   3.560  1.6935  0.6115 -0.2258
  171MOL0     H23557  13.608   0.917   3.746  0.8941 -0.6745  2.6145
  171MOL0     H23558  13.588   0.797   3.607  3.0061 -0.2832  0.1095
  171MOL0     H23559  13.655   0.752   3.767  0.3986  0.7040  0.3952
  171MOL0     H23560  13.504   0.526   4.282  0.3932 -1.2844  3.0766
  171MOL0     H23561  13.650   0.523   4.473  1.4622 -0.3141 -1.7742
  171MOL0     H23562  13.806   0.900   4.632 -0.4755  0.0617 -0.6996
  171MOL0     H23563  13.631   0.893   4.689  0.6093  1.7738  0.3654
  171MOL0     H23564  13.777   0.882   4.903  1.6001 -0.8573  0.8601
  171MOL0     H23565  13.730   0.723   4.880 -1.4204  1.1489  0.4779
  171MOL0     H23566  13.971   0.850   4.743 -2.2233  0.0989 -0.9698
  171MOL0     H23567  13.936   0.678   4.750  2.4860 -0.0127 -0.8278
  171MOL0     H23568  13.954   0.671   4.990  0.7393 -0.0960  1.3158
  171MOL0     H23569  14.011   0.834   5.010 -3.7250  0.8568 -0.1843
  171MOL0     H23570  14.151   0.600   4.875  0.0800 -1.0150  1.8538
  171MOL0     H23571  14.209   0.766   4.863 -0.5311 -1.7098 -0.6712
  171MOL0     H23572  14.149   0.641   5.129 -0.3713  1.5770  0.4807
  171MOL0     H23573  14.238   0.777   5.114  2.4385 -1.7266  1.0199
  171MOL0     H23574  14.337   0.516   4.986 -0.2779 -1.8519  0.9661
  171MOL0     H23575  14.391   0.586   5.146  1.0947 -0.0406 -1.4588
  171MOL0     H23576  14.440   0.709   4.865 -1.3114  2.6292  0.8136
  171MOL0     H23577  14.550   0.605   4.951 -0.8966 -0.4072  0.3078
  171MOL0     H23578  13.640   0.962   4.467 -0.9070  0.6195 -1.3648
  171MOL0     H23579  13.534   0.937   4.243  0.9464 -0.2790 -0.7195
  171MOL0     H23580  13.216   0.743   4.022 -1.8763  1.6022 -0.6819
  171MOL0     H23581  13.070   0.704   3.836  0.0951  3.8439  3.8047
  171MOL0     H23582  11.361   0.646   3.215 -0.3826 -0.3091  2.3331
  171MOL0     H23583  11.179   0.756   3.367  2.5219 -1.6135  1.1303
  171MOL0     H23584  10.919   1.102   3.455 -1.0863 -1.7176  2.1117
  171MOL0     H23585  10.789   1.313   3.539 -0.2927  1.2493  1.5045
  171MOL0     H23586  10.671   1.399   3.677 -2.4449  2.9551 -0.0340
  171MOL0     H23587  10.687   1.439   3.847  2.1748  0.1306  1.4743
  171MOL0     H23588  10.749   1.671   3.751  0.1159 -0.8526  0.9436
  171MOL0     H23589  10.578   1.610   3.739  0.3395  0.9827  1.5603
  171MOL0     H23590  10.785   1.576   3.506 -1.6664 -0.6328 -1.0656
  171MOL0     H23591  10.605   1.572   3.499 -1.7417  2.1184  0.7911
  171MOL0     H23592  10.695   1.762   3.384  0.4539 -5.5454 -0.4519
  171MOL0     H23593  10.764   1.829   3.543 -1.2781  0.6964 -0.0112
  171MOL0     H23594  10.344   1.897   3.573  0.2891 -0.4547  1.0727
  171MOL0     H23595  11.075   1.383   3.836 -0.6366 -0.5125  0.2786
  171MOL0     H23596  11.236   1.234   3.895  3.7767 -1.7818  0.7664
  171MOL0     H23597  11.267   1.089   3.821  2.5548 -0.8764 -3.6473
  171MOL0     H23598  11.326   1.235   3.741  0.2445  0.5223 -0.0811
  172MOL0     O23599   8.514   0.530   2.067  0.3601  0.7815  0.8219
  172MOL0     C23600   8.450   0.597   2.148 -0.0957  0.3914 -0.4570
  172MOL0     O23601   8.498   0.664   2.253 -1.3444 -0.5247  0.0561
  172MOL0     C23602   8.633   0.686   2.289 -0.2816 -0.2746 -0.1530
  172MOL0     C23603   8.668   0.801   2.371  0.3583  0.1699 -0.3173
  172MOL0     C23604   8.805   0.816   2.409 -0.6845  0.0999 -0.1511
  172MOL0     C23605   8.907   0.720   2.379  0.1860 -0.3284  0.2850
  172MOL0     O23606   9.044   0.753   2.404  0.1039  0.8744 -0.2675
  172MOL0     C23607   9.087   0.885   2.433 -0.5977  0.0171  0.2469
  172MOL0     C23608   9.244   0.878   2.451  0.1514  0.4155 -0.1527
  172MOL0     C23609   9.296   1.019   2.494 -0.0557  0.6605 -0.0182
  172MOL0     C23610   9.451   1.029   2.467 -0.2281 -0.0121  0.0085
  172MOL0     C23611   9.501   1.150   2.553 -0.6214  0.4644  0.7120
  172MOL0     C23612   9.655   1.144   2.583 -0.3978  0.6585 -0.0081
  172MOL0     C23613   9.741   1.093   2.470  0.1836  0.7609  0.2498
  172MOL0     C23614   9.736   1.178   2.349 -0.6224  0.3667  0.8052
  172MOL0     N23615   9.770   1.321   2.362  0.6166  0.4534 -0.3103
  172MOL0     C23616   9.880   1.377   2.416  0.1700  0.1177  0.1356
  172MOL0     C23617   9.871   1.505   2.383  0.2839 -1.3233 -0.3120
  172MOL0     C23618   9.974   1.617   2.405 -0.1321 -0.4493 -0.6073
  172MOL0     C23619  10.109   1.580   2.345  0.4600 -0.6151 -0.7357
  172MOL0     C23620  10.102   1.524   2.199  0.1147  0.3103 -0.1109
  172MOL0     C23621  10.241   1.529   2.140  0.4279 -0.2577  0.5274
  172MOL0     O23622  10.320   1.429   2.199 -0.1136  0.1236 -0.2885
  172MOL0     C23623  10.447   1.411   2.152  0.5155 -0.0921  0.2014
  172MOL0     C23624  10.559   1.409   2.225 -0.4468  0.4028 -0.3712
  172MOL0     C23625  10.688   1.396   2.169 -0.3732 -0.5334  0.3503
  172MOL0     C23626  10.813   1.397   2.259  0.5976  0.6769  0.8937
  172MOL0     C23627  10.698   1.386   2.029 -0.5022  0.1516  0.2816
  172MOL0     C23628  10.825   1.374   1.961 -0.2243 -0.0509 -0.1772
  172MOL0     O23629  10.846   1.271   1.872 -0.4073 -0.2334 -0.0868
  172MOL0     C23630  10.969   1.266   1.801 -0.0914  0.1003 -0.6090
  172MOL0     C23631  10.978   1.303   1.668 -0.5341 -0.0095 -0.3747
  172MOL0     C23632  11.095   1.305   1.601 -0.4134  0.1969 -0.1934
  172MOL0     C23633  11.219   1.278   1.667 -0.3294 -0.1491 -1.6761
  172MOL0     O23634  11.326   1.280   1.584 -0.0921 -0.7011  0.2794
  172MOL0     C23635  11.466   1.281   1.637  0.6118 -0.5839  1.0655
  172MOL0     C23636  11.551   1.225   1.521 -0.0154  0.0060  0.4531
  172MOL0     C23637  11.705   1.229   1.544  0.6492 -0.0396 -0.2921
  172MOL0     C23638  11.796   1.159   1.441 -0.2684 -0.4094 -0.4507
  172MOL0     C23639  11.952   1.169   1.471 -0.4527  0.3466  0.0715
  172MOL0     C23640  12.037   1.084   1.375  0.3718 -1.2974 -0.7811
  172MOL0     C23641  12.181   1.120   1.380  0.0746  0.1883  0.2443
  172MOL0     C23642  12.251   1.012   1.304  0.0288  0.1621  0.8458
  172MOL0    Cl23643  12.421   1.047   1.330  0.2872 -0.2016 -0.2635
  172MOL0     C23644  11.212   1.237   1.801 -0.1041 -0.5224 -0.4669
  172MOL0     C23645  11.087   1.234   1.865  0.2791  0.8006  0.2827
  172MOL0     O23646  10.909   1.456   1.987 -0.2540  0.2400  0.2681
  172MOL0     C23647  10.585   1.366   1.952 -0.0526  0.6678 -0.9421
  172MOL0     C23648  10.461   1.373   2.013 -0.6502 -0.8280 -0.1794
  172MOL0     N23649   9.749   1.517   2.307 -0.0276  0.2452 -0.2020
  172MOL0     N23650   9.706   1.400   2.277 -0.1649 -0.2551 -0.6011
  172MOL0     C23651   8.869   0.614   2.298  0.3708 -0.3332  0.3156
  172MOL0     C23652   8.738   0.591   2.264 -0.4077 -1.2101 -0.2991
  172MOL0     C23653   8.301   0.616   2.148 -0.1255 -0.7390  0.3333
  172MOL0     C23654   8.241   0.739   2.118 -0.5769  0.1166  0.4129
  172MOL0     C23655   8.105   0.755   2.098 -0.6309  0.7201 -0.0549
  172MOL0     C23656   8.021   0.644   2.106  0.1965  0.3614 -0.3201
  172MOL0     O23657   7.881   0.654   2.098  0.2124  0.1062  0.0716
  172MOL0     C23658   7.817   0.781   2.102 -0.3744 -0.1409 -0.0543
  172MOL0     C23659   7.662   0.769   2.104  0.1442  0.2819  0.6314
  172MOL0     C23660   7.617   0.683   2.220 -0.8436  0.1445 -0.6817
  172MOL0     C23661   7.463   0.660   2.223 -0.0038 -0.6412  0.9397
  172MOL0     C23662   7.418   0.588   2.337 -0.9906 -0.5554 -0.0991
  172MOL0     C23663   7.377   0.525   2.435  0.3299  0.7644  0.3961
  172MOL0     C23664   8.078   0.522   2.120 -0.7191  0.3976  0.0365
  172MOL0     C23665   8.220   0.503   2.139  0.0876 -0.6114  0.0777
  172MOL0     C23666   8.265   0.359   2.164 -0.6818  0.2505  0.4868
  172MOL0     H23667   8.598   0.879   2.399 -0.0639 -0.2378 -0.2180
  172MOL0     H23668   8.839   0.903   2.464 -2.8328  0.6607  0.3886
  172MOL0     H23669   9.031   0.908   2.524 -2.7591 -3.8677  0.1136
  172MOL0     H23670   9.052   0.956   2.358  2.5290  2.6910  1.1233
  172MOL0     H23671   9.281   0.810   2.528  0.6523  1.5914  0.6805
  172MOL0     H23672   9.291   0.855   2.355  1.0208 -2.7601  0.9143
  172MOL0     H23673   9.244   1.100   2.442 -1.2711 -0.1240 -0.0629
  172MOL0     H23674   9.274   1.045   2.598  2.2482 -2.6222  1.4667
  172MOL0     H23675   9.493   0.934   2.501 -0.6183 -0.2176 -0.0694
  172MOL0     H23676   9.466   1.042   2.360  0.7428 -1.4261 -0.0484
  172MOL0     H23677   9.449   1.161   2.649  0.1460 -0.5839  1.2729
  172MOL0     H23678   9.479   1.242   2.499  2.2438  1.9775  1.8559
  172MOL0     H23679   9.699   1.233   2.630  0.0969 -1.2740  3.6066
  172MOL0     H23680   9.662   1.067   2.661  1.3661  0.1705 -0.5954
  172MOL0     H23681   9.730   0.985   2.455  1.0922  1.0831 -4.2273
  172MOL0     H23682   9.846   1.102   2.499  0.7516  1.0476 -1.7541
  172MOL0     H23683   9.807   1.145   2.273 -1.2879 -0.1699  0.3921
  172MOL0     H23684   9.639   1.156   2.302 -0.4798 -2.8351  1.8189
  172MOL0     H23685   9.963   1.331   2.469 -0.9925 -0.8808  1.1424
  172MOL0     H23686   9.981   1.631   2.513  1.5353  1.1845 -0.8809
  172MOL0     H23687   9.939   1.708   2.355  1.3491  0.0894 -0.7155
  172MOL0     H23688  10.178   1.665   2.354 -2.0875  1.7646 -2.1818
  172MOL0     H23689  10.155   1.493   2.393 -0.8453  0.1112  2.0526
  172MOL0     H23690  10.061   1.422   2.202 -3.3346  1.5808  1.8093
  172MOL0     H23691  10.035   1.583   2.137 -2.3349  0.2685  2.2888
  172MOL0     H23692  10.241   1.529   2.030  0.9863  1.4131  0.4976
  172MOL0     H23693  10.298   1.618   2.168  2.5304 -0.7678 -1.7516
  172MOL0     H23694  10.553   1.427   2.332 -4.1794  1.6141 -0.6711
  172MOL0     H23695  10.787   1.348   2.353  0.3213 -0.0355  0.4565
  172MOL0     H23696  10.842   1.502   2.269 -2.5695  1.5327  2.5000
  172MOL0     H23697  10.891   1.334   2.215 -1.3627 -0.5445 -1.0246
  172MOL0     H23698  10.881   1.314   1.620 -1.8944 -0.5235  2.1120
  172MOL0     H23699  11.102   1.320   1.494  2.3383 -1.7401 -0.3667
  172MOL0     H23700  11.496   1.383   1.661 -0.9470  0.6881 -1.8006
  172MOL0     H23701  11.477   1.217   1.725  0.0048 -1.5871  0.4336
  172MOL0     H23702  11.526   1.121   1.499  1.8054 -0.3651 -0.0826
  172MOL0     H23703  11.534   1.278   1.427 -0.6348 -1.3713 -0.2378
  172MOL0     H23704  11.722   1.172   1.636  0.0418  0.6453  0.2492
  172MOL0     H23705  11.731   1.331   1.575  0.0486 -0.2679  1.0309
  172MOL0     H23706  11.769   1.194   1.340  1.0862 -2.7826 -1.7408
  172MOL0     H23707  11.771   1.053   1.431 -1.2237 -0.1848 -0.5572
  172MOL0     H23708  11.972   1.275   1.456  1.2426  0.2598  1.4392
  172MOL0     H23709  11.979   1.154   1.576  1.8007  2.1027 -0.1798
  172MOL0     H23710  11.998   1.092   1.273  2.0751 -5.3342 -1.9256
  172MOL0     H23711  12.022   0.979   1.401 -0.5614 -1.2500 -1.0741
  172MOL0     H23712  12.226   1.114   1.480 -0.4370 -0.5524  0.4409
  172MOL0     H23713  12.196   1.221   1.341  0.6949 -1.0337 -3.0074
  172MOL0     H23714  12.228   1.018   1.198 -1.0968 -0.5162  1.0409
  172MOL0     H23715  12.238   0.906   1.327  0.2039  0.1449  0.8726
  172MOL0     H23716  11.295   1.213   1.867 -0.1011 -3.0571 -1.2966
  172MOL0     H23717  11.074   1.221   1.971 -2.8348  2.0936  0.1897
  172MOL0     H23718  10.580   1.358   1.844  0.3152 -1.8560 -0.8257
  172MOL0     H23719  10.375   1.342   1.954 -1.9167 -1.1639  1.7669
  172MOL0     H23720   8.938   0.542   2.257 -0.8040 -0.9402 -0.6595
  172MOL0     H23721   8.720   0.500   2.207  2.4638 -2.1520  0.1386
  172MOL0     H23722   8.312   0.821   2.113 -3.3769  2.6243 -0.2683
  172MOL0     H23723   8.072   0.858   2.090 -0.0125  1.0468  1.1780
  172MOL0     H23724   7.856   0.833   2.191 -1.0023 -2.4637  1.6666
  172MOL0     H23725   7.837   0.839   2.012  0.1245 -1.5041 -0.8445
  172MOL0     H23726   7.622   0.724   2.013 -1.3812  0.3395  1.2526
  172MOL0     H23727   7.619   0.869   2.109 -2.3880 -0.4594 -2.7469
  172MOL0     H23728   7.662   0.584   2.216 -0.6490  0.2055 -0.0979
  172MOL0     H23729   7.657   0.729   2.311  1.2135  1.1536 -2.0294
  172MOL0     H23730   7.441   0.600   2.134  2.5057  0.8768 -0.8099
  172MOL0     H23731   7.418   0.759   2.231  1.2820  0.0672 -0.1713
  172MOL0     H23732   7.347   0.473   2.523 -2.5592  2.2504  0.4158
  172MOL0     H23733   8.015   0.434   2.123  1.8845 -1.7222 -2.4326
  172MOL0     H23734   8.186   0.285   2.148 -0.0893 -0.8097  2.1968
  172MOL0     H23735   8.342   0.330   2.091  0.4564  0.5472  1.5410
  172MOL0     H23736   8.306   0.341   2.264  0.7856  1.0165  0.0640
  173MOL0     O23737   9.667   4.693   9.440 -0.1872 -0.3148  0.6425
  173MOL0     C23738   9.639   4.802   9.399 -0.9449  0.0838  0.1810
  173MOL0     O23739   9.711   4.866   9.301  0.1453 -0.2345 -0.5115
  173MOL0     C23740   9.838   4.822   9.283  0.3147  0.7431  0.1236
  173MOL0     C23741   9.859   4.722   9.186  0.9106 -0.2065  0.9884
  173MOL0     C23742   9.993   4.695   9.149 -0.3363 -0.1352  0.1892
  173MOL0     C23743  10.098   4.761   9.207 -0.8949  0.6355 -0.6104
  173MOL0     O23744  10.222   4.702   9.181 -0.3846 -0.5105  0.0068
  173MOL0     C23745  10.347   4.774   9.226 -0.1439 -0.3132  0.0648
  173MOL0     C23746  10.465   4.677   9.190 -0.2203  0.1735 -0.0462
  173MOL0     C23747  10.603   4.750   9.209 -0.0739  0.1227 -0.2186
  173MOL0     C23748  10.726   4.670   9.152  0.1555  0.8124 -0.3046
  173MOL0     C23749  10.850   4.741   9.188  0.0048 -0.1485 -0.3497
  173MOL0     C23750  10.971   4.674   9.118  0.1983 -0.0897 -0.6284
  173MOL0     C23751  11.100   4.763   9.143  0.0749 -0.2329  0.3291
  173MOL0     C23752  11.222   4.701   9.083 -0.0308 -0.0383 -0.3527
  173MOL0     N23753  11.335   4.790   9.099 -0.3694  0.8948 -0.0399
  173MOL0     C23754  11.399   4.794   9.218 -0.3522  0.0156 -0.3841
  173MOL0     C23755  11.495   4.887   9.198  0.3539 -0.2408 -0.6130
  173MOL0     C23756  11.607   4.907   9.288  0.1214  0.6019 -0.4610
  173MOL0     C23757  11.694   4.785   9.293 -0.2924  0.8110  0.5077
  173MOL0     C23758  11.812   4.819   9.372  0.6381  0.3617  0.5444
  173MOL0     C23759  11.921   4.716   9.376 -0.1156 -0.3349  0.9639
  173MOL0     O23760  12.006   4.702   9.494 -0.4780  0.9610 -0.0544
  173MOL0     C23761  12.102   4.603   9.507  0.5054  1.0377  0.9773
  173MOL0     C23762  12.079   4.473   9.459 -0.3019 -0.9061  0.3603
  173MOL0     C23763  12.173   4.375   9.479  0.0275  0.3339 -0.0898
  173MOL0     C23764  12.158   4.252   9.401 -0.0494  0.3453  0.4252
  173MOL0     C23765  12.286   4.392   9.567 -0.7556 -0.6381  0.0623
  173MOL0     C23766  12.398   4.291   9.594 -0.0165 -0.8487  0.3889
  173MOL0     O23767  12.495   4.327   9.683  0.7656 -0.4430 -0.4583
  173MOL0     C23768  12.592   4.238   9.706 -0.0529  0.9324 -0.3093
  173MOL0     C23769  12.603   4.182   9.837  0.4094  0.1179  0.2790
  173MOL0     C23770  12.714   4.098   9.872 -0.0970 -0.5637  0.8426
  173MOL0     C23771  12.815   4.068   9.778 -0.7365 -0.2943 -0.7950
  173MOL0     O23772  12.917   3.979   9.817  0.4569  0.7455 -0.0201
  173MOL0     C23773  13.001   3.933   9.713  0.0651 -0.2852  0.0143
  173MOL0     C23774  13.104   3.851   9.779 -0.1586  0.3231 -0.0572
  173MOL0     C23775  13.229   3.833   9.695  0.5850  0.0889  0.0626
  173MOL0     C23776  13.289   3.694   9.715  0.5510 -0.0839 -1.0384
  173MOL0     C23777  13.404   3.663   9.623 -0.4628 -0.8204  0.1927
  173MOL0     C23778  13.444   3.512   9.645  0.2400  0.1113  0.4331
  173MOL0     C23779  13.587   3.488   9.567  0.3084  0.1001  0.5774
  173MOL0     C23780  13.611   3.335   9.553  0.3315 -0.0384 -0.0636
  173MOL0    Cl23781  13.639   3.265   9.712 -0.1549  0.0436 -0.0361
  173MOL0     C23782  12.806   4.128   9.650 -0.5837  0.6235 -1.1715
  173MOL0     C23783  12.694   4.207   9.619 -0.3029  0.3582 -0.2892
  173MOL0     O23784  12.397   4.187   9.533  0.3098  0.7148  0.0814
  173MOL0     C23785  12.293   4.514   9.628 -1.2111  0.0145 -0.3713
  173MOL0     C23786  12.203   4.616   9.596  0.3254 -0.3818  0.5419
  173MOL0     N23787  11.486   4.921   9.063  0.3708  0.1887  0.1438
  173MOL0     N23788  11.391   4.860   9.001 -0.0372  0.2202 -0.0485
  173MOL0     C23789  10.078   4.861   9.299 -0.1598  0.9655 -0.4112
  173MOL0     C23790   9.949   4.890   9.332  0.0654 -0.5892 -0.3029
  173MOL0     C23791   9.515   4.865   9.444  0.0459 -0.0390 -0.0051
  173MOL0     C23792   9.438   4.792   9.549  0.0995 -0.0820  0.1887
  173MOL0     C23793   9.313   4.838   9.592  0.3843  0.8208  0.3775
  173MOL0     C23794   9.263   4.966   9.552  0.5542 -0.6701 -0.2410
  173MOL0     O23795   9.158   5.042   9.612  0.3704  0.5813  0.1696
  173MOL0     C23796   9.111   4.982   9.739  0.5169 -0.4093  0.7130
  173MOL0     C23797   9.184   5.005   9.864 -0.8289 -1.0161  0.9987
  173MOL0     C23798   9.139   4.920   9.992 -0.1804 -0.8084 -0.6091
  173MOL0     C23799   9.167   4.773   9.978  0.5899 -0.3148  0.5331
  173MOL0     C23800   9.048   4.693   9.948  0.0456 -0.0754  1.4437
  173MOL0     C23801   8.941   4.637   9.923  0.1400 -0.5760  0.8720
  173MOL0     C23802   9.335   5.033   9.453 -0.8013 -0.0166 -0.5791
  173MOL0     C23803   9.458   4.984   9.403  0.3929 -0.1226  0.8786
  173MOL0     C23804   9.530   5.082   9.306 -0.2096 -0.5903 -0.1476
  173MOL0     H23805   9.786   4.659   9.138  4.8213 -2.2478 -3.0126
  173MOL0     H23806  10.014   4.614   9.080 -0.1540 -1.1564  1.4166
  173MOL0     H23807  10.340   4.802   9.331 -2.2772  0.1641 -0.1499
  173MOL0     H23808  10.367   4.868   9.174 -1.1703 -0.2618 -0.2658
  173MOL0     H23809  10.453   4.587   9.252 -0.5329  0.3193  0.1115
  173MOL0     H23810  10.465   4.642   9.087  3.4128 -1.7129  0.4500
  173MOL0     H23811  10.584   4.851   9.172 -2.4366  0.0303  0.6001
  173MOL0     H23812  10.625   4.759   9.316  0.0123  0.7398 -0.2855
  173MOL0     H23813  10.726   4.569   9.194 -1.2348  1.3999  1.2295
  173MOL0     H23814  10.707   4.663   9.044 -0.7845  1.1505 -0.1695
  173MOL0     H23815  10.863   4.756   9.295  0.6911  1.3494 -0.6246
  173MOL0     H23816  10.838   4.843   9.153 -1.9646 -0.1849  0.1041
  173MOL0     H23817  10.983   4.578   9.169  0.7349  1.3146  2.0504
  173MOL0     H23818  10.947   4.657   9.012 -2.8780  0.1401 -0.0583
  173MOL0     H23819  11.119   4.782   9.249 -1.9665 -2.3754  1.1620
  173MOL0     H23820  11.080   4.858   9.094  0.5110 -1.1028 -1.6179
  173MOL0     H23821  11.241   4.597   9.110  0.8818  0.1482 -0.2475
  173MOL0     H23822  11.202   4.689   8.976  2.5209 -1.3541 -0.7336
  173MOL0     H23823  11.379   4.726   9.301 -3.5413  2.5366  1.1587
  173MOL0     H23824  11.565   4.931   9.386 -1.3662 -0.0285 -0.9093
  173MOL0     H23825  11.668   4.990   9.253 -0.3346  1.3070  0.3815
  173MOL0     H23826  11.632   4.700   9.322 -1.2915  1.4854  0.4049
  173MOL0     H23827  11.722   4.751   9.192 -0.3028 -2.4632  1.4934
  173MOL0     H23828  11.862   4.911   9.338  2.2795 -1.0252 -1.0361
  173MOL0     H23829  11.778   4.848   9.471  0.3826  0.6702  0.3677
  173MOL0     H23830  11.874   4.617   9.371  0.1346 -0.4026 -0.4749
  173MOL0     H23831  11.972   4.738   9.282 -0.5179  0.4462  0.9198
  173MOL0     H23832  11.996   4.451   9.393  0.0283 -1.2646  0.0542
  173MOL0     H23833  12.083   4.250   9.321  0.5420 -0.0866 -0.1344
  173MOL0     H23834  12.138   4.166   9.466 -0.8093 -0.3523 -0.6867
  173MOL0     H23835  12.249   4.239   9.342 -0.7481 -2.8159 -0.1327
  173MOL0     H23836  12.521   4.200   9.905 -1.7199  3.7448 -2.8332
  173MOL0     H23837  12.711   4.060   9.973 -0.9355  0.9128  1.4068
  173MOL0     H23838  12.953   3.880   9.631  1.5608  0.6190 -1.5181
  173MOL0     H23839  13.053   4.023   9.678 -2.2349  1.1336  0.0237
  173MOL0     H23840  13.143   3.897   9.869 -0.1549 -0.6840  0.4717
  173MOL0     H23841  13.061   3.752   9.798 -0.9265  1.1397  2.8205
  173MOL0     H23842  13.311   3.900   9.722  1.5169 -1.7010  1.9275
  173MOL0     H23843  13.204   3.845   9.589  2.8587  1.5461 -0.3811
  173MOL0     H23844  13.208   3.622   9.699  0.8986 -0.2011 -2.4632
  173MOL0     H23845  13.320   3.695   9.819 -2.0993  1.6867 -0.1438
  173MOL0     H23846  13.370   3.678   9.520  1.0912 -0.6683 -0.3293
  173MOL0     H23847  13.490   3.729   9.637  0.3523 -1.9753  0.7701
  173MOL0     H23848  13.374   3.444   9.597 -0.1207  1.2978 -0.7884
  173MOL0     H23849  13.463   3.489   9.750  0.0167 -0.6864  0.3031
  173MOL0     H23850  13.663   3.543   9.624 -0.8364  2.8415 -0.3550
  173MOL0     H23851  13.579   3.539   9.471 -0.9641  1.0655  1.1578
  173MOL0     H23852  13.701   3.321   9.493  0.5862 -0.6099  0.4432
  173MOL0     H23853  13.530   3.270   9.519  0.6187 -1.6230  2.0241
  173MOL0     H23854  12.878   4.120   9.569  1.0635  0.1674  0.2791
  173MOL0     H23855  12.697   4.258   9.524 -1.0868  2.3142  0.6783
  173MOL0     H23856  12.363   4.540   9.707  1.0305 -1.1337 -1.8726
  173MOL0     H23857  12.215   4.716   9.636  1.9700  1.6324 -4.2269
  173MOL0     H23858  10.159   4.918   9.343 -0.8230  0.7873  1.0934
  173MOL0     H23859   9.918   4.974   9.395 -3.1099 -2.2338  0.5675
  173MOL0     H23860   9.472   4.694   9.582 -2.1825 -0.2509  2.4026
  173MOL0     H23861   9.262   4.772   9.662  1.0103 -1.0765 -0.8939
  173MOL0     H23862   9.013   5.029   9.751  0.0242 -0.5445 -2.1183
  173MOL0     H23863   9.092   4.876   9.716  3.0921 -0.0872 -4.6071
  173MOL0     H23864   9.185   5.111   9.888 -0.1267 -0.9182  0.5430
  173MOL0     H23865   9.288   4.975   9.851 -0.4306  0.9698 -0.7167
  173MOL0     H23866   9.196   4.942  10.083 -0.0958 -3.3296  0.0038
  173MOL0     H23867   9.033   4.939  10.014 -0.1055 -1.2566  0.1567
  173MOL0     H23868   9.192   4.733  10.077  2.2143 -3.7527 -1.0892
  173MOL0     H23869   9.249   4.746   9.910 -1.3729 -2.2116 -1.2348
  173MOL0     H23870   8.851   4.582   9.903  0.1736  0.2098 -2.0074
  173MOL0     H23871   9.297   5.132   9.433 -2.6225 -0.0349  2.2484
  173MOL0     H23872   9.479   5.179   9.307 -0.1443 -0.5587  0.1542
  173MOL0     H23873   9.633   5.107   9.333  0.1424  1.1819 -2.7074
  173MOL0     H23874   9.536   5.046   9.203 -0.0689 -0.7642 -0.0791
  174MOL0     O23875   4.371   1.933   2.448  0.2005  0.5039 -0.5086
  174MOL0     C23876   4.300   1.848   2.509 -0.3661 -0.4797  0.3453
  174MOL0     O23877   4.343   1.751   2.595  0.0237  0.7430 -0.3407
  174MOL0     C23878   4.474   1.722   2.627 -0.3691 -0.5831  0.1171
  174MOL0     C23879   4.500   1.597   2.673  0.1885 -0.4167  0.0377
  174MOL0     C23880   4.622   1.560   2.730  0.3981  0.1015  0.2523
  174MOL0     C23881   4.724   1.657   2.758 -0.4720 -0.2428  0.0533
  174MOL0     O23882   4.846   1.642   2.826  0.1046 -0.2658  0.3723
  174MOL0     C23883   4.853   1.715   2.948  0.1372 -0.0521 -0.0747
  174MOL0     C23884   4.995   1.768   2.968 -0.1517 -0.5373  0.6201
  174MOL0     C23885   5.016   1.823   3.107 -0.1030 -0.2055  0.7595
  174MOL0     C23886   5.165   1.862   3.118 -0.0269  0.3936  0.2095
  174MOL0     C23887   5.183   1.946   3.241  0.4149  0.0082 -0.3950
  174MOL0     C23888   5.320   2.015   3.259  0.1147  0.6176 -0.4671
  174MOL0     C23889   5.304   2.130   3.365 -0.6320  0.4126 -0.1463
  174MOL0     C23890   5.427   2.195   3.402 -1.7334 -0.7578 -0.2056
  174MOL0     N23891   5.523   2.124   3.494 -0.6456  0.1358  0.3058
  174MOL0     C23892   5.485   2.114   3.633  0.0603  0.4245  0.8133
  174MOL0     C23893   5.566   2.016   3.678 -0.2943 -0.2687 -0.0688
  174MOL0     C23894   5.578   1.968   3.829  0.3270  0.7978  0.0501
  174MOL0     C23895   5.685   1.873   3.871 -0.2323 -0.0850  0.2292
  174MOL0     C23896   5.821   1.948   3.881 -0.1284 -0.8091 -0.4848
  174MOL0     C23897   5.927   1.867   3.949  0.0324  0.5546 -0.4249
  174MOL0     O23898   6.056   1.935   3.956  0.1367 -0.1623 -0.1913
  174MOL0     C23899   6.151   1.913   3.855  0.5192 -0.8309  1.1572
  174MOL0     C23900   6.133   1.837   3.735 -0.5800 -0.6733 -0.3187
  174MOL0     C23901   6.236   1.822   3.648  0.0824  0.4515  0.6688
  174MOL0     C23902   6.210   1.722   3.540 -0.2860 -0.4348  0.2859
  174MOL0     C23903   6.373   1.862   3.676  0.1296  1.4165 -0.2312
  174MOL0     C23904   6.498   1.811   3.606 -0.4217 -0.1159 -0.1999
  174MOL0     O23905   6.614   1.823   3.667  0.1734  0.5463 -0.2556
  174MOL0     C23906   6.717   1.733   3.649 -0.5876 -0.2297 -0.7136
  174MOL0     C23907   6.837   1.789   3.699  0.0112  0.6937  0.9317
  174MOL0     C23908   6.954   1.708   3.688  0.2781  0.4633  0.1406
  174MOL0     C23909   6.960   1.580   3.621 -0.1818 -0.0482  0.8176
  174MOL0     O23910   7.082   1.519   3.601  0.0290 -0.4084 -0.1939
  174MOL0     C23911   7.094   1.380   3.559 -0.4305 -0.1429  0.1186
  174MOL0     C23912   7.241   1.346   3.568  0.3425  0.5083  0.0073
  174MOL0     C23913   7.301   1.354   3.705 -0.8708 -0.3690  0.4586
  174MOL0     C23914   7.457   1.355   3.681  0.0798 -0.9849  0.4507
  174MOL0     C23915   7.518   1.214   3.681 -0.0451  0.6546 -0.3185
  174MOL0     C23916   7.675   1.210   3.698 -0.2314 -0.6309  0.3157
  174MOL0     C23917   7.758   1.298   3.596  0.3106 -0.2029 -1.2879
  174MOL0     C23918   7.903   1.277   3.633  0.2679  0.9029 -0.6502
  174MOL0    Cl23919   8.003   1.367   3.520  0.0536 -0.2074  0.1915
  174MOL0     C23920   6.846   1.537   3.559  0.5301  0.4571  0.1047
  174MOL0     C23921   6.725   1.609   3.579 -0.2364 -0.5275  0.4470
  174MOL0     O23922   6.494   1.771   3.489 -0.6699  0.3539  0.2077
  174MOL0     C23923   6.387   1.933   3.793  0.6820 -0.0400 -0.3894
  174MOL0     C23924   6.281   1.957   3.881  0.8569  0.2214 -0.0011
  174MOL0     N23925   5.638   1.976   3.566  0.3917 -0.4383  0.2126
  174MOL0     N23926   5.610   2.033   3.459  0.1851 -0.5939 -0.0041
  174MOL0     C23927   4.703   1.786   2.703 -0.2990 -0.5282  0.6080
  174MOL0     C23928   4.574   1.822   2.640 -0.3364  0.3247  0.2669
  174MOL0     C23929   4.156   1.857   2.476 -0.0772  1.1178 -0.2256
  174MOL0     C23930   4.064   1.813   2.575 -0.6102 -0.5593 -0.5416
  174MOL0     C23931   3.922   1.826   2.555 -0.2464 -0.0600  0.3207
  174MOL0     C23932   3.871   1.872   2.433  0.6860  0.3397 -1.2601
  174MOL0     O23933   3.735   1.886   2.427 -0.4457 -0.9916  0.5973
  174MOL0     C23934   3.673   1.969   2.323  0.2184 -1.1764 -0.3205
  174MOL0     C23935   3.716   2.121   2.325 -0.5465 -0.5049  0.2166
  174MOL0     C23936   3.688   2.189   2.453 -0.4159 -0.2436  0.3856
  174MOL0     C23937   3.546   2.176   2.511 -0.6063 -0.0874  0.9889
  174MOL0     C23938   3.432   2.207   2.424 -0.7982  0.0178  1.1725
  174MOL0     C23939   3.336   2.208   2.345 -0.0681 -0.0710  0.2073
  174MOL0     C23940   3.961   1.910   2.335 -0.2599 -0.1117 -0.5744
  174MOL0     C23941   4.104   1.896   2.352 -0.1730 -0.0185  0.2236
  174MOL0     C23942   4.196   1.924   2.230  0.9565 -0.1678 -0.0689
  174MOL0     H23943   4.415   1.530   2.675 -0.1074 -0.1022 -1.1463
  174MOL0     H23944   4.639   1.456   2.755 -1.2103 -0.7522 -1.9200
  174MOL0     H23945   4.837   1.641   3.027  0.1251  1.3122  1.2338
  174MOL0     H23946   4.784   1.800   2.957  1.1578  0.6590  1.5314
  174MOL0     H23947   5.072   1.692   2.950  1.4634  1.4282 -1.1996
  174MOL0     H23948   5.004   1.850   2.897  0.6937  0.4920  1.8546
  174MOL0     H23949   4.956   1.913   3.121  0.9416  0.1589  3.4548
  174MOL0     H23950   4.989   1.750   3.185  0.3371  0.0655  1.1724
  174MOL0     H23951   5.222   1.769   3.116 -1.4273 -0.6145 -4.2022
  174MOL0     H23952   5.192   1.927   3.034 -1.2113 -1.1491 -1.4309
  174MOL0     H23953   5.163   1.892   3.334  1.6613 -0.7719 -0.5609
  174MOL0     H23954   5.106   2.024   3.235  0.1952 -0.2076 -0.3816
  174MOL0     H23955   5.391   1.935   3.283 -2.8002 -1.9706  0.1396
  174MOL0     H23956   5.364   2.050   3.166  0.1147 -0.8070 -1.0250
  174MOL0     H23957   5.260   2.090   3.457  0.9898  0.6152  0.7689
  174MOL0     H23958   5.234   2.205   3.329 -0.9587 -0.1060 -0.6003
  174MOL0     H23959   5.476   2.213   3.305  1.2263  0.3693  1.3554
  174MOL0     H23960   5.407   2.291   3.452  1.9299 -0.0512  0.2337
  174MOL0     H23961   5.413   2.182   3.678 -1.0802  0.2810 -0.6843
  174MOL0     H23962   5.482   1.917   3.844  0.9342 -0.2362  0.5137
  174MOL0     H23963   5.579   2.059   3.889 -0.5165  2.0837 -1.8125
  174MOL0     H23964   5.659   1.824   3.966 -0.0471  0.4926  0.5815
  174MOL0     H23965   5.686   1.789   3.801  0.3451 -0.9082  1.1910
  174MOL0     H23966   5.849   1.972   3.778 -1.6616  1.4384 -0.4589
  174MOL0     H23967   5.816   2.046   3.930  3.3679 -0.7093 -0.0808
  174MOL0     H23968   5.902   1.856   4.054 -1.6000  0.4031 -0.8090
  174MOL0     H23969   5.933   1.766   3.908  0.6502  0.9100 -1.2601
  174MOL0     H23970   6.032   1.806   3.712 -0.3242  0.1166 -2.7362
  174MOL0     H23971   6.241   1.759   3.442 -0.4985  1.5315  0.9124
  174MOL0     H23972   6.103   1.698   3.532 -0.3897  0.0094  0.2975
  174MOL0     H23973   6.278   1.640   3.563  2.6626  1.9440  0.7135
  174MOL0     H23974   6.840   1.895   3.723  0.4783  1.6761 -2.8302
  174MOL0     H23975   7.046   1.761   3.714  0.7998  0.4983 -1.6914
  174MOL0     H23976   7.036   1.316   3.627  2.4408 -0.1058  2.8472
  174MOL0     H23977   7.059   1.366   3.456  1.3158 -1.0478 -0.3998
  174MOL0     H23978   7.258   1.246   3.528 -0.6344 -0.0543  0.9418
  174MOL0     H23979   7.289   1.409   3.493 -0.4472  0.0996 -0.8544
  174MOL0     H23980   7.275   1.272   3.773 -0.8124 -0.4027  0.4399
  174MOL0     H23981   7.277   1.446   3.759  0.8925 -0.3955  1.3925
  174MOL0     H23982   7.503   1.416   3.760  1.3580  0.7297 -1.5326
  174MOL0     H23983   7.484   1.409   3.590  2.2857 -0.7629  1.1888
  174MOL0     H23984   7.480   1.168   3.773  2.2195 -0.9619 -0.1080
  174MOL0     H23985   7.486   1.164   3.589  1.3981 -1.6716  0.3636
  174MOL0     H23986   7.695   1.103   3.686  2.6296  0.0887 -3.1059
  174MOL0     H23987   7.708   1.250   3.794  2.3256 -0.0696 -0.7186
  174MOL0     H23988   7.731   1.403   3.608 -1.3316 -0.7805  0.7291
  174MOL0     H23989   7.746   1.264   3.493  1.0576 -1.3219 -1.0279
  174MOL0     H23990   7.929   1.174   3.604 -0.1253 -0.0531  2.1119
  174MOL0     H23991   7.935   1.295   3.736 -0.6714  0.4531 -0.2678
  174MOL0     H23992   6.835   1.440   3.511  5.7256 -0.7598  0.7489
  174MOL0     H23993   6.634   1.572   3.535  0.3069  0.6974 -1.8918
  174MOL0     H23994   6.475   1.981   3.833 -0.5544  1.3495  0.7951
  174MOL0     H23995   6.297   2.024   3.965 -2.0243 -2.3873  2.9304
  174MOL0     H23996   4.778   1.864   2.715 -1.0544  0.3006  0.1415
  174MOL0     H23997   4.550   1.924   2.615  1.6773  0.7232 -0.1985
  174MOL0     H23998   4.100   1.764   2.665 -0.6221  0.7397  0.1945
  174MOL0     H23999   3.857   1.816   2.641 -0.6797 -1.4535 -0.1451
  174MOL0     H24000   3.706   1.916   2.234 -0.2171 -0.3200 -1.0085
  174MOL0     H24001   3.565   1.964   2.341  0.4286 -1.3263  1.0458
  174MOL0     H24002   3.664   2.174   2.245  1.1318 -0.3103 -0.7967
  174MOL0     H24003   3.821   2.134   2.296 -1.4565  1.3166 -2.6741
  174MOL0     H24004   3.749   2.149   2.535 -0.4869  0.4621  0.7837
  174MOL0     H24005   3.720   2.293   2.444 -0.1855 -0.4396 -1.3637
  174MOL0     H24006   3.552   2.241   2.598 -0.5148  0.7705  0.3462
  174MOL0     H24007   3.534   2.071   2.541 -0.5293 -0.2950  0.3186
  174MOL0     H24008   3.253   2.211   2.277  0.4481 -3.4968 -0.7582
  174MOL0     H24009   3.927   1.950   2.240  0.4809 -0.1941 -0.8768
  174MOL0     H24010   4.243   2.022   2.247 -0.2052  0.2098  1.1438
  174MOL0     H24011   4.259   1.835   2.225 -2.2696 -2.8004  1.7911
  174MOL0     H24012   4.139   1.932   2.136 -0.1227  2.4084  0.6913
  175MOL0     O24013   1.242  10.397   5.138 -0.3951 -0.3100  0.3355
  175MOL0     C24014   1.274  10.345   5.028 -0.1290 -0.7594 -0.6555
  175MOL0     O24015   1.382  10.378   4.954  0.2261 -0.0360 -0.3303
  175MOL0     C24016   1.487  10.439   5.013  0.0366 -0.2861  0.7008
  175MOL0     C24017   1.587  10.370   5.078 -0.4786  0.4668 -0.7316
  175MOL0     C24018   1.681  10.440   5.155 -0.5261  0.7652  0.1836
  175MOL0     C24019   1.690  10.576   5.155  0.1451 -0.3103  0.3806
  175MOL0     O24020   1.788  10.633   5.228 -0.3189 -0.2205  0.3894
  175MOL0     C24021   1.845  10.748   5.161  0.0977 -0.3734  0.7851
  175MOL0     C24022   1.992  10.759   5.188 -0.0808 -0.1343  0.3864
  175MOL0     C24023   2.085  10.807   5.078  0.4249  0.7075 -0.0166
  175MOL0     C24024   2.232  10.801   5.121  0.1278 -0.1761  0.3085
  175MOL0     C24025   2.313  10.852   5.003  0.1120  0.1496 -0.3979
  175MOL0     C24026   2.439  10.771   5.012  0.4402  0.8911 -0.2094
  175MOL0     C24027   2.539  10.819   4.920 -0.6531  0.1545  0.5798
  175MOL0     C24028   2.648  10.703   4.909  0.3037 -0.3898 -0.1763
  175MOL0     N24029   2.767  10.744   4.827 -0.2094  0.1548  0.1386
  175MOL0     C24030   2.858  10.838   4.847  0.4499 -0.6719  0.2233
  175MOL0     C24031   2.933  10.840   4.736 -0.1735 -0.3266 -0.3422
  175MOL0     C24032   3.053  10.927   4.711 -0.6630  0.5206 -0.2416
  175MOL0     C24033   3.145  10.921   4.835 -0.5621 -0.5060  0.1471
  175MOL0     C24034   3.284  10.979   4.804 -0.7345 -0.0937 -0.2792
  175MOL0     C24035   3.368  10.939   4.934 -0.7540 -0.1166  0.2895
  175MOL0     O24036   3.491  11.021   4.926 -0.5582  0.0540 -0.8531
  175MOL0     C24037   3.597  10.980   5.007 -0.2104  0.0742  0.0134
  175MOL0     C24038   3.587  10.904   5.125  0.4888 -0.3844  0.0101
  175MOL0     C24039   3.700  10.863   5.186  0.7733 -1.1786 -0.6643
  175MOL0     C24040   3.664  10.792   5.312  0.0751  0.2919 -0.0359
  175MOL0     C24041   3.828  10.909   5.147  0.6490 -0.5082 -0.3308
  175MOL0     C24042   3.950  10.877   5.221  0.2828  0.6162 -0.0951
  175MOL0     O24043   4.067  10.859   5.151 -0.1167  0.2618 -0.1081
  175MOL0     C24044   4.178  10.802   5.205 -0.6229  0.0363 -0.0542
  175MOL0     C24045   4.196  10.738   5.328 -0.3418 -0.2058  0.4823
  175MOL0     C24046   4.311  10.680   5.370 -0.8127 -0.3559  0.4725
  175MOL0     C24047   4.428  10.696   5.300  0.5420  0.2345  0.5364
  175MOL0     O24048   4.535  10.620   5.337 -0.0195  0.3037 -0.4874
  175MOL0     C24049   4.665  10.643   5.279  0.6271  0.2475  0.5334
  175MOL0     C24050   4.763  10.619   5.385  0.1716  0.1040 -0.3286
  175MOL0     C24051   4.913  10.638   5.348  0.7255  0.0162 -0.7084
  175MOL0     C24052   4.949  10.776   5.301 -0.2162  0.0750 -0.1037
  175MOL0     C24053   5.096  10.811   5.277 -0.0762 -0.4396  0.0100
  175MOL0     C24054   5.178  10.704   5.203  0.2486 -0.1988 -0.3446
  175MOL0     C24055   5.319  10.752   5.169  0.1316  0.7444  0.7416
  175MOL0     C24056   5.333  10.808   5.026 -0.5492 -0.5308 -0.2805
  175MOL0    Cl24057   5.501  10.847   4.991  0.2750 -0.2300  0.2485
  175MOL0     C24058   4.419  10.765   5.172 -0.5254 -0.3800  0.2361
  175MOL0     C24059   4.295  10.817   5.129  0.2298  0.0720 -0.8573
  175MOL0     O24060   3.938  10.861   5.344  0.1244 -0.1541 -0.2798
  175MOL0     C24061   3.841  10.991   5.034  0.2859  0.1730  0.5097
  175MOL0     C24062   3.721  11.026   4.966  0.5449  0.1481 -0.0377
  175MOL0     N24063   2.877  10.750   4.650  0.0789  0.6631  0.3683
  175MOL0     N24064   2.770  10.701   4.701  0.6691 -0.3992 -0.6192
  175MOL0     C24065   1.581  10.651   5.091  0.1509 -0.0471  0.3818
  175MOL0     C24066   1.484  10.579   5.020  0.2030 -0.0285 -0.3976
  175MOL0     C24067   1.196  10.233   4.972 -0.7937  0.6231  0.4354
  175MOL0     C24068   1.275  10.140   4.892  0.7725  0.1161 -0.5622
  175MOL0     C24069   1.207  10.049   4.812 -0.7996 -0.2844 -0.1170
  175MOL0     C24070   1.067  10.029   4.826  0.7208  0.3979 -0.7726
  175MOL0     O24071   0.991   9.944   4.754 -0.2960 -0.5709 -0.0535
  175MOL0     C24072   1.066   9.861   4.669  0.8737  0.0341  0.8955
  175MOL0     C24073   0.984   9.770   4.583  0.5568  0.5309 -0.0124
  175MOL0     C24074   1.078   9.719   4.472 -0.3884 -0.5633  0.2798
  175MOL0     C24075   1.035   9.588   4.415  0.1462 -0.3585  0.1646
  175MOL0     C24076   0.903   9.592   4.340  0.3503  0.7277 -0.3699
  175MOL0     C24077   0.800   9.589   4.277 -0.4477 -0.8894 -0.2009
  175MOL0     C24078   0.994  10.102   4.911  0.0334  0.4670 -0.8057
  175MOL0     C24079   1.055  10.208   4.982  0.0934 -0.2168  0.0311
  175MOL0     C24080   0.957  10.297   5.066 -0.6409 -1.1612  0.4621
  175MOL0     H24081   1.585  10.262   5.089  1.2168  0.5155  0.4942
  175MOL0     H24082   1.750  10.379   5.212  1.7341  2.2976 -0.7591
  175MOL0     H24083   1.787  10.835   5.193 -3.1649 -2.0497 -0.0775
  175MOL0     H24084   1.821  10.740   5.054  0.2792  0.1120  0.7051
  175MOL0     H24085   2.014  10.828   5.271  2.5966  1.3298 -1.3754
  175MOL0     H24086   2.019  10.655   5.207 -3.4114 -1.2203 -0.3402
  175MOL0     H24087   2.080  10.740   4.992  2.1716 -1.8921  1.7507
  175MOL0     H24088   2.064  10.910   5.047  1.8789  1.9943  2.8845
  175MOL0     H24089   2.242  10.871   5.204  0.0341  1.0968 -0.7147
  175MOL0     H24090   2.252  10.695   5.140 -0.0655 -0.8999 -2.9515
  175MOL0     H24091   2.342  10.956   5.020 -0.5329  0.5783 -1.8311
  175MOL0     H24092   2.268  10.840   4.904  0.7074  0.0795 -0.6646
  175MOL0     H24093   2.495  10.764   5.105  1.6497 -0.4254 -1.0019
  175MOL0     H24094   2.424  10.665   4.992  1.5460  0.4378  1.2255
  175MOL0     H24095   2.584  10.913   4.953 -0.1070  0.0291  0.2160
  175MOL0     H24096   2.504  10.837   4.818  0.9246  1.6034  0.2485
  175MOL0     H24097   2.698  10.668   5.000  0.9286  0.0528 -0.3471
  175MOL0     H24098   2.604  10.616   4.860  1.9789 -0.9905 -0.6589
  175MOL0     H24099   2.879  10.885   4.942 -3.3872  0.9195  0.4765
  175MOL0     H24100   3.016  11.029   4.699  0.5785  1.3009  2.0037
  175MOL0     H24101   3.113  10.909   4.621  1.8333  0.8822  1.2509
  175MOL0     H24102   3.104  10.974   4.922  2.7069  1.2566  0.7915
  175MOL0     H24103   3.154  10.813   4.850 -0.1733 -0.3373  1.1999
  175MOL0     H24104   3.334  10.939   4.716  3.7132  3.2140  0.4171
  175MOL0     H24105   3.279  11.088   4.794  0.3915  0.2422  2.0894
  175MOL0     H24106   3.310  10.947   5.026 -0.4237  1.7849  0.3679
  175MOL0     H24107   3.404  10.837   4.916 -1.0569  0.2088 -2.8115
  175MOL0     H24108   3.486  10.880   5.158  0.1318  2.7908  1.5933
  175MOL0     H24109   3.568  10.740   5.305 -0.9793  1.6186  3.1001
  175MOL0     H24110   3.662  10.864   5.394 -3.5406  0.9377 -0.5112
  175MOL0     H24111   3.733  10.712   5.338  0.8963  1.4240  1.3758
  175MOL0     H24112   4.110  10.734   5.394 -0.3913  0.7165  0.4909
  175MOL0     H24113   4.315  10.631   5.466 -1.4826  2.6932  2.2058
  175MOL0     H24114   4.682  10.573   5.196  1.0583 -1.3660  1.9134
  175MOL0     H24115   4.676  10.742   5.234  1.6061  0.5093  1.3038
  175MOL0     H24116   4.750  10.690   5.468 -0.7930 -1.0293  0.5266
  175MOL0     H24117   4.745  10.518   5.423 -4.2384  1.1491  1.0395
  175MOL0     H24118   4.934  10.568   5.267  0.7921 -1.7255  0.7317
  175MOL0     H24119   4.978  10.612   5.432  1.7483  0.2575 -1.4180
  175MOL0     H24120   4.915  10.847   5.377  0.8855  1.6895 -1.0380
  175MOL0     H24121   4.887  10.801   5.214  0.8350  1.3884 -0.5089
  175MOL0     H24122   5.106  10.909   5.229  2.1199  0.4249  2.0632
  175MOL0     H24123   5.133  10.815   5.380 -0.3321  0.1720  0.0873
  175MOL0     H24124   5.127  10.661   5.115  0.8380  0.6875 -1.1342
  175MOL0     H24125   5.177  10.625   5.278 -1.9741  2.2130  2.3874
  175MOL0     H24126   5.386  10.666   5.175 -0.0048  0.7167  2.7063
  175MOL0     H24127   5.354  10.833   5.234  1.3740  0.6662  0.1789
  175MOL0     H24128   5.274  10.898   5.008 -0.2100 -0.3012 -0.2646
  175MOL0     H24129   5.295  10.739   4.951 -3.4295 -1.9443  2.2852
  175MOL0     H24130   4.508  10.795   5.118 -0.5993 -2.7020 -1.3421
  175MOL0     H24131   4.291  10.867   5.033 -1.7552  2.6301  0.4312
  175MOL0     H24132   3.938  11.035   5.013  1.0467 -1.3199  0.7713
  175MOL0     H24133   3.728  11.098   4.885 -1.1205 -0.0353 -0.3773
  175MOL0     H24134   1.571  10.759   5.090 -1.3472 -0.1637 -1.2057
  175MOL0     H24135   1.397  10.630   4.978 -0.0199 -0.2893 -0.2612
  175MOL0     H24136   1.383  10.152   4.888  0.7361  0.9116  0.3405
  175MOL0     H24137   1.274   9.991   4.750 -0.4272 -1.6757  1.5308
  175MOL0     H24138   1.123   9.925   4.600 -1.5390  0.9702 -0.3383
  175MOL0     H24139   1.134   9.796   4.726  0.6179 -0.2276  0.9027
  175MOL0     H24140   0.896   9.824   4.548  0.3555  0.4082  0.3026
  175MOL0     H24141   0.951   9.680   4.635  1.7593 -0.9632 -1.7092
  175MOL0     H24142   1.086   9.792   4.391  2.4593  1.2117  1.9878
  175MOL0     H24143   1.176   9.715   4.519 -0.4529 -1.3006  0.3692
  175MOL0     H24144   1.040   9.513   4.495  1.9010  0.9163  1.3407
  175MOL0     H24145   1.111   9.555   4.344  0.3858  1.7981 -0.6812
  175MOL0     H24146   0.699   9.605   4.246  0.7121  4.4843 -2.3252
  175MOL0     H24147   0.886  10.097   4.901 -0.1971  2.5279  0.0344
  175MOL0     H24148   0.947  10.255   5.167  2.0468 -1.1701  0.7977
  175MOL0     H24149   0.992  10.400   5.075  1.2269 -1.7582  0.3845
  175MOL0     H24150   0.863  10.294   5.009 -0.2989  0.7178 -0.2619
  176MOL0     O24151   6.114   5.586   0.637  0.5604  0.3299 -0.5099
  176MOL0     C24152   6.084   5.700   0.608  0.1301 -0.6247  0.3680
  176MOL0     O24153   6.170   5.788   0.556  0.3869  0.4381 -0.1660
  176MOL0     C24154   6.293   5.738   0.514  0.2856  1.4125 -0.0840
  176MOL0     C24155   6.406   5.759   0.592  0.1846 -0.1974 -0.3441
  176MOL0     C24156   6.528   5.720   0.556 -0.0809  0.0174 -0.0746
  176MOL0     C24157   6.551   5.655   0.435  0.1787  0.3735  0.4358
  176MOL0     O24158   6.678   5.616   0.415 -0.4035 -0.3360  0.3165
  176MOL0     C24159   6.718   5.535   0.304  0.3489 -0.0548 -0.9682
  176MOL0     C24160   6.867   5.545   0.295 -0.3528 -0.8737  0.5963
  176MOL0     C24161   6.908   5.682   0.229 -0.3325  0.4483 -0.3326
  176MOL0     C24162   7.059   5.680   0.215 -0.6443  0.1443 -0.1245
  176MOL0     C24163   7.103   5.822   0.199  0.6395  0.0350  0.1813
  176MOL0     C24164   7.260   5.842   0.220  0.5053  0.2342  0.0644
  176MOL0     C24165   7.292   5.989   0.220  0.1540  0.3755 -0.6621
  176MOL0     C24166   7.437   6.012   0.272  0.0452 -0.3487  0.4120
  176MOL0     N24167   7.545   5.969   0.181 -0.1379 -0.2687  0.2403
  176MOL0     C24168   7.608   5.844   0.188 -0.0030 -0.9375 -0.4077
  176MOL0     C24169   7.687   5.847   0.077  0.1059 -0.0354 -0.4411
  176MOL0     C24170   7.790   5.745   0.039  0.0861 -0.5612 -0.1113
  176MOL0     C24171   7.907   5.739   0.136 -0.7327  0.4710  0.0756
  176MOL0     C24172   8.046   5.699   0.076  0.2006  0.1868  0.4934
  176MOL0     C24173   8.091   5.819  -0.012  0.8060  0.1090 -0.8088
  176MOL0     O24174   8.203   5.782  -0.089 -0.0506  0.1935  0.4104
  176MOL0     C24175   8.330   5.771  -0.029 -0.1290 -0.3320 -0.1376
  176MOL0     C24176   8.429   5.727  -0.110  0.1119  0.7552 -0.1227
  176MOL0     C24177   8.559   5.726  -0.072 -0.5592  0.3437  0.4013
  176MOL0     C24178   8.664   5.711  -0.180 -0.5354  0.4481 -0.2246
  176MOL0     C24179   8.595   5.756   0.065  0.3340  0.3112  0.2808
  176MOL0     C24180   8.742   5.767   0.103  0.4302 -0.5671  0.9051
  176MOL0     O24181   8.817   5.657   0.083 -0.0427  0.0430 -0.5344
  176MOL0     C24182   8.952   5.681   0.118  0.6459  0.8048  0.9468
  176MOL0     C24183   9.035   5.786   0.059 -0.2644  0.7271 -0.1641
  176MOL0     C24184   9.171   5.785   0.088 -0.2076 -0.5152 -0.6821
  176MOL0     C24185   9.232   5.684   0.160 -0.3314  0.2107 -0.2697
  176MOL0     O24186   9.368   5.683   0.180 -0.1918  1.2840  0.7699
  176MOL0     C24187   9.429   5.550   0.189 -0.1219 -0.2682  0.9881
  176MOL0     C24188   9.576   5.564   0.144  0.1486 -0.4340 -0.4935
  176MOL0     C24189   9.636   5.444   0.080  0.3722  0.1610  0.8635
  176MOL0     C24190   9.796   5.454   0.068  0.0328  0.3138 -0.0658
  176MOL0     C24191   9.854   5.308   0.074 -0.7756 -0.4232 -0.1050
  176MOL0     C24192  10.006   5.313   0.058  0.4583  0.1842  0.0461
  176MOL0     C24193  10.046   5.348  -0.081 -0.0667 -0.0342 -0.3305
  176MOL0     C24194  10.188   5.401  -0.076 -0.9908  0.2161  0.9016
  176MOL0    Cl24195  10.301   5.269  -0.012  0.1399 -0.1827 -0.2404
  176MOL0     C24196   9.149   5.587   0.220 -0.2036 -0.3217  0.8255
  176MOL0     C24197   9.018   5.591   0.191 -0.1652 -0.4419  0.3606
  176MOL0     O24198   8.769   5.880   0.151 -0.1884 -0.1339  0.2537
  176MOL0     C24199   8.488   5.783   0.150  0.1416  0.7446  0.8405
  176MOL0     C24200   8.354   5.797   0.103 -0.9826  0.3221  0.8229
  176MOL0     N24201   7.690   5.970   0.018 -0.6015 -0.0399  0.1619
  176MOL0     N24202   7.600   6.040   0.076  0.1449  0.6219  0.5305
  176MOL0     C24203   6.441   5.629   0.345  0.4959  0.5079 -0.2362
  176MOL0     C24204   6.314   5.669   0.389  0.1510 -0.7392  0.1457
  176MOL0     C24205   5.952   5.758   0.636 -0.2959  0.5734  0.1029
  176MOL0     C24206   5.923   5.895   0.610  0.2372 -0.0397  0.0060
  176MOL0     C24207   5.798   5.948   0.649 -0.2016 -0.3077 -0.2637
  176MOL0     C24208   5.700   5.868   0.709  0.1874 -0.8167 -0.1580
  176MOL0     O24209   5.588   5.938   0.736  0.5777  0.2846 -0.1732
  176MOL0     C24210   5.483   5.892   0.824  0.3910  0.1839  0.4220
  176MOL0     C24211   5.355   5.968   0.804  0.4458 -0.2113  0.9478
  176MOL0     C24212   5.299   5.959   0.650 -0.2686 -0.8611 -0.1896
  176MOL0     C24213   5.215   5.838   0.624 -0.0745  0.1380  0.2541
  176MOL0     C24214   5.300   5.718   0.609  0.1331  0.5800  0.4912
  176MOL0     C24215   5.374   5.623   0.590 -0.3833  0.8241  0.1596
  176MOL0     C24216   5.726   5.738   0.744  0.3487  0.1265  1.2118
  176MOL0     C24217   5.847   5.677   0.696  0.0134 -0.1101  0.1167
  176MOL0     C24218   5.839   5.529   0.708  0.0821  0.0201  0.9160
  176MOL0     H24219   6.393   5.802   0.691 -0.5076 -0.1662 -0.4387
  176MOL0     H24220   6.613   5.730   0.623 -0.3174  0.6510  0.1364
  176MOL0     H24221   6.662   5.552   0.211 -2.7945 -0.1625  0.7554
  176MOL0     H24222   6.694   5.429   0.322 -0.7844 -0.3205 -3.5371
  176MOL0     H24223   6.920   5.539   0.390  1.9800  1.9105 -0.3944
  176MOL0     H24224   6.901   5.461   0.233 -1.7216 -0.2919 -1.0093
  176MOL0     H24225   6.865   5.706   0.132  0.1040 -0.6054 -0.8007
  176MOL0     H24226   6.880   5.761   0.299 -1.0740 -0.9713  1.0431
  176MOL0     H24227   7.103   5.648   0.309 -1.0875 -0.7873 -0.2251
  176MOL0     H24228   7.093   5.622   0.128 -0.0785  1.5890 -0.8983
  176MOL0     H24229   7.049   5.877   0.277 -1.8162 -2.0419  0.0849
  176MOL0     H24230   7.077   5.863   0.101 -0.4760 -1.2931 -0.1148
  176MOL0     H24231   7.296   5.798   0.314  0.3172 -2.1946 -0.9198
  176MOL0     H24232   7.316   5.787   0.144  1.6138  2.1967 -0.6154
  176MOL0     H24233   7.228   6.043   0.291 -3.2027 -3.0322 -0.7585
  176MOL0     H24234   7.294   6.036   0.122  1.4062  0.2006 -0.7372
  176MOL0     H24235   7.444   6.121   0.283 -0.8500 -0.1325 -0.8956
  176MOL0     H24236   7.452   5.978   0.375 -3.2429  0.0352  1.1047
  176MOL0     H24237   7.615   5.763   0.259  0.2767 -0.8058 -0.2823
  176MOL0     H24238   7.819   5.765  -0.065  1.4708  0.9092  0.5197
  176MOL0     H24239   7.745   5.646   0.046 -0.7167 -0.1948 -0.0029
  176MOL0     H24240   7.924   5.840   0.176 -0.7674  0.3298  0.4469
  176MOL0     H24241   7.877   5.667   0.213  0.3616 -0.2280 -0.1390
  176MOL0     H24242   8.114   5.695   0.161 -1.0384 -0.4607  1.4938
  176MOL0     H24243   8.048   5.603   0.023  1.7084  0.4534  0.0180
  176MOL0     H24244   8.008   5.847  -0.078 -0.7525  0.1442  1.0741
  176MOL0     H24245   8.094   5.909   0.050 -2.2661  0.6595 -1.2926
  176MOL0     H24246   8.401   5.706  -0.213 -3.6023  0.9895  0.7202
  176MOL0     H24247   8.745   5.645  -0.148 -0.8804  0.6134  1.0287
  176MOL0     H24248   8.705   5.806  -0.215  1.3472 -0.6497 -1.1692
  176MOL0     H24249   8.622   5.669  -0.272 -0.3291  0.2514 -0.2308
  176MOL0     H24250   8.998   5.842  -0.026  2.5587 -0.2089 -2.1686
  176MOL0     H24251   9.237   5.861   0.048 -0.7387  0.6998  0.6556
  176MOL0     H24252   9.426   5.508   0.290  2.7095  0.6938  1.5734
  176MOL0     H24253   9.377   5.483   0.119 -1.6697  0.7919  1.0898
  176MOL0     H24254   9.582   5.638   0.063 -0.6365 -0.7025 -0.8111
  176MOL0     H24255   9.624   5.596   0.236 -0.1747 -4.1242  1.1106
  176MOL0     H24256   9.586   5.433  -0.017 -0.5191  0.1380  1.3117
  176MOL0     H24257   9.623   5.351   0.136 -1.0509 -0.8899 -1.0807
  176MOL0     H24258   9.837   5.508   0.154 -1.0124  2.3979 -0.7807
  176MOL0     H24259   9.821   5.509  -0.023  0.1844 -3.0519 -2.2296
  176MOL0     H24260   9.817   5.259   0.165 -0.7504 -1.0683 -0.4332
  176MOL0     H24261   9.815   5.254  -0.013 -1.3467 -5.3333  2.8280
  176MOL0     H24262  10.055   5.220   0.089  2.7090  1.2733 -0.1080
  176MOL0     H24263  10.049   5.388   0.124  1.9458 -0.7724  0.2060
  176MOL0     H24264   9.973   5.416  -0.126  0.6384 -0.5936 -2.4510
  176MOL0     H24265  10.057   5.264  -0.151  3.4218  0.0766 -0.0545
  176MOL0     H24266  10.209   5.487  -0.012 -0.7781  1.1183 -0.3273
  176MOL0     H24267  10.214   5.412  -0.182 -2.0108  1.7677  0.7757
  176MOL0     H24268   9.190   5.500   0.271  0.3148 -1.7161 -1.7852
  176MOL0     H24269   8.949   5.513   0.222 -1.2770 -0.2730 -1.5071
  176MOL0     H24270   8.511   5.825   0.247 -0.9849  2.0335  0.5709
  176MOL0     H24271   8.281   5.842   0.169 -1.7459 -1.1229  0.9969
  176MOL0     H24272   6.448   5.592   0.243 -0.5932  1.4262 -0.6669
  176MOL0     H24273   6.223   5.651   0.334 -0.9670  1.2615  1.2523
  176MOL0     H24274   6.004   5.953   0.567  1.6784 -0.1986  2.3682
  176MOL0     H24275   5.774   6.052   0.628  0.8549  0.0221  0.0497
  176MOL0     H24276   5.470   5.785   0.810  3.3021  0.0947 -2.8780
  176MOL0     H24277   5.511   5.912   0.928 -1.7013  0.0419  1.0390
  176MOL0     H24278   5.360   6.074   0.829 -0.5671  0.5727 -1.7785
  176MOL0     H24279   5.288   5.921   0.876  2.3028 -0.5453  2.5442
  176MOL0     H24280   5.232   6.046   0.643 -1.8607 -2.0548 -0.3537
  176MOL0     H24281   5.382   5.978   0.581 -0.0859 -1.0205 -0.0137
  176MOL0     H24282   5.159   5.855   0.531  0.0998  0.6009  0.2300
  176MOL0     H24283   5.132   5.837   0.695 -0.6953  0.0064 -0.4537
  176MOL0     H24284   5.433   5.535   0.574 -1.9718 -0.1198 -0.8612
  176MOL0     H24285   5.645   5.681   0.787 -1.3553  1.6364  0.1453
  176MOL0     H24286   5.748   5.487   0.753  1.8858 -2.1466  2.8259
  176MOL0     H24287   5.850   5.497   0.604 -1.1346  0.7238  0.5519
  176MOL0     H24288   5.924   5.487   0.762  0.8070  0.1657 -0.0866
  177MOL0     O24289  10.847   5.008   2.417 -0.6362  0.5745  0.2429
  177MOL0     C24290  10.729   4.974   2.388 -0.8164 -0.2496  0.8912
  177MOL0     O24291  10.690   4.845   2.361  0.3953  0.3617 -0.1619
  177MOL0     C24292  10.793   4.748   2.331  0.0425 -0.7776  0.3779
  177MOL0     C24293  10.920   4.770   2.271  0.4350  0.3578  0.6524
  177MOL0     C24294  11.000   4.661   2.239  0.1525 -0.5116  0.2643
  177MOL0     C24295  10.970   4.526   2.270  0.5053 -0.1127 -0.4524
  177MOL0     O24296  11.056   4.433   2.221 -0.3719  0.3425  0.1555
  177MOL0     C24297  11.160   4.393   2.312 -0.2430  0.0469  0.1482
  177MOL0     C24298  11.218   4.265   2.260  0.0374 -0.2101  0.8035
  177MOL0     C24299  11.304   4.274   2.136 -0.3688 -0.9161  0.0034
  177MOL0     C24300  11.310   4.129   2.081  0.7050 -0.4662  0.8766
  177MOL0     C24301  11.447   4.109   2.001  0.0214  0.2611  0.0862
  177MOL0     C24302  11.477   3.961   1.972  0.0767 -0.7759 -0.4211
  177MOL0     C24303  11.616   3.907   2.003 -0.5353  0.2215  0.5580
  177MOL0     C24304  11.636   3.777   1.912 -0.5580  0.1442 -0.1330
  177MOL0     N24305  11.765   3.713   1.946  0.2538  0.2286  0.0847
  177MOL0     C24306  11.772   3.580   1.985  0.3861 -0.8392  0.3832
  177MOL0     C24307  11.892   3.573   2.051  0.1588 -0.2775 -0.2138
  177MOL0     C24308  11.936   3.446   2.111 -0.3553  0.7318 -0.0455
  177MOL0     C24309  12.088   3.411   2.105 -0.7862  0.1326 -0.1742
  177MOL0     C24310  12.146   3.376   1.972 -0.3767 -0.8334  0.1306
  177MOL0     C24311  12.291   3.341   1.980 -0.2135 -0.2152  0.2151
  177MOL0     O24312  12.319   3.245   1.873  0.4139  0.0958  0.9219
  177MOL0     C24313  12.441   3.243   1.816  0.0798  0.3940  0.2156
  177MOL0     C24314  12.561   3.288   1.873 -0.5025 -0.4920  1.2581
  177MOL0     C24315  12.684   3.282   1.797 -0.3043  0.6235  0.2631
  177MOL0     C24316  12.810   3.354   1.847  0.2398 -0.4185  0.1567
  177MOL0     C24317  12.690   3.208   1.679  0.6822 -1.3714  0.2429
  177MOL0     C24318  12.802   3.180   1.591 -0.8400  0.7531 -0.0216
  177MOL0     O24319  12.911   3.146   1.664  0.1434  0.1686 -0.5410
  177MOL0     C24320  13.035   3.140   1.604 -0.1444 -0.7288  0.0536
  177MOL0     C24321  13.064   3.047   1.511 -0.3303 -0.1951  0.5486
  177MOL0     C24322  13.195   3.038   1.465 -0.0370 -0.3150 -0.6941
  177MOL0     C24323  13.296   3.123   1.510  0.4084 -0.6168  0.1041
  177MOL0     O24324  13.425   3.119   1.460  0.3801  0.4397  0.0663
  177MOL0     C24325  13.470   2.988   1.456 -0.9162  1.0094 -1.2357
  177MOL0     C24326  13.623   2.994   1.429 -0.2561 -0.4314 -0.2554
  177MOL0     C24327  13.675   2.845   1.408 -0.6996 -0.9883 -0.5740
  177MOL0     C24328  13.818   2.836   1.363  0.1255  1.0128  1.4013
  177MOL0     C24329  13.875   2.695   1.377 -0.4226 -0.0051  0.6972
  177MOL0     C24330  14.011   2.687   1.300 -1.3355  0.3221 -0.8742
  177MOL0     C24331  14.061   2.542   1.288 -0.1846 -0.2606 -0.3762
  177MOL0     C24332  14.189   2.530   1.212 -0.8665  0.1801  1.1630
  177MOL0    Cl24333  14.320   2.625   1.299  0.4094 -0.2836 -0.0070
  177MOL0     C24334  13.262   3.225   1.598  1.1021  0.4446 -0.7579
  177MOL0     C24335  13.127   3.234   1.651 -0.1973  0.5585  0.1698
  177MOL0     O24336  12.796   3.188   1.470 -0.3594  0.2667  0.4518
  177MOL0     C24337  12.562   3.163   1.629 -0.4411  0.0960  0.4716
  177MOL0     C24338  12.434   3.188   1.692  0.0408  0.0764 -0.9984
  177MOL0     N24339  11.954   3.697   2.047 -0.4428 -0.4786 -0.7432
  177MOL0     N24340  11.877   3.780   1.978 -0.0808  0.1429 -0.4068
  177MOL0     C24341  10.849   4.503   2.341  1.0155  0.3613  0.2553
  177MOL0     C24342  10.766   4.615   2.370  0.2682  0.6299  1.0016
  177MOL0     C24343  10.626   5.088   2.367 -0.3663  0.3611 -1.1237
  177MOL0     C24344  10.668   5.224   2.396  0.3981  0.0119 -0.3145
  177MOL0     C24345  10.572   5.326   2.389 -0.0698 -0.1305  0.2742
  177MOL0     C24346  10.439   5.302   2.351  0.6373 -0.0179 -0.1163
  177MOL0     O24347  10.331   5.393   2.335  0.0602  0.5213 -0.7023
  177MOL0     C24348  10.358   5.530   2.348 -0.4837  0.7875  0.3821
  177MOL0     C24349  10.230   5.612   2.341 -0.3571  0.2639 -0.6230
  177MOL0     C24350  10.141   5.590   2.215 -0.5681 -0.0817 -0.3505
  177MOL0     C24351  10.011   5.666   2.218 -0.1291 -0.2394 -0.2194
  177MOL0     C24352   9.945   5.642   2.089  0.3463 -0.2219  0.5377
  177MOL0     C24353   9.885   5.598   1.994  0.7936 -0.4329 -0.5159
  177MOL0     C24354  10.407   5.174   2.320 -0.3727 -0.6203  0.3263
  177MOL0     C24355  10.491   5.064   2.335  0.3964  0.2849  0.7752
  177MOL0     C24356  10.425   4.930   2.295  0.1269  0.3433  0.1826
  177MOL0     H24357  10.959   4.866   2.239  2.4613 -1.0282 -1.3205
  177MOL0     H24358  11.087   4.681   2.177 -1.4928  0.7219 -1.7699
  177MOL0     H24359  11.118   4.369   2.410  2.8411  1.3684  1.9307
  177MOL0     H24360  11.231   4.476   2.314 -2.0876  1.6861  1.8145
  177MOL0     H24361  11.285   4.229   2.339  1.2890 -2.0606 -1.0100
  177MOL0     H24362  11.133   4.197   2.251  0.4096 -0.9507  2.4702
  177MOL0     H24363  11.251   4.338   2.064  0.8407  0.5034  0.3283
  177MOL0     H24364  11.398   4.326   2.154 -0.5187  1.2920 -4.2943
  177MOL0     H24365  11.301   4.059   2.164 -2.8650 -1.0752  0.1448
  177MOL0     H24366  11.221   4.119   2.018  0.0850  2.0454  1.2433
  177MOL0     H24367  11.527   4.153   2.060  1.5097 -1.5823 -0.4779
  177MOL0     H24368  11.435   4.163   1.906 -1.3312 -0.5471 -0.2385
  177MOL0     H24369  11.409   3.899   2.032  0.1653  0.0589  0.5572
  177MOL0     H24370  11.455   3.940   1.866  0.8445 -1.3631 -0.4687
  177MOL0     H24371  11.641   3.881   2.107  1.6448 -2.1726 -0.4571
  177MOL0     H24372  11.682   3.980   1.955 -1.7577  0.0804 -1.3952
  177MOL0     H24373  11.549   3.712   1.927  0.1049 -0.4256  1.3574
  177MOL0     H24374  11.642   3.794   1.804 -0.1393 -1.7781 -0.4467
  177MOL0     H24375  11.692   3.509   1.975 -0.0189 -0.3661  0.2154
  177MOL0     H24376  11.886   3.361   2.065  0.2060  0.4625 -0.1632
  177MOL0     H24377  11.910   3.441   2.217 -4.2223 -2.8748 -0.9431
  177MOL0     H24378  12.148   3.490   2.152  1.3871 -1.6511  0.1791
  177MOL0     H24379  12.089   3.327   2.174  0.8738  1.9719  2.2364
  177MOL0     H24380  12.096   3.292   1.923 -0.0911 -0.7537 -0.3105
  177MOL0     H24381  12.132   3.465   1.910 -2.0845 -1.2379 -0.1195
  177MOL0     H24382  12.356   3.429   1.975 -0.5308 -0.0017 -0.3166
  177MOL0     H24383  12.301   3.285   2.073 -2.1682 -1.3612 -0.2092
  177MOL0     H24384  12.559   3.341   1.968  1.5502 -1.1569  1.6996
  177MOL0     H24385  12.832   3.435   1.777  0.6524  3.0713  3.9533
  177MOL0     H24386  12.893   3.284   1.857 -1.5951 -2.6312  0.6216
  177MOL0     H24387  12.789   3.383   1.950  1.4008 -2.2833  0.9594
  177MOL0     H24388  13.000   2.976   1.461  1.7661 -1.8805  0.1179
  177MOL0     H24389  13.226   2.960   1.396  0.9958 -1.6449  1.1576
  177MOL0     H24390  13.454   2.930   1.547  0.0859  1.6765 -0.6173
  177MOL0     H24391  13.439   2.936   1.364  1.5455 -0.1443 -1.5074
  177MOL0     H24392  13.641   3.051   1.338  2.7236  0.6485  0.8781
  177MOL0     H24393  13.672   3.051   1.509  0.9976  2.0375 -2.6327
  177MOL0     H24394  13.599   2.795   1.347 -2.0697 -1.0801  1.1167
  177MOL0     H24395  13.655   2.792   1.502 -0.1577 -0.8068 -0.3542
  177MOL0     H24396  13.885   2.910   1.408  0.9865  1.4228 -0.4813
  177MOL0     H24397  13.817   2.855   1.256  1.7359 -2.4468  0.6545
  177MOL0     H24398  13.894   2.684   1.484 -0.3436  0.4927  0.7362
  177MOL0     H24399  13.808   2.617   1.338 -0.5721  0.7537 -0.6113
  177MOL0     H24400  14.093   2.745   1.344 -1.0766  0.6190 -1.7378
  177MOL0     H24401  13.997   2.728   1.200 -0.6428  1.9590 -0.3454
  177MOL0     H24402  13.985   2.487   1.232  0.0515  1.1973 -2.2138
  177MOL0     H24403  14.074   2.498   1.387  2.9400  0.4240 -0.3668
  177MOL0     H24404  14.168   2.561   1.109 -4.3628 -0.1122  1.6526
  177MOL0     H24405  14.228   2.429   1.199  1.3022  1.2581 -1.8280
  177MOL0     H24406  13.336   3.288   1.646  0.4987 -0.0972  0.9675
  177MOL0     H24407  13.107   3.313   1.722  0.2378  0.4307  0.4401
  177MOL0     H24408  12.562   3.115   1.532  1.9546  3.2830 -1.2992
  177MOL0     H24409  12.339   3.160   1.648 -1.0461  2.3743 -0.3145
  177MOL0     H24410  10.838   4.399   2.369  1.7519  0.6252  1.5728
  177MOL0     H24411  10.668   4.603   2.414  0.7922 -0.0731  2.0039
  177MOL0     H24412  10.770   5.249   2.424  0.5888 -1.1146  0.0521
  177MOL0     H24413  10.608   5.426   2.411 -0.1968 -0.2523  1.0844
  177MOL0     H24414  10.406   5.556   2.443  1.8325 -1.4524 -0.0615
  177MOL0     H24415  10.424   5.561   2.267  1.4287  0.0056  1.5695
  177MOL0     H24416  10.262   5.717   2.343 -0.1999  0.2115  0.8529
  177MOL0     H24417  10.163   5.596   2.426  1.3772 -0.7298  0.6260
  177MOL0     H24418  10.200   5.614   2.127 -0.4491  0.1515 -0.2082
  177MOL0     H24419  10.112   5.484   2.218 -1.5277  0.1478  2.6245
  177MOL0     H24420  10.047   5.769   2.223  2.8637 -0.9745 -3.0292
  177MOL0     H24421   9.955   5.625   2.302 -1.4208 -2.6393 -2.1214
  177MOL0     H24422   9.821   5.577   1.911  2.4129  1.4237 -2.3441
  177MOL0     H24423  10.309   5.159   2.275 -0.2259 -1.0794  0.1581
  177MOL0     H24424  10.469   4.884   2.206  2.0162 -1.2889  1.8387
  177MOL0     H24425  10.431   4.853   2.372 -1.0571  0.6114  0.5565
  177MOL0     H24426  10.318   4.945   2.279  0.3268  1.9877  0.2026
  178MOL0     O24427   9.533   1.888   1.011  0.6002 -0.4318  0.3921
  178MOL0     C24428   9.577   1.921   1.123 -0.5644  0.2067 -0.1191
  178MOL0     O24429   9.707   1.955   1.151  0.2098 -0.2038  0.0714
  178MOL0     C24430   9.806   1.926   1.061  0.1573 -0.4354  0.3144
  178MOL0     C24431   9.864   1.803   1.053 -0.7393  1.0312  0.5826
  178MOL0     C24432   9.975   1.779   0.967 -0.3489 -0.1890  0.7830
  178MOL0     C24433  10.030   1.887   0.900  0.1116 -0.6776 -1.3529
  178MOL0     O24434  10.142   1.863   0.818  0.1106 -0.2146 -0.3553
  178MOL0     C24435  10.254   1.953   0.831 -0.2975  0.6299 -0.0899
  178MOL0     C24436  10.373   1.871   0.773 -0.5907  0.3169  0.2613
  178MOL0     C24437  10.505   1.951   0.767  0.0329 -0.2620  0.7444
  178MOL0     C24438  10.546   1.975   0.625  0.4575 -0.4704 -0.4295
  178MOL0     C24439  10.694   2.023   0.615  0.1413  0.1262  0.1066
  178MOL0     C24440  10.704   2.117   0.488  0.0953  0.4664 -0.0882
  178MOL0     C24441  10.845   2.177   0.482 -0.2129  0.1338  1.0692
  178MOL0     C24442  10.963   2.075   0.462 -0.1865 -0.3847  0.0877
  178MOL0     N24443  11.094   2.145   0.456 -0.5127  0.1711 -0.7830
  178MOL0     C24444  11.132   2.248   0.379  0.2318  0.0270  0.2529
  178MOL0     C24445  11.259   2.284   0.418  0.4166 -0.2578  0.4813
  178MOL0     C24446  11.346   2.366   0.329  0.8098 -0.5158 -0.7997
  178MOL0     C24447  11.446   2.453   0.417  1.1653  0.0063  0.8744
  178MOL0     C24448  11.554   2.359   0.465 -0.0618 -0.5503  0.6809
  178MOL0     C24449  11.683   2.433   0.499  0.1618 -0.2370 -0.3029
  178MOL0     O24450  11.772   2.333   0.549 -0.6123 -0.5294  0.7906
  178MOL0     C24451  11.894   2.365   0.597  0.8280 -1.7865  0.2104
  178MOL0     C24452  11.940   2.495   0.598  0.1763 -0.6197 -0.3810
  178MOL0     C24453  12.062   2.533   0.654 -0.2815  0.3133  0.4751
  178MOL0     C24454  12.095   2.686   0.651  0.3675  0.7095  0.9258
  178MOL0     C24455  12.148   2.430   0.699 -0.1864 -0.1676  0.1029
  178MOL0     C24456  12.293   2.464   0.740  0.3636 -0.3938  0.4847
  178MOL0     O24457  12.356   2.364   0.810 -0.7194  0.1626 -0.5754
  178MOL0     C24458  12.489   2.378   0.835  0.1751 -0.5825 -0.3666
  178MOL0     C24459  12.581   2.405   0.736  1.3714  0.0528  0.5801
  178MOL0     C24460  12.717   2.399   0.759 -0.1914 -0.8791  0.4029
  178MOL0     C24461  12.769   2.393   0.887  0.2171 -0.6270 -0.3274
  178MOL0     O24462  12.900   2.415   0.921  0.0499 -0.0130  0.3710
  178MOL0     C24463  13.000   2.387   0.825 -0.8160  1.1829  0.0102
  178MOL0     C24464  13.130   2.341   0.903  0.0739 -0.5549  0.0033
  178MOL0     C24465  13.261   2.334   0.824 -0.5663  0.0287  0.9602
  178MOL0     C24466  13.297   2.459   0.745 -0.1712 -0.3152 -0.5911
  178MOL0     C24467  13.427   2.437   0.670 -0.7202  0.4075 -0.3207
  178MOL0     C24468  13.472   2.563   0.601 -0.0695 -0.3854  0.2916
  178MOL0     C24469  13.585   2.635   0.679 -0.6103  0.3979  0.4197
  178MOL0     C24470  13.580   2.771   0.633 -0.5059  0.1074 -0.6264
  178MOL0    Cl24471  13.422   2.845   0.698 -0.0865 -0.1992  0.2550
  178MOL0     C24472  12.673   2.377   0.987 -0.2757 -0.7765 -0.3590
  178MOL0     C24473  12.538   2.373   0.967 -0.2203  0.3153 -0.1890
  178MOL0     O24474  12.342   2.574   0.715  0.0447 -0.6975 -0.8818
  178MOL0     C24475  12.111   2.295   0.682 -0.2623  0.0283 -0.2820
  178MOL0     C24476  11.980   2.266   0.639 -0.5860  0.4829 -0.5552
  178MOL0     N24477  11.285   2.213   0.532  0.4313 -0.3049 -0.5845
  178MOL0     N24478  11.193   2.122   0.556  0.6278 -0.0890 -0.7093
  178MOL0     C24479   9.975   2.013   0.918 -0.5816 -0.5358 -0.1114
  178MOL0     C24480   9.864   2.035   0.993  0.8278  0.6158 -0.3254
  178MOL0     C24481   9.484   1.935   1.237 -0.1406 -0.2887 -0.2249
  178MOL0     C24482   9.346   1.971   1.206 -0.6462 -0.3492  0.2365
  178MOL0     C24483   9.236   1.983   1.288 -0.4796 -0.1653 -0.1906
  178MOL0     C24484   9.262   1.951   1.422 -0.4411 -0.1370 -0.7413
  178MOL0     O24485   9.165   1.940   1.522 -0.1747  0.5339 -0.3393
  178MOL0     C24486   9.029   1.973   1.478 -0.1776  0.0193 -0.1141
  178MOL0     C24487   8.941   1.961   1.588  1.0708 -0.0265 -0.2592
  178MOL0     C24488   8.898   1.820   1.611 -0.4003 -0.5176  1.1457
  178MOL0     C24489   8.810   1.802   1.737  0.2526  0.1125  0.3659
  178MOL0     C24490   8.677   1.849   1.705 -0.2941 -0.2168 -0.3560
  178MOL0     C24491   8.566   1.886   1.669  0.1348 -0.0860  0.6824
  178MOL0     C24492   9.396   1.929   1.461  0.3629  0.2282 -0.0606
  178MOL0     C24493   9.507   1.909   1.377  0.4610 -0.2309  0.6088
  178MOL0     C24494   9.643   1.878   1.426 -0.4187  0.2307  0.5165
  178MOL0     H24495   9.831   1.728   1.123  0.1714  1.6843  1.7416
  178MOL0     H24496  10.020   1.680   0.964 -0.4648 -0.2374 -1.5114
  178MOL0     H24497  10.261   1.979   0.937 -0.2097  1.3048 -0.2575
  178MOL0     H24498  10.242   2.048   0.779 -1.2476  0.3319 -0.4270
  178MOL0     H24499  10.391   1.784   0.836 -0.9140 -0.3606 -0.5577
  178MOL0     H24500  10.348   1.829   0.675 -0.6824  0.6674  0.1326
  178MOL0     H24501  10.505   2.037   0.833 -1.3263  1.0515 -0.8718
  178MOL0     H24502  10.588   1.891   0.807  0.6095 -1.5218 -2.0813
  178MOL0     H24503  10.548   1.883   0.566  2.0109 -0.1341 -0.9446
  178MOL0     H24504  10.475   2.044   0.578  1.3893  1.2505  0.5972
  178MOL0     H24505  10.764   1.939   0.608  3.6920  2.9452 -1.3146
  178MOL0     H24506  10.736   2.071   0.704 -1.2618  0.7283  0.4664
  178MOL0     H24507  10.683   2.060   0.397 -5.0502  1.7445 -0.0085
  178MOL0     H24508  10.631   2.196   0.506  0.5223  0.5817  1.3178
  178MOL0     H24509  10.865   2.222   0.580 -0.2709  1.0076  0.6787
  178MOL0     H24510  10.861   2.246   0.399  0.8671 -0.9635  0.3309
  178MOL0     H24511  10.958   1.992   0.533  0.7681  0.0756  0.7152
  178MOL0     H24512  10.943   2.022   0.369  2.4460 -0.7549 -0.3433
  178MOL0     H24513  11.070   2.282   0.297  1.0999  2.0098  0.3627
  178MOL0     H24514  11.289   2.430   0.261  0.9904  0.3814 -0.1314
  178MOL0     H24515  11.396   2.292   0.265  2.3328  0.5939 -0.9441
  178MOL0     H24516  11.490   2.526   0.349  0.2818 -1.1716 -1.0548
  178MOL0     H24517  11.398   2.509   0.497  2.1414  1.0369  0.7580
  178MOL0     H24518  11.529   2.312   0.561  0.5011  0.0266  1.1214
  178MOL0     H24519  11.577   2.279   0.394  2.3731 -1.6852  2.5660
  178MOL0     H24520  11.714   2.491   0.412  0.0778  3.3145  1.8207
  178MOL0     H24521  11.661   2.502   0.581 -0.7858 -3.2359  2.1389
  178MOL0     H24522  11.886   2.579   0.555  0.9755  0.5837  0.8734
  178MOL0     H24523  12.133   2.706   0.752 -0.2439 -0.4957  1.4124
  178MOL0     H24524  12.014   2.753   0.621  1.5820  0.9815 -2.1272
  178MOL0     H24525  12.170   2.697   0.572 -1.2252 -0.1822 -0.7931
  178MOL0     H24526  12.561   2.410   0.630  0.8397 -0.1670  0.6660
  178MOL0     H24527  12.774   2.412   0.667 -2.8208 -1.2215 -1.4066
  178MOL0     H24528  12.974   2.306   0.756  2.0410  1.2030 -1.2036
  178MOL0     H24529  13.024   2.475   0.766  0.6402  1.7636  1.3947
  178MOL0     H24530  13.140   2.411   0.987 -1.7045 -1.5623  1.1247
  178MOL0     H24531  13.105   2.241   0.941 -1.8223 -0.2074 -0.2724
  178MOL0     H24532  13.260   2.248   0.755 -1.2546 -0.2231  1.2762
  178MOL0     H24533  13.342   2.312   0.893  0.0932 -1.1725 -0.1435
  178MOL0     H24534  13.311   2.545   0.812  2.3508 -0.6622 -0.5764
  178MOL0     H24535  13.218   2.483   0.674 -0.1663  1.2337 -0.1121
  178MOL0     H24536  13.500   2.405   0.745  0.4653 -1.4982 -2.1842
  178MOL0     H24537  13.409   2.356   0.599 -1.4902 -1.0573  1.4636
  178MOL0     H24538  13.381   2.621   0.580  0.3847  0.9569  1.8428
  178MOL0     H24539  13.511   2.537   0.502 -2.3623  2.2433 -1.4673
  178MOL0     H24540  13.684   2.592   0.664 -0.4820  0.7510  0.2425
  178MOL0     H24541  13.565   2.623   0.786 -0.4038  2.4346  0.7330
  178MOL0     H24542  13.579   2.780   0.524 -0.7872  1.9486 -0.5108
  178MOL0     H24543  13.667   2.826   0.672 -2.3518  1.7152  1.5015
  178MOL0     H24544  12.701   2.379   1.091 -0.3898 -1.3247 -0.3152
  178MOL0     H24545  12.467   2.376   1.049  0.4986  3.1555  0.4217
  178MOL0     H24546  12.180   2.212   0.693 -2.4570 -1.8924 -0.1359
  178MOL0     H24547  11.940   2.167   0.621 -1.7511  1.1774 -1.9880
  178MOL0     H24548  10.007   2.093   0.853 -1.4041  0.5925  0.8139
  178MOL0     H24549   9.817   2.130   1.018 -0.0307  0.9193 -2.8178
  178MOL0     H24550   9.322   1.975   1.100 -1.8625 -2.4175  0.3869
  178MOL0     H24551   9.139   2.002   1.245 -1.2427  0.3539  1.6439
  178MOL0     H24552   9.036   2.079   1.450  0.2091  0.6270  2.1154
  178MOL0     H24553   8.994   1.914   1.393 -3.2699  0.2369  0.8872
  178MOL0     H24554   8.848   2.005   1.552  0.2799 -3.4901 -3.0076
  178MOL0     H24555   8.984   2.002   1.680 -0.2056 -0.2652  0.4645
  178MOL0     H24556   8.842   1.789   1.523  1.1686 -1.4863  0.4599
  178MOL0     H24557   8.987   1.757   1.620 -0.5768 -1.1445 -1.1066
  178MOL0     H24558   8.841   1.837   1.836 -0.7257 -0.8772  1.0390
  178MOL0     H24559   8.793   1.695   1.750  1.3513  0.0612  1.5413
  178MOL0     H24560   8.472   1.912   1.626  0.8319 -0.0071 -0.8631
  178MOL0     H24561   9.408   1.907   1.566  1.2831  0.2600 -0.1516
  178MOL0     H24562   9.713   1.835   1.352 -2.4431 -1.1992 -0.6720
  178MOL0     H24563   9.691   1.972   1.453  1.5884  0.3337 -2.7722
  178MOL0     H24564   9.636   1.805   1.507  1.4375 -2.5140 -1.5746
  179MOL0     O24565   3.812   7.125   8.252 -0.0309  0.0454 -0.0385
  179MOL0     C24566   3.718   7.055   8.228  0.3494  0.0160 -0.3149
  179MOL0     O24567   3.723   6.920   8.186  0.3717  0.4098  0.0813
  179MOL0     C24568   3.851   6.865   8.152  0.9411 -0.4100  0.1057
  179MOL0     C24569   3.889   6.741   8.196 -0.4757  0.8929  0.7621
  179MOL0     C24570   4.019   6.685   8.172  0.5237  0.8356 -0.6198
  179MOL0     C24571   4.095   6.751   8.078 -1.0076 -0.0635 -0.9962
  179MOL0     O24572   4.219   6.702   8.043 -0.0888 -0.3427  0.5880
  179MOL0     C24573   4.269   6.720   7.914  0.3829  0.6198 -0.2663
  179MOL0     C24574   4.408   6.665   7.912 -0.2943  0.4687 -0.2921
  179MOL0     C24575   4.517   6.775   7.915  0.4341  0.1380 -0.2188
  179MOL0     C24576   4.635   6.727   7.833 -0.4365 -0.4518  0.6045
  179MOL0     C24577   4.740   6.835   7.799  0.5604  0.6362  0.2978
  179MOL0     C24578   4.851   6.777   7.714 -1.4601 -0.9970 -0.1671
  179MOL0     C24579   4.938   6.884   7.650 -0.4111 -0.3393 -0.3864
  179MOL0     C24580   5.068   6.816   7.598 -0.3590 -0.0427 -0.0811
  179MOL0     N24581   5.154   6.905   7.531  0.1553  0.2867  0.0766
  179MOL0     C24582   5.238   7.007   7.587  0.5808  0.4138 -0.0045
  179MOL0     C24583   5.296   7.065   7.485 -0.6687  0.2109  0.4609
  179MOL0     C24584   5.395   7.186   7.497 -0.3219 -0.1621  0.9369
  179MOL0     C24585   5.542   7.148   7.509  0.1267 -0.0259  0.0534
  179MOL0     C24586   5.601   7.129   7.369 -1.0801 -0.2650 -0.2767
  179MOL0     C24587   5.751   7.121   7.376 -0.0693 -0.3582 -0.1062
  179MOL0     O24588   5.798   7.064   7.253  0.1514 -0.1156 -0.4219
  179MOL0     C24589   5.934   7.052   7.219  0.8181  0.2570  0.6870
  179MOL0     C24590   6.034   7.092   7.301 -1.7075 -0.7985 -0.2296
  179MOL0     C24591   6.171   7.106   7.251  0.0058 -0.4267 -0.0268
  179MOL0     C24592   6.268   7.162   7.348  0.5459  0.0724 -0.8518
  179MOL0     C24593   6.199   7.055   7.123 -0.2515  0.1441 -0.0588
  179MOL0     C24594   6.339   7.065   7.055  0.6545 -0.1020  0.0223
  179MOL0     O24595   6.453   7.072   7.140  0.3782 -0.1969  0.2740
  179MOL0     C24596   6.580   7.055   7.091  0.3124  0.2105 -0.0149
  179MOL0     C24597   6.684   7.067   7.182  0.5845 -0.1703  0.6063
  179MOL0     C24598   6.815   7.052   7.144  0.8568 -0.3667 -0.2711
  179MOL0     C24599   6.848   7.020   7.012  0.0779 -1.2140  0.2234
  179MOL0     O24600   6.978   6.998   6.996 -0.0004 -0.0404 -0.1378
  179MOL0     C24601   7.024   6.954   6.864  0.9398  0.1650  0.6849
  179MOL0     C24602   7.172   6.919   6.902  0.1103 -0.1837  0.1607
  179MOL0     C24603   7.250   6.875   6.787 -0.0400 -0.6214  0.9596
  179MOL0     C24604   7.306   7.001   6.705  0.8238 -0.3132  0.3236
  179MOL0     C24605   7.365   6.950   6.577 -0.1560 -0.1411  0.0499
  179MOL0     C24606   7.486   7.036   6.545 -0.6533 -0.2643 -0.4504
  179MOL0     C24607   7.551   7.007   6.416 -0.8347 -0.3714 -0.5544
  179MOL0     C24608   7.684   7.090   6.385  0.1081  0.0453 -0.2434
  179MOL0    Cl24609   7.813   7.000   6.475 -0.1215  0.3243 -0.4874
  179MOL0     C24610   6.746   6.999   6.916  0.3608 -0.2629 -0.3979
  179MOL0     C24611   6.613   7.023   6.956 -0.0275 -0.4574  0.2599
  179MOL0     O24612   6.333   7.067   6.933 -0.1529  0.5091  0.2000
  179MOL0     C24613   6.097   7.009   7.038  0.3318  0.2307 -1.1503
  179MOL0     C24614   5.963   7.003   7.086 -0.1334  0.3072 -0.0969
  179MOL0     N24615   5.257   7.004   7.367 -0.0754  1.0201 -0.2343
  179MOL0     N24616   5.170   6.908   7.395 -0.3138 -0.2749 -0.4359
  179MOL0     C24617   4.052   6.877   8.029 -0.0688 -0.0363  0.5596
  179MOL0     C24618   3.931   6.930   8.060 -0.1487 -0.3037 -0.9266
  179MOL0     C24619   3.586   7.115   8.274  0.6012  0.1371  0.3623
  179MOL0     C24620   3.479   7.025   8.299  0.3033  0.2942  0.4637
  179MOL0     C24621   3.347   7.062   8.317  0.0967  0.2478 -0.4638
  179MOL0     C24622   3.320   7.198   8.334  0.7867  1.9401  0.1742
  179MOL0     O24623   3.199   7.245   8.358 -0.0483  0.6482  0.3238
  179MOL0     C24624   3.087   7.219   8.277 -0.3986  0.0483  0.6070
  179MOL0     C24625   2.955   7.258   8.342  1.0301 -0.8289  0.1656
  179MOL0     C24626   2.913   7.174   8.464 -0.0273 -0.9434 -0.2773
  179MOL0     C24627   2.768   7.216   8.525 -0.2337 -0.5310 -0.3618
  179MOL0     C24628   2.754   7.144   8.645 -0.1681  0.0136 -0.6303
  179MOL0     C24629   2.755   7.082   8.750 -0.1247 -0.2715 -0.2456
  179MOL0     C24630   3.420   7.288   8.338 -0.4001  0.2398 -0.7962
  179MOL0     C24631   3.558   7.247   8.311  0.2779  0.1913 -0.7954
  179MOL0     C24632   3.658   7.358   8.296  0.8694 -0.5205 -0.1749
  179MOL0     H24633   3.822   6.699   8.271 -1.0690 -1.2726 -0.8593
  179MOL0     H24634   4.054   6.591   8.212 -0.8939  0.3228 -0.5092
  179MOL0     H24635   4.272   6.827   7.891 -2.7139  1.2480  1.6154
  179MOL0     H24636   4.218   6.669   7.832  0.0311 -0.9267  0.8661
  179MOL0     H24637   4.431   6.602   7.998  1.0906  0.6256 -0.5106
  179MOL0     H24638   4.411   6.608   7.818 -0.8030  0.3270 -0.2207
  179MOL0     H24639   4.468   6.870   7.891  0.6529  1.6199  4.2499
  179MOL0     H24640   4.551   6.785   8.018  2.1056  2.9743 -0.9278
  179MOL0     H24641   4.681   6.643   7.886 -0.9798 -0.8489  0.4502
  179MOL0     H24642   4.591   6.692   7.739 -1.4391 -0.2592  0.9943
  179MOL0     H24643   4.780   6.870   7.895 -1.5544  1.9023  0.7789
  179MOL0     H24644   4.690   6.918   7.749 -4.7286 -3.9596 -3.2374
  179MOL0     H24645   4.917   6.707   7.767  1.0243  0.3453 -1.3171
  179MOL0     H24646   4.799   6.716   7.640 -0.2769 -0.7552 -1.2138
  179MOL0     H24647   4.972   6.963   7.717 -0.3428 -0.9712  0.3367
  179MOL0     H24648   4.890   6.941   7.570 -1.3209  1.2327  1.2067
  179MOL0     H24649   5.124   6.775   7.683 -0.2813  2.5841  1.2457
  179MOL0     H24650   5.051   6.727   7.537  2.9815  0.9818 -2.7991
  179MOL0     H24651   5.253   7.014   7.695  0.7386  0.2902 -0.0178
  179MOL0     H24652   5.365   7.243   7.586 -1.7119 -0.7824  0.8974
  179MOL0     H24653   5.389   7.248   7.407  0.3325 -2.1336 -0.5272
  179MOL0     H24654   5.585   7.239   7.551 -0.3646 -0.2431  1.0619
  179MOL0     H24655   5.557   7.065   7.578  1.3252  0.9558  1.0208
  179MOL0     H24656   5.577   7.041   7.309  1.2921 -1.4771  0.4157
  179MOL0     H24657   5.586   7.215   7.303  0.3250 -0.4939 -0.9305
  179MOL0     H24658   5.795   7.221   7.386 -1.5933  0.5796 -2.0638
  179MOL0     H24659   5.778   7.050   7.454  0.1425  0.0945  0.2388
  179MOL0     H24660   6.014   7.123   7.403  3.8402 -0.7185  1.1220
  179MOL0     H24661   6.212   7.241   7.399 -1.1382 -1.5480 -0.0711
  179MOL0     H24662   6.367   7.200   7.321  0.3244 -0.3327 -2.2811
  179MOL0     H24663   6.287   7.080   7.418 -0.2196  1.1079  0.6415
  179MOL0     H24664   6.661   7.092   7.285 -0.5698 -1.7798  0.7864
  179MOL0     H24665   6.894   7.062   7.217 -1.2228  1.2004  1.9300
  179MOL0     H24666   6.965   6.869   6.827 -0.3432  1.2472  0.1541
  179MOL0     H24667   7.014   7.033   6.789 -0.8882 -1.6614 -1.1121
  179MOL0     H24668   7.216   7.009   6.948 -0.4420  0.7345 -1.0695
  179MOL0     H24669   7.179   6.834   6.971 -1.5362 -0.9316 -0.5438
  179MOL0     H24670   7.191   6.815   6.717  0.9749  0.7158 -1.1350
  179MOL0     H24671   7.338   6.818   6.816 -0.1925  0.8186  4.7665
  179MOL0     H24672   7.381   7.045   6.772 -0.2783  0.6512  0.9542
  179MOL0     H24673   7.237   7.083   6.683  1.1250  0.2697  1.4628
  179MOL0     H24674   7.387   6.843   6.573 -0.3590 -0.1696 -0.3525
  179MOL0     H24675   7.293   6.969   6.497  0.4867  2.2534 -0.0450
  179MOL0     H24676   7.562   7.027   6.624 -2.3873 -0.3550  1.2956
  179MOL0     H24677   7.452   7.139   6.543 -0.2063 -0.1038 -0.0856
  179MOL0     H24678   7.481   7.033   6.335 -1.1863 -0.0088 -0.1407
  179MOL0     H24679   7.580   6.902   6.407  2.1201  0.1741  1.1207
  179MOL0     H24680   7.680   7.197   6.410  0.7571  0.5616 -2.1646
  179MOL0     H24681   7.707   7.081   6.279  1.9641  0.5878  0.0805
  179MOL0     H24682   6.763   6.968   6.814 -1.2456 -0.8160 -0.5307
  179MOL0     H24683   6.543   7.009   6.875 -1.2902  0.3975  1.1718
  179MOL0     H24684   6.119   6.972   6.938 -1.4814 -0.0198 -1.5012
  179MOL0     H24685   5.880   6.955   7.036  0.1812 -4.1463  3.0808
  179MOL0     H24686   4.116   6.940   7.968 -0.2263 -1.4971 -1.1908
  179MOL0     H24687   3.903   7.028   8.024  0.0376 -0.2698 -0.9770
  179MOL0     H24688   3.483   6.916   8.303 -2.5320 -0.0049 -1.6543
  179MOL0     H24689   3.274   6.982   8.323  1.4901 -1.0464 -0.1560
  179MOL0     H24690   3.083   7.286   8.190 -0.6274 -0.2195  0.4119
  179MOL0     H24691   3.084   7.116   8.242  2.8238  0.1721 -0.3456
  179MOL0     H24692   2.880   7.243   8.264 -0.2608 -0.0504  1.2059
  179MOL0     H24693   2.961   7.364   8.367 -0.2914 -0.6249 -0.3112
  179MOL0     H24694   2.910   7.067   8.447 -0.7824 -0.9748  0.0495
  179MOL0     H24695   2.991   7.187   8.541  0.6250  2.7905 -1.3336
  179MOL0     H24696   2.693   7.192   8.449  1.4862 -1.5310 -1.8187
  179MOL0     H24697   2.760   7.325   8.535 -3.1128 -0.8100  1.6006
  179MOL0     H24698   2.769   7.036   8.846  1.5517  0.9079  0.1177
  179MOL0     H24699   3.398   7.392   8.362  0.3196 -0.1509  1.8741
  179MOL0     H24700   3.609   7.453   8.321  1.8203  0.0343 -0.3813
  179MOL0     H24701   3.733   7.334   8.372 -0.6895  0.7916  1.8858
  179MOL0     H24702   3.696   7.363   8.194  2.4354  0.0844  0.4193
  180MOL0     O24703  11.203   1.050   8.119  0.0356  0.9596 -0.3839
  180MOL0     C24704  11.138   0.986   8.203  0.0191 -0.1494  0.3699
  180MOL0     O24705  11.191   0.929   8.314 -0.7742 -0.0658  0.2155
  180MOL0     C24706  11.328   0.918   8.339  0.2098 -0.4438  1.1056
  180MOL0     C24707  11.420   0.899   8.234 -0.3303 -0.5319  0.6096
  180MOL0     C24708  11.553   0.852   8.267 -0.6611 -0.7834 -0.5904
  180MOL0     C24709  11.593   0.838   8.407 -0.3170  1.1135  1.2732
  180MOL0     O24710  11.727   0.808   8.416  0.2291  0.1388  0.2494
  180MOL0     C24711  11.782   0.788   8.545 -0.3577  0.5577  0.3636
  180MOL0     C24712  11.937   0.817   8.552  1.5027  0.0121  0.7081
  180MOL0     C24713  11.992   0.743   8.667 -0.6996 -0.2389 -0.4820
  180MOL0     C24714  12.150   0.741   8.666 -1.0303  0.3844 -0.3016
  180MOL0     C24715  12.198   0.691   8.804  0.3718  1.0586 -0.1170
  180MOL0     C24716  12.189   0.538   8.808  0.1047  0.6250 -0.1895
  180MOL0     C24717  12.261   0.494   8.942  0.2007 -0.1368  0.3750
  180MOL0     C24718  12.202   0.366   9.004  0.2546  0.0854  0.6773
  180MOL0     N24719  12.281   0.344   9.124 -0.1420 -0.9723  0.3546
  180MOL0     C24720  12.281   0.426   9.236 -0.2907  0.0573 -0.0705
  180MOL0     C24721  12.362   0.360   9.320 -1.0135 -1.1047  0.0756
  180MOL0     C24722  12.408   0.420   9.458 -1.1812  0.2663  0.8606
  180MOL0     C24723  12.558   0.417   9.454 -0.2017  0.1141 -0.0421
  180MOL0     C24724  12.617   0.430   9.588 -0.2057 -0.2805 -0.3211
  180MOL0     C24725  12.771   0.406   9.574  1.1268  0.5309 -0.6259
  180MOL0     O24726  12.796   0.261   9.565  0.3183  0.1603  0.8296
  180MOL0     C24727  12.921   0.223   9.536 -0.1399  0.1961  0.2114
  180MOL0     C24728  13.008   0.205   9.641  0.0432 -0.7987  0.1466
  180MOL0     C24729  13.137   0.155   9.625 -0.6249 -0.0541 -0.1492
  180MOL0     C24730  13.227   0.144   9.745 -0.5199 -0.3198 -0.0774
  180MOL0     C24731  13.179   0.132   9.489  0.2559  0.3023 -0.1058
  180MOL0     C24732  13.310   0.086   9.451 -0.1263  0.1247 -0.2482
  180MOL0     O24733  13.356   0.132   9.334  0.9829 -0.1872 -0.5544
  180MOL0     C24734  13.482   0.103   9.291 -0.0569 -0.3848  0.6811
  180MOL0     C24735  13.581   0.024   9.344 -0.4998 -0.3137  0.7583
  180MOL0     C24736  13.701   0.010   9.276  0.7162 -0.5619 -0.3856
  180MOL0     C24737  13.725   0.076   9.151 -0.4793  0.6456  1.3322
  180MOL0     O24738  13.854   0.062   9.097 -0.3722 -0.2333 -0.4991
  180MOL0     C24739  13.886   0.140   8.985 -0.6302  0.2835 -0.2665
  180MOL0     C24740  14.041   0.150   8.958 -0.0403 -0.6900  0.3983
  180MOL0     C24741  14.100   0.024   8.897 -0.3633  0.0803 -0.5001
  180MOL0     C24742  14.245   0.034   8.892 -0.2515 -1.0931 -0.0615
  180MOL0     C24743  14.315  -0.099   8.843  0.2565 -0.5459  0.1672
  180MOL0     C24744  14.473  -0.083   8.860  0.4893 -0.6167  0.2519
  180MOL0     C24745  14.542  -0.218   8.837  0.2865  0.3087 -0.2850
  180MOL0     C24746  14.684  -0.217   8.898 -0.4116  0.1918 -0.4703
  180MOL0    Cl24747  14.793  -0.096   8.826 -0.4933 -0.2429 -0.3913
  180MOL0     C24748  13.619   0.142   9.091  0.5795  0.1808 -0.5637
  180MOL0     C24749  13.496   0.159   9.157 -0.1366 -0.4580  0.1800
  180MOL0     O24750  13.348  -0.011   9.519  0.5850 -0.2621  0.0469
  180MOL0     C24751  13.089   0.147   9.385 -0.1607 -1.0809  0.2059
  180MOL0     C24752  12.956   0.176   9.403  0.2667  0.2779  0.3322
  180MOL0     N24753  12.412   0.245   9.256 -0.3841 -0.3655 -0.0739
  180MOL0     N24754  12.361   0.235   9.139 -0.4078 -0.9579 -0.1575
  180MOL0     C24755  11.499   0.863   8.505 -0.5709  0.5008  0.0562
  180MOL0     C24756  11.365   0.900   8.470 -0.8780 -0.0664 -0.0318
  180MOL0     C24757  10.989   0.961   8.168 -0.1454 -0.4282 -0.2205
  180MOL0     C24758  10.913   0.893   8.271 -0.0329 -0.1579  0.9376
  180MOL0     C24759  10.769   0.871   8.260  0.8619  0.1162  0.3574
  180MOL0     C24760  10.702   0.919   8.147  1.0882 -0.1537 -0.2763
  180MOL0     O24761  10.567   0.893   8.145 -0.0131  0.2201  0.4998
  180MOL0     C24762  10.478   0.991   8.097  0.0004 -0.3935  0.7385
  180MOL0     C24763  10.501   1.132   8.155 -0.4938  0.2229  0.0528
  180MOL0     C24764  10.438   1.239   8.066 -1.0851 -0.4370 -0.3049
  180MOL0     C24765  10.475   1.373   8.128 -0.5041 -0.9134  0.3670
  180MOL0     C24766  10.376   1.486   8.091  0.0991 -0.0718 -0.8348
  180MOL0     C24767  10.284   1.566   8.070 -0.8451  0.0399  0.0936
  180MOL0     C24768  10.776   0.984   8.046 -0.0209 -0.7640 -0.0054
  180MOL0     C24769  10.916   1.008   8.055  0.0149  0.2844 -0.4000
  180MOL0     C24770  10.973   1.084   7.941 -0.1706 -0.0023 -0.5160
  180MOL0     H24771  11.401   0.922   8.129 -1.1746  2.6553  1.3599
  180MOL0     H24772  11.638   0.836   8.200  0.9936  1.4350  0.8370
  180MOL0     H24773  11.766   0.683   8.572  0.3141 -0.4635 -2.8175
  180MOL0     H24774  11.739   0.856   8.619  0.8924  1.7283  0.0599
  180MOL0     H24775  11.982   0.774   8.462 -3.3044 -0.2359 -1.9017
  180MOL0     H24776  11.947   0.926   8.549 -1.3132  0.3123 -0.6477
  180MOL0     H24777  11.955   0.795   8.757  0.0550  0.5823 -0.6309
  180MOL0     H24778  11.955   0.640   8.666 -0.5566 -0.2880 -1.6839
  180MOL0     H24779  12.195   0.683   8.584 -0.2699 -0.7151  0.8639
  180MOL0     H24780  12.184   0.845   8.656 -1.3771  0.6480  1.1212
  180MOL0     H24781  12.133   0.749   8.870  0.2364  2.7922 -1.6839
  180MOL0     H24782  12.303   0.717   8.820  0.9588 -1.9692  1.8175
  180MOL0     H24783  12.088   0.497   8.821  0.7057 -0.7268  0.3750
  180MOL0     H24784  12.242   0.502   8.720  1.0804 -1.2029  1.0677
  180MOL0     H24785  12.246   0.577   9.012  1.5715 -1.4578  2.3542
  180MOL0     H24786  12.364   0.460   8.926 -0.0342 -1.6857  1.8589
  180MOL0     H24787  12.096   0.385   9.022  1.2022  2.4628  5.3278
  180MOL0     H24788  12.216   0.288   8.929  0.9996 -1.9881  2.8763
  180MOL0     H24789  12.221   0.514   9.256  0.7612  0.5162  1.2586
  180MOL0     H24790  12.368   0.362   9.542  0.2000  0.8622  1.9723
  180MOL0     H24791  12.378   0.524   9.470 -1.9218 -0.1012  2.4035
  180MOL0     H24792  12.596   0.327   9.405  0.2355 -0.2497  0.9188
  180MOL0     H24793  12.582   0.503   9.391 -2.4150  1.5054  0.8659
  180MOL0     H24794  12.585   0.523   9.636  1.4672 -0.6409  1.6037
  180MOL0     H24795  12.578   0.350   9.652 -2.2906  0.1441 -0.9717
  180MOL0     H24796  12.821   0.455   9.490  0.1697  1.7755 -0.4926
  180MOL0     H24797  12.814   0.445   9.666  2.0027 -0.1380 -0.7444
  180MOL0     H24798  12.971   0.229   9.740 -0.3713 -2.3617  0.3863
  180MOL0     H24799  13.329   0.179   9.725 -0.5782  0.0523  0.2593
  180MOL0     H24800  13.235   0.039   9.775  0.6383 -0.3548 -0.4670
  180MOL0     H24801  13.208   0.198   9.839  4.2274  1.5414  0.1157
  180MOL0     H24802  13.575  -0.023   9.442 -1.5480  0.3399  1.0298
  180MOL0     H24803  13.776  -0.053   9.322 -0.2601 -1.1858  0.3749
  180MOL0     H24804  13.842   0.102   8.892  2.4880 -1.2689 -1.2710
  180MOL0     H24805  13.840   0.239   8.990 -0.9174  0.1764 -0.7115
  180MOL0     H24806  14.037   0.229   8.882  0.3643  1.1423  2.2037
  180MOL0     H24807  14.092   0.202   9.040 -1.0970  3.2128 -1.1549
  180MOL0     H24808  14.052   0.008   8.800 -5.3608  0.7514  1.5706
  180MOL0     H24809  14.077  -0.066   8.956  1.1909  0.1108  0.1873
  180MOL0     H24810  14.269   0.058   8.997 -1.7603 -0.2177  0.1074
  180MOL0     H24811  14.286   0.118   8.836 -1.0687 -0.9835 -0.4978
  180MOL0     H24812  14.282  -0.180   8.909 -2.7910  1.9357  1.9451
  180MOL0     H24813  14.273  -0.125   8.746 -1.6732  2.0555  0.1902
  180MOL0     H24814  14.501  -0.044   8.959  0.5712  1.8995 -0.6869
  180MOL0     H24815  14.513  -0.007   8.793 -0.4885  1.8061  2.2280
  180MOL0     H24816  14.537  -0.245   8.731  0.9015 -1.1767  0.0437
  180MOL0     H24817  14.498  -0.301   8.894  3.6106 -1.8909 -0.6427
  180MOL0     H24818  14.736  -0.313   8.883  2.2431  1.4210  0.2301
  180MOL0     H24819  14.680  -0.195   9.005 -0.2978  0.1016 -0.4462
  180MOL0     H24820  13.629   0.192   8.995 -1.7749 -2.8733 -2.6234
  180MOL0     H24821  13.415   0.217   9.114  0.3350  0.9385  1.0914
  180MOL0     H24822  13.116   0.111   9.287 -2.0227 -3.6276  0.5170
  180MOL0     H24823  12.888   0.180   9.319  2.0147  1.0705 -1.1073
  180MOL0     H24824  11.528   0.853   8.609  2.6373  2.5538 -0.5208
  180MOL0     H24825  11.293   0.902   8.551  0.2146 -0.7452  1.0045
  180MOL0     H24826  10.963   0.868   8.364 -0.3111 -1.3210  0.7888
  180MOL0     H24827  10.724   0.826   8.348  3.8793 -0.4562  1.7222
  180MOL0     H24828  10.495   1.009   7.990 -0.1851  1.7440  1.0098
  180MOL0     H24829  10.374   0.969   8.121 -0.3749  1.9195  1.5345
  180MOL0     H24830  10.608   1.152   8.161  0.0040 -2.4584  1.2010
  180MOL0     H24831  10.466   1.147   8.257 -0.4406  0.5651  0.0213
  180MOL0     H24832  10.471   1.228   7.963 -3.0018 -1.8236 -0.8367
  180MOL0     H24833  10.329   1.229   8.069 -1.1613  0.3428  2.2115
  180MOL0     H24834  10.570   1.411   8.089 -0.2625 -1.1058  0.7603
  180MOL0     H24835  10.499   1.371   8.235  0.4266  0.7788  0.2154
  180MOL0     H24836  10.204   1.635   8.051 -0.4452 -0.0164 -2.1004
  180MOL0     H24837  10.716   1.024   7.965  1.6215  0.3595 -0.7268
  180MOL0     H24838  11.020   1.177   7.977  0.1703 -0.7752  1.1399
  180MOL0     H24839  11.048   1.019   7.897  2.3710  1.8331  0.8427
  180MOL0     H24840  10.899   1.104   7.863 -4.2484  1.0155  3.1575
  181MOL0     O24841   0.944   3.525   8.631  0.0112 -0.1704  0.1644
  181MOL0     C24842   0.865   3.610   8.673  0.0458 -0.1384 -1.3150
  181MOL0     O24843   0.879   3.683   8.779 -0.2635  0.0939 -0.3060
  181MOL0     C24844   1.010   3.692   8.826  0.8695  0.1171 -0.2435
  181MOL0     C24845   1.059   3.590   8.905 -0.4162  0.3305  0.3579
  181MOL0     C24846   1.187   3.609   8.956 -0.4662  0.8647  0.4748
  181MOL0     C24847   1.273   3.717   8.923 -0.2802 -0.1308 -0.0607
  181MOL0     O24848   1.400   3.732   8.976 -0.2902 -0.3622  0.1345
  181MOL0     C24849   1.446   3.638   9.075  0.4629 -0.6651  0.2109
  181MOL0     C24850   1.483   3.506   9.006 -0.5100  0.0478  0.4596
  181MOL0     C24851   1.594   3.439   9.081 -0.1261 -0.3808  0.6901
  181MOL0     C24852   1.652   3.316   9.008  0.1680  0.1137 -0.1954
  181MOL0     C24853   1.766   3.255   9.099 -0.2521 -0.3895 -0.4848
  181MOL0     C24854   1.848   3.135   9.038  0.3745  0.3889 -0.3569
  181MOL0     C24855   1.960   3.083   9.128 -0.2015  0.5926  0.2847
  181MOL0     C24856   2.066   3.190   9.168 -0.4743  0.2124 -0.1624
  181MOL0     N24857   2.173   3.206   9.066 -0.2742 -0.0548 -0.3256
  181MOL0     C24858   2.292   3.274   9.090 -0.7089  0.2398  0.0600
  181MOL0     C24859   2.366   3.273   8.974 -0.4676  0.5381  0.3568
  181MOL0     C24860   2.505   3.321   8.950 -0.0824  0.1230  0.8538
  181MOL0     C24861   2.510   3.469   8.969  0.2357 -0.3235 -0.4125
  181MOL0     C24862   2.657   3.509   8.955 -0.3562 -0.3101  0.2506
  181MOL0     C24863   2.680   3.657   8.992 -0.7386  0.3529 -0.2501
  181MOL0     O24864   2.815   3.703   8.981 -0.4415 -0.6579  0.7322
  181MOL0     C24865   2.901   3.659   9.079 -0.3172  0.5184  0.4593
  181MOL0     C24866   2.893   3.706   9.207  0.0359 -0.5246  0.1174
  181MOL0     C24867   2.994   3.680   9.296  0.7976 -0.3101 -0.0630
  181MOL0     C24868   2.979   3.726   9.437  0.6573 -0.5614  1.1086
  181MOL0     C24869   3.110   3.604   9.259 -0.0372  0.1431 -0.3966
  181MOL0     C24870   3.231   3.564   9.348  0.1782  0.2596 -0.0167
  181MOL0     O24871   3.348   3.521   9.280 -0.3782  0.1968 -0.2946
  181MOL0     C24872   3.461   3.483   9.345  0.0416  0.2230 -0.1233
  181MOL0     C24873   3.508   3.345   9.340 -0.7941  0.6072 -0.1115
  181MOL0     C24874   3.620   3.308   9.407  0.0754 -0.2371  0.3196
  181MOL0     C24875   3.684   3.399   9.484  0.1333 -0.7675 -0.0825
  181MOL0     O24876   3.794   3.359   9.548 -0.3040  0.1965  0.1193
  181MOL0     C24877   3.785   3.400   9.690  0.0825 -0.2481  0.1014
  181MOL0     C24878   3.902   3.329   9.757  0.7450 -0.0100  0.3341
  181MOL0     C24879   4.041   3.387   9.725  0.6335  0.4662  0.1039
  181MOL0     C24880   4.152   3.314   9.796  0.0910  0.9396 -0.1413
  181MOL0     C24881   4.266   3.418   9.801 -0.3176  0.3866 -0.4027
  181MOL0     C24882   4.397   3.336   9.829 -0.1859 -0.7552  0.3979
  181MOL0     C24883   4.518   3.439   9.825  0.2464  0.2402 -0.2757
  181MOL0     C24884   4.663   3.366   9.833  0.8847 -0.3337 -0.0306
  181MOL0    Cl24885   4.677   3.283   9.991  0.4692 -0.0927 -0.2178
  181MOL0     C24886   3.647   3.539   9.487 -0.1529 -0.1042  0.4838
  181MOL0     C24887   3.536   3.578   9.419  0.0647  0.4442  0.8924
  181MOL0     O24888   3.222   3.580   9.467 -0.5410  0.1200 -0.3991
  181MOL0     C24889   3.107   3.557   9.124 -0.2666 -0.0435 -0.3341
  181MOL0     C24890   3.006   3.584   9.038  0.8407  0.4022  1.1762
  181MOL0     N24891   2.281   3.211   8.885 -0.0180 -0.1046 -0.0802
  181MOL0     N24892   2.172   3.174   8.939 -0.3228  0.7168 -0.4774
  181MOL0     C24893   1.222   3.821   8.840 -0.5527  0.4440 -0.3811
  181MOL0     C24894   1.091   3.801   8.793  0.2431 -0.8180  0.2541
  181MOL0     C24895   0.737   3.627   8.593  0.1444  0.2473 -0.3004
  181MOL0     C24896   0.730   3.572   8.459  0.3224  0.9492  0.4313
  181MOL0     C24897   0.620   3.581   8.377  0.9261 -0.5972  0.6068
  181MOL0     C24898   0.506   3.651   8.420  0.0100 -0.7123  0.7946
  181MOL0     O24899   0.400   3.680   8.343 -0.0585 -0.4552  0.7790
  181MOL0     C24900   0.412   3.656   8.197 -0.2342  0.6256  0.0621
  181MOL0     C24901   0.278   3.682   8.135  1.2054  0.4158 -0.5255
  181MOL0     C24902   0.236   3.588   8.024  0.1432  0.1034 -0.5850
  181MOL0     C24903   0.091   3.599   7.992  0.9018 -0.7721  0.1240
  181MOL0     C24904   0.052   3.488   7.907  0.1423  0.3896  0.0121
  181MOL0     C24905  -0.004   3.396   7.843 -0.0408 -0.8597  0.2841
  181MOL0     C24906   0.496   3.678   8.558  0.6073 -0.1541 -0.3002
  181MOL0     C24907   0.612   3.674   8.640  0.7003  0.7011  0.7336
  181MOL0     C24908   0.596   3.714   8.782  0.2076 -0.2801  0.6072
  181MOL0     H24909   0.996   3.504   8.928 -0.0708 -0.0040  0.0753
  181MOL0     H24910   1.216   3.523   9.015 -0.4865 -1.7841 -3.0010
  181MOL0     H24911   1.369   3.624   9.151  1.7022 -0.1621  1.6033
  181MOL0     H24912   1.531   3.680   9.129 -0.6332  0.4450  1.1241
  181MOL0     H24913   1.405   3.433   8.982 -0.7019  0.1040  0.9031
  181MOL0     H24914   1.524   3.536   8.909  1.3360 -0.1071  1.1662
  181MOL0     H24915   1.673   3.514   9.089 -3.1280  2.9810  1.6807
  181MOL0     H24916   1.545   3.423   9.178 -0.4197  2.6339  1.1502
  181MOL0     H24917   1.566   3.252   8.987 -2.0506  3.5670 -2.8172
  181MOL0     H24918   1.689   3.350   8.911  0.0600 -2.3461 -1.1710
  181MOL0     H24919   1.717   3.224   9.191 -1.5018 -0.4528 -1.1476
  181MOL0     H24920   1.840   3.334   9.118  1.5900 -2.4646  1.4641
  181MOL0     H24921   1.769   3.061   9.023 -1.0723  1.6511  0.7382
  181MOL0     H24922   1.887   3.161   8.939  3.5213 -0.6322  0.5178
  181MOL0     H24923   2.016   3.010   9.069 -2.3314  0.8155 -2.1753
  181MOL0     H24924   1.917   3.039   9.219 -0.2261 -1.8138 -0.8205
  181MOL0     H24925   2.017   3.284   9.193 -0.2267  0.1093  0.7687
  181MOL0     H24926   2.115   3.158   9.261  0.3915  0.0845 -0.6551
  181MOL0     H24927   2.318   3.315   9.188 -0.7477 -0.5149  0.3893
  181MOL0     H24928   2.538   3.284   8.852 -0.8030 -0.1875  0.7161
  181MOL0     H24929   2.570   3.280   9.027 -0.4465  1.0941  1.7017
  181MOL0     H24930   2.450   3.525   8.897 -0.6257  0.2148  0.7004
  181MOL0     H24931   2.478   3.497   9.070  0.3484 -6.0316  1.5722
  181MOL0     H24932   2.708   3.450   9.032  1.3328 -0.2755 -0.7952
  181MOL0     H24933   2.706   3.499   8.857 -0.4485  1.7084 -0.0480
  181MOL0     H24934   2.616   3.720   8.930 -2.4637  0.5846  1.6377
  181MOL0     H24935   2.652   3.669   9.097  0.2154  2.0557 -0.1472
  181MOL0     H24936   2.810   3.771   9.233  1.4467  0.6548  1.8236
  181MOL0     H24937   2.872   3.745   9.446  0.2016 -1.0483 -1.9572
  181MOL0     H24938   3.033   3.820   9.456  4.0623 -2.6235  2.6345
  181MOL0     H24939   3.013   3.653   9.511  0.9192 -1.8196 -0.2077
  181MOL0     H24940   3.453   3.285   9.268 -0.7872 -0.8245  1.0369
  181MOL0     H24941   3.654   3.205   9.392  0.1551 -0.0603 -0.8296
  181MOL0     H24942   3.784   3.509   9.702 -0.5284 -0.3348  0.9326
  181MOL0     H24943   3.691   3.362   9.730 -0.2529  1.4403  1.0092
  181MOL0     H24944   3.888   3.321   9.865 -2.6320 -2.1011 -0.0853
  181MOL0     H24945   3.886   3.226   9.722 -2.4015  0.1589  0.9919
  181MOL0     H24946   4.041   3.495   9.744  2.3534  1.1186 -2.8432
  181MOL0     H24947   4.065   3.386   9.618 -0.9764 -0.9065 -0.2921
  181MOL0     H24948   4.205   3.239   9.736 -1.0467 -0.2069  0.2390
  181MOL0     H24949   4.124   3.272   9.894  1.1714 -0.8072 -0.5276
  181MOL0     H24950   4.273   3.467   9.704 -1.0174 -0.1058 -0.7080
  181MOL0     H24951   4.249   3.481   9.889  2.6332 -0.5343  0.9727
  181MOL0     H24952   4.417   3.255   9.758 -2.8970  0.5189 -2.0458
  181MOL0     H24953   4.381   3.283   9.923 -0.5900 -1.5096 -0.0826
  181MOL0     H24954   4.502   3.510   9.906  1.7186  1.7997 -1.3083
  181MOL0     H24955   4.519   3.498   9.733  2.4388  0.9170  0.1275
  181MOL0     H24956   4.740   3.444   9.833 -0.4594  1.1086  2.0965
  181MOL0     H24957   4.682   3.302   9.746 -0.7736 -1.1466  0.1717
  181MOL0     H24958   3.708   3.613   9.537  0.2596  0.6195 -1.0171
  181MOL0     H24959   3.503   3.680   9.405 -1.7708 -0.2906 -0.6622
  181MOL0     H24960   3.184   3.485   9.098  1.0254  1.4851 -0.9603
  181MOL0     H24961   3.017   3.548   8.936  1.6518  0.3656  1.2685
  181MOL0     H24962   1.272   3.913   8.811 -1.2634  1.3074  1.0338
  181MOL0     H24963   1.074   3.890   8.732  1.4412 -0.6334  0.1553
  181MOL0     H24964   0.814   3.509   8.432  0.5446 -0.7428  4.2909
  181MOL0     H24965   0.613   3.533   8.280 -0.0343  1.9223 -0.6647
  181MOL0     H24966   0.493   3.717   8.155 -0.6530  2.3955  1.6753
  181MOL0     H24967   0.437   3.555   8.165 -1.1414  0.8555 -1.4711
  181MOL0     H24968   0.296   3.779   8.087  1.4307  0.2510 -0.7812
  181MOL0     H24969   0.194   3.681   8.204  0.8889 -0.3577 -0.9174
  181MOL0     H24970   0.285   3.625   7.934 -1.3358  2.5666 -0.4507
  181MOL0     H24971   0.256   3.485   8.056  2.8026  0.5905 -0.4264
  181MOL0     H24972   0.060   3.695   7.950 -1.7744 -0.6436  2.1055
  181MOL0     H24973   0.034   3.596   8.086  1.0754 -0.7590  0.2303
  181MOL0     H24974  -0.041   3.323   7.774 -1.2886  0.9287 -1.0350
  181MOL0     H24975   0.400   3.711   8.594  0.7438 -0.7659  0.6622
  181MOL0     H24976   0.658   3.803   8.796 -3.8090  2.5136  2.4451
  181MOL0     H24977   0.495   3.753   8.800  0.0491 -0.7727  0.7984
  181MOL0     H24978   0.610   3.630   8.851 -2.2013 -0.0194  1.5062
  182MOL0     O24979  10.362   0.173   7.919 -0.0404 -0.3350 -0.4253
  182MOL0     C24980  10.323   0.280   7.869  0.6820  0.0358 -0.5949
  182MOL0     O24981  10.399   0.381   7.821 -0.3210 -0.0060  0.1217
  182MOL0     C24982  10.536   0.351   7.798  0.8637 -0.1662  0.0226
  182MOL0     C24983  10.586   0.379   7.671  0.0901  0.0850  0.9450
  182MOL0     C24984  10.721   0.345   7.637 -0.2805  0.2901 -0.0933
  182MOL0     C24985  10.805   0.279   7.728 -0.5569 -0.0629  0.8890
  182MOL0     O24986  10.939   0.260   7.685 -0.3489 -0.3084 -0.6998
  182MOL0     C24987  11.020   0.156   7.749 -0.8336 -0.6181 -0.6804
  182MOL0     C24988  11.164   0.207   7.744  0.5324 -0.1562 -0.3079
  182MOL0     C24989  11.196   0.336   7.823  0.6575 -0.9694 -0.1215
  182MOL0     C24990  11.342   0.371   7.807  0.1068  0.5128  0.0486
  182MOL0     C24991  11.361   0.459   7.680 -0.1039 -0.3514 -0.2923
  182MOL0     C24992  11.501   0.507   7.660 -0.2362  0.1379 -0.0273
  182MOL0     C24993  11.515   0.580   7.520 -0.2462  0.3488  0.9634
  182MOL0     C24994  11.653   0.641   7.497  0.1733  0.5152  0.1506
  182MOL0     N24995  11.759   0.538   7.490 -0.1417  0.0245  0.0255
  182MOL0     C24996  11.796   0.466   7.377 -0.1556 -0.7352  0.0853
  182MOL0     C24997  11.855   0.351   7.413  0.9818 -0.8875  0.6605
  182MOL0     C24998  11.922   0.245   7.336 -0.1593 -0.2694 -1.0895
  182MOL0     C24999  11.879   0.093   7.369 -0.2184 -0.6452 -0.2841
  182MOL0     C25000  11.914   0.009   7.249 -0.2020 -0.4856 -0.6028
  182MOL0     C25001  12.061  -0.041   7.269 -0.0612 -0.2414  0.0081
  182MOL0     O25002  12.128  -0.059   7.148 -0.1337  0.2244  0.6202
  182MOL0     C25003  12.261  -0.052   7.147 -0.3871  0.3046  0.3969
  182MOL0     C25004  12.324  -0.075   7.025  0.2583 -0.4022 -0.1241
  182MOL0     C25005  12.464  -0.073   7.008  0.3265  0.1599  0.3367
  182MOL0     C25006  12.516  -0.095   6.867 -0.0664 -0.1584 -0.4112
  182MOL0     C25007  12.541  -0.047   7.122 -0.8531  0.0056  0.5051
  182MOL0     C25008  12.684  -0.031   7.113 -1.3293  0.4656 -0.3220
  182MOL0     O25009  12.745  -0.131   7.035 -0.3078 -0.0766  0.3140
  182MOL0     C25010  12.877  -0.114   7.004 -0.5813  0.0139  0.0048
  182MOL0     C25011  12.980  -0.109   7.098 -0.5686  0.2476 -0.4059
  182MOL0     C25012  13.119  -0.115   7.051  0.8297  1.1500 -0.1812
  182MOL0     C25013  13.145  -0.131   6.911 -0.0193 -0.0898 -0.3707
  182MOL0     O25014  13.264  -0.145   6.855 -0.1680  0.8208  0.0887
  182MOL0     C25015  13.371  -0.081   6.919  0.1581  0.7730  0.7097
  182MOL0     C25016  13.503  -0.106   6.847 -0.2660  0.2042  0.3707
  182MOL0     C25017  13.526  -0.248   6.792  0.1709  0.0251  0.7036
  182MOL0     C25018  13.674  -0.294   6.764  0.2706 -0.4553  0.5213
  182MOL0     C25019  13.749  -0.224   6.651 -0.3262  0.5716  0.0324
  182MOL0     C25020  13.890  -0.288   6.639  0.6968  1.1061 -0.4491
  182MOL0     C25021  13.963  -0.231   6.518  0.3077 -0.3469 -0.1439
  182MOL0     C25022  14.110  -0.269   6.517  0.5285 -0.3203  0.1611
  182MOL0    Cl25023  14.139  -0.440   6.465  0.2276 -0.2505  0.3794
  182MOL0     C25024  13.039  -0.132   6.820 -0.1154  0.7392 -0.6587
  182MOL0     C25025  12.911  -0.127   6.864 -0.1870  0.4890 -0.8879
  182MOL0     O25026  12.747   0.060   7.179 -0.2952 -0.4887 -0.5188
  182MOL0     C25027  12.478  -0.036   7.252  0.3638 -0.2072  0.4715
  182MOL0     C25028  12.341  -0.038   7.263  0.1899 -0.9714  0.1164
  182MOL0     N25029  11.868   0.360   7.548 -0.1383 -0.0953  0.2716
  182MOL0     N25030  11.817   0.466   7.595  1.1599  0.6989 -0.3018
  182MOL0     C25031  10.752   0.259   7.859  0.4528 -0.4885 -0.1578
  182MOL0     C25032  10.617   0.288   7.893  0.3618  0.3277 -0.1094
  182MOL0     C25033  10.177   0.301   7.838  0.0536 -0.1140 -0.0351
  182MOL0     C25034  10.079   0.265   7.932 -0.3262 -0.1133  0.6725
  182MOL0     C25035   9.942   0.279   7.908 -0.3018  0.3406  0.6100
  182MOL0     C25036   9.898   0.348   7.793 -0.1816 -0.0445 -0.6827
  182MOL0     O25037   9.770   0.394   7.778  0.5454 -0.2117  0.0755
  182MOL0     C25038   9.657   0.306   7.822 -0.7302 -0.5605 -0.0418
  182MOL0     C25039   9.542   0.310   7.719 -0.5968 -0.7499 -1.3012
  182MOL0     C25040   9.572   0.287   7.570  0.4174 -0.1898  0.1461
  182MOL0     C25041   9.646   0.153   7.546  0.0767 -0.0934  0.2259
  182MOL0     C25042   9.550   0.051   7.540 -0.0177  0.0762 -0.0334
  182MOL0     C25043   9.466  -0.033   7.543 -0.3711 -0.0560  0.4508
  182MOL0     C25044   9.992   0.386   7.706 -0.2332 -0.5882  0.4070
  182MOL0     C25045  10.130   0.361   7.719 -0.4596  0.4238 -0.5199
  182MOL0     C25046  10.214   0.383   7.593  0.0706 -0.4734  0.1089
  182MOL0     H25047  10.522   0.425   7.597  1.0610 -1.0635 -0.6659
  182MOL0     H25048  10.758   0.380   7.541  0.6841  0.0879  0.1975
  182MOL0     H25049  11.006   0.065   7.691 -1.6166 -0.6084 -0.5107
  182MOL0     H25050  10.992   0.131   7.852  2.0382 -1.4308  0.0140
  182MOL0     H25051  11.231   0.126   7.776  2.4448  1.7694  0.8381
  182MOL0     H25052  11.171   0.234   7.638 -1.6002  4.4980  0.5146
  182MOL0     H25053  11.141   0.425   7.789  0.2898 -1.3535 -0.5417
  182MOL0     H25054  11.164   0.332   7.927 -2.3011  0.9117 -0.8416
  182MOL0     H25055  11.382   0.421   7.896  0.4395  0.0268  0.1813
  182MOL0     H25056  11.397   0.276   7.800  1.0614  0.9936  0.7783
  182MOL0     H25057  11.284   0.536   7.677 -0.0542 -0.3409 -1.6728
  182MOL0     H25058  11.340   0.387   7.600 -0.4286 -0.3761 -0.1846
  182MOL0     H25059  11.525   0.571   7.745 -3.1724  2.1272 -0.5243
  182MOL0     H25060  11.567   0.421   7.668  0.3886  0.6821  0.8380
  182MOL0     H25061  11.445   0.664   7.524  0.7426  1.1288  3.2058
  182MOL0     H25062  11.496   0.516   7.433 -1.9955 -0.6851  2.0370
  182MOL0     H25063  11.665   0.692   7.402  2.4150  0.0013  0.1080
  182MOL0     H25064  11.673   0.707   7.582  0.6880 -2.0640  2.1557
  182MOL0     H25065  11.765   0.488   7.276  1.5398 -1.5659 -0.6509
  182MOL0     H25066  12.028   0.263   7.355 -0.9664  3.2225  0.9875
  182MOL0     H25067  11.896   0.271   7.233 -1.2315  0.5348 -0.6443
  182MOL0     H25068  11.921   0.056   7.463 -1.6650 -0.4808  0.4596
  182MOL0     H25069  11.771   0.091   7.387 -0.0693 -0.4526  0.6871
  182MOL0     H25070  11.843  -0.074   7.240 -0.2007 -0.4933 -0.5389
  182MOL0     H25071  11.909   0.071   7.159  1.5446 -0.4788 -0.7374
  182MOL0     H25072  12.104   0.022   7.346 -0.1950 -2.1312  1.7061
  182MOL0     H25073  12.058  -0.136   7.323  0.5777  1.0632  2.4823
  182MOL0     H25074  12.256  -0.089   6.941 -0.7991 -2.6883  1.0450
  182MOL0     H25075  12.595  -0.171   6.868 -0.2051 -0.3305  1.6597
  182MOL0     H25076  12.530  -0.002   6.812 -1.8803  1.4616  1.6901
  182MOL0     H25077  12.435  -0.128   6.801  1.1697  1.5685 -2.9439
  182MOL0     H25078  12.964  -0.093   7.204  3.1272  3.3788 -0.0860
  182MOL0     H25079  13.192  -0.108   7.131 -0.0975 -1.9061  1.0720
  182MOL0     H25080  13.341   0.024   6.916 -1.7528  0.2456 -1.5249
  182MOL0     H25081  13.380  -0.114   7.023 -1.6759 -1.0953  0.3228
  182MOL0     H25082  13.513  -0.034   6.765  0.3024  0.0302  0.2876
  182MOL0     H25083  13.586  -0.077   6.913 -0.3819 -0.6849  0.9224
  182MOL0     H25084  13.483  -0.249   6.691  2.3961 -2.5902 -0.3619
  182MOL0     H25085  13.472  -0.311   6.864 -0.6221  1.6193  1.5622
  182MOL0     H25086  13.680  -0.401   6.740  0.2754  0.1584 -2.6018
  182MOL0     H25087  13.729  -0.285   6.858  1.4634  0.2595 -0.2302
  182MOL0     H25088  13.690  -0.204   6.561 -0.8841  1.1476  0.5164
  182MOL0     H25089  13.753  -0.125   6.697 -3.9525  0.6212  0.5348
  182MOL0     H25090  13.884  -0.396   6.628 -0.0749  1.0851  0.1336
  182MOL0     H25091  13.948  -0.267   6.729 -0.9773  1.7979  0.5112
  182MOL0     H25092  13.954  -0.122   6.522  1.5260 -0.1615 -1.4310
  182MOL0     H25093  13.908  -0.264   6.430 -0.4157  1.1236 -0.2808
  182MOL0     H25094  14.146  -0.252   6.619 -0.9698 -1.0314  0.8343
  182MOL0     H25095  14.152  -0.208   6.436 -2.6054 -1.3035 -2.4348
  182MOL0     H25096  13.054  -0.143   6.714 -1.2688 -0.7964 -0.7020
  182MOL0     H25097  12.830  -0.130   6.791  1.0182  3.4169 -2.5065
  182MOL0     H25098  12.540  -0.021   7.340 -0.7253  2.8673  0.8213
  182MOL0     H25099  12.311  -0.025   7.366  2.6287  1.5670  0.6406
  182MOL0     H25100  10.825   0.234   7.935 -0.2824 -1.1587  0.3514
  182MOL0     H25101  10.581   0.250   7.987  4.4323 -3.5067  0.2496
  182MOL0     H25102  10.104   0.223   8.029 -3.6654  0.5221  1.9452
  182MOL0     H25103   9.880   0.246   7.990  2.3514 -2.0376  1.7948
  182MOL0     H25104   9.692   0.202   7.825 -0.2312 -0.3878  0.2930
  182MOL0     H25105   9.632   0.338   7.924  0.0958 -0.8473  0.2650
  182MOL0     H25106   9.491   0.407   7.718 -1.9088 -1.3628  0.6299
  182MOL0     H25107   9.464   0.242   7.755  0.3044 -0.4240  1.5193
  182MOL0     H25108   9.479   0.280   7.512 -0.2365  2.3258  0.7745
  182MOL0     H25109   9.640   0.366   7.538  2.2781 -1.1362  1.5364
  182MOL0     H25110   9.724   0.138   7.621  0.5264 -1.6089 -0.5031
  182MOL0     H25111   9.699   0.161   7.451 -0.8045 -4.3822 -0.8371
  182MOL0     H25112   9.400  -0.116   7.531 -3.5099  2.3735 -0.4786
  182MOL0     H25113   9.968   0.438   7.614  0.3161 -1.8519 -0.4735
  182MOL0     H25114  10.291   0.307   7.580  1.2428  0.8631 -1.0439
  182MOL0     H25115  10.140   0.373   7.513  0.6310 -0.1635 -0.4469
  182MOL0     H25116  10.268   0.478   7.597 -1.7337  0.6954 -1.3905
  183MOL0     O25117   3.948   8.260  10.366 -0.1426 -0.1443 -0.2894
  183MOL0     C25118   3.877   8.318  10.287  0.2577  0.1446 -0.1192
  183MOL0     O25119   3.922   8.372  10.161 -0.1647 -0.5771 -0.5204
  183MOL0     C25120   4.057   8.373  10.143 -0.0276  0.1181  0.6705
  183MOL0     C25121   4.111   8.271  10.065 -0.7768  0.7561  0.5640
  183MOL0     C25122   4.248   8.259  10.041 -0.7818 -1.0123  0.2497
  183MOL0     C25123   4.333   8.360  10.076  1.5318  0.5141  0.4893
  183MOL0     O25124   4.459   8.362  10.029 -0.0546 -0.4591 -0.3795
  183MOL0     C25125   4.555   8.457  10.087  0.6433 -0.0103  0.0709
  183MOL0     C25126   4.689   8.421  10.041  0.4944  0.4892  0.1442
  183MOL0     C25127   4.722   8.480   9.902 -0.1170  0.3087 -0.1226
  183MOL0     C25128   4.867   8.547   9.890 -0.6593  0.1087  0.8236
  183MOL0     C25129   4.981   8.482   9.959  0.3148 -0.2183  0.0610
  183MOL0     C25130   5.013   8.337   9.932  0.1081  0.3978  0.1681
  183MOL0     C25131   5.121   8.340   9.820 -0.9398 -0.1806 -0.1790
  183MOL0     C25132   5.270   8.359   9.871 -0.2527 -0.4558 -0.5331
  183MOL0     N25133   5.301   8.265   9.976  0.3493 -0.4036  0.3838
  183MOL0     C25134   5.347   8.291  10.105  0.1542  0.5547 -0.4064
  183MOL0     C25135   5.388   8.173  10.151 -0.2668  0.6565  0.4168
  183MOL0     C25136   5.449   8.151  10.284  0.3562 -0.4606  0.8878
  183MOL0     C25137   5.602   8.136  10.266  0.2703  0.3309  0.2893
  183MOL0     C25138   5.640   7.992  10.222 -0.4701  0.3111  0.1509
  183MOL0     C25139   5.794   7.974  10.189 -0.0663 -0.5498  0.0666
  183MOL0     O25140   5.866   7.966  10.319  0.0005  0.1601 -0.0526
  183MOL0     C25141   5.998   7.941  10.312  0.0992  0.8486  0.6441
  183MOL0     C25142   6.075   7.998  10.205 -0.5735 -0.2548 -0.9662
  183MOL0     C25143   6.214   7.968  10.189  0.3459  0.3150 -0.2881
  183MOL0     C25144   6.293   8.037  10.088 -0.3255 -0.1096  0.3169
  183MOL0     C25145   6.275   7.880  10.287  0.6584  0.3904  0.4748
  183MOL0     C25146   6.426   7.853  10.303  0.3446 -0.4809  0.0536
  183MOL0     O25147   6.473   7.787  10.424  0.1573 -0.3528  0.4940
  183MOL0     C25148   6.605   7.770  10.442 -0.4975 -0.1158 -0.4629
  183MOL0     C25149   6.718   7.826  10.372  0.1282  0.5479 -0.5006
  183MOL0     C25150   6.841   7.801  10.427  0.1348  0.7545  1.0427
  183MOL0     C25151   6.870   7.728  10.533 -0.1762  0.6059 -0.3940
  183MOL0     O25152   7.002   7.691  10.565  0.3799  0.2296 -0.0384
  183MOL0     C25153   7.042   7.743  10.694 -0.7054 -0.2330 -0.0623
  183MOL0     C25154   7.153   7.649  10.752 -0.3084 -0.3215  0.2681
  183MOL0     C25155   7.271   7.639  10.654  0.2736  0.5907  0.1745
  183MOL0     C25156   7.393   7.707  10.706  0.3186  0.6584  0.5202
  183MOL0     C25157   7.513   7.638  10.649 -0.0906  0.5740 -0.2842
  183MOL0     C25158   7.629   7.630  10.751  0.3895 -0.0131 -0.1544
  183MOL0     C25159   7.748   7.565  10.684  0.2244  0.7937  0.3713
  183MOL0     C25160   7.720   7.430  10.621  0.1257  0.5264 -0.3712
  183MOL0    Cl25161   7.872   7.342  10.576  0.5494 -0.0855 -0.3050
  183MOL0     C25162   6.761   7.663  10.596 -0.2186 -0.1419  0.4041
  183MOL0     C25163   6.635   7.683  10.549 -0.3469  0.0415 -0.4072
  183MOL0     O25164   6.488   7.879  10.206 -0.9020  0.3068  0.0212
  183MOL0     C25165   6.196   7.821  10.385  0.0523  0.0302 -0.1143
  183MOL0     C25166   6.062   7.861  10.401  0.0133  0.5205  0.4336
  183MOL0     N25167   5.363   8.074  10.052 -0.7259  0.2511 -0.4759
  183MOL0     N25168   5.322   8.129   9.944  0.3888  0.1305 -0.5988
  183MOL0     C25169   4.282   8.464  10.145  0.6425 -0.0018 -0.8920
  183MOL0     C25170   4.144   8.481  10.185 -1.0387  0.1828  0.1009
  183MOL0     C25171   3.731   8.359  10.322  0.1401 -0.5042 -0.5069
  183MOL0     C25172   3.657   8.454  10.237 -0.2656 -0.5816 -0.6076
  183MOL0     C25173   3.522   8.476  10.263 -0.5987 -0.3267  0.1331
  183MOL0     C25174   3.453   8.412  10.365  0.0887  0.4359 -0.2496
  183MOL0     O25175   3.313   8.426  10.397 -0.5694  0.4540  0.0685
  183MOL0     C25176   3.240   8.528  10.333  0.6426  0.3708  0.3109
  183MOL0     C25177   3.104   8.540  10.389  1.1028 -0.6297  0.0771
  183MOL0     C25178   3.109   8.596  10.534 -0.6543  0.2636  0.0898
  183MOL0     C25179   2.970   8.582  10.596 -0.6524 -0.0160 -0.8758
  183MOL0     C25180   2.940   8.443  10.627 -0.4846 -0.1850 -0.3613
  183MOL0     C25181   2.905   8.332  10.656  0.7137  0.4603  0.3766
  183MOL0     C25182   3.524   8.328  10.445  0.4466  0.6389 -0.1081
  183MOL0     C25183   3.660   8.299  10.428  0.1794  0.3818  0.2316
  183MOL0     C25184   3.702   8.195  10.522  0.0120  0.3667  0.1250
  183MOL0     H25185   4.045   8.195  10.024  1.0085  0.1235 -1.3324
  183MOL0     H25186   4.284   8.169   9.991 -0.2804 -1.1201  0.7887
  183MOL0     H25187   4.551   8.438  10.195 -0.1009  1.3396  0.3010
  183MOL0     H25188   4.527   8.560  10.066  0.1887 -0.0133  0.6364
  183MOL0     H25189   4.758   8.452  10.119  2.0181 -0.0368 -0.9386
  183MOL0     H25190   4.696   8.312  10.031  0.7071  0.4011  1.1789
  183MOL0     H25191   4.696   8.404   9.828 -0.7044  0.8927 -0.5262
  183MOL0     H25192   4.647   8.556   9.877 -1.0749  0.0051  1.6736
  183MOL0     H25193   4.889   8.562   9.784  1.9386  2.5824  1.5959
  183MOL0     H25194   4.859   8.648   9.932 -4.7130  1.1436 -1.8000
  183MOL0     H25195   4.975   8.495  10.068  1.5191  0.0131  0.1147
  183MOL0     H25196   5.064   8.547   9.929  1.9958 -3.6482 -3.4335
  183MOL0     H25197   5.052   8.298  10.026  1.0626 -0.1664 -0.4469
  183MOL0     H25198   4.929   8.280   9.891  0.1851  0.6189 -0.3063
  183MOL0     H25199   5.104   8.417   9.744  1.4529  1.0520  0.4489
  183MOL0     H25200   5.127   8.241   9.773 -0.3731 -0.7547  1.0641
  183MOL0     H25201   5.334   8.348   9.783 -2.0409  0.5000 -2.0330
  183MOL0     H25202   5.279   8.464   9.901  0.2379  0.0722 -2.3820
  183MOL0     H25203   5.355   8.381  10.165 -2.1054  0.4977  0.0780
  183MOL0     H25204   5.406   8.064  10.334  0.4360 -2.1942 -1.8497
  183MOL0     H25205   5.428   8.238  10.346  0.2408 -0.6183  1.0703
  183MOL0     H25206   5.630   8.214  10.195 -1.3607  0.7663  0.0798
  183MOL0     H25207   5.648   8.156  10.363 -1.6312  0.2490  1.2568
  183MOL0     H25208   5.619   7.919  10.301 -1.7724 -0.3347 -0.7597
  183MOL0     H25209   5.593   7.965  10.127  3.8959  0.0457 -2.2181
  183MOL0     H25210   5.811   7.875  10.145  0.3313 -0.8452  0.8663
  183MOL0     H25211   5.809   8.063  10.127 -2.0649 -1.3971 -1.7786
  183MOL0     H25212   6.021   8.065  10.139  0.3903  2.1314  0.5369
  183MOL0     H25213   6.361   8.105  10.140  2.3126 -3.3330  1.4099
  183MOL0     H25214   6.232   8.109  10.032  0.2677  0.3468  0.2496
  183MOL0     H25215   6.349   7.970  10.023 -2.1501 -1.3048 -0.1176
  183MOL0     H25216   6.706   7.899  10.292  1.5341 -1.6024 -2.8232
  183MOL0     H25217   6.927   7.842  10.374 -1.1941  0.5006 -1.4627
  183MOL0     H25218   7.077   7.847  10.696  0.8403 -0.7480  0.2891
  183MOL0     H25219   6.960   7.742  10.766 -0.7423 -0.9879 -0.1117
  183MOL0     H25220   7.181   7.704  10.843  0.3500  1.4546 -0.9643
  183MOL0     H25221   7.123   7.547  10.780  1.4898 -1.0179 -0.2652
  183MOL0     H25222   7.231   7.685  10.563  0.6290  1.5488  0.4834
  183MOL0     H25223   7.283   7.531  10.643  0.8660  0.3363  2.6302
  183MOL0     H25224   7.397   7.684  10.813 -0.4522  0.0834  0.4376
  183MOL0     H25225   7.400   7.815  10.690 -1.6499  0.8795  0.8101
  183MOL0     H25226   7.486   7.535  10.624  0.2462  0.3565  0.2220
  183MOL0     H25227   7.532   7.692  10.556 -1.5673 -1.2490 -1.7391
  183MOL0     H25228   7.593   7.584  10.843 -0.3675  0.9795  0.0726
  183MOL0     H25229   7.664   7.730  10.778  1.0727 -0.3479  0.2121
  183MOL0     H25230   7.831   7.545  10.753  1.0412  0.9664 -0.5347
  183MOL0     H25231   7.788   7.633  10.608 -1.5307 -2.1948 -3.5746
  183MOL0     H25232   7.649   7.442  10.539  2.7690  3.5602 -2.4146
  183MOL0     H25233   7.665   7.370  10.696 -0.7293 -1.5404 -2.5224
  183MOL0     H25234   6.783   7.594  10.677 -0.1710  0.0066  0.5194
  183MOL0     H25235   6.549   7.642  10.600  1.2773 -0.4010  2.1843
  183MOL0     H25236   6.238   7.753  10.458 -1.9175  0.6337  1.6730
  183MOL0     H25237   6.010   7.826  10.490 -2.4431 -1.5168 -1.6525
  183MOL0     H25238   4.334   8.556  10.170 -2.4283  1.6400  0.0741
  183MOL0     H25239   4.103   8.572  10.226 -0.9421  0.8517 -1.2328
  183MOL0     H25240   3.703   8.501  10.151  1.2503 -0.4898  0.2127
  183MOL0     H25241   3.477   8.551  10.198 -3.0959 -2.6428 -1.0133
  183MOL0     H25242   3.287   8.626  10.340 -1.5525  1.3840  2.7097
  183MOL0     H25243   3.234   8.500  10.227  1.3499 -0.6683  0.5249
  183MOL0     H25244   3.051   8.446  10.370  0.4812 -0.4744  0.9513
  183MOL0     H25245   3.056   8.614  10.324 -2.8027 -1.8678  1.2468
  183MOL0     H25246   3.186   8.544  10.591  1.3246  1.0155 -1.7638
  183MOL0     H25247   3.136   8.701  10.525 -0.5832  0.2770  0.4680
  183MOL0     H25248   2.897   8.613  10.521 -1.4716 -0.4885 -0.2886
  183MOL0     H25249   2.957   8.643  10.686 -0.3760 -0.5531 -0.4662
  183MOL0     H25250   2.873   8.238  10.696  3.4246 -1.0922 -0.7880
  183MOL0     H25251   3.460   8.281  10.520 -4.0308  5.4145 -0.3639
  183MOL0     H25252   3.744   8.112  10.465  0.1877  1.7618 -1.8680
  183MOL0     H25253   3.783   8.229  10.588  1.3132  0.3930 -1.4271
  183MOL0     H25254   3.619   8.159  10.584  1.5104 -0.1417  1.9244
  184MOL0     O25255  10.570   2.507   7.707 -0.5195 -0.7763 -0.3099
  184MOL0     C25256  10.533   2.432   7.790 -0.5109 -0.2856 -1.3691
  184MOL0     O25257  10.596   2.413   7.910  0.3335 -0.3284 -0.4928
  184MOL0     C25258  10.717   2.482   7.930  0.0916 -0.5992  0.0365
  184MOL0     C25259  10.834   2.417   7.932 -0.2932 -0.1921  0.4235
  184MOL0     C25260  10.957   2.488   7.966  0.4415  1.1364  0.7055
  184MOL0     C25261  10.952   2.618   8.013 -0.4598  0.1322 -0.4611
  184MOL0     O25262  11.062   2.666   8.065  0.5684  0.4536 -0.0533
  184MOL0     C25263  11.074   2.808   8.085  0.5485 -0.2347  0.7054
  184MOL0     C25264  11.084   2.887   7.953  0.7387 -0.3234 -0.5370
  184MOL0     C25265  11.198   2.997   7.970  0.2406 -0.7373 -0.1736
  184MOL0     C25266  11.341   2.943   7.949  0.4679  0.8134 -0.3716
  184MOL0     C25267  11.454   3.043   7.944  0.3131 -0.4754  0.1455
  184MOL0     C25268  11.586   2.970   7.918 -0.2689 -0.9345 -0.0248
  184MOL0     C25269  11.695   3.073   7.872 -0.3249 -0.0837 -0.9023
  184MOL0     C25270  11.714   3.186   7.984  0.3664  0.1103  0.1930
  184MOL0     N25271  11.837   3.256   7.944  0.0964  0.3476  0.6020
  184MOL0     C25272  11.962   3.201   7.918  0.5194 -0.3794  0.2973
  184MOL0     C25273  12.043   3.305   7.893  0.1434 -0.1991  0.2831
  184MOL0     C25274  12.192   3.319   7.864 -0.5726  0.5017  0.4044
  184MOL0     C25275  12.279   3.215   7.951 -0.0291  0.2007 -0.1629
  184MOL0     C25276  12.287   3.246   8.098 -0.4752  0.2669 -0.0303
  184MOL0     C25277  12.421   3.229   8.149 -0.0824  0.3579  0.5991
  184MOL0     O25278  12.440   3.280   8.285 -0.4275 -0.4293  0.1355
  184MOL0     C25279  12.568   3.270   8.337 -0.3520  0.0870  0.7514
  184MOL0     C25280  12.586   3.310   8.466 -0.3240 -0.0307 -0.0176
  184MOL0     C25281  12.710   3.320   8.531  0.4230 -0.7704 -0.7546
  184MOL0     C25282  12.698   3.372   8.676 -0.0514 -0.2784 -0.0398
  184MOL0     C25283  12.829   3.294   8.461  0.4622 -0.3093  0.3629
  184MOL0     C25284  12.961   3.308   8.526 -0.5135 -0.0789 -0.1745
  184MOL0     O25285  13.060   3.254   8.448 -0.7746  0.1025  0.9109
  184MOL0     C25286  13.186   3.294   8.481 -0.3925 -0.0387  0.0173
  184MOL0     C25287  13.255   3.265   8.597 -0.1284 -0.1737 -0.0765
  184MOL0     C25288  13.389   3.314   8.620  0.4824  0.7116 -0.4467
  184MOL0     C25289  13.458   3.385   8.523 -1.2675 -0.1243 -0.6037
  184MOL0     O25290  13.595   3.416   8.533  0.3566 -0.4731 -0.4953
  184MOL0     C25291  13.640   3.485   8.649  0.4213 -0.0083  0.2010
  184MOL0     C25292  13.776   3.528   8.602 -0.2759 -0.2176 -0.7285
  184MOL0     C25293  13.830   3.676   8.635 -0.0888  0.9768 -0.4365
  184MOL0     C25294  13.730   3.784   8.584  0.5724 -0.0814  1.0652
  184MOL0     C25295  13.757   3.920   8.645 -0.8807  0.4466 -0.3356
  184MOL0     C25296  13.712   3.941   8.786  0.4100  0.6272 -1.0014
  184MOL0     C25297  13.784   4.060   8.839  0.5817  0.0713 -0.1318
  184MOL0     C25298  13.800   4.071   8.987 -0.0812  0.1336  0.1100
  184MOL0    Cl25299  13.645   4.062   9.072 -0.0938 -0.1527  0.0704
  184MOL0     C25300  13.399   3.396   8.400  0.2310 -0.0552 -0.2166
  184MOL0     C25301  13.264   3.365   8.386  0.3297  0.7347 -0.0754
  184MOL0     O25302  12.981   3.375   8.629  0.0148 -0.6489  0.1296
  184MOL0     C25303  12.811   3.242   8.331 -0.1047  0.2804 -0.3850
  184MOL0     C25304  12.683   3.223   8.271  0.3776 -0.1661  0.7113
  184MOL0     N25305  11.977   3.424   7.898  0.9372  0.8287  0.2188
  184MOL0     N25306  11.853   3.389   7.925  0.1445 -0.4795  0.0360
  184MOL0     C25307  10.821   2.679   8.018 -0.3589 -0.0032 -0.5241
  184MOL0     C25308  10.702   2.614   7.974 -0.3132  0.0114 -0.2406
  184MOL0     C25309  10.407   2.355   7.777  0.2527  0.2754  0.3128
  184MOL0     C25310  10.406   2.220   7.815  0.8978  0.3055  1.7453
  184MOL0     C25311  10.301   2.136   7.790  0.5790 -0.1751  0.2007
  184MOL0     C25312  10.184   2.186   7.724  0.3763 -0.7106  0.9350
  184MOL0     O25313  10.073   2.111   7.684  0.0577 -0.0778 -0.4595
  184MOL0     C25314  10.096   1.977   7.643 -0.7439 -0.1101  0.8271
  184MOL0     C25315   9.986   1.884   7.691 -0.1616 -0.3860 -0.2379
  184MOL0     C25316  10.003   1.741   7.632 -0.2494  0.1794  0.0727
  184MOL0     C25317   9.882   1.656   7.662  0.1461  0.7011  0.3352
  184MOL0     C25318   9.756   1.707   7.603 -0.1905 -0.1892  0.3912
  184MOL0     C25319   9.662   1.744   7.536  0.7500  0.0819  0.3043
  184MOL0     C25320  10.189   2.313   7.670  0.0176  1.1505 -0.2546
  184MOL0     C25321  10.296   2.403   7.700  0.5695  0.5908 -0.1363
  184MOL0     C25322  10.297   2.539   7.628  0.1308  0.5221 -0.4360
  184MOL0     H25323  10.820   2.311   7.915 -2.0306 -0.6219  3.7631
  184MOL0     H25324  11.056   2.444   7.960 -0.2609 -0.2941 -2.7828
  184MOL0     H25325  11.169   2.818   8.137  0.2536 -2.6415  1.8288
  184MOL0     H25326  10.996   2.861   8.141 -0.2671  0.7870 -1.2727
  184MOL0     H25327  11.112   2.821   7.871 -0.1160  1.6438 -2.5076
  184MOL0     H25328  10.988   2.931   7.925 -1.2863 -0.4762  4.8879
  184MOL0     H25329  11.193   3.069   7.888 -2.1260  1.8914  2.0716
  184MOL0     H25330  11.189   3.052   8.063  1.8082 -0.7892  0.0332
  184MOL0     H25331  11.374   2.880   8.032  2.1480  0.0611 -1.5449
  184MOL0     H25332  11.331   2.886   7.856 -1.1822  0.4352  0.0141
  184MOL0     H25333  11.445   3.091   8.042  0.2358 -2.6364  1.2621
  184MOL0     H25334  11.437   3.118   7.867  1.4151 -1.1587 -0.7921
  184MOL0     H25335  11.619   2.932   8.014 -2.7568  1.6549  2.0340
  184MOL0     H25336  11.565   2.890   7.846  1.3356 -1.1238 -0.3130
  184MOL0     H25337  11.666   3.112   7.774  1.0821  0.6844 -1.0382
  184MOL0     H25338  11.785   3.015   7.850  0.9182  1.4508 -0.0448
  184MOL0     H25339  11.629   3.255   7.976  0.2975  0.1136  0.8912
  184MOL0     H25340  11.727   3.148   8.086 -1.1072  2.8387  1.5052
  184MOL0     H25341  11.972   3.094   7.909  0.3948 -0.3898  0.2713
  184MOL0     H25342  12.224   3.423   7.873  0.3503  0.1788  0.9499
  184MOL0     H25343  12.213   3.297   7.759 -0.2444 -1.4000  0.8407
  184MOL0     H25344  12.227   3.121   7.930 -0.1560  0.1449  0.3774
  184MOL0     H25345  12.376   3.198   7.904  0.0800  0.8549 -0.1836
  184MOL0     H25346  12.252   3.347   8.122 -0.8547 -0.2958  2.0072
  184MOL0     H25347  12.220   3.177   8.150 -0.2413 -1.0709 -1.4384
  184MOL0     H25348  12.444   3.124   8.129 -3.3852 -0.2944 -0.3912
  184MOL0     H25349  12.478   3.297   8.085 -1.0142  1.3296  0.7666
  184MOL0     H25350  12.491   3.331   8.514 -0.0513  0.2558  0.4039
  184MOL0     H25351  12.594   3.395   8.700 -0.1051  0.0683 -0.5683
  184MOL0     H25352  12.763   3.460   8.681  0.1472  0.0222 -4.0346
  184MOL0     H25353  12.723   3.294   8.748 -0.0416 -1.4349 -1.2417
  184MOL0     H25354  13.208   3.201   8.671 -2.7659 -0.4799 -1.9018
  184MOL0     H25355  13.446   3.294   8.710  0.7129 -0.4803 -0.8313
  184MOL0     H25356  13.571   3.569   8.667  0.9170  1.4527 -3.6529
  184MOL0     H25357  13.653   3.425   8.739  0.8588  0.3238  0.3612
  184MOL0     H25358  13.851   3.457   8.637 -0.5279 -0.3704 -0.4978
  184MOL0     H25359  13.783   3.518   8.493  0.5109  3.2513 -1.1133
  184MOL0     H25360  13.931   3.702   8.601 -0.3050  2.3295 -0.1381
  184MOL0     H25361  13.826   3.692   8.744 -0.8971 -1.6043 -0.0175
  184MOL0     H25362  13.630   3.747   8.607 -0.1071  0.3342 -0.9965
  184MOL0     H25363  13.747   3.804   8.478  4.8235  0.9641  1.7790
  184MOL0     H25364  13.863   3.941   8.628 -0.7471 -0.4136 -0.6236
  184MOL0     H25365  13.694   3.986   8.584 -0.6717 -0.6593 -1.8281
  184MOL0     H25366  13.739   3.857   8.851  1.5432  1.4043 -0.4464
  184MOL0     H25367  13.602   3.945   8.790  0.2965 -1.6037  1.9065
  184MOL0     H25368  13.732   4.140   8.785  1.0125 -0.6252 -1.6350
  184MOL0     H25369  13.890   4.056   8.810  0.6422 -2.5093  0.2310
  184MOL0     H25370  13.863   4.153   9.021  0.9849 -1.1908  1.4732
  184MOL0     H25371  13.862   3.985   9.012 -1.2334 -0.9070 -0.4931
  184MOL0     H25372  13.441   3.446   8.313  3.2465 -2.8046 -0.4986
  184MOL0     H25373  13.196   3.392   8.306 -1.1056  1.6226  1.3777
  184MOL0     H25374  12.900   3.227   8.272 -0.3304  1.7568 -1.1491
  184MOL0     H25375  12.682   3.196   8.166  1.9604  2.3660 -0.0576
  184MOL0     H25376  10.806   2.779   8.058 -1.6578  0.1254 -1.2765
  184MOL0     H25377  10.606   2.660   7.994  0.6369  0.7107  3.3713
  184MOL0     H25378  10.495   2.185   7.867  1.7564  0.0143  0.1588
  184MOL0     H25379  10.305   2.033   7.823  0.3885 -0.1727  0.2337
  184MOL0     H25380  10.104   1.982   7.534 -1.4982 -0.8838  0.7348
  184MOL0     H25381  10.185   1.929   7.686 -1.4575 -3.1612 -0.8580
  184MOL0     H25382   9.891   1.928   7.659  1.2545  1.8620 -1.6274
  184MOL0     H25383   9.988   1.880   7.800  0.7412  1.1340 -0.1730
  184MOL0     H25384  10.025   1.739   7.525  2.0765  1.5514  0.4346
  184MOL0     H25385  10.096   1.708   7.680 -1.4392 -3.1325  0.3082
  184MOL0     H25386   9.859   1.636   7.767  2.1896  0.2341  0.7404
  184MOL0     H25387   9.905   1.562   7.611  1.0345  0.8184  0.4975
  184MOL0     H25388   9.576   1.785   7.486  1.0841  1.5760  0.8841
  184MOL0     H25389  10.108   2.339   7.604 -0.2041 -0.9059 -0.8670
  184MOL0     H25390  10.196   2.560   7.591 -0.1604 -0.0673  0.0013
  184MOL0     H25391  10.326   2.613   7.704  0.3889 -1.0170  1.0349
  184MOL0     H25392  10.374   2.538   7.550  0.3640 -0.5704 -0.2115
  185MOL0     O25393   3.869   9.863   8.327 -0.0077 -0.6423 -0.3068
  185MOL0     C25394   3.798   9.903   8.233 -0.8525 -0.5596  0.2523
  185MOL0     O25395   3.843   9.924   8.107 -0.0435  0.2254 -0.0462
  185MOL0     C25396   3.985   9.928   8.098  1.0433 -0.0592  0.4207
  185MOL0     C25397   4.058   9.809   8.085  0.5445 -0.1339 -0.6838
  185MOL0     C25398   4.195   9.812   8.097  0.0173 -0.3738  0.0342
  185MOL0     C25399   4.262   9.931   8.103 -0.4364 -0.5136 -0.7037
  185MOL0     O25400   4.401   9.905   8.103  1.3034 -0.1769  0.2443
  185MOL0     C25401   4.493  10.005   8.064  0.9730 -1.1318 -0.4786
  185MOL0     C25402   4.628   9.931   8.064 -0.0920 -0.4083 -0.4083
  185MOL0     C25403   4.744  10.014   8.008  0.4809  0.0256  0.5882
  185MOL0     C25404   4.874   9.964   8.077  0.3319 -0.4763  0.5296
  185MOL0     C25405   5.000  10.046   8.034  0.8445 -0.7311  0.2622
  185MOL0     C25406   5.115   9.970   7.956 -0.6711 -1.0740  0.3944
  185MOL0     C25407   5.252  10.050   7.971  0.3516  0.2682  0.5033
  185MOL0     C25408   5.367   9.963   7.918 -0.1208  0.1513  0.3127
  185MOL0     N25409   5.503  10.031   7.927 -0.1943  0.6262  0.8634
  185MOL0     C25410   5.579  10.033   8.043  0.2541  0.4774  0.7874
  185MOL0     C25411   5.694  10.093   8.002  0.5754  0.2513  0.7456
  185MOL0     C25412   5.824  10.120   8.073  0.0776 -0.3413 -0.7962
  185MOL0     C25413   5.953  10.095   7.980  0.4136 -0.2127 -0.6642
  185MOL0     C25414   6.084  10.049   8.043 -0.8114  0.2189 -0.0830
  185MOL0     C25415   6.108  10.101   8.186 -0.2079  0.6130 -0.7514
  185MOL0     O25416   6.253  10.089   8.210  0.1403  0.1925 -0.0238
  185MOL0     C25417   6.274  10.047   8.341  0.2852 -0.1588 -0.0044
  185MOL0     C25418   6.382   9.955   8.363  0.9515  0.0087 -0.6729
  185MOL0     C25419   6.419   9.911   8.495 -0.1558  1.3792  0.2791
  185MOL0     C25420   6.519   9.792   8.508 -0.5288 -0.9913  0.3315
  185MOL0     C25421   6.358   9.975   8.611  0.5466  0.6927  0.4695
  185MOL0     C25422   6.406   9.959   8.752  0.7235 -0.8268 -0.3446
  185MOL0     O25423   6.497   9.866   8.783 -0.2752  0.9667 -0.2459
  185MOL0     C25424   6.583   9.870   8.897  0.7215  0.1277  0.0594
  185MOL0     C25425   6.601   9.978   8.985  0.4253  0.4391 -0.6669
  185MOL0     C25426   6.692   9.972   9.089  0.3525  0.1172 -0.1054
  185MOL0     C25427   6.767   9.860   9.111 -0.0168  0.4967 -0.4870
  185MOL0     O25428   6.855   9.842   9.214 -1.1334  0.5317 -0.8729
  185MOL0     C25429   6.819   9.907   9.342 -0.8545  0.8077  0.5277
  185MOL0     C25430   6.882  10.045   9.351  0.1244 -0.1855 -0.2005
  185MOL0     C25431   7.016  10.038   9.430  0.2036 -0.9614  0.3529
  185MOL0     C25432   7.085  10.179   9.427 -0.2678  0.2110 -0.4601
  185MOL0     C25433   7.205  10.181   9.522  0.3529 -0.4524  0.2449
  185MOL0     C25434   7.329  10.121   9.467  0.1220 -0.9660  0.1192
  185MOL0     C25435   7.448  10.135   9.568 -0.1638 -0.5750 -0.6072
  185MOL0     C25436   7.574  10.068   9.512  0.5261 -0.0615 -0.1568
  185MOL0    Cl25437   7.693  10.070   9.639 -0.3397  0.2153  0.1372
  185MOL0     C25438   6.755   9.750   9.019  0.2495 -0.0397  0.0760
  185MOL0     C25439   6.655   9.754   8.922 -0.1584 -0.8600  0.4602
  185MOL0     O25440   6.343  10.024   8.838 -0.2638  0.3646 -0.0677
  185MOL0     C25441   6.255  10.067   8.583 -0.3826 -0.5215 -0.1579
  185MOL0     C25442   6.209  10.104   8.455 -1.0276  0.3582  0.1559
  185MOL0     N25443   5.679  10.134   7.866 -0.4587  0.1236  0.7304
  185MOL0     N25444   5.567  10.094   7.829  0.5468 -0.0068 -0.1565
  185MOL0     C25445   4.193  10.048   8.103 -0.7599 -0.7436 -0.5484
  185MOL0     C25446   4.049  10.048   8.106 -0.6579 -0.4016 -0.6784
  185MOL0     C25447   3.652   9.925   8.261 -0.4467  0.0009 -0.0094
  185MOL0     C25448   3.571   9.973   8.158  0.1595 -0.0917 -0.8302
  185MOL0     C25449   3.430   9.978   8.166 -0.0679  0.5525  0.1563
  185MOL0     C25450   3.368   9.932   8.275  0.7216 -0.2515 -0.9336
  185MOL0     O25451   3.230   9.952   8.282  0.7515 -0.5935 -0.0226
  185MOL0     C25452   3.162   9.905   8.401  0.1392  0.5947  0.5021
  185MOL0     C25453   3.010   9.919   8.378 -1.6529  0.0031  0.1144
  185MOL0     C25454   2.928   9.852   8.497  0.5043 -0.6108 -0.4408
  185MOL0     C25455   2.789   9.816   8.454  0.5783 -0.1209 -0.0607
  185MOL0     C25456   2.706   9.772   8.566  0.3109  0.5876  0.7675
  185MOL0     C25457   2.624   9.719   8.644 -0.3932 -0.8043 -0.3003
  185MOL0     C25458   3.446   9.899   8.389 -0.2461  0.4617  0.1193
  185MOL0     C25459   3.586   9.886   8.384 -0.4812 -0.4549  0.6589
  185MOL0     C25460   3.651   9.870   8.514 -0.1430 -0.5075 -1.1332
  185MOL0     H25461   4.017   9.709   8.074 -1.6163  0.4851  0.9964
  185MOL0     H25462   4.251   9.720   8.081  1.6728  0.5608  0.2327
  185MOL0     H25463   4.491  10.093   8.129 -2.0371 -1.3425 -0.1656
  185MOL0     H25464   4.472  10.041   7.963  1.0236 -0.0370 -0.1063
  185MOL0     H25465   4.660   9.900   8.164 -1.3449  0.4537  0.2870
  185MOL0     H25466   4.612   9.839   8.006 -1.0441 -0.7377  0.3407
  185MOL0     H25467   4.753  10.016   7.899 -1.0345 -0.2621  0.4297
  185MOL0     H25468   4.720  10.118   8.032  0.2319 -0.1293  1.0254
  185MOL0     H25469   4.862   9.965   8.185 -0.7686 -1.6501  0.4400
  185MOL0     H25470   4.903   9.864   8.044  2.8914 -0.0035  1.1237
  185MOL0     H25471   5.039  10.075   8.132 -0.4007  0.9261  0.3178
  185MOL0     H25472   4.957  10.126   7.973  0.7012 -0.8181  0.2486
  185MOL0     H25473   5.125   9.870   8.000  1.1858 -1.4175 -0.6916
  185MOL0     H25474   5.096   9.958   7.849 -0.1594 -1.1611  0.3103
  185MOL0     H25475   5.277  10.070   8.076 -1.9526 -0.4627  1.2460
  185MOL0     H25476   5.258  10.139   7.908  4.3343 -0.4014 -0.3627
  185MOL0     H25477   5.382   9.879   7.987 -0.9115 -0.3660 -0.1383
  185MOL0     H25478   5.358   9.920   7.818 -0.3774  1.5645 -0.2916
  185MOL0     H25479   5.543   9.994   8.137  0.2063 -1.2186  0.0973
  185MOL0     H25480   5.839  10.060   8.163  1.2587 -0.0354 -0.7656
  185MOL0     H25481   5.816  10.224   8.104 -0.8941 -0.2185 -1.4013
  185MOL0     H25482   5.923  10.018   7.908 -3.4138  1.2426 -0.8851
  185MOL0     H25483   5.964  10.187   7.923 -2.2292  0.8167  0.2986
  185MOL0     H25484   6.075   9.940   8.049  1.0735 -0.0092 -0.6884
  185MOL0     H25485   6.168  10.075   7.977 -1.1503 -0.6638 -0.8974
  185MOL0     H25486   6.079  10.205   8.201  2.4115  1.0093  2.9792
  185MOL0     H25487   6.058  10.038   8.261  1.9087 -0.7415 -0.3803
  185MOL0     H25488   6.424   9.918   8.270  0.4305 -0.8785 -0.5695
  185MOL0     H25489   6.552   9.761   8.408 -2.4945 -1.7474 -0.1288
  185MOL0     H25490   6.468   9.707   8.555  0.7456 -2.1396 -0.2694
  185MOL0     H25491   6.610   9.816   8.563 -1.8426  2.6027  1.1959
  185MOL0     H25492   6.546  10.071   8.974 -0.9584 -0.4032 -1.1971
  185MOL0     H25493   6.708  10.066   9.142 -1.5514  1.5175 -1.8730
  185MOL0     H25494   6.710   9.909   9.346 -0.9407  0.3449 -0.8342
  185MOL0     H25495   6.857   9.854   9.430 -1.1081  0.1132  0.2341
  185MOL0     H25496   6.907  10.086   9.253  0.3786 -0.6822 -0.3454
  185MOL0     H25497   6.804  10.111   9.389 -0.4271  0.6257 -2.5525
  185MOL0     H25498   7.078   9.964   9.379 -2.5658 -0.9864 -3.4170
  185MOL0     H25499   6.981  10.012   9.530 -2.9003  2.6027  0.3939
  185MOL0     H25500   7.010  10.244   9.473  2.1769  1.6281  1.7727
  185MOL0     H25501   7.105  10.214   9.325 -2.0851  2.5309 -0.0858
  185MOL0     H25502   7.234  10.284   9.547 -0.1598 -0.6591  1.7998
  185MOL0     H25503   7.177  10.137   9.618  0.0204 -0.3555  0.1953
  185MOL0     H25504   7.354  10.162   9.369 -1.5649 -0.7972 -0.2589
  185MOL0     H25505   7.314  10.014   9.454  0.4762 -0.8402 -1.5010
  185MOL0     H25506   7.424  10.091   9.665  0.6214  2.5458  1.1691
  185MOL0     H25507   7.468  10.241   9.589  1.8750 -1.2801  1.4664
  185MOL0     H25508   7.612  10.133   9.432 -3.8525  2.1192 -0.7967
  185MOL0     H25509   7.562   9.965   9.475  0.5472 -0.7939  1.7686
  185MOL0     H25510   6.823   9.666   9.028  1.3343  0.7011 -0.8786
  185MOL0     H25511   6.645   9.668   8.857 -1.2942  0.1816 -0.8061
  185MOL0     H25512   6.195  10.117   8.658 -0.1221  1.5972 -1.2883
  185MOL0     H25513   6.131  10.179   8.445  0.4723  2.0915  0.8434
  185MOL0     H25514   4.251  10.140   8.107 -1.0344 -0.5582  3.6644
  185MOL0     H25515   3.990  10.138   8.118  1.4019  0.9108  0.1188
  185MOL0     H25516   3.621  10.002   8.066  4.8023 -0.9305  1.1460
  185MOL0     H25517   3.376  10.012   8.078  2.0036  2.2026 -0.5683
  185MOL0     H25518   3.191   9.801   8.419 -2.0189  0.0057  0.7438
  185MOL0     H25519   3.193   9.948   8.497 -1.8339  1.0198  0.9831
  185MOL0     H25520   2.997   9.866   8.283  0.6535  0.2153 -0.3681
  185MOL0     H25521   2.976  10.019   8.350 -0.2323  0.6382  0.5513
  185MOL0     H25522   2.977   9.757   8.518 -1.5819 -1.4203  1.0979
  185MOL0     H25523   2.930   9.913   8.588  1.0160  0.1411 -0.9407
  185MOL0     H25524   2.784   9.737   8.378 -2.2885 -0.2487  0.1796
  185MOL0     H25525   2.750   9.905   8.404 -1.2460  0.4617  2.2535
  185MOL0     H25526   2.567   9.656   8.708 -1.5209  0.2409 -0.2485
  185MOL0     H25527   3.398   9.861   8.479  0.0489 -1.1174 -0.3439
  185MOL0     H25528   3.737   9.934   8.533  2.2027 -3.7002 -0.2693
  185MOL0     H25529   3.583   9.876   8.599  0.5322  1.6195 -0.6882
  185MOL0     H25530   3.689   9.767   8.524  0.0687 -0.2577  1.2043
  186MOL0     O25531   0.068   6.634   7.499 -0.3129  0.0392  0.2413
  186MOL0     C25532  -0.052   6.621   7.496  0.5251 -0.4469 -1.0038
  186MOL0     O25533  -0.118   6.501   7.469 -0.2097  0.0704  0.5920
  186MOL0     C25534  -0.035   6.395   7.484 -0.5869 -0.3961 -0.1529
  186MOL0     C25535   0.010   6.336   7.604  0.1211 -0.0166 -0.6439
  186MOL0     C25536   0.075   6.211   7.590  0.0526  0.0182  0.0730
  186MOL0     C25537   0.095   6.149   7.468 -0.6326  1.2009 -0.3082
  186MOL0     O25538   0.153   6.020   7.464 -0.6822 -0.2215  0.7090
  186MOL0     C25539   0.179   5.957   7.336 -0.0449 -0.4637  0.2289
  186MOL0     C25540   0.272   5.839   7.341  0.0249  0.2841 -0.6263
  186MOL0     C25541   0.412   5.870   7.407  0.0700  0.6243 -0.3703
  186MOL0     C25542   0.504   5.744   7.385  1.0258 -0.0215  0.1980
  186MOL0     C25543   0.637   5.755   7.447 -0.5234 -0.6444 -0.2631
  186MOL0     C25544   0.717   5.872   7.395 -0.1699 -0.3472 -0.4957
  186MOL0     C25545   0.856   5.877   7.460 -0.6712 -0.1839  0.5091
  186MOL0     C25546   0.946   5.983   7.395 -0.5402 -0.3433  0.0121
  186MOL0     N25547   0.934   6.132   7.449  0.9039  0.5615 -0.5756
  186MOL0     C25548   0.938   6.245   7.367  0.1153 -0.4656  0.1679
  186MOL0     C25549   0.943   6.345   7.457 -0.0782 -0.0343 -0.5972
  186MOL0     C25550   0.976   6.493   7.416  0.6474  0.4595 -0.0575
  186MOL0     C25551   0.984   6.587   7.541 -0.3662 -0.7657 -0.1261
  186MOL0     C25552   1.138   6.567   7.593  0.7926 -0.1176  0.3266
  186MOL0     C25553   1.183   6.666   7.700 -0.6364 -0.3201  0.8031
  186MOL0     O25554   1.122   6.629   7.827 -0.2357  0.4301  0.7047
  186MOL0     C25555   1.140   6.723   7.932 -0.1408 -0.4402 -0.0662
  186MOL0     C25556   1.246   6.816   7.943 -0.7388 -0.0836 -0.3845
  186MOL0     C25557   1.257   6.901   8.053 -0.0292  0.3213 -0.1699
  186MOL0     C25558   1.385   6.986   8.057 -0.4586 -0.0406 -0.6659
  186MOL0     C25559   1.145   6.909   8.144 -0.4256 -0.4679 -0.9298
  186MOL0     C25560   1.143   6.994   8.265 -0.1205 -0.6791  0.0413
  186MOL0     O25561   1.075   6.943   8.373 -0.1259 -1.0274  0.5141
  186MOL0     C25562   1.044   7.028   8.476 -0.0853 -0.2170 -0.6584
  186MOL0     C25563   0.997   6.967   8.594  1.3681 -0.1043  0.2138
  186MOL0     C25564   0.955   7.044   8.703  0.2816  0.2497 -0.2754
  186MOL0     C25565   0.942   7.184   8.698  0.1544  0.1588  0.9760
  186MOL0     O25566   0.896   7.248   8.810  1.0989  0.6590  0.6846
  186MOL0     C25567   0.908   7.393   8.823  0.2637 -0.5244 -0.8198
  186MOL0     C25568   0.777   7.458   8.790  0.2507  0.9721  0.4880
  186MOL0     C25569   0.778   7.608   8.828  0.4761  0.4347  0.7390
  186MOL0     C25570   0.650   7.674   8.778  1.1941 -0.1148 -0.6263
  186MOL0     C25571   0.624   7.832   8.815  0.6228 -0.1638  0.7163
  186MOL0     C25572   0.492   7.890   8.762  0.8329 -0.6764  0.0956
  186MOL0     C25573   0.475   8.038   8.805  0.5145 -0.2248  0.3077
  186MOL0     C25574   0.329   8.088   8.821  1.1154 -0.5809  0.1666
  186MOL0    Cl25575   0.220   7.972   8.903 -0.0833  0.1515  0.0079
  186MOL0     C25576   0.973   7.242   8.578 -1.2157 -0.0569  0.1356
  186MOL0     C25577   1.026   7.168   8.473  0.5454 -0.1208  0.5212
  186MOL0     O25578   1.207   7.103   8.256  0.7363 -0.2381 -0.6140
  186MOL0     C25579   1.031   6.829   8.124  0.5579  0.1178 -0.1368
  186MOL0     C25580   1.036   6.739   8.013  0.2016  0.3121 -0.0432
  186MOL0     N25581   0.941   6.295   7.585 -1.0167 -0.0636 -0.3542
  186MOL0     N25582   0.932   6.168   7.579 -0.0777 -0.0937  0.5568
  186MOL0     C25583   0.045   6.206   7.352 -0.5516 -0.3784  0.2281
  186MOL0     C25584  -0.002   6.339   7.362  0.2692  0.1124 -0.6048
  186MOL0     C25585  -0.139   6.744   7.485  0.5778 -0.0739 -0.5374
  186MOL0     C25586  -0.249   6.738   7.400 -0.2290  0.1659  0.5005
  186MOL0     C25587  -0.340   6.845   7.388 -0.7044 -0.7436 -0.7849
  186MOL0     C25588  -0.315   6.964   7.464 -0.7485 -0.0047  0.3589
  186MOL0     O25589  -0.409   7.061   7.454 -0.1393 -1.0997  0.1848
  186MOL0     C25590  -0.422   7.173   7.540  0.8336 -0.6408  0.3760
  186MOL0     C25591  -0.570   7.191   7.582 -0.0877  0.6288  0.3174
  186MOL0     C25592  -0.636   7.077   7.659  0.4568  0.0973 -0.1836
  186MOL0     C25593  -0.648   6.947   7.581  0.3717 -0.2674  0.3986
  186MOL0     C25594  -0.762   6.866   7.629 -0.3516  0.2732 -0.1070
  186MOL0     C25595  -0.832   6.786   7.680  0.2860  0.1315 -0.5573
  186MOL0     C25596  -0.201   6.974   7.544 -0.1238  0.1111  0.0791
  186MOL0     C25597  -0.111   6.862   7.554 -0.4185  0.1162 -0.4017
  186MOL0     C25598   0.009   6.878   7.644  0.2091 -0.3214  0.6513
  186MOL0     H25599   0.005   6.384   7.701  3.6270 -1.6967  0.5298
  186MOL0     H25600   0.118   6.147   7.667  1.1060 -0.9613 -1.2692
  186MOL0     H25601   0.234   6.031   7.276  1.7571 -1.2986  0.7640
  186MOL0     H25602   0.089   5.917   7.289  0.6533 -0.9002 -0.7958
  186MOL0     H25603   0.239   5.743   7.383  2.6783 -0.7333 -0.7041
  186MOL0     H25604   0.287   5.815   7.236 -1.8995  0.7256 -1.0386
  186MOL0     H25605   0.456   5.962   7.367 -1.1871  2.0946  1.3979
  186MOL0     H25606   0.393   5.888   7.513  1.2182 -0.5383  0.0489
  186MOL0     H25607   0.445   5.664   7.432  2.2201 -1.1812 -0.2072
  186MOL0     H25608   0.509   5.708   7.282  0.5381  0.1543  0.1073
  186MOL0     H25609   0.696   5.666   7.423 -1.2508 -1.5954  1.3155
  186MOL0     H25610   0.631   5.773   7.555 -2.5314  2.8742 -0.7972
  186MOL0     H25611   0.738   5.864   7.288 -0.1212  0.0980 -0.5203
  186MOL0     H25612   0.674   5.969   7.422  3.0647  0.8755  0.8129
  186MOL0     H25613   0.915   5.787   7.445  0.9610  0.8259  0.5873
  186MOL0     H25614   0.849   5.885   7.569 -3.3726  0.5369  0.3462
  186MOL0     H25615   1.048   5.946   7.400 -0.1348  0.3718 -2.0219
  186MOL0     H25616   0.923   5.998   7.289  0.0655 -0.5486 -0.1477
  186MOL0     H25617   0.949   6.245   7.259  2.4842 -0.4700  0.3684
  186MOL0     H25618   0.897   6.534   7.352 -0.2613  0.3712  0.9840
  186MOL0     H25619   1.067   6.498   7.356  0.6949 -3.9899 -0.6797
  186MOL0     H25620   0.949   6.686   7.511 -1.7296 -1.5965 -1.3980
  186MOL0     H25621   0.917   6.565   7.624  1.3480  1.7068  2.0806
  186MOL0     H25622   1.169   6.465   7.618  0.4489 -0.3951 -0.3403
  186MOL0     H25623   1.207   6.594   7.512 -0.9345  0.7749 -0.9247
  186MOL0     H25624   1.292   6.664   7.709 -0.4310 -0.4513 -1.1965
  186MOL0     H25625   1.154   6.767   7.670  0.1234 -0.0351  1.0005
  186MOL0     H25626   1.329   6.801   7.873  0.4120  0.8608  0.7310
  186MOL0     H25627   1.369   7.087   8.020 -2.3764 -0.1518 -0.2530
  186MOL0     H25628   1.456   6.941   7.987  0.5644 -1.1481  0.9886
  186MOL0     H25629   1.445   6.992   8.148  1.2345 -2.1969 -1.5416
  186MOL0     H25630   0.994   6.860   8.612 -0.1405 -0.1521 -0.1681
  186MOL0     H25631   0.926   6.985   8.789 -0.6565  3.0413  1.4784
  186MOL0     H25632   0.933   7.418   8.927  0.7557  0.0443 -1.0681
  186MOL0     H25633   0.988   7.442   8.767  1.2978 -0.5464  0.6038
  186MOL0     H25634   0.758   7.448   8.683  1.2497 -0.9611  0.4581
  186MOL0     H25635   0.701   7.399   8.843 -0.5810  0.3383 -1.3274
  186MOL0     H25636   0.865   7.661   8.788  0.9220 -1.7341 -1.3907
  186MOL0     H25637   0.785   7.620   8.936 -1.9223  1.4020  0.8496
  186MOL0     H25638   0.561   7.619   8.810  0.3912  1.0108 -0.8260
  186MOL0     H25639   0.646   7.674   8.669  1.0635  2.0552 -0.6690
  186MOL0     H25640   0.628   7.850   8.923  1.8542  0.5512  0.5710
  186MOL0     H25641   0.700   7.885   8.757 -0.2354 -0.9715 -1.2574
  186MOL0     H25642   0.406   7.827   8.787  0.4082 -0.1089  0.0893
  186MOL0     H25643   0.495   7.885   8.652 -0.7491  0.1755 -0.0129
  186MOL0     H25644   0.517   8.099   8.726 -1.5710  1.6194  0.5133
  186MOL0     H25645   0.523   8.048   8.903 -0.9915 -0.2112  1.0740
  186MOL0     H25646   0.296   8.104   8.718  0.3778 -1.7604  0.2017
  186MOL0     H25647   0.336   8.183   8.876 -1.3362  1.1585 -2.2254
  186MOL0     H25648   0.960   7.349   8.565  1.3355  1.1372  4.9339
  186MOL0     H25649   1.052   7.217   8.379 -2.4173  0.4104 -0.1209
  186MOL0     H25650   0.938   6.831   8.180  0.7817 -1.2793  0.3157
  186MOL0     H25651   0.954   6.669   8.002 -0.1197  0.6375  0.2605
  186MOL0     H25652   0.046   6.152   7.258 -2.3233  0.7338 -0.4975
  186MOL0     H25653  -0.048   6.392   7.279  0.4731 -1.0367 -1.4848
  186MOL0     H25654  -0.266   6.650   7.338 -3.6824  0.8379  0.2839
  186MOL0     H25655  -0.424   6.831   7.321 -0.9164  0.1963 -0.7274
  186MOL0     H25656  -0.355   7.165   7.626  0.3426  2.7623  1.1996
  186MOL0     H25657  -0.387   7.262   7.486  0.8317 -1.1654 -0.5151
  186MOL0     H25658  -0.631   7.206   7.493  1.3501  0.8745 -0.6605
  186MOL0     H25659  -0.575   7.286   7.636 -1.3203  1.1482 -0.6739
  186MOL0     H25660  -0.581   7.054   7.750  1.9489 -0.4241 -1.1732
  186MOL0     H25661  -0.734   7.116   7.689 -0.4188 -1.0476 -1.3945
  186MOL0     H25662  -0.555   6.889   7.584  1.6623  1.5979 -0.8696
  186MOL0     H25663  -0.663   6.961   7.474  2.9668  0.0543  0.0023
  186MOL0     H25664  -0.882   6.710   7.735  0.6916 -0.1919 -0.6328
  186MOL0     H25665  -0.181   7.066   7.599  1.9284 -1.3245  1.8940
  186MOL0     H25666  -0.010   6.951   7.724  1.3773  1.3199 -0.5157
  186MOL0     H25667   0.026   6.785   7.699  0.2544 -0.0947  1.0313
  186MOL0     H25668   0.086   6.903   7.571 -1.1099 -2.0160 -1.4373
  187MOL0     O25669   4.521   3.903  11.297 -0.4093 -0.1137 -0.9020
  187MOL0     C25670   4.515   3.977  11.397  0.0791 -0.4166 -0.2411
  187MOL0     O25671   4.470   4.114  11.389 -0.4445  0.3498  0.4073
  187MOL0     C25672   4.407   4.162  11.279 -0.0757  0.0961  1.1500
  187MOL0     C25673   4.299   4.086  11.223  0.4072 -0.4288 -0.6903
  187MOL0     C25674   4.233   4.125  11.106 -0.1896  0.0339 -0.8853
  187MOL0     C25675   4.271   4.248  11.043  0.8309  0.6774  0.1225
  187MOL0     O25676   4.211   4.300  10.938 -0.2416 -0.2034  0.1903
  187MOL0     C25677   4.158   4.218  10.831 -0.3041 -0.3743  0.2619
  187MOL0     C25678   4.112   4.290  10.714 -0.0643  0.5556  0.0681
  187MOL0     C25679   4.225   4.369  10.636 -0.0861 -1.1866 -0.1394
  187MOL0     C25680   4.282   4.496  10.711  0.5612 -0.4835  0.6783
  187MOL0     C25681   4.393   4.566  10.628 -0.5868 -0.0286  0.4166
  187MOL0     C25682   4.492   4.661  10.702  0.4851 -0.0207 -0.2598
  187MOL0     C25683   4.583   4.585  10.796  0.7273  0.8988  0.1097
  187MOL0     C25684   4.668   4.692  10.860  0.0086 -0.4100  0.5741
  187MOL0     N25685   4.758   4.628  10.953  0.5443 -1.2445 -0.3372
  187MOL0     C25686   4.884   4.582  10.916  0.0421  0.4687 -0.5454
  187MOL0     C25687   4.924   4.526  11.036 -0.8030  0.5349 -0.6447
  187MOL0     C25688   5.057   4.465  11.071  0.2455  0.1267 -0.3719
  187MOL0     C25689   5.097   4.361  10.966  0.1555 -0.0953  0.3653
  187MOL0     C25690   5.204   4.270  11.007  0.3291 -0.1402  0.6451
  187MOL0     C25691   5.330   4.352  10.990  0.0617  0.6129 -0.1700
  187MOL0     O25692   5.367   4.427  11.115 -0.0391 -0.2847  0.3266
  187MOL0     C25693   5.498   4.467  11.124 -0.5821 -0.7439 -0.4250
  187MOL0     C25694   5.591   4.486  11.022 -0.3443 -0.4603  0.1856
  187MOL0     C25695   5.722   4.523  11.056 -0.4023 -0.2417  0.4017
  187MOL0     C25696   5.821   4.522  10.937 -0.2590  0.1566 -0.5229
  187MOL0     C25697   5.748   4.569  11.189 -0.3494 -0.0140 -0.3012
  187MOL0     C25698   5.869   4.624  11.234 -1.2800 -0.5052 -0.0644
  187MOL0     O25699   5.912   4.603  11.365  0.0069 -0.7513 -0.1842
  187MOL0     C25700   6.031   4.665  11.404  0.1116 -0.0484 -0.4385
  187MOL0     C25701   6.035   4.785  11.469  0.4761 -0.5386 -0.8861
  187MOL0     C25702   6.161   4.847  11.486  0.2716  0.7800 -1.0060
  187MOL0     C25703   6.280   4.790  11.439 -0.3026  0.4723  0.8324
  187MOL0     O25704   6.410   4.837  11.436 -0.5202  0.1245 -0.0487
  187MOL0     C25705   6.406   4.975  11.414  0.0142 -0.0028 -0.1699
  187MOL0     C25706   6.547   5.027  11.400 -0.2904  0.4421  0.1215
  187MOL0     C25707   6.547   5.170  11.351 -0.4614  0.0751  0.2276
  187MOL0     C25708   6.687   5.227  11.334  0.5261  0.2440 -0.7756
  187MOL0     C25709   6.688   5.359  11.268  0.2688 -0.4921  0.0525
  187MOL0     C25710   6.822   5.431  11.281 -0.7313  0.2324 -0.2290
  187MOL0     C25711   6.821   5.564  11.205 -0.2227  1.3406 -0.5551
  187MOL0     C25712   6.878   5.555  11.068 -0.5063 -1.4140 -0.3559
  187MOL0    Cl25713   6.899   5.725  11.008 -0.0517 -0.2037 -0.2325
  187MOL0     C25714   6.276   4.665  11.382 -0.3128  0.3947  0.0346
  187MOL0     C25715   6.153   4.601  11.365  0.1561 -0.2174 -0.5090
  187MOL0     O25716   5.937   4.685  11.156  0.0579 -0.2730  0.2052
  187MOL0     C25717   5.654   4.551  11.284 -0.6917  0.1466 -0.1084
  187MOL0     C25718   5.532   4.495  11.254  0.5916  0.6415  0.6305
  187MOL0     N25719   4.836   4.545  11.137  0.2812  0.5680 -0.6352
  187MOL0     N25720   4.737   4.602  11.085  0.8326  0.6372 -0.0869
  187MOL0     C25721   4.381   4.318  11.095  0.2801 -0.8115 -0.4424
  187MOL0     C25722   4.451   4.281  11.213 -0.4697  0.9283 -0.0737
  187MOL0     C25723   4.515   3.919  11.534  0.7330 -0.0274  0.1919
  187MOL0     C25724   4.462   3.990  11.637 -0.0235  0.4759 -0.2281
  187MOL0     C25725   4.469   3.945  11.765  0.4590 -0.9926  0.2860
  187MOL0     C25726   4.526   3.824  11.798 -0.0662 -0.4479 -0.0324
  187MOL0     O25727   4.560   3.781  11.928  0.6488 -0.1831 -0.1105
  187MOL0     C25728   4.518   3.846  12.047 -0.0980  0.0754 -0.1380
  187MOL0     C25729   4.501   3.747  12.163  0.0736 -0.3899 -0.4685
  187MOL0     C25730   4.471   3.814  12.300  0.9992 -0.7568  0.2596
  187MOL0     C25731   4.537   3.755  12.429 -0.4696 -0.5311  0.6525
  187MOL0     C25732   4.520   3.836  12.555 -0.5043 -0.1568  0.3114
  187MOL0     C25733   4.501   3.901  12.657  0.2605 -0.4509  0.2692
  187MOL0     C25734   4.570   3.745  11.692  0.6356 -0.3087  0.1735
  187MOL0     C25735   4.567   3.792  11.562 -0.3376  0.1619 -0.8697
  187MOL0     C25736   4.610   3.695  11.458  0.5464 -0.4417  0.1643
  187MOL0     H25737   4.265   3.998  11.277  2.4276 -0.0414  1.3911
  187MOL0     H25738   4.142   4.078  11.072 -0.2731  0.0588 -0.6995
  187MOL0     H25739   4.072   4.163  10.869 -1.8031  0.9002 -1.1550
  187MOL0     H25740   4.230   4.145  10.791  0.5926  1.0914 -0.8877
  187MOL0     H25741   4.076   4.218  10.641  1.5151 -1.1468  0.8741
  187MOL0     H25742   4.031   4.361  10.733  0.9821  2.7813 -3.0822
  187MOL0     H25743   4.308   4.300  10.620 -0.6869 -1.3657 -3.1255
  187MOL0     H25744   4.190   4.406  10.539  1.0200  1.5968  0.4281
  187MOL0     H25745   4.212   4.574  10.742  2.0567  1.3184 -0.2425
  187MOL0     H25746   4.327   4.466  10.806  0.0673  0.4803  1.2238
  187MOL0     H25747   4.346   4.626  10.549  0.5964  0.6327  0.1985
  187MOL0     H25748   4.450   4.493  10.570  0.6785  3.0650 -2.5886
  187MOL0     H25749   4.550   4.721  10.631  0.6341 -1.8084 -1.7152
  187MOL0     H25750   4.427   4.724  10.764 -2.1779 -1.6375 -1.1995
  187MOL0     H25751   4.638   4.507  10.743  0.5081  0.3233  0.7242
  187MOL0     H25752   4.523   4.533  10.871  0.2677  2.9944  1.2613
  187MOL0     H25753   4.729   4.746  10.787 -1.7320 -1.7408 -2.0286
  187MOL0     H25754   4.601   4.766  10.904 -1.8119 -1.6865  0.0538
  187MOL0     H25755   4.939   4.600  10.825 -0.5211  2.5121 -0.5279
  187MOL0     H25756   5.046   4.417  11.168 -4.8076  0.1870 -0.6695
  187MOL0     H25757   5.123   4.550  11.091  0.4734 -0.3880  1.1468
  187MOL0     H25758   5.010   4.302  10.933  1.1598 -0.1273 -2.5283
  187MOL0     H25759   5.116   4.414  10.872 -0.9832  0.4113  0.4075
  187MOL0     H25760   5.185   4.231  11.108 -0.7401 -4.2106 -0.8989
  187MOL0     H25761   5.200   4.179  10.945  0.8955  1.0692 -1.2455
  187MOL0     H25762   5.410   4.283  10.961 -1.5698 -1.0451 -0.9038
  187MOL0     H25763   5.326   4.423  10.907  2.1103  0.4066 -0.4912
  187MOL0     H25764   5.567   4.446  10.924  0.0185 -1.6403  0.5592
  187MOL0     H25765   5.845   4.623  10.903  1.7752 -0.0778  0.0354
  187MOL0     H25766   5.784   4.454  10.860  1.4908 -2.4619  0.7650
  187MOL0     H25767   5.920   4.480  10.958  0.3267  2.6880  2.5785
  187MOL0     H25768   5.947   4.840  11.502  2.3266  1.7264  0.5632
  187MOL0     H25769   6.176   4.934  11.550  2.3730 -0.0467 -0.2901
  187MOL0     H25770   6.354   5.002  11.321  0.5620  1.1453 -0.1652
  187MOL0     H25771   6.355   5.024  11.497 -0.6037 -0.1293 -0.4639
  187MOL0     H25772   6.588   5.014  11.501 -2.2963 -1.6548  0.7587
  187MOL0     H25773   6.600   4.968  11.325 -2.0064 -0.6288 -0.3133
  187MOL0     H25774   6.482   5.228  11.416 -1.1153 -1.0085  0.5640
  187MOL0     H25775   6.506   5.177  11.249 -1.2741 -0.8943  0.4774
  187MOL0     H25776   6.754   5.168  11.270 -0.1085 -1.8099  0.3521
  187MOL0     H25777   6.745   5.233  11.427 -0.9869  1.3650  0.1487
  187MOL0     H25778   6.667   5.341  11.163 -3.1443  2.8149 -0.0544
  187MOL0     H25779   6.607   5.424  11.304 -0.8468 -1.9388  0.2386
  187MOL0     H25780   6.899   5.368  11.237 -0.5629  1.1592 -1.3134
  187MOL0     H25781   6.837   5.463  11.384 -2.5727  0.7417 -0.0861
  187MOL0     H25782   6.881   5.638  11.260  0.0067 -0.1195  1.2751
  187MOL0     H25783   6.716   5.593  11.207 -1.0919 -1.5465  1.1915
  187MOL0     H25784   6.807   5.496  11.009 -2.3760 -0.7666  1.1348
  187MOL0     H25785   6.976   5.510  11.086  1.3651  1.9945 -1.3746
  187MOL0     H25786   6.365   4.614  11.347 -0.6222  0.2416 -0.5624
  187MOL0     H25787   6.162   4.500  11.327  1.3261 -0.7121  0.9890
  187MOL0     H25788   5.677   4.569  11.389  0.1403 -0.6260 -0.1468
  187MOL0     H25789   5.467   4.479  11.340  2.5762 -3.4880  1.5926
  187MOL0     H25790   4.411   4.416  11.059  0.6316 -0.7775 -0.0618
  187MOL0     H25791   4.541   4.334  11.242  0.7145 -2.4317  3.2548
  187MOL0     H25792   4.410   4.079  11.605  0.8328  1.1469  0.1971
  187MOL0     H25793   4.429   3.997  11.852 -2.0710 -3.5671  0.8275
  187MOL0     H25794   4.592   3.922  12.072  0.5809  0.0517 -1.9004
  187MOL0     H25795   4.420   3.892  12.030  0.4451  1.3769  0.1695
  187MOL0     H25796   4.596   3.692  12.166 -1.2295 -2.7556 -0.1531
  187MOL0     H25797   4.425   3.675  12.131 -0.3904  0.9465 -2.5860
  187MOL0     H25798   4.480   3.923  12.308  2.2173 -0.8366  0.0985
  187MOL0     H25799   4.364   3.798  12.319  1.1102 -1.9366 -0.0761
  187MOL0     H25800   4.645   3.754  12.410 -0.3201  1.4462  1.2022
  187MOL0     H25801   4.506   3.652  12.450 -0.2033 -0.5927  0.7581
  187MOL0     H25802   4.472   3.954  12.745  0.9292  2.3611 -1.0699
  187MOL0     H25803   4.626   3.656  11.717  0.3939 -0.5233 -0.0350
  187MOL0     H25804   4.680   3.733  11.384  1.0791  0.5470  1.1403
  187MOL0     H25805   4.655   3.609  11.508 -0.7555 -1.2471  0.0197
  187MOL0     H25806   4.522   3.673  11.397  0.9739  1.7757 -1.3906
  188MOL0     O25807   7.922   4.736   2.488 -0.2108 -0.7070 -0.4977
  188MOL0     C25808   7.890   4.787   2.380 -0.3248 -0.0002 -0.2054
  188MOL0     O25809   7.980   4.811   2.280 -0.3855 -0.2650 -0.1458
  188MOL0     C25810   8.112   4.765   2.275 -0.0474 -0.1157  0.9121
  188MOL0     C25811   8.204   4.741   2.376 -0.5775  0.3019 -0.2861
  188MOL0     C25812   8.334   4.691   2.351  0.3126  0.8321  0.1044
  188MOL0     C25813   8.369   4.661   2.221  0.8875 -0.8825  0.4575
  188MOL0     O25814   8.501   4.626   2.193  0.6334 -0.2518  0.4636
  188MOL0     C25815   8.511   4.508   2.109  0.4595  0.5166  0.4061
  188MOL0     C25816   8.640   4.430   2.107 -0.4297 -0.4154 -0.0724
  188MOL0     C25817   8.759   4.533   2.118  1.4029  0.2643  0.0968
  188MOL0     C25818   8.886   4.466   2.071 -0.7819  0.2190  0.2000
  188MOL0     C25819   9.006   4.550   2.125  0.6645 -0.7425 -0.5739
  188MOL0     C25820   9.136   4.518   2.066  0.5507 -0.8003 -0.7054
  188MOL0     C25821   9.209   4.644   2.005  0.5631 -0.6904 -0.0897
  188MOL0     C25822   9.362   4.617   1.992 -0.0373 -0.3917 -0.3652
  188MOL0     N25823   9.440   4.725   1.938 -0.0311 -0.8408 -0.6006
  188MOL0     C25824   9.553   4.713   1.848  0.4290  0.2503  0.1900
  188MOL0     C25825   9.609   4.835   1.837  0.2654 -0.0026 -0.1773
  188MOL0     C25826   9.738   4.876   1.774  0.8984  0.4882  0.9103
  188MOL0     C25827   9.850   4.789   1.823 -0.3095  0.7520  0.4582
  188MOL0     C25828   9.981   4.821   1.748 -0.1305 -0.6490 -0.2347
  188MOL0     C25829  10.083   4.710   1.730 -0.4436 -0.2292  0.9140
  188MOL0     O25830  10.149   4.670   1.855  0.6293 -0.1908 -0.1872
  188MOL0     C25831  10.266   4.603   1.845 -0.7116 -0.4216 -0.3707
  188MOL0     C25832  10.324   4.601   1.976 -0.1545 -0.5410 -0.0161
  188MOL0     C25833  10.447   4.558   2.000  0.0971 -0.3512  0.3143
  188MOL0     C25834  10.499   4.566   2.137  0.2173 -0.2858 -0.8449
  188MOL0     C25835  10.528   4.533   1.885  0.2156 -0.5850 -0.0608
  188MOL0     C25836  10.664   4.478   1.898 -0.3395 -0.1701  0.1466
  188MOL0     O25837  10.740   4.479   1.785 -0.7872 -0.5043  0.1418
  188MOL0     C25838  10.870   4.455   1.783 -0.7041  0.1650  0.5415
  188MOL0     C25839  10.899   4.369   1.671  0.3948 -0.8750 -0.2619
  188MOL0     C25840  11.029   4.326   1.653  0.4131 -0.3784 -0.0471
  188MOL0     C25841  11.128   4.367   1.743  0.8950 -0.0043 -0.0022
  188MOL0     O25842  11.254   4.325   1.737 -0.3785  0.4263 -0.5211
  188MOL0     C25843  11.328   4.353   1.611  0.2516  0.4632 -0.1260
  188MOL0     C25844  11.476   4.382   1.652  0.5619 -0.3736  0.2199
  188MOL0     C25845  11.484   4.519   1.713 -0.3279  0.3814 -0.0473
  188MOL0     C25846  11.477   4.521   1.864 -0.8751 -0.3625 -0.3977
  188MOL0     C25847  11.433   4.668   1.927 -0.3860 -0.1410  0.3432
  188MOL0     C25848  11.433   4.667   2.083 -0.3219 -0.1545 -0.1706
  188MOL0     C25849  11.571   4.701   2.149  0.0425  0.2438  0.1067
  188MOL0     C25850  11.659   4.585   2.192 -0.5778 -0.0647  0.7620
  188MOL0    Cl25851  11.556   4.499   2.302 -0.2008  0.5492  0.2886
  188MOL0     C25852  11.098   4.451   1.855 -0.5740  0.5443  0.1318
  188MOL0     C25853  10.970   4.491   1.878  0.2005  0.6956 -0.2688
  188MOL0     O25854  10.702   4.417   1.998  0.2163 -0.3762  0.6633
  188MOL0     C25855  10.474   4.544   1.751  0.5275  0.5209  0.5710
  188MOL0     C25856  10.342   4.579   1.734 -0.2548 -0.1949  0.0231
  188MOL0     N25857   9.522   4.919   1.908 -1.3275 -0.2871  1.0782
  188MOL0     N25858   9.427   4.857   1.968 -0.2627 -0.4130  0.3173
  188MOL0     C25859   8.282   4.705   2.113  0.1463  0.2856 -0.5314
  188MOL0     C25860   8.151   4.750   2.143 -0.1386  1.2200 -0.2698
  188MOL0     C25861   7.752   4.817   2.345 -1.0369  0.6993  0.2300
  188MOL0     C25862   7.646   4.806   2.438  0.1039 -0.1136 -0.4839
  188MOL0     C25863   7.515   4.848   2.416  0.8136 -0.5372 -0.0467
  188MOL0     C25864   7.477   4.891   2.288  0.4129 -0.5074  1.1061
  188MOL0     O25865   7.359   4.945   2.251 -0.2898  0.1013  0.6819
  188MOL0     C25866   7.249   4.857   2.236  0.4272 -0.0277  0.0985
  188MOL0     C25867   7.194   4.802   2.376 -0.9741 -0.0079  0.5404
  188MOL0     C25868   7.146   4.906   2.472  0.4938  0.3570 -0.6851
  188MOL0     C25869   7.140   4.857   2.617 -0.2158 -0.0680 -0.8955
  188MOL0     C25870   7.117   4.962   2.710 -0.2894 -0.1884 -0.3342
  188MOL0     C25871   7.085   5.060   2.775 -0.1983  0.0292  0.4727
  188MOL0     C25872   7.578   4.894   2.193 -0.2966 -0.6643  0.2300
  188MOL0     C25873   7.708   4.848   2.215  0.0644  0.5408 -0.0308
  188MOL0     C25874   7.788   4.826   2.091 -0.3916 -0.7028  0.3289
  188MOL0     H25875   8.181   4.769   2.478  0.5485  1.5862 -0.3488
  188MOL0     H25876   8.409   4.678   2.429  0.6318 -1.4184 -0.5081
  188MOL0     H25877   8.492   4.536   2.005 -1.2854 -1.6159  0.0703
  188MOL0     H25878   8.442   4.429   2.142  0.1608 -0.2684 -1.9253
  188MOL0     H25879   8.640   4.359   2.190 -1.3664 -0.1652  0.1482
  188MOL0     H25880   8.647   4.365   2.019 -1.8683 -3.0559  1.6310
  188MOL0     H25881   8.730   4.628   2.073  0.6561  0.3942  0.8184
  188MOL0     H25882   8.758   4.555   2.225  2.6804  1.5672 -0.1233
  188MOL0     H25883   8.898   4.365   2.113  2.2873  1.1975  2.0000
  188MOL0     H25884   8.890   4.464   1.962  0.3748 -2.2871  0.2145
  188MOL0     H25885   9.020   4.528   2.232  0.6200 -1.7339 -0.7594
  188MOL0     H25886   8.974   4.654   2.115 -3.9499 -2.0816 -2.1182
  188MOL0     H25887   9.190   4.465   2.145 -1.3346 -2.1823 -0.2751
  188MOL0     H25888   9.121   4.451   1.980 -0.1164  1.2700 -2.3059
  188MOL0     H25889   9.179   4.732   2.063 -0.6768 -2.9350  2.9249
  188MOL0     H25890   9.164   4.650   1.905 -0.2375  0.3227  0.3163
  188MOL0     H25891   9.395   4.586   2.091  2.9893 -1.6480 -1.6387
  188MOL0     H25892   9.363   4.533   1.922  2.6535 -1.2039  0.5424
  188MOL0     H25893   9.593   4.624   1.800  1.0186  0.3637  0.4613
  188MOL0     H25894   9.751   4.982   1.801  0.3814  0.9334 -0.5122
  188MOL0     H25895   9.728   4.860   1.666 -1.4716 -0.2965  1.1955
  188MOL0     H25896   9.865   4.788   1.932  0.8055  0.2077  0.3108
  188MOL0     H25897   9.828   4.684   1.803 -2.5849  0.7672  2.3965
  188MOL0     H25898   9.956   4.856   1.647 -1.2159 -0.7402 -0.0102
  188MOL0     H25899  10.025   4.892   1.818  0.8507 -2.6209  1.2128
  188MOL0     H25900  10.031   4.618   1.701 -1.1003 -0.9311  3.9299
  188MOL0     H25901  10.156   4.754   1.662 -2.2582  2.0478  0.3340
  188MOL0     H25902  10.262   4.629   2.060 -0.2262  0.5938 -0.4254
  188MOL0     H25903  10.566   4.652   2.129 -2.6797  2.1324 -0.7140
  188MOL0     H25904  10.548   4.477   2.177  0.2623  0.0762 -0.0652
  188MOL0     H25905  10.422   4.592   2.211  1.1767  1.1206 -0.2861
  188MOL0     H25906  10.815   4.331   1.614 -0.5797  1.2126 -0.3352
  188MOL0     H25907  11.066   4.264   1.572 -2.0121 -3.6474  1.1457
  188MOL0     H25908  11.332   4.270   1.539  3.0617 -1.4857  2.0176
  188MOL0     H25909  11.292   4.440   1.556 -0.8575  1.1167  1.5761
  188MOL0     H25910  11.511   4.315   1.731 -0.5458 -2.4485 -0.9773
  188MOL0     H25911  11.536   4.380   1.560 -3.1200 -0.5915 -2.3874
  188MOL0     H25912  11.410   4.577   1.657 -0.6406 -1.1691 -1.2888
  188MOL0     H25913  11.580   4.565   1.687  1.0727 -1.6829  1.1780
  188MOL0     H25914  11.568   4.487   1.915 -0.7344  3.2205  2.1224
  188MOL0     H25915  11.400   4.447   1.889  0.0289 -1.2905 -0.2913
  188MOL0     H25916  11.493   4.750   1.887 -0.7413  0.1549  0.4060
  188MOL0     H25917  11.336   4.688   1.880  0.1420 -0.5732 -0.9728
  188MOL0     H25918  11.398   4.568   2.112 -2.1601  0.9684  1.7689
  188MOL0     H25919  11.376   4.752   2.121  2.3278  1.6317  0.1152
  188MOL0     H25920  11.563   4.761   2.240 -0.6807 -2.3590  1.8629
  188MOL0     H25921  11.633   4.760   2.082  0.6442 -2.3438 -1.7869
  188MOL0     H25922  11.751   4.608   2.247 -0.8559  0.1504  1.1488
  188MOL0     H25923  11.682   4.516   2.110  0.6044  0.2072  0.8508
  188MOL0     H25924  11.169   4.500   1.920  0.7463 -1.8671  0.5978
  188MOL0     H25925  10.943   4.548   1.966 -0.6349 -0.1486  0.0412
  188MOL0     H25926  10.529   4.504   1.666 -1.2754  2.0831 -1.4294
  188MOL0     H25927  10.304   4.590   1.633  0.4871  0.8593 -0.1556
  188MOL0     H25928   8.305   4.703   2.007 -4.2152  1.3852 -1.6995
  188MOL0     H25929   8.085   4.754   2.058 -1.5561 -2.9247  0.4096
  188MOL0     H25930   7.680   4.780   2.537  1.4133  1.9222 -0.3338
  188MOL0     H25931   7.433   4.848   2.487 -0.1169  1.8933 -0.9991
  188MOL0     H25932   7.170   4.907   2.181  0.5461  0.5956  0.4855
  188MOL0     H25933   7.285   4.772   2.177 -1.4040  0.8574 -2.4366
  188MOL0     H25934   7.269   4.746   2.432 -0.2979 -0.8438 -1.1354
  188MOL0     H25935   7.111   4.740   2.344 -1.1973  0.8984 -0.7143
  188MOL0     H25936   7.215   4.991   2.469 -0.8071  1.5795  1.4161
  188MOL0     H25937   7.050   4.943   2.434 -1.0861 -0.9490  1.8258
  188MOL0     H25938   7.235   4.811   2.646  0.9479  3.0508  0.7154
  188MOL0     H25939   7.059   4.783   2.628 -1.0537  0.6612 -1.9100
  188MOL0     H25940   7.058   5.142   2.839 -0.7741 -1.3010  2.0102
  188MOL0     H25941   7.544   4.927   2.095  0.5513  0.8961  0.4306
  188MOL0     H25942   7.845   4.733   2.096  1.2921  0.3016  0.8327
  188MOL0     H25943   7.722   4.805   2.007 -0.4652 -2.2031  0.7360
  188MOL0     H25944   7.847   4.917   2.075 -1.9061  0.1160 -0.8439
  189MOL0     O25945   8.327   0.860  10.302 -0.2083  0.1607 -0.3094
  189MOL0     C25946   8.315   0.806  10.203  0.7735  0.1577  0.2839
  189MOL0     O25947   8.413   0.808  10.102 -0.4708  0.0523  0.0329
  189MOL0     C25948   8.538   0.872  10.136  0.2505 -0.0836 -0.6855
  189MOL0     C25949   8.603   0.834  10.259 -1.6082  0.2869  0.5444
  189MOL0     C25950   8.731   0.889  10.287 -0.5452 -0.5680  0.8873
  189MOL0     C25951   8.787   0.977  10.193  0.7278  1.2328  0.1783
  189MOL0     O25952   8.916   1.003  10.227  0.4011 -0.0658 -0.2210
  189MOL0     C25953   8.998   1.066  10.127  0.8934  0.4493 -0.6576
  189MOL0     C25954   9.155   1.056  10.150 -0.3290  0.1695 -0.9174
  189MOL0     C25955   9.200   1.149  10.259  0.4406 -0.6073  0.7234
  189MOL0     C25956   9.339   1.118  10.305 -0.1377  0.0980  0.4021
  189MOL0     C25957   9.392   1.220  10.399  0.4882 -0.3917  0.1533
  189MOL0     C25958   9.517   1.177  10.474  0.1508  0.1165  0.2182
  189MOL0     C25959   9.632   1.163  10.379  0.1023  0.2240  0.4880
  189MOL0     C25960   9.771   1.144  10.451 -0.0138 -0.2086 -0.0899
  189MOL0     N25961   9.889   1.124  10.362 -0.9302 -0.3048  0.3564
  189MOL0     C25962  10.019   1.101  10.402  0.2169  1.1595  0.0805
  189MOL0     C25963  10.095   1.116  10.295  0.0509  0.1383  0.6771
  189MOL0     C25964  10.240   1.084  10.275  0.2669 -0.0748 -0.2276
  189MOL0     C25965  10.329   1.208  10.294  0.1655  1.6517  0.0305
  189MOL0     C25966  10.337   1.261  10.441  0.2897 -0.1342  0.5592
  189MOL0     C25967  10.457   1.356  10.450  0.5184 -0.4618 -0.3091
  189MOL0     O25968  10.428   1.459  10.357  1.2857  0.4472 -0.3139
  189MOL0     C25969  10.524   1.502  10.265 -0.8354 -0.0282  0.0649
  189MOL0     C25970  10.470   1.565  10.150  1.5942 -1.0292  0.4224
  189MOL0     C25971  10.551   1.614  10.050  0.6609 -0.1054  0.4195
  189MOL0     C25972  10.488   1.707   9.951 -0.2492 -1.3283 -0.5078
  189MOL0     C25973  10.693   1.599  10.066  0.7127  0.0101  0.2991
  189MOL0     C25974  10.792   1.640   9.964 -0.4738  0.4121 -0.5580
  189MOL0     O25975  10.923   1.660  10.006  0.9493 -0.1867  0.8687
  189MOL0     C25976  11.025   1.714   9.937  0.3667 -0.2750  0.8239
  189MOL0     C25977  11.147   1.715  10.002 -0.2639  0.2491  0.1033
  189MOL0     C25978  11.257   1.781   9.940  0.0015  1.0899  1.0498
  189MOL0     C25979  11.253   1.827   9.810 -0.4592  0.1747  0.1451
  189MOL0     O25980  11.360   1.889   9.744 -0.9226  0.3306 -0.2268
  189MOL0     C25981  11.496   1.890   9.794  0.6293  1.0035  0.4598
  189MOL0     C25982  11.570   2.000   9.711  0.7371  0.1471  0.0351
  189MOL0     C25983  11.723   1.967   9.689 -0.2472 -0.2364  0.4335
  189MOL0     C25984  11.801   1.977   9.823 -0.2828 -0.1772  0.3197
  189MOL0     C25985  11.948   1.936   9.812 -0.2559 -0.2274 -0.0996
  189MOL0     C25986  12.033   2.037   9.735 -0.0822  0.0612  0.1510
  189MOL0     C25987  12.146   1.971   9.647  1.1662  0.0256 -0.4175
  189MOL0     C25988  12.168   2.038   9.516 -0.4021 -0.5454 -0.0305
  189MOL0    Cl25989  12.196   2.213   9.544  0.0416 -0.3746 -0.1156
  189MOL0     C25990  11.127   1.830   9.746 -0.9080  0.5122 -0.0464
  189MOL0     C25991  11.016   1.777   9.807  1.0936  0.4153  0.0238
  189MOL0     O25992  10.754   1.652   9.850  1.0350 -0.4092  0.5897
  189MOL0     C25993  10.737   1.539  10.187 -0.3125 -0.0800 -0.0313
  189MOL0     C25994  10.659   1.480  10.282  0.2998 -0.2676  0.0916
  189MOL0     N25995  10.011   1.129  10.181  0.0784 -0.6770 -0.4802
  189MOL0     N25996   9.888   1.139  10.223 -0.1009 -0.1062  0.3666
  189MOL0     C25997   8.723   1.012  10.070  0.3982 -0.5391  0.3074
  189MOL0     C25998   8.591   0.971  10.050 -0.0881  0.2235 -0.2952
  189MOL0     C25999   8.191   0.732  10.185 -0.2099  1.0060  1.0637
  189MOL0     C26000   8.135   0.718  10.053  0.5782  0.0127  0.1123
  189MOL0     C26001   8.008   0.660  10.035 -0.8401  0.2051  0.4132
  189MOL0     C26002   7.933   0.597  10.135  0.0421 -0.4884  0.2600
  189MOL0     O26003   7.812   0.534  10.120 -0.3514 -0.1707  0.6079
  189MOL0     C26004   7.745   0.538   9.990 -0.2748  0.1203 -0.1006
  189MOL0     C26005   7.613   0.465   9.987  0.3190 -0.0343  0.7799
  189MOL0     C26006   7.624   0.335  10.063 -1.1351  0.5173 -0.7785
  189MOL0     C26007   7.512   0.241  10.036 -0.3111  0.9486  0.8434
  189MOL0     C26008   7.535   0.109  10.106  0.5298  1.2471 -0.1872
  189MOL0     C26009   7.555   0.007  10.169 -0.1147  0.5222 -0.4247
  189MOL0     C26010   7.988   0.627  10.265  0.3792  0.2781 -0.3894
  189MOL0     C26011   8.115   0.680  10.293  0.5209 -0.5474  0.1663
  189MOL0     C26012   8.157   0.688  10.440 -0.4210  0.5700  0.0310
  189MOL0     H26013   8.580   0.747  10.318  4.8024 -2.9693 -0.8983
  189MOL0     H26014   8.794   0.850  10.366 -1.0495  0.4001  1.7975
  189MOL0     H26015   8.981   1.174  10.117 -0.2386  0.2338 -1.1661
  189MOL0     H26016   8.981   1.010  10.035  0.3230  1.0724 -0.9337
  189MOL0     H26017   9.180   0.953  10.175 -0.7590  0.6785  2.0767
  189MOL0     H26018   9.203   1.089  10.058 -1.7443  1.8150 -1.1111
  189MOL0     H26019   9.183   1.248  10.216 -0.2174  0.0049  2.3470
  189MOL0     H26020   9.139   1.136  10.349 -2.6259  0.6066 -0.9952
  189MOL0     H26021   9.328   1.015  10.339 -1.2962 -0.2349 -0.8880
  189MOL0     H26022   9.402   1.112  10.216  1.1622 -1.8303  1.3946
  189MOL0     H26023   9.315   1.239  10.474  0.6947 -2.0983  0.8527
  189MOL0     H26024   9.399   1.318  10.352  1.5917  0.3099  1.7095
  189MOL0     H26025   9.540   1.260  10.541  2.3068 -1.3844  1.4900
  189MOL0     H26026   9.499   1.085  10.531 -0.4279 -0.8960 -1.5201
  189MOL0     H26027   9.632   1.256  10.322 -1.9400  0.7884  1.3180
  189MOL0     H26028   9.632   1.077  10.311 -1.1373 -0.0643  0.8281
  189MOL0     H26029   9.784   1.229  10.519  4.2990 -0.3371 -0.5107
  189MOL0     H26030   9.766   1.051  10.509 -2.0353 -0.2277 -0.2195
  189MOL0     H26031  10.070   1.077  10.495  1.3631 -0.2090 -0.8471
  189MOL0     H26032  10.244   1.047  10.173 -3.1307  1.0807 -0.9098
  189MOL0     H26033  10.268   1.000  10.339 -0.9313 -0.2576  0.0710
  189MOL0     H26034  10.428   1.192  10.251 -0.6147  0.7800 -1.5342
  189MOL0     H26035  10.280   1.280  10.227 -2.1007 -0.0857 -0.2829
  189MOL0     H26036  10.243   1.305  10.476 -0.6699 -1.4510 -0.2830
  189MOL0     H26037  10.339   1.173  10.507 -0.9930 -1.1746 -0.7191
  189MOL0     H26038  10.471   1.394  10.552 -2.5514  1.6060 -0.5167
  189MOL0     H26039  10.556   1.313  10.428  1.7496  1.7522  0.5272
  189MOL0     H26040  10.363   1.578  10.144  1.7781 -0.0640 -1.4821
  189MOL0     H26041  10.383   1.733   9.965  0.7421  2.7342  0.6290
  189MOL0     H26042  10.491   1.670   9.848 -4.1959  3.2930 -2.6474
  189MOL0     H26043  10.545   1.800   9.941 -0.1273 -1.4920 -1.4399
  189MOL0     H26044  11.164   1.672  10.100 -1.1092 -0.4259 -0.0360
  189MOL0     H26045  11.353   1.778   9.990  0.5236 -0.2304  0.0206
  189MOL0     H26046  11.508   1.926   9.897 -1.4178  0.7951  0.8102
  189MOL0     H26047  11.540   1.791   9.775 -4.0693 -0.8671 -2.4420
  189MOL0     H26048  11.515   2.017   9.618 -3.5028 -2.9775  1.5883
  189MOL0     H26049  11.562   2.094   9.766  1.5377  0.8452 -1.0067
  189MOL0     H26050  11.746   2.043   9.615 -1.4672  0.3380  0.6229
  189MOL0     H26051  11.735   1.867   9.647 -2.2102 -0.4184  0.2457
  189MOL0     H26052  11.763   1.908   9.900  1.6546 -0.5068  1.0426
  189MOL0     H26053  11.785   2.079   9.859  0.0531  0.4220 -1.1757
  189MOL0     H26054  11.992   1.923   9.911  2.0656 -2.7238 -1.3312
  189MOL0     H26055  11.943   1.841   9.758 -0.5298  1.0330 -2.4672
  189MOL0     H26056  12.078   2.107   9.807  0.5413 -2.0849  1.9714
  189MOL0     H26057  11.966   2.087   9.665 -0.5882 -2.0424 -0.9660
  189MOL0     H26058  12.108   1.871   9.622  0.7929  0.1617 -0.3932
  189MOL0     H26059  12.239   1.973   9.705  0.7973 -2.0997  0.3504
  189MOL0     H26060  12.085   2.025   9.445  0.8034  0.3511 -1.6636
  189MOL0     H26061  12.256   1.999   9.464  0.5119  2.4215 -0.8951
  189MOL0     H26062  11.113   1.879   9.650 -0.1756 -0.5871 -0.7405
  189MOL0     H26063  10.926   1.787   9.747  2.0334 -1.3380 -1.8156
  189MOL0     H26064  10.842   1.544  10.215 -0.1955  1.1343 -0.6153
  189MOL0     H26065  10.706   1.434  10.368 -0.0412 -0.7388  0.0331
  189MOL0     H26066   8.765   1.083   9.999 -0.0275  0.3354  0.9136
  189MOL0     H26067   8.530   1.011   9.970 -0.8511  1.0561  0.6810
  189MOL0     H26068   8.182   0.762   9.966 -0.5543  2.6171  0.7202
  189MOL0     H26069   7.980   0.642   9.931  0.6506 -3.5032  0.4884
  189MOL0     H26070   7.729   0.645   9.976 -0.4883  0.5999  3.0104
  189MOL0     H26071   7.818   0.503   9.917  0.0560  1.7274 -0.5761
  189MOL0     H26072   7.577   0.449   9.886 -0.8609  3.6908  0.4617
  189MOL0     H26073   7.537   0.521  10.042  0.8355  0.1570  1.3252
  189MOL0     H26074   7.711   0.279  10.028 -1.5781  0.5832 -2.0727
  189MOL0     H26075   7.630   0.354  10.170  0.5027 -0.7312 -0.6090
  189MOL0     H26076   7.492   0.222   9.930  1.2901 -0.6614  0.7703
  189MOL0     H26077   7.419   0.291  10.064 -0.1653  4.4082 -3.6119
  189MOL0     H26078   7.583  -0.077  10.230  0.7001  0.9845 -0.1415
  189MOL0     H26079   7.940   0.593  10.357 -0.0614  0.9249 -0.3756
  189MOL0     H26080   8.141   0.792  10.467  0.7600  1.2399 -1.6777
  189MOL0     H26081   8.127   0.615  10.515 -0.9721  1.0188  0.2510
  189MOL0     H26082   8.265   0.669  10.449 -0.8515 -1.3234  2.0801
  190MOL0     O26083   4.504   6.976   3.716  0.1356  0.8778 -0.6633
  190MOL0     C26084   4.392   6.933   3.750 -0.6719 -0.0663  0.7492
  190MOL0     O26085   4.374   6.842   3.848  0.2379  1.0454 -0.6631
  190MOL0     C26086   4.478   6.820   3.945 -0.3666 -0.9309  0.2276
  190MOL0     C26087   4.591   6.747   3.905  0.0039 -0.7316  0.8060
  190MOL0     C26088   4.707   6.739   3.984 -0.1446 -0.3434 -0.1580
  190MOL0     C26089   4.715   6.803   4.110 -0.1524 -0.1183 -0.1372
  190MOL0     O26090   4.831   6.795   4.188 -0.2800 -0.2852  0.6228
  190MOL0     C26091   4.840   6.849   4.315 -0.0858  0.4919  0.0178
  190MOL0     C26092   4.990   6.844   4.358  0.4070  0.6114 -0.2872
  190MOL0     C26093   5.068   6.951   4.292  0.2876  0.3830  0.3396
  190MOL0     C26094   5.205   6.977   4.359 -0.5817 -0.0516 -0.3276
  190MOL0     C26095   5.316   6.980   4.253 -0.3111  0.0953  0.7757
  190MOL0     C26096   5.340   6.837   4.192  0.2486  0.0565  0.0936
  190MOL0     C26097   5.466   6.833   4.110 -0.0904 -0.0620 -0.3009
  190MOL0     C26098   5.507   6.685   4.081  0.7431  0.0702  0.2925
  190MOL0     N26099   5.636   6.665   4.012 -0.3725 -0.7306 -0.2406
  190MOL0     C26100   5.692   6.539   3.979  0.0243 -0.2150 -0.3244
  190MOL0     C26101   5.818   6.557   3.952  0.1222 -0.0696 -0.6762
  190MOL0     C26102   5.914   6.449   3.910  0.6835  0.1750 -0.4491
  190MOL0     C26103   6.057   6.484   3.937  0.9967  0.6859  1.1971
  190MOL0     C26104   6.148   6.376   3.880 -0.0306  1.2022  0.3457
  190MOL0     C26105   6.276   6.428   3.821  0.1644 -0.7034  0.7688
  190MOL0     O26106   6.349   6.481   3.935 -0.0329 -0.3102  0.2371
  190MOL0     C26107   6.484   6.510   3.919  0.9912  0.3601 -0.8594
  190MOL0     C26108   6.560   6.476   3.798  0.4274  0.0489 -0.6163
  190MOL0     C26109   6.693   6.494   3.792 -1.0895 -0.4515 -0.4437
  190MOL0     C26110   6.761   6.459   3.664 -0.2302  0.2805  0.3231
  190MOL0     C26111   6.761   6.561   3.903 -0.4840 -0.1754  1.0172
  190MOL0     C26112   6.911   6.587   3.910  0.2416 -0.0361  0.1208
  190MOL0     O26113   6.961   6.629   4.030  0.3838 -0.1081 -0.4126
  190MOL0     C26114   7.099   6.664   4.033  0.3026 -0.3944  0.1039
  190MOL0     C26115   7.199   6.569   4.065  0.4543  0.3291 -0.3632
  190MOL0     C26116   7.336   6.607   4.067 -0.8325  0.2806  0.0927
  190MOL0     C26117   7.374   6.741   4.049  0.3259 -0.1358 -0.3620
  190MOL0     O26118   7.502   6.802   4.039  0.0187  0.4262  0.7122
  190MOL0     C26119   7.597   6.716   3.963  0.6587 -0.3029  0.5855
  190MOL0     C26120   7.705   6.805   3.921 -0.3955 -0.6114  0.7859
  190MOL0     C26121   7.793   6.717   3.831 -0.1389 -0.1394  1.0158
  190MOL0     C26122   7.933   6.779   3.804 -0.2371 -0.4357  0.3609
  190MOL0     C26123   7.998   6.715   3.681  0.0405  0.1845  0.1293
  190MOL0     C26124   8.142   6.756   3.665  0.1626 -0.1691  0.3415
  190MOL0     C26125   8.188   6.700   3.531 -1.2536  0.5305 -0.0136
  190MOL0     C26126   8.337   6.745   3.507  0.7184  0.5466 -0.1752
  190MOL0    Cl26127   8.453   6.677   3.624 -0.0819  0.3531 -0.0813
  190MOL0     C26128   7.271   6.835   4.021  0.3610  0.0932  0.7685
  190MOL0     C26129   7.133   6.795   4.004  0.5776 -0.6226 -0.4577
  190MOL0     O26130   6.983   6.568   3.808  0.1589  0.0435 -0.1109
  190MOL0     C26131   6.681   6.591   4.019  0.4708  0.9756 -0.3258
  190MOL0     C26132   6.546   6.557   4.034 -0.1536 -0.6490  0.2075
  190MOL0     N26133   5.845   6.693   3.960  0.2278  1.0729  0.1897
  190MOL0     N26134   5.739   6.752   3.997  0.1670 -0.1791  0.4707
  190MOL0     C26135   4.603   6.882   4.146  0.2824  0.3102 -0.4537
  190MOL0     C26136   4.485   6.885   4.065 -0.2200  0.3796 -1.1054
  190MOL0     C26137   4.267   6.993   3.703 -0.6167  0.1281  0.7599
  190MOL0     C26138   4.161   7.002   3.798 -0.4726  0.3919  0.2716
  190MOL0     C26139   4.037   7.044   3.760  0.6155 -0.2502  0.0498
  190MOL0     C26140   4.008   7.087   3.629 -0.0395 -0.0758 -0.5352
  190MOL0     O26141   3.888   7.148   3.599  0.4758 -0.1498  0.1444
  190MOL0     C26142   3.772   7.155   3.691  0.3079  0.3768  0.0800
  190MOL0     C26143   3.660   7.071   3.634  0.5612  0.1771 -0.5433
  190MOL0     C26144   3.535   7.104   3.711  0.5572 -0.4195 -0.1130
  190MOL0     C26145   3.532   7.052   3.856  0.2033  0.4626 -0.1747
  190MOL0     C26146   3.411   7.097   3.930 -0.6134 -0.3482 -0.6964
  190MOL0     C26147   3.308   7.124   3.987  0.2788  0.9776 -0.2353
  190MOL0     C26148   4.116   7.091   3.539 -0.1943  0.1387 -0.9433
  190MOL0     C26149   4.243   7.047   3.572  0.1757  0.5549 -0.2302
  190MOL0     C26150   4.349   7.067   3.473  0.2250  0.1996 -0.1547
  190MOL0     H26151   4.590   6.693   3.811  1.1301 -0.4510  0.6190
  190MOL0     H26152   4.790   6.679   3.951  1.0306  0.9346  0.3631
  190MOL0     H26153   4.798   6.782   4.390  0.6636 -0.2913 -0.2495
  190MOL0     H26154   4.801   6.950   4.329 -1.0168  0.2061 -0.4216
  190MOL0     H26155   4.975   6.867   4.464  0.7631 -1.4641  0.2662
  190MOL0     H26156   5.031   6.744   4.344  3.8629  1.7929  0.5793
  190MOL0     H26157   5.068   6.925   4.186 -0.9727 -1.7365  0.8055
  190MOL0     H26158   5.019   7.048   4.302  2.2507  1.4507  0.0970
  190MOL0     H26159   5.202   7.069   4.418 -2.6898 -1.3056  1.7098
  190MOL0     H26160   5.235   6.899   4.428  3.9199 -0.0095 -1.8934
  190MOL0     H26161   5.408   7.018   4.299  0.1685 -1.1686  0.8823
  190MOL0     H26162   5.281   7.044   4.171  2.1818 -0.1185 -0.5649
  190MOL0     H26163   5.348   6.763   4.272 -1.5680  1.5058  1.6848
  190MOL0     H26164   5.255   6.804   4.132  0.8266 -2.5574  0.5794
  190MOL0     H26165   5.542   6.888   4.167  0.6905 -4.4863  3.6433
  190MOL0     H26166   5.448   6.873   4.010 -3.2200 -3.5122 -1.3224
  190MOL0     H26167   5.503   6.634   4.178 -1.4673  2.2139  1.4399
  190MOL0     H26168   5.430   6.639   4.020  1.2524  1.2519 -1.3159
  190MOL0     H26169   5.645   6.442   3.989  0.0932 -0.5000 -2.3855
  190MOL0     H26170   5.901   6.431   3.803  0.4002  1.0353 -0.5674
  190MOL0     H26171   5.879   6.358   3.959  0.3090  1.1531  1.1627
  190MOL0     H26172   6.089   6.581   3.897  2.7380  0.3783  1.7855
  190MOL0     H26173   6.072   6.490   4.045 -1.6450 -4.9075  2.2324
  190MOL0     H26174   6.175   6.313   3.965 -0.4460  1.4272  0.6532
  190MOL0     H26175   6.105   6.315   3.800  2.6261  2.2129 -1.9892
  190MOL0     H26176   6.333   6.349   3.771  2.2674  1.4973 -0.5775
  190MOL0     H26177   6.266   6.512   3.751  0.4498 -1.3040 -0.0116
  190MOL0     H26178   6.505   6.437   3.713  0.1115 -0.1460 -0.3243
  190MOL0     H26179   6.689   6.408   3.599  1.9405 -2.8641  0.1934
  190MOL0     H26180   6.848   6.394   3.670 -0.8099 -0.4969  0.4950
  190MOL0     H26181   6.790   6.549   3.609  0.1593  1.7133  2.7550
  190MOL0     H26182   7.160   6.472   4.093  0.1065  0.9023  1.2702
  190MOL0     H26183   7.414   6.532   4.070  0.9064  2.0024 -0.3941
  190MOL0     H26184   7.647   6.639   4.022  0.9812 -2.1484 -1.9303
  190MOL0     H26185   7.535   6.675   3.882 -1.2647  0.2867  1.6975
  190MOL0     H26186   7.665   6.881   3.853  0.8674 -2.8040 -2.6713
  190MOL0     H26187   7.768   6.847   4.001 -1.9013  2.1087  0.6626
  190MOL0     H26188   7.751   6.695   3.732  0.0482 -0.3451  0.9807
  190MOL0     H26189   7.809   6.614   3.865 -1.5336 -1.1201 -1.1150
  190MOL0     H26190   8.000   6.763   3.889 -2.1029 -0.8701  1.8012
  190MOL0     H26191   7.921   6.885   3.780 -0.5975 -0.5852 -0.1315
  190MOL0     H26192   7.993   6.608   3.703 -2.2087  0.2504  0.1680
  190MOL0     H26193   7.935   6.731   3.593 -1.7527 -3.2698  0.6245
  190MOL0     H26194   8.207   6.738   3.751  1.6165  0.4619 -0.5935
  190MOL0     H26195   8.150   6.864   3.650 -1.2864 -0.2293 -1.2119
  190MOL0     H26196   8.117   6.731   3.454 -2.3780  0.2573  0.8885
  190MOL0     H26197   8.191   6.590   3.536  0.6313  0.4303 -1.9883
  190MOL0     H26198   8.338   6.854   3.515 -1.7502  0.6819 -1.0672
  190MOL0     H26199   8.365   6.726   3.403 -1.2232 -0.2625 -0.5849
  190MOL0     H26200   7.303   6.937   4.003  2.0071 -0.2120  1.7268
  190MOL0     H26201   7.050   6.861   3.979 -1.2274 -3.2145 -1.7290
  190MOL0     H26202   6.723   6.650   4.100  2.5129  1.0288 -1.3521
  190MOL0     H26203   6.476   6.587   4.111  1.3206 -1.3202  1.8738
  190MOL0     H26204   4.605   6.937   4.240  0.1483  0.9197 -0.8024
  190MOL0     H26205   4.402   6.947   4.096  1.2840  2.2607 -0.6686
  190MOL0     H26206   4.186   6.959   3.894  0.1716  0.7392  0.2726
  190MOL0     H26207   3.963   7.053   3.838 -0.0218  0.7357 -0.6479
  190MOL0     H26208   3.800   7.108   3.786 -0.4993 -0.2727  0.0064
  190MOL0     H26209   3.741   7.257   3.715  2.6799  1.2522 -0.3032
  190MOL0     H26210   3.692   6.968   3.652  0.6317  0.7181  2.9997
  190MOL0     H26211   3.649   7.088   3.526 -1.0557  2.3433 -0.1015
  190MOL0     H26212   3.525   7.213   3.709  2.2227 -0.2364 -0.8290
  190MOL0     H26213   3.455   7.066   3.648  0.3141 -0.2796  0.1118
  190MOL0     H26214   3.619   7.101   3.902 -0.0774  0.5062  0.3151
  190MOL0     H26215   3.550   6.944   3.852 -2.0569  0.0794 -2.8443
  190MOL0     H26216   3.222   7.165   4.036  1.5857  1.0206  2.1484
  190MOL0     H26217   4.095   7.142   3.446  5.8771 -0.3602 -3.0746
  190MOL0     H26218   4.401   7.154   3.513  1.3238 -0.4144 -0.2050
  190MOL0     H26219   4.419   6.983   3.474  2.8812  2.2625 -0.8649
  190MOL0     H26220   4.317   7.076   3.369 -0.9491 -1.0272  0.0693
  191MOL0     O26221   7.907   0.712   3.858  0.0211 -0.6010 -0.4423
  191MOL0     C26222   7.833   0.815   3.878 -0.4916 -0.2877  1.4089
  191MOL0     O26223   7.887   0.943   3.914 -0.0124  0.3425 -1.0830
  191MOL0     C26224   8.021   0.942   3.932 -0.3410  1.0141  0.0655
  191MOL0     C26225   8.077   0.892   4.055 -1.1731 -0.1477  0.4471
  191MOL0     C26226   8.221   0.896   4.075 -0.2000 -0.8100 -0.6867
  191MOL0     C26227   8.302   0.960   3.978 -0.5726 -0.0429  0.3125
  191MOL0     O26228   8.446   0.963   3.979 -0.3847 -0.6297 -0.3540
  191MOL0     C26229   8.504   0.946   4.112 -0.2759  0.0873 -0.5546
  191MOL0     C26230   8.649   0.922   4.099  0.4079 -0.3203  0.2876
  191MOL0     C26231   8.709   0.880   4.232  0.9143 -0.6305  0.0372
  191MOL0     C26232   8.856   0.921   4.257 -0.3721  0.3006 -0.7878
  191MOL0     C26233   8.865   1.071   4.255  0.2861  0.7317  0.4584
  191MOL0     C26234   8.983   1.134   4.324  0.3982  0.3018 -0.5068
  191MOL0     C26235   8.964   1.290   4.328 -1.2038 -0.0053 -0.3199
  191MOL0     C26236   9.110   1.358   4.340 -0.0114  0.3160 -0.2439
  191MOL0     N26237   9.193   1.301   4.447  0.1975  0.5092 -0.2362
  191MOL0     C26238   9.171   1.318   4.583 -0.6316  0.3321 -0.1552
  191MOL0     C26239   9.287   1.263   4.642  0.2061 -0.9624 -0.6983
  191MOL0     C26240   9.317   1.273   4.791  0.0035 -0.1641  1.1930
  191MOL0     C26241   9.356   1.416   4.833 -0.0711  0.0147 -0.8757
  191MOL0     C26242   9.493   1.467   4.785 -0.5455 -0.4073 -0.2289
  191MOL0     C26243   9.491   1.520   4.644 -1.1899  0.3105  0.0678
  191MOL0     O26244   9.401   1.628   4.630  0.2245 -0.6291 -0.7113
  191MOL0     C26245   9.390   1.699   4.506 -0.5235  0.2861  0.0818
  191MOL0     C26246   9.477   1.670   4.399 -0.3683  0.4588 -0.5008
  191MOL0     C26247   9.461   1.735   4.272  0.8218 -0.2327 -0.1063
  191MOL0     C26248   9.567   1.714   4.174 -0.1013  0.5489 -0.2125
  191MOL0     C26249   9.348   1.816   4.256 -0.7995  0.7602 -0.6772
  191MOL0     C26250   9.311   1.863   4.123 -0.1824 -0.9136  0.7729
  191MOL0     O26251   9.376   1.823   4.008  0.0033 -0.5989 -0.0177
  191MOL0     C26252   9.312   1.851   3.887  0.3001 -0.1078  0.2484
  191MOL0     C26253   9.329   1.969   3.818  0.0281 -0.3886  0.6251
  191MOL0     C26254   9.246   1.980   3.698  0.6266 -0.1747  0.1013
  191MOL0     C26255   9.158   1.884   3.657  0.0363  0.6404 -0.3145
  191MOL0     O26256   9.099   1.910   3.535 -0.4096 -0.3913 -0.5500
  191MOL0     C26257   8.992   1.836   3.482  0.6955  0.5374  0.2646
  191MOL0     C26258   8.955   1.874   3.345  0.4398 -0.4333 -0.0124
  191MOL0     C26259   8.922   2.021   3.327  1.6421  0.8165  0.4020
  191MOL0     C26260   8.845   2.045   3.204  0.9038  0.4428 -0.0338
  191MOL0     C26261   8.812   2.195   3.189 -1.5881 -0.3790  0.2625
  191MOL0     C26262   8.720   2.225   3.071  0.3724  0.4788 -0.3171
  191MOL0     C26263   8.684   2.369   3.061  1.3201 -0.1540  0.2052
  191MOL0     C26264   8.574   2.395   2.956  0.2223 -0.5493  0.2540
  191MOL0    Cl26265   8.650   2.337   2.795  0.2009 -0.1757  0.2482
  191MOL0     C26266   9.157   1.756   3.715 -0.0831 -1.2223 -0.7384
  191MOL0     C26267   9.231   1.746   3.837  0.8138 -0.2447 -0.6203
  191MOL0     O26268   9.212   1.934   4.120  0.2933  0.2677 -0.1348
  191MOL0     C26269   9.262   1.828   4.360  0.7427 -0.3287 -0.5401
  191MOL0     C26270   9.285   1.778   4.487  0.5843  0.0262  0.0782
  191MOL0     N26271   9.368   1.206   4.538  0.2143  0.6082 -0.4280
  191MOL0     N26272   9.316   1.237   4.421  0.9856 -0.4915 -0.1788
  191MOL0     C26273   8.252   1.014   3.861  0.5230 -0.5077  0.8179
  191MOL0     C26274   8.109   1.016   3.843  0.0651  0.3576 -0.2345
  191MOL0     C26275   7.688   0.817   3.850 -0.5517  0.4979 -0.1850
  191MOL0     C26276   7.614   0.932   3.891  0.4345 -0.2916  0.0018
  191MOL0     C26277   7.474   0.928   3.887 -0.4792 -1.2512  0.0048
  191MOL0     C26278   7.406   0.826   3.812  0.2840  0.0345 -0.0826
  191MOL0     O26279   7.272   0.831   3.782 -0.3344 -0.0797 -0.5866
  191MOL0     C26280   7.197   0.948   3.775 -0.2129 -0.4753  0.1492
  191MOL0     C26281   7.072   0.900   3.693  0.0941  0.6752  0.9229
  191MOL0     C26282   6.969   0.822   3.767 -0.3930 -0.6004  0.1239
  191MOL0     C26283   6.841   0.804   3.683  0.5029  0.0317  0.8326
  191MOL0     C26284   6.764   0.692   3.743 -0.2711 -0.1821  0.3318
  191MOL0     C26285   6.700   0.595   3.783 -0.8294  0.6943  1.2999
  191MOL0     C26286   7.488   0.726   3.759  0.2229  0.1649 -0.2413
  191MOL0     C26287   7.623   0.715   3.781 -0.4750  0.5231  0.9057
  191MOL0     C26288   7.688   0.586   3.726  0.4153  0.2170  0.1090
  191MOL0     H26289   8.011   0.845   4.127 -2.7710  0.1281 -0.7631
  191MOL0     H26290   8.258   0.844   4.162 -1.3858  0.2942  0.5330
  191MOL0     H26291   8.451   0.877   4.179 -0.3272 -1.4494 -2.1103
  191MOL0     H26292   8.494   1.042   4.165  0.5074  0.3722 -0.9029
  191MOL0     H26293   8.673   0.837   4.034 -0.1284 -1.3446  1.4130
  191MOL0     H26294   8.693   1.016   4.062  2.5751 -2.0897 -1.9926
  191MOL0     H26295   8.651   0.909   4.320  1.4866  0.1107  0.1839
  191MOL0     H26296   8.700   0.771   4.229  1.7058 -0.7067  0.0781
  191MOL0     H26297   8.896   0.886   4.353  0.6264  2.4346 -0.3647
  191MOL0     H26298   8.910   0.872   4.176 -1.1358  0.3065 -1.3118
  191MOL0     H26299   8.778   1.103   4.314 -0.3020 -2.3506  1.4472
  191MOL0     H26300   8.851   1.117   4.157 -3.4385 -0.1953  0.3923
  191MOL0     H26301   8.985   1.100   4.428  1.3152  2.5254  0.2665
  191MOL0     H26302   9.073   1.097   4.273  0.3612 -1.3074  0.5304
  191MOL0     H26303   8.912   1.308   4.422 -0.2129  0.9206  0.0682
  191MOL0     H26304   8.916   1.336   4.241  0.6326  2.5372 -0.0925
  191MOL0     H26305   9.165   1.339   4.247  0.3510  0.0186  0.0300
  191MOL0     H26306   9.098   1.465   4.356  0.8057  0.2160  1.1457
  191MOL0     H26307   9.091   1.371   4.632  0.1626  0.1128  1.4601
  191MOL0     H26308   9.407   1.211   4.802 -1.3940 -3.1851 -2.2789
  191MOL0     H26309   9.230   1.236   4.845 -0.0722  1.2146  2.0613
  191MOL0     H26310   9.274   1.482   4.803 -0.8419  0.1437  1.3293
  191MOL0     H26311   9.362   1.417   4.942 -1.4990 -0.5533 -0.7740
  191MOL0     H26312   9.513   1.556   4.846  2.1496 -0.9439 -0.2261
  191MOL0     H26313   9.570   1.390   4.791 -0.1694 -0.0444 -0.3854
  191MOL0     H26314   9.587   1.572   4.638 -0.2745 -1.3539 -0.2900
  191MOL0     H26315   9.482   1.438   4.572 -0.6432  0.1817  0.1366
  191MOL0     H26316   9.560   1.602   4.414 -0.3915  0.5433  0.0204
  191MOL0     H26317   9.591   1.812   4.132  3.2380 -0.4309 -0.8634
  191MOL0     H26318   9.544   1.634   4.103  0.7374 -3.0246  3.1522
  191MOL0     H26319   9.663   1.677   4.212 -1.1447 -0.1330  1.9460
  191MOL0     H26320   9.388   2.050   3.859  1.0707  0.7472 -2.7417
  191MOL0     H26321   9.262   2.063   3.630 -1.1827  0.1936  0.0794
  191MOL0     H26322   9.026   1.732   3.478  2.1550  0.9693 -3.6320
  191MOL0     H26323   8.901   1.850   3.541 -0.0187 -1.3391 -0.3046
  191MOL0     H26324   9.040   1.853   3.280  0.8606  0.0194  0.3870
  191MOL0     H26325   8.866   1.812   3.325 -0.1572 -0.0825  1.4215
  191MOL0     H26326   9.013   2.081   3.322  1.7119  0.7793  1.2141
  191MOL0     H26327   8.858   2.052   3.410  1.3291 -0.1300  0.5294
  191MOL0     H26328   8.749   1.994   3.218  1.1269  0.2137  0.6898
  191MOL0     H26329   8.899   2.010   3.116  2.0109  3.4498 -0.6684
  191MOL0     H26330   8.757   2.237   3.274 -0.0277 -0.5312  1.3954
  191MOL0     H26331   8.912   2.238   3.189 -1.0071 -1.6067  1.7769
  191MOL0     H26332   8.629   2.166   3.089 -0.6249  1.7514 -1.0005
  191MOL0     H26333   8.780   2.191   2.987  2.1764  1.3562  0.5522
  191MOL0     H26334   8.775   2.429   3.049 -0.6037  3.1862  0.8587
  191MOL0     H26335   8.640   2.411   3.153  1.9103 -0.8807  0.8367
  191MOL0     H26336   8.556   2.503   2.950 -1.5413 -0.8863 -3.2050
  191MOL0     H26337   8.474   2.355   2.974 -0.6816  2.3258  2.5071
  191MOL0     H26338   9.099   1.671   3.682  0.2937 -2.0225  0.5934
  191MOL0     H26339   9.230   1.655   3.895  0.0223 -0.8246 -1.5061
  191MOL0     H26340   9.170   1.885   4.355  1.0450  0.1270 -0.9314
  191MOL0     H26341   9.211   1.795   4.564 -0.0370  2.9188 -1.0509
  191MOL0     H26342   8.323   1.073   3.805  0.0912 -1.2706 -0.6062
  191MOL0     H26343   8.060   1.077   3.768 -0.5187 -0.8703 -0.8836
  191MOL0     H26344   7.665   1.019   3.932 -0.0821  0.2482 -0.4768
  191MOL0     H26345   7.426   1.016   3.929  0.7800 -1.6065  2.2933
  191MOL0     H26346   7.174   0.993   3.872  0.3622  2.5141 -0.9824
  191MOL0     H26347   7.252   1.024   3.719  1.0058 -0.0057  1.8874
  191MOL0     H26348   7.101   0.841   3.605  1.7773  2.2376  0.3601
  191MOL0     H26349   7.022   0.995   3.669 -2.7647 -0.2500  2.6674
  191MOL0     H26350   7.029   0.733   3.787  2.5178  1.1515 -0.2855
  191MOL0     H26351   6.942   0.869   3.862  0.7127 -1.4597  0.8912
  191MOL0     H26352   6.877   0.792   3.581  2.4956  2.8178  1.1049
  191MOL0     H26353   6.771   0.887   3.683  0.5950  0.1090  0.6285
  191MOL0     H26354   6.641   0.511   3.812  2.1692 -1.2800  2.1544
  191MOL0     H26355   7.441   0.645   3.704  1.9179 -1.9382  1.2350
  191MOL0     H26356   7.619   0.516   3.678 -0.9873 -0.1155  2.4371
  191MOL0     H26357   7.765   0.618   3.654  0.7198 -0.3816  0.1622
  191MOL0     H26358   7.736   0.515   3.794  1.9802 -3.3785 -4.2565
  192MOL0     O26359   9.503   3.588   1.030  0.3733 -0.2134 -0.8403
  192MOL0     C26360   9.474   3.706   1.031 -0.0166 -0.2220  0.3423
  192MOL0     O26361   9.567   3.811   1.066  0.4338 -0.0605  0.2304
  192MOL0     C26362   9.686   3.767   1.118  0.1409  0.1992 -0.9289
  192MOL0     C26363   9.804   3.823   1.069  0.0982  0.4120  0.6314
  192MOL0     C26364   9.920   3.808   1.136 -0.8154 -0.4040 -0.5526
  192MOL0     C26365   9.931   3.725   1.245 -0.2615  0.4314  0.4578
  192MOL0     O26366  10.051   3.688   1.306 -0.5013 -0.2636 -0.3065
  192MOL0     C26367  10.179   3.748   1.261  0.1743  0.1911  0.0080
  192MOL0     C26368  10.303   3.708   1.339  0.6962  0.5771  0.5305
  192MOL0     C26369  10.337   3.571   1.290  0.3292  0.5353  0.1005
  192MOL0     C26370  10.450   3.503   1.362  0.8005  0.1402 -0.5831
  192MOL0     C26371  10.500   3.372   1.299  0.5481  0.3418  0.0145
  192MOL0     C26372  10.408   3.260   1.329  0.6465  0.2035  0.0463
  192MOL0     C26373  10.477   3.126   1.301 -0.5113  0.1424 -0.5009
  192MOL0     C26374  10.442   3.086   1.157  0.6662 -0.0674 -0.0681
  192MOL0     N26375  10.528   2.973   1.120 -0.0910  0.2394 -0.0963
  192MOL0     C26376  10.582   2.949   1.000 -0.5030 -0.0049 -0.5096
  192MOL0     C26377  10.627   2.825   1.010 -0.0855  0.2740  0.2571
  192MOL0     C26378  10.702   2.761   0.898  0.1144 -0.4348  0.8457
  192MOL0     C26379  10.845   2.708   0.937 -0.7369  0.3530  0.2702
  192MOL0     C26380  10.944   2.816   0.896 -0.1586 -0.3849  0.2268
  192MOL0     C26381  11.075   2.789   0.970 -0.1825  0.5423  0.4899
  192MOL0     O26382  11.146   2.909   0.932 -1.0062  0.7279 -0.8071
  192MOL0     C26383  11.285   2.898   0.936  0.0393  0.1207  0.8148
  192MOL0     C26384  11.362   2.793   0.980 -0.3196  0.3515  0.1868
  192MOL0     C26385  11.496   2.789   0.953  0.2615 -0.1809 -0.0222
  192MOL0     C26386  11.565   2.665   0.972  0.0604 -0.0571  0.1543
  192MOL0     C26387  11.559   2.910   0.903 -0.2183  0.6475 -0.3048
  192MOL0     C26388  11.703   2.917   0.861 -0.3475 -0.1737 -0.8359
  192MOL0     O26389  11.735   3.046   0.832 -0.5480 -0.2475  0.1850
  192MOL0     C26390  11.845   3.070   0.761  0.0353 -0.9783 -0.1385
  192MOL0     C26391  11.967   3.010   0.776  0.8065 -0.2367  0.2947
  192MOL0     C26392  12.072   3.034   0.699 -0.2764  0.3762  0.5985
  192MOL0     C26393  12.073   3.125   0.597 -0.1889  0.1867  0.8886
  192MOL0     O26394  12.182   3.165   0.515  0.2859 -0.6922 -0.5500
  192MOL0     C26395  12.316   3.141   0.561 -0.4173  0.1994  0.1137
  192MOL0     C26396  12.374   3.025   0.483  0.0223  0.6157  0.5534
  192MOL0     C26397  12.503   2.982   0.538 -0.3905  0.5763 -0.5338
  192MOL0     C26398  12.572   2.862   0.457  0.8969  0.2510 -0.6202
  192MOL0     C26399  12.698   2.799   0.519 -0.1200 -0.4541 -0.1897
  192MOL0     C26400  12.686   2.746   0.665 -0.4166 -0.2166  1.2298
  192MOL0     C26401  12.824   2.695   0.704 -0.4922 -0.2645 -0.4499
  192MOL0     C26402  12.937   2.800   0.703  0.3220 -0.2359 -1.1042
  192MOL0    Cl26403  13.084   2.747   0.778  0.2990  0.3110 -0.1055
  192MOL0     C26404  11.954   3.200   0.582 -0.1430 -0.3845  0.3234
  192MOL0     C26405  11.838   3.164   0.654  0.1692  0.0311 -0.5827
  192MOL0     O26406  11.763   2.816   0.821  0.1555  0.0886 -0.5421
  192MOL0     C26407  11.479   3.013   0.861 -0.2952 -0.1278 -0.0039
  192MOL0     C26408  11.340   3.008   0.888  0.0766 -0.0443 -0.9575
  192MOL0     N26409  10.620   2.777   1.142  0.4509  0.2559  0.1009
  192MOL0     N26410  10.553   2.867   1.207 -0.6368 -0.7839  0.3078
  192MOL0     C26411   9.815   3.669   1.298 -0.4174  0.4101  0.0480
  192MOL0     C26412   9.693   3.692   1.235  0.1180 -0.6857 -0.0054
  192MOL0     C26413   9.339   3.757   0.988  0.2602 -0.1129  0.2293
  192MOL0     C26414   9.312   3.899   0.974 -0.2992  0.3147  1.0396
  192MOL0     C26415   9.186   3.953   0.936 -0.8673  0.2285 -0.3045
  192MOL0     C26416   9.082   3.860   0.919 -0.2679  0.2580 -1.1635
  192MOL0     O26417   8.955   3.908   0.895  0.6496 -0.2304  0.5077
  192MOL0     C26418   8.938   4.023   0.806  0.1006  0.5694 -0.1140
  192MOL0     C26419   8.942   3.979   0.650  0.2085  0.3667  0.5348
  192MOL0     C26420   8.842   3.874   0.618  0.5462 -0.6252 -0.3863
  192MOL0     C26421   8.702   3.906   0.663 -0.1224  0.4758 -0.1876
  192MOL0     C26422   8.617   3.786   0.641  0.1217  0.2586  0.1743
  192MOL0     C26423   8.536   3.697   0.631 -0.0970 -0.1900  0.6698
  192MOL0     C26424   9.109   3.724   0.917 -0.5059  0.4554 -0.3149
  192MOL0     C26425   9.233   3.670   0.948  0.5621 -0.2231  0.1663
  192MOL0     C26426   9.244   3.517   0.925 -0.3279 -0.3938 -0.1976
  192MOL0     H26427   9.812   3.893   0.986  2.5411 -1.3403 -0.7291
  192MOL0     H26428  10.011   3.850   1.095  0.2004 -0.3463  1.6283
  192MOL0     H26429  10.175   3.858   1.257  0.2887  0.3275  2.3493
  192MOL0     H26430  10.192   3.712   1.159  0.2299 -0.6074  0.2926
  192MOL0     H26431  10.385   3.778   1.319  0.5230  0.5997 -0.1282
  192MOL0     H26432  10.286   3.717   1.447 -0.1775 -0.4362  0.5018
  192MOL0     H26433  10.251   3.505   1.298 -1.4576  2.6680 -0.5284
  192MOL0     H26434  10.370   3.575   1.186  2.2480 -0.6453  0.6095
  192MOL0     H26435  10.531   3.576   1.376  1.2740 -0.2031 -1.4997
  192MOL0     H26436  10.410   3.487   1.463 -1.3234  0.0949 -1.3848
  192MOL0     H26437  10.586   3.345   1.361  1.5196  1.7743 -0.6533
  192MOL0     H26438  10.524   3.375   1.192  0.2365  2.9580 -0.0434
  192MOL0     H26439  10.374   3.255   1.432  0.6603 -0.4216  0.0276
  192MOL0     H26440  10.316   3.278   1.272  0.3717  2.9566  1.2220
  192MOL0     H26441  10.441   3.051   1.373  1.1700 -1.2954 -1.0835
  192MOL0     H26442  10.585   3.131   1.321 -0.3997 -3.1647  0.2747
  192MOL0     H26443  10.336   3.066   1.141  1.0115 -0.4836 -2.2552
  192MOL0     H26444  10.463   3.165   1.084  0.2804  0.2369  0.1508
  192MOL0     H26445  10.588   3.003   0.906 -0.1578  0.0033 -0.4841
  192MOL0     H26446  10.694   2.825   0.809  0.0671 -0.8034  0.5858
  192MOL0     H26447  10.658   2.665   0.870 -0.0563  0.0779 -0.7693
  192MOL0     H26448  10.851   2.675   1.041 -1.5803 -2.2334 -0.4042
  192MOL0     H26449  10.868   2.617   0.881 -0.4049  0.9881 -0.6486
  192MOL0     H26450  10.971   2.809   0.790 -2.1652 -1.3672 -0.2695
  192MOL0     H26451  10.909   2.918   0.913  2.5122  0.5504  0.6722
  192MOL0     H26452  11.060   2.777   1.078 -0.2232 -0.3755  0.3937
  192MOL0     H26453  11.122   2.701   0.925 -2.2584 -1.3360  1.7872
  192MOL0     H26454  11.323   2.703   1.026  3.7459 -2.6497 -1.6536
  192MOL0     H26455  11.603   2.627   0.876  0.6524  0.0759  0.3308
  192MOL0     H26456  11.516   2.584   1.025  2.0786 -2.3626 -1.2676
  192MOL0     H26457  11.647   2.697   1.038  0.6267  0.6594 -0.8484
  192MOL0     H26458  11.966   2.930   0.849 -2.5947  0.8804  1.6269
  192MOL0     H26459  12.164   2.977   0.705  0.7679  1.6298 -2.0814
  192MOL0     H26460  12.367   3.237   0.545  1.1280 -0.5471  0.3468
  192MOL0     H26461  12.315   3.111   0.666  0.2002  0.8621  0.3165
  192MOL0     H26462  12.298   2.946   0.477 -0.9033  1.5155 -4.2628
  192MOL0     H26463  12.390   3.059   0.380  1.1122 -0.4774  0.3296
  192MOL0     H26464  12.494   2.959   0.645 -1.4259 -1.1514 -0.9564
  192MOL0     H26465  12.581   3.059   0.541  0.9845 -0.7921  1.0503
  192MOL0     H26466  12.598   2.893   0.356 -0.3912  2.3131 -0.3860
  192MOL0     H26467  12.495   2.787   0.438  0.7273  1.1986 -4.5629
  192MOL0     H26468  12.739   2.714   0.463  0.3961 -0.5166  0.2723
  192MOL0     H26469  12.784   2.866   0.508  1.9982 -2.9503  0.0365
  192MOL0     H26470  12.624   2.657   0.653  0.3712 -0.6831  0.4986
  192MOL0     H26471  12.632   2.818   0.727 -1.7260 -2.1025  2.3867
  192MOL0     H26472  12.847   2.607   0.643  1.0633  0.1326 -0.4544
  192MOL0     H26473  12.826   2.655   0.806  2.3284  0.0090 -0.3329
  192MOL0     H26474  12.888   2.887   0.749  1.1464 -0.1858 -0.2853
  192MOL0     H26475  12.967   2.830   0.602 -0.0089  1.0296 -0.8539
  192MOL0     H26476  11.958   3.278   0.507  5.0365  1.3377  1.9674
  192MOL0     H26477  11.747   3.221   0.641 -1.3697 -2.4389 -1.1813
  192MOL0     H26478  11.510   3.097   0.801 -1.0663 -1.6144 -2.6192
  192MOL0     H26479  11.284   3.094   0.852  1.8685  2.2150  1.3157
  192MOL0     H26480   9.812   3.608   1.388  0.3963  2.5171  1.5854
  192MOL0     H26481   9.602   3.661   1.286  1.0721 -1.3762  1.3301
  192MOL0     H26482   9.395   3.969   0.978  0.5125 -0.3678 -1.6966
  192MOL0     H26483   9.153   4.056   0.932 -2.3415 -0.1799  0.6190
  192MOL0     H26484   8.843   4.074   0.827 -0.9427 -1.0021 -0.7589
  192MOL0     H26485   9.017   4.097   0.814  0.9180 -0.4965  3.7864
  192MOL0     H26486   9.044   3.947   0.627  0.0974  1.0438 -0.9774
  192MOL0     H26487   8.919   4.064   0.586 -0.4137 -1.5998 -2.0234
  192MOL0     H26488   8.844   3.862   0.510  0.3376  1.1727 -0.6151
  192MOL0     H26489   8.867   3.779   0.667 -1.1120 -0.9176 -0.0510
  192MOL0     H26490   8.654   3.987   0.608 -1.2213  1.8568  2.5919
  192MOL0     H26491   8.697   3.941   0.767  3.2767 -1.6632  0.8658
  192MOL0     H26492   8.461   3.624   0.609  0.2715 -1.0634  2.2048
  192MOL0     H26493   9.019   3.666   0.898 -0.0154 -0.4764  0.1437
  192MOL0     H26494   9.245   3.466   1.022 -1.2412  0.9893  0.5691
  192MOL0     H26495   9.159   3.466   0.880 -0.5463 -1.5389  1.3998
  192MOL0     H26496   9.328   3.507   0.856 -1.7651  1.9866 -2.4552
  193MOL0     O26497   6.985   4.411   0.494 -0.2111  0.8348 -0.6459
  193MOL0     C26498   6.924   4.503   0.446  0.2025  0.0052  0.1318
  193MOL0     O26499   6.928   4.538   0.310  0.1016 -0.6540 -0.1464
  193MOL0     C26500   6.994   4.448   0.234 -0.9706  0.5314  0.0851
  193MOL0     C26501   6.925   4.336   0.188 -0.0424  0.4606 -0.1178
  193MOL0     C26502   7.004   4.245   0.112  0.6816 -0.2161 -0.2986
  193MOL0     C26503   7.134   4.273   0.068  0.3010 -0.0273 -0.7717
  193MOL0     O26504   7.184   4.175  -0.015  0.0016  0.3615 -0.2064
  193MOL0     C26505   7.306   4.184  -0.081 -0.0271 -0.4082  0.4016
  193MOL0     C26506   7.418   4.123   0.003  0.5952  0.0911  0.2435
  193MOL0     C26507   7.547   4.111  -0.081  0.1155  0.1955  0.7392
  193MOL0     C26508   7.650   4.036   0.005 -0.2449 -0.9965  0.1009
  193MOL0     C26509   7.804   4.047  -0.045  0.4205 -0.5629  0.2881
  193MOL0     C26510   7.818   4.005  -0.199  0.6859 -0.6965  0.4025
  193MOL0     C26511   7.963   4.015  -0.247 -0.5746 -0.7463  0.0682
  193MOL0     C26512   7.989   4.167  -0.275  0.6369 -0.4319 -0.2044
  193MOL0     N26513   8.120   4.187  -0.337  0.4545  0.3110 -0.3719
  193MOL0     C26514   8.153   4.185  -0.469  0.5124 -0.4836  0.5624
  193MOL0     C26515   8.275   4.236  -0.479 -0.1786  0.5460  0.6740
  193MOL0     C26516   8.358   4.256  -0.601  0.3936  0.4167  0.7353
  193MOL0     C26517   8.452   4.134  -0.631  0.5097  0.0528  0.2050
  193MOL0     C26518   8.542   4.176  -0.745 -0.0847  0.3052 -0.1184
  193MOL0     C26519   8.657   4.068  -0.766 -0.4716  0.2145  0.2725
  193MOL0     O26520   8.727   4.085  -0.893 -0.2298  0.4864  0.6031
  193MOL0     C26521   8.864   4.112  -0.880 -0.0022  0.1853  0.0309
  193MOL0     C26522   8.952   4.022  -0.939  0.1620 -0.4927 -0.2029
  193MOL0     C26523   9.089   4.043  -0.935 -0.6482 -0.1803 -1.2121
  193MOL0     C26524   9.170   3.947  -1.015  0.3731  0.1046  0.1414
  193MOL0     C26525   9.139   4.164  -0.868  0.5874 -0.8989  0.2070
  193MOL0     C26526   9.283   4.198  -0.873  0.5328 -0.6193 -0.3645
  193MOL0     O26527   9.370   4.103  -0.878 -0.0454  0.3604 -0.3419
  193MOL0     C26528   9.504   4.128  -0.904 -0.2170 -0.2316 -0.2927
  193MOL0     C26529   9.550   4.199  -1.017 -0.8446 -0.1567  0.4775
  193MOL0     C26530   9.687   4.203  -1.054  0.2541 -0.6426 -0.6181
  193MOL0     C26531   9.778   4.122  -0.977  0.2297 -0.7555  0.1125
  193MOL0     O26532   9.911   4.093  -1.008 -0.1556  0.5229  0.2126
  193MOL0     C26533   9.987   4.209  -1.066 -0.2666 -0.5983  0.0707
  193MOL0     C26534  10.103   4.250  -0.968  0.3344  0.2179  0.3879
  193MOL0     C26535  10.228   4.165  -0.990 -0.4226 -0.3843  0.8927
  193MOL0     C26536  10.338   4.222  -0.896 -0.0321 -0.3898 -0.5711
  193MOL0     C26537  10.457   4.130  -0.878  0.0052 -0.2692  0.8730
  193MOL0     C26538  10.552   4.156  -0.994  0.4064 -0.1549  0.9571
  193MOL0     C26539  10.668   4.050  -0.993  0.3263  0.2863  0.9260
  193MOL0     C26540  10.781   4.061  -1.098 -0.5651  0.2496  0.1289
  193MOL0    Cl26541  10.884   3.915  -1.068  0.0500  0.0232 -0.1403
  193MOL0     C26542   9.728   4.059  -0.868 -0.8946  0.1862 -1.0091
  193MOL0     C26543   9.597   4.061  -0.828 -0.3992 -0.8030  0.0011
  193MOL0     O26544   9.306   4.324  -0.870 -0.0809  0.1508 -0.3610
  193MOL0     C26545   9.046   4.246  -0.803  0.6634  0.1834  0.3228
  193MOL0     C26546   8.907   4.219  -0.803 -0.1038 -0.3038 -0.2403
  193MOL0     N26547   8.309   4.283  -0.355 -0.0317 -0.6173 -0.7302
  193MOL0     N26548   8.224   4.250  -0.265  0.0198 -0.1033 -0.1993
  193MOL0     C26549   7.199   4.382   0.119  0.0141  0.1507 -0.1973
  193MOL0     C26550   7.126   4.465   0.209 -0.7465 -0.4769  0.2970
  193MOL0     C26551   6.854   4.582   0.543 -0.4451  0.9734 -0.2050
  193MOL0     C26552   6.902   4.596   0.685  0.2176 -0.8397 -0.6700
  193MOL0     C26553   6.829   4.670   0.779  1.6318 -1.3189  0.5320
  193MOL0     C26554   6.715   4.735   0.738  0.1642  0.7188 -0.6111
  193MOL0     O26555   6.648   4.821   0.826  0.4176  0.6181 -0.2595
  193MOL0     C26556   6.662   4.964   0.800 -0.5373  0.6875 -0.3467
  193MOL0     C26557   6.555   5.038   0.875 -0.5578  0.5822 -0.3909
  193MOL0     C26558   6.414   5.043   0.810  0.4877  0.9468 -0.1578
  193MOL0     C26559   6.343   4.907   0.808  0.0832  1.3793 -0.8249
  193MOL0     C26560   6.211   4.907   0.743  0.5781  0.2897 -0.3381
  193MOL0     C26561   6.106   4.917   0.690 -0.5904 -0.0984 -0.0459
  193MOL0     C26562   6.672   4.723   0.607 -0.6092 -0.2692  0.4141
  193MOL0     C26563   6.737   4.647   0.508 -0.5949  0.1525 -0.7882
  193MOL0     C26564   6.657   4.625   0.388 -0.0821  0.4010 -0.8916
  193MOL0     H26565   6.821   4.311   0.210 -0.6099  0.8248 -2.1382
  193MOL0     H26566   6.958   4.147   0.103  1.4495 -0.6159 -0.0350
  193MOL0     H26567   7.330   4.290  -0.092  0.9823 -0.8061 -1.5321
  193MOL0     H26568   7.302   4.148  -0.184 -0.7484 -0.3922  0.4145
  193MOL0     H26569   7.438   4.193   0.085  2.5524  1.7323 -1.5049
  193MOL0     H26570   7.390   4.034   0.060 -0.8942  1.7761  2.3194
  193MOL0     H26571   7.549   4.045  -0.168  1.4787 -0.8164  1.5063
  193MOL0     H26572   7.593   4.208  -0.100 -0.8335  0.4301 -0.5715
  193MOL0     H26573   7.660   4.077   0.106  1.5152  2.2266 -1.2534
  193MOL0     H26574   7.624   3.930   0.001 -3.3523 -0.3099 -1.2894
  193MOL0     H26575   7.876   3.994   0.018  0.5258  0.1879  0.8183
  193MOL0     H26576   7.834   4.151  -0.028 -1.2098  0.8777 -4.2798
  193MOL0     H26577   7.783   3.901  -0.199  2.7719 -1.4906 -2.1045
  193MOL0     H26578   7.749   4.051  -0.270  0.8248 -1.2728 -0.1160
  193MOL0     H26579   7.960   3.946  -0.332 -0.6637  0.7815 -1.1933
  193MOL0     H26580   8.025   3.986  -0.161 -2.2559  2.6044  2.6048
  193MOL0     H26581   7.912   4.196  -0.347  0.4126 -1.8496 -0.5644
  193MOL0     H26582   7.978   4.222  -0.181 -1.5413  1.4061 -1.4249
  193MOL0     H26583   8.085   4.161  -0.550  0.9820  0.0787 -0.0074
  193MOL0     H26584   8.416   4.348  -0.593  1.7031 -0.5119  2.9678
  193MOL0     H26585   8.289   4.265  -0.685 -0.6126  0.3338  1.5234
  193MOL0     H26586   8.515   4.117  -0.543 -1.6906  1.1195  2.0722
  193MOL0     H26587   8.401   4.041  -0.658  1.1374 -0.2807  0.1361
  193MOL0     H26588   8.488   4.185  -0.839  0.5820  0.1239 -0.5200
  193MOL0     H26589   8.591   4.271  -0.721 -0.2201  0.1897  0.6518
  193MOL0     H26590   8.730   4.055  -0.686  1.1984 -0.2197 -1.2819
  193MOL0     H26591   8.586   3.985  -0.776 -0.5479  0.3515 -0.3987
  193MOL0     H26592   8.920   3.926  -0.979 -1.2804 -1.2480  2.5051
  193MOL0     H26593   9.107   3.888  -1.083 -0.8132  0.3913  0.9681
  193MOL0     H26594   9.226   3.889  -0.941 -2.5374  0.3052  2.6653
  193MOL0     H26595   9.245   3.993  -1.081  1.1418 -0.4652  0.5973
  193MOL0     H26596   9.471   4.251  -1.072 -0.5345  1.0537  1.1568
  193MOL0     H26597   9.719   4.248  -1.148 -0.3603 -0.9766 -0.9925
  193MOL0     H26598  10.026   4.192  -1.167 -0.2085 -2.1454  0.3183
  193MOL0     H26599   9.917   4.293  -1.066  0.0322 -0.3239  1.4049
  193MOL0     H26600  10.126   4.357  -0.975 -1.7428  0.8093  1.6673
  193MOL0     H26601  10.062   4.229  -0.869  0.8655 -2.4409  0.1352
  193MOL0     H26602  10.270   4.195  -1.086 -1.6290  0.8862  0.7440
  193MOL0     H26603  10.210   4.057  -0.982 -1.7450 -0.2278  0.2094
  193MOL0     H26604  10.289   4.244  -0.801  0.4874 -0.5428 -0.2611
  193MOL0     H26605  10.364   4.325  -0.922 -0.3062 -1.0334 -3.8185
  193MOL0     H26606  10.505   4.156  -0.783 -1.6599  1.5039  1.2781
  193MOL0     H26607  10.423   4.027  -0.867  0.8914 -0.4236  2.4900
  193MOL0     H26608  10.595   4.256  -0.999 -0.1022  0.0456 -3.0360
  193MOL0     H26609  10.496   4.136  -1.086 -1.5710 -0.7250  2.2166
  193MOL0     H26610  10.625   3.950  -1.002  0.3315  0.2846  0.9181
  193MOL0     H26611  10.721   4.071  -0.900  0.4746  1.1153  0.6651
  193MOL0     H26612  10.835   4.153  -1.075 -1.1303  1.0771 -1.6125
  193MOL0     H26613  10.741   4.063  -1.200  2.2949  1.5932 -1.0886
  193MOL0     H26614   9.794   4.006  -0.800  0.7368  1.1450 -1.7846
  193MOL0     H26615   9.562   3.996  -0.748 -2.4048  0.5760  0.3479
  193MOL0     H26616   9.078   4.334  -0.748 -0.5631 -1.1922  3.4864
  193MOL0     H26617   8.845   4.285  -0.743  2.8332  1.8458  0.6888
  193MOL0     H26618   7.307   4.384   0.118  0.2732 -2.3218  3.7956
  193MOL0     H26619   7.166   4.558   0.248 -0.3150  0.3258 -1.8869
  193MOL0     H26620   6.997   4.550   0.713 -0.0369 -0.1598  1.5692
  193MOL0     H26621   6.864   4.679   0.882  1.3239  1.4780  0.4728
  193MOL0     H26622   6.754   5.005   0.842 -0.3296  2.8933 -2.6618
  193MOL0     H26623   6.665   4.992   0.694  1.4463  0.5090 -0.3682
  193MOL0     H26624   6.593   5.139   0.894  1.1047 -0.0717 -0.0839
  193MOL0     H26625   6.553   4.992   0.975  2.8689 -0.6678 -0.7871
  193MOL0     H26626   6.348   5.118   0.854 -2.2132 -2.0930  1.4098
  193MOL0     H26627   6.437   5.083   0.711 -0.0459 -1.4885 -1.3250
  193MOL0     H26628   6.337   4.862   0.907 -0.2901 -3.8801 -2.9253
  193MOL0     H26629   6.400   4.840   0.742  1.5699 -0.7959  2.4074
  193MOL0     H26630   6.018   4.946   0.637 -1.4164 -1.7301  0.3713
  193MOL0     H26631   6.578   4.768   0.574 -0.5262 -0.4846 -0.1210
  193MOL0     H26632   6.631   4.519   0.379 -2.3533  0.9021 -0.7712
  193MOL0     H26633   6.554   4.663   0.393  0.7685  2.6874  2.1193
  193MOL0     H26634   6.703   4.661   0.296 -0.0582 -3.8915 -2.8169
  194MOL0     O26635   5.267   9.659   3.189 -0.5485  0.6477 -0.3026
  194MOL0     C26636   5.182   9.735   3.229  0.4348  0.1239 -0.3303
  194MOL0     O26637   5.201   9.865   3.265  0.5169  0.0910 -1.2250
  194MOL0     C26638   5.326   9.916   3.286 -0.6702  0.2102  0.7831
  194MOL0     C26639   5.399   9.871   3.402 -0.3834  0.7085  0.4285
  194MOL0     C26640   5.523   9.917   3.439 -0.8162 -0.1414 -0.1320
  194MOL0     C26641   5.586  10.017   3.364 -0.5752  0.8095  0.4094
  194MOL0     O26642   5.712  10.072   3.392  0.2176  0.2315  0.3043
  194MOL0     C26643   5.788  10.033   3.511  0.2509 -1.0124  0.2532
  194MOL0     C26644   5.933  10.076   3.500 -0.6369  0.2982 -0.1185
  194MOL0     C26645   6.013  10.008   3.382 -0.6026  0.3288 -0.4063
  194MOL0     C26646   6.164  10.049   3.415  0.3332 -0.1898 -0.1188
  194MOL0     C26647   6.262  10.011   3.295 -0.3030 -0.3294 -0.0950
  194MOL0     C26648   6.401  10.070   3.335 -0.1267 -0.1091  0.1606
  194MOL0     C26649   6.509  10.070   3.234  0.1269 -0.4812 -0.1592
  194MOL0     C26650   6.569   9.927   3.242  1.2460  0.1481 -0.2679
  194MOL0     N26651   6.697   9.919   3.310 -0.2055 -0.1928 -1.0989
  194MOL0     C26652   6.711   9.834   3.421 -0.3025 -0.0545  0.4964
  194MOL0     C26653   6.847   9.828   3.446 -0.5486  0.1085  0.3395
  194MOL0     C26654   6.915   9.753   3.558  0.1588 -0.3330  0.0032
  194MOL0     C26655   6.921   9.608   3.517 -0.0536  0.4546  0.3844
  194MOL0     C26656   6.987   9.513   3.622  0.6157  0.4511 -0.0479
  194MOL0     C26657   6.897   9.503   3.748 -0.2818 -0.7168  0.1499
  194MOL0     O26658   6.932   9.390   3.833  0.2574  0.7593  0.5668
  194MOL0     C26659   7.006   9.424   3.940 -0.3372 -0.3910 -0.1516
  194MOL0     C26660   7.115   9.515   3.939 -0.0856  0.3901 -0.0265
  194MOL0     C26661   7.192   9.536   4.053 -1.0028 -0.2356 -0.1172
  194MOL0     C26662   7.297   9.645   4.035  0.0749  0.5366  0.2603
  194MOL0     C26663   7.154   9.488   4.177  0.2766 -0.1660 -0.3178
  194MOL0     C26664   7.211   9.525   4.311 -0.5138  0.4485 -0.0504
  194MOL0     O26665   7.348   9.502   4.321  0.5094 -0.7718  0.5067
  194MOL0     C26666   7.399   9.517   4.444  0.4499 -0.7905  0.1885
  194MOL0     C26667   7.348   9.456   4.559 -0.9826 -0.3754 -0.2638
  194MOL0     C26668   7.418   9.467   4.680  0.0234  0.5354 -0.6635
  194MOL0     C26669   7.525   9.547   4.695 -0.3099 -0.4616 -0.1204
  194MOL0     O26670   7.591   9.530   4.814  0.1028 -0.7541  0.1006
  194MOL0     C26671   7.689   9.629   4.856  0.0537  0.4697  0.0992
  194MOL0     C26672   7.785   9.562   4.958  0.4602 -1.1319  0.1847
  194MOL0     C26673   7.894   9.661   5.013 -1.0205 -0.0145 -0.5061
  194MOL0     C26674   8.010   9.574   5.068  0.8904  0.6493  0.9503
  194MOL0     C26675   8.135   9.648   5.115  0.7774  0.4008 -0.8074
  194MOL0     C26676   8.218   9.546   5.188  0.3791 -0.8098  0.3460
  194MOL0     C26677   8.324   9.615   5.264 -0.0352  0.6122 -0.6787
  194MOL0     C26678   8.438   9.528   5.297 -0.0672  0.8846  0.3309
  194MOL0    Cl26679   8.535   9.494   5.146 -0.2281  0.3056  0.2790
  194MOL0     C26680   7.560   9.628   4.589  0.0145  0.4030 -1.5059
  194MOL0     C26681   7.497   9.608   4.466  0.9160  0.5133 -0.0923
  194MOL0     O26682   7.138   9.574   4.396  0.0725  1.1013  0.3572
  194MOL0     C26683   7.050   9.396   4.173 -0.2140  0.1641  0.8069
  194MOL0     C26684   6.984   9.365   4.056  0.4286  0.4998 -1.0139
  194MOL0     N26685   6.914   9.916   3.359 -0.7432  0.8371  0.9342
  194MOL0     N26686   6.824   9.954   3.273  0.2756 -0.5364 -0.1373
  194MOL0     C26687   5.514  10.063   3.252  0.5562  0.2235 -0.0721
  194MOL0     C26688   5.387  10.015   3.209 -0.2862  0.3007 -0.2500
  194MOL0     C26689   5.044   9.687   3.236 -1.2233 -0.1863  0.1817
  194MOL0     C26690   4.939   9.780   3.245 -0.1028 -0.4966  0.6266
  194MOL0     C26691   4.806   9.738   3.243 -0.6678 -0.0949  0.6377
  194MOL0     C26692   4.771   9.606   3.240  0.1695  0.9009  0.0465
  194MOL0     O26693   4.650   9.554   3.229 -0.2673  0.3858  0.8530
  194MOL0     C26694   4.576   9.604   3.114  0.1574  0.4137 -0.0910
  194MOL0     C26695   4.447   9.519   3.096 -0.5879 -0.6011 -0.1879
  194MOL0     C26696   4.362   9.506   3.225 -0.2922  0.4483 -0.6271
  194MOL0     C26697   4.219   9.459   3.196  0.0341  0.1934  0.4884
  194MOL0     C26698   4.151   9.561   3.117 -0.8063  0.4797  0.5702
  194MOL0     C26699   4.096   9.641   3.042 -0.1910  0.1183  1.0781
  194MOL0     C26700   4.873   9.510   3.240 -0.6600  0.2923 -0.5192
  194MOL0     C26701   5.008   9.550   3.246  0.2746 -0.8056 -0.3536
  194MOL0     C26702   5.105   9.438   3.257 -0.5447 -1.0594 -0.2586
  194MOL0     H26703   5.337   9.815   3.472 -0.0026 -2.5162 -1.6072
  194MOL0     H26704   5.554   9.893   3.540  2.7531 -1.7247 -1.4202
  194MOL0     H26705   5.786   9.926   3.535  4.4641 -2.1439 -3.1999
  194MOL0     H26706   5.735  10.090   3.588  0.4355 -1.4901  0.7440
  194MOL0     H26707   5.934  10.185   3.488 -1.7363  0.4019  0.5588
  194MOL0     H26708   5.975  10.057   3.599 -1.1281  1.6634  0.3865
  194MOL0     H26709   6.004   9.899   3.382 -2.5542  0.4341 -1.7716
  194MOL0     H26710   5.980  10.045   3.285 -2.9237  0.6847  0.4434
  194MOL0     H26711   6.174  10.153   3.446 -2.0634 -0.3572  1.4929
  194MOL0     H26712   6.180   9.996   3.509  0.5307  1.1513  0.6275
  194MOL0     H26713   6.223  10.060   3.205 -1.6222  0.9854  1.1484
  194MOL0     H26714   6.288   9.907   3.272  1.7212  0.3693 -1.1991
  194MOL0     H26715   6.381  10.170   3.375 -2.4062 -0.9011  1.1935
  194MOL0     H26716   6.431  10.019   3.427 -1.0718 -1.3083 -0.1688
  194MOL0     H26717   6.586  10.144   3.260 -1.8193  2.2563 -1.6489
  194MOL0     H26718   6.475  10.093   3.133  1.0079  2.1590  0.0740
  194MOL0     H26719   6.501   9.854   3.285  0.3171  0.4898 -1.1063
  194MOL0     H26720   6.586   9.885   3.142 -0.9220 -1.0335 -0.1904
  194MOL0     H26721   6.634   9.790   3.484  0.2718  0.0635  1.3014
  194MOL0     H26722   6.854   9.766   3.648 -2.9880  2.5819 -2.3196
  194MOL0     H26723   7.013   9.798   3.575 -0.9520  2.4163 -0.5149
  194MOL0     H26724   6.818   9.576   3.502 -0.4123  0.2775  2.8263
  194MOL0     H26725   6.977   9.597   3.423 -0.1994  0.3898  0.3054
  194MOL0     H26726   6.991   9.414   3.576  0.3157 -0.1074  1.1199
  194MOL0     H26727   7.086   9.549   3.653  0.8663  0.2140 -0.5504
  194MOL0     H26728   6.910   9.597   3.803 -2.1355 -1.3102  1.7680
  194MOL0     H26729   6.791   9.501   3.720 -0.8814 -1.3324  2.2722
  194MOL0     H26730   7.146   9.569   3.850 -0.0837  1.3466  0.5376
  194MOL0     H26731   7.282   9.710   3.948  0.6211  0.8050  0.3678
  194MOL0     H26732   7.389   9.594   4.003  1.0859  2.1022  0.6085
  194MOL0     H26733   7.313   9.699   4.128  3.1319 -0.0656  0.1749
  194MOL0     H26734   7.257   9.397   4.562 -2.2995  1.5870  1.5434
  194MOL0     H26735   7.383   9.395   4.754 -0.2742 -0.5052 -1.7829
  194MOL0     H26736   7.747   9.653   4.767  0.4878  0.4373  0.3696
  194MOL0     H26737   7.652   9.722   4.900  0.6380 -0.5398  2.9145
  194MOL0     H26738   7.724   9.520   5.037 -1.2347  1.8258  0.6074
  194MOL0     H26739   7.836   9.481   4.904 -1.7136 -1.2135 -1.9076
  194MOL0     H26740   7.848   9.721   5.092 -0.5732  1.8100 -1.5782
  194MOL0     H26741   7.916   9.723   4.925 -3.6756  0.9109 -0.6111
  194MOL0     H26742   8.038   9.497   4.995  2.1499  0.2962  1.7819
  194MOL0     H26743   7.957   9.518   5.147 -0.4403  0.7391  0.1581
  194MOL0     H26744   8.185   9.693   5.029 -1.1245  0.9078 -1.6937
  194MOL0     H26745   8.105   9.730   5.181 -0.4906 -0.0627 -0.7799
  194MOL0     H26746   8.255   9.475   5.114 -2.1424 -1.0196 -0.8033
  194MOL0     H26747   8.154   9.492   5.259  0.4785 -0.7152  0.5080
  194MOL0     H26748   8.280   9.657   5.355  2.3810 -0.5199  1.1403
  194MOL0     H26749   8.371   9.700   5.214  2.6390  0.0880  0.7175
  194MOL0     H26750   8.406   9.436   5.345  0.6891  1.0487  1.1649
  194MOL0     H26751   8.508   9.572   5.369  0.2492  0.6913  0.1442
  194MOL0     H26752   7.636   9.706   4.591  0.9642 -0.5124  0.6239
  194MOL0     H26753   7.519   9.664   4.375 -1.7810 -0.0303 -1.1512
  194MOL0     H26754   7.006   9.337   4.253 -1.6417 -2.1729 -1.5236
  194MOL0     H26755   6.904   9.292   4.064  1.6012 -0.8098 -0.6682
  194MOL0     H26756   5.559  10.150   3.205 -0.0110  0.2691 -0.5339
  194MOL0     H26757   5.336  10.055   3.123 -2.0628 -3.0966 -0.9193
  194MOL0     H26758   4.959   9.887   3.253 -0.4075 -0.4570  0.9102
  194MOL0     H26759   4.725   9.807   3.265 -1.4530 -0.7290 -0.1529
  194MOL0     H26760   4.545   9.708   3.131  2.0351  0.4717  4.3158
  194MOL0     H26761   4.650   9.614   3.034  1.5470  1.7433  1.2860
  194MOL0     H26762   4.470   9.417   3.063 -2.8020 -0.3422 -2.9675
  194MOL0     H26763   4.393   9.573   3.017 -0.9149 -1.3922 -0.5197
  194MOL0     H26764   4.411   9.426   3.280 -3.2862 -0.9038  0.2563
  194MOL0     H26765   4.375   9.596   3.285 -1.0262  0.5061 -0.5446
  194MOL0     H26766   4.158   9.424   3.279  0.4844 -0.1117  0.6964
  194MOL0     H26767   4.226   9.369   3.134 -0.0771  0.9271 -0.6098
  194MOL0     H26768   4.060   9.716   2.975  1.8599 -0.3325 -0.6506
  194MOL0     H26769   4.853   9.404   3.254  2.2211 -0.6592 -2.6602
  194MOL0     H26770   5.170   9.454   3.344  0.7423  2.3861 -1.6777
  194MOL0     H26771   5.057   9.341   3.270  0.2171 -1.3973  0.1150
  194MOL0     H26772   5.179   9.433   3.177  0.7236  1.6258  0.6172
  195MOL0     O26773   1.601   5.671   6.675 -0.0388  0.0267  0.0328
  195MOL0     C26774   1.628   5.785   6.686  0.1493 -0.3007  0.3736
  195MOL0     O26775   1.755   5.843   6.650 -0.1018 -0.6288  0.5555
  195MOL0     C26776   1.864   5.762   6.655 -1.0186 -0.8645 -0.2999
  195MOL0     C26777   1.915   5.702   6.541 -0.5176 -0.5663 -0.1678
  195MOL0     C26778   2.021   5.619   6.539 -0.5686  0.1516  0.9071
  195MOL0     C26779   2.086   5.597   6.662 -1.2684  0.9125  0.0660
  195MOL0     O26780   2.188   5.507   6.683  0.4831 -0.5001  0.4993
  195MOL0     C26781   2.221   5.405   6.588  0.2875  0.6465  0.1380
  195MOL0     C26782   2.304   5.291   6.652  0.7999 -0.2401 -0.3928
  195MOL0     C26783   2.431   5.342   6.705 -0.2466 -0.3934 -0.5587
  195MOL0     C26784   2.521   5.229   6.751 -0.0240 -0.3631  0.6487
  195MOL0     C26785   2.642   5.292   6.814  0.0894  0.7376  0.2389
  195MOL0     C26786   2.708   5.204   6.924  0.4714  0.4740 -0.1442
  195MOL0     C26787   2.830   5.265   6.977 -0.3719 -0.5743 -0.3828
  195MOL0     C26788   2.865   5.196   7.109 -0.1441  0.2295 -0.0515
  195MOL0     N26789   2.788   5.245   7.220  0.6427 -0.6082 -1.0597
  195MOL0     C26790   2.763   5.177   7.330 -0.9872 -0.0156  0.3628
  195MOL0     C26791   2.734   5.268   7.422  0.0251  0.1660  0.1367
  195MOL0     C26792   2.719   5.253   7.571  0.1178  0.2407 -0.2979
  195MOL0     C26793   2.860   5.275   7.640 -0.3266 -0.0707 -0.6016
  195MOL0     C26794   2.934   5.404   7.628 -0.2620 -0.3178 -0.4352
  195MOL0     C26795   3.068   5.408   7.710  1.4529 -0.4746 -0.0237
  195MOL0     O26796   3.166   5.339   7.642  0.4817 -0.1223 -0.3785
  195MOL0     C26797   3.289   5.334   7.700 -0.6735 -0.6691 -0.0436
  195MOL0     C26798   3.344   5.438   7.773 -0.1322 -0.3307  0.6703
  195MOL0     C26799   3.476   5.446   7.803  0.3957 -0.1049 -1.1090
  195MOL0     C26800   3.519   5.570   7.874 -0.1607  0.1422  0.2569
  195MOL0     C26801   3.553   5.335   7.784 -0.5067  0.6294  0.6924
  195MOL0     C26802   3.700   5.327   7.819  0.6231  0.5278 -0.2536
  195MOL0     O26803   3.745   5.389   7.937 -0.3638  0.8386  0.3335
  195MOL0     C26804   3.880   5.399   7.957 -0.5119  0.3414 -0.9062
  195MOL0     C26805   3.945   5.326   8.059  0.0481 -0.7042 -0.0619
  195MOL0     C26806   4.091   5.341   8.068 -0.3509  0.2450  0.1652
  195MOL0     C26807   4.168   5.406   7.968  0.4038  0.7427 -0.4992
  195MOL0     O26808   4.305   5.380   7.967 -0.1409  0.2039  0.0336
  195MOL0     C26809   4.348   5.293   7.863 -0.5062  0.4948  0.3504
  195MOL0     C26810   4.495   5.321   7.844  0.8675  0.0843  0.0272
  195MOL0     C26811   4.581   5.270   7.968 -0.5279 -0.4198 -0.1350
  195MOL0     C26812   4.729   5.305   7.942  0.8391 -0.1129  0.9713
  195MOL0     C26813   4.784   5.254   7.812  0.2461  0.4358 -0.3447
  195MOL0     C26814   4.931   5.289   7.795 -0.3361 -1.5158  0.6492
  195MOL0     C26815   4.963   5.282   7.652  0.8600  0.8427  0.4269
  195MOL0     C26816   5.106   5.326   7.616 -0.2658  0.2666  0.3083
  195MOL0    Cl26817   5.230   5.200   7.658 -0.2150  0.5061  0.2054
  195MOL0     C26818   4.095   5.449   7.857 -0.3601 -0.1634 -0.3135
  195MOL0     C26819   3.956   5.456   7.859  0.0138  0.1520 -0.2157
  195MOL0     O26820   3.769   5.272   7.734 -0.5746  0.0609 -0.1168
  195MOL0     C26821   3.497   5.227   7.709  0.1858  0.5820  0.0747
  195MOL0     C26822   3.369   5.231   7.662 -0.2879  0.0828 -0.0881
  195MOL0     N26823   2.743   5.394   7.359  0.3115 -0.3834  0.1559
  195MOL0     N26824   2.765   5.381   7.238 -0.6574 -0.4377 -0.0521
  195MOL0     C26825   2.049   5.669   6.778  0.0798  0.1129 -0.5318
  195MOL0     C26826   1.939   5.750   6.777 -0.0737  0.1924 -0.5521
  195MOL0     C26827   1.517   5.887   6.695 -0.2487 -0.5733  0.1048
  195MOL0     C26828   1.550   6.016   6.658  0.2851 -0.4250 -0.3901
  195MOL0     C26829   1.454   6.117   6.665  0.1565 -0.0694 -0.5124
  195MOL0     C26830   1.317   6.087   6.691 -0.0349 -0.0575  0.0051
  195MOL0     O26831   1.235   6.198   6.675  0.4276 -0.6583  0.0604
  195MOL0     C26832   1.096   6.182   6.646  0.3711  0.2580 -0.0682
  195MOL0     C26833   1.078   6.132   6.504 -0.2141  0.0576  0.2419
  195MOL0     C26834   1.130   6.239   6.396  0.8670 -0.7939 -0.0908
  195MOL0     C26835   1.124   6.168   6.251  0.5155  0.3148  0.5665
  195MOL0     C26836   1.160   6.267   6.152  0.1639 -0.5104  0.0669
  195MOL0     C26837   1.181   6.358   6.074  0.5014 -0.4214 -0.1799
  195MOL0     C26838   1.288   5.958   6.721  0.0235  0.1542  0.0475
  195MOL0     C26839   1.385   5.856   6.741 -0.0796  0.5721 -0.4968
  195MOL0     C26840   1.350   5.722   6.805  0.7057 -0.2749 -1.0391
  195MOL0     H26841   1.861   5.727   6.450 -1.2493  0.3467  0.4985
  195MOL0     H26842   2.048   5.564   6.449  0.4566  1.7060  0.2143
  195MOL0     H26843   2.273   5.442   6.499  1.2183  0.0449  0.4168
  195MOL0     H26844   2.122   5.368   6.562  0.2180  2.0191 -1.7493
  195MOL0     H26845   2.239   5.254   6.732 -0.8272  0.3249 -1.3952
  195MOL0     H26846   2.317   5.209   6.581 -1.7388 -2.2489  1.2758
  195MOL0     H26847   2.484   5.409   6.637  2.6843 -0.6323  1.3088
  195MOL0     H26848   2.418   5.406   6.793  2.3480  1.2770 -1.2899
  195MOL0     H26849   2.466   5.179   6.831  1.4302  1.8522  3.1688
  195MOL0     H26850   2.539   5.157   6.670  2.3292  0.4016  0.4407
  195MOL0     H26851   2.617   5.391   6.854 -2.3744  0.7094 -1.0455
  195MOL0     H26852   2.709   5.315   6.731 -0.4343  1.7039  0.0688
  195MOL0     H26853   2.640   5.199   7.009  0.0108  0.6757 -0.4992
  195MOL0     H26854   2.729   5.104   6.882  1.2697 -0.1007  1.5389
  195MOL0     H26855   2.817   5.374   6.979 -3.1583 -0.7572 -2.0841
  195MOL0     H26856   2.904   5.242   6.899  0.5043 -2.5184  0.9544
  195MOL0     H26857   2.871   5.088   7.095 -1.2669  0.1843 -0.2603
  195MOL0     H26858   2.967   5.233   7.126  0.3008  0.9773 -3.5227
  195MOL0     H26859   2.778   5.071   7.347  1.4113  0.1833 -0.2485
  195MOL0     H26860   2.679   5.153   7.592  1.4072 -0.1963  0.1767
  195MOL0     H26861   2.641   5.318   7.611 -0.2329 -0.5511  0.3414
  195MOL0     H26862   2.842   5.248   7.744  2.9546 -1.8289 -0.3843
  195MOL0     H26863   2.926   5.192   7.615 -1.0559 -1.6760  2.3739
  195MOL0     H26864   2.950   5.414   7.521  0.0032  0.7687 -0.3017
  195MOL0     H26865   2.866   5.480   7.668 -0.6766 -0.9552  0.1015
  195MOL0     H26866   3.094   5.513   7.718 -1.5663  0.5596 -1.9666
  195MOL0     H26867   3.044   5.369   7.809 -0.5476 -1.0157 -0.6741
  195MOL0     H26868   3.285   5.529   7.785  0.0145  0.1248 -1.6206
  195MOL0     H26869   3.441   5.647   7.883 -0.8337 -0.3427 -1.1309
  195MOL0     H26870   3.605   5.607   7.817  1.2825  0.6632  2.6349
  195MOL0     H26871   3.543   5.533   7.974  2.6642  0.5178 -0.1948
  195MOL0     H26872   3.885   5.279   8.136  2.4859 -4.7911 -0.3946
  195MOL0     H26873   4.148   5.299   8.150  0.0768  0.8480  0.1787
  195MOL0     H26874   4.322   5.190   7.890 -2.1880  1.0361  0.9376
  195MOL0     H26875   4.306   5.322   7.766 -1.2924  3.7016  1.5298
  195MOL0     H26876   4.518   5.266   7.753 -0.3178 -1.8342  0.8178
  195MOL0     H26877   4.520   5.421   7.809 -1.1269 -0.2924 -2.7841
  195MOL0     H26878   4.593   5.163   7.987  1.8803  0.4370  4.3742
  195MOL0     H26879   4.554   5.314   8.064 -0.3585 -0.0597 -0.2497
  195MOL0     H26880   4.778   5.248   8.021  0.6769 -0.5267  0.7740
  195MOL0     H26881   4.741   5.414   7.933 -1.4900  0.0328 -2.3419
  195MOL0     H26882   4.772   5.146   7.811  3.0712 -0.0551  2.6420
  195MOL0     H26883   4.722   5.303   7.736 -0.6765 -0.1146  0.0487
  195MOL0     H26884   4.999   5.233   7.860  1.1018 -0.0260  0.4997
  195MOL0     H26885   4.932   5.393   7.829 -0.7274 -0.7939 -1.4083
  195MOL0     H26886   4.882   5.333   7.599 -0.4753 -0.1104  1.4995
  195MOL0     H26887   4.941   5.181   7.616 -0.9332  1.9914 -2.0332
  195MOL0     H26888   5.126   5.418   7.671 -4.1157  1.1968  0.4111
  195MOL0     H26889   5.113   5.341   7.508 -2.5885 -2.6378 -0.3774
  195MOL0     H26890   4.153   5.497   7.778 -0.2917 -0.1794 -0.2733
  195MOL0     H26891   3.903   5.499   7.774 -0.5103  0.9486  0.4935
  195MOL0     H26892   3.558   5.141   7.683  1.1319  1.5099 -0.9148
  195MOL0     H26893   3.332   5.148   7.602  0.0685  1.4265 -2.2814
  195MOL0     H26894   2.102   5.651   6.871 -1.6205  2.0075  0.8830
  195MOL0     H26895   1.902   5.798   6.866 -0.8381 -0.1313 -0.6928
  195MOL0     H26896   1.650   6.048   6.630  0.2014  0.9668  0.7949
  195MOL0     H26897   1.473   6.223   6.651 -0.2184 -0.1177 -1.5327
  195MOL0     H26898   1.044   6.114   6.713  3.2544  0.3234  2.5016
  195MOL0     H26899   1.053   6.283   6.652 -1.2197 -0.3256 -0.9923
  195MOL0     H26900   0.972   6.112   6.486 -0.4700  1.7732 -0.3447
  195MOL0     H26901   1.139   6.043   6.488  1.5105  1.4351 -1.2118
  195MOL0     H26902   1.067   6.328   6.386  1.6379 -0.0864  1.1290
  195MOL0     H26903   1.234   6.269   6.408  1.2290 -1.6667 -0.9653
  195MOL0     H26904   1.024   6.130   6.230  0.9599 -1.5488  1.6202
  195MOL0     H26905   1.197   6.087   6.253 -0.0845 -0.2291  0.3934
  195MOL0     H26906   1.180   6.442   6.008 -1.0600 -1.2486 -1.2608
  195MOL0     H26907   1.187   5.940   6.759  0.6908 -0.5303  1.5703
  195MOL0     H26908   1.321   5.642   6.737 -1.7980 -1.0524  0.7809
  195MOL0     H26909   1.438   5.694   6.863  1.5550  1.2705 -1.5298
  195MOL0     H26910   1.261   5.723   6.869  0.7402  0.4171 -0.9999
  196MOL0     O26911   4.968   5.288   9.812 -0.0259 -0.3328  0.1295
  196MOL0     C26912   4.880   5.322   9.737  0.2715 -0.2827 -0.3049
  196MOL0     O26913   4.901   5.366   9.604 -0.0862  1.0686 -1.2086
  196MOL0     C26914   5.019   5.369   9.545 -0.2906 -0.4618 -0.5755
  196MOL0     C26915   5.026   5.441   9.417 -1.0879 -0.6753 -1.3783
  196MOL0     C26916   5.144   5.426   9.338  0.4025 -0.2386 -0.3172
  196MOL0     C26917   5.255   5.349   9.368  0.2851 -0.2278 -0.5061
  196MOL0     O26918   5.346   5.334   9.271 -0.1141 -0.2395  0.4251
  196MOL0     C26919   5.461   5.250   9.295  0.4601  0.1631  0.6289
  196MOL0     C26920   5.557   5.248   9.177  0.4767 -0.4683  0.0317
  196MOL0     C26921   5.637   5.383   9.173 -0.2004  0.0671 -0.5309
  196MOL0     C26922   5.683   5.411   9.032 -0.0340  0.4155 -0.4199
  196MOL0     C26923   5.750   5.536   9.004 -0.0397 -0.9006  0.4916
  196MOL0     C26924   5.777   5.550   8.854 -0.4005  0.2453  0.0722
  196MOL0     C26925   5.861   5.672   8.826 -0.4024 -0.6548  0.3913
  196MOL0     C26926   6.008   5.660   8.862  0.3411  0.0348 -0.4781
  196MOL0     N26927   6.061   5.521   8.844 -1.1455  0.1262  0.1030
  196MOL0     C26928   6.150   5.480   8.744  0.5060 -0.7075 -0.7856
  196MOL0     C26929   6.237   5.391   8.799 -0.8625 -0.6008 -0.3023
  196MOL0     C26930   6.336   5.307   8.730 -0.6992 -0.0698 -0.5659
  196MOL0     C26931   6.406   5.357   8.603 -0.0184  0.7381 -0.2341
  196MOL0     C26932   6.493   5.481   8.633  0.5639  0.1499  0.2013
  196MOL0     C26933   6.522   5.547   8.502 -0.7483  0.4823 -0.7442
  196MOL0     O26934   6.407   5.599   8.433  0.4935 -0.3073 -0.4296
  196MOL0     C26935   6.322   5.702   8.494 -0.9613 -0.1557 -0.5900
  196MOL0     C26936   6.190   5.723   8.455  0.0013 -0.0358  0.1536
  196MOL0     C26937   6.109   5.819   8.507 -0.5250  0.3266 -0.1941
  196MOL0     C26938   5.967   5.824   8.445  0.1445 -1.1051  0.5530
  196MOL0     C26939   6.144   5.901   8.615 -0.5425  0.0692 -0.2903
  196MOL0     C26940   6.064   6.003   8.694 -0.3290 -0.5446  0.3231
  196MOL0     O26941   5.925   6.005   8.679 -0.9089 -0.3537 -0.4736
  196MOL0     C26942   5.863   6.116   8.725 -0.1274 -0.6856 -1.2402
  196MOL0     C26943   5.839   6.230   8.644 -0.7468  0.5012  0.3146
  196MOL0     C26944   5.792   6.353   8.692 -0.0704 -0.5717  0.1325
  196MOL0     C26945   5.767   6.369   8.831  0.0236 -0.3313  0.3681
  196MOL0     O26946   5.718   6.487   8.866  0.2956 -0.0654 -1.0399
  196MOL0     C26947   5.615   6.487   8.975 -0.0402  0.6055 -0.0307
  196MOL0     C26948   5.485   6.453   8.912 -0.2886 -0.3845 -0.0942
  196MOL0     C26949   5.453   6.567   8.801  0.0908  0.4985  0.2628
  196MOL0     C26950   5.302   6.537   8.772  0.0755  0.2905  0.8043
  196MOL0     C26951   5.256   6.638   8.658 -0.3882  0.0946  0.3118
  196MOL0     C26952   5.241   6.781   8.708 -0.5193  0.3002  0.1415
  196MOL0     C26953   5.252   6.888   8.601 -0.4170 -0.7176  0.1468
  196MOL0     C26954   5.140   6.884   8.502 -0.4578 -0.0958  0.5007
  196MOL0    Cl26955   4.971   6.914   8.563  0.1333 -0.4279 -0.0761
  196MOL0     C26956   5.791   6.260   8.914 -0.0736 -0.9926 -0.8838
  196MOL0     C26957   5.839   6.137   8.860 -0.0713  0.2845  0.4005
  196MOL0     O26958   6.120   6.076   8.777 -0.1677  0.3270  0.8793
  196MOL0     C26959   6.281   5.888   8.652  1.3347  0.8044 -0.6942
  196MOL0     C26960   6.364   5.783   8.602  0.7310  0.3994 -0.5945
  196MOL0     N26961   6.204   5.376   8.937  0.8017 -0.9139  0.3799
  196MOL0     N26962   6.097   5.449   8.957  0.1850 -1.2385 -0.0114
  196MOL0     C26963   5.255   5.286   9.499 -0.4650 -0.5295  0.3397
  196MOL0     C26964   5.143   5.299   9.583  0.3715  0.2983 -0.9209
  196MOL0     C26965   4.743   5.309   9.784 -0.7122 -0.1652  0.6009
  196MOL0     C26966   4.640   5.339   9.697 -0.3625 -0.4589  0.9218
  196MOL0     C26967   4.509   5.293   9.705 -0.1369  0.0317  0.7374
  196MOL0     C26968   4.464   5.244   9.816  0.2212  0.9068 -0.0885
  196MOL0     O26969   4.324   5.225   9.832  0.4086 -0.0253 -0.3837
  196MOL0     C26970   4.264   5.196   9.960  0.2777 -0.1836 -0.2738
  196MOL0     C26971   4.262   5.316  10.064  0.0610  0.4439  0.0680
  196MOL0     C26972   4.178   5.434  10.008  0.4170  0.2475  0.5172
  196MOL0     C26973   4.142   5.540  10.108 -0.6052  0.2602  0.6313
  196MOL0     C26974   4.038   5.484  10.198  1.1301  1.1637 -0.5092
  196MOL0     C26975   3.962   5.447  10.286  0.1095 -0.3146  0.9757
  196MOL0     C26976   4.560   5.215   9.914 -0.0350  0.8957  0.3998
  196MOL0     C26977   4.699   5.243   9.904  0.2203 -0.5459 -0.1818
  196MOL0     C26978   4.795   5.198  10.020  0.4204  0.3190  0.6263
  196MOL0     H26979   4.950   5.504   9.372  1.2651  3.5245  0.0305
  196MOL0     H26980   5.122   5.476   9.244 -1.6830  0.3091  0.4239
  196MOL0     H26981   5.422   5.148   9.294  0.1700  0.2695  1.0521
  196MOL0     H26982   5.514   5.271   9.388  3.3583 -1.4904 -0.4820
  196MOL0     H26983   5.624   5.161   9.177 -1.4658 -2.1684 -3.4797
  196MOL0     H26984   5.493   5.237   9.089  0.9638  1.3839 -0.6190
  196MOL0     H26985   5.567   5.460   9.206 -0.0085  0.2353 -0.5139
  196MOL0     H26986   5.716   5.387   9.248 -0.8639 -1.3956  0.2891
  196MOL0     H26987   5.751   5.328   9.010  1.2645  0.4726  2.9068
  196MOL0     H26988   5.598   5.402   8.964  1.6753 -1.9839 -2.4291
  196MOL0     H26989   5.842   5.523   9.062 -0.5678  2.0782  2.2240
  196MOL0     H26990   5.682   5.617   9.033 -2.7734 -2.9903  0.3653
  196MOL0     H26991   5.821   5.455   8.823  1.2285  1.0399 -0.1797
  196MOL0     H26992   5.685   5.569   8.800  0.7650  0.7147 -1.8190
  196MOL0     H26993   5.813   5.763   8.865  0.1734  0.1084 -0.6458
  196MOL0     H26994   5.850   5.688   8.718 -5.8295  0.6003  0.8058
  196MOL0     H26995   6.064   5.735   8.805 -2.2165  1.5571 -1.1633
  196MOL0     H26996   6.026   5.690   8.966  1.6323 -1.2315 -0.3083
  196MOL0     H26997   6.151   5.515   8.641 -3.3002  1.9379 -0.1047
  196MOL0     H26998   6.273   5.221   8.704 -0.6964 -0.1694 -0.2455
  196MOL0     H26999   6.416   5.278   8.799  0.0795  0.8002 -1.0865
  196MOL0     H27000   6.472   5.279   8.563  1.4577  2.8170 -2.0608
  196MOL0     H27001   6.343   5.380   8.517  4.1518  0.9999 -3.5253
  196MOL0     H27002   6.446   5.552   8.702 -0.2952 -1.1010  0.9454
  196MOL0     H27003   6.582   5.438   8.680  0.1482 -0.5617  0.3551
  196MOL0     H27004   6.592   5.626   8.531 -0.2617  0.1732 -1.0741
  196MOL0     H27005   6.577   5.486   8.430 -1.0591  1.7608 -2.1207
  196MOL0     H27006   6.166   5.663   8.367 -1.5188  2.4739 -1.2614
  196MOL0     H27007   5.905   5.914   8.460 -0.9667 -1.4906 -1.4219
  196MOL0     H27008   5.901   5.741   8.472 -0.2495 -1.0095 -0.1086
  196MOL0     H27009   5.982   5.820   8.337  1.0694  1.5199  0.4971
  196MOL0     H27010   5.865   6.219   8.539 -0.8182 -0.5788  0.4055
  196MOL0     H27011   5.768   6.435   8.625  0.8331 -0.1937  0.2606
  196MOL0     H27012   5.642   6.421   9.058 -1.0705 -0.6556 -0.6550
  196MOL0     H27013   5.600   6.582   9.025 -0.4547  0.1322  0.7539
  196MOL0     H27014   5.484   6.350   8.873 -0.1412 -1.7022  3.0847
  196MOL0     H27015   5.411   6.453   8.992 -0.3262 -0.3804 -0.1288
  196MOL0     H27016   5.510   6.544   8.711 -0.3089 -1.1242  0.3938
  196MOL0     H27017   5.482   6.670   8.824 -2.2488  1.3608 -0.4135
  196MOL0     H27018   5.242   6.542   8.863  0.5863 -2.3175  1.3898
  196MOL0     H27019   5.306   6.434   8.733  0.6125  0.7351 -0.3610
  196MOL0     H27020   5.329   6.634   8.577 -0.2257  0.1010  0.4579
  196MOL0     H27021   5.166   6.597   8.612  0.3648 -1.4988  0.1844
  196MOL0     H27022   5.325   6.803   8.775  0.0987  1.9479 -1.0994
  196MOL0     H27023   5.140   6.786   8.751 -0.6679 -0.3965 -0.1199
  196MOL0     H27024   5.350   6.881   8.552 -0.1520 -3.2414  0.8909
  196MOL0     H27025   5.244   6.987   8.647 -0.5736 -1.3839  1.6419
  196MOL0     H27026   5.142   6.784   8.456 -2.8880 -0.1896  0.4651
  196MOL0     H27027   5.147   6.959   8.422 -1.7950  1.6249  1.9257
  196MOL0     H27028   5.769   6.256   9.020  0.4010 -2.7628 -0.8150
  196MOL0     H27029   5.865   6.060   8.932  2.4902  0.5071 -0.1857
  196MOL0     H27030   6.317   5.946   8.737 -0.2727 -0.6864  1.1095
  196MOL0     H27031   6.466   5.768   8.634  1.0699  0.2353 -1.6970
  196MOL0     H27032   5.324   5.209   9.532  0.9860 -0.1560 -1.6414
  196MOL0     H27033   5.149   5.241   9.675  0.0721  0.7854 -0.5886
  196MOL0     H27034   4.670   5.394   9.608  3.6942 -1.2070  1.6686
  196MOL0     H27035   4.448   5.323   9.621  1.0015  0.7864  0.1428
  196MOL0     H27036   4.163   5.156   9.948 -0.8394  1.7008  1.9451
  196MOL0     H27037   4.315   5.118  10.018 -0.9198 -0.3746  0.5704
  196MOL0     H27038   4.362   5.349  10.093 -0.2344  3.1080 -1.6658
  196MOL0     H27039   4.217   5.274  10.154  0.0250 -0.0675 -0.1783
  196MOL0     H27040   4.229   5.479   9.922  1.8366 -0.6362  0.8704
  196MOL0     H27041   4.088   5.390   9.964  2.2299 -1.3959 -1.7946
  196MOL0     H27042   4.095   5.629  10.064 -3.0300 -0.9555  0.5849
  196MOL0     H27043   4.232   5.575  10.158 -0.7624  1.1464  0.3111
  196MOL0     H27044   3.901   5.416  10.369  2.0267  0.0413  2.5908
  196MOL0     H27045   4.523   5.182  10.010  0.3700  0.3712  0.3837
  196MOL0     H27046   4.826   5.294  10.063 -0.4607  2.1187 -2.4156
  196MOL0     H27047   4.729   5.144  10.088 -3.5261  1.4672 -1.9558
  196MOL0     H27048   4.880   5.134   9.994 -1.9824 -2.6043 -0.6686
  197MOL0     O27049  10.932   2.004   1.345 -0.2285  0.3739 -0.5777
  197MOL0     C27050  10.955   2.053   1.461 -0.5561 -0.0837 -1.0577
  197MOL0     O27051  11.076   2.112   1.498 -0.6448 -0.5303 -0.2305
  197MOL0     C27052  11.170   2.116   1.399  0.0678  0.4092  0.4354
  197MOL0     C27053  11.259   2.007   1.389 -0.8020  0.0329  0.7447
  197MOL0     C27054  11.357   2.006   1.283 -0.2556  0.3418 -0.2947
  197MOL0     C27055  11.372   2.115   1.191 -0.2226 -0.2246 -0.0695
  197MOL0     O27056  11.480   2.118   1.110 -0.1265  0.5314 -0.0016
  197MOL0     C27057  11.462   2.159   0.976  0.3142  0.0690  0.5899
  197MOL0     C27058  11.575   2.094   0.890 -0.0198 -0.3068 -1.0786
  197MOL0     C27059  11.702   2.166   0.875 -0.3766 -0.0338  1.0231
  197MOL0     C27060  11.770   2.223   0.993  0.4265 -1.2830 -0.5700
  197MOL0     C27061  11.882   2.323   0.960  0.1763 -0.0131  0.3695
  197MOL0     C27062  11.947   2.375   1.086  0.0357 -1.0404  0.4485
  197MOL0     C27063  12.060   2.460   1.034  0.6507 -0.6093 -0.2008
  197MOL0     C27064  12.123   2.551   1.146  0.0201 -0.0057  1.3724
  197MOL0     N27065  12.191   2.671   1.088  0.1326 -0.0765  0.1144
  197MOL0     C27066  12.322   2.674   1.060  0.7471  1.1709  0.6669
  197MOL0     C27067  12.344   2.785   0.995 -0.1246 -0.2325  0.3421
  197MOL0     C27068  12.482   2.818   0.954  0.4597 -0.0068 -0.1848
  197MOL0     C27069  12.574   2.858   1.078  0.2372  0.1682  0.1802
  197MOL0     C27070  12.538   2.972   1.168  0.4572  0.2942  0.0047
  197MOL0     C27071  12.478   3.091   1.098 -0.1414  0.6905 -0.5982
  197MOL0     O27072  12.561   3.131   0.985 -0.7062 -0.4716 -1.0857
  197MOL0     C27073  12.693   3.158   1.011 -0.3891 -0.5133 -0.5174
  197MOL0     C27074  12.777   3.150   0.895 -0.5448 -0.3296 -0.7887
  197MOL0     C27075  12.917   3.165   0.909 -0.4068 -0.4186  0.4079
  197MOL0     C27076  13.008   3.134   0.791 -0.2880 -0.2986  1.2900
  197MOL0     C27077  12.975   3.170   1.042  1.0162  0.2034  0.7761
  197MOL0     C27078  13.115   3.163   1.075  0.0277 -0.0439 -0.0087
  197MOL0     O27079  13.205   3.211   0.989  0.3523 -0.0087  0.2961
  197MOL0     C27080  13.342   3.183   1.003  0.6180 -1.0029  0.4862
  197MOL0     C27081  13.414   3.132   0.901 -0.4679  0.0185  0.7805
  197MOL0     C27082  13.547   3.110   0.897  0.5891  0.1196 -1.1966
  197MOL0     C27083  13.613   3.151   1.008 -0.7803  0.2900 -0.2684
  197MOL0     O27084  13.752   3.146   1.011  0.6825  0.0465  0.3234
  197MOL0     C27085  13.825   3.203   0.902  0.1792 -0.0033  0.3846
  197MOL0     C27086  13.971   3.213   0.942  0.2493  0.1115 -0.0340
  197MOL0     C27087  14.069   3.235   0.829  0.1606 -0.0951 -0.2704
  197MOL0     C27088  14.205   3.210   0.880 -0.8221  0.9026 -0.0280
  197MOL0     C27089  14.310   3.224   0.768  0.1963  0.3121  0.1534
  197MOL0     C27090  14.457   3.197   0.817  0.3039  0.6030  0.2032
  197MOL0     C27091  14.521   3.317   0.871  0.4535 -0.6062 -0.0560
  197MOL0     C27092  14.673   3.294   0.904  0.7534 -0.9176  0.2253
  197MOL0    Cl27093  14.768   3.269   0.754  0.3101 -0.3266  0.0164
  197MOL0     C27094  13.549   3.221   1.117 -0.2032  1.2393  1.0149
  197MOL0     C27095  13.411   3.229   1.112  0.5159  0.6846  0.0265
  197MOL0     O27096  13.143   3.104   1.177  0.1934 -0.1857 -0.2121
  197MOL0     C27097  12.881   3.185   1.148 -0.2021  0.1368 -0.2418
  197MOL0     C27098  12.752   3.183   1.134  0.9771 -0.4672 -0.2200
  197MOL0     N27099  12.218   2.852   0.984 -0.1137 -0.0457 -0.1185
  197MOL0     N27100  12.127   2.776   1.036  0.2802  0.0211 -0.3455
  197MOL0     C27101  11.285   2.224   1.211  0.1104  0.3731  0.3414
  197MOL0     C27102  11.181   2.224   1.310  0.0447 -0.1788 -0.3468
  197MOL0     C27103  10.848   2.050   1.567 -0.7663 -0.3859 -0.9144
  197MOL0     C27104  10.885   2.079   1.704 -0.3304 -0.7864 -0.3302
  197MOL0     C27105  10.787   2.093   1.797  0.0328 -0.5308 -0.2017
  197MOL0     C27106  10.655   2.072   1.769 -0.0271  0.2605 -0.9551
  197MOL0     O27107  10.568   2.078   1.876  0.1837  0.3242  0.7269
  197MOL0     C27108  10.558   1.963   1.953  0.1265 -0.4458 -0.6945
  197MOL0     C27109  10.420   1.970   2.016 -0.5153  0.3927 -0.5917
  197MOL0     C27110  10.412   2.066   2.142 -0.7637 -0.1348  0.5796
  197MOL0     C27111  10.445   2.209   2.109 -0.3203  0.2824  0.3021
  197MOL0     C27112  10.410   2.295   2.219  0.6585 -0.2326 -0.1430
  197MOL0     C27113  10.372   2.354   2.324 -0.2021  0.7834 -0.6860
  197MOL0     C27114  10.617   2.027   1.646 -0.0033  0.7035 -0.5548
  197MOL0     C27115  10.707   2.024   1.536  0.0493  0.5850 -0.7408
  197MOL0     C27116  10.652   1.990   1.394 -0.3483  0.1192 -0.3175
  197MOL0     H27117  11.252   1.931   1.465  0.7141 -1.8118 -0.8504
  197MOL0     H27118  11.427   1.924   1.272 -1.2565 -0.3878 -1.4716
  197MOL0     H27119  11.470   2.267   0.961  0.5722 -0.3476 -3.0618
  197MOL0     H27120  11.363   2.129   0.942  1.1617 -1.8183 -0.3160
  197MOL0     H27121  11.605   1.996   0.929 -0.7321 -0.4278 -0.8216
  197MOL0     H27122  11.527   2.084   0.793 -0.9329  2.0767 -0.9269
  197MOL0     H27123  11.763   2.092   0.822  1.3822  1.8663  0.2513
  197MOL0     H27124  11.691   2.242   0.797  1.5144  1.2510  1.9357
  197MOL0     H27125  11.691   2.278   1.046 -1.3575 -2.8053 -1.5186
  197MOL0     H27126  11.808   2.147   1.062 -1.4418 -3.6084 -1.9250
  197MOL0     H27127  11.844   2.409   0.903  1.5084 -1.1101 -2.3530
  197MOL0     H27128  11.948   2.270   0.891 -0.1075  1.1917 -0.8560
  197MOL0     H27129  11.875   2.439   1.139 -1.5709 -2.4804  0.0973
  197MOL0     H27130  11.987   2.298   1.152 -0.4405 -0.9953  0.7928
  197MOL0     H27131  12.038   2.516   0.942 -1.8678 -0.9245  0.1583
  197MOL0     H27132  12.134   2.387   0.998  1.1766  1.1033 -2.9639
  197MOL0     H27133  12.038   2.575   1.210 -3.2952  0.4683 -2.7518
  197MOL0     H27134  12.201   2.494   1.197  0.4579 -0.2808  0.4262
  197MOL0     H27135  12.393   2.593   1.063 -0.3087  0.2529  1.7113
  197MOL0     H27136  12.479   2.915   0.903  0.6530 -0.3286 -0.8088
  197MOL0     H27137  12.522   2.740   0.888  2.2373  2.0458 -1.6859
  197MOL0     H27138  12.595   2.769   1.139 -1.3770  0.4787  1.2330
  197MOL0     H27139  12.671   2.891   1.040 -1.1150  2.1772 -1.7515
  197MOL0     H27140  12.458   2.935   1.233 -2.8864 -0.3250 -4.0372
  197MOL0     H27141  12.618   2.999   1.237 -1.0588  2.1341  1.1474
  197MOL0     H27142  12.381   3.060   1.059 -1.0380  1.0823  1.2279
  197MOL0     H27143  12.454   3.168   1.172 -1.3485 -0.6609  0.4623
  197MOL0     H27144  12.725   3.140   0.800 -2.4415  1.0411  0.0450
  197MOL0     H27145  13.077   3.055   0.822  0.9470  1.1476  2.3730
  197MOL0     H27146  13.061   3.224   0.757  2.7372 -2.4166 -0.0604
  197MOL0     H27147  12.960   3.099   0.699  1.9413  1.0029 -0.4546
  197MOL0     H27148  13.358   3.108   0.812 -0.5934  4.1338 -0.4408
  197MOL0     H27149  13.601   3.069   0.812  2.1715 -1.0240  0.2831
  197MOL0     H27150  13.811   3.133   0.819  2.5045 -1.8645  1.4592
  197MOL0     H27151  13.779   3.301   0.883 -0.0467 -0.0632  0.6143
  197MOL0     H27152  13.987   3.290   1.018  2.5557  0.6201 -0.9362
  197MOL0     H27153  14.002   3.121   0.993  1.8520  0.9058  0.5067
  197MOL0     H27154  14.068   3.339   0.794  0.2262 -0.4587 -1.3977
  197MOL0     H27155  14.047   3.161   0.752 -0.4671  0.3555 -0.5319
  197MOL0     H27156  14.217   3.109   0.922  0.0042 -0.1619 -2.6397
  197MOL0     H27157  14.227   3.284   0.957 -2.5033  0.3819  1.0106
  197MOL0     H27158  14.277   3.159   0.686  2.0227  1.3858 -1.5105
  197MOL0     H27159  14.295   3.325   0.729  0.1794  1.2791  2.4584
  197MOL0     H27160  14.513   3.164   0.729 -2.3239  1.1668 -1.8079
  197MOL0     H27161  14.471   3.124   0.897  0.9959  1.0517  0.5047
  197MOL0     H27162  14.469   3.348   0.962  0.7832  1.9422 -0.6604
  197MOL0     H27163  14.505   3.400   0.802  2.4264  0.3859  0.6075
  197MOL0     H27164  14.680   3.203   0.966  4.5131 -1.4604 -0.7220
  197MOL0     H27165  14.705   3.386   0.954 -1.0214  0.2752 -0.7452
  197MOL0     H27166  13.599   3.251   1.208  1.0072 -0.9185  1.1252
  197MOL0     H27167  13.362   3.285   1.191 -1.3319 -0.5713 -0.1707
  197MOL0     H27168  12.919   3.196   1.249  0.7969 -1.5067 -0.3967
  197MOL0     H27169  12.693   3.204   1.223  1.4754 -1.7876  0.4552
  197MOL0     H27170  11.293   2.312   1.149 -0.8821  0.6860  0.6282
  197MOL0     H27171  11.115   2.303   1.342 -1.8998 -1.0458 -1.9705
  197MOL0     H27172  10.983   2.110   1.738 -0.3418 -0.8212 -0.2638
  197MOL0     H27173  10.798   2.100   1.905  1.1511  0.4334 -0.3668
  197MOL0     H27174  10.574   1.877   1.887  2.7379 -0.2867 -0.3674
  197MOL0     H27175  10.629   1.955   2.036 -0.2835  1.3723 -0.1186
  197MOL0     H27176  10.383   1.871   2.045 -1.2984  1.0953  0.9104
  197MOL0     H27177  10.350   2.005   1.940 -4.3034 -0.5961  2.1549
  197MOL0     H27178  10.318   2.061   2.197 -0.4684 -0.0719  1.0984
  197MOL0     H27179  10.482   2.024   2.215  0.2225  1.8157  0.8289
  197MOL0     H27180  10.379   2.229   2.024  2.2701  0.4766 -1.7967
  197MOL0     H27181  10.551   2.223   2.088 -0.4575  0.5158 -0.2573
  197MOL0     H27182  10.343   2.412   2.409 -1.8266 -0.7241 -0.1418
  197MOL0     H27183  10.512   2.008   1.624  0.6252  0.2903 -3.7812
  197MOL0     H27184  10.683   2.069   1.326 -0.5849  0.2130 -0.3185
  197MOL0     H27185  10.677   1.888   1.365 -3.0222 -0.5840 -0.4451
  197MOL0     H27186  10.543   1.993   1.394 -0.4285 -1.7292 -0.6512
  198MOL0     O27187   7.664   9.205   5.971 -0.1631  0.1181  0.2312
  198MOL0     C27188   7.597   9.284   6.032 -0.7566  0.1757  0.2890
  198MOL0     O27189   7.624   9.329   6.163 -0.3485  0.0423 -0.1062
  198MOL0     C27190   7.743   9.309   6.222  0.1666  0.0332  0.3087
  198MOL0     C27191   7.758   9.235   6.340 -0.4173 -0.3819  0.2870
  198MOL0     C27192   7.882   9.211   6.397  0.4422 -0.2986 -0.2298
  198MOL0     C27193   7.990   9.264   6.334 -0.1771  0.9017  1.0088
  198MOL0     O27194   8.108   9.249   6.399 -0.6665 -0.3647 -1.0274
  198MOL0     C27195   8.210   9.347   6.372 -0.0281  0.8260 -0.3523
  198MOL0     C27196   8.318   9.342   6.482  0.3404  0.5410 -0.3921
  198MOL0     C27197   8.445   9.420   6.443 -0.0095 -0.4497 -0.2029
  198MOL0     C27198   8.541   9.410   6.565 -0.0718 -0.5732  0.1702
  198MOL0     C27199   8.683   9.451   6.526  0.3532  0.8138  0.1695
  198MOL0     C27200   8.781   9.476   6.644 -0.0973  1.3935 -0.0212
  198MOL0     C27201   8.912   9.516   6.596 -0.3588 -0.6122 -0.2540
  198MOL0     C27202   9.002   9.527   6.724  0.9603  0.3140  0.0735
  198MOL0     N27203   9.147   9.497   6.704 -0.5993 -0.1098  0.9260
  198MOL0     C27204   9.216   9.493   6.582  0.4277 -0.2379  0.3764
  198MOL0     C27205   9.333   9.436   6.611 -0.1100  0.0636  0.6048
  198MOL0     C27206   9.450   9.426   6.520 -0.0724 -0.4995 -0.0372
  198MOL0     C27207   9.422   9.334   6.400 -0.2121 -0.4674  0.4222
  198MOL0     C27208   9.511   9.365   6.280 -0.3216  0.0131  0.4957
  198MOL0     C27209   9.675   9.395   6.298  1.0538 -0.4470 -0.7375
  198MOL0     O27210   9.726   9.448   6.178  0.3074 -0.7366  0.0552
  198MOL0     C27211   9.860   9.424   6.146 -0.2144 -0.4979 -1.1111
  198MOL0     C27212   9.902   9.447   6.014  0.1445 -0.0525  0.2605
  198MOL0     C27213  10.033   9.427   5.974  0.0628  0.8076  0.0801
  198MOL0     C27214  10.055   9.434   5.827 -0.4490  0.9447  0.3852
  198MOL0     C27215  10.141   9.410   6.072 -0.2001  0.6220 -0.4446
  198MOL0     C27216  10.285   9.424   6.039 -0.6705  0.4851  0.0543
  198MOL0     O27217  10.326   9.445   5.917 -0.8118 -0.2465  0.5961
  198MOL0     C27218  10.461   9.449   5.878 -0.3871 -0.2843 -1.9019
  198MOL0     C27219  10.518   9.340   5.815 -0.3625 -0.7763 -0.3822
  198MOL0     C27220  10.653   9.323   5.806  0.6177  1.1404 -0.0126
  198MOL0     C27221  10.738   9.418   5.843  0.2548 -0.0610 -0.2976
  198MOL0     O27222  10.874   9.401   5.832 -0.6487 -0.6207 -0.2288
  198MOL0     C27223  10.922   9.282   5.901  0.3540 -0.2331  0.4673
  198MOL0     C27224  11.039   9.322   5.993  0.1860 -0.5919  0.3195
  198MOL0     C27225  11.170   9.312   5.920  0.4356 -0.1110  0.3583
  198MOL0     C27226  11.284   9.386   5.983  0.2868 -0.5525  1.0264
  198MOL0     C27227  11.418   9.348   5.922  0.2239 -0.9865 -0.4362
  198MOL0     C27228  11.538   9.381   6.021 -0.0271 -0.1112 -0.7117
  198MOL0     C27229  11.555   9.531   6.022 -0.5987  0.1013  0.9198
  198MOL0     C27230  11.673   9.575   6.101  0.3511 -0.3325  0.8490
  198MOL0    Cl27231  11.692   9.756   6.069 -0.3696  0.7917 -0.2987
  198MOL0     C27232  10.688   9.543   5.901  0.4510  0.0503  0.0165
  198MOL0     C27233  10.549   9.558   5.922  0.1651  0.1795 -0.1075
  198MOL0     O27234  10.358   9.423   6.135  0.9499 -0.0024 -0.0940
  198MOL0     C27235  10.087   9.399   6.206 -0.0770  0.5151  0.1079
  198MOL0     C27236   9.955   9.400   6.246 -0.1704  0.3142  0.2277
  198MOL0     N27237   9.346   9.425   6.748  0.6533  0.5328 -0.1356
  198MOL0     N27238   9.236   9.457   6.796 -0.3480  0.3691 -0.9199
  198MOL0     C27239   7.979   9.353   6.227  0.9461 -0.2473 -0.0021
  198MOL0     C27240   7.855   9.375   6.174 -0.0659  0.2395 -0.5340
  198MOL0     C27241   7.462   9.315   5.970 -0.2002 -0.0752  0.0453
  198MOL0     C27242   7.352   9.299   6.055  0.5918  0.7517 -0.3141
  198MOL0     C27243   7.221   9.345   6.009 -0.1626  0.7129 -0.3759
  198MOL0     C27244   7.200   9.394   5.881 -0.6748  0.5726 -0.8246
  198MOL0     O27245   7.079   9.443   5.827 -0.7401 -0.3481 -0.1907
  198MOL0     C27246   6.958   9.458   5.906  0.2113 -0.2178 -0.0544
  198MOL0     C27247   6.841   9.494   5.799 -0.0589  0.1459  0.0655
  198MOL0     C27248   6.706   9.541   5.856  0.6277  0.0910 -0.4924
  198MOL0     C27249   6.616   9.600   5.746 -0.5424  0.0470 -0.3264
  198MOL0     C27250   6.474   9.613   5.789 -0.4844 -0.2539 -0.2172
  198MOL0     C27251   6.359   9.616   5.828  1.0411  0.0953  0.5031
  198MOL0     C27252   7.311   9.390   5.793 -0.3947 -0.4085  0.5021
  198MOL0     C27253   7.443   9.342   5.829  0.0450  0.1459 -0.3515
  198MOL0     C27254   7.551   9.338   5.721  0.5733 -0.2746 -0.4654
  198MOL0     H27255   7.668   9.201   6.391  0.0993 -1.7847  0.3324
  198MOL0     H27256   7.886   9.156   6.491  0.1466  1.6845  0.9992
  198MOL0     H27257   8.175   9.450   6.374  0.2529  0.9646  2.6946
  198MOL0     H27258   8.252   9.323   6.274 -1.1382  0.5031 -0.7575
  198MOL0     H27259   8.281   9.399   6.568  0.5097 -0.5223  0.4004
  198MOL0     H27260   8.338   9.236   6.501 -0.9637  0.1629 -1.0230
  198MOL0     H27261   8.478   9.365   6.354 -0.2281  0.1456 -0.6579
  198MOL0     H27262   8.418   9.524   6.424 -0.2103  0.3381  3.5518
  198MOL0     H27263   8.519   9.489   6.638  3.4829  1.0463 -0.2983
  198MOL0     H27264   8.537   9.324   6.632 -1.8330  1.1610  2.4374
  198MOL0     H27265   8.678   9.540   6.463  2.0734 -0.3486 -1.7214
  198MOL0     H27266   8.724   9.376   6.458  1.9518 -0.7588  2.7168
  198MOL0     H27267   8.739   9.549   6.714 -2.7226  1.2432 -1.3245
  198MOL0     H27268   8.794   9.379   6.692  0.8878  1.3730 -0.3078
  198MOL0     H27269   8.916   9.611   6.543 -0.6945 -1.2514 -1.4705
  198MOL0     H27270   8.947   9.439   6.526 -2.0004  0.3524 -2.2409
  198MOL0     H27271   8.988   9.622   6.776 -0.2691  0.3072 -0.1945
  198MOL0     H27272   8.962   9.450   6.791 -0.3226  2.2278  1.6281
  198MOL0     H27273   9.180   9.519   6.483 -1.9053 -2.1997  0.6127
  198MOL0     H27274   9.530   9.381   6.579  0.5944 -0.5171 -0.9442
  198MOL0     H27275   9.479   9.525   6.485 -0.1276 -1.4077 -2.9571
  198MOL0     H27276   9.441   9.229   6.421 -0.5568 -0.8743 -1.1769
  198MOL0     H27277   9.317   9.327   6.370  0.8110 -2.2039 -3.3258
  198MOL0     H27278   9.508   9.273   6.219 -0.2189 -0.0691  0.6148
  198MOL0     H27279   9.465   9.449   6.227  1.4273  0.2133 -0.8001
  198MOL0     H27280   9.684   9.469   6.378  0.6234 -0.7312 -0.4196
  198MOL0     H27281   9.738   9.309   6.324  3.1019  0.9238 -0.9132
  198MOL0     H27282   9.822   9.465   5.943 -1.0313 -1.1945  1.2480
  198MOL0     H27283  10.097   9.532   5.800 -2.4214  2.1576  1.4772
  198MOL0     H27284   9.960   9.427   5.773 -0.3196  2.6625 -0.1309
  198MOL0     H27285  10.115   9.349   5.792 -2.3485  0.2012 -1.2472
  198MOL0     H27286  10.448   9.266   5.779 -0.1441 -0.2566 -1.9547
  198MOL0     H27287  10.690   9.232   5.760 -0.1663 -0.7139  2.8238
  198MOL0     H27288  10.845   9.250   5.971 -0.7386 -1.2094 -1.1098
  198MOL0     H27289  10.958   9.204   5.833  1.2162  1.1200 -0.6878
  198MOL0     H27290  11.021   9.424   6.030  2.9374  0.8899 -1.9931
  198MOL0     H27291  11.033   9.254   6.078 -0.6920 -1.3514 -0.3227
  198MOL0     H27292  11.147   9.353   5.821 -2.3608  2.3418  1.8481
  198MOL0     H27293  11.195   9.206   5.910  0.5375 -0.1057  0.5468
  198MOL0     H27294  11.289   9.355   6.087 -2.9869 -1.0109  1.1748
  198MOL0     H27295  11.281   9.495   5.983  1.2921 -0.5148  0.6134
  198MOL0     H27296  11.414   9.241   5.900 -2.8382 -1.1461  0.4042
  198MOL0     H27297  11.438   9.403   5.829  2.9020  0.6393  0.9881
  198MOL0     H27298  11.628   9.327   5.990  0.9292 -0.5536  2.5547
  198MOL0     H27299  11.523   9.348   6.124 -3.9009  4.4758  0.5928
  198MOL0     H27300  11.467   9.580   6.065 -1.0186 -1.3292  1.7646
  198MOL0     H27301  11.565   9.563   5.918 -0.8117  1.5586  1.3324
  198MOL0     H27302  11.759   9.517   6.066  0.2241 -1.5497  2.4792
  198MOL0     H27303  11.662   9.552   6.207  1.7030 -1.9382  0.6776
  198MOL0     H27304  10.761   9.618   5.931  0.6999  1.1404 -2.9266
  198MOL0     H27305  10.502   9.637   5.979 -0.7164  0.0930 -0.6921
  198MOL0     H27306  10.155   9.381   6.289 -0.9152  1.5329  1.0456
  198MOL0     H27307   9.927   9.392   6.351  2.7997 -1.3374  1.0029
  198MOL0     H27308   8.058   9.406   6.173 -1.3940  0.9566 -2.4632
  198MOL0     H27309   7.844   9.436   6.084 -1.0246  1.7241  0.5412
  198MOL0     H27310   7.355   9.261   6.156 -0.9901 -0.4831 -0.6820
  198MOL0     H27311   7.144   9.343   6.085  2.9637  1.5222  3.1676
  198MOL0     H27312   6.936   9.359   5.946  1.5147 -0.5598 -0.1570
  198MOL0     H27313   6.964   9.532   5.986  3.9368 -0.8636  0.4244
  198MOL0     H27314   6.822   9.407   5.737  1.8520  0.7950 -1.5406
  198MOL0     H27315   6.882   9.565   5.727  0.3214  0.0564  0.1882
  198MOL0     H27316   6.662   9.468   5.923 -2.3188  2.5337  0.4640
  198MOL0     H27317   6.734   9.620   5.926 -1.7231 -0.8859  1.7083
  198MOL0     H27318   6.630   9.540   5.656 -2.1315 -0.7423 -0.0897
  198MOL0     H27319   6.650   9.702   5.727 -3.8591  1.0459 -1.6848
  198MOL0     H27320   6.262   9.618   5.873  1.3385  0.6690  1.1334
  198MOL0     H27321   7.297   9.433   5.694  1.8849  1.0714  0.7240
  198MOL0     H27322   7.630   9.408   5.752 -0.4381  0.1196  1.4205
  198MOL0     H27323   7.584   9.236   5.706 -0.0249 -0.4983 -0.3185
  198MOL0     H27324   7.500   9.376   5.632 -0.9801  3.1853  1.6343
  199MOL0     O27325   5.061   7.855  11.341 -0.1973  1.0901  0.5601
  199MOL0     C27326   4.994   7.934  11.395  0.1148 -0.3393  0.4273
  199MOL0     O27327   5.041   8.027  11.487 -0.4756  0.3904  0.5035
  199MOL0     C27328   5.144   7.992  11.571  0.1960  0.4851 -0.3732
  199MOL0     C27329   5.274   7.981  11.523 -0.3890 -0.1235  0.5116
  199MOL0     C27330   5.377   7.949  11.614  0.5240  0.5131 -0.2806
  199MOL0     C27331   5.348   7.926  11.754  0.1947  0.3517  0.8944
  199MOL0     O27332   5.436   7.902  11.851  0.7378 -0.2121 -0.0369
  199MOL0     C27333   5.574   7.891  11.817  0.7484 -0.7679  0.5746
  199MOL0     C27334   5.651   7.833  11.941 -1.1022  0.1948  1.2574
  199MOL0     C27335   5.793   7.782  11.905 -0.1398 -0.6746  0.6358
  199MOL0     C27336   5.882   7.802  12.013 -0.4563  0.8431 -0.0218
  199MOL0     C27337   6.009   7.718  11.993 -0.1903  0.1834 -1.0487
  199MOL0     C27338   6.094   7.733  11.867 -0.3278 -0.0737 -0.0770
  199MOL0     C27339   6.217   7.656  11.886 -0.5964  0.5012 -0.6523
  199MOL0     C27340   6.333   7.702  11.797 -0.0860  0.1336  0.4919
  199MOL0     N27341   6.471   7.668  11.839 -0.2969 -0.1290 -0.6229
  199MOL0     C27342   6.531   7.558  11.904 -0.2626  0.6662  0.4307
  199MOL0     C27343   6.669   7.573  11.897  0.0495 -0.3976  0.5651
  199MOL0     C27344   6.772   7.472  11.954  0.1096 -0.1121  0.9593
  199MOL0     C27345   6.861   7.439  11.841  0.0526 -0.4620 -0.4566
  199MOL0     C27346   6.974   7.340  11.886  0.7927  0.3395 -0.0485
  199MOL0     C27347   7.095   7.412  11.945 -0.6386  0.6447 -0.7273
  199MOL0     O27348   7.158   7.473  11.829  1.1884 -0.9978 -0.4632
  199MOL0     C27349   7.280   7.530  11.831  0.3105  0.2503 -0.0543
  199MOL0     C27350   7.355   7.537  11.713  0.9139 -0.7505 -0.4946
  199MOL0     C27351   7.490   7.590  11.720 -0.0538 -0.0333  0.1189
  199MOL0     C27352   7.571   7.569  11.597 -0.4415 -0.0375 -0.8307
  199MOL0     C27353   7.535   7.658  11.846  0.8123 -0.1428  1.0622
  199MOL0     C27354   7.665   7.737  11.852 -0.0785 -0.1398 -0.1201
  199MOL0     O27355   7.687   7.819  11.958  0.5905 -0.1279 -0.1349
  199MOL0     C27356   7.815   7.865  11.975 -0.3582  0.1711  0.1861
  199MOL0     C27357   7.861   7.970  11.888  0.0036 -0.0975 -0.0307
  199MOL0     C27358   7.986   8.029  11.902  0.5116 -0.0125 -0.1458
  199MOL0     C27359   8.062   7.990  12.008 -0.3832 -0.6659  0.6386
  199MOL0     O27360   8.175   8.060  12.041 -0.1829 -0.8262  0.7068
  199MOL0     C27361   8.280   8.009  12.119 -0.2011 -0.2582 -0.2780
  199MOL0     C27362   8.385   8.119  12.132 -0.6618  0.3338  0.5496
  199MOL0     C27363   8.515   8.074  12.208 -1.0544 -0.1129  0.0548
  199MOL0     C27364   8.619   8.182  12.185  0.0829 -0.0306 -0.5963
  199MOL0     C27365   8.748   8.139  12.250  0.7894 -0.3942  0.4014
  199MOL0     C27366   8.853   8.244  12.226 -0.8340  1.3598  0.0469
  199MOL0     C27367   8.977   8.215  12.306  0.1491 -0.4357 -0.6872
  199MOL0     C27368   9.081   8.313  12.269 -0.2120 -0.5541 -0.3572
  199MOL0    Cl27369   9.068   8.484  12.314  0.2861  0.4743  0.1712
  199MOL0     C27370   8.024   7.897  12.097 -0.0952 -0.2500  1.0179
  199MOL0     C27371   7.898   7.822  12.083 -0.3313 -0.0919 -0.0411
  199MOL0     O27372   7.748   7.709  11.765  0.6979  0.6793 -0.4523
  199MOL0     C27373   7.458   7.647  11.954 -0.1193  0.0672 -0.3639
  199MOL0     C27374   7.333   7.587  11.952 -0.3456  0.5620  0.6396
  199MOL0     N27375   6.685   7.699  11.840  0.1750  0.2377  0.6765
  199MOL0     N27376   6.571   7.748  11.804  0.1201 -0.0930  0.4548
  199MOL0     C27377   5.215   7.942  11.795 -0.6865 -0.1767 -0.1348
  199MOL0     C27378   5.114   7.962  11.707  0.4451 -0.3527  1.1756
  199MOL0     C27379   4.848   7.917  11.386  0.6541  0.5130 -0.0895
  199MOL0     C27380   4.770   7.990  11.471 -0.2969 -0.4086 -0.6299
  199MOL0     C27381   4.633   7.988  11.476 -0.2456  0.2236  0.5330
  199MOL0     C27382   4.565   7.904  11.394  0.2330 -0.0777  0.3864
  199MOL0     O27383   4.428   7.915  11.393  0.3974  0.2792 -0.7774
  199MOL0     C27384   4.371   7.922  11.263  0.5149  0.1633  0.1458
  199MOL0     C27385   4.404   8.049  11.185 -0.6254  0.0923 -0.0652
  199MOL0     C27386   4.366   8.177  11.262 -1.1661 -0.2872 -0.0809
  199MOL0     C27387   4.237   8.169  11.330 -0.0916 -0.0683  0.3906
  199MOL0     C27388   4.181   8.298  11.369  0.2123  0.9976  0.4992
  199MOL0     C27389   4.133   8.401  11.408  0.3550 -0.3472  0.3192
  199MOL0     C27390   4.635   7.827  11.307 -0.3574 -0.0102  0.5886
  199MOL0     C27391   4.775   7.828  11.295  0.3951  0.2356 -0.4840
  199MOL0     C27392   4.840   7.727  11.206  0.5406  0.8722  0.4388
  199MOL0     H27393   5.290   8.005  11.418  0.6195 -0.5604  0.5548
  199MOL0     H27394   5.476   7.929  11.574  0.8662  2.0814 -0.2748
  199MOL0     H27395   5.616   7.990  11.794 -2.0866  0.5903  0.8629
  199MOL0     H27396   5.593   7.832  11.727 -2.6994  0.0996 -0.8568
  199MOL0     H27397   5.658   7.912  12.017  3.1826  2.4371 -1.1263
  199MOL0     H27398   5.592   7.744  11.965 -2.2471 -0.4551 -3.1808
  199MOL0     H27399   5.797   7.676  11.875  0.6524 -0.6876  0.7433
  199MOL0     H27400   5.837   7.836  11.820 -1.0951  1.0519  1.1988
  199MOL0     H27401   5.915   7.906  12.013  0.9444  0.4546  1.6088
  199MOL0     H27402   5.824   7.777  12.103 -2.6427 -0.9928 -1.8223
  199MOL0     H27403   5.986   7.612  12.004  0.7930 -0.4701 -4.1738
  199MOL0     H27404   6.069   7.744  12.080 -3.0548  1.1126  0.7748
  199MOL0     H27405   6.034   7.697  11.784 -2.4603 -1.7529  2.0543
  199MOL0     H27406   6.120   7.834  11.836  2.7206 -0.4293  0.9945
  199MOL0     H27407   6.198   7.549  11.870 -0.5100  0.4117 -0.1714
  199MOL0     H27408   6.251   7.665  11.990  0.9184 -1.7895 -0.8772
  199MOL0     H27409   6.321   7.678  11.691 -2.7361 -0.3688  0.8248
  199MOL0     H27410   6.329   7.811  11.807 -1.8988  0.2121 -0.6380
  199MOL0     H27411   6.483   7.467  11.938 -0.4559  0.3030 -0.7861
  199MOL0     H27412   6.714   7.389  11.995  3.3480 -3.4377 -0.6325
  199MOL0     H27413   6.820   7.523  12.038  3.6530 -1.4626 -0.0905
  199MOL0     H27414   6.799   7.392  11.764 -1.7633  1.2630 -0.1362
  199MOL0     H27415   6.911   7.531  11.808  5.4414 -2.2858  1.4633
  199MOL0     H27416   6.923   7.281  11.962 -0.8919  0.5643 -0.9515
  199MOL0     H27417   7.012   7.280  11.804 -1.5390 -1.2727 -0.0467
  199MOL0     H27418   7.069   7.488  12.019 -2.3047 -0.0113 -0.5900
  199MOL0     H27419   7.168   7.338  11.980  1.0976  1.7281 -1.9017
  199MOL0     H27420   7.314   7.502  11.618  0.3409  1.2999 -1.0581
  199MOL0     H27421   7.514   7.536  11.509 -0.9727  2.8460 -1.6853
  199MOL0     H27422   7.652   7.496  11.607 -1.2745 -0.8714 -0.0345
  199MOL0     H27423   7.609   7.670  11.576  0.2196 -0.4467 -1.6848
  199MOL0     H27424   7.797   7.987  11.802 -0.5497 -0.5320  0.2881
  199MOL0     H27425   8.018   8.112  11.840 -2.7606 -0.3326 -2.5032
  199MOL0     H27426   8.239   7.982  12.217 -0.6255 -3.1254 -1.1624
  199MOL0     H27427   8.327   7.919  12.078 -0.5230 -0.9872  0.9052
  199MOL0     H27428   8.411   8.157  12.033  1.4620  1.4194  1.4566
  199MOL0     H27429   8.348   8.203  12.192 -3.5633 -0.8982  0.6478
  199MOL0     H27430   8.546   7.974  12.177  0.2483 -0.8169  3.2364
  199MOL0     H27431   8.492   8.054  12.313  0.3138  0.5973  0.5168
  199MOL0     H27432   8.582   8.281  12.214 -3.5104 -0.5712 -2.7033
  199MOL0     H27433   8.646   8.192  12.079  1.2219  3.3712 -0.1128
  199MOL0     H27434   8.750   8.133  12.359 -0.0794  2.3405  0.6483
  199MOL0     H27435   8.772   8.042  12.206  0.7144 -0.9783  1.6110
  199MOL0     H27436   8.825   8.348  12.244  0.9408  1.7745  0.6574
  199MOL0     H27437   8.882   8.232  12.121  1.1817 -0.5586  0.7294
  199MOL0     H27438   9.007   8.112  12.282  1.1831 -0.6453  1.2965
  199MOL0     H27439   8.947   8.216  12.411 -2.1473  1.1659 -1.2862
  199MOL0     H27440   9.092   8.312  12.160 -0.9130  2.0449 -0.5038
  199MOL0     H27441   9.170   8.270  12.317 -0.9475 -3.2681 -1.2220
  199MOL0     H27442   8.083   7.854  12.177  3.6234  0.7166 -0.9634
  199MOL0     H27443   7.871   7.745  12.154  1.4451  0.9489  1.8577
  199MOL0     H27444   7.485   7.701  12.045  1.4166 -0.4854 -0.4655
  199MOL0     H27445   7.274   7.591  12.043 -0.8990  3.5347  0.2592
  199MOL0     H27446   5.185   7.933  11.899 -0.1551  1.7508  0.2101
  199MOL0     H27447   5.009   7.975  11.731  0.2599  3.0018 -0.7501
  199MOL0     H27448   4.818   8.052  11.546 -0.0285 -3.4255  1.8815
  199MOL0     H27449   4.579   8.058  11.538  0.1125  1.8711 -0.9128
  199MOL0     H27450   4.401   7.842  11.195  1.6901  0.7087  0.0056
  199MOL0     H27451   4.262   7.922  11.270  0.2594 -2.6415 -2.1117
  199MOL0     H27452   4.370   8.049  11.081  1.1666  1.3191 -0.6976
  199MOL0     H27453   4.511   8.046  11.164 -0.5081  2.2177 -0.0367
  199MOL0     H27454   4.446   8.202  11.333  0.3075  1.9382 -2.3550
  199MOL0     H27455   4.371   8.256  11.187  0.3071  1.7567  2.0347
  199MOL0     H27456   4.224   8.098  11.411 -2.0732  1.3150  1.3603
  199MOL0     H27457   4.170   8.141  11.248 -0.3065  4.6881 -1.3853
  199MOL0     H27458   4.080   8.488  11.440  0.4875  0.0078 -0.4060
  199MOL0     H27459   4.577   7.766  11.239 -1.7765 -0.3730  2.0731
  199MOL0     H27460   4.933   7.689  11.249 -0.3538 -2.8628 -0.5985
  199MOL0     H27461   4.782   7.634  11.198  0.5820  0.8769  0.0934
  199MOL0     H27462   4.851   7.761  11.103 -0.5730 -0.6069 -0.1996
  200MOL0     O27463  10.596   5.585   7.916 -0.4017 -0.5493 -0.1004
  200MOL0     C27464  10.648   5.488   7.866  0.8585  0.6044  0.7517
  200MOL0     O27465  10.778   5.471   7.844  0.1831 -0.6092 -0.0663
  200MOL0     C27466  10.859   5.558   7.916 -0.1134 -0.3175 -0.3950
  200MOL0     C27467  10.958   5.636   7.845  0.2297  1.0290  0.1841
  200MOL0     C27468  11.054   5.694   7.920 -1.0805  0.3274  0.1842
  200MOL0     C27469  11.051   5.693   8.060 -0.6657  0.0684  0.1575
  200MOL0     O27470  11.145   5.757   8.144 -0.1903 -0.1444 -0.4152
  200MOL0     C27471  11.277   5.698   8.141 -0.2785 -1.2480  0.0250
  200MOL0     C27472  11.363   5.781   8.230  0.4173  0.3636 -0.0265
  200MOL0     C27473  11.495   5.719   8.271  0.8757  1.0256 -0.2842
  200MOL0     C27474  11.577   5.797   8.363  0.5207  0.5020 -0.6693
  200MOL0     C27475  11.726   5.737   8.361  0.0541 -0.2187  0.7089
  200MOL0     C27476  11.817   5.801   8.464 -0.4723 -0.2475  1.0470
  200MOL0     C27477  11.957   5.745   8.453  0.1018  0.2039 -0.1628
  200MOL0     C27478  12.062   5.800   8.548 -0.4191 -0.3671 -1.2418
  200MOL0     N27479  12.173   5.710   8.562  0.2189 -0.1579  0.4580
  200MOL0     C27480  12.279   5.705   8.482 -0.3562  0.5269  0.3094
  200MOL0     C27481  12.366   5.612   8.535 -0.1271  0.6675 -0.1948
  200MOL0     C27482  12.494   5.556   8.490 -0.1603  0.1025 -0.7545
  200MOL0     C27483  12.517   5.411   8.542  0.0014  0.3778  0.0288
  200MOL0     C27484  12.662   5.369   8.511 -0.5345 -0.0845  0.2224
  200MOL0     C27485  12.693   5.239   8.582 -0.5541  0.3114 -0.4414
  200MOL0     O27486  12.746   5.262   8.718 -0.1725  0.6768 -0.1020
  200MOL0     C27487  12.878   5.287   8.740  0.2068 -0.8073 -1.2548
  200MOL0     C27488  12.900   5.352   8.856  0.3596 -0.1043 -0.2370
  200MOL0     C27489  13.023   5.390   8.897  0.0687 -0.5494 -0.3374
  200MOL0     C27490  13.041   5.470   9.020 -0.0908  0.1557  0.1740
  200MOL0     C27491  13.136   5.363   8.812 -0.4575 -0.8762  0.3814
  200MOL0     C27492  13.276   5.424   8.829  0.4136  0.1038 -0.1079
  200MOL0     O27493  13.376   5.351   8.776 -0.5235 -0.4510  0.2106
  200MOL0     C27494  13.502   5.407   8.787 -0.2348  0.5609 -0.6158
  200MOL0     C27495  13.592   5.337   8.871  0.5038  0.0153 -0.5548
  200MOL0     C27496  13.722   5.379   8.892 -0.5310 -0.1547 -0.2696
  200MOL0     C27497  13.771   5.495   8.827  0.5704  0.0684 -0.1058
  200MOL0     O27498  13.905   5.536   8.858  1.1780  0.3720 -0.4858
  200MOL0     C27499  13.949   5.668   8.816  1.5361  0.8149 -0.2408
  200MOL0     C27500  14.000   5.666   8.676  0.6260 -0.6765 -0.1784
  200MOL0     C27501  14.076   5.794   8.641 -0.4310 -0.4979 -1.0579
  200MOL0     C27502  14.000   5.927   8.656 -0.4849  0.3099 -0.3410
  200MOL0     C27503  13.877   5.939   8.575  0.3811 -0.3313  1.0296
  200MOL0     C27504  13.822   6.077   8.605 -0.3510 -0.6842  0.3926
  200MOL0     C27505  13.704   6.113   8.517  0.7326  0.3529  0.3093
  200MOL0     C27506  13.675   6.260   8.518 -0.4699  0.5265  0.2806
  200MOL0    Cl27507  13.803   6.350   8.445  0.0625 -0.4473  0.5331
  200MOL0     C27508  13.680   5.559   8.733  0.5321  0.2049  0.6689
  200MOL0     C27509  13.541   5.520   8.713 -0.3056  0.3456 -0.2215
  200MOL0     O27510  13.284   5.542   8.875 -0.4536  0.1865 -0.2186
  200MOL0     C27511  13.110   5.304   8.686 -0.6606 -0.2558 -0.6792
  200MOL0     C27512  12.982   5.264   8.652 -0.3004  1.1523 -0.0339
  200MOL0     N27513  12.304   5.568   8.651  0.4583  0.0958  0.7684
  200MOL0     N27514  12.190   5.627   8.661  0.6837  0.4345  0.1048
  200MOL0     C27515  10.952   5.614   8.121 -0.1332 -0.4137  0.3292
  200MOL0     C27516  10.854   5.543   8.054  0.6938 -0.4364 -0.0726
  200MOL0     C27517  10.567   5.393   7.797 -0.0987  0.5400  0.9031
  200MOL0     C27518  10.630   5.311   7.699 -0.6237  0.9662  0.0414
  200MOL0     C27519  10.560   5.210   7.639  0.7637 -0.2082  0.7734
  200MOL0     C27520  10.429   5.173   7.668  0.6405 -0.2544  0.1471
  200MOL0     O27521  10.383   5.060   7.602 -0.1067  0.3730  0.2217
  200MOL0     C27522  10.250   5.051   7.579  0.7913 -0.3790 -0.9427
  200MOL0     C27523  10.224   4.929   7.487  0.0642 -0.5669  0.0232
  200MOL0     C27524  10.079   4.885   7.473  0.2778 -0.2537 -0.1938
  200MOL0     C27525  10.064   4.762   7.390 -0.1209  0.4177  0.0740
  200MOL0     C27526  10.122   4.647   7.459 -0.6416 -0.1517 -0.7280
  200MOL0     C27527  10.173   4.548   7.520 -0.5899 -0.9305  0.3455
  200MOL0     C27528  10.368   5.251   7.763 -0.6730 -0.0565  0.7045
  200MOL0     C27529  10.434   5.359   7.830  0.4462  0.0514  0.0863
  200MOL0     C27530  10.361   5.426   7.946 -0.1877 -0.0557  0.8211
  200MOL0     H27531  10.969   5.645   7.737  0.6653 -0.0981  0.1195
  200MOL0     H27532  11.143   5.749   7.892  0.0369 -0.8148  1.3730
  200MOL0     H27533  11.326   5.710   8.043 -1.4715  2.4904 -0.2759
  200MOL0     H27534  11.283   5.591   8.165 -1.5351 -1.4635 -0.5374
  200MOL0     H27535  11.375   5.882   8.190  1.2577  1.1566  2.0952
  200MOL0     H27536  11.312   5.788   8.327  1.4747  0.9486  0.5061
  200MOL0     H27537  11.475   5.616   8.301 -0.8868  1.1596 -0.8835
  200MOL0     H27538  11.553   5.704   8.180 -1.9285 -0.3606 -1.9680
  200MOL0     H27539  11.578   5.900   8.329  1.6964  0.3472 -1.1402
  200MOL0     H27540  11.534   5.792   8.463  0.6559  1.8919 -0.5286
  200MOL0     H27541  11.771   5.755   8.263  0.6901 -1.1287  0.8233
  200MOL0     H27542  11.724   5.631   8.388 -0.1919 -0.1097  1.1267
  200MOL0     H27543  11.814   5.910   8.454 -2.5454 -0.1204  2.4958
  200MOL0     H27544  11.792   5.784   8.569  2.5419  0.2685  1.9586
  200MOL0     H27545  11.990   5.741   8.349 -1.6852  0.8020 -0.8004
  200MOL0     H27546  11.953   5.638   8.475  0.9393  0.2843  0.3927
  200MOL0     H27547  12.103   5.899   8.524  0.6097  0.6601  3.6246
  200MOL0     H27548  12.032   5.810   8.653 -2.7356 -0.4804 -1.8378
  200MOL0     H27549  12.286   5.762   8.390 -0.5593  0.6326  0.3583
  200MOL0     H27550  12.576   5.613   8.534 -0.4920  0.2487 -0.3240
  200MOL0     H27551  12.506   5.553   8.381 -1.1781 -0.0641 -0.8684
  200MOL0     H27552  12.494   5.407   8.648  1.5339 -1.9988  0.3449
  200MOL0     H27553  12.454   5.334   8.497 -0.5558 -0.9782  2.9417
  200MOL0     H27554  12.681   5.346   8.406 -0.2078 -0.5790  0.3861
  200MOL0     H27555  12.746   5.435   8.536 -1.1730  0.3709  1.2433
  200MOL0     H27556  12.609   5.170   8.590  0.9360 -1.3806  3.8117
  200MOL0     H27557  12.761   5.186   8.515 -0.7747  2.2600 -2.3383
  200MOL0     H27558  12.817   5.380   8.919  0.0075 -0.4514 -0.5465
  200MOL0     H27559  12.952   5.489   9.081 -0.9216  1.4958 -1.3919
  200MOL0     H27560  13.073   5.572   8.996 -0.3868  0.1738 -0.1630
  200MOL0     H27561  13.116   5.430   9.089  0.3045 -2.0898 -1.4483
  200MOL0     H27562  13.559   5.254   8.933 -2.1892  2.4745  1.6060
  200MOL0     H27563  13.783   5.338   8.971 -0.1358  0.0685 -0.4538
  200MOL0     H27564  13.870   5.744   8.828 -0.1914 -1.0428  0.6885
  200MOL0     H27565  14.032   5.699   8.879  0.2606 -0.1557  2.0122
  200MOL0     H27566  14.073   5.585   8.671  1.6408  0.1046  1.2511
  200MOL0     H27567  13.917   5.650   8.607  0.5747  3.9751 -1.5992
  200MOL0     H27568  14.123   5.790   8.542 -0.3729 -1.4205 -0.9989
  200MOL0     H27569  14.169   5.801   8.698 -1.1414  1.5941 -0.0504
  200MOL0     H27570  14.077   6.000   8.628 -0.2471 -0.4573 -1.7699
  200MOL0     H27571  13.979   5.944   8.762  0.8624  3.4522 -0.4639
  200MOL0     H27572  13.902   5.949   8.469  1.4693 -0.7596  1.2345
  200MOL0     H27573  13.812   5.851   8.577  1.3471 -1.1651 -1.3525
  200MOL0     H27574  13.902   6.152   8.602  0.7711 -1.7798  1.7726
  200MOL0     H27575  13.776   6.089   8.703 -0.3261  0.7636  0.2527
  200MOL0     H27576  13.610   6.067   8.549  0.2611  1.7432  0.9892
  200MOL0     H27577  13.721   6.083   8.413  1.2458  0.7253  0.2839
  200MOL0     H27578  13.666   6.286   8.623 -1.1235  2.4257 -0.2111
  200MOL0     H27579  13.576   6.282   8.475 -2.2887  0.0009  3.8522
  200MOL0     H27580  13.726   5.634   8.668  1.0589 -1.9258 -1.5636
  200MOL0     H27581  13.481   5.574   8.642 -0.9274 -0.0372  0.0047
  200MOL0     H27582  13.188   5.306   8.611 -0.7541  2.0301 -0.8074
  200MOL0     H27583  12.963   5.230   8.551  1.0788 -1.3275  0.4489
  200MOL0     H27584  10.944   5.625   8.229  1.6786  1.1975  0.3615
  200MOL0     H27585  10.774   5.485   8.099 -0.2427 -1.3772 -2.7812
  200MOL0     H27586  10.730   5.332   7.663 -0.7673  0.4766 -0.6588
  200MOL0     H27587  10.612   5.153   7.563 -0.7226 -1.4956  0.6630
  200MOL0     H27588  10.203   5.052   7.677  0.8742  0.5616 -0.9044
  200MOL0     H27589  10.220   5.144   7.530  1.4568  1.4363  1.8932
  200MOL0     H27590  10.280   4.848   7.534  2.7642  1.2769  0.1856
  200MOL0     H27591  10.261   4.959   7.389  0.3177 -3.3375 -0.8195
  200MOL0     H27592  10.033   4.859   7.569 -1.0131 -2.0797 -1.2496
  200MOL0     H27593  10.031   4.976   7.437 -0.6672 -0.3226  0.8337
  200MOL0     H27594  10.127   4.782   7.303  1.5160 -0.3302  1.0373
  200MOL0     H27595   9.965   4.732   7.354 -0.0122 -4.5623  3.0332
  200MOL0     H27596  10.219   4.463   7.566 -1.0082 -1.4879 -0.2472
  200MOL0     H27597  10.275   5.215   7.805 -1.1923  2.1603  1.6355
  200MOL0     H27598  10.266   5.374   7.961 -0.1068 -1.9347 -3.5710
  200MOL0     H27599  10.411   5.439   8.042 -1.8343  1.8663  1.4812
  200MOL0     H27600  10.333   5.527   7.914  3.7278  1.6375  2.0617
  201MOL0     O27601   1.758   8.108   8.076  0.4805  0.0685 -0.1631
  201MOL0     C27602   1.698   8.162   8.169 -0.0887  0.1498  1.0405
  201MOL0     O27603   1.751   8.257   8.262  0.7710 -0.0925 -0.5113
  201MOL0     C27604   1.883   8.269   8.285 -0.3374  0.0405  0.2913
  201MOL0     C27605   1.964   8.191   8.370 -1.2566  0.8871  0.3514
  201MOL0     C27606   2.110   8.204   8.382  0.5978  0.4433  0.4086
  201MOL0     C27607   2.167   8.319   8.323  0.0927  0.4751  0.6630
  201MOL0     O27608   2.299   8.336   8.352  0.0074 -0.8445  0.4457
  201MOL0     C27609   2.363   8.453   8.298 -0.1141 -0.0835  0.0817
  201MOL0     C27610   2.490   8.476   8.377  0.2269  0.2848  0.2105
  201MOL0     C27611   2.461   8.499   8.529 -0.4662  0.0887 -0.4102
  201MOL0     C27612   2.395   8.636   8.557  0.1013  0.3001  1.2551
  201MOL0     C27613   2.377   8.643   8.710  0.0483  0.3382  0.1756
  201MOL0     C27614   2.313   8.778   8.747 -0.2797 -0.3645  0.5792
  201MOL0     C27615   2.254   8.761   8.893  0.4399 -0.4274 -0.2887
  201MOL0     C27616   2.362   8.742   9.008 -0.2342 -0.9279  0.5342
  201MOL0     N27617   2.456   8.852   9.040  0.6745 -0.1142  0.4852
  201MOL0     C27618   2.579   8.873   8.983  0.2353 -0.1189  0.2108
  201MOL0     C27619   2.622   8.992   9.033 -0.1728 -0.4437 -0.0573
  201MOL0     C27620   2.755   9.049   8.999 -0.4394 -0.2944 -0.6850
  201MOL0     C27621   2.839   9.125   9.110 -0.5981  0.0903  0.3804
  201MOL0     C27622   2.985   9.146   9.061 -0.5556  0.0046 -0.2856
  201MOL0     C27623   3.066   9.180   9.178 -0.1444 -0.9576 -0.8464
  201MOL0     O27624   3.202   9.201   9.141 -0.0680 -0.4149  0.7625
  201MOL0     C27625   3.293   9.217   9.251 -1.3689  0.5194  0.7747
  201MOL0     C27626   3.266   9.236   9.387 -0.1672  1.2112  0.4763
  201MOL0     C27627   3.362   9.245   9.485  0.0417  0.6192 -0.1998
  201MOL0     C27628   3.311   9.270   9.627  0.3679 -0.3544 -0.3040
  201MOL0     C27629   3.499   9.231   9.449  0.5078  0.1301  0.0641
  201MOL0     C27630   3.619   9.231   9.540 -0.0236  0.5408 -0.3728
  201MOL0     O27631   3.717   9.146   9.498  0.9243 -0.2087  0.4555
  201MOL0     C27632   3.850   9.171   9.535  0.3139 -0.5309  0.2930
  201MOL0     C27633   3.934   9.063   9.526  0.1347  0.2368 -0.3816
  201MOL0     C27634   4.075   9.065   9.530  0.1058  0.0009  0.0796
  201MOL0     C27635   4.135   9.187   9.573  0.2092  0.3310  0.7056
  201MOL0     O27636   4.271   9.198   9.604 -0.2936 -0.4193 -0.0280
  201MOL0     C27637   4.359   9.146   9.499  0.8496 -0.7152  0.1570
  201MOL0     C27638   4.499   9.178   9.528 -0.3302 -0.4099  0.5957
  201MOL0     C27639   4.589   9.130   9.419 -0.4187  0.5140  0.2954
  201MOL0     C27640   4.750   9.134   9.431 -0.3841 -0.8133  0.1607
  201MOL0     C27641   4.810   9.072   9.298  0.2963  0.3070 -0.3458
  201MOL0     C27642   4.957   9.111   9.286 -0.2248  0.1969 -0.3599
  201MOL0     C27643   5.056   9.029   9.360 -0.0289 -0.0168 -0.6741
  201MOL0     C27644   5.194   9.091   9.364 -0.4909  0.2551 -0.3510
  201MOL0    Cl27645   5.273   9.095   9.195 -0.2100  0.2594  0.1105
  201MOL0     C27646   4.050   9.298   9.587  0.2935 -0.2667 -0.7969
  201MOL0     C27647   3.914   9.292   9.553  0.3247 -0.5622 -0.4532
  201MOL0     O27648   3.623   9.300   9.644 -0.7920  0.4773 -0.4735
  201MOL0     C27649   3.526   9.206   9.312 -0.0470 -0.0762 -0.5467
  201MOL0     C27650   3.425   9.203   9.218 -0.4327 -0.2442  1.1291
  201MOL0     N27651   2.525   9.041   9.121 -0.3263 -0.0471  0.2600
  201MOL0     N27652   2.427   8.964   9.116 -0.2877  0.4797 -0.1833
  201MOL0     C27653   2.092   8.406   8.247  0.6790  0.2593  0.3171
  201MOL0     C27654   1.952   8.376   8.220 -0.2937 -0.2161 -0.3199
  201MOL0     C27655   1.557   8.143   8.167  0.4354 -0.5826  0.1003
  201MOL0     C27656   1.475   8.262   8.188  1.0212 -0.9807  0.6418
  201MOL0     C27657   1.339   8.247   8.203  0.0545  0.5791  0.0903
  201MOL0     C27658   1.277   8.127   8.193 -0.3212 -0.9128 -0.1195
  201MOL0     O27659   1.140   8.104   8.205  0.0414  0.7818 -0.3261
  201MOL0     C27660   1.049   8.208   8.224 -0.4464 -0.6251 -0.0820
  201MOL0     C27661   0.998   8.266   8.092  0.1012 -0.2788  0.1180
  201MOL0     C27662   0.942   8.413   8.106 -0.1222 -0.4299  0.1110
  201MOL0     C27663   0.809   8.420   8.184 -0.3719 -0.3080  0.1147
  201MOL0     C27664   0.807   8.504   8.310 -0.6454 -0.4943  0.0318
  201MOL0     C27665   0.811   8.585   8.411 -0.1482  0.0163  0.3555
  201MOL0     C27666   1.354   8.012   8.169  0.1394 -0.5123 -0.5068
  201MOL0     C27667   1.497   8.016   8.149  0.0702 -0.0434 -0.0262
  201MOL0     C27668   1.572   7.887   8.115  0.1032  1.0468  0.2507
  201MOL0     H27669   1.918   8.093   8.383  1.7387 -1.3822 -3.6261
  201MOL0     H27670   2.173   8.131   8.432  0.3554 -0.0058  0.0630
  201MOL0     H27671   2.309   8.547   8.314  1.0045  0.2372  2.4720
  201MOL0     H27672   2.390   8.434   8.194  0.1700 -4.3053  0.7807
  201MOL0     H27673   2.552   8.386   8.367  1.1482  0.5257  2.8756
  201MOL0     H27674   2.553   8.558   8.343  1.6576  0.0442  2.1343
  201MOL0     H27675   2.408   8.411   8.566 -1.6225 -0.3546 -2.8955
  201MOL0     H27676   2.559   8.501   8.578 -1.0690 -0.5896  0.8489
  201MOL0     H27677   2.453   8.723   8.526 -2.5603  1.4858 -0.7383
  201MOL0     H27678   2.298   8.641   8.506  1.1820 -0.4641 -0.9862
  201MOL0     H27679   2.469   8.616   8.762 -1.8752 -2.3857  2.4859
  201MOL0     H27680   2.310   8.558   8.731 -0.2656  0.7248  0.7752
  201MOL0     H27681   2.384   8.860   8.741 -1.2365  0.4146 -0.5160
  201MOL0     H27682   2.230   8.794   8.678 -1.1447  0.4156  1.7479
  201MOL0     H27683   2.195   8.669   8.891 -0.1480 -0.0639 -0.0869
  201MOL0     H27684   2.180   8.835   8.924  2.5414  1.0040  1.6570
  201MOL0     H27685   2.315   8.713   9.103 -1.3580  1.9103  0.9188
  201MOL0     H27686   2.427   8.656   8.988  0.1189 -0.2268 -1.5601
  201MOL0     H27687   2.642   8.829   8.907  0.4108  1.8323 -0.8430
  201MOL0     H27688   2.737   9.128   8.926  0.5378 -2.8702 -3.9405
  201MOL0     H27689   2.818   8.978   8.944  0.8411  0.4751 -0.2550
  201MOL0     H27690   2.794   9.223   9.128  0.8551  1.0706 -1.0083
  201MOL0     H27691   2.838   9.073   9.206 -1.6972  1.1302  0.9502
  201MOL0     H27692   3.028   9.053   9.023 -0.8686 -0.6277  0.8598
  201MOL0     H27693   3.002   9.232   8.995  3.6481 -0.6723 -0.3454
  201MOL0     H27694   3.031   9.274   9.221 -1.4912 -1.0212 -1.7499
  201MOL0     H27695   3.045   9.103   9.254 -0.4517 -1.4404 -1.4071
  201MOL0     H27696   3.159   9.230   9.404 -0.1037 -3.2624  0.5642
  201MOL0     H27697   3.393   9.260   9.698 -0.9681  0.8397  1.4872
  201MOL0     H27698   3.241   9.195   9.662 -1.5348  0.6962 -1.6880
  201MOL0     H27699   3.276   9.372   9.644 -0.8671 -1.0777  1.7791
  201MOL0     H27700   3.893   8.963   9.521  0.9430 -0.1810  0.8088
  201MOL0     H27701   4.137   8.976   9.521  1.7248  1.1510 -0.5168
  201MOL0     H27702   4.356   9.037   9.501 -2.5800 -0.7350  1.2095
  201MOL0     H27703   4.320   9.175   9.401 -2.2198 -1.1051  1.1407
  201MOL0     H27704   4.515   9.287   9.529 -1.8339 -0.0236 -2.9342
  201MOL0     H27705   4.533   9.131   9.621  0.0448  1.9314  1.7414
  201MOL0     H27706   4.565   9.183   9.326 -2.0395 -3.3065 -1.7233
  201MOL0     H27707   4.570   9.023   9.406  0.3236  0.5666 -1.6435
  201MOL0     H27708   4.788   9.070   9.511  2.9116  0.3931 -0.3109
  201MOL0     H27709   4.783   9.238   9.435  2.2925 -1.4964 -1.4689
  201MOL0     H27710   4.807   8.963   9.306 -0.0455  0.3478  0.1049
  201MOL0     H27711   4.757   9.111   9.212 -0.0476  0.7455  0.0608
  201MOL0     H27712   4.963   9.219   9.301 -0.7782  0.4917 -1.9930
  201MOL0     H27713   4.997   9.102   9.184  3.6260  1.5416  0.8453
  201MOL0     H27714   5.060   8.926   9.325 -0.6160 -0.3482  0.1973
  201MOL0     H27715   5.027   9.006   9.463  0.5927  0.7111 -0.3273
  201MOL0     H27716   5.267   9.039   9.427 -2.3553 -1.4357  0.5115
  201MOL0     H27717   5.183   9.192   9.403 -1.5489  1.7758 -4.0844
  201MOL0     H27718   4.104   9.387   9.617 -0.3710 -0.8558  2.5679
  201MOL0     H27719   3.862   9.387   9.563  2.4791  0.5139  7.1155
  201MOL0     H27720   3.628   9.210   9.274  1.2131 -3.4142  1.9867
  201MOL0     H27721   3.427   9.168   9.115  0.5271  2.4433  0.1297
  201MOL0     H27722   2.125   8.493   8.192 -0.2819 -0.1928 -1.0219
  201MOL0     H27723   1.902   8.449   8.156  2.0141  3.2705  1.5466
  201MOL0     H27724   1.523   8.360   8.190  1.8128 -1.3702  1.8875
  201MOL0     H27725   1.282   8.338   8.218  0.5584  0.8146  0.6039
  201MOL0     H27726   0.968   8.173   8.288 -0.4657  1.0384  0.8693
  201MOL0     H27727   1.098   8.286   8.283  1.8158 -0.8707 -1.4974
  201MOL0     H27728   0.921   8.202   8.049 -0.8492 -0.8683  2.5456
  201MOL0     H27729   1.079   8.282   8.020  0.0738 -1.7037 -0.2468
  201MOL0     H27730   1.021   8.472   8.154  0.5176 -0.4272 -0.9124
  201MOL0     H27731   0.930   8.450   8.004  1.0069 -0.8633 -0.1992
  201MOL0     H27732   0.775   8.320   8.212 -1.9611  0.1850  0.0731
  201MOL0     H27733   0.722   8.449   8.125  0.9772  0.4138 -1.5884
  201MOL0     H27734   0.817   8.665   8.482 -0.9906 -2.8464  3.9664
  201MOL0     H27735   1.302   7.919   8.149 -2.3165  0.6118  0.2490
  201MOL0     H27736   1.642   7.872   8.198  0.9625  2.4487 -0.1886
  201MOL0     H27737   1.507   7.799   8.108 -2.3417  2.6219  1.8025
  201MOL0     H27738   1.619   7.895   8.016 -0.4978 -2.0457 -0.3975
  202MOL0     O27739   7.653   2.617   9.688 -0.4383  0.3653  0.2327
  202MOL0     C27740   7.708   2.509   9.727  0.5509 -1.1796 -0.2975
  202MOL0     O27741   7.846   2.490   9.749 -0.0259  0.8350  0.0641
  202MOL0     C27742   7.926   2.595   9.752  0.1287 -0.1827 -0.4884
  202MOL0     C27743   8.007   2.606   9.865  0.3234  0.7359  0.1920
  202MOL0     C27744   8.093   2.715   9.885 -0.0631  0.1217  0.2486
  202MOL0     C27745   8.088   2.826   9.795 -0.2653  0.6080 -0.0282
  202MOL0     O27746   8.174   2.934   9.814  0.3619  0.0442  0.1992
  202MOL0     C27747   8.192   3.017   9.700 -0.2251 -0.0609  0.0302
  202MOL0     C27748   8.293   3.130   9.729 -0.0516  0.1232 -0.1596
  202MOL0     C27749   8.433   3.063   9.754 -0.0455 -0.2901  0.1052
  202MOL0     C27750   8.539   3.180   9.742  0.2192  0.4196 -0.2591
  202MOL0     C27751   8.670   3.130   9.807  0.8791 -0.5180 -0.5203
  202MOL0     C27752   8.750   3.028   9.719 -0.1840 -0.0966  0.2823
  202MOL0     C27753   8.882   3.004   9.786  0.7328 -0.8277  0.3243
  202MOL0     C27754   8.982   3.125   9.756 -0.2068 -0.0409  0.4318
  202MOL0     N27755   8.996   3.166   9.618 -0.1054 -0.7257  0.5276
  202MOL0     C27756   9.047   3.081   9.521 -0.0119 -0.0284  0.4949
  202MOL0     C27757   9.077   3.157   9.412  0.4348 -0.4694  0.8115
  202MOL0     C27758   9.136   3.105   9.283  1.0853  0.3619 -0.1984
  202MOL0     C27759   9.283   3.138   9.271  0.8559 -0.2390  0.2417
  202MOL0     C27760   9.339   3.076   9.139  0.6897  0.4103 -0.3908
  202MOL0     C27761   9.495   3.077   9.142 -0.0475  0.3208 -0.7850
  202MOL0     O27762   9.543   2.985   9.241 -0.0601  0.3530 -0.8674
  202MOL0     C27763   9.676   2.957   9.220 -0.0750  0.1728 -0.4580
  202MOL0     C27764   9.714   2.841   9.160  0.1293 -0.1079  0.0833
  202MOL0     C27765   9.845   2.809   9.133 -0.0767 -0.3942 -0.6345
  202MOL0     C27766   9.873   2.684   9.061 -0.0628 -0.0773 -0.3844
  202MOL0     C27767   9.952   2.903   9.178  0.3847  0.7898 -0.4586
  202MOL0     C27768  10.092   2.884   9.143  0.1353 -0.4692  0.4724
  202MOL0     O27769  10.173   2.920   9.241  0.4303  0.4044  0.1152
  202MOL0     C27770  10.306   2.888   9.218 -0.5252 -0.0734 -0.6169
  202MOL0     C27771  10.358   2.769   9.261 -0.4786 -0.1207 -0.3069
  202MOL0     C27772  10.495   2.736   9.252 -0.1305  0.4257  0.3451
  202MOL0     C27773  10.584   2.831   9.191  0.6863 -0.1598 -0.8284
  202MOL0     O27774  10.707   2.798   9.155  0.0135 -0.2399 -0.9633
  202MOL0     C27775  10.818   2.889   9.179  0.2688 -1.0245 -0.1468
  202MOL0     C27776  10.943   2.812   9.145  0.8621 -0.3220  0.1990
  202MOL0     C27777  10.980   2.707   9.241 -0.4642  0.0495  0.2475
  202MOL0     C27778  11.118   2.638   9.199  0.0186  0.2541  0.8630
  202MOL0     C27779  11.101   2.515   9.107 -0.3807  0.4317  0.5191
  202MOL0     C27780  11.242   2.484   9.051 -0.7395  0.0949 -0.0292
  202MOL0     C27781  11.228   2.354   8.966  0.2181 -1.1982 -0.2401
  202MOL0     C27782  11.360   2.321   8.891 -0.0618 -0.6183  0.3486
  202MOL0    Cl27783  11.322   2.168   8.816 -0.2337 -0.0682  0.2781
  202MOL0     C27784  10.525   2.955   9.149  0.5498 -0.4780 -0.7433
  202MOL0     C27785  10.395   2.988   9.167  0.4857 -0.0860  0.3806
  202MOL0     O27786  10.123   2.842   9.032 -0.0666  0.0243  0.3210
  202MOL0     C27787   9.911   3.016   9.246 -0.1675  0.2471  0.0180
  202MOL0     C27788   9.777   3.044   9.271  0.1727 -0.2298 -0.1793
  202MOL0     N27789   9.050   3.289   9.438  0.3313  0.0988  0.5002
  202MOL0     N27790   9.005   3.292   9.560  0.3674  0.3963 -0.0789
  202MOL0     C27791   8.010   2.816   9.680 -0.5166  1.1385  0.5032
  202MOL0     C27792   7.932   2.698   9.660  0.1082 -0.3045 -0.1618
  202MOL0     C27793   7.621   2.395   9.731 -0.2235  0.8090 -0.2846
  202MOL0     C27794   7.490   2.406   9.762 -0.5389 -0.0517 -0.2843
  202MOL0     C27795   7.399   2.302   9.777  0.5097  1.0376  0.1175
  202MOL0     C27796   7.442   2.172   9.746  0.3299 -0.5447  0.5150
  202MOL0     O27797   7.371   2.056   9.750  0.3884 -0.3327  0.3180
  202MOL0     C27798   7.231   2.069   9.740  0.3544 -0.2090 -0.0441
  202MOL0     C27799   7.171   1.936   9.706  0.0716 -0.2469  0.0588
  202MOL0     C27800   7.020   1.949   9.693  0.7780 -0.2281 -0.3200
  202MOL0     C27801   6.980   2.004   9.553 -0.7499  1.1269 -0.6586
  202MOL0     C27802   6.835   2.019   9.545 -0.1593  0.4050 -0.7461
  202MOL0     C27803   6.719   2.041   9.532  0.1192 -0.0398  0.2868
  202MOL0     C27804   7.580   2.156   9.726  0.6129 -0.1368  0.4852
  202MOL0     C27805   7.671   2.260   9.726  0.6562 -0.0876 -0.0718
  202MOL0     C27806   7.810   2.220   9.702  0.3154 -0.1538 -0.1242
  202MOL0     H27807   7.998   2.525   9.936  1.0252 -0.8737 -1.4477
  202MOL0     H27808   8.147   2.740   9.976  0.3547 -1.1755  0.3691
  202MOL0     H27809   8.103   3.076   9.675  2.5442  4.4624 -0.3757
  202MOL0     H27810   8.227   2.961   9.614  0.5462  0.5608 -0.0769
  202MOL0     H27811   8.295   3.192   9.639  0.1548 -0.7053 -0.7405
  202MOL0     H27812   8.267   3.180   9.823 -2.7741 -3.2561  1.0838
  202MOL0     H27813   8.430   3.014   9.852  0.0538  2.2008  1.4416
  202MOL0     H27814   8.451   2.991   9.674 -0.3958  2.0632 -2.2299
  202MOL0     H27815   8.543   3.207   9.636 -3.6003 -2.3087 -1.3215
  202MOL0     H27816   8.502   3.269   9.793  0.3535  1.8480 -2.4894
  202MOL0     H27817   8.656   3.103   9.912 -0.3020 -0.1129 -0.5624
  202MOL0     H27818   8.733   3.220   9.811 -0.8861  0.7669 -0.4394
  202MOL0     H27819   8.695   2.934   9.713 -0.1887 -0.0498 -0.5344
  202MOL0     H27820   8.763   3.067   9.617 -1.6891 -0.1513  0.0456
  202MOL0     H27821   8.933   2.917   9.744  1.1651 -0.4985  0.1483
  202MOL0     H27822   8.866   3.019   9.893  1.0742  2.2518  0.0400
  202MOL0     H27823   8.954   3.213   9.814 -0.2767 -0.6396  1.3235
  202MOL0     H27824   9.083   3.102   9.790  0.0232 -0.1225 -0.2758
  202MOL0     H27825   9.062   2.973   9.526  2.3487  0.1820 -0.7979
  202MOL0     H27826   9.080   3.158   9.206  1.2111 -0.0244 -0.5558
  202MOL0     H27827   9.111   2.999   9.284 -1.0394  0.8186  1.6009
  202MOL0     H27828   9.292   3.247   9.268  1.1228 -0.2705 -1.2404
  202MOL0     H27829   9.346   3.103   9.354  3.1874 -1.7962 -2.0091
  202MOL0     H27830   9.291   2.978   9.142 -0.8904  1.1699 -0.1226
  202MOL0     H27831   9.294   3.128   9.055 -0.1447 -1.4877 -1.1673
  202MOL0     H27832   9.536   3.040   9.047  2.1731  1.0633 -0.1658
  202MOL0     H27833   9.538   3.174   9.167 -1.7744  0.7118  0.9474
  202MOL0     H27834   9.636   2.774   9.127  0.5878  0.4537 -2.2935
  202MOL0     H27835   9.935   2.628   9.133  1.4474  3.0443  0.9204
  202MOL0     H27836   9.918   2.703   8.963  0.6284  0.4569  0.0283
  202MOL0     H27837   9.783   2.626   9.037  0.4370 -2.2344  2.3841
  202MOL0     H27838  10.299   2.691   9.308  4.7307 -4.0283  0.7239
  202MOL0     H27839  10.548   2.649   9.289  0.6000  1.5644  2.1076
  202MOL0     H27840  10.813   2.973   9.110 -1.8020 -0.2219  0.8760
  202MOL0     H27841  10.820   2.925   9.283  1.3492  3.6782 -1.5498
  202MOL0     H27842  10.927   2.771   9.045 -0.6363  2.1306 -0.6515
  202MOL0     H27843  11.023   2.886   9.140  0.1958  0.7697  3.4967
  202MOL0     H27844  10.897   2.642   9.271 -2.0659  1.9478  0.0616
  202MOL0     H27845  11.003   2.760   9.333 -0.6087  0.3794  0.0917
  202MOL0     H27846  11.156   2.588   9.289 -0.1823 -0.1359  0.7334
  202MOL0     H27847  11.184   2.713   9.154  0.0194  0.9332  1.9560
  202MOL0     H27848  11.067   2.433   9.171  0.9634 -0.0294  0.6727
  202MOL0     H27849  11.028   2.537   9.028 -1.1971  2.2302  1.6857
  202MOL0     H27850  11.312   2.471   9.135  0.8291 -1.4621 -1.4895
  202MOL0     H27851  11.267   2.571   8.989  0.1146  1.1409  1.6907
  202MOL0     H27852  11.155   2.361   8.885  0.9710  1.6613 -0.7997
  202MOL0     H27853  11.208   2.274   9.038 -2.2665  0.3269  0.8901
  202MOL0     H27854  11.448   2.326   8.956  1.8264 -0.0805 -2.0999
  202MOL0     H27855  11.380   2.401   8.819 -3.2279  1.8632  1.9921
  202MOL0     H27856  10.580   3.032   9.096 -0.9327  0.4779 -0.9390
  202MOL0     H27857  10.359   3.087   9.141  0.1065 -0.7705 -1.9222
  202MOL0     H27858   9.984   3.094   9.266 -0.9383  0.7861  0.8151
  202MOL0     H27859   9.736   3.135   9.313  0.8843 -1.3787  3.3610
  202MOL0     H27860   8.001   2.887   9.598 -1.7009 -2.4193 -2.7555
  202MOL0     H27861   7.870   2.683   9.572 -0.4396  0.4190  0.0945
  202MOL0     H27862   7.455   2.506   9.784  0.3747 -0.1303  1.8712
  202MOL0     H27863   7.295   2.326   9.795  0.8462  3.2666 -0.5149
  202MOL0     H27864   7.199   2.091   9.842 -0.9561 -2.0527 -0.0066
  202MOL0     H27865   7.193   2.145   9.671 -3.1470 -0.8245  1.0495
  202MOL0     H27866   7.190   1.862   9.784 -0.7030 -0.1660  0.3351
  202MOL0     H27867   7.204   1.910   9.605  1.7357 -0.1494  0.5515
  202MOL0     H27868   6.981   1.849   9.716  1.9040 -0.2056  1.9306
  202MOL0     H27869   6.985   2.020   9.769 -1.5975  1.6243 -2.9502
  202MOL0     H27870   7.020   1.927   9.487  2.4864 -1.1215  3.4574
  202MOL0     H27871   7.034   2.097   9.533  0.5792  0.5224  0.0156
  202MOL0     H27872   6.612   2.034   9.522  0.2537 -0.6756 -0.8721
  202MOL0     H27873   7.614   2.056   9.700 -1.6602 -1.1232  1.0919
  202MOL0     H27874   7.822   2.112   9.689 -1.3609 -0.2671 -0.9633
  202MOL0     H27875   7.852   2.275   9.617  1.0697  1.0603  1.0009
  202MOL0     H27876   7.870   2.242   9.791 -0.4851  1.0196  0.1413
  203MOL0     O27877   0.132   5.408   1.053  0.2984 -0.5047  0.7245
  203MOL0     C27878   0.047   5.323   1.020 -0.4402 -0.2083 -0.5299
  203MOL0     O27879   0.073   5.204   0.968  0.1127 -0.3530 -0.4080
  203MOL0     C27880   0.204   5.163   0.979  1.0550  0.3209 -0.4974
  203MOL0     C27881   0.289   5.167   0.874 -0.5662  0.2002 -0.1829
  203MOL0     C27882   0.426   5.145   0.890  0.3744 -0.2987 -0.4969
  203MOL0     C27883   0.479   5.116   1.021  0.9358 -0.5422 -0.6719
  203MOL0     O27884   0.610   5.094   1.041 -0.1171  0.4570 -0.1143
  203MOL0     C27885   0.697   5.093   0.927 -0.2153 -0.0611  0.2936
  203MOL0     C27886   0.852   5.109   0.962  0.7227 -0.7604  0.0741
  203MOL0     C27887   0.876   5.249   1.011  0.6513 -0.2245  1.1833
  203MOL0     C27888   1.025   5.278   1.030  0.2210  0.1755  0.3612
  203MOL0     C27889   1.049   5.430   1.042 -0.9786 -0.3494 -0.4829
  203MOL0     C27890   0.975   5.495   1.158 -0.2303  0.3093  0.8409
  203MOL0     C27891   1.025   5.634   1.177 -0.6282  0.2889 -0.1758
  203MOL0     C27892   0.946   5.697   1.297 -0.3043  0.4588 -0.5958
  203MOL0     N27893   0.808   5.707   1.271  0.0228 -0.4173  0.1307
  203MOL0     C27894   0.704   5.631   1.313 -1.1207  0.1669 -0.1904
  203MOL0     C27895   0.594   5.700   1.271 -0.1779 -0.1984  0.1214
  203MOL0     C27896   0.453   5.656   1.283  0.2796  0.3101 -0.9409
  203MOL0     C27897   0.426   5.526   1.221 -0.3738 -0.2852  0.8282
  203MOL0     C27898   0.505   5.495   1.085  0.2245  0.4814  0.5330
  203MOL0     C27899   0.440   5.579   0.967 -0.1304  0.2982  0.1639
  203MOL0     O27900   0.477   5.537   0.835  0.8381  0.2669 -0.5738
  203MOL0     C27901   0.604   5.562   0.786  0.6812 -0.6456  0.1022
  203MOL0     C27902   0.689   5.662   0.840 -0.3516 -0.3215 -0.3507
  203MOL0     C27903   0.816   5.694   0.777  0.4624  0.7354  0.8498
  203MOL0     C27904   0.904   5.787   0.851  0.2864  0.0207  0.0404
  203MOL0     C27905   0.864   5.627   0.664  0.1465 -0.6260 -0.6226
  203MOL0     C27906   1.003   5.637   0.606  0.2383 -0.3166  0.8595
  203MOL0     O27907   1.106   5.695   0.670 -0.3288 -0.6589 -0.1534
  203MOL0     C27908   1.239   5.700   0.626  0.6532  0.9377 -0.4748
  203MOL0     C27909   1.298   5.628   0.517  0.1051  0.0891 -0.4865
  203MOL0     C27910   1.430   5.643   0.481  0.1008  0.5369  0.1100
  203MOL0     C27911   1.523   5.718   0.558  0.0581 -0.1456 -0.1856
  203MOL0     O27912   1.660   5.710   0.532 -0.3342 -0.1044 -0.2494
  203MOL0     C27913   1.761   5.777   0.606 -0.3697 -0.0555 -0.8113
  203MOL0     C27914   1.906   5.753   0.547 -0.2159 -0.1267  0.5662
  203MOL0     C27915   2.009   5.755   0.654  0.3299  0.0420  0.4523
  203MOL0     C27916   2.022   5.898   0.722  0.6052  0.8162 -0.0706
  203MOL0     C27917   2.099   5.900   0.854  0.9898  0.3851 -0.2985
  203MOL0     C27918   2.134   6.041   0.892  0.1364 -0.7221 -0.0937
  203MOL0     C27919   2.006   6.125   0.917 -0.5909  0.1234  0.5292
  203MOL0     C27920   1.908   6.064   1.022  0.3557  0.5866 -0.8059
  203MOL0    Cl27921   1.997   6.039   1.176  0.2944  0.0967 -0.0445
  203MOL0     C27922   1.468   5.793   0.661 -0.6472  0.3454  0.5029
  203MOL0     C27923   1.329   5.785   0.693  0.6031 -0.1668  0.3856
  203MOL0     O27924   1.001   5.582   0.495 -0.3081 -0.5947 -0.2151
  203MOL0     C27925   0.775   5.534   0.608  0.0914 -0.0830  0.7002
  203MOL0     C27926   0.653   5.505   0.671 -0.1498  1.1347  1.1534
  203MOL0     N27927   0.632   5.809   1.194  0.2896 -0.1218  0.4713
  203MOL0     N27928   0.761   5.811   1.188 -0.4938 -0.4124 -0.1957
  203MOL0     C27929   0.390   5.105   1.126 -0.3074  0.2202 -0.1006
  203MOL0     C27930   0.252   5.121   1.107  0.1897 -0.2257  0.4277
  203MOL0     C27931  -0.094   5.361   1.024  0.0145  0.1366 -0.6099
  203MOL0     C27932  -0.124   5.491   0.975  0.0792 -1.0443 -0.0717
  203MOL0     C27933  -0.254   5.545   0.959  0.1090 -0.5744 -0.1248
  203MOL0     C27934  -0.360   5.457   0.978  0.3587  0.1670 -0.7696
  203MOL0     O27935  -0.501   5.484   0.972  0.2244  0.5456 -0.0448
  203MOL0     C27936  -0.537   5.616   0.938  0.3909 -0.2115 -0.0269
  203MOL0     C27937  -0.687   5.636   0.909  0.1950  0.0912 -1.1663
  203MOL0     C27938  -0.768   5.534   0.993  0.4157 -0.6598  0.1702
  203MOL0     C27939  -0.913   5.570   1.014  0.9340  0.2054  0.3165
  203MOL0     C27940  -0.967   5.646   0.900 -0.7239  0.1891 -0.3975
  203MOL0     C27941  -1.011   5.690   0.798 -0.3560 -0.7320 -0.2215
  203MOL0     C27942  -0.332   5.326   1.026  0.1101 -0.0561  0.2630
  203MOL0     C27943  -0.203   5.279   1.044 -0.7247 -0.4984  0.1543
  203MOL0     C27944  -0.190   5.142   1.107 -0.3496 -0.3815 -0.5906
  203MOL0     H27945   0.247   5.174   0.774  0.1499 -0.2055 -0.5244
  203MOL0     H27946   0.489   5.149   0.802 -0.0098 -1.3194 -0.8384
  203MOL0     H27947   0.668   5.167   0.851 -1.6330  0.4844  1.3101
  203MOL0     H27948   0.695   4.998   0.873  0.5949  0.5219 -0.8063
  203MOL0     H27949   0.865   5.043   1.048 -2.6141 -0.6238  0.8115
  203MOL0     H27950   0.914   5.090   0.874 -0.1090  1.9696 -1.2067
  203MOL0     H27951   0.829   5.303   0.928  0.8279 -3.3784 -1.1473
  203MOL0     H27952   0.808   5.264   1.095 -0.2604  2.0143  0.1251
  203MOL0     H27953   1.062   5.217   1.113 -2.7134 -2.7792 -0.2751
  203MOL0     H27954   1.081   5.248   0.941 -1.3000  1.4193 -1.0752
  203MOL0     H27955   1.032   5.485   0.949  1.5231  1.1434 -0.1430
  203MOL0     H27956   1.156   5.437   1.062 -1.0490  0.1802 -0.2936
  203MOL0     H27957   0.868   5.500   1.135 -0.2612 -0.2825  0.8257
  203MOL0     H27958   0.992   5.435   1.248 -1.2021  1.6215  1.9262
  203MOL0     H27959   0.995   5.692   1.090  0.2634 -0.3380 -0.9195
  203MOL0     H27960   1.130   5.642   1.208 -1.2092  3.6827  1.4109
  203MOL0     H27961   0.959   5.628   1.380  0.9781  0.5720 -0.6825
  203MOL0     H27962   0.988   5.795   1.324 -0.1761  0.3106 -0.2513
  203MOL0     H27963   0.704   5.534   1.362 -1.5342 -0.9057 -2.2199
  203MOL0     H27964   0.394   5.737   1.240  0.1482  0.6735 -0.0944
  203MOL0     H27965   0.420   5.659   1.387 -0.5027  0.0663 -1.1729
  203MOL0     H27966   0.476   5.454   1.286  1.3518  1.6833  1.8032
  203MOL0     H27967   0.319   5.504   1.214 -0.6427  1.1769 -0.1607
  203MOL0     H27968   0.611   5.518   1.082  0.0609  1.1173 -1.2143
  203MOL0     H27969   0.502   5.386   1.075  2.9156  0.5567 -3.3454
  203MOL0     H27970   0.333   5.553   0.972 -0.3969  0.6165 -2.3207
  203MOL0     H27971   0.465   5.685   0.980 -3.7092  1.3317 -0.0223
  203MOL0     H27972   0.654   5.710   0.931  0.8839  0.6440 -0.3449
  203MOL0     H27973   0.979   5.727   0.904  0.0990 -1.1547 -0.9827
  203MOL0     H27974   0.836   5.827   0.927  0.1625 -0.6231  0.2690
  203MOL0     H27975   0.960   5.861   0.792  2.3353  0.1859  2.0224
  203MOL0     H27976   1.234   5.564   0.457 -1.0964  0.2668  0.5542
  203MOL0     H27977   1.475   5.582   0.403 -2.3248 -0.3901 -0.6558
  203MOL0     H27978   1.736   5.883   0.602  1.9929  0.9471  3.8867
  203MOL0     H27979   1.748   5.743   0.709 -2.3999 -1.2145 -1.3909
  203MOL0     H27980   1.900   5.662   0.487 -0.0220 -0.3626  0.9044
  203MOL0     H27981   1.931   5.834   0.478 -1.9776 -1.0159 -1.2217
  203MOL0     H27982   2.107   5.727   0.613  2.2176  2.0098  3.2626
  203MOL0     H27983   1.980   5.677   0.726 -0.6548 -0.5917 -0.5966
  203MOL0     H27984   1.916   5.923   0.733 -0.2916 -0.5541 -3.8966
  203MOL0     H27985   2.070   5.975   0.661  3.4702  1.0677  2.2550
  203MOL0     H27986   2.033   5.858   0.930 -1.3536 -1.9635 -3.3652
  203MOL0     H27987   2.188   5.838   0.844 -0.8153 -3.4768  4.1665
  203MOL0     H27988   2.195   6.083   0.812 -0.4283  0.7609  0.2345
  203MOL0     H27989   2.201   6.046   0.978 -1.9982 -0.4099  1.6204
  203MOL0     H27990   1.951   6.152   0.825  2.2685  1.9689 -0.7865
  203MOL0     H27991   2.032   6.225   0.953 -1.7958 -0.1407  2.2451
  203MOL0     H27992   1.851   5.974   0.995  0.5253 -0.1362  1.1098
  203MOL0     H27993   1.829   6.138   1.036  0.9704  1.5040 -2.0326
  203MOL0     H27994   1.519   5.856   0.732 -1.2908  0.4798  0.8544
  203MOL0     H27995   1.286   5.837   0.778  1.3256  2.1025 -0.5797
  203MOL0     H27996   0.799   5.489   0.513  1.2592  2.1112 -0.1186
  203MOL0     H27997   0.586   5.432   0.625  0.8329  0.8364  0.1554
  203MOL0     H27998   0.424   5.074   1.224 -2.9004  3.0135  1.8907
  203MOL0     H27999   0.195   5.135   1.198  1.4402  1.1437  1.0554
  203MOL0     H28000  -0.041   5.554   0.946 -2.0298  1.5913 -0.7152
  203MOL0     H28001  -0.267   5.647   0.924 -0.5865  0.2766  2.3779
  203MOL0     H28002  -0.504   5.682   1.019  0.8207  0.2087 -0.5348
  203MOL0     H28003  -0.479   5.655   0.854 -0.0485 -0.9814 -0.7022
  203MOL0     H28004  -0.708   5.624   0.803  0.9497 -1.7424 -1.1403
  203MOL0     H28005  -0.722   5.736   0.939 -2.4261 -0.9763 -0.3375
  203MOL0     H28006  -0.750   5.440   0.940  1.7594  0.8706 -2.2766
  203MOL0     H28007  -0.728   5.521   1.094 -0.7889  0.5103  0.8287
  203MOL0     H28008  -0.937   5.627   1.104 -2.6155  0.4153 -0.6069
  203MOL0     H28009  -0.971   5.478   1.015  1.8546 -0.4949 -2.4049
  203MOL0     H28010  -1.068   5.719   0.712 -2.1089 -1.2437  0.6988
  203MOL0     H28011  -0.410   5.259   1.060 -0.5628  0.4531 -0.2370
  203MOL0     H28012  -0.284   5.117   1.159  0.5242  0.6268  1.5891
  203MOL0     H28013  -0.158   5.073   1.028  0.1857 -1.1603  0.2859
  203MOL0     H28014  -0.120   5.131   1.190  1.5102 -2.6168 -2.3129
  204MOL0     O28015   9.418   7.131   4.341  0.2786 -0.1959  0.1307
  204MOL0     C28016   9.362   7.177   4.242  0.1091 -0.2227 -0.0585
  204MOL0     O28017   9.418   7.203   4.118 -0.8805  0.8080  0.3945
  204MOL0     C28018   9.547   7.174   4.085 -0.1305 -1.2098  1.5081
  204MOL0     C28019   9.630   7.266   4.020  0.1906 -0.1724 -0.5272
  204MOL0     C28020   9.768   7.240   4.005 -0.0810  0.1569 -0.7741
  204MOL0     C28021   9.823   7.115   4.038  0.1815 -0.0921  0.2652
  204MOL0     O28022   9.957   7.076   4.030 -0.7437 -0.7746 -0.6269
  204MOL0     C28023  10.057   7.175   4.008  0.2570 -0.7513  0.5431
  204MOL0     C28024  10.181   7.094   3.968 -0.7906 -0.8267 -0.9924
  204MOL0     C28025  10.249   7.006   4.072 -0.2904 -0.5999 -0.1705
  204MOL0     C28026  10.216   6.859   4.039  0.5799 -1.0176 -0.7234
  204MOL0     C28027  10.280   6.773   4.142 -0.2328 -0.1563  0.9256
  204MOL0     C28028  10.441   6.763   4.143 -0.1436  0.1596 -0.0241
  204MOL0     C28029  10.483   6.702   4.274 -0.3978 -0.0123  0.5999
  204MOL0     C28030  10.629   6.727   4.295 -0.7320 -0.0027 -0.7364
  204MOL0     N28031  10.697   6.600   4.286  1.0980  0.4237  0.5676
  204MOL0     C28032  10.762   6.559   4.169 -0.1355  0.0042  0.2275
  204MOL0     C28033  10.825   6.445   4.203 -0.0274 -0.1095 -0.0700
  204MOL0     C28034  10.914   6.356   4.128 -0.2691 -0.5857 -0.6018
  204MOL0     C28035  10.838   6.289   4.006 -0.1553 -0.9387 -0.6919
  204MOL0     C28036  10.932   6.226   3.903 -0.3857 -0.2109 -0.4700
  204MOL0     C28037  11.013   6.106   3.955  0.0184 -0.5447 -0.0732
  204MOL0     O28038  11.081   6.045   3.843 -0.1527  0.0458 -0.1540
  204MOL0     C28039  11.216   6.064   3.818 -0.2403  0.0078  0.9387
  204MOL0     C28040  11.283   5.975   3.738  0.2128  0.8227  0.2974
  204MOL0     C28041  11.416   5.999   3.704 -0.0094  0.1634 -0.8411
  204MOL0     C28042  11.482   5.900   3.617 -0.1133 -0.7970 -0.1135
  204MOL0     C28043  11.495   6.093   3.779  0.3144 -0.6561  0.1800
  204MOL0     C28044  11.644   6.119   3.767  0.3823  0.0487  0.0313
  204MOL0     O28045  11.694   6.211   3.855 -0.5610  0.3438 -0.3741
  204MOL0     C28046  11.834   6.233   3.844  0.7563 -0.5214  0.2157
  204MOL0     C28047  11.876   6.327   3.755  0.4944 -0.7735 -0.2914
  204MOL0     C28048  12.011   6.357   3.732 -0.2809 -0.5047  0.5658
  204MOL0     C28049  12.111   6.291   3.797  0.5319  0.1192  0.4763
  204MOL0     O28050  12.240   6.316   3.762 -0.3854  0.2988 -0.4782
  204MOL0     C28051  12.308   6.376   3.876  0.9777  0.0169 -0.0023
  204MOL0     C28052  12.436   6.441   3.822 -0.2865  0.2985 -0.0299
  204MOL0     C28053  12.498   6.535   3.938 -0.0001  0.2332  0.0025
  204MOL0     C28054  12.639   6.589   3.892 -0.0688  0.0579  0.2342
  204MOL0     C28055  12.717   6.636   4.016 -0.3847 -0.4649 -0.7485
  204MOL0     C28056  12.847   6.716   3.978 -0.4445 -0.6403 -0.1232
  204MOL0     C28057  12.911   6.760   4.110 -0.9247  0.4807 -0.4744
  204MOL0     C28058  13.053   6.803   4.083 -1.0494  0.0997 -0.5896
  204MOL0    Cl28059  13.142   6.840   4.233 -0.6545 -0.0586  0.2208
  204MOL0     C28060  12.067   6.196   3.888 -1.0074 -0.6837  0.4930
  204MOL0     C28061  11.935   6.165   3.920  0.0342 -0.2845  0.1653
  204MOL0     O28062  11.711   6.041   3.696 -0.1411 -0.0275 -0.3651
  204MOL0     C28063  11.427   6.178   3.864 -0.4608 -0.3425 -0.2141
  204MOL0     C28064  11.285   6.173   3.875 -0.5275 -1.1122  0.6682
  204MOL0     N28065  10.792   6.421   4.334  0.4995 -0.3548  0.9161
  204MOL0     N28066  10.721   6.513   4.386  0.4877  0.2316  0.1350
  204MOL0     C28067   9.736   7.020   4.087  0.4969 -0.4505 -0.1213
  204MOL0     C28068   9.604   7.052   4.115  0.1469 -0.3726  0.3458
  204MOL0     C28069   9.215   7.203   4.259 -0.2480  0.0201 -0.3602
  204MOL0     C28070   9.141   7.223   4.144  0.5393 -0.3522  0.0160
  204MOL0     C28071   9.002   7.247   4.141  0.4275  0.0735 -1.0228
  204MOL0     C28072   8.933   7.248   4.264  0.3183  0.3676  0.7601
  204MOL0     O28073   8.795   7.267   4.269  0.0880 -0.1873 -0.0564
  204MOL0     C28074   8.732   7.328   4.150 -0.7298 -1.1599 -0.0028
  204MOL0     C28075   8.597   7.394   4.190 -0.3253  0.2306  0.3418
  204MOL0     C28076   8.625   7.517   4.275  0.2501  0.1112  0.8172
  204MOL0     C28077   8.681   7.492   4.405  0.0363 -0.1440 -0.5359
  204MOL0     C28078   8.640   7.591   4.510 -0.0537 -1.2442  0.2321
  204MOL0     C28079   8.588   7.687   4.572 -0.3956  0.3161 -0.6561
  204MOL0     C28080   9.003   7.228   4.385 -0.3006 -0.2868 -0.4289
  204MOL0     C28081   9.144   7.204   4.387 -0.1241  0.4561  0.8509
  204MOL0     C28082   9.208   7.172   4.519 -0.2654 -0.1197  0.3498
  204MOL0     H28083   9.591   7.362   3.987 -0.8694 -0.6836 -0.7833
  204MOL0     H28084   9.824   7.317   3.953 -0.9596 -0.5995 -2.9634
  204MOL0     H28085  10.062   7.249   4.088 -2.7819 -0.0956  0.2604
  204MOL0     H28086  10.038   7.239   3.921  4.1465  1.0663  0.8469
  204MOL0     H28087  10.148   7.036   3.881 -0.7902 -1.4431 -0.5844
  204MOL0     H28088  10.254   7.167   3.934 -0.1276  0.6113  2.9903
  204MOL0     H28089  10.354   7.010   4.043 -0.1982  0.3448  0.2544
  204MOL0     H28090  10.229   7.029   4.177  0.8734  1.7930 -0.3886
  204MOL0     H28091  10.107   6.851   4.046  0.4806 -2.9422 -3.0097
  204MOL0     H28092  10.246   6.836   3.936 -0.8915  0.4172 -1.5119
  204MOL0     H28093  10.247   6.671   4.119 -0.9558  0.8499 -3.5925
  204MOL0     H28094  10.240   6.800   4.239 -2.4865  0.7054 -0.1728
  204MOL0     H28095  10.485   6.711   4.057  1.9802  3.8452 -1.4339
  204MOL0     H28096  10.483   6.864   4.148  1.7733 -0.6533  1.5497
  204MOL0     H28097  10.464   6.594   4.283  1.7657 -0.5213 -0.3243
  204MOL0     H28098  10.440   6.744   4.365  1.3497 -1.6728  2.2875
  204MOL0     H28099  10.666   6.805   4.227  1.7128 -0.0831  0.3791
  204MOL0     H28100  10.649   6.765   4.396 -2.9297 -0.2149 -0.1877
  204MOL0     H28101  10.793   6.614   4.081  0.4768  0.8387  0.9443
  204MOL0     H28102  10.945   6.274   4.194  0.0590 -0.1989 -0.2704
  204MOL0     H28103  11.001   6.413   4.094  0.7800 -0.6448  1.7825
  204MOL0     H28104  10.755   6.222   4.032  1.7745 -2.5012  1.9633
  204MOL0     H28105  10.795   6.379   3.960  1.8978  0.1861 -0.5551
  204MOL0     H28106  10.874   6.192   3.817 -4.0945  1.1825  1.2875
  204MOL0     H28107  10.998   6.307   3.871  0.4235 -0.5740  0.2369
  204MOL0     H28108  11.088   6.116   4.034  0.2816 -2.7126  0.0130
  204MOL0     H28109  10.941   6.035   3.996 -0.3634  0.5064  1.1559
  204MOL0     H28110  11.228   5.895   3.690  2.4665 -3.4852  4.1694
  204MOL0     H28111  11.412   5.842   3.556 -0.7033 -0.4215  0.1884
  204MOL0     H28112  11.541   5.834   3.681  0.5245  1.2848  1.5874
  204MOL0     H28113  11.548   5.939   3.540 -0.2079 -1.8533 -0.7546
  204MOL0     H28114  11.815   6.404   3.709  1.6808  0.2410 -0.2121
  204MOL0     H28115  12.044   6.437   3.666 -2.7966 -0.0816 -0.2954
  204MOL0     H28116  12.241   6.444   3.930  0.1589 -1.9813  1.6676
  204MOL0     H28117  12.340   6.298   3.947 -1.0530 -0.8968 -0.0174
  204MOL0     H28118  12.499   6.353   3.806 -2.2206 -1.5642  1.9182
  204MOL0     H28119  12.431   6.494   3.726  1.5056  0.0551 -0.2968
  204MOL0     H28120  12.507   6.469   4.025 -0.8784  1.6257  1.1852
  204MOL0     H28121  12.439   6.621   3.969  0.0657  0.1872  0.2534
  204MOL0     H28122  12.623   6.681   3.835 -1.6985  0.3713  1.1508
  204MOL0     H28123  12.696   6.526   3.823  2.0988 -1.9556  3.5732
  204MOL0     H28124  12.657   6.699   4.081  1.9248 -1.5244  2.7311
  204MOL0     H28125  12.727   6.542   4.071  0.4790 -0.4285 -0.8303
  204MOL0     H28126  12.819   6.802   3.916 -2.2066 -0.1606  1.2451
  204MOL0     H28127  12.919   6.661   3.918  0.4902  1.1835 -0.7427
  204MOL0     H28128  12.911   6.671   4.174 -0.3451  1.1761  0.5246
  204MOL0     H28129  12.864   6.846   4.160  2.3430  3.7535 -2.4812
  204MOL0     H28130  13.043   6.891   4.018  0.9982  0.5352 -0.3619
  204MOL0     H28131  13.118   6.729   4.036 -0.8209  0.1021 -0.2812
  204MOL0     H28132  12.143   6.143   3.944 -1.5818  1.5035  3.6311
  204MOL0     H28133  11.899   6.117   4.011  0.6203  0.8487  1.0265
  204MOL0     H28134  11.475   6.244   3.935  0.3163 -0.6855 -0.4044
  204MOL0     H28135  11.233   6.247   3.935  0.1543 -1.3010  1.5086
  204MOL0     H28136   9.771   6.922   4.117 -1.2010 -1.2606 -0.7065
  204MOL0     H28137   9.533   6.984   4.161 -1.3595  2.4153  2.4425
  204MOL0     H28138   9.185   7.219   4.045 -0.9332  0.7332 -0.7269
  204MOL0     H28139   8.946   7.255   4.049 -2.0497 -0.3623  0.3431
  204MOL0     H28140   8.783   7.415   4.108 -2.7252 -0.0510 -0.2304
  204MOL0     H28141   8.723   7.262   4.063  0.8284  1.5718 -2.4295
  204MOL0     H28142   8.539   7.318   4.244  0.6850  0.2708  1.5308
  204MOL0     H28143   8.544   7.429   4.101  0.4602 -2.3324 -1.2576
  204MOL0     H28144   8.693   7.579   4.216  0.9824 -2.1401 -0.8069
  204MOL0     H28145   8.529   7.567   4.291  0.3109  0.3339  0.4878
  204MOL0     H28146   8.791   7.499   4.408 -0.0538  3.7012  2.7566
  204MOL0     H28147   8.645   7.395   4.441  1.7054 -0.8657 -0.6993
  204MOL0     H28148   8.547   7.773   4.620 -2.5479 -1.5870  1.1520
  204MOL0     H28149   8.948   7.230   4.478  0.0155  1.5297 -0.2455
  204MOL0     H28150   9.141   7.191   4.604 -0.8285  2.8179 -0.6577
  204MOL0     H28151   9.228   7.065   4.507 -2.8555 -0.5064 -1.3418
  204MOL0     H28152   9.301   7.223   4.545 -1.2311  2.6071 -1.2048
  205MOL0     O28153   1.300   9.878   7.104  0.8655  0.4413 -0.2382
  205MOL0     C28154   1.220   9.848   7.015  0.3422 -0.2959  0.3192
  205MOL0     O28155   1.205   9.913   6.898  0.5421  0.4131  0.1654
  205MOL0     C28156   1.309  10.001   6.860 -0.6034  0.7168 -0.5981
  205MOL0     C28157   1.267  10.120   6.805 -0.0153  0.4221  0.1378
  205MOL0     C28158   1.362  10.221   6.785  0.6594  0.0971 -0.0992
  205MOL0     C28159   1.501  10.208   6.815  0.4600 -0.6948 -0.4125
  205MOL0     O28160   1.594  10.306   6.807 -0.2972 -0.2320  0.2030
  205MOL0     C28161   1.558  10.433   6.750  0.9525 -0.3045  0.0213
  205MOL0     C28162   1.543  10.430   6.593 -0.5409 -0.2841 -0.1331
  205MOL0     C28163   1.681  10.407   6.528  0.9929  0.6811 -0.6259
  205MOL0     C28164   1.668  10.442   6.378  0.1385 -0.3372 -0.2589
  205MOL0     C28165   1.761  10.357   6.296  0.4769  0.2476 -1.1162
  205MOL0     C28166   1.909  10.378   6.336 -0.2831  0.2995 -0.0696
  205MOL0     C28167   1.966  10.520   6.299  0.5422  0.5463  0.0629
  205MOL0     C28168   2.112  10.539   6.330 -0.7607  0.1005  0.9637
  205MOL0     N28169   2.207  10.481   6.239 -0.7135  0.2133  0.2520
  205MOL0     C28170   2.242  10.547   6.123 -0.6171  0.8428 -1.0013
  205MOL0     C28171   2.320  10.459   6.058 -0.2765  0.9125  0.5990
  205MOL0     C28172   2.382  10.471   5.918 -0.7136  0.8160 -0.4200
  205MOL0     C28173   2.534  10.492   5.953 -0.7703  0.0354  0.4843
  205MOL0     C28174   2.622  10.498   5.826 -1.0696  0.9628 -0.9758
  205MOL0     C28175   2.769  10.526   5.861 -0.1259  0.3904  0.2773
  205MOL0     O28176   2.856  10.527   5.743  0.6432  0.0547  0.5086
  205MOL0     C28177   2.843  10.638   5.661  0.9582  0.8579 -0.0300
  205MOL0     C28178   2.788  10.768   5.686 -0.5387  0.9429 -0.3158
  205MOL0     C28179   2.780  10.859   5.580 -0.0740  0.0043 -0.2275
  205MOL0     C28180   2.717  10.992   5.599 -0.8084 -0.4808 -0.5588
  205MOL0     C28181   2.831  10.820   5.450  0.2707  0.2778 -0.1212
  205MOL0     C28182   2.831  10.912   5.330 -0.6501 -0.3268 -0.0949
  205MOL0     O28183   2.833  11.047   5.348 -1.0007 -0.2925  0.4128
  205MOL0     C28184   2.833  11.120   5.232 -0.2194 -0.2736  0.3580
  205MOL0     C28185   2.925  11.114   5.123  0.2820 -0.9039 -0.0251
  205MOL0     C28186   2.914  11.188   5.014 -0.2783 -0.5754  0.3640
  205MOL0     C28187   2.807  11.278   5.007  0.5883  0.4967  0.4106
  205MOL0     O28188   2.790  11.373   4.917  0.1438 -0.0109  0.0862
  205MOL0     C28189   2.793  11.337   4.778  0.3622 -0.2991  0.4137
  205MOL0     C28190   2.705  11.215   4.732  0.3433  0.0317 -0.2210
  205MOL0     C28191   2.553  11.250   4.730 -0.9539  0.2180 -0.4936
  205MOL0     C28192   2.466  11.125   4.708 -0.6216 -0.0567 -0.3737
  205MOL0     C28193   2.321  11.152   4.660 -0.6380  0.1250  0.3064
  205MOL0     C28194   2.219  11.192   4.772  1.2235 -0.2470 -0.2346
  205MOL0     C28195   2.080  11.184   4.715 -0.4742 -0.1932 -0.5529
  205MOL0     C28196   1.965  11.201   4.821 -0.3388  0.2758 -0.5381
  205MOL0    Cl28197   1.900  11.041   4.874 -0.2124 -0.4267  0.0489
  205MOL0     C28198   2.713  11.282   5.112 -0.3027 -0.1571  0.5637
  205MOL0     C28199   2.725  11.208   5.223  0.0993 -0.0935 -0.1831
  205MOL0     O28200   2.811  10.854   5.220 -0.8779 -0.0900  0.0274
  205MOL0     C28201   2.883  10.695   5.429 -0.6347  0.1353  0.5918
  205MOL0     C28202   2.879  10.607   5.536 -0.0451 -0.0923 -0.0567
  205MOL0     N28203   2.331  10.341   6.130 -0.2830  0.2676 -0.1982
  205MOL0     N28204   2.260  10.355   6.239 -1.1546 -0.3222  0.1940
  205MOL0     C28205   1.537  10.081   6.867 -0.2774  0.7565 -0.3765
  205MOL0     C28206   1.445   9.979   6.883  0.1153 -0.4331  0.4828
  205MOL0     C28207   1.130   9.733   7.047 -0.8238 -0.2497  0.4643
  205MOL0     C28208   0.993   9.746   7.000 -0.6657 -0.4285 -0.1377
  205MOL0     C28209   0.904   9.658   7.049  0.1530 -1.1700 -0.2019
  205MOL0     C28210   0.937   9.543   7.122  0.7966 -0.6804  0.3284
  205MOL0     O28211   0.826   9.471   7.165  0.4511 -0.0886  0.4535
  205MOL0     C28212   0.845   9.349   7.238  0.5367 -0.1217 -0.6341
  205MOL0     C28213   0.724   9.261   7.241  1.1424 -0.2557 -0.4332
  205MOL0     C28214   0.596   9.344   7.271 -0.7340  0.0041 -0.3950
  205MOL0     C28215   0.481   9.256   7.261 -0.3002  0.2472  0.1125
  205MOL0     C28216   0.362   9.334   7.288 -0.6426  0.4712 -0.2216
  205MOL0     C28217   0.261   9.405   7.313 -0.0358 -0.3781 -0.8316
  205MOL0     C28218   1.068   9.522   7.150 -1.4040 -0.6808  0.0865
  205MOL0     C28219   1.170   9.621   7.118  0.4084 -0.1674 -0.1203
  205MOL0     C28220   1.315   9.595   7.148  0.4366  0.1940  0.4533
  205MOL0     H28221   1.159  10.130   6.792  0.0037 -0.5479 -0.9004
  205MOL0     H28222   1.314  10.311   6.749 -1.6549 -1.9784 -2.6780
  205MOL0     H28223   1.631  10.511   6.776  1.6235 -0.8715 -0.1176
  205MOL0     H28224   1.465  10.467   6.795  1.3804 -0.1041  0.7789
  205MOL0     H28225   1.472  10.360   6.548 -1.7335  1.5738 -1.3015
  205MOL0     H28226   1.507  10.531   6.572  0.8643  0.3540  0.4376
  205MOL0     H28227   1.750  10.478   6.574  0.9090 -0.6850  1.7780
  205MOL0     H28228   1.710  10.303   6.549  0.8446  0.6853 -0.3954
  205MOL0     H28229   1.562  10.430   6.354  0.5561 -0.8383 -1.9728
  205MOL0     H28230   1.697  10.544   6.351  1.4180 -0.3451  0.9812
  205MOL0     H28231   1.741  10.384   6.192  3.6438  0.4108 -1.7990
  205MOL0     H28232   1.731  10.253   6.311  1.8306 -0.2447 -1.7251
  205MOL0     H28233   1.931  10.366   6.442  3.9717  0.2927 -0.8143
  205MOL0     H28234   1.964  10.308   6.274 -2.1807 -0.1514 -1.3485
  205MOL0     H28235   1.921  10.602   6.356 -1.6007 -2.4707  3.0828
  205MOL0     H28236   1.951  10.543   6.193  2.5518  2.7094  0.1446
  205MOL0     H28237   2.135  10.646   6.331  1.9366 -0.3981  0.8886
  205MOL0     H28238   2.132  10.505   6.432  0.5555  2.6284  1.6162
  205MOL0     H28239   2.222  10.647   6.086 -1.0414  0.8135 -0.8498
  205MOL0     H28240   2.339  10.552   5.859 -0.2959  0.9545 -0.5277
  205MOL0     H28241   2.371  10.387   5.848  0.6302 -0.0858  0.4010
  205MOL0     H28242   2.528  10.590   6.001 -2.8237 -0.4822  1.3886
  205MOL0     H28243   2.565  10.412   6.021 -0.4779  0.3285  0.6934
  205MOL0     H28244   2.616  10.399   5.779 -0.2889  0.4055  0.0419
  205MOL0     H28245   2.570  10.573   5.766 -1.5722  2.4246  1.1520
  205MOL0     H28246   2.781  10.617   5.921 -0.8750  0.1616  0.7844
  205MOL0     H28247   2.810  10.446   5.924 -1.5307 -0.0965  0.6140
  205MOL0     H28248   2.765  10.795   5.789  1.5397 -0.3438  0.5684
  205MOL0     H28249   2.658  11.020   5.510  0.3975  0.2064 -1.1614
  205MOL0     H28250   2.788  11.074   5.612 -1.6598  0.0655  0.9216
  205MOL0     H28251   2.649  10.993   5.684 -0.0960  0.6263  0.0234
  205MOL0     H28252   3.016  11.056   5.120  1.1463  0.4366 -0.9614
  205MOL0     H28253   2.982  11.189   4.929 -1.2818 -1.4373 -0.4697
  205MOL0     H28254   2.761  11.428   4.727  3.5039 -0.5570 -2.3945
  205MOL0     H28255   2.898  11.323   4.749  0.5669  1.0413  0.4794
  205MOL0     H28256   2.741  11.185   4.633 -5.9908  0.7273 -3.2794
  205MOL0     H28257   2.720  11.130   4.799  2.4155  1.2754  1.0070
  205MOL0     H28258   2.546  11.323   4.649  1.2751 -0.0075 -0.9508
  205MOL0     H28259   2.518  11.301   4.821 -2.1362  0.9724 -1.3453
  205MOL0     H28260   2.461  11.058   4.795 -0.6118  0.3924 -0.0240
  205MOL0     H28261   2.516  11.063   4.633  0.1742 -1.1925  1.0437
  205MOL0     H28262   2.320  11.230   4.584 -1.8790 -1.0532 -0.9522
  205MOL0     H28263   2.292  11.065   4.600  2.6705 -0.0069 -1.3308
  205MOL0     H28264   2.241  11.292   4.808 -1.3485  1.2158 -2.3994
  205MOL0     H28265   2.236  11.123   4.856  2.2168 -0.4130 -0.5553
  205MOL0     H28266   2.072  11.081   4.680  0.9163 -0.7469  0.6430
  205MOL0     H28267   2.069  11.245   4.625 -0.2285  0.6237 -0.0429
  205MOL0     H28268   1.887  11.261   4.772  0.4085  1.2625 -0.5654
  205MOL0     H28269   2.009  11.257   4.904 -1.4813  0.0218  0.2531
  205MOL0     H28270   2.626  11.347   5.117 -0.6556 -0.6499  0.9974
  205MOL0     H28271   2.669  11.223   5.315  1.5399 -3.3587  1.3893
  205MOL0     H28272   2.910  10.658   5.331  1.9539  1.9196  0.5262
  205MOL0     H28273   2.916  10.507   5.517  2.4665  0.7957 -0.2160
  205MOL0     H28274   1.641  10.076   6.900 -0.9385  1.6225  2.0027
  205MOL0     H28275   1.476   9.884   6.926  2.0084 -0.7702 -1.4900
  205MOL0     H28276   0.963   9.839   6.954 -0.5975  0.4826  1.6133
  205MOL0     H28277   0.799   9.678   7.031  0.9650  1.0766 -3.1375
  205MOL0     H28278   0.932   9.287   7.213  0.4795 -0.0792 -0.9442
  205MOL0     H28279   0.864   9.379   7.341 -0.8488 -2.8169  0.4941
  205MOL0     H28280   0.734   9.185   7.319 -2.2325 -0.9122 -0.4612
  205MOL0     H28281   0.700   9.216   7.144 -1.1788  2.9145 -1.5023
  205MOL0     H28282   0.608   9.384   7.372  3.8207  0.5215 -0.9391
  205MOL0     H28283   0.583   9.425   7.199  0.9950  0.0685 -0.6984
  205MOL0     H28284   0.486   9.177   7.336 -0.7114  0.1384  0.0294
  205MOL0     H28285   0.463   9.212   7.162 -2.0420  1.3504 -0.1142
  205MOL0     H28286   0.178   9.469   7.332 -0.3141 -1.1844  0.8652
  205MOL0     H28287   1.105   9.437   7.207  4.6582  1.1155 -0.4402
  205MOL0     H28288   1.333   9.488   7.160  0.6813  0.0078 -1.2391
  205MOL0     H28289   1.374   9.631   7.063 -0.2667 -0.3572 -0.2836
  205MOL0     H28290   1.335   9.647   7.242  2.9528 -0.3388  0.2859
  206MOL0     O28291   8.992   8.036   6.486 -0.6448 -0.0546 -0.1088
  206MOL0     C28292   8.928   8.134   6.451  0.5596  0.0980  0.0668
  206MOL0     O28293   8.980   8.253   6.413 -0.2600 -0.3552  0.2258
  206MOL0     C28294   9.117   8.263   6.393 -0.0919  0.2858 -0.5064
  206MOL0     C28295   9.183   8.200   6.287  0.4130 -0.1151 -0.4523
  206MOL0     C28296   9.320   8.195   6.281 -0.6843 -0.2139  0.4377
  206MOL0     C28297   9.395   8.262   6.382  0.1376  0.5914  0.3531
  206MOL0     O28298   9.527   8.271   6.390 -0.4424  0.6078 -0.4898
  206MOL0     C28299   9.599   8.249   6.272  0.7636 -0.1634 -0.4435
  206MOL0     C28300   9.743   8.276   6.301  0.0450  0.6435  0.0535
  206MOL0     C28301   9.791   8.197   6.421 -0.4779  0.5078  0.0164
  206MOL0     C28302   9.938   8.145   6.410  0.1848  0.8302 -1.0005
  206MOL0     C28303  10.049   8.233   6.353 -0.3262  0.2418 -1.0611
  206MOL0     C28304  10.048   8.370   6.428  0.3146  0.4619  0.0333
  206MOL0     C28305  10.073   8.370   6.582 -0.8222 -0.8470 -0.7455
  206MOL0     C28306  10.223   8.369   6.614 -1.3242  0.3526 -0.2070
  206MOL0     N28307  10.294   8.245   6.587 -0.0967  0.0421  1.1166
  206MOL0     C28308  10.393   8.226   6.485 -0.7053  0.7270 -0.8383
  206MOL0     C28309  10.436   8.096   6.502  0.7657  0.2956  0.5391
  206MOL0     C28310  10.550   8.019   6.443 -0.0234  0.4883 -0.0270
  206MOL0     C28311  10.679   8.043   6.521  0.0521 -0.1362 -0.3542
  206MOL0     C28312  10.805   7.972   6.458  0.0211  0.7106 -0.6985
  206MOL0     C28313  10.923   7.989   6.554  0.0795 -0.1441  0.1660
  206MOL0     O28314  11.048   7.962   6.499 -0.2976  0.5041  0.0119
  206MOL0     C28315  11.151   8.019   6.574  0.1278  0.1019 -0.2937
  206MOL0     C28316  11.244   7.945   6.644  0.4018  1.0551 -0.9326
  206MOL0     C28317  11.354   8.002   6.695 -1.0565  0.6502 -0.0170
  206MOL0     C28318  11.451   7.908   6.774 -0.4415  0.1204  0.1196
  206MOL0     C28319  11.389   8.133   6.659 -0.7834  0.0245  0.0571
  206MOL0     C28320  11.533   8.186   6.658  0.1303  0.1690  0.0524
  206MOL0     O28321  11.548   8.327   6.639  0.5422  0.1776 -0.0280
  206MOL0     C28322  11.673   8.393   6.623  0.9561  0.8120  0.1127
  206MOL0     C28323  11.699   8.507   6.702 -0.0054  0.3824 -0.3190
  206MOL0     C28324  11.827   8.570   6.707  0.0949 -0.0172 -0.5015
  206MOL0     C28325  11.931   8.529   6.625 -0.7745  0.1383 -0.8204
  206MOL0     O28326  12.054   8.597   6.630  0.1566 -0.2989 -0.1197
  206MOL0     C28327  12.120   8.606   6.505 -0.5057  0.2182 -0.3439
  206MOL0     C28328  12.216   8.724   6.493  0.6807  0.2216 -0.0369
  206MOL0     C28329  12.262   8.741   6.342 -1.1055 -0.1447 -1.5702
  206MOL0     C28330  12.342   8.869   6.343 -0.3825  0.1880 -0.4513
  206MOL0     C28331  12.430   8.872   6.215  1.2170  0.0375 -0.2509
  206MOL0     C28332  12.562   8.817   6.250 -1.0010  0.0809  0.1099
  206MOL0     C28333  12.633   8.791   6.114 -0.4355 -0.2257  0.7611
  206MOL0     C28334  12.693   8.919   6.057 -0.1982  0.5710 -0.1007
  206MOL0    Cl28335  12.819   8.984   6.164 -0.1635  0.1236 -0.2579
  206MOL0     C28336  11.902   8.425   6.544 -0.0222 -0.8054  1.1922
  206MOL0     C28337  11.778   8.356   6.541 -0.4618  0.2410 -0.1597
  206MOL0     O28338  11.625   8.111   6.686 -0.5501 -0.2148  0.0174
  206MOL0     C28339  11.290   8.215   6.602  0.2386 -0.4496 -0.4603
  206MOL0     C28340  11.173   8.154   6.552  0.9370 -0.6186  0.8425
  206MOL0     N28341  10.360   8.039   6.609  0.4787  0.4587 -0.0039
  206MOL0     N28342  10.283   8.130   6.654 -0.4825  1.1670  0.4685
  206MOL0     C28343   9.328   8.339   6.482 -0.5024 -0.1156 -0.2784
  206MOL0     C28344   9.188   8.337   6.486 -0.5416  0.5388 -0.4452
  206MOL0     C28345   8.781   8.122   6.471  0.1588  0.6231  0.3637
  206MOL0     C28346   8.710   8.238   6.501 -0.6246  0.2989  0.6831
  206MOL0     C28347   8.569   8.235   6.523  0.6262 -0.6924  0.4138
  206MOL0     C28348   8.499   8.112   6.518 -0.4399 -0.9659  0.3987
  206MOL0     O28349   8.372   8.088   6.560  0.2240  0.3143 -0.3860
  206MOL0     C28350   8.298   8.201   6.609  0.4399  0.7260 -0.0817
  206MOL0     C28351   8.158   8.156   6.642 -0.0365 -0.9665 -0.7970
  206MOL0     C28352   8.082   8.290   6.677  0.7215 -0.0968 -0.5162
  206MOL0     C28353   7.952   8.257   6.750 -0.9576  0.0135 -0.0351
  206MOL0     C28354   7.856   8.200   6.660  0.1962 -0.3736 -0.9369
  206MOL0     C28355   7.757   8.173   6.598  0.6347  0.1747 -0.2834
  206MOL0     C28356   8.570   8.000   6.484  0.1974 -0.0775 -0.0480
  206MOL0     C28357   8.713   8.000   6.456 -0.8931  0.0460  0.1057
  206MOL0     C28358   8.771   7.856   6.439  0.0186 -0.8628 -0.2468
  206MOL0     H28359   9.119   8.148   6.215 -1.1052  1.0220  0.0174
  206MOL0     H28360   9.371   8.131   6.210 -2.1201 -2.7015  1.4986
  206MOL0     H28361   9.567   8.321   6.196 -2.5659  0.1508  1.0942
  206MOL0     H28362   9.576   8.148   6.237 -2.6304  0.2443  0.2933
  206MOL0     H28363   9.798   8.257   6.209  1.0847 -2.2455  1.1517
  206MOL0     H28364   9.750   8.382   6.326  3.8016  0.1904  1.5293
  206MOL0     H28365   9.787   8.267   6.504  0.7255 -0.9663  1.3769
  206MOL0     H28366   9.733   8.107   6.445 -1.1246  1.0064  0.3769
  206MOL0     H28367   9.967   8.097   6.504  2.1193  0.2698 -1.8377
  206MOL0     H28368   9.925   8.053   6.353  1.4995 -2.0871  2.9988
  206MOL0     H28369  10.021   8.260   6.250  1.1529  0.0844 -1.5243
  206MOL0     H28370  10.143   8.179   6.365 -1.7853 -2.6830 -1.8254
  206MOL0     H28371  10.120   8.439   6.384 -1.5995  3.0169  0.6535
  206MOL0     H28372   9.953   8.423   6.417  0.3358  0.3742 -0.5627
  206MOL0     H28373  10.034   8.283   6.636  1.5581 -0.6772  1.4263
  206MOL0     H28374  10.038   8.464   6.625  2.2971  0.2382 -0.3497
  206MOL0     H28375  10.266   8.453   6.558 -0.6705 -0.8730 -1.6271
  206MOL0     H28376  10.240   8.391   6.720  3.3910  2.7686 -1.1986
  206MOL0     H28377  10.444   8.297   6.422 -1.3631  2.2764  0.3239
  206MOL0     H28378  10.562   8.053   6.340  4.1292  1.3982  0.5902
  206MOL0     H28379  10.526   7.913   6.428 -2.2570  1.2137 -2.2718
  206MOL0     H28380  10.702   8.149   6.535  1.1768 -0.7728  4.2457
  206MOL0     H28381  10.664   8.003   6.622  1.6386  1.1290  0.4160
  206MOL0     H28382  10.784   7.867   6.437 -1.7676  1.0470 -0.7738
  206MOL0     H28383  10.839   8.023   6.367 -1.7264  0.4069 -1.5784
  206MOL0     H28384  10.921   8.093   6.589 -2.1184  0.2598 -0.9945
  206MOL0     H28385  10.915   7.922   6.640  0.2572 -0.9378 -0.4258
  206MOL0     H28386  11.230   7.837   6.642  0.2564  1.0771 -1.6619
  206MOL0     H28387  11.537   7.887   6.711 -0.5665  0.9529 -0.3378
  206MOL0     H28388  11.403   7.813   6.800  0.1117  0.6976  3.8554
  206MOL0     H28389  11.488   7.952   6.867  1.4049  1.5468 -1.2129
  206MOL0     H28390  11.616   8.550   6.756 -1.8252  1.1622 -3.4510
  206MOL0     H28391  11.831   8.649   6.782 -3.2539 -0.1681  0.0047
  206MOL0     H28392  12.184   8.518   6.504  0.4193  0.7793  2.4390
  206MOL0     H28393  12.046   8.625   6.427 -1.6720  0.4880  0.7977
  206MOL0     H28394  12.168   8.816   6.526  2.7916  2.2497 -2.1816
  206MOL0     H28395  12.309   8.714   6.550  0.7584  3.0443  0.4393
  206MOL0     H28396  12.178   8.748   6.271 -0.7355 -0.3533 -2.0300
  206MOL0     H28397  12.303   8.645   6.310 -1.0504 -1.1217  1.1649
  206MOL0     H28398  12.401   8.882   6.434  1.2885 -0.6070 -1.3738
  206MOL0     H28399  12.262   8.943   6.346 -2.6312 -2.1382  1.2146
  206MOL0     H28400  12.386   8.808   6.139 -2.1998  0.5120  1.1459
  206MOL0     H28401  12.435   8.976   6.181  1.0383 -0.1294 -0.7929
  206MOL0     H28402  12.543   8.721   6.299 -0.2981  0.2464  0.7285
  206MOL0     H28403  12.630   8.879   6.310  3.0590 -2.9126 -0.9608
  206MOL0     H28404  12.563   8.753   6.040  0.4534 -0.4535  0.0220
  206MOL0     H28405  12.711   8.715   6.119  1.0478  1.2091  0.5385
  206MOL0     H28406  12.614   8.993   6.041 -1.0124 -0.7394 -2.6086
  206MOL0     H28407  12.740   8.904   5.960  3.7115  0.4372  1.6345
  206MOL0     H28408  11.979   8.394   6.475 -0.1417  0.1000  0.6337
  206MOL0     H28409  11.777   8.269   6.476  3.3796  0.1689 -0.3394
  206MOL0     H28410  11.311   8.321   6.586  0.4902 -0.7847 -2.5863
  206MOL0     H28411  11.105   8.188   6.475  0.2203 -0.7037  1.4313
  206MOL0     H28412   9.390   8.397   6.549 -2.1037  0.0338  1.1227
  206MOL0     H28413   9.130   8.384   6.565 -1.0515 -4.5505  2.6503
  206MOL0     H28414   8.771   8.325   6.524  0.6368 -0.2249 -0.5443
  206MOL0     H28415   8.515   8.326   6.548  1.4412 -0.5390  1.7078
  206MOL0     H28416   8.343   8.225   6.705 -0.8006  2.1503  0.1804
  206MOL0     H28417   8.294   8.288   6.544  0.0999  0.7721 -0.0031
  206MOL0     H28418   8.160   8.083   6.723  0.3507 -0.0853  0.0084
  206MOL0     H28419   8.123   8.109   6.549  0.5118 -1.8084 -0.5923
  206MOL0     H28420   8.156   8.347   6.734  1.1746  0.1103 -1.2901
  206MOL0     H28421   8.048   8.349   6.591 -0.7763 -0.9433 -0.5250
  206MOL0     H28422   7.911   8.352   6.784  1.1453 -0.1571  3.4179
  206MOL0     H28423   7.973   8.186   6.831 -1.0592  0.3313  0.2709
  206MOL0     H28424   7.677   8.151   6.529  2.4117 -0.8494 -2.1414
  206MOL0     H28425   8.503   7.914   6.477  2.2446 -1.9128  1.2715
  206MOL0     H28426   8.816   7.852   6.339 -1.5527 -3.5107 -0.9576
  206MOL0     H28427   8.836   7.823   6.520 -1.3035 -0.2057  1.1428
  206MOL0     H28428   8.687   7.786   6.427  0.4402 -1.3803 -0.1842
  207MOL0     O28429  11.247   7.534   5.109  0.2464 -0.5301  0.7281
  207MOL0     C28430  11.217   7.428   5.051  0.3136 -0.3938 -0.5503
  207MOL0     O28431  11.300   7.353   4.964  1.0229 -0.5294 -0.7224
  207MOL0     C28432  11.412   7.413   4.924  0.0563  0.1953 -0.4680
  207MOL0     C28433  11.540   7.360   4.963 -0.4494  0.8507 -0.0492
  207MOL0     C28434  11.653   7.411   4.906  0.9660  0.1190  0.2980
  207MOL0     C28435  11.644   7.531   4.833  0.3478  1.1325  0.1388
  207MOL0     O28436  11.761   7.591   4.795 -0.0850 -0.2278  0.0483
  207MOL0     C28437  11.897   7.546   4.822  0.5345 -0.2729  0.3740
  207MOL0     C28438  11.950   7.588   4.951 -0.6207  0.3185 -0.0935
  207MOL0     C28439  12.103   7.596   4.965 -0.5997  0.4591 -0.2841
  207MOL0     C28440  12.169   7.686   5.078  0.1399  0.5946  0.2485
  207MOL0     C28441  12.328   7.676   5.092  0.1765  0.8133  0.7654
  207MOL0     C28442  12.387   7.757   4.976  0.5719 -0.6497 -0.4415
  207MOL0     C28443  12.400   7.915   4.989 -0.5815  0.0882 -0.7609
  207MOL0     C28444  12.526   7.957   5.078 -0.7542 -0.0710 -0.7247
  207MOL0     N28445  12.665   7.916   5.046 -0.0357  0.0773  0.0603
  207MOL0     C28446  12.747   7.982   4.959  0.3273  0.2728  0.2798
  207MOL0     C28447  12.856   7.903   4.954 -0.9511 -0.3105  0.4743
  207MOL0     C28448  12.981   7.935   4.877  0.2354  1.3102 -0.0193
  207MOL0     C28449  13.107   7.915   4.955  0.0698 -0.2754 -1.0757
  207MOL0     C28450  13.226   7.948   4.864 -0.0014  0.1663  0.0561
  207MOL0     C28451  13.360   7.955   4.932 -0.0791 -0.3450  0.3742
  207MOL0     O28452  13.442   8.012   4.827  0.4163  0.0723 -0.4318
  207MOL0     C28453  13.574   8.029   4.847 -0.0857 -1.3082 -0.8613
  207MOL0     C28454  13.633   8.116   4.758 -0.5654  0.4278 -0.3790
  207MOL0     C28455  13.769   8.143   4.760  0.4300 -0.5726  0.1270
  207MOL0     C28456  13.816   8.245   4.653  0.3422 -0.2980 -0.5543
  207MOL0     C28457  13.853   8.086   4.856 -0.6721 -0.6094 -0.8768
  207MOL0     C28458  14.003   8.115   4.861 -1.1080  0.1593  0.5232
  207MOL0     O28459  14.063   8.086   4.981  0.5680 -0.6893 -0.1975
  207MOL0     C28460  14.204   8.089   4.976 -0.4893 -0.0595 -0.0198
  207MOL0     C28461  14.269   8.210   4.981  0.2400 -0.4160 -0.4441
  207MOL0     C28462  14.410   8.209   5.000 -0.0160 -0.5217 -0.3670
  207MOL0     C28463  14.487   8.096   5.006 -0.1422 -0.2965  0.5172
  207MOL0     O28464  14.622   8.098   5.017  0.3807  0.5183 -0.3064
  207MOL0     C28465  14.693   8.205   5.088 -0.2608 -0.0270 -0.3246
  207MOL0     C28466  14.796   8.259   4.998 -0.7606 -0.4452  0.2868
  207MOL0     C28467  14.902   8.321   5.092  1.0609 -0.1733  0.3719
  207MOL0     C28468  15.011   8.395   5.012  0.2348 -0.0746  0.6471
  207MOL0     C28469  15.098   8.474   5.110  0.3850 -1.0169  0.2798
  207MOL0     C28470  15.193   8.562   5.032 -0.2457  0.0710 -0.4065
  207MOL0     C28471  15.133   8.704   4.999 -1.1338 -0.1280 -0.2112
  207MOL0     C28472  15.252   8.796   4.944  0.8363  0.6339 -0.5762
  207MOL0    Cl28473  15.340   8.722   4.797  0.2882  0.0461  0.3492
  207MOL0     C28474  14.418   7.978   4.995 -0.1214  0.6771  0.6086
  207MOL0     C28475  14.278   7.973   4.981 -0.3944  0.2370 -0.2279
  207MOL0     O28476  14.067   8.140   4.753  0.2690 -0.6415  0.0947
  207MOL0     C28477  13.794   8.003   4.953 -0.5497  0.7516  0.4160
  207MOL0     C28478  13.658   7.974   4.944  0.2130 -0.2681 -0.1933
  207MOL0     N28479  12.842   7.804   5.049  0.4042 -0.2409  0.7250
  207MOL0     N28480  12.728   7.814   5.104  0.4608  0.3488 -0.9584
  207MOL0     C28481  11.521   7.585   4.802 -0.8320  0.0966  0.4420
  207MOL0     C28482  11.403   7.529   4.845 -0.2341  0.9108 -0.0381
  207MOL0     C28483  11.072   7.385   5.073 -0.2405  1.3157 -0.5880
  207MOL0     C28484  10.997   7.455   5.165  0.4899 -0.7291 -0.1345
  207MOL0     C28485  10.860   7.443   5.177  0.4259  0.6571 -0.4062
  207MOL0     C28486  10.781   7.345   5.110  0.1073 -1.2919 -0.4407
  207MOL0     O28487  10.640   7.345   5.134  0.5157 -0.0047  0.1064
  207MOL0     C28488  10.557   7.254   5.047  0.5254 -0.4999  0.2342
  207MOL0     C28489  10.542   7.319   4.911  0.2818  0.6398  0.8510
  207MOL0     C28490  10.411   7.406   4.913  1.1474 -0.6256  0.3645
  207MOL0     C28491  10.388   7.467   4.773 -0.0615 -0.3265  0.8596
  207MOL0     C28492  10.246   7.506   4.766  0.3046 -0.2439 -0.4004
  207MOL0     C28493  10.128   7.534   4.760 -0.5891  0.4172  0.6179
  207MOL0     C28494  10.863   7.260   5.022 -0.1732  0.9589  0.3073
  207MOL0     C28495  11.001   7.281   5.003 -0.1058  0.7630  0.4486
  207MOL0     C28496  11.061   7.199   4.895  0.1179  0.2292 -0.0475
  207MOL0     H28497  11.546   7.280   5.036 -0.8990  1.1437  0.3145
  207MOL0     H28498  11.749   7.372   4.938  0.8147  0.6870  1.4743
  207MOL0     H28499  11.954   7.602   4.747  0.5509  0.2548  0.7817
  207MOL0     H28500  11.918   7.441   4.798 -0.7956 -0.5859  0.4650
  207MOL0     H28501  11.905   7.686   4.967  0.8978  1.5837 -2.8586
  207MOL0     H28502  11.910   7.513   5.020  1.6163  0.8815  1.9655
  207MOL0     H28503  12.141   7.495   4.982 -0.0230  0.4809 -1.3789
  207MOL0     H28504  12.140   7.631   4.869  0.4304 -0.5734 -0.2948
  207MOL0     H28505  12.137   7.790   5.062  0.1806  0.6837  0.7170
  207MOL0     H28506  12.129   7.657   5.176 -2.5370 -2.5417 -1.5873
  207MOL0     H28507  12.341   7.567   5.086 -2.0029  0.5769 -1.3957
  207MOL0     H28508  12.367   7.708   5.189  3.1298 -0.6463  0.1669
  207MOL0     H28509  12.490   7.727   4.952  0.9573  0.8885 -0.8477
  207MOL0     H28510  12.338   7.736   4.880  1.1080 -0.9824 -0.6467
  207MOL0     H28511  12.310   7.957   5.035 -0.1693  0.4722 -0.2857
  207MOL0     H28512  12.415   7.951   4.887 -0.9477  1.5734 -0.3224
  207MOL0     H28513  12.527   8.066   5.086 -0.2766 -0.0628 -0.8809
  207MOL0     H28514  12.507   7.917   5.179 -0.9056  1.1033 -0.2778
  207MOL0     H28515  12.729   8.074   4.904  0.0525  0.2591  0.3444
  207MOL0     H28516  12.964   8.031   4.829  0.7792  1.2323 -0.3700
  207MOL0     H28517  12.993   7.863   4.795  1.7917  1.2594  0.2203
  207MOL0     H28518  13.108   7.997   5.028  0.9374  0.6854 -2.1301
  207MOL0     H28519  13.116   7.817   5.003 -2.2320  0.0836  0.2629
  207MOL0     H28520  13.233   7.876   4.782 -0.2479  1.9695 -1.6386
  207MOL0     H28521  13.207   8.039   4.806  0.6215 -1.7590 -3.4139
  207MOL0     H28522  13.346   8.016   5.022 -1.8880 -0.7279  0.3897
  207MOL0     H28523  13.384   7.851   4.956  0.3444 -0.0840  1.1022
  207MOL0     H28524  13.580   8.160   4.674  2.4939  1.1996 -2.0266
  207MOL0     H28525  13.872   8.316   4.713 -2.1106 -0.1058  1.6949
  207MOL0     H28526  13.732   8.301   4.610 -1.8077 -1.6380  1.6011
  207MOL0     H28527  13.875   8.191   4.579  1.9121  2.2497 -1.2768
  207MOL0     H28528  14.215   8.304   4.981  1.7693  0.4930 -0.8803
  207MOL0     H28529  14.454   8.307   5.008 -0.9892 -0.1366  0.4463
  207MOL0     H28530  14.627   8.285   5.123  0.5654  1.2421 -1.5398
  207MOL0     H28531  14.746   8.166   5.175  2.4645  1.5404 -1.1737
  207MOL0     H28532  14.854   8.186   4.941  0.3468  2.6199 -2.9224
  207MOL0     H28533  14.755   8.336   4.932 -0.9178 -2.1131 -1.6450
  207MOL0     H28534  14.946   8.243   5.155  0.8929 -0.9532 -0.4482
  207MOL0     H28535  14.859   8.399   5.155  0.0181 -0.7834  0.4461
  207MOL0     H28536  14.973   8.465   4.937 -1.0014 -3.3187 -1.9838
  207MOL0     H28537  15.079   8.327   4.961  0.2965  0.2086  0.3489
  207MOL0     H28538  15.029   8.540   5.162 -0.0515  0.7111 -2.3072
  207MOL0     H28539  15.153   8.411   5.180 -0.0637 -0.6440  0.9717
  207MOL0     H28540  15.228   8.523   4.936  2.4287  0.5352  0.2830
  207MOL0     H28541  15.283   8.565   5.095 -0.8693 -0.2470  0.5145
  207MOL0     H28542  15.079   8.759   5.076  1.1615 -0.4767  1.7576
  207MOL0     H28543  15.066   8.692   4.913  1.0217  1.9945 -2.3544
  207MOL0     H28544  15.325   8.810   5.025  0.8370 -0.2633 -0.4178
  207MOL0     H28545  15.211   8.896   4.924  0.6775  0.7612  0.3284
  207MOL0     H28546  14.480   7.889   4.992 -0.3416  0.4671  1.8514
  207MOL0     H28547  14.230   7.876   4.989  0.6206 -0.2623  0.0169
  207MOL0     H28548  13.845   7.951   5.033 -1.0462  0.8475  0.7969
  207MOL0     H28549  13.618   7.899   5.011  1.3984 -0.1110  0.7229
  207MOL0     H28550  11.517   7.680   4.751 -0.5617  0.8687  1.8104
  207MOL0     H28551  11.305   7.567   4.817 -0.0298  2.8256  1.6311
  207MOL0     H28552  11.046   7.532   5.224  3.6221 -0.6081 -2.6090
  207MOL0     H28553  10.816   7.514   5.247 -0.1354  0.8576 -0.9596
  207MOL0     H28554  10.595   7.152   5.033  1.5437 -0.8059  4.2081
  207MOL0     H28555  10.458   7.246   5.094  1.4712  1.2855  2.7101
  207MOL0     H28556  10.517   7.238   4.842  1.9160 -0.9848  2.0879
  207MOL0     H28557  10.631   7.370   4.872  0.3443 -0.5428 -0.6321
  207MOL0     H28558  10.326   7.343   4.942  2.1667 -2.4668 -0.5039
  207MOL0     H28559  10.421   7.482   4.991 -0.3034  0.0321 -0.0569
  207MOL0     H28560  10.409   7.400   4.689  2.7235  0.4241  0.8594
  207MOL0     H28561  10.445   7.558   4.751 -0.9767 -0.0979 -0.7676
  207MOL0     H28562  10.026   7.568   4.750 -0.6380  0.5777  1.6146
  207MOL0     H28563  10.801   7.183   4.977 -0.1425  0.2393  1.4579
  207MOL0     H28564  10.985   7.139   4.844  1.3372  0.8932 -2.8803
  207MOL0     H28565  11.115   7.256   4.818 -0.5124  2.1282  0.8550
  207MOL0     H28566  11.126   7.137   4.958 -0.0583 -0.3823 -0.4547
  208MOL0     O28567   7.992   7.776   9.817 -1.2055  0.3184 -0.1595
  208MOL0     C28568   7.920   7.676   9.809 -0.8387  0.6436  0.1387
  208MOL0     O28569   7.952   7.553   9.744 -0.6244 -0.1759 -0.0261
  208MOL0     C28570   8.082   7.536   9.707  0.5233  0.7014 -0.1588
  208MOL0     C28571   8.135   7.406   9.737  1.1059  0.2418 -0.0295
  208MOL0     C28572   8.265   7.367   9.697 -0.2990 -0.3777  0.1266
  208MOL0     C28573   8.357   7.453   9.637 -0.5258 -0.8005  0.1644
  208MOL0     O28574   8.486   7.427   9.605 -0.0314  0.5474  0.4133
  208MOL0     C28575   8.542   7.295   9.626  1.0756 -0.2246  0.0953
  208MOL0     C28576   8.688   7.294   9.581 -1.1818  1.1020 -0.6158
  208MOL0     C28577   8.723   7.168   9.521 -0.2237  0.6511  0.3925
  208MOL0     C28578   8.869   7.154   9.488 -0.1275  0.2234  0.2851
  208MOL0     C28579   8.910   7.016   9.426  1.0340 -0.9767  0.0475
  208MOL0     C28580   9.051   6.977   9.436 -0.6166  0.3753  0.5948
  208MOL0     C28581   9.110   6.916   9.312 -0.0320  0.2123 -0.8593
  208MOL0     C28582   9.261   6.941   9.309  0.6973  0.2116  0.2971
  208MOL0     N28583   9.325   6.913   9.435  0.0543  0.0502  0.0741
  208MOL0     C28584   9.395   6.998   9.517 -0.0604 -0.3175  0.0041
  208MOL0     C28585   9.428   6.930   9.621 -0.5411 -0.5001  0.3411
  208MOL0     C28586   9.488   7.008   9.739 -0.0764  0.1466  0.1681
  208MOL0     C28587   9.631   7.051   9.713  0.3396 -0.0738  0.1240
  208MOL0     C28588   9.699   7.110   9.830  0.3581 -0.0775  0.9235
  208MOL0     C28589   9.851   7.136   9.817  0.5049  0.0835 -0.0306
  208MOL0     O28590   9.890   7.191   9.939 -0.2772 -0.4940  0.4018
  208MOL0     C28591  10.027   7.224   9.953 -0.5247 -0.4102 -0.4528
  208MOL0     C28592  10.058   7.289  10.073  0.9357 -0.7642  0.6074
  208MOL0     C28593  10.193   7.309  10.109 -1.1008 -0.2421  0.5937
  208MOL0     C28594  10.234   7.355  10.253 -0.4576  0.0671 -0.1942
  208MOL0     C28595  10.295   7.294  10.008  0.3878 -0.3858  0.4311
  208MOL0     C28596  10.440   7.349  10.017  0.2974 -0.4826 -0.2228
  208MOL0     O28597  10.458   7.475  10.073 -0.0239 -0.2530  0.4191
  208MOL0     C28598  10.571   7.546  10.038 -0.0012 -0.5084 -0.1726
  208MOL0     C28599  10.543   7.673   9.986  0.3027 -0.4762 -0.1464
  208MOL0     C28600  10.648   7.752   9.944 -0.0425 -0.3544  0.1660
  208MOL0     C28601  10.781   7.704   9.948 -0.1638  0.2733 -0.1512
  208MOL0     O28602  10.878   7.791   9.913 -0.4819 -0.7355  0.0079
  208MOL0     C28603  10.975   7.751   9.816  0.5708  0.7742 -0.3361
  208MOL0     C28604  11.071   7.866   9.777  0.4955 -0.6019  0.1905
  208MOL0     C28605  11.145   7.834   9.641 -1.5071  0.1259 -0.2073
  208MOL0     C28606  11.234   7.955   9.602  0.0489 -0.1591 -0.1241
  208MOL0     C28607  11.308   7.925   9.466 -0.4062 -0.7308  0.5698
  208MOL0     C28608  11.392   8.050   9.424 -0.4719  0.1060 -0.1186
  208MOL0     C28609  11.476   8.001   9.302  0.0963 -0.5879 -0.4955
  208MOL0     C28610  11.594   8.103   9.277  0.1444 -0.7977 -0.5904
  208MOL0    Cl28611  11.537   8.234   9.170 -0.0973 -0.3313  0.2554
  208MOL0     C28612  10.805   7.578  10.010  0.3772  0.3623 -0.3989
  208MOL0     C28613  10.701   7.497  10.049 -0.1658 -0.1071 -0.6312
  208MOL0     O28614  10.529   7.272   9.983  0.0183 -0.9925  0.0108
  208MOL0     C28615  10.264   7.239   9.882  0.9202 -0.7732 -0.0581
  208MOL0     C28616  10.132   7.205   9.860 -0.2428  1.1739  0.4940
  208MOL0     N28617   9.401   6.796   9.602 -0.5240 -0.0128  0.2138
  208MOL0     N28618   9.332   6.787   9.487  0.0991  0.2211  0.0170
  208MOL0     C28619   8.309   7.586   9.617  0.0015 -0.4265  0.2746
  208MOL0     C28620   8.172   7.622   9.640  0.0988 -0.5243  0.3471
  208MOL0     C28621   7.775   7.693   9.849  0.2307 -0.0151  0.1375
  208MOL0     C28622   7.683   7.609   9.798 -0.2462 -0.2665  0.2914
  208MOL0     C28623   7.548   7.619   9.814  0.4672 -0.4909 -0.2067
  208MOL0     C28624   7.494   7.721   9.893  0.2375  0.9098  0.5846
  208MOL0     O28625   7.356   7.730   9.889 -0.1487  0.2209  0.1081
  208MOL0     C28626   7.285   7.833   9.961  0.0650  0.7080  0.4265
  208MOL0     C28627   7.137   7.819   9.923 -0.9307  0.6353  0.3790
  208MOL0     C28628   7.059   7.904  10.017 -0.0165  0.1861  0.1791
  208MOL0     C28629   6.907   7.926   9.969  0.9573  0.7838  0.4212
  208MOL0     C28630   6.823   8.023  10.044  0.4260 -0.6923  0.0457
  208MOL0     C28631   6.763   8.106  10.101 -0.5049 -0.3474 -1.1597
  208MOL0     C28632   7.584   7.809   9.953 -0.2715 -0.6639  0.4430
  208MOL0     C28633   7.723   7.796   9.930 -0.0726  0.8598 -0.8247
  208MOL0     C28634   7.805   7.903   9.999  0.1753  0.6993 -0.3616
  208MOL0     H28635   8.067   7.343   9.794  0.5165  0.2879 -0.6823
  208MOL0     H28636   8.307   7.270   9.722  0.9332 -0.2447 -1.2872
  208MOL0     H28637   8.489   7.222   9.564  1.9302 -0.0520 -0.8773
  208MOL0     H28638   8.536   7.272   9.733  1.9081  0.5144  0.3065
  208MOL0     H28639   8.703   7.364   9.498  1.1340  0.8875 -0.4236
  208MOL0     H28640   8.753   7.314   9.666  0.8054  0.5461 -1.9295
  208MOL0     H28641   8.701   7.090   9.594  1.1663 -0.2517 -0.1134
  208MOL0     H28642   8.675   7.150   9.424  1.0357 -3.1630  0.3014
  208MOL0     H28643   8.898   7.234   9.418  0.1826  0.5384  0.7693
  208MOL0     H28644   8.934   7.166   9.575 -0.1809 -0.4136  0.4125
  208MOL0     H28645   8.880   7.015   9.321  0.0247  1.5218  0.2445
  208MOL0     H28646   8.862   6.927   9.467 -4.2711  0.9998 -1.0752
  208MOL0     H28647   9.102   7.073   9.450  3.4784 -1.7457  1.5305
  208MOL0     H28648   9.060   6.909   9.521 -2.8618 -0.7961 -0.0295
  208MOL0     H28649   9.058   6.950   9.222  1.2854  1.3921 -1.2173
  208MOL0     H28650   9.087   6.810   9.321  0.6929  0.2256  2.7366
  208MOL0     H28651   9.305   6.884   9.227 -0.0545  0.2347 -0.1409
  208MOL0     H28652   9.277   7.047   9.285  0.9433 -0.0688 -0.8652
  208MOL0     H28653   9.422   7.099   9.486 -0.2542 -0.0162  0.8004
  208MOL0     H28654   9.471   6.947   9.828 -2.3627  1.2867  0.5988
  208MOL0     H28655   9.432   7.097   9.771 -0.7819  0.3175 -1.4712
  208MOL0     H28656   9.691   6.966   9.678  0.3477  0.6149 -1.6265
  208MOL0     H28657   9.628   7.118   9.626 -1.2811  0.0084  0.2148
  208MOL0     H28658   9.635   7.196   9.851 -2.3706 -2.2257  2.1133
  208MOL0     H28659   9.687   7.035   9.909  1.5755 -0.6185  0.6132
  208MOL0     H28660   9.890   7.036   9.795  1.9385  1.0370 -2.2894
  208MOL0     H28661   9.872   7.212   9.741  2.0093  0.3710  0.6355
  208MOL0     H28662   9.980   7.288  10.149 -0.0530 -1.8461 -0.3885
  208MOL0     H28663  10.222   7.463  10.264 -1.2195 -0.1192  0.9574
  208MOL0     H28664  10.340   7.337  10.271 -0.5499  0.1227  0.4359
  208MOL0     H28665  10.163   7.309  10.323 -3.0649  0.2070 -2.5551
  208MOL0     H28666  10.442   7.714   9.987  0.4667 -0.0697 -0.0822
  208MOL0     H28667  10.621   7.850   9.907 -0.0345 -0.9801 -1.6030
  208MOL0     H28668  11.041   7.673   9.853 -0.0786 -1.2573 -3.1421
  208MOL0     H28669  10.924   7.710   9.729  0.8154 -0.1660 -0.0456
  208MOL0     H28670  11.011   7.956   9.765 -0.3687 -0.8816  2.0221
  208MOL0     H28671  11.141   7.892   9.858 -0.1728  0.1621  0.5431
  208MOL0     H28672  11.076   7.809   9.560 -2.0388 -0.6662  0.4714
  208MOL0     H28673  11.205   7.744   9.661  0.1629  1.6681  2.2392
  208MOL0     H28674  11.307   7.965   9.682 -1.5964 -1.1288  1.5694
  208MOL0     H28675  11.168   8.041   9.590 -1.2629 -0.9949  0.8119
  208MOL0     H28676  11.375   7.839   9.473 -0.2411 -0.6577 -0.0454
  208MOL0     H28677  11.231   7.896   9.394 -1.2874 -0.2875  1.3116
  208MOL0     H28678  11.458   8.092   9.500  0.2086  1.2620 -1.2920
  208MOL0     H28679  11.325   8.133   9.399  1.5001  1.8121 -0.0418
  208MOL0     H28680  11.411   7.995   9.215  0.4084  2.0041 -0.9807
  208MOL0     H28681  11.520   7.902   9.320  0.4899 -0.5534 -1.2468
  208MOL0     H28682  11.661   8.041   9.216 -2.9215 -3.3869 -1.6558
  208MOL0     H28683  11.642   8.137   9.369 -0.2964 -1.4711 -0.0972
  208MOL0     H28684  10.904   7.536  10.028 -0.0788 -1.3507 -1.6712
  208MOL0     H28685  10.724   7.400  10.092  2.0178  0.2460 -0.8728
  208MOL0     H28686  10.338   7.236   9.803  2.7731 -1.1751  1.6179
  208MOL0     H28687  10.105   7.160   9.764  1.5062  1.2466 -0.0743
  208MOL0     H28688   8.380   7.659   9.579 -0.6027 -0.5324 -1.1487
  208MOL0     H28689   8.147   7.724   9.613  0.7573 -0.8088 -1.5020
  208MOL0     H28690   7.714   7.526   9.735 -3.4527 -0.9650 -0.5386
  208MOL0     H28691   7.480   7.556   9.759 -2.1521  1.6320  0.4029
  208MOL0     H28692   7.295   7.820  10.069  1.3965  0.0364  0.2467
  208MOL0     H28693   7.320   7.935   9.944 -1.9710  1.6731  1.6252
  208MOL0     H28694   7.107   7.714   9.917 -0.2953  0.1977  3.1847
  208MOL0     H28695   7.134   7.853   9.820  1.1409 -0.3845 -0.0740
  208MOL0     H28696   7.068   7.867  10.120 -0.4974  2.3112  1.0539
  208MOL0     H28697   7.108   8.002  10.024 -0.0262  0.1565  0.7783
  208MOL0     H28698   6.847   7.835   9.980  0.6708  0.9608  0.3076
  208MOL0     H28699   6.906   7.955   9.864 -1.6576  0.2914  0.2429
  208MOL0     H28700   6.703   8.172  10.160  0.8710 -0.3806  0.3493
  208MOL0     H28701   7.545   7.897  10.003 -3.2348  0.3883 -3.2310
  208MOL0     H28702   7.863   7.967   9.933  1.4944 -0.9782 -0.9274
  208MOL0     H28703   7.731   7.971  10.041  1.2436  2.0457 -0.6198
  208MOL0     H28704   7.866   7.862  10.081 -0.0425  2.3638  0.6755
  209MOL0     O28705   6.064   5.767   1.633 -0.5569  0.7681  0.0428
  209MOL0     C28706   5.959   5.833   1.644  0.1011  0.6911 -0.5642
  209MOL0     O28707   5.945   5.942   1.721  0.1785  0.0692 -0.1125
  209MOL0     C28708   6.058   6.001   1.780  0.6541  0.5842  0.2151
  209MOL0     C28709   6.055   6.138   1.791 -0.5834 -0.0266  0.7614
  209MOL0     C28710   6.163   6.217   1.849 -0.4033  0.5543 -0.3384
  209MOL0     C28711   6.271   6.143   1.912  0.2186 -0.2090  0.1490
  209MOL0     O28712   6.380   6.215   1.960  0.2860  0.2910  0.1030
  209MOL0     C28713   6.455   6.277   1.854  0.1076  1.1024  0.3113
  209MOL0     C28714   6.543   6.174   1.794 -0.6939  0.4548  0.5396
  209MOL0     C28715   6.670   6.234   1.719  0.1923 -0.0716  0.0049
  209MOL0     C28716   6.775   6.294   1.810 -0.0748 -0.1042  0.0631
  209MOL0     C28717   6.899   6.367   1.742  0.1535  0.1297 -0.2892
  209MOL0     C28718   6.999   6.282   1.669 -0.6599 -1.1121  0.7475
  209MOL0     C28719   7.101   6.373   1.591  0.7264  0.4126  0.4295
  209MOL0     C28720   7.231   6.292   1.583 -0.4402 -0.5389 -1.0438
  209MOL0     N28721   7.324   6.349   1.490  0.4261 -0.1083 -0.6569
  209MOL0     C28722   7.327   6.329   1.355 -0.2410 -0.1781 -1.1923
  209MOL0     C28723   7.423   6.423   1.309  0.2700  1.1528 -0.5295
  209MOL0     C28724   7.476   6.415   1.168  0.3529  0.8290 -0.0481
  209MOL0     C28725   7.570   6.301   1.144  0.1027 -0.2087 -0.4031
  209MOL0     C28726   7.716   6.344   1.170 -0.6488  0.6238 -0.2033
  209MOL0     C28727   7.825   6.224   1.159  0.2195  0.3869 -0.1020
  209MOL0     O28728   7.956   6.288   1.190  0.6856 -0.2244  0.3340
  209MOL0     C28729   8.052   6.241   1.276  0.6633 -0.8000 -0.9454
  209MOL0     C28730   8.035   6.143   1.373 -0.1044  0.6837 -0.1037
  209MOL0     C28731   8.129   6.109   1.471  0.0990  0.0822  0.1062
  209MOL0     C28732   8.101   5.986   1.557 -0.3906 -1.2089 -0.0808
  209MOL0     C28733   8.251   6.177   1.464 -0.8997  0.3865  0.5641
  209MOL0     C28734   8.364   6.160   1.564  0.4646 -0.7552 -0.9189
  209MOL0     O28735   8.395   6.039   1.588 -0.3872 -0.0539 -0.3016
  209MOL0     C28736   8.497   6.022   1.679 -0.1849 -0.0420 -0.7574
  209MOL0     C28737   8.481   6.027   1.821 -0.4807 -0.4778  0.2565
  209MOL0     C28738   8.590   6.005   1.902  0.4957  0.3587  0.2610
  209MOL0     C28739   8.721   5.983   1.860 -0.0409 -0.4049 -0.3716
  209MOL0     O28740   8.816   5.982   1.953 -0.7185  0.1761  0.2608
  209MOL0     C28741   8.951   6.000   1.908  0.2787 -0.1848 -1.0018
  209MOL0     C28742   9.044   6.005   2.026  0.2674 -0.0495 -0.6758
  209MOL0     C28743   9.193   6.013   1.978  0.2209  0.3360  0.7583
  209MOL0     C28744   9.267   6.144   2.033  0.3011 -1.0167  0.7515
  209MOL0     C28745   9.408   6.151   1.971 -0.2733  0.6299  0.5622
  209MOL0     C28746   9.504   6.047   2.031  0.1675  0.3051 -0.8633
  209MOL0     C28747   9.624   6.031   1.937  0.2524 -0.6657  0.1266
  209MOL0     C28748   9.745   5.964   1.998 -0.6005 -0.8454 -0.9972
  209MOL0    Cl28749   9.772   6.025   2.163  0.2023  0.0135 -0.2758
  209MOL0     C28750   8.737   5.957   1.722  0.2585  0.1722  0.2714
  209MOL0     C28751   8.627   5.978   1.636 -0.1625 -0.1460  0.0794
  209MOL0     O28752   8.416   6.260   1.605  0.2363 -0.6041 -0.4738
  209MOL0     C28753   8.271   6.280   1.369 -0.0738  0.0675 -0.4375
  209MOL0     C28754   8.170   6.311   1.275 -0.2638  0.6324 -0.4691
  209MOL0     N28755   7.474   6.492   1.425 -0.5272  0.3151 -0.0467
  209MOL0     N28756   7.410   6.450   1.528  0.7268  0.0681  0.3215
  209MOL0     C28757   6.260   6.001   1.915  0.2900 -0.0995  0.2147
  209MOL0     C28758   6.152   5.932   1.863 -0.5210  0.0445  0.8053
  209MOL0     C28759   5.828   5.779   1.599  0.7611  0.2319  0.1549
  209MOL0     C28760   5.711   5.864   1.595 -0.0517 -0.1440  0.6537
  209MOL0     C28761   5.588   5.817   1.559 -1.4466  0.1972 -0.5284
  209MOL0     C28762   5.575   5.693   1.520 -0.3064  0.7002 -0.0958
  209MOL0     O28763   5.455   5.635   1.486 -0.2443 -0.0862  0.1523
  209MOL0     C28764   5.352   5.636   1.581 -0.6970  0.3331  0.2034
  209MOL0     C28765   5.256   5.532   1.528  0.4515  0.5370 -0.1219
  209MOL0     C28766   5.178   5.599   1.410 -0.5692 -0.5600 -0.3046
  209MOL0     C28767   5.135   5.499   1.302  0.6680 -0.1923 -0.3957
  209MOL0     C28768   5.016   5.410   1.329  0.2886 -0.6887 -0.2347
  209MOL0     C28769   4.924   5.331   1.318  0.1211  0.4894  0.0539
  209MOL0     C28770   5.675   5.599   1.528  0.3104  0.0180  0.2714
  209MOL0     C28771   5.801   5.645   1.564  0.1972  0.3497 -0.1767
  209MOL0     C28772   5.904   5.534   1.568  0.3077 -0.4273  0.0915
  209MOL0     H28773   5.981   6.200   1.742 -1.7199 -1.1642  0.9845
  209MOL0     H28774   6.178   6.322   1.828 -1.3515  0.3577 -2.1941
  209MOL0     H28775   6.525   6.345   1.904  0.1548  0.3918  1.2228
  209MOL0     H28776   6.402   6.325   1.771  0.6806 -2.2911 -2.2396
  209MOL0     H28777   6.579   6.100   1.866 -1.0851 -2.2486 -1.8315
  209MOL0     H28778   6.489   6.110   1.723  1.4561 -1.9503  0.9251
  209MOL0     H28779   6.704   6.150   1.658 -2.7222 -1.8551  0.6561
  209MOL0     H28780   6.631   6.319   1.660 -2.2199 -0.9113  0.2852
  209MOL0     H28781   6.719   6.365   1.871 -0.6726 -1.0073  0.5823
  209MOL0     H28782   6.807   6.226   1.889  0.5259 -0.1242 -0.1952
  209MOL0     H28783   6.950   6.416   1.825 -0.4525 -1.3405  1.0140
  209MOL0     H28784   6.860   6.447   1.678  0.5678 -0.2843 -1.0794
  209MOL0     H28785   7.045   6.223   1.749 -1.9310 -2.4632  0.5206
  209MOL0     H28786   6.954   6.213   1.597  2.9023 -2.0701 -0.7668
  209MOL0     H28787   7.121   6.465   1.648 -2.5403  1.6626 -0.1998
  209MOL0     H28788   7.049   6.404   1.500 -0.4209  2.7091  1.7560
  209MOL0     H28789   7.279   6.290   1.681 -3.0247  2.3002  0.4560
  209MOL0     H28790   7.208   6.190   1.550 -2.5140 -0.6890  0.6727
  209MOL0     H28791   7.260   6.260   1.304  0.3773 -3.3993  1.9508
  209MOL0     H28792   7.522   6.508   1.134  0.7799 -0.2918 -2.7622
  209MOL0     H28793   7.390   6.396   1.102  0.3752 -0.9482  0.3770
  209MOL0     H28794   7.547   6.221   1.215 -1.0234  0.0700 -0.4317
  209MOL0     H28795   7.552   6.273   1.040  2.2106 -0.4882 -0.7321
  209MOL0     H28796   7.744   6.430   1.109 -1.5635  1.4643  0.5439
  209MOL0     H28797   7.729   6.383   1.271 -2.0580 -0.4106  0.4109
  209MOL0     H28798   7.799   6.149   1.234  2.0055  0.8091  0.9906
  209MOL0     H28799   7.826   6.166   1.066 -1.7539 -1.8035  1.1183
  209MOL0     H28800   7.938   6.094   1.382  0.1443  0.0141 -0.9654
  209MOL0     H28801   8.131   6.003   1.661 -3.4859 -0.3763  0.7771
  209MOL0     H28802   8.143   5.899   1.506 -1.6199 -2.7678  1.4478
  209MOL0     H28803   7.994   5.966   1.569 -0.4526  0.5655  4.6180
  209MOL0     H28804   8.384   6.041   1.868  1.0485 -0.3927  3.7005
  209MOL0     H28805   8.576   6.007   2.009 -0.2587  2.0212  0.1678
  209MOL0     H28806   8.976   5.912   1.849  1.2797 -1.5991  1.4021
  209MOL0     H28807   8.956   6.092   1.849 -2.4492 -1.0193 -2.7275
  209MOL0     H28808   9.025   6.092   2.089  0.7078 -0.5619  0.1753
  209MOL0     H28809   9.027   5.916   2.087  0.2989 -1.4972 -2.6635
  209MOL0     H28810   9.198   5.996   1.870 -1.2782 -2.1664  1.0001
  209MOL0     H28811   9.232   5.921   2.023 -1.2050  0.3306  2.1151
  209MOL0     H28812   9.276   6.144   2.142 -0.1544 -0.1016  0.8025
  209MOL0     H28813   9.201   6.227   2.006 -0.3001 -1.9665 -0.8265
  209MOL0     H28814   9.399   6.155   1.863 -2.8778  2.6778  0.7532
  209MOL0     H28815   9.451   6.247   2.000  1.3148  0.8291 -2.2239
  209MOL0     H28816   9.454   5.950   2.046  0.1724  0.3619 -0.4716
  209MOL0     H28817   9.535   6.091   2.126  1.6191 -1.0039 -0.6820
  209MOL0     H28818   9.641   6.127   1.886  0.8866 -1.8982 -2.1046
  209MOL0     H28819   9.591   5.966   1.855 -2.3071  1.3576 -0.6080
  209MOL0     H28820   9.829   5.997   1.937  1.4445  1.4659  2.6613
  209MOL0     H28821   9.732   5.857   2.016  0.0904 -0.7105  0.4663
  209MOL0     H28822   8.832   5.926   1.679 -0.6371 -2.3194 -0.0929
  209MOL0     H28823   8.636   5.943   1.534 -0.2452 -0.7936  0.2921
  209MOL0     H28824   8.356   6.347   1.360  1.1344 -1.3442  0.0664
  209MOL0     H28825   8.202   6.397   1.218 -1.5212  0.5676 -1.3112
  209MOL0     H28826   6.332   5.940   1.969 -0.6333 -0.6547  0.8602
  209MOL0     H28827   6.146   5.825   1.852  1.5563 -0.0844  0.5230
  209MOL0     H28828   5.709   5.970   1.615  1.7170  0.0565 -0.0456
  209MOL0     H28829   5.506   5.887   1.549 -0.1170  1.7495 -0.9513
  209MOL0     H28830   5.402   5.617   1.676  3.3147  0.8633 -1.5947
  209MOL0     H28831   5.307   5.736   1.587 -3.0990 -0.4242 -2.6421
  209MOL0     H28832   5.178   5.512   1.602  0.1870  2.0966  0.0668
  209MOL0     H28833   5.315   5.445   1.497  3.5200  1.4385  2.5235
  209MOL0     H28834   5.094   5.663   1.439 -0.3306 -0.0247 -0.7623
  209MOL0     H28835   5.250   5.657   1.352  0.6133 -3.0788 -1.5005
  209MOL0     H28836   5.229   5.447   1.280  2.4169  1.1122  3.1127
  209MOL0     H28837   5.106   5.548   1.209 -0.0247  2.0932  0.9322
  209MOL0     H28838   4.840   5.265   1.314  0.6535 -0.1679 -0.6786
  209MOL0     H28839   5.648   5.495   1.515  0.8960  0.1565 -3.0408
  209MOL0     H28840   5.988   5.562   1.505  0.8347 -2.2818 -0.0713
  209MOL0     H28841   5.926   5.525   1.675 -4.0310  2.1463  1.5030
  209MOL0     H28842   5.855   5.445   1.528 -1.8902 -0.1817  1.9660
  210MOL0     O28843  10.738   7.166   6.771 -0.3309 -0.2898 -0.0403
  210MOL0     C28844  10.674   7.073   6.823 -0.3697  0.3859 -0.2169
  210MOL0     O28845  10.730   6.975   6.904  0.1182 -0.0584 -0.5067
  210MOL0     C28846  10.860   6.981   6.943  0.3667  0.4806 -0.2219
  210MOL0     C28847  10.891   7.021   7.072  0.5066 -0.1173 -0.7303
  210MOL0     C28848  11.023   7.024   7.114 -0.4267 -0.2369  0.1692
  210MOL0     C28849  11.125   6.994   7.023  0.5002 -1.1530  0.4738
  210MOL0     O28850  11.257   7.034   7.043 -0.1436  0.1592  0.1505
  210MOL0     C28851  11.302   7.066   7.179 -0.2471  0.2548  0.6979
  210MOL0     C28852  11.303   7.215   7.184 -0.5785 -0.0457  0.6885
  210MOL0     C28853  11.429   7.268   7.113  0.2514 -0.5177 -0.5918
  210MOL0     C28854  11.406   7.423   7.107 -0.4857  0.6335 -0.4189
  210MOL0     C28855  11.542   7.496   7.070  0.0817 -0.8889  0.4698
  210MOL0     C28856  11.530   7.642   7.050 -0.6931 -0.2863  0.3830
  210MOL0     C28857  11.531   7.719   7.181 -0.6529 -0.0046 -0.6025
  210MOL0     C28858  11.674   7.764   7.226  0.5939 -0.3847  0.6945
  210MOL0     N28859  11.702   7.898   7.169  0.3521 -0.1130  0.0184
  210MOL0     C28860  11.786   7.941   7.064  0.6519  0.4015 -0.1971
  210MOL0     C28861  11.773   8.076   7.072 -0.5271  0.0569 -0.1261
  210MOL0     C28862  11.853   8.172   6.992  0.2383 -0.4265 -1.1022
  210MOL0     C28863  11.794   8.311   6.968  0.5356 -0.1677  0.1944
  210MOL0     C28864  11.770   8.413   7.083 -0.3736 -0.2571  0.2771
  210MOL0     C28865  11.910   8.436   7.156 -0.1483  0.1195 -0.1126
  210MOL0     O28866  11.892   8.548   7.246  0.1066 -0.3859 -0.2206
  210MOL0     C28867  12.004   8.602   7.311 -0.0785 -0.1397  0.0171
  210MOL0     C28868  11.975   8.704   7.399  0.0117 -0.1103 -0.4104
  210MOL0     C28869  12.082   8.763   7.482 -0.1483  0.1384 -0.3428
  210MOL0     C28870  12.049   8.859   7.595 -0.7133  0.5408  0.6252
  210MOL0     C28871  12.216   8.731   7.445 -0.4810 -0.3917  0.4995
  210MOL0     C28872  12.326   8.810   7.496 -0.1508  0.3772 -0.0296
  210MOL0     O28873  12.422   8.735   7.558 -0.0309 -0.2385 -0.1398
  210MOL0     C28874  12.525   8.800   7.610 -1.0267  0.5956  1.1087
  210MOL0     C28875  12.650   8.758   7.557 -1.0283 -0.2320 -0.3742
  210MOL0     C28876  12.769   8.802   7.619 -0.0203  0.1049 -0.5544
  210MOL0     C28877  12.761   8.884   7.732  0.4132  0.0723 -0.5888
  210MOL0     O28878  12.881   8.928   7.788  0.1937 -0.1711 -0.4199
  210MOL0     C28879  12.890   9.032   7.897  0.0261  0.5707  0.0626
  210MOL0     C28880  13.035   9.044   7.944 -0.4429  0.6302  0.0133
  210MOL0     C28881  13.070   8.919   8.024 -0.0059 -0.4808  0.6990
  210MOL0     C28882  13.222   8.893   8.056  0.9532 -0.1076  0.1654
  210MOL0     C28883  13.253   8.787   8.160 -0.5187 -0.1857  0.2432
  210MOL0     C28884  13.213   8.844   8.294  0.1094 -0.4700 -0.1999
  210MOL0     C28885  13.284   8.765   8.412 -0.2551  0.1916  0.1385
  210MOL0     C28886  13.237   8.811   8.551 -0.7456  0.1511  0.5161
  210MOL0    Cl28887  13.074   8.743   8.577  0.0994  0.1423 -0.2017
  210MOL0     C28888  12.634   8.934   7.779 -0.4139  0.3884  0.5047
  210MOL0     C28889  12.519   8.893   7.711  0.4438 -0.2097 -0.6529
  210MOL0     O28890  12.330   8.925   7.458 -0.4539 -0.1912  0.1147
  210MOL0     C28891  12.236   8.634   7.354 -0.0851 -0.2236 -0.0015
  210MOL0     C28892  12.133   8.563   7.300 -0.6984  0.1646  0.2786
  210MOL0     N28893  11.701   8.111   7.184 -0.6861 -0.4957 -0.3823
  210MOL0     N28894  11.655   8.005   7.234 -0.6098 -0.7270 -0.5236
  210MOL0     C28895  11.094   6.952   6.886 -0.1094 -0.2912 -0.1099
  210MOL0     C28896  10.954   6.939   6.852 -0.2422  0.4909  0.4429
  210MOL0     C28897  10.525   7.066   6.829  0.8101 -0.0083  0.3296
  210MOL0     C28898  10.467   7.188   6.876  0.2506  0.4137 -0.2884
  210MOL0     C28899  10.322   7.199   6.902 -1.1819  0.2709  0.5706
  210MOL0     C28900  10.246   7.091   6.847 -0.2207 -0.8060 -0.6065
  210MOL0     O28901  10.107   7.100   6.843  0.0038  0.1560 -0.4699
  210MOL0     C28902  10.030   7.194   6.916 -0.3384 -0.2717  0.7460
  210MOL0     C28903  10.009   7.303   6.809  0.2060  0.2191  0.1765
  210MOL0     C28904   9.893   7.396   6.842 -0.0893 -0.3734 -0.2758
  210MOL0     C28905   9.903   7.446   6.991  0.4257 -0.5060 -0.7909
  210MOL0     C28906  10.026   7.512   7.035  0.0114  0.0389  0.2586
  210MOL0     C28907  10.132   7.549   7.066 -0.0385  0.0747 -0.0892
  210MOL0     C28908  10.302   6.970   6.802 -0.0006  0.5352 -0.0220
  210MOL0     C28909  10.439   6.956   6.802 -0.2024  0.1554  0.2838
  210MOL0     C28910  10.507   6.826   6.751 -0.1800 -1.0820 -0.5697
  210MOL0     H28911  10.817   7.046   7.146  0.7832 -1.9153  0.2019
  210MOL0     H28912  11.041   7.048   7.218  0.5824  0.1858 -0.0945
  210MOL0     H28913  11.399   7.025   7.207  0.0065 -0.6218 -1.2859
  210MOL0     H28914  11.233   7.029   7.256 -1.6906  1.0769 -0.1444
  210MOL0     H28915  11.220   7.258   7.127  0.3620  0.1510 -0.5779
  210MOL0     H28916  11.307   7.250   7.288  1.2934 -1.5770  1.1824
  210MOL0     H28917  11.513   7.243   7.179 -0.8691 -1.3016  0.6020
  210MOL0     H28918  11.451   7.236   7.011 -3.1974  1.2046 -2.0440
  210MOL0     H28919  11.338   7.433   7.022  0.2115 -0.8688 -1.1807
  210MOL0     H28920  11.360   7.457   7.200  0.5486  1.2746 -0.1245
  210MOL0     H28921  11.570   7.443   6.978  0.0615  0.4918 -0.3568
  210MOL0     H28922  11.610   7.476   7.154  0.1974  0.4086  0.7022
  210MOL0     H28923  11.610   7.687   6.991  1.0628 -1.7413  1.5696
  210MOL0     H28924  11.438   7.678   7.002  0.8036  2.6163 -0.5091
  210MOL0     H28925  11.499   7.646   7.257  0.2047  1.3641  1.1591
  210MOL0     H28926  11.464   7.805   7.174 -1.9144 -1.0751 -3.2204
  210MOL0     H28927  11.676   7.769   7.335 -0.2514 -2.1651  0.8159
  210MOL0     H28928  11.746   7.691   7.186  0.7643 -0.1356  0.5379
  210MOL0     H28929  11.853   7.890   6.996  1.1046 -1.3116  1.4651
  210MOL0     H28930  11.852   8.124   6.894  1.1577 -2.0750 -0.3494
  210MOL0     H28931  11.954   8.174   7.035 -0.7942 -0.9535  1.5462
  210MOL0     H28932  11.851   8.351   6.884 -0.0821 -1.1921 -0.7374
  210MOL0     H28933  11.698   8.293   6.920  0.8018 -2.3918  0.4007
  210MOL0     H28934  11.738   8.509   7.040 -0.2260 -1.3734 -2.5787
  210MOL0     H28935  11.700   8.382   7.160 -0.2333 -0.1460  0.4514
  210MOL0     H28936  11.942   8.357   7.224 -0.5267  0.7461  0.8112
  210MOL0     H28937  11.991   8.443   7.083  0.7430 -0.8912  0.7598
  210MOL0     H28938  11.869   8.723   7.412  0.0726 -0.6071  1.0473
  210MOL0     H28939  12.099   8.809   7.679  0.6875 -0.3377 -0.6808
  210MOL0     H28940  11.943   8.882   7.608 -0.9550 -0.3678  0.2983
  210MOL0     H28941  12.092   8.955   7.564  0.1292  0.0538  0.2653
  210MOL0     H28942  12.649   8.692   7.471 -0.4408  0.0664 -0.6163
  210MOL0     H28943  12.863   8.761   7.585  1.3503  0.5065  2.4623
  210MOL0     H28944  12.863   9.135   7.872  3.3706  1.6944  0.6679
  210MOL0     H28945  12.831   8.995   7.982 -1.1788 -1.5752 -1.5948
  210MOL0     H28946  13.101   9.057   7.858  2.6603  4.9893  2.6355
  210MOL0     H28947  13.050   9.125   8.016  0.3294 -0.2434  0.8756
  210MOL0     H28948  13.045   8.829   7.966  2.8791 -1.0334  0.1345
  210MOL0     H28949  13.015   8.931   8.118  2.9911  0.6988  2.4494
  210MOL0     H28950  13.269   8.987   8.086 -0.6972  0.3148  1.5922
  210MOL0     H28951  13.266   8.861   7.961  1.4529  0.8460  0.0649
  210MOL0     H28952  13.195   8.696   8.145  3.3370 -3.1522  1.7272
  210MOL0     H28953  13.358   8.757   8.152  0.2018  2.2981 -0.8353
  210MOL0     H28954  13.107   8.846   8.321  0.3433  1.5476  0.7956
  210MOL0     H28955  13.217   8.953   8.301 -1.1942 -0.3380 -1.0518
  210MOL0     H28956  13.391   8.784   8.405 -0.4631  2.0000  1.2958
  210MOL0     H28957  13.266   8.659   8.395 -0.7268  0.6886 -2.9008
  210MOL0     H28958  13.235   8.920   8.561 -0.2365  0.2919 -0.8209
  210MOL0     H28959  13.309   8.766   8.621 -0.0974  1.5178  0.7585
  210MOL0     H28960  12.642   8.993   7.870  1.3244 -1.4628  1.6257
  210MOL0     H28961  12.424   8.925   7.752 -0.3096 -4.1018  1.0932
  210MOL0     H28962  12.340   8.622   7.327  0.6402  3.4542  0.6301
  210MOL0     H28963  12.163   8.484   7.231  0.4994  2.4890 -2.0693
  210MOL0     H28964  11.165   6.926   6.809 -0.8543 -1.4923 -0.4098
  210MOL0     H28965  10.925   6.897   6.756  1.3345 -0.3693  0.3145
  210MOL0     H28966  10.524   7.274   6.911  1.7496 -0.8612  0.5146
  210MOL0     H28967  10.277   7.290   6.940 -0.1825  0.0254  2.4730
  210MOL0     H28968   9.933   7.144   6.927 -1.5371  0.2227 -4.7240
  210MOL0     H28969  10.087   7.233   7.001 -0.4047 -1.5211  1.3772
  210MOL0     H28970   9.978   7.258   6.715 -2.9574 -0.6921  1.5139
  210MOL0     H28971  10.101   7.362   6.798  1.2236 -1.5149 -1.1773
  210MOL0     H28972   9.889   7.491   6.788  0.5856  1.4748  2.7028
  210MOL0     H28973   9.801   7.340   6.823 -0.7413  0.3943  0.4998
  210MOL0     H28974   9.872   7.369   7.063 -0.4910 -0.4161 -1.0696
  210MOL0     H28975   9.823   7.518   7.007  1.6432  0.5921  0.6658
  210MOL0     H28976  10.229   7.586   7.092 -0.7066  0.5268  1.9484
  210MOL0     H28977  10.241   6.889   6.764  1.4903 -0.9793  0.6756
  210MOL0     H28978  10.603   6.846   6.703 -1.6143  3.5202 -2.0144
  210MOL0     H28979  10.522   6.757   6.835 -0.4676  0.4622  0.7951
  210MOL0     H28980  10.442   6.788   6.672 -0.7512  1.8194 -1.5998
  211MOL0     O28981   7.824   8.624   9.647 -0.0998  0.5561  0.4172
  211MOL0     C28982   7.806   8.647   9.532  0.6512 -0.1227  0.2205
  211MOL0     O28983   7.901   8.682   9.446  0.0078  0.3263 -0.5231
  211MOL0     C28984   8.032   8.696   9.484 -0.0414 -0.3706 -0.6095
  211MOL0     C28985   8.099   8.812   9.464  0.1151 -0.8928 -0.5397
  211MOL0     C28986   8.239   8.822   9.479  0.5546 -0.3600  0.2291
  211MOL0     C28987   8.313   8.709   9.496 -1.2354 -0.2725 -0.0923
  211MOL0     O28988   8.449   8.698   9.483 -0.2971  0.1736  0.3348
  211MOL0     C28989   8.531   8.754   9.584  0.1278  0.0164 -0.2895
  211MOL0     C28990   8.682   8.749   9.535  0.0757  0.1238 -0.0101
  211MOL0     C28991   8.718   8.870   9.443 -0.3989 -0.4213  0.0319
  211MOL0     C28992   8.697   9.001   9.521 -1.4360  0.4987 -0.7369
  211MOL0     C28993   8.831   9.072   9.530  0.3572 -0.1394  0.3460
  211MOL0     C28994   8.827   9.206   9.626  0.2735 -0.0013  1.1706
  211MOL0     C28995   8.948   9.236   9.686 -0.2950  0.1232 -0.7332
  211MOL0     C28996   8.957   9.378   9.739 -0.0921  0.0418 -0.3037
  211MOL0     N28997   9.085   9.419   9.811  0.0076 -0.1729  0.2112
  211MOL0     C28998   9.129   9.549   9.821 -0.2842  0.5964  0.4830
  211MOL0     C28999   9.233   9.537   9.909  0.1728 -0.3354  0.5454
  211MOL0     C29000   9.318   9.657   9.945  0.0025 -0.6595  0.5732
  211MOL0     C29001   9.407   9.713   9.836 -0.6092  1.1006  0.2324
  211MOL0     C29002   9.479   9.833   9.914 -0.9851 -0.3467 -0.5314
  211MOL0     C29003   9.393   9.961   9.915 -0.6990  0.3475 -0.3461
  211MOL0     O29004   9.443  10.075   9.992 -0.0153  0.0920 -0.8847
  211MOL0     C29005   9.471  10.053  10.127  0.6599  0.9062 -0.5247
  211MOL0     C29006   9.402   9.958  10.209 -0.1890 -0.4583  0.0833
  211MOL0     C29007   9.445   9.940  10.341 -0.0909  0.1710  0.1971
  211MOL0     C29008   9.379   9.826  10.411 -0.3295  0.4077  0.2959
  211MOL0     C29009   9.533  10.033  10.405 -0.6450 -0.0312  0.2263
  211MOL0     C29010   9.559  10.034  10.551  0.2975 -1.1253 -0.4563
  211MOL0     O29011   9.637  10.138  10.598  0.5872  0.1470  0.2199
  211MOL0     C29012   9.727  10.133  10.711 -0.1711  0.0930 -0.1043
  211MOL0     C29013   9.792  10.246  10.743 -0.5962 -0.3335  0.8646
  211MOL0     C29014   9.894  10.247  10.839 -0.7260  0.1438  0.3336
  211MOL0     C29015   9.928  10.131  10.911 -0.8430  0.7625  0.0403
  211MOL0     O29016  10.042  10.125  10.999  0.4453 -0.3151  0.1551
  211MOL0     C29017  10.028  10.207  11.110  0.6413 -0.0517 -0.1517
  211MOL0     C29018  10.132  10.151  11.209  1.0860 -0.4328 -0.0821
  211MOL0     C29019  10.268  10.131  11.149 -0.8147  0.4078 -0.1668
  211MOL0     C29020  10.359  10.061  11.248  0.0619  0.4230 -0.7726
  211MOL0     C29021  10.503  10.046  11.193 -0.0553  0.4635  0.0695
  211MOL0     C29022  10.601   9.964  11.281  0.1781  0.5656 -0.4146
  211MOL0     C29023  10.629  10.040  11.417  0.6453  0.4456 -0.7191
  211MOL0     C29024  10.702   9.962  11.530  0.4102  0.1000  0.8273
  211MOL0    Cl29025  10.870   9.919  11.458 -0.5326 -0.3917  0.1471
  211MOL0     C29026   9.863  10.014  10.876 -0.1190 -0.4609 -0.2093
  211MOL0     C29027   9.762  10.011  10.781  0.1746  0.1427  0.3792
  211MOL0     O29028   9.521   9.946  10.626  0.3815  0.0652 -0.0237
  211MOL0     C29029   9.601  10.119  10.320 -0.0361 -0.0315  0.2783
  211MOL0     C29030   9.569  10.133  10.180  0.3164  0.1411  0.0838
  211MOL0     N29031   9.259   9.412   9.939 -0.2815 -0.1003  0.1994
  211MOL0     N29032   9.171   9.338   9.879 -0.6251  1.2104  0.3513
  211MOL0     C29033   8.247   8.591   9.523 -0.8458  0.2076  0.0856
  211MOL0     C29034   8.106   8.580   9.507 -0.1526  1.0531 -0.4996
  211MOL0     C29035   7.678   8.625   9.467 -0.2781 -0.4078 -0.0815
  211MOL0     C29036   7.671   8.667   9.329  0.7523  0.3117  0.8283
  211MOL0     C29037   7.550   8.665   9.261  0.4289  0.2511  0.2200
  211MOL0     C29038   7.431   8.615   9.318 -0.2559 -0.7380  0.0961
  211MOL0     O29039   7.314   8.597   9.238  0.1880 -0.6891  0.0992
  211MOL0     C29040   7.229   8.487   9.260  0.3626 -0.2405 -0.2766
  211MOL0     C29041   7.147   8.457   9.129 -0.4270  0.0224 -0.3085
  211MOL0     C29042   7.089   8.584   9.057  0.0834 -0.3015 -0.1437
  211MOL0     C29043   6.984   8.666   9.136  0.3404  0.0337  0.5514
  211MOL0     C29044   6.947   8.774   9.046  0.1726  0.6993 -0.5203
  211MOL0     C29045   6.900   8.876   9.000  0.8857 -0.3952  0.1712
  211MOL0     C29046   7.439   8.570   9.451 -0.0245 -0.0931 -0.1687
  211MOL0     C29047   7.558   8.573   9.527 -0.5408 -0.4518  0.4741
  211MOL0     C29048   7.552   8.523   9.662  0.2630  0.8587 -0.9293
  211MOL0     H29049   8.042   8.903   9.452 -0.1203 -0.6632  1.7609
  211MOL0     H29050   8.294   8.913   9.459 -1.8461  1.0986 -0.1314
  211MOL0     H29051   8.506   8.700   9.675 -0.3792  2.3368  1.0287
  211MOL0     H29052   8.504   8.860   9.595  1.4660  0.2531  0.9484
  211MOL0     H29053   8.741   8.753   9.627 -0.4734 -1.2718  0.4420
  211MOL0     H29054   8.695   8.654   9.483  0.0387  0.9801 -1.6332
  211MOL0     H29055   8.826   8.861   9.428 -0.1449  1.8231  0.2724
  211MOL0     H29056   8.665   8.874   9.348 -0.4440 -0.0949  0.0721
  211MOL0     H29057   8.630   9.067   9.466 -1.5660 -0.2103 -1.4349
  211MOL0     H29058   8.664   8.989   9.625 -3.4038  1.0518 -1.2671
  211MOL0     H29059   8.881   9.098   9.436  0.2037 -0.8017  0.0729
  211MOL0     H29060   8.905   9.004   9.575  0.8890 -0.1977 -0.5791
  211MOL0     H29061   8.803   9.291   9.561 -1.4864 -0.2723  1.4117
  211MOL0     H29062   8.752   9.205   9.705 -0.1228  1.5706  0.8396
  211MOL0     H29063   9.035   9.224   9.622  1.6334  1.6527  1.4458
  211MOL0     H29064   8.972   9.165   9.766 -1.2875 -1.0004 -1.3971
  211MOL0     H29065   8.943   9.448   9.657  3.7571 -1.7193 -2.7643
  211MOL0     H29066   8.878   9.392   9.814  0.5880  1.6746  0.1526
  211MOL0     H29067   9.091   9.640   9.775 -1.2912  0.6977  1.4748
  211MOL0     H29068   9.372   9.639  10.039  0.8458  2.1326  0.7365
  211MOL0     H29069   9.247   9.736   9.973  2.5952  1.8980  0.3962
  211MOL0     H29070   9.484   9.637   9.816 -1.0096  1.0767 -1.3510
  211MOL0     H29071   9.355   9.738   9.743 -0.9972 -0.8855 -0.1346
  211MOL0     H29072   9.500   9.818  10.020 -2.3526 -0.2488 -0.2282
  211MOL0     H29073   9.580   9.850   9.875 -0.8022 -3.0010 -1.4089
  211MOL0     H29074   9.384   9.986   9.809 -2.7401  0.5560 -0.1692
  211MOL0     H29075   9.292   9.936   9.950 -0.7916 -0.2828 -1.0414
  211MOL0     H29076   9.322   9.899  10.167  0.1841 -1.1275  0.3042
  211MOL0     H29077   9.329   9.765  10.336  1.0919  1.0114 -1.1881
  211MOL0     H29078   9.310   9.859  10.490 -2.3751 -2.1790 -0.2642
  211MOL0     H29079   9.447   9.762  10.468 -0.5709  0.9945  1.2834
  211MOL0     H29080   9.766  10.340  10.694  1.1369  0.8678  2.1298
  211MOL0     H29081   9.949  10.338  10.862 -0.7642  0.4532 -0.7431
  211MOL0     H29082  10.054  10.311  11.085  0.4987 -0.4032 -1.8490
  211MOL0     H29083   9.934  10.196  11.164  1.1562  0.0334  0.7983
  211MOL0     H29084  10.138  10.218  11.295 -1.2305  0.8136 -0.7786
  211MOL0     H29085  10.083  10.060  11.246  0.3448  0.0243  0.0815
  211MOL0     H29086  10.314  10.229  11.130  2.0570 -0.7939  0.1047
  211MOL0     H29087  10.259  10.064  11.063  0.0758 -1.2069  0.9407
  211MOL0     H29088  10.321   9.959  11.259  0.8302  0.2842  0.8834
  211MOL0     H29089  10.347  10.108  11.346  2.0317  2.8994 -1.6186
  211MOL0     H29090  10.489   9.994  11.098 -0.5155  1.4859 -0.4473
  211MOL0     H29091  10.552  10.139  11.161  1.9364 -0.6296 -0.2204
  211MOL0     H29092  10.692   9.936  11.226 -0.4344 -0.3491 -0.9859
  211MOL0     H29093  10.553   9.868  11.301 -1.2858  1.4992  0.8367
  211MOL0     H29094  10.529  10.066  11.455 -0.4406  2.3485 -4.3440
  211MOL0     H29095  10.682  10.135  11.403  1.1230  0.3985  0.6944
  211MOL0     H29096  10.650   9.868  11.549 -1.2665  0.1791 -2.6877
  211MOL0     H29097  10.715  10.022  11.621  0.7900  2.3014 -0.5898
  211MOL0     H29098   9.893   9.920  10.920  1.6814 -0.7564 -1.9428
  211MOL0     H29099   9.706   9.920  10.764 -1.3204  1.2246 -0.7720
  211MOL0     H29100   9.676  10.185  10.365 -0.2833  1.0155 -0.7917
  211MOL0     H29101   9.606  10.204  10.107 -3.2134  1.8700 -0.2371
  211MOL0     H29102   8.303   8.498   9.525 -0.0016  0.6702 -0.8893
  211MOL0     H29103   8.058   8.484   9.523 -0.6483  1.3446 -0.2329
  211MOL0     H29104   7.756   8.709   9.277  1.1264 -0.5004  0.7756
  211MOL0     H29105   7.548   8.703   9.159  0.5515 -0.6261 -0.1142
  211MOL0     H29106   7.288   8.400   9.291  1.1877 -0.1925 -1.6352
  211MOL0     H29107   7.152   8.512   9.334 -1.9800  0.0306 -2.6295
  211MOL0     H29108   7.074   8.385   9.166 -0.0825 -0.7061 -1.0039
  211MOL0     H29109   7.203   8.398   9.056 -1.9355 -0.6695 -0.9317
  211MOL0     H29110   7.172   8.651   9.034  1.1008 -1.4137  0.1982
  211MOL0     H29111   7.046   8.553   8.962 -1.1227  0.7855  0.0319
  211MOL0     H29112   7.013   8.704   9.234 -5.1900 -0.5802  2.7615
  211MOL0     H29113   6.891   8.616   9.162 -1.4659  3.2307  0.7928
  211MOL0     H29114   6.852   8.960   8.954 -1.4115 -2.1782 -0.9022
  211MOL0     H29115   7.345   8.531   9.489 -0.8659  0.9060 -1.1683
  211MOL0     H29116   7.477   8.444   9.674  1.7589 -0.2887  2.1340
  211MOL0     H29117   7.641   8.480   9.710  1.0809  0.4690 -2.7362
  211MOL0     H29118   7.515   8.608   9.719  1.1216 -1.6736  4.0407
  212MOL0     O29119   1.379   4.719   8.506  0.2239  0.3063 -0.4123
  212MOL0     C29120   1.281   4.711   8.583  0.1620  0.1355 -0.0442
  212MOL0     O29121   1.287   4.752   8.712 -0.3760  0.8192  0.6718
  212MOL0     C29122   1.410   4.782   8.766 -1.0987  0.1022  0.3155
  212MOL0     C29123   1.453   4.708   8.870 -0.4960  0.1478 -0.1169
  212MOL0     C29124   1.570   4.733   8.941  0.8927 -0.0249 -0.2966
  212MOL0     C29125   1.646   4.842   8.917 -0.8857  0.3299  0.0342
  212MOL0     O29126   1.753   4.878   9.005  0.3896 -0.1612 -0.0792
  212MOL0     C29127   1.772   5.022   9.027 -0.4601  0.3970  0.4482
  212MOL0     C29128   1.899   5.043   9.097  0.9174 -0.3461 -0.6744
  212MOL0     C29129   1.908   4.985   9.238 -0.3867 -0.0065  1.2544
  212MOL0     C29130   2.022   5.044   9.316 -0.6143  0.3507  0.1621
  212MOL0     C29131   2.022   4.986   9.465  0.5768 -0.0150 -0.1808
  212MOL0     C29132   2.143   5.021   9.561  0.3801  0.2025  0.6929
  212MOL0     C29133   2.156   5.179   9.574 -0.1287  0.0552  0.5697
  212MOL0     C29134   2.236   5.227   9.688 -0.4127 -0.3541 -0.4045
  212MOL0     N29135   2.381   5.208   9.652  0.6630 -0.3292  0.5087
  212MOL0     C29136   2.458   5.286   9.574 -0.3642  0.9527  0.2859
  212MOL0     C29137   2.581   5.247   9.605 -1.2326  0.0766 -0.6453
  212MOL0     C29138   2.711   5.298   9.555 -0.2983  0.1647 -0.5561
  212MOL0     C29139   2.718   5.313   9.402  0.3718  0.2087 -1.0638
  212MOL0     C29140   2.700   5.174   9.335 -0.0320 -0.2183 -0.5072
  212MOL0     C29141   2.732   5.180   9.185  0.1186 -0.3174  0.4126
  212MOL0     O29142   2.880   5.181   9.174 -0.3077  0.0122  0.0037
  212MOL0     C29143   2.951   5.270   9.090 -0.4922  0.5109 -0.9470
  212MOL0     C29144   2.907   5.370   9.006 -0.3632 -0.2777 -0.2560
  212MOL0     C29145   2.992   5.457   8.929  0.3732  0.0726 -0.0638
  212MOL0     C29146   2.925   5.563   8.844 -0.1675  0.2130  0.2699
  212MOL0     C29147   3.134   5.431   8.928 -1.6274  0.7170 -0.0255
  212MOL0     C29148   3.243   5.507   8.864  0.5807  0.4817  0.0054
  212MOL0     O29149   3.364   5.456   8.893 -0.0661  0.3381 -0.5435
  212MOL0     C29150   3.481   5.494   8.832  1.3968 -0.0382  0.0966
  212MOL0     C29151   3.500   5.519   8.689 -0.0942 -0.3483  0.1449
  212MOL0     C29152   3.625   5.557   8.644 -0.0094 -0.7535 -0.0826
  212MOL0     C29153   3.740   5.558   8.725 -0.2556 -0.6538  0.0726
  212MOL0     O29154   3.863   5.595   8.683 -0.1645 -0.3049  0.4581
  212MOL0     C29155   3.904   5.530   8.561  0.5034  0.1008  0.1238
  212MOL0     C29156   4.028   5.606   8.509 -0.4824 -0.0985  0.8071
  212MOL0     C29157   4.096   5.533   8.388  0.6728  0.6051 -0.2002
  212MOL0     C29158   4.196   5.602   8.301 -0.3879  0.1901 -0.4937
  212MOL0     C29159   4.328   5.606   8.376 -0.2636  0.2687  0.6133
  212MOL0     C29160   4.453   5.675   8.313 -0.5802 -0.0405  0.1270
  212MOL0     C29161   4.494   5.631   8.171 -0.0303  0.7024 -0.2492
  212MOL0     C29162   4.633   5.693   8.146 -0.2916 -0.4008 -0.0067
  212MOL0    Cl29163   4.751   5.558   8.180  0.2930  0.1678 -0.8174
  212MOL0     C29164   3.725   5.532   8.865 -0.0360 -0.4660 -1.0698
  212MOL0     C29165   3.595   5.508   8.916 -0.3823 -0.0365  0.2565
  212MOL0     O29166   3.214   5.591   8.782 -0.6453 -0.8549 -0.0681
  212MOL0     C29167   3.176   5.317   9.008  0.4204  0.1066 -0.5455
  212MOL0     C29168   3.088   5.243   9.094  0.4181 -0.2700  0.2439
  212MOL0     N29169   2.576   5.153   9.713  0.6679 -1.0988 -0.5306
  212MOL0     N29170   2.456   5.122   9.727  0.5597  0.0157 -0.6157
  212MOL0     C29171   1.613   4.923   8.808  0.8304 -1.4979  0.4740
  212MOL0     C29172   1.485   4.902   8.739 -0.5846 -0.3881  1.3425
  212MOL0     C29173   1.156   4.674   8.521  0.1824  0.6806 -0.3058
  212MOL0     C29174   1.168   4.635   8.390 -0.3298  0.0602  0.4285
  212MOL0     C29175   1.052   4.604   8.319  0.5101 -0.5809 -0.3196
  212MOL0     C29176   0.919   4.617   8.373 -0.5820 -0.2068  0.1724
  212MOL0     O29177   0.803   4.574   8.317  0.6385  0.1159  0.2620
  212MOL0     C29178   0.797   4.540   8.178 -0.0756  0.3543  0.6761
  212MOL0     C29179   0.817   4.392   8.177  0.0024  0.4617  0.0637
  212MOL0     C29180   0.789   4.325   8.050  0.4252  0.5896 -0.1512
  212MOL0     C29181   0.907   4.295   7.953  0.3184 -0.3389  0.3484
  212MOL0     C29182   0.975   4.421   7.914  0.5437  0.5347  0.0515
  212MOL0     C29183   1.015   4.537   7.900 -0.2561  0.4770  0.1823
  212MOL0     C29184   0.915   4.641   8.512 -0.6271  0.8400  0.5085
  212MOL0     C29185   1.031   4.669   8.584  0.0885  0.3944 -0.5715
  212MOL0     C29186   1.024   4.664   8.734  0.0396  0.1581  0.3990
  212MOL0     H29187   1.398   4.624   8.912 -0.3257  0.6373  1.1119
  212MOL0     H29188   1.598   4.678   9.030 -2.2075  1.6636  1.9226
  212MOL0     H29189   1.687   5.056   9.087 -0.3211  0.8185  0.4057
  212MOL0     H29190   1.792   5.079   8.935 -1.1757 -1.5449 -0.9888
  212MOL0     H29191   1.989   5.003   9.049  2.9482  0.1355  2.3855
  212MOL0     H29192   1.918   5.150   9.098  1.9574 -0.5169 -0.6072
  212MOL0     H29193   1.820   4.988   9.302  0.9819 -2.0118  3.4010
  212MOL0     H29194   1.936   4.880   9.231 -1.7593 -0.3066 -0.0773
  212MOL0     H29195   2.119   5.019   9.271  0.2276  3.1443  0.2282
  212MOL0     H29196   2.018   5.153   9.321  1.9718  0.5067  0.2793
  212MOL0     H29197   2.001   4.879   9.473  1.3978 -0.1772 -0.1092
  212MOL0     H29198   1.939   5.038   9.513  0.5797 -0.2643  0.0954
  212MOL0     H29199   2.130   4.979   9.662 -1.3797  0.4506  0.6039
  212MOL0     H29200   2.236   4.989   9.514  0.2397 -0.3746  0.8024
  212MOL0     H29201   2.055   5.213   9.601  0.0563  0.4524  0.7724
  212MOL0     H29202   2.192   5.222   9.480  1.5067 -0.3197  1.0068
  212MOL0     H29203   2.221   5.333   9.706 -2.3429 -0.7339  0.4257
  212MOL0     H29204   2.217   5.180   9.785  1.9151  0.4190  0.5009
  212MOL0     H29205   2.422   5.371   9.517 -1.7127  0.0559 -0.2555
  212MOL0     H29206   2.797   5.242   9.593  0.2191  0.5310 -1.1729
  212MOL0     H29207   2.731   5.393   9.607  0.1087 -1.2984  2.1450
  212MOL0     H29208   2.641   5.380   9.362  0.1998 -0.6310 -2.2069
  212MOL0     H29209   2.818   5.350   9.377  0.6746 -1.3914 -2.3621
  212MOL0     H29210   2.758   5.095   9.383  2.4873  2.4348  1.0956
  212MOL0     H29211   2.594   5.149   9.338 -0.6499  1.7460 -2.6200
  212MOL0     H29212   2.694   5.091   9.134 -1.2953  0.8748 -0.6999
  212MOL0     H29213   2.678   5.264   9.140  1.4332 -0.6800 -2.0250
  212MOL0     H29214   2.803   5.396   9.023 -0.8756 -3.3305  2.2572
  212MOL0     H29215   2.961   5.570   8.741 -2.2698  1.1444 -0.4450
  212MOL0     H29216   2.939   5.659   8.895 -2.8564  0.6030  0.4095
  212MOL0     H29217   2.820   5.536   8.830  0.3657 -1.6322 -0.4827
  212MOL0     H29218   3.419   5.501   8.620  2.1216  0.4103 -2.8789
  212MOL0     H29219   3.621   5.576   8.537 -3.3155  2.1990  0.3859
  212MOL0     H29220   3.922   5.424   8.582 -0.0242 -0.0884 -0.3568
  212MOL0     H29221   3.827   5.525   8.483 -2.3334 -0.4042  2.7986
  212MOL0     H29222   3.994   5.708   8.489  0.6510  0.6887  2.6680
  212MOL0     H29223   4.105   5.606   8.587  1.2503 -1.1754 -0.8009
  212MOL0     H29224   4.010   5.510   8.325  1.9117 -1.2502 -1.2990
  212MOL0     H29225   4.131   5.436   8.425  0.0457  0.3331 -0.2978
  212MOL0     H29226   4.163   5.703   8.276 -1.5761 -0.0079  0.1802
  212MOL0     H29227   4.215   5.542   8.212 -0.4496 -2.3454  1.0928
  212MOL0     H29228   4.317   5.657   8.472  2.4961 -0.6824  1.5382
  212MOL0     H29229   4.355   5.505   8.408  0.5625  0.7129  1.3591
  212MOL0     H29230   4.542   5.655   8.374  0.3660  2.4083 -0.3111
  212MOL0     H29231   4.442   5.784   8.316  2.1598  0.3898 -1.8168
  212MOL0     H29232   4.417   5.669   8.104  0.1720  0.1640 -0.7922
  212MOL0     H29233   4.508   5.522   8.163 -2.1661  0.0366  3.0116
  212MOL0     H29234   4.642   5.784   8.206 -2.2711 -0.4934  0.5058
  212MOL0     H29235   4.649   5.719   8.041 -1.4167  2.7231  0.4904
  212MOL0     H29236   3.810   5.542   8.932 -2.3332 -2.8365  2.5645
  212MOL0     H29237   3.580   5.505   9.024  0.9210  2.2143  0.5523
  212MOL0     H29238   3.281   5.293   9.021  0.4015 -0.1420 -0.8183
  212MOL0     H29239   3.120   5.163   9.159 -3.0317 -0.1789  2.3169
  212MOL0     H29240   1.680   5.001   8.774  1.3050 -1.3933  1.5990
  212MOL0     H29241   1.462   4.972   8.660 -0.1135  0.1560  1.6806
  212MOL0     H29242   1.261   4.631   8.334 -0.3483 -0.3808  0.4238
  212MOL0     H29243   1.058   4.577   8.214 -1.4966  0.3722 -0.7303
  212MOL0     H29244   0.700   4.570   8.135  0.6692  2.7485  0.5166
  212MOL0     H29245   0.875   4.593   8.122 -3.0676  3.1491 -1.2891
  212MOL0     H29246   0.737   4.360   8.245 -1.0535 -1.0638 -1.7888
  212MOL0     H29247   0.916   4.371   8.220  0.3578 -2.3644 -1.8339
  212MOL0     H29248   0.760   4.225   8.084  0.9760  0.0539 -1.2141
  212MOL0     H29249   0.706   4.373   7.999  0.2243  0.2543 -0.1465
  212MOL0     H29250   0.869   4.256   7.858 -2.6617  2.2235  0.2822
  212MOL0     H29251   0.968   4.219   8.001  0.5245  0.2630  1.0546
  212MOL0     H29252   1.043   4.638   7.879  1.3559  0.4521  1.9206
  212MOL0     H29253   0.814   4.628   8.549 -1.2182  1.7589 -0.7007
  212MOL0     H29254   1.101   4.599   8.776  0.2758  1.8523  2.8177
  212MOL0     H29255   1.023   4.761   8.784 -2.4916  0.1929  0.4257
  212MOL0     H29256   0.926   4.621   8.757 -0.9958  3.0961  1.9483
  213MOL0     O29257   7.243   6.758   8.827  0.1057  0.8779 -0.5360
  213MOL0     C29258   7.322   6.685   8.891  0.9293 -0.3175  0.0979
  213MOL0     O29259   7.444   6.721   8.923  0.4476 -0.2913 -0.4992
  213MOL0     C29260   7.498   6.849   8.912 -0.1251 -0.6594  0.6417
  213MOL0     C29261   7.620   6.867   8.843  0.0827  0.1224  0.1815
  213MOL0     C29262   7.679   6.993   8.851 -0.0902 -0.2313  0.1705
  213MOL0     C29263   7.627   7.101   8.935  1.1758  0.2123 -0.0324
  213MOL0     O29264   7.701   7.216   8.935 -0.0531  0.0560 -0.9118
  213MOL0     C29265   7.697   7.293   9.063 -0.0079 -0.3892  0.2902
  213MOL0     C29266   7.799   7.401   9.057  0.0376 -0.2947 -0.2547
  213MOL0     C29267   7.938   7.336   9.055 -0.1615 -0.3309  0.4788
  213MOL0     C29268   8.050   7.437   9.102  0.1307  0.0258  0.2392
  213MOL0     C29269   8.186   7.394   9.053 -0.1918  0.8785  0.4066
  213MOL0     C29270   8.301   7.469   9.121 -0.4291 -0.1987 -0.2989
  213MOL0     C29271   8.445   7.474   9.055  0.7942  0.0468  0.1892
  213MOL0     C29272   8.505   7.328   9.035 -0.5791  0.3837 -0.3227
  213MOL0     N29273   8.655   7.323   9.036  0.0899  0.1938 -0.1168
  213MOL0     C29274   8.740   7.327   8.922  0.2752  0.3582 -0.2948
  213MOL0     C29275   8.871   7.309   8.972  0.5129 -0.5956  0.0431
  213MOL0     C29276   8.995   7.319   8.887 -0.2099  0.3310  0.5851
  213MOL0     C29277   9.043   7.178   8.851 -0.6584  1.1664  0.3602
  213MOL0     C29278   9.149   7.122   8.946 -0.4450  0.1079  0.2710
  213MOL0     C29279   9.288   7.173   8.927  0.4619  0.2766 -0.4128
  213MOL0     O29280   9.361   7.136   9.040  0.1880 -0.1450  0.1262
  213MOL0     C29281   9.498   7.166   9.039 -0.1115  0.1812 -0.5676
  213MOL0     C29282   9.568   7.121   9.152 -0.1334  0.4814  0.7667
  213MOL0     C29283   9.702   7.145   9.178 -0.0362 -0.1012 -0.1445
  213MOL0     C29284   9.762   7.091   9.306  0.5258 -0.3564  0.3462
  213MOL0     C29285   9.780   7.213   9.077 -0.4077  0.3341 -0.1366
  213MOL0     C29286   9.931   7.238   9.080  0.1076  1.2165 -0.0850
  213MOL0     O29287   9.988   7.224   8.960  0.0342  0.1630  0.4291
  213MOL0     C29288  10.114   7.263   8.927  0.0611  0.0789  0.4089
  213MOL0     C29289  10.231   7.282   9.008  0.0312  1.0343  0.5772
  213MOL0     C29290  10.352   7.316   8.950  0.2439 -0.4434 -0.9642
  213MOL0     C29291  10.374   7.329   8.820  0.3098  0.2902  0.0521
  213MOL0     O29292  10.498   7.369   8.774  0.4731 -0.3969  0.3394
  213MOL0     C29293  10.533   7.344   8.641 -0.9540  0.5847  0.5304
  213MOL0     C29294  10.686   7.359   8.621  1.3490 -0.2340  0.3132
  213MOL0     C29295  10.749   7.230   8.576 -0.5025 -0.3975 -0.0858
  213MOL0     C29296  10.901   7.249   8.584 -0.1133 -0.4396  0.0423
  213MOL0     C29297  10.967   7.120   8.529  0.2620 -1.2547  0.6161
  213MOL0     C29298  11.124   7.146   8.532 -0.0115  0.7374  0.4695
  213MOL0     C29299  11.181   7.161   8.670 -0.1417 -0.3676  0.7574
  213MOL0     C29300  11.340   7.175   8.680 -0.7436 -0.7955 -0.1347
  213MOL0    Cl29301  11.402   7.316   8.602  0.3286 -0.4718 -0.7052
  213MOL0     C29302  10.256   7.303   8.737  0.7914  0.2897  0.0531
  213MOL0     C29303  10.129   7.277   8.788 -1.2667  0.5307  0.2673
  213MOL0     O29304   9.987   7.283   9.178  0.1300  0.2253  0.7064
  213MOL0     C29305   9.711   7.264   8.968  0.1523  0.0409  0.5345
  213MOL0     C29306   9.571   7.231   8.944 -0.6084 -0.0484 -0.4365
  213MOL0     N29307   8.855   7.316   9.112  0.1044  0.1883 -0.2278
  213MOL0     N29308   8.735   7.321   9.148  0.6648 -0.6665  0.4915
  213MOL0     C29309   7.503   7.075   9.001  0.0882 -0.5520 -0.1896
  213MOL0     C29310   7.443   6.951   8.996 -1.1306  0.0311  0.8121
  213MOL0     C29311   7.287   6.547   8.930  0.7728  0.0300  0.1124
  213MOL0     C29312   7.387   6.459   8.964 -0.8881 -0.0317  0.3913
  213MOL0     C29313   7.374   6.322   8.996 -0.2657 -0.6288  0.0049
  213MOL0     C29314   7.243   6.269   8.999 -0.1809  0.1389  0.3531
  213MOL0     O29315   7.240   6.137   9.016 -0.1139 -1.0499 -0.5836
  213MOL0     C29316   7.115   6.065   9.009 -0.0781 -0.5695  0.2331
  213MOL0     C29317   7.149   5.918   9.021  0.3687 -0.9001  0.5670
  213MOL0     C29318   7.200   5.858   8.882  0.0090 -0.8576 -0.3584
  213MOL0     C29319   7.263   5.723   8.897 -0.2723  0.4588  0.4254
  213MOL0     C29320   7.385   5.732   8.984  0.5044 -0.7281  0.1670
  213MOL0     C29321   7.479   5.754   9.056  0.9035  0.2257 -0.4228
  213MOL0     C29322   7.139   6.357   8.976  0.4401 -0.5793  0.2550
  213MOL0     C29323   7.154   6.498   8.944 -0.1180 -0.1529 -0.1517
  213MOL0     C29324   7.035   6.587   8.945  0.5829  0.7772 -0.7953
  213MOL0     H29325   7.677   6.787   8.796  1.0820  0.9214  0.0059
  213MOL0     H29326   7.773   7.009   8.799 -0.1190  1.5347  0.6057
  213MOL0     H29327   7.715   7.234   9.153  0.9295  2.1036  1.8484
  213MOL0     H29328   7.600   7.343   9.074  1.0819  2.1718 -0.8440
  213MOL0     H29329   7.780   7.451   8.962  0.8994 -1.1123 -0.8745
  213MOL0     H29330   7.779   7.460   9.147  0.1290 -2.9415  1.6013
  213MOL0     H29331   7.937   7.247   9.119 -0.6488 -0.8578 -0.2367
  213MOL0     H29332   7.968   7.298   8.957  2.3401 -0.0272  1.0575
  213MOL0     H29333   8.023   7.536   9.065 -4.6128 -0.5007  1.6954
  213MOL0     H29334   8.050   7.454   9.210  3.8346  3.1663 -0.0410
  213MOL0     H29335   8.203   7.414   8.946  3.1450 -1.0892  0.4255
  213MOL0     H29336   8.201   7.287   9.070  1.8285  1.0611  0.0208
  213MOL0     H29337   8.274   7.575   9.120  0.4477  0.0793  1.2389
  213MOL0     H29338   8.322   7.427   9.220 -0.9928 -0.5495 -0.3263
  213MOL0     H29339   8.516   7.526   9.120  4.3233 -1.4949 -2.1064
  213MOL0     H29340   8.441   7.529   8.961 -0.5076 -2.2784 -1.2017
  213MOL0     H29341   8.468   7.265   9.116  1.4041 -1.9391 -1.1079
  213MOL0     H29342   8.475   7.293   8.936  0.2202 -3.3336  0.6034
  213MOL0     H29343   8.717   7.346   8.817  0.1184 -0.8269 -0.4870
  213MOL0     H29344   9.072   7.377   8.939  0.2807 -0.0471  0.2954
  213MOL0     H29345   8.976   7.367   8.791  0.2244  1.7942  1.2094
  213MOL0     H29346   8.963   7.104   8.857  1.5239 -1.3649  0.5036
  213MOL0     H29347   9.081   7.178   8.749 -1.1458  1.4730  0.1779
  213MOL0     H29348   9.126   7.139   9.052  1.5356  1.1340  0.5811
  213MOL0     H29349   9.146   7.014   8.931  0.0839 -0.0361  1.0948
  213MOL0     H29350   9.333   7.134   8.835  2.2255  1.6151 -0.1666
  213MOL0     H29351   9.289   7.281   8.910 -1.7307  0.1129 -2.0945
  213MOL0     H29352   9.507   7.068   9.225  1.9385 -0.5228  1.8806
  213MOL0     H29353   9.863   7.053   9.285  0.1897 -0.7227 -0.6444
  213MOL0     H29354   9.705   7.001   9.329 -0.3305  0.0469 -0.1235
  213MOL0     H29355   9.764   7.159   9.392  0.9592 -0.7023  0.6116
  213MOL0     H29356  10.227   7.270   9.116 -2.4642 -0.5885  0.3809
  213MOL0     H29357  10.434   7.331   9.019 -1.9265  0.5606  1.5234
  213MOL0     H29358  10.495   7.247   8.607 -0.7726  1.0328 -1.0382
  213MOL0     H29359  10.487   7.420   8.577 -0.5514 -1.0140 -1.8104
  213MOL0     H29360  10.709   7.440   8.552  2.1872 -2.3005 -1.9822
  213MOL0     H29361  10.731   7.384   8.718  0.4618 -0.8349  0.8944
  213MOL0     H29362  10.732   7.199   8.473 -1.9504 -1.9699  0.5941
  213MOL0     H29363  10.717   7.155   8.648  1.0218  0.1816  1.2624
  213MOL0     H29364  10.917   7.260   8.692 -2.4070 -1.6208  0.5817
  213MOL0     H29365  10.936   7.340   8.534  1.5121 -0.8521  0.3840
  213MOL0     H29366  10.931   7.036   8.589 -3.6703  0.9742  1.7267
  213MOL0     H29367  10.935   7.099   8.426  0.3498  1.0897  0.0548
  213MOL0     H29368  11.148   7.224   8.459  0.0531 -2.1981 -2.9536
  213MOL0     H29369  11.163   7.047   8.506 -1.3118 -0.1063  1.5758
  213MOL0     H29370  11.147   7.088   8.743 -1.6144 -0.3460  0.1116
  213MOL0     H29371  11.141   7.257   8.705 -1.0642  0.0430 -1.2846
  213MOL0     H29372  11.383   7.083   8.639 -0.9442 -0.9807  0.0669
  213MOL0     H29373  11.361   7.178   8.787 -1.1740  3.3824 -0.0069
  213MOL0     H29374  10.259   7.321   8.630  0.5347 -1.9595 -0.3712
  213MOL0     H29375  10.041   7.272   8.724 -1.4925  0.2963  0.5950
  213MOL0     H29376   9.768   7.311   8.889  1.0834 -1.6798  0.1354
  213MOL0     H29377   9.528   7.252   8.847  0.9465 -0.5028 -1.2648
  213MOL0     H29378   7.454   7.153   9.059 -2.5131 -2.5515  0.4877
  213MOL0     H29379   7.353   6.941   9.055 -0.4478 -2.0302  1.6055
  213MOL0     H29380   7.485   6.503   8.956 -0.2836 -1.3189  0.4473
  213MOL0     H29381   7.465   6.262   8.997  1.0512  1.2480 -0.7222
  213MOL0     H29382   7.042   6.088   9.088 -0.0649 -0.9651  0.3609
  213MOL0     H29383   7.066   6.072   8.912 -0.2195 -2.1599  0.1669
  213MOL0     H29384   7.078   5.846   9.066  1.6065 -2.1269  0.6321
  213MOL0     H29385   7.239   5.907   9.083  1.1228 -1.9835 -0.6736
  213MOL0     H29386   7.130   5.857   8.797  1.2496  1.9072 -1.5160
  213MOL0     H29387   7.275   5.932   8.854 -1.8265  2.6099  2.9768
  213MOL0     H29388   7.295   5.686   8.799 -0.9722  1.5609 -0.2506
  213MOL0     H29389   7.184   5.661   8.939  0.5297 -0.6757  0.2961
  213MOL0     H29390   7.570   5.790   9.101  0.4942 -0.3775  0.9214
  213MOL0     H29391   7.040   6.320   8.999  0.3694 -1.2967 -1.1011
  213MOL0     H29392   7.014   6.615   8.842  1.2348 -5.2152 -2.9490
  213MOL0     H29393   6.948   6.528   8.974 -0.6170  1.7210 -2.4039
  213MOL0     H29394   7.034   6.674   9.012 -2.1399  0.1895  0.0343
  214MOL0     O29395   4.689   4.839   7.558  0.7966 -0.3108  0.5693
  214MOL0     C29396   4.596   4.754   7.548  1.2665  0.6397  0.0929
  214MOL0     O29397   4.610   4.627   7.503 -0.5369 -0.3259 -0.1403
  214MOL0     C29398   4.733   4.588   7.451 -0.0465  0.2166 -0.2178
  214MOL0     C29399   4.789   4.639   7.337  0.1857 -0.6660  0.4021
  214MOL0     C29400   4.910   4.592   7.287 -0.7549 -0.4091 -0.0155
  214MOL0     C29401   4.966   4.485   7.351 -1.0575  0.0688  0.4157
  214MOL0     O29402   5.088   4.443   7.301  0.3105  0.4169 -0.5307
  214MOL0     C29403   5.192   4.392   7.392 -0.4775  0.4606  0.3975
  214MOL0     C29404   5.321   4.372   7.321 -0.1292 -0.6388 -0.4705
  214MOL0     C29405   5.372   4.515   7.264 -0.3646  0.0248 -0.6509
  214MOL0     C29406   5.469   4.500   7.149 -0.8746  0.1985  0.3244
  214MOL0     C29407   5.512   4.640   7.105 -0.1613 -0.5444 -0.3211
  214MOL0     C29408   5.628   4.655   7.016 -0.8264 -0.8576  0.4421
  214MOL0     C29409   5.628   4.790   6.944  0.1344  0.1102  1.7225
  214MOL0     C29410   5.722   4.785   6.824 -0.7482  0.1645  0.1897
  214MOL0     N29411   5.864   4.787   6.846  0.4147  0.0026 -0.4628
  214MOL0     C29412   5.946   4.885   6.807  0.7471 -0.2641  0.7312
  214MOL0     C29413   6.072   4.835   6.808  0.3074 -0.3087 -0.9481
  214MOL0     C29414   6.203   4.894   6.763  0.3963 -0.2970 -0.5603
  214MOL0     C29415   6.202   5.051   6.785  0.6195  0.0637  0.4293
  214MOL0     C29416   6.327   5.120   6.723  0.0232  0.0610 -0.2580
  214MOL0     C29417   6.305   5.274   6.731  0.0029  0.1488 -0.2576
  214MOL0     O29418   6.276   5.322   6.865 -0.2180 -0.5300  0.0455
  214MOL0     C29419   6.378   5.340   6.955  0.1411 -0.0498  0.7018
  214MOL0     C29420   6.516   5.325   6.935  0.1960 -0.0206  0.7694
  214MOL0     C29421   6.606   5.355   7.036 -0.1515 -0.3121  0.0290
  214MOL0     C29422   6.750   5.345   6.995  0.4693 -0.1180 -0.6923
  214MOL0     C29423   6.569   5.399   7.165  0.2207 -0.3246  0.1963
  214MOL0     C29424   6.652   5.418   7.275 -1.3168  0.1864 -0.7558
  214MOL0     O29425   6.642   5.543   7.337  0.3473 -0.1811 -0.1576
  214MOL0     C29426   6.718   5.573   7.441 -0.0985  0.4694 -0.6381
  214MOL0     C29427   6.859   5.602   7.427 -0.7100  0.2900 -0.3997
  214MOL0     C29428   6.935   5.609   7.542 -0.1178  0.8971  0.3461
  214MOL0     C29429   6.886   5.596   7.666 -0.1235 -0.5640 -0.8162
  214MOL0     O29430   6.971   5.612   7.770  0.9046 -0.6162  0.3447
  214MOL0     C29431   6.923   5.637   7.900  0.3380 -0.4864 -0.2708
  214MOL0     C29432   7.028   5.685   8.002 -0.5874  0.2642 -0.4155
  214MOL0     C29433   7.124   5.567   8.031 -0.5663  0.1341 -0.7441
  214MOL0     C29434   7.234   5.601   8.134  0.2286 -0.5559  0.4041
  214MOL0     C29435   7.327   5.477   8.144  0.1494 -0.0592  0.5810
  214MOL0     C29436   7.471   5.514   8.185  0.3292  0.2852  0.1733
  214MOL0     C29437   7.552   5.379   8.168 -0.2282 -1.0355  0.3599
  214MOL0     C29438   7.715   5.387   8.204 -0.8940  0.0446  0.4757
  214MOL0    Cl29439   7.803   5.500   8.098 -0.6077  0.1442 -0.3603
  214MOL0     C29440   6.746   5.571   7.684 -0.7280  0.2048 -0.4186
  214MOL0     C29441   6.665   5.561   7.572  0.8175 -0.0399 -0.0010
  214MOL0     O29442   6.715   5.320   7.324  0.4660  0.3980  0.0429
  214MOL0     C29443   6.434   5.416   7.184  0.4910  0.1687 -0.1520
  214MOL0     C29444   6.342   5.385   7.083 -0.5681 -0.1612  0.3514
  214MOL0     N29445   6.062   4.707   6.857 -0.0532  0.1628  0.4928
  214MOL0     N29446   5.936   4.686   6.885 -0.0180  0.6161  0.7890
  214MOL0     C29447   4.910   4.425   7.463 -0.0313 -0.3206  0.4326
  214MOL0     C29448   4.794   4.481   7.518  0.0404  0.0552  0.2844
  214MOL0     C29449   4.455   4.801   7.588 -0.3944  0.2558  0.1583
  214MOL0     C29450   4.359   4.695   7.607 -0.1140 -0.0890  0.1927
  214MOL0     C29451   4.233   4.723   7.651  0.5751 -0.1790 -0.2196
  214MOL0     C29452   4.182   4.847   7.683 -0.8148  0.5055  0.0443
  214MOL0     O29453   4.049   4.860   7.729 -0.0179  0.1873 -0.0115
  214MOL0     C29454   3.997   4.983   7.775 -0.0756 -0.3326  0.0003
  214MOL0     C29455   3.871   4.965   7.861  0.7031 -1.4244 -0.3894
  214MOL0     C29456   3.747   4.916   7.790  0.2425  0.4660  0.1515
  214MOL0     C29457   3.624   4.921   7.883 -0.2801 -1.1794  0.2728
  214MOL0     C29458   3.509   4.843   7.839  0.1910  0.0336  0.4600
  214MOL0     C29459   3.404   4.781   7.812  0.1265 -0.1851 -0.3409
  214MOL0     C29460   4.282   4.944   7.665  0.5115 -0.7834 -0.4057
  214MOL0     C29461   4.412   4.926   7.606 -0.8469 -0.5570  0.3311
  214MOL0     C29462   4.501   5.044   7.583  0.3068 -0.0497 -0.1174
  214MOL0     H29463   4.731   4.711   7.279 -1.9743 -2.7932 -0.2751
  214MOL0     H29464   4.953   4.635   7.197 -1.7579  0.2448 -0.2011
  214MOL0     H29465   5.159   4.296   7.433 -0.0459  0.2785  0.3268
  214MOL0     H29466   5.201   4.464   7.474 -2.8736  0.0846  1.0539
  214MOL0     H29467   5.396   4.344   7.396 -2.6050 -2.1216  1.6196
  214MOL0     H29468   5.319   4.294   7.244  2.6182  0.4784 -1.8166
  214MOL0     H29469   5.284   4.575   7.237  0.3014  2.3532  1.9138
  214MOL0     H29470   5.406   4.579   7.346  0.5334 -0.0932 -0.9232
  214MOL0     H29471   5.557   4.450   7.191 -0.1592  1.5871  0.5675
  214MOL0     H29472   5.425   4.447   7.065 -0.4090  1.6817 -0.9107
  214MOL0     H29473   5.530   4.708   7.188 -2.4572  0.5456 -0.6336
  214MOL0     H29474   5.421   4.681   7.062 -0.7258  1.1752  2.2788
  214MOL0     H29475   5.719   4.651   7.076 -1.9479  1.1564  2.4027
  214MOL0     H29476   5.636   4.575   6.942  0.1992  0.5177 -1.0175
  214MOL0     H29477   5.670   4.866   7.011  4.0813  1.6924 -2.0807
  214MOL0     H29478   5.531   4.820   6.904  1.6006  0.8649 -1.6202
  214MOL0     H29479   5.704   4.701   6.756 -1.1407 -1.1709  1.8745
  214MOL0     H29480   5.703   4.877   6.768  1.9656  0.7640  0.0913
  214MOL0     H29481   5.917   4.983   6.771 -1.4221 -0.5981  1.4393
  214MOL0     H29482   6.223   4.865   6.659  1.2331  0.0660 -0.5102
  214MOL0     H29483   6.285   4.862   6.828  1.1071  2.0102 -0.2241
  214MOL0     H29484   6.109   5.080   6.735 -0.4395 -0.6849  1.8931
  214MOL0     H29485   6.191   5.072   6.891  1.6363  0.0269  0.5511
  214MOL0     H29486   6.420   5.095   6.776 -0.4134  0.6720  0.8351
  214MOL0     H29487   6.333   5.088   6.619  1.9381 -1.6477  0.3175
  214MOL0     H29488   6.393   5.316   6.681  0.5657 -1.7329 -0.9442
  214MOL0     H29489   6.223   5.301   6.663  1.1256  0.3243 -1.6058
  214MOL0     H29490   6.558   5.301   6.838 -0.2180 -0.0719  0.6032
  214MOL0     H29491   6.759   5.385   6.894  0.8560  0.4209 -0.4577
  214MOL0     H29492   6.780   5.240   7.001 -1.2205 -0.6043 -0.3913
  214MOL0     H29493   6.816   5.403   7.062 -0.7466 -1.2231  1.5861
  214MOL0     H29494   6.904   5.607   7.329  1.0355  1.8005  0.4195
  214MOL0     H29495   7.042   5.628   7.540 -0.1389  0.9624 -1.1132
  214MOL0     H29496   6.839   5.707   7.894  0.3254 -0.3042  1.6552
  214MOL0     H29497   6.873   5.555   7.951 -0.6925  0.8907  1.0308
  214MOL0     H29498   7.073   5.781   7.977 -1.4208  0.3995 -1.4447
  214MOL0     H29499   6.976   5.704   8.097 -0.8189  0.1017 -0.5082
  214MOL0     H29500   7.171   5.545   7.934  0.0012  0.3374 -0.5187
  214MOL0     H29501   7.075   5.478   8.071  0.5542 -1.4207 -2.6256
  214MOL0     H29502   7.193   5.625   8.232  0.0394 -1.5416  0.5734
  214MOL0     H29503   7.297   5.684   8.100 -0.3185  0.3495  1.5259
  214MOL0     H29504   7.280   5.403   8.209  0.7652 -0.6494  0.3688
  214MOL0     H29505   7.321   5.432   8.044 -1.8583 -2.1624  1.5464
  214MOL0     H29506   7.471   5.557   8.286 -0.2797  3.4230 -1.0402
  214MOL0     H29507   7.504   5.591   8.114  2.0361 -1.2432 -0.7786
  214MOL0     H29508   7.542   5.338   8.067  1.1877 -3.1499  1.0088
  214MOL0     H29509   7.508   5.303   8.233  0.8029  0.1751  2.5682
  214MOL0     H29510   7.753   5.284   8.199  0.5999  0.6431 -0.8814
  214MOL0     H29511   7.737   5.406   8.310  0.6276 -0.0274  0.1941
  214MOL0     H29512   6.718   5.555   7.788  2.3807 -0.8613  0.3743
  214MOL0     H29513   6.558   5.541   7.575  0.7841  0.2131  1.1010
  214MOL0     H29514   6.405   5.452   7.282  2.2547  1.6100 -0.0887
  214MOL0     H29515   6.234   5.392   7.096 -0.3691  1.4859  1.4779
  214MOL0     H29516   4.961   4.340   7.507  0.1874  0.2997  1.3966
  214MOL0     H29517   4.745   4.439   7.605 -3.7394  1.5556 -0.9048
  214MOL0     H29518   4.388   4.590   7.599  1.7228  0.2368  1.7817
  214MOL0     H29519   4.166   4.639   7.668  0.8066 -0.0786  1.3768
  214MOL0     H29520   4.068   5.032   7.843  0.6588  0.1008 -1.0432
  214MOL0     H29521   3.996   5.053   7.691  2.8115 -1.9043 -1.5152
  214MOL0     H29522   3.846   5.061   7.907  2.0758 -1.0525 -0.3781
  214MOL0     H29523   3.889   4.897   7.945 -1.0703  3.2560  4.3162
  214MOL0     H29524   3.726   4.973   7.699  0.9187  0.9950  0.3174
  214MOL0     H29525   3.761   4.813   7.754 -0.9897 -0.4740  2.1861
  214MOL0     H29526   3.603   5.028   7.889  0.9463 -0.7189 -2.1530
  214MOL0     H29527   3.654   4.887   7.982  0.5882  0.6668  0.6927
  214MOL0     H29528   3.311   4.733   7.790  1.9117 -3.1418 -2.1342
  214MOL0     H29529   4.247   5.044   7.690 -1.7294 -1.7637  0.7265
  214MOL0     H29530   4.580   5.055   7.657  1.0767 -1.2984 -0.7172
  214MOL0     H29531   4.556   5.031   7.489 -1.6233 -0.7446 -1.2173
  214MOL0     H29532   4.446   5.136   7.562  3.4043  2.0995  0.5433
  215MOL0     O29533   7.549   1.748   0.340 -0.3323  0.4788 -0.1992
  215MOL0     C29534   7.445   1.736   0.402  0.5226  0.1965 -0.3187
  215MOL0     O29535   7.437   1.744   0.538 -0.3114  0.4242 -0.0122
  215MOL0     C29536   7.546   1.805   0.592 -0.1069  0.3812  0.6762
  215MOL0     C29537   7.547   1.943   0.612  0.2425 -0.2091 -0.6868
  215MOL0     C29538   7.662   2.007   0.656  0.7413 -0.5931  0.5495
  215MOL0     C29539   7.781   1.942   0.690  0.6624  0.8535  1.5532
  215MOL0     O29540   7.879   2.018   0.748 -0.0936  0.6111  0.3000
  215MOL0     C29541   8.015   1.973   0.743  0.0429 -0.9745 -0.0517
  215MOL0     C29542   8.040   1.888   0.866  0.3586 -0.0107 -1.0860
  215MOL0     C29543   8.094   1.986   0.981 -0.0244 -0.2702 -0.3181
  215MOL0     C29544   8.214   1.924   1.059  0.6485 -0.1947 -0.4746
  215MOL0     C29545   8.304   2.018   1.151  0.3207  0.1075 -0.0149
  215MOL0     C29546   8.430   1.951   1.217 -0.0316 -0.0507 -0.4045
  215MOL0     C29547   8.542   2.051   1.260  0.0368  0.3884 -0.0591
  215MOL0     C29548   8.667   1.982   1.307  0.5650 -0.3896 -0.0650
  215MOL0     N29549   8.771   1.981   1.206  0.2940 -1.2084  0.3680
  215MOL0     C29550   8.772   1.882   1.106 -0.4329  0.1309 -0.4155
  215MOL0     C29551   8.873   1.917   1.025 -1.1353 -0.4235  0.0591
  215MOL0     C29552   8.914   1.851   0.898  0.2261  0.1899  0.1240
  215MOL0     C29553   9.025   1.920   0.825 -0.7234  0.0062 -0.1502
  215MOL0     C29554   9.059   1.854   0.695 -0.3343 -0.8847  0.3696
  215MOL0     C29555   9.191   1.911   0.641 -0.3004  0.2717 -0.0494
  215MOL0     O29556   9.203   1.861   0.507  0.0050 -0.1641  0.0974
  215MOL0     C29557   9.202   1.965   0.414 -0.2544 -0.4152  0.2155
  215MOL0     C29558   9.092   2.053   0.412  0.5822 -0.5609  0.9567
  215MOL0     C29559   9.103   2.169   0.329 -0.2402  0.4609 -0.2000
  215MOL0     C29560   8.972   2.247   0.308  0.4520  0.0380  0.5556
  215MOL0     C29561   9.214   2.197   0.250  0.5493 -0.2160  0.2343
  215MOL0     C29562   9.235   2.328   0.179 -0.4071  1.1188  0.0073
  215MOL0     O29563   9.326   2.322   0.074 -0.2112 -0.2502 -0.0587
  215MOL0     C29564   9.342   2.422  -0.016 -0.1866 -0.3990  0.0416
  215MOL0     C29565   9.469   2.464  -0.050 -0.0717  0.9032 -0.1910
  215MOL0     C29566   9.498   2.547  -0.161  0.3975 -0.0059 -0.2828
  215MOL0     C29567   9.402   2.619  -0.219  0.5084  0.6603  0.0921
  215MOL0     O29568   9.442   2.720  -0.314 -0.1724  0.8835 -0.0704
  215MOL0     C29569   9.343   2.794  -0.381 -0.1320  0.4919  0.3268
  215MOL0     C29570   9.394   2.875  -0.505 -0.4072 -0.1030  0.0941
  215MOL0     C29571   9.484   2.991  -0.457 -0.4491  0.5525 -0.3372
  215MOL0     C29572   9.557   3.059  -0.566  0.1077  0.3058 -0.1548
  215MOL0     C29573   9.639   3.174  -0.529 -0.1965  0.0341  0.2992
  215MOL0     C29574   9.770   3.184  -0.609  0.5322  0.4827  0.1497
  215MOL0     C29575   9.754   3.170  -0.768  0.2221 -0.0319 -0.0316
  215MOL0     C29576   9.878   3.226  -0.842  0.2262  0.4427 -0.5980
  215MOL0    Cl29577  10.016   3.133  -0.820 -0.6489 -0.1014  0.3158
  215MOL0     C29578   9.268   2.585  -0.181 -0.3967 -1.0911  0.6213
  215MOL0     C29579   9.236   2.490  -0.079  0.3053  0.9410 -0.1483
  215MOL0     O29580   9.171   2.427   0.215 -0.1003  0.5205  0.1741
  215MOL0     C29581   9.322   2.107   0.257 -0.7090 -0.1419  0.4593
  215MOL0     C29582   9.314   1.986   0.334  0.4092  0.0017 -0.2678
  215MOL0     N29583   8.919   2.048   1.063  0.0705 -0.5065 -0.6813
  215MOL0     N29584   8.858   2.080   1.171  0.2170  0.1939 -0.6647
  215MOL0     C29585   7.783   1.802   0.666  0.1976 -0.1761 -0.1869
  215MOL0     C29586   7.663   1.739   0.619 -0.5384  0.2279  0.4054
  215MOL0     C29587   7.322   1.708   0.316 -0.8366  0.2525  0.5131
  215MOL0     C29588   7.341   1.651   0.187  0.0629  0.0819 -0.3185
  215MOL0     C29589   7.222   1.624   0.109  0.1457 -0.0240  0.0645
  215MOL0     C29590   7.096   1.653   0.163  0.1217  0.2077  0.1709
  215MOL0     O29591   6.973   1.636   0.096  0.2467 -1.4943  0.1869
  215MOL0     C29592   6.965   1.549  -0.018 -0.0462 -0.4997 -0.0585
  215MOL0     C29593   6.811   1.516  -0.046 -0.2621  0.1059 -0.2442
  215MOL0     C29594   6.736   1.655  -0.057  0.5177 -0.0496 -0.1468
  215MOL0     C29595   6.799   1.764  -0.141 -0.0909 -0.1782 -1.4311
  215MOL0     C29596   6.796   1.724  -0.283 -0.0239 -0.3462  0.2929
  215MOL0     C29597   6.812   1.689  -0.400 -0.0484  0.1275 -0.6709
  215MOL0     C29598   7.084   1.713   0.282  0.3250  0.1257 -0.3758
  215MOL0     C29599   7.192   1.738   0.361 -0.2098  0.2845  1.0514
  215MOL0     C29600   7.172   1.809   0.488 -0.3495  0.4739  0.6766
  215MOL0     H29601   7.467   2.013   0.589  0.8833  0.8778  0.3448
  215MOL0     H29602   7.651   2.113   0.675  1.3651 -0.2786 -0.7231
  215MOL0     H29603   8.084   2.058   0.739 -1.0946 -0.0235 -0.1228
  215MOL0     H29604   8.039   1.920   0.650 -2.0400  1.2273 -1.9861
  215MOL0     H29605   7.950   1.834   0.896 -0.6421  2.3576  0.4835
  215MOL0     H29606   8.120   1.815   0.846 -0.5200 -0.8206 -1.7111
  215MOL0     H29607   8.135   2.079   0.942  0.8572 -1.0001 -1.2169
  215MOL0     H29608   8.006   2.015   1.039 -0.5598 -0.1600 -1.1676
  215MOL0     H29609   8.178   1.838   1.117 -1.5858  0.8219 -0.2209
  215MOL0     H29610   8.278   1.883   0.981 -0.3306  1.0889 -2.0263
  215MOL0     H29611   8.237   2.056   1.229 -0.4418  1.0746 -1.0925
  215MOL0     H29612   8.336   2.104   1.091  2.2388  0.2160  1.0904
  215MOL0     H29613   8.398   1.891   1.303  0.0009 -1.0966 -1.1034
  215MOL0     H29614   8.473   1.886   1.140  0.5760  0.3833 -0.4454
  215MOL0     H29615   8.496   2.118   1.332  0.7642 -1.5659  2.3473
  215MOL0     H29616   8.563   2.118   1.176  0.5452 -0.8089 -0.9215
  215MOL0     H29617   8.709   2.026   1.398 -0.8165  0.1934  0.3037
  215MOL0     H29618   8.640   1.879   1.330  3.3105 -1.2558 -0.3566
  215MOL0     H29619   8.709   1.793   1.113 -1.5627  1.0651  2.6451
  215MOL0     H29620   8.830   1.853   0.828 -1.0535 -2.8738  1.3683
  215MOL0     H29621   8.939   1.745   0.913 -0.7485 -0.4532 -2.3162
  215MOL0     H29622   8.994   2.023   0.805  0.1242  0.1282 -0.8778
  215MOL0     H29623   9.118   1.917   0.883  1.0373  0.7857 -2.7654
  215MOL0     H29624   9.085   1.749   0.714  0.0662 -0.4444  2.5026
  215MOL0     H29625   8.982   1.873   0.620  0.1286  1.4544  0.4321
  215MOL0     H29626   9.184   2.019   0.656  1.7315  0.3813  0.3324
  215MOL0     H29627   9.276   1.888   0.706 -1.8077 -3.3670  0.8447
  215MOL0     H29628   9.005   2.034   0.473  0.2993 -0.9653  0.4363
  215MOL0     H29629   8.941   2.233   0.203 -1.6045  1.1888  0.9558
  215MOL0     H29630   8.980   2.354   0.327 -1.3592 -0.0221  1.8363
  215MOL0     H29631   8.888   2.213   0.369 -0.7433  1.9107  0.0461
  215MOL0     H29632   9.551   2.411  -0.003  0.1483  0.7660 -0.7142
  215MOL0     H29633   9.604   2.567  -0.175  0.9284 -1.1868  1.5890
  215MOL0     H29634   9.268   2.726  -0.422  0.4913  1.1203 -2.0655
  215MOL0     H29635   9.308   2.872  -0.313  1.0746  0.4413  1.0309
  215MOL0     H29636   9.455   2.810  -0.569 -0.5309  1.1957 -1.4074
  215MOL0     H29637   9.318   2.912  -0.573  2.1610 -1.2698 -3.7376
  215MOL0     H29638   9.552   2.955  -0.379 -1.0983 -0.1777 -0.0959
  215MOL0     H29639   9.420   3.063  -0.404  1.5817  2.7798 -0.7344
  215MOL0     H29640   9.490   3.082  -0.649  0.7765  1.7952 -0.3027
  215MOL0     H29641   9.616   2.979  -0.612 -1.1526 -1.0189  0.4360
  215MOL0     H29642   9.582   3.265  -0.548 -1.7980 -0.7436  1.1451
  215MOL0     H29643   9.659   3.177  -0.421  2.0078 -0.1823 -0.0674
  215MOL0     H29644   9.825   3.099  -0.568 -0.1945 -0.3994 -0.6530
  215MOL0     H29645   9.827   3.274  -0.583  2.1977  0.6562 -3.4970
  215MOL0     H29646   9.664   3.223  -0.800 -0.4963 -0.7084  0.8003
  215MOL0     H29647   9.731   3.068  -0.797  3.0612 -1.0436  0.9179
  215MOL0     H29648   9.909   3.325  -0.809  1.0439  0.9574 -2.7372
  215MOL0     H29649   9.857   3.226  -0.949  0.8050  1.4420 -0.7258
  215MOL0     H29650   9.187   2.641  -0.225  0.7434  0.1294 -0.0171
  215MOL0     H29651   9.132   2.471  -0.056  0.1818 -1.6577 -2.3755
  215MOL0     H29652   9.409   2.144   0.205 -0.5483  2.0712  2.1062
  215MOL0     H29653   9.395   1.916   0.324 -0.6505 -1.2325 -0.4811
  215MOL0     H29654   7.869   1.742   0.694  0.4931  1.3723  2.5497
  215MOL0     H29655   7.667   1.631   0.619 -0.4840  0.2263 -0.0173
  215MOL0     H29656   7.441   1.615   0.166 -0.1074 -0.7426  0.2554
  215MOL0     H29657   7.234   1.584   0.008  0.6521  0.1538  0.0542
  215MOL0     H29658   7.010   1.586  -0.111 -1.4152 -0.7202 -0.8370
  215MOL0     H29659   7.007   1.452   0.012 -1.2794 -0.6307  1.3879
  215MOL0     H29660   6.772   1.460   0.040 -0.1247 -0.7955 -0.7669
  215MOL0     H29661   6.809   1.458  -0.138  3.1738  0.1302 -0.4540
  215MOL0     H29662   6.640   1.628  -0.101  0.5037  1.3548 -1.0438
  215MOL0     H29663   6.721   1.706   0.039 -1.8650  2.6015 -1.7859
  215MOL0     H29664   6.900   1.774  -0.101 -1.1295 -2.2397  2.0915
  215MOL0     H29665   6.735   1.853  -0.132 -0.8325 -0.6593 -1.8208
  215MOL0     H29666   6.823   1.649  -0.499  0.2542 -1.5484 -0.0037
  215MOL0     H29667   6.986   1.732   0.324  0.6136 -1.3425  1.0815
  215MOL0     H29668   7.067   1.833   0.503 -0.5247  0.3279 -0.2686
  215MOL0     H29669   7.191   1.754   0.581  1.9852  1.5390  0.9068
  215MOL0     H29670   7.231   1.901   0.486 -0.3743  0.4894  0.6543
  216MOL0     O29671   7.499  10.787   0.725 -1.1028  0.6334  0.4716
  216MOL0     C29672   7.399  10.844   0.739  0.8962  0.2192 -0.2674
  216MOL0     O29673   7.383  10.976   0.765  0.3484 -0.1633 -0.0995
  216MOL0     C29674   7.492  11.058   0.781  0.4963  0.2158 -0.1153
  216MOL0     C29675   7.601  11.053   0.695  0.1721  0.4687 -0.1485
  216MOL0     C29676   7.713  11.141   0.699 -0.0020  0.0344  0.0718
  216MOL0     C29677   7.713  11.239   0.804  0.0293  0.7147  0.5292
  216MOL0     O29678   7.811  11.331   0.838 -0.5632  0.2594  0.1398
  216MOL0     C29679   7.920  11.357   0.736 -1.3165 -0.1453 -0.1477
  216MOL0     C29680   8.050  11.380   0.801 -0.6555  0.0637  0.1231
  216MOL0     C29681   8.054  11.508   0.886 -0.1300  0.2570  0.4372
  216MOL0     C29682   8.186  11.512   0.952 -0.3454 -0.8786  0.6845
  216MOL0     C29683   8.203  11.606   1.074 -0.6303 -0.2620  0.4478
  216MOL0     C29684   8.322  11.599   1.165 -1.0958 -0.6628  0.2672
  216MOL0     C29685   8.456  11.592   1.089 -0.2161 -0.1974 -0.3429
  216MOL0     C29686   8.562  11.548   1.186 -0.4132  1.1020 -0.0305
  216MOL0     N29687   8.553  11.617   1.319  0.7519 -0.1851 -0.3532
  216MOL0     C29688   8.495  11.576   1.441 -0.8903  0.1119  0.4940
  216MOL0     C29689   8.513  11.680   1.523 -0.7707  0.2028 -0.4124
  216MOL0     C29690   8.482  11.695   1.668 -0.4892 -0.1610  1.1843
  216MOL0     C29691   8.340  11.750   1.689  0.5218 -0.1785  0.5018
  216MOL0     C29692   8.257  11.665   1.790  0.7162 -1.5910 -0.3622
  216MOL0     C29693   8.114  11.724   1.810  0.4239  0.3589 -0.1790
  216MOL0     O29694   8.055  11.729   1.681  0.0899 -0.1006  0.2698
  216MOL0     C29695   7.924  11.752   1.663  0.4463  0.2053  0.6931
  216MOL0     C29696   7.824  11.773   1.765 -0.3639  0.0097 -0.2219
  216MOL0     C29697   7.684  11.801   1.750  0.4100  0.7692  0.0310
  216MOL0     C29698   7.589  11.843   1.859  0.5811  0.3863  0.1924
  216MOL0     C29699   7.643  11.795   1.616 -0.5043  0.5174 -0.1316
  216MOL0     C29700   7.503  11.808   1.565  0.1351 -0.4082  0.0865
  216MOL0     O29701   7.415  11.904   1.625  0.7096  0.3850 -0.1816
  216MOL0     C29702   7.303  11.943   1.547 -0.5188 -0.4097 -0.9436
  216MOL0     C29703   7.169  11.923   1.582 -0.4675 -0.1337 -0.2874
  216MOL0     C29704   7.062  11.969   1.509 -0.3413 -0.0772  0.4277
  216MOL0     C29705   7.085  12.029   1.387  0.2693  1.0047 -0.8201
  216MOL0     O29706   6.990  12.078   1.303  0.2498 -0.2764  0.5400
  216MOL0     C29707   6.851  12.040   1.323  0.3399 -0.3038  0.3600
  216MOL0     C29708   6.787  12.046   1.190 -0.0466 -0.1358  1.1407
  216MOL0     C29709   6.634  12.036   1.187  0.1387  0.0943  0.1617
  216MOL0     C29710   6.580  12.009   1.045 -0.0112  0.1075  0.0775
  216MOL0     C29711   6.424  11.994   1.044 -0.6759 -0.7325 -0.1388
  216MOL0     C29712   6.358  12.005   0.906  0.7611 -0.2210 -0.4729
  216MOL0     C29713   6.427  11.912   0.810 -0.2002 -0.2501  0.4916
  216MOL0     C29714   6.335  11.873   0.695 -0.3813 -0.3116  1.5752
  216MOL0    Cl29715   6.234  12.003   0.614 -0.0265  0.1965  0.0769
  216MOL0     C29716   7.216  12.047   1.346  1.3837 -0.6829  0.2147
  216MOL0     C29717   7.326  12.014   1.427  0.6707 -0.1206 -0.4255
  216MOL0     O29718   7.467  11.737   1.472  1.0579  0.5653 -0.4505
  216MOL0     C29719   7.738  11.764   1.513 -0.2424 -0.8332  0.1416
  216MOL0     C29720   7.875  11.745   1.536  1.0003  0.1751  0.3219
  216MOL0     N29721   8.577  11.779   1.459 -0.0030  0.2059  0.0758
  216MOL0     N29722   8.603  11.743   1.337  0.1554  0.4592 -0.2991
  216MOL0     C29723   7.596  11.255   0.886  0.2652 -0.2120  0.2893
  216MOL0     C29724   7.486  11.168   0.873 -0.0242 -0.6488 -0.1459
  216MOL0     C29725   7.265  10.757   0.725  0.4853 -0.0701 -0.3304
  216MOL0     C29726   7.153  10.814   0.781 -0.3183  0.2402 -0.3387
  216MOL0     C29727   7.039  10.735   0.787  0.0612  0.1714 -1.1232
  216MOL0     C29728   7.021  10.620   0.714  1.2364 -0.5353 -0.0308
  216MOL0     O29729   6.893  10.567   0.705  0.0342  0.2034  0.4855
  216MOL0     C29730   6.866  10.483   0.590  0.8809  0.5703  0.3921
  216MOL0     C29731   6.722  10.502   0.549  0.3152  0.8775  0.2567
  216MOL0     C29732   6.633  10.429   0.643  0.2951  0.2847 -0.1996
  216MOL0     C29733   6.488  10.399   0.579 -0.1351  0.1070 -0.0203
  216MOL0     C29734   6.480  10.270   0.498 -0.2980  0.3694 -0.7476
  216MOL0     C29735   6.483  10.184   0.406  0.9121  1.1031 -0.8840
  216MOL0     C29736   7.130  10.558   0.653  0.0853 -0.0451 -0.5547
  216MOL0     C29737   7.257  10.628   0.666  0.5987  0.5785  0.1371
  216MOL0     C29738   7.385  10.547   0.620 -0.2835  0.3545 -0.4305
  216MOL0     H29739   7.595  10.970   0.627  0.3276 -0.1422  0.5687
  216MOL0     H29740   7.798  11.120   0.637  0.8068  0.0796  1.1348
  216MOL0     H29741   7.888  11.444   0.678 -1.2348 -0.8721 -1.3080
  216MOL0     H29742   7.924  11.284   0.656  2.3091 -0.0507 -0.2167
  216MOL0     H29743   8.077  11.298   0.869  1.1004  1.1093  0.7457
  216MOL0     H29744   8.131  11.387   0.728 -1.4306 -2.8138 -1.1792
  216MOL0     H29745   8.026  11.598   0.831  3.7082  0.4594 -1.4975
  216MOL0     H29746   7.981  11.493   0.966 -3.5393  0.2095 -2.4422
  216MOL0     H29747   8.212  11.413   0.990  2.9282  0.9992  4.0148
  216MOL0     H29748   8.262  11.542   0.880  0.1837 -3.0909  0.2491
  216MOL0     H29749   8.107  11.594   1.126 -0.6553 -1.3871  0.1767
  216MOL0     H29750   8.194  11.709   1.039  0.3495  1.1116  3.7989
  216MOL0     H29751   8.318  11.681   1.237  0.5778 -0.4685  0.1920
  216MOL0     H29752   8.302  11.511   1.227  0.1074 -0.9057  0.3452
  216MOL0     H29753   8.482  11.686   1.041 -0.3869 -0.7906 -1.6324
  216MOL0     H29754   8.445  11.511   1.016 -0.4745 -0.1227 -0.3877
  216MOL0     H29755   8.546  11.441   1.201 -1.3815  0.7740 -2.7142
  216MOL0     H29756   8.658  11.564   1.136 -0.1004  1.2396  0.6096
  216MOL0     H29757   8.453  11.479   1.462  1.5248 -0.6522  2.3099
  216MOL0     H29758   8.552  11.762   1.718  1.7437 -0.8757 -0.8312
  216MOL0     H29759   8.493  11.598   1.718  1.1994 -0.3878  0.4420
  216MOL0     H29760   8.345  11.858   1.704  0.5932  0.0945 -1.3035
  216MOL0     H29761   8.285  11.740   1.595 -0.0161  0.5744  0.7313
  216MOL0     H29762   8.248  11.560   1.760  1.0925 -1.5780 -0.5187
  216MOL0     H29763   8.307  11.677   1.886 -2.5291  2.7473  1.1195
  216MOL0     H29764   8.052  11.668   1.880 -0.0363  1.1809  0.0841
  216MOL0     H29765   8.128  11.827   1.846 -0.4577  0.5797 -0.4481
  216MOL0     H29766   7.867  11.774   1.865  0.5039  0.5315 -0.5830
  216MOL0     H29767   7.528  11.927   1.825 -3.0753 -2.3657 -0.6296
  216MOL0     H29768   7.647  11.856   1.952  2.2536 -0.4890 -0.6795
  216MOL0     H29769   7.522  11.762   1.887  2.4230 -0.7187  1.6817
  216MOL0     H29770   7.135  11.878   1.675 -2.0347  1.2214 -0.1512
  216MOL0     H29771   6.964  11.963   1.556  0.4916  1.8349  2.6074
  216MOL0     H29772   6.841  11.944   1.375  0.7942 -1.6746 -1.9433
  216MOL0     H29773   6.816  12.116   1.393  2.1311  3.1693 -2.1864
  216MOL0     H29774   6.816  12.145   1.154 -0.7941  0.9536  3.3953
  216MOL0     H29775   6.834  11.977   1.119 -0.1019  0.6138  0.3490
  216MOL0     H29776   6.600  12.134   1.222 -0.5404  0.2408 -0.8677
  216MOL0     H29777   6.613  11.957   1.259 -0.0582 -2.2152 -2.2545
  216MOL0     H29778   6.635  11.923   1.004  2.9707  1.5081  0.8146
  216MOL0     H29779   6.616  12.091   0.982  2.2535 -0.8934 -0.0458
  216MOL0     H29780   6.401  11.896   1.087 -0.7776 -1.0119 -0.8206
  216MOL0     H29781   6.384  12.075   1.106  0.8920  2.1916 -2.7010
  216MOL0     H29782   6.366  12.106   0.865  3.9899 -1.7759 -4.3309
  216MOL0     H29783   6.252  11.982   0.918  0.1325  2.8956  0.9142
  216MOL0     H29784   6.464  11.822   0.861 -0.0314 -0.3987  0.1094
  216MOL0     H29785   6.512  11.957   0.759  0.3502 -1.7235  0.0397
  216MOL0     H29786   6.286  11.786   0.740  0.7365 -1.2944  0.9732
  216MOL0     H29787   6.399  11.826   0.619 -0.2559 -0.0111  1.4934
  216MOL0     H29788   7.232  12.086   1.246  0.4625 -0.4802  0.1343
  216MOL0     H29789   7.426  12.053   1.410  0.8360  0.5369  1.7436
  216MOL0     H29790   7.704  11.758   1.410  0.6137 -1.7139 -0.0971
  216MOL0     H29791   7.942  11.732   1.451 -0.7586  2.8589 -1.6410
  216MOL0     H29792   7.598  11.333   0.961 -0.4096  0.9850 -0.8857
  216MOL0     H29793   7.402  11.172   0.942  0.3695 -0.7978  0.3534
  216MOL0     H29794   7.157  10.916   0.818  0.0101  0.7924 -1.8385
  216MOL0     H29795   6.963  10.774   0.855  0.9140 -1.3997  0.8497
  216MOL0     H29796   6.924  10.511   0.501 -0.7017 -0.2269 -0.9596
  216MOL0     H29797   6.884  10.377   0.607  0.7124 -0.2789 -3.6668
  216MOL0     H29798   6.709  10.452   0.453  0.3580 -0.6447  1.0188
  216MOL0     H29799   6.706  10.610   0.536  0.7139  0.9181  0.0691
  216MOL0     H29800   6.669  10.337   0.689  2.2300  1.5961  1.0236
  216MOL0     H29801   6.616  10.494   0.729  1.2059 -0.6729  0.7417
  216MOL0     H29802   6.464  10.482   0.511  3.3915  3.6303  2.5716
  216MOL0     H29803   6.409  10.387   0.655 -0.4231 -1.3069 -0.5227
  216MOL0     H29804   6.466  10.096   0.348  1.7608 -0.0116  0.5039
  216MOL0     H29805   7.116  10.459   0.609 -0.1657 -0.5686  0.6467
  216MOL0     H29806   7.427  10.485   0.699  1.0700  0.3419 -1.1414
  216MOL0     H29807   7.366  10.479   0.536  0.1308 -0.0313 -0.2136
  216MOL0     H29808   7.472  10.607   0.594 -1.3138  2.0171 -0.2385
  217MOL0     O29809  11.021   1.457   0.128  0.3332 -0.6168 -0.0665
  217MOL0     C29810  11.005   1.561   0.065 -0.6298 -0.3254  0.5798
  217MOL0     O29811  11.106   1.644   0.032  0.0377 -0.1377  0.0428
  217MOL0     C29812  11.239   1.604   0.051  0.0042  0.1970 -0.5860
  217MOL0     C29813  11.318   1.554  -0.053  0.0334 -0.4884 -0.2545
  217MOL0     C29814  11.448   1.515  -0.030 -0.1070  0.7733  0.9534
  217MOL0     C29815  11.508   1.529   0.092  0.1802  0.3952  0.1921
  217MOL0     O29816  11.634   1.499   0.129 -0.1059  0.3338 -0.5791
  217MOL0     C29817  11.715   1.421   0.040  0.3947 -0.1966  0.2743
  217MOL0     C29818  11.849   1.418   0.108  0.4192 -0.1622  0.4192
  217MOL0     C29819  11.951   1.360   0.004  0.9027  1.1862 -0.6979
  217MOL0     C29820  11.962   1.207   0.017 -0.6556 -0.0993 -0.0652
  217MOL0     C29821  12.107   1.167   0.023 -0.4339 -0.4124  0.3533
  217MOL0     C29822  12.187   1.206   0.146 -0.3341 -0.1583 -0.3269
  217MOL0     C29823  12.339   1.169   0.131 -0.0817  0.3182  0.2763
  217MOL0     C29824  12.428   1.279   0.073 -0.5891  0.2940 -0.0500
  217MOL0     N29825  12.561   1.221   0.067 -0.9907 -0.8528  0.3298
  217MOL0     C29826  12.653   1.207   0.170  0.7975 -0.2459 -1.1900
  217MOL0     C29827  12.769   1.157   0.117  0.1744  0.1544 -0.3542
  217MOL0     C29828  12.895   1.123   0.195 -0.5463  0.1466  0.3813
  217MOL0     C29829  13.002   1.237   0.210  0.0087 -0.1811 -0.6077
  217MOL0     C29830  13.083   1.249   0.082  0.1033  0.4910  0.3504
  217MOL0     C29831  13.215   1.333   0.084  0.3938  0.0867 -0.4862
  217MOL0     O29832  13.187   1.472   0.116 -0.2411  0.1742 -0.4736
  217MOL0     C29833  13.292   1.558   0.137 -1.0179  0.6341  0.4071
  217MOL0     C29834  13.433   1.523   0.148 -0.1607  0.1413  0.1698
  217MOL0     C29835  13.533   1.619   0.150  0.0647 -0.6472  0.3106
  217MOL0     C29836  13.674   1.560   0.168 -0.4365 -0.4953 -0.1477
  217MOL0     C29837  13.499   1.765   0.133  0.1417 -0.9894 -0.4507
  217MOL0     C29838  13.593   1.879   0.131 -0.3431 -0.5881  0.6031
  217MOL0     O29839  13.727   1.861   0.088  0.0272  0.7627  0.0396
  217MOL0     C29840  13.819   1.939   0.139 -0.1103  0.5388  0.7398
  217MOL0     C29841  13.935   1.888   0.192 -0.3444  1.2200  0.0155
  217MOL0     C29842  14.042   1.964   0.235  0.2171  0.0885  0.2847
  217MOL0     C29843  14.029   2.105   0.252  0.0813 -0.2618  1.0075
  217MOL0     O29844  14.130   2.187   0.290 -0.2666  0.0178  0.1745
  217MOL0     C29845  14.256   2.125   0.334 -0.2353 -0.7333  0.4155
  217MOL0     C29846  14.350   2.236   0.377  0.3688  0.5192 -0.0690
  217MOL0     C29847  14.473   2.171   0.461  0.7309  0.1601  0.2264
  217MOL0     C29848  14.558   2.286   0.526  0.5127 -0.0063 -0.2581
  217MOL0     C29849  14.689   2.243   0.588  0.1673 -0.0864  0.9518
  217MOL0     C29850  14.658   2.180   0.721 -0.7162 -0.7636 -0.5305
  217MOL0     C29851  14.783   2.154   0.807  0.9487 -0.3315 -0.3790
  217MOL0     C29852  14.762   2.072   0.925 -0.0358  0.5176 -0.1335
  217MOL0    Cl29853  14.924   2.014   0.994 -0.2641 -0.2457  0.1882
  217MOL0     C29854  13.912   2.166   0.189  0.4548 -0.3570 -0.4047
  217MOL0     C29855  13.816   2.073   0.126  0.0150  0.2625 -0.9235
  217MOL0     O29856  13.551   1.985   0.173 -0.3200 -0.2218 -0.2537
  217MOL0     C29857  13.358   1.790   0.120  0.4639 -0.4551 -0.2865
  217MOL0     C29858  13.256   1.689   0.126  0.5202 -0.4773  0.2831
  217MOL0     N29859  12.745   1.155  -0.018 -0.1093  0.2026  0.1239
  217MOL0     N29860  12.625   1.198  -0.050 -0.6380 -0.0273 -0.5674
  217MOL0     C29861  11.427   1.575   0.197 -0.1017 -0.1205  0.7979
  217MOL0     C29862  11.296   1.615   0.179  0.1821 -1.0938  0.6677
  217MOL0     C29863  10.870   1.584   0.006  0.9458 -0.4439 -0.4613
  217MOL0     C29864  10.853   1.695  -0.077 -0.8876  0.5716 -0.1062
  217MOL0     C29865  10.729   1.745  -0.120 -0.4065 -0.3863 -0.1179
  217MOL0     C29866  10.609   1.694  -0.079 -0.4111 -0.3139 -0.3254
  217MOL0     O29867  10.487   1.739  -0.126 -0.2268 -0.3599  0.2642
  217MOL0     C29868  10.366   1.714  -0.059 -0.1841  0.7287 -0.0109
  217MOL0     C29869  10.377   1.751   0.086 -0.3031 -1.0752  0.1665
  217MOL0     C29870  10.421   1.896   0.120 -0.4803  0.7279  0.0987
  217MOL0     C29871  10.445   1.915   0.268 -0.0630  0.1809  0.1842
  217MOL0     C29872  10.341   1.864   0.355 -0.0640  0.2769 -0.3606
  217MOL0     C29873  10.259   1.807   0.432 -0.0389 -0.1230  0.1984
  217MOL0     C29874  10.626   1.575  -0.006 -0.5478 -0.6175  0.2183
  217MOL0     C29875  10.748   1.529   0.045 -0.1022 -0.7938 -0.1362
  217MOL0     C29876  10.724   1.420   0.150  0.9369  0.3454 -0.3497
  217MOL0     H29877  11.284   1.547  -0.156  1.2283  1.6733 -0.8656
  217MOL0     H29878  11.505   1.471  -0.111  0.0866 -0.8869  1.9583
  217MOL0     H29879  11.718   1.471  -0.057  2.7876  0.5103  0.6623
  217MOL0     H29880  11.692   1.315   0.019  0.8338  0.1521 -2.3459
  217MOL0     H29881  11.880   1.517   0.142 -1.4366  0.3979  0.6229
  217MOL0     H29882  11.833   1.357   0.197 -3.4788  1.7601  1.2763
  217MOL0     H29883  11.907   1.389  -0.091  0.5814  0.5969 -0.7345
  217MOL0     H29884  12.047   1.409   0.020  1.8440 -0.0626 -2.2090
  217MOL0     H29885  11.906   1.161   0.099  0.5393 -0.6705  0.4638
  217MOL0     H29886  11.926   1.158  -0.074  0.5818 -3.7951  1.2267
  217MOL0     H29887  12.150   1.217  -0.065 -0.5024  0.1592  0.6406
  217MOL0     H29888  12.109   1.058   0.015 -1.3536 -0.3527 -0.9924
  217MOL0     H29889  12.181   1.315   0.154  2.9217 -0.0295  2.4192
  217MOL0     H29890  12.139   1.165   0.235  1.3632 -0.7060  0.3743
  217MOL0     H29891  12.347   1.082   0.065 -2.7234  1.0549 -1.1316
  217MOL0     H29892  12.381   1.132   0.225 -3.1054 -2.1296  0.8619
  217MOL0     H29893  12.401   1.298  -0.031 -1.9305  0.5223  0.3169
  217MOL0     H29894  12.423   1.372   0.130  2.0643  0.5276 -0.1062
  217MOL0     H29895  12.639   1.218   0.277  1.6842 -1.0331 -0.9793
  217MOL0     H29896  12.948   1.043   0.143  4.0839  0.8997  3.4266
  217MOL0     H29897  12.877   1.084   0.295  1.3684  1.3592  1.2364
  217MOL0     H29898  12.953   1.329   0.241  2.5138 -0.0037  3.6204
  217MOL0     H29899  13.063   1.209   0.297 -3.2789 -0.7829  1.7208
  217MOL0     H29900  13.105   1.149   0.043 -0.1427  0.0456  1.3279
  217MOL0     H29901  13.019   1.296   0.008 -0.3705  0.3053  0.6397
  217MOL0     H29902  13.291   1.292   0.150 -0.6516 -2.2971 -0.6358
  217MOL0     H29903  13.259   1.330  -0.016 -2.4728  0.9122 -1.9077
  217MOL0     H29904  13.451   1.417   0.160 -3.5332 -0.3408  2.4429
  217MOL0     H29905  13.737   1.568   0.079 -0.6657 -3.5798 -0.7081
  217MOL0     H29906  13.662   1.458   0.206  3.0740 -1.6693 -1.7574
  217MOL0     H29907  13.715   1.627   0.244  2.3581 -0.5373 -1.5070
  217MOL0     H29908  13.945   1.780   0.187 -0.4825  1.1666  0.7813
  217MOL0     H29909  14.136   1.914   0.258  0.2816  0.7783  1.5853
  217MOL0     H29910  14.231   2.069   0.425 -1.3543 -4.3842 -1.9068
  217MOL0     H29911  14.299   2.055   0.262  0.4978 -1.7744  1.8030
  217MOL0     H29912  14.399   2.293   0.298 -1.0898 -0.4227 -1.7067
  217MOL0     H29913  14.290   2.301   0.441  1.4179 -1.1174  2.7604
  217MOL0     H29914  14.532   2.113   0.390  2.5053 -0.7443  2.3108
  217MOL0     H29915  14.447   2.109   0.547  0.0904 -0.9486 -0.7383
  217MOL0     H29916  14.501   2.349   0.595 -0.8398 -0.3841 -0.9789
  217MOL0     H29917  14.588   2.356   0.448  0.0975  0.3234 -0.1263
  217MOL0     H29918  14.736   2.175   0.516  0.3874  1.9818 -0.9498
  217MOL0     H29919  14.751   2.332   0.598  0.4137 -0.2250  0.6558
  217MOL0     H29920  14.612   2.081   0.714 -0.8987 -0.6989 -0.2703
  217MOL0     H29921  14.586   2.233   0.784  0.2952 -1.9475  1.7256
  217MOL0     H29922  14.815   2.249   0.852 -0.4250  0.7368 -1.5802
  217MOL0     H29923  14.864   2.114   0.745  2.4314  0.6679  0.8443
  217MOL0     H29924  14.723   1.975   0.892  0.4021  0.5672 -0.8273
  217MOL0     H29925  14.705   2.122   1.003 -1.6706 -0.5467 -0.5852
  217MOL0     H29926  13.897   2.273   0.190  0.3269 -0.3559  1.1251
  217MOL0     H29927  13.723   2.121   0.098 -1.8984 -1.8939  1.2615
  217MOL0     H29928  13.326   1.894   0.112  0.1590 -0.4539  0.8472
  217MOL0     H29929  13.153   1.722   0.117  0.4614  0.0909  2.4283
  217MOL0     H29930  11.482   1.598   0.287 -0.4579 -1.1679  1.2885
  217MOL0     H29931  11.233   1.655   0.258  0.5030 -1.6673  1.2330
  217MOL0     H29932  10.944   1.728  -0.126 -0.8314 -2.8490 -2.6865
  217MOL0     H29933  10.745   1.828  -0.189  2.0000 -1.4660 -0.9680
  217MOL0     H29934  10.294   1.775  -0.112 -1.9589 -0.6213  0.7430
  217MOL0     H29935  10.336   1.609  -0.068 -0.5016  0.8006  0.2047
  217MOL0     H29936  10.446   1.688   0.144 -1.5476 -0.3860  2.5557
  217MOL0     H29937  10.276   1.739   0.126 -0.8620 -0.1393 -0.9285
  217MOL0     H29938  10.509   1.925   0.063 -1.4847  0.4486 -1.6854
  217MOL0     H29939  10.351   1.968   0.076 -0.6791  0.5350  0.0931
  217MOL0     H29940  10.477   2.018   0.288  2.7088 -0.0087 -2.5830
  217MOL0     H29941  10.535   1.861   0.298 -0.0411  1.1940  2.1681
  217MOL0     H29942  10.184   1.753   0.487  1.0492 -3.4721 -1.3621
  217MOL0     H29943  10.533   1.524   0.016 -1.5904  0.1668 -2.0574
  217MOL0     H29944  10.677   1.330   0.107 -1.7895  2.0922 -1.3002
  217MOL0     H29945  10.811   1.384   0.205 -0.4800 -1.8485  0.5985
  217MOL0     H29946  10.654   1.457   0.226 -1.9573 -3.3052 -0.9347
  218MOL0     O29947   5.386   1.594   0.971 -0.3063 -0.0525 -0.4465
  218MOL0     C29948   5.405   1.551   0.856  0.3814 -0.1680  0.4309
  218MOL0     O29949   5.513   1.556   0.788  0.5093 -0.1369 -0.0968
  218MOL0     C29950   5.639   1.556   0.849  0.3317  0.0292 -0.9813
  218MOL0     C29951   5.751   1.581   0.768 -0.0490 -0.1643  0.6442
  218MOL0     C29952   5.883   1.582   0.809 -0.2085 -0.5747  0.2876
  218MOL0     C29953   5.907   1.542   0.940  0.1497  0.3663  0.2028
  218MOL0     O29954   6.036   1.533   0.984  0.3159 -0.3275  0.0790
  218MOL0     C29955   6.079   1.628   1.085  0.4058 -0.1542  0.1204
  218MOL0     C29956   6.205   1.585   1.151  0.3643  0.1660  0.0911
  218MOL0     C29957   6.328   1.608   1.070  0.1609  0.1942 -0.0346
  218MOL0     C29958   6.441   1.590   1.168 -0.3962  0.2235  0.2711
  218MOL0     C29959   6.568   1.585   1.078 -0.5557 -0.7720 -0.3196
  218MOL0     C29960   6.691   1.597   1.159  0.6018  0.0150 -0.2286
  218MOL0     C29961   6.809   1.605   1.068  0.4565  0.3536  0.3276
  218MOL0     C29962   6.931   1.604   1.154 -0.8500  0.5345  0.6798
  218MOL0     N29963   7.057   1.588   1.076  0.2958 -0.7469 -0.0039
  218MOL0     C29964   7.158   1.682   1.071  0.7629  0.5514  0.3315
  218MOL0     C29965   7.234   1.635   0.972  0.2016  0.5879  0.0696
  218MOL0     C29966   7.349   1.702   0.918  0.5348  0.1137  0.3628
  218MOL0     C29967   7.456   1.697   1.030 -0.0268 -0.5625  0.0061
  218MOL0     C29968   7.585   1.736   0.960 -0.7061  0.2801 -0.6954
  218MOL0     C29969   7.709   1.728   1.052  0.1862  0.2833 -0.2984
  218MOL0     O29970   7.694   1.825   1.161 -0.2285 -0.5734 -0.0387
  218MOL0     C29971   7.803   1.851   1.253  0.5282 -0.6240  0.7535
  218MOL0     C29972   7.925   1.786   1.253  1.1299 -0.1302  1.3950
  218MOL0     C29973   8.018   1.809   1.351 -0.4913 -0.0930  0.2315
  218MOL0     C29974   8.131   1.704   1.363 -0.3274  0.2555 -0.2403
  218MOL0     C29975   8.005   1.917   1.441  0.3714  0.4066  0.0030
  218MOL0     C29976   8.090   1.949   1.559  0.9125  0.3581  0.0236
  218MOL0     O29977   8.078   2.078   1.611  0.8267  0.4048 -0.2716
  218MOL0     C29978   8.183   2.139   1.664 -0.2622 -0.0020 -0.9724
  218MOL0     C29979   8.170   2.199   1.791 -0.6910  0.9769 -0.3212
  218MOL0     C29980   8.277   2.269   1.845  0.5303  0.0010  0.0149
  218MOL0     C29981   8.396   2.269   1.781 -0.0251  0.0578  0.6445
  218MOL0     O29982   8.496   2.352   1.831  0.3826  0.1688 -0.1369
  218MOL0     C29983   8.467   2.441   1.948 -0.1834  0.9070  0.0590
  218MOL0     C29984   8.598   2.498   1.995 -0.9905 -0.2202 -0.2500
  218MOL0     C29985   8.697   2.539   1.885 -0.0223  0.8736 -0.1597
  218MOL0     C29986   8.833   2.578   1.931  0.0401 -0.2740 -0.4832
  218MOL0     C29987   8.916   2.601   1.807 -1.0526  0.6642  0.9976
  218MOL0     C29988   9.061   2.627   1.839 -0.3271  0.1242  0.3035
  218MOL0     C29989   9.149   2.679   1.719 -0.1685 -1.0127  0.2950
  218MOL0     C29990   9.304   2.646   1.736 -0.2533 -0.2413  0.3914
  218MOL0    Cl29991   9.370   2.697   1.894 -0.0212 -0.3130 -0.0591
  218MOL0     C29992   8.413   2.208   1.647 -0.3654 -0.4935  0.5275
  218MOL0     C29993   8.303   2.147   1.587 -0.2036  0.1650  0.4210
  218MOL0     O29994   8.160   1.861   1.604 -0.2332 -0.3096 -0.0012
  218MOL0     C29995   7.881   1.982   1.437  0.0006  0.4415 -0.5662
  218MOL0     C29996   7.782   1.953   1.345 -0.0763 -0.0638  0.4560
  218MOL0     N29997   7.184   1.520   0.919  0.5706 -0.3711 -0.0715
  218MOL0     N29998   7.086   1.490   0.995  0.6020  1.0759  0.3371
  218MOL0     C29999   5.805   1.508   1.026  0.0489 -0.1074  0.1715
  218MOL0     C30000   5.673   1.513   0.979 -0.0451  0.1643  0.5065
  218MOL0     C30001   5.287   1.500   0.783 -0.0309  0.5185  0.2817
  218MOL0     C30002   5.160   1.555   0.811  0.7167  0.0680 -0.5772
  218MOL0     C30003   5.041   1.513   0.754  0.2388  0.3646  0.9050
  218MOL0     C30004   5.046   1.422   0.647  0.2015  0.3718  0.2712
  218MOL0     O30005   4.939   1.383   0.574  0.0783  0.1316  0.7372
  218MOL0     C30006   4.810   1.442   0.607 -0.0969 -0.2117 -0.3615
  218MOL0     C30007   4.721   1.392   0.502  0.1504  0.3557 -0.2465
  218MOL0     C30008   4.583   1.469   0.487 -0.7450  1.1033 -0.2701
  218MOL0     C30009   4.493   1.407   0.381  0.5418  0.0574 -0.0553
  218MOL0     C30010   4.379   1.491   0.361  0.0667 -1.1824  0.0185
  218MOL0     C30011   4.277   1.551   0.349  0.1461  0.0692  0.1676
  218MOL0     C30012   5.175   1.375   0.607 -0.0295  0.7045 -0.3828
  218MOL0     C30013   5.292   1.401   0.680  0.0400 -0.3721 -0.0675
  218MOL0     C30014   5.416   1.357   0.619 -0.0722 -0.0183 -0.4324
  218MOL0     H30015   5.730   1.598   0.663  1.5710 -3.2164 -0.3158
  218MOL0     H30016   5.954   1.611   0.733  2.1463 -0.5239  2.3756
  218MOL0     H30017   6.003   1.627   1.164  0.6389  2.0315  0.4379
  218MOL0     H30018   6.094   1.730   1.047 -0.2943 -0.5179 -1.1896
  218MOL0     H30019   6.210   1.639   1.246  1.5226  1.5541 -0.7024
  218MOL0     H30020   6.192   1.478   1.171 -1.5533 -0.4205 -3.3567
  218MOL0     H30021   6.343   1.549   0.979  0.5239  2.6484 -1.6853
  218MOL0     H30022   6.326   1.713   1.038  4.4317  1.4435  2.9041
  218MOL0     H30023   6.455   1.668   1.244  0.5959  2.6248 -2.2120
  218MOL0     H30024   6.434   1.488   1.207 -1.9303  0.0722 -0.3335
  218MOL0     H30025   6.563   1.674   1.013  0.2554  1.3965  2.4017
  218MOL0     H30026   6.568   1.493   1.019  1.8455 -1.4337  0.5847
  218MOL0     H30027   6.690   1.685   1.224  5.5420  0.2307 -0.0799
  218MOL0     H30028   6.704   1.512   1.227  1.9651  2.8132  3.3668
  218MOL0     H30029   6.797   1.694   1.006 -1.8732  0.7568  1.2623
  218MOL0     H30030   6.813   1.517   1.003  0.2498  1.6013 -1.4445
  218MOL0     H30031   6.935   1.695   1.215 -3.6931  1.6661 -0.6828
  218MOL0     H30032   6.919   1.522   1.226  2.6536  1.1824  2.2104
  218MOL0     H30033   7.167   1.769   1.136  3.8050 -0.4079  1.3641
  218MOL0     H30034   7.334   1.807   0.891 -0.4743  0.3238  1.6254
  218MOL0     H30035   7.375   1.642   0.830 -0.2562  0.9989 -0.4955
  218MOL0     H30036   7.435   1.766   1.113 -1.5449  0.8177 -1.4346
  218MOL0     H30037   7.456   1.599   1.078 -1.8241  0.1071  1.5116
  218MOL0     H30038   7.603   1.661   0.882 -2.4620 -0.3151 -0.5721
  218MOL0     H30039   7.578   1.834   0.912 -1.5646 -0.2229 -1.6447
  218MOL0     H30040   7.715   1.624   1.083  2.6971 -0.5740 -3.1851
  218MOL0     H30041   7.796   1.739   0.988  0.1510  1.3403 -0.1895
  218MOL0     H30042   7.919   1.706   1.180 -1.3523  2.3750 -1.4399
  218MOL0     H30043   8.137   1.666   1.465 -1.1017 -1.3822 -0.7782
  218MOL0     H30044   8.224   1.754   1.333 -0.8218  0.5343 -1.3370
  218MOL0     H30045   8.119   1.620   1.294  2.3617  0.5043 -1.1233
  218MOL0     H30046   8.078   2.207   1.847 -0.6804  2.3061 -0.4597
  218MOL0     H30047   8.266   2.305   1.946  4.0985  1.6410 -0.0521
  218MOL0     H30048   8.398   2.522   1.922  3.4021  4.1977 -0.1346
  218MOL0     H30049   8.429   2.377   2.028 -1.3373  2.1444  0.5350
  218MOL0     H30050   8.575   2.581   2.063  1.5810 -0.2060  0.6887
  218MOL0     H30051   8.655   2.424   2.051 -0.3228  1.5811  1.5793
  218MOL0     H30052   8.649   2.624   1.835 -3.2537 -0.5239  0.3087
  218MOL0     H30053   8.718   2.460   1.812  1.4996  1.7676 -0.7259
  218MOL0     H30054   8.875   2.510   2.006 -1.5017  0.3100  0.9779
  218MOL0     H30055   8.805   2.672   1.980 -2.3307 -1.7783  1.2919
  218MOL0     H30056   8.920   2.507   1.752  1.9425  1.6534 -0.7266
  218MOL0     H30057   8.872   2.680   1.745  2.0560  0.8838 -1.1565
  218MOL0     H30058   9.105   2.535   1.878  0.6807  0.9428  1.1506
  218MOL0     H30059   9.078   2.702   1.917 -3.9748  3.0957 -1.4542
  218MOL0     H30060   9.127   2.785   1.711 -2.9605 -1.4020  1.5183
  218MOL0     H30061   9.105   2.641   1.627  0.1149  2.1330 -1.2489
  218MOL0     H30062   9.370   2.704   1.670  1.9884  1.7367  4.0508
  218MOL0     H30063   9.327   2.541   1.718  3.3488  0.7771 -2.0888
  218MOL0     H30064   8.516   2.213   1.614  0.0009 -4.4353  0.6927
  218MOL0     H30065   8.308   2.110   1.485 -1.0056  0.5810  0.2216
  218MOL0     H30066   7.850   2.062   1.504  2.9483  1.3428 -0.1192
  218MOL0     H30067   7.692   2.012   1.333  0.1154  0.3024  0.8069
  218MOL0     H30068   5.813   1.481   1.131  0.8823  0.7168  0.3287
  218MOL0     H30069   5.596   1.487   1.052  2.4043 -0.6970  2.9566
  218MOL0     H30070   5.151   1.621   0.896  1.5606 -0.5165 -0.0139
  218MOL0     H30071   4.943   1.543   0.791  0.2238  0.1961  1.0025
  218MOL0     H30072   4.778   1.401   0.703  0.6594 -0.2577 -0.1296
  218MOL0     H30073   4.804   1.551   0.605 -3.1578 -0.3007 -1.3049
  218MOL0     H30074   4.713   1.284   0.516  1.3594  0.1853 -0.7361
  218MOL0     H30075   4.787   1.401   0.415  3.7790 -0.8596  2.1312
  218MOL0     H30076   4.527   1.480   0.581 -1.1204 -1.0914 -0.1689
  218MOL0     H30077   4.618   1.570   0.469  1.9926  0.3978  0.6464
  218MOL0     H30078   4.460   1.305   0.403 -2.1556  0.2029 -2.7334
  218MOL0     H30079   4.546   1.391   0.286  0.3149 -0.8929 -0.0254
  218MOL0     H30080   4.180   1.593   0.329  0.3720 -0.7596 -3.4723
  218MOL0     H30081   5.182   1.318   0.515  0.2682 -0.6802  0.4612
  218MOL0     H30082   5.490   1.313   0.687 -0.5325 -0.7184 -0.3770
  218MOL0     H30083   5.394   1.279   0.545  0.7739 -0.0506 -0.6641
  218MOL0     H30084   5.469   1.438   0.568 -0.2048 -0.5646 -1.4776
  219MOL0     O30085   6.245  10.861   9.921  1.0627 -0.2074 -0.6040
  219MOL0     C30086   6.206  10.744   9.920 -0.4347 -0.0090 -0.0562
  219MOL0     O30087   6.278  10.633   9.934  0.6089  0.2691 -0.5974
  219MOL0     C30088   6.417  10.625   9.960  0.1176 -0.5470 -0.6058
  219MOL0     C30089   6.477  10.725  10.037 -0.3026 -0.7835  0.0027
  219MOL0     C30090   6.610  10.713  10.066  0.6489 -0.4370 -0.5585
  219MOL0     C30091   6.686  10.613  10.012  0.7112  0.5182  0.3077
  219MOL0     O30092   6.825  10.590  10.034  0.1390  0.6352 -0.3580
  219MOL0     C30093   6.902  10.676  10.106 -0.0919  0.6336 -0.1363
  219MOL0     C30094   7.039  10.607  10.123  0.1504 -0.0487  0.2307
  219MOL0     C30095   7.126  10.690  10.220  0.1282  0.9195 -0.0644
  219MOL0     C30096   7.231  10.600  10.282  1.5036 -0.0710 -0.5148
  219MOL0     C30097   7.330  10.684  10.373  0.1115  0.2497 -0.4187
  219MOL0     C30098   7.442  10.600  10.421  0.1185  0.6936  0.4839
  219MOL0     C30099   7.521  10.662  10.533  0.1640 -0.5653 -0.1456
  219MOL0     C30100   7.622  10.568  10.598 -0.5466 -0.5480  0.2722
  219MOL0     N30101   7.754  10.647  10.593 -0.9392  0.2986 -0.6968
  219MOL0     C30102   7.813  10.705  10.695  0.4010 -0.4291 -0.4213
  219MOL0     C30103   7.942  10.733  10.662  0.0023  0.4753  0.1309
  219MOL0     C30104   8.068  10.772  10.741 -0.4874 -0.5702 -0.1387
  219MOL0     C30105   8.113  10.917  10.730  0.5622 -0.2576 -0.2890
  219MOL0     C30106   8.213  10.954  10.605  0.2011  0.8864 -0.8282
  219MOL0     C30107   8.357  10.948  10.656  0.2467  0.0213  0.4899
  219MOL0     O30108   8.377  11.046  10.757  1.1566 -0.1080  0.1271
  219MOL0     C30109   8.488  11.052  10.819 -0.0883 -0.3545  0.5101
  219MOL0     C30110   8.614  11.001  10.772 -0.5776 -0.1822  0.4415
  219MOL0     C30111   8.729  11.031  10.844 -0.5859 -0.0867  0.0654
  219MOL0     C30112   8.860  10.984  10.784  0.0002 -0.1032  0.2881
  219MOL0     C30113   8.723  11.114  10.959 -0.1739  0.1963  0.3408
  219MOL0     C30114   8.839  11.155  11.043 -0.5029  0.1641 -0.0126
  219MOL0     O30115   8.837  11.278  11.095  0.0607  0.0369  0.1625
  219MOL0     C30116   8.960  11.323  11.134 -0.0699  0.1432  0.3000
  219MOL0     C30117   8.988  11.293  11.265  0.2388  0.2386 -0.1667
  219MOL0     C30118   9.111  11.342  11.314  0.1569 -0.8115 -0.8928
  219MOL0     C30119   9.210  11.405  11.239 -0.5486 -0.5325  0.0412
  219MOL0     O30120   9.326  11.433  11.309  0.4611  0.2932 -0.3785
  219MOL0     C30121   9.446  11.431  11.228 -0.5003  0.7632 -0.1220
  219MOL0     C30122   9.569  11.424  11.319  0.1862  0.3438  0.4351
  219MOL0     C30123   9.691  11.420  11.233  0.5372  0.7146  0.1691
  219MOL0     C30124   9.811  11.384  11.317  0.2421 -0.6746  0.0706
  219MOL0     C30125   9.864  11.486  11.416  0.0718 -0.5224  0.0093
  219MOL0     C30126   9.988  11.415  11.482 -0.0978 -1.1140  0.1645
  219MOL0     C30127  10.057  11.518  11.571  0.3015  0.3376 -0.0757
  219MOL0     C30128   9.983  11.571  11.685 -0.3809  0.2108  0.1181
  219MOL0    Cl30129   9.889  11.707  11.616  0.1992  0.3855 -0.3953
  219MOL0     C30130   9.181  11.427  11.107 -0.0952  0.3627  0.1361
  219MOL0     C30131   9.057  11.387  11.052  0.6150 -0.2429  0.6643
  219MOL0     O30132   8.932  11.072  11.062 -0.1232  1.1958  0.5314
  219MOL0     C30133   8.595  11.176  10.996  0.9278  1.0797  0.0809
  219MOL0     C30134   8.480  11.137  10.928  0.4965  0.1352 -0.2878
  219MOL0     N30135   7.949  10.718  10.524  0.8493 -0.3531  0.0908
  219MOL0     N30136   7.838  10.650  10.489 -0.7763  0.0685  0.1341
  219MOL0     C30137   6.631  10.519   9.927 -0.5805  0.1079 -0.6191
  219MOL0     C30138   6.490  10.518   9.913 -0.2215 -0.4968  0.4253
  219MOL0     C30139   6.060  10.717   9.906  0.5879  0.0614 -1.3567
  219MOL0     C30140   6.001  10.591   9.944  0.0217 -0.0963  0.2207
  219MOL0     C30141   5.866  10.562   9.942 -0.1266  0.4482  0.1908
  219MOL0     C30142   5.771  10.667   9.930 -0.2278  0.0781  0.3480
  219MOL0     O30143   5.637  10.653   9.951 -0.2853 -0.3428 -0.0671
  219MOL0     C30144   5.597  10.575  10.063  0.2282 -0.9116 -0.4183
  219MOL0     C30145   5.446  10.564  10.071 -0.4921  0.2785 -0.5139
  219MOL0     C30146   5.386  10.512   9.938  0.1169 -0.0198 -0.3841
  219MOL0     C30147   5.254  10.434   9.950 -0.2365 -0.2109  0.3928
  219MOL0     C30148   5.237  10.357   9.824 -0.3134 -1.1733  0.5483
  219MOL0     C30149   5.220  10.294   9.719  0.4632 -0.8952 -0.8947
  219MOL0     C30150   5.825  10.790   9.888 -0.0836 -1.1503  0.2490
  219MOL0     C30151   5.965  10.817   9.866  0.4024  0.3883 -0.2835
  219MOL0     C30152   6.001  10.954   9.828  0.1503  0.2476  0.3282
  219MOL0     H30153   6.429  10.806  10.091 -0.4126 -0.3014 -0.7865
  219MOL0     H30154   6.647  10.796  10.125 -2.8309  2.3212 -1.9363
  219MOL0     H30155   6.848  10.696  10.199  0.5496  1.0476  0.1599
  219MOL0     H30156   6.915  10.772  10.055 -1.1898  0.5971 -0.5202
  219MOL0     H30157   7.019  10.503  10.153  0.4127  0.0254  0.6732
  219MOL0     H30158   7.087  10.613  10.025  0.6538 -0.7602  0.4248
  219MOL0     H30159   7.174  10.777  10.175  0.7684  1.6900  1.9994
  219MOL0     H30160   7.060  10.731  10.297 -3.2570  0.8848 -2.7037
  219MOL0     H30161   7.181  10.525  10.344  1.1369  1.2660  0.8398
  219MOL0     H30162   7.281  10.555  10.195 -0.9237  0.8296 -2.4771
  219MOL0     H30163   7.278  10.726  10.459  2.1768  0.0759  0.9874
  219MOL0     H30164   7.362  10.775  10.322 -3.9750  2.4448  0.4750
  219MOL0     H30165   7.395  10.504  10.447 -1.7832  1.2211 -0.7654
  219MOL0     H30166   7.512  10.585  10.338 -1.1196 -0.5579 -0.3924
  219MOL0     H30167   7.451  10.688  10.613 -1.0813 -1.5692 -0.8771
  219MOL0     H30168   7.570  10.754  10.500  0.0117 -0.2082  0.6181
  219MOL0     H30169   7.589  10.556  10.701  0.3813  1.2220  0.8198
  219MOL0     H30170   7.623  10.470  10.551 -2.3435  0.0609 -1.1270
  219MOL0     H30171   7.780  10.711  10.798  1.3494  1.0176 -0.1842
  219MOL0     H30172   8.149  10.706  10.709  0.0016  0.8511 -2.0029
  219MOL0     H30173   8.048  10.752  10.847  1.1899  0.1614  0.3371
  219MOL0     H30174   8.018  10.967  10.711  1.4201  2.2601  1.4780
  219MOL0     H30175   8.164  10.946  10.823 -2.7881 -1.4143  2.1135
  219MOL0     H30176   8.207  10.884  10.522 -2.8092 -0.0238  0.0391
  219MOL0     H30177   8.184  11.053  10.570 -1.3010  0.8737  0.3011
  219MOL0     H30178   8.383  10.848  10.690 -0.3469 -0.5829 -0.7887
  219MOL0     H30179   8.419  10.972  10.569  1.7418  0.9917  1.7653
  219MOL0     H30180   8.631  10.947  10.680  1.6031 -1.1574  1.3507
  219MOL0     H30181   8.934  11.065  10.775 -0.1503  0.1963  1.5868
  219MOL0     H30182   8.847  10.931  10.689  0.9474  2.2848 -1.2873
  219MOL0     H30183   8.901  10.915  10.858  2.2948 -0.2977 -1.0685
  219MOL0     H30184   8.920  11.241  11.332 -0.4943  0.6645 -0.5715
  219MOL0     H30185   9.135  11.316  11.417 -2.0349  1.0904  0.1948
  219MOL0     H30186   9.441  11.348  11.156  0.1738 -1.3864  2.1776
  219MOL0     H30187   9.443  11.526  11.173 -0.6901  0.2031 -1.1113
  219MOL0     H30188   9.582  11.510  11.385  1.9036  0.4297  0.0414
  219MOL0     H30189   9.567  11.343  11.392 -0.5937 -0.2822 -0.2607
  219MOL0     H30190   9.698  11.513  11.175  1.4419 -0.1461 -1.1710
  219MOL0     H30191   9.680  11.346  11.153 -2.3083  1.6923 -0.4503
  219MOL0     H30192   9.890  11.355  11.247 -0.0304  0.4213 -0.7122
  219MOL0     H30193   9.780  11.298  11.377 -3.2762  0.6289  0.3819
  219MOL0     H30194   9.884  11.579  11.363 -0.8711 -1.0719 -1.3566
  219MOL0     H30195   9.781  11.504  11.486  0.3094  0.2327  0.1005
  219MOL0     H30196  10.056  11.383  11.403 -2.6397 -2.1013 -1.7502
  219MOL0     H30197   9.961  11.325  11.538 -1.6186 -0.4513  0.5710
  219MOL0     H30198  10.112  11.591  11.513 -1.3502  1.7060 -0.0087
  219MOL0     H30199  10.139  11.457  11.610  0.8256 -0.5546 -2.4053
  219MOL0     H30200  10.050  11.602  11.766  0.2068 -1.6803  0.4030
  219MOL0     H30201   9.919  11.487  11.714  1.6184 -1.5618 -0.3842
  219MOL0     H30202   9.253  11.478  11.043 -1.0732  3.0233  1.0291
  219MOL0     H30203   9.038  11.408  10.947 -0.0504  1.2987  1.0697
  219MOL0     H30204   8.585  11.250  11.075 -0.0046 -1.0643  2.1129
  219MOL0     H30205   8.386  11.178  10.964 -1.4495 -0.6107 -4.0523
  219MOL0     H30206   6.692  10.440   9.885 -0.6124 -0.1090 -0.2612
  219MOL0     H30207   6.439  10.437   9.862 -1.2800 -0.9064  2.0892
  219MOL0     H30208   6.061  10.510   9.984 -0.6808 -1.2266 -0.9486
  219MOL0     H30209   5.832  10.462   9.965  1.9444  0.0980  2.0512
  219MOL0     H30210   5.642  10.476  10.071 -1.4180 -1.6161  0.8018
  219MOL0     H30211   5.631  10.643  10.142 -1.8007  0.4338 -0.5955
  219MOL0     H30212   5.407  10.664  10.093 -0.7362 -0.1424  1.0506
  219MOL0     H30213   5.410  10.504  10.155 -0.9792 -0.5902 -1.3114
  219MOL0     H30214   5.377  10.595   9.868 -2.9970 -0.2101 -0.3473
  219MOL0     H30215   5.458  10.447   9.888 -0.2070 -0.2206 -0.5976
  219MOL0     H30216   5.168  10.501   9.963  0.2431  0.9561 -1.9492
  219MOL0     H30217   5.251  10.372  10.040  0.6076  1.5442  1.7007
  219MOL0     H30218   5.204  10.255   9.620  1.0527 -3.2905 -0.0979
  219MOL0     H30219   5.756  10.869   9.861  0.0421 -0.7115  1.1668
  219MOL0     H30220   6.085  10.970   9.759 -1.5250 -1.4178 -2.2844
  219MOL0     H30221   5.915  11.012   9.793 -1.5188 -2.7249 -0.7785
  219MOL0     H30222   6.033  10.992   9.926  0.4314 -2.2000  1.2398
  220MOL0     O30223   4.272   4.334   0.539 -0.1970 -0.0552 -0.0607
  220MOL0     C30224   4.281   4.454   0.535  0.4840 -0.1365 -0.0635
  220MOL0     O30225   4.397   4.526   0.523 -0.4330 -0.0248  0.0480
  220MOL0     C30226   4.515   4.464   0.515 -0.3774  0.0642 -0.2423
  220MOL0     C30227   4.539   4.370   0.418  0.3874  0.3976  0.6634
  220MOL0     C30228   4.661   4.314   0.404 -0.3207 -1.3677  0.4841
  220MOL0     C30229   4.770   4.340   0.494  0.3707 -0.4169 -0.7494
  220MOL0     O30230   4.884   4.261   0.495  0.4828 -0.4350  0.3641
  220MOL0     C30231   4.873   4.121   0.479  0.5187  0.5543 -0.3368
  220MOL0     C30232   4.809   4.071   0.604  0.1520 -0.8940 -0.0888
  220MOL0     C30233   4.880   4.102   0.739  0.6805  0.3918 -0.1709
  220MOL0     C30234   4.824   3.997   0.844  0.0055 -0.2519 -0.5606
  220MOL0     C30235   4.894   4.009   0.982 -0.8186 -0.3581  0.3549
  220MOL0     C30236   4.819   4.099   1.071  0.1068  0.5226  0.1297
  220MOL0     C30237   4.893   4.125   1.203  0.2382  0.4957 -0.0014
  220MOL0     C30238   4.986   4.250   1.198  0.6417 -0.3489  0.1745
  220MOL0     N30239   4.917   4.366   1.242 -0.1120  0.2437  0.5746
  220MOL0     C30240   4.953   4.438   1.353  0.3601 -0.2768  0.1838
  220MOL0     C30241   4.852   4.535   1.361  0.6918  0.8430 -0.0282
  220MOL0     C30242   4.851   4.660   1.445  0.5596  0.3722  0.9735
  220MOL0     C30243   4.892   4.647   1.597 -0.0875 -0.2589  0.1915
  220MOL0     C30244   4.782   4.558   1.676  1.5074  0.1147  0.8043
  220MOL0     C30245   4.777   4.403   1.656 -0.0819 -0.4255  0.1694
  220MOL0     O30246   4.905   4.351   1.639 -0.2783 -0.0963 -0.6837
  220MOL0     C30247   4.919   4.223   1.591 -0.0400 -0.7678  1.0554
  220MOL0     C30248   4.815   4.129   1.584  0.5144  0.1683 -0.4003
  220MOL0     C30249   4.832   3.998   1.550  0.6961 -0.8871  0.1001
  220MOL0     C30250   4.716   3.898   1.539 -0.2680  0.4461  0.0410
  220MOL0     C30251   4.963   3.949   1.514 -0.3529 -0.5220  0.5133
  220MOL0     C30252   4.982   3.808   1.473  0.3227 -0.3017 -0.0202
  220MOL0     O30253   4.965   3.718   1.576 -0.3650 -0.1737 -0.6460
  220MOL0     C30254   5.048   3.732   1.690  0.0073 -0.7486 -0.3885
  220MOL0     C30255   5.188   3.750   1.669  0.8389  0.5985 -0.6636
  220MOL0     C30256   5.285   3.762   1.770  0.4274  0.0707  0.1904
  220MOL0     C30257   5.238   3.765   1.900  0.6351 -0.4480 -0.4939
  220MOL0     O30258   5.321   3.783   2.004  0.0613  0.8742  0.2788
  220MOL0     C30259   5.449   3.849   1.979 -0.8714  0.2635 -0.2016
  220MOL0     C30260   5.503   3.895   2.118 -0.1825  0.7113 -0.2978
  220MOL0     C30261   5.649   3.946   2.119 -0.5945  0.1742  0.9283
  220MOL0     C30262   5.659   4.064   2.022  0.0057  0.1463 -0.4063
  220MOL0     C30263   5.788   4.136   2.022  0.7776 -0.1296 -0.6136
  220MOL0     C30264   5.826   4.231   2.144  0.2007  0.1811  0.7521
  220MOL0     C30265   5.980   4.261   2.144 -0.1917 -0.3314 -0.4671
  220MOL0     C30266   6.079   4.145   2.166 -0.3539 -0.0253  0.2036
  220MOL0    Cl30267   6.233   4.214   2.216 -0.3124 -0.1655 -0.0128
  220MOL0     C30268   5.099   3.765   1.927 -0.1755  0.2230  0.1954
  220MOL0     C30269   5.006   3.740   1.820 -0.3116 -0.6492 -0.3439
  220MOL0     O30270   5.006   3.772   1.354  0.3037 -0.3654  0.4229
  220MOL0     C30271   5.066   4.040   1.525  1.0982  0.1445  0.3343
  220MOL0     C30272   5.049   4.177   1.563  0.1801 -0.4623 -0.3164
  220MOL0     N30273   4.755   4.510   1.275 -0.2093  0.7209  0.0500
  220MOL0     N30274   4.796   4.413   1.193 -0.0624  0.2207  0.3497
  220MOL0     C30275   4.738   4.420   0.604  0.8581  0.0091  0.6595
  220MOL0     C30276   4.609   4.479   0.623 -0.0997 -0.2932  0.4923
  220MOL0     C30277   4.165   4.536   0.535 -0.1825 -1.1140  0.1796
  220MOL0     C30278   4.167   4.665   0.581  0.1476 -0.0437  0.5543
  220MOL0     C30279   4.052   4.743   0.603 -0.5115 -0.9636 -1.2300
  220MOL0     C30280   3.924   4.702   0.557  0.8701 -0.4433  0.7858
  220MOL0     O30281   3.824   4.796   0.570  1.0689 -0.2095 -0.1693
  220MOL0     C30282   3.700   4.771   0.486 -1.2365 -0.3557 -1.1113
  220MOL0     C30283   3.602   4.897   0.505 -0.1592 -0.2365 -0.6425
  220MOL0     C30284   3.461   4.838   0.477  0.7206  0.2168 -0.1573
  220MOL0     C30285   3.349   4.935   0.507 -0.3954 -1.2011 -1.3748
  220MOL0     C30286   3.353   5.054   0.421 -0.0389 -0.4358  0.3088
  220MOL0     C30287   3.349   5.150   0.346  0.1496  0.4836  0.0511
  220MOL0     C30288   3.918   4.576   0.501 -0.5374 -0.4797  0.2894
  220MOL0     C30289   4.037   4.499   0.490 -0.1753  0.1087 -0.4558
  220MOL0     C30290   4.012   4.369   0.412  0.2123  0.0255 -0.6916
  220MOL0     H30291   4.468   4.327   0.348  0.3328 -0.1842  1.0784
  220MOL0     H30292   4.670   4.240   0.325  1.1997  0.0344 -0.7296
  220MOL0     H30293   4.979   4.095   0.472  0.1112 -1.4627  0.4762
  220MOL0     H30294   4.822   4.088   0.387  0.4624 -2.7223  0.7433
  220MOL0     H30295   4.712   4.121   0.602 -0.2814 -1.7011  0.3002
  220MOL0     H30296   4.795   3.964   0.582 -1.0633 -0.5534 -1.0672
  220MOL0     H30297   4.988   4.084   0.729  0.3422 -1.3570 -1.0525
  220MOL0     H30298   4.865   4.207   0.768  0.9002  0.8505 -1.6305
  220MOL0     H30299   4.715   3.999   0.850  0.0355  2.6526  1.3906
  220MOL0     H30300   4.859   3.897   0.819  3.4628  0.1439  1.9748
  220MOL0     H30301   4.994   4.053   0.971 -1.2724  0.8405  0.8248
  220MOL0     H30302   4.905   3.906   1.016  2.1785 -1.0930 -2.3478
  220MOL0     H30303   4.781   4.189   1.022  0.5750 -1.3284 -4.1044
  220MOL0     H30304   4.733   4.039   1.099  0.0504  1.4782  2.1373
  220MOL0     H30305   4.954   4.038   1.230  1.2684  0.9996 -0.6321
  220MOL0     H30306   4.815   4.147   1.276  2.1402  2.7399  1.5292
  220MOL0     H30307   5.075   4.231   1.258 -0.1301 -1.9017  0.8794
  220MOL0     H30308   5.004   4.258   1.090 -2.9064  1.3508 -0.4424
  220MOL0     H30309   5.035   4.416   1.420  0.2244 -0.0364  0.4311
  220MOL0     H30310   4.754   4.707   1.433 -0.0038 -1.4023 -2.5794
  220MOL0     H30311   4.924   4.728   1.400 -1.4595  2.1843  0.2876
  220MOL0     H30312   4.988   4.594   1.594  0.4194  0.6825 -0.7178
  220MOL0     H30313   4.902   4.749   1.635 -0.0739  0.3776 -1.4461
  220MOL0     H30314   4.808   4.573   1.781  2.0849 -2.5989  1.1198
  220MOL0     H30315   4.681   4.599   1.664  1.7932  0.5420 -0.3037
  220MOL0     H30316   4.725   4.359   1.741  0.5066 -1.6896 -0.0933
  220MOL0     H30317   4.719   4.388   1.564 -1.3615 -3.4668  1.3332
  220MOL0     H30318   4.713   4.160   1.606 -0.1677 -2.1528  0.0322
  220MOL0     H30319   4.713   3.826   1.621 -0.2012 -1.5438 -1.6300
  220MOL0     H30320   4.718   3.848   1.442  2.0917  2.5198 -1.1248
  220MOL0     H30321   4.626   3.961   1.538 -0.2538  0.5051 -2.1038
  220MOL0     H30322   5.225   3.747   1.566  0.5903 -0.0108 -0.7406
  220MOL0     H30323   5.386   3.777   1.733  0.2537  0.0565 -0.2969
  220MOL0     H30324   5.522   3.782   1.933 -0.4909  1.3425 -1.2314
  220MOL0     H30325   5.432   3.938   1.917  1.3031  2.6178  2.3425
  220MOL0     H30326   5.436   3.970   2.162 -0.0872  0.1626  0.8153
  220MOL0     H30327   5.505   3.807   2.183  1.9156  0.6506 -0.3803
  220MOL0     H30328   5.715   3.861   2.097 -0.8372  0.4924 -1.1563
  220MOL0     H30329   5.686   3.978   2.217  0.5983  1.2909  0.1418
  220MOL0     H30330   5.586   4.141   2.047 -1.0435 -0.6506 -0.9503
  220MOL0     H30331   5.632   4.029   1.922 -2.1477 -1.6468  0.7234
  220MOL0     H30332   5.874   4.070   2.007  1.2131  0.3209 -0.1883
  220MOL0     H30333   5.789   4.195   1.930 -1.0675  0.8465 -0.0526
  220MOL0     H30334   5.810   4.174   2.236  0.6681 -0.9725  0.1373
  220MOL0     H30335   5.763   4.321   2.150 -0.4957 -0.3680  2.4634
  220MOL0     H30336   5.997   4.324   2.232  0.3997 -1.8359  0.5193
  220MOL0     H30337   6.003   4.313   2.051 -0.1293 -0.3405 -0.4567
  220MOL0     H30338   6.083   4.090   2.071 -1.5679  1.6174 -0.8679
  220MOL0     H30339   6.044   4.078   2.244 -1.7598  0.4673  0.0274
  220MOL0     H30340   5.058   3.747   2.026 -2.5540 -4.5083 -1.3664
  220MOL0     H30341   4.904   3.723   1.854 -0.1347 -3.0022 -0.8726
  220MOL0     H30342   5.171   4.017   1.507  1.6896  2.0723  1.1746
  220MOL0     H30343   5.139   4.238   1.568 -2.1096  3.2734 -0.5326
  220MOL0     H30344   4.805   4.443   0.687  2.1201 -0.1129 -0.2896
  220MOL0     H30345   4.591   4.521   0.721  1.1211 -1.3546  1.2049
  220MOL0     H30346   4.259   4.695   0.631  0.4697  1.3169 -0.8124
  220MOL0     H30347   4.062   4.841   0.647 -1.1719 -0.0211 -3.0859
  220MOL0     H30348   3.729   4.768   0.381  1.8301  2.9387 -0.5473
  220MOL0     H30349   3.653   4.681   0.527 -0.9064  0.1236  0.3924
  220MOL0     H30350   3.630   4.970   0.429  1.8626 -2.8444 -2.6068
  220MOL0     H30351   3.609   4.930   0.609 -1.4445 -2.5097  0.2277
  220MOL0     H30352   3.454   4.794   0.377 -0.2294 -1.2175  0.5075
  220MOL0     H30353   3.445   4.754   0.545  0.4511 -2.0409 -2.8385
  220MOL0     H30354   3.342   4.952   0.615  0.2705  0.6592 -1.5893
  220MOL0     H30355   3.252   4.885   0.494 -0.2190 -1.2560 -2.6477
  220MOL0     H30356   3.354   5.225   0.269  1.7461 -0.7691 -1.1322
  220MOL0     H30357   3.825   4.534   0.464  0.0405 -1.2026 -0.3745
  220MOL0     H30358   4.017   4.286   0.483  0.8097  1.4989  1.0766
  220MOL0     H30359   3.915   4.374   0.362 -0.4049  4.3456  0.5131
  220MOL0     H30360   4.083   4.355   0.330 -0.3045  1.0564 -1.3344
  221MOL0     O30361  10.553   4.363   0.665 -0.4120 -0.1271 -0.6480
  221MOL0     C30362  10.492   4.417   0.761 -0.0825 -0.7038 -0.3667
  221MOL0     O30363  10.512   4.551   0.792 -0.2564 -0.3901 -1.0360
  221MOL0     C30364  10.581   4.630   0.696 -0.1229  0.2360 -0.3644
  221MOL0     C30365  10.710   4.603   0.647 -0.5010 -0.4047 -0.4086
  221MOL0     C30366  10.779   4.684   0.556 -0.0280  0.2030 -0.7862
  221MOL0     C30367  10.715   4.799   0.500  0.0110  0.4617 -0.1194
  221MOL0     O30368  10.779   4.856   0.395 -0.4750  0.7459  0.1661
  221MOL0     C30369  10.701   4.928   0.301  0.1627  0.3137 -0.3660
  221MOL0     C30370  10.785   4.989   0.182 -0.2043 -0.3002  0.6572
  221MOL0     C30371  10.927   5.009   0.224  0.0905  0.4439  0.7676
  221MOL0     C30372  11.015   5.068   0.111 -0.4818 -0.0541  0.7410
  221MOL0     C30373  11.158   5.073   0.160 -0.7156 -0.2984  0.1255
  221MOL0     C30374  11.254   5.104   0.042 -0.1400  0.3544 -0.1597
  221MOL0     C30375  11.395   5.125   0.100  0.0336  0.0657  0.1248
  221MOL0     C30376  11.409   5.240   0.190  0.1759  0.4369  0.5073
  221MOL0     N30377  11.552   5.248   0.221 -0.7848  0.0082  0.1062
  221MOL0     C30378  11.620   5.163   0.302 -1.2610 -0.3151  0.1624
  221MOL0     C30379  11.750   5.194   0.289  0.2311 -0.0066  0.8848
  221MOL0     C30380  11.850   5.127   0.381  0.3705  0.4106  1.3942
  221MOL0     C30381  11.990   5.194   0.357  0.3150  0.0957  0.3017
  221MOL0     C30382  12.101   5.132   0.457  0.0279 -0.6880 -0.4637
  221MOL0     C30383  12.240   5.194   0.440  0.1680 -0.3790  0.4923
  221MOL0     O30384  12.321   5.139   0.541  0.3313  0.4737  0.1703
  221MOL0     C30385  12.455   5.170   0.533 -0.1900 -0.8803  0.3269
  221MOL0     C30386  12.539   5.102   0.443 -0.5033 -0.3103  0.3130
  221MOL0     C30387  12.677   5.136   0.417 -0.6122 -0.6489 -0.0971
  221MOL0     C30388  12.724   5.077   0.289  0.1771 -0.5911 -0.0620
  221MOL0     C30389  12.742   5.222   0.509  0.6684 -0.4009 -0.0948
  221MOL0     C30390  12.886   5.252   0.501  0.8182  0.0290 -0.0440
  221MOL0     O30391  12.925   5.358   0.572 -0.3004  0.6361 -0.5265
  221MOL0     C30392  13.058   5.370   0.587  0.1752 -0.0655  0.6344
  221MOL0     C30393  13.143   5.394   0.482 -1.2548  0.1084  0.9504
  221MOL0     C30394  13.279   5.408   0.493  0.5457 -0.3896 -0.8341
  221MOL0     C30395  13.344   5.400   0.617  0.1415  0.1835 -0.2614
  221MOL0     O30396  13.478   5.405   0.641  0.1528  0.2892  0.2058
  221MOL0     C30397  13.578   5.404   0.542 -0.3185 -0.4457 -0.2264
  221MOL0     C30398  13.717   5.404   0.606 -0.6063 -0.0922 -0.5441
  221MOL0     C30399  13.738   5.518   0.703 -0.4914  0.5951 -0.1909
  221MOL0     C30400  13.879   5.533   0.749 -0.4766  0.2601 -0.6347
  221MOL0     C30401  13.902   5.635   0.858 -0.5397 -0.0497 -0.4388
  221MOL0     C30402  14.056   5.637   0.898 -0.2203 -0.3276  0.4659
  221MOL0     C30403  14.101   5.742   1.003  0.1065  0.0326  1.0207
  221MOL0     C30404  14.251   5.742   1.025  0.0875  0.2534 -0.4883
  221MOL0    Cl30405  14.274   5.593   1.117 -0.4957  0.4756  0.1136
  221MOL0     C30406  13.256   5.372   0.726 -0.8371 -1.7874  0.0234
  221MOL0     C30407  13.117   5.361   0.712  0.1997 -0.1470 -0.1576
  221MOL0     O30408  12.952   5.179   0.426 -0.2545 -0.3597 -0.2098
  221MOL0     C30409  12.654   5.290   0.603 -0.5362 -0.0163  0.6957
  221MOL0     C30410  12.519   5.264   0.613 -0.1032 -0.1162 -0.3483
  221MOL0     N30411  11.763   5.283   0.179  0.5265 -0.6087 -0.2207
  221MOL0     N30412  11.645   5.316   0.146  0.5031  0.3512 -0.6802
  221MOL0     C30413  10.582   4.829   0.549 -0.1095 -0.1989  1.0316
  221MOL0     C30414  10.512   4.739   0.633  0.2969  0.6988 -0.3869
  221MOL0     C30415  10.396   4.349   0.850  0.3314 -0.3473  0.8990
  221MOL0     C30416  10.345   4.413   0.968  0.6723 -0.8270  0.7389
  221MOL0     C30417  10.248   4.346   1.053  0.3385 -0.0275  0.0658
  221MOL0     C30418  10.201   4.209   1.027  0.1223 -0.1228 -0.4049
  221MOL0     O30419  10.110   4.129   1.096  0.0335  0.1352  0.1378
  221MOL0     C30420  10.033   4.176   1.205 -0.3766 -0.0011 -0.4285
  221MOL0     C30421   9.932   4.288   1.173  1.0816  0.1988  0.8265
  221MOL0     C30422   9.826   4.238   1.069  0.5354 -0.4745 -0.7073
  221MOL0     C30423   9.690   4.311   1.079  0.6710 -0.3469 -0.7332
  221MOL0     C30424   9.617   4.262   1.187  0.3367  0.2923 -0.4834
  221MOL0     C30425   9.560   4.228   1.282  0.1121 -0.5814 -0.5715
  221MOL0     C30426  10.244   4.158   0.906  0.5144 -0.1172  0.0969
  221MOL0     C30427  10.337   4.223   0.815  0.4614 -0.3219 -0.3832
  221MOL0     C30428  10.377   4.154   0.686 -0.1458  0.6497  0.0431
  221MOL0     H30429  10.762   4.522   0.698  2.1603  2.5313  1.9336
  221MOL0     H30430  10.878   4.663   0.517  1.5566  2.4107  1.7521
  221MOL0     H30431  10.666   5.013   0.360  5.7258  2.1942  0.9128
  221MOL0     H30432  10.619   4.876   0.251 -0.5345  0.4349  0.6349
  221MOL0     H30433  10.779   4.912   0.105  1.2400 -2.0208  2.1797
  221MOL0     H30434  10.731   5.080   0.154 -0.2021 -0.4399  0.1965
  221MOL0     H30435  10.926   5.083   0.305  1.0601 -0.5717  1.7521
  221MOL0     H30436  10.972   4.914   0.253 -0.7821 -0.1088  0.3429
  221MOL0     H30437  11.007   5.003   0.023 -0.8537  1.0834 -0.0949
  221MOL0     H30438  10.987   5.165   0.069  0.2559  0.4702  1.4301
  221MOL0     H30439  11.189   4.980   0.209 -1.1394  0.4447  1.8531
  221MOL0     H30440  11.152   5.155   0.231 -1.7112  0.2247 -0.5424
  221MOL0     H30441  11.241   5.028  -0.035 -0.7506  1.1726 -0.8824
  221MOL0     H30442  11.225   5.198  -0.007 -0.0034  1.2164  1.3374
  221MOL0     H30443  11.462   5.132   0.014  0.2084  0.6513  0.2998
  221MOL0     H30444  11.420   5.033   0.154  0.0706  0.8385  1.4648
  221MOL0     H30445  11.362   5.330   0.150  0.1979  2.0647  3.8497
  221MOL0     H30446  11.360   5.215   0.285  4.2128  1.8336  3.2115
  221MOL0     H30447  11.578   5.094   0.376  0.7351 -1.0503  0.6660
  221MOL0     H30448  11.854   5.021   0.354 -0.2174  1.0630 -1.6207
  221MOL0     H30449  11.820   5.139   0.485 -1.7611  0.2170  0.8505
  221MOL0     H30450  12.028   5.171   0.257 -0.5115 -0.0595  0.0101
  221MOL0     H30451  11.994   5.302   0.373 -1.4569  0.0870  1.0619
  221MOL0     H30452  12.069   5.154   0.560  0.7263  1.4762 -0.6536
  221MOL0     H30453  12.102   5.024   0.442  0.8418 -1.1908  2.5772
  221MOL0     H30454  12.280   5.185   0.338 -1.9699  0.8159 -0.5412
  221MOL0     H30455  12.234   5.303   0.451 -1.3225 -0.0440 -2.5867
  221MOL0     H30456  12.491   5.027   0.380  1.4534 -2.1918  0.9299
  221MOL0     H30457  12.764   4.976   0.307 -1.8385 -1.3155  0.6258
  221MOL0     H30458  12.798   5.141   0.240  0.1959  0.5740  1.4357
  221MOL0     H30459  12.639   5.066   0.221  0.7466  0.4848 -0.9840
  221MOL0     H30460  13.108   5.384   0.379  1.1529 -3.0851  0.2416
  221MOL0     H30461  13.347   5.426   0.411 -0.1203  1.7193 -0.9735
  221MOL0     H30462  13.571   5.319   0.473 -0.6249  0.2192 -1.0327
  221MOL0     H30463  13.570   5.494   0.479  0.5101  1.6334  2.4485
  221MOL0     H30464  13.717   5.309   0.660 -0.9529  0.3142  0.1960
  221MOL0     H30465  13.797   5.393   0.532  1.8107  1.8097  1.5801
  221MOL0     H30466  13.668   5.501   0.786 -0.8593 -0.3525 -0.6751
  221MOL0     H30467  13.728   5.612   0.649  1.0233  0.6245 -0.4637
  221MOL0     H30468  13.940   5.558   0.662  0.3283 -1.1359 -0.5081
  221MOL0     H30469  13.907   5.439   0.798  3.8761  1.3975 -0.5216
  221MOL0     H30470  13.860   5.731   0.828 -0.1425  1.3313  3.0373
  221MOL0     H30471  13.851   5.607   0.950 -1.5494  0.8439 -0.7068
  221MOL0     H30472  14.126   5.653   0.815  0.7956 -1.3444  1.1060
  221MOL0     H30473  14.075   5.536   0.935  0.3484 -1.4622 -2.5879
  221MOL0     H30474  14.040   5.735   1.094  1.8597  2.4500  2.4862
  221MOL0     H30475  14.073   5.836   0.955  0.8026  0.0100  0.5589
  221MOL0     H30476  14.273   5.828   1.089 -2.0711  0.6645 -0.2213
  221MOL0     H30477  14.312   5.742   0.934  1.6869 -2.3954  0.4929
  221MOL0     H30478  13.303   5.360   0.824  2.5542  1.3240 -0.9754
  221MOL0     H30479  13.060   5.340   0.802  1.7887 -3.1305  0.3056
  221MOL0     H30480  12.705   5.365   0.663 -1.1187  0.3785  0.6986
  221MOL0     H30481  12.451   5.317   0.679 -2.5236 -1.1457 -1.8470
  221MOL0     H30482  10.531   4.922   0.524  0.6917  0.4987  1.9270
  221MOL0     H30483  10.408   4.760   0.654 -0.0704 -1.2733 -0.0426
  221MOL0     H30484  10.388   4.509   0.994  0.6307 -0.6372  0.1280
  221MOL0     H30485  10.212   4.405   1.136 -0.5076 -1.0071  0.4083
  221MOL0     H30486   9.959   4.102   1.238  1.8336 -2.0568  0.1828
  221MOL0     H30487  10.102   4.227   1.273 -0.7269 -0.7605  0.5074
  221MOL0     H30488   9.985   4.369   1.121 -1.1022  0.2211 -1.5314
  221MOL0     H30489   9.881   4.326   1.262 -2.5110 -0.4250 -0.7933
  221MOL0     H30490   9.867   4.263   0.970  0.5283  1.1726 -0.3212
  221MOL0     H30491   9.806   4.130   1.073 -0.2499 -0.3014  0.6544
  221MOL0     H30492   9.627   4.306   0.990 -0.1285  0.0306 -0.2000
  221MOL0     H30493   9.707   4.415   1.107  0.5708 -0.7108  0.7469
  221MOL0     H30494   9.510   4.202   1.373  2.5411  0.8105  1.2779
  221MOL0     H30495  10.208   4.059   0.878 -2.6784  1.0121 -0.2139
  221MOL0     H30496  10.364   4.221   0.600 -0.3859  0.4290 -0.0939
  221MOL0     H30497  10.484   4.131   0.689 -0.8144 -3.0051  0.4642
  221MOL0     H30498  10.324   4.059   0.679  3.2542 -1.3885 -0.0679
  222MOL0     O30499   0.706   0.904   9.648  0.0910  0.0487  0.2088
  222MOL0     C30500   0.689   0.918   9.525 -0.3200 -0.0230  0.1529
  222MOL0     O30501   0.568   0.923   9.462  0.0411 -0.2296 -0.0518
  222MOL0     C30502   0.466   0.975   9.531  0.6024 -0.5645 -0.4319
  222MOL0     C30503   0.356   0.885   9.528 -0.4644 -0.3216  0.1871
  222MOL0     C30504   0.225   0.924   9.561  0.1233 -0.1999  0.7302
  222MOL0     C30505   0.205   1.058   9.603 -0.6779 -0.2663 -0.3639
  222MOL0     O30506   0.093   1.099   9.665  0.7194  1.1859  0.2400
  222MOL0     C30507   0.004   1.165   9.575  0.3886  0.1718 -0.0792
  222MOL0     C30508  -0.144   1.137   9.613  0.6760  0.5260  0.0273
  222MOL0     C30509  -0.172   0.988   9.634 -0.1872  0.6280 -0.2120
  222MOL0     C30510  -0.322   0.957   9.674 -0.2869 -0.3369  0.4708
  222MOL0     C30511  -0.346   0.809   9.674 -0.0974  0.2137 -0.3179
  222MOL0     C30512  -0.496   0.772   9.707 -0.3097 -0.4536  1.5525
  222MOL0     C30513  -0.597   0.834   9.604 -0.9911  0.2554 -0.1549
  222MOL0     C30514  -0.738   0.782   9.623 -0.1213 -0.0830  0.1370
  222MOL0     N30515  -0.813   0.858   9.730 -0.0796  0.7688 -0.0106
  222MOL0     C30516  -0.767   0.871   9.855 -0.2602  0.9386 -0.6457
  222MOL0     C30517  -0.843   0.967   9.912  0.3258 -0.5647 -0.5278
  222MOL0     C30518  -0.824   1.034  10.040 -0.8688 -0.6682 -0.1378
  222MOL0     C30519  -0.680   1.101  10.044 -0.2214 -0.3175  0.8556
  222MOL0     C30520  -0.669   1.213   9.939  0.0852 -0.6424 -0.6869
  222MOL0     C30521  -0.527   1.284   9.945  0.9772 -0.2634 -0.0255
  222MOL0     O30522  -0.423   1.186   9.928  0.0955 -0.3936  0.9872
  222MOL0     C30523  -0.300   1.243   9.935  0.0420  0.1939 -0.1333
  222MOL0     C30524  -0.189   1.168   9.988 -0.0231  0.5831 -0.0009
  222MOL0     C30525  -0.060   1.220   9.994 -0.7802 -0.5925  0.3215
  222MOL0     C30526   0.042   1.121  10.043  0.3111  0.0525  0.2797
  222MOL0     C30527  -0.037   1.344   9.933 -0.0462 -0.3314  0.5325
  222MOL0     C30528   0.096   1.395   9.902 -0.0834  0.3182 -0.5381
  222MOL0     O30529   0.191   1.375   9.991  0.2781  0.1419 -0.6065
  222MOL0     C30530   0.314   1.431   9.960 -0.1559 -0.3686 -0.4724
  222MOL0     C30531   0.344   1.565   9.978  0.5932 -0.0427 -0.6001
  222MOL0     C30532   0.466   1.615   9.950  0.0082 -0.8204  0.2713
  222MOL0     C30533   0.560   1.529   9.900  0.0687  0.2540 -0.6858
  222MOL0     O30534   0.677   1.594   9.864  0.5582  0.4268 -0.3121
  222MOL0     C30535   0.798   1.541   9.911  0.1136 -0.3439 -0.3030
  222MOL0     C30536   0.913   1.638   9.905  0.5714  0.2584 -0.2016
  222MOL0     C30537   0.995   1.619   9.771  0.7645 -0.4539 -0.5562
  222MOL0     C30538   1.094   1.742   9.762  0.1122 -0.2925 -0.9927
  222MOL0     C30539   1.098   1.802   9.623  0.5553 -0.5442 -0.5638
  222MOL0     C30540   1.179   1.719   9.524 -0.4690  0.2687 -0.3030
  222MOL0     C30541   1.322   1.673   9.567  0.7396 -0.1924 -0.0321
  222MOL0     C30542   1.411   1.777   9.641 -1.0802  0.9063  0.4420
  222MOL0    Cl30543   1.566   1.692   9.690 -0.1413 -0.2743  0.2542
  222MOL0     C30544   0.540   1.391   9.892 -0.0728 -0.4174 -0.7590
  222MOL0     C30545   0.413   1.342   9.925  0.1870  0.6813  1.0068
  222MOL0     O30546   0.110   1.445   9.790 -0.1070  0.9259 -0.0125
  222MOL0     C30547  -0.141   1.422   9.874 -0.3298 -0.2879 -0.7806
  222MOL0     C30548  -0.268   1.368   9.885 -0.1278 -0.8577 -0.0438
  222MOL0     N30549  -0.940   0.997   9.824  0.1352 -0.5857  0.3892
  222MOL0     N30550  -0.921   0.928   9.712 -0.7057 -0.2517 -0.6595
  222MOL0     C30551   0.314   1.150   9.612 -0.1239  0.3230  0.6330
  222MOL0     C30552   0.442   1.111   9.578  0.3448  0.2729 -0.1303
  222MOL0     C30553   0.811   0.877   9.452 -0.0477 -0.3607  0.8371
  222MOL0     C30554   0.940   0.866   9.522  1.4496  0.7697  1.0822
  222MOL0     C30555   1.052   0.817   9.462 -0.2598  0.7427  0.3842
  222MOL0     C30556   1.047   0.786   9.331 -0.8308 -0.3813  0.0874
  222MOL0     O30557   1.166   0.732   9.283 -0.3183 -0.0605 -0.1946
  222MOL0     C30558   1.174   0.688   9.149 -0.7387 -0.6048 -0.2829
  222MOL0     C30559   1.308   0.627   9.135 -0.1776  0.3904  0.7547
  222MOL0     C30560   1.335   0.542   9.005  0.7418  0.5693  0.4459
  222MOL0     C30561   1.377   0.635   8.882  0.4831 -0.7168 -0.1725
  222MOL0     C30562   1.260   0.682   8.799  0.1588  0.2415 -1.1041
  222MOL0     C30563   1.162   0.717   8.731 -0.0399 -0.1639  0.1672
  222MOL0     C30564   0.932   0.799   9.249  0.1300  0.6046  0.4893
  222MOL0     C30565   0.813   0.846   9.312 -0.0268 -0.3523  0.1427
  222MOL0     C30566   0.691   0.874   9.221  0.4499  1.0630 -0.1380
  222MOL0     H30567   0.387   0.790   9.487  3.8237  0.1254  1.8277
  222MOL0     H30568   0.146   0.850   9.549 -0.0203  0.0562  0.0432
  222MOL0     H30569   0.018   1.123   9.475  0.8232  2.1592 -0.9012
  222MOL0     H30570   0.034   1.270   9.568 -0.7359  0.4910 -0.3043
  222MOL0     H30571  -0.172   1.186   9.707 -0.6625  2.6846 -1.4118
  222MOL0     H30572  -0.210   1.181   9.537  1.2479  0.0410 -0.7653
  222MOL0     H30573  -0.145   0.930   9.545 -1.1373  0.2540 -0.2753
  222MOL0     H30574  -0.108   0.959   9.718 -0.7777  2.7334  1.0382
  222MOL0     H30575  -0.345   1.006   9.769  1.5477  3.0915 -0.6726
  222MOL0     H30576  -0.374   1.004   9.589  0.2872 -1.4917 -0.5493
  222MOL0     H30577  -0.275   0.756   9.737 -3.2347  0.3485  3.7294
  222MOL0     H30578  -0.336   0.772   9.572  0.7519  0.9960 -0.5327
  222MOL0     H30579  -0.509   0.663   9.704 -0.6357 -0.5714 -3.8036
  222MOL0     H30580  -0.521   0.812   9.805 -1.0017  3.7118 -0.1160
  222MOL0     H30581  -0.579   0.802   9.501 -1.7002  2.0625 -0.8816
  222MOL0     H30582  -0.598   0.943   9.606 -1.4041  0.2585 -0.4484
  222MOL0     H30583  -0.790   0.798   9.529 -0.4325  0.2195  0.3597
  222MOL0     H30584  -0.726   0.675   9.644  1.3307  0.1651  0.7596
  222MOL0     H30585  -0.688   0.815   9.903 -1.6725 -0.1332  0.4832
  222MOL0     H30586  -0.838   0.964  10.123 -1.5052 -0.3559  0.0270
  222MOL0     H30587  -0.897   1.115  10.049 -0.7866 -0.7144  1.0811
  222MOL0     H30588  -0.656   1.141  10.143 -0.0071 -0.7454  0.9768
  222MOL0     H30589  -0.596   1.032  10.041  0.0336 -0.2183  3.4317
  222MOL0     H30590  -0.684   1.171   9.838 -0.0531 -2.3230  0.0030
  222MOL0     H30591  -0.748   1.288   9.952  0.9401  0.7376 -2.8510
  222MOL0     H30592  -0.547   1.360   9.868 -2.8811  0.2547  1.2756
  222MOL0     H30593  -0.507   1.343  10.035 -0.0132  1.2841 -0.7633
  222MOL0     H30594  -0.209   1.077  10.044  2.6407  1.1124  2.0080
  222MOL0     H30595  -0.013   1.032  10.076 -0.4266  1.2496  2.5159
  222MOL0     H30596   0.095   1.162  10.130 -1.1890  2.4464  0.1443
  222MOL0     H30597   0.112   1.091   9.964  0.7536  0.5871  0.4623
  222MOL0     H30598   0.266   1.631  10.014  1.9193  2.6968 -2.4296
  222MOL0     H30599   0.482   1.722   9.957 -0.1436 -0.6952 -0.9435
  222MOL0     H30600   0.787   1.511  10.015 -2.3188 -1.0857 -0.6983
  222MOL0     H30601   0.819   1.446   9.860 -0.1829 -2.1989  2.7976
  222MOL0     H30602   0.874   1.739   9.914  3.1486  1.2950  0.2423
  222MOL0     H30603   0.984   1.618   9.986 -0.6781 -0.0223  0.8575
  222MOL0     H30604   0.922   1.619   9.689  0.5854  4.6180 -0.7402
  222MOL0     H30605   1.051   1.525   9.777  1.0700 -0.1822  2.1412
  222MOL0     H30606   1.187   1.701   9.802 -0.3886 -0.6815 -0.1817
  222MOL0     H30607   1.061   1.820   9.832 -0.6988 -0.9819 -0.5891
  222MOL0     H30608   0.996   1.822   9.590  0.7390  0.2937 -0.6234
  222MOL0     H30609   1.145   1.900   9.620  0.6327 -0.5060  0.9184
  222MOL0     H30610   1.198   1.772   9.430  1.8845 -0.9085 -0.5471
  222MOL0     H30611   1.121   1.631   9.494  0.8030 -0.8263  0.3359
  222MOL0     H30612   1.379   1.637   9.480  1.6343 -0.2686  0.5701
  222MOL0     H30613   1.303   1.590   9.636  0.2849 -0.0673 -0.0043
  222MOL0     H30614   1.353   1.830   9.717 -1.7817 -2.2735  2.3359
  222MOL0     H30615   1.431   1.849   9.561 -0.5163  2.0835  1.6180
  222MOL0     H30616   0.612   1.318   9.856 -1.4898 -3.6807  2.3679
  222MOL0     H30617   0.389   1.237   9.915 -1.3486  1.0768  0.2761
  222MOL0     H30618  -0.135   1.514   9.817 -0.9606  1.3379  1.6413
  222MOL0     H30619  -0.342   1.424   9.829 -0.4913  0.2064  1.4508
  222MOL0     H30620   0.295   1.252   9.644 -2.1787  0.0440  0.4631
  222MOL0     H30621   0.523   1.182   9.566  0.3414  0.5065  1.1519
  222MOL0     H30622   0.952   0.883   9.628  0.8156 -2.3273  1.7485
  222MOL0     H30623   1.145   0.806   9.517  0.4998  1.5428 -0.7005
  222MOL0     H30624   1.102   0.610   9.126  0.4159 -2.6581  2.5772
  222MOL0     H30625   1.151   0.763   9.072 -2.0393 -1.7265 -1.0144
  222MOL0     H30626   1.311   0.547   9.210 -1.1961 -0.8744 -0.4846
  222MOL0     H30627   1.387   0.701   9.149 -1.6118  2.3522 -0.9014
  222MOL0     H30628   1.422   0.480   9.031  3.3181  2.8286 -2.0679
  222MOL0     H30629   1.246   0.483   8.981  1.0661 -0.0088  0.6441
  222MOL0     H30630   1.442   0.584   8.810  2.8594  1.7927  0.0322
  222MOL0     H30631   1.423   0.729   8.911 -3.3691  1.8868 -1.6582
  222MOL0     H30632   1.090   0.725   8.652 -1.5656  1.1499  1.6153
  222MOL0     H30633   0.941   0.799   9.141  1.3794 -0.5472  0.5736
  222MOL0     H30634   0.600   0.819   9.246 -1.2115  3.6602 -0.0157
  222MOL0     H30635   0.665   0.980   9.221 -4.3325  0.1393 -0.9351
  222MOL0     H30636   0.712   0.848   9.117  0.8105 -0.6805  0.3442
  223MOL0     O30637   6.809   2.197   0.504 -0.3277  0.7331 -0.0233
  223MOL0     C30638   6.786   2.246   0.392 -0.0746 -0.3623  0.1337
  223MOL0     O30639   6.748   2.178   0.280 -0.7988  0.1648  0.0745
  223MOL0     C30640   6.694   2.058   0.300  0.0621  0.0706 -0.4899
  223MOL0     C30641   6.757   1.938   0.281  0.7324  0.4680  0.4161
  223MOL0     C30642   6.694   1.816   0.285  0.6468 -0.2635  0.7357
  223MOL0     C30643   6.556   1.810   0.316 -0.6855 -0.1180 -0.2799
  223MOL0     O30644   6.481   1.692   0.311 -0.0548  0.3217  0.6577
  223MOL0     C30645   6.543   1.561   0.307 -0.4485  0.4198 -0.3504
  223MOL0     C30646   6.424   1.469   0.312 -0.7082 -0.6457 -0.7385
  223MOL0     C30647   6.456   1.324   0.286  0.7287  0.3972 -0.2924
  223MOL0     C30648   6.325   1.244   0.286 -0.4568  0.0616  0.2495
  223MOL0     C30649   6.356   1.085   0.292  0.4996 -0.3086  0.4939
  223MOL0     C30650   6.422   1.028   0.420  0.2077 -0.2837 -0.9158
  223MOL0     C30651   6.436   0.868   0.406 -0.3832 -0.4569  0.2306
  223MOL0     C30652   6.543   0.843   0.308 -0.3790 -0.1032  0.1161
  223MOL0     N30653   6.543   0.696   0.304 -0.4238  0.2415 -0.5359
  223MOL0     C30654   6.459   0.610   0.235 -0.1457 -0.6836 -0.7960
  223MOL0     C30655   6.492   0.486   0.260  0.2101  0.0695 -0.2158
  223MOL0     C30656   6.427   0.369   0.201  0.0206  0.0312 -0.1482
  223MOL0     C30657   6.310   0.299   0.272  0.1423 -0.0917  0.7180
  223MOL0     C30658   6.170   0.366   0.243 -0.2181  0.5756 -0.3927
  223MOL0     C30659   6.144   0.382   0.091 -0.3229  0.6317  1.0507
  223MOL0     O30660   6.166   0.252   0.026  0.1861 -0.2310 -0.1655
  223MOL0     C30661   6.050   0.191   0.004  0.0273 -0.4014 -0.2187
  223MOL0     C30662   5.958   0.241  -0.095 -0.0102 -0.3786 -0.2409
  223MOL0     C30663   5.833   0.179  -0.121  0.3996  0.9205 -0.7311
  223MOL0     C30664   5.730   0.254  -0.204 -0.2882 -0.2881 -0.2773
  223MOL0     C30665   5.811   0.046  -0.057  0.3783 -0.6948  0.5501
  223MOL0     C30666   5.696  -0.041  -0.085  0.5462 -0.3991  0.3106
  223MOL0     O30667   5.655  -0.122   0.016  0.0087 -0.1629 -0.0663
  223MOL0     C30668   5.525  -0.176   0.028 -0.8707 -0.2265 -0.4171
  223MOL0     C30669   5.429  -0.123   0.122 -1.0720  0.0080  0.2631
  223MOL0     C30670   5.299  -0.166   0.126  0.7712 -0.2348 -1.0380
  223MOL0     C30671   5.264  -0.277   0.042  0.8081  0.1104  0.6547
  223MOL0     O30672   5.133  -0.323   0.020  0.1571 -0.4016  0.0743
  223MOL0     C30673   5.037  -0.269   0.111 -0.4706  0.5469  0.4079
  223MOL0     C30674   4.902  -0.334   0.091  0.2154 -0.6744 -1.0748
  223MOL0     C30675   4.854  -0.292  -0.051  0.2113 -0.3816 -0.2011
  223MOL0     C30676   4.709  -0.349  -0.071  0.0783 -0.0653 -0.2349
  223MOL0     C30677   4.597  -0.271   0.012 -0.5035 -0.5111 -0.1861
  223MOL0     C30678   4.448  -0.312  -0.005  0.2578  0.1407  0.2971
  223MOL0     C30679   4.356  -0.243   0.101  0.5085  0.5361  0.3643
  223MOL0     C30680   4.244  -0.339   0.150 -0.3330  0.4133  0.1957
  223MOL0    Cl30681   4.121  -0.374   0.015 -0.0024  0.0276 -0.3028
  223MOL0     C30682   5.358  -0.336  -0.040 -0.6223  0.8485  0.1013
  223MOL0     C30683   5.487  -0.287  -0.050  0.4361 -0.0660  0.1885
  223MOL0     O30684   5.635  -0.035  -0.191 -0.0815 -0.1510  0.3407
  223MOL0     C30685   5.912  -0.005   0.035 -0.6443  0.1622  0.1411
  223MOL0     C30686   6.020   0.079   0.068 -0.3381 -0.2092  0.1526
  223MOL0     N30687   6.596   0.489   0.360 -0.4001 -0.4828  0.7111
  223MOL0     N30688   6.626   0.617   0.384 -0.0045 -0.4509 -0.3648
  223MOL0     C30689   6.485   1.934   0.341 -0.1316 -0.1073  0.2620
  223MOL0     C30690   6.555   2.056   0.322 -0.5749  1.0494 -0.1524
  223MOL0     C30691   6.776   2.404   0.385 -0.5833  0.1243 -1.2426
  223MOL0     C30692   6.866   2.477   0.468 -0.5659  0.9806 -0.4446
  223MOL0     C30693   6.881   2.613   0.473  0.6670  0.6578  0.4645
  223MOL0     C30694   6.806   2.685   0.384 -0.7189 -0.6588 -0.0402
  223MOL0     O30695   6.830   2.820   0.363 -0.0960 -0.2271 -0.2649
  223MOL0     C30696   6.883   2.894   0.479  0.8186 -0.4946 -0.2521
  223MOL0     C30697   6.873   3.043   0.450  0.4002  0.5144 -0.6027
  223MOL0     C30698   6.997   3.076   0.368  0.2444  0.2417  0.6325
  223MOL0     C30699   6.997   3.219   0.331  0.1851  0.2196  0.3199
  223MOL0     C30700   7.042   3.302   0.451 -0.0711 -0.4198  1.4421
  223MOL0     C30701   7.096   3.375   0.532  0.8244  0.2167  0.5410
  223MOL0     C30702   6.711   2.622   0.298 -0.1439  0.5721 -0.0255
  223MOL0     C30703   6.698   2.479   0.295  0.0676 -0.4133  0.6325
  223MOL0     C30704   6.603   2.426   0.192 -0.1260 -0.8845 -0.1570
  223MOL0     H30705   6.861   1.949   0.255  0.9390 -1.8981 -0.0312
  223MOL0     H30706   6.753   1.727   0.264 -1.2368 -1.6208  0.9889
  223MOL0     H30707   6.623   1.552   0.381 -0.7064  1.8038  0.1353
  223MOL0     H30708   6.585   1.547   0.207 -1.3774 -0.1012 -0.6785
  223MOL0     H30709   6.373   1.477   0.408  2.4213 -1.7563  1.1472
  223MOL0     H30710   6.355   1.495   0.231 -1.1335 -2.1377 -0.8844
  223MOL0     H30711   6.506   1.311   0.190  0.0135  2.2800 -0.9538
  223MOL0     H30712   6.515   1.283   0.370 -0.3422 -1.3546 -0.3392
  223MOL0     H30713   6.257   1.259   0.370  1.8319 -0.7373  2.3385
  223MOL0     H30714   6.272   1.264   0.192  1.3112  0.4783 -0.6920
  223MOL0     H30715   6.419   1.057   0.207 -0.8194 -2.1174  0.0460
  223MOL0     H30716   6.264   1.034   0.265 -0.3749  2.0181 -1.2900
  223MOL0     H30717   6.520   1.072   0.439 -0.5208  0.4292  1.6213
  223MOL0     H30718   6.360   1.055   0.507 -0.0294  0.7245 -1.3816
  223MOL0     H30719   6.345   0.811   0.388  0.8768 -2.6447  0.5304
  223MOL0     H30720   6.462   0.830   0.505 -0.6404  1.4964  1.1152
  223MOL0     H30721   6.511   0.894   0.217  1.0599  2.0871  0.7509
  223MOL0     H30722   6.640   0.887   0.333 -0.4975  1.1970 -1.5119
  223MOL0     H30723   6.377   0.643   0.172 -1.1280 -0.1878  0.6899
  223MOL0     H30724   6.503   0.291   0.194  0.8707  0.5151  2.7475
  223MOL0     H30725   6.407   0.406   0.100 -1.8816  0.1886  0.2369
  223MOL0     H30726   6.307   0.196   0.236  1.1233  0.3348 -0.6584
  223MOL0     H30727   6.335   0.278   0.377  1.3228  0.7874  0.6270
  223MOL0     H30728   6.099   0.303   0.298 -0.8933  1.9129  0.2969
  223MOL0     H30729   6.163   0.466   0.286  1.2114  0.4438  0.1800
  223MOL0     H30730   6.041   0.414   0.071  0.4476  1.0786 -3.0555
  223MOL0     H30731   6.209   0.463   0.056  0.0424  1.2507  3.0414
  223MOL0     H30732   5.977   0.331  -0.152 -0.8658 -0.6672 -1.0169
  223MOL0     H30733   5.742   0.362  -0.207 -2.9497  0.0783 -0.7174
  223MOL0     H30734   5.625   0.235  -0.178 -0.7827  1.4539 -0.8680
  223MOL0     H30735   5.747   0.213  -0.304  1.2978  0.9321 -0.5472
  223MOL0     H30736   5.470  -0.040   0.179  0.6243  0.8126 -1.9505
  223MOL0     H30737   5.220  -0.133   0.193 -1.3378 -3.6298 -1.6427
  223MOL0     H30738   5.078  -0.279   0.211  1.0789  0.7212 -0.1839
  223MOL0     H30739   5.027  -0.160   0.098 -4.2174 -0.0098 -4.3900
  223MOL0     H30740   4.902  -0.443   0.099 -0.3746 -0.5987  0.1657
  223MOL0     H30741   4.839  -0.288   0.167 -0.8763  0.1531 -2.4292
  223MOL0     H30742   4.916  -0.344  -0.125  0.4771  0.8589 -0.8801
  223MOL0     H30743   4.870  -0.187  -0.078  4.5137 -0.4237  1.4801
  223MOL0     H30744   4.708  -0.455  -0.045  0.6050 -0.2713 -1.0247
  223MOL0     H30745   4.691  -0.353  -0.178 -1.2716 -0.1964 -0.0201
  223MOL0     H30746   4.621  -0.295   0.116 -2.1584 -2.5716 -0.2296
  223MOL0     H30747   4.594  -0.164  -0.012 -2.4129 -0.9902 -2.3957
  223MOL0     H30748   4.451  -0.420   0.008 -0.9989 -0.1866 -1.7726
  223MOL0     H30749   4.431  -0.286  -0.110  2.0728  0.3546  0.0185
  223MOL0     H30750   4.300  -0.166   0.048 -3.2059 -2.0329  0.1554
  223MOL0     H30751   4.416  -0.199   0.181  0.5773  0.6198  0.2657
  223MOL0     H30752   4.192  -0.305   0.241 -0.4617 -4.4908  2.2378
  223MOL0     H30753   4.292  -0.434   0.175  4.1157  2.0160 -1.3029
  223MOL0     H30754   5.331  -0.411  -0.114 -1.2346 -0.0087  1.1554
  223MOL0     H30755   5.561  -0.321  -0.122  1.2745  1.5868  0.2232
  223MOL0     H30756   5.900  -0.095   0.095 -2.6660  0.9168  0.9642
  223MOL0     H30757   6.089   0.050   0.147  1.5873  0.0956 -1.3236
  223MOL0     H30758   6.387   1.940   0.386 -0.0582  1.0352  0.2787
  223MOL0     H30759   6.502   2.150   0.336 -0.7759  1.3790 -2.6392
  223MOL0     H30760   6.928   2.417   0.534 -3.0790 -0.1823  0.9989
  223MOL0     H30761   6.952   2.665   0.537  1.4769  0.9481 -0.6402
  223MOL0     H30762   6.826   2.873   0.570  1.0266 -0.6183 -0.1511
  223MOL0     H30763   6.986   2.866   0.501  1.1583  1.2699  0.5737
  223MOL0     H30764   6.882   3.095   0.546  1.1518 -2.6512  1.1744
  223MOL0     H30765   6.785   3.056   0.387 -1.6780 -1.5147  1.6703
  223MOL0     H30766   7.089   3.049   0.420 -0.9839  1.0194  3.3546
  223MOL0     H30767   6.993   3.008   0.282  0.1502 -0.0176  0.8411
  223MOL0     H30768   6.893   3.245   0.309 -0.3476 -1.7725  0.3496
  223MOL0     H30769   7.064   3.235   0.246  1.5777 -2.8804  0.7077
  223MOL0     H30770   7.144   3.432   0.609  1.4491 -2.1474  1.9937
  223MOL0     H30771   6.653   2.687   0.234 -0.2639 -1.2833 -1.9006
  223MOL0     H30772   6.543   2.340   0.223 -1.1474  0.0091  0.4500
  223MOL0     H30773   6.530   2.501   0.160  1.6002  0.8763 -0.1439
  223MOL0     H30774   6.668   2.402   0.108  2.6291  1.1500  1.2184
  224MOL0     O30775   6.152   2.958   7.640  0.1112 -0.2122  0.1402
  224MOL0     C30776   6.069   3.042   7.613  0.4204 -0.0429  0.2171
  224MOL0     O30777   6.091   3.176   7.592 -0.0974 -0.1167 -1.1025
  224MOL0     C30778   6.221   3.220   7.584 -0.1087  0.9961 -0.6327
  224MOL0     C30779   6.316   3.186   7.680 -0.7196  0.0997 -0.3653
  224MOL0     C30780   6.451   3.223   7.655  0.2518 -0.0179 -0.0587
  224MOL0     C30781   6.483   3.302   7.555  0.3253 -0.6460  0.2985
  224MOL0     O30782   6.613   3.359   7.537  0.3754  0.4186  0.2451
  224MOL0     C30783   6.715   3.348   7.635 -0.3206  0.1560 -0.5254
  224MOL0     C30784   6.845   3.415   7.592  0.1072  0.1660 -0.8819
  224MOL0     C30785   6.948   3.422   7.704 -0.8731  0.2111 -0.6782
  224MOL0     C30786   7.016   3.286   7.725  0.1231  0.4098 -0.0296
  224MOL0     C30787   7.145   3.290   7.803 -0.2656  0.1188 -0.2603
  224MOL0     C30788   7.199   3.150   7.841  0.3102 -0.4957  0.2373
  224MOL0     C30789   7.348   3.148   7.901  0.8189  0.3794  0.4552
  224MOL0     C30790   7.380   3.005   7.967  0.2936  0.2412  0.5073
  224MOL0     N30791   7.509   3.022   8.023  0.3799  0.4919  0.0842
  224MOL0     C30792   7.628   3.062   7.971 -0.3766 -0.3320  0.3842
  224MOL0     C30793   7.715   3.055   8.076  0.1606  0.5016 -0.2256
  224MOL0     C30794   7.862   3.086   8.079  1.3374 -0.3203  0.1313
  224MOL0     C30795   7.939   2.961   8.111  0.1512  0.0317 -0.3642
  224MOL0     C30796   8.084   3.001   8.115  0.6570 -0.0367  0.5439
  224MOL0     C30797   8.181   2.882   8.091 -0.6033  0.9291  0.5169
  224MOL0     O30798   8.175   2.791   8.195  0.6477  0.1227 -0.1653
  224MOL0     C30799   8.202   2.831   8.319  0.1448  0.0655 -0.7899
  224MOL0     C30800   8.149   2.754   8.416  0.1195 -0.4062 -0.0298
  224MOL0     C30801   8.185   2.777   8.549 -1.0288 -0.1534 -0.6410
  224MOL0     C30802   8.106   2.678   8.638  0.1087 -0.3805 -0.3076
  224MOL0     C30803   8.280   2.880   8.588 -0.0865  0.1818 -0.4335
  224MOL0     C30804   8.324   2.900   8.727 -0.5131 -0.0224 -0.0767
  224MOL0     O30805   8.450   2.957   8.736 -0.0294 -0.0772  0.1979
  224MOL0     C30806   8.509   2.949   8.862  0.5614  0.0184  0.6146
  224MOL0     C30807   8.448   3.002   8.979  0.7490  0.6398  0.2697
  224MOL0     C30808   8.523   3.005   9.097  1.2582  0.6691 -0.2320
  224MOL0     C30809   8.655   2.964   9.106  0.5001  0.0993  0.7786
  224MOL0     O30810   8.734   2.964   9.219 -0.0545  0.5402  0.0692
  224MOL0     C30811   8.712   3.074   9.316 -0.2018 -0.0918 -0.1301
  224MOL0     C30812   8.728   3.213   9.255 -0.5162 -1.0467  0.3320
  224MOL0     C30813   8.737   3.325   9.358 -0.1481 -0.7401  0.1003
  224MOL0     C30814   8.601   3.392   9.384  0.1585 -0.6349 -0.3505
  224MOL0     C30815   8.596   3.464   9.521  0.4503  0.2316  0.0409
  224MOL0     C30816   8.443   3.492   9.548  0.0674  0.6577 -0.1328
  224MOL0     C30817   8.418   3.566   9.671 -0.5366 -0.6428 -0.1728
  224MOL0     C30818   8.268   3.566   9.692 -0.1801  0.2773 -0.6352
  224MOL0    Cl30819   8.219   3.664   9.823  0.4722 -0.1309 -0.0996
  224MOL0     C30820   8.714   2.919   8.984  0.2860 -0.5953  0.4718
  224MOL0     C30821   8.636   2.909   8.871  0.0371  0.7863 -0.3536
  224MOL0     O30822   8.255   2.871   8.819  0.3470  0.6864 -0.4354
  224MOL0     C30823   8.331   2.957   8.480  0.8444  0.2718 -0.4122
  224MOL0     C30824   8.285   2.937   8.352 -0.5059  0.6137 -0.2108
  224MOL0     N30825   7.650   3.022   8.191 -0.8790 -0.3570  0.1653
  224MOL0     N30826   7.525   2.999   8.158  0.2289 -0.1993 -0.2692
  224MOL0     C30827   6.391   3.344   7.466 -0.0911 -0.2530 -0.2073
  224MOL0     C30828   6.263   3.297   7.473 -0.1089 -0.3261 -0.2958
  224MOL0     C30829   5.926   2.996   7.615  0.5483  0.3337  0.1073
  224MOL0     C30830   5.822   3.086   7.658 -0.3477 -0.4463  0.5002
  224MOL0     C30831   5.695   3.046   7.675  0.5934 -0.5668  0.5510
  224MOL0     C30832   5.655   2.920   7.625 -0.1858  0.0587  0.1578
  224MOL0     O30833   5.521   2.893   7.634  0.9015 -0.1780 -0.3765
  224MOL0     C30834   5.484   2.756   7.638 -0.1042 -0.5204  0.5409
  224MOL0     C30835   5.347   2.743   7.709  0.0698 -0.6406  0.5643
  224MOL0     C30836   5.340   2.608   7.772 -0.0670  0.5526  0.1271
  224MOL0     C30837   5.202   2.558   7.811  0.4978 -0.3484 -0.4611
  224MOL0     C30838   5.117   2.527   7.698  0.0150  0.0906 -0.5345
  224MOL0     C30839   5.045   2.495   7.606  0.5748  0.7455 -0.1530
  224MOL0     C30840   5.746   2.829   7.587  0.7435  0.8018 -0.1889
  224MOL0     C30841   5.882   2.858   7.585 -0.1109 -0.6115  1.0665
  224MOL0     C30842   5.981   2.750   7.552  0.1412 -0.5362 -0.6714
  224MOL0     H30843   6.284   3.131   7.768 -0.6567 -0.1539 -0.5020
  224MOL0     H30844   6.517   3.179   7.728 -1.4797 -1.1344  0.9012
  224MOL0     H30845   6.735   3.246   7.668  1.7961  1.2349  1.8887
  224MOL0     H30846   6.674   3.398   7.724  1.4902 -0.1158  0.5218
  224MOL0     H30847   6.878   3.355   7.507 -1.1577 -2.4034  0.3101
  224MOL0     H30848   6.827   3.519   7.563 -0.0496  0.7769  1.2200
  224MOL0     H30849   7.021   3.497   7.672 -2.5477  2.3898  0.3426
  224MOL0     H30850   6.905   3.465   7.795 -1.2987 -1.1302 -0.2230
  224MOL0     H30851   6.945   3.224   7.780  1.2537  0.6941  1.8551
  224MOL0     H30852   7.025   3.234   7.629  1.4652 -0.1378  0.3722
  224MOL0     H30853   7.133   3.348   7.895 -1.9787  0.1804 -0.4985
  224MOL0     H30854   7.223   3.339   7.742  0.5997 -1.5096 -0.5123
  224MOL0     H30855   7.139   3.109   7.923 -0.4480  0.4552  0.1787
  224MOL0     H30856   7.182   3.083   7.756 -0.8469  0.0692 -0.0074
  224MOL0     H30857   7.372   3.224   7.976  1.8362  2.8616 -2.1948
  224MOL0     H30858   7.410   3.180   7.817  0.3505  2.0113  0.6946
  224MOL0     H30859   7.307   2.982   8.045  2.5697 -4.4131  1.6345
  224MOL0     H30860   7.381   2.918   7.901  0.9383  0.6955 -0.0947
  224MOL0     H30861   7.656   3.093   7.871 -0.3794 -1.3087  0.0740
  224MOL0     H30862   7.881   3.159   8.158  1.9238 -0.3690  0.0429
  224MOL0     H30863   7.881   3.129   7.980 -2.6172 -2.6276 -1.8812
  224MOL0     H30864   7.906   2.924   8.209 -0.1602  1.3055  0.0321
  224MOL0     H30865   7.918   2.882   8.039 -0.9242  0.3481 -0.4118
  224MOL0     H30866   8.098   3.070   8.032  1.1689  1.3192  1.7161
  224MOL0     H30867   8.106   3.063   8.202 -2.8970  0.8757  0.9610
  224MOL0     H30868   8.145   2.829   8.002 -0.4495  2.0833 -0.2559
  224MOL0     H30869   8.283   2.912   8.065  0.0426  0.8439  2.7671
  224MOL0     H30870   8.082   2.671   8.397 -0.1432 -0.9007  2.5746
  224MOL0     H30871   8.012   2.721   8.675  0.3030  0.0150 -0.2789
  224MOL0     H30872   8.162   2.670   8.732 -0.9005 -0.1599  0.3301
  224MOL0     H30873   8.084   2.575   8.606 -3.7171  0.0132  0.5887
  224MOL0     H30874   8.344   3.032   8.974 -0.4121 -2.3574  2.9156
  224MOL0     H30875   8.482   3.035   9.193  1.0695 -1.8229  0.5628
  224MOL0     H30876   8.616   3.056   9.366 -0.7182 -2.5845 -1.8132
  224MOL0     H30877   8.789   3.067   9.393 -2.0525 -2.0846  1.6593
  224MOL0     H30878   8.816   3.210   9.190 -0.7125  1.4975 -0.1376
  224MOL0     H30879   8.643   3.241   9.191  1.2230  3.3797 -0.3896
  224MOL0     H30880   8.811   3.403   9.336 -0.2196  0.0219  2.3163
  224MOL0     H30881   8.767   3.285   9.455 -3.4141 -1.0535  1.1213
  224MOL0     H30882   8.531   3.309   9.386  1.4467 -1.7422  0.7121
  224MOL0     H30883   8.562   3.469   9.316 -0.6053 -0.1552  0.6038
  224MOL0     H30884   8.637   3.407   9.605  0.2915  1.1694  0.7767
  224MOL0     H30885   8.643   3.563   9.520 -2.1450  1.6664 -3.7267
  224MOL0     H30886   8.405   3.391   9.568  0.1617  0.6424 -0.0278
  224MOL0     H30887   8.386   3.536   9.466 -0.6322  1.6233  0.8412
  224MOL0     H30888   8.463   3.665   9.670  0.5076 -1.0412  1.8385
  224MOL0     H30889   8.466   3.519   9.757 -1.8634  1.3382  1.7792
  224MOL0     H30890   8.232   3.463   9.706  1.6306 -0.1614  1.2089
  224MOL0     H30891   8.215   3.602   9.604 -1.9611  0.2945  0.4069
  224MOL0     H30892   8.813   2.876   8.984  0.6502  0.1646 -1.4875
  224MOL0     H30893   8.686   2.854   8.792 -2.4805  1.8034 -2.8127
  224MOL0     H30894   8.408   3.029   8.504 -0.3774  1.1126  1.1745
  224MOL0     H30895   8.319   3.012   8.282  1.6968  1.6351  1.8018
  224MOL0     H30896   6.430   3.414   7.392 -0.0586 -1.1418 -1.0514
  224MOL0     H30897   6.180   3.320   7.408 -0.9085 -1.2555  0.3618
  224MOL0     H30898   5.856   3.178   7.703  2.2043 -0.4579 -1.2397
  224MOL0     H30899   5.623   3.113   7.721  0.2479 -2.3946  2.8935
  224MOL0     H30900   5.469   2.717   7.537  1.9934 -2.2547  0.8438
  224MOL0     H30901   5.555   2.688   7.686 -1.5579 -1.7662  1.0084
  224MOL0     H30902   5.278   2.761   7.626  0.7624  1.7291  0.4179
  224MOL0     H30903   5.346   2.817   7.790  2.0543  0.8610 -0.6683
  224MOL0     H30904   5.390   2.533   7.709  0.8590  2.3147 -1.3128
  224MOL0     H30905   5.397   2.609   7.866 -0.3811  2.0716  0.3184
  224MOL0     H30906   5.156   2.635   7.872  2.0863  1.6456 -1.6589
  224MOL0     H30907   5.201   2.476   7.884 -4.5213 -0.2153 -0.0861
  224MOL0     H30908   4.968   2.482   7.532 -0.8438  0.2815  1.3277
  224MOL0     H30909   5.716   2.732   7.548 -0.6374 -0.5160  3.7109
  224MOL0     H30910   5.947   2.680   7.474 -1.9505 -1.0458  0.5912
  224MOL0     H30911   6.074   2.787   7.508  1.2173  0.0483  1.9256
  224MOL0     H30912   6.007   2.691   7.641 -1.6645  0.8369  0.8593
  225MOL0     O30913   4.790   3.187   9.523  0.1582 -0.2265 -0.2913
  225MOL0     C30914   4.777   3.298   9.481  0.0044  0.0702  0.2051
  225MOL0     O30915   4.881   3.381   9.448 -0.4254 -0.1709  0.8789
  225MOL0     C30916   5.010   3.341   9.458 -0.1445  0.0022 -0.9076
  225MOL0     C30917   5.090   3.357   9.575 -0.0763  1.2718 -0.0935
  225MOL0     C30918   5.225   3.326   9.566 -0.0756 -0.2174 -0.0042
  225MOL0     C30919   5.289   3.278   9.454  0.9852  0.4269  0.7200
  225MOL0     O30920   5.409   3.229   9.472 -0.6234  0.1340  0.0018
  225MOL0     C30921   5.488   3.174   9.363 -0.0297 -0.4149  0.2215
  225MOL0     C30922   5.633   3.225   9.376  0.3354  0.5111 -0.6869
  225MOL0     C30923   5.701   3.218   9.512 -0.3587  1.2465 -0.0035
  225MOL0     C30924   5.738   3.069   9.543  0.2120  0.1217 -0.7172
  225MOL0     C30925   5.825   3.049   9.664  1.3376 -0.0123 -0.3546
  225MOL0     C30926   5.751   3.069   9.796  0.0939  0.4694  0.3490
  225MOL0     C30927   5.844   3.101   9.925 -1.1229 -0.4359 -0.6281
  225MOL0     C30928   5.769   3.118  10.064  0.0059  1.5697 -0.4247
  225MOL0     N30929   5.721   2.978  10.105  0.6962 -0.6379  0.5106
  225MOL0     C30930   5.586   2.946  10.095  0.6384 -0.3566  0.3210
  225MOL0     C30931   5.582   2.817  10.130 -0.2792  0.3537 -0.4559
  225MOL0     C30932   5.460   2.726  10.148 -0.5957  0.4630  0.1039
  225MOL0     C30933   5.397   2.750  10.287  0.6524  0.5028 -0.0900
  225MOL0     C30934   5.479   2.738  10.418 -0.1666  0.4198 -0.3118
  225MOL0     C30935   5.405   2.780  10.549 -0.1714  0.0982  0.3976
  225MOL0     O30936   5.352   2.909  10.541  0.0822  0.0623 -0.0136
  225MOL0     C30937   5.346   2.980  10.665 -0.0433 -0.1492 -1.1602
  225MOL0     C30938   5.363   2.923  10.794  0.3635 -0.3376 -0.2108
  225MOL0     C30939   5.325   2.989  10.912 -0.7728 -0.4699 -0.0733
  225MOL0     C30940   5.334   2.917  11.051 -0.1862  0.1504 -0.8644
  225MOL0     C30941   5.272   3.121  10.896 -0.1846 -0.9699 -0.6789
  225MOL0     C30942   5.239   3.205  11.014 -0.0283  0.7764 -1.0439
  225MOL0     O30943   5.130   3.278  10.996 -0.2307 -0.4049  0.4738
  225MOL0     C30944   5.099   3.372  11.092  0.3569 -0.0827 -0.0108
  225MOL0     C30945   5.153   3.502  11.088 -0.4023  0.5313  0.3817
  225MOL0     C30946   5.091   3.609  11.155  0.5785  0.2626  0.0513
  225MOL0     C30947   4.983   3.584  11.243  0.2557  0.1911 -0.1334
  225MOL0     O30948   4.919   3.681  11.315 -0.2790  0.4535  0.5520
  225MOL0     C30949   4.986   3.804  11.333  0.1542 -0.4848 -0.6851
  225MOL0     C30950   4.881   3.900  11.385 -0.7135 -0.7321  0.1762
  225MOL0     C30951   4.935   4.044  11.384 -0.3171  0.2017 -0.6527
  225MOL0     C30952   4.818   4.137  11.435  0.0003  0.3192  0.2226
  225MOL0     C30953   4.857   4.283  11.435  0.2748 -0.2093  1.2568
  225MOL0     C30954   4.977   4.343  11.512  0.4391  0.9051 -0.4497
  225MOL0     C30955   4.952   4.471  11.588 -1.2114  0.7557 -0.5260
  225MOL0     C30956   5.059   4.519  11.678  0.4515 -0.3763  0.0833
  225MOL0    Cl30957   5.208   4.524  11.573  0.1511 -0.5016  0.5686
  225MOL0     C30958   4.931   3.446  11.242  0.3360 -0.2847  0.0589
  225MOL0     C30959   4.988   3.344  11.169  0.2347 -0.0510 -0.9322
  225MOL0     O30960   5.304   3.195  11.124  0.2812  0.3823  0.2675
  225MOL0     C30961   5.262   3.186  10.767 -0.4948  1.0335 -0.6468
  225MOL0     C30962   5.289   3.114  10.652  0.0228 -0.5686  0.4294
  225MOL0     N30963   5.708   2.778  10.153  0.6010  0.2693 -0.1144
  225MOL0     N30964   5.794   2.874  10.134 -0.2021 -0.1670  0.0458
  225MOL0     C30965   5.197   3.258   9.341  0.8354 -0.4839  0.2443
  225MOL0     C30966   5.063   3.294   9.340  0.3773 -0.1675 -0.3086
  225MOL0     C30967   4.638   3.336   9.460 -0.7024  0.1069 -0.4732
  225MOL0     C30968   4.624   3.476   9.448 -0.0964 -0.2522  0.3774
  225MOL0     C30969   4.500   3.543   9.447 -1.1376  0.0031  0.6758
  225MOL0     C30970   4.382   3.462   9.455  0.6232 -0.1885 -0.5634
  225MOL0     O30971   4.250   3.509   9.456 -0.1449  0.0128  0.0126
  225MOL0     C30972   4.234   3.639   9.383  0.2710  0.2884 -0.7039
  225MOL0     C30973   4.090   3.682   9.386  0.3543  0.3501 -0.3772
  225MOL0     C30974   4.072   3.826   9.336 -0.0108  0.1253 -0.6185
  225MOL0     C30975   3.932   3.881   9.345  0.6877  0.1532 -0.0318
  225MOL0     C30976   3.855   3.791   9.260 -0.2713  0.0346 -0.2296
  225MOL0     C30977   3.788   3.722   9.182  0.9788  0.7224 -0.5421
  225MOL0     C30978   4.397   3.320   9.460  0.2801 -0.3639 -0.6078
  225MOL0     C30979   4.524   3.258   9.465  0.0009 -0.9096 -0.4068
  225MOL0     C30980   4.529   3.106   9.474 -0.0909 -0.6901 -0.0664
  225MOL0     H30981   5.047   3.381   9.671  0.9538  0.5722  0.5648
  225MOL0     H30982   5.285   3.318   9.655 -0.3942  2.0381  0.4820
  225MOL0     H30983   5.449   3.201   9.264 -1.1721 -0.6490  0.5960
  225MOL0     H30984   5.487   3.064   9.368  0.7570 -0.3613  1.9994
  225MOL0     H30985   5.695   3.177   9.299  0.7961 -0.5134  0.2967
  225MOL0     H30986   5.634   3.331   9.350 -0.0359  0.9327  0.8988
  225MOL0     H30987   5.784   3.287   9.523  1.8119 -1.2359  0.1603
  225MOL0     H30988   5.626   3.249   9.586 -1.4374 -0.5263 -0.2895
  225MOL0     H30989   5.636   3.032   9.555 -0.7284  2.8762  0.8512
  225MOL0     H30990   5.788   3.024   9.457 -1.5318 -0.3017 -1.5474
  225MOL0     H30991   5.902   3.127   9.668  1.1641  0.2407 -1.6280
  225MOL0     H30992   5.871   2.950   9.658 -1.1199 -1.1342 -3.2985
  225MOL0     H30993   5.683   3.151   9.773 -1.7986 -1.1783 -0.3024
  225MOL0     H30994   5.694   2.977   9.815  2.8736 -0.8769  3.0168
  225MOL0     H30995   5.882   3.201   9.901 -2.8154  0.1013 -1.2222
  225MOL0     H30996   5.930   3.034   9.931  0.9043  2.1001  0.5899
  225MOL0     H30997   5.842   3.148  10.139 -0.6756  0.2042  0.8290
  225MOL0     H30998   5.687   3.191  10.058 -0.1352  1.7744  2.5302
  225MOL0     H30999   5.509   3.013  10.059  1.0563 -0.2102 -0.3138
  225MOL0     H31000   5.500   2.624  10.150  0.6557  0.9178  2.8906
  225MOL0     H31001   5.381   2.729  10.072 -1.8019 -2.6215  1.1087
  225MOL0     H31002   5.353   2.850  10.286  0.8883  0.6299  0.9520
  225MOL0     H31003   5.316   2.678  10.300  0.4363  1.1792  3.0117
  225MOL0     H31004   5.514   2.635  10.431 -0.3869  0.4869  0.9424
  225MOL0     H31005   5.561   2.809  10.402  1.0872 -0.7137  0.7646
  225MOL0     H31006   5.326   2.709  10.575  0.2068 -0.7928 -0.8247
  225MOL0     H31007   5.482   2.778  10.627 -0.1293  0.4011  0.3688
  225MOL0     H31008   5.409   2.824  10.795  2.0578  0.4005 -0.5484
  225MOL0     H31009   5.336   2.807  11.050 -1.1970 -0.0021  2.6834
  225MOL0     H31010   5.249   2.948  11.112 -1.4436 -0.0531 -2.4455
  225MOL0     H31011   5.426   2.939  11.105 -0.3034  0.8059 -0.9245
  225MOL0     H31012   5.243   3.525  11.033 -0.3999  0.1324  0.2172
  225MOL0     H31013   5.146   3.702  11.140  4.0021 -1.1906  2.5286
  225MOL0     H31014   5.066   3.802  11.407 -0.6227  2.7825  0.3927
  225MOL0     H31015   5.025   3.845  11.239  0.4276 -0.5860 -0.6160
  225MOL0     H31016   4.787   3.900  11.330 -2.1892 -1.6013  2.5596
  225MOL0     H31017   4.862   3.876  11.490  3.0325  0.7391  1.3781
  225MOL0     H31018   4.975   4.080  11.289 -0.4861  3.7526  0.4655
  225MOL0     H31019   5.015   4.048  11.458 -0.8869 -1.2312  0.0941
  225MOL0     H31020   4.794   4.113  11.539 -2.0085 -0.8163 -0.4593
  225MOL0     H31021   4.733   4.128  11.368  1.5615  0.6087 -1.8817
  225MOL0     H31022   4.874   4.312  11.331  1.6982 -0.7206  1.3261
  225MOL0     H31023   4.765   4.326  11.474  1.0035  0.4788  2.2993
  225MOL0     H31024   5.058   4.356  11.441  2.3603 -0.8578  1.2952
  225MOL0     H31025   5.007   4.265  11.582  1.5947  2.3974  0.7996
  225MOL0     H31026   4.859   4.449  11.642 -0.8771  1.3713  0.3404
  225MOL0     H31027   4.922   4.546  11.514 -2.3657 -0.1818 -1.0305
  225MOL0     H31028   5.093   4.457  11.761  1.9075  0.0320 -0.1808
  225MOL0     H31029   5.026   4.613  11.723 -0.1928 -1.4768  2.0522
  225MOL0     H31030   4.854   3.417  11.313  0.0756 -0.4251 -0.2801
  225MOL0     H31031   4.942   3.246  11.160  2.1595 -0.8905 -2.4429
  225MOL0     H31032   5.237   3.292  10.770  1.5140  1.5422 -0.8909
  225MOL0     H31033   5.269   3.159  10.555  1.8609  1.4941  0.9326
  225MOL0     H31034   5.228   3.219   9.245 -1.1098  0.5889 -0.8681
  225MOL0     H31035   5.003   3.298   9.249 -1.2433  0.7528  0.7645
  225MOL0     H31036   4.713   3.537   9.441 -0.5931  0.3686 -0.6834
  225MOL0     H31037   4.504   3.651   9.448  0.9418 -0.0458  0.5690
  225MOL0     H31038   4.298   3.713   9.432 -0.0225  0.1823 -0.1497
  225MOL0     H31039   4.283   3.629   9.286  2.3104 -3.0172  0.4608
  225MOL0     H31040   4.036   3.668   9.480 -0.7364 -2.2457 -1.2782
  225MOL0     H31041   4.034   3.620   9.315 -0.2360 -0.7924  1.0377
  225MOL0     H31042   4.128   3.892   9.403 -1.7486  1.2693 -0.2206
  225MOL0     H31043   4.100   3.839   9.231 -0.6772 -2.2503 -1.1411
  225MOL0     H31044   3.928   3.984   9.307 -0.6650  1.1207  2.4662
  225MOL0     H31045   3.882   3.881   9.442 -2.9266 -0.2687 -1.7410
  225MOL0     H31046   3.736   3.663   9.110  1.3183  0.7652 -0.8230
  225MOL0     H31047   4.313   3.256   9.484  0.7446 -0.8856 -0.3744
  225MOL0     H31048   4.597   3.068   9.397  1.1194  1.7061 -0.2945
  225MOL0     H31049   4.563   3.069   9.571 -0.8552 -1.6254 -0.1373
  225MOL0     H31050   4.429   3.064   9.459 -0.5597  0.3476  0.0642
  226MOL0     O31051   3.412   4.407  10.434  0.3185 -0.3385  0.1051
  226MOL0     C31052   3.304   4.405  10.372  0.0462  0.3890  0.2710
  226MOL0     O31053   3.303   4.373  10.237  0.7108 -0.2392 -0.0505
  226MOL0     C31054   3.419   4.388  10.160  0.6113  0.5051  0.0429
  226MOL0     C31055   3.505   4.502  10.182  0.9123  0.3945 -0.6230
  226MOL0     C31056   3.622   4.509  10.108  0.4352  0.1154  0.4117
  226MOL0     C31057   3.649   4.428   9.997 -0.2294 -0.3749 -1.2173
  226MOL0     O31058   3.754   4.468   9.923  0.4377  0.0674  0.1404
  226MOL0     C31059   3.846   4.360   9.885  0.5665  1.1926  0.7495
  226MOL0     C31060   3.986   4.415   9.856  0.3028 -0.8108 -0.3696
  226MOL0     C31061   4.041   4.458   9.991 -0.0757 -0.6433  0.0665
  226MOL0     C31062   4.189   4.478   9.988 -0.0680  0.6388 -0.0447
  226MOL0     C31063   4.230   4.507  10.133 -0.2496  0.0014  0.2865
  226MOL0     C31064   4.379   4.535  10.144 -0.5947 -1.2972 -0.4768
  226MOL0     C31065   4.417   4.563  10.289  0.0301  1.1901 -0.6948
  226MOL0     C31066   4.566   4.587  10.307 -0.0698  0.4118  0.5625
  226MOL0     N31067   4.615   4.692  10.226  0.2382  0.2804  0.9663
  226MOL0     C31068   4.719   4.677  10.142  0.3630 -0.1019  0.4409
  226MOL0     C31069   4.758   4.803  10.111  0.5071 -0.4006  0.1754
  226MOL0     C31070   4.860   4.836  10.010 -1.7154  0.4133 -0.9192
  226MOL0     C31071   4.794   4.850   9.872 -0.1810  0.0856 -0.3927
  226MOL0     C31072   4.903   4.914   9.778  1.4455  0.5334  0.2226
  226MOL0     C31073   5.028   4.828   9.739  0.4789 -0.6133 -0.3996
  226MOL0     O31074   5.133   4.807   9.843  0.2021 -0.2392 -0.2031
  226MOL0     C31075   5.241   4.884   9.826  0.8507 -0.5864 -0.6438
  226MOL0     C31076   5.248   5.020   9.877 -0.3726 -0.0067 -0.0048
  226MOL0     C31077   5.361   5.102   9.850  0.2241 -0.0004  0.1538
  226MOL0     C31078   5.355   5.247   9.918  0.6409  0.6679  0.3880
  226MOL0     C31079   5.475   5.046   9.787 -0.3659  0.0738 -0.8336
  226MOL0     C31080   5.589   5.141   9.756  0.0092  0.0661  0.7077
  226MOL0     O31081   5.716   5.089   9.759 -0.0379 -0.6242 -0.1890
  226MOL0     C31082   5.812   5.169   9.695  1.0263 -0.9517  0.2633
  226MOL0     C31083   5.882   5.267   9.769 -0.6609 -0.8690  0.4545
  226MOL0     C31084   5.979   5.353   9.707  0.7769 -0.1242  0.5796
  226MOL0     C31085   5.996   5.348   9.559  0.8234  0.1714 -0.6253
  226MOL0     O31086   6.071   5.444   9.500 -0.4680 -0.1221 -0.1574
  226MOL0     C31087   6.089   5.437   9.356  0.4114 -0.1820 -0.4399
  226MOL0     C31088   6.190   5.528   9.305  0.9864 -0.0922  0.7267
  226MOL0     C31089   6.326   5.509   9.374  0.4665 -0.0426 -0.2037
  226MOL0     C31090   6.427   5.593   9.303 -0.3686  0.4434 -0.7692
  226MOL0     C31091   6.558   5.576   9.370  0.2171  1.0387 -0.1465
  226MOL0     C31092   6.673   5.630   9.291 -0.4745 -0.1638 -0.2319
  226MOL0     C31093   6.801   5.614   9.361  0.6565 -0.0100 -0.3834
  226MOL0     C31094   6.917   5.651   9.275  1.1334 -1.0806  0.2950
  226MOL0    Cl31095   7.068   5.640   9.374  0.0732 -0.1607 -0.1984
  226MOL0     C31096   5.908   5.263   9.490  0.4428  0.2525 -1.0634
  226MOL0     C31097   5.823   5.165   9.556 -1.1217  0.0105 -0.5534
  226MOL0     O31098   5.561   5.258   9.719 -0.7922 -0.5217 -0.3014
  226MOL0     C31099   5.470   4.912   9.750  0.5604 -0.0915  0.4550
  226MOL0     C31100   5.350   4.835   9.758  0.4112  0.7170 -0.1250
  226MOL0     N31101   4.671   4.890  10.179 -0.4400  0.7981  0.1055
  226MOL0     N31102   4.589   4.818  10.248  0.3524 -0.6852  0.9842
  226MOL0     C31103   3.564   4.321   9.970 -0.5082  0.3040 -1.1846
  226MOL0     C31104   3.454   4.298  10.047  0.7348 -1.0576 -0.1052
  226MOL0     C31105   3.183   4.434  10.452 -0.4218  0.0371  0.1722
  226MOL0     C31106   3.057   4.431  10.390 -0.0907  0.2591  0.1753
  226MOL0     C31107   2.944   4.473  10.453  0.2533  0.5437  0.3115
  226MOL0     C31108   2.946   4.495  10.595 -0.0788 -0.2841  0.7424
  226MOL0     O31109   2.837   4.515  10.675  0.0588  0.3400 -0.7218
  226MOL0     C31110   2.713   4.553  10.601  0.1172 -0.9661  0.1444
  226MOL0     C31111   2.593   4.568  10.701  0.9459 -0.0929  0.2644
  226MOL0     C31112   2.554   4.444  10.788 -0.2767  0.2627 -0.3209
  226MOL0     C31113   2.544   4.313  10.697 -1.1695 -1.1763 -0.5804
  226MOL0     C31114   2.494   4.200  10.770 -0.2341 -0.7723  0.1495
  226MOL0     C31115   2.465   4.101  10.829 -0.1330  0.0889 -0.5427
  226MOL0     C31116   3.064   4.489  10.659 -0.2928  0.3614  0.1255
  226MOL0     C31117   3.181   4.463  10.587  0.0020  0.6517 -0.4798
  226MOL0     C31118   3.303   4.459  10.674 -0.2855  0.0301 -0.3571
  226MOL0     H31119   3.481   4.572  10.262  0.7370 -0.8773  0.4675
  226MOL0     H31120   3.694   4.586  10.135 -0.4515  0.9731  0.3983
  226MOL0     H31121   3.818   4.298   9.799  0.9138 -1.3579  2.3685
  226MOL0     H31122   3.864   4.293   9.970 -0.5874 -0.6917 -0.4226
  226MOL0     H31123   4.063   4.349   9.816  1.6965 -0.0290  0.9511
  226MOL0     H31124   3.990   4.502   9.790  0.9125  0.4148  1.2269
  226MOL0     H31125   3.993   4.553  10.017 -1.0933 -1.4687  1.3396
  226MOL0     H31126   4.019   4.377  10.061 -0.9463 -0.6050 -0.1508
  226MOL0     H31127   4.234   4.385   9.952  2.5417  1.8328 -0.1042
  226MOL0     H31128   4.237   4.556   9.928  1.2977  0.1646  0.3895
  226MOL0     H31129   4.214   4.416  10.190  1.3011 -0.4807  0.0012
  226MOL0     H31130   4.184   4.587  10.191  1.9964  0.3246  1.7609
  226MOL0     H31131   4.436   4.447  10.114 -1.8519 -2.2560 -0.1233
  226MOL0     H31132   4.407   4.631  10.099 -0.2083 -1.0372  0.2858
  226MOL0     H31133   4.384   4.482  10.355  0.8445  0.1322 -1.5373
  226MOL0     H31134   4.366   4.653  10.323 -1.4052 -0.6140  2.3812
  226MOL0     H31135   4.583   4.612  10.413  2.1568  0.9036  0.1348
  226MOL0     H31136   4.631   4.500  10.297  0.2963  0.6090  1.1477
  226MOL0     H31137   4.746   4.580  10.101 -1.8030 -1.0963  1.2307
  226MOL0     H31138   4.933   4.755   9.998  0.3570  2.3892 -2.5952
  226MOL0     H31139   4.920   4.927  10.019  2.4617 -2.1560 -0.2565
  226MOL0     H31140   4.761   4.750   9.843  3.8883 -1.5307 -0.0863
  226MOL0     H31141   4.708   4.918   9.877  1.2672  2.2479 -2.8168
  226MOL0     H31142   4.848   4.909   9.684  0.2321  0.1570  0.9202
  226MOL0     H31143   4.931   5.015   9.808  2.3789  0.3833 -0.1152
  226MOL0     H31144   4.990   4.731   9.707  0.5235 -0.0862 -2.1971
  226MOL0     H31145   5.073   4.856   9.643 -1.7604 -0.1272 -1.3833
  226MOL0     H31146   5.163   5.064   9.928  1.3049  1.1279  1.9617
  226MOL0     H31147   5.352   5.321   9.837 -1.3947 -0.8453 -1.0391
  226MOL0     H31148   5.448   5.254   9.975 -0.8757  3.4580  2.7959
  226MOL0     H31149   5.273   5.258   9.989  0.3383  0.6435  0.0493
  226MOL0     H31150   5.871   5.262   9.877 -0.7623  0.5760  0.5254
  226MOL0     H31151   6.027   5.439   9.752 -0.3152  1.3804 -1.0234
  226MOL0     H31152   6.121   5.335   9.331 -1.5941 -1.8623  3.0215
  226MOL0     H31153   5.992   5.453   9.308  0.7783 -0.3597 -1.2496
  226MOL0     H31154   6.211   5.516   9.198  4.2969  1.0441  1.1317
  226MOL0     H31155   6.152   5.630   9.318  0.2591  0.3641 -3.4272
  226MOL0     H31156   6.352   5.403   9.381 -2.0060 -0.6552  1.0565
  226MOL0     H31157   6.319   5.537   9.480  1.4118 -2.8647  0.6936
  226MOL0     H31158   6.398   5.699   9.311  2.5524  1.4233 -1.6341
  226MOL0     H31159   6.435   5.566   9.198 -0.3263 -1.7605 -0.2301
  226MOL0     H31160   6.559   5.635   9.462  1.4459  0.7221  0.0607
  226MOL0     H31161   6.577   5.477   9.411 -0.0221  0.9663 -0.2123
  226MOL0     H31162   6.669   5.739   9.281 -0.8984 -0.2371 -0.9982
  226MOL0     H31163   6.675   5.586   9.190  0.3429  0.3877 -0.4671
  226MOL0     H31164   6.811   5.510   9.393 -0.0419  0.1988  0.5342
  226MOL0     H31165   6.800   5.668   9.456  4.0855  0.1946 -0.3380
  226MOL0     H31166   6.903   5.750   9.232 -0.0819 -0.5660  1.7487
  226MOL0     H31167   6.932   5.579   9.194 -0.7550  1.1199 -2.1982
  226MOL0     H31168   5.921   5.254   9.382  1.3636  0.0364 -0.9507
  226MOL0     H31169   5.761   5.100   9.495 -0.9631  0.0791 -0.7896
  226MOL0     H31170   5.552   4.878   9.686 -0.4415 -0.9711 -0.3965
  226MOL0     H31171   5.347   4.735   9.717  0.1458  0.4684  0.4794
  226MOL0     H31172   3.587   4.255   9.886  1.0339  0.2302 -0.7281
  226MOL0     H31173   3.387   4.213  10.035  1.1206 -2.5846  5.5394
  226MOL0     H31174   3.049   4.412  10.284  0.2550 -1.3026  0.4028
  226MOL0     H31175   2.855   4.464  10.393  0.6868 -1.1838 -0.1259
  226MOL0     H31176   2.729   4.648  10.549 -1.9436 -1.4665 -1.5586
  226MOL0     H31177   2.687   4.482  10.521 -0.3607  1.7459 -2.2748
  226MOL0     H31178   2.501   4.592  10.647  2.0085 -1.3551 -2.2633
  226MOL0     H31179   2.618   4.651  10.768 -0.5794 -1.5071  2.7153
  226MOL0     H31180   2.641   4.436  10.855  0.1160 -0.2880 -0.8841
  226MOL0     H31181   2.463   4.456  10.847  0.8093 -2.2162  2.1151
  226MOL0     H31182   2.641   4.286  10.654  0.0569  0.1147  1.2531
  226MOL0     H31183   2.484   4.342  10.610  0.2044 -0.5026 -1.3275
  226MOL0     H31184   2.444   4.010  10.881 -0.1419 -0.3537 -1.3159
  226MOL0     H31185   3.060   4.490  10.768  0.7759 -2.8957  0.2826
  226MOL0     H31186   3.290   4.484  10.779  0.1792 -0.5719 -0.1462
  226MOL0     H31187   3.359   4.365  10.672  0.5762  0.5209  0.1222
  226MOL0     H31188   3.368   4.535  10.630  2.2403 -0.8970  1.5127
  227MOL0     O31189   3.628   7.214  10.893  0.1537  0.2464 -0.5994
  227MOL0     C31190   3.607   7.309  10.968  1.2147  0.8074 -1.1283
  227MOL0     O31191   3.702   7.392  11.015 -0.0889  0.2604 -0.4250
  227MOL0     C31192   3.838   7.371  11.003  0.5644 -0.1054  0.1512
  227MOL0     C31193   3.912   7.349  10.885 -0.9122 -0.2232 -0.3911
  227MOL0     C31194   4.050   7.329  10.888 -0.5300 -0.6288  0.3363
  227MOL0     C31195   4.119   7.329  11.007  0.7605  0.4823 -0.0656
  227MOL0     O31196   4.254   7.287  10.999  0.4066 -0.1212  0.2354
  227MOL0     C31197   4.343   7.279  11.110  0.1587 -0.6818 -0.3671
  227MOL0     C31198   4.468   7.338  11.042 -0.5205 -0.3300  0.4979
  227MOL0     C31199   4.448   7.489  11.007 -0.3066  0.0458  0.5309
  227MOL0     C31200   4.571   7.545  10.941 -1.0832  0.1510  0.0380
  227MOL0     C31201   4.536   7.639  10.834  0.5684  0.4951 -0.4991
  227MOL0     C31202   4.482   7.772  10.890 -0.6213  1.2213  0.1786
  227MOL0     C31203   4.458   7.878  10.775 -0.0746  0.1669  0.6766
  227MOL0     C31204   4.556   7.996  10.771 -0.0529  0.6032  0.0065
  227MOL0     N31205   4.695   7.938  10.765  1.3101 -0.0170 -0.3344
  227MOL0     C31206   4.785   7.960  10.872 -0.0032 -0.0801 -0.3422
  227MOL0     C31207   4.902   7.899  10.838  0.4851 -0.0990 -0.1069
  227MOL0     C31208   5.030   7.886  10.905 -0.3455 -0.0972  0.3966
  227MOL0     C31209   5.073   8.006  10.986  0.1578 -0.0873  0.1954
  227MOL0     C31210   5.213   7.991  11.046 -0.1636  0.4359  0.0560
  227MOL0     C31211   5.245   8.100  11.144 -0.1057  0.2604 -0.5485
  227MOL0     O31212   5.379   8.105  11.198  0.2459 -0.2047  1.3610
  227MOL0     C31213   5.494   8.113  11.126 -0.1155  0.0154  0.0936
  227MOL0     C31214   5.513   8.205  11.024  0.6666 -0.9693 -0.4211
  227MOL0     C31215   5.622   8.214  10.937 -0.7533  0.4597 -0.1826
  227MOL0     C31216   5.638   8.335  10.846 -0.4064 -0.1054 -0.2435
  227MOL0     C31217   5.729   8.120  10.968  0.8791  0.4240  0.2441
  227MOL0     C31218   5.861   8.123  10.903 -0.3933  0.7915 -0.0659
  227MOL0     O31219   5.873   8.187  10.779  0.1091  0.2743  0.5959
  227MOL0     C31220   6.004   8.205  10.740 -0.4286  0.4765  0.1396
  227MOL0     C31221   6.074   8.328  10.765  0.8542 -0.2949 -0.3663
  227MOL0     C31222   6.203   8.354  10.718 -0.5573 -0.4371  0.1127
  227MOL0     C31223   6.257   8.265  10.625  0.3948  0.2941 -0.0273
  227MOL0     O31224   6.368   8.301  10.562 -0.0094  0.3101  0.0482
  227MOL0     C31225   6.456   8.192  10.523 -0.9911 -0.3096  1.0773
  227MOL0     C31226   6.593   8.270  10.489 -1.0588  0.0246 -0.1084
  227MOL0     C31227   6.655   8.345  10.611  0.1245  0.1927 -0.4514
  227MOL0     C31228   6.717   8.261  10.720  0.4500 -0.3695 -0.8084
  227MOL0     C31229   6.873   8.273  10.722  0.0001 -0.7250  0.4806
  227MOL0     C31230   6.919   8.189  10.842 -0.8224 -0.5633 -0.2432
  227MOL0     C31231   7.079   8.171  10.827  0.5955  0.2318  0.3634
  227MOL0     C31232   7.137   8.104  10.951 -0.9401  0.3889  0.0316
  227MOL0    Cl31233   7.101   7.932  10.962  0.2006  0.0598 -0.4033
  227MOL0     C31234   6.193   8.144  10.598  0.0152 -0.1412 -0.1543
  227MOL0     C31235   6.069   8.106  10.660  0.9955 -0.1351  0.3007
  227MOL0     O31236   5.958   8.084  10.967  0.0393  0.2153 -0.5257
  227MOL0     C31237   5.709   8.025  11.070 -0.5867  0.1784 -0.1091
  227MOL0     C31238   5.594   8.022  11.143 -0.1677 -0.2921 -1.6244
  227MOL0     N31239   4.881   7.835  10.717  0.2813  0.3524 -0.6133
  227MOL0     N31240   4.759   7.861  10.673  0.5808  0.2241  0.5312
  227MOL0     C31241   4.052   7.359  11.124  0.4386 -0.3447 -0.8219
  227MOL0     C31242   3.910   7.372  11.116  0.2372 -0.2611  0.0646
  227MOL0     C31243   3.467   7.351  10.989  0.8099  0.1158  0.5401
  227MOL0     C31244   3.362   7.290  10.908  0.1644 -0.1940 -0.1044
  227MOL0     C31245   3.236   7.348  10.913  0.4492  0.3521 -0.4338
  227MOL0     C31246   3.195   7.445  11.003 -1.2335  0.9121  0.7450
  227MOL0     O31247   3.072   7.503  11.004 -0.0772 -0.3689 -0.6613
  227MOL0     C31248   2.994   7.518  10.877  0.4880  0.6454 -0.2347
  227MOL0     C31249   2.849   7.554  10.907 -0.2722  0.4492  0.8487
  227MOL0     C31250   2.763   7.556  10.786 -0.4455  0.3274  0.1448
  227MOL0     C31251   2.619   7.593  10.815 -0.6180  0.9792 -0.3676
  227MOL0     C31252   2.573   7.663  10.694 -0.6113  0.5309 -0.1201
  227MOL0     C31253   2.547   7.725  10.592 -0.3839  0.6515 -0.3418
  227MOL0     C31254   3.296   7.488  11.090  0.3416 -0.6413 -0.8230
  227MOL0     C31255   3.432   7.453  11.080 -0.0421 -0.2342 -0.3184
  227MOL0     C31256   3.532   7.530  11.174  0.0157  0.0710  0.5215
  227MOL0     H31257   3.860   7.341  10.790 -1.5932 -0.5123 -0.0024
  227MOL0     H31258   4.108   7.315  10.798 -0.3925  2.2463 -0.1243
  227MOL0     H31259   4.350   7.182  11.159 -1.2689 -0.9733 -0.6976
  227MOL0     H31260   4.307   7.341  11.193  1.0678 -1.0433  0.3058
  227MOL0     H31261   4.555   7.324  11.107 -0.3398  2.0814  0.8523
  227MOL0     H31262   4.492   7.274  10.957 -0.3390 -0.4576  0.6441
  227MOL0     H31263   4.359   7.506  10.946 -1.0747  0.4401  1.7183
  227MOL0     H31264   4.434   7.549  11.098 -1.0519 -0.1294  0.5392
  227MOL0     H31265   4.642   7.593  11.009 -1.9338  1.7015 -0.1281
  227MOL0     H31266   4.622   7.462  10.891 -0.6123 -0.7720  1.9399
  227MOL0     H31267   4.467   7.604  10.756  2.5790  1.5831 -2.9290
  227MOL0     H31268   4.631   7.648  10.781  2.4049 -1.1644  2.2882
  227MOL0     H31269   4.383   7.758  10.934  0.5138  1.4253  2.9714
  227MOL0     H31270   4.537   7.815  10.974 -1.3451  1.8996  0.3177
  227MOL0     H31271   4.364   7.929  10.798 -0.2562  0.1767 -0.0616
  227MOL0     H31272   4.455   7.832  10.675 -0.3163 -0.7578  1.1009
  227MOL0     H31273   4.551   8.057  10.681  0.5398 -0.6390 -0.9057
  227MOL0     H31274   4.532   8.066  10.851  0.7081  0.6414  0.2178
  227MOL0     H31275   4.770   8.009  10.968 -0.1102 -1.3759  0.3172
  227MOL0     H31276   5.106   7.876  10.827  0.6210 -0.1711  1.3141
  227MOL0     H31277   5.034   7.789  10.955  2.7237 -1.3222 -1.9317
  227MOL0     H31278   5.062   8.098  10.928 -0.2205 -0.9633 -1.1731
  227MOL0     H31279   5.010   8.011  11.075 -1.2129 -3.6636 -0.4170
  227MOL0     H31280   5.222   7.899  11.105 -0.8684  1.1285  1.2799
  227MOL0     H31281   5.288   7.998  10.967  0.0395  5.0408  0.4202
  227MOL0     H31282   5.231   8.197  11.095 -1.8172  0.0421 -0.5671
  227MOL0     H31283   5.170   8.083  11.222 -0.9965  0.8934 -1.2477
  227MOL0     H31284   5.433   8.279  11.030  0.7666 -0.9095  0.1507
  227MOL0     H31285   5.559   8.407  10.866  0.6569  0.3160  3.3376
  227MOL0     H31286   5.645   8.302  10.742 -0.3961 -0.1342 -0.2340
  227MOL0     H31287   5.728   8.393  10.869  0.0737 -0.5217 -1.0424
  227MOL0     H31288   6.034   8.402  10.833  3.9266  1.8427 -0.6863
  227MOL0     H31289   6.252   8.448  10.739 -2.0160  0.2494  0.5672
  227MOL0     H31290   6.475   8.124  10.607  2.5168 -2.4317 -1.2036
  227MOL0     H31291   6.421   8.137  10.435 -1.0581  2.6991 -0.8988
  227MOL0     H31292   6.663   8.193  10.455 -1.5385 -0.3741 -0.2098
  227MOL0     H31293   6.577   8.344  10.410  0.7595 -1.3150 -1.8360
  227MOL0     H31294   6.582   8.417  10.651 -0.0180  0.2499 -0.8118
  227MOL0     H31295   6.732   8.409  10.568  0.1181  1.5053  1.3515
  227MOL0     H31296   6.688   8.155  10.720 -1.1785 -0.1215  3.4879
  227MOL0     H31297   6.676   8.288  10.818  0.7401 -0.4419 -0.6650
  227MOL0     H31298   6.912   8.236  10.626  0.3109  0.0507  0.2922
  227MOL0     H31299   6.907   8.377  10.727  0.6128 -0.9247  0.6200
  227MOL0     H31300   6.868   8.093  10.835 -2.0609  0.1110 -0.6231
  227MOL0     H31301   6.886   8.242  10.932  0.7664 -1.4983  0.9365
  227MOL0     H31302   7.127   8.267  10.809  0.5893  0.6907  2.5380
  227MOL0     H31303   7.087   8.103  10.742  1.1365  0.9657 -0.1736
  227MOL0     H31304   7.120   8.164  11.041  0.6141  0.3208  0.3873
  227MOL0     H31305   7.246   8.106  10.947 -0.7653 -1.2575  2.1422
  227MOL0     H31306   6.229   8.077  10.520 -0.1878  1.1560 -1.3923
  227MOL0     H31307   6.021   8.010  10.640 -1.4451  0.8906  0.8815
  227MOL0     H31308   5.782   7.947  11.090 -0.9328 -0.7187 -2.0789
  227MOL0     H31309   5.587   7.962  11.233 -0.1892  0.7513 -0.9094
  227MOL0     H31310   4.093   7.351  11.224 -1.4575  3.7920  0.5128
  227MOL0     H31311   3.866   7.373  11.215  0.3968  5.1293  0.4054
  227MOL0     H31312   3.385   7.203  10.848  2.9916  0.2427  0.2335
  227MOL0     H31313   3.152   7.307  10.858  0.6258 -0.7007  0.0599
  227MOL0     H31314   3.038   7.586  10.804 -0.8360 -0.0745 -1.7656
  227MOL0     H31315   2.998   7.422  10.825  1.5600  0.4614  0.1589
  227MOL0     H31316   2.843   7.657  10.943 -2.3511  2.1356 -3.5585
  227MOL0     H31317   2.808   7.480  10.976  0.8010 -1.0741 -0.0764
  227MOL0     H31318   2.810   7.616  10.708 -2.9536 -0.2889 -1.9838
  227MOL0     H31319   2.772   7.459  10.736  0.7124  1.9324 -3.0349
  227MOL0     H31320   2.613   7.671  10.891 -2.4838  0.1814  0.3781
  227MOL0     H31321   2.554   7.511  10.846  0.1653  0.8619  1.0839
  227MOL0     H31322   2.507   7.765  10.501 -2.4795  1.6054  0.9077
  227MOL0     H31323   3.259   7.558  11.165  1.6673 -0.8593  0.0570
  227MOL0     H31324   3.476   7.590  11.246  0.7020  3.3370 -1.4630
  227MOL0     H31325   3.608   7.468  11.222  1.9702 -0.0869 -2.4930
  227MOL0     H31326   3.589   7.603  11.116  0.6619  0.6590  1.8551
  228MOL0     O31327   5.853   2.852   4.589  0.6742 -0.1712 -0.2180
  228MOL0     C31328   5.801   2.964   4.591  0.6262  0.3805  0.0675
  228MOL0     O31329   5.878   3.074   4.556 -0.1733  0.0271  0.0257
  228MOL0     C31330   6.004   3.058   4.502  1.1358  0.5049 -0.4678
  228MOL0     C31331   6.089   3.035   4.600 -0.8289 -0.0610 -0.3848
  228MOL0     C31332   6.227   3.023   4.563 -0.6912 -0.2151  0.1435
  228MOL0     C31333   6.262   3.016   4.432 -0.8873 -0.4049 -0.0830
  228MOL0     O31334   6.397   2.986   4.406  0.3789  0.1680  0.6864
  228MOL0     C31335   6.440   2.983   4.266 -1.0110 -0.4308  0.5976
  228MOL0     C31336   6.591   2.995   4.254 -1.0249 -0.0737  0.6396
  228MOL0     C31337   6.636   2.980   4.104  0.6464  0.9450  0.5105
  228MOL0     C31338   6.781   2.917   4.086  0.5118  0.0354  0.2501
  228MOL0     C31339   6.829   2.906   3.941 -0.3650  0.1136  0.7076
  228MOL0     C31340   6.977   2.896   3.917  1.3242 -0.3864  0.1715
  228MOL0     C31341   7.012   2.878   3.768  0.0386 -0.3374 -0.6678
  228MOL0     C31342   7.165   2.907   3.748  0.2166 -0.0975  0.2589
  228MOL0     N31343   7.201   2.979   3.622  0.3606  0.2331 -0.7931
  228MOL0     C31344   7.186   2.945   3.486 -0.2150 -0.2764  0.3163
  228MOL0     C31345   7.262   3.036   3.417  0.4850  0.6440  0.1877
  228MOL0     C31346   7.270   3.003   3.266  0.6315 -0.2617 -0.3492
  228MOL0     C31347   7.412   2.967   3.220  0.4492 -0.4596 -0.5091
  228MOL0     C31348   7.525   3.063   3.257 -1.0054 -0.5885  0.9509
  228MOL0     C31349   7.651   3.021   3.205 -0.9624 -0.2725 -0.0437
  228MOL0     O31350   7.749   3.101   3.269 -0.0619  0.1611  0.4273
  228MOL0     C31351   7.882   3.096   3.228 -0.8413 -0.4632 -0.0242
  228MOL0     C31352   7.980   3.061   3.323 -0.1803 -0.0892 -0.1380
  228MOL0     C31353   8.110   3.061   3.297 -0.4803  0.1453  0.7048
  228MOL0     C31354   8.205   3.028   3.408 -0.1066 -0.4831 -0.2747
  228MOL0     C31355   8.150   3.110   3.170  0.4032 -0.0380  0.1562
  228MOL0     C31356   8.291   3.101   3.123  0.7195  1.0041 -0.6828
  228MOL0     O31357   8.369   2.996   3.160  0.1239 -0.0748  0.1684
  228MOL0     C31358   8.468   2.945   3.092 -0.1345 -0.2645  0.9925
  228MOL0     C31359   8.444   2.878   2.973  0.0889  1.0047 -0.6177
  228MOL0     C31360   8.545   2.810   2.897 -0.0118  0.1430  0.3006
  228MOL0     C31361   8.675   2.803   2.946 -0.4559 -0.1399 -0.4275
  228MOL0     O31362   8.763   2.745   2.863  0.6953 -0.3416 -0.2183
  228MOL0     C31363   8.900   2.783   2.880  0.1186 -0.7778  0.0626
  228MOL0     C31364   8.982   2.682   2.969  0.9195 -0.4611 -0.1328
  228MOL0     C31365   9.001   2.552   2.888  0.3150  0.6417  0.5211
  228MOL0     C31366   9.086   2.456   2.975 -0.2619  0.2664 -0.4808
  228MOL0     C31367   9.102   2.307   2.929  0.0569 -0.2860 -0.2519
  228MOL0     C31368   9.194   2.311   2.806 -0.0735 -1.1542 -0.1475
  228MOL0     C31369   9.245   2.167   2.769 -0.3190 -0.5510  0.4470
  228MOL0     C31370   9.311   2.170   2.632 -0.2531  0.7089  0.2510
  228MOL0    Cl31371   9.200   2.211   2.507  0.0779 -0.1506  0.1933
  228MOL0     C31372   8.702   2.863   3.075  0.1178  0.4426 -0.5119
  228MOL0     C31373   8.603   2.931   3.144  0.5405 -0.2328 -0.6493
  228MOL0     O31374   8.325   3.190   3.044  0.7315 -0.5710 -0.1408
  228MOL0     C31375   8.045   3.154   3.079  0.4953 -0.3150  0.7393
  228MOL0     C31376   7.912   3.146   3.107 -0.1130 -0.4077 -0.3788
  228MOL0     N31377   7.321   3.127   3.500 -0.0264  0.0579  0.9948
  228MOL0     N31378   7.288   3.086   3.623 -0.0440 -0.7169  0.5990
  228MOL0     C31379   6.164   3.039   4.327 -0.3161  0.5247 -0.4526
  228MOL0     C31380   6.034   3.061   4.371  0.9672 -0.7891 -0.0701
  228MOL0     C31381   5.660   2.975   4.633  0.0320  0.8248  0.1945
  228MOL0     C31382   5.582   2.858   4.614 -1.1303  0.3469 -0.2753
  228MOL0     C31383   5.458   2.850   4.670 -0.1609  0.3153 -0.0972
  228MOL0     C31384   5.402   2.957   4.750  0.2120  0.4742  0.3806
  228MOL0     O31385   5.285   2.954   4.812  0.1979 -0.4329  0.7064
  228MOL0     C31386   5.181   2.851   4.793 -0.1236 -0.3319 -0.1283
  228MOL0     C31387   5.115   2.819   4.924 -0.5179 -0.6091  0.3087
  228MOL0     C31388   5.078   2.953   4.996  0.3907  0.2777  0.2892
  228MOL0     C31389   4.977   3.032   4.910  0.1669  1.0651 -0.4359
  228MOL0     C31390   4.863   2.958   4.861  0.5497 -1.0652 -0.5483
  228MOL0     C31391   4.765   2.891   4.818 -0.9031  0.3132 -0.1716
  228MOL0     C31392   5.484   3.077   4.767 -0.1051 -0.1913 -0.3813
  228MOL0     C31393   5.613   3.082   4.709 -1.6570  0.5333  0.7548
  228MOL0     C31394   5.695   3.210   4.731  0.3379 -0.1722 -0.5579
  228MOL0     H31395   6.044   3.052   4.697 -0.5129  0.8549 -0.3867
  228MOL0     H31396   6.305   3.012   4.637 -1.6809  0.9810  1.4173
  228MOL0     H31397   6.398   3.075   4.223  1.3443  0.4649  0.0377
  228MOL0     H31398   6.401   2.897   4.211 -0.7218  0.6066 -1.3232
  228MOL0     H31399   6.605   3.098   4.289 -1.7019  0.9159 -1.7792
  228MOL0     H31400   6.634   2.914   4.315 -2.6758 -1.3846  0.1274
  228MOL0     H31401   6.565   2.915   4.053  1.8481 -0.4458  0.5521
  228MOL0     H31402   6.635   3.080   4.058 -0.4250  1.0508  0.7415
  228MOL0     H31403   6.847   2.993   4.128  0.2776  0.5801 -0.3395
  228MOL0     H31404   6.788   2.825   4.144  1.3774 -1.8354 -2.6144
  228MOL0     H31405   6.807   2.994   3.881  1.4625 -0.8614 -1.5654
  228MOL0     H31406   6.775   2.821   3.897 -3.4810  2.3524 -0.1953
  228MOL0     H31407   7.036   2.980   3.955  1.4565 -0.1873 -0.4775
  228MOL0     H31408   7.004   2.812   3.982 -0.1078  0.2542  1.6710
  228MOL0     H31409   6.954   2.946   3.705 -2.1293 -0.0518  1.4861
  228MOL0     H31410   6.976   2.785   3.724 -2.3108 -0.1102  0.6034
  228MOL0     H31411   7.208   2.961   3.833  0.5468  1.6961 -1.0127
  228MOL0     H31412   7.195   2.802   3.745 -0.8188 -0.3873 -1.6699
  228MOL0     H31413   7.134   2.861   3.443 -0.3180  0.2067 -0.5192
  228MOL0     H31414   7.227   3.083   3.204  0.9186 -0.0353 -0.2595
  228MOL0     H31415   7.205   2.917   3.248  0.2948 -0.1606  0.3361
  228MOL0     H31416   7.438   2.868   3.257  1.9333 -1.2279 -3.2943
  228MOL0     H31417   7.390   2.951   3.114  1.1387 -1.1606 -0.5525
  228MOL0     H31418   7.509   3.169   3.235  0.9852 -0.2897  0.7082
  228MOL0     H31419   7.553   3.054   3.362  1.6188 -0.4396  0.3220
  228MOL0     H31420   7.668   2.916   3.229  3.6277  0.4321  0.7288
  228MOL0     H31421   7.657   3.038   3.097  0.5703  1.1178  0.2154
  228MOL0     H31422   7.930   3.054   3.419 -2.3690 -1.1163 -1.2747
  228MOL0     H31423   8.271   3.112   3.433 -1.1514  0.3962 -0.4342
  228MOL0     H31424   8.273   2.945   3.386  0.2744 -0.4036  0.5753
  228MOL0     H31425   8.152   3.015   3.502 -0.4213  1.9001 -0.0750
  228MOL0     H31426   8.338   2.871   2.952 -0.1091 -0.3873  0.7081
  228MOL0     H31427   8.531   2.779   2.794 -0.0695  1.2648 -0.0383
  228MOL0     H31428   8.951   2.782   2.783  0.1776  2.2722 -0.0355
  228MOL0     H31429   8.903   2.886   2.918  2.4766 -0.5380 -0.5847
  228MOL0     H31430   9.082   2.710   3.004  0.4911  0.4613  0.4064
  228MOL0     H31431   8.923   2.664   3.060  0.3314 -0.1818 -0.4576
  228MOL0     H31432   9.058   2.577   2.797 -2.4122  0.0105 -1.4870
  228MOL0     H31433   8.908   2.498   2.867  0.9778 -1.2157  2.0533
  228MOL0     H31434   9.043   2.447   3.076  0.5153 -2.3504 -0.3023
  228MOL0     H31435   9.185   2.495   2.999  0.6118 -1.1863 -1.5821
  228MOL0     H31436   9.151   2.249   3.008 -1.0178 -2.0533 -0.8201
  228MOL0     H31437   9.005   2.261   2.906  0.2585  0.8687 -4.1114
  228MOL0     H31438   9.278   2.377   2.831  0.5300 -1.9839  0.0705
  228MOL0     H31439   9.133   2.343   2.721  1.1390 -0.3553 -0.7593
  228MOL0     H31440   9.161   2.097   2.776 -1.1085  0.3680  0.3793
  228MOL0     H31441   9.317   2.133   2.844  0.9220  0.1067 -0.4034
  228MOL0     H31442   9.349   2.069   2.615  1.1340  1.2262  0.2091
  228MOL0     H31443   9.403   2.229   2.624  0.4059 -0.5045 -2.1622
  228MOL0     H31444   8.800   2.879   3.120 -0.6533  3.9769  0.1793
  228MOL0     H31445   8.630   2.995   3.227  0.7060 -0.1584 -0.7588
  228MOL0     H31446   8.083   3.186   2.982  0.2331 -2.7953 -0.2620
  228MOL0     H31447   7.842   3.179   3.032  1.0407  1.6635 -0.6418
  228MOL0     H31448   6.197   3.028   4.224 -1.0979 -0.5875 -0.5942
  228MOL0     H31449   5.967   3.091   4.290  2.5271  1.8555 -0.4924
  228MOL0     H31450   5.612   2.771   4.556 -1.5906  0.4048 -0.6105
  228MOL0     H31451   5.413   2.756   4.641 -0.1058  0.4869 -0.7543
  228MOL0     H31452   5.100   2.897   4.735 -2.6155  2.0363  4.6173
  228MOL0     H31453   5.223   2.760   4.749 -0.6852 -0.7705  0.2328
  228MOL0     H31454   5.192   2.760   4.975  0.6971  0.8600  0.2212
  228MOL0     H31455   5.042   2.741   4.900 -0.4697 -0.6783  0.3836
  228MOL0     H31456   5.028   2.928   5.091  0.5985 -0.0770  0.3080
  228MOL0     H31457   5.167   3.011   5.023  0.2884 -0.2955  2.0076
  228MOL0     H31458   5.038   3.069   4.826  0.2282  0.0841 -0.8354
  228MOL0     H31459   4.953   3.121   4.970  2.0937  0.6322  1.0951
  228MOL0     H31460   4.677   2.834   4.795  0.6142 -0.9913 -3.3131
  228MOL0     H31461   5.448   3.144   4.844  1.6909  0.2151  0.1472
  228MOL0     H31462   5.624   3.289   4.759  0.1197  0.5828 -2.9458
  228MOL0     H31463   5.773   3.200   4.807  1.1076  1.5320 -1.0700
  228MOL0     H31464   5.749   3.251   4.645 -0.4391  1.8307 -0.1528
  229MOL0     O31465   7.366   0.426  10.300  1.0523 -0.4071 -0.5483
  229MOL0     C31466   7.436   0.465  10.388  0.2397  0.4036  0.0653
  229MOL0     O31467   7.441   0.398  10.513 -0.2447  0.2080 -0.2771
  229MOL0     C31468   7.386   0.276  10.530 -0.2049  0.3481  0.4808
  229MOL0     C31469   7.297   0.256  10.637  0.7120 -0.7992  0.5630
  229MOL0     C31470   7.239   0.131  10.658 -0.0745  0.2524 -0.2127
  229MOL0     C31471   7.278   0.018  10.582 -0.1135 -0.4128 -0.0028
  229MOL0     O31472   7.227  -0.109  10.597 -0.0708 -0.5150  0.0546
  229MOL0     C31473   7.108  -0.118  10.685  0.3300  0.3848  0.5332
  229MOL0     C31474   7.058  -0.265  10.667  0.3451  0.7018 -0.9504
  229MOL0     C31475   6.954  -0.290  10.769  0.3956 -0.0712  0.1391
  229MOL0     C31476   6.885  -0.427  10.752  0.8561 -0.4712 -0.8130
  229MOL0     C31477   6.965  -0.557  10.757  0.4585  0.3269 -0.2057
  229MOL0     C31478   7.028  -0.593  10.894 -0.3269  0.1493  0.4272
  229MOL0     C31479   7.156  -0.518  10.912 -0.6772 -0.2455 -0.6346
  229MOL0     C31480   7.274  -0.564  10.824  1.3555  0.4707  0.3474
  229MOL0     N31481   7.404  -0.507  10.858 -0.0127 -0.1857 -0.4774
  229MOL0     C31482   7.428  -0.379  10.897 -0.6045 -0.6865 -0.3273
  229MOL0     C31483   7.552  -0.378  10.959  0.6162 -0.2495 -0.3695
  229MOL0     C31484   7.639  -0.267  11.029  1.0794 -0.3528 -0.4535
  229MOL0     C31485   7.699  -0.175  10.918  0.7919  0.5838  0.1331
  229MOL0     C31486   7.780  -0.060  10.977 -0.5785 -0.0170  0.0749
  229MOL0     C31487   7.868   0.014  10.867  0.2730 -0.6192 -1.1625
  229MOL0     O31488   7.972  -0.074  10.820 -0.3569  0.0315  0.0143
  229MOL0     C31489   8.102  -0.035  10.848  0.1575 -0.0074  0.6974
  229MOL0     C31490   8.177  -0.050  10.729  0.5333 -0.7002 -0.3645
  229MOL0     C31491   8.306  -0.017  10.714  0.1724 -0.0210  0.8691
  229MOL0     C31492   8.361  -0.036  10.579  0.3627  0.2198  0.1356
  229MOL0     C31493   8.377   0.042  10.823  0.5816  0.3736 -0.9390
  229MOL0     C31494   8.523   0.099  10.828  0.1610 -0.4145 -1.1392
  229MOL0     O31495   8.569   0.137  10.957 -0.5551 -0.1095  0.4621
  229MOL0     C31496   8.677   0.224  10.973 -0.6289 -0.2253  0.1858
  229MOL0     C31497   8.727   0.312  10.876 -0.3344 -0.4045 -0.7644
  229MOL0     C31498   8.824   0.408  10.910  0.0659  0.9073 -0.0913
  229MOL0     C31499   8.883   0.417  11.035  0.1901  0.2813 -0.0655
  229MOL0     O31500   8.977   0.507  11.073  0.0966  0.3963 -0.9246
  229MOL0     C31501   9.004   0.621  10.992 -0.4393  0.3522  0.2792
  229MOL0     C31502   9.114   0.716  11.062 -0.2313  0.2091  0.7913
  229MOL0     C31503   9.098   0.769  11.198  1.0417 -0.5566  0.1849
  229MOL0     C31504   9.193   0.884  11.237 -0.4661  0.3197 -0.3570
  229MOL0     C31505   9.339   0.849  11.238  0.2505  0.3419  0.9235
  229MOL0     C31506   9.430   0.942  11.311 -0.5906  0.2099  0.2262
  229MOL0     C31507   9.571   0.884  11.322 -0.5072  0.0580  0.5459
  229MOL0     C31508   9.671   0.967  11.388  0.5841 -0.3735  0.2928
  229MOL0    Cl31509   9.679   0.918  11.556  0.1484  0.0167 -0.4326
  229MOL0     C31510   8.844   0.315  11.131 -0.0240 -1.0336  0.7577
  229MOL0     C31511   8.736   0.226  11.099 -0.0204 -0.1538  0.1428
  229MOL0     O31512   8.595   0.080  10.737 -0.0655 -0.4031  0.0689
  229MOL0     C31513   8.303   0.056  10.944  0.2053  0.4879 -0.1716
  229MOL0     C31514   8.165   0.018  10.955  0.3654  0.2268 -0.1035
  229MOL0     N31515   7.609  -0.502  10.940  0.4122  0.1566  0.5074
  229MOL0     N31516   7.514  -0.580  10.890 -0.2574  0.0917  0.2573
  229MOL0     C31517   7.381   0.043  10.482  1.0594  0.1604  0.2872
  229MOL0     C31518   7.427   0.167  10.459 -0.5266  0.1348 -0.0737
  229MOL0     C31519   7.511   0.592  10.379  1.0274  0.2954 -0.4849
  229MOL0     C31520   7.623   0.609  10.461 -0.1379 -0.4148  0.8472
  229MOL0     C31521   7.711   0.717  10.440 -0.9301  0.3157  0.4677
  229MOL0     C31522   7.670   0.819  10.350 -0.1797  0.8766 -0.3965
  229MOL0     O31523   7.741   0.939  10.336  0.0231  0.2361  0.6901
  229MOL0     C31524   7.821   0.953  10.216 -0.5662  0.1530 -0.4052
  229MOL0     C31525   7.951   1.027  10.254 -0.1741  0.8253  0.4813
  229MOL0     C31526   8.037   1.054  10.130  0.0420 -0.5785 -0.3644
  229MOL0     C31527   8.149   1.142  10.177  0.3976 -0.9729  0.7980
  229MOL0     C31528   8.234   1.183  10.063  0.1973  0.5746  0.0534
  229MOL0     C31529   8.314   1.196   9.979  0.4436 -0.5098 -1.0714
  229MOL0     C31530   7.552   0.809  10.283 -0.4351 -0.2696  0.2637
  229MOL0     C31531   7.472   0.695  10.289 -0.3309 -0.0766  0.0410
  229MOL0     C31532   7.346   0.704  10.212 -0.0708  0.0196 -0.3904
  229MOL0     H31533   7.269   0.340  10.700  0.5367  0.1340 -0.7140
  229MOL0     H31534   7.167   0.133  10.739  1.7166 -0.3979  1.4800
  229MOL0     H31535   7.036  -0.039  10.662  2.1315  1.2230 -2.8375
  229MOL0     H31536   7.140  -0.092  10.786  0.2118  2.1092  0.1620
  229MOL0     H31537   7.030  -0.289  10.564 -1.0101  0.0090 -0.4313
  229MOL0     H31538   7.145  -0.321  10.704  1.6168  3.6265  0.8246
  229MOL0     H31539   6.999  -0.273  10.868  0.7400  0.8810 -0.1739
  229MOL0     H31540   6.880  -0.211  10.749  2.8451  1.9494 -1.6030
  229MOL0     H31541   6.803  -0.435  10.824  0.4381 -0.5497 -1.2912
  229MOL0     H31542   6.853  -0.428  10.647 -1.9446 -0.5687 -0.0589
  229MOL0     H31543   7.032  -0.561  10.671 -1.2827 -0.2184 -1.6176
  229MOL0     H31544   6.888  -0.635  10.743  2.2708 -1.1819 -2.5046
  229MOL0     H31545   6.957  -0.579  10.976 -0.0852 -1.0685  0.8628
  229MOL0     H31546   7.052  -0.700  10.891 -1.0793 -0.0048 -0.5714
  229MOL0     H31547   7.179  -0.544  11.015 -3.4043 -0.2643  0.0461
  229MOL0     H31548   7.143  -0.409  10.910 -1.1303 -0.3019 -1.0310
  229MOL0     H31549   7.281  -0.674  10.822  0.1476  0.3840 -0.3253
  229MOL0     H31550   7.255  -0.529  10.722 -0.4111  1.6153  1.0211
  229MOL0     H31551   7.364  -0.292  10.908  2.3595  1.4501  1.1366
  229MOL0     H31552   7.720  -0.313  11.086  1.0668 -1.4611 -1.2886
  229MOL0     H31553   7.567  -0.212  11.089 -0.2579 -1.8949 -0.5809
  229MOL0     H31554   7.762  -0.242  10.858  1.2616 -0.7111  1.9783
  229MOL0     H31555   7.626  -0.124  10.855  0.5917  0.9489  0.6539
  229MOL0     H31556   7.713   0.008  11.031  0.5166 -0.6627  2.4138
  229MOL0     H31557   7.854  -0.096  11.049  1.5575  0.9561 -1.5410
  229MOL0     H31558   7.814   0.059  10.783  0.9023  1.4925 -0.5035
  229MOL0     H31559   7.925   0.092  10.918  0.0827  1.0046 -3.2931
  229MOL0     H31560   8.118  -0.086  10.645 -0.3002  0.7616 -0.4408
  229MOL0     H31561   8.382   0.065  10.540  1.6063  0.6769  1.8681
  229MOL0     H31562   8.298  -0.089  10.507  2.5901 -1.0075 -1.0504
  229MOL0     H31563   8.460  -0.082  10.583 -0.1946 -1.0306 -0.1610
  229MOL0     H31564   8.702   0.311  10.770 -0.4636  1.8201 -0.7851
  229MOL0     H31565   8.875   0.468  10.835 -0.4284  0.8835 -0.4505
  229MOL0     H31566   9.054   0.595  10.898 -0.7646  0.5708  0.0450
  229MOL0     H31567   8.916   0.682  10.969  0.2577  0.8362 -1.2888
  229MOL0     H31568   9.214   0.670  11.058 -1.3354 -2.6477  2.7817
  229MOL0     H31569   9.122   0.809  11.006  1.3902  0.3181  1.1498
  229MOL0     H31570   9.111   0.685  11.267 -2.5873 -1.2187  0.2622
  229MOL0     H31571   8.994   0.802  11.204  2.2371  3.6328  0.9430
  229MOL0     H31572   9.164   0.905  11.340 -0.4755 -2.2216  0.2356
  229MOL0     H31573   9.178   0.976  11.180 -0.0599  1.3066  1.0727
  229MOL0     H31574   9.352   0.744  11.267  1.2413 -0.3320 -1.6837
  229MOL0     H31575   9.368   0.849  11.132 -1.6635  1.0285  0.3583
  229MOL0     H31576   9.395   0.961  11.413  1.9328 -1.0188  1.4043
  229MOL0     H31577   9.434   1.040  11.264 -0.8330  0.6023  1.0040
  229MOL0     H31578   9.606   0.859  11.222  0.7608  0.3429  0.9022
  229MOL0     H31579   9.564   0.789  11.377 -3.1294  0.1753  0.5719
  229MOL0     H31580   9.641   1.072  11.380 -2.1838 -1.0367  0.8693
  229MOL0     H31581   9.763   0.944  11.334 -1.1028 -2.3795 -1.9115
  229MOL0     H31582   8.900   0.304  11.223 -0.4759 -1.1807  1.0153
  229MOL0     H31583   8.703   0.164  11.181 -2.3290  1.6855  0.7063
  229MOL0     H31584   8.353   0.098  11.031  1.4872  0.0716 -0.6882
  229MOL0     H31585   8.122   0.012  11.055 -0.4929  1.5350 -0.3630
  229MOL0     H31586   7.408  -0.044  10.423  0.3419  0.2982 -0.2679
  229MOL0     H31587   7.505   0.170  10.384 -0.0706  0.5903  0.4151
  229MOL0     H31588   7.655   0.527  10.525  1.2032 -0.1683  0.5372
  229MOL0     H31589   7.803   0.728  10.495 -1.0093  0.3135  0.6014
  229MOL0     H31590   7.841   0.853  10.176  2.5243  0.8443 -0.8873
  229MOL0     H31591   7.762   1.009  10.143 -0.6706  0.5370 -0.0298
  229MOL0     H31592   8.015   0.975  10.326  1.5823  0.8200 -1.0080
  229MOL0     H31593   7.920   1.119  10.305 -0.3675  1.1349 -0.1804
  229MOL0     H31594   8.077   0.963  10.084 -1.5094 -1.0163 -0.9123
  229MOL0     H31595   7.968   1.108  10.063 -0.2908 -0.7901 -0.1966
  229MOL0     H31596   8.210   1.087  10.249  1.4199  0.3839  1.0240
  229MOL0     H31597   8.111   1.235  10.219 -1.2783 -2.6852  3.3278
  229MOL0     H31598   8.399   1.213   9.915 -1.3264  2.0651 -2.9446
  229MOL0     H31599   7.508   0.889  10.224 -0.7596 -0.8916 -0.3506
  229MOL0     H31600   7.335   0.618  10.145  2.6823  0.4578 -1.5422
  229MOL0     H31601   7.257   0.699  10.276 -0.4391 -0.3841 -0.9280
  229MOL0     H31602   7.342   0.788  10.142  0.8270 -0.2253 -0.7484
  230MOL0     O31603   7.149   0.370   3.106  0.1499 -0.6707 -0.1545
  230MOL0     C31604   7.199   0.412   3.000 -0.7297  0.1506  0.4994
  230MOL0     O31605   7.332   0.396   2.965  0.3812 -0.5121 -0.4874
  230MOL0     C31606   7.412   0.367   3.075 -0.0160 -0.5841  0.8025
  230MOL0     C31607   7.453   0.240   3.094 -0.1933 -0.1367 -0.0594
  230MOL0     C31608   7.550   0.211   3.197 -0.1324  0.4277 -0.5798
  230MOL0     C31609   7.600   0.314   3.283  0.0498 -0.3819  0.9742
  230MOL0     O31610   7.695   0.295   3.375 -1.1057 -0.3520  0.1295
  230MOL0     C31611   7.696   0.171   3.451 -0.1656  0.3531  0.2553
  230MOL0     C31612   7.737   0.188   3.595 -0.2143  0.9092  0.4682
  230MOL0     C31613   7.874   0.256   3.592  0.4974  0.0545 -0.5167
  230MOL0     C31614   7.932   0.266   3.733 -0.3301 -0.0343  0.5807
  230MOL0     C31615   8.076   0.314   3.713  1.0031  1.0327  0.0159
  230MOL0     C31616   8.173   0.276   3.824 -0.4094  0.0190 -0.1200
  230MOL0     C31617   8.127   0.297   3.962  0.4156 -0.5118 -0.8602
  230MOL0     C31618   8.107   0.438   4.028  0.1948 -0.4849  0.0772
  230MOL0     N31619   8.229   0.469   4.105 -0.0131  0.0700 -0.6102
  230MOL0     C31620   8.361   0.436   4.074 -1.0631 -0.0258  0.2348
  230MOL0     C31621   8.430   0.506   4.167 -0.2804 -0.6915 -0.3406
  230MOL0     C31622   8.582   0.511   4.181 -0.0823 -0.1563 -0.2089
  230MOL0     C31623   8.647   0.371   4.195  0.3354 -0.1881  0.0725
  230MOL0     C31624   8.688   0.321   4.058 -1.1486 -0.2158  0.7930
  230MOL0     C31625   8.757   0.184   4.060 -0.3315  0.5259  0.2050
  230MOL0     O31626   8.882   0.194   4.126 -0.4275  0.3540  0.1954
  230MOL0     C31627   8.984   0.123   4.065 -0.4715 -0.5626 -0.1320
  230MOL0     C31628   8.978  -0.013   4.034  0.7174  0.6024  0.0418
  230MOL0     C31629   9.090  -0.079   3.995 -0.8724  0.1533  0.1787
  230MOL0     C31630   9.085  -0.225   3.960  0.4870 -0.3446 -0.2835
  230MOL0     C31631   9.211  -0.012   3.977 -0.7990  0.2158 -0.2788
  230MOL0     C31632   9.341  -0.075   3.915 -0.2314  0.5147 -1.2666
  230MOL0     O31633   9.445   0.014   3.914 -0.4038  0.3234  0.9978
  230MOL0     C31634   9.572  -0.035   3.891 -0.0275  0.0371 -0.6183
  230MOL0     C31635   9.641  -0.021   3.769  0.3675 -0.7945  0.1321
  230MOL0     C31636   9.770  -0.070   3.754 -0.1572  0.4678  0.3001
  230MOL0     C31637   9.842  -0.116   3.863 -0.2919  0.4555 -0.0387
  230MOL0     O31638   9.977  -0.147   3.860 -0.1330 -0.1743  1.0230
  230MOL0     C31639  10.055  -0.120   3.747  0.1503 -0.5095 -0.3422
  230MOL0     C31640  10.204  -0.139   3.778 -0.0084 -0.9510  0.4602
  230MOL0     C31641  10.283  -0.159   3.654  0.0649  0.2524  0.0187
  230MOL0     C31642  10.440  -0.181   3.679 -0.0068 -0.2276  0.8179
  230MOL0     C31643  10.483  -0.324   3.708 -0.4933  0.1085 -0.0194
  230MOL0     C31644  10.632  -0.313   3.751  0.2402 -0.0129  0.6898
  230MOL0     C31645  10.678  -0.439   3.831 -0.2019 -0.1060  0.0181
  230MOL0     C31646  10.829  -0.422   3.865  0.0162  0.4923  0.5069
  230MOL0    Cl31647  10.868  -0.556   3.989  0.3732  0.3604  0.1612
  230MOL0     C31648   9.773  -0.139   3.982 -0.3219 -0.0224  0.0179
  230MOL0     C31649   9.642  -0.096   3.999 -0.2642  0.3548  0.3508
  230MOL0     O31650   9.351  -0.192   3.876  0.3017  0.2764  0.3138
  230MOL0     C31651   9.214   0.127   4.003  0.0986  0.1266 -0.0235
  230MOL0     C31652   9.104   0.192   4.050  1.1238  0.9712  0.6639
  230MOL0     N31653   8.341   0.581   4.248 -0.0168  0.3308  0.5148
  230MOL0     N31654   8.224   0.558   4.208  1.0149 -0.1901 -0.1333
  230MOL0     C31655   7.557   0.442   3.261  0.7726  0.4419  0.7515
  230MOL0     C31656   7.463   0.469   3.158  0.3631 -0.0121  0.3817
  230MOL0     C31657   7.104   0.454   2.888  0.0327  0.5216 -0.3938
  230MOL0     C31658   6.973   0.391   2.882 -0.4707 -0.4011 -0.3705
  230MOL0     C31659   6.891   0.424   2.772 -0.6746 -0.2697  0.5877
  230MOL0     C31660   6.917   0.537   2.692  0.2672  0.1766 -1.0505
  230MOL0     O31661   6.818   0.564   2.603  0.4825 -0.3316 -0.0411
  230MOL0     C31662   6.829   0.688   2.530  0.0657 -0.2339 -0.9029
  230MOL0     C31663   6.703   0.723   2.455 -0.2147  0.3184 -0.4011
  230MOL0     C31664   6.665   0.613   2.361 -0.1455 -0.4958  0.6355
  230MOL0     C31665   6.581   0.661   2.241  0.3717 -0.0947 -0.0365
  230MOL0     C31666   6.547   0.537   2.166 -0.3436  0.2923  0.1687
  230MOL0     C31667   6.517   0.433   2.107  0.6382  0.0118 -0.2041
  230MOL0     C31668   7.036   0.600   2.714 -1.0158 -0.1776  1.2179
  230MOL0     C31669   7.134   0.568   2.810 -0.5068  0.2343  0.1784
  230MOL0     C31670   7.258   0.657   2.824 -0.7461 -0.0900  0.1754
  230MOL0     H31671   7.409   0.153   3.045  0.9063 -0.0022 -1.3600
  230MOL0     H31672   7.572   0.106   3.216 -1.7769  0.4074  1.6000
  230MOL0     H31673   7.756   0.090   3.409  0.9250  0.1060  2.1689
  230MOL0     H31674   7.591   0.142   3.454  0.1432 -0.8576 -0.3387
  230MOL0     H31675   7.664   0.256   3.639 -2.8656  0.9743 -3.5188
  230MOL0     H31676   7.745   0.097   3.653 -1.5174  0.6323  0.2504
  230MOL0     H31677   7.940   0.219   3.513  1.9871  0.0114  0.7012
  230MOL0     H31678   7.855   0.359   3.560 -0.7725 -0.8948 -3.1129
  230MOL0     H31679   7.881   0.342   3.793 -0.1298  3.6063 -3.3650
  230MOL0     H31680   7.925   0.164   3.773  2.2955 -0.8937 -0.9116
  230MOL0     H31681   8.070   0.423   3.711 -0.1428  1.0019  0.6964
  230MOL0     H31682   8.120   0.292   3.615  0.5651  2.0739 -0.4334
  230MOL0     H31683   8.205   0.174   3.805 -0.1373 -0.3720  2.1956
  230MOL0     H31684   8.263   0.338   3.820 -0.2139 -0.1631  1.0979
  230MOL0     H31685   8.202   0.244   4.022  0.0342  0.7610  0.8404
  230MOL0     H31686   8.035   0.237   3.971 -0.4769  0.8499 -0.6104
  230MOL0     H31687   8.100   0.523   3.959  0.2690  1.0078  1.8162
  230MOL0     H31688   8.020   0.441   4.094 -1.3323  3.0777 -1.8221
  230MOL0     H31689   8.392   0.369   3.995 -1.9966 -0.6033  0.3494
  230MOL0     H31690   8.602   0.575   4.268 -0.6856  1.2347 -1.0518
  230MOL0     H31691   8.625   0.571   4.100  1.2327  1.7246  1.7819
  230MOL0     H31692   8.738   0.391   4.252 -0.0969  0.5530  0.5186
  230MOL0     H31693   8.579   0.301   4.243 -3.1030  1.8656 -1.4366
  230MOL0     H31694   8.610   0.311   3.981  0.3248 -1.5299 -0.6191
  230MOL0     H31695   8.762   0.384   4.007 -1.7610 -0.3801 -0.3530
  230MOL0     H31696   8.695   0.103   4.098  3.1647 -2.7717 -0.5592
  230MOL0     H31697   8.778   0.153   3.957  0.3074  1.5040  0.0305
  230MOL0     H31698   8.884  -0.063   4.051  1.1778  0.6293  3.2762
  230MOL0     H31699   9.075  -0.229   3.852 -0.5737 -0.6466 -0.1873
  230MOL0     H31700   8.999  -0.266   4.014 -0.1836  3.6825  2.2061
  230MOL0     H31701   9.170  -0.282   3.998  2.8316  1.9373 -1.8000
  230MOL0     H31702   9.582   0.031   3.694  0.2471 -2.0568 -0.6661
  230MOL0     H31703   9.825  -0.053   3.662 -0.3087 -1.9624 -0.3004
  230MOL0     H31704  10.025  -0.190   3.668  1.2572  1.2657 -2.4163
  230MOL0     H31705  10.040  -0.022   3.702  0.9366 -0.3313 -0.2215
  230MOL0     H31706  10.236  -0.049   3.830  0.2913  0.6023 -2.2213
  230MOL0     H31707  10.223  -0.227   3.841 -2.3442 -1.0184  1.1576
  230MOL0     H31708  10.262  -0.074   3.588  1.3800 -1.6072 -2.9862
  230MOL0     H31709  10.248  -0.246   3.599 -0.6864  0.3198  0.3724
  230MOL0     H31710  10.480  -0.116   3.758  3.1311  2.1289 -2.3833
  230MOL0     H31711  10.494  -0.139   3.594  0.3514 -1.3724  0.4659
  230MOL0     H31712  10.423  -0.360   3.792  0.2807  0.9565  0.9210
  230MOL0     H31713  10.473  -0.378   3.613  0.3886 -0.8683  0.4288
  230MOL0     H31714  10.659  -0.233   3.821  3.1301  0.3662 -0.7000
  230MOL0     H31715  10.688  -0.300   3.658 -0.1373 -2.9680 -0.0308
  230MOL0     H31716  10.657  -0.534   3.780  0.8712  0.0419 -0.7409
  230MOL0     H31717  10.615  -0.438   3.920 -0.9521 -0.9430 -0.4839
  230MOL0     H31718  10.848  -0.321   3.904 -2.8718  1.3438 -0.0003
  230MOL0     H31719  10.890  -0.431   3.775 -0.8162  1.8802 -0.2371
  230MOL0     H31720   9.830  -0.181   4.065 -0.2799 -1.7876 -0.8534
  230MOL0     H31721   9.596  -0.100   4.098  0.1015  0.1943  0.5178
  230MOL0     H31722   9.296   0.195   3.984  0.5115  0.0294  1.3418
  230MOL0     H31723   9.108   0.300   4.054  1.2397  1.0215 -0.4601
  230MOL0     H31724   7.602   0.531   3.304  1.5582 -0.0077  0.8611
  230MOL0     H31725   7.430   0.571   3.143 -0.8559 -0.1477  1.8586
  230MOL0     H31726   6.944   0.311   2.950 -0.5426 -1.4887 -1.6341
  230MOL0     H31727   6.802   0.369   2.742 -0.1471 -1.7262  1.6059
  230MOL0     H31728   6.841   0.770   2.602 -2.5508 -1.6077  1.3409
  230MOL0     H31729   6.915   0.688   2.463 -0.4573  0.5396 -1.5978
  230MOL0     H31730   6.725   0.806   2.386 -1.6055  0.5360 -0.6033
  230MOL0     H31731   6.618   0.747   2.519 -1.2306  0.2719 -1.6853
  230MOL0     H31732   6.755   0.573   2.313  0.3783  2.6530 -1.2877
  230MOL0     H31733   6.621   0.521   2.401  1.5439 -3.0551 -2.8220
  230MOL0     H31734   6.641   0.721   2.171  0.6184 -1.4924 -1.0710
  230MOL0     H31735   6.487   0.710   2.269 -0.8572  0.5805 -4.5059
  230MOL0     H31736   6.491   0.343   2.055  1.4977 -1.4847  1.8208
  230MOL0     H31737   7.070   0.675   2.643 -2.2805 -0.9457 -0.2524
  230MOL0     H31738   7.342   0.608   2.872 -2.4248 -0.2519  3.2293
  230MOL0     H31739   7.282   0.706   2.729  0.2205 -1.0537 -0.0900
  230MOL0     H31740   7.238   0.737   2.896  0.5845  2.0876 -1.7374
  231MOL0     O31741   2.093   3.665   5.481 -0.1009  0.5558 -0.6179
  231MOL0     C31742   2.100   3.565   5.413  0.0830 -0.1764 -0.2912
  231MOL0     O31743   2.204   3.480   5.402  0.7195 -0.0655 -1.2202
  231MOL0     C31744   2.315   3.506   5.473 -0.7527  0.2964 -0.8808
  231MOL0     C31745   2.319   3.560   5.607  0.3369  0.0234 -0.1330
  231MOL0     C31746   2.449   3.570   5.655  0.2378 -0.1230  0.2548
  231MOL0     C31747   2.561   3.529   5.592 -0.3238 -0.3960  0.9446
  231MOL0     O31748   2.672   3.537   5.668 -0.5028  0.6903 -0.3239
  231MOL0     C31749   2.796   3.583   5.599  0.1513 -0.2670 -0.4600
  231MOL0     C31750   2.897   3.633   5.710  0.9781  0.3222 -0.2838
  231MOL0     C31751   3.026   3.663   5.637 -1.2340 -0.1116 -0.5682
  231MOL0     C31752   3.129   3.712   5.738 -0.8980 -0.3879  0.1355
  231MOL0     C31753   3.166   3.613   5.855  0.9833  0.7173  0.0706
  231MOL0     C31754   3.274   3.663   5.945 -0.2394  0.5128 -0.3329
  231MOL0     C31755   3.215   3.772   6.033 -0.6938  0.4674  0.2819
  231MOL0     C31756   3.328   3.832   6.120  0.7062  0.5455 -0.4041
  231MOL0     N31757   3.271   3.943   6.197 -0.0011  0.3766 -0.6131
  231MOL0     C31758   3.282   3.964   6.333 -0.7913  0.5437  0.3665
  231MOL0     C31759   3.268   4.095   6.351  0.4586 -0.2773 -0.4455
  231MOL0     C31760   3.276   4.161   6.487  0.1108  0.6417  0.2903
  231MOL0     C31761   3.417   4.217   6.510 -0.8052  0.1992 -0.3347
  231MOL0     C31762   3.423   4.324   6.621 -0.9199  0.2268  0.4449
  231MOL0     C31763   3.566   4.367   6.636 -0.3529 -0.2105 -0.6830
  231MOL0     O31764   3.644   4.256   6.676 -0.8697 -0.1847  0.2188
  231MOL0     C31765   3.770   4.272   6.736 -0.4512 -0.0097  0.0623
  231MOL0     C31766   3.824   4.164   6.807 -0.1014 -0.2721 -0.7092
  231MOL0     C31767   3.949   4.162   6.869  1.2166 -1.0567 -0.0826
  231MOL0     C31768   3.985   4.033   6.947  0.2782 -0.8880  0.1591
  231MOL0     C31769   4.028   4.281   6.865 -0.1412 -0.3026  0.8404
  231MOL0     C31770   4.161   4.296   6.926 -0.7304  0.1905  0.6866
  231MOL0     O31771   4.226   4.406   6.881 -0.4444 -0.0855 -0.5416
  231MOL0     C31772   4.359   4.422   6.892 -0.6969 -0.9391  0.3107
  231MOL0     C31773   4.400   4.547   6.941 -0.1780 -0.6862 -1.0495
  231MOL0     C31774   4.537   4.585   6.944  1.0333 -0.0026  0.2636
  231MOL0     C31775   4.629   4.482   6.913 -0.1091 -1.5537  0.5842
  231MOL0     O31776   4.766   4.501   6.905 -0.2555 -0.3719 -0.5807
  231MOL0     C31777   4.822   4.631   6.902  1.3128  0.2213  0.2761
  231MOL0     C31778   4.971   4.644   6.901  0.0074  0.0889  0.1065
  231MOL0     C31779   5.037   4.560   6.794 -0.7189  0.1197  0.0108
  231MOL0     C31780   5.179   4.603   6.758 -0.6809  0.5205 -0.5111
  231MOL0     C31781   5.237   4.532   6.636  0.1369  0.7801  0.0927
  231MOL0     C31782   5.369   4.606   6.602  0.0926 -0.6825  0.3843
  231MOL0     C31783   5.399   4.566   6.449  0.1182 -0.2069 -0.4448
  231MOL0     C31784   5.536   4.610   6.400  0.0307 -0.4857  0.5301
  231MOL0    Cl31785   5.543   4.790   6.384  0.0538  0.0327  0.2712
  231MOL0     C31786   4.587   4.355   6.878 -0.0243  0.3096  0.0908
  231MOL0     C31787   4.450   4.329   6.866 -0.4232  0.1828  0.6311
  231MOL0     O31788   4.206   4.220   7.009 -0.1496 -0.8262  0.2331
  231MOL0     C31789   3.976   4.390   6.786 -0.0056 -0.5381 -0.8829
  231MOL0     C31790   3.845   4.388   6.735 -0.3587  0.5037  0.4407
  231MOL0     N31791   3.226   4.148   6.225  0.1869 -0.0041  0.4466
  231MOL0     N31792   3.247   4.066   6.138  0.1266 -0.2299 -0.1082
  231MOL0     C31793   2.553   3.481   5.457 -0.7041  0.7414 -0.7090
  231MOL0     C31794   2.429   3.462   5.402 -0.0973  0.0487 -0.4170
  231MOL0     C31795   1.983   3.516   5.328  0.3407  0.0263  0.8743
  231MOL0     C31796   1.998   3.397   5.254 -0.2009  0.0083  0.1517
  231MOL0     C31797   1.900   3.348   5.164  0.0751  0.0974 -0.0530
  231MOL0     C31798   1.789   3.430   5.139 -0.1310  0.3179 -0.1695
  231MOL0     O31799   1.702   3.383   5.043 -0.1787 -0.4317 -0.0473
  231MOL0     C31800   1.597   3.475   5.002 -0.0912  0.0569  0.2033
  231MOL0     C31801   1.464   3.450   5.085  0.4375 -1.0151 -0.2046
  231MOL0     C31802   1.350   3.531   5.026 -0.3414  0.7037 -0.7112
  231MOL0     C31803   1.303   3.639   5.121 -0.1808 -1.8801  0.8080
  231MOL0     C31804   1.402   3.725   5.176 -0.4039 -0.3278  0.3686
  231MOL0     C31805   1.486   3.796   5.221  0.7651 -0.4959  0.0318
  231MOL0     C31806   1.765   3.538   5.221  0.3992 -0.3817  0.6033
  231MOL0     C31807   1.864   3.578   5.314  0.8596 -0.4557  0.0119
  231MOL0     C31808   1.820   3.692   5.399  0.5165 -0.0869 -0.3191
  231MOL0     H31809   2.231   3.599   5.658  0.1874 -1.6031  0.9439
  231MOL0     H31810   2.461   3.604   5.757  4.5227 -1.5812  0.4324
  231MOL0     H31811   2.777   3.670   5.536  0.9082 -0.6931 -1.2950
  231MOL0     H31812   2.839   3.500   5.542 -1.7673 -0.7498 -1.2813
  231MOL0     H31813   2.844   3.717   5.754  1.6223 -0.3866  2.0131
  231MOL0     H31814   2.914   3.552   5.782 -2.9711 -0.7755 -0.3718
  231MOL0     H31815   3.048   3.573   5.580 -0.7497  0.2971 -1.0392
  231MOL0     H31816   3.007   3.742   5.564 -2.1058  0.9336  0.7311
  231MOL0     H31817   3.216   3.739   5.677 -1.5399  0.2512 -0.5179
  231MOL0     H31818   3.102   3.813   5.768  1.5183  1.2208 -2.5588
  231MOL0     H31819   3.200   3.518   5.812  1.1236  1.3020 -1.1653
  231MOL0     H31820   3.076   3.588   5.910  1.9990 -2.4343  0.4695
  231MOL0     H31821   3.317   3.583   6.006 -0.4164  0.7636  0.1285
  231MOL0     H31822   3.350   3.702   5.877 -0.3508 -0.9646 -1.3523
  231MOL0     H31823   3.138   3.732   6.100 -0.0172 -1.6358 -0.1330
  231MOL0     H31824   3.167   3.850   5.973  3.3220  0.8510 -2.7948
  231MOL0     H31825   3.370   3.755   6.185  2.2842 -0.5261 -2.5621
  231MOL0     H31826   3.411   3.872   6.061  0.3684  0.3909 -0.9953
  231MOL0     H31827   3.313   3.892   6.408  1.0938  2.3024  1.3710
  231MOL0     H31828   3.244   4.092   6.566 -1.9854  1.0567 -0.1252
  231MOL0     H31829   3.198   4.238   6.493 -2.1892 -1.6423  2.1415
  231MOL0     H31830   3.482   4.135   6.546  0.9870  2.1805  1.2131
  231MOL0     H31831   3.453   4.242   6.410  0.5185 -1.6601 -0.3869
  231MOL0     H31832   3.368   4.407   6.574  0.9790  0.0185 -2.4298
  231MOL0     H31833   3.378   4.296   6.716 -1.4741  1.2628  0.5009
  231MOL0     H31834   3.594   4.413   6.541  2.0021  0.4868  0.2484
  231MOL0     H31835   3.567   4.440   6.718 -4.7191 -0.7878  0.1119
  231MOL0     H31836   3.773   4.070   6.821 -0.9796  0.2328 -0.4171
  231MOL0     H31837   3.930   3.947   6.908 -0.0522 -1.8265  2.5520
  231MOL0     H31838   3.969   4.043   7.055 -1.9958  0.9185 -0.2669
  231MOL0     H31839   4.087   3.995   6.943  0.5407 -0.6027  2.5657
  231MOL0     H31840   4.320   4.613   6.973 -0.5144 -0.1660 -2.8103
  231MOL0     H31841   4.563   4.682   6.984 -0.4374  1.0146 -1.1693
  231MOL0     H31842   4.790   4.681   6.810 -2.9599 -1.2004  0.7867
  231MOL0     H31843   4.778   4.687   6.985  1.8625  1.3967 -0.1940
  231MOL0     H31844   5.005   4.748   6.897  1.9215 -0.5296 -0.6052
  231MOL0     H31845   5.010   4.602   6.994 -1.5655  0.3755  0.9375
  231MOL0     H31846   4.981   4.565   6.701 -0.4264  2.8350 -0.0977
  231MOL0     H31847   5.052   4.462   6.840 -3.3643 -0.8917 -1.0823
  231MOL0     H31848   5.234   4.572   6.847  0.5244  0.6700 -1.1799
  231MOL0     H31849   5.181   4.712   6.760  0.3471  0.5141 -0.5060
  231MOL0     H31850   5.247   4.428   6.668 -1.0332  0.8098  0.6220
  231MOL0     H31851   5.160   4.538   6.559 -1.5155  2.6289  1.7433
  231MOL0     H31852   5.450   4.582   6.671  0.2775 -1.3391 -0.0521
  231MOL0     H31853   5.348   4.713   6.606 -3.5326 -1.0774 -2.6093
  231MOL0     H31854   5.322   4.605   6.382  0.0718 -2.4704 -1.8162
  231MOL0     H31855   5.400   4.456   6.447  0.8284 -0.2571  1.1555
  231MOL0     H31856   5.555   4.565   6.302  1.2647 -2.6983  1.7142
  231MOL0     H31857   5.620   4.580   6.463  1.2371  1.3279 -0.1469
  231MOL0     H31858   4.662   4.280   6.858 -0.8683 -0.7747  0.8892
  231MOL0     H31859   4.414   4.232   6.835 -1.1711 -0.0179  2.0385
  231MOL0     H31860   4.040   4.475   6.762 -0.2115 -0.4295 -1.0556
  231MOL0     H31861   3.804   4.471   6.679 -0.0797  0.1676 -0.2641
  231MOL0     H31862   2.637   3.449   5.397 -1.4888 -0.9961 -0.9313
  231MOL0     H31863   2.405   3.431   5.301 -1.3926  0.0332 -0.1230
  231MOL0     H31864   2.087   3.336   5.262 -1.9176 -2.5775  0.6159
  231MOL0     H31865   1.911   3.254   5.112 -1.4585  0.1169 -0.4471
  231MOL0     H31866   1.635   3.577   5.005  3.2685 -0.9273 -2.5454
  231MOL0     H31867   1.580   3.444   4.899  2.9427 -3.0810  0.4767
  231MOL0     H31868   1.486   3.482   5.187  2.5050 -0.8416 -0.6611
  231MOL0     H31869   1.434   3.345   5.089  0.0995 -0.8829  1.1870
  231MOL0     H31870   1.382   3.578   4.932  1.9928  0.7000  0.0133
  231MOL0     H31871   1.272   3.460   4.996  1.5371 -1.5808 -0.5640
  231MOL0     H31872   1.257   3.584   5.203 -2.2997 -1.2669  0.0837
  231MOL0     H31873   1.222   3.695   5.073  2.4242  1.0287 -0.5962
  231MOL0     H31874   1.552   3.876   5.249 -2.0448  1.6872  0.9490
  231MOL0     H31875   1.683   3.608   5.211  1.4430  1.0029  1.3036
  231MOL0     H31876   1.712   3.696   5.386  0.8621  1.1315 -3.6456
  231MOL0     H31877   1.848   3.670   5.503  0.9366  2.4295  0.1578
  231MOL0     H31878   1.870   3.778   5.354  0.6712  0.6606  1.2122
  232MOL0     O31879   7.360   8.026   1.039 -0.3433  0.0881  0.4555
  232MOL0     C31880   7.334   7.949   0.939 -0.7648 -0.1249  0.1061
  232MOL0     O31881   7.429   7.894   0.861 -1.5013 -0.8161 -0.0622
  232MOL0     C31882   7.549   7.942   0.876 -0.2957 -0.7780  0.2169
  232MOL0     C31883   7.583   8.072   0.827  0.4092 -0.0629  0.2268
  232MOL0     C31884   7.705   8.129   0.863  0.2149 -0.3079  0.5768
  232MOL0     C31885   7.795   8.057   0.944 -0.6650 -1.0472 -0.1985
  232MOL0     O31886   7.921   8.103   0.993  0.5996  0.3754  0.3288
  232MOL0     C31887   7.968   8.236   0.964 -0.2532  0.3410  0.7403
  232MOL0     C31888   8.113   8.251   0.996  0.8320  0.8557  0.0720
  232MOL0     C31889   8.152   8.396   0.991  0.4835  0.2240  0.1342
  232MOL0     C31890   8.298   8.413   1.018  0.1105  0.2077 -0.2486
  232MOL0     C31891   8.341   8.557   1.025  0.5631  0.0613 -0.2301
  232MOL0     C31892   8.360   8.617   0.879 -0.2384  0.1761  0.4261
  232MOL0     C31893   8.380   8.769   0.887  0.1352 -0.6954  0.0310
  232MOL0     C31894   8.435   8.832   0.759 -0.0801 -0.4355  0.1706
  232MOL0     N31895   8.577   8.837   0.754 -0.6631  0.4970 -0.1539
  232MOL0     C31896   8.645   8.879   0.644 -1.2842 -0.5912 -0.4796
  232MOL0     C31897   8.774   8.862   0.677 -0.1603 -0.0553  0.0276
  232MOL0     C31898   8.899   8.920   0.596  0.7887  0.7058 -0.4400
  232MOL0     C31899   9.030   8.909   0.670 -0.2718 -0.3913  0.0428
  232MOL0     C31900   9.082   8.770   0.694  0.3896  0.3398 -0.0394
  232MOL0     C31901   9.229   8.769   0.700 -0.7076  1.2210  0.0157
  232MOL0     O31902   9.299   8.772   0.575  0.1083  0.2898  0.2310
  232MOL0     C31903   9.437   8.784   0.574  0.5451  0.2176 -0.1078
  232MOL0     C31904   9.492   8.777   0.452  0.4445  0.2911 -0.6695
  232MOL0     C31905   9.625   8.789   0.431  0.4133 -1.9453 -0.1164
  232MOL0     C31906   9.657   8.757   0.286  0.2832  0.2980  0.6131
  232MOL0     C31907   9.713   8.829   0.539  0.2306  0.3494 -0.4773
  232MOL0     C31908   9.861   8.828   0.525  0.1417  0.1269 -0.7682
  232MOL0     O31909   9.932   8.853   0.642 -0.3738 -0.0835  0.6583
  232MOL0     C31910  10.066   8.884   0.621 -0.0563 -0.1660 -0.4359
  232MOL0     C31911  10.166   8.819   0.697  0.0308 -0.1052 -0.6641
  232MOL0     C31912  10.303   8.842   0.673  0.0722  0.2832 -0.0661
  232MOL0     C31913  10.346   8.923   0.574 -0.5673 -0.2594  0.0893
  232MOL0     O31914  10.477   8.957   0.539 -0.0274 -0.8321  0.1999
  232MOL0     C31915  10.587   8.917   0.616  0.6316  0.5682 -0.3467
  232MOL0     C31916  10.600   9.030   0.720 -0.7453 -0.0709  0.1698
  232MOL0     C31917  10.743   9.050   0.766  0.2182  0.1672  0.0346
  232MOL0     C31918  10.816   8.914   0.796  1.1168  0.0201 -0.0551
  232MOL0     C31919  10.939   8.945   0.887  0.1703  0.5990 -0.4664
  232MOL0     C31920  11.032   9.063   0.836 -0.1267 -0.9565  0.4629
  232MOL0     C31921  11.168   9.060   0.895 -0.2869 -0.4290 -0.8902
  232MOL0     C31922  11.241   9.194   0.869 -0.4414  0.2715  0.1088
  232MOL0    Cl31923  11.230   9.234   0.694  0.3106  0.3974 -0.3159
  232MOL0     C31924  10.256   8.982   0.496  0.8373  0.4658 -0.3756
  232MOL0     C31925  10.120   8.961   0.513  0.1350 -0.7458 -0.5168
  232MOL0     O31926   9.909   8.786   0.421  0.5200 -0.1537 -0.3921
  232MOL0     C31927   9.655   8.828   0.668 -1.6225 -0.1095  0.3619
  232MOL0     C31928   9.527   8.799   0.685  0.1441 -0.6305  1.1125
  232MOL0     N31929   8.785   8.800   0.805 -0.7859  0.4027  0.0274
  232MOL0     N31930   8.662   8.783   0.848  0.0653  0.1693  0.4271
  232MOL0     C31931   7.760   7.926   0.979 -0.1779 -0.0167  0.1621
  232MOL0     C31932   7.641   7.873   0.945  0.4020  0.0010  0.3931
  232MOL0     C31933   7.198   7.899   0.931 -0.0685  0.2531 -0.1477
  232MOL0     C31934   7.178   7.808   0.825  0.1381  0.3338  0.3444
  232MOL0     C31935   7.067   7.742   0.810  0.8500  0.8479 -0.1039
  232MOL0     C31936   6.965   7.753   0.897  0.3818  0.3102 -0.1245
  232MOL0     O31937   6.859   7.683   0.866  0.4840  0.2659 -0.2112
  232MOL0     C31938   6.726   7.741   0.880  0.1849  0.3480 -0.5060
  232MOL0     C31939   6.704   7.860   0.786  0.8810 -0.4936 -0.1788
  232MOL0     C31940   6.553   7.901   0.777  0.5236  0.0583  0.5001
  232MOL0     C31941   6.539   8.038   0.711  0.2526 -0.1844  0.0018
  232MOL0     C31942   6.398   8.074   0.690 -0.4478  0.3238  0.7408
  232MOL0     C31943   6.296   8.122   0.644  0.0215  0.1167  0.6925
  232MOL0     C31944   6.971   7.845   0.999 -0.5499 -0.8675  0.6506
  232MOL0     C31945   7.091   7.917   1.025  0.4707  0.7216  0.7093
  232MOL0     C31946   7.102   7.990   1.162 -0.0888  0.4407 -0.6949
  232MOL0     H31947   7.502   8.115   0.767 -2.1925  0.6419  3.8647
  232MOL0     H31948   7.727   8.235   0.855  0.2817  0.1628  4.8368
  232MOL0     H31949   7.913   8.309   1.025  1.3418 -0.3147  3.0932
  232MOL0     H31950   7.960   8.255   0.857  0.0983  0.3510  0.7170
  232MOL0     H31951   8.116   8.218   1.100  0.9407  0.3836 -0.0815
  232MOL0     H31952   8.170   8.183   0.933  1.0591  2.2150 -1.2497
  232MOL0     H31953   8.132   8.427   0.888  1.9082  0.3315 -0.1328
  232MOL0     H31954   8.085   8.450   1.058 -0.3154  1.2784 -1.4532
  232MOL0     H31955   8.307   8.375   1.120 -2.5561  0.3823  0.1115
  232MOL0     H31956   8.366   8.365   0.947 -0.4475 -3.3546  1.3863
  232MOL0     H31957   8.439   8.571   1.072  0.0518 -0.9024  1.2004
  232MOL0     H31958   8.274   8.615   1.089  0.2382 -1.1339  0.5522
  232MOL0     H31959   8.452   8.570   0.842  1.0389  0.2450  3.2559
  232MOL0     H31960   8.275   8.589   0.817  0.6427  0.8494 -1.1520
  232MOL0     H31961   8.433   8.798   0.978  2.8264 -0.0844 -1.6338
  232MOL0     H31962   8.279   8.810   0.898  0.2054 -0.1683 -1.1801
  232MOL0     H31963   8.401   8.782   0.667 -0.3270 -1.8066  0.9828
  232MOL0     H31964   8.400   8.935   0.767  3.7930  0.9147  2.0194
  232MOL0     H31965   8.610   8.943   0.563 -1.2359  0.8745  0.6152
  232MOL0     H31966   8.880   9.025   0.572  0.3409  0.2489 -2.1900
  232MOL0     H31967   8.903   8.853   0.510 -1.5180  0.6174 -0.5400
  232MOL0     H31968   9.101   8.975   0.620  0.1172  1.8595  3.2852
  232MOL0     H31969   9.011   8.954   0.767 -2.2909 -2.3457  0.6544
  232MOL0     H31970   9.023   8.727   0.776 -0.1487 -0.4593 -0.8196
  232MOL0     H31971   9.054   8.712   0.606  1.7103  0.9561 -0.8897
  232MOL0     H31972   9.256   8.850   0.768 -0.5213 -0.1143  1.6166
  232MOL0     H31973   9.268   8.676   0.743  0.9421  0.8136 -2.1503
  232MOL0     H31974   9.434   8.748   0.365  0.2769  0.9552 -0.7820
  232MOL0     H31975   9.726   8.672   0.286 -0.9311 -0.7687 -1.6902
  232MOL0     H31976   9.715   8.836   0.237  0.8324 -0.4896 -0.0148
  232MOL0     H31977   9.570   8.728   0.227  0.9773 -1.5115  0.4123
  232MOL0     H31978  10.134   8.740   0.763  3.3684 -1.9530 -1.0380
  232MOL0     H31979  10.365   8.780   0.737  2.5749  1.7307 -0.9518
  232MOL0     H31980  10.588   8.817   0.659 -1.9196  1.5080  2.1694
  232MOL0     H31981  10.673   8.904   0.549  0.3020 -3.6787 -0.2233
  232MOL0     H31982  10.567   9.122   0.670  0.4944 -0.9589 -2.4716
  232MOL0     H31983  10.537   9.012   0.807 -1.6724 -0.9502 -0.6520
  232MOL0     H31984  10.737   9.106   0.860 -1.6211 -1.8253  1.1918
  232MOL0     H31985  10.800   9.104   0.690  0.3822 -0.5190 -0.3405
  232MOL0     H31986  10.855   8.861   0.709  0.2850  0.5435 -0.7638
  232MOL0     H31987  10.748   8.851   0.854  0.5908  0.9467  0.3509
  232MOL0     H31988  10.906   8.966   0.989  0.4785  0.7170 -0.3907
  232MOL0     H31989  10.993   8.850   0.893 -2.6638 -1.0284  2.0898
  232MOL0     H31990  10.972   9.153   0.851 -0.1392 -0.1974 -3.2969
  232MOL0     H31991  11.032   9.063   0.727 -5.1738  1.6956  0.1497
  232MOL0     H31992  11.230   8.976   0.860  0.5817 -0.1968  0.0601
  232MOL0     H31993  11.150   9.050   1.002 -1.1027  0.1360 -0.9736
  232MOL0     H31994  11.348   9.182   0.887  0.1888 -0.0474 -3.1073
  232MOL0     H31995  11.195   9.277   0.924  0.4112  1.7776 -1.3433
  232MOL0     H31996  10.291   9.025   0.403  1.5904 -0.1261 -0.3776
  232MOL0     H31997  10.044   9.008   0.452 -0.9880 -0.1670  1.2294
  232MOL0     H31998   9.712   8.839   0.760 -1.5207 -2.1045  0.5888
  232MOL0     H31999   9.486   8.792   0.785 -2.4282 -2.4965  0.0323
  232MOL0     H32000   7.828   7.866   1.039 -1.6440 -1.1450  0.7891
  232MOL0     H32001   7.612   7.781   0.995 -0.9468 -0.4228 -1.0638
  232MOL0     H32002   7.254   7.792   0.749 -1.1865 -2.7004 -0.5049
  232MOL0     H32003   7.046   7.675   0.727  1.6689  1.4166 -0.7925
  232MOL0     H32004   6.646   7.667   0.865 -2.9768  2.7940  2.5774
  232MOL0     H32005   6.706   7.773   0.983 -0.2598 -0.1270 -0.4347
  232MOL0     H32006   6.739   7.830   0.687 -1.6963 -0.2010 -1.2609
  232MOL0     H32007   6.767   7.933   0.837  2.5058 -1.6313 -0.4675
  232MOL0     H32008   6.507   7.835   0.703  1.3343 -0.1641  0.1748
  232MOL0     H32009   6.516   7.894   0.880  0.3838 -2.4052  0.3324
  232MOL0     H32010   6.588   8.021   0.615  0.6605  2.2854 -0.2986
  232MOL0     H32011   6.592   8.107   0.778  1.6470 -3.7367  2.9066
  232MOL0     H32012   6.201   8.168   0.625 -0.7847 -1.0387  1.7875
  232MOL0     H32013   6.887   7.854   1.068 -1.1994 -0.3965 -0.1770
  232MOL0     H32014   7.006   7.994   1.213 -0.7952 -1.4715 -1.7811
  232MOL0     H32015   7.161   7.931   1.232 -1.9038  0.6206  1.0751
  232MOL0     H32016   7.155   8.085   1.149  1.9929 -0.8677 -2.5006
  233MOL0     O32017   6.030   8.554   5.145 -0.5123 -0.5438  0.4905
  233MOL0     C32018   5.981   8.670   5.145  0.6898 -0.1203  1.0430
  233MOL0     O32019   6.053   8.787   5.136  0.0846 -0.1167 -0.4465
  233MOL0     C32020   6.180   8.772   5.181  0.4226 -0.6040 -0.0162
  233MOL0     C32021   6.290   8.800   5.097 -0.0853  0.2135  1.0051
  233MOL0     C32022   6.415   8.793   5.144 -0.0037  0.4929 -0.5529
  233MOL0     C32023   6.439   8.761   5.281 -0.6541 -1.1802  0.1605
  233MOL0     O32024   6.570   8.755   5.325  0.5229  0.2160 -0.2125
  233MOL0     C32025   6.590   8.758   5.472  0.3562  0.1744 -0.0567
  233MOL0     C32026   6.737   8.766   5.511 -0.9113 -0.2594  0.0715
  233MOL0     C32027   6.832   8.667   5.443  0.2952  0.0193 -0.2150
  233MOL0     C32028   6.936   8.610   5.542  0.4120 -0.1256 -0.2208
  233MOL0     C32029   7.003   8.482   5.487 -0.1514 -0.1459 -0.3629
  233MOL0     C32030   7.073   8.477   5.353  0.1639  0.1226 -0.2945
  233MOL0     C32031   7.169   8.596   5.330 -0.1652  1.1523  0.3865
  233MOL0     C32032   7.304   8.575   5.394 -0.2500 -0.0932 -0.3701
  233MOL0     N32033   7.380   8.691   5.438 -0.2165 -0.8301  0.9641
  233MOL0     C32034   7.487   8.747   5.372 -0.3597  0.2161 -0.3499
  233MOL0     C32035   7.498   8.876   5.409 -0.1649  0.7375  0.1434
  233MOL0     C32036   7.596   8.970   5.363 -0.8229 -0.9227  0.5496
  233MOL0     C32037   7.719   8.962   5.448 -0.9245  0.4392 -0.7315
  233MOL0     C32038   7.698   9.039   5.573 -0.7300  0.0943 -0.4794
  233MOL0     C32039   7.807   9.022   5.676  0.5329  0.5418  0.4138
  233MOL0     O32040   7.934   9.048   5.607 -0.1428  0.1774 -0.3814
  233MOL0     C32041   8.046   9.047   5.689  0.0675  0.5692 -0.3915
  233MOL0     C32042   8.153   8.985   5.642  0.6714  0.3411 -0.5716
  233MOL0     C32043   8.281   8.977   5.705 -0.6664 -0.6487 -0.0077
  233MOL0     C32044   8.396   8.922   5.625 -0.6456 -0.2788  0.3644
  233MOL0     C32045   8.291   9.035   5.826 -0.2669  0.3059 -0.3408
  233MOL0     C32046   8.429   9.043   5.885  0.4764 -0.5632 -0.6647
  233MOL0     O32047   8.417   9.048   6.022  0.1804  0.0003 -0.5693
  233MOL0     C32048   8.532   9.047   6.101 -0.6296  0.0186  0.4506
  233MOL0     C32049   8.521   9.103   6.225 -0.3097 -0.0154 -0.2686
  233MOL0     C32050   8.631   9.115   6.309 -0.1063 -0.0853  0.3837
  233MOL0     C32051   8.752   9.064   6.275 -0.3164  0.1612  1.1511
  233MOL0     O32052   8.862   9.073   6.356 -0.4402 -0.2629  1.2845
  233MOL0     C32053   8.836   9.093   6.500  0.1171 -1.1827  0.0677
  233MOL0     C32054   8.957   9.091   6.597  0.6125  0.3918 -0.6997
  233MOL0     C32055   9.040   8.956   6.601 -0.2981 -0.4203  0.0011
  233MOL0     C32056   9.185   8.992   6.605 -0.5595 -0.5367 -0.7308
  233MOL0     C32057   9.276   8.872   6.589 -1.0026 -0.1800  0.1087
  233MOL0     C32058   9.264   8.772   6.701  0.9607  0.0093 -0.6893
  233MOL0     C32059   9.351   8.645   6.678 -0.0154  0.3080  0.1869
  233MOL0     C32060   9.499   8.681   6.694 -0.0232 -0.2983 -0.8006
  233MOL0    Cl32061   9.581   8.524   6.675  0.0672 -0.3690  0.0234
  233MOL0     C32062   8.771   9.002   6.147 -0.3031 -0.1621  0.3748
  233MOL0     C32063   8.665   9.003   6.062  0.7559 -0.1814  0.6728
  233MOL0     O32064   8.524   9.075   5.819  0.4399  0.0808 -0.1109
  233MOL0     C32065   8.178   9.092   5.882  0.2105  0.2220  0.2982
  233MOL0     C32066   8.053   9.103   5.815 -0.4191 -0.1572  0.1630
  233MOL0     N32067   7.398   8.903   5.497  0.6335 -0.6470  0.0395
  233MOL0     N32068   7.327   8.796   5.516 -0.2964  0.7308 -0.1663
  233MOL0     C32069   6.329   8.735   5.367  0.1129  0.1965  0.9766
  233MOL0     C32070   6.197   8.749   5.320  0.4213 -0.4259  0.8760
  233MOL0     C32071   5.832   8.690   5.176 -0.4100 -0.0952  0.1614
  233MOL0     C32072   5.794   8.814   5.228  0.1752  0.0906 -0.5528
  233MOL0     C32073   5.660   8.833   5.257  0.2385 -0.7391 -0.1107
  233MOL0     C32074   5.570   8.732   5.245  0.1084 -0.1812  0.7373
  233MOL0     O32075   5.436   8.753   5.253 -0.6574  0.7820 -0.2662
  233MOL0     C32076   5.397   8.816   5.371  1.0828 -0.7181  0.8990
  233MOL0     C32077   5.301   8.937   5.334  0.0783  0.2620 -0.0702
  233MOL0     C32078   5.219   8.973   5.453 -0.1721  0.1226  0.1077
  233MOL0     C32079   5.134   9.100   5.428  0.3158 -0.1743  0.7093
  233MOL0     C32080   5.013   9.071   5.344  0.1720 -0.1762  0.4830
  233MOL0     C32081   4.926   9.033   5.267  0.3766 -0.0785 -0.3494
  233MOL0     C32082   5.609   8.614   5.186  1.4583  0.1333 -0.7966
  233MOL0     C32083   5.739   8.592   5.151 -0.1717 -0.7436 -0.2575
  233MOL0     C32084   5.762   8.458   5.095 -0.6404 -0.4813  1.2869
  233MOL0     H32085   6.279   8.814   4.990  1.4717 -3.6631  0.1807
  233MOL0     H32086   6.496   8.803   5.073  2.2479 -0.7804  1.6760
  233MOL0     H32087   6.539   8.670   5.512  0.0232 -0.2171 -1.2969
  233MOL0     H32088   6.538   8.851   5.495 -0.8894 -0.5578  0.1623
  233MOL0     H32089   6.781   8.865   5.499 -0.7749 -0.4046 -0.7191
  233MOL0     H32090   6.736   8.745   5.618  1.8272 -1.5730 -0.0498
  233MOL0     H32091   6.774   8.576   5.424 -0.0608  0.4032 -1.0379
  233MOL0     H32092   6.889   8.701   5.356  0.7766 -0.4877 -0.1023
  233MOL0     H32093   7.007   8.692   5.554 -0.8540  1.3377 -1.9672
  233MOL0     H32094   6.897   8.584   5.641  1.6540 -1.4272 -0.0440
  233MOL0     H32095   6.935   8.396   5.479  0.8719 -0.9391 -0.7573
  233MOL0     H32096   7.071   8.457   5.569 -0.0850  0.2714 -0.2901
  233MOL0     H32097   7.130   8.384   5.347  1.6043  0.8817  0.8329
  233MOL0     H32098   6.995   8.475   5.276 -1.2564 -5.4647  0.8479
  233MOL0     H32099   7.124   8.688   5.369 -2.2469 -0.5748  2.3755
  233MOL0     H32100   7.188   8.609   5.223  2.2615 -1.4491  0.3827
  233MOL0     H32101   7.294   8.508   5.480 -2.1941 -1.1362 -1.3368
  233MOL0     H32102   7.377   8.526   5.328  0.5707  0.5032  0.0790
  233MOL0     H32103   7.547   8.696   5.297 -0.2975 -0.7196  0.3138
  233MOL0     H32104   7.542   9.064   5.373  1.0550  0.1329  1.1567
  233MOL0     H32105   7.616   8.963   5.255 -1.4043  2.0344  0.1750
  233MOL0     H32106   7.750   8.860   5.474 -0.1503  1.4106  2.5946
  233MOL0     H32107   7.804   9.007   5.397  0.3086 -2.2053 -1.2117
  233MOL0     H32108   7.702   9.145   5.547  0.7938  0.4626  1.0925
  233MOL0     H32109   7.603   9.018   5.622 -0.3816  1.3623  0.8044
  233MOL0     H32110   7.792   9.074   5.772 -0.1940  0.4394  0.3565
  233MOL0     H32111   7.804   8.918   5.711  0.6830  0.1653 -0.6520
  233MOL0     H32112   8.129   8.939   5.547  1.3820 -0.9616 -0.1394
  233MOL0     H32113   8.356   8.878   5.533  0.3611 -0.8639  0.1854
  233MOL0     H32114   8.451   8.849   5.685  0.7108  2.5115  2.8054
  233MOL0     H32115   8.459   9.008   5.601 -0.1979 -0.7447 -0.1670
  233MOL0     H32116   8.426   9.135   6.267 -0.0624 -0.8107  0.9611
  233MOL0     H32117   8.624   9.174   6.400  1.2697  1.3193 -0.3788
  233MOL0     H32118   8.807   9.198   6.509 -0.0078 -1.0955 -1.1404
  233MOL0     H32119   8.754   9.036   6.545  0.3622  0.0478  2.1924
  233MOL0     H32120   9.023   9.171   6.561  0.0655  0.4966 -1.4979
  233MOL0     H32121   8.929   9.103   6.702  0.7633  3.2926 -0.9020
  233MOL0     H32122   9.015   8.901   6.509  2.6440 -1.7144 -0.1423
  233MOL0     H32123   9.001   8.894   6.682  2.4697  1.7869  3.2811
  233MOL0     H32124   9.211   9.044   6.698  3.5981 -1.3448 -1.2497
  233MOL0     H32125   9.214   9.062   6.526 -3.3631  0.4290 -1.0269
  233MOL0     H32126   9.262   8.824   6.492 -0.0632 -1.6222  0.6465
  233MOL0     H32127   9.380   8.904   6.579 -1.5688  1.8290  0.2964
  233MOL0     H32128   9.159   8.746   6.712  0.3596  0.6224 -3.8237
  233MOL0     H32129   9.301   8.815   6.794  1.5721 -1.2416 -0.3221
  233MOL0     H32130   9.332   8.607   6.577 -2.4545 -2.1221  1.4520
  233MOL0     H32131   9.320   8.565   6.745  0.1700 -0.0308 -0.1287
  233MOL0     H32132   9.516   8.727   6.792 -0.2992 -1.1874 -0.3230
  233MOL0     H32133   9.522   8.747   6.610 -0.0307 -1.3084 -1.6125
  233MOL0     H32134   8.868   8.964   6.116 -0.7125 -0.2749 -0.8013
  233MOL0     H32135   8.676   8.961   5.962  1.4651 -0.6280  0.9370
  233MOL0     H32136   8.198   9.150   5.972  1.3752  0.2712  0.0316
  233MOL0     H32137   7.968   9.156   5.856 -0.0753 -0.3446  1.1452
  233MOL0     H32138   6.336   8.699   5.469  0.4325  0.2527  0.9752
  233MOL0     H32139   6.113   8.737   5.387  0.9298  0.3439  1.6718
  233MOL0     H32140   5.858   8.895   5.259 -0.8228  0.2488  1.2319
  233MOL0     H32141   5.635   8.933   5.291  1.6825  0.3095 -1.9276
  233MOL0     H32142   5.348   8.745   5.438  2.3430 -2.3734  0.1508
  233MOL0     H32143   5.478   8.859   5.433 -0.6701  1.6397  1.7307
  233MOL0     H32144   5.231   8.903   5.257 -0.7439  1.4061  0.1334
  233MOL0     H32145   5.356   9.024   5.296  1.7112 -0.5359  0.3796
  233MOL0     H32146   5.162   8.888   5.492 -0.6437  0.9288  1.2337
  233MOL0     H32147   5.298   8.977   5.529  0.2974 -2.2517 -0.1850
  233MOL0     H32148   5.186   9.184   5.380 -0.2248 -2.3128 -4.1674
  233MOL0     H32149   5.102   9.121   5.530 -0.1724 -0.5838  0.6391
  233MOL0     H32150   4.850   9.012   5.195  0.6354  0.6286 -0.8409
  233MOL0     H32151   5.531   8.541   5.167  0.0637  1.3665 -0.0518
  233MOL0     H32152   5.815   8.412   5.179 -0.1809  0.7802  1.7116
  233MOL0     H32153   5.676   8.405   5.053 -1.0920  3.9114 -4.7841
  233MOL0     H32154   5.833   8.461   5.012 -2.2804 -1.3090 -0.2097
  234MOL0     O32155  10.012   2.587   3.371  0.4929  0.2510  0.5597
  234MOL0     C32156   9.976   2.599   3.252  0.5848  0.7857  0.5635
  234MOL0     O32157  10.037   2.549   3.151 -0.1097 -1.0741 -0.4869
  234MOL0     C32158  10.175   2.540   3.154 -0.5232  0.4555  0.1297
  234MOL0     C32159  10.218   2.428   3.080 -0.5616  0.4649 -0.1849
  234MOL0     C32160  10.355   2.407   3.057  0.3626  0.6012  0.4565
  234MOL0     C32161  10.445   2.485   3.121 -1.4822  0.1190  0.0590
  234MOL0     O32162  10.577   2.458   3.103  0.0604 -0.2808 -0.1109
  234MOL0     C32163  10.685   2.536   3.160  0.8900  0.5074 -0.4600
  234MOL0     C32164  10.816   2.481   3.096  0.6849 -0.4580 -0.4521
  234MOL0     C32165  10.939   2.519   3.174 -0.2425  0.2436  0.0528
  234MOL0     C32166  10.941   2.673   3.215  0.1742 -0.4996  0.3464
  234MOL0     C32167  11.082   2.726   3.218 -0.4469 -0.1892  0.0149
  234MOL0     C32168  11.142   2.707   3.363 -0.3341 -0.2360 -0.1421
  234MOL0     C32169  11.298   2.697   3.363 -0.2945 -0.5697  0.1389
  234MOL0     C32170  11.363   2.823   3.312  0.0057 -0.5454 -0.4774
  234MOL0     N32171  11.509   2.806   3.307  0.3129  0.0655 -0.2247
  234MOL0     C32172  11.593   2.854   3.214 -1.2316 -0.3407  0.2105
  234MOL0     C32173  11.717   2.827   3.270 -0.6532 -0.3503  0.1484
  234MOL0     C32174  11.843   2.848   3.195 -0.3704 -0.6834  0.2799
  234MOL0     C32175  11.848   2.948   3.078  0.9434  0.2253 -0.4783
  234MOL0     C32176  11.984   2.963   3.033  0.1682  0.7499  0.2880
  234MOL0     C32177  12.075   3.053   3.108  0.0251  0.2506 -0.1263
  234MOL0     O32178  12.210   3.045   3.046 -0.1517  0.0122  0.1415
  234MOL0     C32179  12.313   3.094   3.122 -0.2435  0.1620 -0.5919
  234MOL0     C32180  12.447   3.054   3.091 -0.2440  0.0880  0.0078
  234MOL0     C32181  12.557   3.092   3.168  0.0172  0.6353  0.4081
  234MOL0     C32182  12.691   3.034   3.144 -0.2836 -0.5614 -0.2326
  234MOL0     C32183  12.543   3.183   3.273 -0.7808 -0.8029 -0.8739
  234MOL0     C32184  12.643   3.233   3.368 -0.1558 -1.0872 -0.2093
  234MOL0     O32185  12.751   3.304   3.318 -0.4924 -0.1013  0.1853
  234MOL0     C32186  12.853   3.327   3.410  0.7585 -0.6647  0.1591
  234MOL0     C32187  12.932   3.224   3.460 -0.2966 -0.5949 -0.1580
  234MOL0     C32188  13.032   3.251   3.547 -0.2294  0.3229  0.1686
  234MOL0     C32189  13.061   3.380   3.591 -0.2754 -0.6236 -0.0781
  234MOL0     O32190  13.162   3.391   3.682  0.0232  0.4389  0.4141
  234MOL0     C32191  13.165   3.509   3.761  0.2030  0.5790  0.8324
  234MOL0     C32192  13.294   3.521   3.852  0.5104 -0.6472  0.7589
  234MOL0     C32193  13.422   3.503   3.760  0.4704 -0.3833  0.1763
  234MOL0     C32194  13.557   3.533   3.828 -0.5074 -0.2958 -0.3197
  234MOL0     C32195  13.678   3.503   3.730 -0.3354  0.1681  0.0006
  234MOL0     C32196  13.809   3.558   3.773 -0.0440 -0.5834 -0.4042
  234MOL0     C32197  13.934   3.505   3.706 -0.0886 -1.0425 -0.3196
  234MOL0     C32198  14.061   3.573   3.767 -0.7830 -0.3179 -0.7602
  234MOL0    Cl32199  14.206   3.523   3.681  0.4938 -0.0491  0.0834
  234MOL0     C32200  12.973   3.482   3.562 -0.0373  0.1561 -0.2292
  234MOL0     C32201  12.864   3.450   3.473  0.6010  1.2524 -0.9296
  234MOL0     O32202  12.619   3.217   3.490 -0.5909 -0.8084  0.1833
  234MOL0     C32203  12.414   3.229   3.291  0.1202 -0.8434 -0.0770
  234MOL0     C32204  12.300   3.179   3.230  0.4687  0.4906 -1.0959
  234MOL0     N32205  11.706   2.761   3.389 -0.0165 -0.1672  0.1274
  234MOL0     N32206  11.579   2.737   3.401  0.0481 -0.2686  0.5789
  234MOL0     C32207  10.404   2.588   3.202  0.0996 -0.0018  0.2315
  234MOL0     C32208  10.270   2.621   3.215 -0.2396  0.6648  0.5570
  234MOL0     C32209   9.847   2.656   3.239  0.0402  0.4846  0.0311
  234MOL0     C32210   9.799   2.745   3.349 -0.0075  0.4307 -0.4152
  234MOL0     C32211   9.683   2.815   3.328  0.0114  0.9442  0.0169
  234MOL0     C32212   9.600   2.789   3.221 -0.1448 -0.3631  0.3631
  234MOL0     O32213   9.477   2.830   3.206 -0.0580  0.2255  0.0345
  234MOL0     C32214   9.416   2.919   3.297  0.0546 -0.0589 -0.5069
  234MOL0     C32215   9.265   2.921   3.271 -0.4676 -0.6369 -0.1940
  234MOL0     C32216   9.208   2.780   3.307 -0.3951 -0.4204 -0.6266
  234MOL0     C32217   9.060   2.797   3.306  0.0902  0.0737 -0.4342
  234MOL0     C32218   8.983   2.678   3.321  0.3379 -0.9058 -0.7036
  234MOL0     C32219   8.923   2.580   3.339  0.7064  0.4760 -0.0623
  234MOL0     C32220   9.641   2.707   3.120 -0.2394  0.1777  0.9276
  234MOL0     C32221   9.761   2.637   3.119 -0.2520  0.3642 -0.3390
  234MOL0     C32222   9.791   2.541   3.008 -0.4721 -0.5364 -0.7340
  234MOL0     H32223  10.141   2.361   3.043  0.0613  1.1403 -2.9876
  234MOL0     H32224  10.384   2.326   2.990 -0.2458  0.5995  0.1844
  234MOL0     H32225  10.687   2.508   3.266 -1.0883 -2.2354 -1.0328
  234MOL0     H32226  10.674   2.644   3.147 -2.0759  0.3455  0.0796
  234MOL0     H32227  10.810   2.372   3.089  1.8098 -0.4614 -1.8170
  234MOL0     H32228  10.824   2.516   2.993  0.7550  0.9548  0.0076
  234MOL0     H32229  10.938   2.456   3.264  0.5497  1.2426  0.7969
  234MOL0     H32230  11.030   2.507   3.114  0.4394 -0.4218  1.1799
  234MOL0     H32231  10.883   2.726   3.139 -0.0204  0.2501  1.0044
  234MOL0     H32232  10.895   2.689   3.313 -0.2220  0.0277  0.0820
  234MOL0     H32233  11.093   2.833   3.197  0.5725 -0.3462 -0.3091
  234MOL0     H32234  11.151   2.687   3.142  0.0454 -0.5945  0.6648
  234MOL0     H32235  11.110   2.791   3.426  1.0265  1.0088 -1.0692
  234MOL0     H32236  11.119   2.611   3.410  1.8537 -0.8424 -0.1810
  234MOL0     H32237  11.339   2.614   3.304  0.5229  0.3590 -0.6428
  234MOL0     H32238  11.331   2.680   3.466 -0.2432  0.1426  0.2416
  234MOL0     H32239  11.328   2.843   3.210 -0.5659  1.4001  0.0465
  234MOL0     H32240  11.346   2.908   3.378  0.6667  0.0284 -1.0240
  234MOL0     H32241  11.561   2.893   3.117 -1.3572 -1.4057 -0.1870
  234MOL0     H32242  11.884   2.753   3.159  1.8330  0.2832  0.0805
  234MOL0     H32243  11.909   2.888   3.272 -0.7935  0.9488 -0.1729
  234MOL0     H32244  11.784   2.916   2.995 -1.0935 -0.0644  1.1211
  234MOL0     H32245  11.817   3.046   3.117  3.3272  1.4776 -1.5374
  234MOL0     H32246  12.035   2.867   3.017 -0.2414  0.2464  1.8342
  234MOL0     H32247  11.962   3.008   2.935  1.1375  0.1311 -0.2353
  234MOL0     H32248  12.049   3.159   3.107 -0.6571  0.0866 -0.8201
  234MOL0     H32249  12.067   3.015   3.210  0.0011 -0.6062 -0.4368
  234MOL0     H32250  12.470   2.994   3.004  1.9735  1.2631 -0.2680
  234MOL0     H32251  12.772   3.072   3.208 -2.7297  2.2288  1.4684
  234MOL0     H32252  12.716   3.053   3.039  1.5389  1.1038  0.4382
  234MOL0     H32253  12.678   2.926   3.159  0.8010 -0.5727  0.7814
  234MOL0     H32254  12.929   3.128   3.409  0.0744 -0.8001  0.2019
  234MOL0     H32255  13.093   3.167   3.579 -1.1689  0.7340  3.4014
  234MOL0     H32256  13.165   3.592   3.690  0.2426 -2.1932 -2.7078
  234MOL0     H32257  13.075   3.525   3.820 -0.7198 -1.4420  0.0674
  234MOL0     H32258  13.292   3.623   3.892  1.9735  0.5526 -1.9373
  234MOL0     H32259  13.288   3.448   3.933  0.3640 -1.9844 -0.4156
  234MOL0     H32260  13.423   3.561   3.668 -1.6815 -3.0465 -1.6911
  234MOL0     H32261  13.413   3.402   3.717  0.4409  0.4202 -1.8331
  234MOL0     H32262  13.576   3.476   3.920  1.2606  3.0896  1.6131
  234MOL0     H32263  13.574   3.636   3.862  2.5614 -0.2487 -1.6798
  234MOL0     H32264  13.693   3.395   3.722  0.4639  0.1930  0.9476
  234MOL0     H32265  13.655   3.545   3.631  3.1598  0.8650 -0.6412
  234MOL0     H32266  13.810   3.540   3.881 -3.8025  1.4844  0.1532
  234MOL0     H32267  13.810   3.667   3.764 -0.6446 -0.5127  0.3087
  234MOL0     H32268  13.926   3.534   3.601 -2.4098 -2.4721 -0.6323
  234MOL0     H32269  13.952   3.397   3.700  1.8860 -0.8468  1.2862
  234MOL0     H32270  14.067   3.535   3.870 -0.2798  0.5770 -0.4495
  234MOL0     H32271  14.058   3.683   3.766  1.3413 -0.1313  1.7229
  234MOL0     H32272  12.983   3.586   3.592 -0.2112  1.1368 -3.2851
  234MOL0     H32273  12.789   3.524   3.448 -1.1628 -0.6799 -1.7441
  234MOL0     H32274  12.405   3.304   3.370  2.4869 -2.1543  1.5488
  234MOL0     H32275  12.205   3.229   3.243 -0.0998 -0.8876  0.2924
  234MOL0     H32276  10.472   2.648   3.261  3.0619 -0.9500 -1.9853
  234MOL0     H32277  10.235   2.702   3.278 -1.8391  0.6224 -0.2410
  234MOL0     H32278   9.866   2.773   3.429 -0.5379 -0.2891  0.2944
  234MOL0     H32279   9.662   2.876   3.416  3.1210 -0.4815  1.9490
  234MOL0     H32280   9.433   2.868   3.393  0.6346 -2.5163 -1.8313
  234MOL0     H32281   9.457   3.019   3.286  0.3068 -0.1781 -0.6402
  234MOL0     H32282   9.232   2.949   3.170 -1.1982 -1.4765 -0.2117
  234MOL0     H32283   9.221   2.998   3.335  0.9005 -1.2731  1.5983
  234MOL0     H32284   9.238   2.696   3.244 -0.0061 -1.1248  0.4804
  234MOL0     H32285   9.248   2.747   3.403 -0.1478 -1.7441 -1.1606
  234MOL0     H32286   9.025   2.846   3.215  0.7925  0.8289 -0.3110
  234MOL0     H32287   9.034   2.860   3.391 -2.0951 -3.2873  1.6641
  234MOL0     H32288   8.871   2.488   3.358 -1.5990  1.1817 -2.3020
  234MOL0     H32289   9.580   2.689   3.031  0.0697 -1.6978  1.0620
  234MOL0     H32290   9.694   2.527   2.958 -0.5709  1.5999 -1.2196
  234MOL0     H32291   9.863   2.582   2.937  1.9887 -2.8528  0.2712
  234MOL0     H32292   9.818   2.444   3.051 -3.4488 -0.4960  1.5570
  235MOL0     O32293  10.737   1.866   5.360 -0.8775 -0.4208 -1.4015
  235MOL0     C32294  10.659   1.774   5.396 -0.1086 -0.5233 -0.9128
  235MOL0     O32295  10.679   1.687   5.506  0.0668  0.2918  0.2099
  235MOL0     C32296  10.808   1.669   5.549  1.3708  0.3237  0.2546
  235MOL0     C32297  10.811   1.599   5.669  0.3415 -0.1734  1.4282
  235MOL0     C32298  10.928   1.597   5.744  0.0148  0.2554  0.2862
  235MOL0     C32299  11.046   1.631   5.683  0.1601  0.1123  0.4919
  235MOL0     O32300  11.159   1.632   5.755 -0.2014  0.1822 -0.3581
  235MOL0     C32301  11.250   1.744   5.749 -1.0091  0.0804  0.7098
  235MOL0     C32302  11.324   1.752   5.877  0.0344 -0.1591  0.0524
  235MOL0     C32303  11.439   1.846   5.885  0.5747  0.4998  0.3252
  235MOL0     C32304  11.572   1.780   5.835  0.5474 -0.1967  0.6566
  235MOL0     C32305  11.689   1.862   5.889  0.3820 -0.3184 -0.4213
  235MOL0     C32306  11.704   2.001   5.817  0.7827 -0.6328 -1.4095
  235MOL0     C32307  11.721   1.989   5.668 -0.7149  0.1528 -0.3471
  235MOL0     C32308  11.829   1.893   5.619  0.8114 -0.8687 -0.0690
  235MOL0     N32309  11.968   1.931   5.663 -0.0255 -0.1458 -0.2742
  235MOL0     C32310  12.032   2.052   5.629  0.2546  0.3203  1.2116
  235MOL0     C32311  12.163   2.045   5.667  0.6752  0.0219 -0.0093
  235MOL0     C32312  12.261   2.152   5.636  1.3008  0.6560 -0.2644
  235MOL0     C32313  12.384   2.158   5.719  0.4274 -1.1492 -0.7214
  235MOL0     C32314  12.490   2.053   5.684 -0.7173  0.0459 -0.1174
  235MOL0     C32315  12.607   2.053   5.787 -0.1614  0.1113  0.3742
  235MOL0     O32316  12.683   2.164   5.760 -0.2632 -0.6040 -0.6280
  235MOL0     C32317  12.796   2.188   5.830 -0.3586  0.0356 -0.2356
  235MOL0     C32318  12.852   2.112   5.936  0.7260  0.2657  1.3529
  235MOL0     C32319  12.975   2.158   5.992  0.4374  0.8596  0.3296
  235MOL0     C32320  13.039   2.074   6.094  0.2098  0.5670 -0.6580
  235MOL0     C32321  13.027   2.285   5.952 -0.6080 -0.7222  0.6013
  235MOL0     C32322  13.156   2.340   5.999  0.5752 -0.7848 -1.1693
  235MOL0     O32323  13.238   2.403   5.904 -0.0371 -0.1165  0.7982
  235MOL0     C32324  13.358   2.462   5.939  0.1759  0.2947  0.2047
  235MOL0     C32325  13.396   2.576   5.873  0.2076 -0.1926 -0.0377
  235MOL0     C32326  13.523   2.634   5.886 -0.2553 -0.6963  0.0154
  235MOL0     C32327  13.619   2.590   5.984 -0.4016 -0.5088 -0.0363
  235MOL0     O32328  13.738   2.642   6.009  0.0078  0.2484  0.3526
  235MOL0     C32329  13.824   2.651   5.894  0.0856 -0.1851 -0.1299
  235MOL0     C32330  13.964   2.671   5.964  0.5475 -0.1464  0.8433
  235MOL0     C32331  14.068   2.703   5.854 -0.0459  0.4302 -0.3124
  235MOL0     C32332  14.212   2.706   5.905  1.2961 -0.4753  0.1179
  235MOL0     C32333  14.308   2.693   5.785  0.4739  0.7282 -0.5319
  235MOL0     C32334  14.452   2.703   5.829 -0.8652 -0.9269  0.2538
  235MOL0     C32335  14.555   2.653   5.724 -0.6254  0.2078  0.3353
  235MOL0     C32336  14.693   2.623   5.783  0.2455 -0.2490  0.7465
  235MOL0    Cl32337  14.749   2.779   5.858 -0.1489 -0.1266 -0.4040
  235MOL0     C32338  13.585   2.477   6.055  0.2969  0.2992 -0.1618
  235MOL0     C32339  13.455   2.420   6.038  0.9696  0.1997  0.2571
  235MOL0     O32340  13.178   2.319   6.124  0.6118  1.0915 -0.1298
  235MOL0     C32341  12.964   2.356   5.854  0.4996  0.4866  0.1406
  235MOL0     C32342  12.852   2.311   5.796  0.8195  0.5463  0.7425
  235MOL0     N32343  12.171   1.926   5.736  0.2003  0.6824  0.2313
  235MOL0     N32344  12.062   1.860   5.728  0.7058  0.0077 -0.2248
  235MOL0     C32345  11.047   1.672   5.553  0.2214 -0.2162  0.3457
  235MOL0     C32346  10.933   1.700   5.480  0.5149  0.4055 -1.2253
  235MOL0     C32347  10.526   1.784   5.336 -0.6560  1.0018  0.1174
  235MOL0     C32348  10.418   1.778   5.417  1.7947  0.2383 -0.7906
  235MOL0     C32349  10.282   1.774   5.362 -0.1895 -0.5291  0.1007
  235MOL0     C32350  10.263   1.785   5.226 -0.0912  0.6662  0.3307
  235MOL0     O32351  10.126   1.790   5.187 -0.5758 -0.3512  0.0951
  235MOL0     C32352  10.102   1.848   5.054  0.0647  0.4763  1.0642
  235MOL0     C32353   9.958   1.823   5.007 -0.6324  1.4914 -0.7379
  235MOL0     C32354   9.925   1.866   4.870 -0.0689  0.0620  0.5578
  235MOL0     C32355   9.890   2.012   4.861  0.1990  0.1180 -0.3229
  235MOL0     C32356  10.012   2.099   4.839  0.0922  0.2859  0.7437
  235MOL0     C32357  10.100   2.184   4.837  0.9188 -0.5804  0.0241
  235MOL0     C32358  10.378   1.796   5.140 -0.9620  0.2889  0.1028
  235MOL0     C32359  10.506   1.801   5.194 -0.3099  0.8481  0.7953
  235MOL0     C32360  10.624   1.798   5.101  1.1229 -0.1567  0.2787
  235MOL0     H32361  10.719   1.560   5.712 -2.3910 -0.0874 -3.5572
  235MOL0     H32362  10.927   1.571   5.849 -2.5646  3.0357  1.0848
  235MOL0     H32363  11.209   1.844   5.732 -1.6860  0.0440  2.0565
  235MOL0     H32364  11.327   1.733   5.672  0.1721 -1.9046  2.0784
  235MOL0     H32365  11.261   1.780   5.962 -0.2824 -2.5100  0.6609
  235MOL0     H32366  11.353   1.650   5.904 -1.3424  0.1331  3.0118
  235MOL0     H32367  11.413   1.933   5.823  0.7174  0.9896  0.9405
  235MOL0     H32368  11.452   1.886   5.986  1.4743  0.3299  0.2884
  235MOL0     H32369  11.584   1.680   5.877 -1.4977 -2.3333 -3.2172
  235MOL0     H32370  11.568   1.769   5.726 -0.2801  1.3029  0.5112
  235MOL0     H32371  11.777   1.798   5.871  0.3931  0.2212 -2.5027
  235MOL0     H32372  11.674   1.864   5.998 -0.4830 -0.7366 -0.5291
  235MOL0     H32373  11.621   2.067   5.846  2.1021  0.0631  1.1375
  235MOL0     H32374  11.793   2.050   5.859 -1.5253  1.6830  1.2626
  235MOL0     H32375  11.755   2.082   5.621 -1.4502  0.2344 -0.7288
  235MOL0     H32376  11.624   1.960   5.626 -0.6778 -2.8255  1.3292
  235MOL0     H32377  11.800   1.792   5.650 -0.2015 -0.0918  1.6157
  235MOL0     H32378  11.817   1.899   5.510 -0.0705  0.2416  0.0716
  235MOL0     H32379  11.980   2.128   5.571 -1.0224  0.5837  2.6481
  235MOL0     H32380  12.205   2.245   5.646  0.8665  0.3110  0.6039
  235MOL0     H32381  12.291   2.122   5.535 -3.6817 -1.2294 -1.4787
  235MOL0     H32382  12.436   2.254   5.724 -1.7307  0.1614 -1.5872
  235MOL0     H32383  12.347   2.146   5.821  2.2608 -0.6030  0.0387
  235MOL0     H32384  12.451   1.951   5.681 -0.3341 -0.0912 -0.6531
  235MOL0     H32385  12.533   2.081   5.588  1.3680 -0.4838  0.5849
  235MOL0     H32386  12.571   2.059   5.890 -3.8663 -3.0725 -0.4762
  235MOL0     H32387  12.671   1.964   5.788 -1.0867 -0.6737 -2.2509
  235MOL0     H32388  12.810   2.014   5.957  1.3304  0.4442  3.6630
  235MOL0     H32389  13.147   2.084   6.103  0.1447  1.0050 -0.3548
  235MOL0     H32390  13.013   1.970   6.071 -2.3706  1.1008 -0.4740
  235MOL0     H32391  12.997   2.095   6.192 -3.3960 -1.2514 -1.6302
  235MOL0     H32392  13.330   2.616   5.796  0.7645 -1.3146 -1.1342
  235MOL0     H32393  13.538   2.733   5.846 -0.8954 -0.1207  1.1551
  235MOL0     H32394  13.822   2.561   5.832  2.1126  0.2537 -0.8995
  235MOL0     H32395  13.794   2.743   5.843 -2.1681 -0.2177  0.9946
  235MOL0     H32396  13.954   2.755   6.034 -2.8595 -1.0405  1.6030
  235MOL0     H32397  14.003   2.590   6.027  0.0951  0.7113  2.2868
  235MOL0     H32398  14.024   2.797   5.820 -0.7997  1.2737  2.7071
  235MOL0     H32399  14.057   2.623   5.779 -0.8433 -2.2085  2.4181
  235MOL0     H32400  14.234   2.624   5.974 -1.1275 -0.9337  0.4529
  235MOL0     H32401  14.229   2.802   5.954 -0.1850  1.1806 -2.3363
  235MOL0     H32402  14.298   2.600   5.729  0.7094 -1.3343  2.6352
  235MOL0     H32403  14.275   2.778   5.725 -0.4120  1.0914  0.4433
  235MOL0     H32404  14.453   2.640   5.919 -1.1710 -1.1468  0.1052
  235MOL0     H32405  14.462   2.809   5.854 -3.2440 -0.7674  0.8174
  235MOL0     H32406  14.563   2.719   5.637  1.1643  0.3856  0.5757
  235MOL0     H32407  14.516   2.563   5.676  2.6896 -1.0403 -0.3540
  235MOL0     H32408  14.761   2.593   5.703  0.1857 -1.9197  1.2778
  235MOL0     H32409  14.704   2.540   5.853  1.1585 -0.8090 -0.0386
  235MOL0     H32410  13.655   2.437   6.128  1.2836  0.3071 -1.0803
  235MOL0     H32411  13.434   2.333   6.099  2.0978 -1.0705 -1.0632
  235MOL0     H32412  12.993   2.449   5.806  0.4019  1.5055  1.9342
  235MOL0     H32413  12.802   2.364   5.716  1.3996  0.0099 -0.0020
  235MOL0     H32414  11.139   1.701   5.504 -0.5652 -1.0138 -1.7060
  235MOL0     H32415  10.953   1.727   5.377  0.9520 -1.5053 -1.6698
  235MOL0     H32416  10.426   1.776   5.526  0.3893 -1.4501 -0.6709
  235MOL0     H32417  10.193   1.763   5.424 -0.2147  2.0522  0.6438
  235MOL0     H32418  10.116   1.955   5.070 -2.0365  0.8977  0.3281
  235MOL0     H32419  10.172   1.819   4.975 -2.4225  1.9054 -1.8618
  235MOL0     H32420   9.887   1.860   5.081 -0.5359  0.5554 -0.1613
  235MOL0     H32421   9.933   1.716   5.001 -0.1686  1.4431 -2.8321
  235MOL0     H32422  10.010   1.850   4.803 -0.8168  0.5421 -0.5175
  235MOL0     H32423   9.836   1.817   4.832 -0.1809  0.1837  0.6580
  235MOL0     H32424   9.835   2.036   4.953 -0.0008 -1.4433 -0.0056
  235MOL0     H32425   9.825   2.022   4.773  1.6130  1.7913 -1.2582
  235MOL0     H32426  10.179   2.256   4.828 -1.0924  1.7241 -0.1732
  235MOL0     H32427  10.367   1.813   5.033 -1.4327  0.7380  0.2225
  235MOL0     H32428  10.718   1.752   5.133  1.5794  0.9985  0.6588
  235MOL0     H32429  10.598   1.754   5.005 -0.2313  3.5521 -1.2197
  235MOL0     H32430  10.646   1.903   5.078  0.4390  0.3624  1.8324
  236MOL0     O32431   2.523   3.937   0.593  0.1860 -0.5387  1.1346
  236MOL0     C32432   2.446   3.850   0.553 -0.0783  0.3738 -0.7147
  236MOL0     O32433   2.487   3.737   0.476 -0.1218 -0.1573  0.6389
  236MOL0     C32434   2.620   3.734   0.435  0.4088 -0.6104 -0.0924
  236MOL0     C32435   2.722   3.678   0.510 -0.7552 -0.0573 -0.2276
  236MOL0     C32436   2.861   3.698   0.468  0.5002  0.5274 -0.2155
  236MOL0     C32437   2.895   3.771   0.359 -0.1656  0.4891  0.8744
  236MOL0     O32438   3.030   3.789   0.330  0.1984 -0.1462  0.4268
  236MOL0     C32439   3.071   3.902   0.410  0.2663  0.7288  0.4563
  236MOL0     C32440   3.228   3.908   0.410  0.4383  0.4845 -0.1391
  236MOL0     C32441   3.294   3.783   0.468 -0.5411 -0.7327  0.1962
  236MOL0     C32442   3.454   3.797   0.474  0.6378 -0.6977 -0.3035
  236MOL0     C32443   3.507   3.660   0.523 -0.8730 -0.3642 -0.0762
  236MOL0     C32444   3.650   3.678   0.575  1.3559  0.3795 -0.1717
  236MOL0     C32445   3.699   3.568   0.670  0.2198  0.3739 -0.2094
  236MOL0     C32446   3.719   3.435   0.608  0.1849  0.2647  0.2160
  236MOL0     N32447   3.852   3.443   0.540  0.5336  0.4281 -0.3135
  236MOL0     C32448   3.874   3.457   0.405 -0.0203 -0.2107 -0.0428
  236MOL0     C32449   4.009   3.477   0.400 -0.3005 -0.0907  0.9111
  236MOL0     C32450   4.096   3.520   0.286 -0.3661 -0.3291  0.0534
  236MOL0     C32451   4.150   3.399   0.215 -0.0166  0.0262  0.4228
  236MOL0     C32452   4.281   3.441   0.137  0.8034  0.3015 -1.2009
  236MOL0     C32453   4.341   3.337   0.046  0.2015  0.0347  0.0199
  236MOL0     O32454   4.463   3.396  -0.011 -0.2104 -0.9217  0.1020
  236MOL0     C32455   4.525   3.305  -0.086 -0.1480 -0.0031  0.0272
  236MOL0     C32456   4.584   3.194  -0.040 -0.5707  0.5524  0.6800
  236MOL0     C32457   4.649   3.099  -0.137 -0.6759 -0.9373 -0.9107
  236MOL0     C32458   4.705   2.976  -0.072  0.3156  0.3909  0.0042
  236MOL0     C32459   4.674   3.137  -0.272 -0.0502 -0.0871 -0.0253
  236MOL0     C32460   4.757   3.058  -0.377 -0.5843  0.1202 -0.2287
  236MOL0     O32461   4.879   3.015  -0.338 -0.9286  0.2759 -0.1173
  236MOL0     C32462   4.927   2.895  -0.380 -0.2737  0.4135 -0.0915
  236MOL0     C32463   5.012   2.896  -0.495 -0.3659 -0.0125  0.0635
  236MOL0     C32464   5.055   2.771  -0.548 -0.4883 -0.0665  0.3832
  236MOL0     C32465   5.024   2.650  -0.481 -1.2385 -0.6822  0.3730
  236MOL0     O32466   5.069   2.527  -0.519  0.7503 -0.4062 -0.5480
  236MOL0     C32467   5.163   2.515  -0.624 -0.1649 -0.6565 -1.0292
  236MOL0     C32468   5.091   2.510  -0.764 -0.0569  0.3415 -0.2975
  236MOL0     C32469   5.015   2.379  -0.775 -0.3127 -0.0386  0.1941
  236MOL0     C32470   4.951   2.375  -0.918  0.1784  1.2915 -0.5575
  236MOL0     C32471   4.808   2.433  -0.934  0.1920 -0.0878 -0.0844
  236MOL0     C32472   4.772   2.421  -1.084  0.6972 -0.3206  0.0786
  236MOL0     C32473   4.623   2.474  -1.100  0.2114 -0.6010 -0.7262
  236MOL0     C32474   4.583   2.491  -1.236  0.6943 -0.2252  0.3069
  236MOL0    Cl32475   4.611   2.336  -1.329 -0.3116 -0.6901 -0.2348
  236MOL0     C32476   4.946   2.658  -0.365 -0.0121 -0.2911 -0.1597
  236MOL0     C32477   4.899   2.776  -0.316  0.4907  0.0867 -0.2457
  236MOL0     O32478   4.716   3.038  -0.489 -0.2217 -0.6147 -0.0581
  236MOL0     C32479   4.596   3.241  -0.314 -0.5441 -0.6283  0.2634
  236MOL0     C32480   4.533   3.328  -0.225  0.5900 -0.3505 -0.0222
  236MOL0     N32481   4.068   3.477   0.527 -0.0066 -0.4471  0.9844
  236MOL0     N32482   3.975   3.451   0.609  0.2965  0.0449  0.2621
  236MOL0     C32483   2.794   3.825   0.275  0.8221  0.4005 -0.2615
  236MOL0     C32484   2.656   3.800   0.312  0.1475  0.3074  0.4318
  236MOL0     C32485   2.299   3.855   0.589  0.0333 -0.0417  0.0687
  236MOL0     C32486   2.213   3.745   0.551  0.1010  0.1001 -0.4540
  236MOL0     C32487   2.080   3.746   0.582  0.1092  0.5405 -1.3985
  236MOL0     C32488   2.023   3.847   0.657 -0.4563  0.2676 -0.7009
  236MOL0     O32489   1.892   3.833   0.686 -0.3567  0.5255  0.5358
  236MOL0     C32490   1.807   3.948   0.651  0.4927  0.1547  0.0799
  236MOL0     C32491   1.810   3.966   0.494  1.0469  0.3633 -1.0893
  236MOL0     C32492   1.772   3.836   0.417  0.5842 -0.1695 -0.2319
  236MOL0     C32493   1.635   3.778   0.441  0.1767 -0.5679 -0.0930
  236MOL0     C32494   1.601   3.714   0.310  0.1804 -0.5463 -0.2436
  236MOL0     C32495   1.577   3.646   0.212 -0.8291 -1.1385 -0.2651
  236MOL0     C32496   2.099   3.964   0.690 -0.0343  0.3782  0.3519
  236MOL0     C32497   2.237   3.965   0.665 -0.4640 -0.5804 -0.1695
  236MOL0     C32498   2.302   4.096   0.706  0.1447 -0.4314  0.1281
  236MOL0     H32499   2.714   3.618   0.600  2.0414  1.1641  0.9650
  236MOL0     H32500   2.942   3.643   0.515 -1.0316 -1.5573  0.1525
  236MOL0     H32501   3.037   3.886   0.512  2.1396 -2.2752  0.7502
  236MOL0     H32502   3.029   3.995   0.370 -3.5862 -1.3187 -0.7551
  236MOL0     H32503   3.263   3.935   0.310  1.1168  2.9604  0.6983
  236MOL0     H32504   3.248   3.995   0.474  1.0095  0.5550 -0.4062
  236MOL0     H32505   3.257   3.759   0.568  1.1461 -1.0675  0.7664
  236MOL0     H32506   3.276   3.700   0.400  1.4859  0.9765 -2.6312
  236MOL0     H32507   3.492   3.829   0.377  0.7437  0.5942  0.1481
  236MOL0     H32508   3.490   3.874   0.543  1.5743 -1.9643  0.6908
  236MOL0     H32509   3.500   3.580   0.449 -4.6864  0.1870 -0.5170
  236MOL0     H32510   3.445   3.634   0.609 -0.7328  1.1315  0.5167
  236MOL0     H32511   3.713   3.684   0.486  0.1080  1.4576 -1.0272
  236MOL0     H32512   3.654   3.773   0.630 -0.0452  0.3351  0.0314
  236MOL0     H32513   3.631   3.551   0.754  2.3465 -3.8411  0.9081
  236MOL0     H32514   3.787   3.596   0.729  2.2589 -2.2349 -1.8089
  236MOL0     H32515   3.735   3.361   0.687 -1.9119  0.8463  1.2731
  236MOL0     H32516   3.640   3.402   0.540  2.0837 -0.7762 -1.5726
  236MOL0     H32517   3.794   3.463   0.331 -1.5996 -0.2035  1.5777
  236MOL0     H32518   4.175   3.581   0.331 -0.6049  0.3599 -0.4471
  236MOL0     H32519   4.038   3.579   0.213 -2.3351 -0.7313  1.2276
  236MOL0     H32520   4.167   3.315   0.283  1.0574 -1.6701 -1.8066
  236MOL0     H32521   4.068   3.373   0.147 -0.1995  1.2910  0.1330
  236MOL0     H32522   4.250   3.521   0.070 -0.5170 -0.7731 -1.9199
  236MOL0     H32523   4.359   3.470   0.208  0.5928 -0.8401 -0.4833
  236MOL0     H32524   4.346   3.242   0.100 -0.2767  0.0609  0.1108
  236MOL0     H32525   4.270   3.310  -0.032 -0.5514 -3.3649  1.6958
  236MOL0     H32526   4.592   3.169   0.065  1.7279 -1.9556  0.0470
  236MOL0     H32527   4.664   2.953   0.026  0.5836 -3.2802 -0.6182
  236MOL0     H32528   4.814   2.966  -0.066  0.1822 -0.3491  2.4814
  236MOL0     H32529   4.667   2.889  -0.127 -1.3678  0.6435  0.7080
  236MOL0     H32530   5.045   2.989  -0.541  0.8288 -0.7227 -0.5599
  236MOL0     H32531   5.110   2.761  -0.641 -0.0683 -3.0329  0.8598
  236MOL0     H32532   5.234   2.599  -0.627  0.6432 -1.2398  0.5994
  236MOL0     H32533   5.221   2.424  -0.605 -0.2276 -0.4940 -0.0266
  236MOL0     H32534   5.015   2.587  -0.781  0.0953  0.4650 -0.4253
  236MOL0     H32535   5.160   2.511  -0.849 -1.7512 -0.9460 -1.7597
  236MOL0     H32536   4.946   2.375  -0.690 -0.5978  1.5262  0.0677
  236MOL0     H32537   5.093   2.303  -0.765 -1.1583 -0.8167  1.1348
  236MOL0     H32538   4.936   2.269  -0.940 -0.1324  1.5024 -1.3940
  236MOL0     H32539   5.019   2.405  -0.998  1.2873 -2.4695 -1.1810
  236MOL0     H32540   4.737   2.369  -0.880 -0.3755  1.9921  1.7714
  236MOL0     H32541   4.802   2.533  -0.891  1.0937 -1.3516  3.2635
  236MOL0     H32542   4.768   2.313  -1.102 -2.5178 -0.7854  2.6236
  236MOL0     H32543   4.846   2.478  -1.141 -1.1289  0.7967 -1.3137
  236MOL0     H32544   4.625   2.569  -1.045  0.7095 -1.5483  0.9934
  236MOL0     H32545   4.551   2.407  -1.053 -0.1169  0.5914  0.5377
  236MOL0     H32546   4.632   2.578  -1.281 -0.1337 -0.7512 -1.7427
  236MOL0     H32547   4.475   2.509  -1.237  0.5225 -1.1910 -0.9820
  236MOL0     H32548   4.913   2.564  -0.323  1.2758 -2.2520 -3.1891
  236MOL0     H32549   4.826   2.778  -0.235  1.9912  2.2371  1.1876
  236MOL0     H32550   4.593   3.279  -0.416 -4.1210 -0.9436  0.1457
  236MOL0     H32551   4.482   3.413  -0.269  1.9409  0.2918 -0.3962
  236MOL0     H32552   2.819   3.871   0.180 -0.8886 -0.4181 -1.1595
  236MOL0     H32553   2.578   3.840   0.248  0.1078  2.0615  1.5231
  236MOL0     H32554   2.249   3.661   0.493  1.1472  0.1524  0.0962
  236MOL0     H32555   2.006   3.670   0.560 -2.0741  1.6290  1.4821
  236MOL0     H32556   1.707   3.928   0.690  0.3473  2.4047  1.0739
  236MOL0     H32557   1.846   4.039   0.699  1.7222 -1.1561  1.7010
  236MOL0     H32558   1.908   4.010   0.480  1.8719  0.1579  2.8332
  236MOL0     H32559   1.736   4.045   0.480  0.1125  0.4628  2.9793
  236MOL0     H32560   1.785   3.876   0.316  2.4974  5.7378  1.9215
  236MOL0     H32561   1.840   3.753   0.434 -1.4788 -1.9522 -0.2816
  236MOL0     H32562   1.572   3.863   0.469 -0.3674 -0.6547 -0.9911
  236MOL0     H32563   1.642   3.698   0.515  0.7838  0.2371  0.7295
  236MOL0     H32564   1.593   3.586   0.125  2.6011 -0.1976 -0.4525
  236MOL0     H32565   2.054   4.049   0.740  0.7408 -0.3544  2.3881
  236MOL0     H32566   2.251   4.155   0.782  1.3784  1.1196 -0.2081
  236MOL0     H32567   2.399   4.068   0.748 -0.3692  0.4445  1.9740
  236MOL0     H32568   2.311   4.158   0.616  1.2258 -1.2250 -0.3309
  237MOL0     O32569   3.335   3.234   4.902 -0.0942  0.5053 -0.1215
  237MOL0     C32570   3.271   3.132   4.920  0.7043 -0.1116  0.2994
  237MOL0     O32571   3.325   3.017   4.981  0.3447  0.4381  0.0921
  237MOL0     C32572   3.462   3.012   5.016 -0.0509 -0.0421 -0.2927
  237MOL0     C32573   3.550   2.952   4.934  0.1336  1.2354  0.5184
  237MOL0     C32574   3.684   2.931   4.980  0.1418 -0.1322 -0.7438
  237MOL0     C32575   3.734   2.988   5.103 -0.2930 -0.3119 -1.0722
  237MOL0     O32576   3.863   2.992   5.153  0.1162 -0.2500  0.3425
  237MOL0     C32577   3.969   2.943   5.069  0.1020  0.3536 -0.9767
  237MOL0     C32578   4.086   3.035   5.087 -0.3570 -0.7038 -0.0416
  237MOL0     C32579   4.218   2.961   5.084  0.6689 -0.3279 -0.6030
  237MOL0     C32580   4.344   3.055   5.090 -0.0708  1.3412 -0.5639
  237MOL0     C32581   4.350   3.146   4.959  0.1990  0.2468  0.7860
  237MOL0     C32582   4.486   3.213   4.978 -0.0475 -0.7476  0.1955
  237MOL0     C32583   4.532   3.298   4.855 -0.2649 -0.0903 -0.0781
  237MOL0     C32584   4.678   3.344   4.887  0.2708 -0.0806  0.1883
  237MOL0     N32585   4.710   3.471   4.814 -0.2088  0.3346  0.1710
  237MOL0     C32586   4.670   3.598   4.862  0.3077 -0.5394  1.1387
  237MOL0     C32587   4.721   3.693   4.786 -1.0309  0.3024 -0.1475
  237MOL0     C32588   4.705   3.837   4.807 -0.3359  0.8063  0.4691
  237MOL0     C32589   4.790   3.922   4.709  0.8501  1.1741  0.1914
  237MOL0     C32590   4.732   3.943   4.568 -0.0816 -0.0716  0.3503
  237MOL0     C32591   4.639   4.067   4.553 -0.1553  0.3409 -0.1252
  237MOL0     O32592   4.549   4.046   4.443  0.1198 -0.1226 -0.0044
  237MOL0     C32593   4.417   4.041   4.472  0.3875 -0.7319  0.6131
  237MOL0     C32594   4.334   4.047   4.358  0.9408 -1.0303  0.5295
  237MOL0     C32595   4.190   4.024   4.373  0.3054 -0.5361  0.2825
  237MOL0     C32596   4.110   4.028   4.247  0.2106  0.5021 -0.5138
  237MOL0     C32597   4.125   4.002   4.494  0.8807  0.0451  0.3987
  237MOL0     C32598   3.977   4.021   4.519 -0.1366 -0.0079  0.5362
  237MOL0     O32599   3.924   4.124   4.443 -0.7294 -0.0294 -0.2313
  237MOL0     C32600   3.789   4.121   4.424  0.0630 -0.6526  0.2488
  237MOL0     C32601   3.716   4.240   4.427 -0.7184 -0.3051 -0.2301
  237MOL0     C32602   3.578   4.241   4.413  0.4852  0.2970  0.3466
  237MOL0     C32603   3.516   4.123   4.359 -0.9548 -0.7240 -0.3588
  237MOL0     O32604   3.385   4.133   4.321 -0.1311 -0.7582 -0.5039
  237MOL0     C32605   3.293   4.173   4.422  0.4854  0.3477  0.3961
  237MOL0     C32606   3.157   4.189   4.357  0.3155  0.0139  0.6711
  237MOL0     C32607   3.117   4.068   4.277  1.1196 -0.2162  0.1493
  237MOL0     C32608   2.980   4.100   4.218 -0.1285  0.3907  0.3393
  237MOL0     C32609   2.934   3.990   4.120  0.0494  0.8479  0.2650
  237MOL0     C32610   2.779   3.998   4.114  0.3914  0.1026  1.0916
  237MOL0     C32611   2.717   3.864   4.063  0.2552  0.4168  0.1447
  237MOL0     C32612   2.698   3.763   4.177  0.0976 -0.2348 -0.6508
  237MOL0    Cl32613   2.604   3.622   4.105 -0.3154  0.1088  0.2374
  237MOL0     C32614   3.594   4.004   4.347 -0.4613  0.1304  0.4758
  237MOL0     C32615   3.722   4.000   4.397  0.2692 -0.1807 -0.0462
  237MOL0     O32616   3.919   3.949   4.597 -0.9014  0.2799  0.1423
  237MOL0     C32617   4.214   3.976   4.596  0.1997 -0.1065 -0.6277
  237MOL0     C32618   4.353   4.000   4.589 -0.0467  0.2398 -0.8487
  237MOL0     N32619   4.803   3.627   4.686  0.2589  0.1532  0.8275
  237MOL0     N32620   4.794   3.497   4.700 -0.1881 -0.3050  1.1837
  237MOL0     C32621   3.640   3.058   5.185  0.6752  0.2382 -0.6280
  237MOL0     C32622   3.502   3.065   5.143  0.0856  0.2243  0.1971
  237MOL0     C32623   3.124   3.143   4.879  0.6912  0.2956  0.1930
  237MOL0     C32624   3.056   3.019   4.876 -0.1670  0.5236  0.3690
  237MOL0     C32625   2.927   3.018   4.826 -0.7278  0.6060 -0.2570
  237MOL0     C32626   2.849   3.125   4.807  0.0873 -1.0832  0.5566
  237MOL0     O32627   2.717   3.099   4.775 -0.3690 -0.1448 -0.4213
  237MOL0     C32628   2.619   3.208   4.789 -0.7446 -0.4878  0.0782
  237MOL0     C32629   2.478   3.156   4.789 -0.2351 -0.1328 -0.5696
  237MOL0     C32630   2.439   3.031   4.864  0.2896  0.1234 -0.2898
  237MOL0     C32631   2.428   3.059   5.018 -0.5086 -0.6909  1.2228
  237MOL0     C32632   2.553   3.040   5.093 -0.2103 -0.0742  0.2852
  237MOL0     C32633   2.664   3.039   5.158  0.5702  0.4087  0.9133
  237MOL0     C32634   2.914   3.248   4.804  0.0974 -0.0127  0.4551
  237MOL0     C32635   3.052   3.258   4.829 -0.3385  0.0177  0.1276
  237MOL0     C32636   3.108   3.405   4.810 -0.6155 -0.0087 -0.3362
  237MOL0     H32637   3.507   2.903   4.848  2.2212  0.5064 -0.1674
  237MOL0     H32638   3.751   2.886   4.907  2.7847  2.2779  0.0239
  237MOL0     H32639   3.950   2.949   4.962 -2.0778 -4.5998 -1.1337
  237MOL0     H32640   4.002   2.844   5.101  1.3284  1.1543  0.3678
  237MOL0     H32641   4.082   3.106   5.004  2.5360 -0.4847 -0.0774
  237MOL0     H32642   4.083   3.092   5.180  0.1560 -0.5016 -0.1468
  237MOL0     H32643   4.228   2.902   5.176  0.6041 -0.5207 -0.7197
  237MOL0     H32644   4.216   2.886   5.005  0.1611  1.1381 -2.0615
  237MOL0     H32645   4.347   3.107   5.185  3.1391 -1.0021  0.7758
  237MOL0     H32646   4.434   2.993   5.088 -1.3681 -0.8843  2.5943
  237MOL0     H32647   4.269   3.220   4.962  0.7503  0.9467 -0.7039
  237MOL0     H32648   4.339   3.089   4.867 -1.5220  3.0715 -0.9372
  237MOL0     H32649   4.483   3.276   5.067  1.8395 -1.7091  0.9888
  237MOL0     H32650   4.561   3.135   4.996  1.5314  0.8446  0.8055
  237MOL0     H32651   4.459   3.379   4.851  0.7700  0.9255  0.8663
  237MOL0     H32652   4.546   3.240   4.763  2.2116 -0.5019  0.4881
  237MOL0     H32653   4.682   3.375   4.992  1.2134  0.2549  0.0674
  237MOL0     H32654   4.754   3.270   4.860  2.4398  1.9237  0.4511
  237MOL0     H32655   4.592   3.602   4.937 -0.1086 -1.5391  0.7782
  237MOL0     H32656   4.727   3.862   4.912 -2.0478 -1.2083  1.3839
  237MOL0     H32657   4.601   3.866   4.792 -0.6977 -0.7786 -0.1972
  237MOL0     H32658   4.803   4.019   4.757 -1.6220  2.1608 -0.9392
  237MOL0     H32659   4.883   3.872   4.682 -0.7950 -1.3824 -1.1555
  237MOL0     H32660   4.810   3.975   4.498 -0.2834 -0.9742 -0.2999
  237MOL0     H32661   4.691   3.849   4.532 -1.7713  1.4831 -2.1149
  237MOL0     H32662   4.582   4.076   4.646 -3.5100 -3.9040 -1.4083
  237MOL0     H32663   4.692   4.160   4.534  0.2355  0.5788  1.9361
  237MOL0     H32664   4.378   4.061   4.260  0.0953 -0.8917  0.1637
  237MOL0     H32665   4.089   4.130   4.214 -1.3763 -0.2132 -1.8409
  237MOL0     H32666   4.016   3.973   4.256 -0.3915  1.4424 -0.9040
  237MOL0     H32667   4.164   3.970   4.172  1.3640  1.9495 -0.8429
  237MOL0     H32668   3.762   4.338   4.433 -1.0179  0.2022 -3.9789
  237MOL0     H32669   3.525   4.336   4.416 -1.0280 -0.5389  1.3670
  237MOL0     H32670   3.303   4.090   4.493 -2.6822 -1.6841 -1.2845
  237MOL0     H32671   3.322   4.268   4.468  0.8749  1.0814 -1.2792
  237MOL0     H32672   3.079   4.188   4.434 -1.0634 -0.6196 -0.6932
  237MOL0     H32673   3.149   4.282   4.300  1.6697 -1.0053 -1.3027
  237MOL0     H32674   3.102   3.980   4.340 -2.2483  1.8110  2.5298
  237MOL0     H32675   3.185   4.043   4.196  2.3825 -1.8017  1.6140
  237MOL0     H32676   2.974   4.201   4.176 -0.8690  0.6997  1.1443
  237MOL0     H32677   2.909   4.109   4.301  0.2024 -1.0762  0.8129
  237MOL0     H32678   2.978   3.987   4.020 -1.4681  3.7869 -0.6250
  237MOL0     H32679   2.952   3.891   4.161 -0.2613  1.1777  1.2365
  237MOL0     H32680   2.743   4.090   4.068  1.3710  4.7332  8.0755
  237MOL0     H32681   2.734   4.012   4.212 -3.0987 -2.0991 -0.0334
  237MOL0     H32682   2.784   3.822   3.986 -0.0038  0.5167 -0.1384
  237MOL0     H32683   2.621   3.893   4.020  0.7569 -0.2245 -1.4999
  237MOL0     H32684   2.623   3.799   4.248  1.9224 -0.1143  1.3178
  237MOL0     H32685   2.793   3.739   4.226 -0.3658 -0.8605 -0.0333
  237MOL0     H32686   3.555   3.904   4.327  0.7242 -0.3429  0.4907
  237MOL0     H32687   3.782   3.910   4.393 -0.5389 -0.7701  0.6795
  237MOL0     H32688   4.174   3.963   4.697 -0.2490 -0.4757 -0.8454
  237MOL0     H32689   4.406   3.962   4.676  1.6566  0.1321 -1.8821
  237MOL0     H32690   3.671   3.098   5.281 -1.8358  1.4455 -0.2475
  237MOL0     H32691   3.434   3.108   5.216 -0.0664 -1.6461  1.2506
  237MOL0     H32692   3.106   2.924   4.895 -2.4000 -0.8096  0.0189
  237MOL0     H32693   2.879   2.920   4.824 -0.1696  0.2369  1.7263
  237MOL0     H32694   2.641   3.254   4.885  2.7322  0.9364 -1.2072
  237MOL0     H32695   2.627   3.283   4.709  0.0084  1.0774  1.5511
  237MOL0     H32696   2.451   3.136   4.684  1.3794  0.3644 -1.1091
  237MOL0     H32697   2.425   3.245   4.824  1.7629  1.0046 -0.3193
  237MOL0     H32698   2.341   2.996   4.831 -0.2196  0.8271  0.4191
  237MOL0     H32699   2.506   2.948   4.841 -0.7361 -0.3560 -1.6224
  237MOL0     H32700   2.350   2.995   5.061 -0.1620 -0.4369  2.2614
  237MOL0     H32701   2.387   3.159   5.035  1.1069  0.9089 -3.0244
  237MOL0     H32702   2.756   3.041   5.213  0.0741 -0.0697  1.7766
  237MOL0     H32703   2.851   3.334   4.786  0.3349  0.1901  0.5761
  237MOL0     H32704   3.115   3.453   4.908 -0.3187  1.4772 -1.0573
  237MOL0     H32705   3.203   3.405   4.755 -0.0450  0.8561  0.6221
  237MOL0     H32706   3.038   3.464   4.750  0.7093  1.9940 -0.0374
  238MOL0     O32707   0.946   7.359   3.718 -0.4053 -0.3361  1.6079
  238MOL0     C32708   0.986   7.422   3.619  0.5646  1.0195  0.2238
  238MOL0     O32709   0.941   7.549   3.583 -0.9753 -0.3926  0.7029
  238MOL0     C32710   0.825   7.584   3.643  0.4146 -0.0850  0.7484
  238MOL0     C32711   0.703   7.527   3.613 -0.7510  0.3499 -0.7942
  238MOL0     C32712   0.587   7.563   3.678 -0.4320  0.1736  0.0531
  238MOL0     C32713   0.584   7.664   3.780  0.6480 -0.7860  0.1317
  238MOL0     O32714   0.471   7.717   3.836  0.8903  0.2352 -0.1450
  238MOL0     C32715   0.351   7.733   3.747  0.6165 -0.0288 -0.0941
  238MOL0     C32716   0.250   7.830   3.812 -0.2448  0.2239 -0.0294
  238MOL0     C32717   0.122   7.855   3.730 -0.4758  0.4859 -0.5284
  238MOL0     C32718   0.024   7.938   3.811  0.8486 -0.4091 -0.5128
  238MOL0     C32719  -0.087   7.988   3.730 -0.0662  0.0919 -0.3769
  238MOL0     C32720  -0.203   8.042   3.826 -0.5912  0.4442 -0.0684
  238MOL0     C32721  -0.322   8.084   3.740  0.3026  0.9849  0.3689
  238MOL0     C32722  -0.425   8.142   3.838  0.3605 -0.3656  0.5452
  238MOL0     N32723  -0.545   8.201   3.765 -0.8466 -0.2170 -0.3737
  238MOL0     C32724  -0.564   8.334   3.737  1.0710 -0.6949 -0.2032
  238MOL0     C32725  -0.690   8.353   3.714 -0.3483  0.6606  0.2797
  238MOL0     C32726  -0.771   8.482   3.717  0.0312  1.0413  0.0769
  238MOL0     C32727  -0.748   8.568   3.846  0.0817  0.3233  0.5635
  238MOL0     C32728  -0.816   8.509   3.964  0.2321 -0.2837  0.0030
  238MOL0     C32729  -0.805   8.607   4.086  0.2508 -0.4641  0.2952
  238MOL0     O32730  -0.667   8.651   4.108  0.0327  0.1425 -0.0065
  238MOL0     C32731  -0.587   8.569   4.188 -0.3383 -0.7066  0.9982
  238MOL0     C32732  -0.475   8.508   4.120  0.4313  0.4585 -0.2987
  238MOL0     C32733  -0.373   8.437   4.190 -0.1584  0.2292  1.0027
  238MOL0     C32734  -0.248   8.399   4.104  0.8149 -0.0210 -0.4627
  238MOL0     C32735  -0.390   8.426   4.332  1.1967  0.1661  0.5718
  238MOL0     C32736  -0.296   8.349   4.423 -0.2082 -0.0444 -0.0366
  238MOL0     O32737  -0.181   8.282   4.372  0.7237  0.3550 -0.3484
  238MOL0     C32738  -0.084   8.232   4.456 -0.2623  0.0470  0.1641
  238MOL0     C32739  -0.081   8.100   4.493 -0.8180  0.0668  1.1459
  238MOL0     C32740   0.027   8.052   4.579  1.0081 -0.2297 -0.1238
  238MOL0     C32741   0.127   8.135   4.613  0.5762 -0.3243  0.6731
  238MOL0     O32742   0.230   8.076   4.678 -0.1596 -0.8860 -0.2189
  238MOL0     C32743   0.300   8.155   4.777  0.7042 -0.2622  0.6584
  238MOL0     C32744   0.355   8.061   4.883 -0.5139 -0.4294 -0.3314
  238MOL0     C32745   0.430   8.136   4.996 -0.0664 -0.1866 -0.1230
  238MOL0     C32746   0.503   8.033   5.079 -1.1295  0.6859 -0.7161
  238MOL0     C32747   0.588   8.107   5.182 -0.6181  0.2138 -0.6821
  238MOL0     C32748   0.652   8.010   5.284 -0.2602  0.2276 -0.4984
  238MOL0     C32749   0.744   8.086   5.390  0.7390 -0.5684  0.0679
  238MOL0     C32750   0.811   8.000   5.486  0.2195  0.0591  0.2184
  238MOL0    Cl32751   0.930   7.883   5.412  0.3091 -0.1848 -0.2266
  238MOL0     C32752   0.131   8.269   4.562  0.6130  0.3118 -0.9328
  238MOL0     C32753   0.029   8.315   4.487  0.4582 -0.2573  0.8714
  238MOL0     O32754  -0.319   8.352   4.542  0.6662 -0.6150 -0.6670
  238MOL0     C32755  -0.501   8.488   4.388  0.1791  0.5467  0.2171
  238MOL0     C32756  -0.603   8.546   4.321  0.5401  0.7546 -0.0800
  238MOL0     N32757  -0.748   8.228   3.720  0.5885  0.1709 -0.0719
  238MOL0     N32758  -0.662   8.139   3.746  0.6257  0.7694  0.3056
  238MOL0     C32759   0.708   7.712   3.815 -0.2643  0.3616  0.2899
  238MOL0     C32760   0.823   7.679   3.749 -0.1107  0.0145  0.0338
  238MOL0     C32761   1.100   7.373   3.538 -0.5164 -1.0693  0.7901
  238MOL0     C32762   1.176   7.480   3.473 -0.0861  0.1755 -0.1786
  238MOL0     C32763   1.297   7.444   3.410  0.5809  0.2923 -0.6913
  238MOL0     C32764   1.349   7.319   3.406  0.2839  0.1137 -0.5984
  238MOL0     O32765   1.471   7.287   3.350  0.3890  0.3358 -0.1476
  238MOL0     C32766   1.472   7.239   3.213  0.3815 -0.7175  0.4281
  238MOL0     C32767   1.478   7.357   3.116  0.0192 -0.1260  0.1580
  238MOL0     C32768   1.594   7.457   3.155 -0.5316 -0.0112  0.3270
  238MOL0     C32769   1.593   7.566   3.044  0.1754 -0.3946 -0.0323
  238MOL0     C32770   1.705   7.545   2.958  0.4527  0.4648 -0.7435
  238MOL0     C32771   1.793   7.520   2.864  0.2937  0.0880 -0.1668
  238MOL0     C32772   1.279   7.218   3.466  1.3669 -0.0640  0.6010
  238MOL0     C32773   1.152   7.246   3.533 -0.5448 -0.5702  1.4026
  238MOL0     C32774   1.072   7.128   3.586 -0.3189  0.9500  0.0861
  238MOL0     H32775   0.696   7.459   3.529 -0.6210 -0.7190  0.0327
  238MOL0     H32776   0.498   7.507   3.652  0.0086  0.0028 -1.1741
  238MOL0     H32777   0.307   7.635   3.727  0.4380 -0.1861  1.0048
  238MOL0     H32778   0.389   7.774   3.653  1.0782  1.3077  0.6491
  238MOL0     H32779   0.202   7.798   3.905  0.3070 -1.0660 -0.1701
  238MOL0     H32780   0.295   7.928   3.830 -2.4658  2.2326 -3.9383
  238MOL0     H32781   0.158   7.911   3.644  4.5375 -2.6197 -0.8462
  238MOL0     H32782   0.087   7.759   3.691 -2.7889  0.2425  1.8701
  238MOL0     H32783   0.004   7.895   3.909  0.7909  2.9028  1.0745
  238MOL0     H32784   0.071   8.034   3.833 -0.2437 -0.0667  0.4346
  238MOL0     H32785  -0.123   7.909   3.663  2.4401 -1.2795 -0.2196
  238MOL0     H32786  -0.061   8.065   3.656 -1.1117 -2.5909 -3.8614
  238MOL0     H32787  -0.222   7.967   3.904 -1.8742  0.4006 -0.3992
  238MOL0     H32788  -0.166   8.137   3.865 -0.4447  2.0175 -3.6239
  238MOL0     H32789  -0.368   7.995   3.694 -1.0580  0.7674  2.0405
  238MOL0     H32790  -0.294   8.149   3.656  1.5536 -1.9393 -1.6541
  238MOL0     H32791  -0.462   8.061   3.902 -4.4771 -0.6419 -2.0751
  238MOL0     H32792  -0.384   8.213   3.910  1.3461  0.3291 -0.6544
  238MOL0     H32793  -0.495   8.418   3.748  0.3511 -0.3657  2.8017
  238MOL0     H32794  -0.874   8.448   3.711  0.0959  0.9468 -0.5817
  238MOL0     H32795  -0.752   8.549   3.633 -0.3211  1.1573  0.0905
  238MOL0     H32796  -0.640   8.583   3.852  0.5704 -0.8562 -2.9208
  238MOL0     H32797  -0.788   8.668   3.829  2.1246  1.3609  1.5125
  238MOL0     H32798  -0.921   8.507   3.933 -0.2311  1.8973  1.2232
  238MOL0     H32799  -0.775   8.410   3.988  1.3244  0.1606  0.0291
  238MOL0     H32800  -0.859   8.702   4.071 -0.1689 -0.9700 -1.7489
  238MOL0     H32801  -0.841   8.557   4.176 -0.0193  1.5119  1.3438
  238MOL0     H32802  -0.466   8.521   4.012 -2.3933 -1.6963 -0.9089
  238MOL0     H32803  -0.266   8.411   3.996 -0.4975 -1.2284 -0.4186
  238MOL0     H32804  -0.226   8.293   4.122 -0.3376 -0.6135 -2.2115
  238MOL0     H32805  -0.165   8.466   4.128 -0.3179  1.3703 -0.2926
  238MOL0     H32806  -0.152   8.032   4.448 -0.0061 -1.6028  2.2642
  238MOL0     H32807   0.043   7.945   4.592  1.9083 -0.1072 -0.1587
  238MOL0     H32808   0.383   8.215   4.739 -0.9504  2.1074  0.5229
  238MOL0     H32809   0.231   8.224   4.827  0.5999 -0.6693  1.0848
  238MOL0     H32810   0.274   8.011   4.937  0.5148 -0.3064  1.4188
  238MOL0     H32811   0.417   7.991   4.826  1.0888  0.3976  0.3377
  238MOL0     H32812   0.352   8.181   5.058  0.2219 -1.2214  1.0433
  238MOL0     H32813   0.493   8.212   4.948  0.9343 -1.5946 -1.1334
  238MOL0     H32814   0.568   7.969   5.019 -3.0510  0.0523 -2.2149
  238MOL0     H32815   0.438   7.966   5.137  0.5193 -0.1705  0.2105
  238MOL0     H32816   0.667   8.170   5.139 -0.1950 -0.3917 -0.7952
  238MOL0     H32817   0.525   8.169   5.246 -1.2879 -0.7413 -0.4096
  238MOL0     H32818   0.719   7.930   5.251  0.6930 -1.0609  3.8073
  238MOL0     H32819   0.570   7.962   5.339 -0.7695  2.6770  1.0648
  238MOL0     H32820   0.677   8.153   5.445  1.0290 -1.3222  1.3679
  238MOL0     H32821   0.824   8.137   5.335  4.2807 -2.3231  3.1063
  238MOL0     H32822   0.730   7.947   5.538 -0.8769 -0.1886 -1.6517
  238MOL0     H32823   0.861   8.055   5.567 -0.5208 -1.1362  1.5369
  238MOL0     H32824   0.220   8.329   4.580 -1.0081  2.6776 -0.2618
  238MOL0     H32825   0.051   8.406   4.431 -1.2842  0.0799  0.6820
  238MOL0     H32826  -0.512   8.471   4.495 -0.3233 -1.6700 -0.1231
  238MOL0     H32827  -0.693   8.587   4.367  0.6171  1.0004 -0.1483
  238MOL0     H32828   0.708   7.780   3.899  0.6283  1.8360 -0.8688
  238MOL0     H32829   0.921   7.712   3.783  0.9967 -1.2976 -1.7119
  238MOL0     H32830   1.144   7.583   3.474 -1.3944 -0.2060 -0.7627
  238MOL0     H32831   1.346   7.529   3.363 -1.2019  0.7071 -1.9462
  238MOL0     H32832   1.557   7.173   3.199  1.9170  1.4075 -0.8811
  238MOL0     H32833   1.388   7.172   3.192  0.1156 -0.5058  0.7989
  238MOL0     H32834   1.382   7.409   3.128  0.1832 -0.1861  1.9698
  238MOL0     H32835   1.495   7.316   3.016  1.1684  0.2051  0.2004
  238MOL0     H32836   1.581   7.506   3.251 -0.8406  3.6443 -1.4266
  238MOL0     H32837   1.691   7.407   3.156  1.9266  3.9562 -3.5311
  238MOL0     H32838   1.604   7.670   3.076 -0.8536 -0.1026 -0.5825
  238MOL0     H32839   1.514   7.567   2.969  3.5777  0.6751 -4.0008
  238MOL0     H32840   1.859   7.493   2.784 -0.3455  2.7403 -1.7085
  238MOL0     H32841   1.301   7.112   3.458 -0.7125 -0.4015 -1.8442
  238MOL0     H32842   1.075   7.048   3.512 -0.2268 -1.4204  2.5060
  238MOL0     H32843   1.121   7.087   3.675  0.2567 -0.9133 -1.0474
  238MOL0     H32844   0.965   7.148   3.589 -0.9102 -1.4763 -1.7336
  239MOL0     O32845   5.014   7.573   4.948 -0.8295 -0.1312 -1.0634
  239MOL0     C32846   4.984   7.613   4.838 -0.2528 -0.6066 -0.4452
  239MOL0     O32847   5.066   7.596   4.729  0.5252 -0.3661  0.0904
  239MOL0     C32848   5.179   7.519   4.733 -0.4847  0.6156  0.6938
  239MOL0     C32849   5.168   7.378   4.749 -0.1307 -0.0935 -0.5177
  239MOL0     C32850   5.280   7.297   4.734 -0.2427  0.6906  0.2691
  239MOL0     C32851   5.402   7.346   4.701 -0.2645 -1.0604  0.4744
  239MOL0     O32852   5.520   7.276   4.699  0.0013  0.4738  0.1883
  239MOL0     C32853   5.522   7.171   4.609 -0.4814  0.6412  0.0221
  239MOL0     C32854   5.669   7.121   4.607 -0.3114  0.5265 -0.4090
  239MOL0     C32855   5.692   7.002   4.501 -0.9232  0.4647  0.4517
  239MOL0     C32856   5.844   6.952   4.502  0.0550 -0.1563 -0.3983
  239MOL0     C32857   5.893   6.854   4.401  0.1746  0.1490  0.0085
  239MOL0     C32858   6.040   6.854   4.365 -0.1391 -0.2928 -0.3746
  239MOL0     C32859   6.075   6.727   4.288 -0.0014 -0.3081  0.4479
  239MOL0     C32860   6.223   6.695   4.283  0.0334 -0.6160  0.1286
  239MOL0     N32861   6.304   6.803   4.221 -0.2710 -0.1728 -0.1997
  239MOL0     C32862   6.266   6.851   4.103 -0.5787 -0.2933  0.4404
  239MOL0     C32863   6.374   6.931   4.065 -0.0112 -0.0914 -0.7877
  239MOL0     C32864   6.400   7.009   3.937  0.6067 -0.2815  0.9963
  239MOL0     C32865   6.330   6.941   3.821  0.2475  0.5969  0.2244
  239MOL0     C32866   6.410   6.826   3.766 -0.1884  0.1227 -0.5596
  239MOL0     C32867   6.552   6.843   3.725 -1.0395  0.0326  0.1239
  239MOL0     O32868   6.553   6.915   3.604 -0.7505  0.0541  0.4501
  239MOL0     C32869   6.669   6.922   3.528 -0.5398  0.0232 -0.1465
  239MOL0     C32870   6.663   6.978   3.399  0.4927 -0.4554  0.6082
  239MOL0     C32871   6.773   6.983   3.313  0.4730  0.5675 -1.2434
  239MOL0     C32872   6.748   7.037   3.179  0.0581  0.3295 -0.1856
  239MOL0     C32873   6.894   6.927   3.360 -0.1432  0.6264  0.0935
  239MOL0     C32874   7.012   6.943   3.269 -0.2944 -0.4072  0.1198
  239MOL0     O32875   7.092   6.831   3.263  0.0510  0.6599  0.2885
  239MOL0     C32876   7.202   6.825   3.183 -0.0408  0.4209 -0.0394
  239MOL0     C32877   7.207   6.715   3.093 -1.0079  0.4569 -0.1416
  239MOL0     C32878   7.315   6.696   3.011 -0.4085 -0.0971 -0.3122
  239MOL0     C32879   7.421   6.785   3.022 -0.1275  0.3587 -0.6875
  239MOL0     O32880   7.520   6.760   2.934 -0.3807  0.0005  0.6242
  239MOL0     C32881   7.610   6.868   2.896  0.5812 -0.0638  0.3122
  239MOL0     C32882   7.650   6.854   2.743 -0.6206 -0.0558 -0.2141
  239MOL0     C32883   7.756   6.963   2.710 -0.6541  0.0360  1.0411
  239MOL0     C32884   7.896   6.900   2.697 -0.3879 -0.2014 -0.5493
  239MOL0     C32885   8.017   7.003   2.664  0.0243  0.7681  0.3219
  239MOL0     C32886   8.150   6.941   2.689  0.6895  0.5523  0.2973
  239MOL0     C32887   8.261   7.034   2.636 -0.1308 -0.1014 -0.6666
  239MOL0     C32888   8.397   6.963   2.628 -0.0894 -0.0791 -0.3482
  239MOL0    Cl32889   8.453   6.884   2.774  0.4327 -0.1373 -0.4637
  239MOL0     C32890   7.426   6.888   3.118  0.2958 -0.0722 -0.3995
  239MOL0     C32891   7.312   6.917   3.191 -1.1504  0.2921  0.1782
  239MOL0     O32892   7.031   7.046   3.206 -0.0421 -0.2501  0.2894
  239MOL0     C32893   6.897   6.863   3.488  0.3266 -0.7844  0.4382
  239MOL0     C32894   6.788   6.862   3.572 -0.0460 -0.3845  1.0220
  239MOL0     N32895   6.469   6.923   4.165  0.0034 -1.0605 -0.1353
  239MOL0     N32896   6.426   6.846   4.260 -0.0079 -0.3979 -0.5790
  239MOL0     C32897   5.410   7.487   4.684  0.2224 -0.2553  0.1076
  239MOL0     C32898   5.303   7.573   4.705  0.3132 -0.0720 -0.0858
  239MOL0     C32899   4.874   7.711   4.807 -0.1949 -0.5142 -0.4536
  239MOL0     C32900   4.879   7.781   4.682  0.0874 -0.5276 -0.4192
  239MOL0     C32901   4.781   7.869   4.639 -0.3671 -0.3374  0.0326
  239MOL0     C32902   4.679   7.895   4.724  0.5384 -0.1088  0.0690
  239MOL0     O32903   4.575   7.983   4.709 -0.0452 -0.0873 -1.0590
  239MOL0     C32904   4.584   8.079   4.601 -0.6975 -0.4287  0.7789
  239MOL0     C32905   4.506   8.019   4.484  0.3847 -0.2105  0.6306
  239MOL0     C32906   4.491   8.101   4.356  0.2139  0.1272  0.2970
  239MOL0     C32907   4.411   8.016   4.247  0.2942  0.2624 -0.7074
  239MOL0     C32908   4.389   8.099   4.131 -0.4546 -0.0760  0.7293
  239MOL0     C32909   4.373   8.169   4.032  0.1519  0.0053 -0.5221
  239MOL0     C32910   4.667   7.820   4.837 -0.4167  1.0497 -0.5009
  239MOL0     C32911   4.760   7.727   4.881 -0.1975 -0.0970 -0.4953
  239MOL0     C32912   4.730   7.638   4.996  0.5595 -0.1625  0.2729
  239MOL0     H32913   5.078   7.326   4.780 -1.3983  0.8236 -2.4847
  239MOL0     H32914   5.264   7.190   4.745 -0.4944  0.4914 -1.6296
  239MOL0     H32915   5.492   7.213   4.512  2.3290 -0.2043 -1.3305
  239MOL0     H32916   5.458   7.088   4.639 -1.3932  0.7125 -1.5645
  239MOL0     H32917   5.737   7.205   4.587 -0.5281  0.5936 -0.8794
  239MOL0     H32918   5.694   7.084   4.707 -1.0372  0.8181 -0.1215
  239MOL0     H32919   5.639   6.909   4.525  1.4272 -0.1144  4.1888
  239MOL0     H32920   5.670   7.036   4.399  2.6900 -2.5806 -1.5811
  239MOL0     H32921   5.911   7.037   4.487 -0.4004  0.0417 -1.3792
  239MOL0     H32922   5.868   6.909   4.600 -0.1811 -0.2257 -0.3692
  239MOL0     H32923   5.842   6.868   4.305 -0.2614  0.2992  0.2595
  239MOL0     H32924   5.869   6.762   4.454 -0.7644  0.8105  0.7689
  239MOL0     H32925   6.072   6.937   4.302  0.3437  0.4241  0.7771
  239MOL0     H32926   6.099   6.847   4.457 -0.5980 -0.5643 -0.0957
  239MOL0     H32927   6.040   6.745   4.186 -2.7092  0.0719  1.3711
  239MOL0     H32928   6.022   6.643   4.333 -0.5880  0.8375  1.9906
  239MOL0     H32929   6.262   6.682   4.384 -0.9673  0.3029  0.6555
  239MOL0     H32930   6.230   6.600   4.229 -0.3018 -0.6753  0.1835
  239MOL0     H32931   6.180   6.828   4.042  1.6384 -3.2188 -1.8935
  239MOL0     H32932   6.509   7.017   3.934  0.5501  0.4206  0.7180
  239MOL0     H32933   6.367   7.113   3.948 -0.1722 -0.2417 -1.2449
  239MOL0     H32934   6.229   6.912   3.850  0.8043 -0.7628  0.8895
  239MOL0     H32935   6.333   7.014   3.739  1.9758 -1.4142 -1.6200
  239MOL0     H32936   6.406   6.758   3.852 -0.4299  0.4321 -0.3253
  239MOL0     H32937   6.354   6.774   3.687 -2.0312 -1.9932  1.9562
  239MOL0     H32938   6.616   6.889   3.802 -1.7726  1.4240 -0.0617
  239MOL0     H32939   6.589   6.744   3.699  0.1321  0.3910  0.3644
  239MOL0     H32940   6.563   7.007   3.367  0.5070 -0.4784  0.5436
  239MOL0     H32941   6.825   7.113   3.157  0.5487 -0.5006 -1.4218
  239MOL0     H32942   6.646   7.076   3.173 -0.0199  0.9175  3.0786
  239MOL0     H32943   6.756   6.951   3.113  0.5965 -0.8354  1.3521
  239MOL0     H32944   7.128   6.641   3.085 -0.0216 -0.6403  0.0816
  239MOL0     H32945   7.319   6.612   2.942 -1.1575 -1.4372  1.1973
  239MOL0     H32946   7.567   6.967   2.912  1.6719  0.1818  1.8901
  239MOL0     H32947   7.701   6.869   2.956 -0.4862  3.3347  2.0960
  239MOL0     H32948   7.668   6.755   2.699 -1.7745  1.2725 -4.1151
  239MOL0     H32949   7.559   6.883   2.689 -0.9665 -0.5625  0.0875
  239MOL0     H32950   7.746   7.039   2.789 -0.8626  1.6763 -0.4999
  239MOL0     H32951   7.730   7.016   2.618  1.5308  2.2432  1.5985
  239MOL0     H32952   7.896   6.832   2.612 -1.4117 -1.8320  0.7011
  239MOL0     H32953   7.915   6.844   2.789  0.5799 -0.1401 -0.6990
  239MOL0     H32954   8.002   7.026   2.558 -1.8499 -2.6167 -0.3056
  239MOL0     H32955   8.000   7.090   2.729 -0.3880  1.4036 -0.6255
  239MOL0     H32956   8.158   6.844   2.639 -0.3668  0.4484  0.3078
  239MOL0     H32957   8.164   6.929   2.797  0.9778 -0.9144  0.1163
  239MOL0     H32958   8.275   7.127   2.693  1.6489  0.1325 -1.4285
  239MOL0     H32959   8.239   7.071   2.536  0.1814 -0.7015 -0.9618
  239MOL0     H32960   8.469   7.039   2.596 -0.4992 -0.9204 -3.5955
  239MOL0     H32961   8.386   6.882   2.555 -3.7516 -0.5238  0.4897
  239MOL0     H32962   7.506   6.961   3.113 -3.1304  4.0924 -0.0795
  239MOL0     H32963   7.310   7.007   3.252  3.0344  1.0951 -0.6028
  239MOL0     H32964   6.986   6.806   3.515  0.3170 -0.9802  0.0574
  239MOL0     H32965   6.804   6.825   3.673  0.4310  0.1972  1.1673
  239MOL0     H32966   5.506   7.536   4.671  0.2611  0.1993  1.8383
  239MOL0     H32967   5.302   7.679   4.684 -1.4846 -0.8006 -4.9239
  239MOL0     H32968   4.966   7.780   4.618  0.8580  1.2817  0.5371
  239MOL0     H32969   4.792   7.929   4.549  0.3006  2.5373  1.8853
  239MOL0     H32970   4.549   8.177   4.635  0.2483  1.3390 -2.8722
  239MOL0     H32971   4.686   8.099   4.567 -0.1239 -4.7235 -0.6231
  239MOL0     H32972   4.408   7.986   4.519 -0.1702  0.4346 -0.2639
  239MOL0     H32973   4.566   7.933   4.453  0.0304 -0.4631  0.6347
  239MOL0     H32974   4.440   8.194   4.382  2.3880  1.1286  1.2054
  239MOL0     H32975   4.589   8.128   4.315 -0.2939  1.8903  0.1637
  239MOL0     H32976   4.313   7.983   4.285  0.0702  3.0674  1.4996
  239MOL0     H32977   4.466   7.929   4.211  0.5865  0.3129 -0.3835
  239MOL0     H32978   4.347   8.216   3.939 -1.0698 -1.5119 -0.9916
  239MOL0     H32979   4.577   7.826   4.898  0.3727 -2.6566  1.3504
  239MOL0     H32980   4.752   7.535   4.964  0.8966  0.1335 -0.4805
  239MOL0     H32981   4.792   7.670   5.080  1.3691  0.3886 -0.5097
  239MOL0     H32982   4.630   7.639   5.039  0.7403  0.6937  0.7014
  240MOL0     O32983   0.866   6.237  10.230  0.4242 -0.0460  0.4244
  240MOL0     C32984   0.875   6.216  10.353  0.0447  0.7280  0.3206
  240MOL0     O32985   0.983   6.170  10.417  0.3688 -0.0923  0.0599
  240MOL0     C32986   1.105   6.138  10.352  0.2076 -1.2891  0.0960
  240MOL0     C32987   1.220   6.156  10.433  0.0661  0.1194  0.2998
  240MOL0     C32988   1.355   6.129  10.384  0.1458 -0.6455  0.2359
  240MOL0     C32989   1.366   6.062  10.264  0.1339  0.4531 -0.0310
  240MOL0     O32990   1.493   6.018  10.235 -0.1382  0.3758  0.0228
  240MOL0     C32991   1.540   6.091  10.119  0.3355  0.1927 -0.8509
  240MOL0     C32992   1.691   6.107  10.118  0.3269 -0.4702 -0.6662
  240MOL0     C32993   1.743   6.150  10.251  0.4934  0.3528 -0.3929
  240MOL0     C32994   1.893   6.153  10.251  1.2868  0.4762  0.2149
  240MOL0     C32995   1.948   6.251  10.354  0.1257  0.7837 -1.2391
  240MOL0     C32996   2.100   6.230  10.374  0.7177 -0.0554  0.5084
  240MOL0     C32997   2.186   6.264  10.253 -0.0012  0.7542  0.9426
  240MOL0     C32998   2.339   6.247  10.296  0.3249  0.7945  0.4502
  240MOL0     N32999   2.418   6.279  10.176 -0.2294 -0.4988  0.1388
  240MOL0     C33000   2.493   6.391  10.149 -0.5329  0.7503 -0.2008
  240MOL0     C33001   2.531   6.378  10.018  0.5995 -0.5214 -0.7317
  240MOL0     C33002   2.617   6.469   9.940  0.4562  0.2094  0.7092
  240MOL0     C33003   2.697   6.385   9.843  0.5892 -0.0867 -0.2879
  240MOL0     C33004   2.808   6.313   9.915  0.0440  0.5131  0.2488
  240MOL0     C33005   2.883   6.211   9.825 -0.0067  0.1081  0.2828
  240MOL0     O33006   2.983   6.287   9.752 -0.9597 -0.1232 -0.4259
  240MOL0     C33007   3.104   6.222   9.732  0.3882  0.7874  0.0928
  240MOL0     C33008   3.130   6.085   9.729 -0.3960  0.1050  0.2718
  240MOL0     C33009   3.257   6.035   9.705  0.1212  0.0259  0.1466
  240MOL0     C33010   3.263   5.888   9.696 -0.5122  0.0605 -0.5059
  240MOL0     C33011   3.360   6.124   9.676 -0.6590  0.2188 -0.2506
  240MOL0     C33012   3.505   6.089   9.643 -0.2115 -0.0311  0.6778
  240MOL0     O33013   3.594   6.192   9.625  0.2791  0.3929  0.4775
  240MOL0     C33014   3.731   6.171   9.615 -0.1807 -0.6041  1.4875
  240MOL0     C33015   3.808   6.053   9.640  0.4955  0.4962 -0.2123
  240MOL0     C33016   3.949   6.056   9.622  0.6017 -0.0715 -0.3897
  240MOL0     C33017   4.011   6.175   9.577  0.7844 -0.5798  0.1058
  240MOL0     O33018   4.148   6.190   9.573  0.3417 -0.3472  0.5223
  240MOL0     C33019   4.235   6.094   9.637  1.0422  0.6020  0.0572
  240MOL0     C33020   4.381   6.120   9.622 -0.2477  0.3976 -0.6337
  240MOL0     C33021   4.471   6.009   9.560  0.9333 -0.0929 -0.9477
  240MOL0     C33022   4.618   6.047   9.559  0.4165 -0.3115 -0.6389
  240MOL0     C33023   4.700   5.925   9.523  0.6776 -0.0018 -0.4159
  240MOL0     C33024   4.841   5.937   9.481 -0.4317 -0.9848  0.6492
  240MOL0     C33025   4.887   5.798   9.443 -0.7668 -0.2537 -0.3697
  240MOL0     C33026   5.023   5.801   9.366  0.1569  0.0352  0.0932
  240MOL0    Cl33027   5.148   5.870   9.477  0.4977  0.1442 -0.0969
  240MOL0     C33028   3.937   6.288   9.553  0.4906  0.0746  0.5133
  240MOL0     C33029   3.796   6.289   9.572  0.5564  0.0277 -0.3840
  240MOL0     O33030   3.534   5.971   9.634  0.3680  0.6532 -0.1224
  240MOL0     C33031   3.337   6.263   9.693 -0.6450 -0.1898 -0.0001
  240MOL0     C33032   3.209   6.318   9.725 -0.7823  0.0450  1.1774
  240MOL0     N33033   2.475   6.261   9.970 -0.9616 -0.4366  0.6852
  240MOL0     N33034   2.406   6.216  10.059 -0.0352  1.2238 -0.4758
  240MOL0     C33035   1.251   6.046  10.185  0.0030  0.3123 -0.3844
  240MOL0     C33036   1.123   6.082  10.221  0.4385  0.2187 -0.1114
  240MOL0     C33037   0.747   6.217  10.438  0.7901 -0.5104 -0.3603
  240MOL0     C33038   0.751   6.142  10.549 -0.1794 -0.0058 -0.8845
  240MOL0     C33039   0.641   6.128  10.634  0.2943 -0.2672  0.1153
  240MOL0     C33040   0.527   6.200  10.615  0.5780  0.8240  0.3475
  240MOL0     O33041   0.420   6.180  10.700 -0.6934 -0.4898 -0.2591
  240MOL0     C33042   0.324   6.284  10.713  0.4211 -1.1266 -1.7019
  240MOL0     C33043   0.196   6.273  10.637  0.2378  0.0531  0.7647
  240MOL0     C33044   0.134   6.139  10.641 -0.4942  0.1158  0.5081
  240MOL0     C33045   0.203   6.030  10.550  0.6434 -0.5564 -0.4957
  240MOL0     C33046   0.200   6.068  10.416  0.3084  0.1235 -0.6508
  240MOL0     C33047   0.187   6.118  10.299  0.7865 -0.4690 -0.0373
  240MOL0     C33048   0.518   6.277  10.494  0.0325  0.6551  0.5066
  240MOL0     C33049   0.626   6.281  10.405 -0.7231 -0.1845 -0.5534
  240MOL0     C33050   0.602   6.345  10.267  0.6446  0.6031 -0.1780
  240MOL0     H33051   1.209   6.198  10.532 -0.5760  0.6454  0.0054
  240MOL0     H33052   1.445   6.134  10.445 -0.1373 -2.1756  0.8268
  240MOL0     H33053   1.513   6.197  10.113  2.2732  0.7084 -0.9631
  240MOL0     H33054   1.495   6.042  10.032 -0.4779 -1.0726  0.2507
  240MOL0     H33055   1.728   6.006  10.099  1.8718 -0.4226  1.7083
  240MOL0     H33056   1.729   6.178  10.044 -1.5931  0.8982 -0.4142
  240MOL0     H33057   1.718   6.255  10.270  2.1820  0.7955 -0.5172
  240MOL0     H33058   1.712   6.084  10.333 -0.4253 -0.2136 -1.1669
  240MOL0     H33059   1.930   6.053  10.277  2.4085  1.0346  0.8696
  240MOL0     H33060   1.928   6.173  10.150  0.1184 -4.0500 -1.3237
  240MOL0     H33061   1.890   6.244  10.446 -0.8247 -0.7333 -1.8986
  240MOL0     H33062   1.922   6.353  10.327 -2.1873  1.0304  1.5313
  240MOL0     H33063   2.111   6.298  10.459 -1.7683 -0.3162  1.1361
  240MOL0     H33064   2.125   6.126  10.398  0.0191 -0.4967 -0.5741
  240MOL0     H33065   2.161   6.364  10.218  0.9414  1.0074  0.9450
  240MOL0     H33066   2.168   6.193  10.172  2.8962  0.1207  0.7458
  240MOL0     H33067   2.356   6.304  10.389  0.3756  0.0398  0.9102
  240MOL0     H33068   2.344   6.141  10.323 -0.1482  0.2521 -1.4921
  240MOL0     H33069   2.515   6.476  10.213  0.5020  1.0494 -0.9341
  240MOL0     H33070   2.681   6.515  10.016 -1.8359 -1.3832  3.8016
  240MOL0     H33071   2.556   6.547   9.892  1.3455 -0.7179 -2.1507
  240MOL0     H33072   2.633   6.313   9.791  1.5747 -1.2853  0.1163
  240MOL0     H33073   2.744   6.450   9.770 -0.1064  0.2433 -0.4468
  240MOL0     H33074   2.874   6.390   9.956  0.5346 -1.2271  2.9634
  240MOL0     H33075   2.774   6.244   9.993  1.0916  0.1763  0.4249
  240MOL0     H33076   2.923   6.124   9.877  0.0508  0.8410  1.4933
  240MOL0     H33077   2.822   6.173   9.743  1.9306  0.7768 -1.5740
  240MOL0     H33078   3.047   6.015   9.723 -0.3660  0.1396 -3.8156
  240MOL0     H33079   3.302   5.845   9.788 -4.3482 -0.4422  1.0595
  240MOL0     H33080   3.312   5.849   9.606 -0.8438  0.6046 -0.9290
  240MOL0     H33081   3.165   5.842   9.701 -0.0336 -0.8346  1.2560
  240MOL0     H33082   3.766   5.957   9.666 -0.9063  1.3167  0.6674
  240MOL0     H33083   4.013   5.969   9.636 -1.2859 -1.8629 -2.1221
  240MOL0     H33084   4.206   6.101   9.742 -0.5333  0.3235 -0.3381
  240MOL0     H33085   4.228   5.993   9.594  2.0680  0.7715 -0.5414
  240MOL0     H33086   4.384   6.218   9.573 -2.8775  0.8767 -0.0088
  240MOL0     H33087   4.422   6.127   9.723  0.4632 -1.1667 -0.7905
  240MOL0     H33088   4.435   5.981   9.460  1.2530 -0.2973 -1.0066
  240MOL0     H33089   4.455   5.917   9.616 -1.2442  0.3461 -0.7361
  240MOL0     H33090   4.630   6.075   9.665  0.2749  0.5473 -0.8353
  240MOL0     H33091   4.643   6.137   9.501  0.0153  1.4126  1.6850
  240MOL0     H33092   4.697   5.859   9.610  0.4946 -0.4887 -0.7871
  240MOL0     H33093   4.651   5.870   9.442  1.2519 -1.7175  0.3508
  240MOL0     H33094   4.906   5.978   9.559  0.5331 -1.6494  0.2218
  240MOL0     H33095   4.852   5.997   9.391  1.2851 -0.5099  1.1301
  240MOL0     H33096   4.820   5.752   9.370  1.4490 -2.5447 -1.1111
  240MOL0     H33097   4.886   5.741   9.536 -1.3303 -0.7892 -0.7029
  240MOL0     H33098   5.019   5.865   9.277 -1.6240 -2.3494 -1.7125
  240MOL0     H33099   5.038   5.704   9.318 -2.2749  1.2963 -3.7453
  240MOL0     H33100   3.988   6.382   9.531 -1.1184  1.1736  1.2658
  240MOL0     H33101   3.731   6.373   9.547 -0.2731 -0.5336 -0.1633
  240MOL0     H33102   3.409   6.343   9.683 -1.5402  0.7835  1.0747
  240MOL0     H33103   3.195   6.425   9.732 -0.4590  0.4474 -2.4182
  240MOL0     H33104   1.259   6.000  10.087  0.0260 -1.2448  0.3155
  240MOL0     H33105   1.039   6.082  10.152  0.9102  0.2475 -0.7038
  240MOL0     H33106   0.834   6.086  10.591  0.3620  1.9330  0.8491
  240MOL0     H33107   0.652   6.068  10.724  2.8069 -0.3198 -0.1592
  240MOL0     H33108   0.281   6.282  10.814 -0.7604 -1.8929 -2.2012
  240MOL0     H33109   0.365   6.381  10.684  0.6164 -1.3915 -2.3318
  240MOL0     H33110   0.218   6.293  10.531  2.8168 -0.6572  1.0935
  240MOL0     H33111   0.128   6.354  10.666  1.5798  2.3780 -1.9639
  240MOL0     H33112   0.135   6.109  10.746 -4.3369 -0.7641  0.4472
  240MOL0     H33113   0.028   6.151  10.615 -0.2896 -0.9649 -0.9108
  240MOL0     H33114   0.154   5.934  10.567  0.7621 -0.2595  1.8944
  240MOL0     H33115   0.307   6.007  10.574  0.4759 -3.3438 -2.0837
  240MOL0     H33116   0.169   6.181  10.214  1.5001 -1.0177 -0.6089
  240MOL0     H33117   0.425   6.325  10.468  0.2312  0.4308 -0.6373
  240MOL0     H33118   0.517   6.414  10.265  1.9584  2.4429  2.0813
  240MOL0     H33119   0.685   6.407  10.232 -0.4949  1.4703 -1.4685
  240MOL0     H33120   0.578   6.263  10.198 -1.8356 -0.3286  1.6460
  241MOL0     O33121   8.071   4.165   9.011  0.0212 -0.4136  0.2090
  241MOL0     C33122   8.068   4.071   8.933  0.3611  0.4179  0.5627
  241MOL0     O33123   8.168   3.988   8.903  0.2119  0.3208  0.2028
  241MOL0     C33124   8.302   4.024   8.912 -0.0126  0.1921 -0.6296
  241MOL0     C33125   8.354   4.148   8.894 -0.1484 -0.0690  0.6922
  241MOL0     C33126   8.483   4.169   8.905  0.4374  0.3569  0.6327
  241MOL0     C33127   8.580   4.065   8.911  0.2625  0.4764  0.0173
  241MOL0     O33128   8.715   4.092   8.883 -0.3215 -0.2357 -1.1640
  241MOL0     C33129   8.789   4.114   9.014  0.1235 -0.7753  0.3258
  241MOL0     C33130   8.930   4.076   8.983  0.0077 -0.0175  0.8416
  241MOL0     C33131   9.004   4.079   9.108  0.1036  0.4875  0.4183
  241MOL0     C33132   9.152   4.028   9.087  0.3450  0.7408 -0.2340
  241MOL0     C33133   9.246   4.025   9.210  0.0905 -0.3707  0.0080
  241MOL0     C33134   9.281   4.173   9.240  0.0421 -0.3327 -0.2884
  241MOL0     C33135   9.416   4.175   9.320  0.1452  0.7425  0.6355
  241MOL0     C33136   9.423   4.307   9.403  0.1490  0.2714  0.6704
  241MOL0     N33137   9.380   4.425   9.329  0.3887  0.1596  0.5390
  241MOL0     C33138   9.450   4.497   9.235 -1.0320  0.5660 -0.3316
  241MOL0     C33139   9.376   4.600   9.192 -0.4233  0.6946 -0.6788
  241MOL0     C33140   9.406   4.705   9.090  0.1284  0.0378  0.2145
  241MOL0     C33141   9.316   4.835   9.092  0.6874 -0.0063  0.6424
  241MOL0     C33142   9.184   4.831   9.021  0.4832  0.0894  0.1385
  241MOL0     C33143   9.176   4.776   8.876 -0.4689  0.8496  1.0970
  241MOL0     O33144   9.252   4.880   8.796  0.4100 -0.0508 -0.8312
  241MOL0     C33145   9.365   4.829   8.732 -0.6162  0.1184  0.0805
  241MOL0     C33146   9.381   4.707   8.674  0.1478 -0.8524  0.5816
  241MOL0     C33147   9.499   4.677   8.598 -0.0137 -0.7015  0.0520
  241MOL0     C33148   9.511   4.535   8.536 -0.5467  0.8045  0.6817
  241MOL0     C33149   9.609   4.766   8.589  0.1216  0.0744  0.8281
  241MOL0     C33150   9.748   4.732   8.529  0.2633  0.8870  0.1547
  241MOL0     O33151   9.781   4.597   8.516 -0.1451  0.7169  0.1604
  241MOL0     C33152   9.901   4.571   8.469 -0.1593 -0.9238  0.3654
  241MOL0     C33153   9.966   4.467   8.532 -0.0516 -0.9383  0.3268
  241MOL0     C33154  10.084   4.416   8.483  0.3153  0.5321  0.2605
  241MOL0     C33155  10.147   4.470   8.372 -0.8695  0.7843  0.4686
  241MOL0     O33156  10.260   4.407   8.335 -0.1771 -0.4484 -0.3333
  241MOL0     C33157  10.320   4.471   8.216 -0.3699  1.1389 -0.1788
  241MOL0     C33158  10.457   4.406   8.194 -0.4969  0.5376 -1.3410
  241MOL0     C33159  10.561   4.411   8.309 -0.0434 -0.1433  0.9590
  241MOL0     C33160  10.589   4.560   8.365 -0.3060 -0.0668  0.2174
  241MOL0     C33161  10.717   4.569   8.455 -0.5027  0.3920  0.3942
  241MOL0     C33162  10.722   4.476   8.580  0.4786 -0.0594  0.7471
  241MOL0     C33163  10.811   4.528   8.690  0.4256 -0.1218  0.1396
  241MOL0     C33164  10.957   4.535   8.645 -0.6106  0.6375 -0.0652
  241MOL0    Cl33165  11.062   4.601   8.770 -0.2773 -0.1203  0.2520
  241MOL0     C33166  10.083   4.580   8.312  0.5990 -0.6851 -0.5789
  241MOL0     C33167   9.954   4.627   8.353  0.7669 -0.1371  0.5132
  241MOL0     O33168   9.823   4.829   8.509  0.4062 -0.1012  0.0494
  241MOL0     C33169   9.584   4.891   8.639 -0.1380  0.6156 -0.6225
  241MOL0     C33170   9.469   4.922   8.710  0.9646 -0.7400 -0.2583
  241MOL0     N33171   9.262   4.596   9.279 -0.5913 -0.9687  0.2638
  241MOL0     N33172   9.262   4.497   9.355 -0.1888  0.2686  0.0321
  241MOL0     C33173   8.530   3.938   8.932 -0.2590  0.1135 -0.3890
  241MOL0     C33174   8.388   3.924   8.934 -0.0989  0.7262  0.3135
  241MOL0     C33175   7.936   4.023   8.891 -0.9074 -0.0148  0.7143
  241MOL0     C33176   7.939   3.917   8.792  0.2626  1.3775 -0.3405
  241MOL0     C33177   7.820   3.856   8.754 -0.4978  0.0602 -0.6097
  241MOL0     C33178   7.699   3.892   8.804  0.1139  0.4133 -0.2892
  241MOL0     O33179   7.581   3.840   8.763 -0.3663  0.2030 -0.5058
  241MOL0     C33180   7.576   3.717   8.691  1.3629 -0.3783 -0.2367
  241MOL0     C33181   7.434   3.660   8.683  0.9916  0.5839  0.9465
  241MOL0     C33182   7.353   3.731   8.567 -0.2646 -0.3881 -0.0685
  241MOL0     C33183   7.223   3.656   8.532 -0.0097  0.2307 -0.9265
  241MOL0     C33184   7.166   3.684   8.399  0.7457  1.9138  0.0375
  241MOL0     C33185   7.109   3.707   8.297  0.3735  0.0466  0.4995
  241MOL0     C33186   7.693   4.002   8.887 -0.5868  0.0728  0.3366
  241MOL0     C33187   7.809   4.068   8.930 -0.9336 -0.6421  0.7074
  241MOL0     C33188   7.783   4.188   9.014 -0.4381  0.3458  0.1654
  241MOL0     H33189   8.293   4.235   8.870 -0.3004 -1.0459 -3.0462
  241MOL0     H33190   8.522   4.270   8.905 -0.6000  0.7759  1.7302
  241MOL0     H33191   8.750   4.042   9.087  0.0029  2.5777  3.9084
  241MOL0     H33192   8.780   4.214   9.058  0.2097 -1.1767  1.2747
  241MOL0     H33193   8.942   3.979   8.934  3.8249 -0.7218  2.8139
  241MOL0     H33194   8.966   4.153   8.913  3.0204 -1.7707  0.2932
  241MOL0     H33195   9.018   4.187   9.124  0.8976  0.3305  0.8666
  241MOL0     H33196   8.954   4.044   9.199 -2.3781  3.5946  0.4474
  241MOL0     H33197   9.146   3.928   9.044  2.9930  1.4801 -2.6349
  241MOL0     H33198   9.187   4.087   9.001  1.0987  1.3217  0.4599
  241MOL0     H33199   9.331   3.963   9.181 -1.2954 -1.2640 -2.4111
  241MOL0     H33200   9.189   3.983   9.293 -0.5134  1.0057  0.3182
  241MOL0     H33201   9.302   4.230   9.150  2.0120 -0.7212 -0.1201
  241MOL0     H33202   9.200   4.207   9.306  1.7514 -0.2567  1.9025
  241MOL0     H33203   9.503   4.164   9.255 -0.6657  1.2307 -0.5623
  241MOL0     H33204   9.418   4.092   9.391 -1.6531  1.1566  1.2272
  241MOL0     H33205   9.357   4.290   9.489 -0.0002  1.2898  0.7719
  241MOL0     H33206   9.527   4.327   9.432  0.2534  0.5288  0.1241
  241MOL0     H33207   9.550   4.472   9.198 -1.3185  1.0561 -1.4869
  241MOL0     H33208   9.408   4.660   8.991 -1.8671 -1.2047  0.6853
  241MOL0     H33209   9.507   4.744   9.105  0.3498 -0.5230  0.2241
  241MOL0     H33210   9.297   4.864   9.196  0.6782 -2.1720  1.2951
  241MOL0     H33211   9.367   4.920   9.045 -0.2083  1.9597  3.0001
  241MOL0     H33212   9.126   4.756   9.075 -0.9465 -0.9425 -2.5850
  241MOL0     H33213   9.140   4.931   9.030  1.5245  0.8701 -2.4110
  241MOL0     H33214   9.220   4.677   8.863  0.6705  1.6207 -2.0716
  241MOL0     H33215   9.076   4.774   8.831  0.5933  0.0239 -1.4422
  241MOL0     H33216   9.299   4.636   8.662  1.0334 -1.6855 -1.0539
  241MOL0     H33217   9.533   4.560   8.431 -1.7771  0.9573  0.4380
  241MOL0     H33218   9.416   4.482   8.540 -0.5514  0.8913  3.1937
  241MOL0     H33219   9.587   4.466   8.573 -2.4098 -0.9191  1.4516
  241MOL0     H33220   9.920   4.428   8.622 -2.2556 -0.1062 -0.3553
  241MOL0     H33221  10.111   4.324   8.532 -0.7889  0.3290  0.5100
  241MOL0     H33222  10.258   4.436   8.132  1.7874 -2.9327 -0.3412
  241MOL0     H33223  10.328   4.579   8.224  0.7226  1.0046  0.5972
  241MOL0     H33224  10.443   4.301   8.164 -0.1093 -0.0287  0.3359
  241MOL0     H33225  10.500   4.463   8.111 -0.1103  2.6438  0.2358
  241MOL0     H33226  10.658   4.367   8.285 -1.0978 -2.0872  0.0043
  241MOL0     H33227  10.520   4.361   8.396 -2.9853 -0.2625 -0.3670
  241MOL0     H33228  10.499   4.594   8.416  1.2362  1.0427  2.3426
  241MOL0     H33229  10.605   4.620   8.275 -1.1450  0.3612  0.3399
  241MOL0     H33230  10.811   4.555   8.400 -1.0740 -1.2724 -0.2171
  241MOL0     H33231  10.727   4.669   8.498  1.5700  0.6628 -0.5860
  241MOL0     H33232  10.755   4.376   8.550  0.9203  0.3658 -0.2233
  241MOL0     H33233  10.626   4.463   8.632  0.5472 -0.4786  0.7738
  241MOL0     H33234  10.807   4.480   8.788  3.5883  0.8336  0.8862
  241MOL0     H33235  10.788   4.633   8.712 -0.2240 -0.5046  1.3313
  241MOL0     H33236  10.967   4.593   8.553 -1.6793 -1.0900 -1.3296
  241MOL0     H33237  11.003   4.439   8.620 -0.0518  1.3380 -1.8923
  241MOL0     H33238  10.117   4.611   8.214  0.0778 -1.2567 -0.9490
  241MOL0     H33239   9.892   4.693   8.294  0.7960  0.9157  1.6385
  241MOL0     H33240   9.667   4.960   8.644 -2.2542  3.2300  2.4116
  241MOL0     H33241   9.456   5.023   8.747 -1.3758 -1.3166  0.6357
  241MOL0     H33242   8.601   3.857   8.941 -0.7469 -0.1817  0.9796
  241MOL0     H33243   8.333   3.831   8.948 -3.3760  1.9469 -2.9515
  241MOL0     H33244   8.030   3.876   8.750 -0.3199 -3.3020  2.3458
  241MOL0     H33245   7.826   3.773   8.684  0.8370  0.8272 -1.4532
  241MOL0     H33246   7.618   3.737   8.592  0.1687  3.6401 -0.1123
  241MOL0     H33247   7.642   3.638   8.728 -2.1321 -2.5459  1.9202
  241MOL0     H33248   7.375   3.660   8.775 -0.1674  2.3765  0.2541
  241MOL0     H33249   7.449   3.552   8.673  1.4306  0.7201  0.0134
  241MOL0     H33250   7.334   3.835   8.595  1.0214 -0.4629  1.1848
  241MOL0     H33251   7.407   3.726   8.472 -1.7659  2.0723 -1.1447
  241MOL0     H33252   7.149   3.668   8.612 -2.1228  2.4758 -3.0501
  241MOL0     H33253   7.253   3.551   8.524  0.9437  0.3669  0.5264
  241MOL0     H33254   7.078   3.736   8.199  0.8452  1.1350  0.6572
  241MOL0     H33255   7.597   4.040   8.922 -0.6971  1.0157 -0.9187
  241MOL0     H33256   7.805   4.281   8.961  3.7705  0.0939  1.1729
  241MOL0     H33257   7.682   4.185   9.056 -0.6974 -0.5568 -0.5077
  241MOL0     H33258   7.846   4.180   9.103 -1.1789  3.9828  1.2054
  242MOL0     O33259   6.480   6.980   0.590  0.1269  0.2380 -0.3323
  242MOL0     C33260   6.498   7.041   0.490  0.7421 -0.5085  0.3530
  242MOL0     O33261   6.613   7.039   0.417  0.7678  0.9513 -0.5531
  242MOL0     C33262   6.737   7.029   0.482 -0.1257  0.7474 -0.2325
  242MOL0     C33263   6.754   7.042   0.626  0.6542  0.3441  0.6271
  242MOL0     C33264   6.883   7.042   0.673  0.4394  0.4826 -1.2247
  242MOL0     C33265   7.002   7.018   0.595  0.1265  1.0292  0.0622
  242MOL0     O33266   7.117   7.018   0.670 -0.2529 -0.8381 -0.5566
  242MOL0     C33267   7.246   7.001   0.619  0.0891 -1.0817  0.2941
  242MOL0     C33268   7.355   7.027   0.734 -0.7222  0.3663 -0.1647
  242MOL0     C33269   7.496   7.044   0.691 -0.5288 -0.0712  0.3472
  242MOL0     C33270   7.510   7.173   0.604  0.1347  0.0083  0.5326
  242MOL0     C33271   7.660   7.199   0.589 -0.3109  0.3967 -0.3549
  242MOL0     C33272   7.683   7.318   0.497  0.1274  0.5708 -0.2182
  242MOL0     C33273   7.824   7.377   0.505 -0.7573 -0.8665  0.6461
  242MOL0     C33274   7.854   7.469   0.620 -0.4426  0.0713  0.1824
  242MOL0     N33275   7.993   7.516   0.608  0.0911  0.4205  0.0318
  242MOL0     C33276   8.039   7.588   0.502  0.7610 -0.5683 -0.0336
  242MOL0     C33277   8.172   7.611   0.526  0.1920  0.1642 -0.6351
  242MOL0     C33278   8.276   7.668   0.438  0.0560  0.1708  0.7484
  242MOL0     C33279   8.407   7.606   0.453 -0.2364  0.3861  0.0486
  242MOL0     C33280   8.511   7.687   0.373 -0.2324 -0.2991  0.1175
  242MOL0     C33281   8.650   7.632   0.410  0.2420 -0.1676 -1.0421
  242MOL0     O33282   8.651   7.488   0.410 -0.3539  0.1858 -0.0667
  242MOL0     C33283   8.769   7.429   0.457  0.3279  0.6188  0.3732
  242MOL0     C33284   8.777   7.286   0.470  0.1508 -0.1142  0.3379
  242MOL0     C33285   8.875   7.214   0.546  0.1428 -1.0207 -0.2180
  242MOL0     C33286   8.850   7.069   0.558  0.1702 -0.0871  0.3162
  242MOL0     C33287   8.985   7.293   0.593 -0.3987  0.1779  0.4880
  242MOL0     C33288   9.093   7.237   0.672  0.0888  0.4771 -0.1925
  242MOL0     O33289   9.061   7.126   0.752 -1.4403  0.5105 -0.5504
  242MOL0     C33290   9.168   7.044   0.781 -0.8570  0.9611 -0.5919
  242MOL0     C33291   9.155   6.906   0.743  0.7451  0.7945  0.1210
  242MOL0     C33292   9.262   6.814   0.758  0.4109 -0.2659 -0.0424
  242MOL0     C33293   9.381   6.861   0.806 -0.9240 -0.5231  0.0554
  242MOL0     O33294   9.480   6.765   0.824 -0.1595 -0.6016 -0.1175
  242MOL0     C33295   9.571   6.781   0.921  0.6109  0.0902 -0.3108
  242MOL0     C33296   9.654   6.652   0.922 -0.4703  0.0390  0.0489
  242MOL0     C33297   9.588   6.517   0.951  0.3331  0.5179 -0.0285
  242MOL0     C33298   9.560   6.475   1.099 -0.8480 -0.3171  0.0842
  242MOL0     C33299   9.491   6.578   1.195  0.7296 -0.6236  0.9504
  242MOL0     C33300   9.352   6.604   1.137  0.7015  0.3460  0.1348
  242MOL0     C33301   9.283   6.712   1.217  0.7320 -0.1328 -0.3130
  242MOL0     C33302   9.138   6.728   1.192  0.1115 -0.4537  0.5105
  242MOL0    Cl33303   9.053   6.580   1.248 -0.1313 -0.0794  0.0837
  242MOL0     C33304   9.395   6.997   0.846  0.2933  0.3880 -0.3487
  242MOL0     C33305   9.283   7.076   0.846 -0.0795 -1.3007  0.2689
  242MOL0     O33306   9.201   7.288   0.658  0.0990 -0.4285  0.6774
  242MOL0     C33307   8.991   7.431   0.568 -0.2401 -0.3307 -0.3414
  242MOL0     C33308   8.887   7.498   0.509  0.9628  0.2691  0.1780
  242MOL0     N33309   8.198   7.572   0.657  0.4894  0.0672 -0.1033
  242MOL0     N33310   8.090   7.508   0.702  0.2104 -0.4298 -0.5339
  242MOL0     C33311   6.984   7.006   0.460 -0.0742 -0.1309 -0.2282
  242MOL0     C33312   6.852   7.011   0.407 -0.7404 -0.3064  0.4403
  242MOL0     C33313   6.384   7.128   0.431 -0.7342  0.6203 -0.2330
  242MOL0     C33314   6.428   7.254   0.371  0.7028 -0.0379 -0.7366
  242MOL0     C33315   6.328   7.328   0.323 -1.0561  0.1945  0.1149
  242MOL0     C33316   6.187   7.296   0.326 -1.1770 -0.4748  0.1280
  242MOL0     O33317   6.097   7.390   0.276 -0.0278 -1.0227 -0.3312
  242MOL0     C33318   5.980   7.342   0.223 -0.2430  0.5726  0.3552
  242MOL0     C33319   5.921   7.446   0.134  0.3285  0.8766  0.2683
  242MOL0     C33320   6.009   7.484   0.016  0.0391 -0.1207 -0.2313
  242MOL0     C33321   5.955   7.566  -0.099  0.4724  0.0498  0.6764
  242MOL0     C33322   5.905   7.696  -0.055  0.2940  0.0925 -0.3251
  242MOL0     C33323   5.865   7.802  -0.016  0.0790  0.4670  0.1625
  242MOL0     C33324   6.150   7.176   0.384  0.3256 -0.1547 -0.6009
  242MOL0     C33325   6.243   7.088   0.430  0.1097  0.6283 -0.0753
  242MOL0     C33326   6.199   6.954   0.486 -0.9541 -0.0570 -0.0003
  242MOL0     H33327   6.674   7.058   0.697  1.2704 -0.7272  1.5897
  242MOL0     H33328   6.897   7.047   0.781  0.9842 -1.0825 -1.1944
  242MOL0     H33329   7.264   7.071   0.536  0.2956  3.7535  3.9684
  242MOL0     H33330   7.259   6.899   0.580  0.1444 -0.2208 -2.1040
  242MOL0     H33331   7.328   7.124   0.777  0.1919  0.4218  0.3011
  242MOL0     H33332   7.357   6.944   0.804 -0.1543  1.0005  0.5899
  242MOL0     H33333   7.571   7.038   0.770  1.8768 -0.3978 -1.8161
  242MOL0     H33334   7.518   6.959   0.626 -0.1091 -0.2054  0.6594
  242MOL0     H33335   7.456   7.164   0.509  2.7391  0.2514 -1.0959
  242MOL0     H33336   7.465   7.259   0.656 -0.3303  0.1679 -0.1197
  242MOL0     H33337   7.714   7.119   0.538  1.2167  1.6607 -0.8255
  242MOL0     H33338   7.695   7.226   0.689 -3.2985  4.0637 -0.0558
  242MOL0     H33339   7.647   7.282   0.400 -1.4054  1.3007  0.0429
  242MOL0     H33340   7.614   7.400   0.522 -0.7337 -0.0875 -0.3918
  242MOL0     H33341   7.847   7.438   0.417 -1.3417  3.1392  3.0376
  242MOL0     H33342   7.898   7.297   0.508  1.7643  1.3448  0.9103
  242MOL0     H33343   7.791   7.559   0.625  0.7604  0.9840 -0.4466
  242MOL0     H33344   7.844   7.408   0.710 -0.4561 -0.3872 -0.1258
  242MOL0     H33345   7.986   7.604   0.409  2.2030 -1.0520 -0.9858
  242MOL0     H33346   8.286   7.775   0.459 -0.0226  0.1571  0.8618
  242MOL0     H33347   8.232   7.654   0.339  1.7650 -0.8126  0.0905
  242MOL0     H33348   8.426   7.601   0.561 -1.7594 -0.1895  0.3211
  242MOL0     H33349   8.403   7.507   0.406  1.3289  1.3911 -2.3769
  242MOL0     H33350   8.500   7.680   0.264 -0.3709  2.1597 -0.0844
  242MOL0     H33351   8.513   7.794   0.392  0.4275 -0.2540 -0.1563
  242MOL0     H33352   8.723   7.670   0.338  0.0344  0.9753 -0.6709
  242MOL0     H33353   8.667   7.672   0.510 -0.4665 -1.8802 -0.1939
  242MOL0     H33354   8.681   7.240   0.447  0.0465  0.3643 -0.1814
  242MOL0     H33355   8.876   7.025   0.654  5.2570 -0.3088 -0.8723
  242MOL0     H33356   8.925   7.029   0.489  1.1202  2.0004  0.0646
  242MOL0     H33357   8.751   7.036   0.524 -0.6149  0.1429  2.2767
  242MOL0     H33358   9.057   6.879   0.706  0.1557 -3.9905  3.9993
  242MOL0     H33359   9.251   6.712   0.722 -1.8539 -0.4372  0.9384
  242MOL0     H33360   9.637   6.866   0.902  0.4369  0.8103  1.9463
  242MOL0     H33361   9.522   6.802   1.016 -1.4161 -1.2501 -1.0017
  242MOL0     H33362   9.694   6.643   0.820 -0.0821 -1.4034  0.3046
  242MOL0     H33363   9.740   6.657   0.989  0.6772  1.9212 -1.4777
  242MOL0     H33364   9.653   6.438   0.914  3.9268  2.1946  2.1410
  242MOL0     H33365   9.489   6.515   0.903  0.6635  0.8419 -0.7358
  242MOL0     H33366   9.653   6.447   1.148 -0.5584  0.1149 -0.2094
  242MOL0     H33367   9.504   6.381   1.103  2.2239 -2.2327  1.4173
  242MOL0     H33368   9.489   6.537   1.296  0.0456 -0.2923  1.0701
  242MOL0     H33369   9.553   6.668   1.194  2.4738 -1.7621  1.4860
  242MOL0     H33370   9.288   6.515   1.138 -1.9474  2.1485  1.8252
  242MOL0     H33371   9.364   6.652   1.040  0.0458 -3.0610 -1.8207
  242MOL0     H33372   9.325   6.805   1.177 -1.5303  1.1070  0.0313
  242MOL0     H33373   9.300   6.702   1.325  0.5094 -0.2283 -0.2869
  242MOL0     H33374   9.125   6.740   1.084 -0.4307  4.8677  0.8955
  242MOL0     H33375   9.097   6.816   1.243  1.8480 -0.9991  3.0271
  242MOL0     H33376   9.489   7.032   0.888 -1.6558  3.4650  1.8561
  242MOL0     H33377   9.305   7.169   0.898  3.4556 -2.2253  0.7268
  242MOL0     H33378   9.074   7.490   0.608 -0.9453 -0.6145  1.6729
  242MOL0     H33379   8.881   7.606   0.511 -2.3699  0.1831  0.0740
  242MOL0     H33380   7.072   7.002   0.396  2.7484  0.4043  3.2802
  242MOL0     H33381   6.847   6.994   0.300  3.0278 -0.9831  0.2366
  242MOL0     H33382   6.529   7.294   0.369  0.6486  0.1055 -2.9647
  242MOL0     H33383   6.356   7.421   0.276 -0.3967 -0.2596 -0.4054
  242MOL0     H33384   6.002   7.249   0.169 -1.3747  1.4442 -1.7425
  242MOL0     H33385   5.899   7.320   0.293 -2.6141 -3.5439 -3.1934
  242MOL0     H33386   5.907   7.534   0.199  2.0287 -0.3239  2.4120
  242MOL0     H33387   5.822   7.409   0.107  0.1619 -1.3758  3.3631
  242MOL0     H33388   6.105   7.525   0.048  0.0804  0.6935 -1.3247
  242MOL0     H33389   6.039   7.394  -0.038  2.0359  1.4811 -1.9598
  242MOL0     H33390   5.869   7.519  -0.148 -1.1966  2.3754  1.2158
  242MOL0     H33391   6.030   7.571  -0.178  2.0602 -0.3132  2.1100
  242MOL0     H33392   5.830   7.894   0.026 -0.0197  1.2952 -1.6428
  242MOL0     H33393   6.045   7.150   0.387 -0.0232  0.8558  4.3323
  242MOL0     H33394   6.221   6.953   0.593 -1.1006  2.4016  0.1182
  242MOL0     H33395   6.094   6.928   0.475 -1.2102  1.1714 -0.7246
  242MOL0     H33396   6.255   6.872   0.440 -2.1890 -0.2125 -1.3017
  243MOL0     O33397   6.486   1.653   7.335  0.1723 -0.5685  0.1954
  243MOL0     C33398   6.380   1.699   7.377 -0.2076 -0.9631  0.2430
  243MOL0     O33399   6.371   1.797   7.470 -1.0658  0.6994 -0.1783
  243MOL0     C33400   6.487   1.833   7.529 -0.0889  0.3394 -0.5578
  243MOL0     C33401   6.548   1.952   7.481  0.0130 -0.4229 -0.6486
  243MOL0     C33402   6.668   1.990   7.537  0.3251  0.2859  1.5916
  243MOL0     C33403   6.720   1.911   7.636 -1.3338  0.2239  0.5422
  243MOL0     O33404   6.845   1.943   7.675 -1.1788  0.7895 -0.1530
  243MOL0     C33405   6.957   1.881   7.601 -1.6834 -0.1722 -0.8451
  243MOL0     C33406   7.090   1.928   7.668 -0.2868  0.2016  0.8709
  243MOL0     C33407   7.211   1.882   7.583 -0.3865 -0.0966 -0.4804
  243MOL0     C33408   7.351   1.905   7.643  0.6233 -0.8455  0.5470
  243MOL0     C33409   7.459   1.875   7.535 -1.2933 -0.1147  0.4014
  243MOL0     C33410   7.484   1.990   7.436 -0.6511 -0.2671  0.6790
  243MOL0     C33411   7.584   1.955   7.326  0.1766 -0.8483 -0.7409
  243MOL0     C33412   7.598   2.051   7.221 -0.4507 -0.1186  0.4573
  243MOL0     N33413   7.648   2.177   7.277 -0.2292 -0.1873  0.1229
  243MOL0     C33414   7.782   2.209   7.296 -0.0019 -0.3501 -0.1972
  243MOL0     C33415   7.789   2.342   7.342 -0.2680 -0.4271  0.5659
  243MOL0     C33416   7.914   2.407   7.397 -0.4282 -0.4349 -0.1779
  243MOL0     C33417   7.996   2.474   7.286  0.0583  0.8089  0.1730
  243MOL0     C33418   8.103   2.385   7.225 -0.0959 -0.1876  0.2464
  243MOL0     C33419   8.234   2.373   7.307  0.4597  0.7170 -0.5138
  243MOL0     O33420   8.292   2.501   7.338 -0.5966 -0.2067 -0.0662
  243MOL0     C33421   8.410   2.494   7.397 -0.2304  0.0108 -0.3815
  243MOL0     C33422   8.496   2.599   7.363  0.1407  0.8443  0.3184
  243MOL0     C33423   8.621   2.618   7.424  0.4921  0.7780  0.1021
  243MOL0     C33424   8.685   2.754   7.408  0.4731  0.1573  0.2282
  243MOL0     C33425   8.676   2.506   7.501 -0.1162  0.1962  0.2896
  243MOL0     C33426   8.809   2.504   7.568  0.1869  0.1647 -0.4710
  243MOL0     O33427   8.830   2.420   7.675 -0.4564 -0.0408 -0.0228
  243MOL0     C33428   8.963   2.395   7.704 -0.4349  0.2965  0.1163
  243MOL0     C33429   9.026   2.428   7.825  0.3982  0.0939  0.5759
  243MOL0     C33430   9.155   2.401   7.849 -0.1731  0.2971 -0.5404
  243MOL0     C33431   9.228   2.325   7.764  0.4200 -0.0676  0.5978
  243MOL0     O33432   9.351   2.280   7.810  0.0773 -0.2423  0.0582
  243MOL0     C33433   9.446   2.238   7.712  0.1776  0.0639  0.0206
  243MOL0     C33434   9.588   2.233   7.766 -0.9395  0.1328 -0.8377
  243MOL0     C33435   9.634   2.101   7.831 -0.3689  0.2518  0.0070
  243MOL0     C33436   9.766   2.121   7.909  0.5049  0.4366  0.7341
  243MOL0     C33437   9.792   2.003   8.002 -0.3707 -0.6498  0.0561
  243MOL0     C33438   9.898   2.018   8.112  0.8376  0.5320 -0.0082
  243MOL0     C33439  10.031   2.072   8.068  0.5441  0.2141 -0.1565
  243MOL0     C33440  10.135   2.082   8.173  0.3723 -0.5555  0.2189
  243MOL0    Cl33441  10.088   2.141   8.336  0.1650  0.0100  0.0915
  243MOL0     C33442   9.170   2.290   7.640 -0.9983 -0.4176  0.1403
  243MOL0     C33443   9.037   2.313   7.615 -0.7228 -0.7452  0.5022
  243MOL0     O33444   8.892   2.590   7.533 -0.3338  0.1275  1.3828
  243MOL0     C33445   8.579   2.401   7.527 -0.5418  0.3619  1.1276
  243MOL0     C33446   8.455   2.397   7.478  0.0365 -0.2833  0.0362
  243MOL0     N33447   7.650   2.381   7.370  0.1967 -0.5602 -0.3899
  243MOL0     N33448   7.572   2.284   7.335  0.6520 -0.1073  0.4482
  243MOL0     C33449   6.654   1.805   7.691  0.2410 -0.0548  0.0238
  243MOL0     C33450   6.531   1.761   7.637  0.4751  0.3071  0.3098
  243MOL0     C33451   6.249   1.637   7.343 -0.0910  0.4083  0.9964
  243MOL0     C33452   6.140   1.663   7.424  0.6108  0.8351 -0.6775
  243MOL0     C33453   6.016   1.596   7.408  0.1995 -0.8510  0.1442
  243MOL0     C33454   6.006   1.498   7.311 -0.1204  0.6191 -0.5449
  243MOL0     O33455   5.886   1.441   7.300  0.5976  0.4846  0.2565
  243MOL0     C33456   5.774   1.524   7.242 -0.4080 -0.1932 -0.3954
  243MOL0     C33457   5.796   1.522   7.090  0.0721 -0.3610  1.1245
  243MOL0     C33458   5.672   1.586   7.023  0.6335  0.3083 -0.0266
  243MOL0     C33459   5.667   1.566   6.873  0.7723 -0.3131  0.1381
  243MOL0     C33460   5.525   1.571   6.835 -0.0396 -0.3052  0.0940
  243MOL0     C33461   5.405   1.577   6.812  0.1273 -0.4057  0.8489
  243MOL0     C33462   6.109   1.481   7.220 -0.0312 -0.1036  0.5591
  243MOL0     C33463   6.232   1.543   7.236 -0.9425 -0.0250  0.6072
  243MOL0     C33464   6.339   1.508   7.140 -0.1947 -0.0140  0.3163
  243MOL0     H33465   6.492   2.006   7.405 -0.8631  0.9853  0.9069
  243MOL0     H33466   6.721   2.074   7.494 -2.7753  0.5013 -2.4272
  243MOL0     H33467   6.952   1.909   7.495 -1.1738  2.3065 -0.2556
  243MOL0     H33468   6.937   1.773   7.597 -2.3926 -0.0689 -0.3498
  243MOL0     H33469   7.091   2.036   7.682  0.2514  0.1154  1.5111
  243MOL0     H33470   7.098   1.877   7.764 -2.2211 -2.2573 -0.1420
  243MOL0     H33471   7.187   1.776   7.573 -0.5823  0.0498 -1.7752
  243MOL0     H33472   7.204   1.927   7.483  0.2802 -0.5669 -0.7396
  243MOL0     H33473   7.366   2.009   7.673  0.6940 -1.1288  1.5399
  243MOL0     H33474   7.368   1.846   7.734 -0.6163 -0.5626  0.9771
  243MOL0     H33475   7.427   1.796   7.467 -5.1979 -0.1775  2.0423
  243MOL0     H33476   7.560   1.855   7.571 -0.8406 -0.5308 -1.0293
  243MOL0     H33477   7.393   2.007   7.378  0.8731  1.7627 -1.2886
  243MOL0     H33478   7.510   2.082   7.488 -2.7543  2.3170 -2.4556
  243MOL0     H33479   7.544   1.867   7.275  2.7269 -1.0883 -2.5070
  243MOL0     H33480   7.676   1.921   7.373  0.6318  0.6633 -0.4925
  243MOL0     H33481   7.671   2.006   7.153  0.4774  2.8907 -0.7105
  243MOL0     H33482   7.501   2.066   7.171  0.1877 -0.9070 -1.1063
  243MOL0     H33483   7.862   2.136   7.291 -0.2504 -0.6687  0.3750
  243MOL0     H33484   7.973   2.340   7.460  0.8658 -0.4332 -1.3386
  243MOL0     H33485   7.883   2.489   7.462 -0.2530  0.3996 -1.1188
  243MOL0     H33486   7.926   2.503   7.208  0.9986  2.0335 -0.2475
  243MOL0     H33487   8.048   2.566   7.317 -0.3727  1.2335 -0.3532
  243MOL0     H33488   8.063   2.284   7.223  1.7688 -1.0315  2.0369
  243MOL0     H33489   8.133   2.419   7.126 -1.6699  1.4497  0.2736
  243MOL0     H33490   8.208   2.322   7.400  4.4164 -1.4685 -0.3991
  243MOL0     H33491   8.300   2.304   7.254 -0.8978  1.0065 -2.7143
  243MOL0     H33492   8.464   2.656   7.276  1.2251  4.1260  1.8910
  243MOL0     H33493   8.768   2.739   7.338 -0.2086 -1.2138 -0.3108
  243MOL0     H33494   8.722   2.801   7.500 -1.4546 -0.0682  1.1541
  243MOL0     H33495   8.616   2.830   7.370 -1.9352 -1.7858  0.4752
  243MOL0     H33496   8.961   2.478   7.896 -0.4177  1.0067 -0.7749
  243MOL0     H33497   9.197   2.429   7.946  0.7255 -0.8119 -0.5886
  243MOL0     H33498   9.431   2.138   7.669  0.7882  0.2036 -0.5217
  243MOL0     H33499   9.444   2.312   7.632 -0.9511  1.0325  0.9095
  243MOL0     H33500   9.657   2.245   7.683  1.0376  2.1573  0.9793
  243MOL0     H33501   9.600   2.317   7.835  0.8022  0.4599 -1.4980
  243MOL0     H33502   9.643   2.022   7.756 -3.7686  1.0989 -1.4556
  243MOL0     H33503   9.557   2.067   7.900 -0.6742 -0.0511 -0.4787
  243MOL0     H33504   9.764   2.217   7.962 -1.7992  1.6863 -1.4196
  243MOL0     H33505   9.847   2.124   7.837  0.3530 -2.7957  0.3151
  243MOL0     H33506   9.689   1.984   8.035 -1.7770 -0.1254 -3.5685
  243MOL0     H33507   9.829   1.916   7.949  1.4357  1.1483 -1.7958
  243MOL0     H33508   9.896   1.924   8.169 -2.5858  0.0704 -0.6598
  243MOL0     H33509   9.862   2.103   8.172  0.7515  2.7268 -2.9543
  243MOL0     H33510  10.013   2.174   8.032  0.2352 -0.2069 -1.2335
  243MOL0     H33511  10.057   2.004   7.986  2.4551 -0.1060  0.6474
  243MOL0     H33512  10.203   2.160   8.137  1.3629 -1.2325  0.5864
  243MOL0     H33513  10.182   1.984   8.183 -0.1893 -0.6554  2.2971
  243MOL0     H33514   9.227   2.231   7.568 -0.7578 -1.2336  0.9738
  243MOL0     H33515   9.003   2.285   7.515 -1.0165  0.2899  0.2911
  243MOL0     H33516   8.612   2.316   7.585  1.3416  1.7143  2.1640
  243MOL0     H33517   8.381   2.323   7.507 -0.3107  0.7484  1.9184
  243MOL0     H33518   6.693   1.737   7.766  1.3739 -1.7803 -2.0024
  243MOL0     H33519   6.471   1.677   7.669 -1.0873  1.5204  0.6961
  243MOL0     H33520   6.143   1.737   7.503  0.3988  0.7252 -0.5659
  243MOL0     H33521   5.930   1.613   7.472 -1.1456  0.3539 -1.8480
  243MOL0     H33522   5.680   1.475   7.271 -0.1300 -0.7593 -0.4255
  243MOL0     H33523   5.765   1.625   7.281  0.9408  0.1328 -0.8867
  243MOL0     H33524   5.796   1.419   7.056 -3.4161  0.1695 -0.8479
  243MOL0     H33525   5.882   1.586   7.066 -0.4665 -0.6082 -1.7057
  243MOL0     H33526   5.587   1.542   7.077  1.8460 -1.1156  0.7948
  243MOL0     H33527   5.674   1.692   7.048 -1.8130  0.1496  1.1625
  243MOL0     H33528   5.699   1.473   6.826  0.4816 -0.5514  0.3967
  243MOL0     H33529   5.726   1.644   6.826 -0.1454 -0.3315 -1.0747
  243MOL0     H33530   5.302   1.581   6.781 -0.0893  1.6241  1.6219
  243MOL0     H33531   6.100   1.417   7.133  1.9051  1.1513 -0.6356
  243MOL0     H33532   6.402   1.594   7.114 -0.7439  0.0363 -0.8904
  243MOL0     H33533   6.410   1.442   7.190  0.2161 -0.3693 -0.7160
  243MOL0     H33534   6.304   1.464   7.046 -1.3238  0.1114  0.6657
  244MOL0     O33535   5.073   4.137   3.182  0.0492  0.3401  0.3421
  244MOL0     C33536   5.105   4.016   3.173 -0.4382  0.0049 -0.0186
  244MOL0     O33537   5.237   3.979   3.161 -0.2018  0.2633  0.8398
  244MOL0     C33538   5.333   4.068   3.107  0.4348  0.4625 -0.5171
  244MOL0     C33539   5.404   4.022   2.997  0.1907  0.2263  0.2192
  244MOL0     C33540   5.501   4.107   2.937  0.0596  0.5794 -0.6157
  244MOL0     C33541   5.538   4.226   2.991 -0.1978 -0.8708 -0.3403
  244MOL0     O33542   5.650   4.296   2.949 -1.5369 -0.2571  0.4221
  244MOL0     C33543   5.664   4.434   2.991  0.4856 -0.8168 -0.6439
  244MOL0     C33544   5.567   4.547   2.933 -0.0085  0.0373  0.2942
  244MOL0     C33545   5.576   4.565   2.776 -0.3599 -0.4054 -0.1052
  244MOL0     C33546   5.486   4.676   2.725  0.3013 -0.1565  0.4929
  244MOL0     C33547   5.480   4.671   2.576  0.7535  0.2549  0.4468
  244MOL0     C33548   5.395   4.784   2.506 -0.1183  0.4305 -0.1944
  244MOL0     C33549   5.243   4.775   2.544  0.3535  0.6649  0.2880
  244MOL0     C33550   5.162   4.877   2.469  0.3180  0.3046 -0.2269
  244MOL0     N33551   5.019   4.859   2.477 -0.2948  0.6610  0.1042
  244MOL0     C33552   4.958   4.813   2.587  0.3239 -0.2975 -0.3720
  244MOL0     C33553   4.822   4.795   2.565  0.9529 -0.5402  0.5736
  244MOL0     C33554   4.725   4.748   2.671 -0.2351  0.0398 -0.1793
  244MOL0     C33555   4.607   4.844   2.700 -0.1470 -0.0696 -0.7779
  244MOL0     C33556   4.514   4.789   2.810  0.7008 -1.0587 -0.5719
  244MOL0     C33557   4.397   4.885   2.841  0.0981 -0.3199 -0.0094
  244MOL0     O33558   4.302   4.848   2.937  0.4783 -0.4016 -0.0996
  244MOL0     C33559   4.202   4.754   2.908 -0.8870 -1.0628 -0.3989
  244MOL0     C33560   4.182   4.683   2.784  0.8388 -0.3421  0.1156
  244MOL0     C33561   4.089   4.578   2.770 -0.0341 -0.5655  0.5269
  244MOL0     C33562   4.106   4.497   2.643 -0.6627 -0.0267  0.3196
  244MOL0     C33563   3.997   4.553   2.879 -0.0667  0.3846  1.3386
  244MOL0     C33564   3.889   4.454   2.868  0.8953 -0.2001 -0.2670
  244MOL0     O33565   3.802   4.434   2.974 -0.2757  0.8796  0.0457
  244MOL0     C33566   3.714   4.333   2.971 -0.2322  1.0347  0.3099
  244MOL0     C33567   3.624   4.295   2.865  0.2900  0.3655 -0.5454
  244MOL0     C33568   3.531   4.198   2.890 -0.7549  0.2157 -0.4637
  244MOL0     C33569   3.531   4.125   3.013 -0.3893  0.0898 -0.1463
  244MOL0     O33570   3.439   4.028   3.060 -0.3074  0.0758  0.4045
  244MOL0     C33571   3.362   3.966   2.962  0.1193  0.5002  0.4648
  244MOL0     C33572   3.289   3.842   3.014 -0.4969 -0.1066  0.2950
  244MOL0     C33573   3.399   3.744   3.045 -0.3934 -0.4618  0.2860
  244MOL0     C33574   3.335   3.615   3.099  0.3526  0.3271  0.8119
  244MOL0     C33575   3.436   3.510   3.126 -0.3817  0.5467 -0.0231
  244MOL0     C33576   3.455   3.415   3.017 -0.3210 -0.0268 -0.1367
  244MOL0     C33577   3.527   3.282   3.065  0.2109  0.6448  0.4291
  244MOL0     C33578   3.670   3.297   3.108 -0.0935  0.8142 -0.0534
  244MOL0    Cl33579   3.785   3.312   2.967  0.3402  0.5487 -0.2577
  244MOL0     C33580   3.619   4.161   3.110  0.4475 -0.2723 -0.1518
  244MOL0     C33581   3.703   4.265   3.094  0.0075 -0.4156 -0.1134
  244MOL0     O33582   3.889   4.384   2.763 -0.5139 -0.7760  0.8123
  244MOL0     C33583   4.016   4.625   3.001  0.8595 -1.0530 -0.2177
  244MOL0     C33584   4.108   4.726   3.015 -0.1769 -0.1541  0.0228
  244MOL0     N33585   4.804   4.839   2.432 -0.8996 -0.0980 -0.5958
  244MOL0     N33586   4.922   4.871   2.380  0.6809 -0.5952 -0.1584
  244MOL0     C33587   5.465   4.267   3.111 -0.3669 -0.0580  0.2851
  244MOL0     C33588   5.364   4.181   3.160  0.4703  0.2005  0.0293
  244MOL0     C33589   5.006   3.911   3.198 -0.5942 -0.5103  0.2413
  244MOL0     C33590   5.059   3.779   3.210 -0.7604  0.0967 -0.2737
  244MOL0     C33591   4.976   3.668   3.219  0.1688 -0.0769 -0.5279
  244MOL0     C33592   4.838   3.676   3.215  0.2255  0.1134 -0.3149
  244MOL0     O33593   4.773   3.555   3.205  0.1527 -0.0406 -0.3341
  244MOL0     C33594   4.633   3.552   3.201  1.1449  0.6700 -0.5744
  244MOL0     C33595   4.584   3.558   3.344 -0.6946  0.5709 -0.2080
  244MOL0     C33596   4.606   3.431   3.424  0.6968 -0.5452  0.0687
  244MOL0     C33597   4.589   3.459   3.576  0.1550  0.2407 -0.8102
  244MOL0     C33598   4.551   3.352   3.665 -0.3041  0.0844 -0.5389
  244MOL0     C33599   4.525   3.265   3.750 -0.5161 -0.1455  0.5625
  244MOL0     C33600   4.785   3.807   3.206 -0.3478 -0.1905 -0.1430
  244MOL0     C33601   4.865   3.924   3.199  0.4895  1.0027  0.7994
  244MOL0     C33602   4.792   4.059   3.196  0.0417 -0.7513  0.0142
  244MOL0     H33603   5.389   3.920   2.963 -0.3794  0.0107  1.0737
  244MOL0     H33604   5.559   4.069   2.853  3.7151  3.0165  0.5922
  244MOL0     H33605   5.765   4.459   2.959  1.0134 -1.7327  0.2484
  244MOL0     H33606   5.671   4.438   3.101 -2.6136 -0.3413 -0.3603
  244MOL0     H33607   5.465   4.533   2.969  0.1635 -1.7538  0.1876
  244MOL0     H33608   5.591   4.639   2.986 -2.9168 -0.6959  3.1544
  244MOL0     H33609   5.679   4.586   2.746 -0.4811  0.9611  0.3836
  244MOL0     H33610   5.545   4.472   2.727  1.1684 -2.4674  2.5816
  244MOL0     H33611   5.386   4.660   2.767  0.5155 -2.1928  0.3357
  244MOL0     H33612   5.521   4.774   2.759 -3.1992  2.6587 -3.0956
  244MOL0     H33613   5.437   4.574   2.550  1.4368  0.1085 -0.1734
  244MOL0     H33614   5.583   4.677   2.539  1.1180 -1.0936  1.2025
  244MOL0     H33615   5.442   4.876   2.541  3.7523 -2.5178  3.4992
  244MOL0     H33616   5.407   4.774   2.398 -0.1299 -0.0814 -0.1498
  244MOL0     H33617   5.224   4.788   2.651  2.6361 -1.6970  1.0801
  244MOL0     H33618   5.203   4.677   2.514  0.8136  1.1968 -2.2649
  244MOL0     H33619   5.189   4.978   2.503  1.1863  0.5362 -1.5568
  244MOL0     H33620   5.184   4.874   2.362 -0.1798 -2.0111 -0.3025
  244MOL0     H33621   5.005   4.780   2.679 -1.6591 -1.5496  0.2662
  244MOL0     H33622   4.776   4.729   2.765 -0.6356 -2.0423 -0.3506
  244MOL0     H33623   4.696   4.654   2.623  0.1412  1.1323 -2.7527
  244MOL0     H33624   4.647   4.944   2.722 -0.9350  0.0829 -0.0038
  244MOL0     H33625   4.553   4.861   2.606 -3.0351  1.8102  1.0286
  244MOL0     H33626   4.481   4.688   2.781 -0.4163 -0.0762 -3.0483
  244MOL0     H33627   4.582   4.771   2.894  0.6824 -0.3295 -0.3950
  244MOL0     H33628   4.443   4.975   2.882  0.1918 -0.1735 -0.4299
  244MOL0     H33629   4.345   4.912   2.748 -0.6237 -0.5330  0.3215
  244MOL0     H33630   4.247   4.709   2.700 -1.9018  0.7963 -1.7853
  244MOL0     H33631   4.144   4.400   2.676 -0.6769 -0.1824 -0.1147
  244MOL0     H33632   4.190   4.537   2.585  0.2589 -2.7971 -0.3911
  244MOL0     H33633   4.016   4.502   2.581  0.0256  0.5092 -0.6590
  244MOL0     H33634   3.620   4.348   2.771 -4.1026 -0.5807 -1.1469
  244MOL0     H33635   3.448   4.178   2.823 -0.8659 -1.7968  0.2180
  244MOL0     H33636   3.293   4.027   2.902  0.6051 -0.5062 -1.2004
  244MOL0     H33637   3.427   3.919   2.887 -0.9359  0.8065 -0.6921
  244MOL0     H33638   3.226   3.862   3.101 -0.4634 -1.5276  0.6710
  244MOL0     H33639   3.220   3.798   2.942 -0.4322 -2.5219  1.5984
  244MOL0     H33640   3.468   3.789   3.118 -3.8351  2.8320  1.8941
  244MOL0     H33641   3.458   3.714   2.959  1.4166 -0.8488  1.5936
  244MOL0     H33642   3.261   3.576   3.029  1.4607 -2.5237  1.1009
  244MOL0     H33643   3.287   3.631   3.196 -0.6321 -0.9941  0.5616
  244MOL0     H33644   3.537   3.547   3.144  0.6655 -0.3480 -3.3254
  244MOL0     H33645   3.415   3.459   3.220  0.6469  4.0475  2.3099
  244MOL0     H33646   3.516   3.458   2.938  1.3276 -1.4496  0.2957
  244MOL0     H33647   3.359   3.393   2.970 -0.9749  1.3626  0.4903
  244MOL0     H33648   3.522   3.218   2.977  2.4005  0.1247  0.6303
  244MOL0     H33649   3.459   3.239   3.138 -0.9769 -2.4888 -2.3068
  244MOL0     H33650   3.707   3.221   3.178 -1.7625 -0.8977 -0.9289
  244MOL0     H33651   3.669   3.389   3.167  0.0770  0.3482  0.6876
  244MOL0     H33652   3.610   4.108   3.205  1.8548 -3.4658 -1.6476
  244MOL0     H33653   3.754   4.315   3.176 -1.5535  0.8115  0.1639
  244MOL0     H33654   3.960   4.602   3.091  1.6809  2.6551  1.4006
  244MOL0     H33655   4.125   4.762   3.116  1.3535 -0.7254 -0.0049
  244MOL0     H33656   5.474   4.361   3.164 -3.1479  0.6966 -0.3972
  244MOL0     H33657   5.306   4.215   3.245  2.5242  2.0266  0.8040
  244MOL0     H33658   5.165   3.756   3.208 -0.4975  0.9677  1.4489
  244MOL0     H33659   5.019   3.569   3.215 -0.2800 -0.2445 -1.7003
  244MOL0     H33660   4.594   3.634   3.142  1.4828  0.1520 -1.5355
  244MOL0     H33661   4.591   3.460   3.158  0.2505  0.1061  1.3624
  244MOL0     H33662   4.478   3.582   3.347 -0.9014 -0.1806 -1.2559
  244MOL0     H33663   4.639   3.639   3.394  2.2820 -0.4912 -1.5190
  244MOL0     H33664   4.526   3.363   3.394 -0.6463  0.8569  0.3707
  244MOL0     H33665   4.704   3.383   3.417  1.1908  0.3929  0.3499
  244MOL0     H33666   4.517   3.540   3.589  1.1480  0.9157  0.8021
  244MOL0     H33667   4.675   3.509   3.621  0.3758 -0.6269 -0.2387
  244MOL0     H33668   4.490   3.198   3.825 -1.8516  0.1740  0.2511
  244MOL0     H33669   4.679   3.829   3.208 -0.1079  1.0608  0.2314
  244MOL0     H33670   4.683   4.052   3.204 -0.3271 -0.4423 -3.2543
  244MOL0     H33671   4.835   4.117   3.277 -2.3488 -1.8595  2.2236
  244MOL0     H33672   4.811   4.110   3.101  3.5602  1.3309  1.6716
  245MOL0     O33673  10.882   9.640   0.700  0.4485 -0.1489  0.4692
  245MOL0     C33674  10.769   9.626   0.637 -0.3170  0.1277  0.2623
  245MOL0     O33675  10.741   9.694   0.515  0.0802 -0.4334 -0.3601
  245MOL0     C33676  10.852   9.759   0.466 -0.0272 -0.5793 -0.2699
  245MOL0     C33677  10.856   9.894   0.481  0.8066 -0.1626  0.7982
  245MOL0     C33678  10.941   9.975   0.414  0.5274 -0.0650 -0.0111
  245MOL0     C33679  11.043   9.924   0.341 -0.2475  0.7470 -0.2342
  245MOL0     O33680  11.139  10.008   0.297  0.8139 -0.4044 -0.5096
  245MOL0     C33681  11.266   9.972   0.237  0.6165 -0.1997 -0.0592
  245MOL0     C33682  11.388  10.025   0.304 -0.6803 -0.1897  1.0246
  245MOL0     C33683  11.510   9.988   0.224 -1.1714  1.3114 -0.4126
  245MOL0     C33684  11.628  10.043   0.305 -0.0935 -0.0029 -0.2098
  245MOL0     C33685  11.746  10.070   0.215 -0.1392 -0.2629 -0.7399
  245MOL0     C33686  11.877  10.114   0.296  0.3521 -0.8127  0.2095
  245MOL0     C33687  11.999  10.119   0.212 -0.6002 -0.2368 -0.6510
  245MOL0     C33688  12.118  10.120   0.309 -0.0181 -0.0733  0.8006
  245MOL0     N33689  12.250  10.111   0.240  0.0317 -0.2993  0.0024
  245MOL0     C33690  12.332   9.997   0.232 -0.5720 -0.7754 -0.0057
  245MOL0     C33691  12.441  10.054   0.169 -0.0028 -0.1219 -0.3350
  245MOL0     C33692  12.570   9.985   0.130  0.0551  0.2452  0.8051
  245MOL0     C33693  12.689  10.083   0.136 -0.0175  0.0258 -0.1161
  245MOL0     C33694  12.730  10.135   0.273 -0.2685  1.7507  0.4641
  245MOL0     C33695  12.864  10.204   0.268 -0.0530  0.3074  0.0925
  245MOL0     O33696  12.933  10.211   0.393  0.5333 -0.0097 -0.7685
  245MOL0     C33697  13.052  10.157   0.404  0.2756 -0.2203 -0.4438
  245MOL0     C33698  13.076  10.021   0.417 -0.8233 -0.3889  0.8035
  245MOL0     C33699  13.210   9.967   0.428  0.1182 -0.5337  0.6785
  245MOL0     C33700  13.214   9.814   0.436 -0.2035 -0.1535  0.4049
  245MOL0     C33701  13.319  10.061   0.444 -0.0678  0.9015  0.7999
  245MOL0     C33702  13.457  10.020   0.455  1.1319 -0.2180 -0.5925
  245MOL0     O33703  13.554  10.104   0.413  0.3213  0.4148  0.2424
  245MOL0     C33704  13.687  10.066   0.423  0.2082 -0.1924  0.6227
  245MOL0     C33705  13.743   9.942   0.398  0.2969  0.5608  0.0108
  245MOL0     C33706  13.885   9.923   0.398 -0.2460 -0.5929  1.1144
  245MOL0     C33707  13.973  10.027   0.421  0.5034  0.1109 -0.1797
  245MOL0     O33708  14.108  10.007   0.414 -0.0038  0.2221 -0.6915
  245MOL0     C33709  14.172   9.947   0.530 -0.3641 -0.6309 -0.0526
  245MOL0     C33710  14.324   9.955   0.524  0.5731 -1.1084 -0.5809
  245MOL0     C33711  14.387   9.863   0.417  0.6632 -0.0708  0.6105
  245MOL0     C33712  14.539   9.880   0.419 -0.2797 -0.1095 -0.0590
  245MOL0     C33713  14.605   9.819   0.295 -0.0955 -0.4182  0.4270
  245MOL0     C33714  14.757   9.827   0.305  0.5235  0.6027  0.5921
  245MOL0     C33715  14.829   9.772   0.180  0.2831  0.7474 -0.3813
  245MOL0     C33716  14.814   9.616   0.192  0.3299 -0.4938  0.7013
  245MOL0    Cl33717  14.975   9.548   0.183 -0.1178  0.1618 -0.2899
  245MOL0     C33718  13.914  10.151   0.440 -0.9697  0.1070 -0.3082
  245MOL0     C33719  13.774  10.173   0.441 -0.0765  0.6696  0.8429
  245MOL0     O33720  13.475   9.916   0.518  0.0096 -0.1859  0.2626
  245MOL0     C33721  13.289  10.195   0.446 -0.2614 -0.4791 -0.0183
  245MOL0     C33722  13.160  10.249   0.427  0.4674  0.1293  0.8061
  245MOL0     N33723  12.424  10.183   0.147 -0.0444  0.5554 -0.7016
  245MOL0     N33724  12.307  10.220   0.187  0.1712 -0.2479  0.1035
  245MOL0     C33725  11.040   9.780   0.316  0.8330 -0.2689 -0.4945
  245MOL0     C33726  10.942   9.698   0.383 -0.0061  0.3237 -0.3837
  245MOL0     C33727  10.663   9.529   0.684  0.2720  0.6003  0.3750
  245MOL0     C33728  10.533   9.545   0.631 -0.2005  0.3100 -0.2496
  245MOL0     C33729  10.429   9.466   0.672 -0.5708  0.4510 -0.0686
  245MOL0     C33730  10.437   9.371   0.771 -0.8388  0.1817 -0.3051
  245MOL0     O33731  10.346   9.278   0.815  0.4899  0.3900  0.5216
  245MOL0     C33732  10.208   9.273   0.766 -0.6326 -0.8348  0.1505
  245MOL0     C33733  10.102   9.212   0.851 -0.5407  0.2767 -0.1865
  245MOL0     C33734   9.982   9.214   0.773  0.2110 -0.0464  0.1055
  245MOL0     C33735   9.855   9.177   0.851  0.1513 -0.7848 -0.4370
  245MOL0     C33736   9.750   9.191   0.745  0.5165 -0.9897 -0.4943
  245MOL0     C33737   9.671   9.218   0.657  0.1386  0.3817  1.1897
  245MOL0     C33738  10.570   9.349   0.819 -0.3890 -0.1525  0.0457
  245MOL0     C33739  10.677   9.425   0.774 -0.1564 -0.2066  0.3410
  245MOL0     C33740  10.812   9.404   0.835 -0.7365 -0.5763  0.3889
  245MOL0     H33741  10.775   9.940   0.538  1.9334  2.2546  0.5491
  245MOL0     H33742  10.932  10.083   0.422  0.5553  0.0643 -1.3773
  245MOL0     H33743  11.259   9.998   0.131  1.1862 -1.9372 -0.5606
  245MOL0     H33744  11.266   9.863   0.247 -1.1757 -0.3127 -0.7853
  245MOL0     H33745  11.388  10.135   0.312 -1.4062 -0.2509  1.9769
  245MOL0     H33746  11.383   9.983   0.404 -3.0984 -1.7676  0.3495
  245MOL0     H33747  11.524   9.880   0.216 -0.0068  1.1066  2.7994
  245MOL0     H33748  11.499  10.027   0.122 -0.9749  3.3906  0.2961
  245MOL0     H33749  11.599  10.132   0.361 -0.2757 -0.4329  0.3864
  245MOL0     H33750  11.654   9.970   0.382  0.1726  0.1763 -0.1277
  245MOL0     H33751  11.709  10.144   0.143 -1.1127 -1.8616 -1.9506
  245MOL0     H33752  11.767   9.980   0.157  0.1079 -0.5134 -0.2623
  245MOL0     H33753  11.862  10.209   0.348 -2.9268 -1.3155  0.4444
  245MOL0     H33754  11.887  10.041   0.378 -0.5702 -2.7323 -1.2982
  245MOL0     H33755  12.003  10.203   0.142  1.5708  1.7508  1.6407
  245MOL0     H33756  12.014  10.024   0.160  0.3538  0.2919 -1.3822
  245MOL0     H33757  12.111  10.215   0.363 -1.5816  0.2305  0.1170
  245MOL0     H33758  12.120  10.040   0.384  3.1467 -0.4034  0.5143
  245MOL0     H33759  12.317   9.895   0.266  0.7378 -0.4181  1.7401
  245MOL0     H33760  12.563   9.942   0.029  1.4056 -2.5724  1.8036
  245MOL0     H33761  12.584   9.898   0.195 -1.1520 -2.9119 -2.7632
  245MOL0     H33762  12.775  10.028   0.094  1.3136  2.5890 -0.9679
  245MOL0     H33763  12.669  10.166   0.068 -0.9233 -0.5733 -0.6110
  245MOL0     H33764  12.647  10.197   0.309 -0.3705  1.4170  0.8173
  245MOL0     H33765  12.735  10.049   0.341  0.0386 -1.4078 -3.2088
  245MOL0     H33766  12.920  10.151   0.191 -1.1415  1.0266 -1.2239
  245MOL0     H33767  12.844  10.305   0.232  0.1279  0.4736  0.4502
  245MOL0     H33768  12.996   9.952   0.394  0.5344 -2.4645  1.9544
  245MOL0     H33769  13.255   9.785   0.533 -0.1069 -3.0240 -0.4159
  245MOL0     H33770  13.280   9.769   0.362  2.7221  1.0815  2.1141
  245MOL0     H33771  13.114   9.772   0.422  0.8950 -2.6707 -0.4522
  245MOL0     H33772  13.677   9.861   0.367 -3.6424  3.2347  0.6197
  245MOL0     H33773  13.937   9.837   0.356  1.6257  1.0333 -0.0664
  245MOL0     H33774  14.157  10.015   0.615 -0.1233 -2.4851  1.5391
  245MOL0     H33775  14.130   9.848   0.550 -1.2726 -0.0520  1.0279
  245MOL0     H33776  14.350  10.060   0.510 -1.6399  0.2443  3.5627
  245MOL0     H33777  14.355   9.921   0.624  0.0638  2.5430  0.9917
  245MOL0     H33778  14.336   9.882   0.322 -2.8779 -2.1950  1.9169
  245MOL0     H33779  14.375   9.755   0.429 -0.1641 -0.3855 -2.3116
  245MOL0     H33780  14.575   9.855   0.519  0.7894 -0.5638 -0.5463
  245MOL0     H33781  14.560   9.988   0.416  0.3598 -0.1686  1.4347
  245MOL0     H33782  14.578   9.714   0.307  0.7852 -0.7465 -0.3144
  245MOL0     H33783  14.575   9.866   0.201  2.6405  1.1829  0.2548
  245MOL0     H33784  14.791   9.775   0.395 -1.3171 -1.2772  0.2520
  245MOL0     H33785  14.790   9.931   0.316  2.0888  0.2349 -0.3019
  245MOL0     H33786  14.931   9.812   0.188 -0.8131  3.8643 -0.8479
  245MOL0     H33787  14.770   9.805   0.095 -1.4459  0.8409  0.8005
  245MOL0     H33788  14.757   9.577   0.107  0.5953  1.0461 -0.2159
  245MOL0     H33789  14.760   9.585   0.282 -0.1540  2.7043  1.6520
  245MOL0     H33790  13.989  10.229   0.437 -1.6318  0.7921  0.3944
  245MOL0     H33791  13.745  10.278   0.441  3.9224  1.9372  1.6620
  245MOL0     H33792  13.364  10.271   0.467 -2.9384  2.3770 -0.1799
  245MOL0     H33793  13.137  10.355   0.420  0.3992  0.0283 -0.7225
  245MOL0     H33794  11.105   9.735   0.241 -1.5539 -2.4764 -1.4049
  245MOL0     H33795  10.919   9.593   0.370  2.6257 -0.6100  1.5777
  245MOL0     H33796  10.513   9.624   0.559  1.3823  0.6290 -0.3905
  245MOL0     H33797  10.332   9.492   0.631 -1.8905 -1.1390  1.8436
  245MOL0     H33798  10.192   9.379   0.743  1.4701 -0.0661  1.8259
  245MOL0     H33799  10.222   9.234   0.665 -0.4759 -1.0685  0.2621
  245MOL0     H33800  10.109   9.262   0.949  0.2689 -0.6337  0.2364
  245MOL0     H33801  10.129   9.107   0.865  1.4385  0.2683 -3.2420
  245MOL0     H33802   9.975   9.315   0.733  0.0380 -0.9184 -2.2277
  245MOL0     H33803   9.984   9.143   0.690 -0.6698 -1.7560  1.4692
  245MOL0     H33804   9.843   9.248   0.933 -1.3263 -1.3637 -0.1375
  245MOL0     H33805   9.852   9.076   0.893 -0.1401 -0.8607 -0.6392
  245MOL0     H33806   9.625   9.236   0.562  1.7134  1.0993  0.5328
  245MOL0     H33807  10.590   9.276   0.897 -1.1603  2.6703  3.1188
  245MOL0     H33808  10.835   9.497   0.889 -3.9023  1.1296 -0.9122
  245MOL0     H33809  10.814   9.320   0.905  0.7055  0.8518  2.2012
  245MOL0     H33810  10.887   9.383   0.758  0.6334 -0.7153  1.7150
  246MOL0     O33811   6.469   2.535   0.748 -0.2279 -0.3331  0.2715
  246MOL0     C33812   6.555   2.449   0.732  0.6445 -0.4246 -0.4638
  246MOL0     O33813   6.544   2.337   0.656  0.3584 -0.3208  0.3271
  246MOL0     C33814   6.435   2.329   0.575 -0.5183 -0.3291 -0.2415
  246MOL0     C33815   6.402   2.433   0.484  0.3229  0.9293  0.9141
  246MOL0     C33816   6.295   2.424   0.398 -0.3973  0.4996 -0.7442
  246MOL0     C33817   6.227   2.303   0.396  0.0267 -0.0814  0.3061
  246MOL0     O33818   6.111   2.317   0.316 -0.1169 -0.2552 -0.5430
  246MOL0     C33819   6.064   2.206   0.234 -0.1130  0.0815 -0.6201
  246MOL0     C33820   6.094   2.228   0.090 -0.5142  0.3286 -0.5691
  246MOL0     C33821   6.240   2.274   0.053 -0.3808 -0.1199  0.2140
  246MOL0     C33822   6.260   2.290  -0.097  0.3644  0.3164 -0.2490
  246MOL0     C33823   6.411   2.314  -0.125 -0.2808  0.6162  0.1616
  246MOL0     C33824   6.437   2.343  -0.275 -1.2344  0.4544 -0.5648
  246MOL0     C33825   6.431   2.218  -0.359 -0.2151 -0.7531 -0.3587
  246MOL0     C33826   6.471   2.238  -0.511 -0.5361 -0.4174  0.0355
  246MOL0     N33827   6.462   2.111  -0.589  1.0242 -0.4380  0.5428
  246MOL0     C33828   6.566   2.030  -0.600 -0.5166 -0.2568  0.0539
  246MOL0     C33829   6.524   1.933  -0.678  0.0118  0.2268 -0.0816
  246MOL0     C33830   6.603   1.807  -0.717  0.2266  0.5072 -0.0615
  246MOL0     C33831   6.531   1.675  -0.707  0.6821  1.2249  0.1853
  246MOL0     C33832   6.602   1.574  -0.804  0.5502 -0.1289  0.1769
  246MOL0     C33833   6.528   1.438  -0.814 -1.3196 -0.4297 -0.3776
  246MOL0     O33834   6.548   1.374  -0.688  0.5578  0.0211 -0.1974
  246MOL0     C33835   6.536   1.241  -0.668  0.3700  1.2043 -0.3743
  246MOL0     C33836   6.563   1.191  -0.549  0.3170  0.0257 -0.9660
  246MOL0     C33837   6.548   1.054  -0.508  1.0345  0.8192  0.1996
  246MOL0     C33838   6.582   1.033  -0.360 -1.3392  1.1289 -0.0708
  246MOL0     C33839   6.499   0.961  -0.608  0.2768  0.4558  0.4595
  246MOL0     C33840   6.475   0.815  -0.587 -0.1640 -0.1864 -0.5496
  246MOL0     O33841   6.491   0.728  -0.690  0.1328  0.5317 -0.1394
  246MOL0     C33842   6.471   0.586  -0.672 -0.2972  0.0380  0.1741
  246MOL0     C33843   6.493   0.517  -0.548  0.6461  0.1064  0.1502
  246MOL0     C33844   6.481   0.377  -0.549 -0.9858 -0.7261 -0.5551
  246MOL0     C33845   6.456   0.306  -0.662 -0.0563  0.0377  0.4182
  246MOL0     O33846   6.449   0.171  -0.637 -0.0327 -0.4414  0.3958
  246MOL0     C33847   6.434   0.075  -0.744  0.7020 -0.2531 -0.1380
  246MOL0     C33848   6.419  -0.069  -0.698 -0.6398 -0.1779  0.2552
  246MOL0     C33849   6.283  -0.110  -0.634 -0.2097  0.6180  0.6125
  246MOL0     C33850   6.157  -0.095  -0.725  0.2565 -0.1565 -0.1586
  246MOL0     C33851   6.036  -0.161  -0.654 -0.0144 -0.0247 -0.6097
  246MOL0     C33852   5.992  -0.074  -0.531 -0.2430 -0.6243  1.0076
  246MOL0     C33853   5.859  -0.138  -0.468  0.2650 -0.1793  0.6327
  246MOL0     C33854   5.902  -0.237  -0.356 -0.0619 -0.7973  0.3858
  246MOL0    Cl33855   5.766  -0.313  -0.278  0.6352  0.0844  0.0313
  246MOL0     C33856   6.433   0.370  -0.778  0.3541  0.0630  0.7527
  246MOL0     C33857   6.431   0.511  -0.790 -0.3620 -0.1402  0.0061
  246MOL0     O33858   6.430   0.792  -0.474 -0.1531  0.3802  0.3090
  246MOL0     C33859   6.467   1.017  -0.739 -0.2094  0.0267 -0.0842
  246MOL0     C33860   6.485   1.155  -0.766 -1.1650 -0.2274 -0.9474
  246MOL0     N33861   6.391   1.956  -0.717  0.7153 -0.0201 -0.0253
  246MOL0     N33862   6.359   2.065  -0.664  0.0409 -0.5332  0.1782
  246MOL0     C33863   6.254   2.197   0.487  0.5167 -0.3354  1.1439
  246MOL0     C33864   6.366   2.216   0.579  1.0553  0.5239  0.2011
  246MOL0     C33865   6.696   2.480   0.782 -0.1216 -0.2310 -0.3999
  246MOL0     C33866   6.786   2.369   0.800  0.0600  0.7517 -0.3558
  246MOL0     C33867   6.927   2.390   0.819 -0.8381 -0.4033  0.1357
  246MOL0     C33868   6.971   2.517   0.851  0.3794 -0.1646 -0.2956
  246MOL0     O33869   7.110   2.535   0.874  0.3181 -0.4284 -0.2429
  246MOL0     C33870   7.171   2.669   0.856  0.5402  0.2138 -0.1567
  246MOL0     C33871   7.320   2.657   0.877  0.3591 -0.0248  0.4712
  246MOL0     C33872   7.369   2.615   1.020 -0.8189 -0.6576  0.2303
  246MOL0     C33873   7.526   2.608   1.032 -0.4537 -1.0998 -0.2384
  246MOL0     C33874   7.610   2.694   0.950 -0.1180  0.2099  0.3934
  246MOL0     C33875   7.669   2.765   0.867 -0.0430  0.6888  0.1519
  246MOL0     C33876   6.884   2.620   0.867  0.4452 -0.0888  0.3739
  246MOL0     C33877   6.745   2.605   0.824  0.1913 -0.6495  0.3919
  246MOL0     C33878   6.666   2.731   0.817 -0.3680 -0.0994 -0.6083
  246MOL0     H33879   6.468   2.519   0.473 -0.9197  2.0418  1.7271
  246MOL0     H33880   6.277   2.508   0.331 -0.3865 -1.7364 -3.7867
  246MOL0     H33881   5.955   2.203   0.246 -0.2478  2.6219 -0.4981
  246MOL0     H33882   6.099   2.109   0.269 -3.2512 -0.3880  1.6516
  246MOL0     H33883   6.070   2.140   0.030 -0.6540 -0.4106  0.5365
  246MOL0     H33884   6.035   2.316   0.065 -0.4767  0.5439  0.0854
  246MOL0     H33885   6.265   2.365   0.107  0.6987 -1.5590  2.2539
  246MOL0     H33886   6.306   2.195   0.090  1.6281  1.3714 -0.0753
  246MOL0     H33887   6.227   2.201  -0.151 -0.0463  0.5314 -0.3451
  246MOL0     H33888   6.202   2.375  -0.131 -0.9102 -0.0653  0.9011
  246MOL0     H33889   6.460   2.225  -0.086  1.5727  2.2700  1.8412
  246MOL0     H33890   6.444   2.399  -0.065  1.5672  0.6216 -0.7983
  246MOL0     H33891   6.375   2.422  -0.318  0.1538  2.9656  1.8027
  246MOL0     H33892   6.542   2.374  -0.281 -1.0863  0.2390  0.6489
  246MOL0     H33893   6.327   2.182  -0.356 -0.3263 -0.4082  1.3234
  246MOL0     H33894   6.499   2.144  -0.317 -0.4439  0.2306  1.8938
  246MOL0     H33895   6.422   2.319  -0.567  1.7992  1.2472  0.2612
  246MOL0     H33896   6.577   2.261  -0.498 -0.3207 -1.8142  0.9603
  246MOL0     H33897   6.669   2.035  -0.566 -0.3821 -1.5606 -0.0859
  246MOL0     H33898   6.695   1.797  -0.659 -1.1424 -0.4278  2.1035
  246MOL0     H33899   6.626   1.818  -0.823 -1.8080 -2.0426 -0.8745
  246MOL0     H33900   6.539   1.633  -0.606  1.4705  0.9464  0.0132
  246MOL0     H33901   6.424   1.680  -0.732 -0.2085 -0.9023  2.9368
  246MOL0     H33902   6.594   1.616  -0.905  1.6133 -0.7423 -0.1872
  246MOL0     H33903   6.707   1.560  -0.777  1.0186  1.1077 -0.8734
  246MOL0     H33904   6.423   1.463  -0.834 -0.8650  2.3850  0.3330
  246MOL0     H33905   6.579   1.380  -0.891  0.2271  1.6905 -1.0500
  246MOL0     H33906   6.600   1.254  -0.469  1.6811 -0.5708 -1.0871
  246MOL0     H33907   6.554   0.933  -0.327 -0.5676 -0.0074 -2.6371
  246MOL0     H33908   6.542   1.110  -0.294 -1.6938  2.4927 -1.8003
  246MOL0     H33909   6.692   1.037  -0.358 -1.3352  1.0214 -0.0884
  246MOL0     H33910   6.523   0.567  -0.457  3.3704 -0.5477 -0.2762
  246MOL0     H33911   6.506   0.332  -0.453  0.0147  0.7820 -0.0579
  246MOL0     H33912   6.350   0.102  -0.808  1.5792  1.3479 -0.6746
  246MOL0     H33913   6.524   0.077  -0.805  1.2854 -1.2691  0.6594
  246MOL0     H33914   6.419  -0.128  -0.790 -1.2917 -2.6747  1.7542
  246MOL0     H33915   6.506  -0.103  -0.639 -0.7002 -1.8805 -0.5575
  246MOL0     H33916   6.265  -0.042  -0.549  0.7959 -0.2846  1.5771
  246MOL0     H33917   6.294  -0.215  -0.605 -0.8560 -0.2473 -2.0458
  246MOL0     H33918   6.167  -0.148  -0.820  0.3991  0.8459 -0.7166
  246MOL0     H33919   6.131   0.009  -0.749 -0.6603 -0.4210 -0.3490
  246MOL0     H33920   5.948  -0.163  -0.719 -1.0113  2.4212  0.5395
  246MOL0     H33921   6.061  -0.259  -0.613  1.3406  0.9422  0.9948
  246MOL0     H33922   5.961   0.026  -0.562 -1.0382 -1.2121 -0.1598
  246MOL0     H33923   6.075  -0.069  -0.460 -0.7853  3.7212  1.6073
  246MOL0     H33924   5.810  -0.205  -0.540  0.8419 -0.9695  0.9521
  246MOL0     H33925   5.800  -0.056  -0.427  1.9184  1.2384  0.2878
  246MOL0     H33926   5.967  -0.178  -0.291 -0.6370  2.8928 -2.0841
  246MOL0     H33927   5.964  -0.313  -0.404  0.1424 -0.3062 -0.1375
  246MOL0     H33928   6.409   0.307  -0.863 -0.7114  2.2447 -0.6606
  246MOL0     H33929   6.422   0.550  -0.891  1.9943 -0.3944 -0.3644
  246MOL0     H33930   6.430   0.943  -0.809  2.7567 -1.7519  0.0273
  246MOL0     H33931   6.444   1.201  -0.855  1.6684 -0.0545 -2.2507
  246MOL0     H33932   6.186   2.112   0.486 -1.0123  0.8374 -0.3531
  246MOL0     H33933   6.393   2.136   0.647 -0.6650  0.9189  1.4412
  246MOL0     H33934   6.747   2.273   0.768 -1.7589  1.4482 -0.2971
  246MOL0     H33935   6.995   2.307   0.805 -4.1823 -3.3386  0.1835
  246MOL0     H33936   7.144   2.712   0.759 -0.2522 -1.5714 -0.7797
  246MOL0     H33937   7.129   2.742   0.926  1.1804  0.8755 -0.4516
  246MOL0     H33938   7.366   2.750   0.842 -2.1750 -0.0247 -3.4853
  246MOL0     H33939   7.345   2.583   0.800 -2.5290 -1.9392  1.1981
  246MOL0     H33940   7.333   2.700   1.080 -3.3118 -0.9520 -0.7092
  246MOL0     H33941   7.323   2.519   1.042  1.0738 -2.1010 -1.6939
  246MOL0     H33942   7.549   2.507   0.999 -1.4897 -1.0405 -1.2205
  246MOL0     H33943   7.544   2.622   1.139 -0.2087 -1.6707 -0.2069
  246MOL0     H33944   7.711   2.826   0.789 -1.3129  1.6904  0.2203
  246MOL0     H33945   6.909   2.719   0.903 -0.6440 -0.2305  1.6202
  246MOL0     H33946   6.648   2.742   0.709 -1.3093  1.0016 -0.3524
  246MOL0     H33947   6.582   2.724   0.886  1.6246  0.3647  2.0005
  246MOL0     H33948   6.726   2.814   0.855 -1.9822  0.0852  1.7072
  247MOL0     O33949   1.616  11.088   1.837  0.7098  0.7335  0.0761
  247MOL0     C33950   1.598  11.171   1.755 -0.2542  0.3636 -0.7782
  247MOL0     O33951   1.673  11.184   1.645  0.1726 -0.2383 -0.3626
  247MOL0     C33952   1.813  11.159   1.644  0.4420  0.1720 -1.1608
  247MOL0     C33953   1.857  11.108   1.527 -0.2984  0.0605 -0.5987
  247MOL0     C33954   1.988  11.074   1.512  0.4532 -0.2828 -0.2273
  247MOL0     C33955   2.083  11.105   1.614 -0.4111 -0.0446  0.1993
  247MOL0     O33956   2.219  11.070   1.588  1.1451  0.7022 -0.0096
  247MOL0     C33957   2.293  11.038   1.703 -0.5816  0.0197  0.0377
  247MOL0     C33958   2.409  10.954   1.652 -0.2484  0.1250  0.0582
  247MOL0     C33959   2.488  10.894   1.773  0.6016  0.1976 -0.5329
  247MOL0     C33960   2.608  10.814   1.735 -0.3250 -0.0257 -0.4328
  247MOL0     C33961   2.687  10.767   1.855  0.3638  0.1455 -0.5172
  247MOL0     C33962   2.773  10.877   1.928  0.5083  0.1040 -0.5897
  247MOL0     C33963   2.904  10.902   1.851 -0.9218  0.9872 -0.1904
  247MOL0     C33964   3.007  10.787   1.887  0.5306 -0.2336 -0.0091
  247MOL0     N33965   3.145  10.820   1.833  0.0927 -0.2832  0.1511
  247MOL0     C33966   3.190  10.840   1.703 -0.5185  0.2865 -0.1046
  247MOL0     C33967   3.324  10.873   1.704  0.5051  0.1337 -0.4165
  247MOL0     C33968   3.415  10.909   1.599  0.0062 -0.3220  0.6474
  247MOL0     C33969   3.375  10.844   1.465  0.1443  0.4830  0.2730
  247MOL0     C33970   3.436  10.925   1.345 -0.1711  1.2598  0.2194
  247MOL0     C33971   3.589  10.912   1.322  0.7638 -0.3805 -0.5678
  247MOL0     O33972   3.632  10.772   1.326 -0.0666 -0.2154  0.3603
  247MOL0     C33973   3.771  10.750   1.332 -0.5970  0.0600 -0.6490
  247MOL0     C33974   3.813  10.617   1.346 -0.5271 -0.6188 -0.7309
  247MOL0     C33975   3.944  10.586   1.397 -0.6695 -0.0209 -0.6360
  247MOL0     C33976   3.973  10.446   1.433  0.4925  1.0087 -0.2028
  247MOL0     C33977   4.045  10.690   1.401 -0.3301 -0.2892  0.2057
  247MOL0     C33978   4.197  10.659   1.439  0.5437 -0.4599 -0.2419
  247MOL0     O33979   4.271  10.773   1.419 -0.2255 -0.1512  0.6811
  247MOL0     C33980   4.402  10.756   1.381  0.1672 -0.2619  0.5641
  247MOL0     C33981   4.492  10.851   1.441 -0.1559  0.7112 -0.6418
  247MOL0     C33982   4.623  10.858   1.405  0.1508 -0.1552 -0.0172
  247MOL0     C33983   4.671  10.783   1.304 -0.8708  0.5634 -0.2448
  247MOL0     O33984   4.799  10.798   1.241  0.4783 -0.3557 -0.5846
  247MOL0     C33985   4.897  10.862   1.329  0.2926  0.6558  0.8338
  247MOL0     C33986   5.032  10.883   1.266  0.6119  0.0555  0.0094
  247MOL0     C33987   5.101  10.755   1.263  0.2338  0.1966 -1.0675
  247MOL0     C33988   5.238  10.767   1.209  0.4861 -1.4203 -1.1231
  247MOL0     C33989   5.317  10.642   1.208  0.0236  0.3627 -0.9508
  247MOL0     C33990   5.443  10.657   1.121  0.2412  0.4585 -0.5192
  247MOL0     C33991   5.525  10.525   1.104 -0.5751  0.0672 -0.2525
  247MOL0     C33992   5.527  10.420   1.224 -0.5852 -0.9421 -1.4185
  247MOL0    Cl33993   5.574  10.509   1.362  0.5659 -0.0162 -0.0086
  247MOL0     C33994   4.582  10.691   1.240 -0.6143  0.4808 -1.0300
  247MOL0     C33995   4.451  10.670   1.282  0.4222 -0.2807  0.2420
  247MOL0     O33996   4.235  10.553   1.479  0.0118  0.7124 -0.1056
  247MOL0     C33997   4.004  10.817   1.371  0.5002 -0.8049  1.4406
  247MOL0     C33998   3.866  10.846   1.359 -0.3285 -0.3548  0.9881
  247MOL0     N33999   3.356  10.874   1.841  0.1407  0.5537  0.1187
  247MOL0     N34000   3.253  10.847   1.915  0.1965  0.0526  0.3866
  247MOL0     C34001   2.038  11.158   1.733 -0.2965  0.7030  0.4981
  247MOL0     C34002   1.901  11.182   1.750 -0.3068  0.1981  0.2373
  247MOL0     C34003   1.496  11.275   1.788 -0.7650  0.3721  0.4593
  247MOL0     C34004   1.415  11.306   1.675  0.6914  0.0326 -0.2325
  247MOL0     C34005   1.304  11.389   1.711 -1.3398 -0.4086  0.5303
  247MOL0     C34006   1.280  11.438   1.838 -0.1364 -0.7452 -0.1916
  247MOL0     O34007   1.174  11.530   1.866  0.3975 -0.2675  0.5845
  247MOL0     C34008   1.066  11.530   1.767  0.3925 -0.7883  0.2368
  247MOL0     C34009   0.953  11.611   1.823 -0.4677 -0.4526 -0.1422
  247MOL0     C34010   0.827  11.590   1.733 -0.4833  0.2071  0.6665
  247MOL0     C34011   0.719  11.660   1.813  0.5660 -0.3959  0.3150
  247MOL0     C34012   0.589  11.694   1.743  0.1667 -0.3621 -0.6198
  247MOL0     C34013   0.475  11.701   1.711  0.7176  0.6601  0.9762
  247MOL0     C34014   1.373  11.414   1.940  0.3670  0.0338  0.0070
  247MOL0     C34015   1.480  11.328   1.911 -0.1182  0.2096  0.0128
  247MOL0     C34016   1.579  11.297   2.030  0.4433  0.1052  0.6228
  247MOL0     H34017   1.777  11.083   1.458 -2.8408  0.1098  2.1310
  247MOL0     H34018   2.021  11.019   1.424 -2.3122 -2.4380 -0.0231
  247MOL0     H34019   2.237  10.979   1.776 -0.0205  1.2740  1.5252
  247MOL0     H34020   2.339  11.128   1.745  1.2491  0.9404 -3.5849
  247MOL0     H34021   2.380  10.873   1.584  1.9010 -0.5076 -0.1956
  247MOL0     H34022   2.465  11.021   1.585 -0.6960 -1.4154 -1.9627
  247MOL0     H34023   2.515  10.987   1.824  1.2945  0.4750 -1.3643
  247MOL0     H34024   2.417  10.836   1.832 -1.9624  2.4986 -1.0829
  247MOL0     H34025   2.576  10.721   1.687 -1.5352  0.1856 -0.0646
  247MOL0     H34026   2.673  10.864   1.662  1.2616 -2.5918 -0.9027
  247MOL0     H34027   2.749  10.680   1.829  0.9186 -0.9973  3.7379
  247MOL0     H34028   2.616  10.721   1.924 -1.2603 -3.1957 -4.0454
  247MOL0     H34029   2.698  10.956   1.939 -0.8154 -1.4033  2.8787
  247MOL0     H34030   2.794  10.837   2.028  0.5321 -1.1855 -1.0904
  247MOL0     H34031   2.951  10.997   1.877  0.5084  0.4210 -0.6003
  247MOL0     H34032   2.888  10.897   1.743  0.5959  1.2133 -0.4475
  247MOL0     H34033   3.018  10.782   1.996 -0.2158  1.9947  0.2234
  247MOL0     H34034   2.975  10.689   1.850  2.6625 -0.8602 -0.3201
  247MOL0     H34035   3.119  10.836   1.622  0.0975 -1.7085 -0.6042
  247MOL0     H34036   3.523  10.905   1.619  0.6561  0.8776 -2.1387
  247MOL0     H34037   3.388  11.014   1.590  1.9560  0.4626  2.9075
  247MOL0     H34038   3.407  10.740   1.474  0.0498  0.6210  3.2876
  247MOL0     H34039   3.266  10.843   1.467  0.1429 -0.9725  0.8888
  247MOL0     H34040   3.382  10.892   1.256 -1.3666 -0.8460  1.6247
  247MOL0     H34041   3.418  11.031   1.362 -1.5352  1.0061  0.5169
  247MOL0     H34042   3.608  10.955   1.223 -2.1291  1.9291 -0.2379
  247MOL0     H34043   3.626  10.973   1.404 -0.1125 -0.9436  0.2671
  247MOL0     H34044   3.743  10.537   1.324  0.8647 -2.7816  2.0797
  247MOL0     H34045   3.888  10.387   1.400 -1.7947  3.1536  1.4440
  247MOL0     H34046   3.989  10.441   1.541 -1.0206 -2.4644 -0.0316
  247MOL0     H34047   4.062  10.413   1.378  0.2328  2.0914 -1.3230
  247MOL0     H34048   4.450  10.920   1.513  2.3885  3.2132 -1.3642
  247MOL0     H34049   4.684  10.941   1.439 -1.7470  1.2925 -0.0066
  247MOL0     H34050   4.855  10.960   1.350 -0.2594  0.5388  0.3181
  247MOL0     H34051   4.898  10.812   1.426 -0.7317  0.5189  0.7875
  247MOL0     H34052   5.004  10.921   1.167  1.6953  3.3619  0.8401
  247MOL0     H34053   5.100  10.960   1.306  0.1586  0.0089  0.8802
  247MOL0     H34054   5.045  10.681   1.206 -0.9438  1.8818 -2.2012
  247MOL0     H34055   5.099  10.720   1.366 -0.9180  2.9031 -0.0788
  247MOL0     H34056   5.294  10.840   1.269 -0.6164  1.2270 -3.0933
  247MOL0     H34057   5.240  10.810   1.109  0.6234  0.0295 -0.5207
  247MOL0     H34058   5.347  10.619   1.310 -1.0551  2.4049 -0.1139
  247MOL0     H34059   5.250  10.564   1.171  0.9115 -1.0036  0.2350
  247MOL0     H34060   5.507  10.740   1.151 -2.4254  2.8167 -0.9842
  247MOL0     H34061   5.417  10.684   1.018  0.4618  1.6489 -0.2708
  247MOL0     H34062   5.625  10.545   1.067  0.1067 -1.2252  0.7985
  247MOL0     H34063   5.476  10.472   1.022 -0.3119  1.7402 -1.5464
  247MOL0     H34064   5.595  10.338   1.200 -1.4761 -1.3446 -2.6792
  247MOL0     H34065   5.432  10.374   1.253 -0.5349 -1.3356 -1.8657
  247MOL0     H34066   4.618  10.638   1.153  1.2676 -1.2595  0.7063
  247MOL0     H34067   4.390  10.598   1.229 -0.6597  0.2641  0.7113
  247MOL0     H34068   4.077  10.896   1.374 -2.4241  2.3034 -1.0349
  247MOL0     H34069   3.833  10.949   1.369  0.5312  0.9388 -5.2201
  247MOL0     H34070   2.100  11.177   1.820 -2.8980 -1.1163  2.9223
  247MOL0     H34071   1.866  11.236   1.837  3.7618 -0.8660  2.8356
  247MOL0     H34072   1.437  11.257   1.581  1.9555  0.4007 -0.1547
  247MOL0     H34073   1.233  11.413   1.632 -1.2304 -0.8073  0.3064
  247MOL0     H34074   1.086  11.586   1.675 -4.3151 -0.2088 -0.7228
  247MOL0     H34075   1.043  11.429   1.734  0.3914 -0.3054 -1.3140
  247MOL0     H34076   0.988  11.715   1.820  2.3933 -1.2630  1.1430
  247MOL0     H34077   0.928  11.591   1.928 -2.1256  5.6841  1.0723
  247MOL0     H34078   0.842  11.629   1.632  2.4629 -1.7931  0.2179
  247MOL0     H34079   0.799  11.485   1.730 -3.2106  0.7997  1.9946
  247MOL0     H34080   0.756  11.757   1.848  1.9017 -0.2588 -1.3629
  247MOL0     H34081   0.694  11.590   1.893 -0.0076 -1.1581 -0.5204
  247MOL0     H34082   0.374  11.721   1.684  0.6437  1.9688  2.1363
  247MOL0     H34083   1.371  11.462   2.037  2.3657  1.3313 -0.5383
  247MOL0     H34084   1.543  11.206   2.078 -0.9733 -0.2323 -0.9916
  247MOL0     H34085   1.680  11.271   1.997  0.0947 -1.2961  0.6091
  247MOL0     H34086   1.588  11.382   2.099  0.8553  2.2330 -1.8777
  248MOL0     O34087   4.417   7.876   3.740 -0.0499  0.1204 -0.1570
  248MOL0     C34088   4.359   7.860   3.630  0.4219 -0.1421 -0.6732
  248MOL0     O34089   4.413   7.883   3.500  0.1936 -0.6110  0.1253
  248MOL0     C34090   4.550   7.889   3.501  0.0302 -0.2247 -0.1145
  248MOL0     C34091   4.612   8.001   3.562  0.8447  0.0621  0.2665
  248MOL0     C34092   4.755   8.011   3.550  0.8805 -0.6973 -0.2037
  248MOL0     C34093   4.830   7.909   3.494 -0.7175  0.0550 -0.1497
  248MOL0     O34094   4.963   7.929   3.500 -0.9526  0.2971  0.6561
  248MOL0     C34095   5.055   7.851   3.425 -0.2002 -0.3395 -0.1475
  248MOL0     C34096   5.196   7.885   3.464 -1.1780 -0.1381 -0.1727
  248MOL0     C34097   5.295   7.799   3.391 -0.4964  0.3426  0.0758
  248MOL0     C34098   5.443   7.838   3.397 -0.3432 -0.3612 -0.0013
  248MOL0     C34099   5.495   7.869   3.544 -0.0651  0.2348  0.8804
  248MOL0     C34100   5.646   7.883   3.543  1.6595 -0.2207 -0.5829
  248MOL0     C34101   5.694   7.885   3.695  0.6046  0.0957  0.1036
  248MOL0     C34102   5.848   7.886   3.684 -1.2936  0.4396  0.5405
  248MOL0     N34103   5.906   7.962   3.795 -0.1472  0.8555  0.1986
  248MOL0     C34104   5.889   7.926   3.933 -0.0831  1.1972  0.5557
  248MOL0     C34105   5.963   8.015   4.002  0.4098 -0.2720  0.5443
  248MOL0     C34106   5.980   8.037   4.150 -0.0018 -0.7250  0.0321
  248MOL0     C34107   6.130   8.017   4.196 -0.6973  0.9654  0.2845
  248MOL0     C34108   6.136   8.074   4.342 -0.0528  0.6494 -0.5434
  248MOL0     C34109   6.279   8.069   4.397 -0.2918  0.5203 -0.6837
  248MOL0     O34110   6.342   8.161   4.313  0.3705 -0.5373 -0.8970
  248MOL0     C34111   6.477   8.138   4.296 -0.3789 -0.4857 -0.0063
  248MOL0     C34112   6.561   8.149   4.403  0.2081  1.2968 -0.4049
  248MOL0     C34113   6.698   8.126   4.379 -0.3371  0.6938 -0.0831
  248MOL0     C34114   6.777   8.103   4.509 -0.5757  0.2824 -0.1062
  248MOL0     C34115   6.765   8.111   4.248  0.1086 -0.1604 -0.0498
  248MOL0     C34116   6.918   8.113   4.235  0.1270  0.9857  0.2854
  248MOL0     O34117   6.966   8.066   4.114 -0.9822 -0.0840  0.4427
  248MOL0     C34118   7.105   8.053   4.094 -0.3291 -0.8484  0.4402
  248MOL0     C34119   7.178   7.935   4.112 -0.4031  0.2724 -0.1666
  248MOL0     C34120   7.318   7.925   4.103  0.8316 -0.2097 -0.0705
  248MOL0     C34121   7.396   8.036   4.081  0.5120 -0.0193 -0.5169
  248MOL0     O34122   7.529   8.023   4.078 -0.0449  0.1366  0.1564
  248MOL0     C34123   7.611   8.130   4.023 -0.0684 -0.1759 -0.1054
  248MOL0     C34124   7.756   8.081   4.005 -0.5362 -0.1189 -0.5521
  248MOL0     C34125   7.828   8.049   4.141 -0.2620  0.5545  0.2907
  248MOL0     C34126   7.818   8.146   4.250 -0.0744  0.2970  0.1988
  248MOL0     C34127   7.872   8.083   4.375 -0.7752  0.4497  0.3583
  248MOL0     C34128   7.882   8.186   4.484 -0.6347  0.1337 -0.1140
  248MOL0     C34129   7.926   8.112   4.617 -0.6630 -0.0618 -0.1403
  248MOL0     C34130   7.959   8.212   4.716 -0.3100  0.0944 -0.7097
  248MOL0    Cl34131   8.129   8.270   4.709  0.1017  0.2259 -0.3344
  248MOL0     C34132   7.325   8.156   4.063  0.8248 -0.0908  0.9571
  248MOL0     C34133   7.190   8.160   4.067  0.9428  0.0557  0.3885
  248MOL0     O34134   6.987   8.164   4.322  0.4364 -0.0238 -0.2654
  248MOL0     C34135   6.676   8.116   4.143  0.6597  1.4215 -0.6013
  248MOL0     C34136   6.538   8.120   4.172 -0.0763  0.4354  0.0665
  248MOL0     N34137   6.009   8.104   3.904 -0.9192  0.4250 -0.6804
  248MOL0     N34138   5.975   8.073   3.786  0.1085 -0.1192  0.3092
  248MOL0     C34139   4.764   7.803   3.430 -0.4743 -0.1359 -0.3211
  248MOL0     C34140   4.626   7.794   3.429  0.1694  0.5066 -0.1228
  248MOL0     C34141   4.214   7.822   3.647 -0.8378 -0.4839  0.7461
  248MOL0     C34142   4.133   7.868   3.534  0.1301  0.6655  0.8100
  248MOL0     C34143   4.000   7.831   3.530 -0.2260 -0.5217  0.4506
  248MOL0     C34144   3.946   7.767   3.650 -0.9714 -0.0645 -0.1057
  248MOL0     O34145   3.809   7.743   3.673 -0.1421 -0.6970  0.1597
  248MOL0     C34146   3.705   7.773   3.584  1.5934 -0.2559 -0.5910
  248MOL0     C34147   3.655   7.653   3.502  0.6220 -0.2553 -0.2730
  248MOL0     C34148   3.758   7.604   3.395 -0.8170 -0.8378  0.5536
  248MOL0     C34149   3.759   7.688   3.269 -0.4829  0.0357 -0.2547
  248MOL0     C34150   3.624   7.690   3.202  0.8185 -0.4498 -0.5458
  248MOL0     C34151   3.505   7.705   3.157 -0.0453  0.0155 -0.3624
  248MOL0     C34152   4.025   7.729   3.754 -0.2666 -0.2979 -0.0756
  248MOL0     C34153   4.162   7.765   3.761  0.1558  0.7957 -0.2340
  248MOL0     C34154   4.233   7.722   3.888  0.0194 -0.1145 -0.3748
  248MOL0     H34155   4.555   8.072   3.621  0.8256 -0.4034  0.8226
  248MOL0     H34156   4.809   8.096   3.591  1.6427 -0.5396 -1.5040
  248MOL0     H34157   5.034   7.874   3.320 -0.2603  0.0091 -0.0586
  248MOL0     H34158   5.027   7.746   3.443  0.3810 -0.8206 -1.8556
  248MOL0     H34159   5.213   7.993   3.455 -0.5896  0.0399  2.2314
  248MOL0     H34160   5.215   7.871   3.571  0.7434  2.9664 -0.0011
  248MOL0     H34161   5.284   7.695   3.424  2.0614 -0.7185 -2.0627
  248MOL0     H34162   5.268   7.806   3.285 -2.6339  1.6747  0.6495
  248MOL0     H34163   5.501   7.766   3.338 -3.6766 -0.7144 -3.2182
  248MOL0     H34164   5.449   7.928   3.335  2.0816 -0.5386 -0.1091
  248MOL0     H34165   5.471   7.785   3.610  0.4759 -4.2511 -3.9170
  248MOL0     H34166   5.457   7.965   3.580 -0.4666  1.2517 -1.9610
  248MOL0     H34167   5.694   7.798   3.495  1.9207  0.6062 -1.8257
  248MOL0     H34168   5.677   7.979   3.501  1.7531 -0.1789 -0.4213
  248MOL0     H34169   5.663   7.798   3.753  3.6372 -1.8174 -0.9277
  248MOL0     H34170   5.655   7.973   3.748  3.4826  2.4478 -1.3868
  248MOL0     H34171   5.890   7.786   3.676  1.2186  1.4909 -0.9174
  248MOL0     H34172   5.882   7.917   3.584  0.9698 -5.7532 -1.0407
  248MOL0     H34173   5.818   7.853   3.970 -0.8467  0.2410 -2.5784
  248MOL0     H34174   5.917   7.964   4.202 -1.6844  1.6005  1.4346
  248MOL0     H34175   5.946   8.136   4.182  1.2301 -0.1676 -0.3198
  248MOL0     H34176   6.175   7.919   4.184 -1.9971  0.3476  0.2765
  248MOL0     H34177   6.190   8.089   4.139  2.6848  0.9278  3.4530
  248MOL0     H34178   6.097   8.174   4.361  0.5835  0.2650  3.6729
  248MOL0     H34179   6.082   8.008   4.411  3.4285  0.5634  2.4065
  248MOL0     H34180   6.287   8.100   4.502  0.3711  0.6985 -0.7868
  248MOL0     H34181   6.320   7.968   4.391 -1.8161 -0.3699  1.8877
  248MOL0     H34182   6.515   8.164   4.500  3.6856 -0.9344  1.7956
  248MOL0     H34183   6.821   8.201   4.528  0.9172 -0.1690 -1.0161
  248MOL0     H34184   6.858   8.031   4.493 -2.4112 -1.2222 -3.6139
  248MOL0     H34185   6.704   8.071   4.583 -1.4408 -1.4820 -1.6335
  248MOL0     H34186   7.134   7.839   4.137  0.7844 -1.1313 -2.9599
  248MOL0     H34187   7.362   7.827   4.117  0.7558 -0.9102 -3.6299
  248MOL0     H34188   7.563   8.162   3.930  0.5357  0.6852 -0.1266
  248MOL0     H34189   7.614   8.224   4.080 -0.1973 -1.2180  1.6871
  248MOL0     H34190   7.754   8.003   3.928 -0.9322 -0.4599 -0.1986
  248MOL0     H34191   7.820   8.156   3.957  0.6653 -2.2841 -2.5301
  248MOL0     H34192   7.931   8.026   4.113 -0.3959  1.9143 -1.5084
  248MOL0     H34193   7.792   7.950   4.170  1.1830 -0.2576 -0.5890
  248MOL0     H34194   7.718   8.188   4.261 -0.0586  0.8962 -1.5122
  248MOL0     H34195   7.891   8.227   4.238 -0.2463  0.4410  0.1073
  248MOL0     H34196   7.799   8.007   4.404  0.0325 -1.2235 -1.7740
  248MOL0     H34197   7.969   8.041   4.349 -1.4549 -1.4794  0.7628
  248MOL0     H34198   7.784   8.230   4.505 -1.5539 -1.0877 -1.6558
  248MOL0     H34199   7.955   8.262   4.456  0.2259 -0.3527  0.7459
  248MOL0     H34200   8.012   8.045   4.605  1.1074  1.7718  1.5146
  248MOL0     H34201   7.835   8.061   4.650 -0.0009 -2.1113 -1.2730
  248MOL0     H34202   7.932   8.176   4.816  0.0713  1.9709  0.1189
  248MOL0     H34203   7.887   8.294   4.709  1.7915  2.2391  0.9898
  248MOL0     H34204   7.376   8.249   4.043 -2.4698  1.4617 -1.2155
  248MOL0     H34205   7.140   8.256   4.058  0.9266  0.1624  1.5009
  248MOL0     H34206   6.712   8.115   4.040  0.2857  2.6564 -0.7612
  248MOL0     H34207   6.472   8.108   4.087  0.2316  0.2811 -0.1512
  248MOL0     H34208   4.825   7.730   3.377 -3.5258 -1.4802 -2.2482
  248MOL0     H34209   4.581   7.709   3.378  1.4723  0.0441 -0.5314
  248MOL0     H34210   4.181   7.932   3.461 -0.7571 -0.2052 -0.5738
  248MOL0     H34211   3.939   7.866   3.447 -0.2240 -2.2065 -0.3097
  248MOL0     H34212   3.622   7.797   3.651  2.2040  1.3162 -0.3523
  248MOL0     H34213   3.717   7.852   3.510  1.0014  1.2444  0.8549
  248MOL0     H34214   3.552   7.672   3.471  0.8378 -0.4246 -1.1272
  248MOL0     H34215   3.656   7.566   3.569  2.1945  0.5320  0.7852
  248MOL0     H34216   3.856   7.591   3.442 -0.2462  1.0601 -0.0157
  248MOL0     H34217   3.734   7.503   3.360  1.3424 -0.9055 -0.9098
  248MOL0     H34218   3.825   7.654   3.189 -0.1302 -0.3912  0.2104
  248MOL0     H34219   3.779   7.790   3.302  2.9099 -0.3340 -0.8579
  248MOL0     H34220   3.402   7.707   3.131 -0.3416 -0.6766  0.6825
  248MOL0     H34221   3.996   7.687   3.849  2.8156 -1.1729  0.5901
  248MOL0     H34222   4.156   7.688   3.957  0.4899  1.5456  1.0468
  248MOL0     H34223   4.307   7.643   3.871  1.1952  0.7197  0.6776
  248MOL0     H34224   4.278   7.808   3.938 -1.0064  0.7914 -0.9571
  249MOL0     O34225   7.879   1.366   6.397 -0.1658  0.4219 -0.0884
  249MOL0     C34226   7.850   1.486   6.384 -0.0266  0.0750 -0.5390
  249MOL0     O34227   7.940   1.587   6.350  0.1563  0.1733  0.2292
  249MOL0     C34228   8.072   1.550   6.352 -0.2655  0.2614 -0.0662
  249MOL0     C34229   8.137   1.532   6.473 -1.3027 -0.1326  0.0804
  249MOL0     C34230   8.264   1.479   6.473  0.9500  0.5525 -0.9405
  249MOL0     C34231   8.329   1.438   6.356 -0.1078  0.1423  1.1889
  249MOL0     O34232   8.453   1.382   6.373  0.1527  0.0716 -0.2979
  249MOL0     C34233   8.548   1.456   6.442 -0.1237 -1.1222 -0.2233
  249MOL0     C34234   8.593   1.366   6.563 -0.4163  0.2694  0.8615
  249MOL0     C34235   8.689   1.443   6.659 -0.3705 -0.7529  0.0866
  249MOL0     C34236   8.828   1.467   6.608  0.2111 -0.3919  0.7824
  249MOL0     C34237   8.923   1.531   6.701  0.5117  0.7453 -0.3774
  249MOL0     C34238   9.066   1.553   6.642  0.4618  0.1367 -0.0977
  249MOL0     C34239   9.153   1.669   6.712 -0.2948 -0.0707  1.0461
  249MOL0     C34240   9.298   1.662   6.637 -0.1337  0.0607  0.1610
  249MOL0     N34241   9.387   1.770   6.672 -0.1489 -0.3473  0.3838
  249MOL0     C34242   9.458   1.781   6.791  0.0982 -0.0720  0.2314
  249MOL0     C34243   9.509   1.908   6.795  0.2284  0.4343 -0.8217
  249MOL0     C34244   9.610   1.960   6.892 -0.1061 -0.5859 -0.0984
  249MOL0     C34245   9.751   1.912   6.861  0.1075  0.3193  0.3906
  249MOL0     C34246   9.842   2.000   6.944 -0.6733  0.0571  0.4077
  249MOL0     C34247   9.989   1.957   6.897  0.1033  0.3014 -0.2996
  249MOL0     O34248  10.075   2.017   6.999 -0.3195 -0.1398 -0.6790
  249MOL0     C34249  10.205   2.040   6.973 -0.6759  0.3630  0.0514
  249MOL0     C34250  10.268   2.141   7.049  0.1949  0.3459 -0.8943
  249MOL0     C34251  10.409   2.184   7.028  0.5984  0.4663  0.5736
  249MOL0     C34252  10.462   2.300   7.103 -0.1115  0.8522 -0.0771
  249MOL0     C34253  10.481   2.111   6.932 -0.4976  0.5767  0.3285
  249MOL0     C34254  10.625   2.116   6.923  0.7396  0.7404  0.5099
  249MOL0     O34255  10.698   2.134   7.034  0.4235 -0.4375 -0.5911
  249MOL0     C34256  10.828   2.097   7.027  0.0410  0.3336  0.4907
  249MOL0     C34257  10.879   1.982   7.099  0.6887 -0.1696  0.3917
  249MOL0     C34258  11.015   1.943   7.085  0.3406  0.6012  0.5739
  249MOL0     C34259  11.100   2.033   7.008 -0.9189 -0.1858 -0.6307
  249MOL0     O34260  11.235   2.016   7.006  0.4762  0.4186 -0.0314
  249MOL0     C34261  11.300   1.919   7.083 -0.1768  0.7578 -0.1843
  249MOL0     C34262  11.423   1.897   6.998  0.4419  0.4243  0.0973
  249MOL0     C34263  11.513   2.027   6.984  0.5465 -0.5324  0.4404
  249MOL0     C34264  11.630   1.989   6.893 -0.5767  0.5624  0.2720
  249MOL0     C34265  11.765   2.005   6.961 -0.1328  0.7045 -0.2301
  249MOL0     C34266  11.878   1.978   6.858 -0.1029 -0.0761 -0.2083
  249MOL0     C34267  11.998   1.906   6.927 -0.0011  0.3645  0.6426
  249MOL0     C34268  12.044   1.997   7.047  0.1168  0.1224  0.2630
  249MOL0    Cl34269  12.145   2.119   6.974  0.0969 -0.0567  0.2290
  249MOL0     C34270  11.048   2.152   6.959  0.0943 -0.0679 -0.1961
  249MOL0     C34271  10.912   2.182   6.969 -0.1297  0.4584  1.0860
  249MOL0     O34272  10.672   2.100   6.812  0.1701  0.7143  0.4110
  249MOL0     C34273  10.413   2.019   6.853  0.2180 -0.7714  1.0192
  249MOL0     C34274  10.279   1.984   6.867 -0.1855 -0.1296  0.1727
  249MOL0     N34275   9.463   1.973   6.683 -0.4932 -0.7851  0.5548
  249MOL0     N34276   9.401   1.887   6.606  0.9810 -0.5953 -0.5539
  249MOL0     C34277   8.265   1.454   6.238  0.1812  0.3617  0.2437
  249MOL0     C34278   8.137   1.514   6.236 -0.5906 -0.6899  0.4773
  249MOL0     C34279   7.713   1.529   6.424  0.6784  0.3880 -0.1888
  249MOL0     C34280   7.679   1.667   6.424  0.9981 -0.3113  0.6980
  249MOL0     C34281   7.548   1.719   6.439 -0.0433 -0.0691  0.6875
  249MOL0     C34282   7.437   1.632   6.456  0.0164 -0.2491  0.4084
  249MOL0     O34283   7.303   1.655   6.465  0.2187 -0.1540  0.1257
  249MOL0     C34284   7.261   1.794   6.491  0.0818  0.3549 -0.6729
  249MOL0     C34285   7.119   1.804   6.499  0.4399  0.4136  0.0296
  249MOL0     C34286   7.082   1.945   6.512 -0.1084 -0.1984  0.3811
  249MOL0     C34287   6.927   1.954   6.526 -0.1056  0.1937 -0.2434
  249MOL0     C34288   6.874   2.087   6.560 -0.2118  1.3302  0.7425
  249MOL0     C34289   6.833   2.196   6.595  0.1081  0.2432  0.3734
  249MOL0     C34290   7.469   1.497   6.444  0.1161  0.0941 -0.1256
  249MOL0     C34291   7.600   1.445   6.435 -0.2624 -0.2479 -1.0382
  249MOL0     C34292   7.616   1.293   6.407 -0.2588 -0.4860 -0.0089
  249MOL0     H34293   8.078   1.562   6.559 -0.3959  0.0065  0.6628
  249MOL0     H34294   8.307   1.462   6.571 -1.7987  1.0553  0.4408
  249MOL0     H34295   8.505   1.548   6.483  1.1798 -0.9869  0.9303
  249MOL0     H34296   8.626   1.478   6.369 -0.2949 -1.4139 -0.4975
  249MOL0     H34297   8.509   1.335   6.625  1.5986 -1.4311  2.9091
  249MOL0     H34298   8.644   1.279   6.520 -1.0308 -0.0227  0.7179
  249MOL0     H34299   8.643   1.530   6.706  1.1547 -0.6311  1.4519
  249MOL0     H34300   8.703   1.370   6.740  1.4560 -1.0001 -0.4222
  249MOL0     H34301   8.867   1.366   6.589 -3.2751 -1.4630 -1.5810
  249MOL0     H34302   8.840   1.518   6.512  3.4204  0.5282  1.5511
  249MOL0     H34303   8.933   1.468   6.790  0.7439  1.9560  0.4782
  249MOL0     H34304   8.879   1.628   6.725 -0.2537 -0.3871  3.4372
  249MOL0     H34305   9.119   1.459   6.655 -0.9407 -0.3588  2.7591
  249MOL0     H34306   9.053   1.576   6.536 -2.1182  0.2077  0.1681
  249MOL0     H34307   9.169   1.650   6.819  1.1356  1.5334  1.1639
  249MOL0     H34308   9.109   1.769   6.704 -1.0650 -0.4068  0.9710
  249MOL0     H34309   9.351   1.569   6.661  0.9727  0.7846  0.6524
  249MOL0     H34310   9.281   1.671   6.530 -1.8133 -0.3781  0.3668
  249MOL0     H34311   9.470   1.703   6.866  0.8026  1.1618  1.4447
  249MOL0     H34312   9.583   1.928   6.993 -1.8172  1.9371  0.3314
  249MOL0     H34313   9.607   2.069   6.891  3.7648 -0.2388  2.8761
  249MOL0     H34314   9.769   1.807   6.886  2.3722  0.4878 -0.3308
  249MOL0     H34315   9.771   1.942   6.757  1.4746 -0.3078  0.4473
  249MOL0     H34316   9.825   2.105   6.920  1.5276  0.2730 -0.4632
  249MOL0     H34317   9.835   1.981   7.051  2.9099 -2.8362  0.3459
  249MOL0     H34318   9.999   1.848   6.899  0.0623  0.3121  1.5223
  249MOL0     H34319  10.017   1.990   6.796  2.3720  0.8525  0.4511
  249MOL0     H34320  10.226   2.198   7.131  3.5528  1.5153  0.1802
  249MOL0     H34321  10.560   2.322   7.061  0.7829 -3.1774 -0.4452
  249MOL0     H34322  10.473   2.288   7.211 -2.6155 -0.6741  0.1025
  249MOL0     H34323  10.401   2.389   7.083 -0.4527  0.5675 -0.3392
  249MOL0     H34324  10.811   1.927   7.163  0.4665 -0.8196 -0.3889
  249MOL0     H34325  11.033   1.843   7.123 -1.1523 -1.0608 -2.6468
  249MOL0     H34326  11.320   1.957   7.184 -2.8683 -0.5730  0.9447
  249MOL0     H34327  11.245   1.825   7.099 -1.8786  1.8643  0.7577
  249MOL0     H34328  11.476   1.811   7.039 -3.0611 -1.0095  2.1135
  249MOL0     H34329  11.396   1.867   6.897 -3.2913 -1.4512  1.4507
  249MOL0     H34330  11.542   2.058   7.085  1.9931 -2.4031  0.6807
  249MOL0     H34331  11.456   2.103   6.932  4.4024  3.3183  1.2653
  249MOL0     H34332  11.626   2.058   6.808  1.5503  2.3341  1.5054
  249MOL0     H34333  11.627   1.887   6.853 -2.0236  0.8578 -0.4082
  249MOL0     H34334  11.769   2.100   7.015  0.7461  0.4538  0.1703
  249MOL0     H34335  11.765   1.921   7.031 -1.0388  0.5518 -0.3957
  249MOL0     H34336  11.908   2.069   6.804  1.6024 -1.1094 -1.0995
  249MOL0     H34337  11.856   1.907   6.778  3.5463 -0.6409 -0.9281
  249MOL0     H34338  12.082   1.889   6.859  1.1879  3.2358  1.2647
  249MOL0     H34339  11.969   1.811   6.972  2.4714  0.5826  2.9994
  249MOL0     H34340  12.121   1.942   7.103  4.8020  0.2794 -5.1655
  249MOL0     H34341  11.961   2.034   7.109 -0.2060 -0.0278 -0.0777
  249MOL0     H34342  11.108   2.228   6.911 -0.9735  0.5108 -0.6680
  249MOL0     H34343  10.869   2.270   6.922  0.3375  2.1868  3.6994
  249MOL0     H34344  10.471   1.970   6.776  0.9963 -1.0101  1.7518
  249MOL0     H34345  10.235   1.904   6.807 -0.2440 -0.8383  1.1297
  249MOL0     H34346   8.318   1.420   6.149 -0.2992  0.6001 -0.1378
  249MOL0     H34347   8.095   1.535   6.138  2.0834  1.0957 -0.4212
  249MOL0     H34348   7.749   1.747   6.400 -1.5838  2.1012  0.6651
  249MOL0     H34349   7.531   1.826   6.451  2.3132  0.2370  1.7293
  249MOL0     H34350   7.295   1.825   6.590  2.6966  1.4996 -1.8278
  249MOL0     H34351   7.301   1.861   6.414  2.0974  0.3807  0.3250
  249MOL0     H34352   7.075   1.758   6.588 -2.5593  1.7258 -0.6543
  249MOL0     H34353   7.079   1.760   6.407 -0.8502  2.8744 -0.6669
  249MOL0     H34354   7.124   1.981   6.607  0.2527 -2.2578  1.0576
  249MOL0     H34355   7.119   1.995   6.423 -0.6612  0.1268  0.3341
  249MOL0     H34356   6.902   1.883   6.605  1.2432 -1.4339 -1.2212
  249MOL0     H34357   6.887   1.924   6.429  3.6732  0.3576 -1.9980
  249MOL0     H34358   6.807   2.292   6.635 -0.0574  0.3877 -0.0678
  249MOL0     H34359   7.390   1.423   6.437 -0.4979  0.4600  2.1550
  249MOL0     H34360   7.515   1.250   6.412 -1.6187  2.5390  0.7482
  249MOL0     H34361   7.670   1.274   6.313  0.3198  1.0963 -0.0164
  249MOL0     H34362   7.665   1.244   6.492  1.9246  0.6246 -0.5472
  250MOL0     O34363   9.498   4.165   5.021 -0.3040 -0.5775 -0.1983
  250MOL0     C34364   9.458   4.278   5.008 -0.2925  1.0957 -0.2124
  250MOL0     O34365   9.535   4.392   5.020  0.3851  0.4687  0.1856
  250MOL0     C34366   9.668   4.377   5.004 -0.0551 -0.0647  0.0147
  250MOL0     C34367   9.729   4.449   4.897  0.5604  0.2615  0.0036
  250MOL0     C34368   9.859   4.430   4.869 -0.6059  0.9028  0.4928
  250MOL0     C34369   9.939   4.355   4.953 -0.5091 -0.7023 -0.3569
  250MOL0     O34370  10.071   4.346   4.920 -0.1136 -0.0252  0.1243
  250MOL0     C34371  10.157   4.265   4.997 -0.3792 -0.6336  0.0289
  250MOL0     C34372  10.300   4.275   4.934 -0.0695  0.2704  0.2084
  250MOL0     C34373  10.409   4.247   5.041  0.5110 -0.3683 -0.0095
  250MOL0     C34374  10.553   4.275   4.986  0.3083  0.0552  0.5796
  250MOL0     C34375  10.642   4.283   5.111 -0.0032  0.0240 -0.3083
  250MOL0     C34376  10.793   4.290   5.086  0.0917 -0.3455  0.5335
  250MOL0     C34377  10.859   4.295   5.222 -0.5665  0.1751 -0.3793
  250MOL0     C34378  11.010   4.252   5.203 -0.4741 -0.2857  0.1311
  250MOL0     N34379  11.087   4.352   5.120 -0.0807 -0.7073 -0.4013
  250MOL0     C34380  11.139   4.465   5.166 -0.0738  0.0516  0.1886
  250MOL0     C34381  11.196   4.526   5.059  0.0741  0.0835  0.6803
  250MOL0     C34382  11.277   4.652   5.058  0.1149 -0.3853 -0.8020
  250MOL0     C34383  11.424   4.633   5.076  0.0626  0.4796 -0.1534
  250MOL0     C34384  11.472   4.554   4.960 -0.1232  0.1746  0.0080
  250MOL0     C34385  11.625   4.548   4.969  0.1788  0.2517  0.1295
  250MOL0     O34386  11.687   4.495   4.849 -0.1205 -0.0260  0.8395
  250MOL0     C34387  11.826   4.481   4.861  0.0398 -0.2940  1.1186
  250MOL0     C34388  11.899   4.468   4.747  0.3183 -0.6138 -0.3819
  250MOL0     C34389  12.041   4.458   4.743  0.6120 -0.4481 -0.3272
  250MOL0     C34390  12.107   4.424   4.610 -0.5902 -0.2811 -0.2862
  250MOL0     C34391  12.110   4.473   4.867 -0.3458  0.3403  0.4682
  250MOL0     C34392  12.256   4.479   4.878 -0.2733  1.1003  0.1984
  250MOL0     O34393  12.324   4.550   4.783 -0.2167 -0.0878  0.5064
  250MOL0     C34394  12.462   4.565   4.771 -0.0884 -1.0868 -0.5267
  250MOL0     C34395  12.509   4.683   4.696 -0.6353  0.1923  0.4430
  250MOL0     C34396  12.647   4.688   4.677  0.2912 -0.4792 -1.3333
  250MOL0     C34397  12.743   4.596   4.725 -0.8910  0.5037 -0.0701
  250MOL0     O34398  12.884   4.602   4.703 -0.4430  0.5996 -0.0728
  250MOL0     C34399  12.942   4.726   4.666 -0.5018 -0.2920  0.3290
  250MOL0     C34400  13.091   4.726   4.695  0.2900 -0.2512  0.0787
  250MOL0     C34401  13.168   4.635   4.593  0.2311  0.1730 -0.5509
  250MOL0     C34402  13.291   4.573   4.657 -0.9901  0.5587  0.9636
  250MOL0     C34403  13.404   4.684   4.671 -0.4621 -1.0513 -0.0648
  250MOL0     C34404  13.505   4.629   4.774 -0.5329  0.5242 -0.3245
  250MOL0     C34405  13.618   4.718   4.794 -0.5616 -0.9335 -0.6684
  250MOL0     C34406  13.731   4.650   4.876 -1.0095  0.7040  0.3989
  250MOL0    Cl34407  13.790   4.478   4.808  0.0533 -0.4751 -0.1041
  250MOL0     C34408  12.698   4.483   4.792  0.3215  0.5515 -0.1590
  250MOL0     C34409  12.561   4.470   4.822  0.3108  0.7994  0.3601
  250MOL0     O34410  12.312   4.410   4.973  0.5419  0.0985  1.0980
  250MOL0     C34411  12.044   4.488   4.982  0.1945 -0.2611  0.5211
  250MOL0     C34412  11.898   4.482   4.974 -0.9063  0.0356 -1.2708
  250MOL0     N34413  11.174   4.453   4.942 -0.1164  0.6458 -0.3739
  250MOL0     N34414  11.103   4.350   4.981 -0.0788 -0.2725  0.3747
  250MOL0     C34415   9.881   4.296   5.068 -0.4202 -0.1388  0.3057
  250MOL0     C34416   9.746   4.306   5.094  0.5756 -0.8801  0.1747
  250MOL0     C34417   9.319   4.310   4.962 -0.1469 -0.0440  1.0455
  250MOL0     C34418   9.278   4.449   4.959  0.8993  0.0084 -0.3578
  250MOL0     C34419   9.155   4.485   4.926 -0.1927 -0.3967  0.4767
  250MOL0     C34420   9.052   4.392   4.904 -0.8610  0.6888  0.2251
  250MOL0     O34421   8.927   4.434   4.884 -0.2097 -1.0663 -0.6401
  250MOL0     C34422   8.814   4.369   4.944 -1.0791  0.3667 -0.0144
  250MOL0     C34423   8.681   4.407   4.876  0.2669 -0.6664 -1.0399
  250MOL0     C34424   8.559   4.368   4.952  0.7365 -0.2095 -0.6476
  250MOL0     C34425   8.545   4.216   4.975 -0.6599  0.6461 -0.3784
  250MOL0     C34426   8.408   4.162   4.985 -0.5273 -0.6606 -0.1584
  250MOL0     C34427   8.301   4.122   5.018 -0.3987 -0.3582  0.1596
  250MOL0     C34428   9.093   4.258   4.899  0.4384  0.7782  1.1100
  250MOL0     C34429   9.225   4.208   4.931 -0.2596  0.2693  0.2852
  250MOL0     C34430   9.241   4.058   4.923  0.0553  0.2667  0.0738
  250MOL0     H34431   9.658   4.495   4.830  1.8449  0.8245 -1.0187
  250MOL0     H34432   9.898   4.470   4.776  1.1682 -1.8476 -0.0558
  250MOL0     H34433  10.131   4.160   5.013 -0.2689 -0.7111 -0.2997
  250MOL0     H34434  10.153   4.320   5.092 -0.3459 -0.6857  0.0608
  250MOL0     H34435  10.310   4.206   4.850  1.5434  0.1576  0.4667
  250MOL0     H34436  10.316   4.375   4.891 -0.2595  0.0041 -0.4927
  250MOL0     H34437  10.396   4.311   5.129 -2.9312 -1.2147  0.2573
  250MOL0     H34438  10.400   4.144   5.076 -0.5832 -0.7622 -1.3446
  250MOL0     H34439  10.595   4.192   4.927  1.4681 -1.2634  3.1109
  250MOL0     H34440  10.546   4.373   4.938 -3.3608  0.6445  2.0277
  250MOL0     H34441  10.625   4.192   5.170  0.3259  0.9831  1.3474
  250MOL0     H34442  10.617   4.366   5.178  1.9256 -0.0048  0.5350
  250MOL0     H34443  10.813   4.198   5.029  0.8664  0.1194  0.0262
  250MOL0     H34444  10.833   4.371   5.025 -0.4334 -1.5146 -1.4626
  250MOL0     H34445  10.801   4.241   5.297 -2.0827  0.4754 -1.2950
  250MOL0     H34446  10.866   4.399   5.256 -2.4157  0.0520  0.5297
  250MOL0     H34447  11.050   4.259   5.305 -0.5981  0.0818  0.1560
  250MOL0     H34448  11.024   4.149   5.169  1.4704  0.1171 -0.4310
  250MOL0     H34449  11.125   4.513   5.263  0.3472 -1.4802  1.0524
  250MOL0     H34450  11.236   4.707   5.143 -1.2134  0.8445 -2.1968
  250MOL0     H34451  11.255   4.708   4.967 -0.7181  3.2130  1.3947
  250MOL0     H34452  11.475   4.729   5.071  4.1757 -1.1387  3.6816
  250MOL0     H34453  11.459   4.584   5.167  4.6870 -0.5158 -2.2141
  250MOL0     H34454  11.431   4.453   4.961 -0.9406  0.5079  1.1881
  250MOL0     H34455  11.458   4.606   4.865 -0.2979  0.3364  0.1235
  250MOL0     H34456  11.670   4.645   4.992  0.9492 -0.4987  1.9103
  250MOL0     H34457  11.650   4.477   5.048 -1.5284  1.2091  1.5916
  250MOL0     H34458  11.837   4.457   4.658 -0.9378  2.5525 -0.0136
  250MOL0     H34459  12.030   4.374   4.551 -2.3948  0.4696  1.3144
  250MOL0     H34460  12.187   4.353   4.631 -1.0674 -0.7099  0.0834
  250MOL0     H34461  12.143   4.523   4.578  0.4081  0.1654  1.9900
  250MOL0     H34462  12.460   4.769   4.652 -1.1801  0.0833  0.8235
  250MOL0     H34463  12.682   4.780   4.631  0.4859  0.1030 -0.0785
  250MOL0     H34464  12.923   4.749   4.561  1.7327  2.7018  0.4337
  250MOL0     H34465  12.899   4.808   4.725 -0.1486  0.1535 -0.0217
  250MOL0     H34466  13.127   4.829   4.702 -0.9251  0.1068  1.6028
  250MOL0     H34467  13.096   4.683   4.795  0.3958  4.1892  2.2005
  250MOL0     H34468  13.200   4.695   4.508  0.7845  1.0703  0.2635
  250MOL0     H34469  13.096   4.561   4.558  2.7722 -3.6620  1.5421
  250MOL0     H34470  13.331   4.492   4.596  0.1686  0.3567  1.9494
  250MOL0     H34471  13.270   4.539   4.759  2.6578 -0.5620  1.4878
  250MOL0     H34472  13.462   4.708   4.582 -1.0704  1.1572  0.0645
  250MOL0     H34473  13.379   4.781   4.716  1.7720  0.4515 -1.8424
  250MOL0     H34474  13.545   4.529   4.753 -0.5660  0.2967  0.6330
  250MOL0     H34475  13.444   4.616   4.864 -2.6912 -0.9851 -1.9083
  250MOL0     H34476  13.585   4.799   4.860  2.6651  2.0264 -2.3948
  250MOL0     H34477  13.661   4.753   4.700  1.3750 -0.5436  0.3120
  250MOL0     H34478  13.722   4.625   4.982  1.8096  0.0734  0.5714
  250MOL0     H34479  13.819   4.715   4.874  0.0042 -0.6139  0.1846
  250MOL0     H34480  12.759   4.401   4.827 -0.7476  0.3765  1.4130
  250MOL0     H34481  12.520   4.380   4.867  2.7636 -0.0610  1.0393
  250MOL0     H34482  12.094   4.492   5.079  0.7881 -1.2061  0.2713
  250MOL0     H34483  11.848   4.487   5.070  1.6733  2.8878  0.1039
  250MOL0     H34484   9.940   4.235   5.135  0.5524  1.3337  0.8374
  250MOL0     H34485   9.709   4.262   5.186  0.0371 -2.1617 -0.6298
  250MOL0     H34486   9.344   4.529   4.989 -0.7539  1.5157 -0.5861
  250MOL0     H34487   9.132   4.591   4.924  0.4074 -0.2649 -0.0377
  250MOL0     H34488   8.821   4.259   4.944 -1.2103  0.3485  0.8324
  250MOL0     H34489   8.807   4.398   5.049  0.6827  0.3293  0.1415
  250MOL0     H34490   8.662   4.369   4.775  0.9251  0.0385 -1.4327
  250MOL0     H34491   8.687   4.516   4.877 -1.2906 -0.4369 -4.3025
  250MOL0     H34492   8.570   4.419   5.048 -0.4883  1.1208 -1.1682
  250MOL0     H34493   8.476   4.412   4.896  1.2311  0.7465 -0.6635
  250MOL0     H34494   8.601   4.182   5.063 -2.5005 -0.0341  0.6091
  250MOL0     H34495   8.596   4.172   4.890 -0.9478  2.5642 -1.5865
  250MOL0     H34496   8.204   4.083   5.041  0.0722 -2.8459 -1.5837
  250MOL0     H34497   9.007   4.195   4.874  0.6856 -0.0302  2.2431
  250MOL0     H34498   9.257   4.033   5.028 -0.2631  2.7654  0.7958
  250MOL0     H34499   9.149   4.007   4.895  0.5343 -0.2079 -0.6907
  250MOL0     H34500   9.315   4.024   4.850  0.1292  0.9577 -0.1766
  251MOL0     O34501   3.173   8.777   2.508 -0.0787  0.0025 -0.7297
  251MOL0     C34502   3.078   8.847   2.469  0.5072 -0.2507 -0.0397
  251MOL0     O34503   3.089   8.952   2.394  0.3282 -0.9372  0.0959
  251MOL0     C34504   3.218   9.013   2.377 -0.8366 -0.5911 -0.2068
  251MOL0     C34505   3.229   9.148   2.426 -0.2710  0.8761 -0.1091
  251MOL0     C34506   3.352   9.212   2.412  0.5375  0.7572  0.1137
  251MOL0     C34507   3.458   9.146   2.353 -0.3853  0.1101  0.6183
  251MOL0     O34508   3.578   9.210   2.340  0.4741 -0.1838 -0.5192
  251MOL0     C34509   3.572   9.308   2.241 -0.8982  0.5430  0.2223
  251MOL0     C34510   3.696   9.402   2.255  0.6840  0.3164 -0.8374
  251MOL0     C34511   3.733   9.488   2.133  0.2415 -0.5767 -0.1576
  251MOL0     C34512   3.875   9.537   2.142  0.1951 -1.1787  0.4475
  251MOL0     C34513   3.921   9.601   2.015 -0.0268 -0.1197  0.2488
  251MOL0     C34514   4.066   9.648   2.032  0.2028 -0.7830  0.2676
  251MOL0     C34515   4.113   9.696   1.887 -0.3145 -0.3210  0.4008
  251MOL0     C34516   4.257   9.735   1.878  0.9175  0.1745  0.0045
  251MOL0     N34517   4.302   9.774   1.746  0.0951 -0.0195 -0.0772
  251MOL0     C34518   4.398   9.869   1.719 -0.6662  0.1707 -0.6373
  251MOL0     C34519   4.406   9.876   1.587  0.1591 -1.0144 -0.6808
  251MOL0     C34520   4.499   9.956   1.505 -1.5516 -0.1561 -0.4452
  251MOL0     C34521   4.495   9.919   1.355 -0.3698 -0.2162  0.5538
  251MOL0     C34522   4.559   9.776   1.322  0.5432  0.0515 -0.3236
  251MOL0     C34523   4.695   9.756   1.379  0.0901 -0.2588 -0.6788
  251MOL0     O34524   4.783   9.864   1.342 -0.1313 -0.2425  0.2263
  251MOL0     C34525   4.858   9.826   1.230 -0.2701 -0.2721 -0.6203
  251MOL0     C34526   4.836   9.888   1.105 -0.3575 -0.0576  0.3426
  251MOL0     C34527   4.919   9.871   0.997 -0.0299  0.2059 -0.1694
  251MOL0     C34528   4.880   9.939   0.869  0.3904 -0.9097  0.0041
  251MOL0     C34529   5.031   9.788   1.011 -0.2860  0.1320 -0.3061
  251MOL0     C34530   5.137   9.754   0.902  0.6804 -0.6229 -1.0374
  251MOL0     O34531   5.232   9.660   0.930 -0.0131 -0.2916  0.2315
  251MOL0     C34532   5.334   9.625   0.842 -0.0045 -0.3427 -0.9508
  251MOL0     C34533   5.319   9.599   0.707 -0.5916  0.4612  0.4138
  251MOL0     C34534   5.431   9.573   0.633  0.6759  0.0914  0.1228
  251MOL0     C34535   5.560   9.569   0.682  0.3801 -0.0315 -0.1554
  251MOL0     O34536   5.662   9.542   0.596 -0.1404 -0.0122  0.0196
  251MOL0     C34537   5.795   9.575   0.640 -0.3347  0.0904  0.3523
  251MOL0     C34538   5.891   9.569   0.521  0.4154 -0.2493  0.0389
  251MOL0     C34539   5.871   9.696   0.433  0.4249  0.1967 -0.2735
  251MOL0     C34540   5.960   9.707   0.313 -0.4808  0.2751 -0.4963
  251MOL0     C34541   5.939   9.852   0.253 -0.6987 -0.2852 -0.1128
  251MOL0     C34542   6.003   9.857   0.116 -0.3452 -0.6812  0.2740
  251MOL0     C34543   6.150   9.893   0.112 -0.0791  0.5604 -0.1125
  251MOL0     C34544   6.174  10.052   0.085 -0.0540 -0.3457  0.1736
  251MOL0    Cl34545   6.355  10.076   0.078  0.4455 -0.0928 -0.0553
  251MOL0     C34546   5.574   9.594   0.817  0.1735 -0.0306  0.2072
  251MOL0     C34547   5.461   9.622   0.899  0.1427 -0.1025 -0.3761
  251MOL0     O34548   5.128   9.810   0.792 -0.4454  0.8894 -0.7444
  251MOL0     C34549   5.044   9.729   1.139  0.0874 -0.4571  0.5364
  251MOL0     C34550   4.963   9.739   1.248  0.5208  0.7055 -0.4211
  251MOL0     N34551   4.318   9.790   1.536 -1.0522 -0.3687 -0.0996
  251MOL0     N34552   4.264   9.721   1.630 -0.0876  0.3401 -0.4064
  251MOL0     C34553   3.449   9.012   2.302 -0.3051  1.1378 -0.2555
  251MOL0     C34554   3.324   8.945   2.322  0.1461  0.5553 -0.3056
  251MOL0     C34555   2.943   8.797   2.490 -0.1938 -0.3524  0.3947
  251MOL0     C34556   2.905   8.672   2.438 -0.0471  0.9696  0.3186
  251MOL0     C34557   2.769   8.623   2.444 -1.5386 -0.2953  0.5900
  251MOL0     C34558   2.671   8.694   2.507  0.3730  0.3992  0.6982
  251MOL0     O34559   2.542   8.654   2.534 -0.0742 -0.2954 -0.3990
  251MOL0     C34560   2.511   8.529   2.486  0.0085  0.2553  0.3931
  251MOL0     C34561   2.362   8.490   2.511 -0.2020 -0.0686  0.8602
  251MOL0     C34562   2.260   8.583   2.436  0.2956 -0.4540  0.0830
  251MOL0     C34563   2.113   8.567   2.454 -0.2151  0.2687  0.9273
  251MOL0     C34564   2.078   8.583   2.590 -0.3936 -0.5830 -0.6763
  251MOL0     C34565   2.064   8.604   2.713 -0.6851  0.4803  0.4110
  251MOL0     C34566   2.709   8.823   2.547  0.3848 -0.8736 -0.3787
  251MOL0     C34567   2.844   8.878   2.548  0.0179 -0.4633 -0.2940
  251MOL0     C34568   2.874   9.016   2.593  0.4518  0.1470 -0.3623
  251MOL0     H34569   3.144   9.199   2.472 -0.6854 -1.7187  2.3453
  251MOL0     H34570   3.369   9.314   2.448  1.6589 -0.1230  2.2947
  251MOL0     H34571   3.480   9.366   2.252 -0.2735  1.6142  0.0382
  251MOL0     H34572   3.571   9.259   2.143 -1.9523  0.3444  0.3246
  251MOL0     H34573   3.689   9.462   2.346 -0.2730  2.1535 -2.0497
  251MOL0     H34574   3.782   9.339   2.278 -1.0076 -0.9439  2.8461
  251MOL0     H34575   3.744   9.421   2.048 -2.2213 -0.5518 -0.5439
  251MOL0     H34576   3.654   9.562   2.118  1.0809  0.2416 -0.6436
  251MOL0     H34577   3.878   9.613   2.220  0.6402  0.6039 -1.2368
  251MOL0     H34578   3.936   9.452   2.174  0.0641 -0.2225  3.5384
  251MOL0     H34579   3.862   9.691   1.996  3.7213  2.4777 -0.2561
  251MOL0     H34580   3.922   9.533   1.929 -0.2986  0.2263 -0.0308
  251MOL0     H34581   4.081   9.730   2.102 -1.3059  1.3285 -1.7276
  251MOL0     H34582   4.135   9.568   2.060  1.6718  1.2319  2.7309
  251MOL0     H34583   4.050   9.782   1.860  2.2903  1.6552  0.2099
  251MOL0     H34584   4.093   9.621   1.810  1.9722 -0.2086 -0.3691
  251MOL0     H34585   4.266   9.818   1.948 -0.0344  0.1819  0.1272
  251MOL0     H34586   4.316   9.647   1.905  2.0950  0.5881 -1.1001
  251MOL0     H34587   4.449   9.923   1.799  0.6593  1.6977 -2.4185
  251MOL0     H34588   4.595   9.931   1.551 -1.3740 -0.2008 -0.8291
  251MOL0     H34589   4.479  10.064   1.511  0.0454  0.3196 -2.2520
  251MOL0     H34590   4.392   9.927   1.319 -0.5666  2.5037  1.5012
  251MOL0     H34591   4.553   9.996   1.303  0.9905 -1.1661  0.6096
  251MOL0     H34592   4.495   9.691   1.349  2.0281 -1.2448 -0.7183
  251MOL0     H34593   4.573   9.777   1.214 -0.3488  0.1934 -0.4437
  251MOL0     H34594   4.691   9.753   1.489  0.4341  1.2965 -0.5980
  251MOL0     H34595   4.727   9.654   1.357 -1.8716 -1.1358  0.2602
  251MOL0     H34596   4.751   9.955   1.109  0.7607  1.3682  1.2665
  251MOL0     H34597   4.788   9.997   0.882  0.0964 -1.9441  3.5390
  251MOL0     H34598   4.860   9.871   0.787  2.0033 -0.4624 -0.8033
  251MOL0     H34599   4.962  10.001   0.831 -1.3826  0.4324 -1.8453
  251MOL0     H34600   5.231   9.619   0.646  0.4994  0.6395 -1.1878
  251MOL0     H34601   5.409   9.573   0.527  0.1911  1.3777  0.2090
  251MOL0     H34602   5.805   9.677   0.678  0.3253  0.0243  0.3663
  251MOL0     H34603   5.832   9.504   0.715  0.0764  0.8460  0.8768
  251MOL0     H34604   5.989   9.578   0.568  0.5859 -1.5005 -0.0655
  251MOL0     H34605   5.879   9.476   0.465  0.1370  0.0932 -0.4843
  251MOL0     H34606   5.899   9.786   0.490  0.9518  0.5896 -1.1263
  251MOL0     H34607   5.766   9.704   0.404  0.6934 -0.1452 -1.4094
  251MOL0     H34608   5.955   9.625   0.242 -0.5269  0.0400 -0.2221
  251MOL0     H34609   6.062   9.706   0.351 -0.5462 -2.8195 -0.1986
  251MOL0     H34610   5.832   9.874   0.249 -0.5797  0.2505 -0.4677
  251MOL0     H34611   5.987   9.919   0.325 -0.0820 -2.2172  1.3651
  251MOL0     H34612   5.954   9.921   0.042  0.3895 -2.2617 -1.6701
  251MOL0     H34613   5.999   9.758   0.071 -0.0389 -0.7549  0.4143
  251MOL0     H34614   6.190   9.839   0.026 -0.3811  2.3462 -1.4541
  251MOL0     H34615   6.202   9.858   0.201  0.8604 -0.6563 -1.1120
  251MOL0     H34616   6.129  10.118   0.159  0.7098  0.1070  0.2419
  251MOL0     H34617   6.124  10.074  -0.010  0.8428  1.0167  0.0006
  251MOL0     H34618   5.674   9.592   0.861  0.0091 -0.1731  0.5727
  251MOL0     H34619   5.470   9.651   1.003 -5.2574 -1.3092  0.7401
  251MOL0     H34620   5.134   9.669   1.151  1.6742  1.8287  0.6084
  251MOL0     H34621   4.989   9.700   1.346  1.5120 -0.8579 -1.2647
  251MOL0     H34622   3.530   8.961   2.250 -0.7416 -0.3928  0.5146
  251MOL0     H34623   3.308   8.845   2.283 -2.9066  1.2807 -1.2065
  251MOL0     H34624   2.978   8.609   2.388 -1.9557 -0.7932 -0.4213
  251MOL0     H34625   2.755   8.529   2.393  1.3232 -0.6932  0.3919
  251MOL0     H34626   2.523   8.520   2.377  0.6964  1.1017  0.3800
  251MOL0     H34627   2.579   8.459   2.534  0.3219  1.2352  1.4286
  251MOL0     H34628   2.339   8.494   2.618 -3.6014 -1.9369  0.3362
  251MOL0     H34629   2.344   8.386   2.481  3.1153 -0.8905  1.3599
  251MOL0     H34630   2.277   8.683   2.476 -1.5252 -0.1775  0.2380
  251MOL0     H34631   2.283   8.575   2.329 -3.9525 -2.4357 -0.8797
  251MOL0     H34632   2.086   8.468   2.415  0.7647  1.3687 -3.0244
  251MOL0     H34633   2.056   8.640   2.395  2.1899  2.8934  1.6820
  251MOL0     H34634   2.070   8.635   2.815  0.3168 -0.5500  0.6824
  251MOL0     H34635   2.632   8.877   2.601  0.5572 -0.6586 -0.3493
  251MOL0     H34636   2.784   9.071   2.622  0.4485 -0.0224 -0.0445
  251MOL0     H34637   2.949   9.024   2.672  0.3243 -2.8386  0.1855
  251MOL0     H34638   2.908   9.066   2.502 -2.8773 -1.4337 -2.7307
  252MOL0     O34639  11.059   2.560   4.629  0.3059 -0.4121 -0.0726
  252MOL0     C34640  10.963   2.627   4.658 -0.3342  0.2423  0.3125
  252MOL0     O34641  10.970   2.757   4.695  0.8114 -0.1775  0.5621
  252MOL0     C34642  11.089   2.817   4.714 -0.4254 -0.5977  0.1192
  252MOL0     C34643  11.188   2.827   4.615 -0.0931  0.5258  0.0160
  252MOL0     C34644  11.304   2.900   4.649 -0.4757 -0.6831  0.7351
  252MOL0     C34645  11.317   2.980   4.764  0.2123 -0.0008  0.6052
  252MOL0     O34646  11.425   3.057   4.805 -0.0685 -0.3248  0.4374
  252MOL0     C34647  11.489   3.124   4.695  0.2807  0.0487 -0.2783
  252MOL0     C34648  11.612   3.193   4.748 -0.1276 -0.4005  0.5880
  252MOL0     C34649  11.728   3.083   4.768  0.4158  0.2729  0.4273
  252MOL0     C34650  11.863   3.138   4.728 -0.0153  0.2940 -0.1763
  252MOL0     C34651  11.969   3.028   4.725 -1.7283  0.1835  0.3862
  252MOL0     C34652  11.996   2.946   4.853 -1.3152  0.1120 -0.3419
  252MOL0     C34653  12.135   2.888   4.870  0.3117 -0.9095  0.1540
  252MOL0     C34654  12.234   2.999   4.910 -0.9429 -0.2463  0.1502
  252MOL0     N34655  12.372   2.956   4.941  0.0782 -0.3179  0.7849
  252MOL0     C34656  12.460   3.005   5.037 -0.5196 -0.3842  0.9379
  252MOL0     C34657  12.572   2.933   5.015  0.2551 -0.6621 -0.4332
  252MOL0     C34658  12.688   2.949   5.099 -0.8849 -0.1330  0.1888
  252MOL0     C34659  12.821   2.917   5.034 -0.1320  0.4570 -0.3046
  252MOL0     C34660  12.945   2.998   5.101  0.6798 -0.2029  0.3399
  252MOL0     C34661  13.071   2.953   5.035 -0.5166 -0.3247  0.0335
  252MOL0     O34662  13.106   2.813   5.058 -0.2324  0.1871  0.2201
  252MOL0     C34663  13.230   2.765   5.032  0.1232  0.3408 -0.0700
  252MOL0     C34664  13.266   2.636   5.050 -0.0110  0.4863 -0.1285
  252MOL0     C34665  13.395   2.574   5.024 -0.0404 -0.3163 -0.2094
  252MOL0     C34666  13.408   2.422   5.018  0.1068 -0.1430  0.3493
  252MOL0     C34667  13.497   2.668   4.979 -0.2658 -0.3042 -0.5336
  252MOL0     C34668  13.636   2.627   4.960  0.1118  0.3620 -1.1752
  252MOL0     O34669  13.712   2.707   4.897  0.2362  0.2346  0.9416
  252MOL0     C34670  13.848   2.682   4.877  0.1037  0.5329 -0.2589
  252MOL0     C34671  13.900   2.669   4.752 -0.0667  0.2163 -0.8570
  252MOL0     C34672  14.036   2.656   4.723  0.6144 -0.7439 -0.1575
  252MOL0     C34673  14.123   2.634   4.841 -0.4458 -0.1753  1.0981
  252MOL0     O34674  14.261   2.613   4.843  0.8027 -0.7211  0.6268
  252MOL0     C34675  14.329   2.634   4.716  0.4173 -0.2874  0.2039
  252MOL0     C34676  14.477   2.656   4.757 -0.5667  0.0010  0.0629
  252MOL0     C34677  14.555   2.738   4.666 -1.1237  0.2448  0.2068
  252MOL0     C34678  14.697   2.731   4.693 -0.6261  0.2716 -0.2644
  252MOL0     C34679  14.783   2.820   4.602 -0.4437 -0.0670 -1.5184
  252MOL0     C34680  14.784   2.760   4.465 -0.6280  0.2682  0.0899
  252MOL0     C34681  14.860   2.846   4.367 -0.7597  0.4982 -0.4475
  252MOL0     C34682  14.821   2.805   4.216 -0.0119  0.8462 -0.0506
  252MOL0    Cl34683  14.824   2.613   4.180 -0.0724  0.4783  0.0862
  252MOL0     C34684  14.065   2.644   4.965 -1.3216 -0.3267 -0.2130
  252MOL0     C34685  13.932   2.672   4.988  0.2252  0.1502 -0.0136
  252MOL0     O34686  13.671   2.521   5.011  0.0837  0.8371 -0.2806
  252MOL0     C34687  13.468   2.804   4.969  0.5439  0.6386  0.0567
  252MOL0     C34688  13.336   2.852   4.999  0.4788 -0.1208  0.1563
  252MOL0     N34689  12.545   2.833   4.924 -0.3261  0.2019 -0.6153
  252MOL0     N34690  12.429   2.858   4.873  0.2257 -1.2681  0.1735
  252MOL0     C34691  11.207   2.971   4.853  0.2918  0.9238  0.0368
  252MOL0     C34692  11.096   2.889   4.832  0.1688 -0.2297 -0.4159
  252MOL0     C34693  10.828   2.574   4.631 -0.4617 -0.1005  0.5761
  252MOL0     C34694  10.720   2.672   4.640 -0.0203  0.3274 -0.1927
  252MOL0     C34695  10.591   2.644   4.608  0.7845  0.0386  0.5295
  252MOL0     C34696  10.561   2.515   4.556 -0.6406 -0.5006  0.6874
  252MOL0     O34697  10.442   2.473   4.505 -0.1782 -0.8598  0.3542
  252MOL0     C34698  10.338   2.580   4.509 -0.3921  1.0424  0.0169
  252MOL0     C34699  10.207   2.511   4.475 -0.5242 -0.7974  0.1382
  252MOL0     C34700  10.225   2.442   4.337 -0.7577  0.2084  0.2597
  252MOL0     C34701  10.105   2.357   4.298  1.2421  0.2708  0.7954
  252MOL0     C34702   9.971   2.435   4.305  0.4483  0.2387 -0.2651
  252MOL0     C34703   9.871   2.500   4.330 -0.0843  0.8277 -0.1611
  252MOL0     C34704  10.663   2.418   4.546  0.8219 -0.3350  0.0707
  252MOL0     C34705  10.792   2.445   4.590 -0.5658  0.3811  0.8842
  252MOL0     C34706  10.888   2.330   4.603 -0.0451  0.3267 -0.4010
  252MOL0     H34707  11.186   2.776   4.519  3.1986 -2.2310  1.2219
  252MOL0     H34708  11.383   2.920   4.578  0.1200  0.6376  1.7326
  252MOL0     H34709  11.424   3.196   4.645 -0.6134 -0.0044  0.7681
  252MOL0     H34710  11.524   3.062   4.612  3.7304 -0.2607  1.2291
  252MOL0     H34711  11.651   3.259   4.670  1.1332 -2.1737 -0.3543
  252MOL0     H34712  11.586   3.241   4.842 -0.0733  0.6439  0.0833
  252MOL0     H34713  11.729   3.056   4.874  2.7190  1.9983  0.9155
  252MOL0     H34714  11.700   2.996   4.707  0.9229  0.6190 -0.3135
  252MOL0     H34715  11.860   3.193   4.633 -0.8912  1.1691  0.3384
  252MOL0     H34716  11.892   3.214   4.801  0.5006 -1.2099  1.2522
  252MOL0     H34717  12.063   3.081   4.704 -1.6055  1.2188  3.1297
  252MOL0     H34718  11.960   2.959   4.641 -0.8783 -2.0520  2.0339
  252MOL0     H34719  11.965   3.004   4.940  0.2038  1.7385 -0.8401
  252MOL0     H34720  11.935   2.856   4.844  1.2420 -1.6556 -1.0324
  252MOL0     H34721  12.162   2.858   4.769 -3.4207 -1.0185 -0.9490
  252MOL0     H34722  12.141   2.811   4.947  0.3852  0.5651  1.7030
  252MOL0     H34723  12.237   3.071   4.828  0.1827 -0.7673 -0.2994
  252MOL0     H34724  12.207   3.064   4.993 -0.5876  0.9972 -0.6850
  252MOL0     H34725  12.447   3.093   5.099  1.7872  0.6538  0.0414
  252MOL0     H34726  12.667   2.900   5.195 -4.7569  2.1700  0.7569
  252MOL0     H34727  12.704   3.055   5.125  1.9892 -0.6418  0.7723
  252MOL0     H34728  12.848   2.812   5.048  0.1930 -0.0724 -3.8891
  252MOL0     H34729  12.814   2.946   4.929 -0.3081 -0.7105 -0.6324
  252MOL0     H34730  12.932   3.106   5.089 -0.7926 -0.5816 -2.4021
  252MOL0     H34731  12.957   2.973   5.207  0.1108 -1.6662  0.0905
  252MOL0     H34732  13.054   2.970   4.928 -1.8807 -0.5379  0.1992
  252MOL0     H34733  13.151   3.023   5.059  0.7456 -1.2817 -1.2380
  252MOL0     H34734  13.193   2.558   5.069  0.8203 -0.0147  1.1244
  252MOL0     H34735  13.485   2.394   5.091  1.2105  1.8157  0.0066
  252MOL0     H34736  13.430   2.390   4.916 -0.2478 -0.4864  0.3807
  252MOL0     H34737  13.314   2.367   5.029  0.8122 -1.4849 -0.1688
  252MOL0     H34738  13.836   2.682   4.665  0.0428  0.9170 -0.8365
  252MOL0     H34739  14.074   2.661   4.622  0.9617  1.1180  0.0453
  252MOL0     H34740  14.330   2.544   4.654  1.4110  0.2316 -0.5737
  252MOL0     H34741  14.290   2.723   4.665 -0.0434 -0.5170  0.1484
  252MOL0     H34742  14.478   2.703   4.856 -3.1206  3.8510 -1.4786
  252MOL0     H34743  14.521   2.558   4.777  0.4372  0.0711 -1.6204
  252MOL0     H34744  14.522   2.842   4.680  2.5176  1.6739 -0.7690
  252MOL0     H34745  14.541   2.696   4.566  0.7762 -1.7169  0.6944
  252MOL0     H34746  14.733   2.628   4.685  1.8167  0.9981  0.4941
  252MOL0     H34747  14.703   2.754   4.799 -1.8846  2.1231 -0.5429
  252MOL0     H34748  14.736   2.919   4.604 -1.0379 -0.3509 -0.5427
  252MOL0     H34749  14.886   2.829   4.639 -1.0164  1.8901 -0.2445
  252MOL0     H34750  14.682   2.745   4.427 -0.2541  0.6869 -1.1002
  252MOL0     H34751  14.829   2.660   4.472  0.4410  0.8522  2.9833
  252MOL0     H34752  14.964   2.825   4.394 -0.8634  0.4571 -0.0699
  252MOL0     H34753  14.842   2.952   4.389  0.8932  0.2444  2.6849
  252MOL0     H34754  14.896   2.844   4.147  1.1763 -0.9483  0.1603
  252MOL0     H34755  14.724   2.846   4.188 -0.1454 -1.7696 -4.3656
  252MOL0     H34756  14.132   2.642   5.050 -0.2819 -1.2014 -1.0266
  252MOL0     H34757  13.886   2.689   5.085 -1.9057 -3.0430 -0.3251
  252MOL0     H34758  13.538   2.878   4.932  2.0747 -0.5292  0.5512
  252MOL0     H34759  13.320   2.958   4.982 -1.3502 -0.6804 -2.1991
  252MOL0     H34760  11.217   3.018   4.951 -2.3278  1.5178  0.1005
  252MOL0     H34761  11.007   2.894   4.893 -0.9311  1.6686 -2.0671
  252MOL0     H34762  10.743   2.771   4.678  0.6650  0.5007 -1.0338
  252MOL0     H34763  10.513   2.718   4.621  1.0595  0.5700 -0.6592
  252MOL0     H34764  10.336   2.626   4.608 -0.8566  0.4535  0.2896
  252MOL0     H34765  10.355   2.655   4.431  1.3766 -0.2252 -0.9052
  252MOL0     H34766  10.125   2.583   4.468  1.1487  1.0427 -1.9111
  252MOL0     H34767  10.188   2.437   4.553  1.2103 -0.8492  0.5488
  252MOL0     H34768  10.228   2.525   4.266  1.4839 -0.1981 -0.1975
  252MOL0     H34769  10.316   2.384   4.320 -1.0524 -0.9368  2.3464
  252MOL0     H34770  10.098   2.261   4.350 -0.7629  0.0288  0.1603
  252MOL0     H34771  10.121   2.325   4.195  2.7119 -3.8463  2.0669
  252MOL0     H34772   9.772   2.536   4.351 -1.0054 -0.4551 -1.9885
  252MOL0     H34773  10.639   2.319   4.507  1.1286 -0.0480 -0.8783
  252MOL0     H34774  10.965   2.347   4.679 -0.0876  1.1351 -0.5355
  252MOL0     H34775  10.833   2.238   4.623  0.8325 -0.0385  0.4351
  252MOL0     H34776  10.944   2.325   4.509 -1.1729 -1.1570 -1.0252
  253MOL0     O34777   6.057   3.580   6.484 -0.4324  0.4994 -0.1785
  253MOL0     C34778   5.958   3.512   6.460 -1.0093  0.0358  0.0931
  253MOL0     O34779   5.926   3.464   6.338 -0.1219 -0.9552  0.1455
  253MOL0     C34780   6.016   3.471   6.233 -0.2974  0.1527  0.0889
  253MOL0     C34781   6.145   3.414   6.245 -0.6406 -0.1416  0.4329
  253MOL0     C34782   6.234   3.424   6.139  0.3394  0.1439  0.4275
  253MOL0     C34783   6.199   3.495   6.021  0.3630  1.2203  1.0850
  253MOL0     O34784   6.281   3.509   5.909 -0.0465  0.3344  0.7353
  253MOL0     C34785   6.374   3.406   5.871  0.0715 -0.0730  0.3757
  253MOL0     C34786   6.520   3.431   5.902 -0.2814  0.2724 -0.1513
  253MOL0     C34787   6.608   3.309   5.889 -0.1818 -0.5017  0.1664
  253MOL0     C34788   6.754   3.342   5.853 -0.4845 -0.1504 -0.2901
  253MOL0     C34789   6.849   3.388   5.959  0.3705 -0.2995  0.0473
  253MOL0     C34790   6.856   3.548   5.965 -0.2557 -0.2016  1.0766
  253MOL0     C34791   6.943   3.619   6.069 -0.4558  0.0123 -0.1863
  253MOL0     C34792   6.931   3.554   6.210  0.3854 -0.3427  0.6599
  253MOL0     N34793   6.813   3.587   6.290 -0.8965 -0.0638  0.4347
  253MOL0     C34794   6.693   3.523   6.279  0.9173  0.2546  0.5842
  253MOL0     C34795   6.612   3.576   6.379 -0.7111  0.6472  0.5272
  253MOL0     C34796   6.463   3.563   6.402 -0.1041 -0.6807 -0.3744
  253MOL0     C34797   6.427   3.453   6.499  0.4280  0.9892  0.3321
  253MOL0     C34798   6.492   3.452   6.630  0.0621 -0.0489 -0.6766
  253MOL0     C34799   6.459   3.583   6.714  0.3485  0.4206  0.2281
  253MOL0     O34800   6.474   3.557   6.856 -0.8277  0.8496  0.9382
  253MOL0     C34801   6.608   3.532   6.891 -0.6505 -0.1687 -0.0942
  253MOL0     C34802   6.627   3.469   7.014  0.1004  0.1529 -0.3448
  253MOL0     C34803   6.754   3.441   7.074 -0.0323 -0.2291  0.2314
  253MOL0     C34804   6.755   3.371   7.205  0.4228  0.3850 -0.1405
  253MOL0     C34805   6.870   3.480   7.002 -0.1449  0.2493  0.6857
  253MOL0     C34806   7.004   3.448   7.058  0.1498  0.1452 -0.5092
  253MOL0     O34807   7.106   3.497   6.983  0.1828  0.3277 -0.0125
  253MOL0     C34808   7.233   3.493   7.024  0.1244  0.5155 -0.1250
  253MOL0     C34809   7.321   3.407   6.968 -0.0619  0.2507  0.0630
  253MOL0     C34810   7.461   3.397   7.006 -0.0802 -0.7334  0.4206
  253MOL0     C34811   7.499   3.492   7.096 -0.3226 -1.3296 -0.1484
  253MOL0     O34812   7.633   3.496   7.139  0.3664 -0.2408 -0.5096
  253MOL0     C34813   7.728   3.406   7.073 -0.0991 -0.5974 -0.2067
  253MOL0     C34814   7.847   3.411   7.164 -0.3169  0.0105 -0.4527
  253MOL0     C34815   7.958   3.312   7.119  0.4146  0.2744 -0.2759
  253MOL0     C34816   8.035   3.249   7.239 -0.3425 -0.9349 -0.6297
  253MOL0     C34817   8.155   3.171   7.180  0.2764 -0.5487 -0.0006
  253MOL0     C34818   8.243   3.114   7.298 -0.0477  0.7211 -0.6877
  253MOL0     C34819   8.320   2.985   7.254  0.0099  0.3097 -0.7184
  253MOL0     C34820   8.412   3.015   7.138  0.2525 -0.1707  0.2458
  253MOL0    Cl34821   8.492   2.857   7.106  0.4287  0.0213  0.0435
  253MOL0     C34822   7.409   3.587   7.154 -0.0977 -0.4257  0.5768
  253MOL0     C34823   7.273   3.584   7.117  0.2735  0.0403 -0.8170
  253MOL0     O34824   7.024   3.401   7.166  0.4272 -0.2229 -0.5337
  253MOL0     C34825   6.860   3.537   6.876  0.4707 -0.0819  0.7144
  253MOL0     C34826   6.731   3.573   6.828  0.3883 -0.4472  0.0178
  253MOL0     N34827   6.696   3.649   6.460 -0.1174 -0.4821 -0.1682
  253MOL0     N34828   6.814   3.654   6.407 -0.0731 -0.1831 -0.1835
  253MOL0     C34829   6.069   3.545   6.010  0.0826  0.2032  0.1783
  253MOL0     C34830   5.982   3.536   6.117  0.1793 -0.3010  0.9694
  253MOL0     C34831   5.863   3.489   6.566 -1.5530 -0.9992  0.1742
  253MOL0     C34832   5.735   3.474   6.522 -0.7552  0.1236  0.3381
  253MOL0     C34833   5.638   3.443   6.613 -0.9794  0.8060  0.0077
  253MOL0     C34834   5.660   3.431   6.752  0.7714  1.2299  0.1307
  253MOL0     O34835   5.557   3.398   6.844  0.0854  0.3296  0.1408
  253MOL0     C34836   5.420   3.392   6.796  0.2346  0.9150  0.1458
  253MOL0     C34837   5.331   3.374   6.917  0.5090  0.5561  0.5609
  253MOL0     C34838   5.364   3.249   6.993  0.5023  0.2183  0.8266
  253MOL0     C34839   5.282   3.225   7.111 -0.1975 -0.0560 -0.0097
  253MOL0     C34840   5.354   3.167   7.220  0.5299  1.0498  0.0260
  253MOL0     C34841   5.423   3.108   7.299 -0.6067  0.0902  0.3668
  253MOL0     C34842   5.793   3.441   6.797 -0.2771 -0.0925  0.4887
  253MOL0     C34843   5.894   3.464   6.702  0.6918 -0.1427  0.4080
  253MOL0     C34844   6.040   3.479   6.743  1.5903 -0.3304 -0.2156
  253MOL0     H34845   6.190   3.373   6.335  0.9544 -0.2955 -0.3966
  253MOL0     H34846   6.332   3.379   6.148  0.2804 -0.6394 -2.0080
  253MOL0     H34847   6.361   3.376   5.767  0.9010 -0.9815  0.5214
  253MOL0     H34848   6.339   3.315   5.920  0.3056  0.7153  2.0626
  253MOL0     H34849   6.555   3.500   5.825  0.3299 -0.8994 -0.9470
  253MOL0     H34850   6.537   3.468   6.004  2.5658  1.3020 -0.9008
  253MOL0     H34851   6.612   3.254   5.983  1.5702 -0.6614  0.0275
  253MOL0     H34852   6.557   3.243   5.818 -0.7679 -0.6211  0.6967
  253MOL0     H34853   6.792   3.248   5.812 -0.9909 -0.5911  0.2311
  253MOL0     H34854   6.762   3.411   5.768  1.0410  0.3092  0.2047
  253MOL0     H34855   6.951   3.357   5.934  1.5951  0.8383  3.0757
  253MOL0     H34856   6.836   3.353   6.062  1.5490 -0.2560  0.2270
  253MOL0     H34857   6.889   3.564   5.862  0.1259 -0.2293  1.1935
  253MOL0     H34858   6.752   3.580   5.976  0.3234  2.0020  0.4619
  253MOL0     H34859   6.903   3.720   6.081  0.5412  0.1214  3.3830
  253MOL0     H34860   7.048   3.616   6.042  1.7940 -3.2310  6.5805
  253MOL0     H34861   6.944   3.447   6.190  0.6615  0.0778 -1.7052
  253MOL0     H34862   7.016   3.591   6.268 -0.9667  1.0963  1.8058
  253MOL0     H34863   6.671   3.450   6.202  3.3048  3.6248 -3.7991
  253MOL0     H34864   6.423   3.564   6.300  1.6567  3.3544 -1.1968
  253MOL0     H34865   6.442   3.657   6.453  2.0769 -2.0862  3.4969
  253MOL0     H34866   6.321   3.480   6.511  0.6425  4.0198 -2.8278
  253MOL0     H34867   6.442   3.358   6.448 -2.9082  1.2209 -1.4000
  253MOL0     H34868   6.454   3.368   6.688  1.0358  0.6898  1.1128
  253MOL0     H34869   6.598   3.440   6.604  0.2038 -0.1569 -0.0549
  253MOL0     H34870   6.526   3.666   6.692  0.9453  0.5890  2.4471
  253MOL0     H34871   6.357   3.618   6.694 -0.4163 -1.7425  0.0622
  253MOL0     H34872   6.534   3.438   7.061  1.2128 -2.5180  0.3162
  253MOL0     H34873   6.808   3.429   7.281  0.0197  0.2956  0.2109
  253MOL0     H34874   6.800   3.272   7.200 -0.7287 -0.1695  0.2870
  253MOL0     H34875   6.652   3.362   7.239  0.4788  0.3574  0.0214
  253MOL0     H34876   7.290   3.332   6.896 -0.4139  0.5543 -0.1044
  253MOL0     H34877   7.522   3.320   6.960 -0.9943 -0.0858 -2.0812
  253MOL0     H34878   7.692   3.303   7.068  1.1187 -1.3537  3.3308
  253MOL0     H34879   7.762   3.438   6.974 -1.5310  0.8760 -0.2612
  253MOL0     H34880   7.876   3.516   7.162 -0.9102  0.2052  0.5830
  253MOL0     H34881   7.809   3.379   7.261 -2.8748 -6.4780 -2.9710
  253MOL0     H34882   8.028   3.357   7.048  2.4929 -2.3843 -0.0397
  253MOL0     H34883   7.911   3.233   7.060  0.4130 -0.0040  0.0949
  253MOL0     H34884   7.973   3.186   7.304 -0.4319 -1.3241 -1.0868
  253MOL0     H34885   8.074   3.325   7.307  0.0500 -0.6536 -1.1616
  253MOL0     H34886   8.115   3.087   7.124 -0.7237 -1.0533  1.4353
  253MOL0     H34887   8.220   3.228   7.112 -0.4741  1.1963  0.6846
  253MOL0     H34888   8.173   3.086   7.378  1.1955  0.4255  0.3201
  253MOL0     H34889   8.314   3.187   7.338 -0.1899  0.0190  0.9424
  253MOL0     H34890   8.261   2.898   7.223  3.8067 -2.3943 -0.9529
  253MOL0     H34891   8.387   2.959   7.335 -1.9826  0.0608  0.9377
  253MOL0     H34892   8.478   3.097   7.167 -0.1219 -0.2407  1.3399
  253MOL0     H34893   8.348   3.044   7.054  0.2486  0.7668  0.5608
  253MOL0     H34894   7.453   3.659   7.222 -0.3041 -0.2154  0.4876
  253MOL0     H34895   7.199   3.656   7.148 -0.9656 -1.9371  1.1215
  253MOL0     H34896   6.946   3.565   6.818  0.3822 -0.0070  0.6195
  253MOL0     H34897   6.734   3.626   6.733 -0.5520  2.7644  1.6401
  253MOL0     H34898   6.047   3.590   5.914 -0.1350 -0.5178 -0.1110
  253MOL0     H34899   5.888   3.587   6.099  2.2120  2.7473 -2.4546
  253MOL0     H34900   5.697   3.476   6.420  2.4500 -0.8180 -1.0023
  253MOL0     H34901   5.542   3.421   6.567 -0.4380  2.0925 -1.8308
  253MOL0     H34902   5.396   3.487   6.748  0.2757  1.0623  0.4126
  253MOL0     H34903   5.398   3.311   6.726 -2.7802  1.0019  0.8620
  253MOL0     H34904   5.229   3.377   6.878 -0.0010 -0.2160  1.7838
  253MOL0     H34905   5.335   3.462   6.981 -0.6381 -0.9613  2.8378
  253MOL0     H34906   5.351   3.161   6.928 -0.6655  0.1188  1.1698
  253MOL0     H34907   5.471   3.252   7.016  0.4282  1.4219  1.0415
  253MOL0     H34908   5.199   3.163   7.074 -1.7115  2.4492 -1.1400
  253MOL0     H34909   5.248   3.324   7.144 -1.8381 -0.7913  0.6002
  253MOL0     H34910   5.502   3.062   7.356  1.9450  2.1373 -1.2594
  253MOL0     H34911   5.832   3.436   6.899  2.6909  2.2497 -0.3939
  253MOL0     H34912   6.103   3.405   6.692  1.2637 -1.2741  0.7035
  253MOL0     H34913   6.066   3.585   6.741 -5.3403  1.9126  1.2754
  253MOL0     H34914   6.052   3.447   6.847 -1.0764  0.1741  0.3200
  254MOL0     O34915   5.880   7.583  10.415  0.0201  0.0556  0.7370
  254MOL0     C34916   5.925   7.548  10.303 -0.5671  0.2185 -0.1202
  254MOL0     O34917   6.019   7.454  10.285 -0.4932 -0.0910  0.0417
  254MOL0     C34918   6.111   7.423  10.376  0.2789  0.5009 -0.4858
  254MOL0     C34919   6.235   7.490  10.386 -0.3240  0.6328 -0.0926
  254MOL0     C34920   6.317   7.466  10.499  0.4678  0.1049 -0.2749
  254MOL0     C34921   6.288   7.357  10.581 -0.1913 -0.7951 -0.4226
  254MOL0     O34922   6.375   7.333  10.680  0.1213 -0.4752  0.1466
  254MOL0     C34923   6.489   7.249  10.652  0.0537  0.4023  0.4500
  254MOL0     C34924   6.621   7.337  10.661  0.7509  0.7296 -0.2290
  254MOL0     C34925   6.747   7.242  10.655  0.4991 -0.4813  0.0226
  254MOL0     C34926   6.881   7.304  10.680 -0.4192  1.1351 -0.0852
  254MOL0     C34927   6.987   7.194  10.668 -0.2197  0.5802  0.0246
  254MOL0     C34928   7.129   7.249  10.697 -0.6498  0.2752 -0.8479
  254MOL0     C34929   7.237   7.142  10.659  0.2874  0.1102 -0.0919
  254MOL0     C34930   7.378   7.188  10.648  0.9645  0.1847  0.1194
  254MOL0     N34931   7.416   7.230  10.789  0.1512 -0.8354  0.0061
  254MOL0     C34932   7.499   7.158  10.871 -0.4125  0.3364 -0.2231
  254MOL0     C34933   7.535   7.241  10.971 -0.6202  0.4045  0.1339
  254MOL0     C34934   7.613   7.194  11.087 -0.6681 -0.1525 -0.6646
  254MOL0     C34935   7.509   7.132  11.175  0.2768  0.1876  0.3122
  254MOL0     C34936   7.581   7.109  11.310  0.3133 -0.0326 -0.1382
  254MOL0     C34937   7.567   7.231  11.410  0.4398 -0.1780 -0.2222
  254MOL0     O34938   7.665   7.229  11.518  0.5829 -0.2641 -0.2394
  254MOL0     C34939   7.798   7.237  11.497  0.4556  0.2669  0.7571
  254MOL0     C34940   7.870   7.297  11.394  0.2371 -0.3621  0.1353
  254MOL0     C34941   8.012   7.315  11.380  0.4960 -0.5396  0.8640
  254MOL0     C34942   8.058   7.374  11.260 -0.3205 -0.3125 -0.7284
  254MOL0     C34943   8.093   7.263  11.488 -0.1768  0.5301  0.7459
  254MOL0     C34944   8.246   7.261  11.480  1.1637 -0.4980  0.0347
  254MOL0     O34945   8.305   7.203  11.594 -0.3152 -0.4711  0.0610
  254MOL0     C34946   8.438   7.154  11.583 -0.0497  0.1400 -0.5373
  254MOL0     C34947   8.543   7.228  11.534 -0.3570 -0.5456  1.0866
  254MOL0     C34948   8.671   7.186  11.531 -0.9810  0.5023  1.0527
  254MOL0     C34949   8.705   7.059  11.579  0.1964  0.2149 -0.5504
  254MOL0     O34950   8.831   7.017  11.601  0.0402 -0.6377  0.8466
  254MOL0     C34951   8.936   7.056  11.509 -0.6564 -0.2019 -0.3939
  254MOL0     C34952   9.031   7.164  11.583 -0.5046 -0.5452 -0.0793
  254MOL0     C34953   9.168   7.195  11.523 -0.1122  0.0648 -0.1592
  254MOL0     C34954   9.164   7.254  11.380 -0.1106 -0.6522  0.1298
  254MOL0     C34955   9.305   7.281  11.333  0.4841  1.1463 -0.3412
  254MOL0     C34956   9.307   7.377  11.210  0.2022 -0.6187 -0.1535
  254MOL0     C34957   9.259   7.520  11.242 -0.2730  0.2459 -0.3667
  254MOL0     C34958   9.296   7.604  11.129  0.8236 -0.6216 -0.4105
  254MOL0    Cl34959   9.248   7.778  11.168  0.0472 -0.1234 -0.1629
  254MOL0     C34960   8.604   6.982  11.638 -0.4074  0.1476  0.1865
  254MOL0     C34961   8.471   7.027  11.638  0.6183  1.0637  1.1654
  254MOL0     O34962   8.303   7.288  11.380 -0.1557 -0.2960  0.5949
  254MOL0     C34963   8.021   7.194  11.592  0.2296 -0.4226  0.3316
  254MOL0     C34964   7.880   7.177  11.591 -0.1732 -1.2829 -0.4854
  254MOL0     N34965   7.477   7.362  10.959 -0.5727  0.1268  0.5821
  254MOL0     N34966   7.400   7.354  10.852 -0.2671  0.5443 -0.0246
  254MOL0     C34967   6.168   7.281  10.571 -0.3215  0.0782 -0.4934
  254MOL0     C34968   6.079   7.321  10.468  0.0660 -0.4806 -0.2892
  254MOL0     C34969   5.855   7.591  10.174  0.2575 -0.6742 -0.0193
  254MOL0     C34970   5.714   7.596  10.171  0.0618 -0.4030  0.2402
  254MOL0     C34971   5.638   7.647  10.064  0.4520  0.6363  0.0721
  254MOL0     C34972   5.709   7.691   9.952 -0.3564  0.5505  0.3092
  254MOL0     O34973   5.631   7.732   9.845  0.1029 -0.4407 -0.6178
  254MOL0     C34974   5.696   7.785   9.727 -0.4043  1.0191 -0.3206
  254MOL0     C34975   5.581   7.808   9.624 -0.1704  0.2504  1.0163
  254MOL0     C34976   5.478   7.921   9.661 -1.0750  0.4194  0.1521
  254MOL0     C34977   5.529   8.057   9.701  0.5188  0.0267  0.7865
  254MOL0     C34978   5.632   8.101   9.599  0.7909 -0.7417 -0.1016
  254MOL0     C34979   5.716   8.128   9.520 -0.2950 -0.3756  0.0085
  254MOL0     C34980   5.851   7.680   9.954  0.1195 -0.4252  0.0531
  254MOL0     C34981   5.924   7.650  10.069  0.1917  0.8937 -0.3900
  254MOL0     C34982   6.075   7.641  10.049 -0.1101  0.6742  0.8780
  254MOL0     H34983   6.258   7.568  10.315 -1.2441  1.4661  0.5055
  254MOL0     H34984   6.413   7.515  10.498  0.9433 -0.6116  2.1829
  254MOL0     H34985   6.490   7.228  10.544  1.4105 -0.7932  0.6689
  254MOL0     H34986   6.477   7.159  10.712 -2.3482  0.0480 -0.4334
  254MOL0     H34987   6.627   7.407  10.577 -1.0136 -0.5758 -1.5037
  254MOL0     H34988   6.616   7.386  10.759 -1.5234  0.8145 -0.3389
  254MOL0     H34989   6.740   7.172  10.739  2.1079  1.1022  1.5512
  254MOL0     H34990   6.753   7.190  10.559  1.0736  0.3287 -0.3816
  254MOL0     H34991   6.912   7.379  10.607 -0.9635  0.0403 -1.5027
  254MOL0     H34992   6.887   7.357  10.775  3.9455  0.3549  0.2656
  254MOL0     H34993   6.988   7.163  10.563 -2.7870 -0.1981  0.1718
  254MOL0     H34994   6.969   7.116  10.742  1.9282  0.3630  0.3917
  254MOL0     H34995   7.141   7.337  10.632  0.4187 -0.7883 -2.1451
  254MOL0     H34996   7.137   7.278  10.802  0.0965 -0.9914 -0.5375
  254MOL0     H34997   7.204   7.108  10.560  2.1958 -2.6981  0.1481
  254MOL0     H34998   7.230   7.057  10.727 -3.4885 -1.4550 -2.1477
  254MOL0     H34999   7.449   7.107  10.631  0.4180 -0.0420 -1.1921
  254MOL0     H35000   7.386   7.266  10.573 -1.2380 -0.3581 -0.7664
  254MOL0     H35001   7.538   7.058  10.858 -0.2067  0.5525 -1.3279
  254MOL0     H35002   7.668   7.278  11.132  1.1851 -1.6923  0.0942
  254MOL0     H35003   7.694   7.126  11.059  2.0771  2.5410  0.0776
  254MOL0     H35004   7.420   7.192  11.196  0.0625  0.7041 -1.8897
  254MOL0     H35005   7.473   7.038  11.133  1.4130  0.7705 -2.1056
  254MOL0     H35006   7.547   7.014  11.353  1.8904  0.4085  2.3369
  254MOL0     H35007   7.689   7.094  11.302  0.0808 -1.0502 -2.1299
  254MOL0     H35008   7.577   7.331  11.367  3.3908  0.3553  1.4717
  254MOL0     H35009   7.468   7.219  11.455 -0.2252 -0.6772 -1.7518
  254MOL0     H35010   7.804   7.336  11.317 -1.4157 -0.1342  1.6036
  254MOL0     H35011   8.115   7.463  11.286  2.4988 -2.0920 -0.4514
  254MOL0     H35012   7.978   7.398  11.189 -2.0427 -0.2709  1.1378
  254MOL0     H35013   8.127   7.312  11.203  0.2175  0.1317 -0.5627
  254MOL0     H35014   8.524   7.331  11.507  0.1088 -0.3557  1.4701
  254MOL0     H35015   8.749   7.245  11.485 -0.6760 -1.9051 -1.8466
  254MOL0     H35016   9.002   6.970  11.496  0.3247  0.6059 -0.8923
  254MOL0     H35017   8.901   7.086  11.410 -1.3361 -0.0853 -0.1298
  254MOL0     H35018   8.967   7.252  11.586 -1.3080 -1.0515 -1.4669
  254MOL0     H35019   9.047   7.138  11.688 -1.0068  1.1569  0.4548
  254MOL0     H35020   9.228   7.104  11.524 -0.5093 -0.2392 -1.5942
  254MOL0     H35021   9.209   7.273  11.588 -2.1668  0.3113  0.9390
  254MOL0     H35022   9.099   7.342  11.382 -1.6184 -1.6972  2.5853
  254MOL0     H35023   9.120   7.182  11.310  2.5308 -1.6701 -0.5904
  254MOL0     H35024   9.355   7.332  11.416 -0.2510 -0.0729  0.8900
  254MOL0     H35025   9.366   7.195  11.305  3.0876  3.0454 -0.9521
  254MOL0     H35026   9.241   7.341  11.131 -1.7143  1.3932  0.4112
  254MOL0     H35027   9.411   7.390  11.181 -0.3068 -1.2213 -2.3801
  254MOL0     H35028   9.317   7.559  11.326 -1.5438  2.2630 -0.3610
  254MOL0     H35029   9.154   7.529  11.270 -0.5604 -2.2022 -0.4564
  254MOL0     H35030   9.246   7.569  11.038  2.4283 -1.5841 -0.9550
  254MOL0     H35031   9.402   7.607  11.105  1.2754 -0.1825  1.4712
  254MOL0     H35032   8.619   6.898  11.704  1.5800  3.7071  4.8526
  254MOL0     H35033   8.389   6.967  11.675  0.7107  1.4969  2.1061
  254MOL0     H35034   8.072   7.166  11.683  1.3806  0.8663  0.1247
  254MOL0     H35035   7.844   7.117  11.674  0.6142  0.3401  1.1191
  254MOL0     H35036   6.141   7.207  10.645  0.7722 -1.4407 -1.5471
  254MOL0     H35037   5.978   7.283  10.462  0.0134 -0.3505 -0.2377
  254MOL0     H35038   5.668   7.563  10.263  1.1790  1.3278  1.4954
  254MOL0     H35039   5.530   7.651  10.074  0.3559 -0.8859 -0.1081
  254MOL0     H35040   5.750   7.876   9.752 -0.6817  0.5048  2.4881
  254MOL0     H35041   5.776   7.716   9.697  0.3771  0.9265  1.8013
  254MOL0     H35042   5.523   7.718   9.601  0.8487  0.1271 -1.3261
  254MOL0     H35043   5.628   7.839   9.530  1.6240  1.5471  2.2841
  254MOL0     H35044   5.418   7.937   9.571  0.0903 -1.2453 -0.9821
  254MOL0     H35045   5.404   7.883   9.733 -0.6928  0.0022  0.3274
  254MOL0     H35046   5.563   8.051   9.805  0.3782  0.9030  0.8853
  254MOL0     H35047   5.448   8.129   9.686  2.2150  1.4551 -2.3953
  254MOL0     H35048   5.790   8.157   9.448  1.4007 -2.3619  0.8415
  254MOL0     H35049   5.898   7.711   9.861  0.6736 -1.1283  0.0938
  254MOL0     H35050   6.107   7.537  10.041  0.6184  0.9942 -0.7621
  254MOL0     H35051   6.106   7.677   9.950 -1.6810 -0.7005 -0.1728
  254MOL0     H35052   6.128   7.690  10.131  0.5352  0.7446  0.4284
  255MOL0     O35053   6.019   2.919   5.972  0.1192 -0.8104 -0.2837
  255MOL0     C35054   5.959   2.879   5.870  0.0307  0.4704 -0.2493
  255MOL0     O35055   5.960   2.748   5.834  0.3151 -0.8442 -0.6240
  255MOL0     C35056   6.065   2.674   5.886  0.0751  0.4086  0.0473
  255MOL0     C35057   6.148   2.617   5.795  0.1108 -0.2940  0.3572
  255MOL0     C35058   6.261   2.537   5.832 -0.0659  0.4667  0.5968
  255MOL0     C35059   6.287   2.514   5.974 -0.6847  0.1895  0.4587
  255MOL0     O35060   6.398   2.445   6.026 -0.1414 -0.1254 -0.3578
  255MOL0     C35061   6.517   2.479   5.959  0.4273  1.2894  0.0118
  255MOL0     C35062   6.621   2.374   6.015  0.0654 -0.0506  0.4565
  255MOL0     C35063   6.636   2.390   6.173 -0.4979  0.1004 -0.4182
  255MOL0     C35064   6.732   2.289   6.236 -0.2487  0.0360 -0.3232
  255MOL0     C35065   6.884   2.334   6.246  0.3868 -0.3798  0.3188
  255MOL0     C35066   6.975   2.215   6.211 -0.1195  0.3724 -0.3622
  255MOL0     C35067   7.122   2.249   6.230 -0.2356 -0.6104  0.2581
  255MOL0     C35068   7.224   2.138   6.181 -0.0925  0.2795  0.9155
  255MOL0     N35069   7.362   2.189   6.155  0.0779 -0.1920 -0.4090
  255MOL0     C35070   7.482   2.148   6.217  0.1699 -0.2185  0.8853
  255MOL0     C35071   7.578   2.194   6.129  0.2972 -0.4791  0.6349
  255MOL0     C35072   7.724   2.195   6.172  0.0003  0.5208  0.5649
  255MOL0     C35073   7.813   2.220   6.055 -0.3722  0.5077  0.4293
  255MOL0     C35074   7.964   2.214   6.090  0.0988  0.1187 -0.5828
  255MOL0     C35075   8.033   2.221   5.954 -0.1542 -0.1240  0.3829
  255MOL0     O35076   8.171   2.227   5.988 -0.2351 -0.2789 -0.7538
  255MOL0     C35077   8.273   2.231   5.903 -0.2642  0.2554 -1.3082
  255MOL0     C35078   8.249   2.226   5.762  0.6531 -0.5351 -0.2874
  255MOL0     C35079   8.351   2.200   5.675 -0.0323 -0.5282 -0.2486
  255MOL0     C35080   8.317   2.212   5.523  0.3659  0.6079  0.2191
  255MOL0     C35081   8.485   2.194   5.730 -0.5516 -1.0009 -0.3474
  255MOL0     C35082   8.611   2.171   5.646  0.2975  0.6422  0.3329
  255MOL0     O35083   8.735   2.201   5.704  0.6568  0.2048 -0.1402
  255MOL0     C35084   8.856   2.155   5.651  0.5734  0.5219 -0.2222
  255MOL0     C35085   8.884   2.071   5.540  0.1373  0.1287 -0.0836
  255MOL0     C35086   9.004   2.035   5.504 -0.2149 -1.1300 -0.7171
  255MOL0     C35087   9.113   2.087   5.566  0.5779 -0.4149  0.0872
  255MOL0     O35088   9.242   2.050   5.534  0.0122 -0.5357  0.1448
  255MOL0     C35089   9.282   2.116   5.407 -0.8213 -0.5262 -0.3858
  255MOL0     C35090   9.430   2.087   5.390  0.3226  0.5644  0.0767
  255MOL0     C35091   9.474   2.088   5.241  0.5131  0.5628 -0.0004
  255MOL0     C35092   9.621   2.055   5.234  0.6122 -0.4327  1.1010
  255MOL0     C35093   9.715   2.161   5.287 -0.4194 -0.2808  0.1651
  255MOL0     C35094   9.867   2.122   5.264  0.2710  0.5875  0.3194
  255MOL0     C35095   9.964   2.194   5.357  1.1066  0.5154 -0.4430
  255MOL0     C35096  10.103   2.153   5.342 -0.0897  0.0855 -0.4445
  255MOL0    Cl35097  10.162   2.205   5.182 -0.0233  0.3157  0.0961
  255MOL0     C35098   9.095   2.169   5.682 -0.4935 -0.1192  0.3637
  255MOL0     C35099   8.960   2.202   5.726 -0.8062  0.6630  0.1467
  255MOL0     O35100   8.589   2.145   5.526 -0.3377 -0.1097  0.2204
  255MOL0     C35101   8.512   2.198   5.867  0.8983  0.6953  0.1433
  255MOL0     C35102   8.402   2.217   5.947  0.3550 -0.2733  0.1186
  255MOL0     N35103   7.513   2.267   6.023  0.5506  0.9562 -0.7167
  255MOL0     N35104   7.387   2.268   6.047  0.9114  0.2223 -0.4375
  255MOL0     C35105   6.184   2.558   6.057 -0.7819 -0.3279 -0.3848
  255MOL0     C35106   6.081   2.638   6.016 -0.5458  0.2403  0.1078
  255MOL0     C35107   5.879   2.975   5.782 -0.5193 -0.0161 -0.1178
  255MOL0     C35108   5.809   2.916   5.671  0.5067  1.0219  0.5059
  255MOL0     C35109   5.730   2.993   5.586 -1.3325 -0.3135  0.5083
  255MOL0     C35110   5.720   3.134   5.603  0.1620 -0.1856  0.1705
  255MOL0     O35111   5.644   3.214   5.520 -0.4319 -0.3772  0.6807
  255MOL0     C35112   5.639   3.360   5.541 -0.8285 -0.2366 -0.3329
  255MOL0     C35113   5.755   3.425   5.467 -0.6014  0.2369 -0.1168
  255MOL0     C35114   5.771   3.570   5.503  0.3748  0.4986  0.5114
  255MOL0     C35115   5.893   3.621   5.424 -0.5545 -0.1582 -0.2634
  255MOL0     C35116   5.905   3.768   5.431 -0.1048  0.9849  0.6829
  255MOL0     C35117   5.921   3.886   5.430  0.1991 -0.4890  1.3232
  255MOL0     C35118   5.810   3.193   5.701  1.2023  0.3129 -0.6852
  255MOL0     C35119   5.875   3.119   5.796 -0.5865 -0.2177  0.0044
  255MOL0     C35120   5.967   3.198   5.892  1.2322  0.5547 -0.2764
  255MOL0     H35121   6.117   2.622   5.692  0.8268  0.6151  0.1712
  255MOL0     H35122   6.328   2.504   5.754  0.3186 -0.4792  1.3045
  255MOL0     H35123   6.553   2.582   5.976 -0.6607  1.5792  0.6448
  255MOL0     H35124   6.501   2.460   5.852  1.6504 -0.2861  0.0780
  255MOL0     H35125   6.576   2.280   5.983 -0.6468  0.7463 -0.9797
  255MOL0     H35126   6.718   2.387   5.966 -0.3820 -0.4929 -0.5501
  255MOL0     H35127   6.669   2.491   6.198 -1.2185  0.4999 -1.0397
  255MOL0     H35128   6.535   2.368   6.210 -2.4941  3.3017 -3.3233
  255MOL0     H35129   6.691   2.257   6.332  0.3278 -0.0427 -0.0972
  255MOL0     H35130   6.722   2.204   6.167 -2.1774 -0.5214  0.5686
  255MOL0     H35131   6.903   2.377   6.345 -0.5268 -1.4533  0.9915
  255MOL0     H35132   6.892   2.407   6.165 -0.7953 -0.4187  0.1533
  255MOL0     H35133   6.951   2.126   6.269  0.8624  0.5055  0.2710
  255MOL0     H35134   6.965   2.186   6.106  1.5142 -1.6940 -0.0227
  255MOL0     H35135   7.122   2.267   6.338  0.7849  1.6958 -0.0755
  255MOL0     H35136   7.137   2.345   6.179 -4.7103  0.3435  0.3799
  255MOL0     H35137   7.228   2.060   6.258  1.1458 -2.1545 -1.4697
  255MOL0     H35138   7.188   2.103   6.084 -2.3602  1.5478  1.2131
  255MOL0     H35139   7.489   2.079   6.301  1.5358 -0.1992  0.8064
  255MOL0     H35140   7.762   2.102   6.215  1.3241  1.2436  1.0451
  255MOL0     H35141   7.740   2.268   6.252 -1.4390  0.2993  1.0892
  255MOL0     H35142   7.776   2.151   5.978  1.7153  0.4337 -0.5616
  255MOL0     H35143   7.791   2.322   6.023  1.5595 -0.1999 -3.7458
  255MOL0     H35144   7.986   2.296   6.159 -4.1516  1.7683 -0.8813
  255MOL0     H35145   7.978   2.117   6.139  0.5412 -0.9296 -2.6495
  255MOL0     H35146   8.011   2.134   5.892  0.0877  0.8367 -1.1159
  255MOL0     H35147   8.001   2.311   5.900 -0.6714 -0.9006 -0.6461
  255MOL0     H35148   8.146   2.233   5.728 -0.7366  0.0414  3.4912
  255MOL0     H35149   8.212   2.241   5.508 -0.3389 -0.7012  2.1715
  255MOL0     H35150   8.324   2.112   5.480 -2.6765  1.4025 -2.4834
  255MOL0     H35151   8.381   2.275   5.462  0.7200 -1.1592 -1.2919
  255MOL0     H35152   8.806   2.025   5.479  0.2960  1.9058 -1.7332
  255MOL0     H35153   9.015   1.949   5.439 -1.7798 -4.7995  3.3714
  255MOL0     H35154   9.221   2.075   5.326 -0.8344  0.2189 -0.7625
  255MOL0     H35155   9.255   2.221   5.419  1.6123  0.1008  0.0548
  255MOL0     H35156   9.485   2.166   5.441 -0.5495  1.1683  0.1011
  255MOL0     H35157   9.441   1.991   5.441  1.9479  0.4797 -0.3711
  255MOL0     H35158   9.442   2.185   5.202  0.5017 -0.9118 -4.2839
  255MOL0     H35159   9.417   2.012   5.186  3.2113 -2.4956  1.1091
  255MOL0     H35160   9.645   2.022   5.133  0.8162 -0.5711  1.1934
  255MOL0     H35161   9.637   1.968   5.299 -4.0821 -0.0492  3.2060
  255MOL0     H35162   9.698   2.254   5.233  1.0874 -0.4752 -0.7022
  255MOL0     H35163   9.702   2.170   5.396  0.4058  0.5163  0.2063
  255MOL0     H35164   9.900   2.143   5.162  1.0461  0.0362  0.4509
  255MOL0     H35165   9.881   2.014   5.272 -0.0329  0.3249 -1.9737
  255MOL0     H35166   9.932   2.185   5.462 -1.4961 -4.8210 -1.3477
  255MOL0     H35167   9.961   2.297   5.322  1.8193  0.8300  0.3733
  255MOL0     H35168  10.096   2.045   5.356  0.2091  0.0511 -0.5539
  255MOL0     H35169  10.161   2.189   5.427 -0.7545 -2.0851  1.0088
  255MOL0     H35170   9.187   2.199   5.730  0.2168  1.0978 -1.6441
  255MOL0     H35171   8.951   2.267   5.812 -1.2412  0.6203  0.1357
  255MOL0     H35172   8.611   2.178   5.905  1.5061 -0.7441 -2.0369
  255MOL0     H35173   8.421   2.218   6.054  2.4801  1.0919 -0.2088
  255MOL0     H35174   6.183   2.537   6.163  0.7375  1.9530  0.1446
  255MOL0     H35175   6.000   2.661   6.085 -0.5387  0.4657  0.0395
  255MOL0     H35176   5.825   2.809   5.655 -2.0466  0.6559 -0.0956
  255MOL0     H35177   5.691   2.951   5.493  1.4628 -1.1111 -0.4068
  255MOL0     H35178   5.549   3.406   5.499 -0.4910 -0.6832 -1.6181
  255MOL0     H35179   5.640   3.374   5.649 -0.1125 -0.8288 -0.2517
  255MOL0     H35180   5.737   3.423   5.359 -0.2161  0.0768 -0.1791
  255MOL0     H35181   5.848   3.372   5.487 -0.9522 -0.4866 -0.3755
  255MOL0     H35182   5.680   3.627   5.487  0.8514  1.5774  1.4812
  255MOL0     H35183   5.789   3.583   5.610  2.1465  1.3985  0.1504
  255MOL0     H35184   5.877   3.599   5.318 -2.4748  1.3761 -0.3532
  255MOL0     H35185   5.993   3.583   5.449  0.5529  1.2352 -2.2165
  255MOL0     H35186   5.921   3.993   5.421  3.4278 -0.5098 -0.6528
  255MOL0     H35187   5.816   3.301   5.713 -1.8155  0.4978  0.0026
  255MOL0     H35188   5.952   3.167   5.996 -2.2478  0.6986 -0.6023
  255MOL0     H35189   6.071   3.191   5.860  1.0973 -0.8940 -0.4830
  255MOL0     H35190   5.942   3.304   5.882 -1.0776  0.1458  0.3844
  256MOL0     O35191   0.419   2.058   1.737 -0.5479 -0.5644 -0.1710
  256MOL0     C35192   0.369   2.148   1.802 -0.7083  0.3623  0.8682
  256MOL0     O35193   0.433   2.240   1.871 -0.2356  0.9695 -0.1180
  256MOL0     C35194   0.572   2.230   1.872  0.0927 -0.1844 -0.7182
  256MOL0     C35195   0.640   2.112   1.900 -0.1638  0.5233  0.1366
  256MOL0     C35196   0.777   2.106   1.888 -1.0359 -0.6237  0.1409
  256MOL0     C35197   0.851   2.221   1.857 -0.0643 -0.7375 -0.4748
  256MOL0     O35198   0.988   2.217   1.849  0.7446  0.0065  0.0371
  256MOL0     C35199   1.054   2.316   1.778  0.2427 -0.1357  0.3246
  256MOL0     C35200   1.193   2.274   1.741 -0.3784  0.0436 -0.7859
  256MOL0     C35201   1.219   2.132   1.702 -0.9182  0.0203 -0.1345
  256MOL0     C35202   1.372   2.114   1.673  0.3311 -0.1915  0.1084
  256MOL0     C35203   1.396   1.980   1.612  0.2688 -0.6748  0.0547
  256MOL0     C35204   1.543   1.935   1.619 -0.5420 -0.0667 -0.4827
  256MOL0     C35205   1.556   1.818   1.526  0.4420  0.2486  0.6789
  256MOL0     C35206   1.655   1.709   1.547  0.8494 -0.4800  0.7674
  256MOL0     N35207   1.783   1.774   1.553 -0.8565  0.3289 -0.0143
  256MOL0     C35208   1.852   1.793   1.665 -1.0995  1.5103  0.4943
  256MOL0     C35209   1.962   1.856   1.618 -0.1471  0.1880  0.3298
  256MOL0     C35210   2.087   1.884   1.696 -0.2948  0.9447 -0.3226
  256MOL0     C35211   2.213   1.804   1.662 -0.2081  0.5392 -0.1307
  256MOL0     C35212   2.261   1.825   1.517  0.0827  0.0296  0.4503
  256MOL0     C35213   2.414   1.807   1.524 -0.6608  0.4768 -0.3130
  256MOL0     O35214   2.482   1.918   1.585 -0.0182 -0.4608 -0.2682
  256MOL0     C35215   2.608   1.880   1.628  0.6738  0.8517 -0.0873
  256MOL0     C35216   2.638   1.770   1.714  0.7806 -0.9135  0.5104
  256MOL0     C35217   2.768   1.727   1.746  0.6976  0.0757  0.1514
  256MOL0     C35218   2.781   1.609   1.837  0.3486 -0.2953 -0.0315
  256MOL0     C35219   2.875   1.797   1.686 -0.0814  1.2369  0.1589
  256MOL0     C35220   3.017   1.767   1.716  0.4668  0.2060 -0.1113
  256MOL0     O35221   3.104   1.878   1.737  0.2386 -0.4660 -0.7058
  256MOL0     C35222   3.223   1.847   1.803 -0.0474  0.0256  0.2339
  256MOL0     C35223   3.230   1.814   1.942  0.8099 -0.5922  0.1835
  256MOL0     C35224   3.351   1.778   1.990  0.8687  0.2033  0.2701
  256MOL0     C35225   3.471   1.774   1.921 -0.1389 -0.1902  0.9269
  256MOL0     O35226   3.593   1.734   1.974 -0.3208  0.5419  0.1728
  256MOL0     C35227   3.586   1.678   2.109 -0.5192  0.7676  0.2542
  256MOL0     C35228   3.726   1.617   2.137 -0.2053  0.3149  0.2100
  256MOL0     C35229   3.738   1.538   2.268  1.0724  0.4277 -0.2817
  256MOL0     C35230   3.893   1.506   2.306 -0.7413  0.4287  0.1265
  256MOL0     C35231   3.902   1.406   2.426 -0.3464 -0.6815 -0.7380
  256MOL0     C35232   4.039   1.354   2.436 -0.3863  0.1330 -0.5915
  256MOL0     C35233   4.072   1.314   2.578  0.1744  0.4419 -0.0328
  256MOL0     C35234   4.202   1.226   2.584 -0.4808  0.6907  0.8471
  256MOL0    Cl35235   4.308   1.223   2.729  0.4088 -0.2520  0.1015
  256MOL0     C35236   3.464   1.805   1.787 -0.0497 -0.4472  0.3982
  256MOL0     C35237   3.340   1.838   1.727  0.5166  0.4469  0.0276
  256MOL0     O35238   3.055   1.656   1.702 -0.1059  0.6109  0.1171
  256MOL0     C35239   2.843   1.911   1.611 -0.2072 -0.1486 -0.4207
  256MOL0     C35240   2.712   1.950   1.574 -0.2215  0.3063  0.3574
  256MOL0     N35241   1.957   1.878   1.489 -0.8906  0.1861 -0.1720
  256MOL0     N35242   1.848   1.818   1.445  0.5302 -0.1194  0.4043
  256MOL0     C35243   0.788   2.341   1.843 -0.4636 -1.3293  0.0330
  256MOL0     C35244   0.645   2.346   1.863 -0.9538 -0.4701  0.2854
  256MOL0     C35245   0.222   2.173   1.804  0.3699  0.0936  0.4302
  256MOL0     C35246   0.169   2.292   1.869  0.1507  0.8911 -0.0890
  256MOL0     C35247   0.030   2.313   1.862  0.0660  0.3996 -0.1130
  256MOL0     C35248  -0.055   2.220   1.802 -0.2874 -0.8000 -0.5223
  256MOL0     O35249  -0.191   2.233   1.795  0.5956 -0.1098 -0.2155
  256MOL0     C35250  -0.250   2.348   1.716 -0.4005 -0.3855  0.4118
  256MOL0     C35251  -0.294   2.455   1.822  0.0906 -0.0425 -0.3970
  256MOL0     C35252  -0.419   2.434   1.897  0.1312 -0.2762 -0.0822
  256MOL0     C35253  -0.463   2.562   1.968  0.4330  0.3428 -0.6546
  256MOL0     C35254  -0.587   2.553   2.052 -0.1702  0.0254 -0.2778
  256MOL0     C35255  -0.693   2.536   2.115 -0.6760  0.0945 -0.4561
  256MOL0     C35256  -0.001   2.108   1.745 -0.2143 -0.7722 -0.6628
  256MOL0     C35257   0.138   2.082   1.744  0.6531 -0.0900  0.4934
  256MOL0     C35258   0.169   1.952   1.676 -0.4235 -0.2057 -0.3453
  256MOL0     H35259   0.578   2.029   1.932 -1.0988  2.3224  3.5404
  256MOL0     H35260   0.847   2.025   1.907 -0.3262 -1.1706 -3.9393
  256MOL0     H35261   1.059   2.411   1.832  1.6961  0.0998 -0.1762
  256MOL0     H35262   1.005   2.337   1.682 -0.3758 -1.0226  0.4308
  256MOL0     H35263   1.210   2.329   1.649  0.2223  1.1889 -0.0060
  256MOL0     H35264   1.253   2.301   1.828 -0.0218 -5.3290  1.0046
  256MOL0     H35265   1.187   2.062   1.780  0.2770  0.0958  0.4560
  256MOL0     H35266   1.164   2.109   1.610 -1.0562 -0.9052  0.1694
  256MOL0     H35267   1.416   2.194   1.613  0.5430  1.3763  2.2114
  256MOL0     H35268   1.439   2.112   1.759  0.7748 -0.0172 -0.2315
  256MOL0     H35269   1.365   1.982   1.507  1.4085 -0.2920 -0.2917
  256MOL0     H35270   1.354   1.897   1.670  0.7491 -1.9991 -1.3925
  256MOL0     H35271   1.618   2.010   1.591  0.4148 -0.3077  1.3026
  256MOL0     H35272   1.579   1.915   1.720 -1.5784  2.0005  0.3661
  256MOL0     H35273   1.589   1.856   1.429  0.3322 -3.7627 -1.0963
  256MOL0     H35274   1.460   1.768   1.514  0.0955  0.6250  1.7781
  256MOL0     H35275   1.627   1.653   1.636 -3.9883  0.5678  0.1413
  256MOL0     H35276   1.643   1.640   1.462  0.7669 -0.1300  0.4952
  256MOL0     H35277   1.838   1.736   1.756  2.7256 -0.6649 -0.0875
  256MOL0     H35278   2.077   1.868   1.804  2.6136 -1.5991 -0.2729
  256MOL0     H35279   2.100   1.992   1.684 -0.1995  0.7439 -2.2803
  256MOL0     H35280   2.290   1.836   1.733 -2.1822  1.1015  1.8379
  256MOL0     H35281   2.197   1.697   1.680  3.1956  0.1073  1.1175
  256MOL0     H35282   2.219   1.756   1.443  0.4900  0.6977 -0.4248
  256MOL0     H35283   2.241   1.927   1.485  0.7836  0.4820  1.4013
  256MOL0     H35284   2.447   1.709   1.562 -1.1672  0.0424 -0.9811
  256MOL0     H35285   2.456   1.799   1.424 -3.6930 -0.2217 -1.6440
  256MOL0     H35286   2.550   1.716   1.748 -1.1496  0.2039 -2.2841
  256MOL0     H35287   2.813   1.523   1.777 -0.7634 -0.8615  0.1634
  256MOL0     H35288   2.687   1.593   1.890 -0.0524  2.8411  0.4033
  256MOL0     H35289   2.862   1.623   1.910 -0.5931  1.5850  0.7328
  256MOL0     H35290   3.143   1.810   2.007  0.6403  2.5685  0.3217
  256MOL0     H35291   3.356   1.759   2.096 -0.7534 -1.2333  0.1340
  256MOL0     H35292   3.572   1.754   2.186 -0.5570  0.2015  0.8147
  256MOL0     H35293   3.520   1.591   2.116  1.2912 -0.5342  3.1472
  256MOL0     H35294   3.757   1.551   2.056  0.9070  3.2605 -1.9454
  256MOL0     H35295   3.802   1.695   2.140  0.4590 -0.0775 -3.1247
  256MOL0     H35296   3.683   1.444   2.254 -1.2589  1.4644  1.2694
  256MOL0     H35297   3.693   1.598   2.347 -1.2015 -1.1832 -0.2475
  256MOL0     H35298   3.946   1.595   2.342  1.2728 -1.7864  3.1503
  256MOL0     H35299   3.945   1.468   2.217  0.5261  0.3312  0.8756
  256MOL0     H35300   3.863   1.464   2.511 -1.1266 -1.9985 -0.1618
  256MOL0     H35301   3.833   1.324   2.405 -4.1994  1.5639  1.7465
  256MOL0     H35302   4.113   1.432   2.415 -1.4246  0.9230 -1.4635
  256MOL0     H35303   4.072   1.279   2.365  0.3054  1.3484 -1.5956
  256MOL0     H35304   3.997   1.254   2.631  1.4257 -0.1612  1.1113
  256MOL0     H35305   4.083   1.402   2.643  0.2067  0.6872 -0.3719
  256MOL0     H35306   4.274   1.267   2.512 -0.2365 -1.7927 -0.4303
  256MOL0     H35307   4.192   1.125   2.545  0.1511  0.5396  1.0610
  256MOL0     H35308   3.542   1.800   1.712 -1.3849 -0.9173 -1.0068
  256MOL0     H35309   3.333   1.858   1.620  0.9654  0.3271 -0.0259
  256MOL0     H35310   2.925   1.961   1.561 -1.0623  1.2336 -0.4989
  256MOL0     H35311   2.688   2.026   1.500  0.9678  1.0867  0.7522
  256MOL0     H35312   0.843   2.427   1.808  0.0601 -1.5191  0.3722
  256MOL0     H35313   0.588   2.437   1.846  1.5688  1.1009 -0.3609
  256MOL0     H35314   0.241   2.362   1.911 -0.2031  1.9668 -1.2099
  256MOL0     H35315  -0.006   2.405   1.906  0.5402  1.5808 -2.0457
  256MOL0     H35316  -0.179   2.381   1.640  0.5213  0.6484  1.6663
  256MOL0     H35317  -0.344   2.326   1.665 -0.4816  2.3472 -0.8023
  256MOL0     H35318  -0.309   2.551   1.771 -0.1718  2.4604  3.8922
  256MOL0     H35319  -0.206   2.469   1.886 -0.6573 -0.7748  0.8176
  256MOL0     H35320  -0.496   2.381   1.841  1.7139 -1.2509 -1.4251
  256MOL0     H35321  -0.393   2.366   1.978 -0.3006  2.3725  2.4634
  256MOL0     H35322  -0.481   2.642   1.895  0.6581  2.4036  1.4042
  256MOL0     H35323  -0.385   2.599   2.035 -0.6820  0.6948  0.4980
  256MOL0     H35324  -0.783   2.524   2.173  0.2201 -1.6288  0.6478
  256MOL0     H35325  -0.064   2.035   1.694  0.3152 -0.7603 -1.3610
  256MOL0     H35326   0.216   1.879   1.743  0.9134 -0.3317 -1.3854
  256MOL0     H35327   0.085   1.908   1.622 -0.4927  0.8756 -1.1601
  256MOL0     H35328   0.241   1.975   1.597 -0.1619 -2.7339 -0.9168
  257MOL0     O35329   1.557   6.953   2.232  0.9881 -0.3080 -0.7440
  257MOL0     C35330   1.597   6.844   2.232 -0.0592  0.7333  0.5949
  257MOL0     O35331   1.722   6.808   2.193 -0.2084  0.5307 -0.4129
  257MOL0     C35332   1.822   6.898   2.171  0.2845  0.1198  0.2545
  257MOL0     C35333   1.926   6.862   2.081  0.7617  0.1313 -0.4534
  257MOL0     C35334   2.024   6.959   2.051  0.6036 -0.6159  0.1578
  257MOL0     C35335   2.022   7.084   2.106 -0.3382 -0.5238  0.0733
  257MOL0     O35336   2.140   7.150   2.068  0.3017  0.4083  0.0386
  257MOL0     C35337   2.178   7.272   2.136 -0.2904 -0.2792  0.4807
  257MOL0     C35338   2.313   7.327   2.092 -0.4664  0.1096 -0.3839
  257MOL0     C35339   2.435   7.232   2.091  0.5710  0.1042  0.0738
  257MOL0     C35340   2.538   7.291   2.006 -0.4264 -0.3145 -0.1281
  257MOL0     C35341   2.671   7.215   2.022  0.3651 -0.3137 -0.1524
  257MOL0     C35342   2.777   7.254   1.928 -0.1497  0.1447  0.9334
  257MOL0     C35343   2.905   7.170   1.935  0.2321  0.3560 -0.6355
  257MOL0     C35344   2.997   7.209   2.049 -0.3526  0.2883 -0.4329
  257MOL0     N35345   3.108   7.113   2.052 -0.3033  0.2647 -0.5498
  257MOL0     C35346   3.215   7.097   1.972 -0.2173 -0.2272  0.4922
  257MOL0     C35347   3.289   7.001   2.028  0.1195  0.1514 -0.4841
  257MOL0     C35348   3.409   6.948   1.967 -0.3015  0.2646  0.0571
  257MOL0     C35349   3.373   6.821   1.890  0.2739 -0.6575  0.7067
  257MOL0     C35350   3.484   6.759   1.802  0.6969  0.1979  0.7649
  257MOL0     C35351   3.426   6.643   1.720 -0.3056  0.5926 -0.5097
  257MOL0     O35352   3.368   6.536   1.805  0.3070 -0.4185  0.4608
  257MOL0     C35353   3.253   6.467   1.776  0.0499  0.8858  0.2232
  257MOL0     C35354   3.154   6.491   1.673 -0.1845  0.5670 -0.5278
  257MOL0     C35355   3.035   6.426   1.660  0.3719  0.6020  0.2646
  257MOL0     C35356   2.953   6.467   1.533  0.1592  0.7978 -0.6157
  257MOL0     C35357   3.003   6.325   1.753 -0.4214  0.0685  0.0527
  257MOL0     C35358   2.868   6.254   1.763 -0.2631  0.0058  0.2222
  257MOL0     O35359   2.863   6.129   1.826 -0.1322 -0.1533 -0.4968
  257MOL0     C35360   2.747   6.062   1.855  0.8079 -0.5244  0.4874
  257MOL0     C35361   2.745   5.966   1.957  0.7678  0.3678  0.3069
  257MOL0     C35362   2.629   5.897   2.010  0.3837 -0.2840 -0.6383
  257MOL0     C35363   2.500   5.921   1.952 -0.3563 -0.1984  0.4185
  257MOL0     O35364   2.376   5.876   1.994  0.5245  0.1497 -0.1731
  257MOL0     C35365   2.369   5.840   2.130 -0.5705 -0.2262 -0.0147
  257MOL0     C35366   2.385   5.693   2.166  0.4152 -0.1384  0.4631
  257MOL0     C35367   2.296   5.601   2.084  0.4198 -0.3888 -0.3525
  257MOL0     C35368   2.309   5.454   2.125  0.6283 -0.2061 -0.0679
  257MOL0     C35369   2.204   5.372   2.053  0.8134 -0.5177 -0.0144
  257MOL0     C35370   2.222   5.221   2.072  0.4178 -0.9623  0.5501
  257MOL0     C35371   2.109   5.148   2.013  0.0276 -0.3755 -0.2060
  257MOL0     C35372   2.116   4.994   2.039  0.0618 -0.5834  0.6792
  257MOL0    Cl35373   1.958   4.915   2.008 -0.0305 -0.2093 -0.6172
  257MOL0     C35374   2.498   6.013   1.843 -0.1011 -0.4023 -0.7688
  257MOL0     C35375   2.612   6.083   1.802 -0.2446 -0.2743  0.0953
  257MOL0     O35376   2.773   6.317   1.716 -0.1551  1.1123 -0.6867
  257MOL0     C35377   3.094   6.294   1.855 -0.1746  0.1207  0.4079
  257MOL0     C35378   3.217   6.364   1.863 -0.1254  0.8696 -0.1409
  257MOL0     N35379   3.231   6.976   2.150  0.2300 -0.3745  0.6193
  257MOL0     N35380   3.122   7.036   2.164 -0.1120 -0.2919 -0.2479
  257MOL0     C35381   1.926   7.126   2.188 -0.1807  0.0167  0.3345
  257MOL0     C35382   1.826   7.035   2.223  0.3558 -0.1875  1.0735
  257MOL0     C35383   1.508   6.730   2.273  0.2955 -0.6057  0.3519
  257MOL0     C35384   1.552   6.594   2.243  1.0048 -0.1786  0.3538
  257MOL0     C35385   1.455   6.496   2.263 -0.5549  0.2321  0.1214
  257MOL0     C35386   1.338   6.512   2.337  0.4634  0.0764 -0.4183
  257MOL0     O35387   1.259   6.398   2.370  0.4024 -0.4127  0.5425
  257MOL0     C35388   1.166   6.426   2.473  0.3384 -0.1572 -0.3441
  257MOL0     C35389   1.106   6.298   2.527  0.5779  0.4440  0.3338
  257MOL0     C35390   0.987   6.321   2.626 -0.2282 -0.1772  0.8384
  257MOL0     C35391   1.001   6.235   2.754  0.8647 -0.0608 -0.3656
  257MOL0     C35392   0.891   6.264   2.846 -0.0884 -0.1790 -1.0717
  257MOL0     C35393   0.790   6.281   2.909  0.0825  0.3292  0.7951
  257MOL0     C35394   1.301   6.640   2.364 -0.5541  0.1716  0.2692
  257MOL0     C35395   1.384   6.749   2.339  0.5408 -0.0371  0.1430
  257MOL0     C35396   1.330   6.882   2.390 -0.4852 -0.3061 -0.3740
  257MOL0     H35397   1.938   6.762   2.041 -0.7020  0.6123 -2.2279
  257MOL0     H35398   2.111   6.919   2.000  1.3154 -0.8823  1.5391
  257MOL0     H35399   2.184   7.249   2.242 -1.4347 -0.2772  0.5551
  257MOL0     H35400   2.102   7.349   2.120  1.4279  0.8716 -3.5507
  257MOL0     H35401   2.288   7.359   1.990 -4.4568 -0.1435  0.3502
  257MOL0     H35402   2.334   7.410   2.160 -3.3205  0.3939  0.2782
  257MOL0     H35403   2.471   7.217   2.193  3.4685 -0.3829 -0.9278
  257MOL0     H35404   2.409   7.133   2.051  1.7706  0.1367 -0.8194
  257MOL0     H35405   2.509   7.298   1.901  2.9886  3.5291 -1.1022
  257MOL0     H35406   2.548   7.397   2.033 -1.6380 -0.0415 -0.7032
  257MOL0     H35407   2.640   7.112   2.004 -3.1071  0.8623 -1.9234
  257MOL0     H35408   2.705   7.229   2.125 -1.9415  4.1995  0.2471
  257MOL0     H35409   2.742   7.248   1.824  0.3256 -1.3942  0.8305
  257MOL0     H35410   2.799   7.359   1.945 -0.0203  0.3680 -0.4760
  257MOL0     H35411   2.955   7.190   1.840  0.4485  1.6038 -0.2746
  257MOL0     H35412   2.872   7.067   1.950 -1.7138  0.9519 -0.5558
  257MOL0     H35413   3.031   7.313   2.044 -2.9335  1.1541 -2.7824
  257MOL0     H35414   2.949   7.211   2.147  0.1577 -2.2615 -0.0597
  257MOL0     H35415   3.235   7.150   1.880  2.2490 -1.3006  0.3467
  257MOL0     H35416   3.490   6.911   2.031  0.6581 -1.8215 -2.2496
  257MOL0     H35417   3.457   7.022   1.902  1.7834 -0.1281  1.0553
  257MOL0     H35418   3.336   6.752   1.966 -2.0984  0.3147  0.5420
  257MOL0     H35419   3.281   6.841   1.833 -0.3164 -0.2839  1.7593
  257MOL0     H35420   3.508   6.837   1.730 -0.4210 -2.0206 -2.2239
  257MOL0     H35421   3.564   6.718   1.864  0.5858  1.4690  1.7924
  257MOL0     H35422   3.369   6.676   1.631  1.7686 -0.5161 -2.3379
  257MOL0     H35423   3.505   6.590   1.666 -0.3726 -1.5716  1.4091
  257MOL0     H35424   3.175   6.568   1.599 -0.8774  1.8531  0.5687
  257MOL0     H35425   2.852   6.502   1.557 -0.6538 -1.5715 -0.3251
  257MOL0     H35426   2.930   6.381   1.470  0.4037  0.7520 -0.6428
  257MOL0     H35427   3.004   6.543   1.473 -1.6203  2.1443 -0.4812
  257MOL0     H35428   2.841   5.946   2.003  0.2906 -1.4565  0.5597
  257MOL0     H35429   2.632   5.823   2.090  0.7207 -0.1720 -0.5469
  257MOL0     H35430   2.445   5.895   2.185 -0.0675  2.4091 -3.0293
  257MOL0     H35431   2.282   5.884   2.179  1.0378  0.8091  2.0383
  257MOL0     H35432   2.490   5.662   2.164  1.0576  1.8880  0.3731
  257MOL0     H35433   2.355   5.680   2.270  2.5301 -0.6349  1.0568
  257MOL0     H35434   2.329   5.609   1.980  0.7328 -2.4381 -0.4540
  257MOL0     H35435   2.190   5.625   2.096  0.6173 -0.5987  2.6311
  257MOL0     H35436   2.297   5.443   2.233 -0.1071  2.0771  0.1355
  257MOL0     H35437   2.403   5.415   2.084 -1.2152 -1.5938 -3.3086
  257MOL0     H35438   2.108   5.409   2.089  0.5477 -0.8510 -0.3656
  257MOL0     H35439   2.202   5.389   1.945 -0.1779  5.7108  0.6562
  257MOL0     H35440   2.233   5.204   2.180 -2.1588 -0.1010  1.0197
  257MOL0     H35441   2.312   5.201   2.013 -0.8392  0.6405 -2.0735
  257MOL0     H35442   2.091   5.180   1.910  0.2697 -0.2913 -0.2219
  257MOL0     H35443   2.022   5.183   2.071 -0.6052 -0.0797 -1.3044
  257MOL0     H35444   2.134   4.994   2.147  1.6313 -1.1883  0.4296
  257MOL0     H35445   2.192   4.960   1.969 -2.0252  0.1249 -2.1082
  257MOL0     H35446   2.410   6.045   1.788  1.8815 -0.4085 -4.2182
  257MOL0     H35447   2.597   6.168   1.735  1.3495 -0.5435 -0.6582
  257MOL0     H35448   3.066   6.222   1.932  0.2536 -0.7725 -0.2460
  257MOL0     H35449   3.286   6.331   1.940 -0.1871 -1.0971 -0.8626
  257MOL0     H35450   1.931   7.228   2.224 -0.4840  0.6364 -1.2917
  257MOL0     H35451   1.756   7.078   2.294 -1.3634 -0.8595 -0.1421
  257MOL0     H35452   1.640   6.576   2.183 -1.5194 -3.2544 -2.7941
  257MOL0     H35453   1.484   6.396   2.231 -1.6033  0.1163 -0.5412
  257MOL0     H35454   1.204   6.486   2.556 -0.1394 -0.2113 -0.0820
  257MOL0     H35455   1.075   6.473   2.434  2.3002  2.4084 -2.2160
  257MOL0     H35456   1.184   6.237   2.574  1.2296  0.9739 -0.0329
  257MOL0     H35457   1.068   6.238   2.444 -1.5319  0.9987  0.8363
  257MOL0     H35458   0.984   6.427   2.650  1.6220 -0.0394  0.6438
  257MOL0     H35459   0.887   6.302   2.586 -0.6411 -1.6636  2.4408
  257MOL0     H35460   1.089   6.268   2.811  0.9850 -1.1644  0.0988
  257MOL0     H35461   1.029   6.133   2.727  0.5283 -0.3907  0.4734
  257MOL0     H35462   0.705   6.309   2.968 -0.4168  0.0934  0.1885
  257MOL0     H35463   1.209   6.672   2.410 -0.4565  0.8240  0.0269
  257MOL0     H35464   1.263   6.940   2.326 -0.3762 -0.6860 -0.8415
  257MOL0     H35465   1.272   6.862   2.481  0.5722  1.2813  0.6973
  257MOL0     H35466   1.410   6.944   2.431 -1.4782  1.0301 -0.4163
  258MOL0     O35467   4.207   1.853  10.462  0.1979 -1.0956 -0.3646
  258MOL0     C35468   4.189   1.792  10.574  0.0507 -0.9038 -0.7354
  258MOL0     O35469   4.274   1.692  10.624 -0.2121  0.3381 -0.2666
  258MOL0     C35470   4.363   1.632  10.536 -0.3639 -0.0203  0.4631
  258MOL0     C35471   4.347   1.497  10.494  0.7643 -0.1708 -0.2665
  258MOL0     C35472   4.429   1.435  10.403  0.2717  0.2739  0.1787
  258MOL0     C35473   4.539   1.500  10.346 -0.5357 -0.9888  0.1625
  258MOL0     O35474   4.615   1.425  10.258  0.0873 -0.5634 -0.1503
  258MOL0     C35475   4.721   1.500  10.193 -0.2053  0.4437  0.2284
  258MOL0     C35476   4.803   1.414  10.095  0.6618 -0.1380 -0.3689
  258MOL0     C35477   4.899   1.498  10.011  0.4048  0.4658  0.9106
  258MOL0     C35478   4.837   1.581   9.899  0.2260 -0.1007 -0.2883
  258MOL0     C35479   4.943   1.672   9.822  0.2269 -0.5593 -0.3944
  258MOL0     C35480   5.036   1.596   9.729 -0.0033  0.5564  0.1269
  258MOL0     C35481   5.126   1.690   9.657  0.1134 -0.3959  0.2732
  258MOL0     C35482   5.206   1.611   9.554  0.9755  0.6049 -0.5997
  258MOL0     N35483   5.326   1.684   9.520  0.2155 -0.0088  0.3290
  258MOL0     C35484   5.329   1.815   9.469 -0.4754  0.2286 -0.4717
  258MOL0     C35485   5.457   1.832   9.418  0.5182 -0.1746  0.3922
  258MOL0     C35486   5.499   1.946   9.334 -0.3608  0.3806 -0.6834
  258MOL0     C35487   5.463   2.085   9.404 -0.6578  0.0755 -0.2534
  258MOL0     C35488   5.520   2.204   9.324  0.3758  0.3053 -0.2369
  258MOL0     C35489   5.666   2.217   9.300  0.2154 -0.1919 -0.5773
  258MOL0     O35490   5.699   2.272   9.176  0.0486  0.2407  0.2120
  258MOL0     C35491   5.797   2.361   9.147 -1.0664  0.7509 -0.3565
  258MOL0     C35492   5.783   2.433   9.029 -0.1739  0.4700 -0.7544
  258MOL0     C35493   5.872   2.529   8.988  0.1655 -0.0005  0.5355
  258MOL0     C35494   5.841   2.614   8.863 -0.3058  0.3820  0.3161
  258MOL0     C35495   5.993   2.553   9.073 -0.5572 -1.2072  0.0470
  258MOL0     C35496   6.100   2.659   9.056  0.6248  0.0940  0.1809
  258MOL0     O35497   6.154   2.711   9.177 -0.4511 -0.2162  0.1422
  258MOL0     C35498   6.265   2.795   9.174  0.1363 -0.2626  0.1717
  258MOL0     C35499   6.392   2.765   9.241  0.5041  1.0319 -0.0185
  258MOL0     C35500   6.508   2.850   9.232  0.2802 -0.2268  0.0065
  258MOL0     C35501   6.504   2.964   9.148  0.0091  0.1942 -0.5489
  258MOL0     O35502   6.604   3.049   9.133  0.2219 -0.1655 -0.3547
  258MOL0     C35503   6.733   3.000   9.095 -0.8642  0.1598 -0.0512
  258MOL0     C35504   6.831   3.120   9.074  0.3344 -0.7375 -0.3855
  258MOL0     C35505   6.963   3.080   9.006 -0.7369 -0.0634 -1.2397
  258MOL0     C35506   7.062   3.194   9.017  0.1693 -0.4716 -0.2889
  258MOL0     C35507   7.187   3.158   8.943 -0.0770  0.2254 -0.7030
  258MOL0     C35508   7.300   3.255   8.969 -0.4687 -0.4420  0.9751
  258MOL0     C35509   7.443   3.198   8.944  0.1308  0.4036 -0.8947
  258MOL0     C35510   7.555   3.290   8.981 -0.4742 -0.5488 -0.1208
  258MOL0    Cl35511   7.558   3.440   8.879  0.3309  0.1281 -0.1765
  258MOL0     C35512   6.387   2.989   9.074 -0.2852 -0.3497  0.0543
  258MOL0     C35513   6.269   2.903   9.092 -0.4779  0.5060  0.0327
  258MOL0     O35514   6.141   2.683   8.942  0.0036  0.4681  0.0524
  258MOL0     C35515   5.998   2.480   9.188  0.3553  0.0214 -0.4474
  258MOL0     C35516   5.904   2.378   9.227  0.4980 -0.3588 -0.0005
  258MOL0     N35517   5.518   1.711   9.435  0.5109 -0.4896 -0.1110
  258MOL0     N35518   5.446   1.631   9.504  0.8264  0.1584 -0.0308
  258MOL0     C35519   4.559   1.631  10.389  0.8096 -0.3591 -0.0079
  258MOL0     C35520   4.471   1.700  10.477 -0.1122 -0.1072  0.4497
  258MOL0     C35521   4.074   1.839  10.665 -0.0398  0.2811  0.0058
  258MOL0     C35522   3.993   1.942  10.623 -0.3614 -0.4044 -0.1313
  258MOL0     C35523   3.882   1.983  10.696  0.1887 -0.2749  0.1594
  258MOL0     C35524   3.851   1.917  10.819 -0.0984 -0.5151  0.9927
  258MOL0     O35525   3.744   1.934  10.896 -0.2077 -0.4357  0.0540
  258MOL0     C35526   3.636   2.002  10.839 -0.1087 -0.4094 -0.4696
  258MOL0     C35527   3.501   2.000  10.919  0.1688 -0.5084  0.5865
  258MOL0     C35528   3.515   2.068  11.058 -0.0999  0.6967  0.1057
  258MOL0     C35529   3.398   2.040  11.156 -0.5046 -0.0288  0.1681
  258MOL0     C35530   3.272   2.081  11.105  0.1593  0.9466 -0.4486
  258MOL0     C35531   3.173   2.126  11.063 -0.2474 -0.1909  0.6403
  258MOL0     C35532   3.937   1.821  10.866  0.2976 -0.3543  0.8443
  258MOL0     C35533   4.048   1.778  10.795  0.1207  0.1457 -0.3023
  258MOL0     C35534   4.121   1.656  10.857 -0.0711 -0.0489  0.1149
  258MOL0     H35535   4.254   1.453  10.531 -1.5083  5.4917  1.8249
  258MOL0     H35536   4.389   1.340  10.372 -3.4428  1.3691  1.1876
  258MOL0     H35537   4.791   1.553  10.258  0.1464 -0.2100  0.3931
  258MOL0     H35538   4.676   1.576  10.128  1.6933 -0.7259 -2.6488
  258MOL0     H35539   4.860   1.342  10.154 -0.9102 -1.1628 -0.0391
  258MOL0     H35540   4.740   1.358  10.026  0.4681 -0.3684 -0.0073
  258MOL0     H35541   4.953   1.572  10.072 -3.1991  2.9320  1.4050
  258MOL0     H35542   4.961   1.426   9.958 -0.6684  0.1303  0.0883
  258MOL0     H35543   4.784   1.518   9.826  0.1182 -1.3612  0.8515
  258MOL0     H35544   4.766   1.646   9.951  0.8376  2.0370 -1.9770
  258MOL0     H35545   4.993   1.735   9.896 -2.0265  0.9381 -0.0556
  258MOL0     H35546   4.886   1.731   9.749 -3.2982 -3.1585 -0.0166
  258MOL0     H35547   5.096   1.534   9.796  0.0853 -2.1329 -2.2698
  258MOL0     H35548   4.978   1.533   9.661 -1.9839  2.4972 -0.0952
  258MOL0     H35549   5.196   1.740   9.725  2.0635 -1.1358 -1.0883
  258MOL0     H35550   5.072   1.765   9.598  1.4137  1.0431  0.8243
  258MOL0     H35551   5.223   1.511   9.594  0.0170  0.5531 -0.2937
  258MOL0     H35552   5.146   1.610   9.463 -0.6646  0.1656  0.4517
  258MOL0     H35553   5.253   1.892   9.480 -1.3469 -0.7679  0.7610
  258MOL0     H35554   5.439   1.952   9.243 -3.3286  2.2599  1.2325
  258MOL0     H35555   5.606   1.933   9.311 -0.2798  1.7240 -1.1530
  258MOL0     H35556   5.355   2.102   9.408 -0.3873  1.8396  1.5025
  258MOL0     H35557   5.508   2.102   9.502  0.9577  1.6025 -1.2005
  258MOL0     H35558   5.460   2.209   9.233  0.5233  2.0694 -0.2712
  258MOL0     H35559   5.499   2.296   9.380  0.2533 -0.6297  1.2909
  258MOL0     H35560   5.711   2.275   9.381 -1.3818  0.5990 -0.2274
  258MOL0     H35561   5.721   2.123   9.312 -0.2348 -0.1968  2.0667
  258MOL0     H35562   5.699   2.413   8.964  1.6376 -2.5548 -2.3810
  258MOL0     H35563   5.751   2.674   8.881 -0.1584  0.5843  0.3736
  258MOL0     H35564   5.820   2.545   8.781 -0.9515 -1.5970  2.0493
  258MOL0     H35565   5.926   2.674   8.829 -0.3476 -0.4777 -1.4118
  258MOL0     H35566   6.389   2.679   9.308  2.2482  0.8274 -0.1624
  258MOL0     H35567   6.586   2.825   9.304  0.9638  2.3372  0.2514
  258MOL0     H35568   6.781   2.934   9.168 -1.0024 -1.4134 -1.3241
  258MOL0     H35569   6.724   2.945   9.000 -0.1528  0.6463 -0.4069
  258MOL0     H35570   6.784   3.194   9.009 -0.3114 -0.8162 -0.0209
  258MOL0     H35571   6.848   3.165   9.172 -0.2176 -1.7306  0.1815
  258MOL0     H35572   6.941   3.054   8.902  0.3298  0.6285 -1.6576
  258MOL0     H35573   7.006   3.002   9.069 -1.3389  1.1163  0.7022
  258MOL0     H35574   7.081   3.214   9.123 -0.4315 -2.6539  0.2904
  258MOL0     H35575   7.010   3.279   8.972 -0.8636 -0.9267  0.0127
  258MOL0     H35576   7.215   3.053   8.954  1.3244  0.2867 -3.0226
  258MOL0     H35577   7.154   3.166   8.839 -0.2201  1.6996 -0.5600
  258MOL0     H35578   7.294   3.285   9.074 -1.0129 -1.2025  1.1651
  258MOL0     H35579   7.287   3.338   8.899 -0.4528 -2.9026 -2.1402
  258MOL0     H35580   7.454   3.168   8.839  5.1895 -2.1521  0.0280
  258MOL0     H35581   7.441   3.103   8.997 -2.5382  1.1329  0.4649
  258MOL0     H35582   7.652   3.240   8.972 -0.5530 -0.6253 -0.5487
  258MOL0     H35583   7.551   3.320   9.086  0.4025 -1.7693  0.2940
  258MOL0     H35584   6.389   3.072   9.005  0.9747 -0.7505 -0.4141
  258MOL0     H35585   6.189   2.920   9.021  1.1249 -0.5332 -2.1567
  258MOL0     H35586   6.075   2.508   9.259  0.8140 -1.1835 -0.4472
  258MOL0     H35587   5.907   2.314   9.315 -0.7650 -0.5830 -0.1075
  258MOL0     H35588   4.649   1.682  10.357  0.5575  0.6535  0.8508
  258MOL0     H35589   4.514   1.791  10.518  2.3386 -0.9583 -0.0295
  258MOL0     H35590   4.014   1.991  10.528 -3.4102  1.3524 -0.0149
  258MOL0     H35591   3.819   2.055  10.646  1.0971  0.8114  0.5576
  258MOL0     H35592   3.653   2.110  10.845  0.0333 -0.4908  1.3931
  258MOL0     H35593   3.610   1.985  10.734 -1.1105  2.9195 -0.8835
  258MOL0     H35594   3.485   1.893  10.939  3.6632 -1.1668  0.4880
  258MOL0     H35595   3.428   2.049  10.854  2.4201  1.4162 -0.6444
  258MOL0     H35596   3.606   2.034  11.107  0.4223  0.2048 -1.1630
  258MOL0     H35597   3.527   2.176  11.050  0.3751  0.7899  1.6470
  258MOL0     H35598   3.417   2.095  11.248 -4.9354 -1.3885  2.1276
  258MOL0     H35599   3.397   1.931  11.166  5.4013 -0.3603  0.9248
  258MOL0     H35600   3.094   2.189  11.026  1.9591  1.6309 -1.3680
  258MOL0     H35601   3.905   1.769  10.955 -1.1341  1.5473  1.5018
  258MOL0     H35602   4.224   1.669  10.891 -0.1807 -2.0311  1.4236
  258MOL0     H35603   4.067   1.612  10.941  2.7734 -0.6459  1.7706
  258MOL0     H35604   4.124   1.572  10.786 -0.0475 -1.2093  1.4348
  259MOL0     O35605   6.497   6.550   2.462 -0.5984  0.6767  0.1591
  259MOL0     C35606   6.516   6.507   2.347 -0.4521  0.3302 -0.5586
  259MOL0     O35607   6.437   6.528   2.244  0.2224  0.0315 -0.1442
  259MOL0     C35608   6.316   6.592   2.259  0.4087 -0.3304 -0.1671
  259MOL0     C35609   6.215   6.531   2.193 -0.3552 -0.4729 -0.4559
  259MOL0     C35610   6.089   6.585   2.205 -0.9471 -0.2800  0.5622
  259MOL0     C35611   6.064   6.697   2.276 -0.5605 -0.6279  0.4826
  259MOL0     O35612   5.942   6.755   2.292  0.2980 -0.0843  0.1168
  259MOL0     C35613   5.834   6.732   2.197 -0.6806  0.0370 -0.2385
  259MOL0     C35614   5.714   6.799   2.243  0.9933 -0.0192 -0.1889
  259MOL0     C35615   5.708   6.947   2.275  0.6060  0.4526 -0.2332
  259MOL0     C35616   5.567   7.006   2.318  0.7362 -0.4105 -0.0442
  259MOL0     C35617   5.566   7.148   2.377 -0.3895 -0.0447  0.3590
  259MOL0     C35618   5.567   7.257   2.273  0.1190 -0.3770  0.0030
  259MOL0     C35619   5.603   7.384   2.346 -1.5965  0.6634  0.6114
  259MOL0     C35620   5.605   7.491   2.239  0.1960  0.1017  0.1053
  259MOL0     N35621   5.668   7.617   2.284  0.4300 -0.2696 -0.4513
  259MOL0     C35622   5.794   7.668   2.240 -0.9895 -0.4841  1.0678
  259MOL0     C35623   5.789   7.801   2.272  0.4297 -0.1749  0.0903
  259MOL0     C35624   5.891   7.904   2.247 -0.0770  0.7233 -0.5782
  259MOL0     C35625   6.031   7.848   2.282 -0.1569 -0.1731  0.0933
  259MOL0     C35626   6.049   7.813   2.434  0.5683 -0.4231 -0.1573
  259MOL0     C35627   6.032   7.929   2.530 -0.2065  1.0682  0.4549
  259MOL0     O35628   6.082   7.890   2.658 -0.6438  0.2465  0.6353
  259MOL0     C35629   6.113   7.996   2.743  0.8423  0.8773 -0.2837
  259MOL0     C35630   6.022   8.083   2.797 -0.4555  0.2538 -0.3657
  259MOL0     C35631   6.061   8.200   2.873 -0.0762  0.6746 -0.0975
  259MOL0     C35632   5.953   8.302   2.913  0.3923  0.6832  0.1257
  259MOL0     C35633   6.202   8.218   2.897 -0.3925  0.5790  0.8144
  259MOL0     C35634   6.251   8.332   2.977  0.5952 -0.3489  0.5007
  259MOL0     O35635   6.383   8.353   2.971  0.1297  0.3579  0.3672
  259MOL0     C35636   6.440   8.482   2.997  0.8468  0.7840 -0.0019
  259MOL0     C35637   6.363   8.605   2.990 -0.2208  0.4100 -0.5153
  259MOL0     C35638   6.430   8.726   3.012  0.2759  0.5092 -0.2056
  259MOL0     C35639   6.574   8.725   3.037 -0.7281  0.3922 -0.1490
  259MOL0     O35640   6.639   8.845   3.051  0.3950  0.0975 -0.5948
  259MOL0     C35641   6.683   8.916   2.934 -0.5334 -0.0034  1.0699
  259MOL0     C35642   6.829   8.889   2.904 -0.5919 -0.7411  0.2586
  259MOL0     C35643   6.905   9.019   2.869  0.0125  0.0882 -1.2445
  259MOL0     C35644   7.050   9.001   2.835 -0.6141  0.0148  0.8141
  259MOL0     C35645   7.099   9.125   2.764 -0.4294  0.6024 -0.3941
  259MOL0     C35646   7.239   9.105   2.711  0.0151 -0.2846  0.2365
  259MOL0     C35647   7.296   9.245   2.678 -0.4668 -0.4295  0.4029
  259MOL0     C35648   7.413   9.242   2.576 -0.2241  0.5466  0.2443
  259MOL0    Cl35649   7.460   9.400   2.505  0.3037  0.3366  0.1557
  259MOL0     C35650   6.641   8.609   3.057 -0.1938 -0.7195  0.0525
  259MOL0     C35651   6.577   8.484   3.031  0.6363  0.4167  0.3617
  259MOL0     O35652   6.180   8.402   3.045  0.0053 -0.0976  0.6452
  259MOL0     C35653   6.291   8.120   2.848  0.3975  0.4686 -1.0006
  259MOL0     C35654   6.243   8.017   2.780  0.2212  0.2392 -0.4847
  259MOL0     N35655   5.670   7.820   2.345  0.4315 -0.4407 -0.7470
  259MOL0     N35656   5.596   7.713   2.349 -0.3435  0.5830 -0.1648
  259MOL0     C35657   6.168   6.760   2.349  0.1216 -0.0187  0.1248
  259MOL0     C35658   6.294   6.707   2.342  0.1695  0.4409  0.9720
  259MOL0     C35659   6.646   6.448   2.325 -0.1761  1.0684  0.0718
  259MOL0     C35660   6.688   6.430   2.190  0.1838 -0.2190 -0.8132
  259MOL0     C35661   6.815   6.385   2.160 -0.3143 -1.2100 -0.5928
  259MOL0     C35662   6.908   6.347   2.258  0.3900  0.2444  0.1904
  259MOL0     O35663   7.039   6.306   2.240  0.0689 -0.1370 -0.4789
  259MOL0     C35664   7.066   6.223   2.126  0.0217 -0.1930 -0.1875
  259MOL0     C35665   7.177   6.128   2.176 -0.9012 -0.5706  0.0999
  259MOL0     C35666   7.204   6.033   2.056  0.2710 -0.3031 -0.1331
  259MOL0     C35667   7.314   5.924   2.066 -0.4571  0.8033 -0.5345
  259MOL0     C35668   7.448   5.990   2.076 -0.7331  0.5330 -0.0698
  259MOL0     C35669   7.559   6.037   2.094 -0.0459 -0.3379 -0.1238
  259MOL0     C35670   6.866   6.352   2.386  0.1125  0.1973  0.3320
  259MOL0     C35671   6.745   6.402   2.422 -0.1151  0.4817 -0.6338
  259MOL0     C35672   6.722   6.392   2.571 -0.7556  0.4339  0.1221
  259MOL0     H35673   6.240   6.439   2.140  1.3201  0.1085 -0.7298
  259MOL0     H35674   6.015   6.537   2.142 -0.9446  1.8064 -1.1444
  259MOL0     H35675   5.803   6.628   2.202  0.8892 -0.3845  2.7782
  259MOL0     H35676   5.860   6.771   2.098  1.7211  1.3247  0.8083
  259MOL0     H35677   5.640   6.777   2.166  0.7442 -0.4479  0.1649
  259MOL0     H35678   5.674   6.748   2.331  0.5720  4.9976  2.9412
  259MOL0     H35679   5.785   6.967   2.349 -1.4786  0.7418  2.0033
  259MOL0     H35680   5.739   6.999   2.184 -1.9340 -0.8457 -1.9717
  259MOL0     H35681   5.493   6.998   2.238  1.0726  2.1204 -0.6966
  259MOL0     H35682   5.542   6.940   2.403  0.5152  0.7383  0.8048
  259MOL0     H35683   5.663   7.169   2.424 -1.2514  2.1429  1.2553
  259MOL0     H35684   5.488   7.169   2.451 -1.8011 -1.0931 -0.7774
  259MOL0     H35685   5.641   7.226   2.199  1.5150  0.7491  0.8804
  259MOL0     H35686   5.470   7.262   2.222 -0.5440  1.5751  1.3301
  259MOL0     H35687   5.702   7.385   2.392 -1.6180  0.6551  0.6584
  259MOL0     H35688   5.534   7.399   2.430 -0.4809 -1.1903  1.9331
  259MOL0     H35689   5.660   7.450   2.153 -1.4846  1.4067 -1.6857
  259MOL0     H35690   5.506   7.511   2.197  1.0211 -0.3644 -2.2267
  259MOL0     H35691   5.878   7.617   2.193  2.3357  3.2936  2.3762
  259MOL0     H35692   5.872   7.998   2.301 -1.3435 -0.1309  0.5180
  259MOL0     H35693   5.894   7.916   2.139 -2.0128 -1.2545 -0.8983
  259MOL0     H35694   6.055   7.756   2.228  1.9131 -0.0222  0.6791
  259MOL0     H35695   6.103   7.924   2.250 -2.9073  1.5868 -2.4286
  259MOL0     H35696   5.976   7.738   2.465  0.2148  0.7559  2.0483
  259MOL0     H35697   6.148   7.769   2.444  0.1174 -1.3332  0.5116
  259MOL0     H35698   6.098   8.009   2.495  0.7090 -0.4048 -1.3413
  259MOL0     H35699   5.928   7.960   2.530 -0.8504 -0.9291  0.5223
  259MOL0     H35700   5.919   8.064   2.768  0.0748 -2.8925 -0.4846
  259MOL0     H35701   5.934   8.303   3.021 -1.3798  1.2191 -0.1707
  259MOL0     H35702   5.858   8.275   2.866  1.3236  0.8006 -1.9193
  259MOL0     H35703   5.964   8.403   2.874  0.6318  1.0124  1.0230
  259MOL0     H35704   6.257   8.597   2.967 -0.4543 -0.0220  0.6415
  259MOL0     H35705   6.376   8.819   3.001  1.6196  1.1711 -1.5076
  259MOL0     H35706   6.620   8.899   2.846  0.5289  4.1564 -0.7544
  259MOL0     H35707   6.675   9.022   2.962  0.1318  0.5751 -0.8020
  259MOL0     H35708   6.882   8.840   2.986 -0.4174 -0.7707  0.1285
  259MOL0     H35709   6.838   8.814   2.825 -0.5942 -0.8069  0.3201
  259MOL0     H35710   6.896   9.106   2.935  1.6536  0.3564 -1.3207
  259MOL0     H35711   6.855   9.067   2.784 -3.6030  1.8021  1.5502
  259MOL0     H35712   7.054   8.912   2.771  0.5105  0.1288  0.7106
  259MOL0     H35713   7.105   8.974   2.925  0.8707 -0.3148 -0.1577
  259MOL0     H35714   7.032   9.163   2.687 -0.9321 -1.6202 -1.1253
  259MOL0     H35715   7.103   9.195   2.848 -1.6183  0.9049 -0.5760
  259MOL0     H35716   7.231   9.037   2.625  0.2278 -1.1383  0.8792
  259MOL0     H35717   7.301   9.060   2.790 -0.7632  0.9195  1.5683
  259MOL0     H35718   7.341   9.292   2.766  1.8161 -1.2275 -0.2785
  259MOL0     H35719   7.231   9.326   2.644  1.5314  0.4614 -1.5507
  259MOL0     H35720   7.377   9.185   2.489 -1.6075 -0.6444  1.5406
  259MOL0     H35721   7.507   9.205   2.616 -0.1079 -0.0084 -0.5056
  259MOL0     H35722   6.746   8.626   3.081 -0.8834 -0.7535  3.6244
  259MOL0     H35723   6.644   8.400   3.046 -1.8410 -1.7726 -0.2047
  259MOL0     H35724   6.395   8.131   2.878 -0.7747  3.1770  2.9371
  259MOL0     H35725   6.313   7.939   2.754  0.5681  0.6220 -0.7181
  259MOL0     H35726   6.153   6.854   2.400  0.7085 -0.5994  1.3983
  259MOL0     H35727   6.376   6.759   2.391 -1.3225  1.4142  2.5726
  259MOL0     H35728   6.625   6.457   2.106 -0.1843 -2.9557 -1.5342
  259MOL0     H35729   6.849   6.398   2.057  1.7403 -2.3855 -0.1133
  259MOL0     H35730   6.976   6.171   2.093 -0.4860 -0.3051  1.3143
  259MOL0     H35731   7.105   6.287   2.046  2.4687 -2.6952 -1.1879
  259MOL0     H35732   7.148   6.069   2.263  1.0837  0.0577  1.2465
  259MOL0     H35733   7.266   6.189   2.193 -1.3778 -0.1160  1.0397
  259MOL0     H35734   7.108   5.983   2.043  0.6851 -1.2918  0.5173
  259MOL0     H35735   7.223   6.084   1.961  1.6768 -0.4982  0.0168
  259MOL0     H35736   7.309   5.850   1.986 -1.4099 -1.3250  1.3620
  259MOL0     H35737   7.306   5.863   2.157  0.6655  0.9006 -0.3610
  259MOL0     H35738   7.653   6.084   2.112 -0.8342  1.3351 -0.1595
  259MOL0     H35739   6.943   6.324   2.458 -0.8159 -1.5549  0.7110
  259MOL0     H35740   6.792   6.321   2.617 -1.9110 -1.2002 -0.5625
  259MOL0     H35741   6.738   6.491   2.615 -0.9672  0.9491 -0.9469
  259MOL0     H35742   6.620   6.356   2.585 -0.5822  0.4178  1.4900
  260MOL0     O35743   5.006   9.897   6.189 -0.2021 -0.0632 -0.3591
  260MOL0     C35744   4.914   9.883   6.271  0.7992 -0.7337  0.5183
  260MOL0     O35745   4.936   9.880   6.407 -0.7267 -0.0649 -0.8789
  260MOL0     C35746   5.062   9.915   6.438  0.6591 -0.1742 -1.1303
  260MOL0     C35747   5.081  10.047   6.456  0.0119  0.2557 -0.1955
  260MOL0     C35748   5.212  10.099   6.475 -0.3490 -0.4421  0.1793
  260MOL0     C35749   5.317  10.011   6.499  0.3184  0.2527 -0.1552
  260MOL0     O35750   5.446  10.060   6.522  0.0944  0.3103 -0.3425
  260MOL0     C35751   5.549   9.957   6.517 -0.0008 -0.3788 -0.6991
  260MOL0     C35752   5.688  10.023   6.531  0.8040 -0.3164 -0.5223
  260MOL0     C35753   5.690  10.114   6.657  0.0178 -0.1131  0.4793
  260MOL0     C35754   5.816  10.203   6.662  0.0107 -0.1035 -0.0886
  260MOL0     C35755   5.812  10.315   6.543  0.1459 -0.1465  0.5351
  260MOL0     C35756   5.879  10.443   6.576  0.0628 -0.5298 -0.2594
  260MOL0     C35757   5.886  10.541   6.453  0.3313  0.9061 -0.3415
  260MOL0     C35758   5.932  10.678   6.493  0.1136 -0.6908 -0.0910
  260MOL0     N35759   6.068  10.691   6.544 -0.4409 -0.1795 -0.1595
  260MOL0     C35760   6.178  10.689   6.468  0.5293  0.1791 -0.1125
  260MOL0     C35761   6.281  10.708   6.553  0.4403  0.9510 -0.4434
  260MOL0     C35762   6.421  10.732   6.507  0.0292 -0.3321  0.5137
  260MOL0     C35763   6.478  10.606   6.437  0.4188 -1.2812 -1.1279
  260MOL0     C35764   6.622  10.613   6.428  0.4869 -0.3097 -0.0413
  260MOL0     C35765   6.692  10.703   6.317 -0.1669  0.3094 -0.7612
  260MOL0     O35766   6.703  10.837   6.375 -0.4760 -0.2058  0.9341
  260MOL0     C35767   6.799  10.852   6.473 -0.5691  0.2158  0.4238
  260MOL0     C35768   6.940  10.823   6.449  0.4984 -0.5376  0.1001
  260MOL0     C35769   7.041  10.837   6.553  0.1653  0.8159  0.1546
  260MOL0     C35770   7.175  10.789   6.507  0.2765  0.6299 -0.3413
  260MOL0     C35771   7.006  10.887   6.679  0.5256 -1.3040  0.1164
  260MOL0     C35772   7.102  10.878   6.796  0.4555 -0.2382  0.0313
  260MOL0     O35773   7.233  10.892   6.765  0.4195  0.1315  0.3917
  260MOL0     C35774   7.312  10.896   6.878 -0.0674  0.0541 -0.0023
  260MOL0     C35775   7.326  11.016   6.942  0.4420  1.1054 -0.5651
  260MOL0     C35776   7.391  11.021   7.064 -0.2199  0.0986 -0.9181
  260MOL0     C35777   7.459  10.910   7.121 -1.0375 -0.1652  0.3439
  260MOL0     O35778   7.537  10.929   7.241  0.3795  0.2766 -0.0043
  260MOL0     C35779   7.631  11.036   7.230  0.6461  0.0116 -0.3538
  260MOL0     C35780   7.697  11.048   7.366  0.3968  0.2727 -0.2380
  260MOL0     C35781   7.814  11.141   7.386 -0.1929  1.2676 -0.0792
  260MOL0     C35782   7.877  11.117   7.520 -0.1012 -0.4182 -1.1881
  260MOL0     C35783   7.967  11.238   7.554  0.3603 -0.3909 -0.2700
  260MOL0     C35784   8.087  11.243   7.468 -0.2344  0.1509 -0.2144
  260MOL0     C35785   8.199  11.341   7.510  0.4746 -0.6689  0.4485
  260MOL0     C35786   8.295  11.361   7.392  0.4808 -0.5474  0.3017
  260MOL0    Cl35787   8.360  11.205   7.329 -0.4446 -0.2465 -0.1205
  260MOL0     C35788   7.450  10.791   7.050  0.0639 -0.2696  0.1387
  260MOL0     C35789   7.375  10.780   6.935 -0.2936 -0.1009  0.4433
  260MOL0     O35790   7.052  10.879   6.908 -0.5794  0.0530  0.4850
  260MOL0     C35791   6.861  10.906   6.693  0.1749 -0.0054 -0.0887
  260MOL0     C35792   6.764  10.887   6.599 -0.4765 -0.0102  0.0192
  260MOL0     N35793   6.227  10.703   6.684  0.2499 -0.5594  0.3751
  260MOL0     N35794   6.102  10.693   6.671 -0.2514  0.3801 -0.3875
  260MOL0     C35795   5.289   9.879   6.495 -0.0541  0.4425 -0.5516
  260MOL0     C35796   5.156   9.827   6.486 -0.1936  0.2906  0.3332
  260MOL0     C35797   4.768   9.870   6.225 -0.1323 -0.4427 -0.3763
  260MOL0     C35798   4.675   9.911   6.322  0.0847  0.5555 -0.8444
  260MOL0     C35799   4.543   9.923   6.286  0.3652 -0.7341  0.3976
  260MOL0     C35800   4.487   9.891   6.160 -0.5797 -0.2386 -0.6078
  260MOL0     O35801   4.352   9.897   6.139  0.6779  0.0569  0.0500
  260MOL0     C35802   4.295   9.810   6.040  0.3050 -0.2341 -0.0167
  260MOL0     C35803   4.158   9.872   6.015  0.6289  0.3527  0.2520
  260MOL0     C35804   4.071   9.896   6.143 -0.3288 -0.1192 -0.6189
  260MOL0     C35805   4.073   9.792   6.252  0.1064  0.1372 -0.5096
  260MOL0     C35806   4.031   9.659   6.203  0.5182 -0.5089 -0.5110
  260MOL0     C35807   3.976   9.558   6.179  0.2964  0.2627  0.5640
  260MOL0     C35808   4.587   9.858   6.063 -0.9879 -0.4170 -0.7549
  260MOL0     C35809   4.723   9.837   6.097  0.3074  0.3240  0.9640
  260MOL0     C35810   4.809   9.779   5.986  0.1242 -0.1029  0.4670
  260MOL0     H35811   4.998  10.117   6.451 -0.7600 -0.6543 -0.4886
  260MOL0     H35812   5.229  10.204   6.495 -2.3182  0.0568 -0.4709
  260MOL0     H35813   5.555   9.915   6.417  1.8938  1.5291 -1.4534
  260MOL0     H35814   5.532   9.877   6.590 -0.3128 -0.0221 -0.3743
  260MOL0     H35815   5.761   9.943   6.545 -1.9101 -2.7621  0.4964
  260MOL0     H35816   5.720  10.096   6.456  3.1936 -1.3654 -0.6337
  260MOL0     H35817   5.610  10.189   6.654  1.9627  2.0946 -1.7049
  260MOL0     H35818   5.683  10.053   6.747 -2.8901  1.7956  1.6904
  260MOL0     H35819   5.828  10.253   6.758  2.8490 -1.6018  0.4682
  260MOL0     H35820   5.901  10.135   6.644 -0.9693 -1.5187  0.4139
  260MOL0     H35821   5.712  10.339   6.505  0.1069  0.1221  0.8002
  260MOL0     H35822   5.867  10.274   6.458 -0.8258 -1.5929  0.5644
  260MOL0     H35823   5.823  10.495   6.654  0.8942  0.8070 -0.5355
  260MOL0     H35824   5.978  10.421   6.618 -0.6909 -2.4948  0.6352
  260MOL0     H35825   5.786  10.549   6.409  0.0865 -1.1056 -0.2391
  260MOL0     H35826   5.961  10.504   6.383  0.3910  2.2833 -1.0380
  260MOL0     H35827   5.928  10.739   6.402 -1.5977 -0.5308  0.0539
  260MOL0     H35828   5.857  10.723   6.559 -1.5770  1.7174 -3.3257
  260MOL0     H35829   6.177  10.694   6.360  0.0130 -0.4825 -0.1473
  260MOL0     H35830   6.484  10.768   6.589  1.6934 -1.6133 -0.1456
  260MOL0     H35831   6.414  10.811   6.431  0.9937  0.5189  1.2866
  260MOL0     H35832   6.448  10.515   6.489 -1.0600  0.0412  0.4484
  260MOL0     H35833   6.422  10.603   6.343  0.0318  0.2984 -0.9826
  260MOL0     H35834   6.670  10.621   6.526  0.4161 -1.1248  0.0714
  260MOL0     H35835   6.647  10.512   6.394  2.7665 -0.3476  1.4606
  260MOL0     H35836   6.788  10.662   6.284  0.6101  2.1032 -0.8948
  260MOL0     H35837   6.621  10.713   6.234 -0.1386 -0.6470 -0.9095
  260MOL0     H35838   6.969  10.799   6.347  0.5879 -3.6805  0.7841
  260MOL0     H35839   7.238  10.871   6.545 -1.3393  0.5522  2.8753
  260MOL0     H35840   7.197  10.781   6.400 -0.8739 -0.3589 -0.5162
  260MOL0     H35841   7.201  10.704   6.570 -2.2850  0.6288  0.8429
  260MOL0     H35842   7.269  11.099   6.900 -1.9623 -0.4212 -0.4948
  260MOL0     H35843   7.402  11.115   7.118 -1.4348 -0.3329  0.1271
  260MOL0     H35844   7.694  11.031   7.141 -0.2499  0.1981 -1.0149
  260MOL0     H35845   7.573  11.129   7.230  0.3136 -0.1131  2.3144
  260MOL0     H35846   7.616  11.077   7.434  0.8311 -0.0450  0.4243
  260MOL0     H35847   7.728  10.947   7.391  2.3333  1.3545  2.1946
  260MOL0     H35848   7.784  11.245   7.374 -1.0803  1.0930  0.6124
  260MOL0     H35849   7.891  11.113   7.313 -0.3791  0.2841  0.0925
  260MOL0     H35850   7.946  11.033   7.518 -2.2337 -2.3144 -0.1581
  260MOL0     H35851   7.801  11.097   7.596  0.0911  0.6135 -0.7100
  260MOL0     H35852   7.911  11.332   7.555  2.4522  0.9463  2.0809
  260MOL0     H35853   8.001  11.220   7.656 -0.6528  0.2556  0.1993
  260MOL0     H35854   8.047  11.269   7.370 -3.4767  3.2213  1.7062
  260MOL0     H35855   8.127  11.141   7.466  1.9254  0.9415 -2.1512
  260MOL0     H35856   8.255  11.301   7.595 -0.2295 -2.1578  0.2609
  260MOL0     H35857   8.153  11.438   7.529  2.4923  0.8896 -2.0533
  260MOL0     H35858   8.375  11.428   7.423  1.3127 -0.9945 -0.8230
  260MOL0     H35859   8.234  11.401   7.310 -1.6914 -0.6116  1.7853
  260MOL0     H35860   7.504  10.704   7.086 -0.8741 -0.3709  1.3555
  260MOL0     H35861   7.358  10.684   6.888 -1.3618  0.0917  0.4209
  260MOL0     H35862   6.816  10.925   6.790 -0.1139 -0.3104 -0.1598
  260MOL0     H35863   6.657  10.896   6.609 -0.4677 -0.9062  1.1552
  260MOL0     H35864   5.364   9.806   6.525  0.9456  1.5990 -0.1645
  260MOL0     H35865   5.134   9.721   6.471 -1.3403  0.6590 -0.7052
  260MOL0     H35866   4.710   9.941   6.420  1.2798 -1.4212 -0.5975
  260MOL0     H35867   4.474   9.955   6.363 -0.1484 -0.8913  0.0078
  260MOL0     H35868   4.355   9.807   5.948  3.3742 -1.9826  1.8824
  260MOL0     H35869   4.304   9.711   6.085 -1.3547 -0.2916  0.2548
  260MOL0     H35870   4.107   9.801   5.949  0.2424  1.6793 -0.9130
  260MOL0     H35871   4.155   9.969   5.965 -1.4270 -0.0250 -0.4570
  260MOL0     H35872   4.104   9.987   6.193 -1.4425 -0.3056  0.4955
  260MOL0     H35873   3.970   9.914   6.105 -0.9179 -0.1690  0.8937
  260MOL0     H35874   4.014   9.822   6.339  1.6877 -1.9904  1.3881
  260MOL0     H35875   4.176   9.779   6.285 -0.9197  1.7722  4.1696
  260MOL0     H35876   3.921   9.469   6.155  1.5290 -0.8394  1.6247
  260MOL0     H35877   4.561   9.843   5.959 -1.6743 -2.2582 -0.3739
  260MOL0     H35878   4.752   9.744   5.899  1.0229 -2.4442  0.7514
  260MOL0     H35879   4.892   9.848   5.969 -0.1965 -0.1712 -1.7813
  260MOL0     H35880   4.850   9.683   6.019  1.2793  0.1742 -0.0884
  261MOL0     O35881   6.205   5.546   3.086 -0.4962  0.1669 -0.0686
  261MOL0     C35882   6.173   5.531   3.204 -0.5508 -0.1436  0.2166
  261MOL0     O35883   6.071   5.596   3.260  0.3063 -0.3401 -0.1613
  261MOL0     C35884   5.947   5.625   3.198  0.0782 -0.0348  0.0011
  261MOL0     C35885   5.903   5.559   3.075 -0.1389 -0.2641 -0.2791
  261MOL0     C35886   5.777   5.589   3.024 -0.2406 -0.6846 -0.0529
  261MOL0     C35887   5.681   5.677   3.079  1.2084 -0.6531 -0.6305
  261MOL0     O35888   5.553   5.701   3.018 -0.4224  0.4941  0.0151
  261MOL0     C35889   5.471   5.587   3.014  0.2570  0.4460 -0.1455
  261MOL0     C35890   5.392   5.594   2.887  0.0512 -0.3407 -0.1446
  261MOL0     C35891   5.475   5.622   2.766 -0.0787  0.0433  0.3875
  261MOL0     C35892   5.393   5.617   2.638 -0.1137  0.2533  1.1304
  261MOL0     C35893   5.491   5.620   2.514 -0.1433  0.4193 -0.4122
  261MOL0     C35894   5.433   5.564   2.380  0.1453 -0.5314  0.2272
  261MOL0     C35895   5.532   5.554   2.261  0.0424  1.0431  0.7081
  261MOL0     C35896   5.605   5.408   2.269  0.5912 -0.7850 -0.1020
  261MOL0     N35897   5.501   5.294   2.271  0.7560  0.3983  0.1264
  261MOL0     C35898   5.387   5.296   2.186 -0.1209  1.0661  0.2175
  261MOL0     C35899   5.304   5.202   2.240  0.7492 -0.1098  0.0768
  261MOL0     C35900   5.166   5.170   2.189 -0.5096 -0.1755 -0.3535
  261MOL0     C35901   5.167   5.098   2.056 -0.3265 -0.1090  0.4767
  261MOL0     C35902   5.235   4.960   2.057 -0.2068  0.0386  0.0315
  261MOL0     C35903   5.238   4.897   1.918 -0.5474  0.0532 -0.5830
  261MOL0     O35904   5.290   4.990   1.817 -0.8627  0.1570  0.2429
  261MOL0     C35905   5.424   5.028   1.843 -0.1999 -0.5013  0.3164
  261MOL0     C35906   5.447   5.161   1.826  0.0262 -0.1868 -0.1266
  261MOL0     C35907   5.568   5.223   1.859  0.3668 -0.1175 -0.4345
  261MOL0     C35908   5.576   5.368   1.828 -0.5761 -0.1298 -0.3745
  261MOL0     C35909   5.667   5.148   1.919 -0.2622  0.4202 -0.4071
  261MOL0     C35910   5.806   5.199   1.958 -0.3605  0.1648 -0.1783
  261MOL0     O35911   5.849   5.305   1.884 -0.0090  0.0706  0.1450
  261MOL0     C35912   5.971   5.355   1.919  0.1975  0.6487 -0.3738
  261MOL0     C35913   5.976   5.480   1.985  0.2789  0.1780  0.6011
  261MOL0     C35914   6.108   5.536   2.015 -0.5454 -0.1034 -0.4588
  261MOL0     C35915   6.223   5.466   1.970 -0.5141  0.2324 -0.4231
  261MOL0     O35916   6.351   5.501   1.986 -0.4225  0.2018  0.7385
  261MOL0     C35917   6.392   5.631   2.027 -0.1319  0.6729  0.9057
  261MOL0     C35918   6.544   5.645   2.013 -0.1988 -0.0084 -0.1064
  261MOL0     C35919   6.602   5.606   1.872  1.1261  0.5674 -0.5114
  261MOL0     C35920   6.559   5.710   1.765 -0.6231  0.7077  0.2211
  261MOL0     C35921   6.586   5.655   1.630  0.7656 -0.4284  0.3885
  261MOL0     C35922   6.561   5.754   1.520  0.6564 -0.1732 -0.0469
  261MOL0     C35923   6.678   5.835   1.491 -0.1849 -0.0037  0.6027
  261MOL0     C35924   6.640   5.976   1.452  0.3467 -0.4448 -1.3107
  261MOL0    Cl35925   6.784   6.081   1.418 -0.0612 -0.2018 -0.1453
  261MOL0     C35926   6.208   5.341   1.911  1.4945 -0.5825  0.1393
  261MOL0     C35927   6.086   5.285   1.874 -0.9331 -0.6012 -0.0462
  261MOL0     O35928   5.865   5.139   2.044  0.0963  0.4130  0.4925
  261MOL0     C35929   5.649   5.007   1.934 -0.0858  0.3299  0.5987
  261MOL0     C35930   5.527   4.950   1.901  0.0226  0.2356  0.7871
  261MOL0     N35931   5.356   5.149   2.358 -0.7610  0.1475 -0.0370
  261MOL0     N35932   5.477   5.200   2.369 -0.0112  0.9555  0.3244
  261MOL0     C35933   5.719   5.728   3.199 -0.7068  0.2793 -0.0528
  261MOL0     C35934   5.854   5.713   3.257  0.6955 -0.6118  0.2700
  261MOL0     C35935   6.253   5.457   3.300  0.4177  0.1278  0.9135
  261MOL0     C35936   6.190   5.413   3.421 -0.2712  0.6748 -0.4102
  261MOL0     C35937   6.258   5.332   3.515  0.2294 -0.5196 -1.1127
  261MOL0     C35938   6.384   5.285   3.482 -0.4096  0.1297 -0.6825
  261MOL0     O35939   6.460   5.207   3.568 -0.0287  0.4623  0.2854
  261MOL0     C35940   6.398   5.079   3.606  0.7338 -0.2360 -0.7508
  261MOL0     C35941   6.399   4.982   3.494  0.7579  0.0322  0.1741
  261MOL0     C35942   6.529   4.939   3.427  0.7276 -0.4882  0.3545
  261MOL0     C35943   6.510   4.940   3.271 -0.5465 -0.3273 -0.4087
  261MOL0     C35944   6.419   4.836   3.228  0.0776 -0.1848  0.1129
  261MOL0     C35945   6.337   4.757   3.193 -0.7169 -0.2217 -0.5205
  261MOL0     C35946   6.453   5.328   3.363 -0.3839  0.0982  0.7808
  261MOL0     C35947   6.391   5.427   3.276 -0.6400  0.0767 -0.3459
  261MOL0     C35948   6.473   5.462   3.157  0.4975 -0.4310 -0.4732
  261MOL0     H35949   5.972   5.490   3.028  1.3773  0.9681  0.0891
  261MOL0     H35950   5.742   5.544   2.931  0.6351  0.8515 -1.1795
  261MOL0     H35951   5.398   5.586   3.095 -0.1595 -1.0069 -0.5143
  261MOL0     H35952   5.528   5.494   3.004  1.2656  0.9105  0.9511
  261MOL0     H35953   5.331   5.503   2.883 -2.4404  1.2412 -0.2616
  261MOL0     H35954   5.311   5.667   2.888 -1.2882 -1.7701  1.1986
  261MOL0     H35955   5.521   5.722   2.770  0.3276  0.0109 -1.8887
  261MOL0     H35956   5.544   5.537   2.763 -0.3163 -0.1952  1.4107
  261MOL0     H35957   5.331   5.528   2.631  1.1038 -0.6497  1.4282
  261MOL0     H35958   5.329   5.705   2.630  1.1019  1.0759 -0.1548
  261MOL0     H35959   5.579   5.560   2.541  0.1271  0.5542 -0.9937
  261MOL0     H35960   5.532   5.720   2.504 -0.1287  0.6557  1.5872
  261MOL0     H35961   5.387   5.466   2.395 -2.7443  0.8041  0.6418
  261MOL0     H35962   5.352   5.631   2.350  0.5344  0.5237  1.4267
  261MOL0     H35963   5.605   5.636   2.260  1.1760  0.0839  1.7333
  261MOL0     H35964   5.479   5.547   2.166  0.4666  0.0072  0.5354
  261MOL0     H35965   5.656   5.384   2.174  0.4897 -1.8404  0.1028
  261MOL0     H35966   5.681   5.398   2.347 -0.2850  0.1748  0.9030
  261MOL0     H35967   5.356   5.345   2.095 -2.2406  2.4945  1.6271
  261MOL0     H35968   5.121   5.268   2.168  0.4194  0.2455 -0.4486
  261MOL0     H35969   5.104   5.123   2.265  0.7399 -1.2227  0.0347
  261MOL0     H35970   5.064   5.093   2.020  0.4392  3.0588 -2.6315
  261MOL0     H35971   5.220   5.161   1.984  1.8989 -1.3853  0.8904
  261MOL0     H35972   5.339   4.971   2.087  0.3941 -0.9030 -1.5943
  261MOL0     H35973   5.181   4.898   2.129  1.6394 -1.5891  0.0917
  261MOL0     H35974   5.299   4.806   1.917 -0.5625  0.0130  0.6655
  261MOL0     H35975   5.133   4.876   1.892 -0.6575  1.5089 -1.4017
  261MOL0     H35976   5.356   5.213   1.797  0.9587  1.2323 -0.6004
  261MOL0     H35977   5.600   5.428   1.916 -1.6245 -0.7589  0.3633
  261MOL0     H35978   5.475   5.396   1.798 -1.3695  1.5063  3.3510
  261MOL0     H35979   5.647   5.392   1.748  0.1669  0.8643  0.5555
  261MOL0     H35980   5.878   5.520   2.006 -0.7448 -1.5546 -0.6172
  261MOL0     H35981   6.104   5.627   2.074 -0.8082  0.5451 -1.4524
  261MOL0     H35982   6.339   5.706   1.968  1.5120 -1.0337 -3.1863
  261MOL0     H35983   6.360   5.652   2.129  0.3653  2.3926  0.7313
  261MOL0     H35984   6.575   5.745   2.042  0.3463 -0.2672  0.2154
  261MOL0     H35985   6.592   5.570   2.076  1.5024  0.5767 -0.6387
  261MOL0     H35986   6.578   5.502   1.848  0.6778  0.4231  0.5336
  261MOL0     H35987   6.710   5.615   1.891  0.6550  1.6487  2.0922
  261MOL0     H35988   6.619   5.799   1.785  1.8226 -1.0696  1.3674
  261MOL0     H35989   6.453   5.733   1.780 -0.8966 -0.9252  1.0322
  261MOL0     H35990   6.683   5.607   1.611 -0.5514 -1.5867 -5.1928
  261MOL0     H35991   6.512   5.575   1.618  0.4577 -0.3132  1.4542
  261MOL0     H35992   6.469   5.812   1.530  0.4672 -0.1036 -1.8382
  261MOL0     H35993   6.541   5.685   1.437 -1.6153 -2.5657  2.2692
  261MOL0     H35994   6.719   5.780   1.405 -0.3295 -1.0903  1.2076
  261MOL0     H35995   6.750   5.826   1.573  2.1625  0.5849 -1.2510
  261MOL0     H35996   6.587   6.023   1.536  0.5960 -1.8516 -0.3288
  261MOL0     H35997   6.578   5.982   1.363 -0.6871  0.6072 -0.5408
  261MOL0     H35998   6.296   5.297   1.866  0.8251 -2.0962  0.2559
  261MOL0     H35999   6.062   5.196   1.817 -0.5741 -1.9668  1.8115
  261MOL0     H36000   5.717   4.930   1.969 -0.0088 -0.3619 -1.0045
  261MOL0     H36001   5.518   4.846   1.930 -2.1444 -0.0548 -0.7483
  261MOL0     H36002   5.647   5.779   3.262 -1.4760 -3.4198  2.3989
  261MOL0     H36003   5.877   5.767   3.349  0.9448  0.1555 -0.2305
  261MOL0     H36004   6.085   5.433   3.439 -0.2782  2.4276 -2.1969
  261MOL0     H36005   6.219   5.294   3.609  0.6606  1.6698  0.0103
  261MOL0     H36006   6.450   5.032   3.690  0.7474  0.8242 -0.1414
  261MOL0     H36007   6.292   5.092   3.628  1.0189  1.7644 -0.3732
  261MOL0     H36008   6.326   5.010   3.417  1.2822  4.0370  0.9443
  261MOL0     H36009   6.346   4.891   3.527  0.1317  0.6347  0.8629
  261MOL0     H36010   6.595   5.023   3.452  0.9070 -0.7096  0.6243
  261MOL0     H36011   6.564   4.848   3.475  1.2984 -0.2408  0.4071
  261MOL0     H36012   6.610   4.912   3.235 -0.0192  1.2227 -0.2268
  261MOL0     H36013   6.478   5.037   3.232  1.7313  0.9282  0.5953
  261MOL0     H36014   6.262   4.686   3.166 -0.9087 -0.6100  0.9821
  261MOL0     H36015   6.549   5.281   3.344 -0.6691 -0.0035 -0.4333
  261MOL0     H36016   6.575   5.424   3.173  0.3261 -0.1334  1.6531
  261MOL0     H36017   6.433   5.409   3.071 -1.0211 -0.0238 -0.0446
  261MOL0     H36018   6.479   5.568   3.130  1.5227 -0.3237  0.1079
  262MOL0     O36019   1.133   9.045   4.806  0.5305  0.1751  0.0074
  262MOL0     C36020   1.018   9.020   4.761 -0.1968 -0.7196  0.1571
  262MOL0     O36021   0.915   9.105   4.772  0.3130 -0.0670 -0.0502
  262MOL0     C36022   0.948   9.233   4.828  0.4472  1.1610  0.1884
  262MOL0     C36023   0.910   9.276   4.953  0.1742  0.6433 -0.1730
  262MOL0     C36024   0.939   9.399   5.001 -0.1575 -0.7279  0.5794
  262MOL0     C36025   0.997   9.495   4.920  0.0362  0.7580  0.2169
  262MOL0     O36026   1.013   9.625   4.954  0.2311 -0.4593 -0.6782
  262MOL0     C36027   1.042   9.642   5.094  1.4925 -0.1137 -0.3925
  262MOL0     C36028   1.079   9.790   5.125  0.7418 -0.3400  0.6896
  262MOL0     C36029   1.105   9.835   5.271  0.3947 -0.5117  0.3138
  262MOL0     C36030   1.159   9.973   5.282 -0.1200 -0.5818 -0.0381
  262MOL0     C36031   1.194  10.019   5.424 -0.0109 -0.0250 -0.2365
  262MOL0     C36032   1.240  10.164   5.426  0.5628 -0.7893 -0.4326
  262MOL0     C36033   1.314  10.201   5.557  0.5268 -0.3609 -0.3806
  262MOL0     C36034   1.222  10.223   5.685  0.1078  0.4493 -0.5840
  262MOL0     N36035   1.275  10.309   5.789  0.2612 -0.5406  0.5081
  262MOL0     C36036   1.274  10.456   5.790 -0.1085  0.4980  0.3872
  262MOL0     C36037   1.329  10.491   5.909  0.0364  0.2706 -0.3569
  262MOL0     C36038   1.359  10.628   5.959 -0.3705  0.0299 -0.2923
  262MOL0     C36039   1.510  10.646   5.991 -0.7868  0.6986  0.7199
  262MOL0     C36040   1.610  10.577   5.900 -0.1049  0.2053 -0.3272
  262MOL0     C36041   1.747  10.623   5.929 -0.0785  0.0537 -0.5666
  262MOL0     O36042   1.828  10.605   5.808 -0.2299  0.0852 -0.3699
  262MOL0     C36043   1.926  10.506   5.792 -0.0732  0.1844  0.9338
  262MOL0     C36044   1.962  10.472   5.661  0.2258 -1.0898  0.1596
  262MOL0     C36045   2.049  10.374   5.620  0.0212  0.2139  0.7912
  262MOL0     C36046   2.065  10.361   5.480  0.3407 -1.1242  0.2570
  262MOL0     C36047   2.114  10.301   5.724  0.1398 -0.0677 -0.7559
  262MOL0     C36048   2.215  10.184   5.705  0.6351  0.8420  0.4234
  262MOL0     O36049   2.246  10.111   5.817  1.3400  0.3735 -0.4094
  262MOL0     C36050   2.347  10.016   5.822 -0.4013 -0.1490 -0.1388
  262MOL0     C36051   2.454  10.007   5.726 -0.2030 -0.4273 -0.5681
  262MOL0     C36052   2.560   9.919   5.730  0.7013  0.6442 -0.3835
  262MOL0     C36053   2.556   9.823   5.831  1.0471 -0.3186 -0.0093
  262MOL0     O36054   2.670   9.743   5.827 -0.0179 -0.2394  0.7299
  262MOL0     C36055   2.642   9.609   5.871 -0.1492 -0.3544 -0.6026
  262MOL0     C36056   2.766   9.523   5.843  0.9125 -0.1847 -0.0962
  262MOL0     C36057   2.890   9.594   5.911  0.2634  0.6783 -0.2234
  262MOL0     C36058   3.014   9.492   5.904  0.6209  0.0602  0.2241
  262MOL0     C36059   3.056   9.483   5.755 -0.1494  0.3443 -0.4122
  262MOL0     C36060   3.202   9.411   5.754  0.4121  0.0115 -0.2132
  262MOL0     C36061   3.251   9.375   5.611  0.3963 -0.2912 -0.6739
  262MOL0     C36062   3.388   9.309   5.617 -0.5656 -0.5865  0.0897
  262MOL0    Cl36063   3.386   9.136   5.644  0.1089 -0.1131  0.1568
  262MOL0     C36064   2.450   9.823   5.921  0.5809  0.2171 -0.1343
  262MOL0     C36065   2.345   9.915   5.920 -0.0269 -0.1558 -0.4761
  262MOL0     O36066   2.262  10.173   5.588 -0.5639  0.3290 -0.7481
  262MOL0     C36067   2.085  10.343   5.857 -0.0545  0.1512  0.4653
  262MOL0     C36068   1.986  10.436   5.888 -1.2820  0.4782  0.4828
  262MOL0     N36069   1.351  10.373   5.978 -0.0365  1.1576  0.2166
  262MOL0     N36070   1.316  10.266   5.905  0.1219  0.1267  0.2350
  262MOL0     C36071   1.040   9.457   4.793 -0.4940 -0.7832  0.9188
  262MOL0     C36072   1.007   9.329   4.742  0.0361  0.1182 -0.1368
  262MOL0     C36073   1.012   8.890   4.679 -0.8910 -0.2715 -0.4136
  262MOL0     C36074   0.897   8.812   4.679  0.4730  0.6931 -0.2857
  262MOL0     C36075   0.889   8.693   4.609 -0.0027  0.2257 -0.5305
  262MOL0     C36076   0.996   8.655   4.529 -0.3168  0.4853  0.3702
  262MOL0     O36077   0.996   8.536   4.460 -0.5603  0.3084  0.3916
  262MOL0     C36078   0.904   8.428   4.485  0.2040  0.4394 -0.6647
  262MOL0     C36079   0.948   8.304   4.410  0.1277 -0.6968 -0.7014
  262MOL0     C36080   0.974   8.333   4.266  0.0891 -0.0038 -0.6265
  262MOL0     C36081   0.991   8.199   4.187  0.2841  0.1495 -0.4043
  262MOL0     C36082   0.858   8.134   4.187 -0.1841  0.3488 -0.1954
  262MOL0     C36083   0.750   8.090   4.187  1.0321 -0.7605  0.0799
  262MOL0     C36084   1.111   8.739   4.519  0.5508 -0.0268 -0.0940
  262MOL0     C36085   1.127   8.848   4.603  0.6259 -0.0724 -0.5982
  262MOL0     C36086   1.259   8.925   4.578  0.4979  0.3786  0.0613
  262MOL0     H36087   0.858   9.194   5.003 -0.9339  1.7982  0.6474
  262MOL0     H36088   0.902   9.415   5.102  2.9684  3.0040  1.4003
  262MOL0     H36089   1.131   9.586   5.125  1.3643  0.9548  2.1395
  262MOL0     H36090   0.953   9.610   5.149  1.3720  0.6641 -0.1289
  262MOL0     H36091   1.170   9.811   5.067 -0.1491  1.3553 -0.1827
  262MOL0     H36092   0.996   9.847   5.082  1.8369  1.3101  0.6589
  262MOL0     H36093   1.008   9.826   5.321 -1.8576  2.6291 -2.9986
  262MOL0     H36094   1.176   9.767   5.318  1.3399  0.6100  0.5648
  262MOL0     H36095   1.242   9.984   5.213 -1.4051  0.8923 -1.4287
  262MOL0     H36096   1.077  10.031   5.240  0.1593 -0.7879 -0.8755
  262MOL0     H36097   1.269   9.951   5.465 -2.1901 -3.5995 -1.7084
  262MOL0     H36098   1.106  10.010   5.488 -0.3678 -3.5759 -1.0409
  262MOL0     H36099   1.312  10.180   5.345 -0.5321  2.1281 -0.9363
  262MOL0     H36100   1.152  10.227   5.411 -1.4107 -3.3995 -0.6127
  262MOL0     H36101   1.369  10.292   5.532  1.8358 -1.5704 -2.1508
  262MOL0     H36102   1.387  10.127   5.592  1.0166  1.2405  2.2534
  262MOL0     H36103   1.132  10.276   5.651 -0.3585  1.8423  2.4495
  262MOL0     H36104   1.197  10.125   5.726  1.6205  1.5624  3.4062
  262MOL0     H36105   1.248  10.527   5.712 -1.9000  0.1854  0.6628
  262MOL0     H36106   1.290  10.639   6.044 -1.6302  0.7232 -1.3635
  262MOL0     H36107   1.326  10.703   5.886 -1.0042  0.1845  0.1446
  262MOL0     H36108   1.517  10.754   5.983  0.7024  0.4911 -1.4132
  262MOL0     H36109   1.523  10.610   6.093  2.5667 -1.4388 -0.2908
  262MOL0     H36110   1.609  10.468   5.909 -2.1666  0.2909  1.1190
  262MOL0     H36111   1.579  10.602   5.798 -2.2665 -2.6425 -0.4758
  262MOL0     H36112   1.740  10.731   5.941  2.8357  0.1458  1.3481
  262MOL0     H36113   1.792  10.588   6.023  0.9645  2.6791 -0.0089
  262MOL0     H36114   1.908  10.532   5.589  1.4390 -0.3798 -0.1809
  262MOL0     H36115   2.002  10.425   5.417  0.3981 -0.3371  0.9922
  262MOL0     H36116   2.055  10.258   5.444 -0.5248 -0.9968  0.1049
  262MOL0     H36117   2.165  10.401   5.459 -0.5571  1.7858  1.0458
  262MOL0     H36118   2.457  10.076   5.642 -2.3454 -0.2227 -0.5404
  262MOL0     H36119   2.644   9.923   5.661 -0.8338  2.5993 -2.2857
  262MOL0     H36120   2.625   9.600   5.978  1.3102 -0.0250 -0.3233
  262MOL0     H36121   2.554   9.578   5.813  0.0297 -1.1066 -0.4827
  262MOL0     H36122   2.760   9.417   5.868  2.1808 -1.2491 -3.6812
  262MOL0     H36123   2.770   9.508   5.735 -1.7849 -0.8386 -0.1630
  262MOL0     H36124   2.865   9.611   6.017 -1.1261 -0.7034 -0.2865
  262MOL0     H36125   2.916   9.687   5.860 -2.9861  1.7743 -0.1267
  262MOL0     H36126   2.990   9.394   5.946 -3.2818 -0.0265 -1.7443
  262MOL0     H36127   3.095   9.537   5.962  1.6286  2.4297 -2.7667
  262MOL0     H36128   2.980   9.425   5.703 -0.2025  0.7761 -0.8171
  262MOL0     H36129   3.069   9.580   5.707  1.4740  0.3423 -0.0471
  262MOL0     H36130   3.204   9.322   5.817  2.0627 -1.4998 -2.2809
  262MOL0     H36131   3.274   9.484   5.790  1.2757 -1.0668  0.2968
  262MOL0     H36132   3.249   9.470   5.557  2.9709 -0.6254 -1.5208
  262MOL0     H36133   3.170   9.319   5.563 -1.3700 -0.0783  1.8386
  262MOL0     H36134   3.454   9.349   5.695  0.6816 -1.9459 -0.2288
  262MOL0     H36135   3.427   9.330   5.517  1.0639 -0.6127  0.6909
  262MOL0     H36136   2.447   9.739   5.991 -0.1622  0.2147 -0.1627
  262MOL0     H36137   2.272   9.908   5.999  0.9999  0.3692  0.5489
  262MOL0     H36138   2.125  10.288   5.942 -0.5443 -1.3039 -0.2083
  262MOL0     H36139   1.960  10.454   5.992  1.0236 -0.4642  1.2772
  262MOL0     H36140   1.090   9.522   4.722 -2.1206 -1.6092 -1.0871
  262MOL0     H36141   1.027   9.309   4.637  0.8563  2.3466 -0.4569
  262MOL0     H36142   0.806   8.844   4.729  0.3951  1.7692 -1.0773
  262MOL0     H36143   0.810   8.619   4.617  0.7121 -0.6726 -1.4449
  262MOL0     H36144   0.911   8.411   4.593  1.7513  1.3424 -0.5960
  262MOL0     H36145   0.799   8.452   4.463  0.6186 -0.1579 -3.8646
  262MOL0     H36146   0.868   8.231   4.424 -0.7553 -0.0602 -2.1825
  262MOL0     H36147   1.039   8.273   4.463 -0.0647  0.2936  0.2383
  262MOL0     H36148   0.887   8.386   4.227 -1.7732 -2.5576 -0.1881
  262MOL0     H36149   1.069   8.387   4.260 -0.1728  0.9824  2.3314
  262MOL0     H36150   1.070   8.144   4.239  1.1073 -0.1738 -1.9477
  262MOL0     H36151   1.023   8.216   4.084  0.0829  4.7420  0.0724
  262MOL0     H36152   0.650   8.055   4.196  0.6789  0.4906  1.5307
  262MOL0     H36153   1.182   8.709   4.443 -1.6378 -0.4114 -2.1267
  262MOL0     H36154   1.251   9.028   4.542  1.4851 -0.4214 -2.7440
  262MOL0     H36155   1.315   8.919   4.672 -1.5592 -2.1267  1.2557
  262MOL0     H36156   1.321   8.874   4.503 -0.2113  0.8734 -0.8827
  263MOL0     O36157   3.423  10.700   3.739 -0.2082  0.4405 -0.2152
  263MOL0     C36158   3.463  10.774   3.651  0.1927 -0.0107 -0.0133
  263MOL0     O36159   3.579  10.851   3.654  0.0709 -0.6434  0.2572
  263MOL0     C36160   3.673  10.867   3.749  0.2624 -0.5244 -0.5309
  263MOL0     C36161   3.759  10.979   3.737  0.0265 -0.0708 -0.0189
  263MOL0     C36162   3.861  11.000   3.830 -0.7462  0.1790 -1.2234
  263MOL0     C36163   3.873  10.906   3.939 -1.1165  0.0895  0.5231
  263MOL0     O36164   3.978  10.927   4.017 -0.4348 -0.0546  0.4429
  263MOL0     C36165   4.008  10.825   4.115  1.4321 -0.5753  0.1696
  263MOL0     C36166   4.123  10.862   4.211 -1.1736  0.0536  0.1654
  263MOL0     C36167   4.253  10.876   4.141 -0.8541 -0.2601 -0.1530
  263MOL0     C36168   4.366  10.892   4.249  1.0623 -0.4151 -0.1903
  263MOL0     C36169   4.496  10.927   4.185  0.1204  0.4938 -0.2887
  263MOL0     C36170   4.588  10.961   4.299 -0.4924 -0.0923  0.4716
  263MOL0     C36171   4.721  10.976   4.224 -0.7532 -0.3080  1.4074
  263MOL0     C36172   4.837  10.982   4.319  0.4159 -1.1853  1.5133
  263MOL0     N36173   4.960  10.943   4.254 -0.1376  0.5417 -0.0587
  263MOL0     C36174   5.005  10.992   4.136  0.1233 -0.7646 -0.1044
  263MOL0     C36175   5.121  10.932   4.111 -0.5411 -0.4015  0.0595
  263MOL0     C36176   5.227  10.935   3.998  0.1760  1.0269 -0.0216
  263MOL0     C36177   5.242  11.075   3.932  0.4562  0.5444 -0.2582
  263MOL0     C36178   5.361  11.092   3.848  0.1431 -0.5807  0.2649
  263MOL0     C36179   5.358  11.225   3.773  0.1151  0.5451 -0.5026
  263MOL0     O36180   5.406  11.214   3.640 -0.2326 -0.0788 -0.5075
  263MOL0     C36181   5.543  11.202   3.628  0.3357  0.5851  0.4170
  263MOL0     C36182   5.579  11.205   3.495 -0.5520 -0.2154 -0.1789
  263MOL0     C36183   5.714  11.199   3.453 -0.2542 -0.1108 -0.5086
  263MOL0     C36184   5.744  11.205   3.307 -0.3548  0.1993 -0.5350
  263MOL0     C36185   5.819  11.195   3.553 -0.2107 -0.1438 -0.3545
  263MOL0     C36186   5.963  11.194   3.527  0.3607 -0.8232  0.1716
  263MOL0     O36187   6.014  11.153   3.402  0.3445  0.6075 -1.1343
  263MOL0     C36188   6.148  11.126   3.384 -0.4046  0.2639 -0.9489
  263MOL0     C36189   6.241  11.211   3.323  0.6446 -0.1287  0.0468
  263MOL0     C36190   6.374  11.167   3.310 -0.2031  1.0875 -0.5339
  263MOL0     C36191   6.418  11.045   3.354  0.1638 -0.3629  0.1224
  263MOL0     O36192   6.545  10.993   3.343  0.1596  0.4031 -0.3378
  263MOL0     C36193   6.655  11.079   3.309 -0.5407  0.5790 -0.4175
  263MOL0     C36194   6.780  10.995   3.255  0.3120 -0.3903 -0.5043
  263MOL0     C36195   6.732  10.928   3.115  0.1162 -1.0385  0.1581
  263MOL0     C36196   6.844  10.834   3.057 -0.4826  0.5852 -0.0439
  263MOL0     C36197   6.812  10.806   2.916  0.1188  0.3873  0.7545
  263MOL0     C36198   6.923  10.722   2.843 -0.9599 -0.4759  0.2320
  263MOL0     C36199   6.893  10.678   2.698  0.6262  0.4849 -0.2321
  263MOL0     C36200   6.889  10.808   2.610 -0.3225  0.2991  0.4799
  263MOL0    Cl36201   6.919  10.736   2.448  0.4812 -0.2023 -0.5015
  263MOL0     C36202   6.321  10.970   3.430 -0.7403 -0.1751  0.0313
  263MOL0     C36203   6.193  11.011   3.450  0.2611  0.5129 -0.5363
  263MOL0     O36204   6.033  11.244   3.620  0.8422  0.0027  0.0670
  263MOL0     C36205   5.780  11.203   3.687  0.5501 -0.5168 -0.0426
  263MOL0     C36206   5.644  11.193   3.724  0.2397  0.3892  0.3101
  263MOL0     N36207   5.156  10.852   4.216  0.7249 -0.2275 -0.0791
  263MOL0     N36208   5.064  10.853   4.297  0.4328 -0.2504 -0.1132
  263MOL0     C36209   3.784  10.794   3.954  0.3950  0.0119  0.2499
  263MOL0     C36210   3.686  10.777   3.855 -0.0131  0.5477  0.0071
  263MOL0     C36211   3.360  10.798   3.536  0.5661  0.2918 -0.3733
  263MOL0     C36212   3.233  10.734   3.557  1.0393 -0.2196  0.0868
  263MOL0     C36213   3.127  10.768   3.474  0.5816 -0.0845  0.5290
  263MOL0     C36214   3.140  10.855   3.363  0.0545 -0.9194  0.1922
  263MOL0     O36215   3.046  10.900   3.275 -0.0455 -0.3637 -0.0630
  263MOL0     C36216   2.930  10.832   3.249 -0.4705  0.2699  0.1871
  263MOL0     C36217   2.848  10.906   3.142 -0.0761 -0.8485 -0.0407
  263MOL0     C36218   2.898  10.912   2.992 -0.5669 -0.3817 -1.5463
  263MOL0     C36219   2.959  10.788   2.933  0.3402  0.4984  0.2374
  263MOL0     C36220   2.996  10.828   2.797 -0.8029 -0.9625 -0.9268
  263MOL0     C36221   3.017  10.862   2.679 -0.1542  0.2399 -0.4191
  263MOL0     C36222   3.267  10.914   3.341  0.0361 -0.1858  0.3741
  263MOL0     C36223   3.374  10.894   3.431 -0.5644 -0.1302  0.0355
  263MOL0     C36224   3.501  10.974   3.412 -1.3616 -0.6798  0.4187
  263MOL0     H36225   3.744  11.048   3.655  1.4066  0.8073  0.4296
  263MOL0     H36226   3.934  11.080   3.834  1.0321 -1.3284 -1.4568
  263MOL0     H36227   4.031  10.732   4.061 -1.7386 -1.5843  0.3803
  263MOL0     H36228   3.922  10.809   4.181  1.0269 -0.9408 -0.4354
  263MOL0     H36229   4.104  10.959   4.260  3.5857  0.9667  0.7081
  263MOL0     H36230   4.133  10.794   4.296 -0.2946  0.0018  0.0359
  263MOL0     H36231   4.273  10.788   4.078  2.0782  2.2159 -3.0407
  263MOL0     H36232   4.252  10.966   4.079 -2.6799  0.5933  1.0445
  263MOL0     H36233   4.344  10.969   4.324 -0.8402 -1.4915  0.4176
  263MOL0     H36234   4.376  10.802   4.309  0.0449  0.8313  1.9535
  263MOL0     H36235   4.488  11.010   4.114  0.8638  1.1172  0.3396
  263MOL0     H36236   4.532  10.834   4.140 -2.0738  0.4509 -2.1248
  263MOL0     H36237   4.547  11.054   4.339  0.2879  0.4549  0.0433
  263MOL0     H36238   4.595  10.882   4.374 -0.5435  0.7728  1.4138
  263MOL0     H36239   4.722  11.061   4.155  0.2925  0.3402  2.2009
  263MOL0     H36240   4.739  10.888   4.160  1.2333 -0.3691  2.0025
  263MOL0     H36241   4.852  11.083   4.358  0.5431 -0.8284  0.5670
  263MOL0     H36242   4.819  10.928   4.412 -0.6894 -1.2493  1.2667
  263MOL0     H36243   4.960  11.077   4.084  0.4584 -0.3539  0.2653
  263MOL0     H36244   5.202  10.863   3.919 -0.6659 -0.7779  1.7775
  263MOL0     H36245   5.325  10.911   4.039  0.1913 -1.6988 -1.4509
  263MOL0     H36246   5.150  11.088   3.874  0.1822 -0.9787 -0.2178
  263MOL0     H36247   5.240  11.155   4.008  0.6929  1.4282 -1.1671
  263MOL0     H36248   5.446  11.097   3.918  0.0813  1.9538  0.2566
  263MOL0     H36249   5.375  11.013   3.774  0.3257 -1.1959  0.9428
  263MOL0     H36250   5.253  11.255   3.762 -0.3122  0.8859  3.1529
  263MOL0     H36251   5.416  11.298   3.832  1.1770  0.2761 -1.1983
  263MOL0     H36252   5.501  11.211   3.420 -0.9576  0.8194  0.3009
  263MOL0     H36253   5.824  11.277   3.288  0.6739 -0.2222  1.8047
  263MOL0     H36254   5.651  11.240   3.262 -0.7375 -0.4789 -0.2892
  263MOL0     H36255   5.786  11.118   3.256 -0.8463  0.3536 -1.2070
  263MOL0     H36256   6.216  11.299   3.264 -1.6837 -0.8979 -0.1965
  263MOL0     H36257   6.439  11.231   3.251 -3.5608  1.3680 -4.3028
  263MOL0     H36258   6.630  11.166   3.248 -0.9149 -0.7144 -2.1907
  263MOL0     H36259   6.685  11.125   3.403 -3.0729 -0.2994  0.9397
  263MOL0     H36260   6.861  11.065   3.233 -0.9064  0.0808 -4.3221
  263MOL0     H36261   6.813  10.918   3.325  0.7020  0.9169  0.8069
  263MOL0     H36262   6.709  11.009   3.044 -2.3435 -1.5366  0.2824
  263MOL0     H36263   6.641  10.870   3.132 -0.7290  0.7824  2.4228
  263MOL0     H36264   6.859  10.745   3.118  3.0101  0.8942 -0.2683
  263MOL0     H36265   6.929  10.902   3.066  0.0341 -0.3530  2.7507
  263MOL0     H36266   6.713  10.759   2.905 -0.6294  2.3330 -2.1613
  263MOL0     H36267   6.807  10.902   2.863 -0.9443 -1.0401 -1.9283
  263MOL0     H36268   6.940  10.627   2.895 -1.9695 -0.2097  1.0964
  263MOL0     H36269   7.020  10.772   2.835 -0.5226 -0.9720  1.9036
  263MOL0     H36270   6.793  10.634   2.691  0.0054  1.5810  1.1324
  263MOL0     H36271   6.963  10.602   2.664  0.5093 -0.2158  1.0567
  263MOL0     H36272   6.968  10.883   2.625  0.6211 -0.8469  1.4021
  263MOL0     H36273   6.790  10.853   2.623 -1.7725 -3.1522  2.7746
  263MOL0     H36274   6.360  10.880   3.477 -1.0784 -0.3798 -0.0843
  263MOL0     H36275   6.137  10.938   3.507  0.0900 -2.0425 -3.6855
  263MOL0     H36276   5.856  11.208   3.764  0.9449 -3.9549 -0.0670
  263MOL0     H36277   5.615  11.206   3.828 -1.0674  0.1512 -0.0134
  263MOL0     H36278   3.803  10.721   4.032 -0.3861 -1.0370 -0.5102
  263MOL0     H36279   3.627  10.689   3.878  1.8762 -1.0124 -0.8718
  263MOL0     H36280   3.216  10.655   3.631 -2.6655 -1.8867 -2.2595
  263MOL0     H36281   3.030  10.724   3.494  0.5045 -0.3206 -0.3283
  263MOL0     H36282   2.939  10.726   3.227 -3.8945  0.1711 -1.4023
  263MOL0     H36283   2.876  10.845   3.343  0.3421  2.6619  0.3911
  263MOL0     H36284   2.844  11.007   3.183 -1.7090 -1.1207  0.5293
  263MOL0     H36285   2.746  10.867   3.143 -1.1905  1.8150 -1.0147
  263MOL0     H36286   2.809  10.936   2.934 -1.6163 -0.6689 -0.1201
  263MOL0     H36287   2.966  10.997   2.989 -0.9294 -0.0433 -0.6668
  263MOL0     H36288   2.884  10.710   2.915 -1.0850  1.7116  0.7142
  263MOL0     H36289   3.047  10.753   2.988  0.4599  1.5901  0.7671
  263MOL0     H36290   3.026  10.901   2.579 -0.7001  1.6962  0.0672
  263MOL0     H36291   3.272  10.987   3.260 -3.6257 -0.0719  0.1074
  263MOL0     H36292   3.590  10.911   3.422  0.9140  1.9285 -2.0054
  263MOL0     H36293   3.510  11.031   3.319  2.2175 -2.4168 -0.4631
  263MOL0     H36294   3.500  11.050   3.491  1.6773  0.6843 -0.7099
  264MOL0     O36295   3.444   6.875   5.099 -0.2060  0.2412  0.4012
  264MOL0     C36296   3.414   6.774   5.039  0.3164  0.0182 -0.0725
  264MOL0     O36297   3.475   6.646   5.052  0.0683  0.0072 -0.5636
  264MOL0     C36298   3.577   6.626   5.148  0.1106  0.1609  0.1327
  264MOL0     C36299   3.588   6.685   5.269  0.5686  0.6496 -0.0821
  264MOL0     C36300   3.689   6.646   5.359 -0.5967 -0.3775 -0.8651
  264MOL0     C36301   3.776   6.541   5.332  0.0659 -0.4237 -0.8316
  264MOL0     O36302   3.882   6.507   5.409 -0.2277 -0.0902  0.4825
  264MOL0     C36303   3.958   6.619   5.463 -0.4073 -0.2332 -0.6741
  264MOL0     C36304   3.990   6.583   5.606 -0.0694 -0.5782 -0.5038
  264MOL0     C36305   4.097   6.473   5.609  0.6473  0.6968 -0.0231
  264MOL0     C36306   4.096   6.421   5.756  0.1800  0.1150 -0.0333
  264MOL0     C36307   4.206   6.321   5.774 -0.8201 -0.5943 -0.1425
  264MOL0     C36308   4.179   6.222   5.904  0.6491 -0.3922  0.4417
  264MOL0     C36309   4.301   6.140   5.931 -0.8618  0.3367  0.3070
  264MOL0     C36310   4.290   6.056   6.052 -0.5305  0.3802  0.3309
  264MOL0     N36311   4.426   6.024   6.088  0.2493  0.8126 -0.9063
  264MOL0     C36312   4.488   5.900   6.065  0.8693  0.0061  0.2365
  264MOL0     C36313   4.606   5.913   6.140  1.0159  0.1236  0.0624
  264MOL0     C36314   4.716   5.804   6.144 -0.4766  0.1961 -0.3491
  264MOL0     C36315   4.861   5.864   6.151 -0.0880 -0.0557  0.4884
  264MOL0     C36316   4.976   5.771   6.137 -0.2168  0.0975  0.1017
  264MOL0     C36317   5.114   5.830   6.126 -0.3633 -0.3946  0.0246
  264MOL0     O36318   5.130   5.953   6.048 -0.4450 -0.3892 -0.4388
  264MOL0     C36319   5.255   6.005   6.034 -0.2384 -0.5524 -0.8368
  264MOL0     C36320   5.263   6.110   5.948  0.1999  0.2771  0.4089
  264MOL0     C36321   5.387   6.169   5.918 -0.9297  0.6033 -0.2220
  264MOL0     C36322   5.392   6.291   5.825 -0.0102 -0.0600  0.0061
  264MOL0     C36323   5.505   6.122   5.989 -0.6539  0.4467 -0.5755
  264MOL0     C36324   5.644   6.178   5.952  0.3411 -1.3261 -0.2167
  264MOL0     O36325   5.735   6.176   6.060 -0.6033 -0.4690  0.7255
  264MOL0     C36326   5.857   6.240   6.030  0.6657 -1.3102 -1.0649
  264MOL0     C36327   5.850   6.375   6.006 -0.4210 -0.9670  0.4448
  264MOL0     C36328   5.972   6.452   5.995 -0.0077 -0.2762  0.6622
  264MOL0     C36329   6.093   6.388   5.999 -0.4373 -0.1578  0.2810
  264MOL0     O36330   6.208   6.465   5.978 -0.8382 -0.5439 -0.0940
  264MOL0     C36331   6.326   6.407   6.026  0.0982  0.5848 -0.7462
  264MOL0     C36332   6.422   6.350   5.934 -0.5858 -0.4271 -0.3473
  264MOL0     C36333   6.563   6.335   5.995  0.0562  0.4212  0.4034
  264MOL0     C36334   6.661   6.279   5.881  0.7390 -0.0236  0.1571
  264MOL0     C36335   6.801   6.339   5.896  0.1516 -0.0884  0.4236
  264MOL0     C36336   6.902   6.249   5.813 -0.6216 -0.1910 -1.1097
  264MOL0     C36337   6.911   6.290   5.661  0.6046 -0.2416 -0.7228
  264MOL0     C36338   6.794   6.258   5.572  0.1865 -0.2343 -0.6537
  264MOL0    Cl36339   6.848   6.267   5.407 -0.4304 -0.1253  0.2641
  264MOL0     C36340   6.091   6.252   6.019 -0.5931  0.3641 -0.0306
  264MOL0     C36341   5.977   6.182   6.043 -0.3656 -0.0357  0.0228
  264MOL0     O36342   5.668   6.210   5.838  0.3147  0.1652  0.0150
  264MOL0     C36343   5.492   6.026   6.086  0.6910 -0.2209 -1.0442
  264MOL0     C36344   5.370   5.962   6.107  0.3040  0.1625  0.2087
  264MOL0     N36345   4.613   6.035   6.204  0.1564 -0.7229 -0.6276
  264MOL0     N36346   4.507   6.104   6.178  0.1969  0.5683 -0.0901
  264MOL0     C36347   3.767   6.476   5.209 -0.1401  0.2178 -0.6515
  264MOL0     C36348   3.664   6.512   5.120 -0.4402 -1.1840 -0.5364
  264MOL0     C36349   3.301   6.784   4.946  0.2319 -0.3694  0.5490
  264MOL0     C36350   3.193   6.868   4.980  0.6372 -0.3029  0.3488
  264MOL0     C36351   3.083   6.883   4.898 -0.6911 -0.8472 -0.3801
  264MOL0     C36352   3.067   6.799   4.786 -0.2209 -0.6917 -0.0888
  264MOL0     O36353   2.947   6.808   4.714  0.9699  0.2638  0.1077
  264MOL0     C36354   2.923   6.733   4.591 -0.2810 -0.4096  0.5246
  264MOL0     C36355   2.782   6.764   4.544  0.2192 -0.2716  0.6497
  264MOL0     C36356   2.665   6.708   4.632  0.5882  0.2768 -0.5238
  264MOL0     C36357   2.538   6.781   4.590  0.3710 -0.2331  0.5138
  264MOL0     C36358   2.414   6.700   4.609 -0.2320  0.2105  0.4490
  264MOL0     C36359   2.326   6.619   4.624  0.2407  0.2352 -0.4965
  264MOL0     C36360   3.176   6.716   4.745  0.9838  0.3581 -0.5368
  264MOL0     C36361   3.294   6.702   4.824  0.3676  0.3812  0.4308
  264MOL0     C36362   3.413   6.616   4.778  0.6916  0.2368  0.4327
  264MOL0     H36363   3.521   6.756   5.316  1.8615  2.6542 -1.1381
  264MOL0     H36364   3.694   6.701   5.452 -0.6301  0.7228 -1.4992
  264MOL0     H36365   3.923   6.722   5.453  0.3376  0.0287 -0.6728
  264MOL0     H36366   4.054   6.623   5.411  0.3883 -2.7500  0.4201
  264MOL0     H36367   4.020   6.679   5.649 -0.7708 -0.8611  0.6585
  264MOL0     H36368   3.899   6.548   5.655  0.8113 -2.6798 -0.2595
  264MOL0     H36369   4.078   6.393   5.537 -0.9995  1.8434 -0.9063
  264MOL0     H36370   4.191   6.516   5.574  0.7863 -1.3322 -2.4219
  264MOL0     H36371   4.101   6.507   5.822 -0.6300  0.5609 -0.5393
  264MOL0     H36372   4.001   6.368   5.769  0.9339 -1.3775 -0.3716
  264MOL0     H36373   4.296   6.381   5.791 -2.0922  1.1988  0.4397
  264MOL0     H36374   4.232   6.271   5.680  0.9006 -0.5168  0.2468
  264MOL0     H36375   4.146   6.283   5.988  2.3307  1.0216  0.1367
  264MOL0     H36376   4.096   6.155   5.882  1.1957 -1.4352  1.4335
  264MOL0     H36377   4.383   6.208   5.956 -0.9180  0.5745 -0.1415
  264MOL0     H36378   4.330   6.086   5.840 -0.8886  2.7363 -1.1998
  264MOL0     H36379   4.244   6.093   6.144 -0.2117 -1.6285  1.3621
  264MOL0     H36380   4.237   5.964   6.023 -0.7584  0.3207  0.9288
  264MOL0     H36381   4.451   5.810   6.017 -4.7329  1.4718  1.1593
  264MOL0     H36382   4.698   5.761   6.045 -0.2817  2.2445 -1.3258
  264MOL0     H36383   4.702   5.730   6.224  0.2896  0.7570  0.3238
  264MOL0     H36384   4.869   5.924   6.060  1.0783 -1.2088 -0.2100
  264MOL0     H36385   4.867   5.925   6.241 -1.5373  1.2258 -0.2308
  264MOL0     H36386   4.975   5.708   6.227 -0.7531  0.5193  0.3996
  264MOL0     H36387   4.966   5.713   6.045  4.4134  0.6650 -1.0266
  264MOL0     H36388   5.158   5.856   6.223 -2.1270  4.6974 -0.1966
  264MOL0     H36389   5.170   5.749   6.078  2.1855  0.2813  1.6634
  264MOL0     H36390   5.169   6.126   5.895 -0.2138 -1.8678  0.4135
  264MOL0     H36391   5.290   6.298   5.785 -0.2005 -0.7416  0.3611
  264MOL0     H36392   5.449   6.258   5.737 -0.4069 -2.5315  0.6008
  264MOL0     H36393   5.441   6.381   5.864  1.0278  1.0432 -3.4448
  264MOL0     H36394   5.753   6.422   5.989  1.5550  3.1397 -0.5949
  264MOL0     H36395   5.973   6.559   5.978 -0.0845  0.2128  3.2263
  264MOL0     H36396   6.382   6.491   6.067  0.2478 -0.5984  1.6210
  264MOL0     H36397   6.305   6.341   6.111 -2.4869  4.3712  1.8659
  264MOL0     H36398   6.387   6.249   5.910 -2.5519 -0.2918  1.6410
  264MOL0     H36399   6.418   6.419   5.850 -0.2281 -0.0115 -0.0296
  264MOL0     H36400   6.548   6.268   6.081 -2.3466  0.9324  0.4680
  264MOL0     H36401   6.592   6.434   6.031  0.7448  0.5619 -0.5105
  264MOL0     H36402   6.624   6.308   5.782 -0.0083  1.5859  0.8620
  264MOL0     H36403   6.661   6.170   5.878  0.1215 -0.2140  3.3825
  264MOL0     H36404   6.810   6.443   5.861  1.6362 -0.4204 -0.2554
  264MOL0     H36405   6.833   6.343   6.001  1.2200 -0.0345  0.1023
  264MOL0     H36406   6.861   6.148   5.816 -1.0189 -0.0127  0.5133
  264MOL0     H36407   7.001   6.255   5.860 -1.3851 -1.7591  0.8484
  264MOL0     H36408   6.999   6.239   5.621 -0.2934 -2.2185 -0.2598
  264MOL0     H36409   6.939   6.396   5.649  0.1674  0.2396  1.9545
  264MOL0     H36410   6.704   6.317   5.589  1.6630  1.7135  1.0568
  264MOL0     H36411   6.768   6.152   5.574 -2.0515  0.2664  1.1441
  264MOL0     H36412   6.184   6.198   6.001 -1.2106  0.1505 -3.1993
  264MOL0     H36413   5.985   6.076   6.066 -2.0489  0.1127  1.5354
  264MOL0     H36414   5.583   5.987   6.130 -0.3259  0.2564  1.6132
  264MOL0     H36415   5.353   5.869   6.159 -4.4737  0.1486 -0.8733
  264MOL0     H36416   3.828   6.391   5.182 -2.5585 -2.0811  0.6232
  264MOL0     H36417   3.655   6.447   5.034  1.6703 -4.0816  1.2259
  264MOL0     H36418   3.195   6.932   5.068  1.2356  0.8432 -0.4716
  264MOL0     H36419   3.021   6.966   4.929 -0.7087 -0.9502 -0.1379
  264MOL0     H36420   2.986   6.777   4.513 -0.8693 -0.8072 -0.1905
  264MOL0     H36421   2.942   6.627   4.608  2.5768  0.2481  2.0874
  264MOL0     H36422   2.776   6.726   4.441  1.6101  1.4895 -0.1369
  264MOL0     H36423   2.771   6.872   4.532 -0.8387 -0.5781 -1.7791
  264MOL0     H36424   2.655   6.601   4.609  0.5692  0.5093 -1.6538
  264MOL0     H36425   2.687   6.718   4.738  5.4529 -0.3591 -1.2360
  264MOL0     H36426   2.531   6.789   4.481  0.7811 -0.5235  0.4605
  264MOL0     H36427   2.535   6.877   4.641 -0.7950 -0.1216  0.2572
  264MOL0     H36428   2.259   6.536   4.636  2.3145 -2.0654 -3.2505
  264MOL0     H36429   3.164   6.645   4.663  0.2986  1.4228 -1.3869
  264MOL0     H36430   3.398   6.513   4.812  5.2620 -0.6943  0.3239
  264MOL0     H36431   3.416   6.614   4.669 -3.1347 -1.6024  0.2012
  264MOL0     H36432   3.509   6.658   4.811  0.3310  0.3969  1.3231
  265MOL0     O36433   3.645   5.187   1.292  0.3996  0.0901  1.0252
  265MOL0     C36434   3.657   5.214   1.408  0.7502  0.0022 -0.8017
  265MOL0     O36435   3.757   5.289   1.467 -0.1373  0.4835 -0.1294
  265MOL0     C36436   3.853   5.357   1.400 -1.2846  0.2746  0.0457
  265MOL0     C36437   3.981   5.346   1.455 -0.1108  0.3112 -0.2643
  265MOL0     C36438   4.087   5.413   1.398 -0.5393  0.2112 -1.0105
  265MOL0     C36439   4.070   5.496   1.285 -0.5226 -0.1512  0.6107
  265MOL0     O36440   4.166   5.567   1.222  0.2174 -0.3998  0.1977
  265MOL0     C36441   4.305   5.541   1.239 -0.5564  1.0351  0.6899
  265MOL0     C36442   4.384   5.639   1.152 -0.3654 -0.0473  0.6458
  265MOL0     C36443   4.536   5.596   1.134  0.0514  0.1318  0.2978
  265MOL0     C36444   4.541   5.477   1.027 -0.5034  0.0964 -0.4717
  265MOL0     C36445   4.689   5.428   1.021 -0.8973 -0.1734 -0.3364
  265MOL0     C36446   4.782   5.528   0.956  0.2490 -0.5017  0.7312
  265MOL0     C36447   4.922   5.476   0.929 -0.4720  0.3013  0.4756
  265MOL0     C36448   5.015   5.599   0.890  0.7601  0.0971  0.0753
  265MOL0     N36449   5.158   5.594   0.934  0.2982  0.4056 -0.3940
  265MOL0     C36450   5.246   5.499   0.899  0.0980  0.0654  0.1770
  265MOL0     C36451   5.352   5.520   0.976 -0.8083  0.1269 -0.5474
  265MOL0     C36452   5.470   5.424   0.978  0.0560 -0.9271  0.2174
  265MOL0     C36453   5.579   5.487   1.058  0.1049 -0.9346  0.1078
  265MOL0     C36454   5.697   5.383   1.070  0.1914 -0.0746  0.0421
  265MOL0     C36455   5.805   5.435   1.160  0.1968 -0.1936  0.6069
  265MOL0     O36456   5.839   5.561   1.111 -0.1505 -0.0445  0.2118
  265MOL0     C36457   5.968   5.617   1.126 -0.2391  0.7354 -0.4307
  265MOL0     C36458   5.992   5.712   1.036  0.4508  0.3612  0.9647
  265MOL0     C36459   6.118   5.776   1.040 -0.0178  0.6399  0.6414
  265MOL0     C36460   6.144   5.884   0.940 -1.3358  0.6664 -0.0771
  265MOL0     C36461   6.225   5.731   1.127  0.2472 -0.1070 -0.0546
  265MOL0     C36462   6.363   5.784   1.118 -0.7932 -0.0158 -0.3615
  265MOL0     O36463   6.407   5.862   1.021  0.1567 -0.3796 -0.1355
  265MOL0     C36464   6.539   5.876   1.005  0.9841 -0.2272 -0.4169
  265MOL0     C36465   6.619   5.983   1.055  0.3847 -0.6490  0.0797
  265MOL0     C36466   6.751   5.988   1.012 -0.9968 -0.5285  0.6054
  265MOL0     C36467   6.816   5.904   0.921  0.8550 -0.1087 -0.9631
  265MOL0     O36468   6.944   5.922   0.886 -0.2181 -0.6418 -0.3253
  265MOL0     C36469   7.026   5.807   0.847 -0.6362  0.1929  0.3351
  265MOL0     C36470   7.020   5.812   0.690 -0.0664  0.2027  0.0986
  265MOL0     C36471   7.138   5.753   0.622  0.0900  0.6118 -0.7263
  265MOL0     C36472   7.151   5.603   0.661 -0.1210 -0.1431 -0.3989
  265MOL0     C36473   7.266   5.523   0.594 -0.1732 -0.1527 -0.3152
  265MOL0     C36474   7.395   5.533   0.674 -0.2118 -0.2260  0.3189
  265MOL0     C36475   7.501   5.435   0.623 -0.2807  0.3421  0.6946
  265MOL0     C36476   7.619   5.434   0.722  0.1541  0.7365  0.3889
  265MOL0    Cl36477   7.571   5.365   0.878 -0.1789 -0.0821  0.1972
  265MOL0     C36478   6.735   5.791   0.883  0.0864 -0.6585 -0.4816
  265MOL0     C36479   6.599   5.779   0.923  0.0812  0.1911  0.4795
  265MOL0     O36480   6.436   5.744   1.206  0.4161  0.1692  0.2756
  265MOL0     C36481   6.184   5.635   1.220 -0.2258  0.0992  1.1764
  265MOL0     C36482   6.058   5.579   1.216 -0.7746  1.1130 -0.2399
  265MOL0     N36483   5.336   5.630   1.057 -0.2906  0.0005  0.6158
  265MOL0     N36484   5.216   5.673   1.024  0.6724 -0.2818  0.4499
  265MOL0     C36485   3.941   5.495   1.223  0.2946 -0.4415 -0.8881
  265MOL0     C36486   3.827   5.430   1.284 -1.3517  0.2053  0.0043
  265MOL0     C36487   3.565   5.138   1.500  0.0882 -0.4506 -0.1174
  265MOL0     C36488   3.579   5.158   1.637  0.0079 -0.1389 -0.4721
  265MOL0     C36489   3.497   5.090   1.732  0.4924 -0.8451  0.0958
  265MOL0     C36490   3.393   5.002   1.699 -0.3112  0.4166  0.7807
  265MOL0     O36491   3.322   4.934   1.797 -0.0350 -0.3411  0.2711
  265MOL0     C36492   3.242   4.815   1.766  0.6669 -0.3457  0.5113
  265MOL0     C36493   3.102   4.861   1.737  1.0878  0.0831  0.2664
  265MOL0     C36494   3.027   4.888   1.859 -0.0558  0.1481 -0.3174
  265MOL0     C36495   2.879   4.925   1.848  0.3637  1.3826  0.3776
  265MOL0     C36496   2.801   4.822   1.774 -0.3300 -1.1439 -0.1434
  265MOL0     C36497   2.732   4.746   1.709  0.2950 -0.4719  0.7428
  265MOL0     C36498   3.392   4.962   1.567 -0.1051 -0.0456  0.2054
  265MOL0     C36499   3.466   5.034   1.463 -0.2401  0.9383 -0.6538
  265MOL0     C36500   3.453   4.986   1.316 -0.2957 -0.7479 -0.1145
  265MOL0     H36501   4.011   5.289   1.542  1.4906  2.9443  1.0106
  265MOL0     H36502   4.188   5.394   1.434 -0.8658 -2.6732 -1.3382
  265MOL0     H36503   4.320   5.436   1.213 -0.6077  0.9576  0.9719
  265MOL0     H36504   4.331   5.560   1.344  2.7340 -2.4089  0.7144
  265MOL0     H36505   4.336   5.673   1.060  3.4884  4.9562  0.0794
  265MOL0     H36506   4.389   5.731   1.210  0.2245  0.3696 -0.0453
  265MOL0     H36507   4.585   5.685   1.093 -0.1079 -0.1111 -0.4379
  265MOL0     H36508   4.591   5.578   1.227 -2.5958  0.5193  2.0740
  265MOL0     H36509   4.479   5.395   1.065  2.7735 -2.8629 -1.0293
  265MOL0     H36510   4.501   5.508   0.930  1.0907  3.9332 -0.0951
  265MOL0     H36511   4.700   5.333   0.967  1.0218  0.5295 -1.2655
  265MOL0     H36512   4.717   5.416   1.126 -0.1979  2.6827 -0.1309
  265MOL0     H36513   4.729   5.567   0.869  1.3768 -3.0573 -1.2118
  265MOL0     H36514   4.787   5.608   1.030  0.6586 -1.8844  2.2702
  265MOL0     H36515   4.919   5.393   0.859  2.7521  1.2232 -0.9635
  265MOL0     H36516   4.964   5.430   1.019  0.4820  0.9157  0.3627
  265MOL0     H36517   5.000   5.613   0.782 -1.5458 -1.3380  0.1333
  265MOL0     H36518   4.983   5.684   0.952  1.5146  0.0575  0.5290
  265MOL0     H36519   5.240   5.406   0.843  0.6187 -0.6313  1.2238
  265MOL0     H36520   5.505   5.407   0.875 -0.4207 -2.0774  0.2412
  265MOL0     H36521   5.444   5.323   1.010  2.0833 -1.5267  0.1177
  265MOL0     H36522   5.602   5.588   1.024  2.2148 -1.2491  0.4637
  265MOL0     H36523   5.529   5.495   1.155 -2.1071  2.4114 -1.1422
  265MOL0     H36524   5.661   5.289   1.113  1.4534  0.6095  2.8386
  265MOL0     H36525   5.730   5.370   0.967  0.1625  0.4124 -0.0311
  265MOL0     H36526   5.761   5.449   1.259 -1.7126  0.8318 -0.3309
  265MOL0     H36527   5.890   5.367   1.174  0.6483  0.5882  1.8944
  265MOL0     H36528   5.903   5.735   0.977  0.3761 -2.4179 -0.1532
  265MOL0     H36529   6.054   5.893   0.877 -0.6282  0.0850 -1.2097
  265MOL0     H36530   6.227   5.859   0.873  0.7654  0.7983  2.3610
  265MOL0     H36531   6.172   5.982   0.978 -3.4260  1.6779 -0.9877
  265MOL0     H36532   6.578   6.056   1.124  2.5739 -0.3220  1.1216
  265MOL0     H36533   6.809   6.065   1.062  0.8536 -1.0758 -0.5760
  265MOL0     H36534   7.130   5.820   0.881 -0.2020 -1.4316 -0.2640
  265MOL0     H36535   6.997   5.706   0.875 -0.9780 -0.3756 -1.8385
  265MOL0     H36536   6.925   5.766   0.662  0.2414  0.5884 -1.6845
  265MOL0     H36537   7.015   5.916   0.658  3.2675  0.8000  1.1305
  265MOL0     H36538   7.228   5.810   0.645  0.5127 -0.2882 -0.0951
  265MOL0     H36539   7.120   5.761   0.514  1.6478  3.1285 -0.8877
  265MOL0     H36540   7.063   5.546   0.630  0.3599 -0.7133 -0.7416
  265MOL0     H36541   7.152   5.594   0.770 -1.1025 -1.4846 -0.4758
  265MOL0     H36542   7.220   5.425   0.575 -2.0759  0.8608 -1.3067
  265MOL0     H36543   7.292   5.567   0.498 -0.1560 -0.4463 -0.4473
  265MOL0     H36544   7.361   5.519   0.777  0.9493  2.5127  1.1666
  265MOL0     H36545   7.434   5.635   0.668  1.0087 -0.6508  0.7208
  265MOL0     H36546   7.535   5.467   0.524  3.7935 -3.5673  0.5138
  265MOL0     H36547   7.451   5.338   0.615 -2.7636  1.5626  0.6252
  265MOL0     H36548   7.662   5.535   0.721 -2.6792  2.0238 -0.8066
  265MOL0     H36549   7.694   5.365   0.684 -0.7032  0.5689 -1.0812
  265MOL0     H36550   6.771   5.721   0.808  0.2293 -2.0953  0.8794
  265MOL0     H36551   6.534   5.706   0.875  1.0765  0.7112 -1.8281
  265MOL0     H36552   6.256   5.594   1.290 -0.2398 -1.4392  0.3317
  265MOL0     H36553   6.044   5.498   1.286  1.9366  0.1948 -0.6135
  265MOL0     H36554   3.930   5.566   1.141 -0.2401  0.9082  0.3147
  265MOL0     H36555   3.726   5.436   1.246 -0.3779  2.7192 -2.5348
  265MOL0     H36556   3.658   5.224   1.671  2.0317 -1.2422 -2.7175
  265MOL0     H36557   3.512   5.104   1.838  3.1629 -0.2522 -0.2874
  265MOL0     H36558   3.288   4.747   1.693 -1.3948  0.8495 -2.0728
  265MOL0     H36559   3.223   4.748   1.851  1.1539 -1.2726 -0.0896
  265MOL0     H36560   3.053   4.780   1.682 -0.4176  1.0271  0.1742
  265MOL0     H36561   3.112   4.951   1.676 -1.9032 -0.4383 -1.1901
  265MOL0     H36562   3.037   4.796   1.918  0.0714 -1.1109 -2.1985
  265MOL0     H36563   3.075   4.964   1.922 -0.8649 -0.4810  1.0989
  265MOL0     H36564   2.872   5.024   1.803  0.1481  2.4389  2.6043
  265MOL0     H36565   2.852   4.931   1.954  1.0651 -0.2575  0.6890
  265MOL0     H36566   2.674   4.680   1.647  0.4805  0.5633 -0.5748
  265MOL0     H36567   3.330   4.877   1.543  2.9958 -2.7669  1.0408
  265MOL0     H36568   3.391   4.895   1.312 -0.5931 -0.6340  1.3475
  265MOL0     H36569   3.393   5.051   1.253 -0.0751  1.3621  1.7182
  265MOL0     H36570   3.553   4.964   1.277  0.2989 -0.9464  1.4201
  266MOL0     O36571   0.372   3.517   6.274 -0.0139  0.0837 -0.3367
  266MOL0     C36572   0.375   3.589   6.373 -0.3819 -0.0168 -0.0965
  266MOL0     O36573   0.489   3.650   6.423 -0.3153 -0.2684 -0.0363
  266MOL0     C36574   0.614   3.621   6.365  0.3034  0.8926 -0.4881
  266MOL0     C36575   0.713   3.546   6.418 -0.1395  0.1651  0.1083
  266MOL0     C36576   0.833   3.507   6.351  1.0489 -0.1196  0.3998
  266MOL0     C36577   0.858   3.558   6.229 -0.2989 -0.1106  0.2209
  266MOL0     O36578   0.977   3.527   6.168 -0.5134 -0.6732 -0.5364
  266MOL0     C36579   1.004   3.546   6.026  0.7962  0.6020 -0.2584
  266MOL0     C36580   1.160   3.537   6.011 -0.5088 -0.8263  0.3332
  266MOL0     C36581   1.208   3.389   6.004  0.5101 -0.7818 -0.2231
  266MOL0     C36582   1.360   3.393   5.989 -0.9712 -1.1600  0.5307
  266MOL0     C36583   1.428   3.255   6.009 -1.0808 -0.9848  0.2189
  266MOL0     C36584   1.590   3.263   5.978  0.0176  0.5362 -0.1297
  266MOL0     C36585   1.651   3.127   6.012 -0.1051  0.0257  0.5813
  266MOL0     C36586   1.680   3.080   6.154 -0.2773 -0.2151 -0.0063
  266MOL0     N36587   1.788   3.150   6.223 -0.1226  0.5059 -0.1114
  266MOL0     C36588   1.870   3.250   6.178  0.2120  0.1082  0.4541
  266MOL0     C36589   1.916   3.314   6.291 -1.3289 -0.7091 -0.1217
  266MOL0     C36590   2.017   3.435   6.305 -0.1199 -0.5324  0.5041
  266MOL0     C36591   2.163   3.382   6.298  0.3205  0.1330 -0.4177
  266MOL0     C36592   2.203   3.325   6.167  0.5472 -0.1392 -0.4420
  266MOL0     C36593   2.165   3.402   6.039 -0.2816 -0.2263  0.3911
  266MOL0     O36594   2.217   3.536   6.041  0.1112  0.2322 -0.2346
  266MOL0     C36595   2.352   3.554   6.070  0.2435 -0.0716 -0.5246
  266MOL0     C36596   2.387   3.663   6.151  0.6441  0.4846  0.4807
  266MOL0     C36597   2.517   3.686   6.194 -0.2978 -0.2033  0.2888
  266MOL0     C36598   2.532   3.786   6.304  0.7558 -0.2160 -1.1757
  266MOL0     C36599   2.616   3.596   6.154 -0.6798  0.3504  0.0029
  266MOL0     C36600   2.764   3.599   6.183  0.0850  0.1526 -1.6331
  266MOL0     O36601   2.792   3.659   6.301  0.2861 -0.3083 -0.2311
  266MOL0     C36602   2.918   3.664   6.352  0.0472 -0.3605  0.2812
  266MOL0     C36603   2.934   3.764   6.447  0.7020 -0.6500  0.5899
  266MOL0     C36604   3.048   3.781   6.522 -0.3693  0.2348 -0.9945
  266MOL0     C36605   3.160   3.700   6.500 -0.7452  0.6231  0.3359
  266MOL0     O36606   3.281   3.707   6.576  0.4532 -0.4627  0.1406
  266MOL0     C36607   3.279   3.790   6.698 -0.3540  0.3732 -0.6009
  266MOL0     C36608   3.415   3.787   6.778  0.3800  0.7744 -0.4118
  266MOL0     C36609   3.528   3.852   6.690  0.5909 -0.2687  0.5858
  266MOL0     C36610   3.668   3.775   6.683 -0.8064  0.4408 -1.6121
  266MOL0     C36611   3.752   3.835   6.580  0.2718  0.2238  0.3090
  266MOL0     C36612   3.861   3.738   6.541 -0.0410 -0.5397 -0.4708
  266MOL0     C36613   3.956   3.680   6.657  1.2371  0.5932  0.6088
  266MOL0     C36614   4.044   3.569   6.608  1.0195  0.5501  0.1036
  266MOL0    Cl36615   4.196   3.555   6.716 -0.1463  0.1583  0.2067
  266MOL0     C36616   3.149   3.591   6.409 -0.6906 -0.5356 -0.1343
  266MOL0     C36617   3.031   3.581   6.328  0.3959 -0.4395 -0.5110
  266MOL0     O36618   2.850   3.554   6.110  0.4486 -0.2068 -0.9809
  266MOL0     C36619   2.586   3.486   6.077  0.8634  0.0949  0.0365
  266MOL0     C36620   2.450   3.463   6.030 -0.4862  0.1734  0.1916
  266MOL0     N36621   1.859   3.254   6.400  0.2045  0.0688 -0.0044
  266MOL0     N36622   1.797   3.152   6.355  0.5745  1.1704 -0.0183
  266MOL0     C36623   0.768   3.647   6.174  0.2882 -0.2401  0.4892
  266MOL0     C36624   0.644   3.678   6.243  0.1148 -0.6001  0.0112
  266MOL0     C36625   0.257   3.596   6.462 -0.1245  0.0082  0.3960
  266MOL0     C36626   0.276   3.622   6.607  0.4558 -1.0435  0.2098
  266MOL0     C36627   0.170   3.623   6.697 -0.0537  0.3230 -0.4254
  266MOL0     C36628   0.045   3.596   6.656  0.3664  0.0974  0.5367
  266MOL0     O36629  -0.058   3.602   6.753 -1.1243 -0.3337 -0.1508
  266MOL0     C36630  -0.190   3.556   6.726  0.1363 -0.7514  0.7774
  266MOL0     C36631  -0.281   3.526   6.845  0.7940 -0.6169  0.0316
  266MOL0     C36632  -0.320   3.663   6.923  0.2340  0.4931  0.3278
  266MOL0     C36633  -0.470   3.698   6.931  0.6341 -0.2404  0.7729
  266MOL0     C36634  -0.538   3.583   6.998 -0.7869  0.4803  0.1687
  266MOL0     C36635  -0.597   3.477   7.029 -0.0575 -0.1084  0.3848
  266MOL0     C36636   0.026   3.576   6.518  0.0385 -0.3417 -0.1594
  266MOL0     C36637   0.124   3.581   6.420 -0.0207 -0.1406  0.1758
  266MOL0     C36638   0.083   3.562   6.280  0.1387  0.8623  0.3447
  266MOL0     H36639   0.698   3.488   6.508 -0.3165  0.3540  0.2031
  266MOL0     H36640   0.892   3.431   6.401 -0.1932  0.2189  2.4605
  266MOL0     H36641   0.958   3.637   5.987 -1.8009  0.4487  2.0903
  266MOL0     H36642   0.969   3.468   5.958  1.4429 -0.5935  0.7476
  266MOL0     H36643   1.198   3.594   5.925 -0.1185 -1.4326  0.1044
  266MOL0     H36644   1.211   3.585   6.095 -0.7982 -1.4979  0.9016
  266MOL0     H36645   1.179   3.334   6.094 -3.0826  0.8898 -0.1817
  266MOL0     H36646   1.159   3.345   5.917  0.5447 -1.5856  0.1569
  266MOL0     H36647   1.383   3.432   5.889 -2.0284  0.0691  0.7423
  266MOL0     H36648   1.399   3.468   6.059  0.3851  1.2793 -2.5724
  266MOL0     H36649   1.395   3.193   5.926  0.8799  0.5013 -1.7748
  266MOL0     H36650   1.418   3.207   6.107  0.5827 -1.0755  0.3667
  266MOL0     H36651   1.601   3.288   5.872 -3.7403  1.1468 -0.5187
  266MOL0     H36652   1.637   3.350   6.025 -1.6709  1.1704  0.4543
  266MOL0     H36653   1.743   3.127   5.953  0.9703 -4.1601  1.8949
  266MOL0     H36654   1.597   3.046   5.961  0.1393 -0.5506  1.2200
  266MOL0     H36655   1.587   3.085   6.210 -0.3894 -3.6653  0.3445
  266MOL0     H36656   1.717   2.977   6.147  0.7726  0.1257  0.3583
  266MOL0     H36657   1.886   3.281   6.076  3.5724  2.9520  1.6744
  266MOL0     H36658   2.002   3.486   6.401 -0.5792  1.1654 -0.4437
  266MOL0     H36659   1.999   3.499   6.218  1.0234  0.6990  1.1343
  266MOL0     H36660   2.221   3.474   6.312  1.0098  0.0089 -2.1546
  266MOL0     H36661   2.176   3.316   6.384 -3.5965  0.3390  0.5122
  266MOL0     H36662   2.310   3.306   6.172  0.3405 -1.6997 -1.2960
  266MOL0     H36663   2.169   3.222   6.152  2.9201 -0.7446 -2.2474
  266MOL0     H36664   2.210   3.365   5.946 -1.2378 -0.5262  0.0378
  266MOL0     H36665   2.057   3.401   6.024 -0.2744  1.5406 -0.0537
  266MOL0     H36666   2.309   3.730   6.187 -0.8624 -1.7326  1.6093
  266MOL0     H36667   2.506   3.741   6.400 -1.7074  0.8985 -1.2320
  266MOL0     H36668   2.447   3.854   6.302 -0.2081 -1.3631 -0.7975
  266MOL0     H36669   2.628   3.838   6.308  1.8488 -1.8497 -3.5850
  266MOL0     H36670   2.851   3.832   6.464  2.3248  1.6950 -0.3742
  266MOL0     H36671   3.047   3.862   6.593 -0.5894 -0.2783 -0.4077
  266MOL0     H36672   3.257   3.893   6.667 -1.5233  0.4161  0.3341
  266MOL0     H36673   3.207   3.757   6.773 -0.2543 -0.7195 -0.9676
  266MOL0     H36674   3.396   3.840   6.871  1.6095  0.8837 -0.2170
  266MOL0     H36675   3.434   3.682   6.800 -0.6321  0.2175 -1.9920
  266MOL0     H36676   3.542   3.954   6.728  0.0031  0.8193 -1.8766
  266MOL0     H36677   3.483   3.861   6.591  0.1170 -0.4635  0.7815
  266MOL0     H36678   3.628   3.679   6.649 -0.6825 -0.2770  0.1390
  266MOL0     H36679   3.722   3.767   6.778 -0.2074 -2.8990 -2.0909
  266MOL0     H36680   3.694   3.858   6.491  0.4035 -2.5543 -0.6127
  266MOL0     H36681   3.789   3.929   6.623 -0.6908  1.8425 -2.2211
  266MOL0     H36682   3.912   3.805   6.471 -1.0051  0.5598 -0.1493
  266MOL0     H36683   3.817   3.654   6.486 -0.5597 -0.8655  0.4350
  266MOL0     H36684   3.892   3.638   6.735 -0.7167  1.8265 -0.2315
  266MOL0     H36685   4.018   3.760   6.698  1.2956  0.3331  1.0382
  266MOL0     H36686   4.066   3.587   6.503  0.0041 -0.6730 -0.3364
  266MOL0     H36687   3.976   3.483   6.611 -1.8265  2.4631 -2.8833
  266MOL0     H36688   3.239   3.536   6.383 -1.4699 -2.4864  1.0489
  266MOL0     H36689   3.034   3.494   6.262 -0.0799 -0.8615  0.0114
  266MOL0     H36690   2.664   3.414   6.053 -0.2412 -0.7152 -1.2556
  266MOL0     H36691   2.429   3.374   5.972 -0.9453  1.9462 -2.5309
  266MOL0     H36692   0.783   3.705   6.084 -2.4652 -0.5565 -0.2765
  266MOL0     H36693   0.573   3.745   6.196  2.8581  2.8201  0.2734
  266MOL0     H36694   0.375   3.634   6.650 -0.2175 -0.7969  1.7586
  266MOL0     H36695   0.194   3.637   6.802  0.4227 -1.0341 -0.3365
  266MOL0     H36696  -0.240   3.631   6.664  2.0077 -2.0230 -2.5180
  266MOL0     H36697  -0.192   3.467   6.662 -1.3539  0.0703 -0.3650
  266MOL0     H36698  -0.232   3.453   6.909  2.8257 -0.8029 -1.6238
  266MOL0     H36699  -0.363   3.469   6.802  2.0260 -1.4816 -1.2674
  266MOL0     H36700  -0.280   3.645   7.023 -0.3581 -3.8866  0.0009
  266MOL0     H36701  -0.265   3.753   6.893 -0.1443  1.3622  2.0786
  266MOL0     H36702  -0.520   3.720   6.837  1.4624 -2.5670 -0.2868
  266MOL0     H36703  -0.472   3.785   6.997  1.5633  0.7291 -0.4303
  266MOL0     H36704  -0.666   3.395   7.036 -0.9170  0.7318  2.6880
  266MOL0     H36705  -0.071   3.552   6.476  0.5116  0.1931 -1.6138
  266MOL0     H36706   0.120   3.463   6.254  2.1710  1.2455  1.5423
  266MOL0     H36707  -0.025   3.558   6.261  0.7024  0.6034 -3.7953
  266MOL0     H36708   0.125   3.642   6.218  1.6940  2.3230  3.0956
  267MOL0     O36709   2.523   8.502   9.219 -0.3296 -0.4456 -0.1905
  267MOL0     C36710   2.517   8.586   9.311  0.8104 -0.2056  0.0075
  267MOL0     O36711   2.624   8.649   9.365  0.0596 -0.0025  0.1025
  267MOL0     C36712   2.746   8.624   9.299 -0.1197 -0.0968 -0.9349
  267MOL0     C36713   2.827   8.727   9.257 -0.3427  0.4920  0.6443
  267MOL0     C36714   2.955   8.706   9.195  0.1242  0.3620  0.0094
  267MOL0     C36715   2.999   8.566   9.172 -0.1630 -0.7818 -0.6505
  267MOL0     O36716   3.127   8.538   9.130  0.3558 -0.0087 -0.0658
  267MOL0     C36717   3.156   8.408   9.066 -0.8532 -0.1071 -0.0055
  267MOL0     C36718   3.299   8.429   8.999  1.0789 -0.1184 -0.0825
  267MOL0     C36719   3.396   8.517   9.079 -0.2721 -0.0941 -0.3385
  267MOL0     C36720   3.531   8.520   9.001  0.1812  0.1745  0.2820
  267MOL0     C36721   3.618   8.623   9.074 -0.6487  0.1375  0.3270
  267MOL0     C36722   3.757   8.649   9.008 -0.1084 -0.0845  0.3000
  267MOL0     C36723   3.869   8.552   9.048 -0.1625  0.5238  0.6220
  267MOL0     C36724   3.980   8.577   8.944  0.5483  0.2501 -0.4764
  267MOL0     N36725   4.096   8.483   8.968 -0.6537  0.0241 -0.2286
  267MOL0     C36726   4.176   8.481   9.073 -0.3247  0.3689  0.2647
  267MOL0     C36727   4.241   8.358   9.064  0.8864 -0.7394 -0.6377
  267MOL0     C36728   4.336   8.314   9.172  0.0342  0.6414 -0.2468
  267MOL0     C36729   4.489   8.332   9.142  0.5603 -0.3149 -0.6638
  267MOL0     C36730   4.545   8.468   9.174  0.0616  0.2564  0.0592
  267MOL0     C36731   4.687   8.463   9.142 -0.3038 -0.1275 -0.1777
  267MOL0     O36732   4.749   8.592   9.168 -0.1521  0.8738  0.0128
  267MOL0     C36733   4.887   8.599   9.133 -0.5301  0.8674 -1.1089
  267MOL0     C36734   4.958   8.490   9.087 -1.3977  0.3535  0.0965
  267MOL0     C36735   5.095   8.498   9.051  0.6012 -0.2739 -0.0588
  267MOL0     C36736   5.166   8.370   9.013  0.4362  0.3430  0.4651
  267MOL0     C36737   5.164   8.617   9.052  0.1005  0.2132  0.8572
  267MOL0     C36738   5.305   8.638   9.023  0.3075  0.4069 -0.6377
  267MOL0     O36739   5.359   8.754   9.070  0.3786  0.6768 -0.0903
  267MOL0     C36740   5.489   8.782   9.040  0.5907 -0.1057  0.3170
  267MOL0     C36741   5.593   8.693   9.054 -0.6402 -0.9085 -0.5308
  267MOL0     C36742   5.723   8.738   9.023  0.2405 -0.0970 -0.0323
  267MOL0     C36743   5.756   8.874   9.011  0.2222  0.6638  0.6598
  267MOL0     O36744   5.886   8.910   8.998  0.3088 -0.5225 -0.4175
  267MOL0     C36745   5.907   9.028   9.079 -0.2002 -0.6529  0.6629
  267MOL0     C36746   6.057   9.050   9.097 -0.4361 -0.1794 -0.1983
  267MOL0     C36747   6.111   8.951   9.205 -0.3135 -0.4398  0.0592
  267MOL0     C36748   6.139   8.805   9.168  0.9276 -0.2624  0.0115
  267MOL0     C36749   6.250   8.784   9.063  0.7566  0.4483 -0.7929
  267MOL0     C36750   6.394   8.818   9.098  0.1754  0.3278 -0.4783
  267MOL0     C36751   6.439   8.768   9.234 -1.1340 -0.2253 -0.3644
  267MOL0     C36752   6.593   8.754   9.240  0.1533 -0.2629  0.1210
  267MOL0    Cl36753   6.652   8.675   9.388 -0.0715  0.1648  0.1089
  267MOL0     C36754   5.649   8.961   9.004  0.1993 -0.7962  0.6582
  267MOL0     C36755   5.518   8.916   9.008 -0.7176 -0.3896 -0.0445
  267MOL0     O36756   5.358   8.557   8.944  0.5084 -0.0466  1.0596
  267MOL0     C36757   5.093   8.738   9.092  0.6009  0.2476  0.9255
  267MOL0     C36758   4.960   8.720   9.135  0.6507 -0.3422  0.1951
  267MOL0     N36759   4.196   8.288   8.955 -0.1068  0.3675  0.4510
  267MOL0     N36760   4.115   8.375   8.895 -0.7266  0.4519  0.7756
  267MOL0     C36761   2.917   8.461   9.219 -0.6076 -0.3343  0.1793
  267MOL0     C36762   2.800   8.495   9.288  0.1969  0.2726  0.8658
  267MOL0     C36763   2.382   8.600   9.380 -0.9600  0.1153  0.1644
  267MOL0     C36764   2.376   8.692   9.490 -0.0100  0.1655  0.4798
  267MOL0     C36765   2.259   8.717   9.557 -0.2167  0.2671 -0.2412
  267MOL0     C36766   2.138   8.661   9.529  0.1363  0.3555 -0.4008
  267MOL0     O36767   2.019   8.692   9.591  0.8087  0.2772  0.2996
  267MOL0     C36768   2.010   8.775   9.709  0.5829 -0.9037 -0.2279
  267MOL0     C36769   2.075   8.705   9.835  0.4566 -0.0019  1.5015
  267MOL0     C36770   2.052   8.796   9.952 -0.1026 -0.0154 -0.7590
  267MOL0     C36771   2.090   8.722  10.075 -0.1554 -0.3196 -0.8264
  267MOL0     C36772   2.081   8.810  10.196 -0.2222  0.5550 -0.2483
  267MOL0     C36773   2.076   8.881  10.287 -0.1957 -0.2985 -0.3924
  267MOL0     C36774   2.141   8.572   9.423  0.7556 -0.0836  0.6155
  267MOL0     C36775   2.255   8.546   9.345  0.1233 -0.0832 -0.1548
  267MOL0     C36776   2.249   8.454   9.228 -0.9823  0.6553  0.1881
  267MOL0     H36777   2.779   8.825   9.257 -2.4407 -0.4124 -1.8417
  267MOL0     H36778   3.015   8.794   9.177  0.7510 -0.1893 -0.6310
  267MOL0     H36779   3.082   8.376   8.992  1.4547  0.0593 -2.5954
  267MOL0     H36780   3.162   8.337   9.149  1.9712  2.5426  2.2743
  267MOL0     H36781   3.324   8.325   8.975  1.9857 -0.1421  0.8933
  267MOL0     H36782   3.281   8.488   8.909  3.2610 -0.6058 -0.8949
  267MOL0     H36783   3.365   8.622   9.084  1.3658  0.3324  2.1435
  267MOL0     H36784   3.407   8.480   9.181 -0.1103  0.7584 -0.0422
  267MOL0     H36785   3.588   8.429   9.020  0.9459  0.3053 -1.2199
  267MOL0     H36786   3.525   8.542   8.894  0.8764 -0.4341  0.1126
  267MOL0     H36787   3.629   8.601   9.181  1.6101 -1.2084 -0.1191
  267MOL0     H36788   3.571   8.721   9.074  0.5088  0.7207 -0.3739
  267MOL0     H36789   3.741   8.636   8.901 -0.3880  0.5598  0.2601
  267MOL0     H36790   3.790   8.750   9.033 -0.2308  0.0398 -0.0428
  267MOL0     H36791   3.838   8.448   9.050  0.6615  0.2544 -0.0038
  267MOL0     H36792   3.901   8.581   9.149  1.0552  0.2858  0.3125
  267MOL0     H36793   3.943   8.565   8.842 -0.9364 -2.0675  0.2505
  267MOL0     H36794   4.014   8.677   8.971  0.9753 -0.7156  3.1521
  267MOL0     H36795   4.201   8.557   9.146  1.3850 -1.9322  2.2542
  267MOL0     H36796   4.321   8.206   9.186 -0.0690  0.6603 -0.2057
  267MOL0     H36797   4.317   8.358   9.270  0.2390 -0.6068  0.3743
  267MOL0     H36798   4.554   8.267   9.202  1.4020 -0.6103 -1.8380
  267MOL0     H36799   4.513   8.312   9.037  0.4391 -1.7119 -0.4442
  267MOL0     H36800   4.497   8.537   9.103 -0.8681 -2.2112 -1.9016
  267MOL0     H36801   4.520   8.485   9.279 -2.3342 -0.8529 -0.2527
  267MOL0     H36802   4.746   8.391   9.199 -0.2948 -0.8248 -1.0443
  267MOL0     H36803   4.715   8.447   9.038  2.5783  0.4446  0.4273
  267MOL0     H36804   4.918   8.389   9.077  1.6886 -0.8122 -2.2880
  267MOL0     H36805   5.103   8.283   9.038  0.0003  1.0879  2.1474
  267MOL0     H36806   5.253   8.355   9.077 -0.6763 -0.9677  1.7658
  267MOL0     H36807   5.199   8.376   8.909  0.2856  2.2502  0.4902
  267MOL0     H36808   5.585   8.593   9.094  0.6241 -0.9754 -0.4028
  267MOL0     H36809   5.805   8.667   9.030  0.2107 -0.1374 -0.0971
  267MOL0     H36810   5.857   9.111   9.029  1.1777 -1.5143 -2.3978
  267MOL0     H36811   5.861   9.012   9.177  0.4550  0.1579  1.1096
  267MOL0     H36812   6.105   9.033   9.000 -2.2870 -1.5637 -0.9233
  267MOL0     H36813   6.072   9.156   9.121 -0.4993 -0.1397 -0.3292
  267MOL0     H36814   6.028   8.949   9.276 -1.3174  1.5428 -0.9686
  267MOL0     H36815   6.197   8.995   9.255 -0.7366 -1.4059  1.7316
  267MOL0     H36816   6.050   8.747   9.142  1.6450 -1.8856  1.0165
  267MOL0     H36817   6.176   8.746   9.252  0.8969  0.7071  0.7142
  267MOL0     H36818   6.257   8.680   9.032 -0.0235 -0.0014  0.4664
  267MOL0     H36819   6.225   8.839   8.971 -2.5276  0.6920  0.1262
  267MOL0     H36820   6.415   8.925   9.086  1.3818 -0.0635 -2.2008
  267MOL0     H36821   6.455   8.767   9.023 -0.6105 -1.1749 -0.1381
  267MOL0     H36822   6.404   8.673   9.276  1.9631 -0.6405  1.6344
  267MOL0     H36823   6.421   8.839   9.316 -0.0061 -1.2897  0.8631
  267MOL0     H36824   6.626   8.858   9.234 -0.5769  0.1575  2.3928
  267MOL0     H36825   6.636   8.698   9.156  2.7787 -2.5650  2.7394
  267MOL0     H36826   5.662   9.068   8.995  0.7774 -0.9790 -1.0109
  267MOL0     H36827   5.433   8.983   8.997  0.9441  2.1423  1.4899
  267MOL0     H36828   5.139   8.836   9.088 -0.6371  0.8341  0.4299
  267MOL0     H36829   4.895   8.803   9.159  1.3634 -0.0250  1.0586
  267MOL0     H36830   2.949   8.359   9.202 -0.5675 -0.4884  1.1026
  267MOL0     H36831   2.742   8.409   9.318 -1.7120  1.8008  1.7693
  267MOL0     H36832   2.458   8.748   9.534  0.1686 -0.2014  0.6243
  267MOL0     H36833   2.259   8.780   9.645  0.0100 -0.7947  0.5335
  267MOL0     H36834   2.061   8.870   9.692 -2.1111  0.6224 -0.3994
  267MOL0     H36835   1.905   8.804   9.721  1.6015  4.0344 -1.1892
  267MOL0     H36836   2.177   8.670   9.818 -0.3035 -1.6666  0.0747
  267MOL0     H36837   2.009   8.619   9.846  1.1377 -1.0540 -1.5385
  267MOL0     H36838   2.111   8.888   9.941 -0.4144  0.6503  2.2809
  267MOL0     H36839   1.948   8.823   9.971 -0.0808 -1.9419  2.9485
  267MOL0     H36840   2.186   8.669  10.069  0.2522  0.1346  0.9898
  267MOL0     H36841   2.019   8.642  10.094 -2.9495  2.3696  1.1415
  267MOL0     H36842   2.084   8.953  10.366  0.6779 -1.0462  0.2169
  267MOL0     H36843   2.052   8.525   9.382  0.5896  2.5584 -2.4157
  267MOL0     H36844   2.152   8.425   9.187 -1.6172  0.4234  1.7907
  267MOL0     H36845   2.292   8.496   9.137 -0.0436  0.9649  0.7581
  267MOL0     H36846   2.309   8.366   9.254  0.1016  1.5301  0.7648
  268MOL0     O36847   3.250   6.965   0.194  0.0758 -0.3122  0.3130
  268MOL0     C36848   3.208   6.896   0.101  0.2230 -0.3469 -0.6291
  268MOL0     O36849   3.283   6.802   0.033 -0.4323 -0.4036 -0.7073
  268MOL0     C36850   3.419   6.786   0.065 -0.2354  0.1842  0.3154
  268MOL0     C36851   3.503   6.757  -0.044  0.0819  0.5915  0.1486
  268MOL0     C36852   3.638   6.716  -0.025  0.3389  0.5912 -0.2015
  268MOL0     C36853   3.687   6.705   0.103  0.2500 -0.1724 -0.3211
  268MOL0     O36854   3.822   6.680   0.123  0.1413  0.2549  0.8817
  268MOL0     C36855   3.870   6.689   0.257  0.0298  0.3718  0.5758
  268MOL0     C36856   4.021   6.652   0.256  0.1105  0.0043 -0.1205
  268MOL0     C36857   4.059   6.501   0.255 -0.1917  0.2079 -0.3593
  268MOL0     C36858   4.009   6.421   0.372  0.3472 -0.2159  0.0509
  268MOL0     C36859   4.007   6.270   0.325 -0.5823  0.0491  0.2563
  268MOL0     C36860   3.953   6.176   0.432  0.5509 -0.2251 -0.3687
  268MOL0     C36861   3.957   6.028   0.389  0.0804  0.0127 -0.7946
  268MOL0     C36862   4.100   5.987   0.352  0.2700  0.2905 -0.3113
  268MOL0     N36863   4.196   6.010   0.470  0.5608  0.3322  0.6472
  268MOL0     C36864   4.183   5.952   0.589 -0.0116  1.1912  0.5089
  268MOL0     C36865   4.284   6.004   0.667  1.1786 -0.1095  0.8283
  268MOL0     C36866   4.308   5.966   0.809 -0.4126  0.7643  0.1079
  268MOL0     C36867   4.461   5.973   0.835 -0.3067 -0.2595  0.1209
  268MOL0     C36868   4.484   5.993   0.987 -0.3061 -0.1371  0.2017
  268MOL0     C36869   4.634   5.958   1.018  0.3712 -0.1678  0.8566
  268MOL0     O36870   4.664   5.969   1.163  0.0301 -0.3714  0.1832
  268MOL0     C36871   4.798   5.971   1.191 -0.5635  0.4217  0.3363
  268MOL0     C36872   4.822   5.988   1.327  0.4227  0.3600 -0.6239
  268MOL0     C36873   4.949   5.974   1.381  0.3667 -0.0731  0.5752
  268MOL0     C36874   4.965   5.997   1.528  0.3913  0.6313  0.3647
  268MOL0     C36875   5.064   5.948   1.297  0.0165 -0.7524  0.3661
  268MOL0     C36876   5.205   5.957   1.339 -0.7723 -0.3641 -0.4482
  268MOL0     O36877   5.300   5.906   1.260 -0.1689 -0.9157  0.2833
  268MOL0     C36878   5.427   5.950   1.274 -0.6160 -0.4036 -0.3373
  268MOL0     C36879   5.528   5.875   1.219 -0.3175 -0.2972  1.3957
  268MOL0     C36880   5.666   5.904   1.246 -0.7302  0.1695 -0.3971
  268MOL0     C36881   5.703   6.027   1.304 -0.2169 -0.2656  0.8091
  268MOL0     O36882   5.831   6.068   1.319  0.5828 -0.0391  0.8423
  268MOL0     C36883   5.931   5.969   1.305 -0.0122  0.5107 -0.0112
  268MOL0     C36884   6.056   6.021   1.383 -0.2676  0.2584 -0.5364
  268MOL0     C36885   6.131   6.133   1.302 -0.5250  0.0862 -1.0797
  268MOL0     C36886   6.263   6.166   1.375 -0.0111 -0.4107  0.1690
  268MOL0     C36887   6.337   6.273   1.298  0.1677 -0.3474 -0.1391
  268MOL0     C36888   6.464   6.304   1.384  0.2669 -0.2904  0.3644
  268MOL0     C36889   6.514   6.450   1.363  0.4342  0.5811  0.1874
  268MOL0     C36890   6.559   6.475   1.215  0.0970 -0.4723 -1.5097
  268MOL0    Cl36891   6.636   6.637   1.200  0.1112 -0.0356  0.4435
  268MOL0     C36892   5.592   6.117   1.345 -0.0404  0.6437 -0.4536
  268MOL0     C36893   5.460   6.074   1.338 -0.5665  0.8944 -0.3096
  268MOL0     O36894   5.229   6.001   1.454  0.2494 -0.4808  0.4023
  268MOL0     C36895   5.044   5.923   1.158  0.7485 -0.2466 -0.6808
  268MOL0     C36896   4.913   5.938   1.108  0.4804 -0.7047 -0.1233
  268MOL0     N36897   4.351   6.100   0.593  0.3342  0.1137 -0.2606
  268MOL0     N36898   4.293   6.105   0.474 -0.1865  0.0567 -0.3843
  268MOL0     C36899   3.603   6.731   0.211 -0.1681  0.5267 -0.3358
  268MOL0     C36900   3.469   6.765   0.189 -0.2524  0.1033 -0.0272
  268MOL0     C36901   3.060   6.912   0.077  0.6534  0.5323  0.4280
  268MOL0     C36902   2.995   6.807   0.010 -0.8423  0.0527 -0.3384
  268MOL0     C36903   2.865   6.814  -0.026 -0.5621  0.0088  0.1795
  268MOL0     C36904   2.793   6.924  -0.012 -0.4931  0.6951 -1.2564
  268MOL0     O36905   2.662   6.928  -0.055  0.3445 -1.2099 -0.1063
  268MOL0     C36906   2.559   6.938   0.046 -0.1800  0.4195 -0.0733
  268MOL0     C36907   2.469   6.809   0.045  0.7658  0.1285  0.3473
  268MOL0     C36908   2.423   6.778  -0.094 -0.0293  1.3113  0.6302
  268MOL0     C36909   2.334   6.890  -0.155 -0.3629 -0.0594  0.5767
  268MOL0     C36910   2.200   6.877  -0.102 -0.2484 -0.0210  0.3706
  268MOL0     C36911   2.087   6.852  -0.082 -0.7391 -0.2550  0.5582
  268MOL0     C36912   2.848   7.029   0.058 -0.7022 -0.6632 -0.9687
  268MOL0     C36913   2.982   7.021   0.111  0.6594 -0.8932  0.3643
  268MOL0     C36914   3.023   7.140   0.195 -0.2510  0.2222 -0.5976
  268MOL0     H36915   3.456   6.762  -0.141  2.5782 -0.3738 -1.2226
  268MOL0     H36916   3.707   6.690  -0.104  0.3369 -3.3157  0.8809
  268MOL0     H36917   3.808   6.640   0.331 -1.1497  2.0876  0.7900
  268MOL0     H36918   3.874   6.798   0.271  0.1002  0.9958 -3.1572
  268MOL0     H36919   4.077   6.697   0.174  1.3700 -0.3156  0.5415
  268MOL0     H36920   4.068   6.693   0.345 -0.1219  1.5919 -0.7054
  268MOL0     H36921   4.015   6.454   0.166  0.2637 -2.5389  0.7689
  268MOL0     H36922   4.168   6.492   0.252 -0.0640  0.9791  1.0813
  268MOL0     H36923   4.075   6.429   0.459 -2.0164 -0.5835  2.0045
  268MOL0     H36924   3.908   6.455   0.397 -0.2377 -2.7493  1.5688
  268MOL0     H36925   4.110   6.257   0.290 -0.3438 -0.6440  1.1652
  268MOL0     H36926   3.947   6.246   0.237  0.4189 -1.6854  0.0022
  268MOL0     H36927   4.008   6.192   0.525 -0.6693 -1.9643  0.7043
  268MOL0     H36928   3.848   6.195   0.458  0.5056 -1.4115  0.4074
  268MOL0     H36929   3.890   6.018   0.303 -3.1539 -1.8929  1.7109
  268MOL0     H36930   3.925   5.960   0.468 -0.8148  1.5188  0.2000
  268MOL0     H36931   4.095   5.878   0.345  2.4668 -0.1405  2.6200
  268MOL0     H36932   4.136   6.036   0.261  0.6667  0.5496 -0.0163
  268MOL0     H36933   4.133   5.861   0.621  1.0949 -0.2070 -1.5018
  268MOL0     H36934   4.262   5.867   0.822  1.3024 -0.1120 -0.0715
  268MOL0     H36935   4.256   6.044   0.864  0.9489  2.2605 -0.6306
  268MOL0     H36936   4.511   5.880   0.803  0.7467  0.6105 -0.8260
  268MOL0     H36937   4.510   6.054   0.781  2.8123 -0.0046  2.9506
  268MOL0     H36938   4.482   6.102   1.001  2.4705  0.2124 -1.2815
  268MOL0     H36939   4.422   5.926   1.046  3.6509 -3.6393  0.8336
  268MOL0     H36940   4.661   5.855   0.993  1.7016  0.0178  1.4662
  268MOL0     H36941   4.698   6.010   0.946 -0.1709 -1.2333 -0.4442
  268MOL0     H36942   4.752   6.011   1.407  0.5097 -2.5205  0.3790
  268MOL0     H36943   5.010   5.905   1.567 -0.6537  0.1397  0.4341
  268MOL0     H36944   4.871   6.005   1.585  0.8410 -0.7199  1.3442
  268MOL0     H36945   5.025   6.087   1.544  0.3058  1.4966 -3.3227
  268MOL0     H36946   5.497   5.786   1.166  0.0580  0.6809 -0.6004
  268MOL0     H36947   5.741   5.833   1.212 -1.6742 -0.3275 -1.5085
  268MOL0     H36948   5.894   5.875   1.347  3.8247 -2.0364 -1.7953
  268MOL0     H36949   5.959   5.954   1.201 -3.5335 -0.5196 -0.9585
  268MOL0     H36950   6.019   6.059   1.478 -1.8510  2.5119 -1.9431
  268MOL0     H36951   6.130   5.945   1.409 -0.2638  1.1627  2.4972
  268MOL0     H36952   6.082   6.230   1.292  1.1817  0.9427 -1.6882
  268MOL0     H36953   6.153   6.093   1.203  1.8999 -4.0840  0.8380
  268MOL0     H36954   6.324   6.076   1.371 -0.0310 -0.3845 -0.9778
  268MOL0     H36955   6.233   6.205   1.473 -3.6318  0.5111 -1.1237
  268MOL0     H36956   6.373   6.237   1.201  0.4862 -0.0371 -0.1380
  268MOL0     H36957   6.278   6.362   1.275 -0.7093 -0.9512 -0.2892
  268MOL0     H36958   6.539   6.228   1.360 -1.6048 -2.7038  1.7262
  268MOL0     H36959   6.440   6.300   1.490 -1.5344 -1.9078 -0.0454
  268MOL0     H36960   6.604   6.466   1.423  0.7541 -2.1646  0.6014
  268MOL0     H36961   6.431   6.515   1.390  0.7271  0.3787  1.6302
  268MOL0     H36962   6.466   6.483   1.157 -0.9304 -1.7142 -0.1015
  268MOL0     H36963   6.615   6.389   1.178 -0.3630 -1.4912  0.0558
  268MOL0     H36964   5.619   6.216   1.379  0.2289  0.7386 -0.9382
  268MOL0     H36965   5.390   6.151   1.369 -1.3934  1.1732 -2.6187
  268MOL0     H36966   5.118   5.895   1.084  1.2823 -0.0717 -0.2135
  268MOL0     H36967   4.892   5.911   1.005  0.9336 -0.4126 -0.2912
  268MOL0     H36968   3.637   6.718   0.313  0.4528 -4.0078 -0.9240
  268MOL0     H36969   3.395   6.771   0.269  0.3320  1.8842  0.4199
  268MOL0     H36970   3.044   6.711  -0.004 -1.7045 -0.4044 -0.2961
  268MOL0     H36971   2.827   6.724  -0.075 -0.0514  0.3812 -0.9212
  268MOL0     H36972   2.596   6.957   0.147  1.3799  0.3678 -0.6129
  268MOL0     H36973   2.496   7.023   0.018 -1.8543 -1.0129 -0.9179
  268MOL0     H36974   2.399   6.831   0.126  3.0059  4.2560  1.5062
  268MOL0     H36975   2.539   6.737   0.089  0.8880  0.7112  1.1368
  268MOL0     H36976   2.512   6.757  -0.154  0.8419 -2.3969  2.9417
  268MOL0     H36977   2.362   6.688  -0.095  1.8365 -0.0679  2.1921
  268MOL0     H36978   2.328   6.863  -0.261 -0.8928  0.9169  0.3408
  268MOL0     H36979   2.383   6.987  -0.144 -2.5365  0.8370  3.7924
  268MOL0     H36980   1.982   6.831  -0.090 -0.5585 -0.5857 -1.6728
  268MOL0     H36981   2.792   7.122   0.072 -0.2149 -0.3219 -1.2757
  268MOL0     H36982   2.943   7.214   0.208  0.5107  1.1610 -1.1433
  268MOL0     H36983   3.046   7.106   0.297  0.7526 -1.2283 -1.2810
  268MOL0     H36984   3.109   7.195   0.157  1.6948 -1.6709  0.8350
  269MOL0     O36985   0.177   4.205   4.084  0.0455 -0.7572  0.0454
  269MOL0     C36986   0.174   4.114   4.002  1.5296 -0.4098 -0.0501
  269MOL0     O36987   0.284   4.041   3.968 -0.3796  0.2545  0.2330
  269MOL0     C36988   0.411   4.069   4.008  0.3566 -0.5850  0.4772
  269MOL0     C36989   0.464   4.204   4.010  0.1766 -0.0157 -1.2069
  269MOL0     C36990   0.594   4.225   4.044  0.6599  0.5878  0.9769
  269MOL0     C36991   0.680   4.117   4.070 -0.9683  0.0921  0.5791
  269MOL0     O36992   0.816   4.137   4.099  0.2585 -0.7760  0.2056
  269MOL0     C36993   0.830   4.177   4.244 -0.3557  0.2356  1.2821
  269MOL0     C36994   0.915   4.305   4.258 -0.1825  0.9338  0.7434
  269MOL0     C36995   1.068   4.279   4.262 -0.1708  0.6475  0.1813
  269MOL0     C36996   1.116   4.233   4.400  0.4892  0.8217  0.7982
  269MOL0     C36997   1.267   4.210   4.399 -0.0090  1.0256 -0.1341
  269MOL0     C36998   1.312   4.186   4.545  0.3271 -0.2247  0.3785
  269MOL0     C36999   1.461   4.148   4.556 -0.3667 -0.1518 -0.0443
  269MOL0     C37000   1.536   4.268   4.526 -0.2220  0.8537  0.5999
  269MOL0     N37001   1.675   4.243   4.564 -0.5281 -0.0667 -0.0287
  269MOL0     C37002   1.735   4.237   4.689  0.1317 -0.1700 -0.9985
  269MOL0     C37003   1.866   4.225   4.664  0.1660  0.2896  0.4217
  269MOL0     C37004   1.972   4.218   4.773 -0.0751  0.9151 -0.2340
  269MOL0     C37005   2.099   4.171   4.720 -0.3046  0.4898  0.6319
  269MOL0     C37006   2.203   4.123   4.823 -0.4112 -0.4756  0.0485
  269MOL0     C37007   2.340   4.087   4.770  0.2121  0.1583  1.2792
  269MOL0     O37008   2.421   4.024   4.867 -0.2065  0.4120  0.1211
  269MOL0     C37009   2.549   3.990   4.827  0.3398  0.4045 -0.0698
  269MOL0     C37010   2.585   3.949   4.690 -0.4155 -0.0942 -0.9037
  269MOL0     C37011   2.719   3.918   4.651  0.5052  0.1258  0.2699
  269MOL0     C37012   2.755   3.876   4.508 -0.2231  0.3942 -0.2998
  269MOL0     C37013   2.819   3.930   4.748 -0.0156  0.4180 -0.2391
  269MOL0     C37014   2.964   3.900   4.735  0.4599 -0.9718  0.4831
  269MOL0     O37015   3.030   3.885   4.855  0.0882  0.1718 -0.0552
  269MOL0     C37016   3.164   3.909   4.848 -0.5015  0.9726  0.1069
  269MOL0     C37017   3.254   3.804   4.863 -0.6611  1.1383  0.0592
  269MOL0     C37018   3.396   3.827   4.853 -0.6138  0.1884  0.2793
  269MOL0     C37019   3.444   3.953   4.815  0.2371 -0.0157 -0.6391
  269MOL0     O37020   3.579   3.978   4.826  0.4214 -0.0941  0.3006
  269MOL0     C37021   3.633   4.085   4.750 -0.2210  0.3637  0.2720
  269MOL0     C37022   3.674   4.216   4.827 -0.4812  0.3078 -0.2235
  269MOL0     C37023   3.762   4.194   4.946  0.8394 -0.1822 -0.1546
  269MOL0     C37024   3.906   4.252   4.922 -0.6347 -1.0450  0.3324
  269MOL0     C37025   3.986   4.220   5.052  0.5266  0.4169  0.4020
  269MOL0     C37026   4.134   4.264   5.050  0.3592 -0.5500 -0.8322
  269MOL0     C37027   4.219   4.194   5.155  0.1385  1.0142 -0.0567
  269MOL0     C37028   4.236   4.045   5.133  0.6094 -0.0272 -0.3042
  269MOL0    Cl37029   4.304   4.016   4.977  0.0988 -0.0186  0.0957
  269MOL0     C37030   3.346   4.057   4.807 -0.6999  0.9524  0.4922
  269MOL0     C37031   3.215   4.034   4.820 -0.3413  0.2762 -0.4556
  269MOL0     O37032   3.013   3.883   4.620 -0.2863 -0.4253 -0.3742
  269MOL0     C37033   2.778   3.963   4.881  0.2486  0.0055  0.2185
  269MOL0     C37034   2.650   3.994   4.919  0.4329  0.2163 -0.0375
  269MOL0     N37035   1.881   4.203   4.531 -0.1357  0.4127 -0.1198
  269MOL0     N37036   1.772   4.210   4.473  0.4982  0.0296 -0.3992
  269MOL0     C37037   0.633   3.986   4.061 -0.5978 -0.2798  0.6402
  269MOL0     C37038   0.498   3.963   4.025 -0.3196 -0.0304  0.1447
  269MOL0     C37039   0.044   4.089   3.937  0.2743 -0.1962 -0.6576
  269MOL0     C37040  -0.018   4.191   3.865  0.0172 -0.5223 -0.3243
  269MOL0     C37041  -0.127   4.172   3.787  0.3618  0.2162  0.1141
  269MOL0     C37042  -0.179   4.044   3.776 -0.1957 -0.3299  0.0533
  269MOL0     O37043  -0.294   4.032   3.699 -0.0246 -0.0863 -0.1418
  269MOL0     C37044  -0.348   3.901   3.666  0.2521  0.9546  0.5559
  269MOL0     C37045  -0.492   3.927   3.620 -0.4024 -0.4192 -0.3107
  269MOL0     C37046  -0.585   3.999   3.710 -0.0312 -0.6963 -0.2498
  269MOL0     C37047  -0.733   4.030   3.658  0.0724 -0.7200 -1.2923
  269MOL0     C37048  -0.718   4.106   3.535 -0.3016 -0.0068  1.0724
  269MOL0     C37049  -0.684   4.178   3.442 -0.1384  0.2732  0.2507
  269MOL0     C37050  -0.122   3.938   3.839 -0.3304 -0.3205  0.0793
  269MOL0     C37051  -0.006   3.955   3.917 -0.3867  0.6211  0.3992
  269MOL0     C37052   0.041   3.843   3.996 -0.2873  0.3315 -0.3451
  269MOL0     H37053   0.412   4.298   3.991  1.8538  0.9279 -1.2621
  269MOL0     H37054   0.636   4.325   4.045  3.2563 -0.4204  0.0891
  269MOL0     H37055   0.864   4.106   4.320 -2.0964 -0.5270  1.3886
  269MOL0     H37056   0.730   4.200   4.281 -0.4789  0.4055  0.8486
  269MOL0     H37057   0.890   4.372   4.175 -0.2532 -1.1159 -0.9916
  269MOL0     H37058   0.891   4.353   4.353 -0.8006 -1.2682  1.7576
  269MOL0     H37059   1.092   4.199   4.190 -1.3681 -1.2788  1.8153
  269MOL0     H37060   1.110   4.372   4.223  0.6793  0.7873  1.3808
  269MOL0     H37061   1.099   4.310   4.476  0.9109  0.3250  1.4015
  269MOL0     H37062   1.067   4.139   4.427  2.1292 -0.6062 -0.9220
  269MOL0     H37063   1.312   4.302   4.359 -2.9165  2.2959 -0.7547
  269MOL0     H37064   1.304   4.124   4.344 -1.8367 -0.9640  1.5497
  269MOL0     H37065   1.294   4.265   4.618 -1.3570  0.7130 -0.9895
  269MOL0     H37066   1.248   4.103   4.577 -1.2277  0.8566  0.1578
  269MOL0     H37067   1.493   4.072   4.484  2.5545 -0.6258  1.6251
  269MOL0     H37068   1.484   4.104   4.654 -1.0964  2.1240  1.2172
  269MOL0     H37069   1.544   4.287   4.418  0.0670  1.2143  0.6805
  269MOL0     H37070   1.500   4.351   4.587  1.2749  1.5291  0.6178
  269MOL0     H37071   1.682   4.252   4.783  0.9973 -2.2378 -0.1244
  269MOL0     H37072   1.939   4.150   4.852  2.3274  2.0174  1.8469
  269MOL0     H37073   1.967   4.321   4.811  0.2016  0.6484  0.5382
  269MOL0     H37074   2.070   4.095   4.647  2.6237  1.1631 -1.4010
  269MOL0     H37075   2.140   4.259   4.670 -1.0687  1.1485  1.1370
  269MOL0     H37076   2.203   4.192   4.908 -1.6064  0.0145 -0.3223
  269MOL0     H37077   2.172   4.026   4.863  2.5372  0.0607  4.4136
  269MOL0     H37078   2.332   4.021   4.683  1.7156 -1.1817  2.0910
  269MOL0     H37079   2.392   4.180   4.745 -2.6054  1.6189  0.3243
  269MOL0     H37080   2.509   3.922   4.617  0.0404  1.0007 -1.8161
  269MOL0     H37081   2.659   3.860   4.457 -1.9513 -2.2147  3.3135
  269MOL0     H37082   2.811   3.782   4.501  0.2641  0.6845 -0.3714
  269MOL0     H37083   2.818   3.950   4.458 -0.0262  0.7349  0.4405
  269MOL0     H37084   3.231   3.701   4.888 -1.6367  1.5816  1.1090
  269MOL0     H37085   3.486   3.766   4.864  0.1967  0.9818 -1.6113
  269MOL0     H37086   3.728   4.046   4.713  1.1635  0.9782  2.9198
  269MOL0     H37087   3.570   4.100   4.662 -0.3824 -2.0681 -0.0972
  269MOL0     H37088   3.724   4.285   4.758  1.8523  0.3431  1.3955
  269MOL0     H37089   3.577   4.254   4.861 -1.1617  0.4750 -2.2057
  269MOL0     H37090   3.765   4.087   4.970  0.8945 -0.0785  0.3095
  269MOL0     H37091   3.716   4.240   5.034  2.1047  0.5894  0.1218
  269MOL0     H37092   3.902   4.360   4.905  0.3584 -1.0298  0.1545
  269MOL0     H37093   3.955   4.201   4.838 -2.5361 -0.7337 -1.0218
  269MOL0     H37094   3.937   4.273   5.134 -0.0447  0.3191  0.1323
  269MOL0     H37095   3.982   4.115   5.084 -1.9866  0.8071  1.6298
  269MOL0     H37096   4.137   4.372   5.061 -1.5327 -0.7661  3.6417
  269MOL0     H37097   4.182   4.247   4.953  2.1227 -1.5172  0.1512
  269MOL0     H37098   4.176   4.213   5.253  0.4273  0.4730  0.1792
  269MOL0     H37099   4.324   4.223   5.153  0.5992 -0.5256  0.2368
  269MOL0     H37100   4.149   3.985   5.160  1.3402  0.2282  2.9898
  269MOL0     H37101   4.319   4.009   5.194  0.3502  0.6263  0.4501
  269MOL0     H37102   3.384   4.158   4.795  2.1579  0.0884  1.4013
  269MOL0     H37103   3.149   4.119   4.808 -0.3266  0.6972  2.0528
  269MOL0     H37104   2.844   3.966   4.967 -2.8999 -0.5305  2.8533
  269MOL0     H37105   2.630   4.023   5.022 -0.2580  0.5339 -0.2532
  269MOL0     H37106   0.698   3.900   4.055 -0.6625 -0.2439 -1.7725
  269MOL0     H37107   0.469   3.859   4.016  0.6558 -0.3213  0.2597
  269MOL0     H37108   0.015   4.294   3.878 -0.9583 -0.0835 -1.1535
  269MOL0     H37109  -0.178   4.250   3.730  0.9361  1.8069  1.6834
  269MOL0     H37110  -0.294   3.849   3.587  0.4674  1.8544  0.0901
  269MOL0     H37111  -0.359   3.840   3.756  1.3210 -0.2941 -0.1304
  269MOL0     H37112  -0.547   3.835   3.598 -2.0272  0.1829  1.0066
  269MOL0     H37113  -0.481   3.991   3.532 -1.6834  2.1948  1.2855
  269MOL0     H37114  -0.592   3.948   3.807  1.2998  1.6049  1.1466
  269MOL0     H37115  -0.546   4.101   3.721  0.3778 -0.4845 -2.9831
  269MOL0     H37116  -0.776   4.103   3.727  1.4124 -2.6753  1.8551
  269MOL0     H37117  -0.783   3.932   3.654  2.9234 -2.3613 -0.0366
  269MOL0     H37118  -0.653   4.261   3.382 -1.9793  2.6188  2.2729
  269MOL0     H37119  -0.166   3.839   3.832 -0.8694 -0.0088 -1.2740
  269MOL0     H37120   0.047   3.882   4.098  3.3459 -1.1538  0.1730
  269MOL0     H37121  -0.027   3.759   4.014 -3.3398  2.6990  0.0251
  269MOL0     H37122   0.136   3.799   3.964  0.2266  1.0606  0.1415
  270MOL0     O37123   6.391  11.168   4.047  0.4663  0.3294 -0.4809
  270MOL0     C37124   6.388  11.189   4.167  0.0444 -0.3016 -0.7138
  270MOL0     O37125   6.503  11.182   4.244 -0.7194 -0.1223  0.1055
  270MOL0     C37126   6.626  11.125   4.211 -0.9144 -0.3087  1.0375
  270MOL0     C37127   6.701  11.072   4.313 -0.2826 -1.1934  0.4254
  270MOL0     C37128   6.823  11.009   4.289 -0.4538 -0.1887 -0.1155
  270MOL0     C37129   6.878  11.012   4.161 -0.3165 -0.0420  0.7428
  270MOL0     O37130   7.004  10.960   4.136  0.0908  0.3096 -0.5364
  270MOL0     C37131   7.028  10.829   4.189 -0.0678 -0.5450 -0.6192
  270MOL0     C37132   7.167  10.772   4.171 -0.0642 -0.0797  0.3834
  270MOL0     C37133   7.281  10.871   4.207 -0.0913  0.6034  0.0826
  270MOL0     C37134   7.416  10.823   4.146 -0.3298 -0.4266 -0.0279
  270MOL0     C37135   7.485  10.709   4.227  0.3353 -0.0682  0.1127
  270MOL0     C37136   7.643  10.703   4.211  0.7002  0.5281 -0.1451
  270MOL0     C37137   7.713  10.846   4.241  0.9900  0.2318  0.0441
  270MOL0     C37138   7.687  10.904   4.374 -0.2384  0.3103 -0.3076
  270MOL0     N37139   7.779  11.014   4.404 -0.4771 -0.4340  0.5414
  270MOL0     C37140   7.787  11.079   4.526 -0.0842 -0.2614 -0.1552
  270MOL0     C37141   7.889  11.167   4.515  0.0867 -0.5720  0.5777
  270MOL0     C37142   7.937  11.278   4.618  0.0926  0.3429  0.9354
  270MOL0     C37143   7.993  11.204   4.741 -0.5831 -0.9123  0.5478
  270MOL0     C37144   8.129  11.143   4.692  0.2443 -0.2931 -0.2429
  270MOL0     C37145   8.246  11.238   4.691 -0.5103 -0.4397 -0.3862
  270MOL0     O37146   8.334  11.187   4.595 -0.5556 -0.4535  0.5058
  270MOL0     C37147   8.460  11.246   4.572  0.6410 -0.3188  0.2036
  270MOL0     C37148   8.532  11.211   4.463  0.0740  0.1554 -0.5433
  270MOL0     C37149   8.657  11.271   4.438  0.4705  0.4309  0.4558
  270MOL0     C37150   8.738  11.198   4.332  0.2010 -0.6606  0.5526
  270MOL0     C37151   8.711  11.371   4.521  0.6729  0.8341  0.0553
  270MOL0     C37152   8.835  11.440   4.500 -0.8033 -0.0757  0.1599
  270MOL0     O37153   8.931  11.394   4.407 -0.0641 -0.2039  0.4874
  270MOL0     C37154   9.052  11.450   4.392 -0.0641 -0.7016  0.5604
  270MOL0     C37155   9.166  11.366   4.370  0.2449 -0.1085 -1.0352
  270MOL0     C37156   9.299  11.415   4.361 -0.8282  0.5191  0.2064
  270MOL0     C37157   9.326  11.552   4.368 -0.6047  0.8920 -0.7946
  270MOL0     O37158   9.447  11.596   4.327 -0.2211  0.2445 -0.2171
  270MOL0     C37159   9.457  11.732   4.282 -0.5757  0.9989  0.6355
  270MOL0     C37160   9.608  11.763   4.275 -0.5691  1.4711 -0.4670
  270MOL0     C37161   9.679  11.662   4.173 -0.0822  0.2130  0.0259
  270MOL0     C37162   9.823  11.689   4.147 -0.0065 -0.8011 -0.1948
  270MOL0     C37163   9.888  11.608   4.029  0.5541 -0.0710 -0.9238
  270MOL0     C37164  10.039  11.633   4.034 -0.5886  0.2956 -0.3252
  270MOL0     C37165  10.092  11.616   3.888  0.2300 -0.3741  1.2283
  270MOL0     C37166  10.234  11.650   3.874 -1.1392  0.9306  0.8783
  270MOL0    Cl37167  10.315  11.560   3.734  0.3234 -0.2651  0.3052
  270MOL0     C37168   9.219  11.634   4.397  0.3526  0.6476  0.5026
  270MOL0     C37169   9.085  11.592   4.399 -0.4687  0.8346  0.8229
  270MOL0     O37170   8.864  11.535   4.578 -0.2580 -0.1049 -0.2895
  270MOL0     C37171   8.627  11.410   4.632 -0.1638  0.7393 -0.1082
  270MOL0     C37172   8.503  11.346   4.652  0.0314 -0.0782 -0.4339
  270MOL0     N37173   7.954  11.145   4.387 -0.1651  0.6670 -0.0317
  270MOL0     N37174   7.885  11.054   4.328 -0.1419  0.0922 -0.1243
  270MOL0     C37175   6.805  11.068   4.056  0.1582 -0.3186  0.1444
  270MOL0     C37176   6.676  11.119   4.076 -0.9476  0.4786  0.0990
  270MOL0     C37177   6.250  11.211   4.235  0.2896  0.0917  0.1629
  270MOL0     C37178   6.252  11.221   4.376 -0.6911 -0.4648 -0.0160
  270MOL0     C37179   6.135  11.268   4.441  0.1905  0.5319  0.2606
  270MOL0     C37180   6.011  11.268   4.375  0.0479 -0.4731  0.1257
  270MOL0     O37181   5.901  11.308   4.451 -0.3404 -0.0588  0.3929
  270MOL0     C37182   5.776  11.276   4.400  0.2193 -1.2031 -0.1644
  270MOL0     C37183   5.677  11.296   4.509 -0.2676 -0.4127  0.3977
  270MOL0     C37184   5.641  11.438   4.540  0.8914 -0.0176  0.0506
  270MOL0     C37185   5.579  11.459   4.682 -0.0273  0.2118 -0.0800
  270MOL0     C37186   5.462  11.374   4.709  0.7327 -1.3163  0.1080
  270MOL0     C37187   5.350  11.323   4.730  0.2558  0.1457  0.0677
  270MOL0     C37188   6.009  11.249   4.237 -0.5123  0.3527  0.3409
  270MOL0     C37189   6.122  11.220   4.165 -0.0468 -0.1103  0.3004
  270MOL0     C37190   6.103  11.223   4.016  0.0324 -0.9900 -0.4123
  270MOL0     H37191   6.657  11.070   4.412  1.9523 -2.8756  1.4803
  270MOL0     H37192   6.873  10.974   4.379  0.2992 -1.6514 -1.0702
  270MOL0     H37193   6.961  10.756   4.142  0.2388  0.5017 -2.7803
  270MOL0     H37194   7.005  10.832   4.296 -1.8959  0.3284 -0.9914
  270MOL0     H37195   7.169  10.687   4.240 -1.9305 -0.5837 -0.1325
  270MOL0     H37196   7.175  10.728   4.072 -1.0135 -1.3584  0.8408
  270MOL0     H37197   7.266  10.970   4.163  2.1345 -0.2975 -3.0644
  270MOL0     H37198   7.299  10.865   4.315  0.2746 -1.0206 -0.0393
  270MOL0     H37199   7.396  10.790   4.044  1.9587  0.6386 -0.8977
  270MOL0     H37200   7.479  10.912   4.134 -0.8018  0.0941  1.1324
  270MOL0     H37201   7.450  10.616   4.181 -1.0029  0.3313  0.2832
  270MOL0     H37202   7.460  10.719   4.333 -0.2350 -0.6369  0.0373
  270MOL0     H37203   7.681  10.624   4.277 -1.7838  0.8547  1.7870
  270MOL0     H37204   7.666  10.669   4.109 -1.5988  0.1691 -0.5927
  270MOL0     H37205   7.679  10.913   4.162 -0.9075  0.1928  0.7630
  270MOL0     H37206   7.819  10.841   4.219  0.6942 -0.2203 -1.3757
  270MOL0     H37207   7.589  10.945   4.401  1.4042  3.1202  1.8248
  270MOL0     H37208   7.703  10.817   4.440 -2.5831 -0.4104 -0.6031
  270MOL0     H37209   7.724  11.065   4.613  0.9569  0.1376  0.6842
  270MOL0     H37210   7.853  11.342   4.645 -1.6939  0.1510 -3.3910
  270MOL0     H37211   8.009  11.340   4.563  0.4669  0.8993  2.0294
  270MOL0     H37212   8.015  11.285   4.810 -1.7373  0.0577 -0.1760
  270MOL0     H37213   7.925  11.133   4.789 -1.7234 -0.2879 -0.0788
  270MOL0     H37214   8.155  11.067   4.766 -0.5492  0.0048  0.3670
  270MOL0     H37215   8.120  11.083   4.602 -3.4261  0.4093 -0.5215
  270MOL0     H37216   8.225  11.343   4.669  2.6877  0.4705  0.4200
  270MOL0     H37217   8.290  11.239   4.791 -0.0058  0.9297 -0.6000
  270MOL0     H37218   8.501  11.136   4.392  2.2970  0.6258 -2.1195
  270MOL0     H37219   8.683  11.130   4.268  1.5464  0.1148 -1.5358
  270MOL0     H37220   8.819  11.143   4.380 -0.7619  0.0250  3.1264
  270MOL0     H37221   8.785  11.267   4.261  0.7045 -1.5153  0.0422
  270MOL0     H37222   9.156  11.261   4.345 -1.3705 -0.4451  0.8007
  270MOL0     H37223   9.377  11.347   4.329 -1.9114 -0.8949  0.5090
  270MOL0     H37224   9.411  11.745   4.184  0.2933  3.2910  0.4723
  270MOL0     H37225   9.414  11.796   4.360 -1.9112  0.2136  0.5813
  270MOL0     H37226   9.612  11.870   4.253  0.4851  1.2423 -1.4770
  270MOL0     H37227   9.653  11.749   4.374  0.2252  0.1096 -0.9822
  270MOL0     H37228   9.623  11.665   4.079 -0.6131 -0.7961  0.2958
  270MOL0     H37229   9.660  11.557   4.199 -1.6812  0.1492 -1.2433
  270MOL0     H37230   9.875  11.668   4.241  0.9316 -0.6604 -0.6706
  270MOL0     H37231   9.833  11.797   4.132 -0.3659 -0.5917  0.9989
  270MOL0     H37232   9.864  11.504   4.052  0.1373  0.6641  2.4739
  270MOL0     H37233   9.853  11.647   3.933  4.9991  0.8263 -2.4353
  270MOL0     H37234  10.079  11.556   4.100  0.4741 -0.7529 -2.1041
  270MOL0     H37235  10.067  11.732   4.072 -0.4917  0.4276 -0.7286
  270MOL0     H37236  10.031  11.669   3.814  0.0670 -3.0608 -0.7551
  270MOL0     H37237  10.078  11.513   3.852  0.5080  0.1603 -0.5198
  270MOL0     H37238  10.293  11.625   3.963  0.6940  0.1746 -0.4768
  270MOL0     H37239  10.239  11.758   3.858  0.6198  0.6736 -0.6244
  270MOL0     H37240   9.239  11.740   4.409 -2.7024  1.6500 -1.8956
  270MOL0     H37241   9.004  11.664   4.406 -0.1523  1.4444 -1.2441
  270MOL0     H37242   8.664  11.499   4.682  1.2529  1.4171 -2.2222
  270MOL0     H37243   8.452  11.368   4.745  1.1086 -2.4433  0.8022
  270MOL0     H37244   6.848  11.080   3.957  0.6063 -1.9253  0.1159
  270MOL0     H37245   6.626  11.168   3.993 -1.0542  0.7284  0.3060
  270MOL0     H37246   6.344  11.210   4.431 -0.6097 -2.3772 -0.4591
  270MOL0     H37247   6.136  11.300   4.545 -1.0077  4.7422 -0.7975
  270MOL0     H37248   5.763  11.350   4.321  1.3642  2.0494  2.4283
  270MOL0     H37249   5.781  11.171   4.370  1.3384 -0.5344 -2.5473
  270MOL0     H37250   5.712  11.240   4.596 -0.7434 -0.6469  0.4416
  270MOL0     H37251   5.584  11.245   4.485  0.2318 -1.6805  1.0592
  270MOL0     H37252   5.729  11.503   4.546  1.1810 -0.4999  1.6416
  270MOL0     H37253   5.559  11.468   4.474 -0.8308  1.2457  2.5813
  270MOL0     H37254   5.552  11.564   4.699 -0.0766  0.1869 -0.0061
  270MOL0     H37255   5.655  11.432   4.756  0.8150 -1.4760 -1.4879
  270MOL0     H37256   5.251  11.285   4.743 -0.0694  0.5919 -0.9645
  270MOL0     H37257   5.915  11.264   4.185 -1.3223  0.2755  1.7462
  270MOL0     H37258   5.995  11.222   3.995 -0.1330  0.2866  0.2433
  270MOL0     H37259   6.150  11.301   3.956 -0.0509 -1.2598 -0.8284
  270MOL0     H37260   6.146  11.134   3.970  1.7127  0.4218 -1.6486
  271MOL0     O37261   9.092   3.356   0.646 -0.1778 -0.3834 -0.3000
  271MOL0     C37262   9.023   3.284   0.571 -0.3297  0.3382  0.2244
  271MOL0     O37263   9.074   3.199   0.473 -0.4539 -0.3494  0.1125
  271MOL0     C37264   9.211   3.189   0.475 -0.2994  0.0248 -0.7316
  271MOL0     C37265   9.267   3.119   0.581 -0.4239  0.3039 -0.0732
  271MOL0     C37266   9.409   3.114   0.600 -0.7919  0.3836  0.5116
  271MOL0     C37267   9.494   3.179   0.507  0.0726 -0.4640  0.3403
  271MOL0     O37268   9.634   3.173   0.520 -0.1312  0.5236 -0.5881
  271MOL0     C37269   9.685   3.168   0.655 -0.2719  0.3044  0.3650
  271MOL0     C37270   9.839   3.175   0.627  0.0441  0.4101 -0.2396
  271MOL0     C37271   9.892   3.045   0.567  0.2762  0.3515  0.0788
  271MOL0     C37272  10.038   3.037   0.552 -0.5559 -1.3718  0.3609
  271MOL0     C37273  10.078   2.922   0.456 -0.3374 -0.4919 -0.3396
  271MOL0     C37274  10.229   2.924   0.421 -0.3780  0.0165 -1.5296
  271MOL0     C37275  10.295   2.794   0.373  0.1818  0.3039  0.3434
  271MOL0     C37276  10.448   2.806   0.355  0.3691  0.1425 -0.2228
  271MOL0     N37277  10.501   2.905   0.261  0.2146 -0.1086  0.3335
  271MOL0     C37278  10.615   2.971   0.289 -0.4112 -0.1860 -0.7743
  271MOL0     C37279  10.635   3.055   0.187 -0.3907  0.8618  0.0783
  271MOL0     C37280  10.747   3.162   0.191 -0.3210  0.8209  0.1770
  271MOL0     C37281  10.900   3.122   0.217  0.5474  0.3020  0.0259
  271MOL0     C37282  10.969   3.062   0.096 -0.6122  0.4103  0.6043
  271MOL0     C37283  11.119   3.047   0.109 -0.0125  0.6083 -0.6299
  271MOL0     O37284  11.167   2.975  -0.007 -0.7521  0.4904  0.0144
  271MOL0     C37285  11.304   2.961  -0.018 -0.2817  0.2041  0.0640
  271MOL0     C37286  11.352   2.909  -0.136 -0.4591 -0.7737 -0.3570
  271MOL0     C37287  11.481   2.882  -0.161 -0.3980 -0.1261  0.1745
  271MOL0     C37288  11.525   2.817  -0.288 -0.5116 -0.1750 -0.2593
  271MOL0     C37289  11.580   2.926  -0.071  0.3099 -0.4673  0.4659
  271MOL0     C37290  11.722   2.899  -0.074 -0.1802  0.5405 -0.0692
  271MOL0     O37291  11.756   2.774  -0.101 -0.2403 -0.3847  0.4453
  271MOL0     C37292  11.887   2.740  -0.082 -0.1619 -0.3516 -0.5334
  271MOL0     C37293  11.942   2.655  -0.178 -0.5347  1.1418  0.5936
  271MOL0     C37294  12.069   2.610  -0.167 -0.1124 -0.4996 -0.5199
  271MOL0     C37295  12.148   2.649  -0.056  0.6900 -0.6224 -0.5947
  271MOL0     O37296  12.269   2.594  -0.055 -0.1365 -0.3361  0.0297
  271MOL0     C37297  12.358   2.663   0.034 -0.1621  0.2878 -0.4416
  271MOL0     C37298  12.493   2.587   0.023  0.0074 -0.5701 -0.0103
  271MOL0     C37299  12.595   2.643   0.127 -0.5966  0.4774  0.0549
  271MOL0     C37300  12.734   2.588   0.099 -0.3432  0.4061  0.3886
  271MOL0     C37301  12.833   2.646   0.199  0.1138  0.6301 -0.2122
  271MOL0     C37302  12.977   2.607   0.180  0.0230  0.8590  0.1509
  271MOL0     C37303  13.060   2.644   0.308 -0.4529  0.5131  0.2356
  271MOL0     C37304  13.155   2.538   0.359 -0.1175  0.4907  0.3006
  271MOL0    Cl37305  13.068   2.398   0.433  0.1319 -0.1258  0.1660
  271MOL0     C37306  12.088   2.726   0.049  0.0680 -0.3579 -0.0911
  271MOL0     C37307  11.953   2.775   0.036 -0.8706  0.1032  0.1503
  271MOL0     O37308  11.802   2.994  -0.053 -0.5561  0.2650 -0.2495
  271MOL0     C37309  11.535   2.986   0.044  1.7928  0.1666 -0.0255
  271MOL0     C37310  11.395   3.001   0.081 -0.5866 -1.0711  0.3379
  271MOL0     N37311  10.540   3.031   0.088 -0.4954  0.2003 -0.1614
  271MOL0     N37312  10.461   2.940   0.134  0.2960 -0.0612  0.0595
  271MOL0     C37313   9.434   3.245   0.393 -0.0697  0.8181 -1.0750
  271MOL0     C37314   9.295   3.256   0.383  0.5899  0.0822  0.0083
  271MOL0     C37315   8.878   3.268   0.587 -0.1470  0.7972 -0.4248
  271MOL0     C37316   8.811   3.168   0.518  1.9173  0.2984  0.7160
  271MOL0     C37317   8.666   3.169   0.509  0.1848  0.5049 -0.3504
  271MOL0     C37318   8.588   3.260   0.581 -0.1117 -0.6895  0.4659
  271MOL0     O37319   8.452   3.268   0.576  0.0850 -0.5882  0.0039
  271MOL0     C37320   8.380   3.151   0.532  0.2477 -0.1033  0.4304
  271MOL0     C37321   8.250   3.150   0.623  0.1532  0.3714  0.2840
  271MOL0     C37322   8.153   3.250   0.576  0.8806 -0.1811  0.4163
  271MOL0     C37323   8.020   3.234   0.645 -0.0215  0.1523 -0.4234
  271MOL0     C37324   7.931   3.352   0.620 -0.8376  0.0875  1.0535
  271MOL0     C37325   7.869   3.448   0.575 -0.9844  0.2688 -0.3374
  271MOL0     C37326   8.656   3.354   0.653 -0.9250 -0.2219 -0.0402
  271MOL0     C37327   8.798   3.363   0.656  0.0878 -0.2138 -0.6494
  271MOL0     C37328   8.855   3.485   0.729  0.4965 -0.4311  0.4446
  271MOL0     H37329   9.204   3.076   0.657 -0.9732 -1.2108 -1.3395
  271MOL0     H37330   9.449   3.058   0.684  2.4222  1.2781 -0.2984
  271MOL0     H37331   9.666   3.074   0.707 -0.0533  0.3351  0.5012
  271MOL0     H37332   9.658   3.252   0.720  1.3852  1.0337  0.1565
  271MOL0     H37333   9.869   3.260   0.566  1.0061 -0.8523 -1.6061
  271MOL0     H37334   9.883   3.188   0.726 -0.3506  1.5923 -0.2023
  271MOL0     H37335   9.853   2.964   0.629  0.8971 -1.0025 -1.2527
  271MOL0     H37336   9.847   3.041   0.467 -0.3203  0.8471  0.3277
  271MOL0     H37337  10.081   3.132   0.520 -1.4839  0.0980  3.1572
  271MOL0     H37338  10.082   3.025   0.652  1.2739  1.6904  0.0635
  271MOL0     H37339  10.034   2.933   0.357  0.2230 -0.9333 -0.6444
  271MOL0     H37340  10.054   2.828   0.508 -0.3754 -0.1370  0.3037
  271MOL0     H37341  10.251   3.014   0.363 -0.1931  1.2127  0.3078
  271MOL0     H37342  10.283   2.945   0.514 -0.3630  0.9452 -1.7446
  271MOL0     H37343  10.249   2.759   0.280 -1.6876  1.9142  0.5877
  271MOL0     H37344  10.286   2.717   0.451  1.6869 -0.7166 -0.4289
  271MOL0     H37345  10.498   2.821   0.451  2.8879  1.2887 -1.6202
  271MOL0     H37346  10.476   2.704   0.329  1.4709  0.2695  0.4330
  271MOL0     H37347  10.668   2.976   0.384 -1.4508 -1.6725 -0.0842
  271MOL0     H37348  10.720   3.214   0.284  3.0589  1.0535  1.1681
  271MOL0     H37349  10.739   3.231   0.107 -1.2030  1.1727  0.5313
  271MOL0     H37350  10.955   3.208   0.257  0.6922  1.2496 -2.0413
  271MOL0     H37351  10.905   3.050   0.299  1.9735  1.5033  1.0552
  271MOL0     H37352  10.923   2.965   0.075  1.2059  0.0543 -2.3453
  271MOL0     H37353  10.956   3.116   0.002  0.4040 -1.6104 -0.7616
  271MOL0     H37354  11.153   3.150   0.119  0.4322  0.4141 -0.0796
  271MOL0     H37355  11.146   2.988   0.197 -1.4946  0.0530 -0.5242
  271MOL0     H37356  11.275   2.880  -0.206 -1.5117 -2.3757  1.3684
  271MOL0     H37357  11.559   2.715  -0.266  1.9154  0.5978 -0.2235
  271MOL0     H37358  11.605   2.877  -0.331  0.8546 -1.3847  0.5207
  271MOL0     H37359  11.443   2.817  -0.361 -0.8441  0.6672  0.1054
  271MOL0     H37360  11.880   2.619  -0.259  1.3689  0.8593 -0.8242
  271MOL0     H37361  12.111   2.550  -0.247 -2.0204  3.1441 -4.6710
  271MOL0     H37362  12.373   2.768   0.009  1.4062 -0.5416 -3.4274
  271MOL0     H37363  12.335   2.646   0.140 -0.7759 -0.7393 -0.7281
  271MOL0     H37364  12.477   2.484   0.054 -1.8149 -0.7099 -1.2890
  271MOL0     H37365  12.519   2.592  -0.083 -1.3964  2.4408 -0.3245
  271MOL0     H37366  12.562   2.612   0.227 -2.2168  0.2677 -0.5087
  271MOL0     H37367  12.595   2.752   0.120 -1.5445  0.4721 -0.2152
  271MOL0     H37368  12.756   2.605  -0.007  0.9903  2.9612  0.9722
  271MOL0     H37369  12.742   2.483   0.125  0.2754  0.4570  0.4127
  271MOL0     H37370  12.811   2.752   0.184 -2.5195  0.2570  0.5174
  271MOL0     H37371  12.802   2.606   0.296  0.4441 -1.3423 -0.8589
  271MOL0     H37372  13.024   2.654   0.093  3.7499  2.0417  2.5583
  271MOL0     H37373  12.988   2.498   0.174  2.0787  1.0594 -0.5130
  271MOL0     H37374  13.006   2.666   0.400  4.8465  1.4080  3.5606
  271MOL0     H37375  13.124   2.731   0.289  1.2070 -0.5074  0.9601
  271MOL0     H37376  13.217   2.579   0.439  0.8706  3.2361 -1.7280
  271MOL0     H37377  13.212   2.509   0.271 -1.9445  0.6671 -0.9980
  271MOL0     H37378  12.144   2.742   0.140  1.5248 -1.6808 -0.7093
  271MOL0     H37379  11.908   2.830   0.119 -2.2844 -0.6200 -0.1160
  271MOL0     H37380  11.605   3.024   0.119  1.8097  0.9331 -0.4214
  271MOL0     H37381  11.362   3.043   0.175  2.7138  2.0938  0.3043
  271MOL0     H37382   9.493   3.276   0.308  1.9772 -0.6760 -0.2950
  271MOL0     H37383   9.243   3.313   0.307  1.6923  1.0574 -0.0333
  271MOL0     H37384   8.854   3.090   0.456 -0.8801  0.6086 -1.8383
  271MOL0     H37385   8.622   3.096   0.442 -0.2055 -0.4100  0.8694
  271MOL0     H37386   8.351   3.165   0.427  2.0686  1.4531  0.0606
  271MOL0     H37387   8.444   3.062   0.537 -2.6580 -2.4429 -1.1559
  271MOL0     H37388   8.260   3.168   0.731  0.8291  1.1494  0.1040
  271MOL0     H37389   8.214   3.047   0.615  0.3348  0.3550 -0.3738
  271MOL0     H37390   8.182   3.355   0.583 -0.3264  0.5053 -3.1450
  271MOL0     H37391   8.130   3.237   0.470 -0.8557  2.3832  0.3812
  271MOL0     H37392   8.047   3.236   0.751  3.7813 -2.4236 -1.1730
  271MOL0     H37393   7.963   3.142   0.627  0.0818 -0.9139  3.6518
  271MOL0     H37394   7.823   3.529   0.522  3.0367  2.2645 -1.2318
  271MOL0     H37395   8.599   3.435   0.700 -1.3813 -0.1974 -0.6203
  271MOL0     H37396   8.912   3.463   0.820  1.0913  1.7898  0.6751
  271MOL0     H37397   8.920   3.539   0.660 -0.9277  0.2130 -0.4297
  271MOL0     H37398   8.779   3.554   0.767  2.4546  1.1814  1.6479
  272MOL0     O37399   7.090   2.544  10.879  0.1042 -0.3583 -0.5367
  272MOL0     C37400   7.119   2.488  10.770  0.4459 -0.7054 -0.6930
  272MOL0     O37401   7.238   2.421  10.742 -0.8478  0.3141  0.0052
  272MOL0     C37402   7.345   2.424  10.825 -0.2612 -0.1822 -0.2683
  272MOL0     C37403   7.360   2.333  10.930  0.5219 -0.1911 -0.1450
  272MOL0     C37404   7.482   2.320  11.003 -0.2514 -0.0146  0.0392
  272MOL0     C37405   7.591   2.406  10.971 -0.6762 -0.1162 -0.2391
  272MOL0     O37406   7.714   2.394  11.039 -0.4256  0.0689  0.3484
  272MOL0     C37407   7.782   2.504  11.100  0.2424 -0.0144 -0.8233
  272MOL0     C37408   7.924   2.483  11.120 -0.7620  0.3199  0.3792
  272MOL0     C37409   8.007   2.606  11.143  0.3894  0.2457  0.2314
  272MOL0     C37410   7.955   2.695  11.262 -0.3460 -0.2486  0.1887
  272MOL0     C37411   8.061   2.799  11.306  1.3258 -0.0731 -0.3819
  272MOL0     C37412   8.171   2.740  11.397  0.8256 -0.3425  0.1586
  272MOL0     C37413   8.270   2.846  11.441  0.1180 -0.4416  0.6893
  272MOL0     C37414   8.367   2.905  11.339 -1.1625 -0.2953 -0.2980
  272MOL0     N37415   8.479   2.987  11.403 -0.3528  0.3994 -0.5655
  272MOL0     C37416   8.612   2.949  11.432 -0.3848  0.2469  0.0712
  272MOL0     C37417   8.671   3.062  11.470 -0.0466  0.2591  0.1125
  272MOL0     C37418   8.810   3.070  11.505 -0.5803 -0.5915 -0.8825
  272MOL0     C37419   8.887   3.160  11.407  0.1870  0.6185 -0.1813
  272MOL0     C37420   8.988   3.244  11.470 -0.0374 -0.1909  0.9685
  272MOL0     C37421   9.037   3.356  11.377  0.1638 -0.2615  0.3420
  272MOL0     O37422   9.119   3.441  11.455 -0.7400 -0.2474  0.4642
  272MOL0     C37423   9.255   3.434  11.443  0.4861  0.6233 -0.4414
  272MOL0     C37424   9.324   3.328  11.385  0.1536  0.6404  0.3386
  272MOL0     C37425   9.460   3.308  11.391 -0.4322 -0.1255  1.4291
  272MOL0     C37426   9.523   3.196  11.309 -0.3189 -0.6435  0.4337
  272MOL0     C37427   9.536   3.404  11.469 -0.0701  0.3172 -0.0748
  272MOL0     C37428   9.688   3.413  11.474  0.6547 -0.3508  0.0366
  272MOL0     O37429   9.735   3.459  11.592  0.4464 -0.1604 -0.2445
  272MOL0     C37430   9.872   3.459  11.612  0.3531 -0.6270  0.6838
  272MOL0     C37431   9.954   3.347  11.576  0.5981 -0.1450  0.2217
  272MOL0     C37432  10.095   3.362  11.577 -0.3469  0.5476  0.2535
  272MOL0     C37433  10.154   3.483  11.619 -1.0713  1.2420 -0.8665
  272MOL0     O37434  10.292   3.494  11.627  0.4238  0.5692  0.7896
  272MOL0     C37435  10.369   3.382  11.669  0.4270  0.1495  0.3366
  272MOL0     C37436  10.488   3.447  11.746 -0.1009  1.0168 -0.2569
  272MOL0     C37437  10.593   3.530  11.672  1.5080  0.4960  0.8802
  272MOL0     C37438  10.718   3.589  11.745 -0.6738  0.2388 -0.6373
  272MOL0     C37439  10.817   3.477  11.766  0.5405 -1.0677 -1.0003
  272MOL0     C37440  10.935   3.532  11.842  0.2586 -0.9735 -0.4361
  272MOL0     C37441  11.060   3.435  11.838 -0.6382 -0.0895  0.5637
  272MOL0     C37442  11.164   3.462  11.955  0.0993 -0.1982  0.1980
  272MOL0    Cl37443  11.232   3.618  11.902  0.4342  0.2389  0.3261
  272MOL0     C37444  10.074   3.585  11.659  0.7883  0.2230  0.2855
  272MOL0     C37445   9.930   3.574  11.650 -0.2694  0.2652 -0.1845
  272MOL0     O37446   9.749   3.389  11.370  0.5775 -0.4766 -0.0488
  272MOL0     C37447   9.467   3.511  11.529  0.2752  0.1460 -0.8134
  272MOL0     C37448   9.329   3.526  11.513  0.0811  0.7681 -0.1697
  272MOL0     N37449   8.574   3.167  11.467  0.1925  0.2583 -0.1115
  272MOL0     N37450   8.457   3.115  11.438  0.1921 -0.0847 -0.6149
  272MOL0     C37451   7.564   2.514  10.873  0.3282  0.7717 -0.6509
  272MOL0     C37452   7.445   2.519  10.798 -0.7672  0.7742 -0.3143
  272MOL0     C37453   7.023   2.508  10.653  0.0699  0.3643 -0.7156
  272MOL0     C37454   7.076   2.529  10.530  0.7888  0.0523  0.0536
  272MOL0     C37455   6.987   2.541  10.418 -0.6827 -0.9605 -0.8919
  272MOL0     C37456   6.847   2.515  10.432 -0.0776 -0.3869  0.2405
  272MOL0     O37457   6.756   2.504  10.323  0.1075 -0.4502 -0.2576
  272MOL0     C37458   6.780   2.576  10.201  0.3210 -0.4503  1.4972
  272MOL0     C37459   6.645   2.579  10.129  0.7290  0.2365 -0.2683
  272MOL0     C37460   6.617   2.445  10.057  0.2901 -0.3108  0.9899
  272MOL0     C37461   6.715   2.424   9.938  0.2487  0.0224  0.4346
  272MOL0     C37462   6.663   2.312   9.866 -0.4506 -0.1206  1.1792
  272MOL0     C37463   6.598   2.240   9.797 -0.5258 -0.3994  0.0695
  272MOL0     C37464   6.797   2.494  10.558  0.3551 -0.4407 -0.2852
  272MOL0     C37465   6.881   2.494  10.673 -1.0644  0.5950  0.4264
  272MOL0     C37466   6.815   2.467  10.808 -0.8463 -0.4143 -0.1495
  272MOL0     H37467   7.280   2.264  10.953  0.1483 -0.4552 -2.0870
  272MOL0     H37468   7.492   2.262  11.094 -2.1173  0.5837  0.6737
  272MOL0     H37469   7.743   2.515  11.202  1.8603 -2.8268  0.2250
  272MOL0     H37470   7.752   2.595  11.048 -0.8778 -0.9848 -1.9445
  272MOL0     H37471   7.951   2.409  11.196 -0.5448  0.4564  0.4381
  272MOL0     H37472   7.954   2.450  11.021 -4.9970  0.7493 -1.2536
  272MOL0     H37473   8.110   2.571  11.161  1.3822  2.6876 -0.3539
  272MOL0     H37474   8.013   2.664  11.050 -0.5068 -0.6240 -0.3850
  272MOL0     H37475   7.858   2.743  11.246 -2.0869 -2.0713  3.8521
  272MOL0     H37476   7.938   2.630  11.349  0.8566 -0.8422  0.0021
  272MOL0     H37477   8.006   2.874  11.365  1.4940  1.5577 -2.1889
  272MOL0     H37478   8.109   2.853  11.224 -0.5856  0.9207 -0.9209
  272MOL0     H37479   8.120   2.692  11.481  0.1234 -1.2686 -0.7727
  272MOL0     H37480   8.222   2.668  11.333  2.1063 -2.0039  2.8667
  272MOL0     H37481   8.332   2.793  11.514  0.8083 -1.0721 -0.3237
  272MOL0     H37482   8.216   2.929  11.489 -0.4981  0.4620 -1.4593
  272MOL0     H37483   8.409   2.822  11.282 -2.2884 -2.7022  2.1510
  272MOL0     H37484   8.319   2.977  11.272  0.7153  2.2320  0.8929
  272MOL0     H37485   8.665   2.855  11.414  0.9702  1.5223 -3.5573
  272MOL0     H37486   8.853   2.969  11.501 -0.0265 -0.4880  1.2915
  272MOL0     H37487   8.812   3.100  11.610  1.9033 -0.3893 -0.9282
  272MOL0     H37488   8.930   3.105  11.323 -1.2370 -0.1128 -0.4457
  272MOL0     H37489   8.813   3.229  11.367  0.0997  0.1759 -0.7940
  272MOL0     H37490   8.932   3.285  11.556 -2.8406 -0.8766 -0.4137
  272MOL0     H37491   9.066   3.173  11.498 -2.0274 -2.8631  0.1232
  272MOL0     H37492   9.090   3.312  11.292  0.8124 -2.9325  1.9912
  272MOL0     H37493   8.956   3.419  11.340  0.6292  0.7824  1.0634
  272MOL0     H37494   9.270   3.250  11.332  0.7758 -0.2526  1.0022
  272MOL0     H37495   9.604   3.144  11.362  1.7032  1.7527 -0.0597
  272MOL0     H37496   9.572   3.228  11.217  1.7266 -4.2199  0.0773
  272MOL0     H37497   9.455   3.118  11.277 -0.8567  0.4388 -1.1782
  272MOL0     H37498   9.913   3.252  11.542 -0.1422  0.6153 -1.0786
  272MOL0     H37499  10.165   3.288  11.540 -0.1482 -0.5015  2.5747
  272MOL0     H37500  10.316   3.327  11.747  0.0297  1.9990  1.4260
  272MOL0     H37501  10.403   3.312  11.592  0.3394 -3.2367  3.1113
  272MOL0     H37502  10.435   3.515  11.813 -0.3905  0.9869 -0.4560
  272MOL0     H37503  10.535   3.364  11.800 -1.5473  0.3487  0.0196
  272MOL0     H37504  10.538   3.601  11.609  0.2370 -2.3891 -1.4746
  272MOL0     H37505  10.623   3.469  11.587  2.9202  3.2434 -0.7473
  272MOL0     H37506  10.688   3.641  11.836 -0.9554 -1.1842  0.1044
  272MOL0     H37507  10.763   3.669  11.687  2.6085 -1.1791 -0.2476
  272MOL0     H37508  10.773   3.396  11.825 -0.6489  1.2455  1.5133
  272MOL0     H37509  10.850   3.447  11.666 -0.9006  0.2819 -1.9159
  272MOL0     H37510  10.904   3.556  11.944 -0.6973 -1.5622 -0.5722
  272MOL0     H37511  10.950   3.629  11.793 -0.3182 -0.7770 -0.2293
  272MOL0     H37512  11.117   3.439  11.745 -1.5591 -2.7985 -0.2200
  272MOL0     H37513  11.014   3.336  11.837 -0.9007  0.0291 -0.7551
  272MOL0     H37514  11.253   3.399  11.966  0.1174  0.1171  2.1157
  272MOL0     H37515  11.098   3.462  12.042  0.0874  0.9214  0.1970
  272MOL0     H37516  10.109   3.681  11.696  2.0050 -0.7541  1.7941
  272MOL0     H37517   9.876   3.659  11.690 -2.9667 -1.7565  0.8139
  272MOL0     H37518   9.522   3.583  11.588  1.3485  0.4312 -2.1097
  272MOL0     H37519   9.261   3.601  11.552  0.6338  0.0394  2.3636
  272MOL0     H37520   7.637   2.590  10.849  0.2625  1.0954  0.1326
  272MOL0     H37521   7.423   2.585  10.714 -0.2496 -0.4635 -1.4609
  272MOL0     H37522   7.183   2.532  10.510  0.8302  0.0477  0.2754
  272MOL0     H37523   7.030   2.553  10.320 -1.8276  0.1518 -1.2856
  272MOL0     H37524   6.809   2.678  10.229  2.4859 -1.2335  2.3297
  272MOL0     H37525   6.865   2.537  10.145  1.0176  3.1708 -0.2776
  272MOL0     H37526   6.642   2.667  10.064 -2.0948 -0.2183 -0.8980
  272MOL0     H37527   6.559   2.583  10.196 -0.5862  0.4715 -1.8954
  272MOL0     H37528   6.630   2.363  10.129 -3.1251 -0.6442  1.3875
  272MOL0     H37529   6.513   2.445  10.022  0.0583  0.6706  1.6308
  272MOL0     H37530   6.809   2.403   9.989  0.6290 -1.1683 -0.7202
  272MOL0     H37531   6.720   2.506   9.866  1.2827 -1.1593 -0.8817
  272MOL0     H37532   6.531   2.166   9.758 -1.8886  0.1975  1.1941
  272MOL0     H37533   6.695   2.459  10.571 -0.6732  2.8819  1.9927
  272MOL0     H37534   6.888   2.403  10.859  0.3874  0.9466 -0.1284
  272MOL0     H37535   6.809   2.564  10.859 -0.2766 -0.7661  0.6094
  272MOL0     H37536   6.715   2.423  10.809 -1.2103  0.2655  2.4477
  273MOL0     O37537   2.672   8.057   8.042  0.3399 -0.2222 -0.4840
  273MOL0     C37538   2.563   8.068   8.097 -0.0837 -0.5978 -0.9301
  273MOL0     O37539   2.547   8.113   8.223 -0.2205  0.6260 -0.6456
  273MOL0     C37540   2.655   8.156   8.302 -0.4524 -0.2941 -0.3513
  273MOL0     C37541   2.755   8.239   8.259  0.3222 -0.3050  0.0307
  273MOL0     C37542   2.852   8.284   8.353  0.3068  0.2046 -1.0409
  273MOL0     C37543   2.863   8.222   8.479 -0.0375  0.1386  0.4111
  273MOL0     O37544   2.978   8.254   8.545 -0.0809 -0.0277  0.6513
  273MOL0     C37545   3.027   8.162   8.637  0.3174  0.2420  1.0050
  273MOL0     C37546   3.146   8.214   8.709  0.0886 -0.8857  0.1684
  273MOL0     C37547   3.263   8.205   8.616 -0.1648  0.0729  0.6713
  273MOL0     C37548   3.389   8.272   8.683 -0.3268 -0.4843  0.4934
  273MOL0     C37549   3.517   8.286   8.583  0.5374  0.1521 -0.2220
  273MOL0     C37550   3.655   8.298   8.659 -0.2168 -0.6985  0.1824
  273MOL0     C37551   3.772   8.285   8.564  0.3650  0.6394  0.5477
  273MOL0     C37552   3.908   8.298   8.627 -0.0599 -0.0846  0.3341
  273MOL0     N37553   4.012   8.241   8.533  0.5106 -0.4048 -0.6614
  273MOL0     C37554   4.115   8.152   8.564  0.4788 -0.1154 -0.7316
  273MOL0     C37555   4.206   8.149   8.460  0.7177  0.2160 -0.1293
  273MOL0     C37556   4.354   8.088   8.437  0.2970 -0.6025 -0.0704
  273MOL0     C37557   4.378   8.035   8.296  0.0110  1.1084 -0.5529
  273MOL0     C37558   4.519   7.959   8.280  0.5242 -0.5272 -0.4333
  273MOL0     C37559   4.650   8.037   8.321 -0.6585  0.6082  0.7164
  273MOL0     O37560   4.672   8.167   8.260 -0.0375 -0.5210  0.1602
  273MOL0     C37561   4.687   8.171   8.126 -0.5074  0.4532  0.4301
  273MOL0     C37562   4.743   8.062   8.048 -0.1768  0.1819  0.4694
  273MOL0     C37563   4.752   8.076   7.905 -0.3474 -0.1814 -1.0363
  273MOL0     C37564   4.799   7.960   7.822 -1.0888 -0.1559 -0.3590
  273MOL0     C37565   4.729   8.201   7.847 -0.1113 -0.3093  0.7186
  273MOL0     C37566   4.755   8.228   7.708 -0.5657 -0.3841 -0.0695
  273MOL0     O37567   4.656   8.243   7.619  0.4916 -0.1523 -0.2232
  273MOL0     C37568   4.528   8.224   7.659 -0.3708 -0.4335 -0.1478
  273MOL0     C37569   4.453   8.109   7.635  0.6767 -0.3806 -0.1916
  273MOL0     C37570   4.313   8.110   7.670  0.4649  0.0911 -0.1880
  273MOL0     C37571   4.254   8.232   7.719  0.7289 -0.7188  0.1713
  273MOL0     O37572   4.125   8.235   7.755 -0.1413  0.7009  0.5814
  273MOL0     C37573   4.086   8.110   7.824 -1.0795 -0.0038 -0.5604
  273MOL0     C37574   3.948   8.128   7.883  0.0554 -0.2550  0.5426
  273MOL0     C37575   3.835   8.070   7.799  0.1181 -0.8846 -0.4100
  273MOL0     C37576   3.700   8.126   7.835  0.6154 -0.4438 -0.4300
  273MOL0     C37577   3.588   8.050   7.756 -0.0012 -0.1209  0.9504
  273MOL0     C37578   3.443   8.102   7.795  0.2683 -0.9147  0.0988
  273MOL0     C37579   3.432   8.252   7.841 -0.4849 -1.0151  0.3798
  273MOL0     C37580   3.292   8.304   7.877 -0.3432 -0.3841 -0.1197
  273MOL0    Cl37581   3.170   8.300   7.744  0.4331  0.0717 -0.0194
  273MOL0     C37582   4.329   8.345   7.741  0.8662 -0.6192 -0.2417
  273MOL0     C37583   4.466   8.342   7.717 -1.1234  0.2191  0.1061
  273MOL0     O37584   4.876   8.241   7.684  0.4588  0.2838  0.2123
  273MOL0     C37585   4.689   8.308   7.926 -0.3886 -0.4630 -0.6724
  273MOL0     C37586   4.673   8.292   8.064 -0.0323 -0.6282 -0.4571
  273MOL0     N37587   4.148   8.244   8.367  0.0610  0.2769 -0.3554
  273MOL0     N37588   4.043   8.301   8.414  0.1445  0.0312 -0.4783
  273MOL0     C37589   2.759   8.141   8.521  0.0419 -1.1329  0.1041
  273MOL0     C37590   2.658   8.108   8.437  0.6097  0.5403  0.4316
  273MOL0     C37591   2.440   8.037   8.023  0.1877 -0.0086  0.8092
  273MOL0     C37592   2.318   8.074   8.080 -0.3563 -0.4616 -0.0459
  273MOL0     C37593   2.195   8.059   8.016 -0.4816 -0.4674  0.0877
  273MOL0     C37594   2.192   8.019   7.881  0.3276 -0.1896 -0.6621
  273MOL0     O37595   2.073   8.002   7.824 -0.3218  0.2326  0.9081
  273MOL0     C37596   2.030   7.868   7.790  0.1395  0.6962  0.2896
  273MOL0     C37597   1.873   7.868   7.811 -0.7304 -0.0163  0.3856
  273MOL0     C37598   1.805   7.947   7.697 -0.5814 -0.6216  0.0056
  273MOL0     C37599   1.657   7.973   7.717 -0.1625 -0.1779  0.2467
  273MOL0     C37600   1.570   7.852   7.732 -0.4753 -1.1850 -0.6575
  273MOL0     C37601   1.495   7.762   7.750 -0.7648  0.0049 -0.0202
  273MOL0     C37602   2.309   7.970   7.825 -0.4429 -0.5717 -0.7296
  273MOL0     C37603   2.433   7.977   7.892  0.2753  1.2870  0.9365
  273MOL0     C37604   2.548   7.902   7.825  0.4270 -0.6363 -0.2029
  273MOL0     H37605   2.770   8.281   8.160  0.2254  1.7787  0.8585
  273MOL0     H37606   2.935   8.347   8.324 -0.2244  0.6606 -1.6158
  273MOL0     H37607   3.057   8.070   8.584 -0.0561  0.6898 -0.0132
  273MOL0     H37608   2.944   8.148   8.706 -1.0345 -3.6316 -1.0515
  273MOL0     H37609   3.118   8.317   8.736 -0.4585 -1.3471  1.4764
  273MOL0     H37610   3.153   8.170   8.809  0.1983  1.8864  1.4773
  273MOL0     H37611   3.286   8.109   8.569  1.1294  0.8894 -0.4487
  273MOL0     H37612   3.246   8.261   8.523 -0.6843  0.9875  1.2930
  273MOL0     H37613   3.371   8.370   8.727  1.5425  0.5290 -0.8288
  273MOL0     H37614   3.425   8.205   8.762  2.5716  0.7358  0.3675
  273MOL0     H37615   3.498   8.372   8.519  2.2729  0.3726 -0.4756
  273MOL0     H37616   3.519   8.200   8.515 -1.1179 -1.5380  1.7130
  273MOL0     H37617   3.659   8.395   8.710 -3.5041 -0.5219  0.3244
  273MOL0     H37618   3.663   8.215   8.730  2.1375  0.4887  1.4289
  273MOL0     H37619   3.754   8.355   8.482 -2.9925 -0.5531  0.0831
  273MOL0     H37620   3.771   8.186   8.516  1.0994  1.9521 -2.3993
  273MOL0     H37621   3.930   8.405   8.636 -1.0385  0.3771 -1.9994
  273MOL0     H37622   3.919   8.248   8.723  2.2598 -0.5971 -0.1309
  273MOL0     H37623   4.137   8.103   8.658  3.4020  0.0438 -1.2354
  273MOL0     H37624   4.376   8.017   8.517 -0.3943 -1.9618 -1.0436
  273MOL0     H37625   4.418   8.176   8.442  0.2769 -0.6477  1.7176
  273MOL0     H37626   4.302   7.961   8.267 -0.1908  1.0104  0.2173
  273MOL0     H37627   4.370   8.119   8.227 -1.4603  1.6007  0.1893
  273MOL0     H37628   4.512   7.868   8.340  0.9772 -1.0412 -1.1461
  273MOL0     H37629   4.528   7.922   8.177  1.1890  0.4660 -0.7449
  273MOL0     H37630   4.648   8.039   8.430 -4.7264 -2.5991  0.9715
  273MOL0     H37631   4.737   7.976   8.297 -1.8954 -1.2774  0.8331
  273MOL0     H37632   4.778   7.969   8.092  3.4282  0.3687 -1.5854
  273MOL0     H37633   4.713   7.908   7.780  0.2453 -0.3928 -3.0133
  273MOL0     H37634   4.866   7.890   7.873  1.3319  1.7175 -0.7443
  273MOL0     H37635   4.857   7.998   7.737  1.6270 -0.5559  1.1854
  273MOL0     H37636   4.488   8.021   7.582 -1.1683  0.4222 -3.0229
  273MOL0     H37637   4.265   8.015   7.653 -1.2106  0.3600  2.4278
  273MOL0     H37638   4.085   8.028   7.753 -0.6604 -1.2042  0.7781
  273MOL0     H37639   4.151   8.085   7.908  3.1496  3.4166 -2.3672
  273MOL0     H37640   3.955   8.078   7.980  1.5114 -0.7221  0.2140
  273MOL0     H37641   3.927   8.232   7.909 -0.7389  0.3691 -2.2250
  273MOL0     H37642   3.826   7.962   7.817  2.5934 -0.7993  2.1037
  273MOL0     H37643   3.841   8.097   7.694 -1.2603  1.0575 -0.0369
  273MOL0     H37644   3.697   8.233   7.812  0.0330  0.5426  3.5074
  273MOL0     H37645   3.672   8.114   7.940 -0.6367 -4.2347 -1.0288
  273MOL0     H37646   3.614   8.058   7.650  2.2670  1.8608  1.5637
  273MOL0     H37647   3.600   7.943   7.774  1.1595 -0.1562  0.0832
  273MOL0     H37648   3.396   8.048   7.877 -1.6214  1.6330  0.8183
  273MOL0     H37649   3.373   8.105   7.711 -0.9361  2.1474  1.0685
  273MOL0     H37650   3.472   8.323   7.768 -1.3347  0.5021  1.3241
  273MOL0     H37651   3.494   8.265   7.931 -2.5745  1.3518  1.5947
  273MOL0     H37652   3.290   8.405   7.918 -4.4809  0.7207 -2.4512
  273MOL0     H37653   3.258   8.231   7.951 -1.2620 -0.6955 -0.8207
  273MOL0     H37654   4.285   8.438   7.774  2.4306  1.3480 -3.1747
  273MOL0     H37655   4.534   8.425   7.732 -0.4119  0.4815 -3.5041
  273MOL0     H37656   4.692   8.409   7.887  0.9000  0.4559  1.5894
  273MOL0     H37657   4.658   8.378   8.128  0.6116 -0.0935 -1.0087
  273MOL0     H37658   2.759   8.097   8.620  0.7128 -2.3285 -0.4130
  273MOL0     H37659   2.574   8.044   8.459  0.8753 -0.4404 -1.2256
  273MOL0     H37660   2.327   8.126   8.175  0.8469  1.2424 -1.0283
  273MOL0     H37661   2.105   8.092   8.066 -0.8399  1.4277 -1.6449
  273MOL0     H37662   2.066   7.840   7.690 -0.6783 -0.6818  0.3457
  273MOL0     H37663   2.073   7.800   7.864 -1.5948 -0.9128 -0.0942
  273MOL0     H37664   1.844   7.914   7.906  0.3225 -0.3508  0.8882
  273MOL0     H37665   1.835   7.766   7.809 -0.8174  0.0295 -1.5850
  273MOL0     H37666   1.855   8.043   7.685  1.4184 -1.6206 -0.1030
  273MOL0     H37667   1.819   7.900   7.599 -0.6326  0.1726 -0.3831
  273MOL0     H37668   1.621   8.021   7.625  2.2110 -3.2043 -2.4975
  273MOL0     H37669   1.642   8.033   7.807 -0.1142  1.3426 -0.7155
  273MOL0     H37670   1.427   7.681   7.768  0.9255 -1.4942 -0.0009
  273MOL0     H37671   2.312   7.922   7.727 -0.8655 -0.1159 -0.9691
  273MOL0     H37672   2.519   7.881   7.722 -0.5789 -0.0752 -0.0507
  273MOL0     H37673   2.639   7.961   7.832  0.5343 -0.9722  3.0065
  273MOL0     H37674   2.560   7.803   7.870 -0.1090 -2.7180 -4.2159
  274MOL0     O37675   9.137   3.241   3.737  0.0861 -0.0257 -0.0528
  274MOL0     C37676   9.032   3.210   3.784  0.2713  0.8150  0.3682
  274MOL0     O37677   9.006   3.163   3.911 -0.1201  0.5985 -1.1945
  274MOL0     C37678   9.122   3.190   3.984  0.8904 -0.1025 -0.2703
  274MOL0     C37679   9.192   3.087   4.044 -0.3541  0.3619 -0.5041
  274MOL0     C37680   9.331   3.105   4.081  0.1705  0.5790  0.0276
  274MOL0     C37681   9.377   3.236   4.084  0.1986 -0.3011 -0.2550
  274MOL0     O37682   9.504   3.268   4.132 -0.3916  0.4604 -0.0647
  274MOL0     C37683   9.593   3.165   4.185  0.4089 -0.6538 -0.8968
  274MOL0     C37684   9.696   3.226   4.279 -0.1301 -0.1053 -0.3091
  274MOL0     C37685   9.768   3.121   4.361  0.1273 -0.5343 -0.0157
  274MOL0     C37686   9.824   3.185   4.490 -0.7637 -0.0446  0.0042
  274MOL0     C37687   9.867   3.084   4.600  0.4727 -0.7862 -0.8487
  274MOL0     C37688  10.011   3.112   4.649 -0.0153 -1.0397  0.7477
  274MOL0     C37689  10.057   2.992   4.739  0.3586  0.6185  0.7509
  274MOL0     C37690  10.202   3.007   4.786 -0.0814  0.3079 -0.0564
  274MOL0     N37691  10.295   3.031   4.675  0.0085  0.2995 -0.5776
  274MOL0     C37692  10.359   3.148   4.645  0.0794 -0.0826 -0.0553
  274MOL0     C37693  10.449   3.122   4.546  0.2599 -0.8236  0.4582
  274MOL0     C37694  10.534   3.222   4.475  0.1527 -0.2900  0.3041
  274MOL0     C37695  10.485   3.248   4.331  0.3113  1.0972 -0.4316
  274MOL0     C37696  10.520   3.137   4.233 -0.2662 -0.5883  0.1440
  274MOL0     C37697  10.669   3.145   4.188 -0.0008 -0.1360 -0.1814
  274MOL0     O37698  10.682   3.266   4.115  0.1107  0.1117  0.0708
  274MOL0     C37699  10.807   3.299   4.067 -0.3241 -0.7328  0.7179
  274MOL0     C37700  10.823   3.429   4.035 -0.8896 -0.3824 -0.0871
  274MOL0     C37701  10.954   3.476   3.984  0.3185 -1.1024 -0.6002
  274MOL0     C37702  10.967   3.621   3.951 -0.5935 -0.5233 -0.1335
  274MOL0     C37703  11.064   3.384   3.974  0.0622 -0.5733 -0.8224
  274MOL0     C37704  11.201   3.423   3.929 -1.1189  0.6845 -0.0094
  274MOL0     O37705  11.293   3.309   3.917  0.7953  0.2489  0.7545
  274MOL0     C37706  11.425   3.338   3.906 -0.9378  0.4659  1.2421
  274MOL0     C37707  11.497   3.408   4.002 -0.6550  0.6065  0.3288
  274MOL0     C37708  11.637   3.428   3.990  0.1249  0.9406 -0.5095
  274MOL0     C37709  11.704   3.382   3.883  0.3644 -0.0925  0.3971
  274MOL0     O37710  11.839   3.407   3.876  0.4730  0.7137 -0.4923
  274MOL0     C37711  11.920   3.298   3.836  0.3763  0.1387 -0.9553
  274MOL0     C37712  12.053   3.300   3.909  0.1291 -0.5795 -0.3346
  274MOL0     C37713  12.144   3.176   3.876 -0.4437  1.2669  0.0903
  274MOL0     C37714  12.163   3.142   3.728 -0.6464 -0.4704 -0.4851
  274MOL0     C37715  12.277   3.034   3.707  0.5307 -0.4535  0.1367
  274MOL0     C37716  12.251   2.962   3.571 -0.5712 -0.1509  0.4557
  274MOL0     C37717  12.388   2.901   3.522 -0.6121 -0.8134  0.8882
  274MOL0     C37718  12.355   2.821   3.390 -0.5782  0.7442 -0.5706
  274MOL0    Cl37719  12.228   2.702   3.418  0.4060 -0.1915 -0.1489
  274MOL0     C37720  11.630   3.311   3.777 -0.4164 -0.4605 -0.4399
  274MOL0     C37721  11.495   3.287   3.791  0.2157 -0.5746  0.1678
  274MOL0     O37722  11.235   3.540   3.915  0.0603 -0.0073 -0.1357
  274MOL0     C37723  11.035   3.252   4.008 -1.0065 -0.1431 -0.2224
  274MOL0     C37724  10.912   3.197   4.054 -0.6196 -0.2769  0.4046
  274MOL0     N37725  10.449   2.984   4.522  0.6497 -0.3428 -0.2702
  274MOL0     N37726  10.351   2.935   4.598 -0.9151  0.0104 -0.1548
  274MOL0     C37727   9.293   3.345   4.059 -0.5240  0.1297 -0.1342
  274MOL0     C37728   9.167   3.318   4.005  0.0805 -0.2471 -0.5827
  274MOL0     C37729   8.928   3.214   3.683 -0.5529 -0.1202 -0.2926
  274MOL0     C37730   8.942   3.139   3.568 -0.1230 -0.4946  0.8411
  274MOL0     C37731   8.841   3.141   3.473  0.3623 -0.1720  0.2440
  274MOL0     C37732   8.721   3.212   3.492 -1.0490 -0.4957  0.3118
  274MOL0     O37733   8.630   3.229   3.395 -0.3021  0.7983  0.1656
  274MOL0     C37734   8.641   3.357   3.339 -0.4322  0.2174 -0.7062
  274MOL0     C37735   8.547   3.388   3.221  0.8351 -0.6984 -0.2845
  274MOL0     C37736   8.579   3.528   3.166  0.2392 -0.9446  1.0239
  274MOL0     C37737   8.487   3.582   3.049  0.3708 -0.0422 -0.2229
  274MOL0     C37738   8.345   3.570   3.087 -0.5709  0.1842  0.2769
  274MOL0     C37739   8.228   3.578   3.100 -0.3872 -0.7671  0.6265
  274MOL0     C37740   8.706   3.275   3.612  0.2435  0.3902  0.6304
  274MOL0     C37741   8.805   3.281   3.709  0.4065  0.7796 -0.1769
  274MOL0     C37742   8.773   3.344   3.839 -0.0030 -0.3998 -0.2518
  274MOL0     H37743   9.153   2.987   4.030 -0.3262  0.1396  0.8829
  274MOL0     H37744   9.394   3.020   4.102 -0.2084 -0.0565 -1.2970
  274MOL0     H37745   9.644   3.118   4.101  1.2274 -1.0293 -0.2028
  274MOL0     H37746   9.534   3.090   4.239 -1.3023  0.9518 -0.4286
  274MOL0     H37747   9.777   3.281   4.231  2.3748 -1.5014  2.0069
  274MOL0     H37748   9.642   3.289   4.350 -0.9584 -0.9768 -0.1386
  274MOL0     H37749   9.708   3.031   4.376  0.1803 -1.0423 -2.4123
  274MOL0     H37750   9.862   3.096   4.309 -0.1928 -1.7039 -0.0576
  274MOL0     H37751   9.909   3.251   4.469  0.2933 -1.7363 -1.3192
  274MOL0     H37752   9.747   3.237   4.547 -1.2884 -1.7551  0.9136
  274MOL0     H37753   9.864   2.981   4.563 -0.6074  0.2310 -3.8743
  274MOL0     H37754   9.801   3.102   4.685  0.9946  2.4725 -1.0166
  274MOL0     H37755  10.066   3.110   4.555 -0.1449 -0.5354  0.6560
  274MOL0     H37756  10.011   3.204   4.709 -2.6459 -0.0533 -0.6077
  274MOL0     H37757  10.058   2.902   4.677  2.1381  1.5646 -0.7175
  274MOL0     H37758   9.988   2.977   4.823  0.6371 -0.4787  0.7906
  274MOL0     H37759  10.205   3.091   4.856  1.3532  1.5082 -1.5080
  274MOL0     H37760  10.231   2.917   4.842  1.0625  0.7900  0.1408
  274MOL0     H37761  10.328   3.246   4.680  2.0318 -0.3349  2.7136
  274MOL0     H37762  10.631   3.171   4.474  0.4175  0.1595  1.6291
  274MOL0     H37763  10.529   3.314   4.534 -2.4331 -0.1797  0.0318
  274MOL0     H37764  10.378   3.270   4.337 -1.3917 -5.3550 -0.5725
  274MOL0     H37765  10.542   3.337   4.300  0.0053  0.7268 -2.1330
  274MOL0     H37766  10.497   3.038   4.272  0.3433 -0.0503  1.9526
  274MOL0     H37767  10.464   3.141   4.139  0.0959  3.2088 -0.0818
  274MOL0     H37768  10.731   3.150   4.278 -1.4294 -2.6054  1.0333
  274MOL0     H37769  10.685   3.057   4.124  2.0866  1.4381 -1.9974
  274MOL0     H37770  10.738   3.495   4.049 -2.1231 -1.8576 -0.3295
  274MOL0     H37771  10.988   3.637   3.845  1.5916 -1.0090  0.1771
  274MOL0     H37772  11.041   3.683   4.004  0.8254  0.1815 -2.7622
  274MOL0     H37773  10.867   3.663   3.962 -0.1492  1.0319 -1.6470
  274MOL0     H37774  11.455   3.440   4.097 -0.8834 -0.1170  0.4786
  274MOL0     H37775  11.683   3.475   4.076 -0.2817  1.5730 -0.6314
  274MOL0     H37776  11.874   3.202   3.860  2.2892 -1.6909 -3.9195
  274MOL0     H37777  11.933   3.299   3.727  1.4583  0.8285 -0.8441
  274MOL0     H37778  12.103   3.390   3.874  0.9156 -0.5646  0.7843
  274MOL0     H37779  12.041   3.315   4.017  3.1464  3.3548 -0.3414
  274MOL0     H37780  12.106   3.097   3.941  0.4564  0.7595  0.0177
  274MOL0     H37781  12.242   3.202   3.918  0.4041 -3.9637  2.0351
  274MOL0     H37782  12.196   3.227   3.669 -1.8850  2.3966  2.6010
  274MOL0     H37783  12.070   3.095   3.695 -0.3174 -0.8254 -0.9252
  274MOL0     H37784  12.372   3.087   3.694  0.8968  0.1820  4.1165
  274MOL0     H37785  12.294   2.959   3.785  1.6087  0.0873  0.4307
  274MOL0     H37786  12.216   3.025   3.488 -0.8306  2.2056  2.2500
  274MOL0     H37787  12.170   2.894   3.597 -1.0918  1.4107  3.2471
  274MOL0     H37788  12.438   2.851   3.605 -0.7805 -0.9104  0.9326
  274MOL0     H37789  12.452   2.984   3.492 -1.1257 -1.0866 -1.1206
  274MOL0     H37790  12.441   2.759   3.361 -0.8358  1.2827 -2.6954
  274MOL0     H37791  12.330   2.896   3.314 -1.0215  2.9506  1.6140
  274MOL0     H37792  11.684   3.273   3.691  2.9021  1.9251  0.3625
  274MOL0     H37793  11.437   3.243   3.710 -0.0410  0.3822 -0.1810
  274MOL0     H37794  11.123   3.189   4.015  0.8347  2.1845 -1.2211
  274MOL0     H37795  10.909   3.096   4.092  0.2135 -0.4786 -0.0383
  274MOL0     H37796   9.311   3.450   4.083 -1.7209  0.6293 -1.2986
  274MOL0     H37797   9.100   3.400   3.979  0.5892  0.3981  0.1262
  274MOL0     H37798   9.035   3.089   3.540  0.3292  0.5876  0.3552
  274MOL0     H37799   8.863   3.080   3.385  2.7277  2.1716 -0.9381
  274MOL0     H37800   8.620   3.435   3.413 -0.8851 -0.8653  0.3202
  274MOL0     H37801   8.746   3.375   3.314 -0.1848 -2.1460 -1.5281
  274MOL0     H37802   8.441   3.382   3.249 -0.2134 -2.7042 -3.9986
  274MOL0     H37803   8.555   3.312   3.142 -0.4140 -0.6736 -0.4677
  274MOL0     H37804   8.549   3.604   3.239  1.3190  1.0255 -0.4960
  274MOL0     H37805   8.683   3.546   3.138 -0.0227  0.3891  0.8474
  274MOL0     H37806   8.500   3.527   2.955 -1.8004 -1.1982  0.0915
  274MOL0     H37807   8.523   3.682   3.026 -1.0291 -0.0516 -2.9286
  274MOL0     H37808   8.121   3.589   3.104 -0.1008  2.7183  1.3234
  274MOL0     H37809   8.611   3.328   3.615 -1.1202 -1.9090  0.4251
  274MOL0     H37810   8.678   3.399   3.847  2.1394  3.4958  0.6756
  274MOL0     H37811   8.782   3.272   3.920 -1.0048 -0.5903 -0.2891
  274MOL0     H37812   8.835   3.433   3.852 -2.0773  1.2365 -0.9846
  275MOL0     O37813   4.047   6.359   2.608  0.3854 -0.0264  0.5832
  275MOL0     C37814   4.014   6.376   2.724  0.9405  0.3183  0.0940
  275MOL0     O37815   4.096   6.360   2.837  0.2822  0.1770 -0.0973
  275MOL0     C37816   4.229   6.355   2.820  0.2912  0.9425  0.1195
  275MOL0     C37817   4.306   6.312   2.707  0.0180 -0.3899 -0.2816
  275MOL0     C37818   4.449   6.284   2.715 -0.1151 -0.6053 -0.0113
  275MOL0     C37819   4.515   6.328   2.828  0.1319  0.1173 -0.1561
  275MOL0     O37820   4.649   6.317   2.849  0.3402 -0.3139  0.6662
  275MOL0     C37821   4.737   6.322   2.738 -0.6701  0.7614 -0.0437
  275MOL0     C37822   4.854   6.418   2.773 -0.4378 -0.7271  0.6782
  275MOL0     C37823   4.944   6.381   2.893  0.7286  0.1911 -0.7566
  275MOL0     C37824   5.005   6.247   2.880 -0.0284 -0.7843  0.0772
  275MOL0     C37825   5.124   6.237   2.975  0.4338  0.0971  0.3954
  275MOL0     C37826   5.212   6.109   2.984  0.0969  0.2662 -0.0936
  275MOL0     C37827   5.326   6.134   3.081  1.0237  0.3929  0.9435
  275MOL0     C37828   5.406   6.003   3.092 -0.8093 -0.5642 -0.7263
  275MOL0     N37829   5.542   6.036   3.141 -0.2527 -0.1835 -0.2192
  275MOL0     C37830   5.647   6.067   3.060  0.5865  0.5941 -0.2257
  275MOL0     C37831   5.750   6.087   3.135 -0.2858 -1.0254 -0.9811
  275MOL0     C37832   5.899   6.126   3.101  0.2648  0.3186 -0.2374
  275MOL0     C37833   5.998   6.017   3.125 -0.5294 -0.2406  0.5129
  275MOL0     C37834   6.139   6.039   3.068  0.1917  0.2537  0.5823
  275MOL0     C37835   6.231   5.921   3.093  0.5849  0.5798  0.0922
  275MOL0     O37836   6.269   5.901   3.231  0.8957  0.1329  0.0884
  275MOL0     C37837   6.400   5.880   3.256  0.0064 -1.0437 -0.0113
  275MOL0     C37838   6.434   5.779   3.341  0.3101  0.1513  0.6282
  275MOL0     C37839   6.574   5.754   3.366  0.6545  0.4898  0.1264
  275MOL0     C37840   6.597   5.639   3.468  0.4193  0.0417 -0.5029
  275MOL0     C37841   6.673   5.832   3.312 -0.4609 -0.2172  0.3465
  275MOL0     C37842   6.820   5.818   3.337  0.0130 -0.4362  0.3685
  275MOL0     O37843   6.907   5.857   3.235  0.2826 -0.2212  0.0078
  275MOL0     C37844   7.042   5.838   3.260 -0.5110  0.7122  0.0967
  275MOL0     C37845   7.110   5.718   3.223 -0.2406  0.6807  0.9713
  275MOL0     C37846   7.242   5.710   3.245  0.2973  0.1900  0.5817
  275MOL0     C37847   7.318   5.808   3.313  0.1840  0.7048 -0.6816
  275MOL0     O37848   7.456   5.792   3.329 -0.1563  0.3051 -0.3730
  275MOL0     C37849   7.495   5.658   3.365 -1.1369 -0.0603 -0.7115
  275MOL0     C37850   7.635   5.665   3.426 -0.4595 -1.0825  0.2172
  275MOL0     C37851   7.739   5.753   3.347 -0.2623  0.6101  0.6182
  275MOL0     C37852   7.876   5.725   3.415 -0.3352 -0.2312  0.2734
  275MOL0     C37853   7.998   5.800   3.354 -0.2946 -0.1042 -0.9744
  275MOL0     C37854   8.125   5.743   3.424  0.3372  0.5090 -0.1535
  275MOL0     C37855   8.254   5.809   3.370 -0.0882 -0.0907 -0.7232
  275MOL0     C37856   8.287   5.784   3.221 -1.0898  0.0231  0.1868
  275MOL0    Cl37857   8.465   5.807   3.218 -0.1941 -0.0229 -0.3355
  275MOL0     C37858   7.253   5.928   3.351  0.0258  0.0931 -0.4691
  275MOL0     C37859   7.121   5.940   3.322 -0.0903  0.3350  0.1767
  275MOL0     O37860   6.852   5.776   3.441 -0.3751  0.2804  0.4110
  275MOL0     C37861   6.640   5.937   3.232 -0.1300 -1.1578 -0.6895
  275MOL0     C37862   6.501   5.962   3.204 -0.1524 -1.3564 -0.2051
  275MOL0     N37863   5.717   6.056   3.268 -0.3310 -0.0373  0.2417
  275MOL0     N37864   5.589   6.035   3.268  0.0703 -0.1036 -0.7427
  275MOL0     C37865   4.440   6.369   2.937  0.1317  0.0157  0.1390
  275MOL0     C37866   4.303   6.385   2.932  0.3588  0.4879 -0.5060
  275MOL0     C37867   3.869   6.408   2.750  0.1252 -0.1559 -0.0630
  275MOL0     C37868   3.774   6.381   2.653 -0.2966 -0.4468  0.1901
  275MOL0     C37869   3.636   6.405   2.670 -0.0109  0.6847 -0.0807
  275MOL0     C37870   3.598   6.451   2.794  0.1554  0.0051  0.1745
  275MOL0     O37871   3.461   6.481   2.802 -0.2682 -0.0939 -0.5169
  275MOL0     C37872   3.405   6.541   2.928 -0.0567  0.1652  0.6088
  275MOL0     C37873   3.403   6.440   3.043 -0.1716  0.3186 -0.7758
  275MOL0     C37874   3.370   6.521   3.172  0.4050  1.2550  0.1725
  275MOL0     C37875   3.405   6.432   3.295  0.1309  0.2752  0.3531
  275MOL0     C37876   3.550   6.449   3.321  0.4413  0.4869 -0.5458
  275MOL0     C37877   3.669   6.441   3.332  0.0143  0.0108 -0.8540
  275MOL0     C37878   3.693   6.500   2.887  0.1016 -0.1106  0.4131
  275MOL0     C37879   3.832   6.475   2.870  0.1630  0.4134  0.5533
  275MOL0     C37880   3.915   6.515   2.978  0.2543  0.3454 -0.0566
  275MOL0     H37881   4.267   6.273   2.613 -0.6878 -0.2216 -0.0643
  275MOL0     H37882   4.500   6.234   2.633  0.9415  0.2945  0.0760
  275MOL0     H37883   4.694   6.351   2.642 -0.3555 -0.5081 -0.5938
  275MOL0     H37884   4.769   6.217   2.732  0.2744  0.8493  2.2639
  275MOL0     H37885   4.927   6.412   2.692 -0.8193 -1.1589  0.3658
  275MOL0     H37886   4.816   6.520   2.776  1.5509  0.1483 -1.3153
  275MOL0     H37887   5.030   6.450   2.891 -0.1003  1.2412 -1.8162
  275MOL0     H37888   4.890   6.401   2.986 -1.0381  0.5775 -1.8228
  275MOL0     H37889   4.932   6.170   2.907 -0.2815  0.6557  4.3113
  275MOL0     H37890   5.044   6.241   2.778 -1.1350 -0.6750 -0.3676
  275MOL0     H37891   5.073   6.246   3.072  0.1902  2.3765  0.1073
  275MOL0     H37892   5.190   6.319   2.946 -1.0337  0.9933 -0.5270
  275MOL0     H37893   5.156   6.018   3.008  1.8140 -1.4137 -2.0539
  275MOL0     H37894   5.249   6.095   2.882 -1.4832  4.0466 -1.3775
  275MOL0     H37895   5.285   6.168   3.176  1.0637 -3.1652  2.3837
  275MOL0     H37896   5.382   6.213   3.030 -0.2401  0.1703 -0.8544
  275MOL0     H37897   5.354   5.930   3.155 -0.6254 -0.3420 -0.3140
  275MOL0     H37898   5.426   5.958   2.994 -0.5935  0.2025 -1.0384
  275MOL0     H37899   5.648   6.072   2.951 -0.1676 -2.5116 -0.4975
  275MOL0     H37900   5.932   6.213   3.160  1.0848 -0.2502  0.1537
  275MOL0     H37901   5.909   6.156   2.996  2.1698 -1.0734 -0.5005
  275MOL0     H37902   5.995   5.995   3.232  1.2752 -0.2638  0.5804
  275MOL0     H37903   5.958   5.933   3.068 -0.7725  1.1815 -1.5010
  275MOL0     H37904   6.126   6.054   2.960  2.1039  0.2360  0.3214
  275MOL0     H37905   6.186   6.132   3.101 -1.2108  2.2257 -2.4129
  275MOL0     H37906   6.170   5.835   3.063 -0.0207 -0.1457  3.0600
  275MOL0     H37907   6.315   5.928   3.023 -0.5888 -0.1557 -1.4418
  275MOL0     H37908   6.351   5.714   3.364  1.1323 -1.3346 -0.3906
  275MOL0     H37909   6.686   5.579   3.446 -0.9490 -2.6601  0.7696
  275MOL0     H37910   6.506   5.579   3.462  0.3420  0.0935  0.0874
  275MOL0     H37911   6.619   5.679   3.567 -1.7639  0.9084 -0.3035
  275MOL0     H37912   7.061   5.635   3.172  0.0789  1.8300 -1.3464
  275MOL0     H37913   7.291   5.628   3.196  2.1241  1.0380  0.8965
  275MOL0     H37914   7.422   5.612   3.433 -4.3817  0.6293 -3.4607
  275MOL0     H37915   7.494   5.589   3.280 -1.8607 -3.7207  2.0078
  275MOL0     H37916   7.635   5.702   3.529  0.1413  0.0464 -0.1784
  275MOL0     H37917   7.668   5.560   3.430  0.1043 -0.8726  2.4802
  275MOL0     H37918   7.718   5.860   3.347  0.2822  0.8068 -2.3368
  275MOL0     H37919   7.758   5.728   3.242  1.3705  2.2600  0.4563
  275MOL0     H37920   7.887   5.616   3.406  0.6722 -0.2220  1.2149
  275MOL0     H37921   7.868   5.749   3.521  0.8892 -0.7559  0.5021
  275MOL0     H37922   8.007   5.786   3.246  0.2375 -2.0031 -0.7299
  275MOL0     H37923   7.994   5.908   3.373  1.7511  0.1624 -1.8006
  275MOL0     H37924   8.143   5.641   3.389 -3.3549 -0.0533 -0.7956
  275MOL0     H37925   8.111   5.750   3.532  0.7486  0.9019 -0.1227
  275MOL0     H37926   8.338   5.772   3.430 -1.3299  2.8115  3.2645
  275MOL0     H37927   8.241   5.915   3.396  0.9960 -0.1169 -0.0084
  275MOL0     H37928   8.234   5.856   3.158  1.3044  1.7732  0.0137
  275MOL0     H37929   8.271   5.680   3.191  0.7443 -0.5312  0.9950
  275MOL0     H37930   7.312   6.009   3.393  1.5459 -1.4342  0.4875
  275MOL0     H37931   7.070   6.033   3.344 -0.6965  0.8437 -2.8854
  275MOL0     H37932   6.703   6.014   3.187 -1.9219 -0.0646 -1.4282
  275MOL0     H37933   6.479   6.058   3.157  1.6182  0.0795  1.7318
  275MOL0     H37934   4.474   6.380   3.040 -1.3757 -2.3412  0.9801
  275MOL0     H37935   4.238   6.419   3.012 -0.4382  2.2622 -1.8335
  275MOL0     H37936   3.810   6.352   2.555 -2.5643  0.1932 -0.9110
  275MOL0     H37937   3.571   6.372   2.590  1.7042 -1.2966 -0.7337
  275MOL0     H37938   3.463   6.632   2.945  1.5716 -1.1758  2.5219
  275MOL0     H37939   3.300   6.570   2.915 -0.0840 -0.5542 -1.0852
  275MOL0     H37940   3.499   6.392   3.065 -0.7769  0.8467  4.0494
  275MOL0     H37941   3.341   6.352   3.023  2.9885 -3.0070  2.4395
  275MOL0     H37942   3.417   6.620   3.172 -1.2253  2.0894 -1.6336
  275MOL0     H37943   3.261   6.532   3.175 -0.2024 -2.5770 -1.6903
  275MOL0     H37944   3.392   6.324   3.294  3.3660 -0.1887  0.0965
  275MOL0     H37945   3.346   6.476   3.376 -1.9987 -0.5078 -0.6970
  275MOL0     H37946   3.774   6.429   3.346  0.2317  2.3877 -0.0481
  275MOL0     H37947   3.663   6.523   2.989  0.7895 -0.3775  0.6813
  275MOL0     H37948   3.884   6.453   3.062  2.4386  1.7552  1.9088
  275MOL0     H37949   4.024   6.515   2.977  0.2559  0.9644 -0.3886
  275MOL0     H37950   3.894   6.617   3.012 -1.5051  0.0628 -0.2063
  276MOL0     O37951   0.168   6.069   6.174  0.5008  0.4695  0.1709
  276MOL0     C37952   0.132   6.188   6.169 -0.1549  0.3821 -0.2601
  276MOL0     O37953   0.180   6.282   6.258 -0.1154  0.1098  0.0791
  276MOL0     C37954   0.266   6.237   6.360  0.6027  0.6257  0.9402
  276MOL0     C37955   0.224   6.183   6.479  0.3280  0.3105 -0.2390
  276MOL0     C37956   0.321   6.132   6.576 -0.1769 -1.7029  0.2592
  276MOL0     C37957   0.464   6.139   6.538 -0.2349  0.5334 -0.1217
  276MOL0     O37958   0.551   6.086   6.631 -0.3374  0.0962  0.2426
  276MOL0     C37959   0.674   6.034   6.584  0.1113  0.0848 -1.2149
  276MOL0     C37960   0.658   5.884   6.564  0.4713  0.1490 -0.2495
  276MOL0     C37961   0.792   5.821   6.546 -0.7977 -0.0344 -0.1340
  276MOL0     C37962   0.789   5.666   6.535  0.1995  0.2397  0.8431
  276MOL0     C37963   0.921   5.608   6.482  0.1929  0.0360  0.0459
  276MOL0     C37964   1.054   5.644   6.553  0.7237  0.2038  0.2158
  276MOL0     C37965   1.165   5.588   6.471  0.3900 -0.8329  0.5401
  276MOL0     C37966   1.188   5.441   6.470 -0.8243  0.8784 -0.4994
  276MOL0     N37967   1.308   5.392   6.404 -0.0210  0.2318  0.5742
  276MOL0     C37968   1.436   5.401   6.443 -0.4647  0.6540 -0.1154
  276MOL0     C37969   1.508   5.324   6.362 -1.6841 -0.1767 -0.4026
  276MOL0     C37970   1.641   5.273   6.416  0.3140  0.7501  0.8590
  276MOL0     C37971   1.755   5.268   6.310 -0.2370 -0.0839  0.3060
  276MOL0     C37972   1.870   5.185   6.368  0.2750 -0.1712 -0.2203
  276MOL0     C37973   2.002   5.213   6.307  0.4538  0.2441 -0.4532
  276MOL0     O37974   2.103   5.132   6.351  0.1739 -0.0403  0.3036
  276MOL0     C37975   2.239   5.144   6.325  1.0795 -0.5345 -0.2948
  276MOL0     C37976   2.294   5.264   6.277 -0.2935  0.2909  0.6462
  276MOL0     C37977   2.434   5.279   6.255 -0.8046  1.0893 -0.2247
  276MOL0     C37978   2.476   5.411   6.205 -0.3080 -0.4376 -0.4489
  276MOL0     C37979   2.517   5.170   6.304 -0.7597 -0.2924  0.4936
  276MOL0     C37980   2.661   5.175   6.293  0.0417 -0.0913 -0.5701
  276MOL0     O37981   2.719   5.050   6.279 -0.0981 -0.5365 -0.2149
  276MOL0     C37982   2.856   5.036   6.259 -0.0108  0.1220 -0.6891
  276MOL0     C37983   2.905   5.025   6.121 -0.4349 -0.3325 -0.2320
  276MOL0     C37984   3.045   4.993   6.105 -0.1311 -0.4150  0.4797
  276MOL0     C37985   3.128   4.978   6.220  0.0217 -0.6105  0.4470
  276MOL0     O37986   3.256   4.936   6.209  0.6552  0.5520 -0.2994
  276MOL0     C37987   3.311   4.953   6.073  0.3451  0.1851  0.0667
  276MOL0     C37988   3.461   4.938   6.099 -0.1329  0.9760  0.5190
  276MOL0     C37989   3.548   4.977   5.971 -0.0914 -0.2546 -0.1892
  276MOL0     C37990   3.690   4.920   5.974  0.1069  0.3767 -0.7896
  276MOL0     C37991   3.784   4.977   5.876  0.0116  0.3281  0.2242
  276MOL0     C37992   3.924   4.911   5.890  0.3902  1.2321  0.0098
  276MOL0     C37993   3.928   4.755   5.843 -0.7669 -0.2259 -0.0475
  276MOL0     C37994   4.065   4.712   5.792  0.0475 -0.4943  1.4297
  276MOL0    Cl37995   4.190   4.723   5.917 -0.0798 -0.5760  0.1493
  276MOL0     C37996   3.082   4.982   6.348 -0.3614  0.4543  0.0246
  276MOL0     C37997   2.945   5.012   6.366  0.2492 -0.2969  0.4345
  276MOL0     O37998   2.721   5.283   6.304 -0.2730  0.3675 -0.1678
  276MOL0     C37999   2.459   5.057   6.356 -0.5972  0.3068  0.0272
  276MOL0     C38000   2.325   5.033   6.353  0.1170  0.2104 -0.3723
  276MOL0     N38001   1.431   5.276   6.256 -0.3923  0.6767  0.3297
  276MOL0     N38002   1.313   5.322   6.285  0.7219 -0.2570  0.5478
  276MOL0     C38003   0.501   6.199   6.419 -0.3512 -0.1966  0.6512
  276MOL0     C38004   0.404   6.250   6.334  0.3250  0.2980  0.7733
  276MOL0     C38005   0.050   6.244   6.060 -0.0190 -0.1598  1.2088
  276MOL0     C38006   0.077   6.377   6.021 -1.3313 -0.2891 -0.1943
  276MOL0     C38007  -0.004   6.429   5.926  0.3763  0.3209 -0.6960
  276MOL0     C38008  -0.112   6.358   5.871  0.7619 -0.0072  0.1109
  276MOL0     O38009  -0.208   6.413   5.788 -0.2570 -0.0199  0.4639
  276MOL0     C38010  -0.184   6.528   5.710 -0.1185  0.2465 -0.4440
  276MOL0     C38011  -0.112   6.499   5.586  0.5588 -0.0666 -0.6782
  276MOL0     C38012   0.042   6.492   5.587  0.6692  0.0480  0.8540
  276MOL0     C38013   0.079   6.509   5.435  0.2370  0.8630 -0.3036
  276MOL0     C38014   0.230   6.521   5.427  0.4324 -0.2915  0.3960
  276MOL0     C38015   0.352   6.536   5.423 -0.0376 -0.8525  0.5534
  276MOL0     C38016  -0.142   6.235   5.916 -0.7775  0.2826  0.1149
  276MOL0     C38017  -0.057   6.165   6.006  0.6933  0.3208  0.0828
  276MOL0     C38018  -0.090   6.021   6.047 -0.1695 -0.2765  0.3837
  276MOL0     H38019   0.119   6.161   6.496  0.7841 -1.4166  0.5942
  276MOL0     H38020   0.277   6.084   6.664  0.4462  0.6127  1.9326
  276MOL0     H38021   0.758   6.052   6.652 -0.2244 -1.3548 -0.3733
  276MOL0     H38022   0.710   6.085   6.494 -0.3957  0.6434 -1.1067
  276MOL0     H38023   0.627   5.838   6.658  2.4584 -0.5097  0.1272
  276MOL0     H38024   0.590   5.859   6.482 -0.1133  1.8064 -0.3167
  276MOL0     H38025   0.831   5.858   6.451 -0.6341  2.2327  0.7672
  276MOL0     H38026   0.852   5.856   6.630 -0.6823  1.8971 -0.9746
  276MOL0     H38027   0.774   5.626   6.636 -1.4350 -0.1767  0.4629
  276MOL0     H38028   0.711   5.638   6.464 -0.7408  1.5088  1.3360
  276MOL0     H38029   0.939   5.635   6.378  1.8816 -0.7416  0.0905
  276MOL0     H38030   0.906   5.500   6.481 -0.8163  0.1735  0.1774
  276MOL0     H38031   1.059   5.751   6.572 -0.9833  0.2901  0.2891
  276MOL0     H38032   1.053   5.599   6.653 -0.0626 -1.7880 -0.6354
  276MOL0     H38033   1.257   5.631   6.510 -0.1743 -0.2247  1.2303
  276MOL0     H38034   1.165   5.633   6.371  3.6097 -1.0329  0.3570
  276MOL0     H38035   1.191   5.397   6.570 -0.4757 -1.0979 -1.3168
  276MOL0     H38036   1.099   5.397   6.423 -2.7850  1.3924  2.4892
  276MOL0     H38037   1.459   5.443   6.540  0.1596 -1.1965  0.5795
  276MOL0     H38038   1.628   5.169   6.449  0.8279  0.1897 -0.6240
  276MOL0     H38039   1.671   5.331   6.504 -1.5253 -0.7521  2.5763
  276MOL0     H38040   1.721   5.224   6.216  3.3182  2.3944 -2.4433
  276MOL0     H38041   1.790   5.372   6.299  1.9480 -0.9469 -1.9166
  276MOL0     H38042   1.886   5.212   6.472  3.2535 -1.1499 -0.3242
  276MOL0     H38043   1.844   5.079   6.360  1.1268 -0.4559  0.6182
  276MOL0     H38044   2.006   5.200   6.199 -0.2960  0.9263 -0.5652
  276MOL0     H38045   2.028   5.319   6.319  0.8626  0.0760  0.2491
  276MOL0     H38046   2.231   5.343   6.237 -1.1071 -0.0608  1.2150
  276MOL0     H38047   2.486   5.464   6.300  0.9185  0.5967 -1.1341
  276MOL0     H38048   2.405   5.460   6.137 -0.7209 -0.8723 -0.3414
  276MOL0     H38049   2.569   5.405   6.149  1.1937 -3.1864  2.0697
  276MOL0     H38050   2.838   5.033   6.036  1.5062  3.6415 -1.6475
  276MOL0     H38051   3.072   4.979   6.001 -0.1133  0.0382  0.4227
  276MOL0     H38052   3.267   4.879   6.005  0.4705  0.8880 -0.7968
  276MOL0     H38053   3.291   5.054   6.036  1.7563  1.5785  2.8334
  276MOL0     H38054   3.476   5.015   6.176  0.5695  3.8935 -2.3048
  276MOL0     H38055   3.497   4.841   6.135  2.7731  0.1707 -3.8090
  276MOL0     H38056   3.559   5.086   5.966  1.5558 -0.3865 -0.1816
  276MOL0     H38057   3.501   4.942   5.878 -0.3199 -2.1037  0.5819
  276MOL0     H38058   3.681   4.811   5.971 -0.0419  0.2585  1.8355
  276MOL0     H38059   3.737   4.941   6.070  2.9081  0.9074 -2.1752
  276MOL0     H38060   3.746   4.952   5.777 -3.2008 -0.5483  1.5178
  276MOL0     H38061   3.811   5.081   5.895  1.1061  0.1516 -0.2951
  276MOL0     H38062   3.973   4.920   5.987  2.3621 -0.7290 -0.6997
  276MOL0     H38063   4.000   4.959   5.827  1.3284  2.9697  2.3351
  276MOL0     H38064   3.855   4.745   5.761 -1.4577 -0.8330  0.6225
  276MOL0     H38065   3.900   4.687   5.923 -1.8602  1.0061  0.6725
  276MOL0     H38066   4.088   4.766   5.700  0.9298 -2.4551  0.4292
  276MOL0     H38067   4.051   4.610   5.755 -1.2055 -0.3518  1.4633
  276MOL0     H38068   3.141   4.953   6.434  0.5014 -1.5050 -1.1486
  276MOL0     H38069   2.904   5.011   6.466  0.1190 -0.6758  0.3793
  276MOL0     H38070   2.523   4.974   6.385 -2.3436 -1.1053  0.0613
  276MOL0     H38071   2.285   4.939   6.388 -0.5563  1.5475  2.8367
  276MOL0     H38072   0.601   6.214   6.381 -0.3383  0.6414  0.9905
  276MOL0     H38073   0.441   6.284   6.238  1.0129  0.2340  1.0115
  276MOL0     H38074   0.147   6.449   6.063 -0.9894 -1.3549  1.1043
  276MOL0     H38075  -0.003   6.535   5.900 -0.6537  0.6189  0.4040
  276MOL0     H38076  -0.283   6.570   5.689  0.0177  1.0646  0.4557
  276MOL0     H38077  -0.134   6.607   5.767 -0.1907  1.5900 -2.1680
  276MOL0     H38078  -0.136   6.592   5.534  0.3232  1.7804  2.4702
  276MOL0     H38079  -0.161   6.407   5.553  2.6949 -2.3002  1.9055
  276MOL0     H38080   0.066   6.580   5.648 -2.5820  2.0409 -0.4728
  276MOL0     H38081   0.080   6.396   5.623  2.8670  0.5153 -0.0380
  276MOL0     H38082   0.030   6.595   5.388 -0.2041  0.7334 -0.0889
  276MOL0     H38083   0.039   6.415   5.396  0.1675  0.3859  0.8778
  276MOL0     H38084   0.459   6.537   5.425 -0.0293  1.5353  1.0460
  276MOL0     H38085  -0.231   6.186   5.877 -1.1980 -0.0223  1.3911
  276MOL0     H38086  -0.189   5.986   6.016 -0.1561 -2.3027  2.3640
  276MOL0     H38087  -0.006   5.960   6.012 -0.2482 -1.1785  1.6933
  276MOL0     H38088  -0.097   6.009   6.156  4.5537 -1.2196  0.7896
  277MOL0     O38089   9.952   3.827   9.832  0.0935 -0.1370 -0.2240
  277MOL0     C38090   9.897   3.874   9.929  0.3232 -0.1334 -0.3235
  277MOL0     O38091   9.954   3.973  10.006 -0.3394 -0.1795  0.1992
  277MOL0     C38092  10.089   3.991   9.997  0.6514  0.4879  0.3249
  277MOL0     C38093  10.135   4.111   9.954  0.2480 -0.3145  0.3939
  277MOL0     C38094  10.269   4.140   9.937  0.0498  0.7263 -0.5490
  277MOL0     C38095  10.368   4.051   9.997  0.0217 -0.2472  0.2238
  277MOL0     O38096  10.504   4.076   9.984  1.0164  0.1676 -0.4320
  277MOL0     C38097  10.562   4.022   9.864 -0.3119  0.1027 -0.3866
  277MOL0     C38098  10.681   3.932   9.898 -0.5097 -0.0642  0.0512
  277MOL0     C38099  10.818   3.994   9.906  0.1087  0.6097 -0.6731
  277MOL0     C38100  10.927   3.887   9.940 -0.3127  0.5664  0.0927
  277MOL0     C38101  11.070   3.934   9.926  0.0484 -0.0320  1.0574
  277MOL0     C38102  11.169   3.814   9.915  0.6400  0.1022 -0.4765
  277MOL0     C38103  11.170   3.733  10.046  0.5076 -0.3679 -0.0351
  277MOL0     C38104  11.263   3.615  10.056  0.2320 -0.1673 -0.7311
  277MOL0     N38105  11.398   3.666  10.105 -0.0427  0.5514 -0.5350
  277MOL0     C38106  11.443   3.677  10.234 -0.2933 -0.1950  0.7685
  277MOL0     C38107  11.579   3.685  10.220  0.0442  0.3765  0.4286
  277MOL0     C38108  11.666   3.681  10.344 -0.1374 -0.6922 -0.0320
  277MOL0     C38109  11.821   3.687  10.314  1.4255  1.0809  0.0824
  277MOL0     C38110  11.888   3.754  10.427 -0.9308 -0.1956  1.1768
  277MOL0     C38111  12.043   3.728  10.423  0.6604 -0.0132  0.6754
  277MOL0     O38112  12.109   3.792  10.310 -0.4638  0.0593 -0.6161
  277MOL0     C38113  12.250   3.777  10.314  0.1461  0.3749  0.3340
  277MOL0     C38114  12.326   3.850  10.228  0.4806 -0.9104  0.0176
  277MOL0     C38115  12.471   3.849  10.229 -0.7750 -0.5557  0.6777
  277MOL0     C38116  12.548   3.947  10.131  0.1509 -0.3173  0.7113
  277MOL0     C38117  12.538   3.766  10.318  0.5710  0.0854 -1.2504
  277MOL0     C38118  12.689   3.737  10.316  0.2278 -0.2340  0.8963
  277MOL0     O38119  12.779   3.836  10.275 -0.8948  0.1756 -0.1111
  277MOL0     C38120  12.907   3.793  10.252 -0.2551  0.4539  0.2650
  277MOL0     C38121  12.999   3.786  10.361  0.3094  0.8215  0.2995
  277MOL0     C38122  13.129   3.737  10.340 -0.1877 -0.4974  0.4691
  277MOL0     C38123  13.171   3.696  10.208 -0.7682 -0.5169  0.3987
  277MOL0     O38124  13.297   3.644  10.176 -0.1374 -0.3025 -0.3259
  277MOL0     C38125  13.404   3.674  10.259  0.2844  0.3366  0.5505
  277MOL0     C38126  13.526   3.577  10.218 -0.2613  0.0336  0.1868
  277MOL0     C38127  13.598   3.603  10.079 -0.0057 -0.5164  0.3516
  277MOL0     C38128  13.684   3.486  10.047 -0.4372  1.3342 -0.6432
  277MOL0     C38129  13.763   3.519   9.921  0.2970 -0.1983  0.2430
  277MOL0     C38130  13.879   3.423   9.898 -0.4454 -0.1931 -0.5229
  277MOL0     C38131  14.009   3.485   9.971  0.0671 -0.1111 -0.1369
  277MOL0     C38132  14.132   3.413   9.924  0.7635 -0.0841 -0.0898
  277MOL0    Cl38133  14.164   3.462   9.755  0.2793  0.0020  0.2399
  277MOL0     C38134  13.074   3.700  10.110 -1.1110 -0.6781  0.1030
  277MOL0     C38135  12.943   3.745  10.126  0.5709 -0.7543 -0.0174
  277MOL0     O38136  12.725   3.628  10.364  0.6546 -0.2866 -0.0566
  277MOL0     C38137  12.458   3.709  10.416  0.3145 -0.1740  0.1959
  277MOL0     C38138  12.320   3.708  10.411 -0.0680 -1.5004 -0.5473
  277MOL0     N38139  11.614   3.663  10.089  0.1196 -0.1339 -0.1845
  277MOL0     N38140  11.505   3.651  10.023 -0.5862 -0.0008  0.1302
  277MOL0     C38141  10.325   3.937  10.055  0.5277  0.0600 -0.5908
  277MOL0     C38142  10.187   3.907  10.051  0.0862  0.1621  0.4333
  277MOL0     C38143   9.768   3.838   9.967  0.8748 -0.4435  0.2292
  277MOL0     C38144   9.724   3.888  10.090  0.7860 -0.1146  0.1977
  277MOL0     C38145   9.588   3.884  10.136 -0.5840 -0.5668 -0.5727
  277MOL0     C38146   9.507   3.808  10.054  0.5162  1.1229 -0.4217
  277MOL0     O38147   9.376   3.801  10.108 -0.6490  0.6953  0.4417
  277MOL0     C38148   9.279   3.709  10.053  0.4157  0.0654  0.2977
  277MOL0     C38149   9.177   3.783   9.969  0.0107  0.3181 -0.6451
  277MOL0     C38150   9.041   3.707   9.960 -0.6777  0.0289  0.6589
  277MOL0     C38151   8.952   3.778   9.858  0.3813 -0.2513 -0.1437
  277MOL0     C38152   8.811   3.757   9.889 -0.9866  0.7016  0.8421
  277MOL0     C38153   8.693   3.749   9.911  0.3392 -0.4249  1.1111
  277MOL0     C38154   9.546   3.759   9.926 -0.7594  0.0385 -0.3745
  277MOL0     C38155   9.679   3.774   9.876  0.8568  1.0538  0.5398
  277MOL0     C38156   9.701   3.726   9.741  0.3440  0.2997  0.4063
  277MOL0     H38157  10.056   4.179   9.922  0.3303 -0.0725  0.6931
  277MOL0     H38158  10.284   4.237   9.891  0.8232  1.2671  0.8116
  277MOL0     H38159  10.601   4.097   9.795  0.7835 -0.6171 -0.5753
  277MOL0     H38160  10.488   3.960   9.813 -3.4323  1.9422  1.5564
  277MOL0     H38161  10.658   3.870   9.985  0.0679  0.6551  0.7388
  277MOL0     H38162  10.682   3.856   9.820 -1.6203  0.8709 -0.9120
  277MOL0     H38163  10.850   4.048   9.816 -0.0408  1.5254 -0.1808
  277MOL0     H38164  10.805   4.060   9.992 -2.7167  1.1413 -1.3947
  277MOL0     H38165  10.909   3.851  10.042 -0.8356  0.1641 -0.1394
  277MOL0     H38166  10.915   3.800   9.875 -0.2371  0.1092  0.6808
  277MOL0     H38167  11.112   3.988  10.011  2.8793  0.8489 -0.7745
  277MOL0     H38168  11.086   4.002   9.843  3.5822  0.0198  1.6348
  277MOL0     H38169  11.141   3.742   9.837 -2.8956  0.6445  0.1414
  277MOL0     H38170  11.268   3.859   9.899  0.7544  1.0234  2.3287
  277MOL0     H38171  11.071   3.686  10.052  0.5264 -0.5398 -0.9584
  277MOL0     H38172  11.171   3.787  10.141 -1.7624 -1.0069  0.4228
  277MOL0     H38173  11.211   3.543  10.119 -3.6170  1.2494 -1.9529
  277MOL0     H38174  11.277   3.560   9.962  0.0103  0.0061 -0.8695
  277MOL0     H38175  11.382   3.670  10.323 -1.7751  0.7242 -0.1295
  277MOL0     H38176  11.649   3.587  10.398 -2.2788  0.5026  1.5743
  277MOL0     H38177  11.634   3.762  10.412 -0.7330 -1.6546  0.8705
  277MOL0     H38178  11.859   3.586  10.300 -2.8026 -0.3552 -2.9283
  277MOL0     H38179  11.834   3.744  10.222 -1.5287  1.1995 -0.3429
  277MOL0     H38180  11.874   3.861  10.408  0.3561 -0.1555  0.3912
  277MOL0     H38181  11.848   3.722  10.523 -0.2336 -4.0914  0.3137
  277MOL0     H38182  12.088   3.772  10.512 -0.9859  0.4704  1.2959
  277MOL0     H38183  12.064   3.621  10.418 -0.9677 -0.3880  1.2868
  277MOL0     H38184  12.273   3.925  10.171  0.5020 -0.2658  0.8322
  277MOL0     H38185  12.607   3.892  10.057  0.1298 -1.4898  1.5279
  277MOL0     H38186  12.608   4.021  10.185 -0.3862  0.3896  0.3516
  277MOL0     H38187  12.472   4.006  10.079 -0.3095 -1.2879  0.2418
  277MOL0     H38188  12.946   3.821  10.448 -0.3013 -0.1478  0.3386
  277MOL0     H38189  13.199   3.733  10.422  0.6553  1.1205 -0.1365
  277MOL0     H38190  13.434   3.779  10.250 -0.7648  0.6352  0.3684
  277MOL0     H38191  13.377   3.666  10.365 -1.9938 -0.4827 -0.0132
  277MOL0     H38192  13.585   3.584  10.309 -1.7671  1.7210  1.1027
  277MOL0     H38193  13.485   3.475  10.217  0.2516 -0.1807  0.7482
  277MOL0     H38194  13.658   3.693  10.092 -1.5164  0.2771  2.3194
  277MOL0     H38195  13.527   3.611   9.996 -0.7689  0.2005  1.0612
  277MOL0     H38196  13.628   3.392  10.038 -0.5892  1.2973  0.5181
  277MOL0     H38197  13.747   3.469  10.135 -0.7940 -0.2238 -0.6496
  277MOL0     H38198  13.691   3.510   9.839  0.7020  1.9627 -0.4066
  277MOL0     H38199  13.799   3.622   9.921  1.1265 -0.4103 -2.3052
  277MOL0     H38200  13.894   3.425   9.790  0.6748 -0.0999 -0.3806
  277MOL0     H38201  13.853   3.321   9.929 -5.5150  1.9540  3.9500
  277MOL0     H38202  13.979   3.473  10.076 -2.1189 -2.1442 -0.9034
  277MOL0     H38203  14.034   3.589   9.949 -0.7268  0.2653  0.6539
  277MOL0     H38204  14.120   3.305   9.926 -1.9404 -0.0337 -3.5852
  277MOL0     H38205  14.223   3.433   9.982  0.3531  0.3957  0.4100
  277MOL0     H38206  13.094   3.647  10.017 -1.5089  0.3760 -0.6066
  277MOL0     H38207  12.876   3.752  10.041  2.0558  0.1637 -1.1666
  277MOL0     H38208  12.499   3.657  10.502  0.9553  0.3330  0.2029
  277MOL0     H38209  12.281   3.632  10.477  0.5965 -2.3893 -1.1510
  277MOL0     H38210  10.394   3.868  10.102 -1.7490 -0.8726  1.5524
  277MOL0     H38211  10.156   3.810  10.089  1.0687 -1.9372 -3.6299
  277MOL0     H38212   9.779   3.949  10.160  2.4825 -1.6167  0.2634
  277MOL0     H38213   9.549   3.941  10.219  2.7997  1.1859  0.0150
  277MOL0     H38214   9.328   3.627  10.000  1.6194 -1.4915  3.5377
  277MOL0     H38215   9.226   3.659  10.135  0.0926  2.5311  1.7291
  277MOL0     H38216   9.214   3.806   9.869  0.6372 -0.3755 -0.5729
  277MOL0     H38217   9.170   3.885  10.008  0.0080  0.2821 -0.5515
  277MOL0     H38218   9.044   3.600   9.934 -0.4966 -0.2851  1.8951
  277MOL0     H38219   8.986   3.717  10.054 -0.6053  0.9398  0.6130
  277MOL0     H38220   8.967   3.731   9.760  1.6540  0.6841 -0.4337
  277MOL0     H38221   8.965   3.885   9.839 -0.4761 -0.2492 -0.7886
  277MOL0     H38222   8.589   3.746   9.937 -0.6682  0.1830 -2.3873
  277MOL0     H38223   9.473   3.711   9.861  0.1469  0.5554 -1.8319
  277MOL0     H38224   9.779   3.649   9.733 -0.9503 -1.0666  0.5175
  277MOL0     H38225   9.611   3.669   9.716  0.0721 -0.0317  2.0312
  277MOL0     H38226   9.731   3.806   9.673 -0.2959 -0.7931 -1.2274
  278MOL0     O38227   3.714   7.158  11.311 -0.5139  0.8461 -0.0079
  278MOL0     C38228   3.683   7.067  11.229  0.8921  0.0186  0.7989
  278MOL0     O38229   3.763   6.970  11.175 -0.8633 -0.0327  0.3978
  278MOL0     C38230   3.897   6.988  11.208 -0.4030  0.1410 -0.0827
  278MOL0     C38231   3.946   6.951  11.332 -0.4289 -0.3795 -0.4229
  278MOL0     C38232   4.086   6.931  11.354 -0.2035 -0.5460 -0.1116
  278MOL0     C38233   4.179   6.969  11.260  0.3842  0.5548 -0.4894
  278MOL0     O38234   4.315   6.945  11.287 -0.2294 -0.6475  0.1290
  278MOL0     C38235   4.350   6.838  11.368 -0.2477  0.2729 -0.4210
  278MOL0     C38236   4.488   6.804  11.338 -0.6064 -0.2367  0.8949
  278MOL0     C38237   4.546   6.688  11.417 -0.1880  0.6467 -0.1146
  278MOL0     C38238   4.705   6.680  11.397  0.5552  0.4120  0.3631
  278MOL0     C38239   4.759   6.560  11.470  0.2009  1.1474 -0.2848
  278MOL0     C38240   4.901   6.544  11.423  0.5397 -0.1924 -0.9829
  278MOL0     C38241   4.956   6.416  11.482 -0.0065  0.3275  0.7929
  278MOL0     C38242   5.079   6.362  11.419 -0.1679  0.2118  0.2232
  278MOL0     N38243   5.192   6.452  11.428 -0.4657  0.2506  0.1237
  278MOL0     C38244   5.252   6.485  11.543 -0.6373 -0.0154  0.2910
  278MOL0     C38245   5.346   6.579  11.506 -0.6550 -0.1048  1.0110
  278MOL0     C38246   5.433   6.649  11.602  0.1895 -0.1463  0.7346
  278MOL0     C38247   5.579   6.597  11.594 -0.6567 -0.3292 -1.1398
  278MOL0     C38248   5.675   6.686  11.676 -0.3308  0.4095  0.5367
  278MOL0     C38249   5.808   6.635  11.697  0.0143  0.2954 -0.3156
  278MOL0     O38250   5.884   6.601  11.579 -0.0339 -0.1513  0.3196
  278MOL0     C38251   5.995   6.674  11.545 -0.6586 -0.0489 -0.3555
  278MOL0     C38252   6.078   6.623  11.446  0.6212  0.2925  0.6066
  278MOL0     C38253   6.183   6.699  11.392 -0.5896  0.1539  0.2147
  278MOL0     C38254   6.257   6.642  11.272 -0.0247  0.9199  0.4958
  278MOL0     C38255   6.209   6.826  11.439 -0.7667 -0.7708  0.2442
  278MOL0     C38256   6.324   6.916  11.378 -0.7774 -0.4727 -0.4983
  278MOL0     O38257   6.300   7.052  11.389  0.5778 -0.0860  0.1158
  278MOL0     C38258   6.397   7.149  11.397 -0.0911 -0.0551 -0.6323
  278MOL0     C38259   6.527   7.123  11.432 -0.1265 -0.1987  0.0134
  278MOL0     C38260   6.620   7.222  11.441 -0.2081 -0.0447 -0.7337
  278MOL0     C38261   6.584   7.356  11.406  0.3148  0.9421  0.4987
  278MOL0     O38262   6.685   7.443  11.421 -0.6563  0.2121 -0.5113
  278MOL0     C38263   6.642   7.581  11.419  0.9034 -0.2062  0.1831
  278MOL0     C38264   6.743   7.663  11.495 -0.2134  0.1241  0.0773
  278MOL0     C38265   6.863   7.710  11.404  0.4871  0.1865  0.4049
  278MOL0     C38266   6.995   7.751  11.478  0.4663  0.9898  0.0296
  278MOL0     C38267   6.974   7.859  11.587  1.0197  0.9112  0.0665
  278MOL0     C38268   7.085   7.879  11.694  0.1833  0.2230  0.2214
  278MOL0     C38269   7.214   7.928  11.630  0.0144 -0.3871  0.1564
  278MOL0     C38270   7.341   7.938  11.715  0.3475 -0.4424 -0.7370
  278MOL0    Cl38271   7.501   7.943  11.632  0.1480  0.1209 -0.3223
  278MOL0     C38272   6.456   7.376  11.351 -0.0414 -0.9722  0.0095
  278MOL0     C38273   6.362   7.275  11.356  0.0210 -0.0450  1.1716
  278MOL0     O38274   6.431   6.865  11.339  0.0554 -0.4854 -0.2235
  278MOL0     C38275   6.126   6.882  11.538 -0.2468 -0.1010  0.8620
  278MOL0     C38276   6.021   6.808  11.582 -0.3177 -0.1578 -0.1528
  278MOL0     N38277   5.343   6.597  11.365  0.3022  0.3499  0.1605
  278MOL0     N38278   5.252   6.512  11.321 -0.1828  0.0930 -0.1064
  278MOL0     C38279   4.130   7.001  11.135  0.2309  0.4906 -0.2007
  278MOL0     C38280   3.991   7.008  11.108 -0.2350  0.3642 -0.0059
  278MOL0     C38281   3.536   7.057  11.193  0.1057  0.1688 -1.3350
  278MOL0     C38282   3.509   6.988  11.080  0.5230  0.6007  0.2851
  278MOL0     C38283   3.377   6.971  11.041  1.3679 -0.7214 -0.2713
  278MOL0     C38284   3.268   7.028  11.110 -0.1870  0.1866  0.2258
  278MOL0     O38285   3.140   7.021  11.052 -0.0729  1.0267 -0.0411
  278MOL0     C38286   3.045   7.115  11.107 -0.3722 -0.3149  0.1284
  278MOL0     C38287   2.935   7.143  11.009  0.4701 -0.6383  0.4133
  278MOL0     C38288   2.827   7.042  11.020  0.4285  0.0222  0.0641
  278MOL0     C38289   2.732   7.083  10.904 -0.3976  0.1857 -0.0294
  278MOL0     C38290   2.612   7.007  10.916  0.1129 -0.2578  0.0523
  278MOL0     C38291   2.504   6.951  10.910  0.3389 -0.3575  0.3125
  278MOL0     C38292   3.302   7.098  11.230 -0.2121  0.6066  0.3903
  278MOL0     C38293   3.431   7.113  11.274  0.1829 -0.3015 -0.3184
  278MOL0     C38294   3.455   7.164  11.412 -0.4388  0.1222  0.4007
  278MOL0     H38295   3.873   6.925  11.407 -1.2961 -0.9636 -1.4455
  278MOL0     H38296   4.119   6.891  11.449  0.8321 -0.3604 -0.3775
  278MOL0     H38297   4.285   6.753  11.340  0.0932  0.2382 -1.1264
  278MOL0     H38298   4.333   6.853  11.475 -0.9463  0.9304 -0.6155
  278MOL0     H38299   4.487   6.782  11.231  0.6416 -3.0481  1.3710
  278MOL0     H38300   4.554   6.886  11.369 -1.0838 -0.6073  3.0479
  278MOL0     H38301   4.512   6.709  11.519 -0.9612 -3.6678  0.7199
  278MOL0     H38302   4.507   6.590  11.388  1.3078  0.2105 -0.7217
  278MOL0     H38303   4.707   6.670  11.288  1.5100 -1.9995  0.5315
  278MOL0     H38304   4.756   6.773  11.424 -0.4935  1.1210 -0.0431
  278MOL0     H38305   4.704   6.469  11.443  0.4932  0.8778  0.0128
  278MOL0     H38306   4.755   6.571  11.579  1.4978 -1.6871  0.1669
  278MOL0     H38307   4.902   6.532  11.314  3.3967  2.1952 -1.3397
  278MOL0     H38308   4.967   6.630  11.440  0.4298 -0.5297  1.4524
  278MOL0     H38309   4.884   6.335  11.467  0.9778 -0.2362 -1.1830
  278MOL0     H38310   4.963   6.426  11.591 -0.7035 -1.7709  1.0649
  278MOL0     H38311   5.119   6.271  11.464  2.2489 -0.5867 -3.1869
  278MOL0     H38312   5.055   6.334  11.316 -2.6361  0.6887  0.6063
  278MOL0     H38313   5.229   6.441  11.640  0.8308 -2.3294 -0.3188
  278MOL0     H38314   5.397   6.636  11.705 -1.2928  0.7310  0.3588
  278MOL0     H38315   5.421   6.757  11.589  0.0062 -0.0873  1.3308
  278MOL0     H38316   5.573   6.499  11.643 -0.3961  0.2191  0.0079
  278MOL0     H38317   5.605   6.582  11.489 -2.7082 -1.3358 -1.5661
  278MOL0     H38318   5.696   6.782  11.629 -1.3581  2.1058  3.3040
  278MOL0     H38319   5.636   6.716  11.774 -1.3198  1.2806 -0.1016
  278MOL0     H38320   5.855   6.706  11.765  2.0815 -1.6285  0.3839
  278MOL0     H38321   5.797   6.537  11.745  0.2050  0.1566 -0.5534
  278MOL0     H38322   6.045   6.524  11.414 -1.7580  1.0157  0.6512
  278MOL0     H38323   6.235   6.537  11.249  4.9012 -0.1998 -0.2250
  278MOL0     H38324   6.365   6.649  11.287  0.2633 -0.2435 -0.8436
  278MOL0     H38325   6.220   6.697  11.185 -0.6411  0.7273  0.6316
  278MOL0     H38326   6.567   7.026  11.461  2.5311 -0.1116 -2.8885
  278MOL0     H38327   6.724   7.217  11.470 -0.5026 -1.0672  0.2338
  278MOL0     H38328   6.644   7.617  11.316  3.5117 -1.9215 -0.4812
  278MOL0     H38329   6.544   7.588  11.466  0.2493  0.3994 -1.2198
  278MOL0     H38330   6.695   7.752  11.538  1.2418  0.7349  0.5267
  278MOL0     H38331   6.782   7.616  11.586 -2.1927 -0.7427  0.5206
  278MOL0     H38332   6.816   7.791  11.348  1.3967  0.3142 -0.1898
  278MOL0     H38333   6.890   7.628  11.337  0.5522 -0.4002  1.1257
  278MOL0     H38334   7.069   7.778  11.402 -1.1861 -0.4863 -2.2336
  278MOL0     H38335   7.030   7.658  11.524 -0.4366  1.6074  2.0675
  278MOL0     H38336   6.944   7.952  11.538 -0.9368  0.5583  0.5100
  278MOL0     H38337   6.889   7.833  11.651  2.7907 -0.9865  1.8253
  278MOL0     H38338   7.106   7.783  11.743  2.1626 -0.1838 -1.3113
  278MOL0     H38339   7.058   7.960  11.761  0.4550  1.0010 -0.5914
  278MOL0     H38340   7.191   8.024  11.583  0.1561 -0.8831 -0.9534
  278MOL0     H38341   7.244   7.870  11.542  2.0647  0.8394 -0.0394
  278MOL0     H38342   7.329   7.843  11.768 -0.7510 -0.6087 -1.2549
  278MOL0     H38343   7.343   8.015  11.794 -0.2390 -1.6516  0.4987
  278MOL0     H38344   6.429   7.468  11.300  2.5438 -0.9082 -1.4206
  278MOL0     H38345   6.259   7.280  11.321  0.1609 -2.2436  0.2926
  278MOL0     H38346   6.154   6.982  11.571  1.2115 -1.1154  2.9580
  278MOL0     H38347   5.956   6.844  11.661 -0.2635 -0.1426 -0.1152
  278MOL0     H38348   4.199   7.027  11.056 -0.7453  0.6071 -1.0424
  278MOL0     H38349   3.951   7.041  11.013 -0.1950 -1.8697 -0.8517
  278MOL0     H38350   3.576   6.940  11.009 -3.0641  3.0116 -5.4912
  278MOL0     H38351   3.351   6.936  10.942  2.3242 -4.1711  0.5601
  278MOL0     H38352   3.010   7.074  11.203 -0.0153  0.1628  0.4692
  278MOL0     H38353   3.083   7.216  11.125  0.3729 -0.7022  0.7976
  278MOL0     H38354   2.987   7.150  10.913  0.9189  2.1997  0.7751
  278MOL0     H38355   2.889   7.239  11.035 -3.7273 -1.6926 -2.2668
  278MOL0     H38356   2.873   6.942  11.019  1.7253  0.6010 -1.1720
  278MOL0     H38357   2.778   7.041  11.118  1.5142 -1.1199  0.6455
  278MOL0     H38358   2.779   7.066  10.807 -0.4885 -1.5413  0.1949
  278MOL0     H38359   2.699   7.187  10.917 -1.5702 -0.2222  0.4163
  278MOL0     H38360   2.416   6.893  10.888  0.3312 -0.0200 -0.5815
  278MOL0     H38361   3.217   7.124  11.293 -1.4684 -0.2716 -0.8800
  278MOL0     H38362   3.503   7.262  11.407 -1.9847  0.9111  0.0095
  278MOL0     H38363   3.354   7.178  11.454 -0.6356  2.2407 -0.6611
  278MOL0     H38364   3.514   7.096  11.474  2.1108 -0.8645 -2.8520
  279MOL0     O38365   5.443   0.377   1.484  0.1835  0.0240  0.3125
  279MOL0     C38366   5.367   0.310   1.420  1.2490  0.4889  0.4327
  279MOL0     O38367   5.396   0.196   1.356 -0.1094  0.1994  0.8722
  279MOL0     C38368   5.529   0.171   1.335 -1.1709  0.9711 -1.0879
  279MOL0     C38369   5.617   0.089   1.408  0.2098  0.7686  0.0098
  279MOL0     C38370   5.742   0.039   1.364  0.8452 -0.2121 -0.1693
  279MOL0     C38371   5.787   0.079   1.235 -0.3540  0.0673 -0.1185
  279MOL0     O38372   5.912   0.056   1.180  0.4421 -0.3049 -0.1252
  279MOL0     C38373   6.019  -0.007   1.252 -0.0614 -0.2324 -0.1635
  279MOL0     C38374   6.132  -0.033   1.153 -0.3614 -0.4415  0.4624
  279MOL0     C38375   6.106  -0.135   1.042  0.0301  0.0136 -0.7372
  279MOL0     C38376   6.229  -0.159   0.949 -0.2597 -0.5606  0.7496
  279MOL0     C38377   6.229  -0.093   0.812 -0.5795 -1.3974  0.4599
  279MOL0     C38378   6.351  -0.121   0.724 -0.0174 -0.4136 -0.2025
  279MOL0     C38379   6.483  -0.055   0.778  0.4166  1.2323 -0.4664
  279MOL0     C38380   6.599  -0.039   0.678 -0.0465  0.5922 -0.5828
  279MOL0     N38381   6.682   0.084   0.713  0.1268 -0.2858  0.5896
  279MOL0     C38382   6.653   0.206   0.666 -0.5084  0.6393  0.2117
  279MOL0     C38383   6.772   0.273   0.666  0.0752  0.4761 -0.1961
  279MOL0     C38384   6.814   0.400   0.603  0.1030 -0.0539 -0.0847
  279MOL0     C38385   6.934   0.469   0.679 -0.3161  0.4206  0.4027
  279MOL0     C38386   6.909   0.534   0.820 -0.2980  0.2611  0.2685
  279MOL0     C38387   7.043   0.538   0.894 -0.7743  0.1223  0.1298
  279MOL0     O38388   7.140   0.615   0.827  0.4116  0.4502 -0.4646
  279MOL0     C38389   7.264   0.625   0.891  0.2385  0.0973  0.0455
  279MOL0     C38390   7.333   0.734   0.852 -0.2682  1.0056  0.3650
  279MOL0     C38391   7.448   0.774   0.921 -0.2754  0.9958 -0.6238
  279MOL0     C38392   7.526   0.896   0.875  0.0592 -0.1579 -0.1438
  279MOL0     C38393   7.505   0.685   1.019  0.3765  1.1743 -0.8771
  279MOL0     C38394   7.636   0.727   1.090  0.6321 -0.3702  0.3072
  279MOL0     O38395   7.713   0.614   1.131 -0.2736 -1.2464 -0.9607
  279MOL0     C38396   7.831   0.622   1.209 -0.4697 -0.2117  0.4840
  279MOL0     C38397   7.921   0.515   1.196 -0.3712  0.0521 -0.0558
  279MOL0     C38398   8.043   0.527   1.259 -0.1107 -0.1294  0.5907
  279MOL0     C38399   8.086   0.635   1.335 -0.7179  0.2376 -0.0866
  279MOL0     O38400   8.209   0.639   1.396  0.5584 -0.3274  0.2173
  279MOL0     C38401   8.322   0.668   1.308  0.0873 -0.0156  0.0037
  279MOL0     C38402   8.434   0.740   1.387 -0.2150  0.2443 -0.1985
  279MOL0     C38403   8.552   0.771   1.289 -0.1434  1.2314 -0.3734
  279MOL0     C38404   8.647   0.861   1.351 -0.5407  0.0530 -0.8451
  279MOL0     C38405   8.788   0.861   1.291 -0.7087  0.1581 -0.5002
  279MOL0     C38406   8.883   0.957   1.361  0.5756 -0.0687 -0.2857
  279MOL0     C38407   9.022   0.960   1.282  0.0889 -0.3348  0.0165
  279MOL0     C38408   9.118   1.067   1.349  0.0717 -0.0008 -0.0210
  279MOL0    Cl38409   9.262   1.089   1.250  0.1148  0.4687 -0.1304
  279MOL0     C38410   7.999   0.740   1.348  0.3708  0.0264 -0.2560
  279MOL0     C38411   7.879   0.724   1.290 -0.0824  0.5627  0.1100
  279MOL0     O38412   7.650   0.845   1.123  0.1446 -0.7380 -0.4940
  279MOL0     C38413   7.435   0.569   1.050  0.5416  0.3194 -0.1376
  279MOL0     C38414   7.318   0.538   0.988 -0.5067  0.6048  0.3762
  279MOL0     N38415   6.870   0.188   0.722  0.0599  0.0868  0.3586
  279MOL0     N38416   6.812   0.080   0.759 -0.3143  0.1253  1.3163
  279MOL0     C38417   5.699   0.152   1.156 -0.2522 -0.0434 -0.7485
  279MOL0     C38418   5.573   0.197   1.204  0.5888 -0.0932 -0.6594
  279MOL0     C38419   5.229   0.362   1.397 -0.3652 -0.0733  0.3470
  279MOL0     C38420   5.136   0.288   1.315 -0.5759  0.3555  0.6663
  279MOL0     C38421   5.008   0.330   1.296  0.8050 -0.5363 -0.6742
  279MOL0     C38422   4.962   0.450   1.359 -0.2738  0.2528 -0.5573
  279MOL0     O38423   4.835   0.501   1.359 -0.6912 -0.8667 -0.3638
  279MOL0     C38424   4.734   0.452   1.271  0.7955 -0.3342 -0.8160
  279MOL0     C38425   4.589   0.512   1.311  0.4514  0.5768  0.2512
  279MOL0     C38426   4.562   0.481   1.461  0.3965 -0.8383 -0.0093
  279MOL0     C38427   4.443   0.558   1.509 -1.4095  0.3304 -0.5895
  279MOL0     C38428   4.319   0.531   1.447 -0.7324  0.0955  0.1927
  279MOL0     C38429   4.225   0.499   1.382 -0.1891 -0.6669 -0.4573
  279MOL0     C38430   5.059   0.528   1.427  0.2682  1.0961 -0.2145
  279MOL0     C38431   5.181   0.480   1.453 -0.4361  0.4277  1.3065
  279MOL0     C38432   5.264   0.581   1.534  0.3901 -0.3107  0.0293
  279MOL0     H38433   5.592   0.047   1.505  0.7294 -1.3561 -0.7132
  279MOL0     H38434   5.801  -0.022   1.432 -1.5898 -2.5836 -0.0299
  279MOL0     H38435   5.981  -0.097   1.302 -0.5881 -0.8798 -1.6929
  279MOL0     H38436   6.053   0.051   1.339 -1.1262  1.6119 -0.9238
  279MOL0     H38437   6.165   0.055   1.096 -0.0838 -1.6662 -1.3600
  279MOL0     H38438   6.216  -0.061   1.219 -1.2248  1.4198  2.4651
  279MOL0     H38439   6.075  -0.227   1.092  1.2999 -0.6000 -1.0214
  279MOL0     H38440   6.026  -0.103   0.974  0.0585 -2.2194 -1.8998
  279MOL0     H38441   6.322  -0.159   1.007 -0.7669  1.9796  1.6854
  279MOL0     H38442   6.231  -0.267   0.928  3.3769 -0.6748  0.9463
  279MOL0     H38443   6.219   0.016   0.812 -1.9262 -1.4933 -0.3315
  279MOL0     H38444   6.139  -0.126   0.759 -2.0695  1.6272  0.9121
  279MOL0     H38445   6.362  -0.229   0.721 -0.8004 -0.4761 -1.2023
  279MOL0     H38446   6.319  -0.082   0.627  0.1899 -0.4459 -0.2821
  279MOL0     H38447   6.534  -0.110   0.858  1.3413 -0.8270 -2.3490
  279MOL0     H38448   6.468   0.044   0.821  1.8525  0.8581  0.9959
  279MOL0     H38449   6.667  -0.125   0.679 -1.7775 -0.8392 -0.1645
  279MOL0     H38450   6.543  -0.024   0.586 -4.3361 -0.2543  1.6188
  279MOL0     H38451   6.555   0.242   0.638 -0.6717  1.8957  2.1985
  279MOL0     H38452   6.732   0.473   0.606  0.1001 -0.0866  2.0298
  279MOL0     H38453   6.838   0.380   0.498 -0.9475  1.9425 -0.7576
  279MOL0     H38454   7.010   0.391   0.688 -1.1539 -0.6372 -1.2806
  279MOL0     H38455   6.980   0.541   0.611 -1.3898 -0.8033 -1.7423
  279MOL0     H38456   6.876   0.638   0.810 -2.0591  0.4401  5.2697
  279MOL0     H38457   6.831   0.481   0.875 -1.8329 -0.2444 -2.2259
  279MOL0     H38458   7.027   0.581   0.994  0.6948 -0.9871  0.8763
  279MOL0     H38459   7.084   0.438   0.910  2.7530  1.6205  1.6529
  279MOL0     H38460   7.286   0.801   0.780 -0.8308  1.7783  1.4190
  279MOL0     H38461   7.510   0.982   0.941 -1.3714  0.3862 -1.1529
  279MOL0     H38462   7.503   0.923   0.772  3.3677 -0.4607 -1.0580
  279MOL0     H38463   7.632   0.870   0.874  0.3928  1.1283 -0.0810
  279MOL0     H38464   7.907   0.425   1.136 -0.6370 -0.8771  1.3598
  279MOL0     H38465   8.111   0.443   1.257  1.1889  0.9084 -0.3108
  279MOL0     H38466   8.357   0.581   1.252 -3.4928 -0.3073 -2.0591
  279MOL0     H38467   8.291   0.721   1.218 -1.2102 -3.9142 -2.1138
  279MOL0     H38468   8.392   0.832   1.430  2.2069  1.5072 -0.3160
  279MOL0     H38469   8.459   0.672   1.468  4.0024  0.5504 -0.9836
  279MOL0     H38470   8.529   0.795   1.185 -0.3387  1.4462 -0.2809
  279MOL0     H38471   8.605   0.676   1.275  1.4205  1.8087  1.2989
  279MOL0     H38472   8.671   0.834   1.454  0.6579  1.5957 -0.6906
  279MOL0     H38473   8.596   0.957   1.361  1.0145  0.6861  2.2036
  279MOL0     H38474   8.830   0.762   1.309 -2.2645 -0.1068  2.2764
  279MOL0     H38475   8.791   0.888   1.185  0.9124  1.3585 -0.1864
  279MOL0     H38476   8.891   0.921   1.464  0.7735 -2.2924 -1.0165
  279MOL0     H38477   8.834   1.054   1.365  3.7591  1.7675 -1.4838
  279MOL0     H38478   9.017   0.996   1.179  0.1912 -2.3304 -0.7371
  279MOL0     H38479   9.074   0.864   1.290  2.6862  1.1076  1.9453
  279MOL0     H38480   9.131   1.030   1.452  0.4113 -1.2218 -0.4788
  279MOL0     H38481   9.070   1.164   1.357  0.5348  0.3880 -1.6455
  279MOL0     H38482   8.038   0.827   1.402  0.6653  0.0076 -0.4340
  279MOL0     H38483   7.807   0.804   1.304  0.1076  2.0445 -5.1420
  279MOL0     H38484   7.488   0.504   1.119  0.7116  1.6776  1.0709
  279MOL0     H38485   7.271   0.441   1.000  0.4646  0.0246 -0.4128
  279MOL0     H38486   5.713   0.181   1.053 -0.1643 -0.4072 -0.8413
  279MOL0     H38487   5.507   0.245   1.133 -0.5865 -0.7301 -0.0180
  279MOL0     H38488   5.162   0.191   1.274  1.7539  1.2818 -0.2296
  279MOL0     H38489   4.940   0.282   1.226 -1.0828  0.2354  0.5802
  279MOL0     H38490   4.743   0.488   1.168 -1.1230  1.4351 -0.4417
  279MOL0     H38491   4.729   0.344   1.284 -0.7959 -0.1065  0.7858
  279MOL0     H38492   4.516   0.448   1.261 -1.0041  2.4076 -0.0669
  279MOL0     H38493   4.578   0.619   1.293 -0.2038  1.0338  2.9414
  279MOL0     H38494   4.542   0.373   1.471  0.3689 -0.7538  0.9239
  279MOL0     H38495   4.650   0.499   1.523 -0.8058 -1.8088  2.0837
  279MOL0     H38496   4.472   0.663   1.498 -1.7741  0.3406 -1.5225
  279MOL0     H38497   4.429   0.536   1.615  0.6681  0.1930 -0.3017
  279MOL0     H38498   4.132   0.465   1.341 -3.1222  1.3559  3.8299
  279MOL0     H38499   5.022   0.617   1.476 -2.1767  0.7371 -1.2764
  279MOL0     H38500   5.298   0.544   1.631  2.8502  2.2609  0.2712
  279MOL0     H38501   5.343   0.625   1.472 -0.5548  1.8075  0.2401
  279MOL0     H38502   5.201   0.661   1.574  1.1262  0.6728 -0.7305
  280MOL0     O38503   3.480   4.077   9.330  0.0940 -0.2708 -0.1393
  280MOL0     C38504   3.375   4.052   9.387 -0.7522  0.9148  0.6105
  280MOL0     O38505   3.363   3.967   9.501 -0.6263 -0.0248 -0.1911
  280MOL0     C38506   3.463   3.956   9.593 -1.0180 -0.8315 -0.1338
  280MOL0     C38507   3.561   4.059   9.610  0.0364  0.0497 -0.2182
  280MOL0     C38508   3.656   4.043   9.711 -0.3343  0.0005  0.0321
  280MOL0     C38509   3.654   3.926   9.791 -0.0190 -0.2482 -0.1029
  280MOL0     O38510   3.748   3.918   9.890 -0.8544  0.3577 -0.6144
  280MOL0     C38511   3.874   3.852   9.844  0.3414  0.5483 -0.6369
  280MOL0     C38512   4.004   3.919   9.896 -0.1215 -0.0957 -0.0462
  280MOL0     C38513   4.121   3.845   9.843 -0.5722  0.2966  0.0490
  280MOL0     C38514   4.229   3.823   9.942 -0.7450  0.7448  0.3040
  280MOL0     C38515   4.281   3.957   9.989  0.3131 -0.3971 -0.5025
  280MOL0     C38516   4.379   3.931  10.100  0.3118  0.2510  0.1944
  280MOL0     C38517   4.434   4.064  10.168  0.3062 -0.1791  0.5016
  280MOL0     C38518   4.554   4.022  10.263 -0.3013 -1.1000  0.0904
  280MOL0     N38519   4.562   4.113  10.381 -0.1044 -0.5411  0.8957
  280MOL0     C38520   4.535   4.071  10.513  0.3481 -0.0065 -0.6744
  280MOL0     C38521   4.578   4.173  10.592  0.4725 -0.0016  0.4582
  280MOL0     C38522   4.562   4.185  10.743  0.2703 -0.1529  0.2196
  280MOL0     C38523   4.689   4.129  10.809 -0.0000  0.0938  0.9239
  280MOL0     C38524   4.701   4.178  10.953 -0.1148 -0.3642  0.1184
  280MOL0     C38525   4.797   4.100  11.048 -0.1243 -0.4084 -0.0122
  280MOL0     O38526   4.906   4.053  10.970 -0.2536 -0.3284 -0.7663
  280MOL0     C38527   4.926   3.925  10.939  1.3515  0.8286  1.0046
  280MOL0     C38528   4.836   3.812  10.962 -0.5501  0.0853 -0.3577
  280MOL0     C38529   4.865   3.685  10.911 -0.7927  0.8464 -0.3142
  280MOL0     C38530   4.771   3.570  10.955  0.4275  0.2793 -0.2487
  280MOL0     C38531   4.985   3.665  10.842  0.0752  0.4134 -0.5893
  280MOL0     C38532   5.020   3.534  10.787  0.1393 -0.5491  0.7609
  280MOL0     O38533   4.918   3.452  10.742  0.0047 -0.3027  0.0983
  280MOL0     C38534   4.947   3.349  10.657 -0.1009  0.6136 -0.6222
  280MOL0     C38535   4.917   3.220  10.705 -0.5552  0.2186  0.3335
  280MOL0     C38536   4.915   3.108  10.622  0.5497 -0.4359 -0.3644
  280MOL0     C38537   4.963   3.122  10.491  0.8544 -0.4682  0.5952
  280MOL0     O38538   4.987   3.028  10.399  0.3934  0.0603 -0.2137
  280MOL0     C38539   4.946   2.891  10.431 -0.1811  0.1719 -0.0292
  280MOL0     C38540   5.010   2.789  10.336  0.2260  0.5854  0.2036
  280MOL0     C38541   5.006   2.823  10.190 -0.2480 -0.3980  0.2114
  280MOL0     C38542   4.865   2.823  10.135  0.5601 -0.2824  0.1016
  280MOL0     C38543   4.858   2.882   9.991 -0.0549 -0.1448 -0.3083
  280MOL0     C38544   4.716   2.855   9.934  0.3829  0.6498  0.0628
  280MOL0     C38545   4.700   2.890   9.788 -0.6155 -0.6407 -0.3707
  280MOL0     C38546   4.579   2.830   9.727 -0.0015  0.9150  0.0004
  280MOL0    Cl38547   4.426   2.862   9.821 -0.2545  0.0837  0.0877
  280MOL0     C38548   5.005   3.246  10.438  0.6746 -0.3901  0.5329
  280MOL0     C38549   4.986   3.359  10.520  0.1408 -0.0783  0.3404
  280MOL0     O38550   5.139   3.502  10.775 -0.1431  0.3714  0.1245
  280MOL0     C38551   5.074   3.774  10.806  0.7150 -0.3128 -0.3720
  280MOL0     C38552   5.039   3.901  10.860  0.8688 -0.4334 -0.3645
  280MOL0     N38553   4.625   4.275  10.511 -0.1689 -0.5072 -0.0318
  280MOL0     N38554   4.621   4.241  10.386  0.5166  0.5167 -0.3457
  280MOL0     C38555   3.562   3.822   9.770 -0.2281  0.1465  0.0412
  280MOL0     C38556   3.471   3.840   9.670  0.0124  0.9349  0.2017
  280MOL0     C38557   3.250   4.067   9.319  0.7173 -0.3291  1.1458
  280MOL0     C38558   3.232   3.991   9.205 -0.0050 -0.1777  0.2455
  280MOL0     C38559   3.130   4.004   9.117  0.3026  0.8600 -0.2158
  280MOL0     C38560   3.039   4.100   9.138  0.3464 -0.6348 -0.1291
  280MOL0     O38561   2.936   4.117   9.043 -0.0094  0.0858  0.4819
  280MOL0     C38562   2.873   4.244   9.041 -0.1839 -0.4970 -0.3805
  280MOL0     C38563   2.789   4.251   8.911  0.1049  0.7563  0.2632
  280MOL0     C38564   2.871   4.229   8.784  1.1800 -0.2738  0.6598
  280MOL0     C38565   2.762   4.268   8.668  0.5867 -0.4275  0.0528
  280MOL0     C38566   2.777   4.400   8.629 -0.8988 -0.2106 -0.4234
  280MOL0     C38567   2.807   4.518   8.614 -0.1048  0.1955  1.1222
  280MOL0     C38568   3.051   4.180   9.257  0.7095  0.5017  0.8823
  280MOL0     C38569   3.155   4.162   9.343  0.0193  0.5152 -0.3932
  280MOL0     C38570   3.168   4.244   9.467 -0.7954 -0.2842 -0.4661
  280MOL0     H38571   3.574   4.148   9.549 -0.2294  0.8526  0.8537
  280MOL0     H38572   3.737   4.115   9.712  2.8099 -3.1741 -1.9336
  280MOL0     H38573   3.867   3.830   9.737 -1.1701  0.2446 -0.4942
  280MOL0     H38574   3.876   3.758   9.900  1.1090  0.0462 -1.4918
  280MOL0     H38575   4.016   4.025   9.870 -1.2852 -0.2127 -1.1771
  280MOL0     H38576   3.991   3.920  10.004 -1.2999 -0.0759 -0.1696
  280MOL0     H38577   4.086   3.749   9.805  2.2670  0.0154 -2.2643
  280MOL0     H38578   4.160   3.905   9.760  0.9286 -1.1721 -0.3661
  280MOL0     H38579   4.188   3.771  10.028 -1.0039  0.3741 -0.0406
  280MOL0     H38580   4.319   3.772   9.905 -1.1818  0.8021 -0.8715
  280MOL0     H38581   4.204   4.016  10.040  0.4995 -1.4976  1.1012
  280MOL0     H38582   4.312   4.013   9.900 -0.1426  0.3528 -0.2060
  280MOL0     H38583   4.331   3.859  10.167 -0.7551 -0.6296 -1.4499
  280MOL0     H38584   4.466   3.881  10.057  0.6398  1.3186 -0.4208
  280MOL0     H38585   4.355   4.110  10.227 -0.1649 -1.7649  1.1709
  280MOL0     H38586   4.469   4.140  10.098  1.8599  1.2072  2.6392
  280MOL0     H38587   4.543   3.921  10.305  1.5137 -2.0866 -1.6107
  280MOL0     H38588   4.642   4.030  10.198 -2.4703 -0.0215 -2.9076
  280MOL0     H38589   4.506   3.974  10.552 -2.3594  0.9617 -0.1035
  280MOL0     H38590   4.473   4.127  10.769  0.2413  1.0403  3.1798
  280MOL0     H38591   4.546   4.289  10.771  0.6524  0.2621 -1.0345
  280MOL0     H38592   4.673   4.021  10.798 -2.5272  0.5312 -0.6185
  280MOL0     H38593   4.779   4.149  10.750 -0.4595 -0.1328  0.1292
  280MOL0     H38594   4.735   4.282  10.945  0.0504 -0.5003 -1.1109
  280MOL0     H38595   4.610   4.187  11.013  1.8767  1.0541  3.2000
  280MOL0     H38596   4.836   4.171  11.121 -0.6772  1.7037 -1.7008
  280MOL0     H38597   4.744   4.019  11.099  1.3138 -2.2368 -1.2629
  280MOL0     H38598   4.743   3.827  11.014  0.2818  1.6099  0.7539
  280MOL0     H38599   4.717   3.594  11.047  1.0373  2.7898 -0.4775
  280MOL0     H38600   4.832   3.481  10.970 -0.2648  0.0795  1.6423
  280MOL0     H38601   4.699   3.546  10.875 -0.1733  1.8458 -0.2208
  280MOL0     H38602   4.890   3.214  10.810  0.3395 -4.0299  0.4673
  280MOL0     H38603   4.882   3.012  10.660  1.6494 -0.2833  1.0751
  280MOL0     H38604   4.976   2.864  10.533  1.3493  1.8967  0.0369
  280MOL0     H38605   4.838   2.889  10.418 -0.1311  0.9016 -0.6179
  280MOL0     H38606   5.112   2.765  10.368 -0.5745  0.2827  2.7449
  280MOL0     H38607   4.956   2.695  10.351 -0.8038  1.1686  0.2656
  280MOL0     H38608   5.067   2.752  10.133 -1.7845  0.9330 -3.3764
  280MOL0     H38609   5.051   2.921  10.176  0.2769 -0.4091  1.6440
  280MOL0     H38610   4.810   2.898  10.193  0.7718  0.3592 -0.5298
  280MOL0     H38611   4.816   2.725  10.140  3.3552 -1.8534 -1.3564
  280MOL0     H38612   4.882   2.988   9.999  1.7307 -0.6054  1.1187
  280MOL0     H38613   4.935   2.829   9.933  0.7754  0.9258 -0.2171
  280MOL0     H38614   4.638   2.903   9.994 -0.7296 -1.5941  0.5177
  280MOL0     H38615   4.700   2.747   9.937  0.3633  0.6580  0.3239
  280MOL0     H38616   4.780   2.864   9.718 -0.0078  1.3353 -0.4552
  280MOL0     H38617   4.697   2.999   9.783 -1.4875 -0.6306  0.1314
  280MOL0     H38618   4.589   2.721   9.719 -1.5925  0.8150 -1.0039
  280MOL0     H38619   4.566   2.854   9.621  3.6506  1.5582 -0.4326
  280MOL0     H38620   5.033   3.248  10.333  1.1798 -1.2608  0.6450
  280MOL0     H38621   5.002   3.460  10.482  0.3688  0.3854  1.6288
  280MOL0     H38622   5.170   3.777  10.755  0.9842  2.7110  0.1056
  280MOL0     H38623   5.110   3.974  10.825  1.2947 -1.1809 -1.0985
  280MOL0     H38624   3.568   3.735   9.834  1.6332  1.1112  1.2587
  280MOL0     H38625   3.391   3.773   9.642 -0.5925  1.1528  1.3572
  280MOL0     H38626   3.319   3.931   9.183  0.6069  1.0187 -0.7556
  280MOL0     H38627   3.125   3.941   9.029  1.7326 -1.6944  1.3968
  280MOL0     H38628   2.804   4.246   9.126  0.5076 -3.1327  0.3366
  280MOL0     H38629   2.952   4.318   9.031  0.3275 -1.1008 -0.8985
  280MOL0     H38630   2.753   4.355   8.910 -0.3611  0.6506  1.9492
  280MOL0     H38631   2.701   4.186   8.914  1.8545 -1.7135  1.7455
  280MOL0     H38632   2.949   4.305   8.786  2.8590 -1.9483  0.8806
  280MOL0     H38633   2.907   4.126   8.775  1.8590  0.0171 -0.0332
  280MOL0     H38634   2.658   4.250   8.693  0.3723  0.8978  0.1866
  280MOL0     H38635   2.794   4.212   8.580 -0.9163 -1.7084  0.3039
  280MOL0     H38636   2.852   4.608   8.578  0.4431 -0.6359 -0.3483
  280MOL0     H38637   2.979   4.258   9.281  0.3939  1.3903 -2.4716
  280MOL0     H38638   3.244   4.323   9.462  2.2380 -3.0407 -1.5393
  280MOL0     H38639   3.074   4.291   9.495 -2.0509 -2.8807 -0.0758
  280MOL0     H38640   3.194   4.186   9.556 -0.8016  0.4395  0.0137
  281MOL0     O38641   2.492   8.712   4.710  0.5912 -0.6678 -0.1933
  281MOL0     C38642   2.553   8.775   4.628  0.0617 -0.3529  0.3352
  281MOL0     O38643   2.670   8.733   4.568 -0.0461  0.3334  0.3507
  281MOL0     C38644   2.743   8.631   4.611  0.2722  0.8553 -0.0419
  281MOL0     C38645   2.816   8.634   4.737  0.2522 -0.3858  0.0233
  281MOL0     C38646   2.892   8.529   4.772 -0.2726 -0.1773 -0.3056
  281MOL0     C38647   2.914   8.424   4.683 -0.2739 -0.3546  0.9273
  281MOL0     O38648   2.998   8.328   4.734  0.4993 -0.1129  0.2975
  281MOL0     C38649   3.041   8.218   4.657  0.7695 -0.3935  0.3100
  281MOL0     C38650   3.158   8.248   4.568  0.7629 -0.3648 -0.1149
  281MOL0     C38651   3.284   8.279   4.650 -0.5807  0.6201 -0.4804
  281MOL0     C38652   3.406   8.313   4.567  0.0850 -0.9265  0.0207
  281MOL0     C38653   3.529   8.323   4.659  0.2453  0.3763 -0.0799
  281MOL0     C38654   3.638   8.376   4.571 -0.3116  1.1383 -0.4447
  281MOL0     C38655   3.770   8.349   4.641 -0.4993 -0.0935 -0.5435
  281MOL0     C38656   3.883   8.420   4.560 -0.1993  0.2306  0.3467
  281MOL0     N38657   3.941   8.346   4.447 -0.1097 -0.2312 -0.1402
  281MOL0     C38658   3.890   8.250   4.377  0.8346 -0.0742  0.2046
  281MOL0     C38659   3.988   8.205   4.298  0.3146 -0.0258 -0.9011
  281MOL0     C38660   3.989   8.094   4.199 -0.8208 -0.8320  0.4184
  281MOL0     C38661   3.993   7.962   4.269 -0.5612 -0.0458  0.2037
  281MOL0     C38662   3.851   7.899   4.266  0.5928 -0.6330 -0.0530
  281MOL0     C38663   3.860   7.754   4.327 -0.6939 -0.2208  0.0784
  281MOL0     O38664   3.941   7.660   4.245 -0.1139  0.7087  0.0325
  281MOL0     C38665   3.968   7.542   4.312 -0.0302  0.1559 -0.8007
  281MOL0     C38666   3.885   7.476   4.397 -0.5831  0.9041  0.1051
  281MOL0     C38667   3.928   7.363   4.477  0.2203  0.4670  0.1834
  281MOL0     C38668   3.825   7.291   4.563  0.1413 -0.8082 -0.1440
  281MOL0     C38669   4.059   7.308   4.459  0.1260 -0.9457 -0.4070
  281MOL0     C38670   4.096   7.169   4.503  0.4042  0.0112  0.5839
  281MOL0     O38671   4.230   7.145   4.517  0.3085  0.3157  0.1085
  281MOL0     C38672   4.284   7.019   4.522  0.4045 -0.6956 -0.0101
  281MOL0     C38673   4.371   6.998   4.626 -0.0088  0.4229  0.1663
  281MOL0     C38674   4.421   6.869   4.646  0.5316 -0.4624  0.5150
  281MOL0     C38675   4.387   6.768   4.553  0.1459 -0.3848  0.4310
  281MOL0     O38676   4.441   6.643   4.563 -0.0261  0.3312  0.5747
  281MOL0     C38677   4.414   6.574   4.689 -0.3331 -0.2229  0.5960
  281MOL0     C38678   4.444   6.428   4.679  0.0963 -0.0134  0.1469
  281MOL0     C38679   4.380   6.353   4.562  1.1537 -0.2449  0.2958
  281MOL0     C38680   4.233   6.382   4.543  0.9878 -0.1414  0.1621
  281MOL0     C38681   4.192   6.324   4.407 -0.6371  0.5158 -0.1636
  281MOL0     C38682   4.040   6.311   4.373 -0.9619 -0.9779  1.1660
  281MOL0     C38683   4.013   6.239   4.243 -0.6189  0.3355 -0.3791
  281MOL0     C38684   4.050   6.316   4.114 -0.3173  0.0154 -0.2896
  281MOL0    Cl38685   3.982   6.477   4.111  0.2189 -0.0235  0.0586
  281MOL0     C38686   4.302   6.787   4.451 -0.3419  0.7297 -0.6592
  281MOL0     C38687   4.248   6.916   4.437 -0.3870 -0.2254  0.4049
  281MOL0     O38688   4.009   7.080   4.504  0.1746 -0.4316  0.3152
  281MOL0     C38689   4.136   7.375   4.370  0.3994  0.2234  0.1133
  281MOL0     C38690   4.093   7.492   4.300 -0.2269  0.0743  0.4601
  281MOL0     N38691   4.097   8.284   4.316 -0.3432  0.4886  0.3361
  281MOL0     N38692   4.071   8.371   4.404 -0.1334 -0.8215 -0.1047
  281MOL0     C38693   2.843   8.420   4.560 -0.3598  0.5356  0.1998
  281MOL0     C38694   2.755   8.521   4.525 -0.4063  0.4561 -1.0063
  281MOL0     C38695   2.501   8.909   4.584 -1.0581 -0.5244  0.6795
  281MOL0     C38696   2.538   8.958   4.453  0.6388 -0.2660  0.2811
  281MOL0     C38697   2.493   9.077   4.399  0.2741  0.2566 -0.3387
  281MOL0     C38698   2.416   9.159   4.477  0.4836  0.0801  0.0106
  281MOL0     O38699   2.366   9.274   4.425 -0.4956 -0.4253  0.1857
  281MOL0     C38700   2.345   9.287   4.282 -0.3410 -0.3803 -0.0075
  281MOL0     C38701   2.279   9.427   4.261  0.7222  0.0007 -0.0874
  281MOL0     C38702   2.240   9.457   4.120 -0.0942 -0.9108  0.4785
  281MOL0     C38703   2.365   9.498   4.034  1.1437  0.2467 -0.5233
  281MOL0     C38704   2.314   9.524   3.901 -0.3700  0.1855 -0.3275
  281MOL0     C38705   2.274   9.511   3.785 -0.8234  0.3507  0.2807
  281MOL0     C38706   2.382   9.121   4.610 -0.5543 -0.7106 -0.5886
  281MOL0     C38707   2.431   9.001   4.665 -0.5252 -0.2853 -0.2539
  281MOL0     C38708   2.404   8.960   4.807  0.0476 -0.3567 -0.1571
  281MOL0     H38709   2.807   8.718   4.806  0.4806  0.7531 -1.2976
  281MOL0     H38710   2.947   8.532   4.866 -1.7083  0.2897  0.5581
  281MOL0     H38711   2.962   8.190   4.587  2.3865 -1.3508 -1.2285
  281MOL0     H38712   3.057   8.122   4.707  0.3197 -0.6255  0.0103
  281MOL0     H38713   3.166   8.170   4.492  0.4508  1.2769 -1.9205
  281MOL0     H38714   3.131   8.341   4.518  3.8231  0.7108 -0.0091
  281MOL0     H38715   3.266   8.351   4.731  1.7251  0.1438  0.5265
  281MOL0     H38716   3.293   8.185   4.705 -3.9250  1.2423  1.4186
  281MOL0     H38717   3.424   8.236   4.492 -0.3534  0.8608 -1.9960
  281MOL0     H38718   3.400   8.410   4.518  2.1068 -2.0122 -2.6356
  281MOL0     H38719   3.564   8.232   4.709 -2.5498 -0.3240  0.7861
  281MOL0     H38720   3.507   8.397   4.737 -2.8033 -0.8145  0.3123
  281MOL0     H38721   3.640   8.326   4.474  0.0994 -1.0133  0.6071
  281MOL0     H38722   3.627   8.485   4.565  1.5373  1.2747 -2.6731
  281MOL0     H38723   3.807   8.246   4.644 -0.7954 -0.2076 -0.7707
  281MOL0     H38724   3.768   8.400   4.737  0.5844 -1.4821  0.2595
  281MOL0     H38725   3.847   8.516   4.521  0.0536  2.5026  4.9862
  281MOL0     H38726   3.963   8.452   4.627  1.9132  1.4267 -2.5331
  281MOL0     H38727   3.789   8.211   4.391  0.3117  1.1485  0.0220
  281MOL0     H38728   4.078   8.109   4.137 -1.9590  0.0324 -1.0819
  281MOL0     H38729   3.895   8.111   4.144 -0.1495 -1.2174 -0.8777
  281MOL0     H38730   4.061   7.898   4.211 -0.3299 -2.0680  2.5407
  281MOL0     H38731   4.025   7.958   4.374  0.6872 -2.6930 -0.1863
  281MOL0     H38732   3.776   7.960   4.317  0.0236 -1.6369  0.3492
  281MOL0     H38733   3.814   7.889   4.163  0.7359 -1.0405 -0.0669
  281MOL0     H38734   3.894   7.756   4.431 -0.7811 -2.9098  0.2189
  281MOL0     H38735   3.755   7.725   4.324 -1.0882  0.5321  3.2820
  281MOL0     H38736   3.784   7.516   4.397 -0.2303  1.8391  1.0264
  281MOL0     H38737   3.741   7.353   4.597  0.2438 -2.0960  2.7328
  281MOL0     H38738   3.865   7.247   4.655 -0.0165  1.1774  0.9515
  281MOL0     H38739   3.776   7.210   4.509 -0.7796 -1.7517  1.9941
  281MOL0     H38740   4.407   7.073   4.696  3.6012 -1.2458  0.3682
  281MOL0     H38741   4.482   6.848   4.733  0.1416 -1.9278  0.4483
  281MOL0     H38742   4.476   6.615   4.769  0.8210 -1.3713  0.3224
  281MOL0     H38743   4.307   6.584   4.710 -0.2932 -2.3805  2.1878
  281MOL0     H38744   4.550   6.426   4.654 -0.0664 -0.1521 -0.5426
  281MOL0     H38745   4.414   6.380   4.773  2.2904  0.8251  1.3447
  281MOL0     H38746   4.395   6.245   4.565  1.8076 -0.4735 -3.9204
  281MOL0     H38747   4.422   6.389   4.467 -1.8143  0.1664 -0.9630
  281MOL0     H38748   4.209   6.489   4.549  0.6689 -0.3089  2.5930
  281MOL0     H38749   4.170   6.323   4.610 -0.9208 -0.3127 -1.6892
  281MOL0     H38750   4.237   6.381   4.324 -1.9189  1.2076 -0.4107
  281MOL0     H38751   4.233   6.223   4.402  1.0459  1.2170 -1.5644
  281MOL0     H38752   3.995   6.411   4.367 -1.7047 -1.3572  0.0732
  281MOL0     H38753   3.979   6.260   4.448 -3.9376 -1.2143 -1.2215
  281MOL0     H38754   3.908   6.209   4.235 -0.2795 -0.5496 -1.8998
  281MOL0     H38755   4.072   6.147   4.240  0.4601  1.0210 -2.8810
  281MOL0     H38756   4.021   6.260   4.025  0.3284 -1.5271  0.4193
  281MOL0     H38757   4.159   6.326   4.108 -0.1912  0.3020  1.7249
  281MOL0     H38758   4.278   6.715   4.374 -0.1033 -0.5328  0.4035
  281MOL0     H38759   4.184   6.930   4.351  1.8715  0.6150 -1.2469
  281MOL0     H38760   4.235   7.340   4.342  1.0321  2.0140 -0.0198
  281MOL0     H38761   4.158   7.540   4.227 -0.5225  0.2023  0.2831
  281MOL0     H38762   2.834   8.333   4.495 -2.4603 -0.3469  1.5680
  281MOL0     H38763   2.692   8.505   4.439 -0.2600  1.5288 -1.3254
  281MOL0     H38764   2.597   8.904   4.380 -0.9166 -0.0739 -1.1941
  281MOL0     H38765   2.532   9.109   4.303 -1.4249  1.5626 -0.6577
  281MOL0     H38766   2.436   9.281   4.222  0.3670 -2.9618  1.2007
  281MOL0     H38767   2.280   9.206   4.248 -1.0715 -0.0850  0.6284
  281MOL0     H38768   2.343   9.509   4.293  1.6999 -0.5655 -0.5568
  281MOL0     H38769   2.191   9.423   4.327  0.2519 -1.3289 -0.7626
  281MOL0     H38770   2.197   9.367   4.076  1.2742 -1.6926  0.6929
  281MOL0     H38771   2.180   9.548   4.113  1.9468  0.3443 -2.4506
  281MOL0     H38772   2.439   9.418   4.031 -0.7530 -1.6120 -0.2392
  281MOL0     H38773   2.411   9.585   4.081  3.5799 -2.3642  2.4050
  281MOL0     H38774   2.245   9.522   3.682 -0.8104  1.8899  0.4222
  281MOL0     H38775   2.318   9.197   4.655  0.0790 -0.6942  0.3161
  281MOL0     H38776   2.346   9.041   4.853  0.6667  0.1503 -0.2567
  281MOL0     H38777   2.342   8.870   4.818 -0.1928 -0.1637  0.0760
  281MOL0     H38778   2.495   8.946   4.866  0.5740 -0.3492 -0.9591
  282MOL0     O38779  10.515   0.920   8.899  0.5209 -0.2076 -0.2394
  282MOL0     C38780  10.455   0.918   9.007  0.3218  0.4403 -0.8392
  282MOL0     O38781  10.496   0.849   9.117 -0.5625  0.2376  0.5207
  282MOL0     C38782  10.631   0.850   9.143 -0.3995 -0.3928  0.5163
  282MOL0     C38783  10.694   0.976   9.170 -0.0164  0.0076 -0.4400
  282MOL0     C38784  10.822   0.975   9.209  0.9296  0.3499  0.7027
  282MOL0     C38785  10.892   0.855   9.215 -0.2292 -0.3234  0.6412
  282MOL0     O38786  11.025   0.829   9.248 -0.4231 -0.2717  0.1900
  282MOL0     C38787  11.116   0.943   9.243 -0.2876 -0.2641  0.0017
  282MOL0     C38788  11.256   0.885   9.247 -0.2168  0.5558  0.2339
  282MOL0     C38789  11.373   0.979   9.197  0.0542  0.3813  0.2145
  282MOL0     C38790  11.494   0.883   9.170  1.1107  0.7729 -0.0023
  282MOL0     C38791  11.604   0.975   9.118 -0.2453  0.2135  0.1601
  282MOL0     C38792  11.728   0.887   9.098 -0.2058  0.4706  0.9971
  282MOL0     C38793  11.710   0.784   8.978  0.2287 -0.2899 -0.7410
  282MOL0     C38794  11.688   0.641   9.026  0.1978  0.8535 -0.7592
  282MOL0     N38795  11.796   0.591   9.114 -0.0146 -0.3324 -0.2876
  282MOL0     C38796  11.775   0.576   9.250  0.0826 -0.8069 -0.0127
  282MOL0     C38797  11.904   0.559   9.299 -0.4218 -0.4465 -0.5727
  282MOL0     C38798  11.941   0.529   9.434  0.2048  0.1031 -0.1344
  282MOL0     C38799  11.947   0.377   9.470 -0.3868  0.3920  0.6955
  282MOL0     C38800  11.840   0.288   9.400 -0.9200 -0.1466  0.0538
  282MOL0     C38801  11.702   0.310   9.463  0.4117 -0.2569  0.7251
  282MOL0     O38802  11.596   0.226   9.411  0.4622  0.3093  0.1107
  282MOL0     C38803  11.483   0.252   9.477 -0.2126 -0.0694  0.2065
  282MOL0     C38804  11.398   0.355   9.444  0.2127  0.1324  0.2070
  282MOL0     C38805  11.281   0.384   9.508  0.8311 -0.5931 -0.2808
  282MOL0     C38806  11.191   0.487   9.455 -1.2556 -1.3109  0.5127
  282MOL0     C38807  11.251   0.312   9.628 -0.0935 -0.1259  0.1943
  282MOL0     C38808  11.141   0.341   9.712  0.0465 -0.6275 -0.0029
  282MOL0     O38809  11.074   0.239   9.778 -0.0261  0.1441  0.2378
  282MOL0     C38810  10.949   0.238   9.831  0.8028 -0.7936 -0.1327
  282MOL0     C38811  10.911   0.139   9.918 -0.3939  0.2223  1.0290
  282MOL0     C38812  10.784   0.145   9.974 -0.5692  0.0571 -0.0123
  282MOL0     C38813  10.695   0.247   9.944 -0.0791  0.5983 -0.1948
  282MOL0     O38814  10.560   0.253   9.986  0.6132  0.7124  0.2597
  282MOL0     C38815  10.530   0.178  10.107  0.1299  0.1428  0.2913
  282MOL0     C38816  10.384   0.219  10.156  0.1769  0.5768  0.3168
  282MOL0     C38817  10.280   0.135  10.087  0.1596 -0.0920  0.7945
  282MOL0     C38818  10.234   0.200   9.955  0.3472 -0.6831 -0.2904
  282MOL0     C38819  10.126   0.126   9.882 -0.4716  0.1080  0.2507
  282MOL0     C38820  10.182  -0.026   9.856  0.0196 -0.1075 -0.6070
  282MOL0     C38821  10.100  -0.091   9.745  0.1425 -1.2232 -0.2061
  282MOL0     C38822  10.150  -0.229   9.723 -0.4822  0.6648  0.7487
  282MOL0    Cl38823  10.124  -0.327   9.861 -0.5138  0.4634 -0.3786
  282MOL0     C38824  10.738   0.346   9.858 -0.4671 -0.0654  0.0871
  282MOL0     C38825  10.861   0.344   9.808  0.8687 -0.3002 -0.2818
  282MOL0     O38826  11.127   0.463   9.731 -0.0807  0.5124  0.2915
  282MOL0     C38827  11.334   0.199   9.657 -0.4111 -0.0545  0.5983
  282MOL0     C38828  11.448   0.168   9.582  0.6894 -0.5210  0.4738
  282MOL0     N38829  11.991   0.569   9.191 -0.4695  0.6471 -0.2128
  282MOL0     N38830  11.928   0.585   9.086  0.1032  0.5496  0.3695
  282MOL0     C38831  10.825   0.734   9.191 -0.5327  0.0289 -0.0163
  282MOL0     C38832  10.695   0.729   9.154  0.6091 -0.0436  0.1216
  282MOL0     C38833  10.316   0.965   9.010  0.2141  0.3447 -0.2836
  282MOL0     C38834  10.218   0.913   9.095 -0.3535 -0.2480  0.0870
  282MOL0     C38835  10.087   0.949   9.086 -0.3479 -0.9170  0.7388
  282MOL0     C38836  10.040   1.049   8.998  0.0946  0.0720 -0.1020
  282MOL0     O38837   9.906   1.064   8.993 -0.3142  0.3204 -0.4449
  282MOL0     C38838   9.856   1.198   8.962  0.5128 -0.2341 -0.3671
  282MOL0     C38839   9.903   1.317   9.051  0.4301  0.1531 -1.3869
  282MOL0     C38840   9.878   1.286   9.199  0.9122  0.2397  0.0719
  282MOL0     C38841   9.911   1.407   9.285  0.9965 -0.7178 -0.9064
  282MOL0     C38842   9.796   1.503   9.295 -0.5141  0.6048 -0.3749
  282MOL0     C38843   9.701   1.585   9.318 -0.3139  0.2632  0.7228
  282MOL0     C38844  10.135   1.107   8.924 -0.4662  0.2431  0.6253
  282MOL0     C38845  10.270   1.071   8.931  0.0113 -0.4481 -0.1710
  282MOL0     C38846  10.366   1.162   8.854  0.4305  0.0213 -0.0893
  282MOL0     H38847  10.645   1.073   9.163 -0.0361  0.3182  2.7207
  282MOL0     H38848  10.873   1.071   9.215  0.7109  0.5032  0.1370
  282MOL0     H38849  11.093   1.000   9.333  0.5930  2.6405 -1.4984
  282MOL0     H38850  11.108   1.011   9.158  1.3210 -0.4560 -0.3370
  282MOL0     H38851  11.280   0.844   9.346 -0.0438 -1.8166 -0.7216
  282MOL0     H38852  11.252   0.785   9.203 -2.8232  0.0550  1.3956
  282MOL0     H38853  11.336   1.042   9.116  1.6099  1.0716  0.0124
  282MOL0     H38854  11.397   1.052   9.275 -1.8503  0.4124  0.8184
  282MOL0     H38855  11.525   0.828   9.259 -0.1430  1.3919  0.8394
  282MOL0     H38856  11.454   0.817   9.093  0.4600  1.8869 -0.6396
  282MOL0     H38857  11.638   1.049   9.192  0.4317  0.4158 -0.3451
  282MOL0     H38858  11.578   1.022   9.023  0.6156  0.2519 -0.0699
  282MOL0     H38859  11.809   0.958   9.077 -2.6784  2.6390 -2.4031
  282MOL0     H38860  11.743   0.838   9.194 -0.4612  1.6833  1.6781
  282MOL0     H38861  11.801   0.775   8.919  0.5223 -0.7125 -0.2309
  282MOL0     H38862  11.632   0.822   8.911  1.4561  2.5168 -0.7192
  282MOL0     H38863  11.595   0.628   9.082  0.9925  2.0629  0.9181
  282MOL0     H38864  11.683   0.587   8.931 -0.9816  1.1210 -0.8746
  282MOL0     H38865  11.679   0.583   9.301  1.1306  0.1393  1.9109
  282MOL0     H38866  11.866   0.576   9.498  1.8106  1.6416  0.7147
  282MOL0     H38867  12.042   0.563   9.459  1.6495 -2.6404 -1.8008
  282MOL0     H38868  12.041   0.343   9.426 -0.7652  0.5626 -0.2865
  282MOL0     H38869  11.948   0.360   9.578  0.4673  3.1188  1.1945
  282MOL0     H38870  11.841   0.302   9.291 -0.8278 -1.3166 -0.1039
  282MOL0     H38871  11.860   0.184   9.424 -3.0824  0.0512  3.4540
  282MOL0     H38872  11.714   0.287   9.569  2.6907 -1.5116  0.2677
  282MOL0     H38873  11.683   0.417   9.452  0.7748  0.1372  3.3617
  282MOL0     H38874  11.425   0.403   9.351 -1.0623  1.4507  0.4905
  282MOL0     H38875  11.226   0.521   9.357 -2.8208 -0.1521  0.3176
  282MOL0     H38876  11.185   0.572   9.523 -2.0730 -1.7299  0.9812
  282MOL0     H38877  11.085   0.460   9.447 -1.5250 -1.0070  2.6070
  282MOL0     H38878  10.975   0.059   9.955 -0.8954 -0.2302  0.9384
  282MOL0     H38879  10.751   0.069  10.044  0.8872  2.6614  3.8381
  282MOL0     H38880  10.528   0.072  10.080  1.7395 -0.1428  1.1720
  282MOL0     H38881  10.605   0.195  10.185 -0.8342  1.7894  0.9100
  282MOL0     H38882  10.379   0.179  10.258  0.8291  1.2497  0.6244
  282MOL0     H38883  10.371   0.327  10.165  0.6356  0.5874  0.9773
  282MOL0     H38884  10.195   0.130  10.156  0.2257 -2.1794  0.7901
  282MOL0     H38885  10.319   0.034  10.073 -1.9358 -0.6072 -2.2182
  282MOL0     H38886  10.325   0.214   9.895 -1.2896  1.0304 -2.5722
  282MOL0     H38887  10.198   0.303   9.965 -0.6734 -0.7940 -2.2008
  282MOL0     H38888  10.032   0.116   9.938 -0.9604  2.2347 -0.0875
  282MOL0     H38889  10.111   0.185   9.791 -0.2278  0.2657  0.3145
  282MOL0     H38890  10.173  -0.087   9.946 -2.0241 -1.2549 -1.5221
  282MOL0     H38891  10.286  -0.020   9.822  0.2336 -3.0244 -0.6435
  282MOL0     H38892  10.121  -0.040   9.651 -2.7257 -2.8617 -1.8605
  282MOL0     H38893   9.994  -0.092   9.770  0.2933 -3.6187  0.6158
  282MOL0     H38894  10.254  -0.230   9.689 -0.6194  4.8650 -0.3071
  282MOL0     H38895  10.087  -0.273   9.645 -1.0047 -1.1083  2.0926
  282MOL0     H38896  10.656   0.414   9.839  1.1505  1.8622 -0.3916
  282MOL0     H38897  10.891   0.433   9.754 -0.3037  0.7478  0.7101
  282MOL0     H38898  11.314   0.145   9.749 -0.0400  1.3461  1.5475
  282MOL0     H38899  11.517   0.085   9.599  2.1318  0.2717 -1.2820
  282MOL0     H38900  10.876   0.641   9.214 -1.3162 -0.3206  0.3252
  282MOL0     H38901  10.639   0.640   9.128 -0.1324  0.3547  0.3343
  282MOL0     H38902  10.242   0.825   9.154  0.6061 -0.0178  0.0643
  282MOL0     H38903  10.013   0.887   9.135 -0.1151 -1.7664  0.0347
  282MOL0     H38904   9.888   1.221   8.860 -0.2197 -0.7635 -0.7257
  282MOL0     H38905   9.747   1.192   8.968  0.2446  3.2062  0.1126
  282MOL0     H38906   9.841   1.401   9.018 -0.6275  0.4022  1.0443
  282MOL0     H38907  10.007   1.346   9.034  1.0591 -1.4950 -0.5127
  282MOL0     H38908   9.776   1.250   9.213  1.1827  0.3550  2.7988
  282MOL0     H38909   9.937   1.200   9.231 -0.0296  0.2515  1.9516
  282MOL0     H38910   9.988   1.469   9.238 -0.2559  3.4715  1.9800
  282MOL0     H38911   9.943   1.374   9.384 -0.6253 -1.4982 -0.6107
  282MOL0     H38912   9.636   1.668   9.336  2.5335  2.5928  0.8044
  282MOL0     H38913  10.109   1.185   8.853  1.1974  0.3381  0.0797
  282MOL0     H38914  10.362   1.123   8.752 -0.5402  1.4581 -0.6270
  282MOL0     H38915  10.329   1.265   8.854  0.5123  0.0508 -0.0114
  282MOL0     H38916  10.466   1.172   8.897  0.7455  3.5119 -1.3635
  283MOL0     O38917   9.100   8.743   2.101  0.3339  0.2058  0.2233
  283MOL0     C38918   9.024   8.730   2.003 -0.4041  0.9949 -0.5478
  283MOL0     O38919   9.042   8.632   1.903  0.7735 -1.0588  0.3037
  283MOL0     C38920   9.143   8.547   1.917 -0.0931 -0.0268  0.5182
  283MOL0     C38921   9.275   8.576   1.874  0.1513 -0.8071  0.0285
  283MOL0     C38922   9.372   8.473   1.897 -0.2153 -0.4993 -0.0954
  283MOL0     C38923   9.343   8.346   1.950  0.6922  0.1306 -0.4342
  283MOL0     O38924   9.435   8.250   1.974  0.3261 -0.2411  0.0071
  283MOL0     C38925   9.580   8.277   1.956 -0.4406 -0.4569 -0.1414
  283MOL0     C38926   9.672   8.170   2.007 -1.0701 -0.5930 -0.5738
  283MOL0     C38927   9.820   8.221   2.018 -0.0268 -0.4468 -0.6287
  283MOL0     C38928   9.888   8.121   2.120 -0.3603  0.6803  0.2525
  283MOL0     C38929  10.036   8.160   2.142 -0.0731 -0.0381  0.0452
  283MOL0     C38930  10.147   8.165   2.037 -0.1414 -0.0919  0.3322
  283MOL0     C38931  10.158   8.033   1.952 -1.2377 -0.1659  0.2835
  283MOL0     C38932  10.283   8.042   1.861 -0.0631 -0.2218  0.1315
  283MOL0     N38933  10.407   8.086   1.928  0.7341 -0.0809  0.0150
  283MOL0     C38934  10.464   8.016   2.032  1.2584  0.9200  0.4805
  283MOL0     C38935  10.589   8.070   2.045 -0.3091  0.2380  0.2273
  283MOL0     C38936  10.681   8.010   2.147 -0.6690  0.1829 -0.7414
  283MOL0     C38937  10.820   8.078   2.123 -0.1545  0.4703  0.3497
  283MOL0     C38938  10.937   8.005   2.192  0.4650 -0.9862  0.1461
  283MOL0     C38939  11.053   8.092   2.154  0.3473  0.6807  0.0197
  283MOL0     O38940  11.168   8.030   2.220  0.2199 -0.3248  0.2190
  283MOL0     C38941  11.298   8.054   2.190 -0.4172  0.1536  0.4858
  283MOL0     C38942  11.330   8.167   2.124  0.2540  0.4897 -0.0016
  283MOL0     C38943  11.458   8.211   2.092 -0.5986 -0.1042 -0.1390
  283MOL0     C38944  11.481   8.335   2.021  0.3850  0.7789  0.3306
  283MOL0     C38945  11.556   8.114   2.123 -0.0164  0.0210  0.3013
  283MOL0     C38946  11.697   8.117   2.073 -0.1581  0.4361 -0.2542
  283MOL0     O38947  11.797   8.077   2.162  0.4286 -0.2246  0.3694
  283MOL0     C38948  11.927   8.074   2.122  0.9529  0.3570  0.6761
  283MOL0     C38949  12.025   8.105   2.212 -0.5006 -0.4866 -0.2245
  283MOL0     C38950  12.164   8.089   2.184 -0.3020 -0.6742 -0.1084
  283MOL0     C38951  12.210   8.035   2.067  1.2918 -0.4119  0.6371
  283MOL0     O38952  12.347   8.034   2.051  0.2450  0.1156 -0.0417
  283MOL0     C38953  12.401   7.958   1.934  0.1709 -0.2746 -0.3755
  283MOL0     C38954  12.547   7.995   1.900  0.0604 -0.4456  0.3510
  283MOL0     C38955  12.595   7.930   1.772  0.4962  0.0132 -0.1383
  283MOL0     C38956  12.613   7.772   1.792 -0.2261 -0.5133 -0.1095
  283MOL0     C38957  12.707   7.728   1.677 -0.1053 -0.6377  0.2749
  283MOL0     C38958  12.738   7.580   1.662 -0.5148 -0.1154 -0.0005
  283MOL0     C38959  12.832   7.536   1.548  0.0157 -0.1500  0.0604
  283MOL0     C38960  12.975   7.497   1.588  0.1582  0.5923  0.3620
  283MOL0    Cl38961  13.078   7.643   1.570  0.3192  0.3191  0.1747
  283MOL0     C38962  12.106   7.992   1.978 -0.3431 -0.7155 -1.3928
  283MOL0     C38963  11.973   8.010   2.007  0.1356  0.2376 -0.7596
  283MOL0     O38964  11.716   8.162   1.962  0.2161 -0.5310  0.5671
  283MOL0     C38965  11.523   7.995   2.186  0.1343 -0.3970 -0.0619
  283MOL0     C38966  11.399   7.968   2.228  0.6091  0.0311  1.0759
  283MOL0     N38967  10.594   8.181   1.957 -0.2974  0.0914 -0.5078
  283MOL0     N38968  10.486   8.182   1.885  0.5669  0.2242  0.5204
  283MOL0     C38969   9.213   8.319   1.992 -0.5272  0.8360 -0.3602
  283MOL0     C38970   9.118   8.424   1.977 -0.1469  0.3385  1.0639
  283MOL0     C38971   8.897   8.814   1.984  0.1214 -0.4465  0.4495
  283MOL0     C38972   8.886   8.929   2.072  0.7860  0.8130  0.6374
  283MOL0     C38973   8.781   9.023   2.066 -0.3553  0.6976  0.7641
  283MOL0     C38974   8.675   8.996   1.976  1.0665  0.3512 -0.9674
  283MOL0     O38975   8.553   9.067   1.976  0.5027 -0.3135 -0.1478
  283MOL0     C38976   8.504   9.149   2.090  0.1702 -0.5548 -0.3637
  283MOL0     C38977   8.446   9.070   2.213  0.1160  0.9416  0.1651
  283MOL0     C38978   8.336   8.971   2.159 -0.4206  0.3081  0.8667
  283MOL0     C38979   8.256   8.916   2.275 -0.0432  0.3390  0.2190
  283MOL0     C38980   8.334   8.818   2.358 -0.9310 -0.4176  0.7854
  283MOL0     C38981   8.385   8.734   2.426 -0.0275 -0.7359 -0.2046
  283MOL0     C38982   8.686   8.883   1.894  0.8094  0.2676 -0.3306
  283MOL0     C38983   8.793   8.795   1.885 -0.3839 -0.4541 -0.4784
  283MOL0     C38984   8.777   8.680   1.777 -0.3916 -0.7144 -0.0756
  283MOL0     H38985   9.313   8.662   1.819  2.0855 -2.0823 -0.7245
  283MOL0     H38986   9.475   8.489   1.868  0.4050  1.0540  2.6460
  283MOL0     H38987   9.598   8.365   2.019 -3.0804 -1.2937  1.9685
  283MOL0     H38988   9.591   8.297   1.849 -1.0330  0.2163 -0.0901
  283MOL0     H38989   9.635   8.138   2.105  1.9161  1.3628  1.3415
  283MOL0     H38990   9.652   8.082   1.945 -0.4609 -0.9473 -0.2744
  283MOL0     H38991   9.885   8.227   1.931 -0.7553 -1.3918 -1.2525
  283MOL0     H38992   9.825   8.320   2.065 -0.4526 -1.1665  0.9925
  283MOL0     H38993   9.833   8.122   2.215  0.0824  0.6153  0.5097
  283MOL0     H38994   9.893   8.020   2.077  1.3013  0.3821  1.0617
  283MOL0     H38995  10.072   8.084   2.212  1.3020  0.3623 -0.2141
  283MOL0     H38996  10.044   8.258   2.188 -1.8747 -0.8603  2.3058
  283MOL0     H38997  10.125   8.237   1.957 -1.6745 -0.9903 -0.1021
  283MOL0     H38998  10.236   8.190   2.095 -1.5201 -0.1054  2.5432
  283MOL0     H38999  10.062   8.031   1.899 -0.9838 -1.4105 -0.1588
  283MOL0     H39000  10.170   7.946   2.017  1.2988  0.3716  0.6567
  283MOL0     H39001  10.306   7.946   1.815 -2.5745 -2.2462  2.7880
  283MOL0     H39002  10.250   8.105   1.778 -5.1346 -0.0930  1.9408
  283MOL0     H39003  10.422   7.925   2.074 -4.4587  2.1428 -1.7023
  283MOL0     H39004  10.685   7.902   2.134  0.3771 -0.0302  0.9639
  283MOL0     H39005  10.657   8.047   2.247  1.9250  1.7303 -0.5924
  283MOL0     H39006  10.847   8.091   2.018  1.6024  0.3204  0.7578
  283MOL0     H39007  10.803   8.179   2.163 -0.4532 -0.1389  1.8387
  283MOL0     H39008  10.925   8.006   2.301 -1.7488 -2.7606 -0.0031
  283MOL0     H39009  10.940   7.904   2.150  1.4609  0.3296 -3.2883
  283MOL0     H39010  11.076   8.103   2.047  0.0362 -0.0644 -0.1297
  283MOL0     H39011  11.044   8.193   2.196  1.3733  2.0195 -2.7181
  283MOL0     H39012  11.247   8.231   2.095  0.3034  0.4205 -0.2981
  283MOL0     H39013  11.408   8.413   2.046  0.1410  1.0104 -1.0479
  283MOL0     H39014  11.469   8.320   1.914  0.2257 -0.0047  0.4519
  283MOL0     H39015  11.578   8.368   2.060  1.7665 -1.8371 -0.6126
  283MOL0     H39016  11.995   8.150   2.306 -0.4711  2.1344 -1.3892
  283MOL0     H39017  12.231   8.136   2.256 -1.5764  1.0857 -0.0185
  283MOL0     H39018  12.394   7.851   1.958 -1.4070  0.1034  1.0779
  283MOL0     H39019  12.337   7.984   1.849  0.5893  1.9898 -0.0587
  283MOL0     H39020  12.563   8.101   1.877  0.4500 -0.6652 -0.4116
  283MOL0     H39021  12.609   7.970   1.987  0.9993 -0.7275 -0.3841
  283MOL0     H39022  12.689   7.975   1.736 -0.4543  1.0595 -1.4284
  283MOL0     H39023  12.515   7.948   1.699  0.1659 -0.7522  0.0348
  283MOL0     H39024  12.516   7.721   1.793 -1.1619  1.2017  1.2847
  283MOL0     H39025  12.657   7.741   1.887  2.0638  2.0399 -0.2265
  283MOL0     H39026  12.676   7.773   1.581  2.7358  0.6177 -0.1695
  283MOL0     H39027  12.802   7.771   1.710 -0.9282  0.1916  1.6590
  283MOL0     H39028  12.640   7.532   1.661 -0.8755  0.2731  3.7809
  283MOL0     H39029  12.779   7.543   1.757 -0.5529 -1.0589 -0.3419
  283MOL0     H39030  12.845   7.612   1.471  2.1427 -1.9064 -1.4561
  283MOL0     H39031  12.785   7.448   1.502  1.6581 -2.0209  1.7563
  283MOL0     H39032  13.012   7.414   1.528 -0.8052  0.8040 -0.5497
  283MOL0     H39033  12.981   7.455   1.689 -1.3662 -1.1732 -0.2297
  283MOL0     H39034  12.128   7.945   1.882  0.8218  3.0343 -3.1709
  283MOL0     H39035  11.902   7.985   1.929 -1.3880 -0.2693  0.7278
  283MOL0     H39036  11.601   7.927   2.215  0.4761  0.2596  0.5945
  283MOL0     H39037  11.369   7.875   2.275 -0.0788 -0.4553 -0.2979
  283MOL0     H39038   9.190   8.237   2.059 -1.0323  0.5395 -0.8916
  283MOL0     H39039   9.017   8.401   2.007 -0.8598 -0.4779 -1.6432
  283MOL0     H39040   8.959   8.945   2.151  1.9690  1.5618 -0.5604
  283MOL0     H39041   8.771   9.114   2.125  0.8555  0.8146  0.8058
  283MOL0     H39042   8.571   9.221   2.138 -1.2063  0.9643 -0.6063
  283MOL0     H39043   8.416   9.205   2.057 -0.3716 -0.7771  0.6606
  283MOL0     H39044   8.389   9.132   2.284 -1.8912  0.5347 -1.0329
  283MOL0     H39045   8.526   9.013   2.260  0.0358 -0.6910 -1.5760
  283MOL0     H39046   8.267   9.022   2.091  2.6869 -0.3085 -3.1686
  283MOL0     H39047   8.359   8.883   2.098 -4.4491  0.7468 -1.6746
  283MOL0     H39048   8.170   8.864   2.233 -0.0876  0.7710 -0.2262
  283MOL0     H39049   8.209   8.994   2.335 -1.2044  0.2640 -0.5594
  283MOL0     H39050   8.432   8.656   2.482 -0.7736 -2.8999 -2.3928
  283MOL0     H39051   8.591   8.861   1.847 -0.0068  2.2537  0.2804
  283MOL0     H39052   8.771   8.583   1.827  1.2751 -0.4189  0.7645
  283MOL0     H39053   8.687   8.693   1.716  0.3390 -1.1910 -1.2769
  283MOL0     H39054   8.865   8.669   1.714 -0.5977  0.1697 -0.5475
  284MOL0     O39055   8.242   7.752   0.123 -0.2089 -0.5375 -0.0043
  284MOL0     C39056   8.199   7.722   0.011  0.1349 -0.2783 -0.5314
  284MOL0     O39057   8.284   7.676  -0.081  0.2560  0.0954 -0.5504
  284MOL0     C39058   8.418   7.682  -0.047 -0.3376 -0.2123  0.0568
  284MOL0     C39059   8.487   7.569  -0.037  0.1672  0.8274 -0.1780
  284MOL0     C39060   8.625   7.569  -0.014  0.7086  0.4495  0.2956
  284MOL0     C39061   8.697   7.684   0.008 -0.1605  0.0668 -0.0288
  284MOL0     O39062   8.831   7.679   0.027 -0.4726  0.3714  0.0458
  284MOL0     C39063   8.886   7.787   0.094 -0.5461 -0.3081  0.4575
  284MOL0     C39064   9.034   7.776   0.122  0.5998  0.1588 -0.4440
  284MOL0     C39065   9.064   7.664   0.222  1.0239 -0.1498  0.9479
  284MOL0     C39066   9.206   7.682   0.252  0.3288  0.6626  0.7841
  284MOL0     C39067   9.238   7.582   0.367  0.1633 -0.5856 -0.2763
  284MOL0     C39068   9.383   7.556   0.357  0.9374 -0.1683  0.1348
  284MOL0     C39069   9.441   7.469   0.465  0.0842 -0.3316  1.0930
  284MOL0     C39070   9.490   7.529   0.599  0.4525 -0.3214 -0.1810
  284MOL0     N39071   9.602   7.626   0.594  0.3004 -0.0613  0.4002
  284MOL0     C39072   9.735   7.608   0.551 -0.6267 -0.4658 -0.0844
  284MOL0     C39073   9.791   7.731   0.554  0.1418 -0.2441  0.2168
  284MOL0     C39074   9.927   7.788   0.515 -0.0144 -0.3119 -0.3118
  284MOL0     C39075   9.995   7.836   0.641 -0.2208 -0.8781 -0.8952
  284MOL0     C39076  10.121   7.923   0.630 -0.0262  0.7519  0.4593
  284MOL0     C39077  10.248   7.851   0.576  0.3231 -0.7000  0.1069
  284MOL0     O39078  10.361   7.930   0.623 -0.0133  0.1773 -0.1207
  284MOL0     C39079  10.433   7.871   0.730 -0.2594 -0.3715 -0.1262
  284MOL0     C39080  10.380   7.778   0.823 -0.5377 -0.2852 -0.3816
  284MOL0     C39081  10.461   7.717   0.920 -0.6913  0.2214 -0.0148
  284MOL0     C39082  10.419   7.598   1.001 -0.4278  0.1568 -0.9415
  284MOL0     C39083  10.590   7.768   0.933 -0.7022  0.1097  0.8141
  284MOL0     C39084  10.694   7.707   1.021  0.6012 -0.7442 -0.1126
  284MOL0     O39085  10.745   7.583   0.986  0.0516 -0.0754 -0.1726
  284MOL0     C39086  10.834   7.522   1.067 -0.7114 -0.8529 -0.3883
  284MOL0     C39087  10.790   7.401   1.128 -0.1819 -0.8158  0.6255
  284MOL0     C39088  10.878   7.337   1.209 -0.8531  0.6980  0.0390
  284MOL0     C39089  11.001   7.395   1.247  0.1394 -0.2814  0.3856
  284MOL0     O39090  11.090   7.323   1.317 -0.2181 -0.0262  0.0394
  284MOL0     C39091  11.104   7.180   1.285  0.2969 -0.0112 -0.0486
  284MOL0     C39092  11.248   7.146   1.305 -0.6701  0.1521  0.0543
  284MOL0     C39093  11.320   7.153   1.168 -0.4934 -0.2659  0.2949
  284MOL0     C39094  11.475   7.137   1.174  0.3074  0.1100  0.0356
  284MOL0     C39095  11.545   7.199   1.052 -0.5200  0.2036  0.3497
  284MOL0     C39096  11.693   7.147   1.028 -0.3305 -0.5545 -1.0376
  284MOL0     C39097  11.766   7.235   0.927  0.3513 -0.0584  0.6749
  284MOL0     C39098  11.767   7.165   0.786  0.3346 -0.7526 -0.3302
  284MOL0    Cl39099  11.888   7.273   0.697 -0.2345 -0.0241  0.1847
  284MOL0     C39100  11.042   7.515   1.183 -1.1111  0.6509 -0.3350
  284MOL0     C39101  10.959   7.589   1.099  0.0465 -0.2471 -0.6012
  284MOL0     O39102  10.726   7.782   1.118  0.5704  0.2018 -0.0098
  284MOL0     C39103  10.638   7.869   0.842  0.5613  0.1331  0.2500
  284MOL0     C39104  10.560   7.926   0.753  0.8442 -0.6945 -0.8850
  284MOL0     N39105   9.692   7.819   0.592 -0.5267 -0.3967 -0.2524
  284MOL0     N39106   9.584   7.758   0.624  0.3111  0.3235 -0.3944
  284MOL0     C39107   8.625   7.807   0.003 -0.7300  0.4114 -0.4954
  284MOL0     C39108   8.483   7.807  -0.016 -0.1497  0.0383  0.6637
  284MOL0     C39109   8.057   7.745  -0.031 -0.3220 -0.3746  0.3986
  284MOL0     C39110   8.017   7.694  -0.157  0.0987  0.4312 -0.5672
  284MOL0     C39111   7.882   7.710  -0.197 -0.2548  1.2162  0.2336
  284MOL0     C39112   7.791   7.765  -0.112 -0.8336  0.4972 -0.0449
  284MOL0     O39113   7.658   7.771  -0.155 -0.0573  0.4616  0.5725
  284MOL0     C39114   7.568   7.869  -0.098  0.1922  0.4050  0.5416
  284MOL0     C39115   7.439   7.785  -0.098 -0.2587 -0.8371 -0.2886
  284MOL0     C39116   7.389   7.761  -0.238  0.2221 -0.2598 -0.8245
  284MOL0     C39117   7.263   7.669  -0.235  0.2173  0.4868 -0.2264
  284MOL0     C39118   7.286   7.541  -0.164 -0.2448  1.1364 -0.3575
  284MOL0     C39119   7.284   7.443  -0.091 -0.6490  0.2990  0.3291
  284MOL0     C39120   7.830   7.823   0.015 -0.2332  0.3461 -0.1773
  284MOL0     C39121   7.965   7.818   0.049 -0.1019  0.5136 -0.3587
  284MOL0     C39122   7.996   7.874   0.191  0.5183  0.1111  0.4205
  284MOL0     H39123   8.435   7.475  -0.048 -3.2031  2.7182 -1.8765
  284MOL0     H39124   8.678   7.474  -0.008  0.2702  0.2802  2.7747
  284MOL0     H39125   8.836   7.808   0.189 -1.6138 -1.6426  0.2238
  284MOL0     H39126   8.869   7.884   0.046 -0.2250  0.2071  1.3713
  284MOL0     H39127   9.077   7.755   0.023  2.6088  1.4200  0.0994
  284MOL0     H39128   9.080   7.873   0.144 -0.1170  0.5640 -0.7059
  284MOL0     H39129   8.992   7.661   0.304  0.2181 -0.6706  0.2364
  284MOL0     H39130   9.038   7.571   0.172  0.6574  0.9752 -1.0674
  284MOL0     H39131   9.276   7.666   0.170 -3.1133  2.6202 -2.9098
  284MOL0     H39132   9.234   7.779   0.293  1.0775  0.6841  0.2353
  284MOL0     H39133   9.181   7.489   0.363  0.3843 -0.7452  0.2223
  284MOL0     H39134   9.224   7.628   0.466 -0.9503 -1.0517 -0.2174
  284MOL0     H39135   9.405   7.503   0.264  1.8117  0.0017  0.2381
  284MOL0     H39136   9.438   7.650   0.361 -2.9468  2.3740 -1.1332
  284MOL0     H39137   9.529   7.421   0.421  0.0481  1.6942 -1.4847
  284MOL0     H39138   9.369   7.388   0.481  0.5420 -1.5084 -2.0533
  284MOL0     H39139   9.397   7.571   0.641  0.0786 -0.8638 -0.4599
  284MOL0     H39140   9.526   7.454   0.669 -2.5684  0.0208  1.9440
  284MOL0     H39141   9.787   7.516   0.526 -0.0974  0.1190 -1.1803
  284MOL0     H39142   9.897   7.870   0.449 -0.9903 -0.2628  0.1840
  284MOL0     H39143   9.995   7.718   0.465  1.7417  0.3945  0.9838
  284MOL0     H39144   9.930   7.896   0.705  2.3823 -1.0515  2.1725
  284MOL0     H39145  10.026   7.749   0.701  1.1574 -1.1551 -1.9548
  284MOL0     H39146  10.092   7.983   0.542 -0.6625 -2.3419 -1.5931
  284MOL0     H39147  10.134   7.975   0.725 -1.5902  0.1115  1.0655
  284MOL0     H39148  10.251   7.745   0.604 -3.7710 -0.8940  0.4772
  284MOL0     H39149  10.236   7.848   0.468  0.9194  1.9067 -0.0952
  284MOL0     H39150  10.278   7.743   0.814  0.5583 -3.8776 -0.1827
  284MOL0     H39151  10.466   7.508   0.959  1.2811  0.1069  0.8959
  284MOL0     H39152  10.311   7.589   0.988 -0.3891 -1.1862 -0.5595
  284MOL0     H39153  10.448   7.608   1.106 -1.2840 -2.0660 -0.4261
  284MOL0     H39154  10.692   7.360   1.108  0.5563 -1.3381 -2.3915
  284MOL0     H39155  10.844   7.243   1.252  0.7578  1.3964  3.1394
  284MOL0     H39156  11.047   7.118   1.354 -1.4028  0.4458 -0.9741
  284MOL0     H39157  11.060   7.156   1.187 -0.4254  1.2079 -0.0444
  284MOL0     H39158  11.287   7.215   1.380 -0.3104  0.1862 -0.1592
  284MOL0     H39159  11.263   7.048   1.353 -1.8240  0.9818  2.2223
  284MOL0     H39160  11.293   7.249   1.124 -0.2813 -0.8507 -1.1382
  284MOL0     H39161  11.264   7.085   1.103 -1.7000  0.7470  0.2227
  284MOL0     H39162  11.503   7.031   1.162  2.4319  0.6445 -0.1979
  284MOL0     H39163  11.521   7.168   1.268  0.2930 -1.6756  0.6809
  284MOL0     H39164  11.497   7.156   0.963  0.4419 -1.9862  0.8123
  284MOL0     H39165  11.534   7.307   1.062 -1.7885 -0.0131  1.6076
  284MOL0     H39166  11.687   7.046   0.985 -2.2283 -0.9396  0.0273
  284MOL0     H39167  11.746   7.147   1.123  0.7710 -0.4585 -1.6357
  284MOL0     H39168  11.868   7.238   0.965  0.6110 -0.0968 -0.0100
  284MOL0     H39169  11.724   7.336   0.928 -0.8109 -0.4890 -0.7461
  284MOL0     H39170  11.677   7.170   0.724  0.9292  2.3607 -1.0779
  284MOL0     H39171  11.804   7.062   0.790  1.0983 -0.5014 -0.7017
  284MOL0     H39172  11.140   7.551   1.215 -0.8063 -0.0112 -0.4966
  284MOL0     H39173  10.981   7.685   1.054 -1.6047  0.3671 -0.1593
  284MOL0     H39174  10.739   7.909   0.840 -0.1655  1.9957 -0.5746
  284MOL0     H39175  10.597   8.004   0.687  0.3470  0.8437  0.5660
  284MOL0     H39176   8.680   7.893   0.040  0.6971 -0.6098 -0.1535
  284MOL0     H39177   8.426   7.899  -0.019  1.0620  0.9002  2.2512
  284MOL0     H39178   8.093   7.649  -0.221  0.1585 -0.2728 -0.0191
  284MOL0     H39179   7.853   7.691  -0.300 -0.1535  0.5382  0.3261
  284MOL0     H39180   7.594   7.905   0.002 -0.4116  2.3493  0.0393
  284MOL0     H39181   7.550   7.953  -0.166 -2.3262  0.1735  0.8274
  284MOL0     H39182   7.366   7.837  -0.036 -0.4928 -0.6122 -0.7504
  284MOL0     H39183   7.463   7.695  -0.040  1.6957  0.8447  1.7236
  284MOL0     H39184   7.369   7.863  -0.270  1.5202  0.2823  0.0180
  284MOL0     H39185   7.466   7.712  -0.299  1.3004 -0.3224  0.5322
  284MOL0     H39186   7.236   7.635  -0.336 -0.6094 -0.6368  0.3512
  284MOL0     H39187   7.175   7.716  -0.191 -1.3833 -0.9600 -1.6964
  284MOL0     H39188   7.288   7.358  -0.026  0.9773  0.5237  0.5588
  284MOL0     H39189   7.758   7.859   0.087 -1.2563 -4.4296  1.5631
  284MOL0     H39190   8.081   7.942   0.182 -0.3416  1.1633 -0.1091
  284MOL0     H39191   7.916   7.945   0.215  0.9405  0.8666 -0.3436
  284MOL0     H39192   7.994   7.804   0.275 -2.1949  0.0018  0.3679
  285MOL0     O39193   8.386   7.131   6.048 -0.5441 -0.4216  0.5077
  285MOL0     C39194   8.298   7.075   6.111 -0.3899  0.4901  0.0948
  285MOL0     O39195   8.297   6.946   6.141  0.8212 -0.2292 -0.0609
  285MOL0     C39196   8.414   6.877   6.126  0.0552 -0.0678  0.5865
  285MOL0     C39197   8.443   6.813   6.002  0.8340 -0.2262 -0.1471
  285MOL0     C39198   8.549   6.720   6.000 -0.5471 -0.2310  0.6161
  285MOL0     C39199   8.624   6.691   6.116  0.0833 -0.4031  0.2177
  285MOL0     O39200   8.733   6.608   6.131  0.2643  0.0381  1.0509
  285MOL0     C39201   8.800   6.574   6.016  0.2911  0.9464  0.7642
  285MOL0     C39202   8.944   6.535   6.050  0.1555 -0.4967  0.3678
  285MOL0     C39203   9.013   6.469   5.935 -0.1592  0.0206 -0.0542
  285MOL0     C39204   9.154   6.434   5.980 -0.4326  0.7063 -0.0329
  285MOL0     C39205   9.221   6.330   5.887 -0.2111 -0.2276  0.7925
  285MOL0     C39206   9.367   6.297   5.942 -0.0665  0.2280 -0.1110
  285MOL0     C39207   9.446   6.221   5.835  0.9444 -0.4998 -0.5072
  285MOL0     C39208   9.561   6.136   5.886  0.5548 -0.1003 -0.0707
  285MOL0     N39209   9.661   6.224   5.944 -0.3144 -0.3681 -0.5749
  285MOL0     C39210   9.674   6.250   6.082  0.8766 -0.0029 -0.5361
  285MOL0     C39211   9.785   6.327   6.102 -0.0764 -0.5734  0.1704
  285MOL0     C39212   9.851   6.382   6.225  0.4206 -0.4938 -0.2146
  285MOL0     C39213   9.961   6.288   6.290  0.4785 -0.4357  0.0864
  285MOL0     C39214  10.070   6.243   6.185  0.8306  0.2843 -0.1654
  285MOL0     C39215  10.199   6.189   6.251 -0.2461  0.0681  0.5003
  285MOL0     O39216  10.164   6.105   6.353  0.0602  0.7244  0.4490
  285MOL0     C39217  10.271   6.036   6.416  0.8569 -0.5030 -0.3225
  285MOL0     C39218  10.248   5.978   6.541  0.6956 -0.6207 -0.8263
  285MOL0     C39219  10.347   5.911   6.613 -0.5513 -0.2529  0.4648
  285MOL0     C39220  10.310   5.847   6.737 -0.0655 -0.3002 -0.1213
  285MOL0     C39221  10.479   5.911   6.556 -0.0012  0.8224 -0.2908
  285MOL0     C39222  10.594   5.852   6.622  0.1339 -0.2450  0.2693
  285MOL0     O39223  10.599   5.852   6.751 -0.5434 -0.5817 -0.0435
  285MOL0     C39224  10.715   5.875   6.823 -0.7686 -0.5229 -0.2648
  285MOL0     C39225  10.829   5.944   6.773 -0.4484 -0.6027 -0.2546
  285MOL0     C39226  10.942   5.966   6.854  0.5760  0.1527  0.2286
  285MOL0     C39227  10.952   5.921   6.986  0.3005  0.4073 -0.2965
  285MOL0     O39228  11.062   5.902   7.063 -0.7821 -0.2913  0.0457
  285MOL0     C39229  11.172   5.997   7.060  0.5151  0.7521 -0.4448
  285MOL0     C39230  11.133   6.138   7.100 -0.4137 -0.2725 -0.1949
  285MOL0     C39231  11.067   6.139   7.243  0.2302 -0.4435  0.3287
  285MOL0     C39232  11.016   6.285   7.288  0.2947 -0.1948 -0.0000
  285MOL0     C39233  10.977   6.282   7.430  0.1314 -0.7099 -0.2869
  285MOL0     C39234  10.921   6.416   7.473  0.4152 -0.0914  0.0252
  285MOL0     C39235  10.878   6.432   7.615 -0.0722 -0.1182  0.3557
  285MOL0     C39236  10.825   6.577   7.648  0.5314 -0.2076 -0.0334
  285MOL0    Cl39237  10.792   6.556   7.819 -0.2531 -0.3771  0.1668
  285MOL0     C39238  10.841   5.844   7.035  0.4457  0.2875  0.6133
  285MOL0     C39239  10.726   5.827   6.952  0.2842  0.3772 -0.1963
  285MOL0     O39240  10.690   5.817   6.553 -0.6060  0.5390 -0.0762
  285MOL0     C39241  10.496   5.970   6.428 -0.0131 -0.2785 -0.3529
  285MOL0     C39242  10.406   6.042   6.370  0.2991  0.3457 -0.2342
  285MOL0     N39243   9.835   6.352   5.973 -0.0207  0.0829  0.1268
  285MOL0     N39244   9.775   6.280   5.880 -0.2306  0.1622 -0.0679
  285MOL0     C39245   8.607   6.761   6.233 -0.4926 -0.3175 -0.3518
  285MOL0     C39246   8.500   6.856   6.244  0.8399  0.5706 -0.3610
  285MOL0     C39247   8.170   7.149   6.136  0.0877 -0.1186  0.2474
  285MOL0     C39248   8.094   7.190   6.022 -0.5515  0.4440  1.1994
  285MOL0     C39249   7.973   7.250   6.041 -0.5802  0.3116  0.0099
  285MOL0     C39250   7.927   7.267   6.177 -0.2228  0.3298  0.3913
  285MOL0     O39251   7.802   7.329   6.192 -0.7092  0.7619  0.3037
  285MOL0     C39252   7.814   7.469   6.238  0.4232  0.0679  1.0129
  285MOL0     C39253   7.784   7.559   6.128 -0.2168 -0.6766 -0.1434
  285MOL0     C39254   7.645   7.516   6.063 -0.4924 -0.0516  0.0393
  285MOL0     C39255   7.592   7.616   5.963 -0.0858  0.6516  0.6717
  285MOL0     C39256   7.634   7.575   5.827  0.6202  0.2539  0.0740
  285MOL0     C39257   7.645   7.527   5.719 -0.4078  0.9668  0.0267
  285MOL0     C39258   7.993   7.220   6.286  0.2600  0.4466  0.2632
  285MOL0     C39259   8.120   7.172   6.268 -0.8794  0.5516  1.3634
  285MOL0     C39260   8.191   7.118   6.390 -0.5600  0.2316  0.0438
  285MOL0     H39261   8.397   6.843   5.909  0.7610  0.3209  0.0608
  285MOL0     H39262   8.579   6.675   5.906  2.1460  0.0695  1.2608
  285MOL0     H39263   8.809   6.660   5.949  0.1662 -1.9099 -3.2842
  285MOL0     H39264   8.743   6.495   5.967 -1.1871  3.0922 -1.2222
  285MOL0     H39265   8.989   6.629   6.083 -1.7995  0.7170 -0.2541
  285MOL0     H39266   8.951   6.463   6.132  0.1814 -2.5908 -1.4117
  285MOL0     H39267   8.956   6.380   5.907  0.1413 -0.3705  0.5628
  285MOL0     H39268   9.016   6.531   5.845  4.1691 -0.7291 -0.6509
  285MOL0     H39269   9.214   6.523   5.996 -1.2403  0.9506  1.9655
  285MOL0     H39270   9.161   6.391   6.080 -1.2728 -1.6063 -0.8883
  285MOL0     H39271   9.216   6.373   5.786 -2.1407 -1.8084  0.1629
  285MOL0     H39272   9.157   6.242   5.891 -0.6791  0.0891  0.3797
  285MOL0     H39273   9.420   6.392   5.951 -2.4221  1.5099  0.9459
  285MOL0     H39274   9.360   6.243   6.037 -1.0165 -3.1023 -1.8789
  285MOL0     H39275   9.481   6.293   5.760  2.4677  3.2174  3.3143
  285MOL0     H39276   9.377   6.161   5.776  0.6720  1.2040 -2.0123
  285MOL0     H39277   9.516   6.064   5.955 -1.0612  0.7442 -0.1994
  285MOL0     H39278   9.607   6.084   5.801 -1.8661 -1.3191 -0.7538
  285MOL0     H39279   9.605   6.223   6.162  0.9544  2.2198  0.3777
  285MOL0     H39280   9.775   6.415   6.297 -0.4262 -0.9703 -0.8637
  285MOL0     H39281   9.899   6.478   6.204 -1.1076  0.3270 -0.0985
  285MOL0     H39282  10.008   6.351   6.367  0.8548 -2.6422  1.7675
  285MOL0     H39283   9.915   6.201   6.338 -0.5399 -0.2207 -0.4790
  285MOL0     H39284  10.023   6.175   6.113  0.6142  1.3505 -1.0657
  285MOL0     H39285  10.103   6.328   6.125  4.0673 -1.9019 -1.8359
  285MOL0     H39286  10.246   6.130   6.172 -0.2737 -1.8814  1.8556
  285MOL0     H39287  10.263   6.273   6.279  0.7791 -1.2944  2.4496
  285MOL0     H39288  10.151   5.982   6.589  1.8418 -0.3407  1.6673
  285MOL0     H39289  10.312   5.912   6.825  0.7007 -1.4887  0.7888
  285MOL0     H39290  10.371   5.762   6.769  0.3479  0.7277  1.9915
  285MOL0     H39291  10.205   5.816   6.726 -0.3033  0.7799 -0.9639
  285MOL0     H39292  10.816   5.986   6.673 -2.9642 -0.0294  0.2482
  285MOL0     H39293  11.030   6.016   6.813  0.6453 -1.8873 -2.4018
  285MOL0     H39294  11.260   5.947   7.102 -0.5353 -1.5083 -0.7419
  285MOL0     H39295  11.198   5.995   6.953 -0.1867 -0.4713 -0.6102
  285MOL0     H39296  11.220   6.203   7.115 -1.4294  0.6880  2.0103
  285MOL0     H39297  11.078   6.182   7.017 -1.1664  1.0764  0.9760
  285MOL0     H39298  11.132   6.096   7.319 -0.8069  1.0926  2.1513
  285MOL0     H39299  10.980   6.073   7.234  0.3181 -0.3843 -1.3152
  285MOL0     H39300  10.937   6.312   7.218  0.3791 -1.2587 -0.5302
  285MOL0     H39301  11.097   6.357   7.275  0.0409 -0.2434 -2.1372
  285MOL0     H39302  10.910   6.199   7.453  1.0232 -1.3781 -0.0606
  285MOL0     H39303  11.063   6.255   7.493 -0.6786 -1.0989  0.6770
  285MOL0     H39304  10.840   6.437   7.403 -0.1504  1.7594  1.1517
  285MOL0     H39305  10.993   6.493   7.442  0.6170 -0.0011  0.6945
  285MOL0     H39306  10.966   6.401   7.672 -0.1303  1.3189  1.2955
  285MOL0     H39307  10.790   6.372   7.637 -0.1932  0.2293  0.8355
  285MOL0     H39308  10.741   6.596   7.580  1.1898 -0.1511 -0.8510
  285MOL0     H39309  10.899   6.656   7.633  1.0753 -0.3666  1.6648
  285MOL0     H39310  10.849   5.797   7.133  1.3034  2.8033  1.8473
  285MOL0     H39311  10.644   5.764   6.986  0.4913 -2.4038 -4.0829
  285MOL0     H39312  10.593   5.982   6.380 -0.3093 -0.8375 -1.1233
  285MOL0     H39313  10.439   6.082   6.274 -0.4925 -0.8355 -1.0273
  285MOL0     H39314   8.670   6.751   6.321 -1.8330  1.5887  0.8914
  285MOL0     H39315   8.486   6.904   6.340  2.4522 -1.3974  0.9330
  285MOL0     H39316   8.135   7.169   5.924  0.3381  0.7604  1.4828
  285MOL0     H39317   7.906   7.293   5.966 -0.9576 -0.5735 -0.1735
  285MOL0     H39318   7.738   7.478   6.316 -0.0379 -1.9037  0.8604
  285MOL0     H39319   7.915   7.483   6.276  1.2377 -2.4188  0.0171
  285MOL0     H39320   7.860   7.557   6.049  0.0507  1.0905  0.0365
  285MOL0     H39321   7.778   7.661   6.167 -0.6897 -0.4749 -0.7274
  285MOL0     H39322   7.662   7.426   6.004 -1.5742  0.9640 -1.9332
  285MOL0     H39323   7.572   7.503   6.143  1.0753  1.6520  1.8452
  285MOL0     H39324   7.618   7.719   5.985 -0.5609  0.8959  0.1399
  285MOL0     H39325   7.482   7.614   5.963 -0.1471  2.6305  0.7183
  285MOL0     H39326   7.650   7.490   5.618 -0.2747 -1.7786  0.9566
  285MOL0     H39327   7.942   7.235   6.381 -0.0726 -1.2657  0.3857
  285MOL0     H39328   8.298   7.142   6.398 -0.6654  0.2838  1.8112
  285MOL0     H39329   8.135   7.172   6.467  1.0982  0.1443  1.3912
  285MOL0     H39330   8.173   7.012   6.410  1.2434  0.1245  1.3490
  286MOL0     O39331   2.569   5.505   2.376 -0.1453 -0.6395 -0.1515
  286MOL0     C39332   2.590   5.390   2.351  0.1950  0.0576 -0.3317
  286MOL0     O39333   2.667   5.340   2.250 -0.2534 -0.4091 -0.0403
  286MOL0     C39334   2.768   5.422   2.199 -0.3075  0.0622  0.9588
  286MOL0     C39335   2.900   5.426   2.243  0.3094  0.0034  0.0838
  286MOL0     C39336   3.005   5.498   2.188 -0.8593 -0.3104  0.5526
  286MOL0     C39337   2.969   5.574   2.077  0.4487 -0.7754  0.4521
  286MOL0     O39338   3.068   5.653   2.021 -1.0455  0.2988  0.1217
  286MOL0     C39339   3.042   5.707   1.890 -0.7269 -0.0264 -0.2272
  286MOL0     C39340   3.177   5.746   1.834  0.0752  0.7027  0.5594
  286MOL0     C39341   3.170   5.888   1.777  0.0954  0.2289 -0.0573
  286MOL0     C39342   3.282   5.903   1.673  0.0520 -0.7580  0.5397
  286MOL0     C39343   3.287   6.037   1.609  0.5786 -0.8236  1.4834
  286MOL0     C39344   3.380   6.040   1.489 -0.1379  0.7664 -0.6257
  286MOL0     C39345   3.326   5.994   1.354 -0.5040 -0.1917  0.8581
  286MOL0     C39346   3.225   6.091   1.281 -0.2686  0.3180 -0.5195
  286MOL0     N39347   3.232   6.050   1.140  0.3032  0.7858  0.3784
  286MOL0     C39348   3.278   6.114   1.028  0.1542 -0.3822 -0.3691
  286MOL0     C39349   3.231   6.057   0.923  0.4943  0.3358  0.1415
  286MOL0     C39350   3.289   6.070   0.786 -0.0107  0.4795  0.8349
  286MOL0     C39351   3.181   6.052   0.681  0.3306  0.1397  0.4403
  286MOL0     C39352   3.132   5.915   0.633 -0.2674  0.0569 -0.1962
  286MOL0     C39353   3.002   5.922   0.560  0.6488 -0.0949 -0.4459
  286MOL0     O39354   2.879   5.932   0.636  0.8001  0.8899  0.1190
  286MOL0     C39355   2.762   5.943   0.566 -1.1032 -0.0753  0.4753
  286MOL0     C39356   2.653   5.976   0.642 -0.2767 -0.9587 -0.2607
  286MOL0     C39357   2.520   5.974   0.600  0.6575  0.1632  0.3615
  286MOL0     C39358   2.424   6.014   0.699 -0.6286  0.0435  0.4044
  286MOL0     C39359   2.495   5.920   0.465 -0.4108 -0.4810  0.9176
  286MOL0     C39360   2.366   5.905   0.404 -0.7325  0.2799 -0.0028
  286MOL0     O39361   2.364   5.851   0.275 -0.2410  0.6875 -0.5291
  286MOL0     C39362   2.243   5.817   0.226  0.6209  0.6259 -0.4728
  286MOL0     C39363   2.184   5.688   0.237 -0.3568  0.5410  0.1922
  286MOL0     C39364   2.057   5.648   0.182 -0.1780  0.1631  0.1297
  286MOL0     C39365   1.997   5.739   0.090 -0.1660  1.2696 -0.2136
  286MOL0     O39366   1.886   5.711   0.024  1.5468  0.1072  0.5247
  286MOL0     C39367   1.812   5.587   0.061 -1.4990 -0.4919  0.4692
  286MOL0     C39368   1.670   5.611  -0.002  0.8281  0.0217  0.1890
  286MOL0     C39369   1.553   5.617   0.102 -0.4275  0.6689  0.8742
  286MOL0     C39370   1.419   5.606   0.029  0.7527  0.0713 -0.1372
  286MOL0     C39371   1.317   5.532   0.112 -0.1493  0.7103 -1.1662
  286MOL0     C39372   1.197   5.495   0.037  0.5112 -0.1913 -0.1442
  286MOL0     C39373   1.089   5.429   0.120 -0.0166 -0.4774 -0.0635
  286MOL0     C39374   0.959   5.414   0.035  0.2186  0.4517  0.6106
  286MOL0    Cl39375   0.806   5.413   0.133  0.2405 -0.0660  0.0790
  286MOL0     C39376   2.060   5.863   0.062  0.4574 -0.2947  0.2865
  286MOL0     C39377   2.180   5.895   0.133 -0.1622  0.4726 -0.8183
  286MOL0     O39378   2.264   5.912   0.472  0.0715  0.6582 -0.0260
  286MOL0     C39379   2.609   5.883   0.385 -0.8444 -0.2090 -0.8382
  286MOL0     C39380   2.742   5.897   0.437  0.5771  1.3221 -0.1794
  286MOL0     N39381   3.143   5.955   0.968  0.5727  0.0185 -0.3410
  286MOL0     N39382   3.137   5.964   1.091  0.5251  0.1587 -0.3405
  286MOL0     C39383   2.836   5.583   2.025 -0.2224  0.2360  0.0032
  286MOL0     C39384   2.736   5.499   2.087 -0.2829  0.1222  0.2387
  286MOL0     C39385   2.501   5.293   2.413 -0.7480  0.2549  0.1384
  286MOL0     C39386   2.452   5.180   2.343  0.6789 -0.4070 -0.4372
  286MOL0     C39387   2.352   5.096   2.394  0.0739  0.4552  0.2392
  286MOL0     C39388   2.299   5.120   2.521  0.4269  0.2483  0.1020
  286MOL0     O39389   2.195   5.043   2.570  0.0151  0.3629 -0.2066
  286MOL0     C39390   2.121   5.080   2.685  0.2154  0.5250 -0.4327
  286MOL0     C39391   2.036   4.963   2.721 -0.3559  0.1546 -0.6363
  286MOL0     C39392   2.122   4.842   2.755 -1.3339 -0.2151 -0.8823
  286MOL0     C39393   2.033   4.720   2.792 -0.3894 -0.0350 -0.1978
  286MOL0     C39394   2.015   4.635   2.675 -0.2985  0.0263 -0.2384
  286MOL0     C39395   2.003   4.557   2.583  0.4412  1.0241 -0.3753
  286MOL0     C39396   2.347   5.231   2.597 -0.7364  0.2991 -0.1509
  286MOL0     C39397   2.447   5.312   2.548 -1.0426 -0.9875  0.4073
  286MOL0     C39398   2.487   5.440   2.625  0.4069 -0.2564  0.2484
  286MOL0     H39399   2.924   5.360   2.326  1.8347 -1.2632 -1.2983
  286MOL0     H39400   3.111   5.498   2.214 -0.1584  1.5624 -1.9574
  286MOL0     H39401   2.974   5.790   1.911 -0.0034 -0.2641  4.0806
  286MOL0     H39402   2.999   5.648   1.809  0.2462 -0.3212 -0.5480
  286MOL0     H39403   3.255   5.748   1.911  2.2672  1.3457 -1.5221
  286MOL0     H39404   3.213   5.678   1.755 -1.1762  0.5177  0.1262
  286MOL0     H39405   3.074   5.899   1.726 -0.5683 -1.5116  0.7068
  286MOL0     H39406   3.177   5.963   1.857 -2.4692  0.9170 -0.3720
  286MOL0     H39407   3.374   5.864   1.719  1.3723 -1.3905 -2.4122
  286MOL0     H39408   3.245   5.834   1.597 -4.2401 -0.0349  1.7320
  286MOL0     H39409   3.309   6.120   1.677  1.0601 -0.6497  1.1293
  286MOL0     H39410   3.188   6.064   1.571  1.2727  0.2397  0.3188
  286MOL0     H39411   3.422   6.141   1.480  1.2620  0.0672 -3.1098
  286MOL0     H39412   3.466   5.976   1.509 -0.7820 -0.0348 -0.3636
  286MOL0     H39413   3.288   5.892   1.370 -1.0931 -0.0559  0.3524
  286MOL0     H39414   3.415   5.985   1.291 -0.5894  1.0563  0.5318
  286MOL0     H39415   3.127   6.087   1.328  0.2997  0.5715  0.7344
  286MOL0     H39416   3.268   6.191   1.297  1.0497 -0.2527 -0.3527
  286MOL0     H39417   3.356   6.189   1.034  0.7575 -1.0739  0.6034
  286MOL0     H39418   3.363   5.991   0.773  0.3919  0.9183  0.3927
  286MOL0     H39419   3.333   6.170   0.775 -4.0593  2.2252 -2.5242
  286MOL0     H39420   3.095   6.109   0.719 -0.6164  0.6713 -2.2871
  286MOL0     H39421   3.226   6.102   0.594  2.7935 -1.4701  0.6775
  286MOL0     H39422   3.206   5.876   0.563 -0.8620  0.8487 -1.2820
  286MOL0     H39423   3.115   5.839   0.710  1.6316 -1.3554 -1.0820
  286MOL0     H39424   2.998   5.994   0.478  0.5352 -0.9436 -1.2037
  286MOL0     H39425   2.986   5.826   0.508 -3.8712 -0.2807  0.7810
  286MOL0     H39426   2.676   6.014   0.741  2.1132 -1.5006 -0.5413
  286MOL0     H39427   2.464   6.062   0.789 -3.2915  1.5123  0.9225
  286MOL0     H39428   2.370   5.928   0.740  0.1702  0.3418  2.1699
  286MOL0     H39429   2.344   6.070   0.649 -0.2007 -1.1530 -1.7160
  286MOL0     H39430   2.222   5.612   0.305 -0.5311 -1.6599 -2.0151
  286MOL0     H39431   2.014   5.561   0.230 -0.2927  0.2115  0.1166
  286MOL0     H39432   1.851   5.495   0.018  0.7546  0.6300 -0.1003
  286MOL0     H39433   1.809   5.577   0.170  2.6321  0.2282  0.8333
  286MOL0     H39434   1.663   5.705  -0.058  1.8029  1.8457  2.8953
  286MOL0     H39435   1.652   5.524  -0.065 -2.9942  0.5321  0.3400
  286MOL0     H39436   1.567   5.711   0.154  3.9698  1.5596 -1.3898
  286MOL0     H39437   1.570   5.543   0.180  0.8953  0.4801  0.4296
  286MOL0     H39438   1.441   5.555  -0.066  2.2241  0.3222  0.0407
  286MOL0     H39439   1.384   5.709   0.012  1.7337  0.4013 -0.2294
  286MOL0     H39440   1.367   5.448   0.161 -1.3762  0.7444  0.1951
  286MOL0     H39441   1.283   5.588   0.200 -0.3718 -0.7487 -0.2991
  286MOL0     H39442   1.215   5.446  -0.059 -0.8792 -0.0387 -0.5073
  286MOL0     H39443   1.158   5.593   0.010  0.3132 -0.7423 -2.0526
  286MOL0     H39444   1.078   5.495   0.207  1.4604 -0.2427 -0.0265
  286MOL0     H39445   1.120   5.328   0.151  0.9628  0.3861  1.9557
  286MOL0     H39446   0.960   5.328  -0.032 -0.7534 -0.8524  2.2038
  286MOL0     H39447   0.954   5.499  -0.034 -0.0337  0.4140  0.5836
  286MOL0     H39448   2.013   5.931  -0.008  0.4138  0.6523  1.2154
  286MOL0     H39449   2.223   5.992   0.109 -0.7570  0.9686  0.0744
  286MOL0     H39450   2.589   5.847   0.284 -3.5093 -1.3377 -0.0089
  286MOL0     H39451   2.822   5.852   0.378  0.5545 -0.8879  1.3722
  286MOL0     H39452   2.807   5.644   1.941  1.1721  0.0563 -0.6317
  286MOL0     H39453   2.638   5.481   2.045  0.7833 -2.8595 -1.2436
  286MOL0     H39454   2.496   5.162   2.246 -1.9329  0.9157 -1.9647
  286MOL0     H39455   2.310   5.013   2.338 -1.7409  1.8667 -0.5831
  286MOL0     H39456   2.191   5.102   2.766 -0.4392 -0.0829  0.3114
  286MOL0     H39457   2.058   5.167   2.671 -0.6506  0.3012  1.6948
  286MOL0     H39458   1.977   4.940   2.632  0.4149 -2.5747 -0.5283
  286MOL0     H39459   1.970   5.005   2.799  0.7957  3.0923 -1.1078
  286MOL0     H39460   2.194   4.808   2.679 -1.5113 -0.6363 -0.8663
  286MOL0     H39461   2.192   4.866   2.835  0.5426  0.3473 -2.5942
  286MOL0     H39462   1.936   4.745   2.836 -0.1472  3.3172 -1.2723
  286MOL0     H39463   2.088   4.661   2.866  1.1341  0.0548 -1.2075
  286MOL0     H39464   1.984   4.491   2.500 -1.9971 -2.2128  2.4145
  286MOL0     H39465   2.311   5.254   2.696 -3.0586 -0.3079 -0.7888
  286MOL0     H39466   2.421   5.524   2.601 -0.6491 -1.6974 -2.3388
  286MOL0     H39467   2.489   5.419   2.732  2.5973 -2.9441 -0.2100
  286MOL0     H39468   2.590   5.474   2.613  0.3276  0.1962  0.8390
  287MOL0     O39469   4.058   9.682   4.741  1.4673 -0.3194  0.1910
  287MOL0     C39470   4.034   9.769   4.663 -0.6046  0.3259  0.2515
  287MOL0     O39471   4.128   9.831   4.578  0.2546 -0.0180 -0.5484
  287MOL0     C39472   4.263   9.794   4.576 -0.3204 -0.5819 -0.0588
  287MOL0     C39473   4.340   9.868   4.489 -0.3030 -0.2733  0.0207
  287MOL0     C39474   4.478   9.836   4.471  0.4705  0.4903 -0.9314
  287MOL0     C39475   4.542   9.740   4.547 -0.3365 -0.2636 -0.3052
  287MOL0     O39476   4.671   9.717   4.518  0.8259 -1.0180  0.1568
  287MOL0     C39477   4.742   9.622   4.605 -0.0406 -0.3435 -0.1396
  287MOL0     C39478   4.897   9.622   4.567 -0.1364 -0.3045  0.2198
  287MOL0     C39479   4.973   9.502   4.629 -0.5157 -0.4804  0.4097
  287MOL0     C39480   5.059   9.436   4.525 -0.0707 -0.3427  0.0284
  287MOL0     C39481   5.158   9.331   4.588  1.5013 -0.7665  0.3104
  287MOL0     C39482   5.254   9.269   4.490 -0.1615  0.5185 -0.2729
  287MOL0     C39483   5.361   9.198   4.569  0.2400 -0.3016  0.3313
  287MOL0     C39484   5.470   9.124   4.485 -0.4220  0.4481  0.7464
  287MOL0     N39485   5.600   9.118   4.557  0.4135 -0.2304 -1.1134
  287MOL0     C39486   5.623   9.064   4.680 -0.5577  0.2116  0.5255
  287MOL0     C39487   5.763   9.078   4.694 -0.4347  0.3726  0.4841
  287MOL0     C39488   5.840   9.025   4.809 -0.1805  0.1633  0.2989
  287MOL0     C39489   5.972   9.099   4.836 -0.3006  0.1066 -0.3399
  287MOL0     C39490   6.048   9.029   4.945  0.0018  0.1047  0.1808
  287MOL0     C39491   6.191   9.099   4.967  0.1294  0.1789  0.5148
  287MOL0     O39492   6.281   9.048   4.863 -0.0600  0.3709 -0.0413
  287MOL0     C39493   6.415   9.042   4.889 -0.2732 -0.1831  0.8721
  287MOL0     C39494   6.482   8.981   4.784  0.1692 -0.2098  0.2297
  287MOL0     C39495   6.625   8.972   4.780 -0.7915 -0.6805 -0.3855
  287MOL0     C39496   6.683   8.902   4.658  0.3755 -0.0467 -0.3744
  287MOL0     C39497   6.700   9.014   4.897  0.5275 -1.0901  0.3404
  287MOL0     C39498   6.844   8.993   4.909  0.4684 -0.2036 -0.5026
  287MOL0     O39499   6.887   8.992   5.037 -0.1139 -0.2998 -0.0953
  287MOL0     C39500   7.022   9.027   5.052  0.2562 -0.0898  0.2922
  287MOL0     C39501   7.103   8.937   5.119 -0.2149 -0.3071  0.1527
  287MOL0     C39502   7.245   8.962   5.108 -0.6509  0.0732 -0.3045
  287MOL0     C39503   7.304   9.071   5.041 -0.0165 -0.0094 -0.6324
  287MOL0     O39504   7.443   9.078   5.032  0.1679 -0.3345 -0.3683
  287MOL0     C39505   7.512   9.195   4.994  0.4031 -0.5858 -0.3615
  287MOL0     C39506   7.651   9.172   4.956 -0.4461 -0.1795 -0.4215
  287MOL0     C39507   7.743   9.181   5.075 -0.3493 -0.7187  0.4231
  287MOL0     C39508   7.882   9.130   5.035 -0.0966 -0.5340  0.2257
  287MOL0     C39509   7.977   9.141   5.157 -0.3150 -0.1576 -0.6918
  287MOL0     C39510   8.121   9.087   5.127 -0.9406 -0.1099  0.5801
  287MOL0     C39511   8.225   9.108   5.243  0.4718 -0.1743 -0.0507
  287MOL0     C39512   8.359   9.071   5.186  0.1080 -0.6823  0.7554
  287MOL0    Cl39513   8.483   9.046   5.303  0.2349 -0.1042 -0.3626
  287MOL0     C39514   7.218   9.168   4.987  0.9761 -0.4240 -0.2336
  287MOL0     C39515   7.075   9.148   4.992 -0.5733 -0.0155  1.0897
  287MOL0     O39516   6.914   8.978   4.809  0.2861 -0.6229  0.4975
  287MOL0     C39517   6.635   9.085   4.993 -0.3043  0.2056 -0.6399
  287MOL0     C39518   6.494   9.101   4.985 -0.1309  0.0801 -0.7936
  287MOL0     N39519   5.809   9.154   4.592  0.6982  0.7519  0.4942
  287MOL0     N39520   5.715   9.168   4.503 -0.7290  0.0950  0.5243
  287MOL0     C39521   4.458   9.661   4.628 -0.5242  0.0320  0.1660
  287MOL0     C39522   4.325   9.686   4.643 -0.2070 -0.2536  0.4845
  287MOL0     C39523   3.898   9.814   4.649  0.4078 -0.0818 -0.7719
  287MOL0     C39524   3.808   9.709   4.662  0.2283  0.1412 -0.4130
  287MOL0     C39525   3.673   9.732   4.629 -0.0201 -1.3679 -0.3937
  287MOL0     C39526   3.635   9.855   4.581  0.5385  0.4307  0.1724
  287MOL0     O39527   3.501   9.873   4.557  0.6852  0.5061 -0.0929
  287MOL0     C39528   3.446  10.006   4.539  0.8530  0.0181 -0.7441
  287MOL0     C39529   3.411  10.060   4.679 -0.6583  0.4873 -0.9186
  287MOL0     C39530   3.341  10.202   4.659  0.5078 -0.3331  0.2809
  287MOL0     C39531   3.305  10.266   4.790 -0.0582 -1.4557  0.2952
  287MOL0     C39532   3.206  10.193   4.864  0.8067  0.2791 -0.1092
  287MOL0     C39533   3.114  10.130   4.917 -0.2507  0.4017  0.1943
  287MOL0     C39534   3.723   9.961   4.568  0.0786 -1.0837  0.5916
  287MOL0     C39535   3.856   9.944   4.615  0.2771  0.0012 -1.1909
  287MOL0     C39536   3.954  10.066   4.610  0.3863 -0.3593  0.4094
  287MOL0     H39537   4.294   9.955   4.443  3.3001  0.2242 -3.1120
  287MOL0     H39538   4.533   9.897   4.400  0.4736 -0.6977 -2.0032
  287MOL0     H39539   4.721   9.516   4.585  0.7700 -0.2189 -1.7768
  287MOL0     H39540   4.726   9.651   4.709 -2.3159  1.5531 -0.9321
  287MOL0     H39541   4.901   9.621   4.458  0.8522 -1.4413  0.2492
  287MOL0     H39542   4.952   9.715   4.589  0.0033 -0.4099  0.3168
  287MOL0     H39543   5.035   9.537   4.712  1.5340  1.6696 -1.8527
  287MOL0     H39544   4.904   9.434   4.678 -0.8977 -0.1782  0.3014
  287MOL0     H39545   4.994   9.384   4.455 -1.1242 -1.0893  1.4958
  287MOL0     H39546   5.123   9.513   4.482 -0.4812  0.3264  0.6072
  287MOL0     H39547   5.104   9.255   4.646 -2.2268  1.6223  0.3423
  287MOL0     H39548   5.213   9.392   4.660  0.9560  0.8523 -0.5980
  287MOL0     H39549   5.191   9.201   4.431 -2.2838  2.0027  0.1604
  287MOL0     H39550   5.288   9.347   4.421  0.4503  1.2736  0.8562
  287MOL0     H39551   5.310   9.123   4.630  0.8843 -1.9830 -1.0997
  287MOL0     H39552   5.404   9.271   4.638  2.4632 -1.8342  0.6884
  287MOL0     H39553   5.447   9.022   4.453 -2.7678  1.1778 -0.1400
  287MOL0     H39554   5.491   9.187   4.398  0.1567  0.1751  0.6867
  287MOL0     H39555   5.553   9.008   4.742  0.1020  2.2100  3.2635
  287MOL0     H39556   5.864   8.920   4.790 -0.1179  0.3871 -1.0222
  287MOL0     H39557   5.773   9.026   4.895  0.4549 -1.9708  0.8697
  287MOL0     H39558   6.036   9.097   4.748 -2.2626 -1.1754 -1.8471
  287MOL0     H39559   5.955   9.206   4.854  1.1905  0.4115 -0.6900
  287MOL0     H39560   5.998   9.033   5.042  0.6699 -0.0567  0.5362
  287MOL0     H39561   6.059   8.922   4.928 -1.0609 -0.3936  2.2646
  287MOL0     H39562   6.183   9.208   4.970 -1.2998  0.0844  0.6013
  287MOL0     H39563   6.223   9.071   5.068  0.7037  2.0189  0.8847
  287MOL0     H39564   6.433   8.935   4.699 -1.1057  0.1942  0.7241
  287MOL0     H39565   6.721   8.804   4.688 -0.7397  0.0412  1.4700
  287MOL0     H39566   6.757   8.964   4.606  2.0749 -1.5860  0.1096
  287MOL0     H39567   6.601   8.880   4.589  0.7853  0.1082 -0.9183
  287MOL0     H39568   7.061   8.850   5.168 -2.5564 -0.5900 -2.1839
  287MOL0     H39569   7.308   8.893   5.163  0.5755  0.2592 -1.4057
  287MOL0     H39570   7.469   9.230   4.900 -0.6931  0.2532  0.4290
  287MOL0     H39571   7.511   9.275   5.069  1.3035 -1.9090  1.1272
  287MOL0     H39572   7.659   9.079   4.899  0.6281 -0.7203  0.5776
  287MOL0     H39573   7.673   9.261   4.897 -1.8495  1.0659  0.8477
  287MOL0     H39574   7.705   9.125   5.160 -0.9780  1.1522  1.4344
  287MOL0     H39575   7.754   9.282   5.115  1.9772 -0.2002 -1.2705
  287MOL0     H39576   7.921   9.191   4.953 -1.4695 -2.0258 -1.6280
  287MOL0     H39577   7.881   9.028   4.996  1.5815 -1.1490  1.6179
  287MOL0     H39578   7.999   9.246   5.177  0.1824 -0.2920 -0.5245
  287MOL0     H39579   7.921   9.094   5.239 -0.8596  1.8361  0.1337
  287MOL0     H39580   8.156   9.137   5.037 -1.8548 -0.2033  0.1628
  287MOL0     H39581   8.127   8.979   5.111  1.1966  0.0011  0.3771
  287MOL0     H39582   8.200   9.032   5.317 -1.4008 -0.5539 -0.9990
  287MOL0     H39583   8.235   9.211   5.278  2.0213  1.3796 -4.3185
  287MOL0     H39584   8.386   9.162   5.132 -1.4675 -1.1445 -0.8912
  287MOL0     H39585   8.348   8.993   5.110  1.2452 -0.2569  0.1370
  287MOL0     H39586   7.260   9.264   4.958  2.0328 -0.2725  1.6258
  287MOL0     H39587   7.011   9.219   4.941  0.5236 -1.2843 -2.3940
  287MOL0     H39588   6.686   9.133   5.076 -0.8110  1.3180 -0.9548
  287MOL0     H39589   6.452   9.162   5.065  2.4253 -0.7216  1.3082
  287MOL0     H39590   4.490   9.571   4.679 -0.2516  0.8475  1.4880
  287MOL0     H39591   4.272   9.618   4.708  0.5780 -1.4459 -0.0948
  287MOL0     H39592   3.835   9.606   4.683 -2.2595 -0.2084  1.7086
  287MOL0     H39593   3.595   9.659   4.648 -1.3336 -1.2537 -4.3360
  287MOL0     H39594   3.514  10.075   4.487  0.4798  0.7335 -0.2931
  287MOL0     H39595   3.354  10.008   4.481  0.6727 -0.8773 -0.5032
  287MOL0     H39596   3.494  10.067   4.750 -2.8598 -0.1032  1.8941
  287MOL0     H39597   3.332   9.997   4.719  0.2444 -0.9694 -1.3704
  287MOL0     H39598   3.407  10.265   4.599 -0.2865 -1.3302 -1.7313
  287MOL0     H39599   3.257  10.190   4.590  1.0745  1.3530 -0.7573
  287MOL0     H39600   3.259  10.360   4.756  0.7637 -1.8800 -2.1790
  287MOL0     H39601   3.396  10.294   4.843 -0.2749  1.9098 -0.8646
  287MOL0     H39602   3.027  10.086   4.962  1.3225 -1.0936  1.9047
  287MOL0     H39603   3.711  10.060   4.523  0.2006 -1.6764 -0.7822
  287MOL0     H39604   3.992  10.092   4.510  0.6926 -0.0335  0.6059
  287MOL0     H39605   3.908  10.159   4.644  1.2685  1.6344 -3.2679
  287MOL0     H39606   4.040  10.039   4.672  0.9215 -2.0063 -0.9574
  288MOL0     O39607   0.731   0.436   0.728 -0.1047  0.3217  0.0496
  288MOL0     C39608   0.685   0.334   0.774  0.4496  1.0275 -0.3791
  288MOL0     O39609   0.753   0.216   0.780 -1.0754 -0.3370 -0.2380
  288MOL0     C39610   0.884   0.207   0.732  0.3239 -0.2962  0.5016
  288MOL0     C39611   0.988   0.303   0.744  0.1834  0.2799 -0.3518
  288MOL0     C39612   1.123   0.286   0.706 -0.1617  0.6279  0.1235
  288MOL0     C39613   1.159   0.159   0.650 -0.2655 -0.1322 -0.5885
  288MOL0     O39614   1.294   0.130   0.605 -0.0863  0.1018 -1.0075
  288MOL0     C39615   1.379   0.243   0.591 -0.5806  0.4111 -0.8163
  288MOL0     C39616   1.498   0.191   0.514  0.3157  0.2980 -0.1092
  288MOL0     C39617   1.619   0.283   0.530 -0.3299  0.3293 -0.0639
  288MOL0     C39618   1.745   0.226   0.455  0.4317 -0.0529  0.3219
  288MOL0     C39619   1.875   0.273   0.512  0.9527  0.3983  0.1521
  288MOL0     C39620   1.987   0.206   0.434 -0.2556 -1.0977  0.7287
  288MOL0     C39621   2.129   0.252   0.477 -0.4309 -0.8516 -0.4558
  288MOL0     C39622   2.228   0.208   0.362  0.8722  0.1657 -0.3916
  288MOL0     N39623   2.359   0.250   0.402 -0.3475 -0.0008  0.1446
  288MOL0     C39624   2.389   0.364   0.462 -0.0861 -0.0401  0.5278
  288MOL0     C39625   2.523   0.359   0.484  0.2008 -0.3529 -0.1915
  288MOL0     C39626   2.611   0.474   0.555 -0.5296  0.1671 -0.3621
  288MOL0     C39627   2.768   0.458   0.533  0.4855 -0.0175  0.1046
  288MOL0     C39628   2.830   0.344   0.611  0.7589  0.3112 -0.7716
  288MOL0     C39629   2.983   0.342   0.601 -0.1136  0.1498 -0.2537
  288MOL0     O39630   3.040   0.463   0.639  0.2260 -0.8919 -0.2295
  288MOL0     C39631   3.144   0.515   0.561  0.3858  0.3263  0.5733
  288MOL0     C39632   3.121   0.614   0.466  0.3086  0.1217  0.0785
  288MOL0     C39633   3.218   0.673   0.383 -0.9851 -0.0867  0.0623
  288MOL0     C39634   3.184   0.797   0.293  0.7250 -0.3032 -0.2958
  288MOL0     C39635   3.352   0.627   0.392 -0.2968  0.1002 -0.1304
  288MOL0     C39636   3.468   0.674   0.320  0.7756  0.0115  0.6220
  288MOL0     O39637   3.575   0.601   0.338 -0.1829 -0.2397 -0.3454
  288MOL0     C39638   3.697   0.634   0.287 -0.0693  0.8867 -0.3892
  288MOL0     C39639   3.780   0.531   0.251 -0.2893 -0.1334  0.6724
  288MOL0     C39640   3.895   0.549   0.179  0.1486 -0.0022  0.2082
  288MOL0     C39641   3.929   0.683   0.142 -0.1235 -0.1997 -0.4599
  288MOL0     O39642   4.052   0.702   0.090  0.6562  0.7753  0.2672
  288MOL0     C39643   4.058   0.646  -0.041  0.3933 -0.2742  0.1473
  288MOL0     C39644   4.210   0.665  -0.084 -0.2815  0.4385  0.0675
  288MOL0     C39645   4.263   0.813  -0.091 -0.7356 -0.7174 -0.2160
  288MOL0     C39646   4.415   0.835  -0.100 -0.0232 -0.4659 -0.4762
  288MOL0     C39647   4.453   0.984  -0.116  0.2086 -0.3011  0.1121
  288MOL0     C39648   4.575   0.998  -0.200 -0.6876  0.1350  0.9980
  288MOL0     C39649   4.639   1.141  -0.196 -0.5659  0.1175 -0.4623
  288MOL0     C39650   4.796   1.142  -0.243  0.3164  0.1629 -0.4217
  288MOL0    Cl39651   4.815   1.137  -0.414  0.2448  0.0957  0.4334
  288MOL0     C39652   3.850   0.792   0.185 -0.4123 -0.1103 -0.2556
  288MOL0     C39653   3.738   0.763   0.264  0.1548 -0.2067 -0.2479
  288MOL0     O39654   3.460   0.775   0.250  0.0006 -0.1961  0.1175
  288MOL0     C39655   3.377   0.525   0.491 -0.1470  0.3645 -0.7211
  288MOL0     C39656   3.273   0.465   0.564  0.4497 -0.0147  0.0753
  288MOL0     N39657   2.571   0.237   0.436  0.0391 -0.8657 -0.0194
  288MOL0     N39658   2.471   0.177   0.383  0.7183  0.5860 -0.5465
  288MOL0     C39659   1.061   0.057   0.643  0.2861 -0.1346  0.5959
  288MOL0     C39660   0.928   0.084   0.676 -0.1087 -0.2443 -0.0646
  288MOL0     C39661   0.542   0.331   0.829 -0.0272 -0.7074  0.5621
  288MOL0     C39662   0.487   0.219   0.880 -0.0005  0.1552  0.4405
  288MOL0     C39663   0.366   0.206   0.943  0.2487  0.3622 -0.6072
  288MOL0     C39664   0.283   0.318   0.939 -0.0688 -0.2518 -0.2520
  288MOL0     O39665   0.166   0.305   1.012 -0.6475  0.8656  0.7475
  288MOL0     C39666   0.041   0.349   0.966  0.8531  0.5618 -0.5603
  288MOL0     C39667  -0.080   0.264   1.010 -0.0171  0.0485  0.4916
  288MOL0     C39668  -0.214   0.334   0.973 -0.2696  0.0516 -0.1689
  288MOL0     C39669  -0.324   0.301   1.070 -0.3749 -0.1195 -0.4682
  288MOL0     C39670  -0.452   0.351   1.020  0.7829  0.3092  0.6257
  288MOL0     C39671  -0.563   0.385   0.985 -0.8208  0.2235 -0.6527
  288MOL0     C39672   0.336   0.445   0.898  0.5686 -0.0380 -0.3032
  288MOL0     C39673   0.468   0.453   0.843 -0.5646 -0.3335 -0.3859
  288MOL0     C39674   0.513   0.587   0.793 -0.6578 -0.2807  0.2902
  288MOL0     H39675   0.969   0.405   0.777  0.8014  0.5797 -0.9004
  288MOL0     H39676   1.191   0.366   0.735 -0.4539  0.6086  0.8947
  288MOL0     H39677   1.403   0.277   0.692 -0.2269  0.1132 -0.7992
  288MOL0     H39678   1.347   0.331   0.534  1.6601  2.0263  0.2646
  288MOL0     H39679   1.511   0.091   0.556  1.5359  1.4313  2.4907
  288MOL0     H39680   1.481   0.181   0.407  3.1678  0.2721 -0.6122
  288MOL0     H39681   1.588   0.386   0.512  0.1033  1.6087  5.1631
  288MOL0     H39682   1.637   0.267   0.636  0.3842  0.0145 -0.2230
  288MOL0     H39683   1.752   0.117   0.457  3.1779 -0.0606 -2.0517
  288MOL0     H39684   1.742   0.246   0.348  0.2220  1.9247  0.6500
  288MOL0     H39685   1.873   0.250   0.619  1.6043  0.2250  0.1295
  288MOL0     H39686   1.873   0.382   0.505 -1.8273  0.3204 -1.8363
  288MOL0     H39687   1.983   0.097   0.427  1.7693 -1.2318  0.8398
  288MOL0     H39688   1.975   0.250   0.334  1.3104 -1.0248  0.5419
  288MOL0     H39689   2.158   0.205   0.571  1.3583  1.0889  0.0277
  288MOL0     H39690   2.123   0.360   0.490  1.8613 -0.8694  1.3276
  288MOL0     H39691   2.223   0.099   0.353  1.5418  0.2816 -2.7015
  288MOL0     H39692   2.205   0.245   0.262 -0.2618 -3.6567 -1.7126
  288MOL0     H39693   2.328   0.449   0.492 -3.0108 -1.0175 -2.1391
  288MOL0     H39694   2.605   0.470   0.664  1.0768 -1.9938 -0.2836
  288MOL0     H39695   2.586   0.573   0.517  0.1855 -0.4333 -2.5771
  288MOL0     H39696   2.791   0.436   0.429 -0.0750  1.8835 -0.4532
  288MOL0     H39697   2.816   0.550   0.569  0.8301 -0.8996  2.0159
  288MOL0     H39698   2.803   0.352   0.717  0.2906  2.8099 -1.0153
  288MOL0     H39699   2.783   0.251   0.579 -0.1690  1.8038 -4.2843
  288MOL0     H39700   3.018   0.265   0.670 -1.3028 -0.1567  0.0381
  288MOL0     H39701   3.009   0.315   0.499  0.0547 -1.0802  0.0985
  288MOL0     H39702   3.023   0.659   0.460  0.4748  0.3831 -0.7491
  288MOL0     H39703   3.199   0.765   0.190 -1.0650 -1.0790 -0.3495
  288MOL0     H39704   3.235   0.890   0.318 -1.3399  0.5201  1.2113
  288MOL0     H39705   3.079   0.825   0.308  0.8773  1.1554 -1.6540
  288MOL0     H39706   3.756   0.429   0.280  1.0548 -1.0658 -1.2376
  288MOL0     H39707   3.963   0.468   0.156  0.5807  0.3136  0.3827
  288MOL0     H39708   4.037   0.540  -0.049 -1.3027 -0.0320  1.0127
  288MOL0     H39709   3.991   0.696  -0.112 -0.5207  1.3312  2.0564
  288MOL0     H39710   4.278   0.623  -0.009  2.0791  0.4393 -1.9348
  288MOL0     H39711   4.223   0.604  -0.174  0.2041  0.6425 -0.0010
  288MOL0     H39712   4.229   0.877  -0.009 -2.2546 -0.0033 -1.3447
  288MOL0     H39713   4.228   0.853  -0.187 -0.1240 -0.6474 -0.4156
  288MOL0     H39714   4.453   0.777  -0.185  3.7328 -0.8702  1.2665
  288MOL0     H39715   4.474   0.803  -0.013  2.2023  0.4885 -1.5445
  288MOL0     H39716   4.372   1.046  -0.154  2.0099  2.8954  1.1208
  288MOL0     H39717   4.470   1.031  -0.019 -0.6793 -0.6060  0.4276
  288MOL0     H39718   4.549   0.976  -0.304 -0.6963  1.6034  0.6649
  288MOL0     H39719   4.653   0.930  -0.164  1.9247  1.2542 -2.0409
  288MOL0     H39720   4.632   1.189  -0.098  0.8284 -1.9332  0.6998
  288MOL0     H39721   4.581   1.202  -0.266 -0.7024  0.1718 -0.3015
  288MOL0     H39722   4.847   1.050  -0.213  1.8905  1.2041  0.2322
  288MOL0     H39723   4.843   1.226  -0.191 -1.0292 -0.4518  1.9097
  288MOL0     H39724   3.891   0.890   0.160 -0.3538 -0.3905 -1.2852
  288MOL0     H39725   3.677   0.842   0.305  1.4556  1.9745 -2.2317
  288MOL0     H39726   3.470   0.477   0.521 -1.2771 -2.2307 -1.1213
  288MOL0     H39727   3.290   0.378   0.626 -0.3833  0.4958  1.0456
  288MOL0     H39728   1.108  -0.034   0.605  3.7892  0.4709  2.9846
  288MOL0     H39729   0.856   0.003   0.670  0.5980 -1.1524  2.3035
  288MOL0     H39730   0.544   0.127   0.873 -0.0812 -0.1219  2.6360
  288MOL0     H39731   0.325   0.114   0.983 -4.0845  3.1153  2.0807
  288MOL0     H39732   0.016   0.445   1.012 -1.8108  0.6808 -2.0257
  288MOL0     H39733   0.047   0.357   0.857  1.3154  1.1889 -0.4931
  288MOL0     H39734  -0.069   0.258   1.119  0.8371  3.9209  0.7753
  288MOL0     H39735  -0.076   0.164   0.967 -2.8806  0.4596 -0.9491
  288MOL0     H39736  -0.215   0.442   0.956  1.0400 -0.1074 -1.4175
  288MOL0     H39737  -0.236   0.290   0.875 -1.1166 -1.1253  0.5185
  288MOL0     H39738  -0.329   0.343   1.171 -1.6036  1.4636 -1.1376
  288MOL0     H39739  -0.333   0.193   1.079 -0.8650 -0.1797 -1.5306
  288MOL0     H39740  -0.667   0.408   0.974 -0.9146 -0.8444 -2.4004
  288MOL0     H39741   0.275   0.534   0.914 -1.7646 -1.8471  1.9229
  288MOL0     H39742   0.520   0.580   0.684  0.8824 -0.5882  0.3904
  288MOL0     H39743   0.443   0.669   0.811 -1.2291  0.1603 -3.1483
  288MOL0     H39744   0.606   0.615   0.844  0.5034 -4.4967  0.8484
  289MOL0     O39745   0.687   1.650   8.190  0.3205 -0.1802  0.0708
  289MOL0     C39746   0.697   1.563   8.107  0.0442  0.2512  0.1311
  289MOL0     O39747   0.814   1.529   8.043  0.1921 -0.4078  0.2088
  289MOL0     C39748   0.927   1.606   8.066 -0.1582  0.0543 -0.6679
  289MOL0     C39749   1.012   1.572   8.172 -0.0369 -0.4292 -0.5771
  289MOL0     C39750   1.130   1.640   8.195  0.2894 -0.3994 -0.0934
  289MOL0     C39751   1.174   1.737   8.107 -0.3578  0.2362  0.3195
  289MOL0     O39752   1.287   1.817   8.126 -0.3330  0.1847 -0.0286
  289MOL0     C39753   1.389   1.755   8.204  0.5816  0.0090 -0.8334
  289MOL0     C39754   1.508   1.833   8.192  0.1432  0.6480  0.7205
  289MOL0     C39755   1.629   1.783   8.272  0.5423  0.0902 -0.5294
  289MOL0     C39756   1.683   1.657   8.203 -1.0761 -0.3774  0.0470
  289MOL0     C39757   1.824   1.669   8.154 -0.2426 -0.8410  0.0184
  289MOL0     C39758   1.829   1.694   8.001 -0.2102  0.1154  0.4130
  289MOL0     C39759   1.974   1.703   7.967  0.3056  0.1933 -0.7735
  289MOL0     C39760   1.993   1.737   7.816 -0.3739 -0.1672  0.0772
  289MOL0     N39761   2.133   1.730   7.778 -0.6918 -0.9325  0.1391
  289MOL0     C39762   2.225   1.829   7.804 -0.3976  0.3866 -0.4049
  289MOL0     C39763   2.349   1.781   7.769  0.1439  0.3271  0.3032
  289MOL0     C39764   2.469   1.868   7.774 -0.2426  0.2922  0.1188
  289MOL0     C39765   2.576   1.819   7.888  0.1501  0.1545  0.9341
  289MOL0     C39766   2.628   1.677   7.851 -0.1283  0.3258  0.1748
  289MOL0     C39767   2.765   1.665   7.918  0.6355 -0.0044 -0.2451
  289MOL0     O39768   2.766   1.659   8.061 -0.3099 -0.3518  0.1854
  289MOL0     C39769   2.884   1.634   8.130  0.4143 -0.0681  0.2276
  289MOL0     C39770   2.998   1.707   8.099 -0.6860 -0.0517 -0.0338
  289MOL0     C39771   3.121   1.679   8.162 -1.2439 -0.3876  0.8458
  289MOL0     C39772   3.234   1.780   8.134 -0.7436 -0.3649 -0.7565
  289MOL0     C39773   3.130   1.571   8.252  0.0547  0.0965 -0.2281
  289MOL0     C39774   3.260   1.524   8.316 -0.7410 -0.6656  0.8901
  289MOL0     O39775   3.244   1.436   8.419 -0.2701 -0.2587 -0.4986
  289MOL0     C39776   3.358   1.363   8.464 -0.2713  0.3122 -0.5357
  289MOL0     C39777   3.337   1.230   8.512 -1.2603  0.4835  0.1925
  289MOL0     C39778   3.446   1.158   8.574 -0.2435 -0.2757 -0.3570
  289MOL0     C39779   3.574   1.212   8.579  0.6889  0.2836 -0.6684
  289MOL0     O39780   3.676   1.146   8.636  0.0874  0.0510 -0.9754
  289MOL0     C39781   3.676   1.011   8.674 -0.4342 -0.1731  1.1188
  289MOL0     C39782   3.815   0.950   8.620  1.1578 -0.1376 -0.4561
  289MOL0     C39783   3.935   1.006   8.698 -0.3391  0.2415 -0.5713
  289MOL0     C39784   4.075   0.957   8.655 -0.0259  0.0844  0.8635
  289MOL0     C39785   4.182   1.058   8.705  0.6759 -0.3018  0.4686
  289MOL0     C39786   4.325   1.011   8.672  0.0301  0.5132 -0.3335
  289MOL0     C39787   4.433   1.118   8.691 -0.0971 -1.0401  0.5456
  289MOL0     C39788   4.565   1.046   8.707 -0.5810  0.0468 -0.1431
  289MOL0    Cl39789   4.680   1.177   8.686  0.1135  0.2250 -0.3283
  289MOL0     C39790   3.589   1.341   8.535  0.9464  0.5627  1.3759
  289MOL0     C39791   3.484   1.412   8.477  0.4195  1.0889  0.3775
  289MOL0     O39792   3.361   1.544   8.253  0.7084 -0.1924 -0.2074
  289MOL0     C39793   3.014   1.495   8.275  1.2490  0.2579 -0.4054
  289MOL0     C39794   2.890   1.529   8.220  0.2189  0.6095  0.2781
  289MOL0     N39795   2.332   1.645   7.744  0.1555  0.0973  0.8553
  289MOL0     N39796   2.204   1.619   7.740 -1.2180 -0.6032  0.0895
  289MOL0     C39797   1.084   1.780   8.007 -0.8369  0.3423 -0.4756
  289MOL0     C39798   0.966   1.715   7.985  0.0229  0.3031 -0.6851
  289MOL0     C39799   0.580   1.488   8.064 -0.3233  1.2944  0.0170
  289MOL0     C39800   0.571   1.441   7.929 -1.0550  0.1458 -0.4414
  289MOL0     C39801   0.452   1.393   7.878  0.2216 -0.3478  0.1902
  289MOL0     C39802   0.343   1.377   7.964 -0.0212  0.5666 -0.2062
  289MOL0     O39803   0.226   1.305   7.936  0.3247  0.6020 -0.2440
  289MOL0     C39804   0.219   1.240   7.816 -0.2369 -0.5899 -0.9102
  289MOL0     C39805   0.079   1.177   7.815 -0.3791  0.2382 -0.5139
  289MOL0     C39806  -0.035   1.275   7.778 -0.0608  0.3977 -0.2323
  289MOL0     C39807  -0.057   1.389   7.875 -0.3772  0.0703 -0.5715
  289MOL0     C39808  -0.166   1.470   7.822  0.2433 -0.4967  0.2655
  289MOL0     C39809  -0.260   1.537   7.789  0.5083 -0.5340 -0.2928
  289MOL0     C39810   0.357   1.413   8.099 -0.5319  0.4814  0.6576
  289MOL0     C39811   0.470   1.470   8.151 -0.1982 -1.2637 -0.3973
  289MOL0     C39812   0.471   1.515   8.300  0.0969  0.2261 -0.0116
  289MOL0     H39813   0.971   1.499   8.241 -0.5833  0.7169  0.3555
  289MOL0     H39814   1.189   1.627   8.285  0.4662  4.6876  0.8654
  289MOL0     H39815   1.401   1.650   8.176 -0.8917 -0.9406  1.7762
  289MOL0     H39816   1.358   1.746   8.309 -0.0948  0.1610 -1.0146
  289MOL0     H39817   1.533   1.841   8.086  0.6213 -1.0240  0.6794
  289MOL0     H39818   1.489   1.933   8.234  3.8463  0.3647  3.6444
  289MOL0     H39819   1.706   1.855   8.299  1.4805 -1.8029  2.2421
  289MOL0     H39820   1.588   1.756   8.370  0.9263 -2.9667 -1.1134
  289MOL0     H39821   1.674   1.585   8.285  1.7041 -1.9907 -0.9484
  289MOL0     H39822   1.624   1.630   8.115  1.0387  2.7523 -2.5333
  289MOL0     H39823   1.859   1.567   8.173  1.0490 -1.2859 -3.7430
  289MOL0     H39824   1.893   1.740   8.200 -1.6669  0.4605  0.2200
  289MOL0     H39825   1.783   1.602   7.964  1.5284 -0.9400  0.7741
  289MOL0     H39826   1.783   1.787   7.965  0.8701  0.8728  0.9191
  289MOL0     H39827   2.016   1.603   7.984 -0.0658 -0.2193 -2.1923
  289MOL0     H39828   2.029   1.781   8.020  1.2790 -0.8297 -0.2148
  289MOL0     H39829   1.935   1.669   7.753 -0.1335 -1.5116  1.2503
  289MOL0     H39830   1.952   1.837   7.797  0.0837  0.4571  2.0778
  289MOL0     H39831   2.200   1.928   7.842 -1.6935  1.7787 -4.3997
  289MOL0     H39832   2.431   1.966   7.802  0.1239 -0.3294  3.1375
  289MOL0     H39833   2.518   1.873   7.676 -0.5213 -4.0391 -0.4337
  289MOL0     H39834   2.656   1.893   7.896  0.3672  0.3039 -1.6587
  289MOL0     H39835   2.520   1.822   7.982 -1.2046 -2.9334  0.3457
  289MOL0     H39836   2.555   1.599   7.872  0.1137 -0.8468 -2.8045
  289MOL0     H39837   2.649   1.658   7.745  3.1415 -0.1156  0.7861
  289MOL0     H39838   2.801   1.569   7.879 -0.5155 -0.0909 -1.1503
  289MOL0     H39839   2.829   1.746   7.882 -0.0828  0.4707 -0.4723
  289MOL0     H39840   2.992   1.783   8.021 -0.8173  0.3242  0.3402
  289MOL0     H39841   3.314   1.768   8.208  1.4335  1.9195 -2.5429
  289MOL0     H39842   3.197   1.882   8.148 -1.6296 -0.9765  1.8269
  289MOL0     H39843   3.272   1.766   8.032 -0.2849 -0.2102 -0.6118
  289MOL0     H39844   3.244   1.183   8.483 -1.0428  0.9448 -1.3746
  289MOL0     H39845   3.429   1.058   8.614  1.1693  0.7798  3.2790
  289MOL0     H39846   3.667   1.004   8.782 -2.5976 -0.9045  0.9473
  289MOL0     H39847   3.599   0.946   8.630  0.7008 -1.2563  0.6517
  289MOL0     H39848   3.813   0.841   8.619 -1.4324 -0.1581 -0.7554
  289MOL0     H39849   3.825   0.978   8.515 -0.1782  0.2954 -0.4856
  289MOL0     H39850   3.931   0.972   8.802 -1.9355 -1.2166 -1.0693
  289MOL0     H39851   3.932   1.115   8.698 -2.0742  0.3461  3.1201
  289MOL0     H39852   4.073   0.951   8.546 -0.3875 -1.6737  0.9359
  289MOL0     H39853   4.097   0.856   8.693  0.7880 -0.1639 -0.1831
  289MOL0     H39854   4.166   1.151   8.650 -0.4205 -0.1720  1.0013
  289MOL0     H39855   4.166   1.090   8.808  1.3460 -2.3057  1.2394
  289MOL0     H39856   4.334   0.972   8.570  1.6429  0.0241 -0.0346
  289MOL0     H39857   4.352   0.926   8.735  1.3335  2.2462  1.5742
  289MOL0     H39858   4.419   1.193   8.769 -4.3530  0.0031 -0.9592
  289MOL0     H39859   4.432   1.172   8.596  1.7966  0.6707  1.4275
  289MOL0     H39860   4.572   0.964   8.635 -1.6998  1.0560 -1.4501
  289MOL0     H39861   4.570   0.997   8.804 -2.5364 -2.5024 -1.2325
  289MOL0     H39862   3.686   1.388   8.544  2.3863 -1.9015 -0.3098
  289MOL0     H39863   3.494   1.517   8.451 -0.0877  0.9202 -0.5397
  289MOL0     H39864   3.008   1.414   8.348  1.6433  1.0392  0.5145
  289MOL0     H39865   2.802   1.474   8.251 -0.1022  1.3391  0.7098
  289MOL0     H39866   1.105   1.869   7.947 -1.0144  0.5843 -0.1784
  289MOL0     H39867   0.887   1.744   7.916 -0.5535  0.2635 -0.0455
  289MOL0     H39868   0.662   1.447   7.869  0.4345  0.0270  1.7092
  289MOL0     H39869   0.436   1.365   7.774 -3.4830  1.4362  0.1200
  289MOL0     H39870   0.238   1.306   7.731 -2.4529  3.1035  1.1626
  289MOL0     H39871   0.285   1.154   7.825 -0.6979 -0.8365  0.2648
  289MOL0     H39872   0.073   1.136   7.916 -0.9299  0.9004 -0.2723
  289MOL0     H39873   0.079   1.093   7.745 -0.7303 -2.2538  2.2605
  289MOL0     H39874  -0.027   1.316   7.677  0.7116  0.2687 -0.2326
  289MOL0     H39875  -0.127   1.217   7.791  1.0461 -1.2765  0.4340
  289MOL0     H39876   0.032   1.452   7.878 -0.2309 -0.1769  0.4352
  289MOL0     H39877  -0.068   1.356   7.979  2.5938  1.1365  0.1762
  289MOL0     H39878  -0.343   1.593   7.753 -0.6607 -3.6959 -3.0714
  289MOL0     H39879   0.266   1.403   8.158 -2.6468  1.0185 -2.2452
  289MOL0     H39880   0.486   1.623   8.313  0.8304  0.1822 -0.4804
  289MOL0     H39881   0.372   1.498   8.344 -0.1030  0.2692 -0.4416
  289MOL0     H39882   0.547   1.451   8.345  1.9222  1.1432 -1.6263
  290MOL0     O39883   0.102   3.593   9.098 -0.0839  0.5562  0.6519
  290MOL0     C39884   0.137   3.705   9.130 -0.5017  0.5044 -0.0109
  290MOL0     O39885   0.049   3.802   9.151  0.1196  0.0402  0.2970
  290MOL0     C39886  -0.075   3.783   9.111  0.2299 -0.1615  0.1760
  290MOL0     C39887  -0.120   3.803   8.982 -0.1751  0.3339  0.3939
  290MOL0     C39888  -0.257   3.798   8.947 -0.8566 -0.1285  0.3994
  290MOL0     C39889  -0.355   3.778   9.051 -0.5436  0.7442  0.1264
  290MOL0     O39890  -0.485   3.799   9.014 -0.3081  0.2151  0.0549
  290MOL0     C39891  -0.593   3.737   9.099  0.7039  0.0878 -0.0535
  290MOL0     C39892  -0.730   3.764   9.030  0.5495  0.5277 -0.0913
  290MOL0     C39893  -0.744   3.656   8.919 -0.0869 -0.4507  0.1561
  290MOL0     C39894  -0.894   3.644   8.881 -0.3888 -0.6483 -0.3278
  290MOL0     C39895  -0.934   3.752   8.779 -1.0963  0.4287  0.1149
  290MOL0     C39896  -1.083   3.737   8.735 -0.0869  1.0064 -0.3151
  290MOL0     C39897  -1.189   3.803   8.816  0.5355 -0.4467 -0.1199
  290MOL0     C39898  -1.246   3.711   8.925 -0.9931 -0.6225 -0.1136
  290MOL0     N39899  -1.367   3.771   8.971  0.3336  0.0453 -0.2709
  290MOL0     C39900  -1.377   3.866   9.075 -0.4157  0.4513  0.1924
  290MOL0     C39901  -1.513   3.889   9.086  0.0096 -0.9220 -0.3500
  290MOL0     C39902  -1.582   3.979   9.191  0.9246 -0.0533  0.2723
  290MOL0     C39903  -1.497   3.975   9.316  0.7053 -0.3586 -0.2610
  290MOL0     C39904  -1.500   3.856   9.405  0.0555  0.9369 -0.0445
  290MOL0     C39905  -1.367   3.828   9.486  0.9585 -0.9111  0.3792
  290MOL0     O39906  -1.267   3.778   9.396  0.4958 -0.6472 -0.1985
  290MOL0     C39907  -1.151   3.737   9.451  0.1733  0.5440  0.0589
  290MOL0     C39908  -1.126   3.703   9.587 -0.2734  0.1131  0.2312
  290MOL0     C39909  -0.996   3.669   9.624  0.3783 -0.2217  0.1773
  290MOL0     C39910  -0.978   3.637   9.774 -0.3908 -0.1715  0.5634
  290MOL0     C39911  -0.899   3.634   9.523 -0.7945  0.4182 -0.3439
  290MOL0     C39912  -0.760   3.584   9.561 -0.6239 -0.5892 -0.6144
  290MOL0     O39913  -0.663   3.621   9.478  0.5224  0.6068  1.1488
  290MOL0     C39914  -0.532   3.573   9.503 -0.9623 -1.0600 -0.0522
  290MOL0     C39915  -0.456   3.524   9.392 -0.3897  0.6224 -0.7299
  290MOL0     C39916  -0.322   3.504   9.388  0.3089  0.2364 -0.0230
  290MOL0     C39917  -0.257   3.512   9.510 -0.2108 -0.3891  0.2121
  290MOL0     O39918  -0.124   3.475   9.528 -0.2027 -0.2313 -0.1597
  290MOL0     C39919  -0.047   3.450   9.406  0.4170 -0.6585  0.5200
  290MOL0     C39920   0.097   3.471   9.431 -0.8636  0.6965  0.1909
  290MOL0     C39921   0.174   3.342   9.468  0.6755  0.5637  0.1277
  290MOL0     C39922   0.331   3.359   9.461  0.7774 -0.5373  0.7375
  290MOL0     C39923   0.411   3.234   9.469  0.3056  1.0842 -0.4045
  290MOL0     C39924   0.559   3.257   9.447 -0.0511  0.1369  0.0205
  290MOL0     C39925   0.614   3.343   9.565  0.3114 -0.3746 -0.8335
  290MOL0     C39926   0.698   3.469   9.520 -1.1797  0.9239  0.2174
  290MOL0    Cl39927   0.861   3.403   9.480  0.0143 -0.4185  0.3034
  290MOL0     C39928  -0.326   3.545   9.629 -0.3115  0.1531 -0.2733
  290MOL0     C39929  -0.458   3.594   9.617  0.6836 -0.4700 -0.1519
  290MOL0     O39930  -0.743   3.508   9.657  0.1774  0.1296  0.1471
  290MOL0     C39931  -0.930   3.662   9.385  0.1967  0.1399  0.1081
  290MOL0     C39932  -1.049   3.718   9.354  0.0963  0.1419 -0.4363
  290MOL0     N39933  -1.574   3.805   8.998  0.3003 -0.1504  0.1778
  290MOL0     N39934  -1.492   3.737   8.933  0.1645  0.0137 -0.0763
  290MOL0     C39935  -0.308   3.778   9.184  0.9610  0.1271 -0.1466
  290MOL0     C39936  -0.170   3.792   9.215  0.4280  0.2822 -0.2696
  290MOL0     C39937   0.272   3.743   9.159  0.0616 -0.3471 -0.2294
  290MOL0     C39938   0.291   3.854   9.244  0.2514 -0.3682 -0.8202
  290MOL0     C39939   0.420   3.894   9.273  0.2738  0.1141 -0.3743
  290MOL0     C39940   0.535   3.828   9.230  0.2178 -0.6957 -0.2230
  290MOL0     O39941   0.652   3.893   9.262  0.0320 -0.3237  0.3346
  290MOL0     C39942   0.772   3.846   9.206  0.6842 -0.7601  0.1499
  290MOL0     C39943   0.776   3.906   9.060 -0.1361  0.1692 -0.0999
  290MOL0     C39944   0.800   4.055   9.052  1.2540 -0.3322  0.2303
  290MOL0     C39945   0.857   4.103   8.923  0.6583 -0.2081 -0.2091
  290MOL0     C39946   0.763   4.095   8.809 -0.0894  0.1322 -0.7362
  290MOL0     C39947   0.680   4.089   8.719 -0.5283 -0.4698 -0.1173
  290MOL0     C39948   0.518   3.705   9.171 -0.3698 -0.8842  0.0967
  290MOL0     C39949   0.393   3.669   9.117  0.2786  0.4940 -0.9827
  290MOL0     C39950   0.393   3.553   9.023 -0.2784  0.8532 -0.7921
  290MOL0     H39951  -0.049   3.833   8.906 -0.3148  1.5388  0.7165
  290MOL0     H39952  -0.284   3.817   8.844  0.8545 -1.0382 -0.2573
  290MOL0     H39953  -0.586   3.784   9.197 -1.2440  1.1048 -0.3472
  290MOL0     H39954  -0.557   3.634   9.110  3.4803  0.8617 -1.0529
  290MOL0     H39955  -0.806   3.753   9.108  0.1269 -0.3344 -0.6138
  290MOL0     H39956  -0.732   3.871   9.006 -1.3280  1.5317  3.6570
  290MOL0     H39957  -0.688   3.702   8.836 -0.3233  1.0013  0.7794
  290MOL0     H39958  -0.708   3.557   8.950 -3.5295 -1.9687 -0.1971
  290MOL0     H39959  -0.902   3.543   8.842  1.3407 -1.6113  1.6236
  290MOL0     H39960  -0.969   3.646   8.961  0.9679 -2.1399  1.0475
  290MOL0     H39961  -0.874   3.737   8.689 -0.0157 -1.8713  1.1133
  290MOL0     H39962  -0.920   3.854   8.817 -3.3969 -0.1288  2.8363
  290MOL0     H39963  -1.101   3.778   8.635 -0.3713 -0.1196 -0.7400
  290MOL0     H39964  -1.097   3.630   8.717  2.5768  0.7158 -1.0402
  290MOL0     H39965  -1.273   3.837   8.754 -0.7405 -2.3945  0.4347
  290MOL0     H39966  -1.152   3.894   8.864 -0.2794  0.1213 -0.5440
  290MOL0     H39967  -1.266   3.617   8.874 -1.0299  0.1656 -1.5987
  290MOL0     H39968  -1.174   3.707   9.008  0.3247  0.9879 -1.1135
  290MOL0     H39969  -1.297   3.912   9.132  0.4894  0.6840 -1.2048
  290MOL0     H39970  -1.680   3.936   9.215 -0.1754  0.8927 -2.1711
  290MOL0     H39971  -1.604   4.082   9.162 -0.5145  0.1910  2.0461
  290MOL0     H39972  -1.394   3.997   9.288  2.1192 -1.2793  3.6552
  290MOL0     H39973  -1.547   4.054   9.372  1.0562  0.0304 -0.4962
  290MOL0     H39974  -1.592   3.876   9.461 -0.2547  1.7854 -0.8306
  290MOL0     H39975  -1.520   3.767   9.345 -1.0886  1.1087  0.0511
  290MOL0     H39976  -1.339   3.925   9.527 -2.1691  0.3871 -0.2137
  290MOL0     H39977  -1.395   3.772   9.576 -0.6293  1.5782  1.5681
  290MOL0     H39978  -1.196   3.704   9.670 -0.7125  3.0237 -0.0865
  290MOL0     H39979  -0.883   3.686   9.798 -1.7831  2.7735  0.5707
  290MOL0     H39980  -0.975   3.534   9.809 -0.8569  1.2924  5.7819
  290MOL0     H39981  -1.052   3.695   9.830 -1.2767  0.3885 -1.1249
  290MOL0     H39982  -0.512   3.526   9.299 -1.8149 -0.3883  0.0732
  290MOL0     H39983  -0.275   3.484   9.292  0.0458 -1.5114  0.1665
  290MOL0     H39984  -0.069   3.356   9.355  0.6191 -0.5899  0.3010
  290MOL0     H39985  -0.066   3.535   9.339  2.0271 -0.7924 -0.1709
  290MOL0     H39986   0.133   3.527   9.344 -1.2597  0.6971  0.0225
  290MOL0     H39987   0.098   3.534   9.520  0.4948  0.8406  0.0886
  290MOL0     H39988   0.141   3.260   9.404  1.6784 -0.2647  0.6349
  290MOL0     H39989   0.144   3.302   9.566 -1.4574 -1.6390 -1.3202
  290MOL0     H39990   0.363   3.443   9.524  0.7640 -0.1398  0.2150
  290MOL0     H39991   0.352   3.393   9.360 -1.2038 -1.6821 -0.1121
  290MOL0     H39992   0.396   3.207   9.574  0.6763  0.2622 -0.5567
  290MOL0     H39993   0.381   3.153   9.402 -0.9757  1.4184 -0.2635
  290MOL0     H39994   0.568   3.307   9.350 -1.6101 -0.4835 -0.4798
  290MOL0     H39995   0.617   3.165   9.439 -0.1691  0.1206 -0.7236
  290MOL0     H39996   0.674   3.277   9.629  0.1659 -0.8734 -1.1960
  290MOL0     H39997   0.529   3.370   9.628  2.0485 -0.1644  1.5623
  290MOL0     H39998   0.714   3.529   9.610 -0.8603 -0.6007  1.2204
  290MOL0     H39999   0.657   3.536   9.444  0.2488  0.7967 -0.6968
  290MOL0     H40000  -0.271   3.535   9.722  2.0369 -1.2006 -1.6732
  290MOL0     H40001  -0.500   3.631   9.711  0.6051 -1.0305  0.0392
  290MOL0     H40002  -0.851   3.624   9.320  1.6369  1.2381  1.1441
  290MOL0     H40003  -1.068   3.748   9.251 -1.8823  4.0386  0.8568
  290MOL0     H40004  -0.370   3.791   9.273 -0.7807  1.6183 -1.4911
  290MOL0     H40005  -0.136   3.807   9.317  1.8904 -3.4624 -0.0724
  290MOL0     H40006   0.210   3.893   9.305  2.6315 -1.0821  3.0944
  290MOL0     H40007   0.430   3.980   9.338  0.3648 -0.6145  0.6021
  290MOL0     H40008   0.853   3.890   9.265  0.6293  1.5652 -1.3567
  290MOL0     H40009   0.780   3.738   9.192  1.2555 -0.6663 -0.2615
  290MOL0     H40010   0.679   3.878   9.018 -0.5684 -0.2209  1.1068
  290MOL0     H40011   0.857   3.861   9.003  0.8985  2.0899 -0.2175
  290MOL0     H40012   0.704   4.101   9.079  1.1941 -1.1479  1.4927
  290MOL0     H40013   0.868   4.092   9.130  0.0319  1.0968  0.6583
  290MOL0     H40014   0.953   4.057   8.899  1.3467  0.4239  1.1989
  290MOL0     H40015   0.882   4.209   8.927  1.9368 -0.5325  1.1051
  290MOL0     H40016   0.600   4.082   8.648 -0.9680 -4.5807  0.5070
  290MOL0     H40017   0.602   3.640   9.146  0.8941 -0.6034  3.1149
  290MOL0     H40018   0.310   3.551   8.951  0.3341 -0.8278 -1.5017
  290MOL0     H40019   0.488   3.535   8.973  0.5434  0.2095  0.9169
  290MOL0     H40020   0.377   3.457   9.072 -0.2030  1.1875 -0.0900
  291MOL0     O40021   0.450   3.805   4.306  0.6726 -0.5175  0.0392
  291MOL0     C40022   0.445   3.697   4.364  0.0708  0.7468  0.2948
  291MOL0     O40023   0.553   3.620   4.386  0.0445  0.3679 -0.2144
  291MOL0     C40024   0.681   3.663   4.358  1.0884  0.5249 -0.3905
  291MOL0     C40025   0.732   3.626   4.237 -0.2640  0.5587 -0.1458
  291MOL0     C40026   0.844   3.692   4.190 -0.6178 -0.1909 -0.5974
  291MOL0     C40027   0.918   3.779   4.269  0.1647  0.0819  0.3320
  291MOL0     O40028   1.045   3.822   4.244  0.5991 -0.2301  0.2844
  291MOL0     C40029   1.104   3.791   4.116  0.1524  0.5180 -0.7307
  291MOL0     C40030   1.231   3.876   4.097  0.8406  0.2576  0.4139
  291MOL0     C40031   1.311   3.829   3.975  0.4074  0.1314 -0.4858
  291MOL0     C40032   1.431   3.918   3.948 -0.2376 -0.4173  0.4175
  291MOL0     C40033   1.554   3.870   4.030  0.2144  0.2196  0.7349
  291MOL0     C40034   1.683   3.922   3.968 -0.5310 -0.2014  1.3808
  291MOL0     C40035   1.809   3.878   4.042  0.9696 -0.4215  0.5123
  291MOL0     C40036   1.814   3.916   4.188 -0.5908 -0.0890 -0.3959
  291MOL0     N40037   1.958   3.878   4.227  0.4483 -0.3249  0.3417
  291MOL0     C40038   2.047   3.970   4.280 -0.0882 -0.0054  0.5483
  291MOL0     C40039   2.159   3.906   4.306 -0.0346  0.9113 -1.3415
  291MOL0     C40040   2.289   3.951   4.376  0.1346  0.6242 -0.1391
  291MOL0     C40041   2.379   4.015   4.273  0.1003 -0.1151 -0.6968
  291MOL0     C40042   2.338   4.154   4.228  0.8788 -0.2586 -0.3213
  291MOL0     C40043   2.450   4.257   4.244 -0.6908  0.2224 -0.2560
  291MOL0     O40044   2.497   4.244   4.377 -0.5258 -1.2905  0.3026
  291MOL0     C40045   2.613   4.313   4.406  0.2808 -0.1090 -0.1496
  291MOL0     C40046   2.665   4.297   4.535  0.4127  0.0279  0.0671
  291MOL0     C40047   2.778   4.359   4.581  0.3884 -0.9361  0.4661
  291MOL0     C40048   2.804   4.358   4.726 -0.2088  0.8109 -0.4157
  291MOL0     C40049   2.859   4.438   4.491  0.6916 -0.1335 -0.2467
  291MOL0     C40050   2.990   4.491   4.534  0.2044  0.0701  0.2008
  291MOL0     O40051   3.043   4.599   4.453  0.2221  0.1410  0.8944
  291MOL0     C40052   3.175   4.628   4.481 -0.5241 -0.7086 -0.0693
  291MOL0     C40053   3.280   4.555   4.428 -0.0521 -0.5050  0.1335
  291MOL0     C40054   3.405   4.602   4.446 -0.1240 -0.0748  0.1219
  291MOL0     C40055   3.441   4.700   4.528  0.3102  0.2573  0.7074
  291MOL0     O40056   3.567   4.744   4.560  0.1326 -0.0859  0.2696
  291MOL0     C40057   3.671   4.636   4.561 -0.2899  0.1020 -0.2742
  291MOL0     C40058   3.794   4.676   4.661  0.1645 -0.6343 -0.3801
  291MOL0     C40059   3.917   4.589   4.646  0.2493  0.5597 -0.1396
  291MOL0     C40060   4.028   4.643   4.739 -0.1386 -1.0497  0.0814
  291MOL0     C40061   4.152   4.557   4.714 -0.0780 -0.5998  1.1140
  291MOL0     C40062   4.272   4.625   4.787  0.6539  0.4641  0.4240
  291MOL0     C40063   4.412   4.574   4.742  0.1856 -0.6183 -0.1134
  291MOL0     C40064   4.424   4.429   4.738 -0.2588  0.7783  0.0078
  291MOL0    Cl40065   4.602   4.390   4.705  0.4808  0.0565 -0.3146
  291MOL0     C40066   3.337   4.773   4.586 -0.3386  0.2029  1.2060
  291MOL0     C40067   3.204   4.733   4.561 -0.5443 -0.4519 -0.2646
  291MOL0     O40068   3.059   4.438   4.627  0.0587 -0.0479 -0.2002
  291MOL0     C40069   2.804   4.459   4.363 -0.9139 -0.6656  0.0583
  291MOL0     C40070   2.687   4.403   4.322 -0.0637  0.1577 -0.0722
  291MOL0     N40071   2.133   3.775   4.277 -0.0641  0.3722 -0.3841
  291MOL0     N40072   2.014   3.756   4.228 -0.3874 -0.0983 -0.3583
  291MOL0     C40073   0.869   3.811   4.390 -0.1829 -0.0396  0.1650
  291MOL0     C40074   0.748   3.752   4.438 -0.2927 -0.1243  0.5302
  291MOL0     C40075   0.314   3.647   4.400 -0.0910 -0.1176 -0.2668
  291MOL0     C40076   0.213   3.744   4.436  0.3586  0.8901 -0.8487
  291MOL0     C40077   0.086   3.698   4.469  0.3889 -0.0106 -0.5202
  291MOL0     C40078   0.048   3.562   4.468 -0.5358  0.0215 -0.4457
  291MOL0     O40079  -0.075   3.525   4.510 -0.1941 -0.8816  0.0082
  291MOL0     C40080  -0.175   3.519   4.405 -0.5199 -0.7792  0.5053
  291MOL0     C40081  -0.324   3.513   4.450  0.5169  0.3874  0.1767
  291MOL0     C40082  -0.427   3.498   4.338 -0.2085  0.0827  0.1498
  291MOL0     C40083  -0.567   3.456   4.395  0.2235 -0.0906  0.5336
  291MOL0     C40084  -0.634   3.551   4.476  0.8362 -0.4296 -0.0301
  291MOL0     C40085  -0.706   3.634   4.534 -0.5073  0.5375 -1.3123
  291MOL0     C40086   0.147   3.462   4.434  0.0656 -0.5306 -0.9840
  291MOL0     C40087   0.273   3.503   4.394  0.1938 -0.0287 -0.7457
  291MOL0     C40088   0.363   3.393   4.358 -0.1915 -0.2375 -0.1819
  291MOL0     H40089   0.682   3.564   4.164 -1.2032 -0.5043  1.3518
  291MOL0     H40090   0.891   3.664   4.097  3.7163  0.6388  1.0899
  291MOL0     H40091   1.032   3.814   4.036  0.3130 -1.1558 -1.3837
  291MOL0     H40092   1.135   3.687   4.115 -1.9464 -0.2076  1.4489
  291MOL0     H40093   1.208   3.983   4.086 -0.6597 -0.0928 -0.0386
  291MOL0     H40094   1.299   3.860   4.182  2.4066  2.1456 -0.3838
  291MOL0     H40095   1.335   3.723   3.982 -1.8265 -0.4635 -0.9114
  291MOL0     H40096   1.249   3.832   3.884  0.0288  0.2496 -0.2274
  291MOL0     H40097   1.446   3.915   3.840 -4.0200 -1.9524 -0.2003
  291MOL0     H40098   1.414   4.022   3.979  0.7048  0.4207 -1.6937
  291MOL0     H40099   1.550   3.762   4.043  2.2367 -0.2401 -1.6872
  291MOL0     H40100   1.540   3.903   4.134 -1.6018 -1.2565  1.0144
  291MOL0     H40101   1.681   3.894   3.862  0.6798  2.1006  0.7099
  291MOL0     H40102   1.681   4.031   3.973  0.6451 -0.1129  0.2276
  291MOL0     H40103   1.899   3.915   3.993 -0.1921 -1.0772 -2.3109
  291MOL0     H40104   1.813   3.769   4.032 -1.3521 -0.4711 -0.5405
  291MOL0     H40105   1.784   4.019   4.207  0.8667 -0.0315  2.0778
  291MOL0     H40106   1.740   3.853   4.237 -1.1854 -0.1802 -1.3832
  291MOL0     H40107   2.032   4.078   4.280  0.6249  0.0987  0.3899
  291MOL0     H40108   2.326   3.854   4.411 -1.5142 -0.7537 -1.9715
  291MOL0     H40109   2.269   4.018   4.461 -0.7991 -0.7997  0.8174
  291MOL0     H40110   2.482   4.015   4.310 -0.4300  0.5112  0.8637
  291MOL0     H40111   2.383   3.949   4.186  2.0142 -1.2184  0.1678
  291MOL0     H40112   2.302   4.149   4.125 -1.2406  1.7794  0.2233
  291MOL0     H40113   2.249   4.181   4.286  1.1963 -2.8428  1.5222
  291MOL0     H40114   2.532   4.234   4.176 -0.8717  2.1732 -1.2326
  291MOL0     H40115   2.412   4.358   4.225 -1.5484  0.0202  0.3375
  291MOL0     H40116   2.611   4.229   4.600  0.9069  0.3954  0.8719
  291MOL0     H40117   2.861   4.444   4.763 -0.1278 -0.2675  2.1454
  291MOL0     H40118   2.864   4.271   4.754 -0.4034  1.1376  1.1213
  291MOL0     H40119   2.709   4.355   4.781 -0.4270 -3.7303 -0.6805
  291MOL0     H40120   3.267   4.478   4.352  0.4982 -0.7741  0.3053
  291MOL0     H40121   3.482   4.546   4.394 -0.3460  1.0811 -1.5246
  291MOL0     H40122   3.626   4.540   4.587 -3.4639  1.4019 -0.5621
  291MOL0     H40123   3.706   4.621   4.458 -0.5946  0.4689 -0.4367
  291MOL0     H40124   3.821   4.781   4.645  0.3707 -0.5854  0.2478
  291MOL0     H40125   3.758   4.657   4.763 -0.1301 -1.2248 -0.5898
  291MOL0     H40126   3.949   4.582   4.542  0.3206 -2.0371  0.0025
  291MOL0     H40127   3.891   4.489   4.681 -0.3389  0.8177  0.1841
  291MOL0     H40128   4.001   4.637   4.844  2.7576  1.7669  1.1854
  291MOL0     H40129   4.053   4.748   4.717  0.1113 -0.4450  2.9008
  291MOL0     H40130   4.135   4.457   4.754 -0.3684 -1.4165 -0.9212
  291MOL0     H40131   4.177   4.547   4.608  0.8033  0.7441  1.1718
  291MOL0     H40132   4.250   4.615   4.894 -0.7914  0.7188  0.1646
  291MOL0     H40133   4.271   4.732   4.766  1.3008  0.8461  2.1398
  291MOL0     H40134   4.479   4.620   4.815  0.2094 -0.7233 -0.0690
  291MOL0     H40135   4.440   4.613   4.644  1.5760 -1.2831  0.0035
  291MOL0     H40136   4.357   4.381   4.667 -1.9973 -0.4590  2.3525
  291MOL0     H40137   4.395   4.385   4.834 -1.3790  2.8540  0.7009
  291MOL0     H40138   3.360   4.858   4.649 -1.4214 -0.0300  1.9323
  291MOL0     H40139   3.114   4.783   4.597 -0.8445 -1.6481  0.7247
  291MOL0     H40140   2.853   4.532   4.299  0.6803 -0.4309  1.4876
  291MOL0     H40141   2.645   4.411   4.222 -0.4811  1.6948  0.2030
  291MOL0     H40142   0.921   3.878   4.458  0.0190 -0.3706  0.3366
  291MOL0     H40143   0.704   3.767   4.536  1.5159 -1.1724  1.5489
  291MOL0     H40144   0.221   3.852   4.437 -1.2540  1.0274 -0.2449
  291MOL0     H40145   0.015   3.775   4.497  1.8736  1.2270 -0.0796
  291MOL0     H40146  -0.175   3.615   4.353  0.7628 -0.6581  0.6902
  291MOL0     H40147  -0.146   3.438   4.338  4.6469  0.2720  1.0178
  291MOL0     H40148  -0.349   3.596   4.517 -0.3934 -0.6144  1.1108
  291MOL0     H40149  -0.336   3.423   4.510 -0.9686  1.1821  1.1306
  291MOL0     H40150  -0.432   3.583   4.269  2.3608 -0.3952 -0.7414
  291MOL0     H40151  -0.392   3.415   4.276 -0.9234 -3.2843  3.8479
  291MOL0     H40152  -0.560   3.358   4.442 -4.5175 -1.3022 -0.7916
  291MOL0     H40153  -0.639   3.443   4.314  0.7418  0.9585 -0.1131
  291MOL0     H40154  -0.764   3.711   4.580 -0.7011 -0.5325  0.3181
  291MOL0     H40155   0.120   3.358   4.419  0.0221 -0.2531 -3.1457
  291MOL0     H40156   0.432   3.430   4.281  1.7002  2.3027  2.5210
  291MOL0     H40157   0.428   3.358   4.438 -0.2778  0.5973  0.2631
  291MOL0     H40158   0.303   3.308   4.325 -0.8944 -0.3696  1.3584
  292MOL0     O40159   6.531   7.568   1.740 -0.6426  0.2080 -0.1607
  292MOL0     C40160   6.504   7.459   1.702 -0.1021 -0.2768  0.7890
  292MOL0     O40161   6.580   7.352   1.714  0.4948  0.3781  0.2805
  292MOL0     C40162   6.702   7.358   1.773 -0.3522  0.8283 -0.2442
  292MOL0     C40163   6.823   7.363   1.697  1.0908  0.5448  0.2241
  292MOL0     C40164   6.937   7.382   1.770 -0.5122  0.0281 -0.3775
  292MOL0     C40165   6.938   7.396   1.907  0.3365  1.1799 -0.6214
  292MOL0     O40166   7.052   7.430   1.976  0.7158 -0.0947 -0.0042
  292MOL0     C40167   7.180   7.364   1.939  1.0615  0.2320 -0.4918
  292MOL0     C40168   7.286   7.469   1.916 -1.0498  0.7185  0.4388
  292MOL0     C40169   7.317   7.547   2.041  0.1414  0.6354  0.0575
  292MOL0     C40170   7.390   7.669   2.016 -0.0989 -0.8582  0.3231
  292MOL0     C40171   7.543   7.643   2.026  0.4768 -0.5013 -0.5330
  292MOL0     C40172   7.592   7.620   2.167  0.4439  0.7341 -0.1838
  292MOL0     C40173   7.741   7.623   2.199  0.5268 -0.2038  0.8252
  292MOL0     C40174   7.787   7.764   2.235  0.8910  0.4282 -1.3825
  292MOL0     N40175   7.931   7.782   2.230 -0.4565  0.6616 -0.9270
  292MOL0     C40176   8.016   7.816   2.116  0.3780  0.8265 -0.1475
  292MOL0     C40177   8.132   7.839   2.172 -1.1861 -1.4616 -0.4376
  292MOL0     C40178   8.251   7.897   2.099  0.4662 -0.5460 -0.4284
  292MOL0     C40179   8.345   7.782   2.060  0.7013 -0.3177 -0.8300
  292MOL0     C40180   8.460   7.850   1.975  0.0725 -0.3944  1.0580
  292MOL0     C40181   8.577   7.760   1.928 -0.4546 -0.8434  0.5326
  292MOL0     O40182   8.685   7.829   1.863  0.5035 -0.9257 -0.6634
  292MOL0     C40183   8.785   7.749   1.817  0.4867 -0.9686  0.1930
  292MOL0     C40184   8.820   7.774   1.688 -0.6991  0.4955  0.6723
  292MOL0     C40185   8.944   7.725   1.637 -1.0857 -0.4035  0.3062
  292MOL0     C40186   8.988   7.779   1.504  1.0493  0.2706  0.4575
  292MOL0     C40187   9.019   7.638   1.718 -0.6720 -0.1885  0.1839
  292MOL0     C40188   9.147   7.566   1.680 -1.0067  0.3398  0.0725
  292MOL0     O40189   9.210   7.486   1.773 -0.3733  0.4696  0.8824
  292MOL0     C40190   9.328   7.419   1.737 -0.1549 -0.8682  1.0646
  292MOL0     C40191   9.342   7.324   1.631 -0.1854  0.1799 -0.1121
  292MOL0     C40192   9.468   7.273   1.596  1.1747 -1.0429 -0.6345
  292MOL0     C40193   9.585   7.314   1.669 -0.0328 -0.2075  0.4252
  292MOL0     O40194   9.714   7.275   1.640 -0.1064  0.1760 -0.5247
  292MOL0     C40195   9.731   7.167   1.538 -0.5800 -0.5147 -0.0463
  292MOL0     C40196   9.878   7.108   1.552 -0.5047  0.2850 -0.0462
  292MOL0     C40197   9.911   7.024   1.678 -0.7197  0.3538  0.0427
  292MOL0     C40198  10.069   7.005   1.688 -0.2190  0.2569 -0.2438
  292MOL0     C40199  10.109   6.913   1.804  0.5775 -1.2597 -0.4842
  292MOL0     C40200  10.259   6.896   1.802  0.3909 -0.2137  0.6610
  292MOL0     C40201  10.313   6.822   1.678  0.1811  0.4276  0.8009
  292MOL0     C40202  10.438   6.746   1.713  0.3918  0.2259 -0.5293
  292MOL0    Cl40203  10.565   6.863   1.750  0.0988  0.1005  0.5924
  292MOL0     C40204   9.563   7.416   1.766 -0.1491  0.2379  0.7313
  292MOL0     C40205   9.441   7.465   1.798 -0.3924  0.6490 -0.0219
  292MOL0     O40206   9.192   7.593   1.569  0.0431 -0.4480 -0.7784
  292MOL0     C40207   8.983   7.623   1.857  0.5438  0.1668 -0.3457
  292MOL0     C40208   8.870   7.682   1.908  0.3351  0.7664  0.2118
  292MOL0     N40209   8.121   7.815   2.312  0.3505 -0.0009  0.0486
  292MOL0     N40210   8.003   7.782   2.340  0.6658  0.4406 -0.2776
  292MOL0     C40211   6.826   7.388   1.978 -0.1538  0.5933 -0.6317
  292MOL0     C40212   6.698   7.370   1.913 -0.7151  0.0394  0.5764
  292MOL0     C40213   6.371   7.437   1.644  0.0485 -0.2417 -0.0114
  292MOL0     C40214   6.295   7.319   1.674 -0.8441 -0.1082  0.0122
  292MOL0     C40215   6.168   7.287   1.621 -0.2111  0.6192  0.1402
  292MOL0     C40216   6.113   7.372   1.522 -0.0570 -0.2569  0.0358
  292MOL0     O40217   5.994   7.325   1.467 -0.2273  0.8053 -0.0964
  292MOL0     C40218   5.953   7.376   1.342  0.3702  0.4209 -0.4402
  292MOL0     C40219   5.816   7.314   1.296  0.1861 -0.1648  0.3849
  292MOL0     C40220   5.800   7.165   1.331  0.7525  0.4066 -0.4173
  292MOL0     C40221   5.682   7.107   1.249  0.4012 -0.7158 -0.2393
  292MOL0     C40222   5.644   6.972   1.303  0.2565  0.9047  0.2378
  292MOL0     C40223   5.608   6.858   1.337  0.2902  0.1548 -0.0620
  292MOL0     C40224   6.174   7.492   1.497  0.3273  0.2672 -0.4916
  292MOL0     C40225   6.299   7.522   1.552 -0.3814 -0.3323 -0.0504
  292MOL0     C40226   6.354   7.656   1.501 -0.2889 -0.0114  0.0501
  292MOL0     H40227   6.806   7.341   1.592 -0.0729  3.5792 -0.3113
  292MOL0     H40228   7.031   7.392   1.717 -0.1995  0.6369  0.2892
  292MOL0     H40229   7.163   7.296   1.854 -0.6361  0.2841 -0.2419
  292MOL0     H40230   7.217   7.304   2.023  0.1075  2.2108  1.4231
  292MOL0     H40231   7.374   7.411   1.886 -0.1253  1.7305  1.1307
  292MOL0     H40232   7.266   7.530   1.827  1.2248 -2.5331 -2.6419
  292MOL0     H40233   7.221   7.579   2.083  0.7636 -1.4052  3.3532
  292MOL0     H40234   7.366   7.480   2.111  0.0919  0.9044  0.3488
  292MOL0     H40235   7.358   7.725   1.927  0.8351  1.6551  1.4716
  292MOL0     H40236   7.360   7.737   2.096 -1.1143 -0.4617 -0.3713
  292MOL0     H40237   7.587   7.735   1.987  1.5831 -0.8280 -0.0779
  292MOL0     H40238   7.579   7.556   1.970  3.4438  0.0142  0.4107
  292MOL0     H40239   7.522   7.673   2.231 -2.8069 -1.6513 -1.4841
  292MOL0     H40240   7.568   7.514   2.183 -1.7030  1.2106  0.0091
  292MOL0     H40241   7.794   7.595   2.108 -1.4972 -1.0413 -0.1641
  292MOL0     H40242   7.771   7.554   2.279  0.6499 -0.5886  0.4483
  292MOL0     H40243   7.746   7.843   2.171  2.4168  2.4335 -0.0486
  292MOL0     H40244   7.752   7.780   2.338 -0.5786  0.6780 -1.8971
  292MOL0     H40245   7.982   7.827   2.014  0.6807  1.8918 -0.1520
  292MOL0     H40246   8.306   7.963   2.167 -1.0178 -0.3139  0.5937
  292MOL0     H40247   8.218   7.954   2.011 -3.1198 -0.7447  0.6431
  292MOL0     H40248   8.382   7.727   2.147  3.4122 -1.4103 -2.5264
  292MOL0     H40249   8.282   7.706   2.012 -2.9819  1.1379  1.2657
  292MOL0     H40250   8.404   7.898   1.894 -1.1075 -0.7012  1.6712
  292MOL0     H40251   8.499   7.932   2.036 -1.8863  1.4559 -0.0187
  292MOL0     H40252   8.610   7.713   2.021 -1.8036 -0.6053  1.1437
  292MOL0     H40253   8.534   7.683   1.864  0.1397 -0.8768  0.1617
  292MOL0     H40254   8.755   7.834   1.625 -0.9666 -1.4139 -0.9622
  292MOL0     H40255   8.914   7.843   1.457 -0.7948 -3.2529 -1.9207
  292MOL0     H40256   9.000   7.698   1.431  3.8524  1.0896 -0.1254
  292MOL0     H40257   9.085   7.828   1.504  0.4374  1.5578 -1.1271
  292MOL0     H40258   9.252   7.282   1.588 -0.7187  0.1081  1.0369
  292MOL0     H40259   9.473   7.190   1.525  1.9400 -0.3500 -1.4072
  292MOL0     H40260   9.652   7.093   1.558 -1.8145  1.2639  2.2039
  292MOL0     H40261   9.720   7.217   1.442 -1.6836 -0.6118  0.0114
  292MOL0     H40262   9.887   7.037   1.469  0.7961 -0.3048  0.5637
  292MOL0     H40263   9.952   7.188   1.541  1.1866 -0.9025  2.0021
  292MOL0     H40264   9.865   6.925   1.665 -1.0751  0.7644 -2.2690
  292MOL0     H40265   9.865   7.064   1.769 -0.8333 -0.9118  0.5596
  292MOL0     H40266  10.117   7.103   1.683 -2.3661  1.3129 -2.8452
  292MOL0     H40267  10.100   6.950   1.598  0.4555 -1.4487  0.9792
  292MOL0     H40268  10.082   6.954   1.902  1.2850  0.9230 -1.1521
  292MOL0     H40269  10.055   6.818   1.798 -1.3941 -0.3204  1.3837
  292MOL0     H40270  10.292   6.843   1.892  0.7410  0.9526  1.2321
  292MOL0     H40271  10.305   6.994   1.810  0.4608 -0.2775  1.0784
  292MOL0     H40272  10.336   6.892   1.598 -1.2021 -1.7443 -1.6661
  292MOL0     H40273  10.235   6.765   1.627 -1.1510  1.9167  1.0864
  292MOL0     H40274  10.469   6.688   1.625 -1.2658  2.9778 -3.1215
  292MOL0     H40275  10.422   6.680   1.799  0.8285 -0.8694 -1.2650
  292MOL0     H40276   9.659   7.447   1.806  0.4704 -2.1515  1.2621
  292MOL0     H40277   9.428   7.546   1.870  0.8507  1.7386 -0.9751
  292MOL0     H40278   9.049   7.566   1.922  1.3106 -0.4067 -1.5863
  292MOL0     H40279   8.845   7.676   2.014  0.1393  0.5306  0.1521
  292MOL0     H40280   6.835   7.393   2.086 -1.8836  0.2092 -0.4448
  292MOL0     H40281   6.605   7.368   1.970 -1.4004  0.8016 -0.4734
  292MOL0     H40282   6.339   7.248   1.743  0.8651 -0.3825 -1.3228
  292MOL0     H40283   6.120   7.193   1.649 -0.8774  0.2765 -1.9442
  292MOL0     H40284   5.939   7.483   1.360  0.8651  0.2544  1.0843
  292MOL0     H40285   6.029   7.361   1.264  0.5885  0.2789 -0.2017
  292MOL0     H40286   5.824   7.327   1.188 -1.6006 -0.1208  0.2294
  292MOL0     H40287   5.729   7.363   1.340 -0.1007  0.8102 -1.1651
  292MOL0     H40288   5.891   7.111   1.305  0.1472  0.0217 -1.8366
  292MOL0     H40289   5.785   7.155   1.439  2.3331 -1.5031 -0.3182
  292MOL0     H40290   5.716   7.097   1.146 -0.1369 -1.9114 -0.3230
  292MOL0     H40291   5.593   7.171   1.252  0.3695 -0.7509 -0.4231
  292MOL0     H40292   5.576   6.758   1.362  2.0618 -1.2073 -2.8355
  292MOL0     H40293   6.129   7.563   1.429  1.5762  1.2617 -0.3330
  292MOL0     H40294   6.305   7.668   1.404  1.3103 -2.5914 -1.1782
  292MOL0     H40295   6.336   7.734   1.575 -0.4751  2.5589 -2.4983
  292MOL0     H40296   6.459   7.656   1.469 -0.5532 -0.9161 -0.8647
  293MOL0     O40297   8.428   2.899  10.578  0.1718  0.0651  0.3066
  293MOL0     C40298   8.415   3.025  10.568 -0.3587  0.0551 -0.2050
  293MOL0     O40299   8.520   3.113  10.562 -0.9449 -0.2605 -0.6417
  293MOL0     C40300   8.653   3.084  10.558  0.9212  0.0883 -0.5137
  293MOL0     C40301   8.738   3.200  10.554  0.7276  0.2526 -0.7281
  293MOL0     C40302   8.873   3.191  10.528 -0.4074  0.4185  0.0468
  293MOL0     C40303   8.938   3.076  10.497 -0.8101  0.4586 -0.4524
  293MOL0     O40304   9.073   3.085  10.459 -0.0843 -0.3404 -0.7043
  293MOL0     C40305   9.137   2.966  10.489 -0.3224  0.8283 -0.8244
  293MOL0     C40306   9.286   2.972  10.495 -0.0020  0.0632  0.0249
  293MOL0     C40307   9.336   2.998  10.355  0.5943  0.0366 -0.1735
  293MOL0     C40308   9.489   2.987  10.345 -0.5178 -0.2588 -0.6011
  293MOL0     C40309   9.549   2.996  10.207 -0.0921  0.2904  0.5701
  293MOL0     C40310   9.699   2.984  10.200  0.1055  0.1777 -1.0038
  293MOL0     C40311   9.746   2.971  10.052 -0.4603 -0.0045  0.2202
  293MOL0     C40312   9.885   3.031  10.037  0.4218 -0.4631 -0.4389
  293MOL0     N40313   9.971   2.937  10.102 -0.0820 -0.3806  0.6858
  293MOL0     C40314   9.997   2.936  10.235 -0.1286 -0.0867 -0.2604
  293MOL0     C40315  10.101   2.844  10.256  0.7002  0.3080  0.1054
  293MOL0     C40316  10.159   2.797  10.398  0.3336 -0.3093  0.3645
  293MOL0     C40317  10.299   2.746  10.394 -0.7928 -0.1239 -0.1881
  293MOL0     C40318  10.355   2.727  10.539  0.1050  0.3044 -0.7417
  293MOL0     C40319  10.492   2.656  10.530 -0.1819  0.6037 -0.3250
  293MOL0     O40320  10.523   2.611  10.661 -0.6213 -0.7495  0.8109
  293MOL0     C40321  10.644   2.550  10.684  0.3733  0.5438 -0.6080
  293MOL0     C40322  10.710   2.479  10.588 -1.0970  0.0614  0.4031
  293MOL0     C40323  10.838   2.415  10.607 -0.1186 -0.3557 -0.0838
  293MOL0     C40324  10.885   2.322  10.494  0.0126  0.3674  0.2398
  293MOL0     C40325  10.902   2.430  10.733 -0.8946  0.3275 -0.2611
  293MOL0     C40326  11.032   2.357  10.772 -0.4877  0.4533  0.4705
  293MOL0     O40327  11.093   2.416  10.887 -0.0132 -0.2222 -0.1640
  293MOL0     C40328  11.219   2.375  10.912  0.3472  0.7100  0.5484
  293MOL0     C40329  11.309   2.481  10.917 -0.3182  0.2567  0.2015
  293MOL0     C40330  11.450   2.453  10.925  0.3182 -0.9294  0.0965
  293MOL0     C40331  11.495   2.322  10.946 -0.3369 -0.4600 -0.2481
  293MOL0     O40332  11.622   2.271  10.959 -0.2997  0.6044  0.6289
  293MOL0     C40333  11.724   2.367  10.985  0.8788  0.2513  0.2210
  293MOL0     C40334  11.863   2.308  11.000  0.3484 -0.0739  1.3404
  293MOL0     C40335  11.880   2.183  11.096  0.5706 -0.4021  0.1610
  293MOL0     C40336  12.026   2.137  11.101  0.5966 -0.0032  0.4953
  293MOL0     C40337  12.129   2.205  11.204  0.5719 -0.1686  0.6665
  293MOL0     C40338  12.262   2.228  11.135  0.3198  0.2308  0.0501
  293MOL0     C40339  12.378   2.247  11.229 -0.2801 -0.5968 -0.5998
  293MOL0     C40340  12.499   2.300  11.160  0.4765  0.0043 -0.3298
  293MOL0    Cl40341  12.623   2.300  11.292  0.4448  0.5510  0.3481
  293MOL0     C40342  11.401   2.224  10.946 -0.5578 -0.2992 -0.7030
  293MOL0     C40343  11.269   2.245  10.919  0.7682  0.4632  0.5786
  293MOL0     O40344  11.077   2.260  10.709  0.0766  0.1050  0.0392
  293MOL0     C40345  10.838   2.509  10.831  0.3171 -0.4647 -0.5025
  293MOL0     C40346  10.710   2.557  10.804 -0.4266 -0.3060 -0.4070
  293MOL0     N40347  10.136   2.796  10.132 -0.2716  0.0521  0.1434
  293MOL0     N40348  10.055   2.847  10.042  1.1945 -0.6080  0.1060
  293MOL0     C40349   8.861   2.956  10.503 -0.9883 -0.3299  0.0655
  293MOL0     C40350   8.722   2.956  10.546  0.4445  0.8912  1.0378
  293MOL0     C40351   8.277   3.069  10.570  0.6499 -0.1180 -0.7271
  293MOL0     C40352   8.178   2.978  10.530  0.7799  0.5998 -0.1816
  293MOL0     C40353   8.039   3.006  10.518 -0.6148  0.6267 -0.2168
  293MOL0     C40354   8.003   3.133  10.547  0.5318  0.1147  1.2422
  293MOL0     O40355   7.869   3.168  10.541 -0.0018 -0.2553  0.5516
  293MOL0     C40356   7.787   3.126  10.433 -0.1160 -0.0082  0.3668
  293MOL0     C40357   7.824   3.213  10.314 -0.5531  0.1621  0.6766
  293MOL0     C40358   7.771   3.360  10.321 -0.1673 -0.3082 -0.2438
  293MOL0     C40359   7.630   3.387  10.352  0.2184 -0.1955 -0.6387
  293MOL0     C40360   7.615   3.525  10.388 -0.0915  0.1458 -0.6035
  293MOL0     C40361   7.596   3.644  10.421  0.4300  0.6272  0.2068
  293MOL0     C40362   8.093   3.225  10.601  0.4772  0.0536  0.2032
  293MOL0     C40363   8.230   3.201  10.603 -0.0315 -0.4044 -0.6194
  293MOL0     C40364   8.320   3.312  10.645  0.4817 -0.6502  0.0871
  293MOL0     H40365   8.693   3.297  10.574 -0.4425 -0.1745 -1.1729
  293MOL0     H40366   8.926   3.285  10.520  0.3252  0.0719  0.7016
  293MOL0     H40367   9.110   2.891  10.414 -0.0535  1.3823 -1.4945
  293MOL0     H40368   9.108   2.927  10.587  1.0669 -2.0136 -1.4398
  293MOL0     H40369   9.310   3.055  10.562 -0.0743  0.4857 -0.4648
  293MOL0     H40370   9.331   2.876  10.522 -0.4096 -0.0631  0.2608
  293MOL0     H40371   9.300   2.911  10.299 -1.1830 -0.2060  1.2669
  293MOL0     H40372   9.292   3.088  10.311  0.5051  1.5487  2.7598
  293MOL0     H40373   9.540   3.062  10.407 -0.2495 -1.6255  0.9167
  293MOL0     H40374   9.517   2.889  10.387 -1.1817  0.0644  0.6374
  293MOL0     H40375   9.524   3.092  10.162  0.2869 -0.3867 -1.1375
  293MOL0     H40376   9.502   2.918  10.148  0.6789 -2.4410  3.3009
  293MOL0     H40377   9.741   3.066  10.258  3.8564 -0.5274 -2.4813
  293MOL0     H40378   9.722   2.893  10.255 -0.7552  0.1437 -0.6864
  293MOL0     H40379   9.679   3.032   9.991  0.5390  1.1372  0.2277
  293MOL0     H40380   9.743   2.864  10.028 -3.0749 -0.0598  0.5336
  293MOL0     H40381   9.905   3.035   9.929  1.5077 -2.2235 -0.3518
  293MOL0     H40382   9.895   3.131  10.080 -2.0235  0.0754 -0.9864
  293MOL0     H40383   9.949   3.000  10.308  1.8135  2.5331 -1.1209
  293MOL0     H40384  10.097   2.716  10.437 -0.1411 -0.3424 -0.4251
  293MOL0     H40385  10.157   2.873  10.476 -1.9852 -1.8863  1.9679
  293MOL0     H40386  10.291   2.650  10.342 -1.6678  0.4087 -1.0747
  293MOL0     H40387  10.360   2.809  10.328  0.1413 -1.0886 -0.2866
  293MOL0     H40388  10.372   2.826  10.581 -0.2261 -0.2635  0.7718
  293MOL0     H40389  10.281   2.674  10.600 -2.5108  1.0159 -3.0765
  293MOL0     H40390  10.491   2.571  10.460  1.2849 -0.4898  0.9054
  293MOL0     H40391  10.563   2.733  10.498 -1.4339  2.5321  1.3287
  293MOL0     H40392  10.667   2.467  10.489  3.4683  2.5786 -2.2185
  293MOL0     H40393  10.824   2.345  10.406 -5.1975 -2.3489  2.7087
  293MOL0     H40394  10.855   2.220  10.520 -1.6844 -0.0329 -2.7810
  293MOL0     H40395  10.987   2.320  10.454  0.0174 -0.6925  0.2603
  293MOL0     H40396  11.268   2.582  10.913 -2.3686 -0.5643 -1.5336
  293MOL0     H40397  11.518   2.535  10.907 -2.3569  1.2208 -0.9835
  293MOL0     H40398  11.734   2.439  10.904  4.0173 -0.2414  0.0568
  293MOL0     H40399  11.690   2.414  11.078  0.1515 -1.0524  0.6409
  293MOL0     H40400  11.908   2.287  10.902  2.5912 -0.3564  2.3608
  293MOL0     H40401  11.931   2.389  11.030 -1.5526  2.1330  0.0198
  293MOL0     H40402  11.809   2.103  11.073 -0.7317  1.3528 -2.4222
  293MOL0     H40403  11.850   2.222  11.194  1.4627 -0.7509  0.5772
  293MOL0     H40404  12.073   2.149  11.003 -0.5743 -2.0681 -0.3841
  293MOL0     H40405  12.040   2.032  11.125  1.0148 -0.2247 -0.6432
  293MOL0     H40406  12.097   2.307  11.226  2.0660  0.2261  1.1674
  293MOL0     H40407  12.141   2.157  11.302 -0.5225  0.9129  1.3671
  293MOL0     H40408  12.249   2.305  11.059 -2.6581  1.8333  2.0363
  293MOL0     H40409  12.287   2.137  11.080  1.5097 -0.4806  1.6759
  293MOL0     H40410  12.403   2.142  11.247  1.7200 -0.0032  0.4468
  293MOL0     H40411  12.355   2.299  11.323  3.8068 -3.4513  2.3383
  293MOL0     H40412  12.490   2.398  11.111  0.3616 -0.9545 -2.3071
  293MOL0     H40413  12.524   2.223  11.087  2.4237  1.2194 -1.0275
  293MOL0     H40414  11.431   2.124  10.973  0.5756  0.7778  2.4943
  293MOL0     H40415  11.199   2.162  10.922  0.3939  0.7738  0.5360
  293MOL0     H40416  10.877   2.516  10.932  1.3806 -2.5376 -0.7124
  293MOL0     H40417  10.673   2.614  10.889  2.6420  1.6041 -0.1873
  293MOL0     H40418   8.905   2.858  10.488 -0.6617  0.0223 -1.4976
  293MOL0     H40419   8.669   2.862  10.539  2.3319 -0.1213 -1.0977
  293MOL0     H40420   8.206   2.878  10.500 -1.3303  0.1123 -0.6743
  293MOL0     H40421   7.970   2.930  10.483 -0.1279  0.9602 -2.0359
  293MOL0     H40422   7.806   3.020  10.411  1.1940  0.0473  1.1328
  293MOL0     H40423   7.682   3.125  10.463  0.2918  2.2728  2.1567
  293MOL0     H40424   7.774   3.171  10.227 -0.1490  0.5295  0.2616
  293MOL0     H40425   7.932   3.217  10.299 -0.5336  1.9979  0.9939
  293MOL0     H40426   7.843   3.405  10.392 -0.7135 -0.5749  0.4900
  293MOL0     H40427   7.789   3.408  10.225  0.0794 -1.8735 -1.0062
  293MOL0     H40428   7.591   3.326  10.435 -1.3382  2.2966  0.5807
  293MOL0     H40429   7.574   3.367  10.260 -0.5453 -0.4913 -0.1238
  293MOL0     H40430   7.559   3.743  10.440 -3.5393 -0.6611  0.1390
  293MOL0     H40431   8.051   3.321  10.629 -0.4342  0.2080 -1.5524
  293MOL0     H40432   8.356   3.292  10.746  0.9204 -1.8698 -0.2934
  293MOL0     H40433   8.411   3.327  10.585  0.1930  0.1540 -0.1565
  293MOL0     H40434   8.272   3.409  10.654  1.1333 -0.2847 -0.2656
  294MOL0     O40435   4.193   0.813   9.240  0.5960 -0.3482  0.2683
  294MOL0     C40436   4.154   0.927   9.205 -0.0900 -0.3889  0.2868
  294MOL0     O40437   4.236   1.039   9.173  0.0559  0.1002  0.7320
  294MOL0     C40438   4.358   1.053   9.238  0.0779 -0.0033  1.1304
  294MOL0     C40439   4.453   0.943   9.240 -0.1703 -0.2359  0.7032
  294MOL0     C40440   4.577   0.957   9.305 -0.3158  0.2801 -0.4755
  294MOL0     C40441   4.599   1.079   9.369  0.2673 -0.5322 -0.0852
  294MOL0     O40442   4.696   1.087   9.462  0.2276  0.7158  0.6161
  294MOL0     C40443   4.650   1.093   9.601  0.5104 -0.1066  0.0947
  294MOL0     C40444   4.765   1.075   9.703 -0.2937  0.2142 -0.3920
  294MOL0     C40445   4.897   1.153   9.668  0.1071 -0.5555  0.4500
  294MOL0     C40446   5.020   1.136   9.754  0.0640  0.5153 -0.4622
  294MOL0     C40447   5.153   1.197   9.700  0.7496  0.2463  0.3674
  294MOL0     C40448   5.275   1.212   9.800 -0.3419  0.6064 -0.6406
  294MOL0     C40449   5.399   1.230   9.717  0.4077 -0.7204 -0.2900
  294MOL0     C40450   5.516   1.269   9.809  0.2756  0.1133  0.6788
  294MOL0     N40451   5.628   1.314   9.729  0.0227 -0.4836 -0.0030
  294MOL0     C40452   5.640   1.442   9.684  0.2566 -0.6063 -0.3699
  294MOL0     C40453   5.768   1.461   9.658  0.3294 -0.5861 -0.0007
  294MOL0     C40454   5.829   1.590   9.616 -0.0727 -0.8686 -0.0923
  294MOL0     C40455   5.873   1.675   9.735 -0.3036  0.0314  0.2782
  294MOL0     C40456   5.985   1.614   9.830  0.4449 -0.5524  0.3817
  294MOL0     C40457   6.106   1.563   9.756 -0.1118  0.2015 -0.1344
  294MOL0     O40458   6.176   1.680   9.701  0.2685  0.2934  0.7410
  294MOL0     C40459   6.306   1.670   9.664 -0.6806 -0.5890  0.0610
  294MOL0     C40460   6.392   1.564   9.700 -0.1729 -0.7063  0.7995
  294MOL0     C40461   6.524   1.559   9.656  0.9112 -0.6456  0.1638
  294MOL0     C40462   6.598   1.433   9.661  0.1182  0.1982  0.2188
  294MOL0     C40463   6.568   1.667   9.576  0.2088 -0.7905  0.1951
  294MOL0     C40464   6.705   1.664   9.522 -0.3161  0.1291 -0.7352
  294MOL0     O40465   6.719   1.705   9.385  0.3668 -0.9791 -0.0551
  294MOL0     C40466   6.848   1.714   9.343 -0.5860 -0.1696  0.1858
  294MOL0     C40467   6.884   1.814   9.259  0.3032 -0.2823  0.5617
  294MOL0     C40468   7.015   1.838   9.223 -0.0395  0.6233 -0.3895
  294MOL0     C40469   7.113   1.753   9.279 -0.7954 -0.6448  0.2139
  294MOL0     O40470   7.249   1.764   9.252 -0.2145 -0.0147  0.1695
  294MOL0     C40471   7.307   1.893   9.291 -0.3234  0.8264  0.0445
  294MOL0     C40472   7.459   1.886   9.256  0.5055 -0.1907 -0.7177
  294MOL0     C40473   7.531   2.014   9.297 -0.6451  0.0301  0.2136
  294MOL0     C40474   7.623   2.064   9.184 -0.2477 -0.7368 -0.6371
  294MOL0     C40475   7.673   2.208   9.211 -0.0697  0.5146  0.5074
  294MOL0     C40476   7.556   2.303   9.238 -0.2138 -0.6827  0.5997
  294MOL0     C40477   7.544   2.354   9.389 -0.6600  0.2177  0.3637
  294MOL0     C40478   7.405   2.411   9.412 -0.5227 -0.3106 -0.5724
  294MOL0    Cl40479   7.283   2.290   9.428 -0.1653  0.1149 -0.4728
  294MOL0     C40480   7.076   1.639   9.344 -0.8279 -0.0114 -0.2692
  294MOL0     C40481   6.944   1.621   9.369 -0.6127 -0.6336 -0.2043
  294MOL0     O40482   6.794   1.657   9.615  0.1552  0.4378 -0.5753
  294MOL0     C40483   6.483   1.776   9.544 -0.4205  0.1726  0.4220
  294MOL0     C40484   6.349   1.772   9.587  0.7052 -0.2684  0.4598
  294MOL0     N40485   5.831   1.340   9.679  0.0337  0.3935 -0.4232
  294MOL0     N40486   5.747   1.255   9.720 -0.4465 -0.3664  0.2742
  294MOL0     C40487   4.515   1.188   9.359  0.2048  0.1848  0.1321
  294MOL0     C40488   4.402   1.181   9.280  0.8928 -0.5459  0.0232
  294MOL0     C40489   4.010   0.946   9.180 -0.7733 -0.0664  0.1807
  294MOL0     C40490   3.965   1.076   9.164 -0.5988  0.0386 -0.3310
  294MOL0     C40491   3.842   1.107   9.112 -0.5872  0.7773  0.7797
  294MOL0     C40492   3.751   1.007   9.078  0.3311  0.3655  0.1890
  294MOL0     O40493   3.619   1.034   9.035  0.0296 -0.0157 -0.0059
  294MOL0     C40494   3.582   1.167   8.991  0.0674 -0.4564  0.2379
  294MOL0     C40495   3.448   1.176   8.923  0.3913 -0.1816  0.6654
  294MOL0     C40496   3.333   1.118   8.999 -0.9029  0.3180  0.0300
  294MOL0     C40497   3.202   1.117   8.920 -0.0185  0.4492 -0.2274
  294MOL0     C40498   3.152   0.988   8.875 -0.2584  0.0679  0.3763
  294MOL0     C40499   3.115   0.875   8.848  0.1922  0.7924  0.8171
  294MOL0     C40500   3.789   0.881   9.112  0.5634 -0.8065  0.4977
  294MOL0     C40501   3.915   0.848   9.164  0.1304  0.3522  0.2125
  294MOL0     C40502   3.934   0.706   9.205 -0.7804  0.4552  0.2865
  294MOL0     H40503   4.427   0.848   9.195  2.0688 -0.0359 -1.2219
  294MOL0     H40504   4.649   0.877   9.318 -2.7000 -1.8577  0.3712
  294MOL0     H40505   4.565   1.027   9.620 -1.6049  2.0844 -1.2647
  294MOL0     H40506   4.600   1.187   9.626 -0.3854 -0.5153 -0.1330
  294MOL0     H40507   4.725   1.106   9.800  1.3743  0.4800  0.2525
  294MOL0     H40508   4.785   0.969   9.719  1.4848  0.8095  1.9499
  294MOL0     H40509   4.917   1.137   9.562 -1.9795  0.7833 -0.2127
  294MOL0     H40510   4.876   1.260   9.681 -1.3294 -0.8325  0.6527
  294MOL0     H40511   5.004   1.185   9.850 -0.6742 -1.6689  0.5973
  294MOL0     H40512   5.040   1.029   9.759 -0.0183  0.5282  0.2150
  294MOL0     H40513   5.128   1.297   9.665 -1.9474 -0.7020 -0.6924
  294MOL0     H40514   5.182   1.141   9.610 -1.1984  1.1168 -0.8689
  294MOL0     H40515   5.264   1.306   9.855  1.9586 -0.9001  2.7608
  294MOL0     H40516   5.273   1.123   9.865  1.7756 -1.4891 -3.2011
  294MOL0     H40517   5.385   1.315   9.650 -0.3156  1.0011  1.9240
  294MOL0     H40518   5.414   1.138   9.659 -0.3249  1.2751 -3.9558
  294MOL0     H40519   5.483   1.351   9.873 -1.6994  1.5159 -1.9494
  294MOL0     H40520   5.556   1.192   9.874  1.6813 -1.7959 -2.2115
  294MOL0     H40521   5.562   1.516   9.681  0.3477 -0.5115 -0.3964
  294MOL0     H40522   5.754   1.643   9.556  1.8143  0.6636 -1.1886
  294MOL0     H40523   5.908   1.570   9.543  0.4010  2.1282 -0.5389
  294MOL0     H40524   5.921   1.764   9.693 -1.6771  1.1747  1.0182
  294MOL0     H40525   5.785   1.709   9.791  0.1458  0.5625  0.6693
  294MOL0     H40526   6.020   1.695   9.894 -0.1181  1.2363 -1.4694
  294MOL0     H40527   5.939   1.537   9.892 -0.4036  0.0718  0.5423
  294MOL0     H40528   6.161   1.511   9.835 -0.0655  0.8455  0.2603
  294MOL0     H40529   6.095   1.487   9.678 -1.8151 -3.1919  3.0860
  294MOL0     H40530   6.366   1.476   9.758 -0.3508  0.1889  2.1256
  294MOL0     H40531   6.520   1.359   9.676  0.6535 -0.6274 -0.9224
  294MOL0     H40532   6.672   1.436   9.742  1.8337  1.6605 -1.3079
  294MOL0     H40533   6.659   1.406   9.574  1.3491 -1.4417  1.5196
  294MOL0     H40534   6.803   1.882   9.232 -0.8371 -2.0440 -0.7412
  294MOL0     H40535   7.060   1.923   9.172  1.1693  0.2117 -0.0456
  294MOL0     H40536   7.263   1.979   9.239 -0.8080 -0.1027 -1.1355
  294MOL0     H40537   7.286   1.919   9.395 -1.0072  2.6659 -0.5040
  294MOL0     H40538   7.498   1.803   9.315  1.2163 -0.0992 -1.0434
  294MOL0     H40539   7.468   1.865   9.149 -3.8018 -2.3798 -0.8620
  294MOL0     H40540   7.590   1.984   9.384  1.0618 -0.5729 -1.1004
  294MOL0     H40541   7.460   2.091   9.325 -0.3090 -0.0747  1.3890
  294MOL0     H40542   7.570   2.057   9.089 -0.8377 -3.0053 -0.2063
  294MOL0     H40543   7.713   2.001   9.182  0.2784 -0.2340  2.3547
  294MOL0     H40544   7.741   2.214   9.297  0.4051 -0.6150  0.2374
  294MOL0     H40545   7.733   2.237   9.124  0.6850  1.3596  1.2896
  294MOL0     H40546   7.465   2.258   9.195  0.9321 -2.0820 -0.4494
  294MOL0     H40547   7.579   2.391   9.176  1.6999 -3.5495 -3.1927
  294MOL0     H40548   7.625   2.424   9.413 -1.0225  0.6868  0.2529
  294MOL0     H40549   7.562   2.261   9.443  0.6559 -1.1132 -2.2117
  294MOL0     H40550   7.374   2.484   9.336 -0.8161 -0.5461 -0.6838
  294MOL0     H40551   7.415   2.464   9.507 -5.5695 -0.3727  0.2696
  294MOL0     H40552   7.149   1.564   9.374  0.3205  1.1116 -0.1676
  294MOL0     H40553   6.932   1.527   9.421  0.7825 -0.8429 -0.2267
  294MOL0     H40554   6.520   1.863   9.491  0.9942  0.3678  1.6758
  294MOL0     H40555   6.281   1.853   9.563 -1.1881 -2.4946 -2.4976
  294MOL0     H40556   4.543   1.283   9.403  0.7888  0.1615 -0.1846
  294MOL0     H40557   4.335   1.265   9.264  1.5504 -0.1234 -0.6345
  294MOL0     H40558   4.041   1.149   9.138  0.2561 -1.1178 -1.2016
  294MOL0     H40559   3.824   1.211   9.087  1.0041  0.1164 -4.3997
  294MOL0     H40560   3.580   1.240   9.072 -2.1657 -0.2361  0.0639
  294MOL0     H40561   3.656   1.201   8.918 -0.1331 -1.2766 -0.3697
  294MOL0     H40562   3.464   1.116   8.833  0.1700  2.0548 -0.9381
  294MOL0     H40563   3.433   1.281   8.897  0.9215 -0.0704  0.8034
  294MOL0     H40564   3.355   1.013   9.016 -4.7692 -0.6129  0.3533
  294MOL0     H40565   3.318   1.172   9.094  0.2964  2.4104 -0.9047
  294MOL0     H40566   3.207   1.183   8.833  3.5540  0.1002 -0.4268
  294MOL0     H40567   3.131   1.150   8.996  0.5539 -2.1242  1.5533
  294MOL0     H40568   3.086   0.777   8.815  0.9869  1.3229 -1.7362
  294MOL0     H40569   3.716   0.803   9.096  0.3240 -0.4915  0.0332
  294MOL0     H40570   3.959   0.703   9.311 -0.1596  0.1585  0.1359
  294MOL0     H40571   3.848   0.643   9.181 -0.4501 -0.0957  0.5290
  294MOL0     H40572   4.010   0.650   9.149 -2.7967 -0.4253 -1.7154
  295MOL0     O40573   3.196   6.459  10.838 -0.4083  0.6645  0.1650
  295MOL0     C40574   3.107   6.393  10.895  0.0047 -0.7921 -0.0903
  295MOL0     O40575   3.029   6.295  10.828 -0.4029 -0.3649 -0.0227
  295MOL0     C40576   3.046   6.268  10.695 -0.5244  0.2595  0.5218
  295MOL0     C40577   3.103   6.146  10.659  0.6772 -0.3819 -0.6298
  295MOL0     C40578   3.109   6.103  10.525 -0.4103 -0.0015 -0.0286
  295MOL0     C40579   3.068   6.185  10.422  0.6565 -0.1884  0.4984
  295MOL0     O40580   3.082   6.151  10.290  0.0877  0.5281  0.2654
  295MOL0     C40581   3.111   6.254  10.189  0.3644 -1.2367 -0.3667
  295MOL0     C40582   3.219   6.206  10.099  0.0500  0.7680 -0.3846
  295MOL0     C40583   3.355   6.186  10.168  0.5475 -0.2057  0.1926
  295MOL0     C40584   3.437   6.108  10.061  0.9473  0.0796  0.0189
  295MOL0     C40585   3.582   6.108  10.101  0.2142  0.0838  0.0393
  295MOL0     C40586   3.674   6.048  10.001  0.7600 -0.0530 -0.5962
  295MOL0     C40587   3.821   6.025  10.044  0.1393 -0.3208  0.3144
  295MOL0     C40588   3.893   6.147  10.094  0.1818 -0.3993  0.4523
  295MOL0     N40589   4.027   6.111  10.134 -0.0016  0.1743  1.0354
  295MOL0     C40590   4.059   6.027  10.246 -0.2630  0.3772  0.0660
  295MOL0     C40591   4.194   6.013  10.243  0.2464 -0.4795 -0.5979
  295MOL0     C40592   4.259   5.947  10.351 -0.2367 -0.4193  0.3509
  295MOL0     C40593   4.264   5.794  10.352  0.3099  0.5908 -0.3036
  295MOL0     C40594   4.361   5.730  10.452 -0.0959 -0.0180 -0.4132
  295MOL0     C40595   4.357   5.576  10.444  0.3940  0.8138 -0.7876
  295MOL0     O40596   4.420   5.553  10.320 -0.3641  0.3038  0.8928
  295MOL0     C40597   4.553   5.527  10.309  0.4233 -0.1611  0.1548
  295MOL0     C40598   4.608   5.413  10.363  0.0693  0.1328 -1.2093
  295MOL0     C40599   4.746   5.383  10.374  0.0872  0.6227 -0.2557
  295MOL0     C40600   4.779   5.239  10.416  0.4658 -0.2964 -0.9136
  295MOL0     C40601   4.836   5.485  10.324  0.8698  0.0154 -0.4021
  295MOL0     C40602   4.983   5.460  10.326 -0.3099  0.0968  0.0729
  295MOL0     O40603   5.056   5.554  10.254  0.1874 -0.3367  0.4545
  295MOL0     C40604   5.188   5.561  10.231 -0.6445 -0.2394  0.2982
  295MOL0     C40605   5.276   5.453  10.234 -0.1465  0.3227  0.1540
  295MOL0     C40606   5.412   5.476  10.208 -0.0939  1.4520  0.4736
  295MOL0     C40607   5.460   5.603  10.179 -1.1393 -0.6018 -0.5632
  295MOL0     O40608   5.596   5.625  10.150 -0.6956 -0.4443 -0.1776
  295MOL0     C40609   5.655   5.548  10.044 -0.1621 -0.2378 -0.4064
  295MOL0     C40610   5.799   5.605  10.034 -0.4881 -0.1880 -0.4090
  295MOL0     C40611   5.797   5.749   9.970 -0.0707 -0.0437  0.2055
  295MOL0     C40612   5.928   5.816   9.940  0.1686  0.3991  0.0119
  295MOL0     C40613   6.005   5.740   9.833  0.5233  0.2511  0.1020
  295MOL0     C40614   6.140   5.796   9.827 -0.5556 -0.2253 -0.3198
  295MOL0     C40615   6.224   5.743   9.710 -0.6022 -0.2223 -0.2758
  295MOL0     C40616   6.361   5.795   9.703 -0.6652 -0.6418  0.6582
  295MOL0    Cl40617   6.466   5.698   9.815 -0.1379 -0.2645 -0.2597
  295MOL0     C40618   5.379   5.711  10.183  0.1260  0.2145  0.6036
  295MOL0     C40619   5.243   5.686  10.204 -0.5214  0.6533 -0.1407
  295MOL0     O40620   5.036   5.377  10.392 -0.1581  0.2856 -0.5652
  295MOL0     C40621   4.778   5.585  10.251  0.8716  0.3309  0.1036
  295MOL0     C40622   4.637   5.607  10.241 -1.2176  0.4673  0.3712
  295MOL0     N40623   4.242   6.088  10.135  0.1994 -0.0010 -0.2946
  295MOL0     N40624   4.146   6.139  10.076 -0.4459 -0.2511  0.5003
  295MOL0     C40625   3.019   6.309  10.456 -0.1642 -0.0379 -0.5274
  295MOL0     C40626   3.009   6.348  10.591 -0.1745  0.4974  0.9969
  295MOL0     C40627   3.091   6.404  11.034  0.1805 -1.1353 -0.3170
  295MOL0     C40628   3.006   6.321  11.101 -0.4212  0.0381 -0.1477
  295MOL0     C40629   2.998   6.324  11.242  0.4129  0.0807 -0.4360
  295MOL0     C40630   3.080   6.408  11.320  0.6466 -0.0419  0.1234
  295MOL0     O40631   3.096   6.394  11.458 -0.1030 -0.1118 -0.1471
  295MOL0     C40632   2.992   6.433  11.540  1.0174 -0.2442  0.2607
  295MOL0     C40633   3.049   6.435  11.687 -0.0701 -0.7312  0.0676
  295MOL0     C40634   3.150   6.552  11.710  0.1436  0.5096  0.3522
  295MOL0     C40635   3.169   6.589  11.858  0.5329 -1.0312  0.2240
  295MOL0     C40636   3.207   6.477  11.937  0.1043 -0.0004  0.4423
  295MOL0     C40637   3.266   6.400  12.013 -0.5741 -0.3716 -0.5224
  295MOL0     C40638   3.159   6.500  11.256  0.7739  0.1364  0.8699
  295MOL0     C40639   3.157   6.501  11.120  0.2568 -0.1758 -0.2489
  295MOL0     C40640   3.243   6.616  11.064 -0.9721  0.4613  0.0711
  295MOL0     H40641   3.141   6.076  10.733  0.3198 -0.7149 -0.7576
  295MOL0     H40642   3.147   6.005  10.498  1.3354  0.0571  1.9444
  295MOL0     H40643   3.145   6.348  10.233 -1.1767  0.2530 -2.1876
  295MOL0     H40644   3.018   6.276  10.136 -2.2707  1.4029  4.6470
  295MOL0     H40645   3.199   6.106  10.060 -0.5661 -0.2478  2.3373
  295MOL0     H40646   3.229   6.278  10.017 -2.4303  1.2224 -0.3682
  295MOL0     H40647   3.395   6.288  10.172  0.0037  0.0023  0.5424
  295MOL0     H40648   3.356   6.136  10.265 -1.5926  0.0803  0.4058
  295MOL0     H40649   3.402   6.005  10.055 -1.6109  0.5492  3.6325
  295MOL0     H40650   3.428   6.150   9.961  4.3718 -1.3249 -1.0531
  295MOL0     H40651   3.595   6.041  10.187  3.2477 -0.8033 -1.0126
  295MOL0     H40652   3.617   6.209  10.127  1.2289  0.5325 -2.7885
  295MOL0     H40653   3.645   5.949   9.966  1.2686 -0.1655 -0.7006
  295MOL0     H40654   3.677   6.112   9.912 -2.8382  0.5434 -0.4438
  295MOL0     H40655   3.871   5.976   9.960 -0.3835 -1.2501  0.5392
  295MOL0     H40656   3.810   5.954  10.126 -0.5281  0.1928  0.6816
  295MOL0     H40657   3.896   6.216  10.009  1.4551 -2.0053 -0.8836
  295MOL0     H40658   3.831   6.202  10.165 -3.6032 -0.2645 -2.5826
  295MOL0     H40659   3.993   5.972  10.311  0.0574 -2.4355 -1.8162
  295MOL0     H40660   4.227   6.003  10.439 -0.5191 -1.3835  0.8812
  295MOL0     H40661   4.362   5.984  10.349  0.0229 -1.1393 -1.0335
  295MOL0     H40662   4.160   5.771  10.380 -0.3386  1.2270 -2.0792
  295MOL0     H40663   4.302   5.763  10.255  3.1260  1.1788  0.5337
  295MOL0     H40664   4.462   5.752  10.417  0.5870  0.0360  1.4762
  295MOL0     H40665   4.353   5.773  10.553  4.1611  2.3868 -0.8395
  295MOL0     H40666   4.399   5.519  10.528  0.3801 -0.2297 -1.4650
  295MOL0     H40667   4.255   5.537  10.430  0.6003  0.3960 -1.1705
  295MOL0     H40668   4.541   5.346  10.416 -0.4636  1.8620  0.3979
  295MOL0     H40669   4.804   5.241  10.522 -1.1440 -0.9158 -0.5015
  295MOL0     H40670   4.864   5.196  10.362  0.5042 -1.4485  0.0362
  295MOL0     H40671   4.697   5.170  10.400 -1.3290  1.0987  1.5836
  295MOL0     H40672   5.242   5.350  10.240 -0.3321  0.1900 -2.2379
  295MOL0     H40673   5.481   5.393  10.199 -1.8195 -0.0668  0.7189
  295MOL0     H40674   5.670   5.446  10.078  1.6208  1.1164  3.4159
  295MOL0     H40675   5.615   5.561   9.943  1.0425  1.6600 -0.7024
  295MOL0     H40676   5.854   5.602  10.129 -0.9984  1.7966 -0.0057
  295MOL0     H40677   5.851   5.537   9.966 -1.1199 -0.7377 -0.3521
  295MOL0     H40678   5.740   5.815  10.037  0.1859 -1.7324  2.1609
  295MOL0     H40679   5.742   5.755   9.875  1.5574 -0.9187 -0.8323
  295MOL0     H40680   5.980   5.807  10.036 -0.5004 -2.2748  0.2113
  295MOL0     H40681   5.930   5.923   9.916  0.4520  0.6004  0.8893
  295MOL0     H40682   6.023   5.634   9.851 -0.9526 -0.3075 -1.4687
  295MOL0     H40683   5.956   5.761   9.738  0.5505  3.8810  0.7515
  295MOL0     H40684   6.202   5.768   9.913 -1.4587  2.3173  1.2764
  295MOL0     H40685   6.137   5.905   9.826  0.9455 -0.0623  2.5493
  295MOL0     H40686   6.181   5.782   9.618  2.2320 -0.3849 -1.7820
  295MOL0     H40687   6.221   5.633   9.711 -0.9483 -0.2150  0.4049
  295MOL0     H40688   6.364   5.900   9.734 -2.5448  0.9788 -3.7992
  295MOL0     H40689   6.413   5.787   9.607  3.4632  0.1415  2.5656
  295MOL0     H40690   5.417   5.811  10.162 -1.3313  0.9062  1.1442
  295MOL0     H40691   5.181   5.775  10.208  0.8349  1.8696 -3.0759
  295MOL0     H40692   4.831   5.659  10.193 -1.7024  2.9681  0.8408
  295MOL0     H40693   4.600   5.690  10.181 -0.7107  0.4225  0.0010
  295MOL0     H40694   2.978   6.377  10.383 -0.5881 -2.8176 -3.0787
  295MOL0     H40695   2.945   6.432  10.614 -2.4450 -1.3853  2.0017
  295MOL0     H40696   2.940   6.257  11.043 -0.9240  1.6783 -1.4333
  295MOL0     H40697   2.927   6.261  11.293 -2.1028  1.6873 -1.7200
  295MOL0     H40698   2.949   6.528  11.509  0.1318 -1.1717 -1.5129
  295MOL0     H40699   2.915   6.357  11.520  0.2762  0.3178  0.9545
  295MOL0     H40700   3.107   6.345  11.709  2.0440  1.4148  4.5383
  295MOL0     H40701   2.965   6.431  11.757 -1.5631  0.3420 -1.5988
  295MOL0     H40702   3.250   6.543  11.666  0.5109  1.7027  0.9052
  295MOL0     H40703   3.097   6.634  11.660 -0.9263 -1.1327 -1.3238
  295MOL0     H40704   3.074   6.635  11.889  1.0035 -0.5055  0.9283
  295MOL0     H40705   3.249   6.664  11.856  0.0801 -0.4899 -2.7056
  295MOL0     H40706   3.341   6.352  12.072 -0.5020 -0.9351 -1.0534
  295MOL0     H40707   3.228   6.561  11.314  1.8600 -0.8679  0.6827
  295MOL0     H40708   3.266   6.698  11.132 -0.5203  0.0151  0.4626
  295MOL0     H40709   3.344   6.576  11.046 -0.8807  1.8660 -3.3986
  295MOL0     H40710   3.193   6.645  10.971 -1.2084 -3.3835 -1.1972
  296MOL0     O40711   2.668   4.493   7.703 -0.6977  0.0586 -0.1370
  296MOL0     C40712   2.634   4.437   7.599  1.0804  0.9222 -0.7204
  296MOL0     O40713   2.706   4.425   7.490 -0.4201 -0.0203 -0.2356
  296MOL0     C40714   2.846   4.412   7.486  0.4714  0.3361  0.1742
  296MOL0     C40715   2.886   4.379   7.352 -0.9611  0.1405  0.6568
  296MOL0     C40716   3.015   4.348   7.320  1.2694 -0.6119 -0.4444
  296MOL0     C40717   3.106   4.353   7.427 -0.0492  1.3165  0.5902
  296MOL0     O40718   3.238   4.331   7.389  0.2701  0.6406  0.1013
  296MOL0     C40719   3.345   4.394   7.464 -0.7866  0.0520 -0.1805
  296MOL0     C40720   3.464   4.406   7.375 -0.2443 -0.2035  0.0486
  296MOL0     C40721   3.579   4.494   7.428  0.0994 -0.8599 -0.6419
  296MOL0     C40722   3.659   4.424   7.536 -0.4094 -0.5419  0.3123
  296MOL0     C40723   3.752   4.518   7.611  0.2519  0.6421  0.3378
  296MOL0     C40724   3.829   4.446   7.727  0.2172  0.2580 -0.5202
  296MOL0     C40725   3.929   4.343   7.682 -0.8058 -0.1804 -0.5075
  296MOL0     C40726   3.996   4.284   7.803  0.1986 -0.0005  0.5544
  296MOL0     N40727   4.105   4.366   7.861 -0.1014  0.4267  0.2148
  296MOL0     C40728   4.096   4.406   7.992 -0.4331  0.3389 -0.0220
  296MOL0     C40729   4.195   4.496   8.010 -0.5887 -0.6116 -0.1476
  296MOL0     C40730   4.231   4.567   8.134 -0.3016 -0.1572 -0.3774
  296MOL0     C40731   4.145   4.684   8.174 -1.3074  0.7378 -0.7989
  296MOL0     C40732   4.116   4.792   8.078  0.6858  0.3961 -0.2165
  296MOL0     C40733   4.243   4.858   8.022 -0.0838 -0.9851 -0.1923
  296MOL0     O40734   4.350   4.877   8.119  0.4539 -0.0488  0.1257
  296MOL0     C40735   4.477   4.877   8.090  1.1335 -0.1483  0.5790
  296MOL0     C40736   4.564   4.865   8.195 -0.2159  0.3721  0.3363
  296MOL0     C40737   4.709   4.869   8.179  0.3170  0.1210 -0.0328
  296MOL0     C40738   4.791   4.844   8.303  0.1276 -0.7374 -0.0912
  296MOL0     C40739   4.753   4.889   8.041 -1.0582  0.1504  0.0773
  296MOL0     C40740   4.893   4.875   7.997 -0.0099 -0.8590 -0.3950
  296MOL0     O40741   4.935   4.954   7.896  1.1379 -0.0393  0.5566
  296MOL0     C40742   5.047   4.909   7.829 -0.0414  0.0631  0.4833
  296MOL0     C40743   5.017   4.888   7.695 -0.5448  0.2829  0.6078
  296MOL0     C40744   5.127   4.864   7.606  0.2575 -0.2507  0.4232
  296MOL0     C40745   5.262   4.850   7.642 -1.3057  0.5713 -0.1151
  296MOL0     O40746   5.352   4.815   7.541  0.6793 -0.6420 -0.3053
  296MOL0     C40747   5.490   4.804   7.572  0.9462 -0.0376 -0.1198
  296MOL0     C40748   5.512   4.671   7.640  0.8176  0.2876 -0.2768
  296MOL0     C40749   5.654   4.619   7.666 -0.5096  0.3369  0.9931
  296MOL0     C40750   5.728   4.610   7.538 -0.3026  0.4862  0.0923
  296MOL0     C40751   5.876   4.568   7.565  0.1615 -0.2517  0.8059
  296MOL0     C40752   5.950   4.541   7.437  0.1278 -0.8586 -0.0417
  296MOL0     C40753   6.100   4.485   7.461  0.3268  0.0541 -0.0693
  296MOL0     C40754   6.176   4.421   7.338 -0.5530  0.4187 -0.0469
  296MOL0    Cl40755   6.358   4.395   7.362 -0.4225  0.4374  0.1066
  296MOL0     C40756   5.284   4.874   7.781 -0.1139  0.1559  0.5058
  296MOL0     C40757   5.177   4.901   7.876 -1.0804 -0.8091  0.4620
  296MOL0     O40758   4.974   4.817   8.066  0.5448 -0.3932  0.0139
  296MOL0     C40759   4.661   4.906   7.942 -0.5381 -0.1072 -0.0272
  296MOL0     C40760   4.523   4.899   7.964 -0.0662 -0.4208 -0.1408
  296MOL0     N40761   4.268   4.511   7.893  0.5237 -0.4025  0.1848
  296MOL0     N40762   4.208   4.433   7.802  0.4879  0.0967 -0.0428
  296MOL0     C40763   3.064   4.381   7.559 -0.6316 -0.5181  0.1034
  296MOL0     C40764   2.934   4.412   7.588  0.5740 -0.3073 -0.7015
  296MOL0     C40765   2.491   4.400   7.584 -0.2545  0.9201 -0.7746
  296MOL0     C40766   2.440   4.371   7.458 -0.1490 -0.6721 -0.4565
  296MOL0     C40767   2.307   4.344   7.433  0.1749 -1.0208  0.3021
  296MOL0     C40768   2.220   4.331   7.538 -0.4132  0.0178  0.0582
  296MOL0     O40769   2.091   4.284   7.533 -0.4899  0.1241 -0.2021
  296MOL0     C40770   2.034   4.262   7.405 -0.4298 -0.1520  0.0251
  296MOL0     C40771   2.060   4.118   7.367 -0.0642 -0.3966 -0.1056
  296MOL0     C40772   1.953   4.080   7.265 -0.0761  0.1440  0.3522
  296MOL0     C40773   1.975   4.162   7.139  1.2194 -0.6163 -0.3013
  296MOL0     C40774   1.938   4.097   7.013 -0.5114 -0.6239 -0.7946
  296MOL0     C40775   1.874   4.071   6.915 -0.4268  0.0845 -1.2865
  296MOL0     C40776   2.275   4.344   7.671  0.5480 -0.2413 -0.1559
  296MOL0     C40777   2.404   4.388   7.693 -0.2984  0.6514 -0.3075
  296MOL0     C40778   2.431   4.425   7.835  0.5808 -0.0033  0.3432
  296MOL0     H40779   2.818   4.378   7.269  2.6613  1.0718 -2.6147
  296MOL0     H40780   3.038   4.335   7.215  0.1467  0.9633 -0.9253
  296MOL0     H40781   3.369   4.349   7.561  2.2016 -2.2953 -1.8093
  296MOL0     H40782   3.308   4.495   7.481 -1.2544 -0.0363 -0.6411
  296MOL0     H40783   3.498   4.304   7.356  1.6903 -0.2240  3.0748
  296MOL0     H40784   3.442   4.454   7.279  1.5246  1.0120  0.2298
  296MOL0     H40785   3.646   4.524   7.347 -0.4833  1.7247 -0.2556
  296MOL0     H40786   3.537   4.586   7.469  1.3334  0.4591 -2.1839
  296MOL0     H40787   3.599   4.390   7.621 -0.8235  3.9809  2.1094
  296MOL0     H40788   3.707   4.337   7.490  0.4033  0.4592 -0.8201
  296MOL0     H40789   3.700   4.611   7.637  0.8849  1.1309 -0.0977
  296MOL0     H40790   3.829   4.540   7.537  0.3169  0.6893  0.4187
  296MOL0     H40791   3.894   4.524   7.767 -0.5854  0.9460 -0.5280
  296MOL0     H40792   3.765   4.418   7.811  1.4302 -1.0630  0.0119
  296MOL0     H40793   4.000   4.392   7.615 -2.2547 -1.0459 -2.8008
  296MOL0     H40794   3.876   4.264   7.627  0.9159 -0.5880 -1.6694
  296MOL0     H40795   3.929   4.249   7.882  1.8101  0.3962  2.1605
  296MOL0     H40796   4.044   4.193   7.765  2.8766  1.7545 -0.5928
  296MOL0     H40797   4.022   4.383   8.068 -0.5803  1.5011  0.2023
  296MOL0     H40798   4.335   4.599   8.128 -0.5291  0.7744  0.4157
  296MOL0     H40799   4.217   4.494   8.214 -0.9129  1.1785  0.7582
  296MOL0     H40800   4.047   4.642   8.198 -1.2425  0.8682 -0.2951
  296MOL0     H40801   4.185   4.729   8.266 -0.4692  0.2751 -0.9230
  296MOL0     H40802   4.054   4.756   7.996 -0.9207  0.8861  0.7484
  296MOL0     H40803   4.056   4.871   8.124  0.8464 -0.4885  1.5959
  296MOL0     H40804   4.284   4.798   7.940  0.3287  1.2533 -1.7085
  296MOL0     H40805   4.214   4.953   7.976 -5.4965 -1.2349  2.0181
  296MOL0     H40806   4.526   4.838   8.294 -0.5944  0.2430  0.1591
  296MOL0     H40807   4.831   4.743   8.290 -0.0513 -0.4896 -3.3412
  296MOL0     H40808   4.729   4.841   8.393  0.4518  3.8169  0.5154
  296MOL0     H40809   4.869   4.920   8.314 -0.7260  0.1910 -0.3472
  296MOL0     H40810   4.914   4.894   7.663 -0.7648 -1.8820  0.7569
  296MOL0     H40811   5.116   4.844   7.500  1.0552 -1.8667  0.6007
  296MOL0     H40812   5.544   4.795   7.477  1.5022  1.2762  0.0406
  296MOL0     H40813   5.546   4.885   7.619  1.3801  0.4851 -1.4954
  296MOL0     H40814   5.465   4.664   7.738 -3.4619  0.4849 -2.1195
  296MOL0     H40815   5.455   4.598   7.582 -0.5176  1.4135 -0.4444
  296MOL0     H40816   5.643   4.515   7.701  0.5376 -1.5436 -3.5764
  296MOL0     H40817   5.707   4.669   7.747  2.0326 -0.8819  0.1705
  296MOL0     H40818   5.734   4.705   7.484 -1.2426  1.1513  1.1235
  296MOL0     H40819   5.676   4.544   7.468 -0.1566  1.5125 -1.0276
  296MOL0     H40820   5.927   4.653   7.611  0.9321 -0.8603  1.1074
  296MOL0     H40821   5.884   4.479   7.629  0.8555 -0.5087  0.3738
  296MOL0     H40822   5.962   4.631   7.376  2.1209 -1.6635 -0.9556
  296MOL0     H40823   5.885   4.476   7.377 -1.9810  2.6794 -1.9526
  296MOL0     H40824   6.090   4.412   7.541  0.8222 -2.2947 -2.0126
  296MOL0     H40825   6.162   4.562   7.508  0.6151 -1.4536  2.1919
  296MOL0     H40826   6.165   4.491   7.255 -1.5297 -0.0142 -0.2972
  296MOL0     H40827   6.137   4.325   7.304 -2.0987  1.1915 -0.5752
  296MOL0     H40828   5.385   4.873   7.820 -0.1790 -2.1663  0.7752
  296MOL0     H40829   5.210   4.929   7.975  1.0373  0.1339 -0.4295
  296MOL0     H40830   4.686   4.909   7.836  1.2049 -0.9334  0.3192
  296MOL0     H40831   4.454   4.908   7.881 -0.3941  1.7430  0.3170
  296MOL0     H40832   3.134   4.391   7.641  0.5146 -0.4872 -0.8605
  296MOL0     H40833   2.906   4.446   7.688  1.5241  1.2462 -0.9329
  296MOL0     H40834   2.508   4.382   7.374  1.1987 -2.4926  0.3180
  296MOL0     H40835   2.285   4.342   7.327  2.7862 -0.7444 -0.3364
  296MOL0     H40836   1.926   4.281   7.395 -0.3305 -0.1878 -1.2663
  296MOL0     H40837   2.063   4.334   7.327 -1.0273  1.0889  0.9243
  296MOL0     H40838   2.059   4.053   7.455  0.8968  1.3578  1.2715
  296MOL0     H40839   2.159   4.113   7.321  0.3777 -0.0174  0.7857
  296MOL0     H40840   1.967   3.974   7.243 -1.5165  0.3194 -1.6775
  296MOL0     H40841   1.852   4.099   7.302  0.1796  1.2332  0.5230
  296MOL0     H40842   2.084   4.176   7.136  1.1933 -0.5254 -0.7929
  296MOL0     H40843   1.935   4.263   7.139 -1.8354 -1.6798 -2.5640
  296MOL0     H40844   1.807   4.054   6.833 -1.4468  0.0261 -0.4550
  296MOL0     H40845   2.208   4.324   7.754 -2.3358  0.0642 -2.2465
  296MOL0     H40846   2.458   4.531   7.845 -1.0195  0.6914 -1.9072
  296MOL0     H40847   2.351   4.409   7.908  0.5090 -0.1353  0.2347
  296MOL0     H40848   2.522   4.383   7.879  1.6207  3.0673  1.4158
  297MOL0     O40849  10.116   3.862   2.132 -0.0125 -0.6071 -0.3261
  297MOL0     C40850  10.051   3.800   2.218 -0.9514 -0.5896  0.5884
  297MOL0     O40851  10.098   3.680   2.281  0.2806 -0.2729  0.4749
  297MOL0     C40852  10.187   3.589   2.229  0.5898 -0.3934 -0.1013
  297MOL0     C40853  10.262   3.598   2.105  0.7497  0.2188  0.1420
  297MOL0     C40854  10.341   3.487   2.067  0.0231  1.1159 -0.2303
  297MOL0     C40855  10.346   3.361   2.136  0.3938 -0.0495 -0.6843
  297MOL0     O40856  10.412   3.244   2.104 -0.2025  0.1639  0.6626
  297MOL0     C40857  10.486   3.239   1.979  0.3261  0.5235  0.0387
  297MOL0     C40858  10.544   3.101   1.974  1.1413 -0.0563  0.0738
  297MOL0     C40859  10.652   3.072   2.081  0.0078 -0.2120  0.2805
  297MOL0     C40860  10.731   2.946   2.054  0.1487 -0.1911 -0.2319
  297MOL0     C40861  10.819   2.902   2.176 -0.2732 -0.2474 -0.0667
  297MOL0     C40862  10.945   2.993   2.204 -0.7110  0.3561  0.0860
  297MOL0     C40863  11.053   2.985   2.092 -0.0474 -0.0441  0.6508
  297MOL0     C40864  11.154   2.877   2.115  1.1173  0.1166 -0.9396
  297MOL0     N40865  11.214   2.846   1.988 -0.1237 -0.5918  0.1198
  297MOL0     C40866  11.328   2.908   1.940 -0.1106 -1.3651 -0.0391
  297MOL0     C40867  11.343   2.853   1.817 -0.3822  0.1059 -0.6168
  297MOL0     C40868  11.452   2.907   1.716 -0.0774  0.4583 -0.8717
  297MOL0     C40869  11.603   2.858   1.742 -0.2582  0.1661  0.6025
  297MOL0     C40870  11.621   2.728   1.820 -0.2081  0.0670  1.0196
  297MOL0     C40871  11.774   2.701   1.837 -0.1347  0.1435 -0.3838
  297MOL0     O40872  11.846   2.702   1.713 -0.3722  0.1892 -0.3870
  297MOL0     C40873  11.981   2.721   1.718 -0.3278  0.0155  1.2104
  297MOL0     C40874  12.029   2.747   1.587  0.0248  0.0789 -0.4958
  297MOL0     C40875  12.159   2.778   1.558  0.7213  0.8095 -0.1960
  297MOL0     C40876  12.210   2.785   1.411  0.2605  0.5224 -0.5877
  297MOL0     C40877  12.246   2.788   1.671  0.2219  0.1512 -0.0049
  297MOL0     C40878  12.388   2.832   1.658  0.3103  0.0366  0.5131
  297MOL0     O40879  12.466   2.835   1.764 -0.3800  0.3251  0.3727
  297MOL0     C40880  12.599   2.814   1.743  1.0922  0.5566 -0.7566
  297MOL0     C40881  12.689   2.907   1.799  0.1214  0.8944  0.1674
  297MOL0     C40882  12.827   2.873   1.802 -0.3859  0.5710 -0.9029
  297MOL0     C40883  12.884   2.756   1.743  0.5672 -0.1656  0.4393
  297MOL0     O40884  13.019   2.736   1.757 -0.8448  0.4728 -0.1172
  297MOL0     C40885  13.078   2.672   1.648  0.0907  0.4032 -0.8703
  297MOL0     C40886  13.232   2.698   1.655  0.3015 -0.6582 -0.3616
  297MOL0     C40887  13.310   2.615   1.748 -0.5647  0.2814  0.1223
  297MOL0     C40888  13.448   2.684   1.761  0.8518  0.6023  1.1581
  297MOL0     C40889  13.557   2.610   1.841 -0.2592 -0.4262  0.7085
  297MOL0     C40890  13.522   2.609   1.989 -0.2857  0.7085 -0.5729
  297MOL0     C40891  13.621   2.544   2.086  0.9076 -1.0480 -1.0954
  297MOL0     C40892  13.638   2.396   2.061  0.1792 -0.4779  0.9379
  297MOL0    Cl40893  13.764   2.354   1.938  0.4655 -0.1106 -0.1421
  297MOL0     C40894  12.794   2.671   1.682  0.6417 -0.5294  0.4018
  297MOL0     C40895  12.654   2.695   1.693 -0.5245  1.2943  0.1871
  297MOL0     O40896  12.426   2.874   1.548  0.0195 -0.2647 -0.4373
  297MOL0     C40897  12.198   2.762   1.802  0.4561 -0.7889 -0.3454
  297MOL0     C40898  12.064   2.728   1.830 -0.6345  0.6156 -0.5225
  297MOL0     N40899  11.252   2.755   1.796  0.3366  0.9618 -0.3053
  297MOL0     N40900  11.167   2.757   1.902  0.0734  0.4401 -0.0385
  297MOL0     C40901  10.264   3.350   2.247 -0.2209  0.4193  0.3082
  297MOL0     C40902  10.193   3.463   2.294  0.9329  0.2647 -0.7356
  297MOL0     C40903   9.936   3.872   2.268 -0.2016 -0.4307  0.3019
  297MOL0     C40904   9.948   4.013   2.291 -0.6147  0.3883  0.0116
  297MOL0     C40905   9.845   4.084   2.350 -0.5607 -0.5095 -0.0615
  297MOL0     C40906   9.729   4.015   2.385  0.5144 -0.5662 -0.3277
  297MOL0     O40907   9.611   4.072   2.437 -0.2134 -0.7209 -0.4699
  297MOL0     C40908   9.598   4.213   2.412 -0.3980  0.1536 -0.1745
  297MOL0     C40909   9.465   4.258   2.476  0.0289  0.1877 -0.2479
  297MOL0     C40910   9.443   4.411   2.444  0.8259 -0.3234  0.1467
  297MOL0     C40911   9.317   4.471   2.507  0.0042 -0.7451 -0.7306
  297MOL0     C40912   9.321   4.611   2.459  0.0741 -0.2789 -0.2105
  297MOL0     C40913   9.332   4.725   2.428 -0.3431  0.8067  0.3620
  297MOL0     C40914   9.721   3.873   2.374 -0.8081  0.3545  0.5479
  297MOL0     C40915   9.827   3.806   2.309  0.2488  0.2003 -0.8185
  297MOL0     C40916   9.812   3.650   2.301  0.1239  0.6006  0.4743
  297MOL0     H40917  10.273   3.690   2.049 -0.0192  1.1799  1.5171
  297MOL0     H40918  10.393   3.501   1.972  0.1121 -1.0990 -0.5568
  297MOL0     H40919  10.550   3.325   1.958  0.3168  0.9048  1.4855
  297MOL0     H40920  10.408   3.242   1.903  0.0186  2.7075  0.3805
  297MOL0     H40921  10.463   3.027   1.976 -0.3522  1.2970 -3.2595
  297MOL0     H40922  10.585   3.087   1.874 -1.1813 -2.7453 -0.6410
  297MOL0     H40923  10.725   3.153   2.086  1.9256 -1.9032  1.0672
  297MOL0     H40924  10.603   3.072   2.179 -1.0837 -0.6609 -0.2493
  297MOL0     H40925  10.662   2.865   2.028  0.3122  0.1925 -1.9925
  297MOL0     H40926  10.790   2.957   1.962 -0.0283 -1.2831 -0.4930
  297MOL0     H40927  10.851   2.798   2.165 -0.0502  0.0108 -2.6271
  297MOL0     H40928  10.753   2.894   2.263 -0.5553 -1.6211 -0.3900
  297MOL0     H40929  10.907   3.095   2.213 -1.6778  0.1581 -1.3447
  297MOL0     H40930  10.992   2.955   2.295 -2.4410 -2.2700  0.0016
  297MOL0     H40931  11.096   3.086   2.097 -0.9350  0.4058 -0.4061
  297MOL0     H40932  10.995   2.974   2.000  1.6956 -1.3269 -0.3604
  297MOL0     H40933  11.219   2.915   2.194 -0.8268 -0.4947  1.0555
  297MOL0     H40934  11.115   2.781   2.151 -0.5805  0.6145 -1.3859
  297MOL0     H40935  11.391   2.988   1.977  0.5757 -2.3578  0.9912
  297MOL0     H40936  11.455   3.016   1.729  0.7010  0.2043  1.7897
  297MOL0     H40937  11.409   2.876   1.621 -1.0408  0.0466 -0.3209
  297MOL0     H40938  11.634   2.825   1.642  2.0638  0.1462  1.2646
  297MOL0     H40939  11.665   2.942   1.774 -1.2052  0.8064  0.7995
  297MOL0     H40940  11.572   2.728   1.917 -4.0571 -2.3732 -0.6844
  297MOL0     H40941  11.567   2.656   1.759 -1.6770  1.5017  0.5471
  297MOL0     H40942  11.818   2.771   1.908 -0.1759 -1.0523  0.8706
  297MOL0     H40943  11.781   2.600   1.879 -0.5129  0.6530  0.9520
  297MOL0     H40944  11.955   2.745   1.508 -0.0022  3.6558 -0.7255
  297MOL0     H40945  12.270   2.699   1.380 -0.2134  0.2699 -0.8353
  297MOL0     H40946  12.273   2.868   1.378 -0.2482 -0.3040 -4.0452
  297MOL0     H40947  12.125   2.794   1.342  0.6450  1.4627 -0.9558
  297MOL0     H40948  12.633   2.995   1.830  0.6349  2.3759 -2.7684
  297MOL0     H40949  12.903   2.941   1.839 -1.7382  0.8389  1.6172
  297MOL0     H40950  13.056   2.564   1.646  1.5772 -0.0284  1.9465
  297MOL0     H40951  13.034   2.707   1.553 -4.2266  0.8802  1.0405
  297MOL0     H40952  13.283   2.675   1.561  0.7555 -0.3874 -0.1834
  297MOL0     H40953  13.244   2.805   1.670  0.7695 -0.9935  2.2940
  297MOL0     H40954  13.317   2.513   1.711 -1.9925  0.0567  0.4356
  297MOL0     H40955  13.263   2.594   1.845 -1.9111 -1.7191 -0.9124
  297MOL0     H40956  13.432   2.788   1.793 -0.9073  0.0457  2.2064
  297MOL0     H40957  13.498   2.685   1.664  2.6690 -1.6854  1.9742
  297MOL0     H40958  13.568   2.510   1.800  0.7318 -0.4270  0.9315
  297MOL0     H40959  13.654   2.662   1.837 -0.7419  0.4795  0.3333
  297MOL0     H40960  13.432   2.547   1.989  0.0109  0.2385 -2.0070
  297MOL0     H40961  13.502   2.707   2.033  1.4124 -0.8327  4.2540
  297MOL0     H40962  13.586   2.551   2.189  1.6380 -0.8685 -0.8562
  297MOL0     H40963  13.712   2.602   2.069  1.8887 -1.8057  1.1906
  297MOL0     H40964  13.540   2.354   2.036 -0.3401  1.2886 -0.2569
  297MOL0     H40965  13.679   2.335   2.142  1.6168  0.3332  0.8685
  297MOL0     H40966  12.828   2.581   1.633  1.0935  0.5027 -1.2670
  297MOL0     H40967  12.595   2.614   1.652  0.8023  2.0710 -3.6848
  297MOL0     H40968  12.256   2.769   1.893 -3.8481 -2.7412  2.9019
  297MOL0     H40969  12.028   2.716   1.932 -2.0551 -0.0400 -1.0777
  297MOL0     H40970  10.249   3.255   2.297  0.7109 -0.2657 -0.6626
  297MOL0     H40971  10.145   3.450   2.391  0.8299 -0.8219 -0.9214
  297MOL0     H40972  10.039   4.067   2.266 -0.5410  0.5140  0.5353
  297MOL0     H40973   9.854   4.192   2.362 -0.0208 -0.6633  1.0057
  297MOL0     H40974   9.682   4.268   2.453  0.5288 -1.8467  0.7303
  297MOL0     H40975   9.589   4.229   2.304 -1.9546  0.5918 -0.0187
  297MOL0     H40976   9.476   4.248   2.585  4.3808  1.5292 -0.3432
  297MOL0     H40977   9.386   4.189   2.445  1.9162 -2.7249  0.9387
  297MOL0     H40978   9.532   4.465   2.478  1.6327  0.1671 -2.5256
  297MOL0     H40979   9.431   4.430   2.337  1.1422 -1.2850 -0.0695
  297MOL0     H40980   9.318   4.461   2.616  0.6646  3.8230 -0.0977
  297MOL0     H40981   9.231   4.424   2.459  0.6066 -1.9468 -0.6664
  297MOL0     H40982   9.347   4.828   2.403 -0.5782  0.8848  0.5382
  297MOL0     H40983   9.629   3.818   2.391  0.5895 -3.1136 -1.8476
  297MOL0     H40984   9.849   3.607   2.208 -3.3966  0.3655 -0.9790
  297MOL0     H40985   9.861   3.596   2.382 -1.6727 -1.6544  0.1395
  297MOL0     H40986   9.704   3.632   2.296 -0.1453  1.9772 -4.9255
  298MOL0     O40987  11.168  11.071   9.260 -0.4432 -0.2248  0.2679
  298MOL0     C40988  11.181  11.148   9.357  0.2226 -0.2596  0.3243
  298MOL0     O40989  11.301  11.178   9.412  0.0639 -0.2747 -0.2044
  298MOL0     C40990  11.420  11.133   9.365 -0.1534 -0.7282  0.0851
  298MOL0     C40991  11.458  11.009   9.323 -0.3136 -0.1657  0.2087
  298MOL0     C40992  11.585  10.990   9.263 -0.1648  0.2348 -0.6272
  298MOL0     C40993  11.684  11.087   9.253  0.5373 -1.1341  0.1811
  298MOL0     O40994  11.806  11.049   9.220  0.1148 -0.6022 -0.0976
  298MOL0     C40995  11.907  11.155   9.203 -0.2965  0.7914  0.0620
  298MOL0     C40996  12.040  11.111   9.132  0.1516  0.1240  0.2110
  298MOL0     C40997  12.141  11.217   9.143  0.5674  0.4239 -0.1973
  298MOL0     C40998  12.258  11.172   9.062 -0.0564  0.2867 -0.2600
  298MOL0     C40999  12.376  11.262   9.094 -0.3520 -0.3309  0.9113
  298MOL0     C41000  12.478  11.272   8.976  0.2718 -0.9205 -0.5683
  298MOL0     C41001  12.609  11.352   9.024  0.5418 -0.0348 -0.3300
  298MOL0     C41002  12.717  11.351   8.915  0.7841  0.8205 -0.2045
  298MOL0     N41003  12.832  11.428   8.957 -0.0883  0.0988  0.2743
  298MOL0     C41004  12.875  11.534   8.877  0.0690 -0.2661 -0.1951
  298MOL0     C41005  12.991  11.568   8.937 -0.2429  0.1179 -0.2865
  298MOL0     C41006  13.085  11.673   8.907  0.5270  0.6185  0.4740
  298MOL0     C41007  13.222  11.609   8.874 -0.2965 -0.3204  0.5761
  298MOL0     C41008  13.222  11.516   8.757  0.0537 -0.9670 -0.4243
  298MOL0     C41009  13.360  11.520   8.698 -0.7205  0.3095 -0.0347
  298MOL0     O41010  13.460  11.456   8.769  0.0198  0.3102 -0.3534
  298MOL0     C41011  13.589  11.453   8.713 -0.3911  0.2166 -0.2244
  298MOL0     C41012  13.654  11.329   8.688  0.1279  0.2820  0.7158
  298MOL0     C41013  13.770  11.322   8.609  0.1674  0.5178 -0.7859
  298MOL0     C41014  13.820  11.189   8.573  0.1470  0.0295 -0.9086
  298MOL0     C41015  13.828  11.432   8.553  0.1962  0.1868 -0.1983
  298MOL0     C41016  13.954  11.431   8.476 -0.2419  0.4826  0.1489
  298MOL0     O41017  14.066  11.365   8.535  0.0913 -0.2781  0.0567
  298MOL0     C41018  14.183  11.351   8.471 -0.4908 -0.1711 -0.4302
  298MOL0     C41019  14.198  11.265   8.357 -0.1104  0.2148 -0.6838
  298MOL0     C41020  14.329  11.234   8.306  0.2083 -0.2979  0.8663
  298MOL0     C41021  14.442  11.304   8.354  0.3715 -0.0482 -0.3432
  298MOL0     O41022  14.566  11.291   8.294 -0.2439  0.1760 -0.3129
  298MOL0     C41023  14.663  11.234   8.382  0.1623 -0.1131 -0.3512
  298MOL0     C41024  14.665  11.086   8.385  0.2156 -0.0797 -0.2295
  298MOL0     C41025  14.679  11.016   8.250 -0.8886 -0.7851  0.7189
  298MOL0     C41026  14.825  11.014   8.203  0.4127 -0.1088 -0.7343
  298MOL0     C41027  14.837  10.945   8.066 -0.2393 -0.0060  0.5184
  298MOL0     C41028  14.975  10.911   8.017 -0.4482  0.9128  0.8190
  298MOL0     C41029  14.972  10.828   7.887 -0.7569 -0.6052 -0.2541
  298MOL0     C41030  15.115  10.784   7.840 -0.0067 -0.9483  0.4620
  298MOL0    Cl41031  15.196  10.659   7.946 -0.3985  0.2775 -0.7711
  298MOL0     C41032  14.425  11.388   8.463  0.3085 -0.0979  0.1146
  298MOL0     C41033  14.300  11.417   8.515 -0.2983 -0.4299 -0.1191
  298MOL0     O41034  13.964  11.483   8.365  0.1968  0.2103  0.0776
  298MOL0     C41035  13.772  11.552   8.583 -0.6830 -0.6164 -0.1125
  298MOL0     C41036  13.656  11.565   8.661  0.1912 -0.4867 -0.3878
  298MOL0     N41037  13.009  11.490   9.053 -0.3166  0.0323  0.0078
  298MOL0     N41038  12.918  11.404   9.063  0.6422 -0.1000 -0.6743
  298MOL0     C41039  11.648  11.218   9.307  0.2058 -0.9997  0.1305
  298MOL0     C41040  11.516  11.241   9.355  0.2064  0.3124 -0.4565
  298MOL0     C41041  11.056  11.225   9.389 -0.0770  1.1234 -0.2347
  298MOL0     C41042  10.947  11.217   9.305  0.9719 -0.1738  0.2343
  298MOL0     C41043  10.827  11.275   9.341 -0.4724 -0.3069 -0.1128
  298MOL0     C41044  10.814  11.342   9.464 -0.3845 -0.3992  0.1066
  298MOL0     O41045  10.688  11.381   9.504  0.1624  0.2166  0.0439
  298MOL0     C41046  10.673  11.473   9.615 -0.4162 -0.2462  0.1524
  298MOL0     C41047  10.535  11.517   9.647 -0.2815  0.0409 -0.1255
  298MOL0     C41048  10.489  11.614   9.545  0.9670 -0.2383  0.5972
  298MOL0     C41049  10.560  11.750   9.529 -0.3734  1.1951 -0.7913
  298MOL0     C41050  10.492  11.837   9.439 -0.2711 -0.0500 -0.1031
  298MOL0     C41051  10.415  11.900   9.366  0.4192  0.5630  0.4854
  298MOL0     C41052  10.917  11.344   9.557 -0.2299 -0.7514 -0.1404
  298MOL0     C41053  11.042  11.291   9.520  0.4294  1.1861 -0.2962
  298MOL0     C41054  11.147  11.284   9.631 -0.1020  0.2211 -0.1584
  298MOL0     H41055  11.390  10.924   9.322  0.3589 -0.7578  1.8995
  298MOL0     H41056  11.619  10.888   9.247  0.7449  0.4857 -0.3447
  298MOL0     H41057  11.934  11.175   9.307  1.9446 -0.7793 -0.1256
  298MOL0     H41058  11.874  11.247   9.154 -0.3470  0.3461 -0.7637
  298MOL0     H41059  12.077  11.020   9.180  0.9146 -1.8656 -3.6910
  298MOL0     H41060  12.009  11.082   9.031 -2.1128 -3.3061  1.7385
  298MOL0     H41061  12.103  11.308   9.097  1.9407  0.4509 -1.3509
  298MOL0     H41062  12.174  11.234   9.246  0.5029  2.8729 -0.5427
  298MOL0     H41063  12.295  11.069   9.066 -1.5288 -0.2651 -0.3480
  298MOL0     H41064  12.233  11.180   8.956 -1.7627  1.2272  0.1695
  298MOL0     H41065  12.429  11.223   9.181  0.4769  0.0503  0.5796
  298MOL0     H41066  12.347  11.364   9.118  0.6677 -0.0504  0.9914
  298MOL0     H41067  12.507  11.169   8.952  0.2936 -0.8899 -0.6747
  298MOL0     H41068  12.430  11.313   8.887  0.3722  0.4264 -0.0130
  298MOL0     H41069  12.638  11.313   9.122 -2.3331  0.2808  0.7335
  298MOL0     H41070  12.585  11.458   9.037  2.2261  0.4772 -1.0358
  298MOL0     H41071  12.746  11.245   8.913 -0.2741  0.5402 -1.2872
  298MOL0     H41072  12.675  11.388   8.821  1.5475  0.7229 -0.5949
  298MOL0     H41073  12.834  11.581   8.789  2.3299 -0.5661 -1.4793
  298MOL0     H41074  13.107  11.725   9.000 -1.4074 -0.0428  1.3554
  298MOL0     H41075  13.044  11.744   8.835  0.7899 -0.2108 -0.5332
  298MOL0     H41076  13.299  11.685   8.859 -3.3621  2.7876 -0.7415
  298MOL0     H41077  13.257  11.555   8.962 -2.8216 -0.5076  1.5653
  298MOL0     H41078  13.194  11.415   8.786 -1.1427 -0.2317  1.1648
  298MOL0     H41079  13.151  11.555   8.684 -0.3832 -0.4385  0.2752
  298MOL0     H41080  13.351  11.468   8.602 -3.4738  1.5966 -0.5835
  298MOL0     H41081  13.378  11.627   8.681 -0.3560  0.5062  1.4621
  298MOL0     H41082  13.603  11.240   8.725 -2.5830  1.9397  1.2220
  298MOL0     H41083  13.752  11.109   8.605 -1.0943  1.9653  1.6157
  298MOL0     H41084  13.919  11.173   8.616 -0.8817 -1.7504  0.9937
  298MOL0     H41085  13.826  11.183   8.464 -0.2042  1.6574 -1.0303
  298MOL0     H41086  14.114  11.201   8.334 -1.8717  1.2377  2.2921
  298MOL0     H41087  14.345  11.173   8.218  3.5281  1.9932 -0.3181
  298MOL0     H41088  14.755  11.282   8.347 -0.1611  1.7675  1.2276
  298MOL0     H41089  14.643  11.267   8.484  0.4193 -2.7089  0.6160
  298MOL0     H41090  14.746  11.054   8.450 -0.0576  0.2970  0.3057
  298MOL0     H41091  14.571  11.052   8.430 -1.6356  2.5765 -1.7702
  298MOL0     H41092  14.621  11.065   8.171  1.8884 -0.2390 -1.1070
  298MOL0     H41093  14.650  10.910   8.259 -0.4285 -0.8722  1.2249
  298MOL0     H41094  14.876  10.953   8.278 -0.4311 -0.0682 -0.1212
  298MOL0     H41095  14.866  11.115   8.204  4.3680 -1.5021 -1.3708
  298MOL0     H41096  14.783  10.851   8.084 -3.4238  1.8831  1.7468
  298MOL0     H41097  14.790  11.005   7.987  0.8544 -1.1872 -1.1005
  298MOL0     H41098  15.030  10.855   8.093  3.6688  2.6717 -0.5986
  298MOL0     H41099  15.030  11.001   7.989 -0.1781  1.5033  3.0483
  298MOL0     H41100  14.924  10.887   7.808  0.1393 -1.7375 -1.7175
  298MOL0     H41101  14.915  10.735   7.900 -1.4258 -0.4276 -1.6435
  298MOL0     H41102  15.178  10.870   7.816 -2.7031  0.9165 -0.4434
  298MOL0     H41103  15.098  10.727   7.748  3.2170  0.5172 -1.2252
  298MOL0     H41104  14.510  11.446   8.499  0.2622  2.1158 -2.9215
  298MOL0     H41105  14.301  11.480   8.603  1.6915  2.8647 -2.2520
  298MOL0     H41106  13.822  11.634   8.533 -0.6848 -0.8464 -0.4920
  298MOL0     H41107  13.609  11.662   8.677  1.7984  0.1486  0.6503
  298MOL0     H41108  11.720  11.299   9.306  1.1160 -1.7788 -1.4462
  298MOL0     H41109  11.489  11.338   9.397  0.8471  0.5318 -0.5554
  298MOL0     H41110  10.949  11.163   9.211 -0.2335 -1.3137  0.8277
  298MOL0     H41111  10.738  11.250   9.284 -1.4287  0.3638  1.0274
  298MOL0     H41112  10.696  11.417   9.706 -2.9814 -2.1021 -0.2114
  298MOL0     H41113  10.736  11.562   9.604 -2.5660  1.3958  0.5611
  298MOL0     H41114  10.528  11.553   9.751 -2.1033 -0.6430  0.0179
  298MOL0     H41115  10.473  11.427   9.651 -0.0275 -0.1513 -0.4179
  298MOL0     H41116  10.502  11.569   9.446  2.0314  2.7611 -0.7129
  298MOL0     H41117  10.386  11.641   9.568  1.0507  0.0930  0.5758
  298MOL0     H41118  10.655  11.739   9.476 -1.9235  0.8286 -3.6953
  298MOL0     H41119  10.586  11.800   9.623  0.2598 -0.5966  0.0337
  298MOL0     H41120  10.360  11.930   9.279 -0.1819 -0.6136  0.4329
  298MOL0     H41121  10.899  11.379   9.658  2.1499 -1.0365  0.4573
  298MOL0     H41122  11.248  11.299   9.592  0.1299 -1.7628 -0.4368
  298MOL0     H41123  11.121  11.356   9.709 -0.2989  1.1285 -1.0538
  298MOL0     H41124  11.144  11.188   9.684  0.1387  0.9680  1.2458
  299MOL0     O41125   1.950   0.711   0.683 -0.3784  0.2343  0.1182
  299MOL0     C41126   1.878   0.613   0.718 -0.5979 -0.3482 -0.1081
  299MOL0     O41127   1.917   0.490   0.774 -0.6274 -0.2945  0.0139
  299MOL0     C41128   2.042   0.474   0.821  0.6131  0.0831  0.1450
  299MOL0     C41129   2.126   0.577   0.875 -0.6813  0.2749 -0.0843
  299MOL0     C41130   2.244   0.551   0.942  0.6551  0.5595  0.2980
  299MOL0     C41131   2.287   0.420   0.951 -0.3483 -0.2792  0.9749
  299MOL0     O41132   2.402   0.395   1.017  0.7844  0.3544  0.0621
  299MOL0     C41133   2.403   0.274   1.089  0.3969  0.0910  0.7214
  299MOL0     C41134   2.522   0.279   1.182 -0.0834 -0.6372 -0.2673
  299MOL0     C41135   2.658   0.267   1.102  0.6597 -0.3983 -0.1230
  299MOL0     C41136   2.778   0.289   1.193  0.2705 -0.1552  0.3204
  299MOL0     C41137   2.918   0.266   1.132  0.7054  1.1368 -0.2999
  299MOL0     C41138   3.027   0.249   1.238  1.0601  0.5132 -0.3943
  299MOL0     C41139   3.057   0.374   1.325 -0.6421  0.1216  0.2220
  299MOL0     C41140   3.139   0.356   1.450 -0.1051  0.1130  0.0685
  299MOL0     N41141   3.284   0.330   1.433  0.2085 -0.3543 -0.1583
  299MOL0     C41142   3.385   0.410   1.384 -0.3867  0.4989 -0.5034
  299MOL0     C41143   3.487   0.331   1.345  0.2079  0.0643 -0.0986
  299MOL0     C41144   3.609   0.373   1.271 -0.0590 -0.0054  0.7465
  299MOL0     C41145   3.700   0.259   1.217  0.2704 -0.6644 -0.6021
  299MOL0     C41146   3.835   0.325   1.181  0.0781 -0.0380  0.4702
  299MOL0     C41147   3.943   0.229   1.138  0.2556  0.0166 -0.1823
  299MOL0     O41148   4.039   0.295   1.049 -0.6717 -0.0129 -0.2289
  299MOL0     C41149   4.166   0.248   1.051 -0.3603  0.5076 -0.2215
  299MOL0     C41150   4.202   0.113   1.036 -0.8203 -0.4179 -0.3977
  299MOL0     C41151   4.338   0.075   1.025  0.1177  0.4924 -0.0598
  299MOL0     C41152   4.381  -0.066   1.005 -0.0521 -0.3232 -0.7428
  299MOL0     C41153   4.435   0.178   1.023  0.4073  0.3259 -0.3426
  299MOL0     C41154   4.574   0.154   0.998  0.6617 -0.1519 -0.6188
  299MOL0     O41155   4.612   0.094   0.875 -0.3262 -0.6027 -0.2001
  299MOL0     C41156   4.745   0.093   0.859  0.0085  0.5847  0.5343
  299MOL0     C41157   4.820  -0.024   0.879 -0.3263  0.8965  0.8492
  299MOL0     C41158   4.956  -0.025   0.841 -0.2203 -0.1533 -0.0747
  299MOL0     C41159   5.019   0.094   0.791  0.9594  0.3196 -0.2172
  299MOL0     O41160   5.153   0.084   0.785 -0.6125  0.0458 -0.4272
  299MOL0     C41161   5.225   0.207   0.772 -0.2551  0.3241 -1.0526
  299MOL0     C41162   5.365   0.195   0.825 -0.3572 -0.4331  0.2084
  299MOL0     C41163   5.462   0.111   0.734  0.3439  0.6181 -0.7018
  299MOL0     C41164   5.587   0.074   0.812 -0.0798  0.8328 -0.8059
  299MOL0     C41165   5.675  -0.034   0.744  0.1820  0.0874  0.0077
  299MOL0     C41166   5.727   0.021   0.613 -1.0978 -0.1442  0.2547
  299MOL0     C41167   5.839  -0.065   0.549  0.2809 -0.1863 -0.4868
  299MOL0     C41168   5.894  -0.014   0.415 -0.5921 -0.0080 -0.2192
  299MOL0    Cl41169   5.998  -0.134   0.354 -0.2891 -0.4560  0.5328
  299MOL0     C41170   4.940   0.205   0.765  0.1940  0.1809  0.3057
  299MOL0     C41171   4.800   0.206   0.790 -0.4532  0.1327  0.0629
  299MOL0     O41172   4.651   0.193   1.091 -0.1429  0.2601  0.1223
  299MOL0     C41173   4.396   0.313   1.038 -0.0562 -0.3035 -0.3561
  299MOL0     C41174   4.267   0.346   1.058 -0.0400  0.1661 -0.0873
  299MOL0     N41175   3.461   0.207   1.409 -0.5799  0.0587  0.4304
  299MOL0     N41176   3.343   0.204   1.455  0.3604 -1.0699  0.0053
  299MOL0     C41177   2.208   0.319   0.900  0.0963  0.3170  0.5614
  299MOL0     C41178   2.092   0.343   0.834  0.0446  0.3063  0.1586
  299MOL0     C41179   1.734   0.617   0.698 -0.5565 -0.2247  0.6769
  299MOL0     C41180   1.646   0.588   0.802 -0.4556  0.3890  0.5164
  299MOL0     C41181   1.507   0.608   0.797 -0.0036  0.1776 -0.4100
  299MOL0     C41182   1.454   0.652   0.676  0.1005  0.4311 -0.1332
  299MOL0     O41183   1.318   0.651   0.677  0.3082  0.0024  0.6427
  299MOL0     C41184   1.246   0.709   0.568  0.6920 -0.2511 -0.0656
  299MOL0     C41185   1.261   0.861   0.547 -1.2716  0.2958  0.2928
  299MOL0     C41186   1.217   0.946   0.660  0.3495  0.2705 -0.0441
  299MOL0     C41187   1.071   0.935   0.696  0.7864  0.3176 -0.1032
  299MOL0     C41188   1.020   1.053   0.760  0.6699  0.1639  0.3962
  299MOL0     C41189   0.959   1.140   0.814  0.1281  0.5467 -0.7599
  299MOL0     C41190   1.537   0.675   0.566 -0.8279  0.8721  0.2478
  299MOL0     C41191   1.671   0.660   0.577  0.0193  0.1676 -0.2962
  299MOL0     C41192   1.756   0.688   0.453  0.5097 -0.1366 -0.8178
  299MOL0     H41193   2.089   0.679   0.864 -5.2525 -1.4017 -3.0611
  299MOL0     H41194   2.304   0.635   0.976 -2.3948  2.7968  0.5895
  299MOL0     H41195   2.416   0.184   1.029  3.2597 -0.5362  2.1095
  299MOL0     H41196   2.309   0.268   1.145 -0.5879  0.0086 -0.8722
  299MOL0     H41197   2.530   0.370   1.242  1.8312  1.5718 -3.5440
  299MOL0     H41198   2.529   0.190   1.245 -0.9404  0.3472  1.2578
  299MOL0     H41199   2.656   0.171   1.050 -1.6815  0.4899 -1.8043
  299MOL0     H41200   2.653   0.344   1.025 -6.3005 -0.6539 -0.5229
  299MOL0     H41201   2.772   0.393   1.226 -1.1281 -0.1059 -0.0183
  299MOL0     H41202   2.770   0.222   1.279  0.9484 -3.7963 -2.2218
  299MOL0     H41203   2.941   0.354   1.072  1.3596 -0.0405 -1.8191
  299MOL0     H41204   2.919   0.175   1.073 -2.4816  1.2854 -0.7703
  299MOL0     H41205   2.983   0.175   1.305  1.1662  1.1435  0.3855
  299MOL0     H41206   3.121   0.216   1.192  0.2616 -1.6157 -0.5892
  299MOL0     H41207   2.963   0.425   1.350 -0.7852 -0.9231  1.9662
  299MOL0     H41208   3.130   0.425   1.261  1.0856 -3.5370 -0.9880
  299MOL0     H41209   3.129   0.453   1.501 -2.5743  0.2256 -0.5186
  299MOL0     H41210   3.092   0.278   1.511 -0.7286  1.0603  0.8475
  299MOL0     H41211   3.374   0.517   1.371  5.6463  1.6991  1.2565
  299MOL0     H41212   3.661   0.438   1.342 -1.7062  0.6898  1.3930
  299MOL0     H41213   3.589   0.436   1.184  1.8758  1.3640  1.2271
  299MOL0     H41214   3.722   0.173   1.281  0.5605 -0.8394 -0.9344
  299MOL0     H41215   3.657   0.217   1.126  1.6157  1.6155 -2.4231
  299MOL0     H41216   3.826   0.399   1.100  0.6919  0.6683  1.0320
  299MOL0     H41217   3.883   0.373   1.267 -1.2283 -2.0297  2.4186
  299MOL0     H41218   3.984   0.177   1.225 -0.2630 -0.0440  0.0277
  299MOL0     H41219   3.895   0.151   1.078 -1.0136 -0.0113  0.8220
  299MOL0     H41220   4.132   0.031   1.050  0.9239 -2.2958 -2.1655
  299MOL0     H41221   4.454  -0.072   0.924  1.7800 -2.2707  0.9524
  299MOL0     H41222   4.296  -0.134   0.990 -1.5660  1.0166  1.2165
  299MOL0     H41223   4.437  -0.108   1.088 -1.2324 -0.9723 -0.2547
  299MOL0     H41224   4.771  -0.113   0.916 -0.7049  1.1791  1.0405
  299MOL0     H41225   5.006  -0.121   0.847 -0.3512 -0.1488  1.9769
  299MOL0     H41226   5.245   0.235   0.668  1.5652  1.0399 -0.5511
  299MOL0     H41227   5.175   0.293   0.818  0.2525  0.5279 -0.8744
  299MOL0     H41228   5.400   0.299   0.825 -2.6540  0.4015  0.7584
  299MOL0     H41229   5.363   0.144   0.922  0.1843 -1.9712 -0.5646
  299MOL0     H41230   5.480   0.166   0.642 -0.2582  1.8964 -0.0894
  299MOL0     H41231   5.419   0.014   0.709  1.4324 -0.1034  0.1080
  299MOL0     H41232   5.553   0.026   0.904 -1.9108 -3.4722 -3.3600
  299MOL0     H41233   5.639   0.168   0.826 -2.2013  2.0314 -0.5538
  299MOL0     H41234   5.759  -0.058   0.810  0.8763 -0.4391 -1.0521
  299MOL0     H41235   5.625  -0.129   0.725  0.7141  0.0422 -1.2609
  299MOL0     H41236   5.772   0.121   0.612  0.5295 -0.8336 -2.0097
  299MOL0     H41237   5.652   0.031   0.533 -0.5566  3.3684  0.0233
  299MOL0     H41238   5.815  -0.172   0.549  1.3786 -0.4526  0.0490
  299MOL0     H41239   5.927  -0.067   0.615  1.2624 -2.7108 -1.7083
  299MOL0     H41240   5.937   0.085   0.431 -0.6696  0.0029 -0.0782
  299MOL0     H41241   5.816  -0.009   0.338 -1.0623  1.0982  0.3047
  299MOL0     H41242   4.987   0.294   0.724 -3.4911  1.2429 -2.1120
  299MOL0     H41243   4.731   0.289   0.775 -0.6422  0.0340  0.3875
  299MOL0     H41244   4.471   0.391   1.029  1.1119 -1.2707  0.4745
  299MOL0     H41245   4.234   0.449   1.064  1.5214  0.7641 -1.1414
  299MOL0     H41246   2.237   0.215   0.899  0.8311  0.5165  0.7598
  299MOL0     H41247   2.043   0.256   0.791  0.3861 -0.2365  0.8561
  299MOL0     H41248   1.707   0.553   0.885  1.4626 -0.3660 -1.1057
  299MOL0     H41249   1.444   0.576   0.879  0.7713 -0.7160 -0.1442
  299MOL0     H41250   1.282   0.665   0.475  0.8542  0.5016 -0.3648
  299MOL0     H41251   1.143   0.674   0.575  0.9651 -0.9335  0.7018
  299MOL0     H41252   1.209   0.881   0.453 -0.6576  0.7116  0.0333
  299MOL0     H41253   1.366   0.886   0.529 -1.1662 -0.0032  0.4737
  299MOL0     H41254   1.270   0.918   0.752 -0.9385 -2.0267  0.0710
  299MOL0     H41255   1.245   1.048   0.634 -1.4961  0.7146 -0.4112
  299MOL0     H41256   1.067   0.857   0.772  1.9655 -0.2874 -0.6270
  299MOL0     H41257   1.020   0.913   0.602  1.3541  2.1183 -0.8915
  299MOL0     H41258   0.898   1.208   0.869 -0.0477 -0.4897  0.3796
  299MOL0     H41259   1.504   0.716   0.471  1.3129  0.3580 -0.7935
  299MOL0     H41260   1.825   0.773   0.463 -0.5401  0.7729 -1.1919
  299MOL0     H41261   1.809   0.593   0.437  0.1481 -0.6338  0.7144
  299MOL0     H41262   1.688   0.710   0.371 -0.9938 -1.3969  0.0407
  300MOL0     O41263   4.226  10.568   4.930 -0.2926  1.5130 -0.6019
  300MOL0     C41264   4.172  10.452   4.928 -0.1076 -0.6321 -0.5994
  300MOL0     O41265   4.234  10.339   4.905 -0.6440  0.0926  0.7136
  300MOL0     C41266   4.368  10.340   4.916  0.3694  1.1384  0.1541
  300MOL0     C41267   4.424  10.359   5.041 -0.3158  0.9110 -0.6666
  300MOL0     C41268   4.564  10.346   5.058 -0.8267  0.3491  0.1770
  300MOL0     C41269   4.643  10.325   4.947 -0.6535  0.4184 -0.5694
  300MOL0     O41270   4.776  10.302   4.972  0.6908 -0.2993 -0.1712
  300MOL0     C41271   4.861  10.323   4.855  0.2826 -0.2414  0.0908
  300MOL0     C41272   5.001  10.357   4.916 -0.2658  0.7949 -0.6935
  300MOL0     C41273   5.103  10.401   4.800 -0.7232 -0.3249 -0.6150
  300MOL0     C41274   5.235  10.416   4.865 -0.0790  0.2143  0.9493
  300MOL0     C41275   5.344  10.482   4.774  0.0488 -0.3151  0.5028
  300MOL0     C41276   5.476  10.496   4.849  0.4900  1.0304  0.0273
  300MOL0     C41277   5.595  10.518   4.757  0.1388 -0.8941  0.5292
  300MOL0     C41278   5.719  10.507   4.840  0.3884 -0.2767  0.2154
  300MOL0     N41279   5.834  10.491   4.763 -0.8817 -0.4281  0.2277
  300MOL0     C41280   5.853  10.534   4.631 -0.6588 -0.2966 -0.3756
  300MOL0     C41281   5.976  10.496   4.602 -0.9460  0.0655  0.2981
  300MOL0     C41282   6.047  10.520   4.468  0.7338 -0.1090  0.7651
  300MOL0     C41283   6.120  10.650   4.446 -0.5372 -0.8547 -0.5209
  300MOL0     C41284   6.049  10.784   4.479  0.8282 -0.1942 -0.2449
  300MOL0     C41285   6.135  10.911   4.455 -0.3135  0.8382  0.6574
  300MOL0     O41286   6.259  10.933   4.531  0.8379 -0.4529 -0.0119
  300MOL0     C41287   6.380  10.880   4.492 -0.2336 -0.7680 -0.6564
  300MOL0     C41288   6.410  10.829   4.363 -0.0030  0.6382  0.0485
  300MOL0     C41289   6.532  10.762   4.335 -0.1855 -0.1414 -1.4709
  300MOL0     C41290   6.549  10.696   4.206 -0.0023 -0.1201  0.4777
  300MOL0     C41291   6.637  10.764   4.441 -0.0446 -0.2964  0.8046
  300MOL0     C41292   6.768  10.697   4.433 -0.8799 -1.3329  0.0833
  300MOL0     O41293   6.868  10.754   4.512  0.0267 -0.2424 -0.2949
  300MOL0     C41294   6.982  10.674   4.529  0.9031 -0.1259 -0.2419
  300MOL0     C41295   6.991  10.532   4.570 -0.0554 -0.0574  0.2965
  300MOL0     C41296   7.117  10.478   4.590 -1.1462  0.1935 -0.9596
  300MOL0     C41297   7.231  10.544   4.552 -0.3970  0.7144 -0.3629
  300MOL0     O41298   7.359  10.490   4.553 -0.4622  0.0745 -0.0518
  300MOL0     C41299   7.362  10.350   4.551 -0.6654 -0.6812  0.6431
  300MOL0     C41300   7.501  10.295   4.523  0.1599  0.2726  0.3667
  300MOL0     C41301   7.490  10.145   4.477  0.2197  0.0603  0.3882
  300MOL0     C41302   7.627  10.114   4.409 -0.0052  0.1373 -0.3275
  300MOL0     C41303   7.620   9.980   4.336  0.4866 -0.1561 -0.1609
  300MOL0     C41304   7.748   9.954   4.251 -0.0343 -0.1476  0.9728
  300MOL0     C41305   7.752   9.830   4.164 -0.1042  0.0059 -0.3834
  300MOL0     C41306   7.646   9.824   4.056  0.5512 -0.5350  0.3364
  300MOL0    Cl41307   7.678   9.673   3.949  0.5699  0.5838 -0.2551
  300MOL0     C41308   7.221  10.677   4.517 -0.2170  0.7975 -0.6451
  300MOL0     C41309   7.101  10.739   4.506 -0.3711  0.3449 -0.3963
  300MOL0     O41310   6.779  10.605   4.354 -0.6066  0.5477 -0.1590
  300MOL0     C41311   6.608  10.821   4.566  0.7782  0.9969  0.4393
  300MOL0     C41312   6.485  10.881   4.589  0.5031  0.4329  0.0039
  300MOL0     N41313   6.037  10.445   4.711 -0.4483  0.3049 -0.8453
  300MOL0     N41314   5.955  10.443   4.809 -0.5174  0.4977 -0.4503
  300MOL0     C41315   4.585  10.299   4.822  0.2674  0.0804 -0.9731
  300MOL0     C41316   4.444  10.315   4.802 -0.6538  0.1623 -0.9907
  300MOL0     C41317   4.023  10.454   4.931  1.1890  0.1672 -0.4011
  300MOL0     C41318   3.955  10.577   4.936  0.2592  0.3224 -0.8345
  300MOL0     C41319   3.820  10.597   4.952  0.1340 -0.1943 -0.3275
  300MOL0     C41320   3.735  10.487   4.957  0.1105  0.3550  1.0677
  300MOL0     O41321   3.600  10.491   4.962 -0.0977 -0.0087 -0.4527
  300MOL0     C41322   3.542  10.606   5.017 -0.8552 -0.3613  0.1889
  300MOL0     C41323   3.404  10.592   5.092 -0.0265  0.6705  0.1474
  300MOL0     C41324   3.289  10.574   4.995 -0.0223  0.7879  0.8548
  300MOL0     C41325   3.155  10.537   5.054 -0.3838  0.2852  0.0791
  300MOL0     C41326   3.058  10.519   4.944  0.1961 -0.9710 -0.1310
  300MOL0     C41327   2.976  10.491   4.858  0.4356 -0.1705  0.0216
  300MOL0     C41328   3.799  10.359   4.947  0.3435 -0.0720 -0.5500
  300MOL0     C41329   3.938  10.342   4.939  0.0931  0.0771 -0.7127
  300MOL0     C41330   3.986  10.198   4.958 -0.5009  0.3645 -0.1891
  300MOL0     H41331   4.362  10.395   5.123  0.0421 -0.4411  0.2279
  300MOL0     H41332   4.611  10.352   5.156 -1.0875 -2.7788  0.5934
  300MOL0     H41333   4.821  10.407   4.798 -0.4444  0.5540  1.6991
  300MOL0     H41334   4.869  10.236   4.790  1.3675  1.3760 -2.0692
  300MOL0     H41335   5.002  10.428   4.999  4.1163  0.1347  0.0485
  300MOL0     H41336   5.035  10.261   4.957  0.6363  1.4762  0.2252
  300MOL0     H41337   5.118  10.324   4.725 -0.9358 -0.5405 -0.4377
  300MOL0     H41338   5.066  10.498   4.765  0.0938  0.2691  0.0917
  300MOL0     H41339   5.225  10.472   4.959 -0.1149 -1.5583  2.0470
  300MOL0     H41340   5.273  10.318   4.896  0.9684  0.2387 -0.1899
  300MOL0     H41341   5.312  10.580   4.738 -0.9046 -0.8153 -0.0141
  300MOL0     H41342   5.360  10.417   4.688 -1.1858  1.1363 -0.8865
  300MOL0     H41343   5.461  10.577   4.922 -0.5754 -1.5397  2.8767
  300MOL0     H41344   5.487  10.405   4.909 -0.6577  1.8658  1.5890
  300MOL0     H41345   5.578  10.617   4.712 -0.2945 -1.7700 -1.3112
  300MOL0     H41346   5.596  10.448   4.673 -0.1068 -1.6328  1.1326
  300MOL0     H41347   5.721  10.594   4.905 -1.4288 -1.7976  2.4880
  300MOL0     H41348   5.720  10.417   4.903 -1.9003  0.2704  1.1362
  300MOL0     H41349   5.779  10.583   4.569  0.3756  0.7617 -0.8251
  300MOL0     H41350   5.966  10.530   4.395  3.0491  0.1706 -1.9258
  300MOL0     H41351   6.115  10.436   4.452  0.2247 -0.6520  1.4097
  300MOL0     H41352   6.215  10.646   4.501 -1.8316 -3.4651  1.7908
  300MOL0     H41353   6.149  10.645   4.341 -2.6820 -0.1790 -1.1883
  300MOL0     H41354   5.964  10.787   4.410  0.7228  2.0024 -0.0945
  300MOL0     H41355   6.020  10.792   4.584 -0.4260 -0.9202 -0.5098
  300MOL0     H41356   6.156  10.903   4.348 -3.3427 -0.5353  0.0512
  300MOL0     H41357   6.070  10.999   4.464  0.0533  1.1104  0.6313
  300MOL0     H41358   6.330  10.823   4.290 -0.2304  1.9750  0.1559
  300MOL0     H41359   6.537  10.588   4.218 -0.2448  0.1532  3.4310
  300MOL0     H41360   6.641  10.725   4.154 -3.2243  1.6202 -5.0610
  300MOL0     H41361   6.471  10.730   4.137 -1.9734 -1.3713  1.9890
  300MOL0     H41362   6.899  10.479   4.589  0.8245 -1.2991  1.2664
  300MOL0     H41363   7.134  10.381   4.635  1.4246  1.2496  0.5617
  300MOL0     H41364   7.332  10.316   4.651 -0.3808 -2.7804  0.0538
  300MOL0     H41365   7.299  10.312   4.471  0.1090  1.3100 -1.0196
  300MOL0     H41366   7.549  10.353   4.444  2.5241 -1.0880  0.7036
  300MOL0     H41367   7.562  10.299   4.613  2.9862 -0.1769 -1.4297
  300MOL0     H41368   7.410  10.128   4.404  0.2126 -1.1907  0.6702
  300MOL0     H41369   7.477  10.074   4.559  0.9746 -1.6713 -0.9302
  300MOL0     H41370   7.699  10.102   4.491  1.0797  2.1460 -0.9182
  300MOL0     H41371   7.659  10.184   4.331  0.5285 -1.6187 -1.7381
  300MOL0     H41372   7.603   9.904   4.412 -1.0079 -0.3157 -0.6379
  300MOL0     H41373   7.526   9.972   4.281  1.2113 -2.0026 -1.1981
  300MOL0     H41374   7.830   9.946   4.323 -0.7871  4.2351  2.5915
  300MOL0     H41375   7.772  10.034   4.181 -0.6632 -0.5375  0.3058
  300MOL0     H41376   7.742   9.751   4.239 -4.2755  0.1985 -0.4869
  300MOL0     H41377   7.850   9.831   4.114  0.8335 -0.4355  1.3575
  300MOL0     H41378   7.648   9.921   4.007 -2.1254 -0.9609 -0.7767
  300MOL0     H41379   7.545   9.812   4.097  0.5719  2.1447  1.3328
  300MOL0     H41380   7.317  10.725   4.498 -1.0014  2.9444  0.3996
  300MOL0     H41381   7.094  10.843   4.473  0.5143  0.5929  0.1760
  300MOL0     H41382   6.682  10.820   4.646  0.7937 -0.1344  0.4272
  300MOL0     H41383   6.453  10.924   4.683  2.3655 -0.1156  0.9251
  300MOL0     H41384   4.655  10.262   4.747  3.9719  0.0545  2.1872
  300MOL0     H41385   4.393  10.307   4.707 -2.3249  1.3000 -0.2440
  300MOL0     H41386   4.014  10.668   4.929  1.9833 -0.8531 -3.3335
  300MOL0     H41387   3.786  10.699   4.965  1.9193  0.3358  0.5386
  300MOL0     H41388   3.605  10.651   5.095 -3.1986  0.2207  1.8617
  300MOL0     H41389   3.537  10.676   4.933  1.8916  1.1898  1.1590
  300MOL0     H41390   3.388  10.677   5.159  1.5866  1.4968 -0.4840
  300MOL0     H41391   3.414  10.504   5.157  0.7067  0.3238 -0.4244
  300MOL0     H41392   3.288  10.660   4.928 -0.7176 -1.1344 -1.7926
  300MOL0     H41393   3.310  10.491   4.926  0.5170  1.5034  0.1385
  300MOL0     H41394   3.126  10.606   5.133  1.0462 -1.0857  1.9072
  300MOL0     H41395   3.165  10.440   5.104 -1.6093  1.1633  2.1261
  300MOL0     H41396   2.906  10.456   4.785 -2.3481 -1.6476  3.1613
  300MOL0     H41397   3.727  10.277   4.945  0.9942 -0.6456 -1.7623
  300MOL0     H41398   4.060  10.179   4.880  0.4727  4.3575 -0.4785
  300MOL0     H41399   4.033  10.175   5.055 -0.5523 -2.3619 -0.7493
  300MOL0     H41400   3.896  10.136   4.961 -3.2732  4.0756  1.9691
  301MOL0     O41401   6.906   0.209   1.089 -0.0605 -0.6916 -0.0685
  301MOL0     C41402   6.882   0.095   1.070 -0.1450 -0.2517 -0.6334
  301MOL0     O41403   6.972   0.003   1.021  0.7964 -0.5615  0.5299
  301MOL0     C41404   7.100   0.047   1.004 -0.8359 -0.1185  0.6097
  301MOL0     C41405   7.165   0.069   0.876  1.3398 -0.1570 -0.6863
  301MOL0     C41406   7.294   0.124   0.873  0.2769  0.0407  0.4784
  301MOL0     C41407   7.364   0.158   0.992 -0.4699 -0.3364  0.7304
  301MOL0     O41408   7.494   0.210   0.993  0.0516  0.6156  0.1125
  301MOL0     C41409   7.553   0.250   0.869  0.7357  1.1329 -0.4994
  301MOL0     C41410   7.686   0.310   0.898  1.1594  0.1355  0.0091
  301MOL0     C41411   7.732   0.421   0.797  1.0131 -0.5470  0.2924
  301MOL0     C41412   7.721   0.381   0.655  0.0840 -0.2151 -0.1872
  301MOL0     C41413   7.760   0.498   0.565  0.6459  0.1338 -0.6646
  301MOL0     C41414   7.707   0.500   0.421  0.6065  0.2541 -0.1643
  301MOL0     C41415   7.567   0.552   0.429 -0.4436 -0.0288  0.5714
  301MOL0     C41416   7.510   0.571   0.277 -0.0583 -0.7547  0.7592
  301MOL0     N41417   7.503   0.450   0.195 -0.3788  0.4085  0.7010
  301MOL0     C41418   7.403   0.357   0.198 -0.6204  0.3252  0.0932
  301MOL0     C41419   7.461   0.258   0.117 -0.1786 -0.1021 -0.6945
  301MOL0     C41420   7.397   0.131   0.091 -0.1113 -0.1909  0.7207
  301MOL0     C41421   7.327   0.130  -0.042 -0.6075 -0.4360 -0.1925
  301MOL0     C41422   7.426   0.128  -0.161 -0.1355 -0.5463  0.1757
  301MOL0     C41423   7.388   0.201  -0.287  0.0293 -0.5801 -0.1210
  301MOL0     O41424   7.462   0.163  -0.406  0.7043  0.5247  0.4086
  301MOL0     C41425   7.566   0.242  -0.454 -0.0000  0.2926 -0.8940
  301MOL0     C41426   7.599   0.225  -0.585  0.1416  0.3145  0.0688
  301MOL0     C41427   7.707   0.283  -0.648  0.2865  0.2443  0.1575
  301MOL0     C41428   7.730   0.246  -0.798  0.1685  0.2752 -0.2262
  301MOL0     C41429   7.781   0.378  -0.575 -0.2785 -0.3477  0.2028
  301MOL0     C41430   7.884   0.466  -0.636 -0.3683  0.1806  0.2091
  301MOL0     O41431   7.937   0.553  -0.544 -0.0029  0.2503 -0.1751
  301MOL0     C41432   7.993   0.672  -0.594  0.7177  0.4655 -0.4103
  301MOL0     C41433   7.910   0.764  -0.658  0.4083 -0.4173 -0.9753
  301MOL0     C41434   7.963   0.886  -0.688  0.5184  0.2240  0.4130
  301MOL0     C41435   8.105   0.917  -0.671  0.6935 -0.2356 -0.0369
  301MOL0     O41436   8.154   1.038  -0.707 -0.2287  0.3368  0.2672
  301MOL0     C41437   8.288   1.048  -0.755  0.6192 -0.3638  0.4629
  301MOL0     C41438   8.295   1.145  -0.871 -0.7859 -0.8381  0.5178
  301MOL0     C41439   8.431   1.156  -0.936  0.3335 -0.1167 -0.1193
  301MOL0     C41440   8.538   1.226  -0.852  0.4624  0.7383  0.7328
  301MOL0     C41441   8.657   1.255  -0.938 -0.0538  0.0490  1.1064
  301MOL0     C41442   8.777   1.315  -0.860  0.0083 -0.2876  0.3351
  301MOL0     C41443   8.908   1.312  -0.937 -0.2821 -0.8486  0.4944
  301MOL0     C41444   9.013   1.415  -0.878 -0.5629  0.2274  0.1446
  301MOL0    Cl41445   9.051   1.356  -0.714  0.1877 -0.4937 -0.2394
  301MOL0     C41446   8.183   0.814  -0.603  0.7904  0.2868 -0.2327
  301MOL0     C41447   8.126   0.695  -0.563 -0.4306  0.2745 -0.5367
  301MOL0     O41448   7.905   0.475  -0.755 -0.0035  0.1338  0.8071
  301MOL0     C41449   7.745   0.403  -0.439  0.9290 -0.6368  0.7975
  301MOL0     C41450   7.638   0.337  -0.379  0.0533  0.1902 -0.1122
  301MOL0     N41451   7.579   0.296   0.062  0.2284  0.2828  0.2120
  301MOL0     N41452   7.612   0.410   0.120 -0.0937  0.1623 -0.4616
  301MOL0     C41453   7.306   0.127   1.113  0.1071  0.9544 -0.4231
  301MOL0     C41454   7.177   0.073   1.111  0.4224  0.3303 -0.1439
  301MOL0     C41455   6.755   0.036   1.125  0.2693  0.2689 -0.5545
  301MOL0     C41456   6.772  -0.078   1.205  0.7709 -0.1455  0.3899
  301MOL0     C41457   6.661  -0.132   1.271  0.5094  0.2624 -0.0900
  301MOL0     C41458   6.528  -0.101   1.243  0.2689  0.1375  0.1563
  301MOL0     O41459   6.419  -0.172   1.295 -0.1170  0.4557 -1.1462
  301MOL0     C41460   6.446  -0.259   1.411 -0.5227  0.4809  0.9685
  301MOL0     C41461   6.315  -0.283   1.490 -0.6200 -0.4479 -0.2575
  301MOL0     C41462   6.220  -0.344   1.388 -0.2579 -0.6691  0.8011
  301MOL0     C41463   6.086  -0.382   1.458  0.2538 -0.7596 -0.5048
  301MOL0     C41464   6.020  -0.273   1.533  0.3356  0.2159 -0.2125
  301MOL0     C41465   5.973  -0.187   1.609  0.0488 -0.8662  0.4178
  301MOL0     C41466   6.516   0.023   1.182  0.1504  0.8657 -0.4987
  301MOL0     C41467   6.624   0.089   1.120  0.3428 -0.0937 -0.8576
  301MOL0     C41468   6.591   0.217   1.043  0.0879 -1.4959  0.5463
  301MOL0     H41469   7.127   0.042   0.779  2.3717 -2.0881 -0.5967
  301MOL0     H41470   7.339   0.146   0.777  1.6440  0.6737  1.2369
  301MOL0     H41471   7.486   0.323   0.821 -1.0148  1.0261  1.6215
  301MOL0     H41472   7.559   0.160   0.807  1.5192  2.9593 -3.2406
  301MOL0     H41473   7.697   0.349   1.000 -0.9319  0.9010 -0.0059
  301MOL0     H41474   7.765   0.236   0.880  1.1513  0.2438 -0.4929
  301MOL0     H41475   7.673   0.512   0.816  1.0044 -0.3776 -0.5347
  301MOL0     H41476   7.835   0.449   0.821  0.0046  3.7613  0.3831
  301MOL0     H41477   7.790   0.298   0.636 -0.0841 -0.3124 -0.3676
  301MOL0     H41478   7.622   0.341   0.634  0.5951 -1.3086 -0.5822
  301MOL0     H41479   7.869   0.493   0.563  0.7323  1.2643  0.4128
  301MOL0     H41480   7.722   0.589   0.612  1.1132 -0.8773  1.8063
  301MOL0     H41481   7.762   0.562   0.349  2.6004 -1.3600 -0.1353
  301MOL0     H41482   7.708   0.402   0.371  2.9618  0.3426 -0.4017
  301MOL0     H41483   7.565   0.652   0.474  1.3211  0.3721 -0.1511
  301MOL0     H41484   7.501   0.478   0.475 -1.5301  1.1004  0.8905
  301MOL0     H41485   7.409   0.612   0.287 -0.4196 -0.9537 -1.6618
  301MOL0     H41486   7.574   0.644   0.225 -2.6363  1.3323  0.3122
  301MOL0     H41487   7.307   0.352   0.250 -0.9904 -0.3420 -0.6256
  301MOL0     H41488   7.323   0.110   0.168  0.3055  1.7351  1.7256
  301MOL0     H41489   7.472   0.054   0.112 -0.8802 -0.7415  1.5080
  301MOL0     H41490   7.271   0.036  -0.035 -3.3960  0.9967 -1.6377
  301MOL0     H41491   7.254   0.211  -0.044  0.4691  0.6613  1.7874
  301MOL0     H41492   7.513   0.188  -0.133 -0.0761 -0.3592 -0.4069
  301MOL0     H41493   7.455   0.027  -0.191 -2.6521 -1.0220 -0.8155
  301MOL0     H41494   7.283   0.178  -0.308 -0.3008  2.0363 -1.7674
  301MOL0     H41495   7.395   0.309  -0.268  2.8599 -0.7187  0.1496
  301MOL0     H41496   7.541   0.147  -0.633 -0.6905 -0.4828  2.2226
  301MOL0     H41497   7.833   0.243  -0.836 -0.0724  1.7184 -1.0649
  301MOL0     H41498   7.675   0.314  -0.864 -0.9755 -1.8706 -1.6085
  301MOL0     H41499   7.690   0.145  -0.806 -0.1437  0.5521 -3.1332
  301MOL0     H41500   7.803   0.752  -0.667  0.2446 -0.1089  0.3538
  301MOL0     H41501   7.895   0.951  -0.742  0.1984 -1.1658 -0.9320
  301MOL0     H41502   8.348   1.090  -0.675 -1.0243  2.2600  0.4471
  301MOL0     H41503   8.327   0.948  -0.778 -1.8637 -2.0132  2.7366
  301MOL0     H41504   8.215   1.118  -0.940 -2.5318  1.5609  1.4336
  301MOL0     H41505   8.260   1.243  -0.837 -1.7157 -0.9378 -0.1112
  301MOL0     H41506   8.417   1.202  -1.034  1.6927 -0.5708 -0.5464
  301MOL0     H41507   8.459   1.053  -0.963 -0.0133 -0.1822 -0.2332
  301MOL0     H41508   8.563   1.167  -0.764  0.1765 -1.2628 -0.4528
  301MOL0     H41509   8.499   1.319  -0.811  1.7512  1.6399  0.0138
  301MOL0     H41510   8.692   1.159  -0.977  4.2575 -0.0482  4.4077
  301MOL0     H41511   8.631   1.317  -1.024 -1.5878 -0.4448  1.1826
  301MOL0     H41512   8.791   1.257  -0.769  0.4414 -0.6226  0.0652
  301MOL0     H41513   8.752   1.420  -0.843 -1.8984  0.0955 -3.5689
  301MOL0     H41514   8.889   1.336  -1.042 -0.3262  0.1385  0.7143
  301MOL0     H41515   8.946   1.210  -0.934  1.5685 -0.1943  3.4268
  301MOL0     H41516   8.961   1.510  -0.862 -0.7429  0.2491 -0.5504
  301MOL0     H41517   9.092   1.422  -0.953 -2.4120  1.5551 -1.7934
  301MOL0     H41518   8.289   0.830  -0.589  0.7959  0.0401  0.0136
  301MOL0     H41519   8.177   0.618  -0.507 -1.7227 -0.1149  0.1150
  301MOL0     H41520   7.778   0.496  -0.393 -0.8105  1.7524 -2.3950
  301MOL0     H41521   7.606   0.357  -0.277 -1.2491 -1.7879 -0.0925
  301MOL0     H41522   7.347   0.160   1.208 -1.5374  1.1014  0.2730
  301MOL0     H41523   7.134   0.034   1.203  1.1426  2.2276  1.0520
  301MOL0     H41524   6.876  -0.108   1.221  0.6119 -0.5811  0.6136
  301MOL0     H41525   6.686  -0.220   1.330 -3.1684 -0.1455  1.0927
  301MOL0     H41526   6.478  -0.356   1.372 -2.1087  0.4031 -0.2063
  301MOL0     H41527   6.514  -0.216   1.485 -1.3936 -0.0506  2.1209
  301MOL0     H41528   6.273  -0.200   1.549 -1.0396 -3.9520  5.1474
  301MOL0     H41529   6.334  -0.359   1.567  0.0187  0.4650  0.5115
  301MOL0     H41530   6.206  -0.282   1.299  2.0808 -0.8018  0.3004
  301MOL0     H41531   6.261  -0.437   1.349  1.4630 -0.9153  3.0184
  301MOL0     H41532   6.105  -0.471   1.519  1.6459  0.0053  0.2273
  301MOL0     H41533   6.026  -0.412   1.371  0.2445 -0.6586 -0.5333
  301MOL0     H41534   5.939  -0.122   1.688  0.8036 -1.3606  1.1577
  301MOL0     H41535   6.415   0.063   1.176 -1.0780 -1.8870 -0.1221
  301MOL0     H41536   6.486   0.222   1.015  0.2140 -2.0329 -0.0605
  301MOL0     H41537   6.615   0.313   1.089 -1.1918 -0.1428 -1.4990
  301MOL0     H41538   6.643   0.212   0.947 -0.7625  1.4320 -0.1376
  302MOL0     O41539   3.139   7.914  10.707  0.1293 -0.1004  0.2127
  302MOL0     C41540   3.124   7.951  10.818  0.1479 -0.9737  0.4574
  302MOL0     O41541   3.219   7.957  10.911  0.2244  0.2750 -0.4362
  302MOL0     C41542   3.349   7.907  10.882 -0.5569  0.7862 -0.3772
  302MOL0     C41543   3.451   8.000  10.903  0.8190 -0.0129  0.0136
  302MOL0     C41544   3.577   7.973  10.862  0.2189 -0.6016  0.0455
  302MOL0     C41545   3.613   7.852  10.802  0.3514 -0.5577  0.0836
  302MOL0     O41546   3.742   7.831  10.758  0.1855 -0.4244  0.6024
  302MOL0     C41547   3.797   7.712  10.816  0.3795  0.0595  0.7064
  302MOL0     C41548   3.943   7.704  10.797 -1.1175  0.4170 -0.0157
  302MOL0     C41549   3.994   7.722  10.650 -0.2649 -0.3693  0.5471
  302MOL0     C41550   3.993   7.588  10.568 -0.0093  0.1015 -0.0455
  302MOL0     C41551   4.087   7.592  10.450 -0.5522  0.0496  0.1674
  302MOL0     C41552   4.087   7.464  10.359 -0.2991  0.7436 -0.0825
  302MOL0     C41553   4.184   7.468  10.240 -0.0526  0.3664 -0.3119
  302MOL0     C41554   4.132   7.385  10.118  0.3728 -0.4780  0.2467
  302MOL0     N41555   4.235   7.384  10.016  1.2737  0.0178 -0.4441
  302MOL0     C41556   4.250   7.481   9.916 -0.1445  0.7284 -0.1587
  302MOL0     C41557   4.339   7.425   9.829 -0.5094  0.6599  0.0542
  302MOL0     C41558   4.386   7.482   9.695  0.4267  0.1236 -0.3810
  302MOL0     C41559   4.529   7.545   9.697  0.1862 -0.5391  0.0382
  302MOL0     C41560   4.640   7.437   9.667  0.6018  0.1142 -0.2262
  302MOL0     C41561   4.771   7.497   9.630  0.4417  0.3172  0.6811
  302MOL0     O41562   4.764   7.574   9.509  0.7799 -0.2495 -0.3986
  302MOL0     C41563   4.875   7.625   9.443 -1.0530  0.3337  0.9934
  302MOL0     C41564   4.874   7.684   9.319  0.3369 -0.6400 -0.4210
  302MOL0     C41565   4.983   7.712   9.236 -1.2940 -0.3636 -0.2089
  302MOL0     C41566   4.960   7.774   9.102 -0.7808 -0.5171 -0.1959
  302MOL0     C41567   5.108   7.695   9.292  0.6961  1.2216  0.3938
  302MOL0     C41568   5.244   7.734   9.233  0.6751 -0.4321 -0.3288
  302MOL0     O41569   5.344   7.729   9.317 -0.4088 -0.7409 -0.3890
  302MOL0     C41570   5.462   7.755   9.261  0.2749  0.2724  0.4725
  302MOL0     C41571   5.543   7.665   9.191  0.5369  0.2213  0.9441
  302MOL0     C41572   5.657   7.710   9.125 -0.0160  0.2676 -0.6005
  302MOL0     C41573   5.691   7.843   9.153 -1.4950  0.3689 -0.1117
  302MOL0     O41574   5.817   7.879   9.116  0.1868 -0.6163  0.5505
  302MOL0     C41575   5.834   7.920   8.981 -0.1219 -0.0750 -0.4265
  302MOL0     C41576   5.963   8.015   8.969 -0.0991  1.0207  0.3096
  302MOL0     C41577   6.074   7.960   9.047 -1.4406  0.3255  0.5465
  302MOL0     C41578   6.199   8.047   9.063 -0.3012 -0.3563  0.7212
  302MOL0     C41579   6.291   8.006   9.174 -1.3653 -0.3962  0.0971
  302MOL0     C41580   6.385   7.881   9.153  0.3990  0.2370 -0.0379
  302MOL0     C41581   6.500   7.884   9.256  0.9166 -0.6470 -0.3263
  302MOL0     C41582   6.590   7.760   9.248 -0.7895  0.1287 -1.3698
  302MOL0    Cl41583   6.727   7.756   9.145 -0.1322  0.0859 -0.5492
  302MOL0     C41584   5.618   7.935   9.218  0.6686 -0.0878  0.3070
  302MOL0     C41585   5.493   7.896   9.269 -0.6140  0.2542  0.3996
  302MOL0     O41586   5.242   7.794   9.123  0.4370 -0.0116  0.3248
  302MOL0     C41587   5.115   7.641   9.421  0.3813 -0.4178 -0.1313
  302MOL0     C41588   5.002   7.602   9.500 -0.0915  0.4587  0.0423
  302MOL0     N41589   4.394   7.312   9.896 -0.3194  0.5929  0.5474
  302MOL0     N41590   4.331   7.291  10.004 -0.0396 -0.1235 -1.2712
  302MOL0     C41591   3.513   7.757  10.781 -0.3082  0.5932  0.0253
  302MOL0     C41592   3.382   7.792  10.817  0.5283  1.1172  0.5791
  302MOL0     C41593   2.983   7.966  10.869 -0.3238 -0.2089  0.4463
  302MOL0     C41594   2.956   7.972  11.008  0.3960  0.7817  0.6698
  302MOL0     C41595   2.825   7.981  11.054 -0.6273  0.0483 -0.2281
  302MOL0     C41596   2.709   7.988  10.972 -0.4653  0.0455 -0.2511
  302MOL0     O41597   2.592   7.991  11.035  0.3790 -0.2559  0.2396
  302MOL0     C41598   2.476   8.048  10.971  0.5110  0.8933  0.2772
  302MOL0     C41599   2.383   7.936  10.909  0.6924 -0.1127 -0.4359
  302MOL0     C41600   2.353   7.976  10.762  0.3022  0.1796  0.6513
  302MOL0     C41601   2.232   7.895  10.694  0.2036 -1.0113 -0.4036
  302MOL0     C41602   2.110   7.903  10.769  1.1022  0.0597 -0.0496
  302MOL0     C41603   2.000   7.927  10.814  0.9277  0.7957 -0.7274
  302MOL0     C41604   2.739   7.974  10.840 -0.2852  1.0663  0.6397
  302MOL0     C41605   2.863   7.959  10.782 -0.8310 -0.1921 -0.6828
  302MOL0     C41606   2.879   7.935  10.633  0.3672 -0.1619 -0.0574
  302MOL0     H41607   3.442   8.090  10.963 -0.3440  0.2674 -0.5527
  302MOL0     H41608   3.647   8.054  10.880 -2.9872  2.1655  0.9970
  302MOL0     H41609   3.744   7.632  10.763  0.0467 -0.6750  2.0964
  302MOL0     H41610   3.776   7.708  10.923  1.0232  0.9998  0.8793
  302MOL0     H41611   3.988   7.784  10.856 -1.3985  0.6147 -0.0700
  302MOL0     H41612   3.984   7.615  10.845  0.6209  2.2132  2.0834
  302MOL0     H41613   3.932   7.800  10.603  0.4194  1.3958  2.4022
  302MOL0     H41614   4.098   7.754  10.648  0.1635 -1.7304 -0.2502
  302MOL0     H41615   4.024   7.501  10.626  3.0447 -0.0309 -1.6897
  302MOL0     H41616   3.891   7.566  10.536 -1.2459 -1.3222  4.2008
  302MOL0     H41617   4.189   7.602  10.489  0.0428 -2.8679 -0.3826
  302MOL0     H41618   4.056   7.677  10.388 -1.0432 -0.5848 -0.4759
  302MOL0     H41619   4.115   7.382  10.425 -3.2390 -0.4646 -0.1938
  302MOL0     H41620   3.986   7.437  10.327  0.8425 -1.3890 -2.2974
  302MOL0     H41621   4.279   7.422  10.266 -0.1323  0.3748 -0.0080
  302MOL0     H41622   4.206   7.564  10.192  1.4839 -0.8578 -2.2319
  302MOL0     H41623   4.104   7.283  10.149  2.0178 -1.3686 -1.0182
  302MOL0     H41624   4.043   7.425  10.069  0.7301  0.7741  0.6022
  302MOL0     H41625   4.194   7.573   9.917 -1.2437  0.0741 -0.3819
  302MOL0     H41626   4.318   7.563   9.667 -1.0816 -1.2013 -0.7076
  302MOL0     H41627   4.383   7.411   9.611 -1.9682 -1.9559  1.2782
  302MOL0     H41628   4.540   7.628   9.628 -3.4496  0.4730  0.4754
  302MOL0     H41629   4.540   7.571   9.803 -1.7758 -0.4449  0.2607
  302MOL0     H41630   4.652   7.366   9.749  3.2070 -0.1813 -0.7777
  302MOL0     H41631   4.611   7.374   9.583 -0.9056 -1.0642  1.1087
  302MOL0     H41632   4.801   7.566   9.710  2.4823  1.7962 -1.2249
  302MOL0     H41633   4.839   7.412   9.616  1.8101  1.7104 -2.0323
  302MOL0     H41634   4.782   7.705   9.266 -0.3758 -0.3865  0.8752
  302MOL0     H41635   4.854   7.759   9.078 -1.4034  0.8224  1.4926
  302MOL0     H41636   5.028   7.723   9.033 -1.8623 -0.3863 -1.4055
  302MOL0     H41637   4.969   7.883   9.108 -2.8446 -0.3843  1.4785
  302MOL0     H41638   5.535   7.558   9.181  2.3155  0.2218 -1.1547
  302MOL0     H41639   5.714   7.634   9.073 -3.0635 -2.0519 -0.8623
  302MOL0     H41640   5.857   7.833   8.919  2.1537 -0.5614  0.9932
  302MOL0     H41641   5.748   7.975   8.942 -0.9062  0.2518  1.6405
  302MOL0     H41642   5.991   8.011   8.864  1.2602  1.4799  0.6365
  302MOL0     H41643   5.936   8.111   9.014 -4.7581 -1.0470  2.6532
  302MOL0     H41644   6.095   7.864   9.000  0.6839  1.5782 -1.2510
  302MOL0     H41645   6.045   7.941   9.151 -2.6441  0.0285  0.1682
  302MOL0     H41646   6.170   8.152   9.079  0.7925  0.4355 -1.8547
  302MOL0     H41647   6.256   8.052   8.969  2.9281  1.2034  2.6114
  302MOL0     H41648   6.354   8.093   9.195 -1.1817 -0.1358 -1.3653
  302MOL0     H41649   6.236   7.984   9.265  0.7071  0.3255  1.5974
  302MOL0     H41650   6.421   7.876   9.050 -0.8007  1.1893 -0.5323
  302MOL0     H41651   6.330   7.788   9.169 -0.4089  0.8873  1.2658
  302MOL0     H41652   6.460   7.894   9.358  0.8763  3.5573 -0.5481
  302MOL0     H41653   6.559   7.975   9.241  0.3700 -0.1401  0.4774
  302MOL0     H41654   6.522   7.677   9.229  0.8295 -1.6052 -0.0157
  302MOL0     H41655   6.630   7.755   9.350 -2.0091  1.7954 -0.7529
  302MOL0     H41656   5.657   8.035   9.230  0.9981 -0.0649 -0.8289
  302MOL0     H41657   5.423   7.960   9.322 -0.5483 -0.5431  1.4965
  302MOL0     H41658   5.211   7.617   9.467 -0.9100 -2.4537  1.7026
  302MOL0     H41659   5.019   7.548   9.592 -1.8020  1.7695  1.1835
  302MOL0     H41660   3.522   7.660  10.733  0.4259  0.5816  0.1608
  302MOL0     H41661   3.298   7.728  10.792  1.9680 -1.4531  1.9121
  302MOL0     H41662   3.029   7.989  11.087 -0.5541  0.8274  1.5725
  302MOL0     H41663   2.791   7.993  11.156 -5.1192 -1.0872 -1.3532
  302MOL0     H41664   2.415   8.104  11.043 -4.4755 -1.9676 -1.2367
  302MOL0     H41665   2.500   8.129  10.901  1.3278 -2.0434 -3.1188
  302MOL0     H41666   2.286   7.940  10.960  0.3356 -0.4005 -1.0667
  302MOL0     H41667   2.429   7.836  10.915 -1.1261 -0.9945 -0.4818
  302MOL0     H41668   2.322   8.081  10.761  1.3392  0.5310 -2.0731
  302MOL0     H41669   2.442   7.953  10.703 -0.6304 -0.5445 -0.4998
  302MOL0     H41670   2.259   7.789  10.682  1.7824 -0.8113  0.9336
  302MOL0     H41671   2.224   7.945  10.597  0.0282 -3.4328 -1.7058
  302MOL0     H41672   1.906   7.921  10.864  0.8847 -3.2918 -0.9312
  302MOL0     H41673   2.646   7.955  10.787  1.0606 -3.7262 -0.4283
  302MOL0     H41674   2.904   7.830  10.618 -0.2398 -0.2970 -0.1700
  302MOL0     H41675   2.788   7.957  10.575  1.6557 -0.9470 -2.5256
  302MOL0     H41676   2.940   8.010  10.583 -0.3337 -0.9783 -2.2376
  303MOL0     O41677   9.517   2.563   5.102  0.7348  0.1036 -0.7792
  303MOL0     C41678   9.475   2.675   5.096 -0.0851 -0.4594 -0.2407
  303MOL0     O41679   9.538   2.790   5.137 -1.2184  0.0591 -0.9997
  303MOL0     C41680   9.631   2.797   5.241  0.3281  0.7165 -0.2343
  303MOL0     C41681   9.764   2.786   5.220 -0.3377  0.8312 -0.4876
  303MOL0     C41682   9.856   2.777   5.330  0.3515 -0.6713 -0.1810
  303MOL0     C41683   9.818   2.797   5.455  0.2993 -0.3254 -0.5050
  303MOL0     O41684   9.915   2.802   5.552 -0.4040 -0.1667 -0.0587
  303MOL0     C41685   9.884   2.880   5.663 -0.1390  0.3868 -0.1371
  303MOL0     C41686   9.825   2.802   5.783  0.3344 -0.4083 -0.1424
  303MOL0     C41687   9.940   2.718   5.853  0.4353  0.3083 -0.0592
  303MOL0     C41688   9.895   2.642   5.976 -0.2401 -0.3139 -0.9242
  303MOL0     C41689   9.873   2.710   6.113  0.3499  0.0285 -0.2979
  303MOL0     C41690   9.980   2.805   6.163  0.0487  0.0984  0.3580
  303MOL0     C41691  10.113   2.735   6.180 -1.0060 -0.0658 -0.0250
  303MOL0     C41692  10.097   2.635   6.299  0.3622 -0.1529 -0.1575
  303MOL0     N41693  10.095   2.696   6.436  0.6030  0.9160 -0.3663
  303MOL0     C41694  10.180   2.794   6.482 -0.4428  0.6494  0.3941
  303MOL0     C41695  10.126   2.826   6.600  0.2579 -1.4554 -0.1185
  303MOL0     C41696  10.183   2.935   6.675  0.4871  0.1545  0.3315
  303MOL0     C41697  10.089   2.981   6.796  0.7263  0.1089 -0.1825
  303MOL0     C41698   9.970   3.064   6.750 -0.4926  1.0984 -0.7475
  303MOL0     C41699   9.870   3.101   6.849 -0.6361  0.3436 -0.8257
  303MOL0     O41700   9.936   3.161   6.956  0.0112 -0.3166 -0.9871
  303MOL0     C41701   9.866   3.205   7.068  0.0718 -0.0724  0.3171
  303MOL0     C41702   9.732   3.183   7.090 -0.4736 -0.0996 -0.3702
  303MOL0     C41703   9.663   3.237   7.202 -0.1784  0.8481  0.0449
  303MOL0     C41704   9.515   3.210   7.204 -0.0993 -0.6379  0.3341
  303MOL0     C41705   9.735   3.294   7.305  0.2173 -0.5330  0.0517
  303MOL0     C41706   9.681   3.350   7.433 -0.0141  0.0503  1.1711
  303MOL0     O41707   9.771   3.417   7.513 -0.1441 -0.1777 -0.3369
  303MOL0     C41708   9.730   3.485   7.624 -0.1997 -0.5741  1.1479
  303MOL0     C41709   9.741   3.627   7.630 -0.5876  1.0922 -0.4540
  303MOL0     C41710   9.716   3.689   7.751  0.4230  0.0902 -0.3892
  303MOL0     C41711   9.672   3.617   7.868 -0.9243  0.1116  0.3045
  303MOL0     O41712   9.621   3.683   7.983 -0.8152  0.2393  0.4719
  303MOL0     C41713   9.611   3.827   7.995  0.1691  0.1668 -0.5869
  303MOL0     C41714   9.754   3.880   8.029  0.0542  0.8641  0.4039
  303MOL0     C41715   9.746   4.032   8.073  0.2087 -0.5667  0.9409
  303MOL0     C41716   9.723   4.049   8.219 -0.0974  0.4370  0.5755
  303MOL0     C41717   9.711   4.198   8.255 -0.2160 -0.9529  0.2411
  303MOL0     C41718   9.666   4.218   8.407 -0.7356  0.0385 -0.6545
  303MOL0     C41719   9.762   4.155   8.511 -1.1775  0.2193  1.0004
  303MOL0     C41720   9.725   4.012   8.540  0.8277  0.1039  0.0273
  303MOL0    Cl41721   9.843   3.941   8.646 -0.1355 -0.0419 -0.1071
  303MOL0     C41722   9.676   3.478   7.858 -0.0452 -0.4278 -0.5254
  303MOL0     C41723   9.700   3.411   7.737 -0.2632  0.4292 -0.1153
  303MOL0     O41724   9.563   3.348   7.448 -0.1849  0.2085  0.4296
  303MOL0     C41725   9.872   3.298   7.285 -0.8392  0.5369 -0.5043
  303MOL0     C41726   9.938   3.257   7.173  0.6002 -0.6832 -0.4015
  303MOL0     N41727  10.007   2.758   6.618 -1.0170  0.4865  0.5007
  303MOL0     N41728   9.993   2.678   6.519 -0.0734  0.0719 -0.0404
  303MOL0     C41729   9.681   2.823   5.474  0.3424 -0.0913 -0.6847
  303MOL0     C41730   9.583   2.813   5.374 -1.0416  0.8327  0.2991
  303MOL0     C41731   9.348   2.697   5.026  0.9798 -0.0086 -0.2095
  303MOL0     C41732   9.297   2.830   5.008 -0.0748  0.5859  0.6811
  303MOL0     C41733   9.162   2.853   4.962 -0.3369 -0.9193  0.1992
  303MOL0     C41734   9.078   2.750   4.937 -0.0351 -0.4590  0.0501
  303MOL0     O41735   8.955   2.775   4.892 -0.1038  0.0638  1.2451
  303MOL0     C41736   8.914   2.681   4.787  0.0760 -0.1812  0.0378
  303MOL0     C41737   8.805   2.759   4.718 -0.5638 -0.4673 -1.0586
  303MOL0     C41738   8.707   2.672   4.645  0.0723 -0.2813  0.1315
  303MOL0     C41739   8.624   2.743   4.533 -0.3828 -0.4391 -0.3463
  303MOL0     C41740   8.550   2.862   4.565 -0.7159 -0.5195  0.8999
  303MOL0     C41741   8.474   2.954   4.578 -0.0590 -0.4611  0.1075
  303MOL0     C41742   9.125   2.620   4.955 -0.2817 -0.2313  0.0458
  303MOL0     C41743   9.254   2.588   4.997 -0.3828 -0.4353  0.3611
  303MOL0     C41744   9.278   2.438   5.021  0.5894  0.2327  0.6833
  303MOL0     H41745   9.799   2.782   5.118 -0.2755 -1.5067 -0.4093
  303MOL0     H41746   9.964   2.765   5.325  0.1975 -3.1023  0.7887
  303MOL0     H41747   9.826   2.968   5.634  1.9765  2.0175  0.2660
  303MOL0     H41748   9.983   2.918   5.692 -0.0595  0.4967 -0.5503
  303MOL0     H41749   9.789   2.883   5.847 -1.2169 -2.1442  1.2818
  303MOL0     H41750   9.740   2.744   5.745 -1.7465  0.6216  2.6430
  303MOL0     H41751   9.962   2.649   5.771 -1.1585 -0.6663  0.2848
  303MOL0     H41752  10.026   2.783   5.870  0.9315  0.3943 -2.5187
  303MOL0     H41753   9.798   2.602   5.944 -0.3922  0.1422 -1.0458
  303MOL0     H41754   9.962   2.557   5.994  0.4197  0.5718  0.9763
  303MOL0     H41755   9.843   2.636   6.188 -1.4351  0.9241 -0.0737
  303MOL0     H41756   9.784   2.772   6.098  0.7208  0.0114 -3.2775
  303MOL0     H41757   9.999   2.880   6.086  2.3012 -0.2546  0.4955
  303MOL0     H41758   9.958   2.859   6.256 -0.1753 -1.1086  1.0292
  303MOL0     H41759  10.194   2.806   6.196 -2.5422  2.2359 -1.7539
  303MOL0     H41760  10.138   2.680   6.089 -1.1788 -0.8261  0.3744
  303MOL0     H41761  10.018   2.560   6.287  0.4859 -0.7733  2.3074
  303MOL0     H41762  10.173   2.557   6.309 -2.0562 -2.5058  0.9913
  303MOL0     H41763  10.270   2.826   6.430 -0.7441  1.2734  0.2479
  303MOL0     H41764  10.194   3.020   6.608  1.2531  0.6796  1.0959
  303MOL0     H41765  10.276   2.893   6.715 -1.5187 -3.8034  1.4654
  303MOL0     H41766  10.049   2.895   6.852  2.8563  0.1604  1.5800
  303MOL0     H41767  10.150   3.038   6.866  0.6357 -0.5714  0.4722
  303MOL0     H41768  10.000   3.164   6.718 -0.3160  1.4072  0.3655
  303MOL0     H41769   9.921   3.006   6.671 -0.9172 -0.6382  0.7419
  303MOL0     H41770   9.806   3.167   6.789 -1.0478  1.3885  0.7002
  303MOL0     H41771   9.809   3.024   6.897 -0.4276  1.1326  0.7695
  303MOL0     H41772   9.663   3.128   7.027 -1.5548 -0.8780  1.4018
  303MOL0     H41773   9.474   3.166   7.296 -0.9735 -1.9518 -0.6601
  303MOL0     H41774   9.496   3.128   7.135  4.1017 -2.1945  0.7578
  303MOL0     H41775   9.462   3.302   7.177  1.0348 -0.5282 -1.6644
  303MOL0     H41776   9.769   3.680   7.539 -0.2532 -1.3211 -1.8617
  303MOL0     H41777   9.711   3.797   7.750 -0.6114  0.0597  0.0708
  303MOL0     H41778   9.574   3.884   7.910  0.7981  2.7416  0.7596
  303MOL0     H41779   9.541   3.858   8.073 -1.3298 -0.9560 -1.4267
  303MOL0     H41780   9.804   3.817   8.104  2.0901  0.0020 -1.5471
  303MOL0     H41781   9.816   3.880   7.939  1.0615  2.0522  1.0642
  303MOL0     H41782   9.673   4.087   8.013  0.6914 -1.2873 -0.3482
  303MOL0     H41783   9.837   4.077   8.033 -0.6737 -2.1754 -3.3968
  303MOL0     H41784   9.810   4.012   8.273  0.0564  1.5889  1.1538
  303MOL0     H41785   9.635   3.990   8.249 -0.3060  0.8030  0.6939
  303MOL0     H41786   9.810   4.239   8.233 -1.6471  1.5110 -2.4172
  303MOL0     H41787   9.640   4.247   8.187 -1.9582 -0.0042  2.6091
  303MOL0     H41788   9.568   4.174   8.429 -0.2862  0.3858  2.6104
  303MOL0     H41789   9.648   4.322   8.436 -2.6869  0.1994 -2.1879
  303MOL0     H41790   9.758   4.203   8.609  1.5512 -0.9390  1.7433
  303MOL0     H41791   9.865   4.151   8.476 -0.8891 -0.5012  1.8972
  303MOL0     H41792   9.705   3.962   8.446 -1.6280  2.3188 -0.7503
  303MOL0     H41793   9.633   3.996   8.597 -0.7335  1.1227 -2.0771
  303MOL0     H41794   9.659   3.405   7.936 -0.9903  0.6699  0.3257
  303MOL0     H41795   9.711   3.303   7.743  1.6301  0.4263 -2.4092
  303MOL0     H41796   9.931   3.334   7.368 -2.2457 -0.9978  1.2633
  303MOL0     H41797  10.045   3.254   7.159  0.5220 -0.6823 -1.0351
  303MOL0     H41798   9.629   2.848   5.567 -0.1334  3.2107 -1.7101
  303MOL0     H41799   9.479   2.830   5.400 -1.9010 -0.0168 -2.3365
  303MOL0     H41800   9.362   2.915   5.023 -1.4657  1.6894  0.5799
  303MOL0     H41801   9.143   2.956   4.935  1.5943 -0.9187 -1.4869
  303MOL0     H41802   8.995   2.657   4.718  1.6972  0.1203  1.7506
  303MOL0     H41803   8.880   2.586   4.829  0.2497  0.1313  0.9081
  303MOL0     H41804   8.843   2.845   4.661  1.2907 -2.0951 -2.3970
  303MOL0     H41805   8.744   2.809   4.794  1.6044  2.1279 -0.8676
  303MOL0     H41806   8.759   2.587   4.600  0.7237 -0.3536  1.0001
  303MOL0     H41807   8.635   2.638   4.720  0.6750  0.4170  1.0491
  303MOL0     H41808   8.549   2.664   4.521  1.1779 -2.8430  3.7369
  303MOL0     H41809   8.688   2.749   4.445  0.2637  0.7637  0.1816
  303MOL0     H41810   8.410   3.039   4.584  1.3675  0.7872 -1.5470
  303MOL0     H41811   9.056   2.538   4.940 -2.2704  1.6410 -1.9619
  303MOL0     H41812   9.289   2.422   5.129 -1.1590  1.9414  1.1670
  303MOL0     H41813   9.195   2.383   4.976  1.0937  0.4879 -0.6165
  303MOL0     H41814   9.369   2.404   4.971 -0.1381 -1.3263  0.3544
  304MOL0     O41815  10.030   7.682   1.929 -0.8749  0.6615  0.0142
  304MOL0     C41816   9.960   7.705   1.832 -0.2962 -0.3007  0.0853
  304MOL0     O41817  10.000   7.691   1.697  0.3663  0.2161  0.6431
  304MOL0     C41818  10.104   7.610   1.674 -0.5265  0.7628 -0.3692
  304MOL0     C41819  10.097   7.469   1.667  0.6403  0.6872  0.2873
  304MOL0     C41820  10.202   7.389   1.638  0.1024  0.1490  0.3237
  304MOL0     C41821  10.327   7.448   1.615 -0.0287 -0.2047  0.3067
  304MOL0     O41822  10.440   7.381   1.561  0.7030  0.1321  0.0562
  304MOL0     C41823  10.569   7.424   1.599 -0.0480 -0.1731 -0.0103
  304MOL0     C41824  10.672   7.310   1.582 -0.8405 -0.8780  0.0365
  304MOL0     C41825  10.634   7.196   1.487 -0.3349  0.1856 -0.1068
  304MOL0     C41826  10.739   7.077   1.504  0.9319  0.1083  0.7458
  304MOL0     C41827  10.690   6.955   1.418 -0.1346  0.2300  0.8226
  304MOL0     C41828  10.800   6.839   1.401 -0.2775  0.0639  0.1458
  304MOL0     C41829  10.744   6.741   1.309 -0.0302 -0.0611  0.4762
  304MOL0     C41830  10.738   6.788   1.161 -0.4405 -1.1756 -0.8421
  304MOL0     N41831  10.876   6.820   1.112  0.1531  0.0524 -0.2381
  304MOL0     C41832  10.981   6.729   1.112 -0.4104 -0.1830  0.1023
  304MOL0     C41833  11.085   6.804   1.059  0.1569  0.0798 -0.0678
  304MOL0     C41834  11.219   6.746   1.030 -0.0424 -0.9608 -0.2690
  304MOL0     C41835  11.308   6.719   1.151  0.0642  1.0413 -0.3897
  304MOL0     C41836  11.445   6.641   1.120  0.6842  0.0968  0.0070
  304MOL0     C41837  11.540   6.712   1.027 -0.0705 -0.5317  0.7491
  304MOL0     O41838  11.621   6.614   0.959  0.4533  0.0825  0.4991
  304MOL0     C41839  11.715   6.659   0.867  0.5931  0.2012  0.4330
  304MOL0     C41840  11.671   6.657   0.739  0.3060 -0.1278  0.4668
  304MOL0     C41841  11.750   6.721   0.642 -0.0506 -0.3172  0.0501
  304MOL0     C41842  11.704   6.717   0.496  0.4863 -0.2394 -0.5215
  304MOL0     C41843  11.879   6.774   0.679  0.5936  0.8670  0.4050
  304MOL0     C41844  11.975   6.825   0.584 -0.2070 -0.6190  0.3044
  304MOL0     O41845  12.057   6.924   0.637  0.5050  0.6126  0.3900
  304MOL0     C41846  12.133   6.991   0.557 -0.0374 -0.1927  0.0556
  304MOL0     C41847  12.074   7.095   0.473 -0.5723  0.2002 -0.2818
  304MOL0     C41848  12.153   7.165   0.386  0.3059  0.1466 -0.0501
  304MOL0     C41849  12.290   7.145   0.382  0.0510 -0.4939 -0.5205
  304MOL0     O41850  12.373   7.225   0.298  0.4971  0.7495 -1.2058
  304MOL0     C41851  12.515   7.206   0.301  0.0191  0.0873  0.4253
  304MOL0     C41852  12.573   7.314   0.211  0.2817 -0.1326  0.1571
  304MOL0     C41853  12.719   7.281   0.186 -0.6254 -0.2431 -0.2061
  304MOL0     C41854  12.769   7.383   0.079 -0.1896  0.0886 -0.4852
  304MOL0     C41855  12.921   7.406   0.078 -0.1607  0.3212  0.8466
  304MOL0     C41856  12.952   7.539   0.013  0.9323 -0.6604 -0.0277
  304MOL0     C41857  13.100   7.586   0.037 -0.6578  0.2740 -0.0803
  304MOL0     C41858  13.109   7.739   0.055  0.0009 -0.1373 -0.6256
  304MOL0    Cl41859  13.049   7.797   0.212 -0.4634  0.4150 -0.0827
  304MOL0     C41860  12.349   7.043   0.467  0.3906 -0.0915  0.4082
  304MOL0     C41861  12.269   6.967   0.553 -0.6179  0.0185 -0.1048
  304MOL0     O41862  11.987   6.786   0.464  0.0720 -0.4108  0.2546
  304MOL0     C41863  11.917   6.775   0.815  0.1971  0.6072 -0.5973
  304MOL0     C41864  11.829   6.725   0.910  0.6384 -0.2952  0.6080
  304MOL0     N41865  11.049   6.937   1.053 -0.0947 -0.3329  0.0621
  304MOL0     N41866  10.924   6.941   1.086  0.1646 -0.2220 -0.3220
  304MOL0     C41867  10.339   7.589   1.613  0.1566  0.6805  0.4517
  304MOL0     C41868  10.224   7.665   1.646 -0.0267  0.4867 -0.2863
  304MOL0     C41869   9.811   7.734   1.866  0.5881  0.0480 -0.8289
  304MOL0     C41870   9.729   7.759   1.752 -0.6281  0.1394 -0.1793
  304MOL0     C41871   9.596   7.796   1.766  0.0665 -0.0045  0.0452
  304MOL0     C41872   9.534   7.805   1.890  0.1023  0.1056 -0.0199
  304MOL0     O41873   9.406   7.843   1.885 -0.1929  0.1715  0.2936
  304MOL0     C41874   9.346   7.879   2.010  0.5982  0.4644 -0.2348
  304MOL0     C41875   9.209   7.935   1.977  0.3438 -0.0253  0.3700
  304MOL0     C41876   9.120   7.945   2.104 -0.1048  0.1760  0.6632
  304MOL0     C41877   8.978   7.995   2.056  0.4795 -0.7824 -0.6006
  304MOL0     C41878   8.873   7.979   2.158 -0.1918 -0.3649  1.2729
  304MOL0     C41879   8.816   7.959   2.257  0.3065  1.1331 -0.3426
  304MOL0     C41880   9.610   7.772   2.002 -0.7437  0.0277 -0.6255
  304MOL0     C41881   9.744   7.730   1.993 -0.7044 -0.2315  1.5317
  304MOL0     C41882   9.807   7.684   2.110 -0.2598  0.2365 -0.5084
  304MOL0     H41883  10.003   7.417   1.685  0.5388  1.1465  1.1855
  304MOL0     H41884  10.191   7.281   1.629  0.7646  0.1105 -0.1567
  304MOL0     H41885  10.569   7.453   1.705 -0.5571  0.1128 -0.0859
  304MOL0     H41886  10.594   7.510   1.537 -2.6415 -0.0081 -0.9473
  304MOL0     H41887  10.758   7.355   1.532 -0.5226 -1.1338  0.3433
  304MOL0     H41888  10.698   7.274   1.682  0.7407  0.4662  0.1540
  304MOL0     H41889  10.535   7.153   1.503  1.2457 -4.6006 -1.2888
  304MOL0     H41890  10.623   7.217   1.380  1.3589 -1.4426 -0.6713
  304MOL0     H41891  10.842   7.109   1.486  1.1917  0.3604  2.5351
  304MOL0     H41892  10.740   7.036   1.605 -1.1804 -1.2736  0.2833
  304MOL0     H41893  10.670   6.997   1.320  0.5213  0.5451  0.8184
  304MOL0     H41894  10.600   6.906   1.454  0.0512  0.1386  1.1754
  304MOL0     H41895  10.901   6.868   1.370 -0.6478  0.5725 -0.6108
  304MOL0     H41896  10.808   6.795   1.501 -1.2911  2.6669  1.4382
  304MOL0     H41897  10.640   6.725   1.338 -0.2264  0.6749  0.2224
  304MOL0     H41898  10.799   6.649   1.327 -0.6498 -0.5907 -0.3147
  304MOL0     H41899  10.693   6.723   1.086 -2.5892 -0.5211 -0.1805
  304MOL0     H41900  10.677   6.878   1.146 -1.6819 -2.2226 -2.2577
  304MOL0     H41901  10.973   6.622   1.130  0.6155 -0.8975 -3.1147
  304MOL0     H41902  11.263   6.822   0.964 -1.2107  0.0863  0.1076
  304MOL0     H41903  11.208   6.656   0.969 -1.2129  0.8625 -2.9371
  304MOL0     H41904  11.331   6.811   1.205 -2.6401  1.0433  0.9497
  304MOL0     H41905  11.253   6.651   1.217  0.7906  2.0391  1.3128
  304MOL0     H41906  11.499   6.628   1.214 -2.0274 -2.2498  1.3741
  304MOL0     H41907  11.406   6.549   1.077 -2.4179  1.7681 -1.1518
  304MOL0     H41908  11.484   6.777   0.959  0.4690  0.7191  1.4616
  304MOL0     H41909  11.610   6.776   1.082 -0.0738 -1.6674  2.1518
  304MOL0     H41910  11.585   6.595   0.713 -0.2309  0.9808 -0.5194
  304MOL0     H41911  11.739   6.624   0.449 -0.2318 -0.6877 -0.1970
  304MOL0     H41912  11.737   6.799   0.433  1.0017  0.2182  0.3327
  304MOL0     H41913  11.596   6.699   0.491  0.2682  1.3672 -2.9853
  304MOL0     H41914  11.969   7.124   0.477 -0.0488  2.1106  1.3577
  304MOL0     H41915  12.103   7.236   0.320 -0.1583  1.0152  1.2025
  304MOL0     H41916  12.556   7.209   0.402  0.4383 -0.8276  0.2879
  304MOL0     H41917  12.532   7.106   0.261 -0.0875  0.5132 -0.7528
  304MOL0     H41918  12.515   7.319   0.118  1.3165  0.5184 -0.4814
  304MOL0     H41919  12.552   7.406   0.267  0.2128  0.2539 -0.4958
  304MOL0     H41920  12.725   7.178   0.149  0.8818 -0.6122  0.9910
  304MOL0     H41921  12.779   7.287   0.277  1.7489 -2.8772 -1.4529
  304MOL0     H41922  12.715   7.477   0.097  1.4437  1.1013 -0.6250
  304MOL0     H41923  12.738   7.363  -0.024  2.6975  2.3145 -1.9501
  304MOL0     H41924  12.960   7.408   0.180  1.3590 -1.8701  0.3687
  304MOL0     H41925  12.962   7.321   0.023 -2.5771  0.2347 -0.9394
  304MOL0     H41926  12.897   7.620   0.063  2.1861 -0.9199  1.8751
  304MOL0     H41927  12.929   7.532  -0.093 -4.9078 -0.2187  0.9055
  304MOL0     H41928  13.157   7.558  -0.052 -1.9173 -1.8883 -0.2946
  304MOL0     H41929  13.153   7.538   0.119  0.2021  1.4046  0.0517
  304MOL0     H41930  13.048   7.780  -0.026 -0.8166 -1.1781 -0.5549
  304MOL0     H41931  13.214   7.768   0.041 -0.7477  2.2944 -1.7810
  304MOL0     H41932  12.455   7.024   0.474  1.6451  5.4300  0.5875
  304MOL0     H41933  12.316   6.889   0.612 -0.5279 -0.6617 -1.0448
  304MOL0     H41934  12.015   6.809   0.847 -0.0842 -0.9018  2.1334
  304MOL0     H41935  11.850   6.732   1.017 -1.7419  1.3411  1.0348
  304MOL0     H41936  10.437   7.635   1.603  1.4507 -1.8315  0.6796
  304MOL0     H41937  10.218   7.773   1.652  0.5781  0.4786  0.7107
  304MOL0     H41938   9.777   7.761   1.655  3.4555  2.0075  1.6070
  304MOL0     H41939   9.535   7.815   1.678  1.4045  0.4210 -0.8192
  304MOL0     H41940   9.346   7.792   2.075  0.2690 -0.0900 -0.9597
  304MOL0     H41941   9.403   7.957   2.061 -0.3526  1.4558 -0.6539
  304MOL0     H41942   9.163   7.867   1.905 -0.7167  0.6753  0.3600
  304MOL0     H41943   9.219   8.035   1.934  1.2008  1.4427  3.6663
  304MOL0     H41944   9.100   7.843   2.140 -1.1722  0.9320  2.3380
  304MOL0     H41945   9.157   8.008   2.186 -3.1890  1.4443  1.2196
  304MOL0     H41946   8.932   7.936   1.977 -0.9446 -2.5935  1.4519
  304MOL0     H41947   8.991   8.098   2.022 -0.8570  0.8860  3.3305
  304MOL0     H41948   8.765   7.927   2.346 -0.9344 -2.1927 -2.0842
  304MOL0     H41949   9.569   7.771   2.103  2.5483  1.5599  0.8861
  304MOL0     H41950   9.893   7.751   2.123  0.5862 -0.5117 -1.9902
  304MOL0     H41951   9.744   7.697   2.198  2.1923  0.1794  1.3552
  304MOL0     H41952   9.820   7.576   2.103 -1.8658 -0.1156  1.1522
  305MOL0     O41953   5.710   9.813   8.352  0.4390 -0.0666  0.1276
  305MOL0     C41954   5.812   9.856   8.397  0.8301  0.1023 -0.0007
  305MOL0     O41955   5.813   9.962   8.484  0.4551 -0.7193  0.0812
  305MOL0     C41956   5.694  10.031   8.506 -0.0377 -0.2995  0.5494
  305MOL0     C41957   5.655  10.129   8.416 -0.2447  0.4230  0.6008
  305MOL0     C41958   5.525  10.173   8.423  0.1995  0.5421  0.4309
  305MOL0     C41959   5.438  10.136   8.533 -0.8097 -0.7263 -0.3115
  305MOL0     O41960   5.303  10.186   8.532  0.8647 -0.2688  0.7263
  305MOL0     C41961   5.228  10.207   8.652 -0.3641  0.8057  0.1065
  305MOL0     C41962   5.138  10.324   8.621 -1.1343 -0.6844 -0.6131
  305MOL0     C41963   5.208  10.458   8.581 -0.7618 -0.6518 -0.1128
  305MOL0     C41964   5.318  10.501   8.682  0.4528 -0.2205  0.9278
  305MOL0     C41965   5.463  10.493   8.639  0.2375  0.3099 -0.2146
  305MOL0     C41966   5.506  10.559   8.508  0.6034  0.9106 -0.2798
  305MOL0     C41967   5.657  10.553   8.499  0.5934 -0.3472  0.4434
  305MOL0     C41968   5.702  10.547   8.352  0.5755  0.2386  0.5985
  305MOL0     N41969   5.851  10.532   8.346  0.7799 -0.1689  0.5554
  305MOL0     C41970   5.945  10.623   8.390  0.2191 -0.4367  1.0817
  305MOL0     C41971   6.061  10.559   8.368  0.3656  0.4734  0.1308
  305MOL0     C41972   6.193  10.630   8.395  0.2667 -0.8583 -0.8239
  305MOL0     C41973   6.240  10.578   8.533  0.3282 -0.3044  0.1124
  305MOL0     C41974   6.346  10.669   8.595  0.1883 -0.0722 -0.6230
  305MOL0     C41975   6.471  10.698   8.509 -0.6653 -0.4651 -0.3360
  305MOL0     O41976   6.541  10.813   8.559  0.3698  0.3911 -0.2912
  305MOL0     C41977   6.676  10.821   8.540 -0.3804 -0.6927  0.1863
  305MOL0     C41978   6.751  10.756   8.437  0.3282  0.9268 -0.0479
  305MOL0     C41979   6.888  10.750   8.441 -0.5109  0.0950 -0.2024
  305MOL0     C41980   6.965  10.681   8.328  0.4023 -0.0006 -0.0272
  305MOL0     C41981   6.962  10.816   8.540 -0.5188  0.4512 -0.3135
  305MOL0     C41982   7.110  10.815   8.568  0.5476  0.5578  0.2879
  305MOL0     O41983   7.147  10.895   8.671  0.5756 -0.4874 -0.6246
  305MOL0     C41984   7.275  10.890   8.700 -0.0365  0.7552 -0.3313
  305MOL0     C41985   7.315  10.811   8.811  0.0506 -0.4680  0.1398
  305MOL0     C41986   7.445  10.823   8.849 -0.0883  0.3019 -1.3068
  305MOL0     C41987   7.545  10.876   8.775  0.6427  0.2142  0.0235
  305MOL0     O41988   7.676  10.881   8.808 -0.3390 -0.1108 -0.3344
  305MOL0     C41989   7.759  10.781   8.754 -0.1087 -0.4971 -1.2143
  305MOL0     C41990   7.904  10.772   8.813  0.1951  0.1776 -0.4525
  305MOL0     C41991   7.971  10.907   8.789  0.4082 -0.4306  0.8426
  305MOL0     C41992   8.119  10.897   8.836  0.7696  0.6734  0.0339
  305MOL0     C41993   8.202  11.029   8.810  0.6652  0.3042  0.4664
  305MOL0     C41994   8.349  11.000   8.849  0.2593  0.2865 -0.8717
  305MOL0     C41995   8.418  10.902   8.747 -0.2335 -0.3315  0.2528
  305MOL0     C41996   8.564  10.903   8.776 -0.7063 -0.4420 -1.5666
  305MOL0    Cl41997   8.603  10.865   8.947  0.0872 -0.4009 -0.0750
  305MOL0     C41998   7.505  10.952   8.664  0.3606 -0.3028  1.2533
  305MOL0     C41999   7.367  10.956   8.623 -0.4433 -0.6431 -0.7333
  305MOL0     O42000   7.185  10.742   8.503  0.9157  0.1138  0.0789
  305MOL0     C42001   6.883  10.890   8.634 -0.3739  0.3640  0.3562
  305MOL0     C42002   6.745  10.882   8.644  0.9698  0.7957  0.5652
  305MOL0     N42003   6.033  10.437   8.308 -1.2304  0.0822 -0.0577
  305MOL0     N42004   5.908  10.423   8.295  0.0941 -0.2357 -0.0855
  305MOL0     C42005   5.487  10.063   8.639  0.0417 -0.6283  0.3425
  305MOL0     C42006   5.613  10.006   8.618  0.6582  0.0614 -0.3369
  305MOL0     C42007   5.935   9.793   8.368 -1.1222 -0.5891  0.2095
  305MOL0     C42008   6.024   9.790   8.471 -0.0506 -0.2375 -0.2045
  305MOL0     C42009   6.149   9.729   8.456 -0.6848  0.1062 -0.2040
  305MOL0     C42010   6.181   9.666   8.336  0.1544  0.0866 -0.0192
  305MOL0     O42011   6.303   9.606   8.329  0.6152  0.1598 -0.1506
  305MOL0     C42012   6.343   9.542   8.207 -0.9876 -0.5000 -1.1343
  305MOL0     C42013   6.356   9.384   8.216  0.2364 -0.0230  0.1719
  305MOL0     C42014   6.236   9.293   8.214 -0.4876 -0.1623  0.5756
  305MOL0     C42015   6.160   9.293   8.350  0.6883  0.5654  0.0815
  305MOL0     C42016   6.212   9.194   8.453 -0.4358  0.1281 -0.1999
  305MOL0     C42017   6.263   9.122   8.539 -0.2808 -0.5328 -0.3541
  305MOL0     C42018   6.085   9.664   8.227  0.1707 -0.1668 -0.0218
  305MOL0     C42019   5.959   9.732   8.243  0.0252  0.3139 -0.1215
  305MOL0     C42020   5.875   9.743   8.120  0.7219 -0.0947 -1.0280
  305MOL0     H42021   5.720  10.154   8.332 -0.2516  2.1496  1.0572
  305MOL0     H42022   5.488  10.240   8.346 -0.6355  1.6611  1.7680
  305MOL0     H42023   5.287  10.234   8.741  1.1292  0.7919 -0.8358
  305MOL0     H42024   5.174  10.115   8.677 -1.0022  1.6335  1.9943
  305MOL0     H42025   5.067  10.290   8.545  0.3553 -1.9900 -1.4792
  305MOL0     H42026   5.078  10.342   8.711  0.4743 -0.8915  0.5372
  305MOL0     H42027   5.240  10.441   8.478 -2.7716  0.4776 -0.9779
  305MOL0     H42028   5.141  10.544   8.572  2.4139  2.4348  2.8066
  305MOL0     H42029   5.300  10.605   8.709 -0.7506 -0.5438  1.4593
  305MOL0     H42030   5.306  10.447   8.776 -0.3348  1.3075  1.7394
  305MOL0     H42031   5.487  10.386   8.642 -0.1400  0.2432  0.5169
  305MOL0     H42032   5.516  10.548   8.718  1.0331 -0.1931 -0.3835
  305MOL0     H42033   5.464  10.498   8.428  2.2734  0.1264 -0.6090
  305MOL0     H42034   5.468  10.661   8.495 -1.8624 -0.0155 -0.7851
  305MOL0     H42035   5.690  10.457   8.541  0.7515 -1.1071 -1.3386
  305MOL0     H42036   5.708  10.633   8.553  0.4377 -1.1755  1.8756
  305MOL0     H42037   5.656  10.470   8.288  2.9113  0.2776 -1.2827
  305MOL0     H42038   5.677  10.648   8.320  1.6995  0.9677  1.9488
  305MOL0     H42039   5.924  10.724   8.422 -0.4351  0.5819 -2.1744
  305MOL0     H42040   6.191  10.739   8.396 -0.6415 -0.8595 -0.0257
  305MOL0     H42041   6.275  10.610   8.326  0.9838 -0.1176 -0.2019
  305MOL0     H42042   6.150  10.580   8.595 -0.0954  3.4820 -0.4149
  305MOL0     H42043   6.274  10.474   8.522  0.5896 -0.2072 -0.0049
  305MOL0     H42044   6.296  10.765   8.616 -0.5830 -0.8280  1.2858
  305MOL0     H42045   6.378  10.635   8.694  1.8729  0.7335 -0.8537
  305MOL0     H42046   6.530  10.606   8.520  1.3846  0.5906 -1.8819
  305MOL0     H42047   6.460  10.718   8.402  3.5975  2.7240 -0.4119
  305MOL0     H42048   6.707  10.711   8.348 -0.5977 -0.9888  1.3126
  305MOL0     H42049   7.058  10.730   8.300  0.6402 -1.8096 -2.8596
  305MOL0     H42050   6.913  10.685   8.232 -0.2222  1.1522  0.3286
  305MOL0     H42051   6.974  10.576   8.358 -2.4265 -0.5960 -0.9297
  305MOL0     H42052   7.243  10.744   8.858  0.0345  0.3488  1.3396
  305MOL0     H42053   7.466  10.763   8.937  1.1796  1.7194 -0.6042
  305MOL0     H42054   7.710  10.684   8.765  0.2146 -0.8892 -2.9390
  305MOL0     H42055   7.775  10.797   8.647 -1.6099  0.4887 -1.3166
  305MOL0     H42056   7.890  10.745   8.918 -0.9856  1.4832 -0.2436
  305MOL0     H42057   7.953  10.690   8.759 -2.5612 -0.7538 -1.7272
  305MOL0     H42058   7.919  10.998   8.821  4.3264  3.1473 -1.8842
  305MOL0     H42059   7.982  10.921   8.681 -0.4456  0.8133  0.8891
  305MOL0     H42060   8.157  10.815   8.775  0.7020  0.5287  0.1886
  305MOL0     H42061   8.124  10.874   8.942 -0.9619  1.7086  0.3707
  305MOL0     H42062   8.200  11.045   8.701 -3.1219 -0.6110  0.2665
  305MOL0     H42063   8.152  11.108   8.867 -0.5029  0.1036 -0.2427
  305MOL0     H42064   8.343  10.963   8.952 -1.2685  3.6866  0.4257
  305MOL0     H42065   8.404  11.094   8.850  3.2777 -1.3681  0.2263
  305MOL0     H42066   8.394  10.921   8.642 -1.8785 -0.9004  0.4983
  305MOL0     H42067   8.375  10.803   8.767  0.9242 -0.4527  2.4804
  305MOL0     H42068   8.612  10.998   8.749 -1.2292  0.2930 -0.0486
  305MOL0     H42069   8.610  10.827   8.713  2.2022 -0.6790  0.6049
  305MOL0     H42070   7.579  11.013   8.614  1.2719 -3.1252 -1.0963
  305MOL0     H42071   7.341  11.022   8.541  3.6750  0.7439 -1.1752
  305MOL0     H42072   6.922  10.954   8.713  0.9992 -0.6931  0.5573
  305MOL0     H42073   6.680  10.940   8.710 -1.3390 -1.0304  0.0500
  305MOL0     H42074   5.423  10.047   8.725 -3.4093 -0.4465 -1.9861
  305MOL0     H42075   5.657   9.942   8.693  1.0668  1.1932  0.4063
  305MOL0     H42076   6.003   9.836   8.567 -1.8151  0.3474 -0.8409
  305MOL0     H42077   6.230   9.720   8.528  2.0877  0.9800 -2.9847
  305MOL0     H42078   6.287   9.567   8.117 -0.0935 -2.4235 -2.2799
  305MOL0     H42079   6.440   9.592   8.199 -1.4865  0.5514 -0.7079
  305MOL0     H42080   6.420   9.360   8.302  3.1191  0.6966 -1.6290
  305MOL0     H42081   6.424   9.345   8.140  1.6725 -0.4215  1.5903
  305MOL0     H42082   6.172   9.324   8.131  0.0410  0.1438  0.2751
  305MOL0     H42083   6.274   9.194   8.186  0.7889  0.8260 -1.4217
  305MOL0     H42084   6.063   9.250   8.327  1.2864 -1.0730  0.4415
  305MOL0     H42085   6.152   9.395   8.389  1.2304  1.0439 -1.0031
  305MOL0     H42086   6.296   9.052   8.612 -2.5466 -1.1972  0.1124
  305MOL0     H42087   6.107   9.612   8.134  1.1434 -1.0428  0.6762
  305MOL0     H42088   5.878   9.839   8.067  0.8443 -0.4639 -1.6965
  305MOL0     H42089   5.896   9.666   8.046 -0.8323 -1.9358  0.3468
  305MOL0     H42090   5.770   9.725   8.147  1.5625 -1.8216  1.4978
  306MOL0     O42091  11.109   7.993   0.447  0.6300 -0.0372  0.7539
  306MOL0     C42092  11.077   7.957   0.559 -0.2584  0.2577  0.4275
  306MOL0     O42093  11.157   7.978   0.667  0.5402  0.3675 -0.2677
  306MOL0     C42094  11.287   8.022   0.652  0.5757  0.5856 -0.3288
  306MOL0     C42095  11.382   7.969   0.733  0.5306 -0.1461  0.8501
  306MOL0     C42096  11.513   8.013   0.726 -0.1553  0.5147  0.5652
  306MOL0     C42097  11.559   8.107   0.635  0.5765 -0.6210 -0.0678
  306MOL0     O42098  11.683   8.166   0.614  0.0520 -0.1434 -0.6947
  306MOL0     C42099  11.785   8.099   0.685 -0.5045 -0.1851 -0.6013
  306MOL0     C42100  11.932   8.144   0.644  0.1611  0.8883  0.0105
  306MOL0     C42101  11.953   8.284   0.693 -0.5680 -0.6049  0.1382
  306MOL0     C42102  12.054   8.355   0.606  0.2611 -0.5091 -0.0454
  306MOL0     C42103  12.074   8.499   0.651  0.4042 -0.2805 -0.3853
  306MOL0     C42104  12.159   8.501   0.777 -0.4174 -0.3182  1.4684
  306MOL0     C42105  12.186   8.632   0.832  0.1764 -0.2627 -0.7005
  306MOL0     C42106  12.291   8.713   0.755 -0.6814 -0.1435 -0.1993
  306MOL0     N42107  12.299   8.847   0.814 -0.2657  0.4473 -0.3386
  306MOL0     C42108  12.221   8.951   0.771 -0.8543 -0.1550  0.3260
  306MOL0     C42109  12.268   9.069   0.828  0.0510 -0.7381 -0.0356
  306MOL0     C42110  12.216   9.211   0.791 -0.1786  0.2367  0.3840
  306MOL0     C42111  12.266   9.256   0.652 -0.9488 -0.4009  0.9700
  306MOL0     C42112  12.187   9.376   0.592 -0.9037  0.5793 -1.0669
  306MOL0     C42113  12.258   9.425   0.461 -0.5578  0.7582 -0.0345
  306MOL0     O42114  12.352   9.532   0.497 -0.6660 -0.1958  0.2572
  306MOL0     C42115  12.458   9.564   0.418  0.0678  0.5450  0.4023
  306MOL0     C42116  12.468   9.523   0.287 -0.4441 -0.1148  0.3544
  306MOL0     C42117  12.579   9.554   0.208 -0.4598  0.4968 -1.0801
  306MOL0     C42118  12.580   9.491   0.073  0.5632  0.9670 -0.1190
  306MOL0     C42119  12.693   9.626   0.266  0.5776 -0.3609 -1.1465
  306MOL0     C42120  12.813   9.658   0.193 -0.2223 -0.3754  0.3497
  306MOL0     O42121  12.799   9.670   0.060  0.1537 -0.2189  0.3125
  306MOL0     C42122  12.911   9.638  -0.014 -0.9620  0.1714 -0.1161
  306MOL0     C42123  12.997   9.525   0.021  0.3799  0.5210  0.0863
  306MOL0     C42124  13.110   9.501  -0.056  0.1437 -0.4241  0.2275
  306MOL0     C42125  13.143   9.582  -0.175  0.5450 -0.1351 -0.6703
  306MOL0     O42126  13.240   9.560  -0.266  0.0678  0.1850  0.7164
  306MOL0     C42127  13.356   9.491  -0.226  0.1849 -0.5279  0.2541
  306MOL0     C42128  13.477   9.520  -0.310 -0.5901 -0.1188  0.2595
  306MOL0     C42129  13.536   9.667  -0.279  0.1124  0.3516 -0.2643
  306MOL0     C42130  13.688   9.666  -0.297  0.2990 -0.4905  0.7319
  306MOL0     C42131  13.737   9.797  -0.337 -0.0119 -0.5601 -0.5153
  306MOL0     C42132  13.878   9.794  -0.403  0.9616  0.1839 -0.2118
  306MOL0     C42133  13.973   9.730  -0.305  0.1591 -0.8037 -0.2895
  306MOL0     C42134  14.108   9.789  -0.329  0.0007 -0.4814  0.9156
  306MOL0    Cl42135  14.190   9.767  -0.496  0.4231 -0.3608 -0.0621
  306MOL0     C42136  13.062   9.688  -0.197  0.9651 -0.2767  0.7283
  306MOL0     C42137  12.948   9.711  -0.124  0.0945  0.4560  0.0619
  306MOL0     O42138  12.921   9.668   0.253  0.4087  0.3442  0.7983
  306MOL0     C42139  12.673   9.670   0.398 -0.4469 -0.1218 -0.5580
  306MOL0     C42140  12.565   9.632   0.475  0.3441  0.2351 -0.4229
  306MOL0     N42141  12.365   9.030   0.914  0.5572  0.0988 -0.8728
  306MOL0     N42142  12.382   8.906   0.905  0.3470  0.0619 -0.2780
  306MOL0     C42143  11.463   8.163   0.556  0.6095  0.1236 -0.2800
  306MOL0     C42144  11.333   8.122   0.568 -0.1952 -0.7550  0.0140
  306MOL0     C42145  10.952   7.872   0.561 -0.6267  0.1488  0.5482
  306MOL0     C42146  10.835   7.918   0.491 -0.3197  0.1863 -0.8506
  306MOL0     C42147  10.716   7.847   0.488  0.2686 -0.3680 -0.5889
  306MOL0     C42148  10.704   7.719   0.543  0.6284  0.7545 -0.8411
  306MOL0     O42149  10.583   7.652   0.528 -0.0906 -0.3646 -0.1455
  306MOL0     C42150  10.554   7.526   0.592 -0.3609  0.1493  0.2397
  306MOL0     C42151  10.420   7.464   0.571 -0.8580  0.0615  0.2652
  306MOL0     C42152  10.389   7.478   0.418  0.5484  0.3800 -0.5887
  306MOL0     C42153  10.262   7.397   0.384  0.0294  0.1692 -0.6338
  306MOL0     C42154  10.158   7.416   0.482  0.2118  0.8374  0.0611
  306MOL0     C42155  10.063   7.442   0.561 -0.2578 -0.3544 -0.6559
  306MOL0     C42156  10.813   7.678   0.623 -0.7167 -1.1133  0.2936
  306MOL0     C42157  10.936   7.749   0.630 -0.1923  0.2940  0.8966
  306MOL0     C42158  11.050   7.683   0.710  0.2592 -0.2741  0.2851
  306MOL0     H42159  11.353   7.913   0.821 -1.2216 -2.0001 -0.7873
  306MOL0     H42160  11.592   7.982   0.793 -0.8914 -0.6501  0.9137
  306MOL0     H42161  11.776   7.992   0.663 -2.8540 -0.4922  1.3865
  306MOL0     H42162  11.776   8.114   0.793  0.0914  2.3314 -0.8365
  306MOL0     H42163  11.997   8.067   0.686  1.2179  2.8239  2.1351
  306MOL0     H42164  11.943   8.144   0.535  2.1442 -1.1653  0.1384
  306MOL0     H42165  11.865   8.348   0.681  0.5597  1.1084  0.6521
  306MOL0     H42166  11.986   8.279   0.797  0.6330 -1.4152 -0.2507
  306MOL0     H42167  12.154   8.310   0.607  1.0743  1.2048  0.9685
  306MOL0     H42168  12.016   8.355   0.504 -0.8507 -0.6725  0.3600
  306MOL0     H42169  11.978   8.547   0.672 -1.0486 -2.3320 -1.9405
  306MOL0     H42170  12.112   8.557   0.567  1.2891  2.2884  1.6487
  306MOL0     H42171  12.108   8.445   0.856 -2.0206  0.4387  1.0176
  306MOL0     H42172  12.251   8.450   0.745 -2.1077 -1.3594 -2.2917
  306MOL0     H42173  12.229   8.613   0.931  1.2036  0.2482 -1.0402
  306MOL0     H42174  12.098   8.696   0.846 -0.0963 -0.8169  0.2176
  306MOL0     H42175  12.384   8.657   0.764  0.2206  1.0516 -1.7070
  306MOL0     H42176  12.285   8.735   0.648  2.1037 -0.4646 -0.4865
  306MOL0     H42177  12.153   8.950   0.687  1.6797  1.4390 -1.9237
  306MOL0     H42178  12.247   9.277   0.873 -1.0566 -0.3771  1.2355
  306MOL0     H42179  12.107   9.197   0.790 -0.2918  1.0371 -1.4753
  306MOL0     H42180  12.371   9.287   0.663 -1.5856  1.9449  0.9882
  306MOL0     H42181  12.252   9.185   0.569 -1.9187  2.7196 -1.7599
  306MOL0     H42182  12.088   9.332   0.578 -0.1275 -2.3864  1.5559
  306MOL0     H42183  12.187   9.453   0.670  0.6207 -0.3071 -0.1443
  306MOL0     H42184  12.303   9.337   0.413 -2.9781 -0.5713 -0.0818
  306MOL0     H42185  12.189   9.467   0.387  0.1171  0.8968 -0.5943
  306MOL0     H42186  12.386   9.467   0.244  0.5856 -2.3101  1.1055
  306MOL0     H42187  12.672   9.432   0.061 -0.2396  0.1073 -2.6986
  306MOL0     H42188  12.571   9.561  -0.010  1.2120  2.0781  0.7107
  306MOL0     H42189  12.497   9.420   0.073  1.2181  0.1825 -0.0170
  306MOL0     H42190  12.968   9.465   0.107 -2.2109 -0.2797 -1.2483
  306MOL0     H42191  13.165   9.414  -0.022 -0.1639  0.6561  3.9703
  306MOL0     H42192  13.376   9.509  -0.120  0.4668 -1.5428  0.3838
  306MOL0     H42193  13.338   9.383  -0.235  2.6251 -0.9031 -0.7976
  306MOL0     H42194  13.550   9.443  -0.285  1.2431  0.0360 -3.8631
  306MOL0     H42195  13.449   9.505  -0.415  1.2173  0.6146 -0.3695
  306MOL0     H42196  13.528   9.693  -0.173  2.5137 -1.3740  0.4263
  306MOL0     H42197  13.491   9.744  -0.342  0.6435 -0.1304 -1.2681
  306MOL0     H42198  13.705   9.604  -0.386  2.5140 -1.0778  1.5036
  306MOL0     H42199  13.734   9.620  -0.209 -1.5190 -4.3449 -0.1293
  306MOL0     H42200  13.683   9.851  -0.414  1.5300  2.3628  0.2980
  306MOL0     H42201  13.733   9.859  -0.247 -2.9528  1.3689 -1.8276
  306MOL0     H42202  13.903   9.893  -0.441  1.1203  0.2002 -0.0601
  306MOL0     H42203  13.872   9.735  -0.496 -0.8106 -0.0834  0.0386
  306MOL0     H42204  13.966   9.621  -0.309 -2.3077 -0.7287  0.5349
  306MOL0     H42205  13.937   9.748  -0.204 -2.0419  0.9325 -1.3011
  306MOL0     H42206  14.183   9.761  -0.254  0.2861 -1.4717  0.2858
  306MOL0     H42207  14.097   9.895  -0.306 -0.6108 -0.7060  1.6928
  306MOL0     H42208  13.080   9.761  -0.275 -1.6804 -1.6502 -1.3633
  306MOL0     H42209  12.890   9.797  -0.155  0.2120 -0.0868 -1.8104
  306MOL0     H42210  12.746   9.732   0.448  0.4083  0.9546 -3.0210
  306MOL0     H42211  12.566   9.664   0.579  0.9509  0.1968 -0.4118
  306MOL0     H42212  11.493   8.233   0.479 -0.6201 -1.5018 -2.3672
  306MOL0     H42213  11.275   8.178   0.495 -0.6629  0.2864  1.1505
  306MOL0     H42214  10.840   8.019   0.450 -2.3217  0.7442  0.1305
  306MOL0     H42215  10.626   7.885   0.442 -0.1813 -0.9838 -0.2329
  306MOL0     H42216  10.618   7.451   0.545 -0.1611 -0.3728  1.3052
  306MOL0     H42217  10.593   7.535   0.694  1.6294  2.4328 -0.6156
  306MOL0     H42218  10.344   7.519   0.627 -1.9578 -0.7166 -0.4205
  306MOL0     H42219  10.431   7.359   0.599  3.0962  1.2382  4.4410
  306MOL0     H42220  10.382   7.585   0.395  1.3697  0.9448  1.5535
  306MOL0     H42221  10.460   7.428   0.351  0.9265  0.4243 -0.2257
  306MOL0     H42222  10.296   7.293   0.373  1.3174  0.5361 -0.2518
  306MOL0     H42223  10.239   7.436   0.285  1.1940  4.0766  0.4888
  306MOL0     H42224   9.979   7.467   0.624  0.6451 -1.9535  1.3308
  306MOL0     H42225  10.814   7.578   0.664 -1.0916 -0.8807  0.9014
  306MOL0     H42226  11.144   7.687   0.654  0.6628  0.2866  0.9815
  306MOL0     H42227  11.063   7.732   0.807 -3.7665  0.7884  0.4408
  306MOL0     H42228  11.022   7.582   0.740 -2.7629  0.4969  0.3787
  307MOL0     O42229   0.475  11.208   8.514  0.6456 -0.1368  0.2558
  307MOL0     C42230   0.408  11.154   8.599 -0.3115  0.8038 -0.2374
  307MOL0     O42231   0.449  11.046   8.670  0.0397 -0.1632  0.0252
  307MOL0     C42232   0.579  11.000   8.649 -0.2704  0.1433 -0.5754
  307MOL0     C42233   0.609  10.885   8.574 -0.4906 -0.8747  1.2521
  307MOL0     C42234   0.739  10.832   8.560 -0.6029  0.6891 -1.0760
  307MOL0     C42235   0.846  10.893   8.632  1.0365  0.3481  0.2180
  307MOL0     O42236   0.982  10.854   8.630 -0.6838 -0.4768  0.4453
  307MOL0     C42237   1.022  10.731   8.555  0.4706 -0.7610 -0.2086
  307MOL0     C42238   1.171  10.713   8.571  0.4209 -0.2538  0.2923
  307MOL0     C42239   1.243  10.758   8.443  0.0192  0.1796 -0.1764
  307MOL0     C42240   1.392  10.728   8.451  0.3528  0.5169 -0.0188
  307MOL0     C42241   1.475  10.797   8.349  0.4898  0.2249 -0.0385
  307MOL0     C42242   1.625  10.780   8.379  0.2714  0.2582 -0.2470
  307MOL0     C42243   1.714  10.833   8.270 -0.1358  0.5511 -0.3492
  307MOL0     C42244   1.725  10.731   8.161 -0.0942  0.4003  0.6226
  307MOL0     N42245   1.789  10.799   8.042  0.5351 -1.2811 -1.5008
  307MOL0     C42246   1.920  10.847   8.026  0.4368  0.9081 -0.6632
  307MOL0     C42247   1.917  10.921   7.915 -0.2931 -0.1464  0.1780
  307MOL0     C42248   2.023  11.011   7.874 -1.7576 -0.0026  0.1655
  307MOL0     C42249   2.149  10.938   7.832 -0.1262  0.4754 -0.5898
  307MOL0     C42250   2.273  11.011   7.885 -0.2763 -0.0262  0.0479
  307MOL0     C42251   2.413  10.965   7.828 -0.1751  0.2088  0.6859
  307MOL0     O42252   2.416  10.922   7.695  0.0122 -0.3099 -0.2388
  307MOL0     C42253   2.529  10.917   7.619  0.3284 -0.7350 -0.6383
  307MOL0     C42254   2.661  10.936   7.666  0.0364 -0.4666 -0.7255
  307MOL0     C42255   2.772  10.929   7.577  0.0339 -1.4419 -0.1384
  307MOL0     C42256   2.908  10.978   7.631 -0.7573 -0.5499 -0.6212
  307MOL0     C42257   2.747  10.914   7.437  0.0441  0.1036  0.3041
  307MOL0     C42258   2.852  10.924   7.330  0.0604  0.2635  0.3041
  307MOL0     O42259   2.984  10.893   7.361 -0.7951  0.4621  0.1291
  307MOL0     C42260   3.079  10.867   7.260 -0.5361 -0.0492  0.7771
  307MOL0     C42261   3.209  10.911   7.292 -0.7310 -1.1834 -0.6144
  307MOL0     C42262   3.311  10.875   7.198  0.1177  0.6048  0.0872
  307MOL0     C42263   3.283  10.816   7.072 -0.2263 -0.9496 -0.3073
  307MOL0     O42264   3.389  10.803   6.989  0.0777  0.2134  0.3024
  307MOL0     C42265   3.387  10.688   6.900 -0.2868  0.1111 -1.3061
  307MOL0     C42266   3.523  10.634   6.871  0.3419 -0.5421 -0.0387
  307MOL0     C42267   3.594  10.574   6.998  0.7023 -1.3527 -0.3160
  307MOL0     C42268   3.727  10.505   6.973 -0.1724 -0.8739  1.0082
  307MOL0     C42269   3.747  10.391   7.066 -0.4863  0.2105 -0.4756
  307MOL0     C42270   3.758  10.438   7.217  0.4669 -0.7516  0.7165
  307MOL0     C42271   3.761  10.318   7.318  0.3479  0.4116  0.9082
  307MOL0     C42272   3.829  10.343   7.450  0.0100  0.1795  0.0335
  307MOL0    Cl42273   3.765  10.500   7.531  0.3512  0.3362  0.0871
  307MOL0     C42274   3.153  10.785   7.045 -0.3519  0.6228  0.1141
  307MOL0     C42275   3.052  10.808   7.135  0.6615  0.0347  0.4895
  307MOL0     O42276   2.811  10.962   7.217 -0.5873  0.8269 -0.2174
  307MOL0     C42277   2.621  10.902   7.394  0.2230 -0.1953 -0.7184
  307MOL0     C42278   2.512  10.887   7.485  0.7491  0.5144  0.0789
  307MOL0     N42279   1.785  10.914   7.859 -0.2570 -0.4398 -0.3371
  307MOL0     N42280   1.713  10.841   7.942 -0.8388  0.3701 -0.3415
  307MOL0     C42281   0.820  11.003   8.715  0.5835 -0.0435  0.2289
  307MOL0     C42282   0.683  11.047   8.726 -0.1784 -0.3410  0.5316
  307MOL0     C42283   0.271  11.200   8.637  0.6465  1.0424  0.3978
  307MOL0     C42284   0.191  11.229   8.527  0.2915  1.1931  0.2932
  307MOL0     C42285   0.056  11.269   8.550  0.2261 -0.0469  0.4192
  307MOL0     C42286   0.001  11.282   8.673  0.8046  0.2791 -0.4285
  307MOL0     O42287  -0.135  11.303   8.688 -0.5128  0.4909  0.5649
  307MOL0     C42288  -0.153  11.439   8.744  0.2380 -0.2134  0.3941
  307MOL0     C42289  -0.203  11.520   8.629 -0.1703 -0.6024 -0.3502
  307MOL0     C42290  -0.244  11.664   8.677  0.6524  0.1438  0.3050
  307MOL0     C42291  -0.338  11.665   8.797  0.1806  0.2334 -0.8953
  307MOL0     C42292  -0.466  11.602   8.769 -0.4269 -0.5014 -1.0528
  307MOL0     C42293  -0.568  11.543   8.762 -0.0789  1.0689  0.3082
  307MOL0     C42294   0.084  11.256   8.786  0.3761 -0.4690  0.2069
  307MOL0     C42295   0.218  11.210   8.770 -0.2138 -0.3243  0.0518
  307MOL0     C42296   0.303  11.193   8.894  0.3718  0.0186 -0.8521
  307MOL0     H42297   0.523  10.838   8.527  0.3560  0.4566 -1.9326
  307MOL0     H42298   0.760  10.745   8.498  0.3001  1.1980 -1.4965
  307MOL0     H42299   0.994  10.741   8.450  2.3926 -1.2057 -0.7940
  307MOL0     H42300   0.974  10.642   8.596  0.8877 -0.9057 -0.0281
  307MOL0     H42301   1.223  10.758   8.656 -1.3222 -0.0829  1.3060
  307MOL0     H42302   1.193  10.606   8.584  2.8888  0.3172  1.4436
  307MOL0     H42303   1.200  10.710   8.354  1.5437 -0.5966 -0.5183
  307MOL0     H42304   1.227  10.866   8.432 -0.3404  0.3283  1.5749
  307MOL0     H42305   1.429  10.762   8.548 -0.2986  0.3787  0.2864
  307MOL0     H42306   1.404  10.620   8.444 -0.6948  0.4754 -2.0919
  307MOL0     H42307   1.459  10.905   8.351 -0.1187  0.1395 -0.1395
  307MOL0     H42308   1.447  10.763   8.248 -1.1224  0.8080  0.1919
  307MOL0     H42309   1.637  10.837   8.471  0.4582 -2.9192  1.8654
  307MOL0     H42310   1.642  10.673   8.392 -2.5581 -0.1918  0.5322
  307MOL0     H42311   1.816  10.844   8.309  0.3217  1.0577 -1.6376
  307MOL0     H42312   1.668  10.923   8.229 -1.4530 -0.0742 -0.2832
  307MOL0     H42313   1.785  10.646   8.195 -1.0543 -1.4855 -2.0037
  307MOL0     H42314   1.625  10.695   8.135  0.6285 -0.9350 -0.5023
  307MOL0     H42315   2.001  10.844   8.099  1.5468 -1.0842 -1.9155
  307MOL0     H42316   2.043  11.085   7.952 -0.5362  2.6601 -2.4866
  307MOL0     H42317   2.013  11.078   7.788  3.1708 -1.2295 -1.6923
  307MOL0     H42318   2.134  10.835   7.868  1.3448  0.9858  1.6642
  307MOL0     H42319   2.146  10.946   7.723 -2.6800 -0.1553 -0.6509
  307MOL0     H42320   2.262  11.116   7.856  0.5604  0.4913  1.4923
  307MOL0     H42321   2.284  10.995   7.993 -2.5224 -1.7890  0.0829
  307MOL0     H42322   2.486  11.046   7.838  3.0149 -2.2331 -0.8322
  307MOL0     H42323   2.455  10.889   7.894  1.5902 -0.9508 -1.6327
  307MOL0     H42324   2.691  10.959   7.768 -1.7924 -2.6026  0.3768
  307MOL0     H42325   2.977  10.894   7.624 -1.0780 -0.9511  0.6719
  307MOL0     H42326   2.898  11.010   7.736  0.9701  0.4278 -0.7272
  307MOL0     H42327   2.958  11.046   7.562  1.3521 -1.9918 -0.6025
  307MOL0     H42328   3.222  10.963   7.386 -0.4137 -0.6136 -0.9646
  307MOL0     H42329   3.413  10.897   7.228 -0.1847 -0.9313  2.4643
  307MOL0     H42330   3.320  10.616   6.948 -0.6776  1.5523  0.3983
  307MOL0     H42331   3.346  10.734   6.809 -3.8955  0.8128  0.5092
  307MOL0     H42332   3.505  10.551   6.803 -0.4824 -2.3500  2.2485
  307MOL0     H42333   3.583  10.717   6.830 -0.8543  0.1841 -0.3617
  307MOL0     H42334   3.519  10.514   7.050 -0.2541  0.3097  0.3226
  307MOL0     H42335   3.609  10.657   7.068 -2.9072 -0.4029 -0.4872
  307MOL0     H42336   3.811  10.576   6.974 -2.4509  2.0622 -0.9488
  307MOL0     H42337   3.728  10.461   6.873 -1.0916 -0.3736  0.7772
  307MOL0     H42338   3.664  10.322   7.049  0.4458 -1.4886  1.4806
  307MOL0     H42339   3.844  10.351   7.036 -0.5009  1.5737 -2.5040
  307MOL0     H42340   3.683  10.513   7.243  0.6520 -0.2429 -0.1792
  307MOL0     H42341   3.852  10.490   7.237  1.0124 -2.4896  3.2566
  307MOL0     H42342   3.806  10.233   7.265 -0.6967  2.0814 -2.9971
  307MOL0     H42343   3.654  10.297   7.331  0.3460  0.5150  1.0625
  307MOL0     H42344   3.938  10.330   7.442 -0.0249 -4.4024  3.2400
  307MOL0     H42345   3.809  10.262   7.520  0.6165 -0.7484 -0.8324
  307MOL0     H42346   3.129  10.753   6.943  0.7053  1.5416 -0.4455
  307MOL0     H42347   2.949  10.779   7.116  0.7399  0.7121 -1.0809
  307MOL0     H42348   2.575  10.875   7.299  0.1261 -0.7635 -0.5152
  307MOL0     H42349   2.408  10.868   7.461  0.5165  1.5462  0.2302
  307MOL0     H42350   0.905  11.055   8.758  1.6601 -1.2579 -0.3618
  307MOL0     H42351   0.656  11.139   8.776 -2.3671 -0.5045 -0.2355
  307MOL0     H42352   0.230  11.208   8.427  0.8859  0.4739  0.6685
  307MOL0     H42353  -0.008  11.294   8.466 -2.9561  1.2658  3.0186
  307MOL0     H42354  -0.230  11.436   8.822 -1.0311  0.5146 -0.7912
  307MOL0     H42355  -0.063  11.486   8.783  0.1047  0.7406 -0.3969
  307MOL0     H42356  -0.293  11.473   8.589 -0.8571 -0.1731  0.6762
  307MOL0     H42357  -0.121  11.520   8.556  0.3484 -2.1199  0.1906
  307MOL0     H42358  -0.149  11.714   8.699  0.4771  0.4115  0.4431
  307MOL0     H42359  -0.292  11.720   8.597  1.1256  2.5907  1.6442
  307MOL0     H42360  -0.346  11.770   8.826  2.6636 -0.3799  2.7357
  307MOL0     H42361  -0.293  11.619   8.885 -0.5963 -0.6109 -0.9193
  307MOL0     H42362  -0.647  11.471   8.753 -0.7641  1.8687 -0.2176
  307MOL0     H42363   0.035  11.267   8.882 -0.4937 -3.9866  0.3019
  307MOL0     H42364   0.394  11.253   8.898  0.7642 -0.6047 -0.2014
  307MOL0     H42365   0.241  11.203   8.984  0.5695  2.0021 -0.9037
  307MOL0     H42366   0.333  11.088   8.891 -1.2331 -0.7466  3.0034
  308MOL0     O42367  11.083  10.932   4.582 -0.6297  0.4287 -0.7765
  308MOL0     C42368  11.028  11.008   4.501  0.1178  0.6789  0.0734
  308MOL0     O42369  11.093  11.055   4.388  0.2062  0.1180 -0.3544
  308MOL0     C42370  11.226  11.010   4.363  0.6612  0.0767 -0.9163
  308MOL0     C42371  11.337  11.025   4.445 -0.4403 -0.1773 -0.2720
  308MOL0     C42372  11.462  10.973   4.410  1.0212  0.7623  0.4004
  308MOL0     C42373  11.479  10.908   4.291  0.0631 -0.1663  0.5746
  308MOL0     O42374  11.600  10.869   4.242  0.4049 -0.7411 -0.8309
  308MOL0     C42375  11.727  10.925   4.289  0.7882 -0.2791 -0.7875
  308MOL0     C42376  11.846  10.882   4.205 -0.5341 -0.6905 -0.7276
  308MOL0     C42377  11.951  10.996   4.202  0.6169  0.3251  0.7858
  308MOL0     C42378  12.072  10.961   4.113  0.3919  0.2787 -0.5232
  308MOL0     C42379  12.166  10.854   4.176  0.0234 -0.0832 -0.2457
  308MOL0     C42380  12.303  10.837   4.109  0.0997 -0.4898 -0.1272
  308MOL0     C42381  12.323  10.817   3.956  0.5280  0.4265  0.2594
  308MOL0     C42382  12.279  10.681   3.896  0.7282 -0.3056 -1.2100
  308MOL0     N42383  12.316  10.677   3.754 -0.1118  0.3376  0.3730
  308MOL0     C42384  12.419  10.595   3.707 -0.1888 -0.4549 -0.0045
  308MOL0     C42385  12.428  10.617   3.576 -0.1854 -0.1209  0.6556
  308MOL0     C42386  12.534  10.556   3.486 -0.3755 -0.0737  0.0318
  308MOL0     C42387  12.659  10.644   3.485 -0.0214  0.6775  0.0818
  308MOL0     C42388  12.769  10.596   3.393  0.5096 -0.4811  0.7686
  308MOL0     C42389  12.896  10.669   3.427  0.1594 -0.4583  0.6793
  308MOL0     O42390  12.971  10.678   3.305 -0.6364  0.0089  0.1058
  308MOL0     C42391  13.077  10.771   3.295 -0.6028  0.3512 -0.9230
  308MOL0     C42392  13.121  10.855   3.402  0.5698 -1.0988  0.0070
  308MOL0     C42393  13.235  10.943   3.388  0.0642  0.1927  0.0041
  308MOL0     C42394  13.291  11.014   3.513  0.4688  0.3029  0.6324
  308MOL0     C42395  13.309  10.942   3.259 -0.0367  0.3286 -0.3287
  308MOL0     C42396  13.428  11.016   3.229 -0.5625  1.0008 -0.5818
  308MOL0     O42397  13.425  11.051   3.096 -0.2589 -0.4799 -0.7732
  308MOL0     C42398  13.542  11.092   3.043 -1.2401 -0.1323 -0.2348
  308MOL0     C42399  13.649  11.001   3.024 -0.3252 -0.5772 -0.1324
  308MOL0     C42400  13.777  11.048   2.988  0.9937  0.5729 -0.7001
  308MOL0     C42401  13.798  11.172   2.951 -0.1665 -0.3037  0.4622
  308MOL0     O42402  13.931  11.202   2.919  0.5623 -0.3647  0.3348
  308MOL0     C42403  13.979  11.334   2.896 -0.0416 -0.8837 -0.1090
  308MOL0     C42404  14.005  11.424   3.020 -0.3787 -0.2386  0.6241
  308MOL0     C42405  14.094  11.349   3.133 -0.3382  0.3360  0.2667
  308MOL0     C42406  14.253  11.347   3.109 -0.2670  0.0142 -0.2163
  308MOL0     C42407  14.325  11.342   3.238  0.3510  0.4687 -0.8991
  308MOL0     C42408  14.472  11.350   3.219  0.0147 -0.0133  0.2396
  308MOL0     C42409  14.552  11.313   3.348 -0.2500  0.1654 -0.2858
  308MOL0     C42410  14.709  11.316   3.338 -0.0118  0.1853 -0.1612
  308MOL0    Cl42411  14.755  11.481   3.278  0.2431  0.1649  0.3426
  308MOL0     C42412  13.698  11.268   2.969  0.5968  1.0866 -0.3956
  308MOL0     C42413  13.569  11.227   3.010  0.6236 -0.0584  0.4742
  308MOL0     O42414  13.511  11.055   3.310 -0.3304 -0.7417  0.6490
  308MOL0     C42415  13.261  10.848   3.158  0.0140  0.2560 -0.0986
  308MOL0     C42416  13.144  10.775   3.175 -1.0401 -0.3039 -0.0897
  308MOL0     N42417  12.334  10.715   3.545  0.3829 -0.5196  0.3211
  308MOL0     N42418  12.274  10.761   3.660  0.5527  0.2045  0.6553
  308MOL0     C42419  11.372  10.909   4.201 -0.8431 -0.2170 -0.2144
  308MOL0     C42420  11.249  10.958   4.236 -0.7869  0.4952 -0.3142
  308MOL0     C42421  10.886  11.046   4.525  0.1442 -0.5194 -0.3017
  308MOL0     C42422  10.825  11.044   4.649 -0.7277  0.1924  0.2983
  308MOL0     C42423  10.696  11.070   4.677 -0.4120 -0.1030  0.6377
  308MOL0     C42424  10.611  11.095   4.575  0.3340 -0.1910 -0.5125
  308MOL0     O42425  10.479  11.124   4.581  0.4191 -0.4393 -0.5960
  308MOL0     C42426  10.415  11.137   4.709  0.3852 -0.0523  0.4976
  308MOL0     C42427  10.264  11.133   4.693  0.5094 -0.4569  0.8070
  308MOL0     C42428  10.204  11.108   4.833  1.0534  0.2708  0.0088
  308MOL0     C42429  10.055  11.130   4.841  0.2470 -0.5883  0.1856
  308MOL0     C42430   9.984  11.052   4.735 -0.1379  0.7467 -0.7469
  308MOL0     C42431   9.920  10.994   4.651 -0.1304  0.2206 -0.6517
  308MOL0     C42432  10.657  11.092   4.442 -0.3159 -0.0180  0.3390
  308MOL0     C42433  10.796  11.063   4.417  0.2353  0.3466  0.3087
  308MOL0     C42434  10.838  11.048   4.267  0.8721 -0.2335  0.2444
  308MOL0     H42435  11.334  11.063   4.546 -0.6455 -1.7470  0.3444
  308MOL0     H42436  11.549  10.964   4.475 -0.0852  2.3707  2.2394
  308MOL0     H42437  11.750  10.902   4.393 -0.2757  1.3489 -0.1584
  308MOL0     H42438  11.712  11.034   4.286  0.5616 -0.2160  1.4145
  308MOL0     H42439  11.888  10.786   4.235 -0.9324 -0.8460 -0.6689
  308MOL0     H42440  11.814  10.871   4.101 -1.5390 -0.0036 -0.5053
  308MOL0     H42441  11.909  11.091   4.166  0.2303  0.2648  1.0726
  308MOL0     H42442  11.982  11.013   4.305  0.9324 -1.1312  0.9500
  308MOL0     H42443  12.040  10.930   4.013 -2.1513 -2.9114  1.0798
  308MOL0     H42444  12.133  11.052   4.109  2.2659 -0.7451  1.7905
  308MOL0     H42445  12.118  10.756   4.175 -3.2952  1.3309  1.9192
  308MOL0     H42446  12.177  10.873   4.283  0.5831 -1.2385 -0.0841
  308MOL0     H42447  12.358  10.927   4.137 -1.4133 -0.5754  3.8719
  308MOL0     H42448  12.360  10.764   4.167 -0.2191  0.6678  1.7631
  308MOL0     H42449  12.432  10.819   3.943  1.0201 -2.3083  2.9865
  308MOL0     H42450  12.267  10.895   3.902 -1.6329 -1.3297 -0.1456
  308MOL0     H42451  12.343  10.606   3.945  1.2990 -0.4713 -2.1799
  308MOL0     H42452  12.177  10.654   3.923  0.4371  0.9528 -0.9863
  308MOL0     H42453  12.485  10.536   3.770 -1.1925  0.0793  1.5767
  308MOL0     H42454  12.498  10.563   3.383 -2.6934  1.5126  0.8669
  308MOL0     H42455  12.565  10.457   3.521 -1.0131  0.5483  2.5234
  308MOL0     H42456  12.631  10.744   3.450 -1.1377 -0.2003 -1.6753
  308MOL0     H42457  12.698  10.641   3.587  0.7079  0.9597 -0.1753
  308MOL0     H42458  12.773  10.487   3.394  3.8897 -0.4568  0.7515
  308MOL0     H42459  12.740  10.615   3.289  3.5103  2.2462  0.2725
  308MOL0     H42460  12.873  10.772   3.458 -0.3929 -0.6221  0.8127
  308MOL0     H42461  12.959  10.611   3.496  1.5020  0.6839  0.4559
  308MOL0     H42462  13.075  10.844   3.499  0.9928  1.5214  0.5778
  308MOL0     H42463  13.309  11.119   3.491  0.2367 -0.1289 -1.9422
  308MOL0     H42464  13.386  10.967   3.541  1.4544  0.1050 -2.5916
  308MOL0     H42465  13.215  11.013   3.592  0.5901  0.9481  0.7598
  308MOL0     H42466  13.638  10.896   3.051 -2.4110 -0.8171 -1.6372
  308MOL0     H42467  13.863  10.981   2.995 -0.9698 -2.4145 -2.6428
  308MOL0     H42468  14.072  11.318   2.841 -0.4768 -0.9567 -0.8552
  308MOL0     H42469  13.910  11.389   2.831 -0.8699 -0.6086  0.9688
  308MOL0     H42470  14.048  11.518   2.985 -3.1337  1.5409  1.7151
  308MOL0     H42471  13.913  11.453   3.071  1.4812  2.1433  2.9141
  308MOL0     H42472  14.048  11.252   3.155  0.5940  0.7465  5.2250
  308MOL0     H42473  14.071  11.396   3.229 -0.3622  1.6791 -0.3843
  308MOL0     H42474  14.282  11.430   3.045  0.8888 -0.2677 -0.0905
  308MOL0     H42475  14.272  11.251   3.060  2.7565  0.5815 -0.3823
  308MOL0     H42476  14.302  11.425   3.305 -0.1580  0.5052 -1.1201
  308MOL0     H42477  14.304  11.250   3.292  2.2104  0.9960  0.8544
  308MOL0     H42478  14.494  11.449   3.179  2.7219 -0.2864  0.8473
  308MOL0     H42479  14.498  11.277   3.143 -0.3986 -2.9177  2.6867
  308MOL0     H42480  14.521  11.216   3.387  1.0803 -1.1044 -2.1921
  308MOL0     H42481  14.530  11.380   3.432 -0.0495  1.4819 -1.2523
  308MOL0     H42482  14.749  11.250   3.260  0.0590 -2.5047  1.9877
  308MOL0     H42483  14.748  11.292   3.437 -0.4029 -1.3854 -0.3569
  308MOL0     H42484  13.722  11.374   2.965  1.0044  0.9909 -0.5757
  308MOL0     H42485  13.486  11.297   3.015  0.5221 -0.1911  0.6904
  308MOL0     H42486  13.304  10.844   3.059  1.5274 -1.4112  0.5714
  308MOL0     H42487  13.121  10.706   3.094  0.4873 -1.4489  0.4087
  308MOL0     H42488  11.388  10.862   4.105 -1.0951 -0.1480 -0.2919
  308MOL0     H42489  11.162  10.968   4.172 -3.0747  0.8209  2.6674
  308MOL0     H42490  10.896  11.044   4.732 -1.4725  1.4012  0.9668
  308MOL0     H42491  10.659  11.057   4.779  0.8269  2.0978  1.4175
  308MOL0     H42492  10.446  11.060   4.781  2.2678  2.6028  2.7351
  308MOL0     H42493  10.451  11.231   4.751  1.8247 -0.8459  1.1135
  308MOL0     H42494  10.233  11.056   4.621  1.9287  0.8898 -1.3726
  308MOL0     H42495  10.224  11.222   4.644  0.9354  1.1133  3.1389
  308MOL0     H42496  10.223  11.004   4.863  1.9445 -1.1320 -4.5568
  308MOL0     H42497  10.243  11.172   4.912  4.1542 -1.1300 -0.2167
  308MOL0     H42498  10.019  11.232   4.822 -0.2511 -0.4560  1.6920
  308MOL0     H42499  10.010  11.110   4.938  0.8525  0.3506  0.6703
  308MOL0     H42500   9.859  10.935   4.585 -1.4861  0.8257  0.0137
  308MOL0     H42501  10.590  11.100   4.357 -2.0193  0.8597  1.6977
  308MOL0     H42502  10.747  11.038   4.207  1.0784  0.2632 -0.1561
  308MOL0     H42503  10.890  11.134   4.223  2.2353 -1.4434 -0.5878
  308MOL0     H42504  10.897  10.957   4.252 -0.6057 -1.4108  1.2485
  309MOL0     O42505   0.367   2.512   6.977  0.5004 -0.2771  0.0134
  309MOL0     C42506   0.285   2.519   6.885  0.0328 -0.3375 -0.0732
  309MOL0     O42507   0.322   2.507   6.752 -0.0592 -0.4516  0.1002
  309MOL0     C42508   0.459   2.504   6.722 -0.2126  0.0082 -0.3519
  309MOL0     C42509   0.521   2.607   6.647 -0.3899 -0.1915  0.4578
  309MOL0     C42510   0.662   2.592   6.620 -0.7930 -0.2204  0.4040
  309MOL0     C42511   0.731   2.472   6.655 -0.1010 -0.5553 -0.7877
  309MOL0     O42512   0.866   2.463   6.634  0.0936  0.1180  0.1268
  309MOL0     C42513   0.924   2.336   6.610  0.6257 -0.1459  0.8490
  309MOL0     C42514   1.074   2.363   6.583  0.0485  1.0794 -0.3062
  309MOL0     C42515   1.137   2.420   6.713 -0.5838 -0.0111  0.1570
  309MOL0     C42516   1.270   2.496   6.690  0.6671  0.5034 -0.1348
  309MOL0     C42517   1.400   2.411   6.703  0.5258  0.0423  0.2648
  309MOL0     C42518   1.537   2.471   6.649  0.2064  0.1240 -0.0713
  309MOL0     C42519   1.580   2.600   6.726  0.5875 -0.3972  0.4331
  309MOL0     C42520   1.633   2.561   6.864 -0.1316  0.0657 -0.6431
  309MOL0     N42521   1.726   2.658   6.920 -0.7822  0.0753 -0.5330
  309MOL0     C42522   1.694   2.780   6.950 -0.1157 -0.0190  0.7200
  309MOL0     C42523   1.781   2.825   7.042 -0.1057 -0.6947 -0.1692
  309MOL0     C42524   1.761   2.954   7.107  0.4468  0.1213 -0.0027
  309MOL0     C42525   1.873   2.989   7.202  0.2562  0.0352  1.0900
  309MOL0     C42526   1.982   3.067   7.128  1.2153  0.7263  0.3333
  309MOL0     C42527   2.099   3.102   7.217 -0.6996  0.0209 -0.9588
  309MOL0     O42528   2.173   3.209   7.166  0.6613  0.1481 -0.0323
  309MOL0     C42529   2.278   3.259   7.237  0.6774  0.1236 -0.6476
  309MOL0     C42530   2.363   3.346   7.174 -0.4362  0.5378 -0.5059
  309MOL0     C42531   2.483   3.387   7.228 -0.2616 -0.7734  0.1457
  309MOL0     C42532   2.568   3.480   7.141 -0.3684 -0.8346 -0.2376
  309MOL0     C42533   2.523   3.332   7.354 -0.3768  0.0615 -0.2997
  309MOL0     C42534   2.655   3.353   7.425 -0.3162  0.4683  0.2606
  309MOL0     O42535   2.671   3.272   7.533 -0.1450 -0.2350 -0.5492
  309MOL0     C42536   2.798   3.235   7.564  0.9833  0.8242  0.1490
  309MOL0     C42537   2.888   3.186   7.467 -0.6879 -0.6931 -0.3641
  309MOL0     C42538   3.013   3.141   7.503 -1.0776  0.7600 -0.7282
  309MOL0     C42539   3.060   3.154   7.628  0.3307  0.4243 -0.0611
  309MOL0     O42540   3.192   3.119   7.641  0.5469 -0.2801 -0.0719
  309MOL0     C42541   3.268   3.173   7.747  1.0021  0.3654 -0.4111
  309MOL0     C42542   3.389   3.088   7.765 -0.2643 -0.1130  0.0398
  309MOL0     C42543   3.465   3.122   7.895  1.0213 -0.2864  0.6900
  309MOL0     C42544   3.581   3.034   7.913 -0.6662 -0.0444 -0.4918
  309MOL0     C42545   3.702   3.074   7.825  1.1241  0.3528 -0.6573
  309MOL0     C42546   3.836   3.034   7.891 -0.4839 -0.2467 -0.3132
  309MOL0     C42547   3.939   3.148   7.879  0.5978  0.3704  0.0221
  309MOL0     C42548   4.082   3.115   7.945  0.5768  0.4457 -0.1108
  309MOL0    Cl42549   4.150   2.964   7.867  0.6543  0.2448 -0.4041
  309MOL0     C42550   2.977   3.215   7.724  0.0403  0.7575  0.6803
  309MOL0     C42551   2.837   3.242   7.703  0.1228  0.6074  0.5319
  309MOL0     O42552   2.737   3.442   7.392 -0.1857 -0.4484 -0.3503
  309MOL0     C42553   2.434   3.249   7.420  0.3810 -0.3897  0.0649
  309MOL0     C42554   2.310   3.214   7.366 -1.1842  1.1944  0.3873
  309MOL0     N42555   1.871   2.721   7.061 -0.5215  0.7907  0.5726
  309MOL0     N42556   1.831   2.623   6.998 -0.4909  0.2236  0.2658
  309MOL0     C42557   0.660   2.366   6.720  0.7454 -0.6533  0.3737
  309MOL0     C42558   0.520   2.376   6.746 -0.9443  0.0375 -0.7646
  309MOL0     C42559   0.147   2.517   6.913 -0.4844  1.0274 -0.6639
  309MOL0     C42560   0.095   2.409   6.985  0.0453  0.8226  0.0926
  309MOL0     C42561  -0.047   2.392   7.007 -0.8491 -0.2462 -0.5417
  309MOL0     C42562  -0.129   2.491   6.962 -0.5083 -0.1850  0.2318
  309MOL0     O42563  -0.262   2.475   6.993 -0.6643  0.1926  0.1321
  309MOL0     C42564  -0.362   2.544   6.922  0.1796 -0.6270  0.1031
  309MOL0     C42565  -0.399   2.672   6.998  0.8920 -0.4490 -0.7612
  309MOL0     C42566  -0.463   2.652   7.140 -0.0982  0.2629 -0.7016
  309MOL0     C42567  -0.597   2.571   7.140 -0.3562 -0.0925  0.1506
  309MOL0     C42568  -0.645   2.561   7.276  0.5416 -0.3631 -0.0095
  309MOL0     C42569  -0.687   2.555   7.390  0.3878  0.2518  0.2605
  309MOL0     C42570  -0.074   2.600   6.887 -0.4216 -1.6293 -0.0823
  309MOL0     C42571   0.063   2.610   6.861 -0.3718 -0.6185  1.3429
  309MOL0     C42572   0.111   2.732   6.789  0.3262  0.0939  0.0378
  309MOL0     H42573   0.470   2.700   6.625  0.4945  0.0817 -0.4843
  309MOL0     H42574   0.713   2.669   6.563 -3.9739  1.0947 -0.9447
  309MOL0     H42575   0.872   2.300   6.521  0.2804  0.5144  0.7764
  309MOL0     H42576   0.908   2.263   6.690 -0.1678 -0.3999  0.4667
  309MOL0     H42577   1.120   2.271   6.547 -2.4371 -0.4249  0.1160
  309MOL0     H42578   1.074   2.445   6.511  0.7079  0.3198 -1.1922
  309MOL0     H42579   1.083   2.506   6.752 -1.0765  1.0640 -2.6047
  309MOL0     H42580   1.143   2.341   6.788 -2.2764 -1.6775 -1.3468
  309MOL0     H42581   1.273   2.546   6.592  0.3307 -0.1651 -0.4887
  309MOL0     H42582   1.280   2.578   6.762  0.6330  0.2822  0.1219
  309MOL0     H42583   1.378   2.320   6.646  2.3523  0.4035 -1.0859
  309MOL0     H42584   1.410   2.397   6.811 -1.5475  0.9601  0.6146
  309MOL0     H42585   1.618   2.398   6.659  1.4942  1.6185  0.8029
  309MOL0     H42586   1.523   2.491   6.543  0.0298 -0.3746 -0.1453
  309MOL0     H42587   1.493   2.666   6.735  2.2490  2.0076 -0.1053
  309MOL0     H42588   1.659   2.658   6.676  0.8020  1.5384  2.8158
  309MOL0     H42589   1.548   2.544   6.930  1.2989 -2.0796  0.7723
  309MOL0     H42590   1.694   2.470   6.859  0.2735  0.3962 -3.0119
  309MOL0     H42591   1.606   2.841   6.931  0.1571 -0.1169 -1.0857
  309MOL0     H42592   1.669   2.954   7.167 -0.3855 -0.2882 -1.2174
  309MOL0     H42593   1.746   3.031   7.030  1.1126  0.4480  0.1923
  309MOL0     H42594   1.838   3.045   7.289  2.1441  2.0057  0.6700
  309MOL0     H42595   1.905   2.891   7.240 -0.3607 -1.2053 -1.3524
  309MOL0     H42596   2.016   3.010   7.041  0.5455 -2.9045  2.2395
  309MOL0     H42597   1.933   3.153   7.082  0.0014 -0.6406 -1.0736
  309MOL0     H42598   2.062   3.136   7.314  0.1635 -1.4402 -0.0988
  309MOL0     H42599   2.169   3.020   7.237  1.2166  1.5665 -0.9513
  309MOL0     H42600   2.335   3.372   7.072  0.6333 -0.3627 -1.0597
  309MOL0     H42601   2.571   3.576   7.194 -0.6732 -0.7853 -0.3067
  309MOL0     H42602   2.524   3.493   7.042  2.0232  0.9634 -1.1576
  309MOL0     H42603   2.670   3.450   7.120  1.1172  1.4975  2.8118
  309MOL0     H42604   2.864   3.183   7.362  2.5932  0.6882 -1.2731
  309MOL0     H42605   3.087   3.094   7.439 -0.3802  0.3147  0.3742
  309MOL0     H42606   3.303   3.275   7.731  1.5369  0.8699  3.1310
  309MOL0     H42607   3.205   3.165   7.837 -2.9691 -3.7971 -3.0880
  309MOL0     H42608   3.355   2.985   7.774 -0.7121  0.0117 -0.2211
  309MOL0     H42609   3.467   3.081   7.688  1.2549  0.5064  1.4750
  309MOL0     H42610   3.409   3.084   7.981  4.9867 -3.7201  2.0977
  309MOL0     H42611   3.486   3.229   7.900 -2.1322  0.5626 -1.3268
  309MOL0     H42612   3.562   2.928   7.894 -0.2957 -0.3533  0.7532
  309MOL0     H42613   3.616   3.034   8.017  0.7410 -1.9593 -0.8978
  309MOL0     H42614   3.688   3.025   7.728 -0.9437  2.2675 -1.4221
  309MOL0     H42615   3.691   3.182   7.815 -0.7508  0.2342 -0.1463
  309MOL0     H42616   3.869   2.945   7.835 -0.9626 -0.0432 -0.9228
  309MOL0     H42617   3.821   3.006   7.996 -0.9909 -0.5274 -0.4579
  309MOL0     H42618   3.901   3.238   7.928  0.1754 -1.5822  3.6425
  309MOL0     H42619   3.958   3.174   7.774 -1.0284  0.6386 -0.2260
  309MOL0     H42620   4.061   3.115   8.053  1.4003  1.8605  0.0758
  309MOL0     H42621   4.145   3.203   7.930 -0.3551  0.7402 -2.8651
  309MOL0     H42622   3.006   3.242   7.825  1.6168  0.7092  0.2555
  309MOL0     H42623   2.765   3.268   7.780 -1.2188 -1.5904  0.1270
  309MOL0     H42624   2.445   3.208   7.520 -0.6242 -1.0435 -0.0673
  309MOL0     H42625   2.238   3.157   7.423  0.6368  2.2451  4.0162
  309MOL0     H42626   0.717   2.280   6.755  0.5249 -1.1710 -0.5114
  309MOL0     H42627   0.476   2.297   6.806  1.3677 -0.2540  0.6696
  309MOL0     H42628   0.173   2.339   7.015 -0.7333  0.3764  1.1305
  309MOL0     H42629  -0.074   2.297   7.053  0.4796 -1.0879 -1.4024
  309MOL0     H42630  -0.325   2.574   6.823  1.4244 -1.8149  0.1833
  309MOL0     H42631  -0.444   2.473   6.904 -0.3563  0.3585 -1.5622
  309MOL0     H42632  -0.477   2.728   6.946  1.0493  2.0009  1.4359
  309MOL0     H42633  -0.316   2.742   6.991 -1.9021  3.2693 -0.1760
  309MOL0     H42634  -0.392   2.596   7.201 -1.5975 -0.5506  0.3659
  309MOL0     H42635  -0.486   2.746   7.192 -0.2644 -0.8600  1.3478
  309MOL0     H42636  -0.598   2.472   7.095 -1.1334  0.2724 -0.6746
  309MOL0     H42637  -0.666   2.632   7.081  2.4698  2.4277 -0.7834
  309MOL0     H42638  -0.715   2.542   7.493 -2.3803 -0.9271 -0.5470
  309MOL0     H42639  -0.138   2.683   6.858  3.2100  2.1390  1.7213
  309MOL0     H42640   0.213   2.757   6.820  1.6218 -3.4914 -0.8806
  309MOL0     H42641   0.127   2.714   6.683  2.3250 -0.9660  0.4737
  309MOL0     H42642   0.036   2.811   6.796  0.3187  0.0920 -0.0296
  310MOL0     O42643   0.719   8.535   4.904 -0.1878  0.1589  0.6416
  310MOL0     C42644   0.751   8.516   5.022  0.0346  0.0834 -0.4657
  310MOL0     O42645   0.880   8.485   5.064  0.4760 -0.3973 -0.2496
  310MOL0     C42646   0.965   8.446   4.965 -0.6641 -0.0948 -0.0006
  310MOL0     C42647   0.952   8.321   4.915 -0.6795 -0.1394 -0.1543
  310MOL0     C42648   1.043   8.275   4.820 -0.1902  0.4930 -0.4118
  310MOL0     C42649   1.140   8.350   4.772  0.1335  0.3527  0.4162
  310MOL0     O42650   1.220   8.282   4.678 -0.4878  0.3383 -0.3636
  310MOL0     C42651   1.283   8.357   4.580 -0.1199 -0.2653  0.6572
  310MOL0     C42652   1.383   8.273   4.502  0.8203  0.2779 -0.1407
  310MOL0     C42653   1.360   8.116   4.499  0.9596 -0.7680 -0.2178
  310MOL0     C42654   1.472   8.065   4.403  0.4886 -0.5245 -0.2217
  310MOL0     C42655   1.422   8.026   4.267  0.0148  0.4436 -0.3070
  310MOL0     C42656   1.381   8.157   4.189 -0.0710  0.8629 -0.0022
  310MOL0     C42657   1.337   8.128   4.047 -0.0005  1.4320  0.6411
  310MOL0     C42658   1.442   8.043   3.960 -0.3550  0.2077 -0.2255
  310MOL0     N42659   1.567   8.132   3.937 -0.0770 -0.1779  0.2972
  310MOL0     C42660   1.601   8.185   3.817 -0.8664 -0.3270  1.3031
  310MOL0     C42661   1.704   8.271   3.852 -0.5702  0.4859 -0.2971
  310MOL0     C42662   1.768   8.379   3.763  0.9484 -0.5019 -0.7317
  310MOL0     C42663   1.715   8.386   3.619  0.6056 -0.4638  0.2824
  310MOL0     C42664   1.816   8.455   3.528 -0.3065  0.7040  0.6290
  310MOL0     C42665   1.871   8.597   3.559 -0.4123  0.1128  0.0188
  310MOL0     O42666   1.959   8.647   3.454 -1.0700  0.4641  0.5155
  310MOL0     C42667   2.006   8.773   3.461 -0.1741 -0.1110  0.2127
  310MOL0     C42668   2.083   8.810   3.352 -0.2747 -0.3792 -0.3930
  310MOL0     C42669   2.123   8.947   3.330  0.0773  0.1313 -0.9148
  310MOL0     C42670   2.185   8.974   3.191 -0.2230 -0.6965  0.3495
  310MOL0     C42671   2.111   9.039   3.434 -0.2107  0.4299  0.4672
  310MOL0     C42672   2.190   9.164   3.438  0.7105 -0.1617  1.0882
  310MOL0     O42673   2.314   9.161   3.375  0.2149 -0.3116 -0.3363
  310MOL0     C42674   2.384   9.277   3.356  0.1460 -0.5034  0.3356
  310MOL0     C42675   2.393   9.339   3.235 -0.0977  0.0404  0.0882
  310MOL0     C42676   2.479   9.449   3.222 -0.3982 -1.3483 -0.2110
  310MOL0     C42677   2.550   9.497   3.337 -0.3577  0.3891  0.2630
  310MOL0     O42678   2.644   9.600   3.316  0.6529  0.4323 -0.7719
  310MOL0     C42679   2.779   9.566   3.355 -0.1921 -0.3103  0.4528
  310MOL0     C42680   2.873   9.629   3.258 -0.9112 -0.2382 -0.0635
  310MOL0     C42681   3.015   9.635   3.307  0.3467 -0.0942  0.3420
  310MOL0     C42682   3.116   9.629   3.195 -0.9480 -0.0863  0.1512
  310MOL0     C42683   3.262   9.620   3.253  0.7507  0.0617 -0.6497
  310MOL0     C42684   3.357   9.598   3.136  0.6390 -0.0330  0.6423
  310MOL0     C42685   3.496   9.579   3.179  0.7369 -0.4044 -0.0353
  310MOL0     C42686   3.591   9.568   3.057 -0.1823 -0.1923  0.0413
  310MOL0    Cl42687   3.739   9.482   3.130  0.1748 -0.5286  0.4114
  310MOL0     C42688   2.528   9.437   3.460 -0.3833 -0.6957 -0.7872
  310MOL0     C42689   2.439   9.327   3.473 -0.3606 -0.8758 -0.0498
  310MOL0     O42690   2.152   9.257   3.503  0.7971 -0.5707 -0.0073
  310MOL0     C42691   2.028   8.997   3.543  0.0562  0.2902 -0.5791
  310MOL0     C42692   1.973   8.870   3.555 -0.2872  0.0277 -0.0080
  310MOL0     N42693   1.747   8.240   3.976 -0.0486  0.5913 -0.0193
  310MOL0     N42694   1.659   8.171   4.033  0.2475 -0.5769 -0.1584
  310MOL0     C42695   1.157   8.475   4.822 -0.5807 -0.2529 -1.0961
  310MOL0     C42696   1.066   8.530   4.915 -0.6829 -0.5990 -0.4181
  310MOL0     C42697   0.641   8.499   5.122  0.0292  0.4605 -0.6217
  310MOL0     C42698   0.521   8.450   5.070 -0.2540  0.8646  0.8470
  310MOL0     C42699   0.402   8.462   5.151 -0.0384 -0.4702 -0.0590
  310MOL0     C42700   0.406   8.513   5.278 -0.9960 -0.1343  0.2698
  310MOL0     O42701   0.294   8.521   5.355 -0.4278 -0.3846 -0.1825
  310MOL0     C42702   0.179   8.438   5.346 -0.9280 -0.2952  0.7284
  310MOL0     C42703   0.133   8.377   5.479  0.5970 -0.0488  0.2655
  310MOL0     C42704   0.235   8.299   5.557 -0.0641 -0.3773  0.0365
  310MOL0     C42705   0.342   8.384   5.624  1.0372 -0.3613  1.1846
  310MOL0     C42706   0.411   8.312   5.725 -0.4650 -0.0589  0.2093
  310MOL0     C42707   0.474   8.250   5.807 -0.2691 -0.3727  0.2428
  310MOL0     C42708   0.526   8.561   5.331 -0.4600 -0.7856  0.2677
  310MOL0     C42709   0.642   8.553   5.256  0.7777 -0.3340 -0.4700
  310MOL0     C42710   0.772   8.593   5.332 -0.5529  0.3097  0.4009
  310MOL0     H42711   0.879   8.252   4.955  0.8032 -1.6758  0.0510
  310MOL0     H42712   1.021   8.184   4.765  0.7290  0.8391 -1.3919
  310MOL0     H42713   1.332   8.448   4.616  1.3807 -1.4290  1.6669
  310MOL0     H42714   1.208   8.385   4.505  1.8003 -1.6113 -1.9086
  310MOL0     H42715   1.393   8.321   4.404  2.3770  0.5981  0.1488
  310MOL0     H42716   1.480   8.284   4.553 -0.2348  1.9243  1.6151
  310MOL0     H42717   1.375   8.079   4.601  3.2989  3.2771  1.1197
  310MOL0     H42718   1.255   8.105   4.471  0.6792  1.7757 -0.3653
  310MOL0     H42719   1.551   8.139   4.395 -0.1216  0.0050 -1.6540
  310MOL0     H42720   1.510   7.973   4.448 -3.7580 -1.5996  1.7376
  310MOL0     H42721   1.335   7.959   4.273 -1.8599  2.7237 -0.4250
  310MOL0     H42722   1.497   7.967   4.215 -2.3433 -1.0722 -2.2277
  310MOL0     H42723   1.290   8.201   4.231 -0.7995 -2.0161  1.7615
  310MOL0     H42724   1.470   8.220   4.194 -0.4558  1.3144  1.3358
  310MOL0     H42725   1.317   8.224   3.997 -2.5407  1.7897  2.1709
  310MOL0     H42726   1.244   8.071   4.050 -0.6299  2.4442  1.1899
  310MOL0     H42727   1.482   7.954   4.009 -2.6694 -0.4827  0.5536
  310MOL0     H42728   1.396   8.001   3.870  0.7116 -1.4153 -0.0654
  310MOL0     H42729   1.569   8.169   3.715  1.6795 -0.6017  0.4832
  310MOL0     H42730   1.877   8.368   3.758  0.8611 -2.0253  0.1098
  310MOL0     H42731   1.745   8.477   3.807  0.5774 -0.1090 -1.7564
  310MOL0     H42732   1.710   8.283   3.580  1.0379 -1.1156  1.8646
  310MOL0     H42733   1.620   8.440   3.612 -0.0944 -1.8475 -2.5586
  310MOL0     H42734   1.897   8.382   3.520  0.7981  1.9674 -0.0948
  310MOL0     H42735   1.775   8.465   3.427  1.0303  2.1984  0.1992
  310MOL0     H42736   1.782   8.658   3.578  0.7996  1.8977  0.1522
  310MOL0     H42737   1.935   8.592   3.648 -0.2384 -1.6842 -0.1685
  310MOL0     H42738   2.103   8.739   3.272  0.1789 -1.1076  0.3570
  310MOL0     H42739   2.293   8.955   3.191  0.1527  0.7056 -3.0644
  310MOL0     H42740   2.163   9.079   3.168  1.4512 -0.2899  0.4995
  310MOL0     H42741   2.143   8.915   3.109 -0.8645  0.9649 -0.5729
  310MOL0     H42742   2.350   9.293   3.147  0.1496 -2.1200  1.0321
  310MOL0     H42743   2.488   9.486   3.121  0.7157  0.0291  0.3522
  310MOL0     H42744   2.799   9.606   3.455 -1.2628 -1.9299  1.3697
  310MOL0     H42745   2.795   9.458   3.355  0.2547 -0.3054  2.9189
  310MOL0     H42746   2.879   9.572   3.165  0.6322  1.9795 -1.4186
  310MOL0     H42747   2.838   9.729   3.229  0.0950  0.3644  0.7352
  310MOL0     H42748   3.030   9.549   3.373  2.7673 -0.0647 -0.0546
  310MOL0     H42749   3.031   9.713   3.383 -0.0267 -0.3957  0.7307
  310MOL0     H42750   3.111   9.713   3.125 -0.7673 -2.4549 -2.9644
  310MOL0     H42751   3.082   9.536   3.147 -1.8330  0.3946 -0.1893
  310MOL0     H42752   3.277   9.714   3.308 -0.1413  0.3196 -0.8226
  310MOL0     H42753   3.258   9.540   3.328  0.5714  1.3676  0.7853
  310MOL0     H42754   3.343   9.683   3.068 -2.6289 -0.7579  0.2125
  310MOL0     H42755   3.329   9.499   3.098  0.9036 -0.7364  2.1836
  310MOL0     H42756   3.509   9.488   3.240 -0.3252 -1.4439 -1.3083
  310MOL0     H42757   3.533   9.662   3.241  1.5250  1.5434 -2.9208
  310MOL0     H42758   3.611   9.662   3.004 -3.5546  0.0509 -1.0124
  310MOL0     H42759   3.545   9.507   2.979  3.6846 -1.1603 -1.7049
  310MOL0     H42760   2.596   9.457   3.543  1.0475 -2.0842 -1.5531
  310MOL0     H42761   2.418   9.281   3.570 -2.8208  1.1331  0.4639
  310MOL0     H42762   2.009   9.064   3.626 -0.6234 -1.0408  0.3791
  310MOL0     H42763   1.915   8.836   3.640 -1.4157 -3.8365 -2.0839
  310MOL0     H42764   1.241   8.539   4.798  1.5207 -1.0909  2.9605
  310MOL0     H42765   1.081   8.631   4.952  0.6330  0.7632 -4.2118
  310MOL0     H42766   0.510   8.431   4.964  1.6053  0.9744  0.5908
  310MOL0     H42767   0.304   8.435   5.114 -0.2282 -0.7892  0.6641
  310MOL0     H42768   0.102   8.495   5.295  0.5372  0.4386 -0.7470
  310MOL0     H42769   0.198   8.352   5.282 -2.8488  1.8205 -2.9730
  310MOL0     H42770   0.047   8.314   5.452  0.7438  0.0459 -0.4527
  310MOL0     H42771   0.089   8.449   5.548 -2.5306 -1.6891  0.1890
  310MOL0     H42772   0.176   8.250   5.635  1.2266 -2.4612 -0.2208
  310MOL0     H42773   0.282   8.222   5.496  0.9403  1.3263 -1.4585
  310MOL0     H42774   0.306   8.481   5.659 -0.6469 -0.9976  1.2840
  310MOL0     H42775   0.411   8.429   5.553  2.1064 -2.8219  0.5580
  310MOL0     H42776   0.529   8.198   5.882  0.3981  3.0172  2.3197
  310MOL0     H42777   0.528   8.595   5.434  0.0031  0.2085 -0.0629
  310MOL0     H42778   0.747   8.641   5.427 -0.2095  0.0565  0.6209
  310MOL0     H42779   0.830   8.502   5.351  1.6968  1.4156 -0.7946
  310MOL0     H42780   0.825   8.673   5.280  0.0468 -1.4210 -1.8177
  311MOL0     O42781  10.733   5.964   2.236 -0.0673 -0.3958 -0.2896
  311MOL0     C42782  10.629   5.900   2.238  0.2504  0.0696 -0.3324
  311MOL0     O42783  10.621   5.761   2.261 -0.1480 -0.4602  0.4047
  311MOL0     C42784  10.731   5.694   2.287 -0.5378  0.3572 -0.6070
  311MOL0     C42785  10.765   5.687   2.417  0.0069 -0.4326 -0.9868
  311MOL0     C42786  10.882   5.611   2.457 -0.6787  0.2673  0.0964
  311MOL0     C42787  10.955   5.537   2.362  0.7776 -0.1964 -0.5432
  311MOL0     O42788  11.074   5.462   2.392  0.4115  0.1096  0.0454
  311MOL0     C42789  11.124   5.454   2.529  0.1377 -0.6750  0.0252
  311MOL0     C42790  11.265   5.409   2.539  0.8425  0.3587  0.4514
  311MOL0     C42791  11.364   5.482   2.457 -0.3839 -0.8413  0.8554
  311MOL0     C42792  11.485   5.391   2.444  0.3885  1.0126 -0.0191
  311MOL0     C42793  11.540   5.338   2.587 -0.3189  0.4909 -0.7743
  311MOL0     C42794  11.699   5.330   2.578  0.6948 -0.0916 -0.3609
  311MOL0     C42795  11.763   5.475   2.586 -1.0099  0.0669 -0.6024
  311MOL0     C42796  11.902   5.469   2.655 -0.0697 -0.4440  0.2229
  311MOL0     N42797  11.992   5.582   2.645 -0.0776  0.4328  0.5570
  311MOL0     C42798  12.021   5.675   2.740  1.6335  0.3527  1.0809
  311MOL0     C42799  12.131   5.746   2.704  1.1734 -0.0531  0.5963
  311MOL0     C42800  12.200   5.859   2.778  0.4889  0.1017 -0.0188
  311MOL0     C42801  12.291   5.807   2.894  0.2999  0.8127 -0.2089
  311MOL0     C42802  12.341   5.922   2.978 -0.8870 -0.5886  0.2610
  311MOL0     C42803  12.432   5.870   3.084 -0.0068  0.3002 -0.1143
  311MOL0     O42804  12.571   5.834   3.039  0.4986 -0.1636 -0.0003
  311MOL0     C42805  12.664   5.867   3.133 -0.8634 -0.3672  0.2413
  311MOL0     C42806  12.649   5.846   3.271  0.6972 -0.4909  0.4545
  311MOL0     C42807  12.753   5.873   3.364 -0.8805  0.6073 -0.0004
  311MOL0     C42808  12.730   5.841   3.513  0.2042  0.0648  0.6060
  311MOL0     C42809  12.881   5.918   3.323  1.4805 -0.0900 -1.0469
  311MOL0     C42810  13.001   5.949   3.412  0.2495 -0.8702  0.7029
  311MOL0     O42811  13.098   6.040   3.365  0.7492  0.3259  0.2199
  311MOL0     C42812  13.198   6.089   3.448  0.6939 -0.0646  1.0857
  311MOL0     C42813  13.161   6.124   3.577  1.2022 -0.0933 -0.5464
  311MOL0     C42814  13.255   6.169   3.669  0.3274 -0.4359 -0.0805
  311MOL0     C42815  13.392   6.185   3.645 -0.2211  1.4775  0.3769
  311MOL0     O42816  13.477   6.242   3.722  0.0255  0.4284 -0.1174
  311MOL0     C42817  13.440   6.237   3.866 -0.0373 -0.1648  0.9784
  311MOL0     C42818  13.375   6.366   3.927  0.0268 -0.2648 -0.9331
  311MOL0     C42819  13.476   6.480   3.916 -0.8887  0.4540 -0.8760
  311MOL0     C42820  13.418   6.614   3.972 -0.0247  0.9092 -0.3644
  311MOL0     C42821  13.534   6.714   3.990 -1.1892 -0.2589  0.7557
  311MOL0     C42822  13.489   6.828   4.081  0.3071  0.3336  0.2046
  311MOL0     C42823  13.403   6.932   4.016  0.0882  1.1802  0.2577
  311MOL0     C42824  13.387   7.056   4.115 -0.0882 -0.5671 -0.2286
  311MOL0    Cl42825  13.532   7.163   4.093  0.0653 -0.1281 -0.3081
  311MOL0     C42826  13.431   6.144   3.513  0.1505 -0.5129 -0.1582
  311MOL0     C42827  13.336   6.101   3.415  0.4681  0.2754  0.6149
  311MOL0     O42828  13.025   5.880   3.506  0.2183 -0.1086 -0.3864
  311MOL0     C42829  12.893   5.950   3.183  0.2085 -0.3101  0.3341
  311MOL0     C42830  12.795   5.911   3.086  0.3956 -0.0289  0.6995
  311MOL0     N42831  12.158   5.707   2.568 -0.4485  0.1260 -0.2734
  311MOL0     N42832  12.083   5.600   2.542 -0.1135  0.2564 -0.4188
  311MOL0     C42833  10.916   5.550   2.224  0.1275  0.6105 -0.4193
  311MOL0     C42834  10.811   5.630   2.185 -0.1621 -1.1389  0.8439
  311MOL0     C42835  10.492   5.967   2.224  0.2233  0.0431 -1.0091
  311MOL0     C42836  10.397   5.921   2.139  0.4966  0.1016 -0.5393
  311MOL0     C42837  10.269   5.976   2.120 -0.6625  0.0229  0.8267
  311MOL0     C42838  10.239   6.093   2.181 -0.0311  0.5253 -0.0751
  311MOL0     O42839  10.120   6.147   2.142  0.2399 -0.7480 -0.1584
  311MOL0     C42840  10.107   6.287   2.162 -0.0957 -0.1504 -1.0418
  311MOL0     C42841   9.967   6.341   2.122 -0.2643 -0.8347 -0.6477
  311MOL0     C42842   9.932   6.325   1.971  0.4614 -0.4511  0.4805
  311MOL0     C42843   9.792   6.374   1.939  0.4677 -0.0449  0.1247
  311MOL0     C42844   9.807   6.523   1.934  0.6890  0.7931  1.0727
  311MOL0     C42845   9.835   6.638   1.942  0.2012 -0.0718 -0.1367
  311MOL0     C42846  10.327   6.146   2.278  0.1233 -1.0950  1.5129
  311MOL0     C42847  10.460   6.087   2.296 -0.8400 -1.2561  0.2601
  311MOL0     C42848  10.550   6.157   2.399 -0.6999  0.0314  1.4016
  311MOL0     H42849  10.711   5.749   2.488  1.7687  0.0241  0.0149
  311MOL0     H42850  10.912   5.603   2.561 -1.8308 -0.9505  0.3811
  311MOL0     H42851  11.059   5.398   2.597  0.8952 -0.4539  0.9497
  311MOL0     H42852  11.132   5.558   2.563 -0.1380 -0.4950 -0.4488
  311MOL0     H42853  11.294   5.421   2.644 -2.4214 -1.2495  1.6879
  311MOL0     H42854  11.266   5.301   2.520  0.0628 -0.2478  3.3700
  311MOL0     H42855  11.315   5.499   2.361 -1.5462 -1.7290  1.2682
  311MOL0     H42856  11.398   5.575   2.505 -1.8132 -1.5088  3.3038
  311MOL0     H42857  11.463   5.305   2.379  1.3521  0.0738  0.8644
  311MOL0     H42858  11.565   5.444   2.391  0.0004  2.7399  1.0675
  311MOL0     H42859  11.512   5.238   2.619  2.0480  0.7984  2.7926
  311MOL0     H42860  11.524   5.414   2.664  1.5326  1.6738 -1.4811
  311MOL0     H42861  11.738   5.271   2.662  0.7331  2.9270  1.9204
  311MOL0     H42862  11.710   5.274   2.485 -1.3300 -1.7391  0.3067
  311MOL0     H42863  11.687   5.538   2.632 -0.8660 -0.4623  0.3966
  311MOL0     H42864  11.791   5.516   2.489 -0.4191 -1.7458 -1.2426
  311MOL0     H42865  11.880   5.435   2.757 -1.0575 -3.8573 -0.9674
  311MOL0     H42866  11.957   5.382   2.617 -1.1761 -0.8084 -0.6077
  311MOL0     H42867  11.977   5.688   2.839 -0.3271  0.4960  0.2256
  311MOL0     H42868  12.127   5.926   2.825 -0.3753 -0.6339 -0.2886
  311MOL0     H42869  12.259   5.919   2.708 -0.9197 -2.2308 -3.3938
  311MOL0     H42870  12.228   5.748   2.961  0.2588 -1.0681 -1.8058
  311MOL0     H42871  12.374   5.744   2.859  0.0630  0.5895 -0.3666
  311MOL0     H42872  12.394   6.004   2.928  1.0927 -0.5082  2.3224
  311MOL0     H42873  12.255   5.962   3.033  0.0453  0.3606  1.0753
  311MOL0     H42874  12.452   5.950   3.155  2.1612  1.3740 -1.8306
  311MOL0     H42875  12.384   5.784   3.134 -1.0744  1.6352  1.2493
  311MOL0     H42876  12.561   5.793   3.306  3.1754 -3.1843  3.2029
  311MOL0     H42877  12.777   5.744   3.532 -0.9667 -0.8598 -0.9454
  311MOL0     H42878  12.622   5.843   3.528  0.2184  2.2672  0.7025
  311MOL0     H42879  12.769   5.922   3.575 -0.7243 -1.3316  3.1595
  311MOL0     H42880  13.059   6.113   3.613  1.8148  2.3997  2.3238
  311MOL0     H42881  13.203   6.197   3.760 -0.7763 -0.0400 -0.8076
  311MOL0     H42882  13.376   6.155   3.900 -2.0777  1.7972  2.1495
  311MOL0     H42883  13.533   6.222   3.920  0.3489 -1.7971 -0.0665
  311MOL0     H42884  13.279   6.398   3.888  0.8282  2.9338 -0.5553
  311MOL0     H42885  13.363   6.346   4.034 -2.8415 -1.9321 -1.4871
  311MOL0     H42886  13.504   6.493   3.811 -2.8077 -0.1798 -1.5135
  311MOL0     H42887  13.564   6.466   3.979 -1.5743 -1.3322 -0.2618
  311MOL0     H42888  13.366   6.596   4.067 -1.2519 -1.3761 -1.3752
  311MOL0     H42889  13.342   6.651   3.902  0.5208  2.5723 -0.1141
  311MOL0     H42890  13.613   6.656   4.040  0.8073  0.1231 -1.7731
  311MOL0     H42891  13.588   6.752   3.903 -2.6207 -0.4754 -0.2622
  311MOL0     H42892  13.572   6.885   4.123 -0.4208  1.0050  0.7585
  311MOL0     H42893  13.435   6.780   4.163 -0.4472 -1.6554 -1.3714
  311MOL0     H42894  13.303   6.891   3.998  0.9361 -0.1963 -1.5496
  311MOL0     H42895  13.448   6.955   3.920 -1.8766 -0.9776 -1.2988
  311MOL0     H42896  13.364   7.026   4.218 -2.5374  0.7598 -0.3027
  311MOL0     H42897  13.310   7.125   4.077  0.4804 -0.6690 -1.6179
  311MOL0     H42898  13.533   6.161   3.480  0.4203 -0.0666  0.8814
  311MOL0     H42899  13.385   6.073   3.322  1.5866  1.4534  0.8182
  311MOL0     H42900  12.992   5.968   3.140  0.0099 -0.5419 -0.2324
  311MOL0     H42901  12.821   5.909   2.981  3.3132  2.5764  1.2199
  311MOL0     H42902  10.956   5.498   2.138 -1.6772 -0.2487 -0.7805
  311MOL0     H42903  10.781   5.641   2.082  0.0314 -0.6492  0.8323
  311MOL0     H42904  10.430   5.827   2.094 -0.9723 -0.1554 -1.1119
  311MOL0     H42905  10.196   5.927   2.056  0.8553  0.5323 -1.3902
  311MOL0     H42906  10.118   6.318   2.266  0.8038 -2.0148 -0.5487
  311MOL0     H42907  10.181   6.335   2.096  0.1423 -0.0643 -0.7166
  311MOL0     H42908   9.966   6.448   2.145 -1.4103 -0.6700 -1.3555
  311MOL0     H42909   9.891   6.295   2.186 -0.6788 -0.4989 -0.8889
  311MOL0     H42910  10.006   6.374   1.907 -0.3942 -0.5897 -0.6552
  311MOL0     H42911   9.949   6.218   1.954  0.4626 -0.7094  2.0036
  311MOL0     H42912   9.717   6.341   2.012  1.9081  1.9289  2.6710
  311MOL0     H42913   9.764   6.328   1.844  0.8322  0.5877 -0.2979
  311MOL0     H42914   9.846   6.744   1.950 -4.8807  0.5654  3.3758
  311MOL0     H42915  10.300   6.238   2.330  0.7106  0.6184 -1.0362
  311MOL0     H42916  10.570   6.090   2.483 -0.8644  0.2404  1.6105
  311MOL0     H42917  10.646   6.173   2.349 -0.5455 -1.8129  1.0413
  311MOL0     H42918  10.507   6.251   2.436  4.3149  5.5732 -4.3870
  312MOL0     O42919   8.959   6.737   9.034  0.4079  0.3189 -0.8979
  312MOL0     C42920   8.917   6.778   8.930 -0.0547 -0.6703 -0.1868
  312MOL0     O42921   8.982   6.772   8.810 -0.7825  0.2307  0.0964
  312MOL0     C42922   9.118   6.741   8.805  0.0090 -0.6600 -0.5483
  312MOL0     C42923   9.210   6.835   8.756  0.3848  0.2674  0.7682
  312MOL0     C42924   9.350   6.812   8.764 -0.3048  0.2184 -0.7492
  312MOL0     C42925   9.392   6.678   8.801 -0.0114 -0.1524  0.0330
  312MOL0     O42926   9.523   6.633   8.803 -0.3918 -0.5930  0.7863
  312MOL0     C42927   9.643   6.716   8.777  0.6617  0.2852 -0.7567
  312MOL0     C42928   9.762   6.628   8.765  0.0802  0.8304  0.3278
  312MOL0     C42929   9.895   6.696   8.716  0.0411 -0.7164 -0.0863
  312MOL0     C42930  10.003   6.592   8.717 -0.0725 -0.6713 -1.1895
  312MOL0     C42931  10.139   6.661   8.705 -0.5803  0.2646 -0.2640
  312MOL0     C42932  10.261   6.570   8.729  0.3485 -0.1792  0.3163
  312MOL0     C42933  10.316   6.500   8.602  0.0427 -0.2389  0.1477
  312MOL0     C42934  10.451   6.430   8.635 -0.9078 -0.2997 -0.6856
  312MOL0     N42935  10.571   6.510   8.660 -0.2204 -0.0420  0.4045
  312MOL0     C42936  10.571   6.641   8.631 -0.6860 -0.4530  0.3407
  312MOL0     C42937  10.696   6.680   8.678  0.3102  0.3358  0.4630
  312MOL0     C42938  10.748   6.819   8.685  0.0153  0.2911 -0.0562
  312MOL0     C42939  10.726   6.884   8.822  0.2090  0.2457 -0.0295
  312MOL0     C42940  10.591   6.945   8.854 -0.0871  0.1011  0.2491
  312MOL0     C42941  10.605   7.018   8.982  0.7936  0.7149 -0.0951
  312MOL0     O42942  10.687   7.135   8.965 -0.7228  0.2390  0.4843
  312MOL0     C42943  10.787   7.149   9.060  0.6349 -0.1412 -0.2876
  312MOL0     C42944  10.760   7.132   9.197 -0.5619 -0.4451 -0.2790
  312MOL0     C42945  10.858   7.154   9.295  0.3413  0.5903  0.1000
  312MOL0     C42946  10.816   7.123   9.440 -0.2694  0.4641 -0.2369
  312MOL0     C42947  10.985   7.200   9.248 -0.8082  1.0525  0.9812
  312MOL0     C42948  11.105   7.219   9.334 -0.7578 -0.4445 -0.8024
  312MOL0     O42949  11.225   7.160   9.298 -0.1244 -0.2866  0.1076
  312MOL0     C42950  11.336   7.180   9.379  0.5821 -0.5501  0.7135
  312MOL0     C42951  11.350   7.093   9.483  0.3483 -0.2958  0.2086
  312MOL0     C42952  11.466   7.079   9.551  0.0339 -0.1678 -0.3105
  312MOL0     C42953  11.575   7.169   9.523  0.2749  0.8868 -0.2219
  312MOL0     O42954  11.691   7.140   9.593  1.0493 -1.1311  1.0769
  312MOL0     C42955  11.785   7.247   9.600 -0.2310  0.1430  0.8001
  312MOL0     C42956  11.884   7.232   9.709 -0.5639 -0.2384  0.7284
  312MOL0     C42957  11.963   7.102   9.688  0.0007 -0.4676 -0.1319
  312MOL0     C42958  11.937   6.987   9.776  0.4333 -0.2149 -0.4737
  312MOL0     C42959  12.059   6.893   9.766  0.3314  0.2142  0.0901
  312MOL0     C42960  12.051   6.776   9.855  0.5841 -0.1857 -0.0151
  312MOL0     C42961  12.071   6.818   9.997 -0.2297  1.0304 -0.4776
  312MOL0     C42962  12.044   6.695  10.091 -0.1898  0.3760  0.5512
  312MOL0    Cl42963  12.099   6.727  10.261 -0.0212  0.3860  0.6035
  312MOL0     C42964  11.556   7.271   9.433 -0.3251 -0.0117  0.9297
  312MOL0     C42965  11.433   7.280   9.359 -0.5236 -0.2566 -0.0763
  312MOL0     O42966  11.088   7.292   9.433 -0.2956  0.1872  0.2103
  312MOL0     C42967  11.009   7.218   9.112 -0.1189 -0.7691  0.9791
  312MOL0     C42968  10.915   7.182   9.017  0.5406 -0.1520 -0.2086
  312MOL0     N42969  10.769   6.570   8.713  0.2897  0.7656 -0.3790
  312MOL0     N42970  10.694   6.466   8.705  0.2342  0.6901  0.5279
  312MOL0     C42971   9.303   6.581   8.839  0.0746 -0.1188  0.1788
  312MOL0     C42972   9.167   6.610   8.844  0.2903 -0.0782 -0.3988
  312MOL0     C42973   8.784   6.829   8.931  0.8837 -0.6002 -0.3521
  312MOL0     C42974   8.731   6.900   9.039 -0.4903 -0.4236 -0.1125
  312MOL0     C42975   8.607   6.964   9.030 -1.1444  0.0602 -0.0760
  312MOL0     C42976   8.525   6.948   8.918 -0.1707 -0.5348  0.5295
  312MOL0     O42977   8.414   7.025   8.923  0.0097  0.1839  0.7793
  312MOL0     C42978   8.340   7.036   8.802 -0.3721  0.3985 -0.1233
  312MOL0     C42979   8.198   7.100   8.824  0.8005  0.3164  0.5171
  312MOL0     C42980   8.098   7.037   8.737 -0.5075  0.3318 -0.5425
  312MOL0     C42981   8.125   7.053   8.589 -0.1567 -0.2895  0.6067
  312MOL0     C42982   8.023   6.986   8.510  0.4600 -0.9661 -0.3454
  312MOL0     C42983   7.939   6.924   8.449  0.5555 -1.0177 -0.5732
  312MOL0     C42984   8.569   6.859   8.825 -0.5728  0.0164 -0.1798
  312MOL0     C42985   8.688   6.796   8.825 -0.9777 -0.1851 -0.3863
  312MOL0     C42986   8.713   6.692   8.715 -0.5436 -1.3567 -0.2380
  312MOL0     H42987   9.176   6.937   8.736  1.2909  0.6468  1.1002
  312MOL0     H42988   9.418   6.889   8.730  0.3262  0.4287  0.8819
  312MOL0     H42989   9.652   6.780   8.865 -1.0517  0.0850 -0.4016
  312MOL0     H42990   9.628   6.781   8.691  1.8535  2.0078  0.2789
  312MOL0     H42991   9.786   6.579   8.859  1.2069 -0.7880 -0.7526
  312MOL0     H42992   9.744   6.547   8.694 -0.6432  0.7747  0.5715
  312MOL0     H42993   9.894   6.737   8.614  0.8672 -1.7615 -0.5325
  312MOL0     H42994   9.916   6.776   8.788  1.8472 -1.9828  0.8773
  312MOL0     H42995   9.994   6.536   8.811  4.0119  1.4458  0.7354
  312MOL0     H42996   9.978   6.528   8.632  0.7950 -0.1623 -1.8462
  312MOL0     H42997  10.144   6.747   8.773 -1.3242  1.7772 -2.0215
  312MOL0     H42998  10.151   6.711   8.608 -1.3358 -0.2171 -0.6129
  312MOL0     H42999  10.339   6.640   8.758  0.6581  0.2172 -1.3806
  312MOL0     H43000  10.227   6.502   8.807 -0.3991  2.5780  2.5605
  312MOL0     H43001  10.337   6.571   8.522  2.4917  0.3222  1.1977
  312MOL0     H43002  10.243   6.426   8.568  0.5432 -2.2526  3.0224
  312MOL0     H43003  10.438   6.387   8.735  0.0717  0.7158 -0.0993
  312MOL0     H43004  10.471   6.360   8.554  0.4485  1.2050 -1.7082
  312MOL0     H43005  10.497   6.704   8.582 -1.0157 -2.1487 -1.5082
  312MOL0     H43006  10.696   6.866   8.600 -1.6842 -1.6895 -0.1786
  312MOL0     H43007  10.852   6.818   8.653 -0.8061  0.5597 -3.0392
  312MOL0     H43008  10.756   6.805   8.891 -0.9334 -0.8646 -0.7716
  312MOL0     H43009  10.796   6.968   8.825 -0.7939  1.1027  0.0052
  312MOL0     H43010  10.561   7.008   8.770  2.1468  3.6145  1.8673
  312MOL0     H43011  10.522   6.862   8.872 -1.8961  1.5215  0.1804
  312MOL0     H43012  10.505   7.048   9.016 -0.0538  1.6417 -3.0292
  312MOL0     H43013  10.638   6.949   9.060  1.7395  1.9516  0.6386
  312MOL0     H43014  10.659   7.121   9.235 -0.6289 -1.2114 -0.6629
  312MOL0     H43015  10.730   7.182   9.473  0.2361  0.9429  0.2358
  312MOL0     H43016  10.885   7.155   9.518 -2.3603 -0.0425  1.9672
  312MOL0     H43017  10.801   7.016   9.453  0.1723  0.6094  1.7743
  312MOL0     H43018  11.272   7.021   9.507 -1.5772  1.8128  0.5805
  312MOL0     H43019  11.475   7.004   9.628  2.5694  0.2001 -0.1654
  312MOL0     H43020  11.824   7.270   9.501 -3.0999  0.6148 -0.3228
  312MOL0     H43021  11.721   7.330   9.630 -0.8409 -0.8621  2.4305
  312MOL0     H43022  11.957   7.313   9.702  1.3078 -1.8839 -0.2275
  312MOL0     H43023  11.838   7.241   9.807 -0.6978 -1.1598  0.7582
  312MOL0     H43024  12.067   7.127   9.710 -0.6665  1.5634  1.0469
  312MOL0     H43025  11.968   7.068   9.584  3.1962  0.5133 -0.4123
  312MOL0     H43026  11.849   6.929   9.747 -0.4406 -1.0173  3.2244
  312MOL0     H43027  11.901   7.014   9.876  0.8583 -2.5153  0.3523
  312MOL0     H43028  12.051   6.861   9.662  0.6450  2.3207 -0.6177
  312MOL0     H43029  12.151   6.946   9.795 -1.5167  1.1743  5.1971
  312MOL0     H43030  12.126   6.706   9.818  2.7500  2.0872 -0.2059
  312MOL0     H43031  11.957   6.721   9.850  0.6905 -0.4412  0.6547
  312MOL0     H43032  12.009   6.903  10.026  1.0663  1.9125 -0.2011
  312MOL0     H43033  12.175   6.848  10.015 -0.3667  0.4535  1.4494
  312MOL0     H43034  12.097   6.604  10.061  0.9836  0.5561  1.9579
  312MOL0     H43035  11.938   6.670  10.101  0.2956 -1.2372  2.5027
  312MOL0     H43036  11.633   7.346   9.416  2.0795 -2.5009  0.1338
  312MOL0     H43037  11.424   7.365   9.292 -1.0093  1.1458  1.7058
  312MOL0     H43038  11.108   7.246   9.077 -0.4008 -2.3108 -1.2016
  312MOL0     H43039  10.931   7.202   8.911 -0.1410 -0.6235 -0.4063
  312MOL0     H43040   9.337   6.482   8.866  1.6194  0.4888  0.5654
  312MOL0     H43041   9.103   6.537   8.892  0.8571  0.2974  0.9935
  312MOL0     H43042   8.791   6.915   9.128 -0.7098 -2.1732  0.3785
  312MOL0     H43043   8.575   7.013   9.121  0.3960  0.1095  0.4744
  312MOL0     H43044   8.400   7.092   8.730  0.2998  0.8563  0.7720
  312MOL0     H43045   8.329   6.934   8.765  1.3089  0.2466 -0.2601
  312MOL0     H43046   8.202   7.208   8.809 -0.7566  1.3005  5.3348
  312MOL0     H43047   8.174   7.077   8.928 -0.5817 -1.2476 -0.1017
  312MOL0     H43048   8.083   6.932   8.762  0.5665  0.0138 -1.1577
  312MOL0     H43049   8.001   7.080   8.767 -0.7819 -0.4810 -0.2603
  312MOL0     H43050   8.223   7.018   8.554 -0.6967  1.5539 -3.3008
  312MOL0     H43051   8.119   7.158   8.559 -3.9330 -0.7941 -1.0335
  312MOL0     H43052   7.861   6.864   8.405 -2.7895 -0.1159  3.4872
  312MOL0     H43053   8.508   6.835   8.738  2.4074 -1.5584 -2.0038
  312MOL0     H43054   8.633   6.671   8.643 -1.0632 -0.0416 -0.0695
  312MOL0     H43055   8.796   6.719   8.650 -1.3207 -0.5633 -0.9281
  312MOL0     H43056   8.751   6.601   8.762  1.3642 -0.6992 -0.4253
  313MOL0     O43057  11.330   3.194   4.258  0.1473 -0.6126 -0.3598
  313MOL0     C43058  11.327   3.074   4.263 -0.0753 -0.1697 -0.6054
  313MOL0     O43059  11.437   2.992   4.262  0.1442 -0.4388 -0.3160
  313MOL0     C43060  11.566   3.047   4.267  0.6451 -0.2048 -0.1447
  313MOL0     C43061  11.626   3.104   4.158 -0.5784 -0.1647  0.3632
  313MOL0     C43062  11.766   3.122   4.148  0.4827 -0.4145 -0.3245
  313MOL0     C43063  11.851   3.095   4.256  0.4009  0.6952 -0.2748
  313MOL0     O43064  11.982   3.122   4.252  0.0734 -0.5465 -0.0556
  313MOL0     C43065  12.043   3.174   4.386  0.3629  0.1449 -0.0913
  313MOL0     C43066  12.148   3.270   4.341  0.0083 -0.1337  0.2571
  313MOL0     C43067  12.259   3.221   4.244 -0.2611 -0.2512  0.4739
  313MOL0     C43068  12.331   3.333   4.182 -0.1377 -0.1050 -0.2346
  313MOL0     C43069  12.477   3.353   4.212 -0.0715 -0.5327  0.3084
  313MOL0     C43070  12.469   3.441   4.336  0.2866 -0.2211  0.1099
  313MOL0     C43071  12.615   3.486   4.371  0.0662  0.0681  0.1334
  313MOL0     C43072  12.600   3.600   4.470 -0.4709 -0.1597 -0.0963
  313MOL0     N43073  12.727   3.643   4.527  0.1461  0.4906  0.0815
  313MOL0     C43074  12.809   3.752   4.498 -0.1069 -0.5274  0.7428
  313MOL0     C43075  12.914   3.739   4.585 -0.2025 -0.7773  0.1768
  313MOL0     C43076  13.028   3.834   4.590 -0.0024 -0.7693 -0.2487
  313MOL0     C43077  13.154   3.747   4.622  0.5357  0.2453  0.1849
  313MOL0     C43078  13.278   3.849   4.628 -0.3964  0.5945  0.5238
  313MOL0     C43079  13.411   3.773   4.648 -0.2675  0.3699  0.3966
  313MOL0     O43080  13.406   3.708   4.774  0.0293  0.0674  0.6111
  313MOL0     C43081  13.525   3.665   4.820  0.7352  0.3466 -0.2348
  313MOL0     C43082  13.640   3.639   4.747 -0.3513  0.8215  0.2951
  313MOL0     C43083  13.765   3.606   4.804  0.5110  0.3685 -0.1027
  313MOL0     C43084  13.883   3.585   4.710  0.6373 -0.6032  0.8362
  313MOL0     C43085  13.779   3.596   4.946  1.1013 -0.0748  0.2327
  313MOL0     C43086  13.905   3.576   5.025 -0.2081  0.0141  0.5087
  313MOL0     O43087  14.018   3.519   4.958 -0.3380 -0.3119 -0.4219
  313MOL0     C43088  14.127   3.499   5.037 -1.2763 -1.0250 -0.0399
  313MOL0     C43089  14.127   3.409   5.149  0.0793  1.6029  0.3721
  313MOL0     C43090  14.247   3.381   5.224  0.3171  0.3895 -0.0043
  313MOL0     C43091  14.364   3.459   5.199 -0.4636 -1.0510  0.0764
  313MOL0     O43092  14.475   3.421   5.272  0.2316 -0.2401  0.2303
  313MOL0     C43093  14.599   3.458   5.204  0.3725 -0.4685  0.1538
  313MOL0     C43094  14.714   3.416   5.305  0.3447  0.1735  0.0791
  313MOL0     C43095  14.842   3.432   5.230  0.5795 -0.3504  0.2950
  313MOL0     C43096  14.960   3.417   5.317  0.0647  0.0540  0.0377
  313MOL0     C43097  15.095   3.435   5.249 -0.2624  0.6335 -0.7344
  313MOL0     C43098  15.199   3.397   5.351 -0.8579 -0.6330 -0.3382
  313MOL0     C43099  15.340   3.397   5.285 -0.8852 -0.3547  0.1848
  313MOL0     C43100  15.453   3.352   5.388  0.9805  0.2241  0.7834
  313MOL0    Cl43101  15.588   3.325   5.287  0.0928  0.0645  0.1283
  313MOL0     C43102  14.358   3.564   5.103  0.2596 -0.6670 -0.7186
  313MOL0     C43103  14.249   3.582   5.014 -1.2654  0.2831 -0.1170
  313MOL0     O43104  13.908   3.611   5.147  0.1481  0.0069 -0.5704
  313MOL0     C43105  13.657   3.608   5.018 -0.5600  0.6859  0.7476
  313MOL0     C43106  13.541   3.647   4.961  0.2300  0.0936 -0.2527
  313MOL0     N43107  12.895   3.629   4.665 -0.6812  0.1237 -0.0530
  313MOL0     N43108  12.783   3.575   4.634  0.6758 -0.2531  0.7118
  313MOL0     C43109  11.790   3.037   4.363  0.0805 -0.2354  0.1897
  313MOL0     C43110  11.654   3.007   4.364  0.3512  0.0383 -0.5578
  313MOL0     C43111  11.195   3.007   4.248  0.5537  0.1990 -0.1098
  313MOL0     C43112  11.182   2.901   4.160 -1.0246  0.3682  0.8155
  313MOL0     C43113  11.063   2.836   4.142 -0.3077 -0.3321 -0.1629
  313MOL0     C43114  10.956   2.870   4.216 -0.2088 -0.6191  0.5153
  313MOL0     O43115  10.835   2.809   4.175 -0.6687 -0.8324  0.9727
  313MOL0     C43116  10.762   2.759   4.286 -0.1429  0.4765 -0.5306
  313MOL0     C43117  10.615   2.737   4.234 -0.1250 -0.2566 -0.5554
  313MOL0     C43118  10.609   2.618   4.142 -0.6705  0.2804 -0.5217
  313MOL0     C43119  10.478   2.591   4.073  0.2355 -1.0276 -0.5550
  313MOL0     C43120  10.425   2.702   3.992 -0.3142  0.4436  0.3945
  313MOL0     C43121  10.375   2.785   3.913 -0.4033  0.0762  0.1734
  313MOL0     C43122  10.971   2.968   4.315  0.4338 -0.0135 -0.5897
  313MOL0     C43123  11.088   3.033   4.335 -0.9796  0.0645 -0.4347
  313MOL0     C43124  11.097   3.143   4.444  0.5852 -0.1589  0.9074
  313MOL0     H43125  11.571   3.139   4.071 -0.4208  1.2735  0.8278
  313MOL0     H43126  11.813   3.167   4.062 -0.0356 -0.9296 -0.8890
  313MOL0     H43127  12.071   3.089   4.449 -0.9462  0.0885  0.4391
  313MOL0     H43128  11.977   3.235   4.448  1.8699  0.7824  0.9534
  313MOL0     H43129  12.098   3.354   4.291 -1.3180 -0.6941  0.6038
  313MOL0     H43130  12.204   3.320   4.421 -0.5381  0.9485 -0.0181
  313MOL0     H43131  12.325   3.159   4.305  0.4406 -0.3211 -0.3417
  313MOL0     H43132  12.221   3.163   4.160 -1.2771 -1.1433  1.5117
  313MOL0     H43133  12.324   3.317   4.074 -0.5790 -1.1160 -0.0678
  313MOL0     H43134  12.275   3.425   4.201  1.3573  0.9344 -0.6912
  313MOL0     H43135  12.511   3.395   4.116 -3.3139 -0.2009 -0.8079
  313MOL0     H43136  12.528   3.258   4.232 -1.2048 -1.8153 -2.3151
  313MOL0     H43137  12.416   3.533   4.311  1.5757  0.3940 -0.4330
  313MOL0     H43138  12.423   3.393   4.423  0.3223 -1.2934 -0.4369
  313MOL0     H43139  12.654   3.527   4.277  1.1682 -1.7967 -0.2679
  313MOL0     H43140  12.671   3.398   4.404  1.3732  0.6594 -0.4148
  313MOL0     H43141  12.544   3.682   4.423  0.2452 -0.6689 -1.9166
  313MOL0     H43142  12.532   3.579   4.553  0.6390  1.4176  1.2831
  313MOL0     H43143  12.787   3.830   4.425 -0.2350 -1.2269  0.0106
  313MOL0     H43144  13.008   3.892   4.681 -0.1895 -2.3296  0.7419
  313MOL0     H43145  13.037   3.901   4.504  1.0913  0.2466  0.6245
  313MOL0     H43146  13.146   3.703   4.721  3.7173  2.2836  1.4965
  313MOL0     H43147  13.169   3.665   4.550  2.5075  1.6887 -1.1650
  313MOL0     H43148  13.292   3.902   4.533  5.0598  1.1792  1.3104
  313MOL0     H43149  13.270   3.920   4.711  5.2747  1.2363  0.9251
  313MOL0     H43150  13.436   3.723   4.555  1.5300  1.5826  0.1776
  313MOL0     H43151  13.492   3.846   4.658 -0.0370  0.0303  1.1402
  313MOL0     H43152  13.635   3.652   4.639  1.4359  0.3477  0.1274
  313MOL0     H43153  13.912   3.479   4.718  0.2828 -0.6564  1.6201
  313MOL0     H43154  13.963   3.659   4.718 -1.2647  1.5650  0.7698
  313MOL0     H43155  13.845   3.598   4.609  2.6830 -1.1471 -0.0385
  313MOL0     H43156  14.037   3.358   5.180 -0.0142  0.5933 -1.4018
  313MOL0     H43157  14.251   3.307   5.304  1.9925 -0.3737 -0.7481
  313MOL0     H43158  14.604   3.422   5.101 -1.6577  0.6826 -0.4180
  313MOL0     H43159  14.604   3.568   5.203 -0.6906 -0.4146 -0.4167
  313MOL0     H43160  14.705   3.487   5.387 -1.3838  0.8750 -0.6646
  313MOL0     H43161  14.713   3.312   5.340 -0.0909 -0.1643 -0.8794
  313MOL0     H43162  14.842   3.532   5.187 -0.1409  1.1812  3.5604
  313MOL0     H43163  14.843   3.363   5.145 -0.5442  0.9760 -0.8296
  313MOL0     H43164  14.951   3.321   5.368  0.1968 -0.3380 -0.6682
  313MOL0     H43165  14.957   3.495   5.394 -2.5433 -0.1068  0.1983
  313MOL0     H43166  15.099   3.366   5.164  0.7236 -0.9313  0.5198
  313MOL0     H43167  15.111   3.536   5.211  0.9066  0.0776 -1.8384
  313MOL0     H43168  15.171   3.300   5.393 -1.2812  0.8820  3.3050
  313MOL0     H43169  15.194   3.470   5.433 -3.1061 -0.6014 -0.4424
  313MOL0     H43170  15.358   3.498   5.249 -1.1047  0.2426  1.6892
  313MOL0     H43171  15.339   3.323   5.204 -1.1430 -0.0088 -0.1265
  313MOL0     H43172  15.417   3.262   5.439  0.6974  0.4843  1.0514
  313MOL0     H43173  15.469   3.430   5.463 -1.2024 -0.6238  2.2614
  313MOL0     H43174  14.443   3.630   5.089  1.9630 -1.7954  3.1371
  313MOL0     H43175  14.247   3.660   4.938 -1.4936 -0.3026 -0.7293
  313MOL0     H43176  13.653   3.595   5.125 -2.8691 -0.5640  0.5615
  313MOL0     H43177  13.453   3.645   5.025  1.0588 -0.1986  0.9064
  313MOL0     H43178  11.856   3.005   4.443  0.8319 -1.8305 -1.0298
  313MOL0     H43179  11.616   2.950   4.449 -0.2683  0.8703 -0.2605
  313MOL0     H43180  11.272   2.869   4.108  0.6495  4.5834  0.7263
  313MOL0     H43181  11.058   2.760   4.064 -0.7480 -0.2254 -0.2461
  313MOL0     H43182  10.804   2.669   4.331 -0.8846  0.6318  0.4909
  313MOL0     H43183  10.759   2.831   4.368  1.3132  1.6265 -1.4309
  313MOL0     H43184  10.576   2.828   4.187 -4.1037  0.6909  3.8453
  313MOL0     H43185  10.544   2.719   4.315 -0.9072 -2.1576 -1.5689
  313MOL0     H43186  10.684   2.640   4.065  1.1040  0.7465  1.2276
  313MOL0     H43187  10.640   2.526   4.193  1.8912 -0.6753 -3.4697
  313MOL0     H43188  10.419   2.571   4.162  3.0284 -1.7320  1.2697
  313MOL0     H43189  10.478   2.499   4.014 -0.9274 -0.9382 -0.7050
  313MOL0     H43190  10.343   2.847   3.831  1.4704 -0.1943 -0.8275
  313MOL0     H43191  10.882   2.983   4.376  0.2548 -1.5430 -0.4348
  313MOL0     H43192  11.102   3.243   4.400 -0.4593  0.7427  2.7507
  313MOL0     H43193  11.004   3.146   4.502 -0.9736  2.4355 -1.5031
  313MOL0     H43194  11.182   3.113   4.506  0.6906 -0.4614  0.6242
  314MOL0     O43195   1.608  10.770   7.506 -0.5693 -0.4533  0.1923
  314MOL0     C43196   1.521  10.766   7.422 -0.5442  0.0302  0.4391
  314MOL0     O43197   1.544  10.790   7.294  0.5602 -0.0487 -0.5143
  314MOL0     C43198   1.668  10.820   7.249 -0.4556 -0.3218  0.1356
  314MOL0     C43199   1.744  10.714   7.208 -0.1115 -0.0630 -0.6556
  314MOL0     C43200   1.860  10.725   7.141 -0.7707  0.4249 -0.4380
  314MOL0     C43201   1.904  10.857   7.120  0.5825  0.2124 -0.3115
  314MOL0     O43202   2.022  10.875   7.058 -0.2030  0.2568 -0.5807
  314MOL0     C43203   2.143  10.818   7.116  0.9543 -0.0855  0.4103
  314MOL0     C43204   2.254  10.861   7.027 -0.3190 -0.1936 -0.3297
  314MOL0     C43205   2.377  10.790   7.085  0.7520 -0.1508 -0.1497
  314MOL0     C43206   2.510  10.832   7.023  0.0490 -0.0623 -0.4116
  314MOL0     C43207   2.559  10.727   6.921  0.1219  0.7784  0.1143
  314MOL0     C43208   2.700  10.750   6.864  1.2954 -0.1043 -0.0914
  314MOL0     C43209   2.737  10.625   6.781  0.1918 -0.4479  0.3367
  314MOL0     C43210   2.862  10.656   6.707 -0.5737  0.9616 -0.6574
  314MOL0     N43211   2.967  10.539   6.712 -0.3685 -0.0968 -0.0104
  314MOL0     C43212   2.948  10.401   6.692  0.4796 -0.1852  0.0061
  314MOL0     C43213   3.066  10.352   6.728 -0.1414  0.2059  0.3519
  314MOL0     C43214   3.093  10.204   6.736 -0.7858 -0.2630  0.2271
  314MOL0     C43215   3.231  10.167   6.681  0.5642 -0.2334  0.1057
  314MOL0     C43216   3.261  10.022   6.719  0.5169  0.1769  0.5314
  314MOL0     C43217   3.392   9.984   6.659  0.6059  0.3761 -0.8800
  314MOL0     O43218   3.500  10.048   6.726 -0.0901  0.0244 -0.2124
  314MOL0     C43219   3.628  10.024   6.689  0.5898  0.2108  0.1678
  314MOL0     C43220   3.727  10.114   6.728 -0.6551  0.8000 -0.1177
  314MOL0     C43221   3.863  10.098   6.712  0.4363  0.4931  0.1494
  314MOL0     C43222   3.954  10.212   6.737  0.3276  0.6697 -0.3262
  314MOL0     C43223   3.911   9.972   6.666  0.0884  0.7958  0.5887
  314MOL0     C43224   4.053   9.940   6.645  0.1178  0.4600 -0.9878
  314MOL0     O43225   4.145  10.010   6.715  0.0884 -0.2235  0.8228
  314MOL0     C43226   4.293  10.000   6.710  0.2487 -0.2392  0.3778
  314MOL0     C43227   4.363  10.078   6.809 -0.1550 -0.6020  0.6443
  314MOL0     C43228   4.504  10.067   6.823 -0.3370 -0.4378  0.8058
  314MOL0     C43229   4.573   9.982   6.735  0.0897 -0.0784 -0.7476
  314MOL0     O43230   4.714   9.967   6.727  0.2921  0.4242  0.4877
  314MOL0     C43231   4.804  10.058   6.797  0.4789 -0.2821 -0.4851
  314MOL0     C43232   4.936  10.002   6.782 -0.5384  0.3306  0.4647
  314MOL0     C43233   4.978   9.911   6.892 -0.0954  0.6125  0.1622
  314MOL0     C43234   5.113   9.853   6.862  0.3956  0.0870 -0.7967
  314MOL0     C43235   5.167   9.784   6.992 -0.4153 -0.9010  0.1545
  314MOL0     C43236   5.257   9.659   6.964  0.5789  0.4808 -0.5552
  314MOL0     C43237   5.316   9.596   7.091  0.9229 -1.0435 -0.0496
  314MOL0     C43238   5.221   9.522   7.194 -0.5609 -0.5706  0.0377
  314MOL0    Cl43239   5.322   9.460   7.326  0.0822  0.0530 -0.1845
  314MOL0     C43240   4.497   9.904   6.642 -0.0360  0.0770  0.6233
  314MOL0     C43241   4.361   9.917   6.624  0.6707  0.1638  0.0021
  314MOL0     O43242   4.077   9.849   6.568  0.4833  0.2087  0.0271
  314MOL0     C43243   3.811   9.877   6.620  0.7798  0.4978  0.2737
  314MOL0     C43244   3.676   9.907   6.633 -0.7419 -0.1423 -0.4641
  314MOL0     N43245   3.147  10.447   6.771  0.3737 -0.3829 -0.7642
  314MOL0     N43246   3.091  10.563   6.762 -0.2011  0.5573 -0.1076
  314MOL0     C43247   1.827  10.970   7.160 -0.2039  0.1572 -0.0385
  314MOL0     C43248   1.708  10.951   7.227  0.1884  0.9197 -0.3853
  314MOL0     C43249   1.376  10.745   7.469  0.0944  0.0229  0.2456
  314MOL0     C43250   1.278  10.786   7.383  1.3207 -0.2740  0.6096
  314MOL0     C43251   1.141  10.774   7.417 -0.1515  0.5358 -0.0636
  314MOL0     C43252   1.104  10.723   7.542  0.2352  0.8489  0.2595
  314MOL0     O43253   0.973  10.715   7.590 -0.2864  0.1763 -0.4599
  314MOL0     C43254   0.866  10.737   7.499  0.2467  0.1002  0.2327
  314MOL0     C43255   0.720  10.725   7.555 -0.6310  1.1094 -0.3689
  314MOL0     C43256   0.683  10.801   7.675 -0.1202 -0.1091  0.5546
  314MOL0     C43257   0.530  10.778   7.695  0.2203  0.0431  0.0979
  314MOL0     C43258   0.486  10.882   7.791 -0.2487 -0.4221  0.7925
  314MOL0     C43259   0.431  10.967   7.864 -0.0712 -0.5851 -0.1678
  314MOL0     C43260   1.200  10.687   7.632 -0.2626 -0.3153  0.2033
  314MOL0     C43261   1.338  10.700   7.600  0.2835  0.2834 -0.0267
  314MOL0     C43262   1.432  10.666   7.707 -0.6946 -0.5553  0.4760
  314MOL0     H43263   1.706  10.615   7.228  3.8543 -2.2813 -2.7818
  314MOL0     H43264   1.929  10.647   7.109 -0.5472  1.6305 -3.1428
  314MOL0     H43265   2.133  10.709   7.109 -0.8689  0.0821 -0.0169
  314MOL0     H43266   2.160  10.857   7.217 -0.4546  2.3350 -0.2115
  314MOL0     H43267   2.238  10.832   6.922 -0.1385  1.5370 -0.8667
  314MOL0     H43268   2.272  10.968   7.036  0.7048 -0.4995  2.0158
  314MOL0     H43269   2.378  10.818   7.191 -3.5399 -1.3983  0.3731
  314MOL0     H43270   2.376  10.681   7.083  3.1780 -0.2441  0.0329
  314MOL0     H43271   2.492  10.929   6.977 -1.2403 -1.3901 -2.9504
  314MOL0     H43272   2.587  10.835   7.100  1.4668 -3.3561 -1.5168
  314MOL0     H43273   2.487  10.710   6.840  0.5494 -4.4356  0.4840
  314MOL0     H43274   2.549  10.627   6.966 -2.8394  0.5239 -0.8637
  314MOL0     H43275   2.704  10.847   6.814 -0.9416 -0.0470 -0.2501
  314MOL0     H43276   2.777  10.759   6.941  1.6379 -0.0635 -0.4354
  314MOL0     H43277   2.662  10.592   6.709  0.4266 -0.4262  0.0821
  314MOL0     H43278   2.754  10.532   6.835  0.0794 -2.0211 -2.1816
  314MOL0     H43279   2.830  10.685   6.606 -0.8335  1.4603 -0.4327
  314MOL0     H43280   2.924  10.739   6.743  0.3931 -0.5876  1.4021
  314MOL0     H43281   2.857  10.349   6.662 -1.0299  1.7538  1.0236
  314MOL0     H43282   3.017  10.156   6.674 -2.5787 -2.1225  3.5991
  314MOL0     H43283   3.082  10.172   6.840 -1.3599 -1.5420 -0.2011
  314MOL0     H43284   3.224  10.178   6.573  1.3894  0.1475  0.0841
  314MOL0     H43285   3.307  10.239   6.714  1.6325 -2.4285  2.8620
  314MOL0     H43286   3.268  10.008   6.827  0.2941 -1.6533  0.3293
  314MOL0     H43287   3.177   9.961   6.685  0.6839  0.9169 -1.3760
  314MOL0     H43288   3.408   9.876   6.668  1.9412  0.6890  1.0136
  314MOL0     H43289   3.395  10.009   6.553 -1.5631 -0.6858 -1.2688
  314MOL0     H43290   3.678  10.204   6.764 -2.6761 -0.0079 -0.7390
  314MOL0     H43291   4.007  10.182   6.828  2.2044 -0.6488 -1.7715
  314MOL0     H43292   3.899  10.306   6.744  1.8893  1.5385  1.3721
  314MOL0     H43293   4.013  10.216   6.644 -0.9754  1.4547 -1.1479
  314MOL0     H43294   4.310  10.130   6.889 -0.0033  1.3096 -0.4241
  314MOL0     H43295   4.555  10.121   6.902  1.6913  0.5901 -1.0984
  314MOL0     H43296   4.801  10.159   6.755  0.7978  0.8909  2.1017
  314MOL0     H43297   4.778  10.071   6.902 -1.1010 -0.2213 -0.8567
  314MOL0     H43298   4.952   9.946   6.689 -0.9182  1.5744 -0.3787
  314MOL0     H43299   5.005  10.087   6.778 -2.5259  2.0461  0.7644
  314MOL0     H43300   4.916   9.823   6.913 -0.0641  0.1407 -1.5551
  314MOL0     H43301   4.978   9.971   6.983 -0.9776 -0.6486  1.0311
  314MOL0     H43302   5.194   9.922   6.837  2.2872 -1.4360  0.7727
  314MOL0     H43303   5.094   9.787   6.777 -2.3313  0.6845 -0.7329
  314MOL0     H43304   5.227   9.865   7.034 -1.0850 -1.0435  1.4026
  314MOL0     H43305   5.090   9.751   7.062  1.0039 -3.9752  0.4314
  314MOL0     H43306   5.344   9.696   6.909  1.1946 -2.7738 -2.0228
  314MOL0     H43307   5.206   9.580   6.908 -0.4554  0.4423  0.4220
  314MOL0     H43308   5.348   9.683   7.150 -2.6310 -0.9305  1.9843
  314MOL0     H43309   5.393   9.523   7.061 -0.6104 -1.8461 -2.2958
  314MOL0     H43310   5.168   9.442   7.139 -3.1274  0.1001  1.4009
  314MOL0     H43311   5.142   9.588   7.230 -1.3219 -1.3440 -0.1680
  314MOL0     H43312   4.554   9.840   6.574  1.3225  2.3308 -0.4619
  314MOL0     H43313   4.320   9.855   6.544 -1.8440  1.5209  0.1518
  314MOL0     H43314   3.840   9.783   6.573 -2.1571 -0.3532 -0.0395
  314MOL0     H43315   3.612   9.827   6.600 -0.9122 -0.5301  0.7378
  314MOL0     H43316   1.876  11.067   7.166 -2.5369  1.3275  2.0651
  314MOL0     H43317   1.653  11.035   7.268  2.9026  2.5581  0.1830
  314MOL0     H43318   1.295  10.823   7.282 -0.1044 -2.8297 -0.6764
  314MOL0     H43319   1.066  10.816   7.351 -0.4333  1.3032  0.7190
  314MOL0     H43320   0.870  10.835   7.449 -1.0912 -0.6419 -1.4334
  314MOL0     H43321   0.868  10.666   7.415  1.1667 -0.8538  1.0400
  314MOL0     H43322   0.701  10.624   7.591  0.2333  1.0311 -0.1256
  314MOL0     H43323   0.648  10.741   7.474  0.1373 -0.3551 -1.3972
  314MOL0     H43324   0.742  10.769   7.761 -0.9828  0.2784  1.2982
  314MOL0     H43325   0.706  10.907   7.663  0.5438  0.0559  2.8945
  314MOL0     H43326   0.522  10.676   7.732 -1.5742 -0.3002 -1.1373
  314MOL0     H43327   0.477  10.779   7.600 -1.1528 -0.4531  0.8297
  314MOL0     H43328   0.393  11.047   7.925  1.6206 -0.8127  1.2877
  314MOL0     H43329   1.170  10.646   7.728  0.8121 -1.1261  0.2071
  314MOL0     H43330   1.388  10.651   7.806  2.5452  2.6472  2.6744
  314MOL0     H43331   1.507  10.591   7.681  1.1377  1.6964 -1.2136
  314MOL0     H43332   1.499  10.752   7.719 -1.4256  0.0314  0.3960
  315MOL0     O43333   5.271   4.913   4.762  0.2713 -0.8054 -0.5225
  315MOL0     C43334   5.193   4.819   4.741  0.2660  0.7166  0.3126
  315MOL0     O43335   5.228   4.685   4.730 -0.2642  0.5891 -0.1359
  315MOL0     C43336   5.360   4.665   4.728 -0.2601 -0.4248 -0.3956
  315MOL0     C43337   5.440   4.703   4.624 -0.2157  0.6251 -0.6201
  315MOL0     C43338   5.575   4.672   4.613 -0.2811 -0.5594 -0.6718
  315MOL0     C43339   5.648   4.609   4.721  0.2544 -0.3908 -0.4078
  315MOL0     O43340   5.786   4.588   4.726  0.4794 -0.0716 -0.0411
  315MOL0     C43341   5.854   4.630   4.602  0.8454  0.2412 -0.1069
  315MOL0     C43342   6.002   4.623   4.629  0.0075 -0.6107 -0.0030
  315MOL0     C43343   6.082   4.492   4.645 -0.1120  0.8302 -0.0468
  315MOL0     C43344   6.143   4.433   4.519  1.0738 -0.0197 -0.5205
  315MOL0     C43345   6.236   4.318   4.546  0.6354  0.2215 -0.2251
  315MOL0     C43346   6.378   4.364   4.551  0.4814  0.1898  0.2294
  315MOL0     C43347   6.475   4.249   4.582  0.0208  0.8406  0.3452
  315MOL0     C43348   6.500   4.165   4.463 -0.5303  1.3436 -0.2803
  315MOL0     N43349   6.611   4.068   4.496  0.7758 -1.2286 -0.0164
  315MOL0     C43350   6.723   4.056   4.420 -0.8503 -1.3042 -0.4122
  315MOL0     C43351   6.795   3.958   4.487  0.0514 -1.0092  1.0319
  315MOL0     C43352   6.927   3.901   4.434  0.2042 -0.2449  0.6810
  315MOL0     C43353   7.034   3.873   4.542 -0.8161  0.2106  0.7606
  315MOL0     C43354   7.181   3.854   4.497 -0.3755 -0.1197 -0.3524
  315MOL0     C43355   7.206   3.750   4.385  0.2738 -0.6414 -0.0986
  315MOL0     O43356   7.163   3.634   4.451 -0.4329 -0.2069  0.4925
  315MOL0     C43357   7.209   3.520   4.397 -0.2496 -0.0577  0.5377
  315MOL0     C43358   7.215   3.407   4.478 -0.1894 -0.7001 -0.1817
  315MOL0     C43359   7.272   3.293   4.438  0.3833 -1.3392  0.4855
  315MOL0     C43360   7.285   3.175   4.536  0.3397 -0.1927  0.7476
  315MOL0     C43361   7.337   3.286   4.312 -0.1194 -0.5098 -0.2399
  315MOL0     C43362   7.414   3.176   4.267 -0.3502 -0.1977  0.8848
  315MOL0     O43363   7.529   3.147   4.337  0.9003  0.0703 -0.3925
  315MOL0     C43364   7.634   3.089   4.281 -0.4357 -1.0259 -0.1076
  315MOL0     C43365   7.695   3.136   4.162  0.9878  0.8666 -0.8874
  315MOL0     C43366   7.806   3.071   4.109  0.9850 -0.2733 -0.0897
  315MOL0     C43367   7.862   2.965   4.166  0.6007  0.4609 -0.4213
  315MOL0     O43368   7.970   2.893   4.113 -0.1598 -0.0555 -0.2212
  315MOL0     C43369   8.007   2.910   3.976 -0.9316 -0.4392  0.8737
  315MOL0     C43370   8.119   2.809   3.957  0.3332  0.1946 -0.3246
  315MOL0     C43371   8.176   2.806   3.817 -0.2679 -0.6580  0.6342
  315MOL0     C43372   8.284   2.709   3.793  0.2667  0.3337 -0.5036
  315MOL0     C43373   8.323   2.690   3.649 -0.9273  0.3305  0.5518
  315MOL0     C43374   8.410   2.801   3.587  0.1575  0.3957 -0.1969
  315MOL0     C43375   8.552   2.801   3.650 -0.3077  0.4493  0.1646
  315MOL0     C43376   8.663   2.887   3.586 -0.6050  0.6263  0.8725
  315MOL0    Cl43377   8.823   2.855   3.656  0.0560 -0.0283  0.0427
  315MOL0     C43378   7.798   2.915   4.278  0.0189  0.3917 -0.5456
  315MOL0     C43379   7.690   2.975   4.340  0.7308  0.5459  0.1027
  315MOL0     O43380   7.392   3.134   4.150  0.3594 -0.4595  0.1881
  315MOL0     C43381   7.321   3.386   4.221  0.1552 -1.2395  0.3807
  315MOL0     C43382   7.247   3.505   4.266  0.0140  0.6489 -0.5483
  315MOL0     N43383   6.725   3.916   4.603  0.5981  0.1769 -0.8079
  315MOL0     N43384   6.615   3.981   4.601  0.5682 -0.2036  0.1340
  315MOL0     C43385   5.563   4.581   4.835  0.4294  0.6609 -0.1952
  315MOL0     C43386   5.423   4.607   4.836  1.2079  0.2402 -0.4694
  315MOL0     C43387   5.041   4.842   4.741 -0.0501  0.4102  0.0519
  315MOL0     C43388   4.964   4.720   4.756 -0.0292 -0.1768 -0.5966
  315MOL0     C43389   4.832   4.734   4.736  0.8023  0.9554  0.5559
  315MOL0     C43390   4.767   4.848   4.701 -0.2485 -0.6243  0.8266
  315MOL0     O43391   4.628   4.855   4.685 -0.3558 -0.4934 -0.0998
  315MOL0     C43392   4.587   4.967   4.613  0.0066 -0.3340  0.6876
  315MOL0     C43393   4.447   4.942   4.556  0.1087  0.4558  0.3368
  315MOL0     C43394   4.374   5.076   4.527 -0.4588  0.1913  0.5825
  315MOL0     C43395   4.236   5.051   4.469  0.5089  0.2011  0.2750
  315MOL0     C43396   4.163   5.177   4.459 -0.1885  0.2391 -0.2294
  315MOL0     C43397   4.091   5.277   4.465  0.5171  0.1665 -0.1900
  315MOL0     C43398   4.846   4.971   4.701  1.0886  0.7080 -0.5929
  315MOL0     C43399   4.981   4.970   4.726 -0.4282  0.8694  0.9584
  315MOL0     C43400   5.052   5.101   4.729  0.1097 -0.2346  0.6960
  315MOL0     H43401   5.394   4.748   4.536 -2.6514  1.3424  0.9367
  315MOL0     H43402   5.629   4.706   4.525  0.7689  1.5384  0.6980
  315MOL0     H43403   5.826   4.731   4.572  0.6452  0.1468 -0.2458
  315MOL0     H43404   5.831   4.551   4.529  4.0891  1.4448 -2.7338
  315MOL0     H43405   6.051   4.684   4.552  1.1432 -0.8490  0.5021
  315MOL0     H43406   6.016   4.666   4.728 -0.0571 -2.6140  0.9354
  315MOL0     H43407   6.161   4.494   4.721  0.9770 -2.9740 -0.8710
  315MOL0     H43408   6.013   4.417   4.684 -0.4154  0.4446 -1.2788
  315MOL0     H43409   6.058   4.396   4.461  0.7636 -0.4621  0.1945
  315MOL0     H43410   6.188   4.514   4.462  0.2162 -0.0279 -1.2491
  315MOL0     H43411   6.228   4.241   4.468 -1.9964  2.7622 -2.7397
  315MOL0     H43412   6.228   4.269   4.643  4.2995  1.8697  1.0804
  315MOL0     H43413   6.394   4.414   4.456 -2.1566  1.0884  0.1734
  315MOL0     H43414   6.390   4.444   4.624 -1.6830 -0.2485  1.1591
  315MOL0     H43415   6.437   4.196   4.670 -0.4077  2.7663  1.3784
  315MOL0     H43416   6.579   4.278   4.599  0.8130 -1.3205 -0.4263
  315MOL0     H43417   6.419   4.100   4.428  0.7196 -0.6695  0.3367
  315MOL0     H43418   6.543   4.236   4.392 -1.8574  0.6855 -1.8118
  315MOL0     H43419   6.758   4.101   4.327  3.2317 -0.7204  1.1923
  315MOL0     H43420   6.962   3.983   4.371 -1.8934 -0.1046 -0.3691
  315MOL0     H43421   6.916   3.811   4.373  0.1760 -1.0160  1.7781
  315MOL0     H43422   7.048   3.961   4.606 -0.4247 -0.5359  1.7243
  315MOL0     H43423   6.999   3.795   4.610 -2.1133  1.7424  1.9544
  315MOL0     H43424   7.220   3.950   4.462  2.4368 -1.0169  0.1421
  315MOL0     H43425   7.237   3.823   4.585 -2.1337 -0.4875  0.7029
  315MOL0     H43426   7.147   3.767   4.294  1.1799 -1.3031 -0.8335
  315MOL0     H43427   7.313   3.754   4.365  0.1071  0.0573 -0.9333
  315MOL0     H43428   7.194   3.424   4.583 -1.0769  0.2796 -0.4994
  315MOL0     H43429   7.208   3.189   4.612  0.8480  1.0283  1.0601
  315MOL0     H43430   7.385   3.166   4.581 -0.1093 -3.1008  1.3812
  315MOL0     H43431   7.264   3.083   4.481 -1.5155  2.1145 -2.7211
  315MOL0     H43432   7.660   3.232   4.128  0.2269  0.7405 -0.4819
  315MOL0     H43433   7.854   3.114   4.022 -1.0425  0.6816 -0.8132
  315MOL0     H43434   7.928   2.899   3.900  0.0606  3.4117 -0.9956
  315MOL0     H43435   8.048   3.010   3.957 -1.1844  0.1391  3.0806
  315MOL0     H43436   8.205   2.834   4.019  1.3608 -0.6597 -1.3467
  315MOL0     H43437   8.083   2.712   3.992 -2.5345  1.3718  0.2368
  315MOL0     H43438   8.213   2.908   3.798  0.7473 -0.9532  0.9551
  315MOL0     H43439   8.094   2.781   3.748 -1.9350 -0.4367  2.4580
  315MOL0     H43440   8.246   2.610   3.819 -0.5736  1.0928  1.2857
  315MOL0     H43441   8.365   2.728   3.864  1.4855 -3.9091 -0.4782
  315MOL0     H43442   8.379   2.597   3.642  1.5606  1.6883  1.1393
  315MOL0     H43443   8.233   2.683   3.587 -0.7962  0.5786  0.3299
  315MOL0     H43444   8.361   2.898   3.600 -0.4589 -0.1086  1.5049
  315MOL0     H43445   8.426   2.777   3.482 -1.0989 -1.1711 -0.0632
  315MOL0     H43446   8.581   2.696   3.652 -1.2303  0.1827  1.2885
  315MOL0     H43447   8.547   2.844   3.751 -0.0593 -3.0192  1.7998
  315MOL0     H43448   8.633   2.991   3.606 -1.6836  0.1522  1.8424
  315MOL0     H43449   8.664   2.866   3.478 -1.3899  1.2426  0.7361
  315MOL0     H43450   7.839   2.829   4.331  0.2114 -0.0544 -1.3967
  315MOL0     H43451   7.649   2.929   4.429  1.3505 -0.3925 -0.0842
  315MOL0     H43452   7.341   3.384   4.114 -1.6719  0.2373 -0.0423
  315MOL0     H43453   7.243   3.596   4.206  2.7184  1.0614 -0.2360
  315MOL0     H43454   5.610   4.544   4.925 -3.1994 -2.1217  0.7750
  315MOL0     H43455   5.367   4.592   4.928  1.3334 -0.3163 -0.4781
  315MOL0     H43456   5.011   4.628   4.790  0.9471  0.1413 -1.0510
  315MOL0     H43457   4.778   4.642   4.758 -0.6541  1.3720 -1.0438
  315MOL0     H43458   4.577   5.056   4.676  0.1885  2.0022 -2.3568
  315MOL0     H43459   4.651   4.987   4.527  2.5036 -2.0044  2.0092
  315MOL0     H43460   4.389   4.889   4.633  2.8294 -1.8911  0.9490
  315MOL0     H43461   4.439   4.882   4.466  1.7024  1.8370 -0.8010
  315MOL0     H43462   4.372   5.149   4.609 -2.4105  1.6637 -0.6811
  315MOL0     H43463   4.422   5.123   4.440  1.1602 -3.1063 -0.4606
  315MOL0     H43464   4.177   4.993   4.540  1.9732  1.5185  2.7024
  315MOL0     H43465   4.241   4.995   4.375  0.0323 -1.4108  1.1806
  315MOL0     H43466   4.042   5.372   4.456  2.7487  1.2358 -2.0942
  315MOL0     H43467   4.804   5.066   4.670  0.3066 -0.6212 -4.1631
  315MOL0     H43468   5.097   5.104   4.828 -2.4529 -0.9855  1.9637
  315MOL0     H43469   5.134   5.095   4.657  0.2123 -0.6250  0.8429
  315MOL0     H43470   4.990   5.190   4.714  0.9713  0.2646  0.0091
  316MOL0     O43471   2.121   8.905   3.838  0.0739 -0.2015  0.2487
  316MOL0     C43472   2.170   8.842   3.933 -0.5735  0.1928  0.1158
  316MOL0     O43473   2.111   8.747   4.003  0.1243 -0.0689  0.1177
  316MOL0     C43474   1.971   8.734   3.995  0.2343  0.4404 -0.1337
  316MOL0     C43475   1.912   8.611   4.036 -1.0113  0.6725 -0.1476
  316MOL0     C43476   1.774   8.598   4.028  0.3484  0.1349 -1.0754
  316MOL0     C43477   1.682   8.699   4.009  0.4285 -0.5512 -0.1377
  316MOL0     O43478   1.547   8.688   4.008 -0.3853 -0.0156  0.5569
  316MOL0     C43479   1.484   8.564   4.011 -0.0601  0.4285 -0.4566
  316MOL0     C43480   1.350   8.563   3.940 -0.6982 -0.5076  0.3505
  316MOL0     C43481   1.234   8.622   4.027 -0.3865 -0.0703  0.1101
  316MOL0     C43482   1.100   8.571   3.990 -0.0144  0.0064 -0.4056
  316MOL0     C43483   0.977   8.657   4.036 -0.0841  0.3796  0.8815
  316MOL0     C43484   0.852   8.585   3.992  0.4963  0.2180 -0.5146
  316MOL0     C43485   0.726   8.638   4.078  0.3151  0.9348 -0.2638
  316MOL0     C43486   0.606   8.549   4.053  0.0635 -0.4328 -0.0550
  316MOL0     N43487   0.540   8.577   3.931 -0.1836 -0.8944 -0.3546
  316MOL0     C43488   0.595   8.566   3.802 -0.2531  1.1639 -0.2584
  316MOL0     C43489   0.499   8.619   3.724  0.9704 -0.4596  0.4292
  316MOL0     C43490   0.512   8.654   3.577 -0.2443 -0.4509 -0.6316
  316MOL0     C43491   0.464   8.534   3.491  0.1730  0.3745  0.0179
  316MOL0     C43492   0.576   8.422   3.472 -0.7812 -0.3356 -0.5718
  316MOL0     C43493   0.652   8.453   3.341 -0.1817  0.7108 -0.2398
  316MOL0     O43494   0.745   8.339   3.317 -1.0445  0.7708 -0.2668
  316MOL0     C43495   0.840   8.348   3.217 -0.4429 -0.2308  0.5286
  316MOL0     C43496   0.952   8.264   3.222  0.2713  0.0900 -0.9112
  316MOL0     C43497   1.047   8.262   3.126 -0.3974  0.1017  0.4071
  316MOL0     C43498   1.169   8.167   3.151 -0.3719  0.4112  0.3224
  316MOL0     C43499   1.032   8.349   3.011  0.1274  0.3094 -0.1683
  316MOL0     C43500   1.134   8.353   2.897  0.3046 -0.5512  0.0019
  316MOL0     O43501   1.101   8.419   2.785  0.1539 -0.3491 -0.4670
  316MOL0     C43502   1.186   8.419   2.678 -0.1817  0.3103 -0.7568
  316MOL0     C43503   1.191   8.311   2.590  1.4656 -0.0529  0.4546
  316MOL0     C43504   1.279   8.302   2.484  0.5005  0.1498  0.0428
  316MOL0     C43505   1.363   8.414   2.462 -0.5930 -0.2000 -0.0202
  316MOL0     O43506   1.463   8.426   2.367 -0.1537 -0.2931  0.8871
  316MOL0     C43507   1.491   8.312   2.276 -0.0588 -0.0703 -0.3183
  316MOL0     C43508   1.611   8.342   2.195 -0.7440  0.0571  0.3022
  316MOL0     C43509   1.736   8.287   2.271 -0.1918 -0.5807  0.7734
  316MOL0     C43510   1.790   8.152   2.231  0.7922  0.6438  0.4976
  316MOL0     C43511   1.928   8.123   2.282 -0.7009 -0.1791  1.0640
  316MOL0     C43512   1.954   7.970   2.294 -0.2475  0.1191 -0.2354
  316MOL0     C43513   2.109   7.950   2.332  0.6654 -0.1284  0.5882
  316MOL0     C43514   2.145   7.806   2.299 -0.8422 -0.1919 -0.8929
  316MOL0    Cl43515   2.320   7.765   2.339 -0.3282  0.0661  0.1269
  316MOL0     C43516   1.353   8.526   2.546 -0.0194 -0.0282 -0.4480
  316MOL0     C43517   1.276   8.524   2.660 -0.3936 -0.3181  0.6900
  316MOL0     O43518   1.253   8.323   2.919 -0.3077 -0.3053  0.2174
  316MOL0     C43519   0.926   8.436   3.011 -0.1211  0.0700  0.7460
  316MOL0     C43520   0.835   8.444   3.113 -0.1252 -0.2491 -1.0817
  316MOL0     N43521   0.384   8.652   3.797  0.5534 -0.8448 -0.3209
  316MOL0     N43522   0.412   8.622   3.918 -0.1803  0.1895  0.0646
  316MOL0     C43523   1.740   8.826   3.988 -0.2639 -0.4724  1.2092
  316MOL0     C43524   1.881   8.839   3.968  0.5992 -0.1493 -0.8466
  316MOL0     C43525   2.317   8.872   3.966  0.2739 -0.4158  0.1083
  316MOL0     C43526   2.398   8.758   3.996  0.5083 -0.4180  0.6395
  316MOL0     C43527   2.517   8.777   4.060  0.0480  0.5022  0.4674
  316MOL0     C43528   2.576   8.905   4.071 -0.2520 -0.0987 -0.1609
  316MOL0     O43529   2.698   8.935   4.133  0.0319 -0.4856 -0.6764
  316MOL0     C43530   2.768   8.828   4.202  0.0054 -0.1294 -0.4855
  316MOL0     C43531   2.872   8.764   4.112  0.0520 -0.2596 -0.1463
  316MOL0     C43532   2.973   8.861   4.063 -0.2976 -0.3508 -0.2127
  316MOL0     C43533   3.102   8.792   4.000 -0.4236  0.3492 -0.8681
  316MOL0     C43534   3.120   8.843   3.863  0.7593  0.0858  0.6397
  316MOL0     C43535   3.133   8.875   3.749 -0.1119  0.1208 -0.2890
  316MOL0     C43536   2.507   9.015   4.030 -0.3915  0.1997  0.5523
  316MOL0     C43537   2.373   9.002   3.980 -0.1816  1.0050 -0.0316
  316MOL0     C43538   2.306   9.130   3.937  0.7113  0.4141  0.5867
  316MOL0     H43539   1.971   8.522   4.053 -2.8009 -0.9352 -1.8730
  316MOL0     H43540   1.734   8.501   4.056 -1.1521  0.7462 -0.9723
  316MOL0     H43541   1.480   8.537   4.117 -1.7527 -0.1618 -0.6456
  316MOL0     H43542   1.544   8.487   3.962 -1.1982  0.3011 -1.7011
  316MOL0     H43543   1.358   8.624   3.849 -0.5430 -0.0654  0.6585
  316MOL0     H43544   1.322   8.464   3.903 -0.6392  0.0356 -1.2562
  316MOL0     H43545   1.248   8.590   4.131 -1.2259 -2.1626 -0.3772
  316MOL0     H43546   1.251   8.730   4.022  2.3788 -0.4935 -2.5877
  316MOL0     H43547   1.113   8.561   3.882  1.3998  0.7829 -0.3292
  316MOL0     H43548   1.086   8.471   4.032 -0.3062  1.0462  2.1259
  316MOL0     H43549   0.983   8.761   4.003 -0.1937 -0.2770 -1.3430
  316MOL0     H43550   0.982   8.655   4.146 -2.5852 -1.0733  1.0373
  316MOL0     H43551   0.837   8.599   3.885  2.5762 -1.8188 -1.1518
  316MOL0     H43552   0.861   8.476   4.003  0.5262  0.1805 -0.8984
  316MOL0     H43553   0.709   8.744   4.053  1.2277  0.4720 -3.1683
  316MOL0     H43554   0.749   8.628   4.184  0.2407  2.1789 -0.1043
  316MOL0     H43555   0.642   8.445   4.059 -1.7267 -1.0478  0.9575
  316MOL0     H43556   0.535   8.551   4.137 -1.3292  0.7788 -1.2248
  316MOL0     H43557   0.690   8.531   3.764 -0.8605 -2.4668  1.1103
  316MOL0     H43558   0.615   8.680   3.550 -0.0381 -3.3458 -3.2439
  316MOL0     H43559   0.443   8.735   3.552  0.0120  0.9597  2.6355
  316MOL0     H43560   0.390   8.486   3.556  0.7571 -1.0535 -0.3386
  316MOL0     H43561   0.420   8.573   3.399 -2.2743  1.3216  1.4881
  316MOL0     H43562   0.642   8.410   3.559 -2.9327 -2.5169  0.8974
  316MOL0     H43563   0.522   8.327   3.469 -0.1173 -0.7463  0.0720
  316MOL0     H43564   0.587   8.450   3.253  3.4206 -0.0578 -3.1531
  316MOL0     H43565   0.704   8.547   3.364  2.7498 -1.0737  0.9369
  316MOL0     H43566   0.949   8.192   3.303  0.3168  1.0496 -0.0366
  316MOL0     H43567   1.152   8.109   3.242 -1.5349  0.1640 -0.0271
  316MOL0     H43568   1.263   8.222   3.148 -0.1302  0.0788  1.4571
  316MOL0     H43569   1.182   8.098   3.066  1.0539  0.7189  0.2622
  316MOL0     H43570   1.119   8.230   2.596  0.5748  0.6183 -0.8530
  316MOL0     H43571   1.274   8.217   2.416 -1.1532  1.4253 -1.5202
  316MOL0     H43572   1.506   8.224   2.339  5.1097 -1.7920 -3.4207
  316MOL0     H43573   1.407   8.288   2.210  0.6094 -1.0952 -0.8189
  316MOL0     H43574   1.601   8.279   2.106 -2.1454  1.7862 -0.8593
  316MOL0     H43575   1.621   8.447   2.167 -2.0874  0.3317  0.7605
  316MOL0     H43576   1.715   8.289   2.378 -1.2829  2.8926  0.6399
  316MOL0     H43577   1.818   8.358   2.253 -2.8473  2.0148 -2.4127
  316MOL0     H43578   1.785   8.145   2.122 -2.4216 -2.9352  0.6806
  316MOL0     H43579   1.722   8.079   2.274  3.3015 -1.6480  0.8503
  316MOL0     H43580   2.006   8.161   2.216 -1.9319  1.5062  0.5085
  316MOL0     H43581   1.941   8.160   2.384 -0.2640 -0.8860  1.2737
  316MOL0     H43582   1.933   7.923   2.198  2.0580  0.2830 -0.8983
  316MOL0     H43583   1.890   7.927   2.371 -1.2067 -0.1643 -1.1699
  316MOL0     H43584   2.117   7.968   2.440 -1.3509 -0.2199  0.7866
  316MOL0     H43585   2.169   8.021   2.275 -2.1457  2.5730  0.7084
  316MOL0     H43586   2.138   7.789   2.191  2.2138 -1.3061 -1.0037
  316MOL0     H43587   2.076   7.741   2.355 -1.3304  0.8308 -0.2795
  316MOL0     H43588   1.426   8.605   2.536 -0.0380  0.0085 -0.3001
  316MOL0     H43589   1.272   8.611   2.725 -0.0272  3.0054 -3.2811
  316MOL0     H43590   0.930   8.505   2.927 -1.6966 -1.8215 -1.0236
  316MOL0     H43591   0.749   8.509   3.109  2.1390  3.1295  0.5940
  316MOL0     H43592   1.658   8.892   3.963  1.3875  1.3358  0.4139
  316MOL0     H43593   1.914   8.937   3.935  0.5631 -1.2728 -4.7340
  316MOL0     H43594   2.353   8.659   3.995  0.0701 -0.4229  4.4627
  316MOL0     H43595   2.573   8.689   4.091 -1.3437  0.1884  2.2797
  316MOL0     H43596   2.828   8.874   4.282 -0.8126 -2.0656  1.3261
  316MOL0     H43597   2.701   8.763   4.257  0.2428 -0.5721 -0.7177
  316MOL0     H43598   2.816   8.702   4.041 -2.5124  1.9028 -0.1753
  316MOL0     H43599   2.935   8.703   4.178  3.5574  3.0556 -0.0602
  316MOL0     H43600   2.938   8.936   3.993 -0.4178  0.0832  0.3097
  316MOL0     H43601   3.016   8.911   4.150  2.8062  0.9177 -2.3026
  316MOL0     H43602   3.095   8.683   4.001  0.4378  0.2773  0.6775
  316MOL0     H43603   3.189   8.831   4.054 -3.2507  1.5698  3.3339
  316MOL0     H43604   3.130   8.883   3.642 -2.9844 -0.3692 -0.3335
  316MOL0     H43605   2.545   9.116   4.043 -0.7578  0.2956  0.8739
  316MOL0     H43606   2.302   9.141   3.828 -1.8951 -0.6691  0.4863
  316MOL0     H43607   2.203   9.143   3.970  0.1759 -0.9413 -0.4633
  316MOL0     H43608   2.363   9.219   3.963 -2.9492  3.2125 -0.2725
  317MOL0     O43609   7.313   6.276   4.802  0.5655 -0.0014 -0.3032
  317MOL0     C43610   7.245   6.172   4.759  0.5695 -0.3848  1.0562
  317MOL0     O43611   7.294   6.071   4.684 -0.2017  0.2452 -0.1604
  317MOL0     C43612   7.433   6.049   4.681  0.7761  0.7032  0.3170
  317MOL0     C43613   7.512   6.140   4.613 -0.7908  0.4655  0.8506
  317MOL0     C43614   7.651   6.107   4.597 -0.3927  0.0951 -0.2400
  317MOL0     C43615   7.718   6.005   4.665  0.2162  0.1913 -0.3709
  317MOL0     O43616   7.849   5.984   4.670 -0.0591  0.1445 -0.3921
  317MOL0     C43617   7.929   6.032   4.563  0.6004 -0.5374  0.3735
  317MOL0     C43618   8.076   6.025   4.617  0.9285  0.3423  0.2527
  317MOL0     C43619   8.177   6.029   4.500  0.3819 -0.0180  0.4828
  317MOL0     C43620   8.323   6.007   4.554  0.0491 -0.0006 -0.6971
  317MOL0     C43621   8.421   6.036   4.447 -1.1342 -0.3239  0.0379
  317MOL0     C43622   8.560   5.998   4.501 -0.4884  0.3999 -0.2458
  317MOL0     C43623   8.668   6.017   4.399  0.1791  0.4493  0.7392
  317MOL0     C43624   8.682   5.891   4.311 -0.4916  0.6124  0.1926
  317MOL0     N43625   8.807   5.888   4.237 -0.5353  0.1351  1.0034
  317MOL0     C43626   8.930   5.829   4.262 -0.6473 -0.0418  0.4796
  317MOL0     C43627   9.006   5.859   4.153  0.6653  0.4082 -0.3076
  317MOL0     C43628   9.145   5.828   4.136  0.2540 -0.1216  0.1715
  317MOL0     C43629   9.227   5.933   4.052 -0.1589  0.0080 -0.5440
  317MOL0     C43630   9.376   5.905   4.070 -0.3604  0.8506 -0.0748
  317MOL0     C43631   9.419   5.778   4.001 -0.3573  0.3884 -0.5145
  317MOL0     O43632   9.563   5.767   4.010  0.3344 -0.6058 -0.8751
  317MOL0     C43633   9.633   5.665   3.956  0.9720 -0.0466 -0.4249
  317MOL0     C43634   9.577   5.544   3.912  0.3028 -0.0526  0.0645
  317MOL0     C43635   9.651   5.436   3.872 -1.3564 -0.1577 -0.2891
  317MOL0     C43636   9.565   5.315   3.839 -0.0502 -1.1877 -0.1554
  317MOL0     C43637   9.787   5.441   3.879 -0.4469 -0.0194 -0.3784
  317MOL0     C43638   9.880   5.328   3.848 -1.0057  0.8140  0.5686
  317MOL0     O43639   9.835   5.234   3.758 -0.2277 -0.8058  0.7346
  317MOL0     C43640   9.922   5.136   3.718 -0.0794  0.2157 -0.1099
  317MOL0     C43641   9.891   5.003   3.734  0.2714  0.1768 -0.9673
  317MOL0     C43642   9.972   4.892   3.694  0.2396 -1.3141  1.4299
  317MOL0     C43643  10.091   4.920   3.631  0.7071 -0.6669  0.3275
  317MOL0     O43644  10.165   4.811   3.590  0.2778  0.7539  0.9462
  317MOL0     C43645  10.307   4.833   3.569 -0.6172 -0.3478 -0.3076
  317MOL0     C43646  10.372   4.700   3.542  0.3620 -0.2390 -0.5511
  317MOL0     C43647  10.522   4.721   3.503  0.3500 -0.8484  0.9403
  317MOL0     C43648  10.612   4.596   3.485  0.0564 -0.6653  0.9064
  317MOL0     C43649  10.758   4.651   3.452 -0.4796 -0.7580  0.6071
  317MOL0     C43650  10.776   4.730   3.319 -0.2119  0.7318  0.5523
  317MOL0     C43651  10.923   4.724   3.271 -0.1354 -0.4701 -0.2148
  317MOL0     C43652  10.960   4.817   3.154  0.2197  0.1001 -0.6265
  317MOL0    Cl43653  10.832   4.794   3.032  0.2387 -0.1908 -0.4734
  317MOL0     C43654  10.128   5.060   3.629  0.3414 -0.4153 -0.0874
  317MOL0     C43655  10.053   5.162   3.672  0.2237 -0.1818  0.1901
  317MOL0     O43656   9.987   5.318   3.908  0.2511 -0.7286 -0.3167
  317MOL0     C43657   9.842   5.560   3.925 -0.9673 -0.8841 -1.6462
  317MOL0     C43658   9.765   5.665   3.972  0.6697 -0.3799  0.4203
  317MOL0     N43659   8.923   5.912   4.056  0.1687  0.3309  0.2052
  317MOL0     N43660   8.805   5.929   4.107  0.4059 -0.4964  0.0419
  317MOL0     C43661   7.629   5.928   4.746 -0.6527 -0.3312  0.7620
  317MOL0     C43662   7.491   5.947   4.754  0.7594 -0.4092 -0.3703
  317MOL0     C43663   7.091   6.177   4.767 -0.0515 -0.6214 -0.2131
  317MOL0     C43664   7.013   6.182   4.659 -0.1686 -0.2964 -0.4769
  317MOL0     C43665   6.874   6.185   4.668  1.1824 -0.3398 -1.5058
  317MOL0     C43666   6.807   6.203   4.790 -0.1295 -0.6495  0.3893
  317MOL0     O43667   6.674   6.202   4.794 -0.3807  0.0102  0.3044
  317MOL0     C43668   6.612   6.230   4.927 -0.7145  0.2954  0.5689
  317MOL0     C43669   6.466   6.282   4.901  0.1521  0.0469 -0.3151
  317MOL0     C43670   6.382   6.168   4.840 -0.6423 -0.6026  1.0139
  317MOL0     C43671   6.372   6.037   4.923 -0.0699 -0.0160 -0.9646
  317MOL0     C43672   6.340   6.071   5.061 -0.4308  0.8637  0.2478
  317MOL0     C43673   6.307   6.098   5.172  0.7181 -0.0163  0.8669
  317MOL0     C43674   6.884   6.208   4.910  0.3035 -0.3208 -0.2532
  317MOL0     C43675   7.027   6.198   4.892 -0.0597  0.0099 -0.1288
  317MOL0     C43676   7.110   6.213   5.017  0.2385  0.4298 -0.0396
  317MOL0     H43677   7.470   6.233   4.575  0.3157  0.1218 -1.4180
  317MOL0     H43678   7.717   6.182   4.554  0.7895 -1.1470 -0.6746
  317MOL0     H43679   7.900   6.130   4.525 -0.0718 -1.5089 -1.7938
  317MOL0     H43680   7.926   5.968   4.474 -0.4446 -2.0171  1.4378
  317MOL0     H43681   8.082   6.106   4.690 -3.4920  0.4331  0.7931
  317MOL0     H43682   8.079   5.933   4.675  0.3132  0.9195  1.2366
  317MOL0     H43683   8.145   5.956   4.425 -0.3057  1.1531 -0.4013
  317MOL0     H43684   8.161   6.125   4.450  0.2233 -0.3996 -0.2100
  317MOL0     H43685   8.340   6.077   4.636 -0.6016 -1.6942  0.9770
  317MOL0     H43686   8.337   5.910   4.602  0.6666 -0.3395 -1.5468
  317MOL0     H43687   8.419   6.141   4.417 -1.2004 -0.1402  0.6580
  317MOL0     H43688   8.398   5.982   4.355 -0.7830  1.2470 -1.0136
  317MOL0     H43689   8.580   6.068   4.583  1.4342 -1.0128  0.5685
  317MOL0     H43690   8.567   5.899   4.546  0.6225  1.4914  2.1593
  317MOL0     H43691   8.765   6.035   4.445  0.2079 -1.7645  1.6715
  317MOL0     H43692   8.640   6.106   4.342 -0.6424 -0.7947 -0.9135
  317MOL0     H43693   8.688   5.799   4.371  2.7532 -0.8190 -2.0391
  317MOL0     H43694   8.599   5.885   4.239 -0.2352 -1.3915 -0.0072
  317MOL0     H43695   8.964   5.773   4.348  0.3038  1.6051  1.2303
  317MOL0     H43696   9.144   5.735   4.078 -2.8842  0.0469 -0.1777
  317MOL0     H43697   9.187   5.813   4.236  0.6613  0.5882  0.1091
  317MOL0     H43698   9.207   5.927   3.944 -1.3214 -2.3616 -0.2766
  317MOL0     H43699   9.203   6.034   4.085  0.9709 -0.6814  2.7121
  317MOL0     H43700   9.425   5.994   4.030  0.8582 -0.9560 -2.9348
  317MOL0     H43701   9.401   5.890   4.175 -1.0318  0.7057  0.0698
  317MOL0     H43702   9.377   5.695   4.059  0.2131  0.1716 -0.4030
  317MOL0     H43703   9.379   5.760   3.901 -2.7727 -3.1235  0.8787
  317MOL0     H43704   9.471   5.538   3.892  0.0845 -1.1138  1.3822
  317MOL0     H43705   9.458   5.335   3.845 -0.0011 -0.3305 -1.8327
  317MOL0     H43706   9.575   5.236   3.914  0.3826 -0.4701  0.5603
  317MOL0     H43707   9.589   5.282   3.738 -0.5566  1.1501 -1.0891
  317MOL0     H43708   9.798   4.990   3.788 -0.6074  2.4248 -1.8299
  317MOL0     H43709   9.950   4.786   3.702 -1.4654 -1.1089  0.0134
  317MOL0     H43710  10.303   4.893   3.478 -1.0819 -0.5001 -0.3896
  317MOL0     H43711  10.356   4.880   3.655 -2.1592  1.8008 -0.5318
  317MOL0     H43712  10.363   4.624   3.621  1.4786 -0.9525 -1.0778
  317MOL0     H43713  10.329   4.651   3.455 -3.1587 -1.8521  1.8525
  317MOL0     H43714  10.573   4.778   3.582  1.7099 -1.0038  0.2051
  317MOL0     H43715  10.521   4.791   3.419  1.1725 -1.9910 -0.0461
  317MOL0     H43716  10.567   4.537   3.404  0.2349 -1.8637  1.6494
  317MOL0     H43717  10.612   4.525   3.568 -1.6293 -1.0997  0.5676
  317MOL0     H43718  10.783   4.723   3.530 -1.1338  1.6815 -1.2681
  317MOL0     H43719  10.824   4.565   3.446 -0.4646 -0.8030  1.4010
  317MOL0     H43720  10.740   4.833   3.316 -1.1317  0.5249  2.8812
  317MOL0     H43721  10.707   4.684   3.247  1.1133 -1.1718  0.4055
  317MOL0     H43722  10.946   4.624   3.234  0.3631 -0.6743  0.6242
  317MOL0     H43723  10.981   4.749   3.361 -3.0102  2.4178  1.0499
  317MOL0     H43724  11.060   4.797   3.114 -0.0596 -1.4848 -0.5968
  317MOL0     H43725  10.941   4.922   3.177 -0.9212 -0.3107  0.4124
  317MOL0     H43726  10.232   5.077   3.601  0.4566  2.1565  1.5233
  317MOL0     H43727  10.090   5.263   3.661 -0.3073 -0.0473 -0.4941
  317MOL0     H43728   9.947   5.583   3.929 -1.2345  0.9201 -3.5862
  317MOL0     H43729   9.800   5.761   4.008  0.0451 -0.1148  0.3369
  317MOL0     H43730   7.673   5.839   4.791  1.3154 -0.0216 -0.3917
  317MOL0     H43731   7.428   5.896   4.826  1.0054 -1.2305 -0.7186
  317MOL0     H43732   7.065   6.165   4.565 -0.3349  2.3516 -1.1207
  317MOL0     H43733   6.811   6.174   4.581  0.9157 -1.1289 -1.2234
  317MOL0     H43734   6.621   6.144   4.993 -0.2610  0.1344  0.3010
  317MOL0     H43735   6.665   6.312   4.976 -1.1100  1.3988 -0.7753
  317MOL0     H43736   6.452   6.365   4.831  0.7312  0.3204 -0.1185
  317MOL0     H43737   6.422   6.317   4.994 -0.3622  0.2455 -0.6279
  317MOL0     H43738   6.281   6.208   4.829 -1.2788 -2.7801 -2.9601
  317MOL0     H43739   6.422   6.134   4.744 -1.3982 -4.3638  1.8968
  317MOL0     H43740   6.469   5.986   4.926 -1.1639 -2.2956 -1.6445
  317MOL0     H43741   6.295   5.971   4.881 -0.5579 -0.7544  0.9759
  317MOL0     H43742   6.271   6.126   5.269 -1.2631  1.1904 -0.1536
  317MOL0     H43743   6.843   6.231   5.007 -1.2329  3.3255 -1.5851
  317MOL0     H43744   7.048   6.196   5.106  1.5506 -1.7977  0.5460
  317MOL0     H43745   7.180   6.129   5.008 -0.8090 -0.4794  0.0694
  317MOL0     H43746   7.165   6.307   5.017  0.3919  0.3475 -0.9858
  318MOL0     O43747   8.350   5.218   5.340  0.0790 -0.0050 -0.3065
  318MOL0     C43748   8.229   5.236   5.307 -0.2481 -0.2858 -0.6360
  318MOL0     O43749   8.195   5.290   5.186  0.2661 -0.2302 -0.0644
  318MOL0     C43750   8.301   5.329   5.112 -0.2521  0.2494  0.4137
  318MOL0     C43751   8.370   5.247   5.023 -0.0740 -0.5159 -0.2474
  318MOL0     C43752   8.484   5.293   4.951 -0.8842  1.3730 -0.1017
  318MOL0     C43753   8.524   5.430   4.967 -0.3941 -0.3169 -0.3628
  318MOL0     O43754   8.636   5.473   4.897  0.4107  0.5748  0.3943
  318MOL0     C43755   8.754   5.432   4.967 -0.5895 -0.4358  0.3651
  318MOL0     C43756   8.876   5.452   4.867  0.4311 -0.5519 -0.3434
  318MOL0     C43757   9.014   5.399   4.918  0.3593 -0.1213  0.3404
  318MOL0     C43758   9.125   5.492   4.860  0.2014 -0.3546 -0.5349
  318MOL0     C43759   9.260   5.431   4.835 -0.1162  1.0553  0.2951
  318MOL0     C43760   9.335   5.413   4.969 -0.8768  0.4823 -0.3285
  318MOL0     C43761   9.471   5.341   4.941  0.7197 -0.5228  0.6859
  318MOL0     C43762   9.582   5.354   5.049 -0.5467  0.3264  0.2309
  318MOL0     N43763   9.714   5.358   4.984 -0.2442 -0.3224  0.7849
  318MOL0     C43764   9.785   5.270   4.903 -0.0259  0.6066  0.8603
  318MOL0     C43765   9.922   5.296   4.914  0.1749 -0.1332 -0.2946
  318MOL0     C43766  10.037   5.220   4.859  0.3953 -0.4356  0.3444
  318MOL0     C43767  10.174   5.254   4.925  0.9715  0.4028  0.4904
  318MOL0     C43768  10.279   5.169   4.864 -0.4765  0.3416 -0.0181
  318MOL0     C43769  10.401   5.163   4.957 -0.2100  0.4449 -0.2485
  318MOL0     O43770  10.377   5.096   5.086 -0.4144  0.7485 -0.4095
  318MOL0     C43771  10.488   5.059   5.157 -0.8051 -0.2203  0.1650
  318MOL0     C43772  10.479   4.940   5.226  0.3287  0.5229  0.0563
  318MOL0     C43773  10.587   4.887   5.294  0.2858 -0.5883  0.4794
  318MOL0     C43774  10.574   4.746   5.345  0.0200 -0.1918 -0.0241
  318MOL0     C43775  10.711   4.952   5.299  0.4265  0.0291  0.4592
  318MOL0     C43776  10.837   4.895   5.359  0.2468 -0.3969 -0.3123
  318MOL0     O43777  10.920   4.993   5.396  0.7718 -0.5029 -0.2599
  318MOL0     C43778  11.051   4.958   5.418 -0.5995  0.4553  0.7505
  318MOL0     C43779  11.103   4.909   5.536 -0.5517  0.7884 -1.0485
  318MOL0     C43780  11.230   4.860   5.544  0.4197  0.2098  0.0504
  318MOL0     C43781  11.308   4.872   5.427  0.0376 -0.2521 -0.3699
  318MOL0     O43782  11.438   4.843   5.439 -0.2783 -1.1955  0.0789
  318MOL0     C43783  11.526   4.877   5.328 -0.1720 -0.3828 -0.5904
  318MOL0     C43784  11.674   4.832   5.339 -0.1702  0.8832  0.3630
  318MOL0     C43785  11.765   4.903   5.441  0.1498 -0.5548  0.2243
  318MOL0     C43786  11.912   4.853   5.458  0.1900  0.2743  0.2901
  318MOL0     C43787  11.963   4.898   5.589  0.6305 -1.0679  0.5550
  318MOL0     C43788  11.884   4.875   5.722 -0.2376  0.2910  0.6784
  318MOL0     C43789  11.975   4.925   5.836 -0.3148  0.8179  1.0805
  318MOL0     C43790  11.911   4.907   5.972 -0.8737 -0.7368  0.0995
  318MOL0    Cl43791  12.046   4.907   6.090 -0.0587 -0.1023  0.2536
  318MOL0     C43792  11.263   4.929   5.305  0.6441 -0.1464 -0.2767
  318MOL0     C43793  11.133   4.969   5.297  0.2865 -0.6396 -0.7874
  318MOL0     O43794  10.849   4.778   5.403  0.5533  1.0889 -0.1505
  318MOL0     C43795  10.724   5.066   5.216  0.1150 -0.3693 -0.1141
  318MOL0     C43796  10.613   5.120   5.147 -0.5300 -0.3038 -0.3790
  318MOL0     N43797   9.930   5.407   5.004  0.3898 -0.4938  0.0986
  318MOL0     N43798   9.804   5.439   5.043 -0.8147  0.2067  0.2022
  318MOL0     C43799   8.454   5.508   5.054  0.1316  1.0910  0.1841
  318MOL0     C43800   8.336   5.462   5.120 -0.5405 -0.1658 -0.2803
  318MOL0     C43801   8.116   5.213   5.411 -0.1717 -0.3043  0.6942
  318MOL0     C43802   7.995   5.292   5.403 -0.2321 -0.0445 -0.6022
  318MOL0     C43803   7.892   5.276   5.488  0.2849  1.3905 -0.4376
  318MOL0     C43804   7.907   5.192   5.594  0.4828  0.2476  0.1297
  318MOL0     O43805   7.804   5.187   5.682  0.3518 -0.1308  0.2753
  318MOL0     C43806   7.819   5.118   5.807  0.1560  0.5583  0.1270
  318MOL0     C43807   7.700   5.151   5.898 -0.5779  0.1768 -0.1716
  318MOL0     C43808   7.561   5.094   5.858 -0.9985  0.5222  0.6183
  318MOL0     C43809   7.457   5.096   5.968 -0.9675  0.1108  0.0394
  318MOL0     C43810   7.344   5.017   5.922 -0.2824 -0.3639 -0.4949
  318MOL0     C43811   7.247   4.955   5.882 -0.7420  0.0213 -0.1064
  318MOL0     C43812   8.024   5.120   5.612 -0.0434  0.7941  0.0956
  318MOL0     C43813   8.131   5.116   5.517  0.7980 -1.0373  0.3736
  318MOL0     C43814   8.254   5.033   5.546 -0.4951  0.8245 -0.1691
  318MOL0     H43815   8.339   5.144   5.009 -3.3126  0.4758 -1.1581
  318MOL0     H43816   8.532   5.227   4.879  0.0400  1.9495 -0.0314
  318MOL0     H43817   8.750   5.327   4.997  0.8857 -0.1636  1.6277
  318MOL0     H43818   8.763   5.491   5.059 -0.3729  1.7255 -0.9620
  318MOL0     H43819   8.850   5.403   4.773  0.2587 -0.2969 -0.4256
  318MOL0     H43820   8.879   5.559   4.849 -0.4468 -0.1592  1.5855
  318MOL0     H43821   9.016   5.415   5.026 -2.3751  0.7417  0.3330
  318MOL0     H43822   9.029   5.294   4.888  0.3190  0.0695 -0.3582
  318MOL0     H43823   9.094   5.519   4.759  0.7704  1.8217 -0.1781
  318MOL0     H43824   9.119   5.587   4.913 -1.8496 -1.1680  0.8092
  318MOL0     H43825   9.326   5.498   4.780 -2.4398  2.7430 -0.6382
  318MOL0     H43826   9.245   5.337   4.781 -2.6307 -0.3594  3.1395
  318MOL0     H43827   9.358   5.509   5.017  0.5433  1.2456 -2.3769
  318MOL0     H43828   9.274   5.349   5.033 -3.5269  1.7948 -1.3782
  318MOL0     H43829   9.509   5.386   4.849  0.7467  1.1064  1.4428
  318MOL0     H43830   9.459   5.236   4.914  3.0625 -0.6035 -0.3158
  318MOL0     H43831   9.564   5.437   5.118 -1.1711  0.6150 -0.2670
  318MOL0     H43832   9.574   5.270   5.118  1.0997  1.2487  1.6136
  318MOL0     H43833   9.749   5.182   4.853 -1.8444  0.2751  2.6141
  318MOL0     H43834  10.034   5.242   4.752 -0.5675 -0.8940  0.2659
  318MOL0     H43835  10.016   5.118   4.893 -2.1737  0.9017  3.2206
  318MOL0     H43836  10.206   5.358   4.914  1.2640  0.4674  1.8438
  318MOL0     H43837  10.156   5.228   5.030 -0.5423 -1.7277 -0.2139
  318MOL0     H43838  10.238   5.068   4.863  0.2247  0.0448  1.0432
  318MOL0     H43839  10.313   5.208   4.767  1.4967  3.1674  1.6512
  318MOL0     H43840  10.492   5.129   4.906  0.4191  2.7520 -0.8188
  318MOL0     H43841  10.431   5.266   4.982  1.9557  0.1110 -1.2186
  318MOL0     H43842  10.390   4.877   5.222  1.1336 -0.5819 -2.6403
  318MOL0     H43843  10.657   4.680   5.318  0.2780 -1.2181  2.9037
  318MOL0     H43844  10.493   4.693   5.294  0.7074 -0.5217 -0.7946
  318MOL0     H43845  10.554   4.743   5.453  1.0503 -3.3441  0.1753
  318MOL0     H43846  11.033   4.893   5.617 -1.1056  0.9866 -1.4799
  318MOL0     H43847  11.278   4.825   5.634 -0.0139  2.1368  1.0956
  318MOL0     H43848  11.480   4.831   5.240 -2.7009  1.4845 -0.3525
  318MOL0     H43849  11.530   4.985   5.310  1.6218 -0.3467 -0.2204
  318MOL0     H43850  11.687   4.725   5.358  0.5286 -0.2535 -4.8833
  318MOL0     H43851  11.715   4.824   5.238 -1.3650 -3.9585  0.0163
  318MOL0     H43852  11.719   4.898   5.540 -3.2156 -0.1334 -1.1997
  318MOL0     H43853  11.772   5.005   5.402 -4.3285 -0.8662 -1.9713
  318MOL0     H43854  11.980   4.889   5.381  1.3025 -1.2896  0.4958
  318MOL0     H43855  11.909   4.744   5.452 -1.0951  0.2590  0.7752
  318MOL0     H43856  12.058   4.844   5.596 -0.5217 -3.2933  0.1797
  318MOL0     H43857  11.985   5.005   5.595 -0.3264 -0.8468  0.3500
  318MOL0     H43858  11.856   4.770   5.738 -2.4673  0.7705  0.2918
  318MOL0     H43859  11.798   4.942   5.732 -1.3860 -1.3984  3.4483
  318MOL0     H43860  11.978   5.032   5.812 -1.3972  0.6302 -0.0102
  318MOL0     H43861  12.072   4.876   5.831 -1.4308 -1.5384  1.1721
  318MOL0     H43862  11.848   4.818   5.979 -2.0055  0.0526  0.2822
  318MOL0     H43863  11.848   4.995   5.988 -1.1032 -0.8595 -0.1209
  318MOL0     H43864  11.316   4.939   5.210  1.9758  0.0848  0.4665
  318MOL0     H43865  11.104   5.019   5.205 -0.1211  2.4455  0.8615
  318MOL0     H43866  10.815   5.115   5.185 -0.1449 -0.0808 -0.4310
  318MOL0     H43867  10.630   5.209   5.088 -0.4589  1.3555  2.0099
  318MOL0     H43868   8.498   5.606   5.067  3.6619 -0.2256 -0.6481
  318MOL0     H43869   8.286   5.533   5.185  1.0345 -0.5671  1.4602
  318MOL0     H43870   7.982   5.366   5.324  1.5722 -0.3001 -1.2113
  318MOL0     H43871   7.792   5.316   5.474 -0.3057  0.3582  0.7044
  318MOL0     H43872   7.820   5.010   5.787 -0.3598  0.3149  1.3164
  318MOL0     H43873   7.919   5.140   5.846  0.1815  2.8849 -1.1070
  318MOL0     H43874   7.690   5.260   5.887  2.5966  0.4154 -1.7738
  318MOL0     H43875   7.728   5.122   6.000 -2.7063 -1.1455  0.0819
  318MOL0     H43876   7.525   5.154   5.774  1.6615  1.6130  0.1526
  318MOL0     H43877   7.576   4.990   5.829 -1.5256  1.2158 -2.5072
  318MOL0     H43878   7.430   5.200   5.987 -2.5106 -0.6530  2.6550
  318MOL0     H43879   7.496   5.060   6.064 -2.0099  0.1582  0.5004
  318MOL0     H43880   7.153   4.916   5.849 -0.9219 -0.2244  0.6801
  318MOL0     H43881   8.042   5.057   5.699 -0.5300 -1.2382 -1.2296
  318MOL0     H43882   8.239   4.959   5.625  0.7951  2.0568  1.3048
  318MOL0     H43883   8.287   4.989   5.452  2.5601 -0.0161  1.1651
  318MOL0     H43884   8.334   5.093   5.591  2.2395 -1.5582 -1.4919
  319MOL0     O43885   0.350   9.905   9.018  0.1607  0.9778 -0.2065
  319MOL0     C43886   0.269   9.997   9.046 -0.2438  0.1417 -0.0326
  319MOL0     O43887   0.296  10.121   9.096 -0.1050  0.0318  0.2336
  319MOL0     C43888   0.429  10.135   9.132 -0.1328  0.6994 -1.0637
  319MOL0     C43889   0.526  10.194   9.053 -0.7659  0.7325 -0.2489
  319MOL0     C43890   0.669  10.185   9.085  0.1776 -0.1576  0.1562
  319MOL0     C43891   0.704  10.140   9.214  0.2390  0.2152  0.4766
  319MOL0     O43892   0.829  10.147   9.264  0.5446  0.3723 -0.3216
  319MOL0     C43893   0.922  10.218   9.190 -0.2530  0.6682  0.1814
  319MOL0     C43894   1.067  10.189   9.259  0.0306 -0.0516  0.9592
  319MOL0     C43895   1.081  10.266   9.390 -0.3076  0.7245  1.2719
  319MOL0     C43896   1.218  10.223   9.454  0.0190 -0.0387 -0.1346
  319MOL0     C43897   1.245  10.298   9.581 -0.1228 -0.4063  0.4949
  319MOL0     C43898   1.379  10.254   9.637  0.0277 -0.3087 -0.5835
  319MOL0     C43899   1.425  10.335   9.750  0.0908 -0.1469  0.2811
  319MOL0     C43900   1.488  10.468   9.712 -0.3741 -0.6139  0.3369
  319MOL0     N43901   1.524  10.545   9.827  0.0287  0.0504 -0.2092
  319MOL0     C43902   1.623  10.503   9.914 -0.3028  0.5246  0.0864
  319MOL0     C43903   1.628  10.608  10.006 -0.4861 -0.6861  0.6450
  319MOL0     C43904   1.712  10.614  10.136 -0.3443  0.1754  0.1825
  319MOL0     C43905   1.694  10.498  10.226  0.8252 -0.8663  0.5711
  319MOL0     C43906   1.802  10.485  10.329  0.4103  0.8757  0.2105
  319MOL0     C43907   1.933  10.449  10.274  0.5848  0.1932  0.1891
  319MOL0     O43908   2.030  10.429  10.383 -0.1969 -0.2400  0.2825
  319MOL0     C43909   2.126  10.334  10.376  0.3216 -0.6190  0.1399
  319MOL0     C43910   2.181  10.281  10.491  0.9309  0.1615  0.1190
  319MOL0     C43911   2.282  10.190  10.486 -0.3409  0.4053 -0.3873
  319MOL0     C43912   2.346  10.175  10.622  0.0735  0.5913 -0.3258
  319MOL0     C43913   2.331  10.141  10.366 -0.0892 -0.3025  0.4711
  319MOL0     C43914   2.436  10.033  10.358  0.2911 -0.3503 -1.1920
  319MOL0     O43915   2.422   9.921  10.432  0.4946 -0.3352 -0.6620
  319MOL0     C43916   2.517   9.825  10.430 -0.5277 -0.6343 -0.3640
  319MOL0     C43917   2.628   9.830  10.509 -0.5684  0.1122  1.0488
  319MOL0     C43918   2.720   9.720  10.504 -0.1922 -1.1508  0.4640
  319MOL0     C43919   2.696   9.601  10.428 -0.4496 -0.9247 -0.4301
  319MOL0     O43920   2.798   9.501  10.432 -0.0177  0.3772 -0.4005
  319MOL0     C43921   2.923   9.539  10.386  0.4565 -0.1361  0.1474
  319MOL0     C43922   2.974   9.426  10.311 -0.0384 -0.9442  0.4434
  319MOL0     C43923   3.105   9.452  10.249 -0.1640  0.4747 -0.1134
  319MOL0     C43924   3.177   9.321  10.191 -0.6378 -0.1432 -0.5850
  319MOL0     C43925   3.301   9.359  10.113 -0.4992  0.4669  0.8863
  319MOL0     C43926   3.406   9.437  10.189  1.3014 -0.3301 -0.6394
  319MOL0     C43927   3.471   9.357  10.313  0.3606  0.5443  0.2933
  319MOL0     C43928   3.597   9.423  10.366  0.1561 -0.6212  0.7788
  319MOL0    Cl43929   3.683   9.303  10.474  0.4829 -0.1496  0.2748
  319MOL0     C43930   2.576   9.593  10.356  0.1686  0.1785 -0.8392
  319MOL0     C43931   2.489   9.709  10.347 -0.9721 -0.0657  0.5400
  319MOL0     O43932   2.531  10.059  10.290 -0.0234  0.5277 -0.4791
  319MOL0     C43933   2.279  10.189  10.250 -0.6323 -0.4407 -0.3954
  319MOL0     C43934   2.181  10.288  10.255  0.8541  0.2247  0.3790
  319MOL0     N43935   1.535  10.713   9.971  0.3942  0.0373 -0.4115
  319MOL0     N43936   1.468  10.665   9.872 -0.0379  0.4071  0.6416
  319MOL0     C43937   0.603  10.090   9.299 -0.8522 -0.2720  0.6658
  319MOL0     C43938   0.466  10.076   9.259 -0.2865  0.3697 -0.3143
  319MOL0     C43939   0.135   9.965   9.013  0.1322 -0.4842 -0.0537
  319MOL0     C43940   0.072  10.052   8.920  0.3224  0.0806  0.4104
  319MOL0     C43941  -0.048  10.008   8.854 -0.5161 -0.5044 -0.1594
  319MOL0     C43942  -0.108   9.892   8.894 -0.4196  0.0035 -0.1477
  319MOL0     O43943  -0.232   9.870   8.847 -0.5533  0.0986 -0.5747
  319MOL0     C43944  -0.259   9.737   8.800  0.1036 -0.9412 -0.4456
  319MOL0     C43945  -0.361   9.755   8.685 -0.0737  0.5938  0.6250
  319MOL0     C43946  -0.411   9.610   8.656  0.3015 -0.3414 -1.0278
  319MOL0     C43947  -0.516   9.601   8.556  0.0237  0.1580  0.1645
  319MOL0     C43948  -0.494   9.688   8.444  0.2154 -0.7353  0.6510
  319MOL0     C43949  -0.466   9.747   8.341 -0.5795 -0.7443  0.0710
  319MOL0     C43950  -0.058   9.822   9.002 -0.9353  0.3776 -0.0380
  319MOL0     C43951   0.062   9.854   9.064 -0.1216  0.2923  0.8822
  319MOL0     C43952   0.110   9.776   9.183 -0.1219  0.7419  1.0185
  319MOL0     H43953   0.505  10.227   8.951 -0.9886 -2.6342 -1.4033
  319MOL0     H43954   0.734  10.237   9.014 -2.6407  0.0327 -2.4950
  319MOL0     H43955   0.900  10.325   9.197 -1.9898  0.2466  2.1243
  319MOL0     H43956   0.933  10.181   9.088  0.8918  1.1916  0.0977
  319MOL0     H43957   1.090  10.082   9.264 -0.6756 -0.4706 -2.2728
  319MOL0     H43958   1.141  10.227   9.188  0.1696 -0.0393  1.1121
  319MOL0     H43959   1.087  10.372   9.365 -2.8163  1.5325  3.6744
  319MOL0     H43960   0.993  10.261   9.455 -0.2011  1.3715  1.4746
  319MOL0     H43961   1.211  10.115   9.470 -1.4069 -0.1298 -1.1746
  319MOL0     H43962   1.300  10.255   9.389 -1.3202  2.1481 -0.8683
  319MOL0     H43963   1.163  10.294   9.652 -1.7868 -1.2543 -1.3799
  319MOL0     H43964   1.238  10.404   9.555 -0.8061 -0.7143 -0.6598
  319MOL0     H43965   1.361  10.152   9.671  0.4580 -0.0978  0.3225
  319MOL0     H43966   1.452  10.249   9.556  0.3868 -3.5203 -0.1633
  319MOL0     H43967   1.496  10.264   9.792 -0.7551 -0.5317  1.0995
  319MOL0     H43968   1.343  10.353   9.820 -0.1070 -0.6817  0.1909
  319MOL0     H43969   1.579  10.446   9.655  0.7043  2.9565  0.4742
  319MOL0     H43970   1.424  10.538   9.658  1.1431 -0.2599 -1.0868
  319MOL0     H43971   1.658  10.401   9.905  0.0782  0.7908 -2.2703
  319MOL0     H43972   1.699  10.705  10.194  1.7670 -0.7972  2.3675
  319MOL0     H43973   1.815  10.620  10.099 -1.2139  3.1984 -2.2132
  319MOL0     H43974   1.592  10.500  10.266 -0.2337 -0.6401 -1.9194
  319MOL0     H43975   1.694  10.404  10.171  0.3779 -0.2349 -0.5489
  319MOL0     H43976   1.808  10.584  10.376  0.8607  0.3391  1.3165
  319MOL0     H43977   1.776  10.410  10.403 -3.0921  1.4361 -0.2988
  319MOL0     H43978   1.931  10.355  10.218  1.9440 -0.5240  1.2659
  319MOL0     H43979   1.971  10.516  10.197  1.0396  0.4254  0.6123
  319MOL0     H43980   2.143  10.313  10.587 -0.2925 -0.7802 -0.0289
  319MOL0     H43981   2.437  10.113  10.623  0.0125  0.3509  3.3397
  319MOL0     H43982   2.279  10.120  10.689  1.1282  0.6728  0.8387
  319MOL0     H43983   2.371  10.273  10.664  0.3217  1.3356 -2.1395
  319MOL0     H43984   2.628   9.906  10.586 -2.4736  0.1872  1.0149
  319MOL0     H43985   2.806   9.727  10.571  1.2296  0.2859 -1.4024
  319MOL0     H43986   2.919   9.628  10.322  2.7736  0.7539  1.1238
  319MOL0     H43987   2.990   9.567  10.468  2.2340 -0.0082 -1.2700
  319MOL0     H43988   2.975   9.339  10.379  0.2375 -0.7583  0.6787
  319MOL0     H43989   2.912   9.401  10.225  0.1185 -0.0280  0.0661
  319MOL0     H43990   3.170   9.487  10.330  1.9980  0.3528 -1.7172
  319MOL0     H43991   3.102   9.531  10.173  0.1182 -0.5806 -1.2368
  319MOL0     H43992   3.102   9.266  10.133 -2.5788 -0.2300  1.8229
  319MOL0     H43993   3.196   9.256  10.277 -2.3448  1.9076  1.4856
  319MOL0     H43994   3.341   9.270  10.064 -1.0743  1.6930 -2.0494
  319MOL0     H43995   3.276   9.428  10.032 -1.2105 -1.6563 -0.8240
  319MOL0     H43996   3.357   9.528  10.223 -0.0877 -1.5639  0.8112
  319MOL0     H43997   3.483   9.464  10.115  1.2007 -0.0446 -0.6423
  319MOL0     H43998   3.488   9.257  10.271  2.3572  1.9018 -2.3670
  319MOL0     H43999   3.400   9.341  10.395 -0.2263  0.0647 -0.3001
  319MOL0     H44000   3.559   9.505  10.429  0.1379 -3.1775  4.4120
  319MOL0     H44001   3.673   9.468  10.301  0.1119 -0.0810  1.0923
  319MOL0     H44002   2.559   9.502  10.300  5.0820 -2.4184  1.2980
  319MOL0     H44003   2.397   9.698  10.289 -0.3034  0.4217 -0.6472
  319MOL0     H44004   2.299  10.134  10.158  0.2848  1.0757 -1.1240
  319MOL0     H44005   2.147  10.336  10.163  2.7199  0.3488 -0.3030
  319MOL0     H44006   0.635  10.055   9.396  0.6285 -0.8428  0.0023
  319MOL0     H44007   0.393  10.043   9.332 -0.2781  1.9912  0.4731
  319MOL0     H44008   0.124  10.138   8.879 -1.2876 -0.3538 -2.9194
  319MOL0     H44009  -0.088  10.069   8.773 -0.6561  1.5893  1.3863
  319MOL0     H44010  -0.164   9.688   8.777  0.8822  0.4245 -0.2268
  319MOL0     H44011  -0.304   9.676   8.879  0.7938 -0.0428  0.6783
  319MOL0     H44012  -0.312   9.806   8.601 -0.1973  0.7616  0.6556
  319MOL0     H44013  -0.443   9.822   8.711  0.7531  1.6948  0.4708
  319MOL0     H44014  -0.328   9.561   8.604 -0.8731 -0.6767 -2.6439
  319MOL0     H44015  -0.443   9.544   8.737 -1.3508  1.1095 -0.4308
  319MOL0     H44016  -0.601   9.633   8.617 -0.8021 -0.7252 -0.4972
  319MOL0     H44017  -0.523   9.498   8.520 -0.3830  0.8308 -1.7721
  319MOL0     H44018  -0.430   9.800   8.254 -0.5357 -0.9195 -0.0173
  319MOL0     H44019  -0.110   9.734   9.041 -0.1333 -1.4137 -2.6884
  319MOL0     H44020   0.195   9.715   9.152 -1.6394 -1.2795  0.6240
  319MOL0     H44021   0.139   9.834   9.271 -0.0537 -0.5302  1.8427
  319MOL0     H44022   0.031   9.706   9.211  0.5592 -0.6872 -0.4900
  320MOL0     O44023   9.556   0.950   2.918  0.1226 -0.2611  0.0508
  320MOL0     C44024   9.444   0.988   2.953  0.4378 -0.3717  0.2920
  320MOL0     O44025   9.408   1.106   3.013  0.1201  0.2492  0.5120
  320MOL0     C44026   9.511   1.167   3.081  0.0822 -0.2198  0.1009
  320MOL0     C44027   9.567   1.274   3.022  0.0325  0.5268  0.4052
  320MOL0     C44028   9.684   1.326   3.080  0.1049 -0.0748  0.5260
  320MOL0     C44029   9.749   1.259   3.185  0.5109 -0.7286  0.7113
  320MOL0     O44030   9.861   1.322   3.231  0.7416 -1.3007 -0.1409
  320MOL0     C44031   9.950   1.252   3.310  0.4776  0.4776 -0.6278
  320MOL0     C44032  10.071   1.347   3.313  0.3893  0.3166 -0.3654
  320MOL0     C44033  10.150   1.365   3.181  0.3026  0.1221 -1.7482
  320MOL0     C44034  10.300   1.329   3.196 -1.2313 -0.2441  0.0164
  320MOL0     C44035  10.355   1.352   3.056 -0.1741  0.7522 -0.1149
  320MOL0     C44036  10.503   1.322   3.044  0.4745 -0.0363 -0.0837
  320MOL0     C44037  10.607   1.428   3.100 -0.1591 -0.6326  0.7869
  320MOL0     C44038  10.738   1.416   3.019  0.1661  0.0198 -0.0650
  320MOL0     N44039  10.839   1.504   3.079  0.9043 -0.6245  0.3279
  320MOL0     C44040  10.911   1.475   3.190  0.1439  1.1333  0.4621
  320MOL0     C44041  10.992   1.580   3.209  0.5575  0.0735  0.0153
  320MOL0     C44042  11.087   1.598   3.328  0.3123  0.0417  0.2250
  320MOL0     C44043  11.201   1.495   3.335 -0.4794 -1.0143  0.5437
  320MOL0     C44044  11.335   1.552   3.398 -0.9009  0.4952  0.4868
  320MOL0     C44045  11.448   1.465   3.354  0.2558  0.9035 -0.0550
  320MOL0     O44046  11.461   1.334   3.414 -0.4318  0.5602  0.3454
  320MOL0     C44047  11.575   1.255   3.401 -0.7567 -0.4505 -0.2819
  320MOL0     C44048  11.690   1.292   3.328 -0.0941  0.3124 -0.1996
  320MOL0     C44049  11.804   1.215   3.326 -1.3334 -0.1074  1.0662
  320MOL0     C44050  11.912   1.275   3.229  0.9056  0.2215  0.2816
  320MOL0     C44051  11.806   1.088   3.389  0.2565 -0.0045 -0.3739
  320MOL0     C44052  11.930   1.018   3.407 -0.0887 -0.1538  0.5752
  320MOL0     O44053  12.046   1.088   3.429  0.7757  0.0792 -0.0162
  320MOL0     C44054  12.164   1.023   3.444 -0.3480  0.1170  0.0516
  320MOL0     C44055  12.281   1.068   3.377 -0.2856 -0.6788 -0.3272
  320MOL0     C44056  12.410   1.011   3.396  0.2312 -0.1411 -0.7093
  320MOL0     C44057  12.428   0.916   3.497  0.0555 -0.2022  1.6203
  320MOL0     O44058  12.539   0.852   3.542  0.3343  0.0226  0.2389
  320MOL0     C44059  12.657   0.896   3.481  0.5531 -0.6636  0.1206
  320MOL0     C44060  12.767   0.867   3.591  0.5991 -0.0867 -0.2637
  320MOL0     C44061  12.729   0.931   3.724 -0.8879 -0.4738 -0.0749
  320MOL0     C44062  12.847   0.942   3.832  0.0119  0.4947  0.1082
  320MOL0     C44063  12.795   0.974   3.970  0.2595 -0.7310 -0.5657
  320MOL0     C44064  12.899   0.953   4.079  0.6910  0.1868  0.0949
  320MOL0     C44065  12.840   0.990   4.216 -0.2450  0.3441  0.1472
  320MOL0     C44066  12.942   1.002   4.331  0.0691 -0.8272 -0.1724
  320MOL0    Cl44067  12.853   0.999   4.484 -0.0913 -0.1251  0.1449
  320MOL0     C44068  12.313   0.866   3.545  0.4662 -0.2335 -0.9477
  320MOL0     C44069  12.185   0.917   3.531  0.3198 -0.4298  0.4107
  320MOL0     O44070  11.915   0.894   3.405  0.2104  0.1536  0.2089
  320MOL0     C44071  11.687   1.046   3.451 -0.3337  0.2868  0.2345
  320MOL0     C44072  11.580   1.125   3.460  0.4142  0.1902 -0.4804
  320MOL0     N44073  10.955   1.681   3.121 -0.4513  0.8374 -0.5014
  320MOL0     N44074  10.858   1.635   3.046  0.5228  0.3671  0.7492
  320MOL0     C44075   9.692   1.155   3.246 -0.3701 -0.5256  0.2173
  320MOL0     C44076   9.566   1.111   3.200 -1.2664 -0.5065  0.1945
  320MOL0     C44077   9.330   0.909   2.902 -0.2172  0.1250 -0.3260
  320MOL0     C44078   9.204   0.965   2.908  0.7234 -0.3519 -0.3034
  320MOL0     C44079   9.090   0.899   2.873 -0.5538  0.1522  0.4507
  320MOL0     C44080   9.099   0.767   2.827 -0.1320  0.2232  0.2352
  320MOL0     O44081   8.976   0.704   2.811  0.5915 -0.5475 -0.0687
  320MOL0     C44082   8.976   0.571   2.776  0.1648 -0.7470 -0.0081
  320MOL0     C44083   8.831   0.515   2.801  0.0254 -0.0690 -0.1756
  320MOL0     C44084   8.734   0.556   2.693 -0.1744 -0.3279  0.0347
  320MOL0     C44085   8.597   0.514   2.737 -1.6421 -0.8361 -0.2552
  320MOL0     C44086   8.491   0.585   2.661 -0.2823 -0.6206 -0.0061
  320MOL0     C44087   8.394   0.620   2.591  0.2069 -0.1511 -0.3285
  320MOL0     C44088   9.223   0.709   2.812  0.6019 -0.4643  1.1218
  320MOL0     C44089   9.344   0.780   2.841  1.2111  0.2558  0.2422
  320MOL0     C44090   9.474   0.708   2.797 -0.4300 -0.0224 -0.2004
  320MOL0     H44091   9.523   1.314   2.931  0.0500 -2.9175 -1.2879
  320MOL0     H44092   9.724   1.412   3.026 -1.7619  1.7270  1.8782
  320MOL0     H44093   9.971   1.155   3.263 -2.3523 -0.0475 -0.9929
  320MOL0     H44094   9.921   1.231   3.413 -2.8372 -1.5613 -1.8036
  320MOL0     H44095  10.047   1.440   3.365  1.3446 -0.4905  1.6674
  320MOL0     H44096  10.142   1.306   3.386  0.7538  2.4200  0.5318
  320MOL0     H44097  10.099   1.302   3.107 -0.8538 -0.4310 -0.5030
  320MOL0     H44098  10.144   1.471   3.154 -0.4431 -0.0668 -2.3522
  320MOL0     H44099  10.347   1.391   3.272  1.9856 -0.5098 -1.5921
  320MOL0     H44100  10.303   1.222   3.220 -1.5588 -0.2470  0.0547
  320MOL0     H44101  10.345   1.459   3.031  1.1559  0.9319  0.0539
  320MOL0     H44102  10.293   1.294   2.986 -1.0773 -1.8815  2.6697
  320MOL0     H44103  10.537   1.225   3.082 -0.6245 -0.9158 -1.2856
  320MOL0     H44104  10.515   1.297   2.938 -0.6502 -1.2459  0.0572
  320MOL0     H44105  10.635   1.412   3.204 -0.7443 -1.0499  0.8870
  320MOL0     H44106  10.558   1.524   3.083 -1.5014 -1.7168 -2.3381
  320MOL0     H44107  10.760   1.309   3.023 -0.9785 -0.3219 -1.8012
  320MOL0     H44108  10.714   1.450   2.918  2.0383  0.6383 -0.3290
  320MOL0     H44109  10.900   1.387   3.253  0.1918  0.7897 -0.0065
  320MOL0     H44110  11.026   1.586   3.418  0.3031  0.5564  0.2940
  320MOL0     H44111  11.124   1.699   3.309 -2.6600  1.1105 -0.4610
  320MOL0     H44112  11.177   1.401   3.386  1.0438 -0.3347  2.6689
  320MOL0     H44113  11.231   1.466   3.234  5.7703  2.3778  0.9390
  320MOL0     H44114  11.355   1.652   3.359 -2.1260 -0.0011 -1.6005
  320MOL0     H44115  11.343   1.553   3.507 -0.9552  2.1239  0.5014
  320MOL0     H44116  11.447   1.459   3.244  0.7550 -0.0409 -0.0234
  320MOL0     H44117  11.541   1.514   3.383  2.0416 -1.8486 -0.7321
  320MOL0     H44118  11.694   1.386   3.274 -0.5352 -0.1723 -1.1071
  320MOL0     H44119  11.991   1.203   3.204 -0.1835 -1.3829  1.2931
  320MOL0     H44120  11.957   1.365   3.273  0.3413  0.5156  0.2662
  320MOL0     H44121  11.853   1.299   3.140  0.8277  0.7246  0.4642
  320MOL0     H44122  12.278   1.158   3.316 -1.9895  0.1605  0.9010
  320MOL0     H44123  12.499   1.036   3.340  0.5158  1.4691  0.3835
  320MOL0     H44124  12.681   0.848   3.385  1.4361 -0.7410  0.3766
  320MOL0     H44125  12.652   1.004   3.469 -0.0801 -0.6519  0.4569
  320MOL0     H44126  12.775   0.759   3.607 -2.1279 -0.3585 -0.3206
  320MOL0     H44127  12.867   0.904   3.564  0.1621  2.6971  1.4562
  320MOL0     H44128  12.646   0.871   3.762 -0.8858  0.1699  0.9999
  320MOL0     H44129  12.688   1.031   3.713  1.9480  0.8297  0.2321
  320MOL0     H44130  12.923   1.012   3.796 -1.1306  2.1488  0.7965
  320MOL0     H44131  12.898   0.845   3.837  2.8595  1.6793 -2.5110
  320MOL0     H44132  12.757   1.076   3.975 -0.1414 -0.8222 -1.5798
  320MOL0     H44133  12.713   0.905   3.992  0.2304 -1.4766 -2.8161
  320MOL0     H44134  12.991   1.009   4.064  0.6695 -0.1080 -1.2737
  320MOL0     H44135  12.922   0.846   4.083  0.2777  0.0842 -0.1704
  320MOL0     H44136  12.776   0.904   4.238  0.9827 -0.5462  0.3664
  320MOL0     H44137  12.791   1.088   4.214 -0.8180  0.1309  1.7507
  320MOL0     H44138  12.986   1.102   4.323 -0.6640 -0.3060  1.7816
  320MOL0     H44139  13.022   0.927   4.333  3.2871  2.3386  2.5303
  320MOL0     H44140  12.315   0.781   3.612 -1.1661 -2.0813 -3.0581
  320MOL0     H44141  12.101   0.867   3.579 -1.7711  1.5636 -0.9737
  320MOL0     H44142  11.684   0.948   3.497 -1.0642 -0.2312 -0.8443
  320MOL0     H44143  11.489   1.087   3.506  1.1185 -0.8250  0.1238
  320MOL0     H44144   9.732   1.121   3.341 -1.8201  0.4319  1.1935
  320MOL0     H44145   9.508   1.034   3.250  0.4883 -1.9615  0.0693
  320MOL0     H44146   9.187   1.066   2.946  1.4176 -0.3425 -0.0112
  320MOL0     H44147   8.993   0.947   2.878 -0.0377  1.0991  2.3014
  320MOL0     H44148   9.021   0.570   2.676  1.4773  1.0853  0.5155
  320MOL0     H44149   9.042   0.515   2.843  0.2768  0.3566  0.8339
  320MOL0     H44150   8.795   0.530   2.903 -1.6103 -0.8112 -0.6102
  320MOL0     H44151   8.825   0.407   2.789  0.0641  0.0743 -1.7190
  320MOL0     H44152   8.724   0.665   2.691 -1.7404 -0.4590 -1.3425
  320MOL0     H44153   8.754   0.515   2.594 -0.2757 -0.8614  0.2354
  320MOL0     H44154   8.584   0.521   2.845 -1.2913  0.4393 -0.2745
  320MOL0     H44155   8.584   0.409   2.710 -1.1818 -1.3384  1.3650
  320MOL0     H44156   8.311   0.651   2.532  1.1288 -2.2449 -2.9225
  320MOL0     H44157   9.228   0.605   2.780 -2.7406 -0.8613  1.4654
  320MOL0     H44158   9.541   0.692   2.882 -1.5435 -3.3956  0.1782
  320MOL0     H44159   9.459   0.603   2.771 -1.5233  0.1407 -0.2867
  320MOL0     H44160   9.523   0.753   2.710 -1.7983 -0.1147 -1.0537
  321MOL0     O44161   8.564   7.668  10.735 -0.0968  0.3596  0.1716
  321MOL0     C44162   8.496   7.746  10.670 -0.4384 -0.8751 -0.1978
  321MOL0     O44163   8.534   7.797  10.548  0.3706  0.1614  0.6446
  321MOL0     C44164   8.673   7.777  10.516  1.1120  0.0685  1.0690
  321MOL0     C44165   8.774   7.841  10.587 -0.5223 -0.2527 -0.1162
  321MOL0     C44166   8.915   7.822  10.547  0.4855 -0.6919 -0.2435
  321MOL0     C44167   8.947   7.736  10.436 -0.3425 -0.2331  0.4487
  321MOL0     O44168   9.087   7.729  10.402  0.3661  0.0351  0.0213
  321MOL0     C44169   9.133   7.628  10.309 -0.5398 -0.5059 -0.6218
  321MOL0     C44170   9.276   7.676  10.264 -0.7619 -0.0658  0.9000
  321MOL0     C44171   9.377   7.634  10.366  0.0795 -0.0835 -1.1127
  321MOL0     C44172   9.521   7.653  10.329 -0.6668 -0.2212  0.6552
  321MOL0     C44173   9.615   7.581  10.422 -0.0602  0.7505  0.9163
  321MOL0     C44174   9.743   7.542  10.341 -0.2043  0.9832 -0.4402
  321MOL0     C44175   9.850   7.450  10.413  0.0473 -0.3855 -0.2367
  321MOL0     C44176   9.907   7.501  10.547 -0.5946 -0.2400 -0.0019
  321MOL0     N44177  10.003   7.609  10.520 -0.9882 -0.3322  0.5684
  321MOL0     C44178   9.985   7.748  10.551 -0.7239 -0.3435  0.4944
  321MOL0     C44179  10.094   7.809  10.496 -0.5822  0.6355 -0.1149
  321MOL0     C44180  10.104   7.955  10.479  0.1738 -0.1211 -0.3308
  321MOL0     C44181  10.170   8.021  10.597 -0.5333  0.5861 -0.4290
  321MOL0     C44182  10.157   8.171  10.600 -0.0668 -0.2890 -0.1249
  321MOL0     C44183  10.196   8.223  10.740  0.8996 -0.5745  0.9284
  321MOL0     O44184  10.227   8.359  10.725  0.1411 -0.3788  0.0822
  321MOL0     C44185  10.358   8.395  10.681 -0.0337  0.8130 -0.7473
  321MOL0     C44186  10.469   8.305  10.664 -0.4879  0.3091 -0.0131
  321MOL0     C44187  10.603   8.355  10.639 -0.5166 -0.1985  0.6033
  321MOL0     C44188  10.708   8.251  10.629  0.1222 -0.4273 -0.0876
  321MOL0     C44189  10.622   8.496  10.622  0.5688  0.1799  1.0713
  321MOL0     C44190  10.744   8.557  10.585  0.0470  0.4577 -1.1448
  321MOL0     O44191  10.744   8.693  10.557 -0.0091 -0.0233 -0.1304
  321MOL0     C44192  10.862   8.760  10.529 -0.0845 -0.5628  0.5272
  321MOL0     C44193  10.848   8.868  10.436  0.0834 -0.5953 -0.8173
  321MOL0     C44194  10.960   8.954  10.408 -0.2519 -0.0102  1.0831
  321MOL0     C44195  11.082   8.933  10.456 -0.4692 -0.1594  0.0171
  321MOL0     O44196  11.194   9.013  10.437 -0.3126 -0.1743 -0.1063
  321MOL0     C44197  11.200   9.078  10.311 -0.8386  0.7500  0.6377
  321MOL0     C44198  11.311   9.182  10.320 -0.6484  0.0269  0.5863
  321MOL0     C44199  11.442   9.134  10.248  0.0536  0.0152  0.2412
  321MOL0     C44200  11.521   9.261  10.214 -0.9104  0.3456 -0.1255
  321MOL0     C44201  11.666   9.238  10.151  0.7443  0.4054 -0.1350
  321MOL0     C44202  11.774   9.190  10.255 -0.3107  1.0650 -0.2957
  321MOL0     C44203  11.919   9.177  10.196  1.1959  0.1862  0.3492
  321MOL0     C44204  11.968   9.322  10.172  0.2246  0.1779  1.0253
  321MOL0    Cl44205  12.026   9.409  10.323 -0.0140 -0.0366  0.0475
  321MOL0     C44206  11.103   8.819  10.536 -0.5654 -0.0375 -0.0658
  321MOL0     C44207  10.992   8.736  10.577 -0.0282 -0.6156  0.9392
  321MOL0     O44208  10.847   8.489  10.574  0.1626  0.3611  0.2425
  321MOL0     C44209  10.502   8.575  10.628 -1.0833  0.2045  0.1314
  321MOL0     C44210  10.381   8.524  10.663 -0.5964  0.6392  0.1411
  321MOL0     N44211  10.179   7.715  10.438  0.7688 -0.1739 -0.3656
  321MOL0     N44212  10.120   7.599  10.451 -0.4219  0.0795  0.8813
  321MOL0     C44213   8.835   7.677  10.369  0.3128 -0.8163 -0.4323
  321MOL0     C44214   8.706   7.697  10.404 -0.2559  0.4705  0.2753
  321MOL0     C44215   8.360   7.768  10.731 -0.1449  0.2661  0.9731
  321MOL0     C44216   8.282   7.866  10.661  0.1042  0.2158  0.0251
  321MOL0     C44217   8.148   7.886  10.707  0.0932  0.5372  0.8407
  321MOL0     C44218   8.097   7.831  10.824  0.3536 -0.3674  0.3112
  321MOL0     O44219   7.976   7.855  10.883  0.3254  0.1520  0.0374
  321MOL0     C44220   7.889   7.947  10.818  0.3671  0.3015  0.0662
  321MOL0     C44221   7.783   7.989  10.915  0.8844 -0.8517  0.2737
  321MOL0     C44222   7.682   8.078  10.855 -0.9837 -0.0930 -0.0643
  321MOL0     C44223   7.547   8.012  10.850  0.2242  0.2550 -0.7022
  321MOL0     C44224   7.448   8.091  10.775 -0.0676 -0.0669  0.2126
  321MOL0     C44225   7.395   8.171  10.703 -0.6973 -0.9871  0.4183
  321MOL0     C44226   8.177   7.745  10.891  0.2658  0.1148  0.7582
  321MOL0     C44227   8.311   7.713  10.853  0.7651 -1.0795 -0.4027
  321MOL0     C44228   8.384   7.624  10.954 -0.0051 -0.0583 -1.0024
  321MOL0     H44229   8.754   7.901  10.675 -0.6331 -0.8319  0.2585
  321MOL0     H44230   8.983   7.859  10.624  1.0173  0.6251 -1.3175
  321MOL0     H44231   9.073   7.618  10.219  0.3594  0.1956 -1.3152
  321MOL0     H44232   9.142   7.527  10.350  1.3419 -1.2031 -2.5863
  321MOL0     H44233   9.286   7.625  10.168  3.0091 -0.5531  1.3841
  321MOL0     H44234   9.278   7.781  10.234  1.2631 -0.8418 -2.1702
  321MOL0     H44235   9.365   7.682  10.463 -0.9872 -0.3850 -1.0891
  321MOL0     H44236   9.370   7.527  10.386 -0.8978  0.2461  0.4593
  321MOL0     H44237   9.537   7.602  10.233  1.9681 -1.0735  1.4465
  321MOL0     H44238   9.554   7.757  10.333  0.1081 -0.2361 -2.6122
  321MOL0     H44239   9.575   7.493  10.474  3.4809  0.6204  3.8655
  321MOL0     H44240   9.643   7.652  10.500  2.7787  0.1198  0.6005
  321MOL0     H44241   9.712   7.490  10.250 -0.8983  1.0159 -0.2326
  321MOL0     H44242   9.800   7.631  10.314  0.9786  0.7421  1.1017
  321MOL0     H44243   9.924   7.433  10.335  0.8958 -2.1238  0.8665
  321MOL0     H44244   9.816   7.347  10.427  1.5506 -0.9173 -0.3677
  321MOL0     H44245   9.821   7.533  10.606 -1.1017 -0.5420 -0.5681
  321MOL0     H44246   9.960   7.419  10.597 -2.7524 -2.6911 -1.4864
  321MOL0     H44247   9.914   7.799  10.614  0.5393  3.2937 -0.7149
  321MOL0     H44248  10.008   8.004  10.463  0.2323 -0.0334 -0.4219
  321MOL0     H44249  10.169   7.968  10.391 -0.8035  1.4059 -0.8708
  321MOL0     H44250  10.120   7.978  10.685 -1.7031 -0.4424 -1.5442
  321MOL0     H44251  10.275   7.993  10.600 -0.6392  0.1097 -0.9359
  321MOL0     H44252  10.218   8.221  10.524  1.3474 -1.4758  0.1713
  321MOL0     H44253  10.051   8.191  10.582 -0.1012  0.5762  0.9783
  321MOL0     H44254  10.109   8.214  10.805 -0.6845 -0.1949 -1.0462
  321MOL0     H44255  10.277   8.174  10.795  1.7744 -0.1717  0.0253
  321MOL0     H44256  10.451   8.199  10.679  0.0026  0.2899  0.4802
  321MOL0     H44257  10.738   8.232  10.526 -1.7251 -0.4268 -0.6592
  321MOL0     H44258  10.666   8.156  10.662 -2.8449  0.9885  0.5161
  321MOL0     H44259  10.795   8.261  10.695 -0.2004  0.5370  0.2028
  321MOL0     H44260  10.750   8.885  10.392  0.6108  0.0061 -1.7831
  321MOL0     H44261  10.953   9.038  10.340 -0.3446 -1.4101 -0.7415
  321MOL0     H44262  11.213   9.004  10.232 -3.4904 -0.1354  0.9252
  321MOL0     H44263  11.107   9.134  10.299 -1.8327 -0.4716  2.1904
  321MOL0     H44264  11.283   9.278  10.277 -1.4287 -0.3560  0.2183
  321MOL0     H44265  11.333   9.200  10.425 -0.0356  0.6171  0.3623
  321MOL0     H44266  11.424   9.070  10.161 -0.8244 -1.4444  1.4573
  321MOL0     H44267  11.494   9.068  10.318  2.3171 -1.7176 -2.8448
  321MOL0     H44268  11.531   9.323  10.304  1.4075 -0.8839  0.5374
  321MOL0     H44269  11.457   9.316  10.144 -2.2585  0.9582  1.5240
  321MOL0     H44270  11.660   9.164  10.070  0.2281  0.3570 -0.0572
  321MOL0     H44271  11.697   9.333  10.107 -1.8095 -0.3004 -4.0202
  321MOL0     H44272  11.747   9.093  10.296  0.6468  1.5064  1.4987
  321MOL0     H44273  11.779   9.258  10.341  0.2217  0.6862 -0.0217
  321MOL0     H44274  11.917   9.127  10.099  2.0100 -0.4306  0.6414
  321MOL0     H44275  11.977   9.104  10.251 -1.8037 -0.9524  2.2501
  321MOL0     H44276  11.894   9.372  10.109 -2.5424 -4.1910  0.3326
  321MOL0     H44277  12.053   9.300  10.107  0.6983  1.3068  1.2339
  321MOL0     H44278  11.201   8.810  10.580 -0.1987  0.5090 -0.7542
  321MOL0     H44279  11.010   8.645  10.634 -0.4506 -2.4063 -1.6197
  321MOL0     H44280  10.500   8.682  10.606 -3.1584  1.0972  3.7925
  321MOL0     H44281  10.300   8.596  10.673 -1.5425 -0.5346  1.2685
  321MOL0     H44282   8.861   7.627  10.276  1.1569 -0.4479 -0.4022
  321MOL0     H44283   8.631   7.647  10.343 -2.0789 -2.5539  4.5427
  321MOL0     H44284   8.306   7.911  10.565 -2.4363  0.3582 -0.6110
  321MOL0     H44285   8.091   7.965  10.658  1.1846 -0.1436 -1.6333
  321MOL0     H44286   7.936   8.036  10.777 -2.2057  1.4415 -0.6089
  321MOL0     H44287   7.833   7.903  10.735  2.8829 -1.0032 -1.0402
  321MOL0     H44288   7.830   8.041  10.999  0.1982 -2.8313  1.9603
  321MOL0     H44289   7.739   7.902  10.964  2.2137 -0.7303  1.7935
  321MOL0     H44290   7.679   8.171  10.913 -0.7434  1.9002 -2.9877
  321MOL0     H44291   7.709   8.107  10.752  0.3267 -2.0192 -0.3117
  321MOL0     H44292   7.513   7.986  10.951  1.9331 -1.7344 -0.5863
  321MOL0     H44293   7.565   7.922  10.791  0.8197  0.4393 -0.8046
  321MOL0     H44294   7.349   8.245  10.640  0.8135  0.0098  0.4490
  321MOL0     H44295   8.142   7.688  10.976 -0.4557  0.4778  0.7109
  321MOL0     H44296   8.321   7.578  11.030 -0.3234  0.3844 -0.9928
  321MOL0     H44297   8.432   7.542  10.900  3.5416  1.4765 -0.5325
  321MOL0     H44298   8.463   7.687  10.996  0.5774 -1.5151  0.1740
  322MOL0     O44299   5.844   1.521   9.185 -0.2624  0.4817 -0.4237
  322MOL0     C44300   5.740   1.585   9.154 -0.0596  0.6099  0.2532
  322MOL0     O44301   5.728   1.718   9.122 -0.9876  0.1567 -0.2288
  322MOL0     C44302   5.829   1.801   9.157  0.3436  0.6281  0.2662
  322MOL0     C44303   5.909   1.866   9.060  0.5839 -0.8607 -0.0857
  322MOL0     C44304   6.017   1.955   9.098 -0.0168  0.6022  0.2131
  322MOL0     C44305   6.031   1.983   9.234 -0.5704 -0.5351  0.2278
  322MOL0     O44306   6.133   2.077   9.255 -0.3203 -0.9394  0.3148
  322MOL0     C44307   6.144   2.132   9.386  0.4860 -0.6167  0.5063
  322MOL0     C44308   6.206   2.278   9.390  0.0721  0.1716 -0.2333
  322MOL0     C44309   6.153   2.355   9.507 -0.3052 -0.0337 -0.1686
  322MOL0     C44310   6.208   2.505   9.502  0.5439  0.6056  0.7314
  322MOL0     C44311   6.335   2.514   9.584 -0.4487  1.0347 -0.2489
  322MOL0     C44312   6.414   2.651   9.591  0.1326  0.0803 -0.2416
  322MOL0     C44313   6.525   2.658   9.700  0.6719 -0.4272  0.2687
  322MOL0     C44314   6.598   2.791   9.666 -1.1269 -0.4950 -0.3445
  322MOL0     N44315   6.673   2.833   9.780  1.2532 -0.3771  0.2233
  322MOL0     C44316   6.609   2.896   9.888  0.6016 -0.4465  0.5137
  322MOL0     C44317   6.715   2.927   9.970 -0.8308  0.3056  0.0343
  322MOL0     C44318   6.693   3.001  10.099  0.6597  0.3652  0.3698
  322MOL0     C44319   6.686   3.151  10.071  0.1259  0.0986  0.3858
  322MOL0     C44320   6.630   3.223  10.198  0.3932  0.4937 -0.4690
  322MOL0     C44321   6.641   3.373  10.181  0.4354 -0.4702 -0.2414
  322MOL0     O44322   6.561   3.422  10.073 -0.1243  0.1025  0.1109
  322MOL0     C44323   6.419   3.415  10.084 -0.0911  0.8479  0.1422
  322MOL0     C44324   6.340   3.414   9.966  0.1387  0.2252  0.7721
  322MOL0     C44325   6.204   3.401   9.963  0.0284  0.2025 -0.0654
  322MOL0     C44326   6.142   3.372   9.824  0.0138  0.7792 -0.6152
  322MOL0     C44327   6.136   3.413  10.091  0.0768 -0.7008  0.6126
  322MOL0     C44328   5.991   3.410  10.113  0.2122  0.7354  0.7113
  322MOL0     O44329   5.931   3.453   9.999  0.1672  0.1177  0.3070
  322MOL0     C44330   5.798   3.493   9.999 -0.8555 -1.1228 -0.0210
  322MOL0     C44331   5.731   3.476   9.880 -0.1806 -0.5778  0.5242
  322MOL0     C44332   5.598   3.519   9.873  0.1795  0.5538  0.4506
  322MOL0     C44333   5.540   3.593   9.971  0.1558  0.5307 -0.1890
  322MOL0     O44334   5.407   3.632   9.972  0.0233 -0.1942  0.1681
  322MOL0     C44335   5.320   3.582   9.864  0.5806 -0.1928 -0.5710
  322MOL0     C44336   5.178   3.632   9.883  0.9123  0.0194  0.0418
  322MOL0     C44337   5.157   3.757   9.803  0.5338  0.0503 -0.9261
  322MOL0     C44338   5.025   3.827   9.831  0.0438 -0.4056 -0.1666
  322MOL0     C44339   4.912   3.777   9.745  0.0168  0.1550  0.5381
  322MOL0     C44340   4.771   3.834   9.778  0.7974 -0.3791  0.8046
  322MOL0     C44341   4.662   3.796   9.676 -0.4793 -0.8971 -0.3693
  322MOL0     C44342   4.522   3.833   9.723  0.3838 -0.2403 -0.6296
  322MOL0    Cl44343   4.500   4.009   9.709  0.2907 -0.2698 -0.0191
  322MOL0     C44344   5.621   3.619  10.086  0.2323  0.2390  0.3486
  322MOL0     C44345   5.749   3.565  10.100 -0.1415 -0.0748  0.5301
  322MOL0     O44346   5.934   3.381  10.220  0.2166  0.6431  0.5382
  322MOL0     C44347   6.215   3.406  10.204  0.5032 -1.0816 -0.2822
  322MOL0     C44348   6.347   3.407  10.203 -0.2845 -0.2812  0.5574
  322MOL0     N44349   6.829   2.880   9.911  0.4988  0.4889 -0.0996
  322MOL0     N44350   6.802   2.818   9.804 -0.3459 -0.7301 -0.0090
  322MOL0     C44351   5.964   1.908   9.329  0.5010  0.2395  0.7023
  322MOL0     C44352   5.865   1.811   9.294  0.3365  0.2102  0.7368
  322MOL0     C44353   5.625   1.507   9.134  0.0118 -0.2996 -0.2522
  322MOL0     C44354   5.535   1.527   9.027 -0.4493 -0.1094 -0.5522
  322MOL0     C44355   5.416   1.460   9.021  0.4803 -0.1835  0.5685
  322MOL0     C44356   5.376   1.362   9.111  0.1465  0.3679 -0.6586
  322MOL0     O44357   5.253   1.295   9.102  0.0049  0.3341 -0.0459
  322MOL0     C44358   5.193   1.245   9.221  0.4814  0.2240  0.6623
  322MOL0     C44359   5.040   1.228   9.193  0.8232 -0.4587  0.2248
  322MOL0     C44360   4.995   1.112   9.102  0.0192 -0.1262  0.4879
  322MOL0     C44361   4.854   1.085   9.126  1.0486 -0.4145 -0.9851
  322MOL0     C44362   4.808   0.991   9.027 -0.2929  1.1593  0.1837
  322MOL0     C44363   4.776   0.899   8.959  0.3120  0.2158  0.4897
  322MOL0     C44364   5.465   1.340   9.214 -0.3383  0.4692 -0.1965
  322MOL0     C44365   5.584   1.409   9.231 -0.8188  0.6950 -0.5313
  322MOL0     C44366   5.657   1.369   9.354  0.2022 -0.1703 -0.1915
  322MOL0     H44367   5.880   1.845   8.957  1.7142 -0.2686 -0.5411
  322MOL0     H44368   6.074   2.007   9.021  1.2771 -0.9470  0.0692
  322MOL0     H44369   6.193   2.067   9.459  1.1770  0.3376  0.9220
  322MOL0     H44370   6.045   2.131   9.432  0.4541 -1.6106  0.4323
  322MOL0     H44371   6.313   2.258   9.401 -0.2667 -3.0759 -1.6694
  322MOL0     H44372   6.201   2.331   9.295  5.4705 -1.2704 -1.7195
  322MOL0     H44373   6.044   2.351   9.521 -0.1901 -1.1057  0.4981
  322MOL0     H44374   6.206   2.310   9.591  0.6812  1.4555  0.0302
  322MOL0     H44375   6.221   2.542   9.400 -0.8926  1.3028  0.7748
  322MOL0     H44376   6.128   2.565   9.547 -2.2451 -0.4555 -2.4090
  322MOL0     H44377   6.406   2.439   9.547 -1.8602 -1.2331  1.3511
  322MOL0     H44378   6.308   2.487   9.687  3.0130  0.0202  0.5357
  322MOL0     H44379   6.456   2.670   9.492  3.1851  0.3572  1.0041
  322MOL0     H44380   6.340   2.726   9.622 -0.3471 -0.1398 -0.8272
  322MOL0     H44381   6.585   2.567   9.702 -2.0056 -2.2869  1.0770
  322MOL0     H44382   6.471   2.670   9.794  1.8012  0.7612  0.7968
  322MOL0     H44383   6.676   2.771   9.591 -1.8396 -2.0062 -0.7266
  322MOL0     H44384   6.538   2.876   9.631 -0.5741 -0.0895 -0.3198
  322MOL0     H44385   6.505   2.925   9.899  1.5683  3.8952  0.0972
  322MOL0     H44386   6.755   2.971  10.184 -1.0207  0.8483  1.8220
  322MOL0     H44387   6.586   2.986  10.119  0.3818  0.6758 -0.8007
  322MOL0     H44388   6.785   3.188  10.044 -0.8292  0.0881 -3.8820
  322MOL0     H44389   6.625   3.166   9.981 -0.0907  0.6985  0.6306
  322MOL0     H44390   6.527   3.192  10.219  0.3331 -0.4007 -1.9538
  322MOL0     H44391   6.673   3.206  10.297 -0.7171 -0.2295 -0.0870
  322MOL0     H44392   6.616   3.422  10.276 -1.4490 -3.6720  1.0460
  322MOL0     H44393   6.748   3.391  10.166  0.2139  0.2603 -1.0544
  322MOL0     H44394   6.398   3.404   9.875  0.0067 -0.5549  0.7697
  322MOL0     H44395   6.086   3.461   9.793  1.4423  2.4010  1.1957
  322MOL0     H44396   6.080   3.283   9.818  1.0615 -0.0622  0.5329
  322MOL0     H44397   6.223   3.365   9.751 -0.7788  0.6296 -1.5126
  322MOL0     H44398   5.783   3.425   9.799 -0.9492  2.3487 -2.0182
  322MOL0     H44399   5.540   3.480   9.790 -1.3844  2.3231  0.6399
  322MOL0     H44400   5.356   3.620   9.769 -1.1626  2.2315 -0.3573
  322MOL0     H44401   5.309   3.473   9.857  1.0439 -0.4650  1.9436
  322MOL0     H44402   5.099   3.569   9.840  0.0861  1.5667 -0.8021
  322MOL0     H44403   5.154   3.647   9.988  0.6238 -0.2394  0.0165
  322MOL0     H44404   5.185   3.745   9.698  1.7547  3.9116 -1.1971
  322MOL0     H44405   5.240   3.815   9.845  0.4523 -0.6695  0.2774
  322MOL0     H44406   5.042   3.933   9.811  2.8957 -1.1081 -2.0032
  322MOL0     H44407   4.999   3.815   9.937  2.1490 -0.5402  0.3642
  322MOL0     H44408   4.933   3.811   9.644 -0.7644  0.7982  0.5927
  322MOL0     H44409   4.912   3.667   9.748 -1.6612  0.1103 -0.2767
  322MOL0     H44410   4.780   3.942   9.773  3.6461 -0.6110 -2.3119
  322MOL0     H44411   4.733   3.801   9.876 -1.4883 -0.8375 -0.1561
  322MOL0     H44412   4.677   3.688   9.660  2.2208 -0.5898 -0.3869
  322MOL0     H44413   4.681   3.849   9.583 -4.2606  1.4279 -0.0391
  322MOL0     H44414   4.515   3.807   9.829  0.8826  0.1513 -0.4941
  322MOL0     H44415   4.440   3.779   9.676 -0.7381  0.5406  0.3756
  322MOL0     H44416   5.581   3.677  10.168 -1.2006  1.3276 -1.0459
  322MOL0     H44417   5.804   3.588  10.192 -0.2998  0.5995  0.4619
  322MOL0     H44418   6.169   3.401  10.302  0.4963  0.9940 -0.1375
  322MOL0     H44419   6.406   3.424  10.292 -0.8807  2.0026  0.5615
  322MOL0     H44420   6.009   1.909   9.428  1.7732 -0.3086  0.1550
  322MOL0     H44421   5.817   1.749   9.368  0.4067 -0.4379  0.2468
  322MOL0     H44422   5.554   1.594   8.943 -3.3725  0.6734 -0.7024
  322MOL0     H44423   5.357   1.462   8.930  0.6057  1.1403  0.4990
  322MOL0     H44424   5.235   1.150   9.258  1.9234  1.4400  2.3266
  322MOL0     H44425   5.197   1.317   9.303  2.0050 -1.4442  2.1588
  322MOL0     H44426   4.998   1.319   9.150 -0.1050 -0.1911  1.6014
  322MOL0     H44427   4.986   1.216   9.288 -0.1789 -0.0953 -0.2865
  322MOL0     H44428   5.016   1.139   8.999 -1.5944 -0.6399 -0.0151
  322MOL0     H44429   5.050   1.024   9.138 -0.8319 -1.4862 -1.3376
  322MOL0     H44430   4.784   1.169   9.132  0.1107 -1.2510  1.2589
  322MOL0     H44431   4.840   1.033   9.222 -2.4074  0.7484 -0.7119
  322MOL0     H44432   4.734   0.815   8.906 -0.7692  0.0474  1.5881
  322MOL0     H44433   5.439   1.264   9.287 -0.7521 -0.6462 -1.4823
  322MOL0     H44434   5.687   1.454   9.415 -0.6629 -0.7777  1.1115
  322MOL0     H44435   5.605   1.305   9.426  2.9594  0.3648  2.5262
  322MOL0     H44436   5.747   1.308   9.338 -0.9488 -2.3411  1.0719
  323MOL0     O44437   8.333   9.395   7.394  0.3439 -0.0499  0.3299
  323MOL0     C44438   8.292   9.513   7.374  0.2747  0.2847  0.2677
  323MOL0     O44439   8.366   9.630   7.402 -0.0940 -0.3968  0.3534
  323MOL0     C44440   8.503   9.626   7.392  0.3164  0.5406  0.1748
  323MOL0     C44441   8.574   9.539   7.481 -0.1448 -0.5605  0.2263
  323MOL0     C44442   8.714   9.527   7.455  0.7954  0.4795  1.0398
  323MOL0     C44443   8.775   9.597   7.356  0.3754  0.1526 -0.2009
  323MOL0     O44444   8.910   9.578   7.356 -0.5546  0.2076  0.2054
  323MOL0     C44445   8.993   9.614   7.249  0.4297  0.6849  0.6067
  323MOL0     C44446   9.130   9.592   7.298 -0.3119  0.3095  0.4926
  323MOL0     C44447   9.232   9.622   7.192 -0.3920 -0.1592 -0.1437
  323MOL0     C44448   9.368   9.566   7.233 -0.1078 -0.0314  0.6488
  323MOL0     C44449   9.457   9.547   7.099 -0.0853 -0.3373 -0.1999
  323MOL0     C44450   9.606   9.524   7.136  0.0994  0.8573  0.4743
  323MOL0     C44451   9.683   9.499   7.004  0.1647  0.1627 -0.8011
  323MOL0     C44452   9.668   9.349   6.947 -0.5606  0.2796  0.4413
  323MOL0     N44453   9.762   9.339   6.837 -0.1837  0.3688 -0.3724
  323MOL0     C44454   9.864   9.247   6.817 -0.4101 -0.4519  0.6885
  323MOL0     C44455   9.911   9.257   6.692  0.0655 -0.4988  0.1318
  323MOL0     C44456  10.015   9.171   6.634 -0.0659 -0.2029 -0.6824
  323MOL0     C44457  10.157   9.242   6.626  0.1205  0.0366  0.5576
  323MOL0     C44458  10.269   9.151   6.589  0.6846  0.3350 -0.0397
  323MOL0     C44459  10.272   9.133   6.443  0.6947  0.1610 -0.6966
  323MOL0     O44460  10.380   9.037   6.416 -0.4097  0.2633  1.0651
  323MOL0     C44461  10.510   9.084   6.397  0.1092  0.6629 -1.2138
  323MOL0     C44462  10.546   9.205   6.340 -0.7537 -0.6801 -0.1347
  323MOL0     C44463  10.685   9.229   6.322 -0.1785  0.2850  0.2534
  323MOL0     C44464  10.726   9.362   6.252  0.8770 -0.6313 -0.2113
  323MOL0     C44465  10.789   9.151   6.394  0.0805 -0.3915 -0.5216
  323MOL0     C44466  10.942   9.174   6.385  0.0418 -0.5421 -0.1419
  323MOL0     O44467  11.023   9.091   6.458  0.3195 -0.5943  0.3282
  323MOL0     C44468  11.159   9.100   6.429  0.7821 -0.4240 -0.4910
  323MOL0     C44469  11.204   9.090   6.296 -0.0399  0.5365 -0.3157
  323MOL0     C44470  11.345   9.113   6.278 -0.5362  0.1092  0.1904
  323MOL0     C44471  11.432   9.135   6.380 -0.1455  0.0961  0.0620
  323MOL0     O44472  11.567   9.139   6.342  0.1692 -0.4694  0.4192
  323MOL0     C44473  11.666   9.205   6.425 -1.0693 -0.7945  0.2445
  323MOL0     C44474  11.784   9.251   6.338  0.0345 -0.7062  0.0973
  323MOL0     C44475  11.908   9.306   6.414  0.6755  0.0769 -0.1921
  323MOL0     C44476  11.996   9.400   6.327  0.3210 -0.1128  0.0878
  323MOL0     C44477  12.134   9.425   6.385  0.3733 -0.5768 -0.3287
  323MOL0     C44478  12.241   9.322   6.356 -0.1218 -0.4824  0.1177
  323MOL0     C44479  12.362   9.356   6.439  0.4042 -0.4939 -0.3478
  323MOL0     C44480  12.451   9.238   6.453 -0.4414 -0.3422 -0.1860
  323MOL0    Cl44481  12.384   9.115   6.561  0.3190 -0.1133 -0.4199
  323MOL0     C44482  11.392   9.153   6.510  0.3637 -0.3714 -0.4749
  323MOL0     C44483  11.258   9.127   6.529  0.1872 -0.6969  0.0852
  323MOL0     O44484  10.977   9.273   6.320  0.3547 -0.1443 -0.4226
  323MOL0     C44485  10.744   9.034   6.457 -0.0522  0.1208  0.0639
  323MOL0     C44486  10.612   9.001   6.453  0.6498 -0.3152 -0.0770
  323MOL0     N44487   9.838   9.363   6.634  0.2134  0.1720  0.6964
  323MOL0     N44488   9.751   9.410   6.720 -0.3263 -0.6234  0.5687
  323MOL0     C44489   8.708   9.682   7.262 -0.3670 -0.0738  0.3410
  323MOL0     C44490   8.574   9.689   7.288  1.2611  0.5032  1.4009
  323MOL0     C44491   8.157   9.528   7.328 -0.5976 -0.4342 -0.1609
  323MOL0     C44492   8.125   9.645   7.258 -0.4904 -0.1170  0.2556
  323MOL0     C44493   8.000   9.664   7.209  0.5413 -0.3789  0.3527
  323MOL0     C44494   7.897   9.572   7.212 -0.2973  0.4177 -0.0437
  323MOL0     O44495   7.779   9.600   7.156 -0.8137 -0.5624 -0.0859
  323MOL0     C44496   7.666   9.508   7.152 -0.0824 -0.2662 -0.4326
  323MOL0     C44497   7.565   9.570   7.058 -0.3684  0.0015 -0.7683
  323MOL0     C44498   7.456   9.653   7.127  0.1948  0.4559 -0.8494
  323MOL0     C44499   7.350   9.564   7.183  0.9066 -0.2364  0.4064
  323MOL0     C44500   7.259   9.528   7.068 -0.1881 -0.8516 -0.4218
  323MOL0     C44501   7.201   9.512   6.965 -0.4067  0.8913 -0.3174
  323MOL0     C44502   7.926   9.447   7.286  0.8957 -0.7781  0.4285
  323MOL0     C44503   8.055   9.431   7.346  0.4264 -0.1058 -0.0260
  323MOL0     C44504   8.068   9.318   7.441 -0.5147  0.5134  0.0501
  323MOL0     H44505   8.533   9.482   7.563 -2.1546 -2.8293 -2.1979
  323MOL0     H44506   8.773   9.466   7.523  0.9206  0.4106  0.8702
  323MOL0     H44507   8.986   9.720   7.225 -1.9904  0.2736 -0.8272
  323MOL0     H44508   8.965   9.558   7.159  0.4182 -0.0418  1.0530
  323MOL0     H44509   9.153   9.667   7.374  1.0041  0.8941 -0.4467
  323MOL0     H44510   9.145   9.486   7.323 -4.2164 -0.4816  0.1564
  323MOL0     H44511   9.213   9.573   7.096  0.1198 -1.9563  0.6224
  323MOL0     H44512   9.240   9.729   7.175 -2.8077 -0.0773 -1.2158
  323MOL0     H44513   9.425   9.631   7.300 -1.2130  1.7794 -0.0746
  323MOL0     H44514   9.351   9.466   7.274 -1.8646  0.4132  1.1272
  323MOL0     H44515   9.453   9.638   7.039  0.6343 -0.9948 -1.2929
  323MOL0     H44516   9.416   9.464   7.040  1.4000 -0.1484 -1.5648
  323MOL0     H44517   9.660   9.611   7.173  1.2514  1.4969 -2.4074
  323MOL0     H44518   9.612   9.431   7.193 -0.4075 -0.9004 -2.1782
  323MOL0     H44519   9.789   9.516   7.025 -0.1243 -0.4792  1.4895
  323MOL0     H44520   9.645   9.561   6.923  0.3730 -1.0341 -1.8511
  323MOL0     H44521   9.680   9.266   7.017 -0.8543 -0.2119 -0.0807
  323MOL0     H44522   9.564   9.346   6.914 -0.0935 -1.4077 -1.0044
  323MOL0     H44523   9.894   9.172   6.889 -0.6731 -1.6230 -0.3815
  323MOL0     H44524   9.988   9.152   6.530 -0.3879 -3.4678 -0.0950
  323MOL0     H44525  10.030   9.084   6.698  1.5450  0.6039  0.0931
  323MOL0     H44526  10.149   9.337   6.572 -0.5973  0.6447  1.6876
  323MOL0     H44527  10.187   9.273   6.727 -0.8677 -0.7649  1.1148
  323MOL0     H44528  10.367   9.192   6.616  0.1059  2.3028 -0.7737
  323MOL0     H44529  10.263   9.051   6.633 -0.7894  1.5201  2.6996
  323MOL0     H44530  10.185   9.079   6.404  0.7347 -1.2029  0.9887
  323MOL0     H44531  10.280   9.231   6.394  0.5945  0.7507  0.4491
  323MOL0     H44532  10.471   9.272   6.299 -1.0684 -0.4301  0.8192
  323MOL0     H44533  10.638   9.416   6.216  1.5916 -1.9317 -4.4784
  323MOL0     H44534  10.781   9.345   6.159  1.8992 -1.2364  0.4861
  323MOL0     H44535  10.768   9.443   6.312 -0.4509 -0.6873  0.8499
  323MOL0     H44536  11.129   9.067   6.221  0.1664 -1.4527  0.0405
  323MOL0     H44537  11.387   9.111   6.178 -2.4173  2.4426 -0.7471
  323MOL0     H44538  11.644   9.302   6.469  2.7882  1.2015 -1.6912
  323MOL0     H44539  11.706   9.135   6.500  0.4827  1.8420  2.0341
  323MOL0     H44540  11.822   9.161   6.288 -0.9632 -1.5987  0.9068
  323MOL0     H44541  11.752   9.325   6.264 -1.6485 -1.2072  0.2721
  323MOL0     H44542  11.966   9.216   6.435 -4.2712 -3.4397 -0.1228
  323MOL0     H44543  11.879   9.343   6.513 -0.1475 -1.7219  0.2774
  323MOL0     H44544  11.943   9.495   6.309 -2.6057 -1.5203  0.6441
  323MOL0     H44545  12.002   9.342   6.235 -0.2126  1.0526 -0.7013
  323MOL0     H44546  12.163   9.523   6.346 -1.0291 -0.0387 -0.0942
  323MOL0     H44547  12.119   9.440   6.492 -1.5476  1.5517 -0.8010
  323MOL0     H44548  12.279   9.332   6.254  3.0707  0.9522  1.3269
  323MOL0     H44549  12.202   9.222   6.381  0.8439 -1.5482 -2.3576
  323MOL0     H44550  12.328   9.393   6.536 -0.1818  2.4380 -1.5763
  323MOL0     H44551  12.411   9.441   6.391  0.8057  0.8413  2.2494
  323MOL0     H44552  12.542   9.272   6.503 -0.9102 -2.2343  2.1651
  323MOL0     H44553  12.465   9.190   6.356 -0.3810 -2.9899  1.0408
  323MOL0     H44554  11.462   9.174   6.590  1.5087  2.1312 -2.0393
  323MOL0     H44555  11.224   9.148   6.630  0.9106 -0.8891  0.3770
  323MOL0     H44556  10.810   8.956   6.494  0.4167 -1.0944 -3.0117
  323MOL0     H44557  10.577   8.911   6.503 -1.1246  1.1616  1.4592
  323MOL0     H44558   8.751   9.737   7.179 -3.6676  1.4682 -0.5292
  323MOL0     H44559   8.518   9.753   7.221  1.2032 -2.1135 -1.2652
  323MOL0     H44560   8.189   9.730   7.238 -1.1287  0.4137  0.4199
  323MOL0     H44561   7.976   9.755   7.155 -2.1666  1.2343  3.9125
  323MOL0     H44562   7.692   9.411   7.109  0.2119  0.2627 -1.4758
  323MOL0     H44563   7.623   9.495   7.252 -0.1219  0.6580 -0.3140
  323MOL0     H44564   7.521   9.497   6.990 -2.0987  1.6697 -1.5414
  323MOL0     H44565   7.625   9.635   6.993  2.0752  1.1986  2.4015
  323MOL0     H44566   7.494   9.709   7.214  0.1879 -0.2029 -0.4163
  323MOL0     H44567   7.421   9.734   7.062 -0.0948 -1.0790 -2.6776
  323MOL0     H44568   7.298   9.623   7.259  1.0566  0.4803 -0.0379
  323MOL0     H44569   7.385   9.468   7.222  0.4854 -0.2467  0.7667
  323MOL0     H44570   7.164   9.485   6.868 -0.9300  3.2501 -0.8286
  323MOL0     H44571   7.857   9.366   7.303  1.7743 -1.2745  1.8032
  323MOL0     H44572   7.970   9.280   7.472  0.0278  1.2515  2.8997
  323MOL0     H44573   8.134   9.241   7.401  0.6373  0.4742  1.9049
  323MOL0     H44574   8.123   9.348   7.530  0.8307 -0.1550 -0.5237
  324MOL0     O44575   7.045   3.935   6.015 -0.1186 -0.0646  0.0715
  324MOL0     C44576   7.003   3.905   5.904  0.6714  1.0379 -0.7252
  324MOL0     O44577   7.087   3.860   5.803  0.6018 -0.3914 -0.2525
  324MOL0     C44578   7.220   3.854   5.827 -0.2536 -0.7882  0.0580
  324MOL0     C44579   7.285   3.732   5.861  0.3498 -0.1854 -0.0566
  324MOL0     C44580   7.429   3.730   5.882 -0.0656  0.0244  1.3219
  324MOL0     C44581   7.498   3.851   5.862 -0.0296  0.3046 -0.8075
  324MOL0     O44582   7.633   3.830   5.875  0.5193  0.1431 -0.3981
  324MOL0     C44583   7.722   3.940   5.887  0.0584  0.0492 -0.5092
  324MOL0     C44584   7.805   3.916   6.010 -0.2411  0.0302  0.4307
  324MOL0     C44585   7.890   3.785   5.999 -0.1964  0.4755 -0.2833
  324MOL0     C44586   8.032   3.819   5.941  0.4822 -0.3249  0.3051
  324MOL0     C44587   8.135   3.695   5.946 -0.4884  0.0739 -0.0087
  324MOL0     C44588   8.255   3.718   5.858  0.6955  0.0553 -0.1387
  324MOL0     C44589   8.344   3.595   5.847  0.6592  0.1035 -0.4640
  324MOL0     C44590   8.386   3.526   5.975  0.1697  0.3340  0.0851
  324MOL0     N44591   8.475   3.610   6.048  0.9452 -0.3169 -0.9116
  324MOL0     C44592   8.601   3.637   6.019  0.8088  0.2157  0.1002
  324MOL0     C44593   8.640   3.720   6.116  0.3291  0.9576 -0.1657
  324MOL0     C44594   8.776   3.772   6.128 -0.3059  0.0817  0.0314
  324MOL0     C44595   8.779   3.921   6.150 -0.2316 -0.0147  0.4132
  324MOL0     C44596   8.913   3.995   6.128  0.3889  0.4349  0.5122
  324MOL0     C44597   9.011   3.944   6.225 -0.1814  0.4072 -0.2087
  324MOL0     O44598   9.135   4.018   6.207 -0.2460 -0.6478 -0.3022
  324MOL0     C44599   9.226   4.017   6.308 -0.5354 -0.6333 -0.5074
  324MOL0     C44600   9.240   3.909   6.388 -0.2170  0.1320 -0.0301
  324MOL0     C44601   9.340   3.900   6.483  0.1643  0.5837 -0.0671
  324MOL0     C44602   9.333   3.775   6.563 -0.0839 -0.7058 -0.2434
  324MOL0     C44603   9.440   4.003   6.498 -0.6654  0.0365 -0.3568
  324MOL0     C44604   9.554   4.001   6.589  0.0277 -0.8804  0.1919
  324MOL0     O44605   9.596   4.121   6.629  0.0869 -0.0247  0.2132
  324MOL0     C44606   9.684   4.124   6.735  0.2430  0.8181  0.3923
  324MOL0     C44607   9.800   4.204   6.718  0.1958 -0.3435 -0.2167
  324MOL0     C44608   9.884   4.245   6.822  0.3143 -0.0635  1.1876
  324MOL0     C44609   9.860   4.202   6.946 -0.2468 -0.9231 -0.4322
  324MOL0     O44610   9.954   4.235   7.031 -0.2486  0.5383  0.0800
  324MOL0     C44611   9.920   4.299   7.157  0.2136 -0.4093  1.0108
  324MOL0     C44612  10.013   4.243   7.263  0.1739  0.2058  0.7796
  324MOL0     C44613   9.968   4.095   7.283  1.0355  0.1098  0.2000
  324MOL0     C44614  10.071   4.031   7.377  0.3129  0.5383 -0.6145
  324MOL0     C44615  10.013   3.908   7.450  1.0880  0.9342 -0.8467
  324MOL0     C44616  10.133   3.829   7.528 -0.8156 -0.2617 -0.2403
  324MOL0     C44617  10.188   3.895   7.656  0.3244 -0.9398  0.5378
  324MOL0     C44618  10.226   3.798   7.768  0.3287  1.3793 -0.7511
  324MOL0    Cl44619  10.071   3.734   7.852 -0.0699 -0.5294  0.0028
  324MOL0     C44620   9.754   4.115   6.971  0.0763  0.1503  0.9116
  324MOL0     C44621   9.663   4.081   6.869  0.8872 -0.3880  0.2750
  324MOL0     O44622   9.599   3.895   6.639  0.2000 -0.3459  0.6916
  324MOL0     C44623   9.424   4.114   6.409 -0.4816  0.3457 -0.3932
  324MOL0     C44624   9.320   4.126   6.320 -0.5257  0.8939  0.3906
  324MOL0     N44625   8.533   3.753   6.192  0.4177 -0.5589 -0.2356
  324MOL0     N44626   8.435   3.681   6.158  0.1140  0.0783  0.5815
  324MOL0     C44627   7.438   3.974   5.830  0.3793 -0.0045 -0.4662
  324MOL0     C44628   7.298   3.974   5.822  0.0021 -0.4072  0.0819
  324MOL0     C44629   6.860   3.896   5.881 -0.3978  0.3592 -0.4608
  324MOL0     C44630   6.824   3.866   5.748 -0.0996 -0.7986 -0.3265
  324MOL0     C44631   6.692   3.851   5.711 -0.6061 -0.5058 -0.3161
  324MOL0     C44632   6.589   3.867   5.810 -0.1201  0.0683  0.7513
  324MOL0     O44633   6.462   3.854   5.758  0.2033 -0.2410 -0.0037
  324MOL0     C44634   6.353   3.891   5.838  0.5317  0.0724  0.3617
  324MOL0     C44635   6.238   3.837   5.765 -0.0011 -0.5462  1.0621
  324MOL0     C44636   6.105   3.904   5.797  0.3242 -0.0646  0.7112
  324MOL0     C44637   6.071   3.947   5.941  0.0964  0.1240 -0.2348
  324MOL0     C44638   5.964   4.045   5.934  0.3732 -0.4712 -0.3403
  324MOL0     C44639   5.888   4.139   5.939  0.3913 -0.1543 -1.0608
  324MOL0     C44640   6.627   3.897   5.939  0.2758 -1.0822 -0.0059
  324MOL0     C44641   6.758   3.921   5.970 -0.0718 -0.9490 -0.2877
  324MOL0     C44642   6.775   3.974   6.113  0.3352 -0.4896 -0.6318
  324MOL0     H44643   7.227   3.640   5.865 -0.1174  0.1166  0.3003
  324MOL0     H44644   7.477   3.634   5.891  1.6765  0.2470 -2.8950
  324MOL0     H44645   7.673   4.035   5.908  1.0319  0.4539 -0.0274
  324MOL0     H44646   7.773   3.954   5.791 -1.5235  0.5414 -1.3216
  324MOL0     H44647   7.859   4.010   6.025 -0.3955 -0.0121  1.2804
  324MOL0     H44648   7.735   3.894   6.090  2.1840 -2.8116  2.0081
  324MOL0     H44649   7.899   3.741   6.099 -0.1465 -2.8755 -1.6244
  324MOL0     H44650   7.846   3.716   5.926 -0.2143  0.4331 -0.2321
  324MOL0     H44651   8.010   3.826   5.834 -1.8401  0.2925  0.7703
  324MOL0     H44652   8.071   3.915   5.977 -1.0905  0.0766  1.0197
  324MOL0     H44653   8.072   3.607   5.926 -1.7496  0.3479  2.2890
  324MOL0     H44654   8.173   3.683   6.048  4.4924  1.2995 -1.4473
  324MOL0     H44655   8.216   3.746   5.759 -0.2823  0.1940  0.2738
  324MOL0     H44656   8.320   3.799   5.890  1.6131 -0.4616 -0.6232
  324MOL0     H44657   8.433   3.605   5.784  1.3444  0.4358  0.5301
  324MOL0     H44658   8.277   3.522   5.801 -0.4107  0.7361  0.0529
  324MOL0     H44659   8.304   3.500   6.043  0.3378 -2.2239 -0.5660
  324MOL0     H44660   8.442   3.433   5.956  1.8569  1.1878  0.6490
  324MOL0     H44661   8.657   3.596   5.935  1.0672 -1.4236  1.0375
  324MOL0     H44662   8.833   3.741   6.041  1.0749 -0.3332  1.0515
  324MOL0     H44663   8.832   3.728   6.211  3.7904 -0.1013 -2.5896
  324MOL0     H44664   8.709   3.973   6.083  0.5983  0.3064 -0.2259
  324MOL0     H44665   8.737   3.934   6.250 -1.6936  0.2433 -0.2151
  324MOL0     H44666   8.948   3.986   6.024 -1.4974  0.9813 -0.2185
  324MOL0     H44667   8.905   4.104   6.139 -0.8442  0.4818 -0.5238
  324MOL0     H44668   8.974   3.969   6.325 -0.0179  0.3769 -0.1418
  324MOL0     H44669   9.024   3.836   6.219  0.5889  0.2898  2.3590
  324MOL0     H44670   9.171   3.827   6.376 -0.0572 -0.3788  2.1555
  324MOL0     H44671   9.422   3.711   6.559 -0.0508 -0.6868  0.1717
  324MOL0     H44672   9.249   3.716   6.526 -2.1336  2.5674 -1.2437
  324MOL0     H44673   9.312   3.802   6.667  0.9030 -1.9968  0.3113
  324MOL0     H44674   9.818   4.229   6.614 -1.9359 -1.9197 -1.0289
  324MOL0     H44675   9.975   4.301   6.802  0.2342 -0.6772 -1.2613
  324MOL0     H44676   9.936   4.407   7.149  2.2459 -0.5520  2.2356
  324MOL0     H44677   9.819   4.275   7.190  0.1502 -1.2328  0.2470
  324MOL0     H44678  10.117   4.245   7.227 -0.3516 -0.9941 -0.9456
  324MOL0     H44679  10.007   4.292   7.360 -3.7116 -0.0035  0.7772
  324MOL0     H44680   9.969   4.034   7.192 -1.3613 -0.9701  0.7982
  324MOL0     H44681   9.869   4.085   7.328  1.2744 -0.0788  0.6884
  324MOL0     H44682  10.112   4.102   7.449 -1.3463  1.2782 -0.3535
  324MOL0     H44683  10.165   3.999   7.329  0.2984 -0.1184 -0.2173
  324MOL0     H44684   9.935   3.940   7.519  0.6599 -0.5404 -0.6280
  324MOL0     H44685   9.964   3.843   7.378 -0.4472 -0.0767  1.0345
  324MOL0     H44686  10.220   3.817   7.462  1.1378  1.6540  1.8238
  324MOL0     H44687  10.088   3.731   7.550 -0.4380 -0.7010 -1.3374
  324MOL0     H44688  10.121   3.970   7.698  1.4567  0.4415 -0.0188
  324MOL0     H44689  10.275   3.951   7.620 -0.6618  0.2535 -0.0325
  324MOL0     H44690  10.277   3.859   7.842 -1.6299  0.5044  1.4374
  324MOL0     H44691  10.289   3.717   7.728  0.6416  0.3451  1.7001
  324MOL0     H44692   9.724   4.076   7.068 -3.6650  4.1134  1.6415
  324MOL0     H44693   9.582   4.016   6.898 -1.7931  2.4378 -0.3376
  324MOL0     H44694   9.483   4.204   6.417  1.3944 -0.4807 -3.4721
  324MOL0     H44695   9.313   4.216   6.260 -0.2719  0.0429 -0.9550
  324MOL0     H44696   7.476   4.075   5.824 -1.8014  0.9267  0.3233
  324MOL0     H44697   7.250   4.071   5.813 -0.8204 -0.6658  1.4197
  324MOL0     H44698   6.892   3.852   5.665 -0.1156 -0.1591 -0.4519
  324MOL0     H44699   6.672   3.841   5.604  0.1836  0.5383 -0.5766
  324MOL0     H44700   6.354   3.842   5.936 -1.2398 -0.9973 -0.1053
  324MOL0     H44701   6.344   3.999   5.855 -0.8473  0.0795 -0.2546
  324MOL0     H44702   6.223   3.731   5.790  1.4067 -0.8028  0.9053
  324MOL0     H44703   6.270   3.843   5.661  1.2246 -1.0946  1.3955
  324MOL0     H44704   6.110   3.986   5.725 -0.3945 -0.8363 -0.2445
  324MOL0     H44705   6.022   3.841   5.761  0.6037  0.2865 -0.6126
  324MOL0     H44706   6.155   3.993   5.994 -0.1338  1.7111 -1.1907
  324MOL0     H44707   6.038   3.857   5.994  1.8242 -0.6186 -0.3267
  324MOL0     H44708   5.828   4.228   5.939 -0.3789 -0.2792  4.7927
  324MOL0     H44709   6.543   3.917   6.005 -0.2851 -2.8968 -0.0978
  324MOL0     H44710   6.848   3.920   6.175  0.2695 -0.6295 -0.6762
  324MOL0     H44711   6.817   4.074   6.099  1.2668 -0.8774 -0.6487
  324MOL0     H44712   6.689   3.961   6.179  1.2702 -0.5498  0.6155
  325MOL0     O44713   9.781   7.531   4.129 -0.0901 -0.4232  0.0555
  325MOL0     C44714   9.773   7.643   4.083 -0.2297  0.5852 -0.3687
  325MOL0     O44715   9.855   7.688   3.985  0.0096 -0.2429 -0.8332
  325MOL0     C44716   9.941   7.603   3.921 -0.0234  1.1163  0.6959
  325MOL0     C44717   9.902   7.515   3.813  0.8792 -0.2864 -0.6439
  325MOL0     C44718   9.994   7.452   3.738 -0.0220 -0.2445  0.5432
  325MOL0     C44719  10.139   7.460   3.762  0.1525 -0.8535 -0.7737
  325MOL0     O44720  10.216   7.383   3.683  0.3798  0.8870  0.1691
  325MOL0     C44721  10.357   7.398   3.694 -0.4399 -0.4090 -0.7214
  325MOL0     C44722  10.431   7.287   3.624 -1.0636  0.6934  0.2107
  325MOL0     C44723  10.582   7.296   3.641 -0.2706 -0.2808  0.1317
  325MOL0     C44724  10.644   7.170   3.597 -0.2114 -0.7738 -0.7637
  325MOL0     C44725  10.799   7.178   3.602 -0.0581  0.2280  0.7097
  325MOL0     C44726  10.865   7.052   3.543 -0.3658 -1.0745 -0.3502
  325MOL0     C44727  11.013   7.062   3.575  0.2098 -0.4119 -0.6825
  325MOL0     C44728  11.100   6.955   3.506  0.2633  0.7180 -0.0365
  325MOL0     N44729  11.169   7.015   3.388  0.3208  0.8261 -0.2868
  325MOL0     C44730  11.104   7.088   3.288 -0.0727  0.1540 -0.3893
  325MOL0     C44731  11.200   7.110   3.199  0.2363  0.2759  0.4001
  325MOL0     C44732  11.174   7.158   3.055  0.1045  0.5083  0.1380
  325MOL0     C44733  11.214   7.308   3.058  0.5205  0.1211  0.3219
  325MOL0     C44734  11.180   7.396   2.934  0.3861  0.4214  0.2723
  325MOL0     C44735  11.292   7.414   2.841  0.1084  0.5142  0.2706
  325MOL0     O44736  11.396   7.481   2.901  0.0663 -1.0292  0.2141
  325MOL0     C44737  11.522   7.443   2.867  0.2823 -0.4657  0.0219
  325MOL0     C44738  11.561   7.430   2.732  0.1679 -0.0789 -0.1867
  325MOL0     C44739  11.692   7.396   2.694 -0.1872 -0.1714  0.6366
  325MOL0     C44740  11.727   7.370   2.546  0.0470 -0.2482  0.0800
  325MOL0     C44741  11.789   7.382   2.791  0.6573 -0.1602  0.5457
  325MOL0     C44742  11.938   7.373   2.757  0.5626 -0.7905 -0.4981
  325MOL0     O44743  12.024   7.324   2.855 -1.0078 -0.4289 -0.3695
  325MOL0     C44744  12.160   7.325   2.830 -1.2908 -0.1308 -0.0276
  325MOL0     C44745  12.226   7.202   2.807 -0.4063  0.1671 -0.3298
  325MOL0     C44746  12.362   7.195   2.792  0.3583 -0.2988  0.2194
  325MOL0     C44747  12.438   7.315   2.798  0.4280  0.3738 -0.1142
  325MOL0     O44748  12.573   7.296   2.777  0.1086  0.9645  0.9821
  325MOL0     C44749  12.659   7.405   2.784 -1.1377  0.3130  0.1689
  325MOL0     C44750  12.783   7.379   2.697 -0.3428  0.8339 -0.3121
  325MOL0     C44751  12.772   7.406   2.548  0.3398 -0.6542  0.1002
  325MOL0     C44752  12.683   7.308   2.459 -0.0706 -1.2169 -0.4390
  325MOL0     C44753  12.700   7.328   2.305 -0.3052  0.1521  0.4536
  325MOL0     C44754  12.831   7.273   2.250 -0.1938 -0.8918  0.2354
  325MOL0     C44755  12.848   7.312   2.110  0.1612 -0.1338 -0.5624
  325MOL0     C44756  12.994   7.302   2.095  0.5477  0.0344  0.2715
  325MOL0    Cl44757  13.046   7.301   1.927  0.1167  0.0740  0.0478
  325MOL0     C44758  12.371   7.439   2.810 -0.3900 -0.6517 -0.1222
  325MOL0     C44759  12.238   7.439   2.826  0.3363 -0.1361  0.0613
  325MOL0     O44760  11.980   7.443   2.660  0.2535  0.1131  0.5287
  325MOL0     C44761  11.744   7.383   2.933  0.2190  0.6337  0.1249
  325MOL0     C44762  11.612   7.420   2.968  0.0949  1.1326  0.5319
  325MOL0     N44763  11.321   7.062   3.257  0.1898 -0.6171  0.2582
  325MOL0     N44764  11.299   6.998   3.361 -0.1721 -0.0544 -0.0605
  325MOL0     C44765  10.179   7.546   3.862  0.4034  1.2054  0.3725
  325MOL0     C44766  10.083   7.614   3.938 -0.2209  0.3406  0.5046
  325MOL0     C44767   9.656   7.724   4.120 -0.3998 -0.9966  0.0757
  325MOL0     C44768   9.644   7.851   4.052  0.1393  0.1804  0.1092
  325MOL0     C44769   9.533   7.934   4.083  0.9062  0.8550 -0.2619
  325MOL0     C44770   9.436   7.893   4.167 -0.6945 -0.0508 -0.4234
  325MOL0     O44771   9.324   7.953   4.185  0.2237  0.0354  0.2135
  325MOL0     C44772   9.321   8.089   4.231 -1.1135  0.0457  0.2067
  325MOL0     C44773   9.334   8.093   4.377 -0.4873 -0.5730 -0.4151
  325MOL0     C44774   9.324   8.240   4.410 -0.6653  0.6861 -0.6931
  325MOL0     C44775   9.368   8.279   4.550 -0.5700  0.8542  0.0931
  325MOL0     C44776   9.515   8.261   4.565 -0.0484 -0.2896  0.1262
  325MOL0     C44777   9.631   8.238   4.571 -0.0449  0.0007  0.1214
  325MOL0     C44778   9.455   7.782   4.247  0.1501  0.7489  0.4846
  325MOL0     C44779   9.553   7.690   4.217 -0.7640 -0.3363 -0.1012
  325MOL0     C44780   9.541   7.550   4.288 -0.3145 -0.0820  0.8070
  325MOL0     H44781   9.800   7.493   3.786  0.7077 -3.1109  1.7360
  325MOL0     H44782   9.960   7.380   3.665 -2.0666  0.5953  0.6096
  325MOL0     H44783  10.389   7.375   3.796  1.7403 -1.6020 -1.5951
  325MOL0     H44784  10.388   7.494   3.650 -1.6977 -0.6821 -2.2935
  325MOL0     H44785  10.407   7.192   3.674  0.2441  0.7555  0.9985
  325MOL0     H44786  10.423   7.280   3.516  0.8565 -2.8428  0.1374
  325MOL0     H44787  10.619   7.383   3.586 -2.1141  1.0665  0.8923
  325MOL0     H44788  10.608   7.302   3.748 -3.8443  2.7625  1.0716
  325MOL0     H44789  10.596   7.089   3.654 -1.8805  1.6709  1.5308
  325MOL0     H44790  10.625   7.156   3.490  2.1809  1.3528 -1.5663
  325MOL0     H44791  10.825   7.196   3.707  2.2431  3.5306 -0.2554
  325MOL0     H44792  10.830   7.267   3.547 -1.5043  0.6644  0.5607
  325MOL0     H44793  10.820   6.965   3.591  0.3907 -0.6230  1.2253
  325MOL0     H44794  10.841   7.059   3.436 -3.2180  3.7453  0.2736
  325MOL0     H44795  11.032   7.032   3.679 -1.0520 -2.2075 -0.9272
  325MOL0     H44796  11.051   7.162   3.553 -0.0902 -0.4788 -1.5216
  325MOL0     H44797  11.170   6.915   3.580  0.5199  0.7691 -0.2511
  325MOL0     H44798  11.027   6.879   3.479 -0.2195  2.1945 -3.4287
  325MOL0     H44799  10.997   7.101   3.279 -0.2392  1.2866  2.4608
  325MOL0     H44800  11.067   7.148   3.036  0.3435  0.0612 -1.0573
  325MOL0     H44801  11.232   7.110   2.976 -0.9987 -0.2788 -0.2206
  325MOL0     H44802  11.161   7.356   3.141  0.0429  0.9103 -0.4183
  325MOL0     H44803  11.320   7.314   3.083  0.6480 -3.2779  1.1234
  325MOL0     H44804  11.101   7.339   2.884 -1.3594  1.6127  1.5441
  325MOL0     H44805  11.141   7.492   2.969 -3.1278 -1.5973  2.4780
  325MOL0     H44806  11.319   7.313   2.809 -1.4037  0.3947 -0.7277
  325MOL0     H44807  11.269   7.456   2.743 -1.5491 -2.8253 -0.9166
  325MOL0     H44808  11.482   7.449   2.661 -0.0206  0.4158  0.1504
  325MOL0     H44809  11.824   7.320   2.535  0.4941  0.7155 -0.4905
  325MOL0     H44810  11.721   7.469   2.500  2.9494 -1.5614 -3.6879
  325MOL0     H44811  11.643   7.317   2.500 -1.2627  2.9758 -1.5571
  325MOL0     H44812  12.171   7.110   2.791 -2.2961  1.2743 -0.4433
  325MOL0     H44813  12.407   7.100   2.764 -1.3114 -0.6558 -1.4238
  325MOL0     H44814  12.608   7.496   2.750 -0.0483  1.1185  0.6297
  325MOL0     H44815  12.676   7.425   2.890 -2.3978  1.2398  0.2246
  325MOL0     H44816  12.874   7.427   2.735 -2.2886  3.5587  1.2605
  325MOL0     H44817  12.800   7.271   2.698 -1.4269  0.6095 -2.0038
  325MOL0     H44818  12.874   7.403   2.510  0.6877  2.4501  0.4961
  325MOL0     H44819  12.739   7.510   2.535  0.6547 -0.5501  0.1265
  325MOL0     H44820  12.580   7.327   2.489  0.3747  0.8217 -0.0535
  325MOL0     H44821  12.702   7.210   2.506  0.8199  0.0878  2.1496
  325MOL0     H44822  12.616   7.271   2.266  0.9824 -1.8975  0.5576
  325MOL0     H44823  12.692   7.436   2.285 -1.5810 -0.3171 -1.9016
  325MOL0     H44824  12.825   7.164   2.262  1.1345 -0.9171  0.8203
  325MOL0     H44825  12.912   7.314   2.311  0.1570  0.7724 -1.2798
  325MOL0     H44826  12.813   7.415   2.103  1.3110  0.1847 -2.1399
  325MOL0     H44827  12.794   7.239   2.048 -0.1157 -0.3455 -0.0822
  325MOL0     H44828  13.034   7.209   2.137  0.2188  1.0120  2.9702
  325MOL0     H44829  13.051   7.374   2.155 -1.0459  1.5382  0.0511
  325MOL0     H44830  12.423   7.534   2.816  1.6057 -1.6297 -1.1980
  325MOL0     H44831  12.180   7.530   2.829 -1.0858 -0.8586 -2.4104
  325MOL0     H44832  11.821   7.367   3.007 -1.2281  1.3138  1.8331
  325MOL0     H44833  11.577   7.426   3.070  0.9402 -2.9509  1.2445
  325MOL0     H44834  10.282   7.561   3.893  0.5122  1.1067  0.0648
  325MOL0     H44835  10.113   7.686   4.013  1.2175 -0.5981  0.8720
  325MOL0     H44836   9.727   7.875   3.987  1.6751 -0.4066  1.7822
  325MOL0     H44837   9.515   8.028   4.033 -1.6901  1.1705  1.1156
  325MOL0     H44838   9.411   8.138   4.193 -0.8482 -1.1928 -0.8272
  325MOL0     H44839   9.231   8.136   4.191 -1.8399 -1.9711 -0.6896
  325MOL0     H44840   9.430   8.051   4.409 -1.0916  0.7516  3.8102
  325MOL0     H44841   9.255   8.041   4.432  0.3559  0.1759  1.6249
  325MOL0     H44842   9.383   8.302   4.341 -0.0136  3.8383  2.4362
  325MOL0     H44843   9.220   8.264   4.388 -0.7231 -1.6154 -3.7624
  325MOL0     H44844   9.321   8.216   4.626  0.9560 -1.6545 -0.9011
  325MOL0     H44845   9.346   8.383   4.573  0.6504  0.6163  2.6148
  325MOL0     H44846   9.734   8.210   4.573 -0.4354 -1.4954  0.3277
  325MOL0     H44847   9.374   7.742   4.307  1.8730 -1.9914  1.1187
  325MOL0     H44848   9.527   7.470   4.215 -3.5446  0.5875  0.5332
  325MOL0     H44849   9.628   7.535   4.352 -0.0999  0.4930  0.6658
  325MOL0     H44850   9.447   7.556   4.344 -0.7467  1.9867 -0.0185
  326MOL0     O44851   0.905   7.112   9.930 -0.1584 -0.5531 -0.4436
  326MOL0     C44852   0.914   7.186   9.838  0.2840  0.0903 -0.2411
  326MOL0     O44853   1.006   7.166   9.738  0.3870  0.1224  0.6548
  326MOL0     C44854   1.059   7.040   9.725 -0.2887  0.0316  0.5220
  326MOL0     C44855   1.157   6.996   9.819 -0.4179  0.4142  1.0230
  326MOL0     C44856   1.216   6.875   9.790 -0.7705 -0.6437 -0.7031
  326MOL0     C44857   1.194   6.799   9.674 -0.0987  0.2079 -0.0214
  326MOL0     O44858   1.268   6.687   9.644 -0.0391  0.4618 -0.1219
  326MOL0     C44859   1.374   6.709   9.554  0.3272  0.3974 -0.3838
  326MOL0     C44860   1.414   6.568   9.508 -0.3622  0.4200 -0.1104
  326MOL0     C44861   1.488   6.479   9.621 -0.3564 -0.0704  0.0153
  326MOL0     C44862   1.625   6.544   9.657  0.1850 -0.1316 -0.3971
  326MOL0     C44863   1.720   6.460   9.745  0.2138 -0.4027 -0.2022
  326MOL0     C44864   1.844   6.534   9.798  0.0173  0.3690 -0.2501
  326MOL0     C44865   1.904   6.440   9.905 -0.7012  0.5057 -0.3367
  326MOL0     C44866   2.018   6.513   9.974 -0.0092  0.5780 -0.4035
  326MOL0     N44867   2.129   6.543   9.875  0.1047 -0.9746  0.0613
  326MOL0     C44868   2.200   6.448   9.817  0.0867  0.3315 -0.3415
  326MOL0     C44869   2.290   6.511   9.737 -0.0219  1.0238  0.0353
  326MOL0     C44870   2.397   6.472   9.642 -0.3692 -0.0213  0.0897
  326MOL0     C44871   2.360   6.489   9.493 -0.0644 -0.2923  0.3693
  326MOL0     C44872   2.471   6.484   9.393 -1.4768  0.3473  0.1530
  326MOL0     C44873   2.576   6.601   9.392 -1.4439  0.1062 -0.1814
  326MOL0     O44874   2.652   6.600   9.268  0.0262 -0.2248 -0.0633
  326MOL0     C44875   2.751   6.694   9.247 -0.2487  0.1767  0.2646
  326MOL0     C44876   2.805   6.786   9.340  0.9549 -0.1400 -0.4681
  326MOL0     C44877   2.907   6.876   9.306 -0.4253 -0.1507 -0.9215
  326MOL0     C44878   2.949   6.990   9.410  0.0470  0.2846 -0.3152
  326MOL0     C44879   2.956   6.871   9.170 -1.0742  0.3092  0.2217
  326MOL0     C44880   3.059   6.963   9.117  0.5547  0.4870  0.0619
  326MOL0     O44881   3.082   6.955   8.984  0.1351 -0.0324  0.0425
  326MOL0     C44882   3.194   7.021   8.930  0.3081  0.2833 -0.2857
  326MOL0     C44883   3.182   7.043   8.794 -0.0083  0.1533 -0.3276
  326MOL0     C44884   3.290   7.092   8.721  0.5471 -0.0061 -0.3259
  326MOL0     C44885   3.408   7.130   8.781 -0.3123 -0.0902  0.4403
  326MOL0     O44886   3.512   7.178   8.697 -0.2628  0.2211 -0.7577
  326MOL0     C44887   3.642   7.187   8.750  0.1507 -0.1896  0.1871
  326MOL0     C44888   3.716   7.259   8.651 -0.1823  0.0673 -0.1651
  326MOL0     C44889   3.858   7.306   8.705  0.4647  0.8686  1.1630
  326MOL0     C44890   3.953   7.354   8.590  0.8936 -0.2818 -0.0224
  326MOL0     C44891   4.104   7.352   8.609  0.0572  0.2144 -0.6664
  326MOL0     C44892   4.184   7.402   8.486  0.1108 -0.9950 -0.1547
  326MOL0     C44893   4.331   7.403   8.526 -0.5152  0.1223 -0.7928
  326MOL0     C44894   4.406   7.495   8.437 -0.0566 -0.0652  0.5618
  326MOL0    Cl44895   4.355   7.679   8.430 -0.2333 -0.4220  0.3652
  326MOL0     C44896   3.419   7.109   8.919 -0.0611 -0.2047  0.1414
  326MOL0     C44897   3.315   7.043   8.985 -1.0322 -0.4465  0.5587
  326MOL0     O44898   3.127   7.021   9.200  0.5846  0.0066 -0.1208
  326MOL0     C44899   2.887   6.784   9.074  0.0688 -0.3878  0.1679
  326MOL0     C44900   2.788   6.706   9.117 -0.1451  0.2164  0.7252
  326MOL0     N44901   2.262   6.650   9.756 -0.1134 -0.3754  0.2254
  326MOL0     N44902   2.167   6.665   9.841  0.4501  0.4303 -0.0483
  326MOL0     C44903   1.095   6.850   9.589 -1.2347 -0.5237  0.8260
  326MOL0     C44904   1.033   6.970   9.607  0.0945 -0.0337 -1.4650
  326MOL0     C44905   0.846   7.319   9.849 -0.6578  0.6803  0.1474
  326MOL0     C44906   0.883   7.415   9.757  0.6678 -0.6793  0.8179
  326MOL0     C44907   0.829   7.549   9.757  0.1094  0.8419  0.4670
  326MOL0     C44908   0.748   7.589   9.855 -0.8928 -0.0607 -0.6064
  326MOL0     O44909   0.708   7.720   9.845 -0.1456  0.2311  0.3403
  326MOL0     C44910   0.662   7.785   9.957  0.9236  0.1155 -0.2779
  326MOL0     C44911   0.697   7.932   9.937  0.3781 -0.7211 -0.1331
  326MOL0     C44912   0.848   7.966   9.920 -0.3681 -0.0396  0.0626
  326MOL0     C44913   0.866   8.113   9.891  0.4718 -0.5504 -0.7336
  326MOL0     C44914   1.012   8.153   9.879  0.7961  0.3163  0.6751
  326MOL0     C44915   1.128   8.180   9.867 -0.1281 -0.0155  0.4066
  326MOL0     C44916   0.718   7.499   9.958 -0.6305 -0.2235  0.6387
  326MOL0     C44917   0.760   7.360   9.956 -0.5588 -0.0237  0.9344
  326MOL0     C44918   0.703   7.269  10.056 -0.2477 -0.1179 -0.7265
  326MOL0     H44919   1.182   7.051   9.909  1.1670  0.7826  0.4062
  326MOL0     H44920   1.299   6.850   9.856  0.0459  0.0320 -1.4510
  326MOL0     H44921   1.458   6.767   9.591 -1.6462  2.5322  1.0415
  326MOL0     H44922   1.333   6.771   9.474  0.1974 -1.0118 -1.4605
  326MOL0     H44923   1.322   6.516   9.481 -0.3337  0.3240 -0.0239
  326MOL0     H44924   1.474   6.574   9.417 -0.9738  0.2073 -0.5298
  326MOL0     H44925   1.432   6.483   9.716  1.2364 -0.4796  1.0066
  326MOL0     H44926   1.488   6.380   9.574 -0.6528  0.2690 -0.7098
  326MOL0     H44927   1.678   6.574   9.565  1.6907 -1.2185  0.0811
  326MOL0     H44928   1.609   6.643   9.701  0.4535  0.2014 -1.0315
  326MOL0     H44929   1.747   6.367   9.694  0.7280 -0.4316  0.1122
  326MOL0     H44930   1.661   6.429   9.831  1.8945  0.8202  1.4749
  326MOL0     H44931   1.913   6.558   9.716  0.0928  0.5035 -0.1487
  326MOL0     H44932   1.819   6.630   9.845  0.9825  0.0634  0.9350
  326MOL0     H44933   1.945   6.347   9.864  1.7708  0.5589  1.7654
  326MOL0     H44934   1.836   6.420   9.989  1.3382  0.4658  1.3926
  326MOL0     H44935   1.985   6.608  10.017  0.5191 -0.0078  1.3935
  326MOL0     H44936   2.065   6.458  10.056  1.9335  0.0818 -1.7736
  326MOL0     H44937   2.196   6.340   9.828  3.0691  0.0972 -0.8339
  326MOL0     H44938   2.434   6.370   9.654  0.2731 -0.3557 -3.4291
  326MOL0     H44939   2.478   6.541   9.668 -1.9374  0.4705  4.3723
  326MOL0     H44940   2.286   6.411   9.471 -0.6465 -0.0347  1.3710
  326MOL0     H44941   2.306   6.583   9.484  0.4328  0.1396  1.7223
  326MOL0     H44942   2.534   6.397   9.409  1.9459  2.6528  0.3655
  326MOL0     H44943   2.434   6.483   9.290 -2.3298  1.2444  0.4316
  326MOL0     H44944   2.540   6.703   9.409  1.2448  0.6671  3.1446
  326MOL0     H44945   2.651   6.590   9.471 -0.6340  0.3391 -0.9017
  326MOL0     H44946   2.774   6.781   9.444  2.4809 -0.4726  0.0028
  326MOL0     H44947   3.045   6.972   9.459 -0.3322 -1.9701 -0.2737
  326MOL0     H44948   2.883   6.979   9.497 -1.2644 -1.3946 -1.4566
  326MOL0     H44949   2.938   7.088   9.363 -1.1280 -0.4390 -1.6029
  326MOL0     H44950   3.090   7.016   8.744 -2.3682  2.4288  2.4070
  326MOL0     H44951   3.295   7.115   8.615  0.8578 -0.3996 -0.4027
  326MOL0     H44952   3.638   7.251   8.839 -0.2697  1.2224 -0.8204
  326MOL0     H44953   3.687   7.089   8.768  0.2634 -0.1131  0.3292
  326MOL0     H44954   3.724   7.180   8.576  2.8710 -0.6943  0.8072
  326MOL0     H44955   3.659   7.350   8.627  0.1597  0.7809  1.5423
  326MOL0     H44956   3.911   7.227   8.759  1.2157  1.2881  1.0491
  326MOL0     H44957   3.842   7.391   8.772 -0.8184  1.5677  0.0253
  326MOL0     H44958   3.918   7.450   8.551 -0.5036 -0.9415 -0.4488
  326MOL0     H44959   3.927   7.287   8.508 -0.5899  0.4183 -0.1518
  326MOL0     H44960   4.130   7.416   8.694 -2.2390  2.9835 -1.8594
  326MOL0     H44961   4.135   7.249   8.628  0.7939  0.4914 -0.3235
  326MOL0     H44962   4.158   7.504   8.459  1.0348 -0.0888  2.1335
  326MOL0     H44963   4.167   7.333   8.402  0.4176 -1.6543  0.3170
  326MOL0     H44964   4.384   7.309   8.509  2.7911  1.7880 -0.4674
  326MOL0     H44965   4.336   7.442   8.628 -2.4910 -1.0624 -0.1739
  326MOL0     H44966   4.399   7.455   8.335 -1.8125 -2.5366  1.5544
  326MOL0     H44967   4.506   7.499   8.480 -0.1441  0.6768  0.7113
  326MOL0     H44968   3.510   7.135   8.974 -1.1107 -0.4847  2.1014
  326MOL0     H44969   3.354   7.022   9.085  2.6843  0.7141 -0.4656
  326MOL0     H44970   2.917   6.776   8.970 -2.6069  0.3712 -0.7393
  326MOL0     H44971   2.741   6.632   9.053 -0.3199 -0.8718  2.0571
  326MOL0     H44972   1.083   6.800   9.493  0.2054  1.9340 -0.7338
  326MOL0     H44973   0.964   7.007   9.531 -2.6819 -1.7355  0.0507
  326MOL0     H44974   0.952   7.395   9.676  0.0558 -0.3132  0.1944
  326MOL0     H44975   0.851   7.623   9.681 -1.4847  0.2123 -0.6708
  326MOL0     H44976   0.555   7.781   9.976  1.2917  0.9596  2.4374
  326MOL0     H44977   0.711   7.748  10.047  0.8841  0.9246  0.0861
  326MOL0     H44978   0.649   7.984  10.021  1.0934  0.6157 -0.5230
  326MOL0     H44979   0.644   7.981   9.855  1.8830 -0.2912 -0.8731
  326MOL0     H44980   0.891   7.954  10.020 -3.2828 -0.1659  1.4253
  326MOL0     H44981   0.896   7.906   9.842 -1.0449 -0.2619 -0.1950
  326MOL0     H44982   0.825   8.170   9.976  0.7781 -0.4460 -0.6549
  326MOL0     H44983   0.804   8.139   9.805 -0.8422  2.8881  1.0580
  326MOL0     H44984   1.228   8.215   9.851  0.8016 -1.8476  1.7924
  326MOL0     H44985   0.655   7.532  10.040 -1.6767  0.5311 -0.4321
  326MOL0     H44986   0.622   7.318  10.112  0.6410 -0.5414  0.9998
  326MOL0     H44987   0.662   7.180  10.006 -0.5274 -1.3079  1.4492
  326MOL0     H44988   0.777   7.237  10.130  2.1122  1.9854 -2.0611
  327MOL0     O44989   4.515  10.293   7.161  1.2350 -0.5024 -0.2823
  327MOL0     C44990   4.590  10.334   7.074 -0.6469  0.2877 -0.2937
  327MOL0     O44991   4.555  10.387   6.951  0.2355 -0.1006  0.3189
  327MOL0     C44992   4.425  10.425   6.921  0.1167 -0.1177  0.1856
  327MOL0     C44993   4.389  10.439   6.783  0.4651 -0.2763 -0.3907
  327MOL0     C44994   4.266  10.502   6.742  0.3329  0.3160  0.5653
  327MOL0     C44995   4.174  10.558   6.837 -0.2526 -0.1922  0.8528
  327MOL0     O44996   4.052  10.630   6.814  0.0895 -0.4816  0.8251
  327MOL0     C44997   4.026  10.677   6.675  0.8375 -0.0791  0.5535
  327MOL0     C44998   3.906  10.772   6.678 -0.9974  0.0623  0.4558
  327MOL0     C44999   3.869  10.817   6.534 -0.6855  0.2189  0.4637
  327MOL0     C45000   3.771  10.934   6.537  0.0329  0.4681 -0.5350
  327MOL0     C45001   3.728  10.986   6.400 -0.2107  0.7695 -0.7692
  327MOL0     C45002   3.658  11.124   6.429  0.7547  0.7820 -0.2638
  327MOL0     C45003   3.607  11.197   6.301 -0.6381 -0.0181 -0.3308
  327MOL0     C45004   3.474  11.142   6.235 -0.1526 -0.3764 -0.0997
  327MOL0     N45005   3.486  11.072   6.109 -0.3546  0.4490  0.4310
  327MOL0     C45006   3.533  11.121   5.987  0.5697 -0.5332 -0.3213
  327MOL0     C45007   3.534  11.009   5.907 -0.3559 -0.2514  0.9498
  327MOL0     C45008   3.577  11.010   5.763 -0.4790 -0.6454 -0.6871
  327MOL0     C45009   3.727  11.050   5.750 -0.4534  0.4305  0.6048
  327MOL0     C45010   3.828  10.931   5.775 -0.0353 -0.4039  0.2652
  327MOL0     C45011   3.960  10.942   5.703  0.0200  0.5407 -0.3056
  327MOL0     O45012   4.035  11.048   5.758  0.6981  0.1358 -0.3907
  327MOL0     C45013   4.171  11.055   5.731  0.3948  0.7224  0.4812
  327MOL0     C45014   4.232  11.005   5.608 -1.1206  0.3322  0.3466
  327MOL0     C45015   4.371  11.027   5.579  0.3392  0.4609 -0.6658
  327MOL0     C45016   4.419  10.981   5.443  0.5301 -0.0068  0.3047
  327MOL0     C45017   4.448  11.094   5.674 -0.3644 -0.1056  0.2617
  327MOL0     C45018   4.592  11.113   5.657  0.7194 -0.1960 -0.0803
  327MOL0     O45019   4.658  11.012   5.594 -0.1337  0.0041  0.2263
  327MOL0     C45020   4.794  11.015   5.578 -1.0101  0.3934 -0.4323
  327MOL0     C45021   4.847  11.109   5.494 -0.4015  0.3517 -0.1749
  327MOL0     C45022   4.985  11.121   5.481 -0.1336 -0.1149  0.0386
  327MOL0     C45023   5.068  11.038   5.546  0.1881 -0.1741  0.8193
  327MOL0     O45024   5.199  11.063   5.528  0.0891  0.7812  0.0822
  327MOL0     C45025   5.284  11.094   5.637 -0.2482  0.0830 -0.2525
  327MOL0     C45026   5.423  11.096   5.579 -0.8722 -0.1129  0.5199
  327MOL0     C45027   5.467  10.954   5.548  0.0021  0.2429  0.0528
  327MOL0     C45028   5.584  10.957   5.452  0.1656  0.9863  0.7028
  327MOL0     C45029   5.613  10.812   5.400 -0.0531 -0.9649  0.0805
  327MOL0     C45030   5.716  10.822   5.287 -1.0922 -0.3533 -0.4210
  327MOL0     C45031   5.754  10.682   5.234  0.6788 -0.8530  1.2835
  327MOL0     C45032   5.881  10.673   5.153  0.6195  0.2204 -0.4136
  327MOL0    Cl45033   6.032  10.682   5.253  0.2455 -0.3982 -0.0925
  327MOL0     C45034   5.024  10.947   5.642 -0.0963  0.4539  0.0652
  327MOL0     C45035   4.881  10.922   5.649  0.3599  0.0595  0.1215
  327MOL0     O45036   4.645  11.216   5.690 -0.0376  0.1729  0.3581
  327MOL0     C45037   4.385  11.155   5.790  1.3921  0.3626  0.2717
  327MOL0     C45038   4.250  11.134   5.816 -0.7342  0.1571  0.5112
  327MOL0     N45039   3.492  10.896   5.975 -0.2978 -0.0723  0.3274
  327MOL0     N45040   3.462  10.936   6.095 -0.5077  0.8288 -0.4687
  327MOL0     C45041   4.210  10.540   6.973 -0.2554  0.5152 -0.3067
  327MOL0     C45042   4.335  10.480   7.013 -0.1314 -0.1572  0.3061
  327MOL0     C45043   4.733  10.311   7.086 -0.2607  0.5909 -0.4342
  327MOL0     C45044   4.807  10.423   7.047  0.6719  0.7159  0.3761
  327MOL0     C45045   4.946  10.415   7.047 -0.2284 -0.3965  0.0345
  327MOL0     C45046   5.007  10.298   7.089 -0.4286 -0.9837 -1.0110
  327MOL0     O45047   5.141  10.298   7.085  0.3630 -0.5108 -0.8462
  327MOL0     C45048   5.182  10.223   6.978 -0.7356  0.0131  0.2982
  327MOL0     C45049   5.332  10.262   6.964 -0.2861  0.6645  0.0819
  327MOL0     C45050   5.426  10.153   6.908  0.1473  0.0745 -0.5458
  327MOL0     C45051   5.460  10.037   7.008 -0.0668 -0.8060  0.1431
  327MOL0     C45052   5.567  10.070   7.097 -0.7351 -0.2561 -0.0689
  327MOL0     C45053   5.658  10.107   7.170 -0.4344  1.0464  0.1356
  327MOL0     C45054   4.931  10.189   7.128  0.2908 -0.3863  0.7838
  327MOL0     C45055   4.789  10.194   7.137 -0.1447 -0.0736 -0.8212
  327MOL0     C45056   4.717  10.075   7.196 -0.2230  0.4763  0.5964
  327MOL0     H45057   4.459  10.406   6.706  3.3688  5.0642 -0.5263
  327MOL0     H45058   4.237  10.515   6.638  4.2040  1.8764 -0.4836
  327MOL0     H45059   3.996  10.591   6.615  0.7801 -1.0155  1.8869
  327MOL0     H45060   4.117  10.728   6.641  0.2448 -0.5029 -1.7925
  327MOL0     H45061   3.816  10.735   6.728 -2.7777  2.3607 -0.8038
  327MOL0     H45062   3.944  10.860   6.732 -1.8792  1.2895 -0.8465
  327MOL0     H45063   3.961  10.849   6.484 -0.5832 -2.0155 -0.9263
  327MOL0     H45064   3.848  10.725   6.479  1.0773 -1.8377  2.9519
  327MOL0     H45065   3.681  10.897   6.588  0.4028 -1.0885 -0.9779
  327MOL0     H45066   3.817  11.013   6.597 -0.2680 -0.5232  1.0609
  327MOL0     H45067   3.668  10.910   6.348  2.8150 -1.5713 -1.1337
  327MOL0     H45068   3.818  10.992   6.339  0.2756  0.9435 -0.0375
  327MOL0     H45069   3.572  11.095   6.489  0.9007  1.6354  0.3667
  327MOL0     H45070   3.723  11.190   6.487  1.0536  0.1714  0.1001
  327MOL0     H45071   3.687  11.201   6.227  2.1884  0.8863  2.5662
  327MOL0     H45072   3.601  11.303   6.328 -0.8348 -0.2762  0.7141
  327MOL0     H45073   3.412  11.091   6.310 -0.5723  1.4766  0.8930
  327MOL0     H45074   3.421  11.234   6.210  3.2546  1.8251  0.1169
  327MOL0     H45075   3.575  11.216   5.958  0.2853 -1.0692 -2.6901
  327MOL0     H45076   3.516  11.087   5.715  0.4893  0.2347 -0.5459
  327MOL0     H45077   3.551  10.916   5.712 -1.0961 -0.7179 -0.2426
  327MOL0     H45078   3.747  11.094   5.652 -0.7341  0.3512  0.5117
  327MOL0     H45079   3.754  11.124   5.826  3.5012 -0.8133  0.6454
  327MOL0     H45080   3.853  10.921   5.881 -0.3483 -0.4012  0.3400
  327MOL0     H45081   3.770  10.844   5.741 -0.7532  0.0715  0.2540
  327MOL0     H45082   4.013  10.849   5.728 -1.8707 -0.1245  1.5295
  327MOL0     H45083   3.941  10.956   5.596 -1.2787 -1.2270 -0.3544
  327MOL0     H45084   4.163  10.956   5.541 -1.7793  0.4266  0.9461
  327MOL0     H45085   4.488  11.056   5.404  0.7277  1.6154  3.4574
  327MOL0     H45086   4.329  10.973   5.381  0.5962  1.3259  0.0055
  327MOL0     H45087   4.470  10.885   5.459  2.4349  0.7515 -0.7792
  327MOL0     H45088   4.781  11.169   5.431 -2.3039 -0.2456  1.1551
  327MOL0     H45089   5.028  11.207   5.430  1.4216 -1.7677 -1.6249
  327MOL0     H45090   5.262  11.200   5.655 -0.1037  0.0254  0.2938
  327MOL0     H45091   5.283  11.024   5.721  1.1366 -1.6232 -1.5866
  327MOL0     H45092   5.432  11.168   5.496  0.7636  0.4592  1.1552
  327MOL0     H45093   5.489  11.136   5.657 -0.5390  0.6034 -0.1150
  327MOL0     H45094   5.384  10.898   5.505  0.8458 -1.9855  1.1602
  327MOL0     H45095   5.491  10.901   5.641  1.1743 -0.5470 -0.6730
  327MOL0     H45096   5.668  10.997   5.509  0.3905  1.5984 -0.0434
  327MOL0     H45097   5.567  11.022   5.365  1.8791  1.7439  0.8898
  327MOL0     H45098   5.632  10.744   5.483  1.7891  1.3753  1.7172
  327MOL0     H45099   5.528  10.769   5.345 -0.3089  0.9376 -1.1064
  327MOL0     H45100   5.810  10.858   5.331 -0.5109 -0.7771 -1.2854
  327MOL0     H45101   5.690  10.895   5.209  1.8674  2.0374  0.6141
  327MOL0     H45102   5.673  10.638   5.173  2.2827 -1.1570 -0.7343
  327MOL0     H45103   5.756  10.615   5.320  4.4421 -1.5747  0.7816
  327MOL0     H45104   5.878  10.750   5.075  1.7233 -0.4627 -1.1610
  327MOL0     H45105   5.875  10.574   5.108 -1.1956  0.5500 -0.9810
  327MOL0     H45106   5.090  10.883   5.698 -0.7626 -3.2055 -2.9431
  327MOL0     H45107   4.838  10.854   5.722 -0.9667  0.6442 -0.0686
  327MOL0     H45108   4.440  11.223   5.854 -0.7130  1.3228  1.1817
  327MOL0     H45109   4.203  11.172   5.906  1.2247  1.1216  1.1886
  327MOL0     H45110   4.136  10.578   7.043  0.1090  1.8511 -0.6353
  327MOL0     H45111   4.363  10.481   7.118 -0.3114 -0.3725  0.3572
  327MOL0     H45112   4.762  10.515   7.010  1.5314  1.1733  0.4354
  327MOL0     H45113   5.009  10.501   7.028  1.9301 -1.4110  2.0891
  327MOL0     H45114   5.177  10.114   6.988 -1.0818  0.0671  0.7175
  327MOL0     H45115   5.126  10.237   6.885  0.3073 -1.4785 -0.5922
  327MOL0     H45116   5.360  10.289   7.066 -0.5729  1.9557 -0.1609
  327MOL0     H45117   5.337  10.350   6.900 -0.6088  0.2634 -0.5066
  327MOL0     H45118   5.387  10.110   6.816  1.5261 -3.9570  0.5409
  327MOL0     H45119   5.522  10.199   6.883  0.2931 -0.5994 -1.2468
  327MOL0     H45120   5.506   9.953   6.955 -1.0338 -1.9038  0.9905
  327MOL0     H45121   5.373  10.003   7.065 -0.8494  2.1302  0.8812
  327MOL0     H45122   5.739  10.117   7.239  2.2611 -2.1510 -2.2382
  327MOL0     H45123   4.991  10.107   7.166  1.5634  0.8172  1.5045
  327MOL0     H45124   4.636  10.060   7.124 -1.3536  1.2745  1.6673
  327MOL0     H45125   4.774   9.983   7.208  0.5280  1.2260  3.2969
  327MOL0     H45126   4.686  10.098   7.298 -2.4911  0.6572 -0.0663
  328MOL0     O45127   7.539   4.052   6.298 -0.5941 -0.7542  0.4792
  328MOL0     C45128   7.551   4.169   6.340 -0.7875  0.3408 -0.1164
  328MOL0     O45129   7.655   4.260   6.332 -0.4612  0.6551 -0.7905
  328MOL0     C45130   7.777   4.204   6.295 -0.2732 -0.4985 -0.2185
  328MOL0     C45131   7.842   4.266   6.189  0.4077 -0.3246 -0.6463
  328MOL0     C45132   7.973   4.237   6.148  0.6893 -0.1153  1.2116
  328MOL0     C45133   8.034   4.135   6.211 -0.2013  0.5016 -0.0109
  328MOL0     O45134   8.157   4.099   6.165  0.0218  0.3746 -0.5737
  328MOL0     C45135   8.263   4.191   6.156  0.2031  0.0872  0.6365
  328MOL0     C45136   8.377   4.111   6.220 -0.2058 -0.5210  0.0368
  328MOL0     C45137   8.523   4.162   6.184  0.4356 -0.1570  0.0376
  328MOL0     C45138   8.548   4.311   6.195  0.4795 -0.5782 -0.6515
  328MOL0     C45139   8.689   4.370   6.187  0.2154  0.1247 -0.8653
  328MOL0     C45140   8.738   4.389   6.050  0.1955  0.1718  0.3980
  328MOL0     C45141   8.882   4.440   6.030  0.2121 -0.4156 -0.1164
  328MOL0     C45142   8.891   4.582   6.092 -0.6311 -0.0025 -0.3154
  328MOL0     N45143   9.016   4.645   6.054 -0.4479 -0.8129  0.9103
  328MOL0     C45144   9.085   4.620   5.937  0.3375  0.6165  0.6592
  328MOL0     C45145   9.173   4.714   5.925 -0.1585  1.1298  0.0280
  328MOL0     C45146   9.247   4.732   5.794 -0.2444 -0.6620 -0.6619
  328MOL0     C45147   9.379   4.812   5.815  0.6894 -0.9284  0.0662
  328MOL0     C45148   9.459   4.821   5.686 -0.1252 -0.1382  0.0281
  328MOL0     C45149   9.602   4.869   5.700 -0.4495 -1.2586  0.0251
  328MOL0     O45150   9.704   4.794   5.624  0.1658 -0.2301  0.2299
  328MOL0     C45151   9.830   4.830   5.624  0.3387  0.4967 -0.1383
  328MOL0     C45152   9.923   4.739   5.571  0.5777 -0.3431 -0.3244
  328MOL0     C45153  10.061   4.765   5.556  0.3525  0.2298 -0.5183
  328MOL0     C45154  10.142   4.668   5.474  0.3544 -0.8168  0.1746
  328MOL0     C45155  10.116   4.868   5.627  0.5699  0.3565 -0.8191
  328MOL0     C45156  10.259   4.903   5.643 -0.2584  0.5947  0.0889
  328MOL0     O45157  10.290   5.002   5.722 -0.2826 -0.1224 -0.0638
  328MOL0     C45158  10.406   5.068   5.703 -0.6860 -0.3926  0.7728
  328MOL0     C45159  10.503   5.050   5.598  0.6153  0.2813 -0.2003
  328MOL0     C45160  10.622   5.117   5.589 -0.2723 -0.7815 -0.6550
  328MOL0     C45161  10.652   5.222   5.692 -0.6532  0.2471  0.0884
  328MOL0     O45162  10.762   5.298   5.691 -0.0839  0.1614  0.5933
  328MOL0     C45163  10.879   5.223   5.656 -0.4631 -0.4454  0.3767
  328MOL0     C45164  10.990   5.323   5.679  0.7500 -0.6665  0.1011
  328MOL0     C45165  11.118   5.261   5.645 -0.3399  0.1900 -0.2248
  328MOL0     C45166  11.168   5.163   5.753  0.1038  0.1435  0.3700
  328MOL0     C45167  11.315   5.127   5.727  0.3885  0.1473 -0.4818
  328MOL0     C45168  11.363   5.019   5.824  0.7016 -0.0450 -0.2631
  328MOL0     C45169  11.498   4.964   5.779 -0.2385  0.5504  0.1472
  328MOL0     C45170  11.524   4.823   5.833 -0.3427 -0.1208  0.1973
  328MOL0    Cl45171  11.476   4.810   6.005 -0.2180  0.3202 -0.0338
  328MOL0     C45172  10.547   5.259   5.788 -0.2344  0.0401 -0.3535
  328MOL0     C45173  10.428   5.182   5.795 -0.1202 -0.2810 -0.2059
  328MOL0     O45174  10.339   4.817   5.598  0.6499  0.9230  0.2425
  328MOL0     C45175  10.017   4.959   5.694 -0.2934  0.0659 -0.2520
  328MOL0     C45176   9.883   4.946   5.681  0.4724 -0.3849  0.0610
  328MOL0     N45177   9.166   4.796   6.039 -0.2704 -0.0246  0.2170
  328MOL0     N45178   9.070   4.752   6.111 -0.6999  0.1924 -0.3506
  328MOL0     C45179   7.971   4.066   6.313 -0.6773  0.2903  0.4543
  328MOL0     C45180   7.851   4.109   6.365 -0.4423 -0.6647  0.4946
  328MOL0     C45181   7.461   4.226   6.435  0.6434 -0.6255 -0.8027
  328MOL0     C45182   7.414   4.360   6.426 -0.3546 -0.0523  0.2574
  328MOL0     C45183   7.335   4.417   6.523  0.4341 -0.2243 -0.4153
  328MOL0     C45184   7.301   4.349   6.642 -0.6328 -0.3134  0.0289
  328MOL0     O45185   7.217   4.401   6.740 -0.0535 -0.0614 -0.3742
  328MOL0     C45186   7.213   4.548   6.751 -0.6344  0.1986 -0.6093
  328MOL0     C45187   7.164   4.575   6.899  0.0331  0.0924  0.0239
  328MOL0     C45188   7.188   4.726   6.942 -0.4869 -0.3927 -0.0912
  328MOL0     C45189   7.117   4.827   6.851  0.1246 -0.7990 -0.2210
  328MOL0     C45190   7.100   4.961   6.908  0.2165  0.5802  1.0318
  328MOL0     C45191   7.096   5.065   6.960 -0.0387 -0.6502 -0.1318
  328MOL0     C45192   7.350   4.217   6.661 -0.2263 -1.1833  0.5063
  328MOL0     C45193   7.431   4.158   6.557 -0.2203 -0.0556 -0.1809
  328MOL0     C45194   7.492   4.022   6.584 -0.2482  1.4391  0.0049
  328MOL0     H45195   7.788   4.346   6.138 -0.1618 -0.5228 -0.3623
  328MOL0     H45196   8.024   4.301   6.077 -1.7790  1.5474  0.7967
  328MOL0     H45197   8.247   4.286   6.208 -0.8442 -0.2692  1.0006
  328MOL0     H45198   8.281   4.214   6.050  2.9426 -0.5858  0.8965
  328MOL0     H45199   8.362   4.121   6.328  0.3458 -2.4531  0.3307
  328MOL0     H45200   8.369   4.005   6.194 -1.1676 -0.0675 -1.7238
  328MOL0     H45201   8.592   4.110   6.251  0.4982  0.9351  0.8413
  328MOL0     H45202   8.550   4.131   6.082  0.8163  2.1150 -0.6023
  328MOL0     H45203   8.495   4.358   6.112  0.2574 -1.8449 -1.2615
  328MOL0     H45204   8.504   4.341   6.291 -0.5565 -0.8137 -1.0366
  328MOL0     H45205   8.760   4.309   6.244 -0.4035  0.2203  0.0308
  328MOL0     H45206   8.689   4.463   6.245  2.1544  0.5522 -1.4889
  328MOL0     H45207   8.731   4.295   5.993 -1.2505  0.8197 -0.5365
  328MOL0     H45208   8.673   4.460   6.000  0.0084  0.5651  1.1964
  328MOL0     H45209   8.915   4.433   5.926 -0.1678  1.2267 -0.3655
  328MOL0     H45210   8.949   4.376   6.090 -0.7580 -1.1728  0.1849
  328MOL0     H45211   8.807   4.639   6.052 -2.4740 -2.6531 -0.5240
  328MOL0     H45212   8.892   4.586   6.201  1.8590  1.7679 -0.3334
  328MOL0     H45213   9.064   4.552   5.854  4.0175  0.6602 -0.4745
  328MOL0     H45214   9.183   4.791   5.728 -1.4882 -1.0185  0.1875
  328MOL0     H45215   9.272   4.633   5.756  2.6272 -1.0718  1.9302
  328MOL0     H45216   9.335   4.907   5.848  1.4234 -0.3423 -0.5786
  328MOL0     H45217   9.437   4.758   5.890  0.4300 -2.5330 -0.8532
  328MOL0     H45218   9.459   4.722   5.640 -2.9174  0.6889 -2.0592
  328MOL0     H45219   9.401   4.878   5.612 -1.5643 -3.3831 -1.5919
  328MOL0     H45220   9.605   4.966   5.648 -0.9951 -1.5915 -0.6505
  328MOL0     H45221   9.624   4.883   5.806  0.6875  0.5357 -0.4069
  328MOL0     H45222   9.888   4.645   5.529 -0.8657 -1.3894  2.8452
  328MOL0     H45223  10.205   4.725   5.405 -0.6327  0.9550  0.6889
  328MOL0     H45224  10.076   4.595   5.427  0.5703 -0.9811  0.1233
  328MOL0     H45225  10.204   4.617   5.549  1.8833 -0.1199 -0.5610
  328MOL0     H45226  10.495   4.967   5.529  0.0995 -1.3115  1.6830
  328MOL0     H45227  10.691   5.074   5.517  2.2636  1.2896  0.3982
  328MOL0     H45228  10.887   5.134   5.720 -2.0387 -0.5215  0.5088
  328MOL0     H45229  10.874   5.194   5.550 -1.4451 -1.4877  0.6788
  328MOL0     H45230  10.978   5.420   5.631 -0.5280 -1.5147 -1.3673
  328MOL0     H45231  10.989   5.347   5.786 -0.4363  0.3359 -0.1150
  328MOL0     H45232  11.199   5.334   5.632 -2.0125  2.0007 -0.9850
  328MOL0     H45233  11.118   5.206   5.550  0.0814 -1.0565  0.4684
  328MOL0     H45234  11.116   5.068   5.740 -0.5175  0.5382 -0.1164
  328MOL0     H45235  11.139   5.201   5.852 -1.7756 -2.2697  0.8285
  328MOL0     H45236  11.325   5.110   5.620 -4.5861  1.4043 -1.3669
  328MOL0     H45237  11.386   5.208   5.746  0.3953  0.9763 -3.5948
  328MOL0     H45238  11.284   4.943   5.834  0.4902 -0.0715 -1.9362
  328MOL0     H45239  11.372   5.060   5.925 -4.6178  1.8200 -0.2328
  328MOL0     H45240  11.581   5.026   5.814  1.6516 -2.6597  1.8267
  328MOL0     H45241  11.510   4.975   5.671 -1.5959  1.2662  0.0378
  328MOL0     H45242  11.632   4.807   5.820 -0.7233 -3.5006  0.3010
  328MOL0     H45243  11.470   4.751   5.771  0.4822  0.1632 -0.8756
  328MOL0     H45244  10.538   5.352   5.844 -2.0945  0.1667 -0.7781
  328MOL0     H45245  10.348   5.216   5.861  0.5656  1.3387 -0.1739
  328MOL0     H45246  10.057   5.041   5.753  1.0703  1.0788 -2.4196
  328MOL0     H45247   9.810   5.006   5.734  0.0299 -1.4639  0.7006
  328MOL0     H45248   8.015   3.981   6.364 -0.2980  0.0131 -0.3191
  328MOL0     H45249   7.810   4.062   6.454 -4.4473  0.4096 -0.5926
  328MOL0     H45250   7.435   4.420   6.339  1.7321  0.4252  1.0349
  328MOL0     H45251   7.298   4.516   6.498 -1.7143 -1.1663 -1.1696
  328MOL0     H45252   7.315   4.587   6.743  0.5639 -2.2596  1.2824
  328MOL0     H45253   7.154   4.582   6.665  2.7185 -0.9829 -3.6678
  328MOL0     H45254   7.219   4.503   6.960  0.4024  1.1159  0.9496
  328MOL0     H45255   7.056   4.554   6.901 -0.4336  2.3277  1.3870
  328MOL0     H45256   7.165   4.737   7.049 -1.8946 -0.8755 -0.3159
  328MOL0     H45257   7.293   4.755   6.937 -0.0966 -1.9670 -2.9240
  328MOL0     H45258   7.014   4.793   6.837 -0.6457  0.1557  2.5523
  328MOL0     H45259   7.164   4.839   6.753  1.0011 -2.8047 -0.0999
  328MOL0     H45260   7.084   5.160   7.008 -2.5205 -0.5917 -0.6961
  328MOL0     H45261   7.329   4.162   6.751 -0.4289 -1.0654  0.5308
  328MOL0     H45262   7.590   4.035   6.630  1.3929 -3.2007 -1.6072
  328MOL0     H45263   7.435   3.969   6.661 -1.7683  3.5006  0.3753
  328MOL0     H45264   7.504   3.954   6.499  0.0465  0.6001  0.7081
  329MOL0     O45265   9.503   5.007   5.244 -0.3755 -0.5408 -0.3984
  329MOL0     C45266   9.461   4.954   5.142 -0.3812 -1.2159  0.0961
  329MOL0     O45267   9.538   4.899   5.051 -0.2487 -1.2118  0.2874
  329MOL0     C45268   9.667   4.866   5.075  0.2122  0.8204 -0.5654
  329MOL0     C45269   9.685   4.726   5.112 -0.1422  0.1898 -0.1031
  329MOL0     C45270   9.810   4.680   5.148 -0.7676  0.2049  0.4680
  329MOL0     C45271   9.919   4.766   5.148 -0.4532  0.3230 -0.2575
  329MOL0     O45272  10.052   4.723   5.168  0.1916 -0.1370  0.0770
  329MOL0     C45273  10.097   4.598   5.114 -0.4981  0.2871  0.1171
  329MOL0     C45274  10.254   4.595   5.104 -0.0368 -0.1940 -0.3269
  329MOL0     C45275  10.302   4.692   4.993  0.6503  0.5526 -0.0815
  329MOL0     C45276  10.453   4.664   4.979 -0.2795 -0.4495  0.1004
  329MOL0     C45277  10.530   4.773   4.896  0.0778  0.8104  0.3454
  329MOL0     C45278  10.673   4.781   4.935  0.0638  0.3813 -0.1304
  329MOL0     C45279  10.750   4.654   4.906 -0.2309  0.9030  0.1537
  329MOL0     C45280  10.882   4.652   4.978 -0.4939  0.3391  0.3131
  329MOL0     N45281  10.968   4.762   4.934  0.0926 -0.2216 -0.0866
  329MOL0     C45282  11.048   4.768   4.823  0.7307 -0.6429 -1.1456
  329MOL0     C45283  11.100   4.892   4.829  1.4540 -0.2683  0.0425
  329MOL0     C45284  11.199   4.933   4.727  0.0724  0.0528 -0.4957
  329MOL0     C45285  11.335   4.896   4.784  0.4553  1.0905 -0.2546
  329MOL0     C45286  11.452   4.984   4.736  0.8568  0.4748  0.6855
  329MOL0     C45287  11.586   4.954   4.809  0.2080  0.5145  0.2979
  329MOL0     O45288  11.592   5.012   4.944 -0.0567  0.6403  0.6545
  329MOL0     C45289  11.716   5.023   5.000 -0.2443 -0.1675 -0.1101
  329MOL0     C45290  11.825   4.934   4.976 -0.4244 -0.5746  0.2823
  329MOL0     C45291  11.947   4.961   5.041 -0.4135  0.3205  0.3134
  329MOL0     C45292  12.070   4.873   5.005  0.8668  0.7678 -0.2236
  329MOL0     C45293  11.960   5.074   5.123 -0.8011 -0.0513  1.0561
  329MOL0     C45294  12.082   5.124   5.188 -0.2842 -0.6468  0.2341
  329MOL0     O45295  12.055   5.207   5.298 -0.2432  0.6528  0.1507
  329MOL0     C45296  12.172   5.258   5.352  1.0069  0.1819 -0.6301
  329MOL0     C45297  12.253   5.186   5.434 -0.0904 -0.1322 -0.8014
  329MOL0     C45298  12.371   5.243   5.482  0.1267 -0.1313 -0.3729
  329MOL0     C45299  12.396   5.379   5.453 -0.0546 -0.1617 -0.2334
  329MOL0     O45300  12.505   5.445   5.499 -0.2775  0.7909 -0.5012
  329MOL0     C45301  12.586   5.368   5.597  0.4328 -1.0043  0.3920
  329MOL0     C45302  12.702   5.452   5.636 -0.8650 -0.3775  0.7715
  329MOL0     C45303  12.793   5.385   5.736 -0.4689  0.1331  0.9362
  329MOL0     C45304  12.917   5.468   5.778 -0.3065  0.9217 -0.1758
  329MOL0     C45305  13.014   5.392   5.857 -0.6908 -0.4251  0.0335
  329MOL0     C45306  13.146   5.451   5.910  0.0488  1.1078 -0.1681
  329MOL0     C45307  13.125   5.588   5.988 -0.2532  0.4146  0.0815
  329MOL0     C45308  13.256   5.656   6.034  0.1791  0.0298 -0.3465
  329MOL0    Cl45309  13.319   5.584   6.189 -0.1250  0.4742 -0.4580
  329MOL0     C45310  12.306   5.455   5.373 -0.0893 -0.8640 -1.0145
  329MOL0     C45311  12.188   5.392   5.331 -1.0136 -0.4575  0.1565
  329MOL0     O45312  12.197   5.090   5.155 -0.1109 -0.1792 -0.3268
  329MOL0     C45313  11.855   5.166   5.135  0.3959  0.2415 -0.1722
  329MOL0     C45314  11.732   5.135   5.079 -0.1862 -0.3667  0.5495
  329MOL0     N45315  11.059   4.958   4.940 -0.2053 -0.1655 -0.4890
  329MOL0     N45316  10.988   4.875   5.008 -0.0221 -0.4900 -0.0314
  329MOL0     C45317   9.901   4.896   5.123  0.1848 -0.7826  0.6898
  329MOL0     C45318   9.777   4.950   5.089  1.0465 -0.3549  0.1479
  329MOL0     C45319   9.318   4.964   5.109  0.1333 -0.3335 -0.0082
  329MOL0     C45320   9.280   4.901   4.987 -0.4563  0.2191  0.5674
  329MOL0     C45321   9.154   4.925   4.929  0.0011  0.0153  0.1327
  329MOL0     C45322   9.064   4.999   4.998 -0.3238 -1.1710  0.0883
  329MOL0     O45323   8.943   5.028   4.940  0.3580  0.3732 -0.1645
  329MOL0     C45324   8.831   4.980   5.017  0.5915 -0.4168  0.0403
  329MOL0     C45325   8.728   4.946   4.903  0.2960 -0.3841 -0.1860
  329MOL0     C45326   8.612   4.872   4.980 -0.2079  0.0589  0.3001
  329MOL0     C45327   8.510   4.809   4.880 -0.8008 -0.3261  0.3239
  329MOL0     C45328   8.422   4.911   4.822 -0.0103 -0.7078 -0.0914
  329MOL0     C45329   8.352   5.006   4.790  0.4634  0.9718 -0.7087
  329MOL0     C45330   9.096   5.050   5.125 -0.3464  0.3859 -0.7421
  329MOL0     C45331   9.224   5.043   5.183  0.3990 -0.3034 -0.4335
  329MOL0     C45332   9.246   5.109   5.321  0.5544  0.7678 -0.7507
  329MOL0     H45333   9.606   4.653   5.099  1.5240 -1.4387 -1.6750
  329MOL0     H45334   9.830   4.573   5.159 -1.8542 -0.1655 -0.8823
  329MOL0     H45335  10.049   4.574   5.018 -0.5167 -0.7418  0.3787
  329MOL0     H45336  10.066   4.527   5.191 -2.0564 -0.6796 -1.3123
  329MOL0     H45337  10.293   4.625   5.201 -1.1937 -2.1663  0.8251
  329MOL0     H45338  10.287   4.493   5.080 -0.3412 -0.1340 -1.0526
  329MOL0     H45339  10.246   4.657   4.906  1.7193 -1.3044 -0.0701
  329MOL0     H45340  10.284   4.796   5.023  2.4201  0.0405  3.2155
  329MOL0     H45341  10.503   4.655   5.076  0.7273  5.4997  0.5647
  329MOL0     H45342  10.456   4.567   4.930  2.1989 -1.1410  1.4467
  329MOL0     H45343  10.483   4.870   4.915 -2.5641 -0.7772  2.6946
  329MOL0     H45344  10.514   4.759   4.788  2.5865  1.6408 -0.2119
  329MOL0     H45345  10.714   4.864   4.877 -2.7575 -0.1992 -3.2684
  329MOL0     H45346  10.675   4.798   5.043 -2.8257 -0.0900  0.0826
  329MOL0     H45347  10.783   4.643   4.803  0.6063 -1.1709  0.6036
  329MOL0     H45348  10.702   4.559   4.930  1.4754 -0.6025 -2.0053
  329MOL0     H45349  10.860   4.663   5.085  1.2476  4.2448  0.4512
  329MOL0     H45350  10.925   4.552   4.970 -3.7315 -1.3362  1.7471
  329MOL0     H45351  11.057   4.692   4.745  1.9156 -1.5426 -0.1663
  329MOL0     H45352  11.198   5.041   4.708  0.5201  0.1428 -0.0427
  329MOL0     H45353  11.178   4.887   4.630 -1.3886 -1.0341  0.2966
  329MOL0     H45354  11.336   4.903   4.893 -1.7528 -0.7566 -0.0335
  329MOL0     H45355  11.345   4.790   4.758 -0.5555  0.7822  0.5221
  329MOL0     H45356  11.472   4.958   4.632  0.7829 -2.0900  1.2597
  329MOL0     H45357  11.426   5.088   4.759 -0.7668  0.5912 -1.4063
  329MOL0     H45358  11.602   4.846   4.815 -0.5689  0.1679 -2.5442
  329MOL0     H45359  11.670   4.997   4.754  0.6632 -0.6561  0.0508
  329MOL0     H45360  11.798   4.845   4.920  0.0098  0.1133 -1.0763
  329MOL0     H45361  12.042   4.782   4.949  5.1099 -0.4934 -0.6614
  329MOL0     H45362  12.133   4.841   5.088  1.1137 -0.5931 -0.9017
  329MOL0     H45363  12.133   4.930   4.937  2.9442  2.8089  3.1678
  329MOL0     H45364  12.230   5.082   5.454  2.1235 -1.3237 -3.6920
  329MOL0     H45365  12.428   5.175   5.545 -2.2699 -1.5518  0.3917
  329MOL0     H45366  12.523   5.336   5.680 -0.4037 -2.7793 -0.8616
  329MOL0     H45367  12.629   5.280   5.550 -0.6148 -0.9511 -0.7331
  329MOL0     H45368  12.758   5.491   5.550 -1.0614  2.5389  1.8619
  329MOL0     H45369  12.666   5.543   5.686  0.4182 -0.6439  2.2635
  329MOL0     H45370  12.834   5.303   5.676 -0.4351  0.1513  0.9347
  329MOL0     H45371  12.736   5.344   5.819 -0.3709 -0.2467  0.8182
  329MOL0     H45372  12.875   5.555   5.828 -0.3165  1.3289 -0.8668
  329MOL0     H45373  12.967   5.504   5.687  0.9407 -1.1336 -0.3508
  329MOL0     H45374  12.963   5.354   5.946  1.1672  3.4181  3.0324
  329MOL0     H45375  13.053   5.306   5.802  1.6668 -0.0095  0.9599
  329MOL0     H45376  13.212   5.468   5.824  0.3093 -2.3705 -0.7931
  329MOL0     H45377  13.203   5.381   5.972 -1.0451  1.2263  1.0125
  329MOL0     H45378  13.075   5.554   6.079  2.1751 -0.8005  1.0721
  329MOL0     H45379  13.064   5.652   5.924 -1.9346 -1.6555 -0.5166
  329MOL0     H45380  13.254   5.765   6.049  2.8406  0.1819 -0.7017
  329MOL0     H45381  13.333   5.632   5.961  2.3134  1.1359  1.4109
  329MOL0     H45382  12.321   5.559   5.346 -2.8818  0.3051  1.3846
  329MOL0     H45383  12.117   5.438   5.263  1.6504 -0.4751 -2.8319
  329MOL0     H45384  11.865   5.255   5.196  0.5292 -0.6708  1.1941
  329MOL0     H45385  11.645   5.199   5.087 -1.4938 -1.3603 -3.5221
  329MOL0     H45386   9.984   4.966   5.123  0.5567 -1.1240  3.1822
  329MOL0     H45387   9.747   5.053   5.075 -1.3798 -0.6422  2.4182
  329MOL0     H45388   9.344   4.834   4.931 -2.5030  0.4817 -2.3286
  329MOL0     H45389   9.127   4.884   4.833 -3.9872 -0.4734  1.2990
  329MOL0     H45390   8.865   4.894   5.076  0.6664  0.0175  0.6409
  329MOL0     H45391   8.799   5.057   5.087  1.3187  0.4214 -0.5314
  329MOL0     H45392   8.785   4.884   4.834  0.4558 -0.9391  0.4295
  329MOL0     H45393   8.698   5.040   4.854 -0.2040 -0.0113  0.7946
  329MOL0     H45394   8.659   4.791   5.036 -0.0712 -1.1624 -1.5124
  329MOL0     H45395   8.560   4.949   5.039 -2.3536 -0.5209 -0.7040
  329MOL0     H45396   8.461   4.722   4.926  0.3380 -1.1012  0.1151
  329MOL0     H45397   8.565   4.776   4.791 -1.3774  4.0479 -1.9103
  329MOL0     H45398   8.293   5.090   4.759  1.3884  1.5802 -0.8735
  329MOL0     H45399   9.020   5.112   5.171 -0.3667  1.1181 -1.7376
  329MOL0     H45400   9.307   5.199   5.309  3.1411 -1.0082 -1.7499
  329MOL0     H45401   9.151   5.138   5.368  0.8547 -0.2314  0.5070
  329MOL0     H45402   9.295   5.030   5.378  0.8416 -2.3541 -4.8456
  330MOL0     O45403   8.335   9.002   3.911  0.3735  0.1030 -0.1344
  330MOL0     C45404   8.252   9.002   3.816  0.3939 -0.8996 -0.5136
  330MOL0     O45405   8.285   9.020   3.691 -0.2560 -0.1408  0.4095
  330MOL0     C45406   8.407   9.027   3.640 -0.2762  0.3159 -0.2521
  330MOL0     C45407   8.428   8.985   3.506  0.1411  0.5175  0.4809
  330MOL0     C45408   8.552   8.993   3.435  0.7556 -0.1730  0.3634
  330MOL0     C45409   8.666   9.029   3.510  0.6728 -0.8606  0.4298
  330MOL0     O45410   8.793   9.025   3.464 -0.1188 -0.0831 -0.3452
  330MOL0     C45411   8.814   8.992   3.329 -0.3914 -0.2753 -0.3056
  330MOL0     C45412   8.953   9.021   3.280  0.1207  0.4956 -0.4526
  330MOL0     C45413   8.962   9.034   3.129 -1.1616 -0.2582 -0.0512
  330MOL0     C45414   9.120   9.028   3.095  0.3825 -0.0112  0.3097
  330MOL0     C45415   9.156   9.007   2.947  0.0785  0.7667 -0.7108
  330MOL0     C45416   9.089   9.108   2.854 -0.1027 -0.7366  1.6309
  330MOL0     C45417   9.134   9.087   2.708 -0.0459  0.0874 -0.4561
  330MOL0     C45418   9.089   9.190   2.610 -0.4154 -0.3076  0.1280
  330MOL0     N45419   9.116   9.153   2.465 -0.0972 -0.1174  0.4028
  330MOL0     C45420   9.235   9.195   2.403  0.0276 -0.7315 -0.3424
  330MOL0     C45421   9.195   9.167   2.273 -1.3969 -0.3982  0.1699
  330MOL0     C45422   9.279   9.171   2.149  0.6473 -0.3785 -0.2934
  330MOL0     C45423   9.240   9.294   2.066 -0.0012 -0.7111  0.0087
  330MOL0     C45424   9.294   9.433   2.119 -0.6074  0.8730 -0.0510
  330MOL0     C45425   9.448   9.442   2.134  0.3731  0.0077 -0.0630
  330MOL0     O45426   9.521   9.487   2.022  0.4730 -0.4195  0.2783
  330MOL0     C45427   9.658   9.507   2.029  0.6565 -0.4552  0.1884
  330MOL0     C45428   9.714   9.542   1.916 -1.0389 -0.1261  0.8368
  330MOL0     C45429   9.852   9.574   1.905  0.4002 -0.4236  0.0609
  330MOL0     C45430   9.897   9.617   1.763 -0.0836  0.1238 -0.0416
  330MOL0     C45431   9.935   9.555   2.022 -0.5590 -0.0931  0.5249
  330MOL0     C45432  10.080   9.584   2.027  0.7733  0.3089 -0.2596
  330MOL0     O45433  10.120   9.704   1.975 -0.1680  0.0334 -0.4184
  330MOL0     C45434  10.253   9.744   1.948  0.0808 -0.2452  0.4729
  330MOL0     C45435  10.365   9.654   1.931  0.3068  0.3572  1.0186
  330MOL0     C45436  10.498   9.702   1.908 -0.5084  0.6569  0.3785
  330MOL0     C45437  10.520   9.837   1.887  0.0825 -1.1556  0.4294
  330MOL0     O45438  10.635   9.898   1.840  0.0723 -0.2491  0.0876
  330MOL0     C45439  10.758   9.833   1.865  0.2645 -0.0458 -0.0070
  330MOL0     C45440  10.830   9.869   1.999  0.6434 -0.5436  0.1856
  330MOL0     C45441  10.765   9.809   2.123 -0.3560  0.2175 -0.2340
  330MOL0     C45442  10.833   9.874   2.246  0.2374 -0.5381  1.2687
  330MOL0     C45443  10.975   9.841   2.252 -0.0193  0.2506 -0.7767
  330MOL0     C45444  11.024   9.865   2.396 -0.5177 -0.0945  0.6026
  330MOL0     C45445  11.172   9.832   2.404  0.1136  0.1148  0.4476
  330MOL0     C45446  11.228   9.834   2.549 -0.5120  0.2791  0.6718
  330MOL0    Cl45447  11.406   9.804   2.560 -0.5867 -0.1461 -0.1395
  330MOL0     C45448  10.408   9.926   1.880  0.5523 -0.2593  0.4888
  330MOL0     C45449  10.275   9.878   1.914 -0.0823  0.6651 -0.2199
  330MOL0     O45450  10.157   9.502   2.080 -0.8673  0.1777 -0.7262
  330MOL0     C45451   9.871   9.514   2.140 -0.5850 -0.0307  0.1096
  330MOL0     C45452   9.739   9.493   2.147  0.5759 -0.4299  0.3413
  330MOL0     N45453   9.071   9.114   2.258  0.8788 -0.1779 -0.3686
  330MOL0     N45454   9.013   9.109   2.377  0.6736  0.0226  0.2442
  330MOL0     C45455   8.658   9.058   3.648  0.1160 -0.4065  0.1787
  330MOL0     C45456   8.534   9.058   3.707 -0.4091  0.1701 -0.2418
  330MOL0     C45457   8.108   8.972   3.867  0.3180  0.3270  0.0213
  330MOL0     C45458   8.073   8.995   4.001  0.0462 -0.4692 -0.3760
  330MOL0     C45459   7.944   8.982   4.049  0.2779 -0.4992 -0.4770
  330MOL0     C45460   7.835   8.957   3.961 -0.7990 -0.1960 -0.3911
  330MOL0     O45461   7.701   8.951   3.994  0.0536 -0.3168 -0.1925
  330MOL0     C45462   7.665   8.992   4.126  0.0861  0.0340 -0.1651
  330MOL0     C45463   7.517   8.998   4.139  0.0034  1.2961  1.1293
  330MOL0     C45464   7.446   9.071   4.013  0.0287  0.2185  0.0681
  330MOL0     C45465   7.297   9.111   4.030 -0.2366  0.2736 -0.5116
  330MOL0     C45466   7.210   9.005   4.080 -0.3216  0.0598 -0.6542
  330MOL0     C45467   7.136   8.910   4.106  1.2848 -0.4720 -0.3336
  330MOL0     C45468   7.872   8.922   3.832 -0.5850 -0.1900  0.3204
  330MOL0     C45469   8.002   8.931   3.780 -0.2159  0.0403 -0.0248
  330MOL0     C45470   8.024   8.896   3.638  1.4972  0.3223 -0.4991
  330MOL0     H45471   8.344   8.940   3.454  1.0881 -1.7460  0.7858
  330MOL0     H45472   8.546   8.942   3.339 -1.6961  1.6309 -0.5437
  330MOL0     H45473   8.746   9.063   3.280  0.3535 -0.5827 -1.8621
  330MOL0     H45474   8.777   8.890   3.320 -0.6940 -0.3387  1.3983
  330MOL0     H45475   8.995   9.103   3.339 -0.0405 -0.7416  1.4967
  330MOL0     H45476   9.013   8.935   3.310 -2.7550 -2.2896 -2.0574
  330MOL0     H45477   8.905   8.953   3.083 -2.1500  0.2627  0.2226
  330MOL0     H45478   8.928   9.133   3.098  2.6391  0.8248 -1.1984
  330MOL0     H45479   9.161   9.128   3.116 -1.0129  1.1752 -2.1565
  330MOL0     H45480   9.158   8.944   3.154 -2.1855 -1.1663  0.4248
  330MOL0     H45481   9.118   8.906   2.927  1.6681 -0.5751  2.2524
  330MOL0     H45482   9.261   8.995   2.918 -0.1574  0.1359 -1.3282
  330MOL0     H45483   8.980   9.108   2.849 -0.1158  1.0041  1.0733
  330MOL0     H45484   9.117   9.210   2.883 -0.3080 -0.2976  0.3664
  330MOL0     H45485   9.076   8.998   2.682 -0.0388  0.6326 -2.4907
  330MOL0     H45486   9.242   9.067   2.712 -0.6551 -3.7311  1.8230
  330MOL0     H45487   8.982   9.214   2.612 -0.1621  1.1500 -1.3306
  330MOL0     H45488   9.142   9.286   2.624 -0.6187 -0.0592 -0.7548
  330MOL0     H45489   9.335   9.224   2.433 -0.2354  0.1230 -0.2748
  330MOL0     H45490   9.256   9.081   2.091  2.5837  0.1368 -2.0069
  330MOL0     H45491   9.385   9.167   2.176  0.3429  0.0065  1.0272
  330MOL0     H45492   9.271   9.276   1.962 -0.2652  0.8362 -0.3662
  330MOL0     H45493   9.131   9.292   2.067 -0.0256 -1.3223 -1.3549
  330MOL0     H45494   9.276   9.520   2.055  1.4904  2.6450  1.5889
  330MOL0     H45495   9.247   9.448   2.217  2.7082 -2.6783  2.4007
  330MOL0     H45496   9.461   9.508   2.220 -2.1140  1.0913 -0.4332
  330MOL0     H45497   9.493   9.345   2.160 -0.0817  0.1837  1.4972
  330MOL0     H45498   9.654   9.565   1.828 -0.3068 -1.5584 -0.0818
  330MOL0     H45499   9.845   9.712   1.746  0.0470  0.2888  0.4396
  330MOL0     H45500   9.862   9.546   1.688  2.2118  0.4472 -1.4897
  330MOL0     H45501  10.004   9.631   1.751  0.4337 -1.9059  1.6462
  330MOL0     H45502  10.354   9.547   1.945  2.2954  0.2556  2.1183
  330MOL0     H45503  10.578   9.632   1.931 -0.0034  1.6601  1.8515
  330MOL0     H45504  10.768   9.725   1.864 -3.5358 -0.5452  0.0305
  330MOL0     H45505  10.833   9.864   1.791 -0.6565  3.8303  0.4657
  330MOL0     H45506  10.929   9.823   1.992  0.5588 -0.5678 -1.1407
  330MOL0     H45507  10.826   9.978   2.011 -0.9102 -0.4223 -1.1140
  330MOL0     H45508  10.793   9.704   2.127  3.7542  1.1454  0.9679
  330MOL0     H45509  10.657   9.819   2.131 -0.4952 -1.9804  1.3461
  330MOL0     H45510  10.777   9.830   2.329 -1.5829  0.6266  0.7214
  330MOL0     H45511  10.806   9.980   2.258 -0.4259 -0.5243 -0.1308
  330MOL0     H45512  10.986   9.735   2.228  2.2173 -0.3440  2.1790
  330MOL0     H45513  11.029   9.902   2.178 -1.1111  0.2530 -1.5930
  330MOL0     H45514  10.973   9.804   2.471 -0.2273  0.5203  1.3074
  330MOL0     H45515  11.004   9.968   2.427  2.2635  0.5913  0.3485
  330MOL0     H45516  11.218   9.910   2.341 -1.8324  1.1893  0.2854
  330MOL0     H45517  11.187   9.737   2.353  0.4160  2.0699 -3.5124
  330MOL0     H45518  11.191   9.751   2.611 -0.4285  0.5558  1.1005
  330MOL0     H45519  11.186   9.928   2.587 -0.8132  1.0213 -1.3970
  330MOL0     H45520  10.441  10.028   1.859  0.3481 -0.1183  0.8392
  330MOL0     H45521  10.201   9.957   1.923  2.0145  2.5192  2.7011
  330MOL0     H45522   9.931   9.491   2.227  0.0886 -0.7169 -0.5191
  330MOL0     H45523   9.680   9.480   2.238 -0.5287  0.7861 -0.1650
  330MOL0     H45524   8.748   9.075   3.706 -0.5437 -0.0843  1.1408
  330MOL0     H45525   8.541   9.070   3.815 -1.2277 -0.9218 -0.0487
  330MOL0     H45526   8.148   9.041   4.066 -0.8323  0.6333 -0.0965
  330MOL0     H45527   7.927   8.988   4.156 -0.1459 -1.6971 -0.4600
  330MOL0     H45528   7.707   8.920   4.196 -2.3914  0.3881  1.7980
  330MOL0     H45529   7.706   9.092   4.143  2.4740 -1.0902  1.1205
  330MOL0     H45530   7.489   9.063   4.222  0.1807  3.6416 -0.5273
  330MOL0     H45531   7.463   8.903   4.147 -1.9838  2.3177  0.5193
  330MOL0     H45532   7.505   9.163   4.006  2.4188 -1.2788 -1.0776
  330MOL0     H45533   7.459   9.003   3.928 -0.9977  0.3050 -0.1735
  330MOL0     H45534   7.261   9.151   3.935  0.9764  0.3877 -0.9403
  330MOL0     H45535   7.290   9.187   4.109 -1.5145 -1.1873  0.8524
  330MOL0     H45536   7.074   8.824   4.121 -3.4383  2.5419 -0.4438
  330MOL0     H45537   7.794   8.894   3.761 -0.2842 -0.3976  0.0696
  330MOL0     H45538   8.077   8.975   3.584  0.9524  1.2517  0.2969
  330MOL0     H45539   8.067   8.796   3.630  0.0810 -0.2199 -1.9963
  330MOL0     H45540   7.925   8.887   3.592 -0.5745  0.0645  3.5565
  331MOL0     O45541   7.107   4.325   2.377  0.6224  0.6409  0.4587
  331MOL0     C45542   7.090   4.391   2.273  0.6094 -0.1950 -1.2654
  331MOL0     O45543   7.189   4.423   2.182  0.6409  0.4204 -0.6379
  331MOL0     C45544   7.324   4.420   2.214  0.4251 -0.1553  0.4549
  331MOL0     C45545   7.415   4.380   2.109  0.4609 -1.2739 -0.1381
  331MOL0     C45546   7.554   4.394   2.134 -0.7810  0.0689  0.5723
  331MOL0     C45547   7.603   4.438   2.252 -0.1842  0.5142 -1.2650
  331MOL0     O45548   7.740   4.459   2.268  0.5047 -0.2361 -0.2855
  331MOL0     C45549   7.836   4.420   2.170 -0.1187  0.3713 -0.2631
  331MOL0     C45550   7.983   4.437   2.223 -1.0275 -0.1528 -0.3585
  331MOL0     C45551   8.008   4.318   2.305 -0.3139 -0.3473 -0.2256
  331MOL0     C45552   8.141   4.340   2.377  0.9023  0.2485 -0.4754
  331MOL0     C45553   8.170   4.213   2.457  0.3202 -0.0388  0.1100
  331MOL0     C45554   8.295   4.232   2.545 -0.7954  0.3600  0.6830
  331MOL0     C45555   8.438   4.265   2.477  1.3882 -0.9195 -0.7820
  331MOL0     C45556   8.551   4.214   2.573  0.6256 -0.8654  0.0720
  331MOL0     N45557   8.575   4.071   2.557  0.1649  0.2047 -0.2889
  331MOL0     C45558   8.544   3.962   2.632 -0.1481  0.6963 -0.0905
  331MOL0     C45559   8.602   3.853   2.566  0.1764 -0.2620  0.2449
  331MOL0     C45560   8.620   3.728   2.634 -0.1738  0.9453  0.0526
  331MOL0     C45561   8.762   3.712   2.701  0.4992 -0.2301  0.1750
  331MOL0     C45562   8.877   3.711   2.605 -0.1310 -0.0027  0.2467
  331MOL0     C45563   9.008   3.671   2.668 -1.2053 -0.3630 -0.1746
  331MOL0     O45564   9.035   3.739   2.790  0.3949 -0.6630 -0.5722
  331MOL0     C45565   9.150   3.709   2.865  0.1701  0.8223 -0.3077
  331MOL0     C45566   9.174   3.761   2.989  0.7552  0.4985  0.1313
  331MOL0     C45567   9.292   3.739   3.072  1.2109 -0.5415 -0.5471
  331MOL0     C45568   9.297   3.817   3.204 -0.5022 -0.6188 -0.3623
  331MOL0     C45569   9.390   3.657   3.017 -0.1089  0.1695  0.1358
  331MOL0     C45570   9.508   3.610   3.101 -0.1494 -0.3563  0.0726
  331MOL0     O45571   9.523   3.651   3.236  0.2306  0.6341 -0.8380
  331MOL0     C45572   9.631   3.606   3.321 -0.4968  0.6732 -0.6903
  331MOL0     C45573   9.752   3.582   3.258 -0.6671  0.5028 -0.7020
  331MOL0     C45574   9.861   3.529   3.333 -0.5443 -0.1513  0.9008
  331MOL0     C45575   9.856   3.518   3.470 -0.4305 -0.8466 -0.0806
  331MOL0     O45576   9.973   3.473   3.534  0.4089 -0.2236 -0.1696
  331MOL0     C45577   9.985   3.507   3.673 -1.4012 -0.8768 -0.1559
  331MOL0     C45578  10.013   3.658   3.691 -0.1188  0.0244 -0.0382
  331MOL0     C45579  10.112   3.717   3.597 -0.2893 -0.2295  0.8186
  331MOL0     C45580  10.104   3.862   3.612  0.4926 -0.6981  0.7186
  331MOL0     C45581  10.188   3.960   3.523  0.0605  0.6396  0.2826
  331MOL0     C45582  10.137   4.107   3.537  0.1429 -0.6418  0.5493
  331MOL0     C45583  10.254   4.196   3.495  0.1902  0.2246 -0.3866
  331MOL0     C45584  10.202   4.331   3.475  0.3805  0.1466 -0.2611
  331MOL0    Cl45585  10.085   4.344   3.343  0.2166  0.0936 -0.4801
  331MOL0     C45586   9.741   3.564   3.538 -0.2912  0.6526  0.1361
  331MOL0     C45587   9.626   3.600   3.461  0.3521  0.2434  0.1505
  331MOL0     O45588   9.577   3.527   3.046 -0.6733 -0.1628 -0.4940
  331MOL0     C45589   9.361   3.584   2.896  0.3567 -0.1536  0.4750
  331MOL0     C45590   9.244   3.615   2.828 -0.0213  0.3941 -0.9197
  331MOL0     N45591   8.658   3.899   2.446  0.1328 -0.3470 -0.7765
  331MOL0     N45592   8.641   4.025   2.440 -0.2184 -0.0384  0.2864
  331MOL0     C45593   7.517   4.473   2.348  0.1571 -0.9295 -0.4706
  331MOL0     C45594   7.380   4.469   2.334  0.8590  0.1175 -0.1495
  331MOL0     C45595   6.942   4.418   2.246 -0.6933 -0.5147 -0.5036
  331MOL0     C45596   6.853   4.360   2.337  0.0925 -0.0293 -1.1724
  331MOL0     C45597   6.721   4.367   2.313  1.0305  0.5599  0.8093
  331MOL0     C45598   6.662   4.440   2.206 -0.2465 -0.1341 -0.4210
  331MOL0     O45599   6.527   4.461   2.194 -0.5877  0.0994 -0.6927
  331MOL0     C45600   6.436   4.460   2.304 -0.6448  0.1785  0.0052
  331MOL0     C45601   6.461   4.575   2.408 -0.5631  0.1536  0.1845
  331MOL0     C45602   6.459   4.703   2.334 -0.1663 -0.2307  0.1697
  331MOL0     C45603   6.483   4.825   2.422 -0.2084  0.0129  0.6042
  331MOL0     C45604   6.625   4.825   2.458 -0.8713 -0.1816  0.4687
  331MOL0     C45605   6.739   4.818   2.500 -0.1410 -0.4544  0.1782
  331MOL0     C45606   6.749   4.505   2.121 -0.3965 -0.0443  0.3328
  331MOL0     C45607   6.888   4.488   2.137  0.4283 -0.2434 -0.0044
  331MOL0     C45608   6.976   4.565   2.039 -0.0045 -0.0096 -0.3949
  331MOL0     H45609   7.378   4.350   2.012 -1.5815 -1.5428  0.6902
  331MOL0     H45610   7.623   4.397   2.049  0.3866  1.0622  1.5115
  331MOL0     H45611   7.831   4.488   2.084  2.2227  2.1940  0.9452
  331MOL0     H45612   7.826   4.316   2.138  1.8361 -0.9273  2.9133
  331MOL0     H45613   8.057   4.433   2.143  0.1514  1.8405  0.5533
  331MOL0     H45614   7.994   4.532   2.276 -0.3932 -1.0036  1.0658
  331MOL0     H45615   7.924   4.297   2.372  1.0254 -1.4028  1.2188
  331MOL0     H45616   8.024   4.232   2.240 -0.8831 -1.6241  1.2466
  331MOL0     H45617   8.220   4.365   2.306  0.2234  1.7285 -0.7360
  331MOL0     H45618   8.125   4.425   2.445  0.3627 -1.4282  1.6161
  331MOL0     H45619   8.190   4.138   2.380  1.6102  1.9305 -1.5920
  331MOL0     H45620   8.079   4.186   2.512 -0.2223  1.7403  0.1379
  331MOL0     H45621   8.271   4.311   2.617 -1.0075  0.4313  0.5339
  331MOL0     H45622   8.308   4.142   2.606  0.9904  0.0665 -0.0569
  331MOL0     H45623   8.456   4.372   2.459 -0.6127 -0.4165 -0.0898
  331MOL0     H45624   8.444   4.215   2.380 -1.5935  2.4116 -2.9208
  331MOL0     H45625   8.646   4.264   2.553  0.7351 -1.3445 -0.6306
  331MOL0     H45626   8.526   4.232   2.678 -1.9125 -1.7894 -0.3032
  331MOL0     H45627   8.500   3.952   2.731 -2.8283 -0.6756 -1.3089
  331MOL0     H45628   8.627   3.646   2.562  3.8203  0.0622  1.1785
  331MOL0     H45629   8.538   3.714   2.704 -1.3424  2.5025 -0.9620
  331MOL0     H45630   8.768   3.798   2.769  0.0112 -0.7698  0.9236
  331MOL0     H45631   8.758   3.621   2.762 -0.1855 -0.0893  0.3543
  331MOL0     H45632   8.855   3.644   2.522 -2.2947  1.0990 -0.1403
  331MOL0     H45633   8.887   3.816   2.574 -0.0486  0.3846  1.5349
  331MOL0     H45634   9.004   3.563   2.687 -1.5073 -0.9912 -3.3388
  331MOL0     H45635   9.098   3.686   2.609  0.5988 -1.6355  2.0529
  331MOL0     H45636   9.096   3.816   3.041  2.1134  0.0268  2.8605
  331MOL0     H45637   9.397   3.853   3.231 -1.0205  1.0703 -0.5909
  331MOL0     H45638   9.254   3.756   3.284 -0.7640  0.2799  0.1937
  331MOL0     H45639   9.238   3.908   3.200  1.8948  1.3798  3.3296
  331MOL0     H45640   9.770   3.601   3.153  0.5618  1.0520 -0.4132
  331MOL0     H45641   9.957   3.514   3.285 -1.6314  2.4665 -2.5210
  331MOL0     H45642   9.903   3.479   3.740 -0.1305 -0.4489  1.6471
  331MOL0     H45643  10.072   3.453   3.711 -1.1684  0.9017  2.0369
  331MOL0     H45644   9.916   3.707   3.681  0.4844  1.1257 -0.6913
  331MOL0     H45645  10.051   3.674   3.792  1.7836  2.9994 -1.0928
  331MOL0     H45646  10.089   3.699   3.492  2.0519  1.5826 -0.0701
  331MOL0     H45647  10.213   3.677   3.610  0.5891  0.6066 -2.5734
  331MOL0     H45648  10.126   3.879   3.718  2.8267 -2.0109  0.4959
  331MOL0     H45649  10.002   3.888   3.580  1.6405  3.1164 -0.4002
  331MOL0     H45650  10.295   3.953   3.545 -0.1227  2.7875  2.2682
  331MOL0     H45651  10.173   3.930   3.419  1.0145  2.0923 -0.3035
  331MOL0     H45652  10.121   4.120   3.645  2.9465  3.5169  0.6924
  331MOL0     H45653  10.049   4.114   3.472  0.0327  0.3947  0.7878
  331MOL0     H45654  10.307   4.157   3.408  0.4388 -1.6756  0.5643
  331MOL0     H45655  10.333   4.191   3.571 -1.2674 -1.7035  1.1098
  331MOL0     H45656  10.282   4.401   3.450 -0.2580  1.3382  0.9302
  331MOL0     H45657  10.157   4.374   3.565  3.3748  2.4254  0.2921
  331MOL0     H45658   9.730   3.562   3.646  4.4505  2.2633  0.8984
  331MOL0     H45659   9.530   3.608   3.511  0.1483 -0.2185 -0.1596
  331MOL0     H45660   9.432   3.511   2.857 -0.5318 -0.5659 -0.4071
  331MOL0     H45661   9.234   3.558   2.736 -0.8153 -0.3179 -0.4156
  331MOL0     H45662   7.564   4.511   2.438 -2.6726 -2.3325  1.7358
  331MOL0     H45663   7.317   4.488   2.421  2.2637  0.4431  0.8181
  331MOL0     H45664   6.878   4.295   2.420  1.3251  0.9399 -0.7590
  331MOL0     H45665   6.656   4.301   2.370 -0.5027  1.0174 -0.3094
  331MOL0     H45666   6.342   4.479   2.252  2.0513  0.6072 -5.4083
  331MOL0     H45667   6.433   4.361   2.350 -2.0349 -0.9630 -2.3502
  331MOL0     H45668   6.563   4.565   2.447 -1.3006 -2.6784  1.6989
  331MOL0     H45669   6.389   4.568   2.490  0.9014 -0.8918  1.4284
  331MOL0     H45670   6.540   4.694   2.262  0.2776  0.6344  0.5478
  331MOL0     H45671   6.362   4.718   2.285  0.3685  0.0139 -0.8520
  331MOL0     H45672   6.425   4.814   2.514 -1.0070 -0.2782  0.0744
  331MOL0     H45673   6.470   4.915   2.361 -0.6692  0.2617  1.0657
  331MOL0     H45674   6.842   4.821   2.531  0.0659  0.2431 -0.5503
  331MOL0     H45675   6.704   4.550   2.033 -1.1323 -0.9306  0.2496
  331MOL0     H45676   6.987   4.511   1.944  1.0135 -1.9395  0.7643
  331MOL0     H45677   6.933   4.663   2.017  0.3965  0.1306 -0.5598
  331MOL0     H45678   7.073   4.583   2.084 -1.0813  0.4060  1.8913
  332MOL0     O45679   8.545   7.180   5.484 -0.1146 -0.3806 -0.9369
  332MOL0     C45680   8.457   7.160   5.569  0.0737 -0.7842 -0.1903
  332MOL0     O45681   8.471   7.085   5.680 -0.2163  0.2857  0.0494
  332MOL0     C45682   8.599   7.039   5.705 -0.4246  0.0887  0.1287
  332MOL0     C45683   8.634   6.900   5.686 -0.0912 -0.0797  1.1955
  332MOL0     C45684   8.760   6.845   5.718  1.1233 -0.1875  0.3007
  332MOL0     C45685   8.861   6.928   5.765  0.1670 -0.5190 -0.1972
  332MOL0     O45686   8.977   6.859   5.801 -0.0923  0.1009  0.1741
  332MOL0     C45687   9.012   6.895   5.934 -0.0835  1.0153 -0.1045
  332MOL0     C45688   9.156   6.845   5.949  0.7440 -0.0360  0.4624
  332MOL0     C45689   9.265   6.922   5.858 -0.0167 -0.8618  0.4563
  332MOL0     C45690   9.401   6.881   5.906  0.6225 -0.4207 -0.4424
  332MOL0     C45691   9.428   6.729   5.909  0.0084  0.0594 -0.5868
  332MOL0     C45692   9.425   6.644   5.779  0.1836 -0.3969 -0.5846
  332MOL0     C45693   9.533   6.712   5.675 -0.3635 -0.1403 -0.0714
  332MOL0     C45694   9.686   6.719   5.713 -0.1838 -0.0218  0.4302
  332MOL0     N45695   9.771   6.772   5.611 -0.6463  0.4631 -0.7547
  332MOL0     C45696   9.801   6.717   5.490  0.2934  0.4800 -0.1753
  332MOL0     C45697   9.911   6.789   5.446  0.0515 -0.1083 -0.1327
  332MOL0     C45698   9.992   6.756   5.321  0.1112  0.4478  0.1111
  332MOL0     C45699  10.141   6.749   5.344 -0.7571  0.1516 -0.7100
  332MOL0     C45700  10.208   6.885   5.392  0.0800  0.1452 -0.5451
  332MOL0     C45701  10.346   6.904   5.338 -0.4814  0.0763  0.3608
  332MOL0     O45702  10.430   6.792   5.379  0.5409 -0.4138 -0.6267
  332MOL0     C45703  10.562   6.806   5.366 -0.0057 -0.1773  0.6918
  332MOL0     C45704  10.626   6.857   5.250 -0.0775  0.3685 -0.2410
  332MOL0     C45705  10.766   6.874   5.234 -0.5960 -0.8319 -0.3702
  332MOL0     C45706  10.820   6.929   5.109 -0.6228 -0.5367  0.3802
  332MOL0     C45707  10.854   6.808   5.324  0.6330 -0.7352  0.5861
  332MOL0     C45708  10.998   6.803   5.302 -0.0228  0.0025 -0.0366
  332MOL0     O45709  11.064   6.923   5.300  0.1172 -0.6405  0.4779
  332MOL0     C45710  11.199   6.934   5.280 -0.6978 -0.0281  0.7826
  332MOL0     C45711  11.299   6.840   5.262 -0.4625  0.4070 -0.0072
  332MOL0     C45712  11.432   6.878   5.241  0.8821 -0.2026 -0.2935
  332MOL0     C45713  11.468   7.020   5.240  0.9666  0.9990  0.0038
  332MOL0     O45714  11.597   7.067   5.220  0.0711 -0.8093  0.5017
  332MOL0     C45715  11.721   6.992   5.208  0.2550  0.4425 -0.3039
  332MOL0     C45716  11.752   6.966   5.351 -0.2244  1.1835 -0.1952
  332MOL0     C45717  11.867   6.859   5.354  0.4314 -0.1989 -0.4373
  332MOL0     C45718  12.010   6.920   5.330  0.3647  0.1673 -1.3632
  332MOL0     C45719  12.119   6.818   5.281  1.0987  0.3075  0.4288
  332MOL0     C45720  12.250   6.874   5.227 -0.1193 -0.2233 -0.8873
  332MOL0     C45721  12.328   6.944   5.351  0.3171 -0.0563 -0.3717
  332MOL0     C45722  12.466   6.984   5.304  0.4066 -0.2914 -0.2007
  332MOL0    Cl45723  12.587   6.852   5.316 -0.0963 -0.2680 -0.0148
  332MOL0     C45724  11.361   7.114   5.251  0.3439  0.0302 -0.2501
  332MOL0     C45725  11.231   7.072   5.265  0.0889 -0.6895 -0.2012
  332MOL0     O45726  11.042   6.693   5.312 -0.5603 -0.1948  0.0513
  332MOL0     C45727  10.796   6.746   5.437 -0.5399  0.5148  0.2947
  332MOL0     C45728  10.650   6.743   5.451  0.5649 -0.1447 -0.0512
  332MOL0     N45729   9.935   6.895   5.531  0.1402 -0.0643  0.3428
  332MOL0     N45730   9.863   6.871   5.639  0.3432 -0.0029  0.9919
  332MOL0     C45731   8.837   7.073   5.776  0.2964 -0.5051  0.8603
  332MOL0     C45732   8.706   7.125   5.749  0.1359  0.5250  0.5561
  332MOL0     C45733   8.341   7.254   5.561  0.3120 -0.8876  0.1330
  332MOL0     C45734   8.260   7.265   5.673 -0.2231  0.5825 -0.4947
  332MOL0     C45735   8.147   7.347   5.666 -0.0519  0.3830 -0.0394
  332MOL0     C45736   8.105   7.424   5.556 -0.6242 -0.3301  0.3189
  332MOL0     O45737   7.993   7.502   5.575 -0.1030  0.1471 -0.0541
  332MOL0     C45738   7.960   7.604   5.479 -0.5238 -0.1891  0.0606
  332MOL0     C45739   7.882   7.541   5.363 -0.8580 -0.0860  0.0951
  332MOL0     C45740   7.810   7.662   5.284 -0.9530  0.1124 -0.2818
  332MOL0     C45741   7.678   7.723   5.346 -0.7466 -0.2305  0.0016
  332MOL0     C45742   7.568   7.626   5.335 -0.6304 -0.7951 -0.4621
  332MOL0     C45743   7.484   7.542   5.310 -0.2251  0.7223 -0.4978
  332MOL0     C45744   8.185   7.412   5.443  0.3117  0.1692  0.0685
  332MOL0     C45745   8.301   7.332   5.446  0.2432  0.4780  0.1580
  332MOL0     C45746   8.369   7.319   5.315  0.2080 -0.5754 -0.0278
  332MOL0     H45747   8.562   6.826   5.651  1.3657 -1.1062  0.3035
  332MOL0     H45748   8.781   6.739   5.716 -0.7452 -0.5755 -1.2201
  332MOL0     H45749   8.944   6.872   6.017  1.1522  1.4432  1.0737
  332MOL0     H45750   9.014   7.005   5.936 -0.1052  1.2602 -4.3560
  332MOL0     H45751   9.181   6.859   6.055  2.5712  0.6066 -0.0129
  332MOL0     H45752   9.167   6.737   5.934  1.1871 -0.3845  2.8689
  332MOL0     H45753   9.251   6.905   5.751  1.8591 -1.9996  0.3466
  332MOL0     H45754   9.263   7.031   5.874 -1.0610 -0.7184 -0.5261
  332MOL0     H45755   9.481   6.926   5.847 -1.7722  0.0647 -3.6084
  332MOL0     H45756   9.412   6.919   6.008  2.0550  3.0099 -1.7259
  332MOL0     H45757   9.362   6.677   5.979  1.5407 -0.2895  0.6370
  332MOL0     H45758   9.528   6.712   5.949  0.7423  2.7395 -1.0849
  332MOL0     H45759   9.473   6.548   5.798  3.8107  0.8548 -2.3192
  332MOL0     H45760   9.320   6.640   5.749 -0.6963 -5.1927  2.2233
  332MOL0     H45761   9.500   6.811   5.642  1.6644  0.3458 -0.7441
  332MOL0     H45762   9.530   6.641   5.591  0.1668 -0.1756 -0.0609
  332MOL0     H45763   9.697   6.781   5.803 -4.1168  0.0872  1.0247
  332MOL0     H45764   9.725   6.624   5.750  1.2849  0.9407  1.4824
  332MOL0     H45765   9.761   6.627   5.444  2.0610 -0.8480  0.7612
  332MOL0     H45766   9.962   6.826   5.243 -0.3258  1.6933  1.3558
  332MOL0     H45767   9.968   6.655   5.286  1.1109  0.4673 -0.6631
  332MOL0     H45768  10.162   6.664   5.410  2.7453  1.5783  0.2373
  332MOL0     H45769  10.189   6.736   5.247  0.1366  0.0081 -0.2500
  332MOL0     H45770  10.148   6.967   5.351  0.9646  1.1024  0.0214
  332MOL0     H45771  10.203   6.887   5.502 -0.0784  1.4669 -0.5551
  332MOL0     H45772  10.343   6.909   5.229  0.4258 -1.1532  0.2499
  332MOL0     H45773  10.396   6.997   5.365  3.5789 -2.1163  1.1711
  332MOL0     H45774  10.557   6.879   5.169 -1.4667  1.1262  1.1149
  332MOL0     H45775  10.903   7.000   5.116 -0.5616 -0.7490  2.5615
  332MOL0     H45776  10.748   6.983   5.047  2.8061  3.1951 -0.7725
  332MOL0     H45777  10.854   6.855   5.037  0.6421  2.4806 -2.3926
  332MOL0     H45778  11.286   6.733   5.270  4.1577 -0.3917 -0.6007
  332MOL0     H45779  11.503   6.799   5.219 -0.0655 -1.9940  2.4839
  332MOL0     H45780  11.718   6.901   5.146  0.6456 -0.6810  1.2433
  332MOL0     H45781  11.801   7.057   5.174  0.2643  0.3577 -0.4449
  332MOL0     H45782  11.781   7.060   5.399  0.3755  0.7583  0.2937
  332MOL0     H45783  11.679   6.918   5.416  2.9179  0.6306  3.2606
  332MOL0     H45784  11.839   6.777   5.287 -0.3201 -0.3837  0.0776
  332MOL0     H45785  11.869   6.811   5.453  1.3873 -0.2790 -0.4924
  332MOL0     H45786  12.036   6.961   5.428 -1.0240 -2.0469  0.0126
  332MOL0     H45787  12.003   7.005   5.261 -2.4800  1.2553  0.1255
  332MOL0     H45788  12.135   6.755   5.370 -1.3508 -2.2379 -0.7865
  332MOL0     H45789  12.070   6.758   5.204  0.0348  0.1551  1.1924
  332MOL0     H45790  12.231   6.956   5.157  1.0839  0.2628 -0.6656
  332MOL0     H45791  12.321   6.813   5.171  1.6991 -3.4265  4.2532
  332MOL0     H45792  12.324   6.876   5.437  1.0395 -0.0220 -0.3021
  332MOL0     H45793  12.269   7.032   5.378 -0.0631 -0.7031  0.9860
  332MOL0     H45794  12.490   7.066   5.372  2.6632  0.3105 -1.6123
  332MOL0     H45795  12.457   7.018   5.201 -2.5352 -0.6937 -0.1599
  332MOL0     H45796  11.386   7.219   5.255 -1.2771  0.4368 -0.0653
  332MOL0     H45797  11.153   7.147   5.273 -1.9202 -2.8044  1.2311
  332MOL0     H45798  10.851   6.682   5.505 -0.8441 -0.3257 -0.2358
  332MOL0     H45799  10.591   6.695   5.528 -0.4251  1.7363  0.4253
  332MOL0     H45800   8.923   7.134   5.802  1.8060 -1.5019 -1.4423
  332MOL0     H45801   8.673   7.226   5.771 -3.3731 -0.6849  1.4717
  332MOL0     H45802   8.275   7.203   5.760 -0.1136  0.3792 -0.6558
  332MOL0     H45803   8.082   7.352   5.753 -0.9742  0.1131 -0.6894
  332MOL0     H45804   7.912   7.684   5.534  0.5615 -1.0344  2.3821
  332MOL0     H45805   8.049   7.644   5.430  0.0204 -1.9576 -0.5018
  332MOL0     H45806   7.800   7.485   5.410 -1.0894  1.1134  1.1757
  332MOL0     H45807   7.935   7.483   5.287 -1.7805 -0.2695 -0.4267
  332MOL0     H45808   7.888   7.735   5.259 -0.9426  0.5060  0.8481
  332MOL0     H45809   7.790   7.624   5.184 -1.1535  0.9915 -0.5836
  332MOL0     H45810   7.638   7.812   5.297  2.0527  0.2781 -1.5781
  332MOL0     H45811   7.698   7.755   5.449  1.2150 -1.0904 -0.0656
  332MOL0     H45812   7.410   7.464   5.302  0.7929 -0.4556  1.0548
  332MOL0     H45813   8.156   7.466   5.354 -0.5996 -1.4303 -0.6584
  332MOL0     H45814   8.371   7.214   5.284  1.0140 -0.8399  0.8709
  332MOL0     H45815   8.311   7.369   5.237  1.3451  0.3880 -0.2834
  332MOL0     H45816   8.463   7.374   5.309 -0.6511  1.0664  0.6481
  333MOL0     O45817   6.396   8.766   7.933  0.0663 -0.2277  0.6084
  333MOL0     C45818   6.311   8.855   7.931  0.9677 -0.5079 -1.4990
  333MOL0     O45819   6.307   8.964   8.010 -0.1179 -0.1825  0.1884
  333MOL0     C45820   6.425   8.991   8.082 -0.5992 -0.0577 -0.8940
  333MOL0     C45821   6.530   9.063   8.024 -1.1086 -0.1958  0.0869
  333MOL0     C45822   6.644   9.100   8.106 -0.5694 -0.6841  0.6913
  333MOL0     C45823   6.652   9.067   8.239 -0.1183 -0.3884 -0.5473
  333MOL0     O45824   6.752   9.120   8.308  0.3057 -0.1545 -0.2878
  333MOL0     C45825   6.818   9.034   8.407  0.8075  0.7715  0.8486
  333MOL0     C45826   6.963   9.052   8.383 -0.2793 -0.1076 -0.0446
  333MOL0     C45827   7.050   8.965   8.484 -0.2300  0.7521  0.4012
  333MOL0     C45828   7.069   9.042   8.619 -0.2390  0.1592 -0.2347
  333MOL0     C45829   7.118   8.947   8.732  0.2631 -0.1517 -0.6484
  333MOL0     C45830   7.264   8.896   8.704 -0.3815 -0.6932  0.6873
  333MOL0     C45831   7.303   8.788   8.808  0.5741 -1.1542  0.3765
  333MOL0     C45832   7.449   8.740   8.797 -0.0433  0.6704 -0.0147
  333MOL0     N45833   7.548   8.833   8.839  0.4453  0.2267 -0.3687
  333MOL0     C45834   7.536   8.934   8.927 -0.5648 -0.3701 -0.2239
  333MOL0     C45835   7.660   8.980   8.947 -0.2031 -0.8702  0.0175
  333MOL0     C45836   7.706   9.096   9.032  1.3650  1.1533 -0.1725
  333MOL0     C45837   7.860   9.101   9.046  0.2931 -0.5838  0.4350
  333MOL0     C45838   7.902   9.007   9.154 -0.1051 -0.5105 -0.3331
  333MOL0     C45839   8.058   9.005   9.166  0.0841  0.1211  0.2437
  333MOL0     O45840   8.108   9.117   9.250  0.7926 -0.7607 -0.0361
  333MOL0     C45841   8.239   9.149   9.242 -0.3283 -0.8711  0.0503
  333MOL0     C45842   8.294   9.225   9.345 -0.2651 -0.5734 -0.5133
  333MOL0     C45843   8.424   9.275   9.339 -1.0747  0.2364 -0.0988
  333MOL0     C45844   8.481   9.334   9.454  0.0551 -0.1236 -0.1188
  333MOL0     C45845   8.506   9.262   9.223 -0.1268 -0.0621 -0.8239
  333MOL0     C45846   8.655   9.321   9.210  0.0768 -0.1946 -0.3720
  333MOL0     O45847   8.685   9.434   9.276  0.2461 -0.2949 -0.7769
  333MOL0     C45848   8.808   9.489   9.246  0.0840  0.1623  0.3920
  333MOL0     C45849   8.791   9.605   9.170 -0.0283 -0.0952  0.3433
  333MOL0     C45850   8.906   9.669   9.126 -0.5046  0.1526  0.0463
  333MOL0     C45851   9.039   9.623   9.157 -0.9218 -0.7373 -0.0619
  333MOL0     O45852   9.147   9.697   9.100 -0.2737 -0.9344  0.5951
  333MOL0     C45853   9.273   9.638   9.091  0.4446 -0.0071 -0.4453
  333MOL0     C45854   9.353   9.706   8.973  0.4789  0.4245 -0.3349
  333MOL0     C45855   9.486   9.629   8.956 -0.1426  0.4634  0.0769
  333MOL0     C45856   9.478   9.509   8.860 -0.4488  0.5238  0.3424
  333MOL0     C45857   9.592   9.421   8.878 -0.9687  0.8692 -0.0264
  333MOL0     C45858   9.588   9.290   8.791  0.1679  0.7851  0.0916
  333MOL0     C45859   9.576   9.320   8.638 -0.4710  0.9961 -0.3903
  333MOL0     C45860   9.650   9.198   8.566 -0.3334 -0.1388 -0.9504
  333MOL0    Cl45861   9.578   9.028   8.572  0.4112 -0.5289  0.4762
  333MOL0     C45862   9.046   9.514   9.244  0.4821  0.3207  0.5738
  333MOL0     C45863   8.939   9.445   9.290 -0.6920  0.8161  0.1639
  333MOL0     O45864   8.728   9.262   9.135 -0.0145  0.2020 -0.5917
  333MOL0     C45865   8.447   9.183   9.121  1.0693 -0.3260  0.4793
  333MOL0     C45866   8.316   9.123   9.133 -0.3648 -0.1823 -0.0392
  333MOL0     N45867   7.751   8.890   8.885  0.7017  0.2762  0.2204
  333MOL0     N45868   7.682   8.805   8.814  0.9775 -0.2430 -0.7018
  333MOL0     C45869   6.551   8.998   8.300  0.6978 -0.5869  0.1785
  333MOL0     C45870   6.443   8.956   8.225  0.0770  0.1648  0.1647
  333MOL0     C45871   6.176   8.817   7.868  0.5710  0.1233  0.3268
  333MOL0     C45872   6.064   8.891   7.906 -0.8554 -1.1113 -0.7298
  333MOL0     C45873   5.943   8.866   7.858 -0.2563 -1.4183  0.4303
  333MOL0     C45874   5.912   8.764   7.768 -0.2216  0.0274  0.2754
  333MOL0     O45875   5.787   8.732   7.717 -0.6135 -0.2087 -0.1293
  333MOL0     C45876   5.674   8.791   7.786 -0.0463  0.4538  0.1868
  333MOL0     C45877   5.624   8.905   7.688 -0.4180  0.3851 -1.4578
  333MOL0     C45878   5.610   8.869   7.542  0.1251  0.3091 -0.5803
  333MOL0     C45879   5.493   8.950   7.484 -0.2975 -0.5659  0.1907
  333MOL0     C45880   5.530   9.092   7.467 -0.3357 -0.7007  0.1147
  333MOL0     C45881   5.553   9.206   7.443 -0.3227  0.2164 -0.3387
  333MOL0     C45882   6.028   8.697   7.723  0.1660 -0.1824 -0.4834
  333MOL0     C45883   6.157   8.716   7.773 -0.2067  0.5878 -0.7058
  333MOL0     C45884   6.268   8.652   7.710 -1.0133  0.0696 -0.7517
  333MOL0     H45885   6.520   9.093   7.920 -2.5021  1.1266  0.5745
  333MOL0     H45886   6.722   9.159   8.059 -1.2919 -1.7778 -2.1166
  333MOL0     H45887   6.787   8.931   8.391  1.6847  0.6176  0.0295
  333MOL0     H45888   6.779   9.051   8.507 -1.4545  1.1365 -0.0414
  333MOL0     H45889   6.981   9.015   8.281 -0.0955 -2.1459  0.6723
  333MOL0     H45890   7.000   9.155   8.386 -0.5133 -0.0400  0.6712
  333MOL0     H45891   7.000   8.871   8.508  0.7913  0.0461 -0.1636
  333MOL0     H45892   7.147   8.938   8.441 -0.6205  1.0873 -0.7031
  333MOL0     H45893   7.146   9.118   8.603  1.5852 -1.8994 -1.6887
  333MOL0     H45894   6.967   9.072   8.645 -1.3428 -5.5315  4.2435
  333MOL0     H45895   7.040   8.871   8.740 -3.4235  3.3845  0.5159
  333MOL0     H45896   7.112   9.005   8.825  0.0571  1.2714 -1.5081
  333MOL0     H45897   7.260   8.845   8.607 -4.2573  2.8846 -1.3600
  333MOL0     H45898   7.333   8.980   8.703 -1.2445  0.0352 -0.6776
  333MOL0     H45899   7.232   8.705   8.800 -3.4338  2.0333 -0.4110
  333MOL0     H45900   7.286   8.832   8.907  1.5397 -0.7954  0.4030
  333MOL0     H45901   7.461   8.648   8.856 -2.2405  1.0266  1.0609
  333MOL0     H45902   7.475   8.706   8.696 -0.3997 -1.3343  0.5090
  333MOL0     H45903   7.446   8.986   8.956 -0.7524 -1.0605  0.4646
  333MOL0     H45904   7.662   9.104   9.132 -0.8153  1.2278 -1.0665
  333MOL0     H45905   7.668   9.177   8.969 -0.1468  0.0713 -0.7153
  333MOL0     H45906   7.898   9.082   8.945  0.0898  0.9540  0.0425
  333MOL0     H45907   7.877   9.208   9.058 -1.0857 -0.1785 -0.8520
  333MOL0     H45908   7.874   9.033   9.256  2.8536  1.6469  0.0642
  333MOL0     H45909   7.875   8.905   9.124  3.7947 -2.2760  1.4000
  333MOL0     H45910   8.103   8.911   9.201  2.2680  1.2128  0.5100
  333MOL0     H45911   8.077   9.021   9.060  0.9596  0.0222  0.3846
  333MOL0     H45912   8.233   9.243   9.432  0.5507 -4.6892  1.1548
  333MOL0     H45913   8.486   9.442   9.437 -0.9363  0.3234  2.0816
  333MOL0     H45914   8.579   9.291   9.480 -1.9425 -3.5960  2.4417
  333MOL0     H45915   8.423   9.319   9.545 -1.1618  4.1097  0.0336
  333MOL0     H45916   8.688   9.634   9.149  0.5029  2.5518  0.9910
  333MOL0     H45917   8.893   9.756   9.064 -1.0422  1.8086  2.3652
  333MOL0     H45918   9.331   9.660   9.181  0.4442  0.8082 -0.6336
  333MOL0     H45919   9.255   9.532   9.073 -0.0511  0.1065 -0.6492
  333MOL0     H45920   9.292   9.701   8.882  1.3051  0.9873 -0.9370
  333MOL0     H45921   9.381   9.810   8.989  2.1732  0.0777 -0.7657
  333MOL0     H45922   9.514   9.595   9.056 -1.4127  0.0096  0.2973
  333MOL0     H45923   9.570   9.689   8.918  1.1429 -1.5531 -0.4735
  333MOL0     H45924   9.482   9.556   8.761 -0.7962 -2.6442 -1.2953
  333MOL0     H45925   9.383   9.456   8.869  0.0590 -0.6826 -0.9624
  333MOL0     H45926   9.688   9.465   8.851  0.4580 -0.1284  3.0143
  333MOL0     H45927   9.609   9.386   8.980  0.2490 -1.9722 -1.0836
  333MOL0     H45928   9.502   9.228   8.818  0.4343  1.2257  2.0755
  333MOL0     H45929   9.669   9.220   8.813 -1.4978 -0.8660  1.3009
  333MOL0     H45930   9.627   9.409   8.603  3.0531 -0.4475  0.6272
  333MOL0     H45931   9.471   9.327   8.608 -1.1773 -1.0801  1.3124
  333MOL0     H45932   9.750   9.207   8.610 -1.4693 -0.4500  1.8972
  333MOL0     H45933   9.649   9.227   8.461  0.3844  0.2357 -0.8653
  333MOL0     H45934   9.143   9.482   9.281  1.4670  2.9873  0.5195
  333MOL0     H45935   8.960   9.354   9.345 -2.7578 -0.2508 -0.6959
  333MOL0     H45936   8.495   9.151   9.030 -0.2769  3.7949 -1.9625
  333MOL0     H45937   8.296   9.046   9.060 -1.8569  2.4369 -2.6273
  333MOL0     H45938   6.556   8.983   8.408 -2.6567 -1.2260  0.3342
  333MOL0     H45939   6.366   8.906   8.283 -1.4713 -1.0807 -2.7081
  333MOL0     H45940   6.075   8.979   7.968 -4.9541 -0.3824 -0.7504
  333MOL0     H45941   5.864   8.934   7.888 -0.4964 -2.1105  1.4160
  333MOL0     H45942   5.590   8.720   7.783 -0.5783  0.9544  2.1682
  333MOL0     H45943   5.687   8.813   7.892 -4.3869 -1.8012  1.4193
  333MOL0     H45944   5.707   8.976   7.695  0.2001 -0.3445 -1.3174
  333MOL0     H45945   5.539   8.959   7.731  2.0889  1.3312  2.9585
  333MOL0     H45946   5.701   8.885   7.484 -0.7803  2.1448 -1.6069
  333MOL0     H45947   5.573   8.767   7.529 -3.6619  1.2869  1.1449
  333MOL0     H45948   5.409   8.949   7.554 -2.5246 -0.2580 -2.3009
  333MOL0     H45949   5.457   8.913   7.387 -0.2564 -1.8550  0.6483
  333MOL0     H45950   5.585   9.304   7.414  0.1314 -0.2140 -1.3230
  333MOL0     H45951   6.012   8.624   7.644 -0.2973 -0.0275 -0.5347
  333MOL0     H45952   6.346   8.726   7.693  1.1315 -1.6147  1.1968
  333MOL0     H45953   6.303   8.571   7.775 -1.8328  2.3980  2.9158
  333MOL0     H45954   6.241   8.613   7.612 -1.2931  0.4505 -0.8302
  334MOL0     O45955  10.160   0.595  10.357  0.5689  0.0050  0.4062
  334MOL0     C45956  10.105   0.499  10.300 -1.2680 -0.5222 -0.4018
  334MOL0     O45957  10.133   0.369  10.336 -0.1764  0.1616  0.0400
  334MOL0     C45958  10.202   0.340  10.447 -0.9502 -0.1969  0.0248
  334MOL0     C45959  10.329   0.388  10.481 -0.4612 -0.2758  0.8894
  334MOL0     C45960  10.395   0.335  10.590 -0.4121  0.2315 -0.9786
  334MOL0     C45961  10.338   0.242  10.669 -0.5028  0.0127 -0.3161
  334MOL0     O45962  10.400   0.191  10.780 -0.2706  0.4436 -0.0113
  334MOL0     C45963  10.549   0.168  10.768  0.7044 -0.5597  0.4458
  334MOL0     C45964  10.593   0.176  10.914 -0.0576 -0.5075  0.8546
  334MOL0     C45965  10.610   0.321  10.964  0.2658 -0.7421  0.3548
  334MOL0     C45966  10.716   0.345  11.079 -0.0900  0.0581  0.3762
  334MOL0     C45967  10.853   0.281  11.029 -0.0180  0.1490 -0.4782
  334MOL0     C45968  10.970   0.335  11.112 -0.3439  0.3229  0.7943
  334MOL0     C45969  11.097   0.255  11.087 -0.5711  0.0643  0.0767
  334MOL0     C45970  11.224   0.309  11.164  0.7871 -0.6939  0.3397
  334MOL0     N45971  11.359   0.258  11.125 -0.9955 -0.6690  0.2395
  334MOL0     C45972  11.439   0.344  11.051  0.0759  0.1764 -0.4104
  334MOL0     C45973  11.543   0.257  11.012  0.7314  0.0792 -0.4582
  334MOL0     C45974  11.653   0.272  10.913  0.2406  0.1813 -0.2666
  334MOL0     C45975  11.667   0.407  10.839  0.5674 -0.2445  0.3568
  334MOL0     C45976  11.732   0.396  10.697  0.4781  0.9989 -0.3536
  334MOL0     C45977  11.885   0.388  10.736  0.2864  0.6063 -0.8469
  334MOL0     O45978  11.961   0.414  10.617 -0.1784 -0.4853  0.0109
  334MOL0     C45979  12.097   0.397  10.621 -0.7687  0.0201 -0.2353
  334MOL0     C45980  12.165   0.438  10.508  0.3229 -0.3016 -0.0827
  334MOL0     C45981  12.302   0.403  10.484  0.5973  0.4214  0.6536
  334MOL0     C45982  12.376   0.448  10.361 -0.7513  0.0204  0.1460
  334MOL0     C45983  12.381   0.327  10.585 -0.4464 -0.8220  0.4091
  334MOL0     C45984  12.513   0.282  10.575 -0.1678 -0.1327  0.0688
  334MOL0     O45985  12.578   0.258  10.697 -0.3667 -0.0548 -0.0187
  334MOL0     C45986  12.709   0.241  10.711  0.3280 -0.6137 -0.7771
  334MOL0     C45987  12.773   0.358  10.746  1.1597 -0.5348  0.2677
  334MOL0     C45988  12.909   0.351  10.780 -0.2279 -0.2689  0.1626
  334MOL0     C45989  12.980   0.232  10.763 -0.3454 -0.1898  0.3094
  334MOL0     O45990  13.113   0.231  10.773  0.9194  0.7445 -0.8853
  334MOL0     C45991  13.203   0.331  10.714  0.2634  0.4043 -0.6912
  334MOL0     C45992  13.327   0.260  10.653 -0.0317  0.1223 -0.1458
  334MOL0     C45993  13.402   0.179  10.763 -0.1681  0.0082 -0.3388
  334MOL0     C45994  13.558   0.195  10.745  0.5659 -0.2119  0.4742
  334MOL0     C45995  13.634   0.081  10.809 -0.1175  0.0057 -0.0014
  334MOL0     C45996  13.784   0.112  10.842  0.3888  0.1974  0.1265
  334MOL0     C45997  13.857   0.096  10.714 -0.4155 -0.4804 -0.3940
  334MOL0     C45998  14.009   0.119  10.728  0.3303 -0.1344  0.6045
  334MOL0    Cl45999  14.082  -0.021  10.797 -0.7570  0.0421 -0.2708
  334MOL0     C46000  12.911   0.113  10.738 -0.8623  0.2663  1.4449
  334MOL0     C46001  12.777   0.124  10.705  0.4801  0.5329  0.1232
  334MOL0     O46002  12.563   0.258  10.463  0.1399  0.2679  0.8450
  334MOL0     C46003  12.308   0.313  10.706  0.3334  0.6858 -0.5748
  334MOL0     C46004  12.169   0.340  10.724  0.5483 -0.4846 -0.6187
  334MOL0     N46005  11.511   0.129  11.049 -0.5038  0.2746 -0.2172
  334MOL0     N46006  11.411   0.132  11.130  0.3546 -0.2694  0.0039
  334MOL0     C46007  10.208   0.191  10.639 -0.1737 -0.6045  0.4472
  334MOL0     C46008  10.144   0.242  10.525  0.6659 -0.8999  0.4447
  334MOL0     C46009  10.022   0.539  10.186 -0.2968 -0.2208 -0.7523
  334MOL0     C46010   9.979   0.429  10.112  0.0438  0.0697  0.3891
  334MOL0     C46011   9.902   0.445  10.002  0.3660  0.0396  0.3164
  334MOL0     C46012   9.859   0.580   9.962  1.2192  0.3240 -0.0041
  334MOL0     O46013   9.776   0.613   9.856 -0.4081  0.2450  0.2205
  334MOL0     C46014   9.697   0.505   9.801 -0.1249 -0.4985  0.0086
  334MOL0     C46015   9.617   0.564   9.687  0.6269  0.2962  0.0408
  334MOL0     C46016   9.513   0.455   9.654  1.2502  0.0425 -0.3252
  334MOL0     C46017   9.481   0.465   9.498  0.8534 -0.3394  0.3385
  334MOL0     C46018   9.409   0.591   9.464  0.2489  0.1666  0.4852
  334MOL0     C46019   9.376   0.704   9.437  0.5151  0.6452  0.2113
  334MOL0     C46020   9.917   0.684  10.033  0.0739  0.0309  0.0093
  334MOL0     C46021   9.987   0.668  10.147  0.3761  0.1354  0.6886
  334MOL0     C46022  10.017   0.797  10.225 -0.2047 -0.3534 -0.2217
  334MOL0     H46023  10.368   0.462  10.411  0.9071 -1.1805  0.6556
  334MOL0     H46024  10.490   0.380  10.615 -0.7453 -0.6947  2.6085
  334MOL0     H46025  10.605   0.244  10.713  2.0075  0.6385  3.2090
  334MOL0     H46026  10.566   0.071  10.721  3.1507 -0.5480  1.1695
  334MOL0     H46027  10.533   0.111  10.978  2.5709 -2.9523  1.0717
  334MOL0     H46028  10.681   0.112  10.924 -0.1022 -0.7448 -0.0858
  334MOL0     H46029  10.640   0.385  10.881 -0.2211  1.0505  1.5205
  334MOL0     H46030  10.516   0.356  11.009  1.5123  0.8003  1.9046
  334MOL0     H46031  10.729   0.453  11.087 -1.3668  0.3788 -1.2118
  334MOL0     H46032  10.676   0.297  11.168 -0.3461  0.8672  0.7021
  334MOL0     H46033  10.863   0.312  10.925 -2.4848 -0.8330 -1.0623
  334MOL0     H46034  10.847   0.172  11.028  0.6958  0.0742 -2.6742
  334MOL0     H46035  10.983   0.442  11.094 -0.9340  0.4339  1.0041
  334MOL0     H46036  10.957   0.321  11.219 -1.4740  0.4610  0.6947
  334MOL0     H46037  11.116   0.244  10.980 -1.1872  0.5397 -0.0856
  334MOL0     H46038  11.093   0.149  11.115  1.2372  0.0973  0.5914
  334MOL0     H46039  11.227   0.417  11.149 -1.3254 -0.9067 -2.3676
  334MOL0     H46040  11.202   0.298  11.271 -2.9922  0.2898 -0.1628
  334MOL0     H46041  11.416   0.445  11.018 -0.3149 -0.0068 -0.7135
  334MOL0     H46042  11.626   0.199  10.836 -0.2436 -0.8539  0.8562
  334MOL0     H46043  11.750   0.242  10.955 -0.0823 -0.7689 -0.1800
  334MOL0     H46044  11.570   0.455  10.820  0.0953  0.1121  3.1204
  334MOL0     H46045  11.716   0.479  10.905  0.6456 -1.9240  2.2340
  334MOL0     H46046  11.712   0.314  10.628 -1.2267  1.7302 -0.7621
  334MOL0     H46047  11.696   0.484  10.643 -0.1462  1.2045  0.3695
  334MOL0     H46048  11.905   0.461  10.815 -1.1097  1.0998 -0.9144
  334MOL0     H46049  11.899   0.290  10.783 -0.0504  0.6373 -0.6769
  334MOL0     H46050  12.114   0.496  10.432  1.3063  0.1670 -0.4114
  334MOL0     H46051  12.399   0.360  10.301  1.5612 -0.1493  1.1973
  334MOL0     H46052  12.467   0.497  10.396 -2.8545  1.7846  3.7520
  334MOL0     H46053  12.315   0.519  10.303  0.1101  2.7548  2.3611
  334MOL0     H46054  12.723   0.454  10.754 -2.3174 -2.1290 -0.6305
  334MOL0     H46055  12.951   0.446  10.812 -2.1125  1.1814 -1.4692
  334MOL0     H46056  13.161   0.396  10.636 -0.9251  0.2807 -0.1729
  334MOL0     H46057  13.231   0.387  10.804 -1.1753 -1.2998  0.8895
  334MOL0     H46058  13.291   0.189  10.578 -1.2814  1.3670 -0.7772
  334MOL0     H46059  13.390   0.338  10.611 -2.8176  0.6774 -3.7788
  334MOL0     H46060  13.374   0.073  10.756  2.3412 -0.7700  0.2245
  334MOL0     H46061  13.385   0.213  10.866  0.1875 -0.6867 -0.0354
  334MOL0     H46062  13.585   0.292  10.788  0.4416 -0.2585  0.6620
  334MOL0     H46063  13.578   0.203  10.638 -0.1298  0.6893  0.3893
  334MOL0     H46064  13.602   0.065  10.913  0.1410 -1.8729 -0.1853
  334MOL0     H46065  13.622  -0.014  10.756  2.5063 -1.7528  2.2928
  334MOL0     H46066  13.822   0.036  10.912  1.5767 -0.6732 -1.3932
  334MOL0     H46067  13.792   0.216  10.876 -1.1442  0.9441 -1.6385
  334MOL0     H46068  13.827   0.171  10.641  0.8958  0.0123 -0.4502
  334MOL0     H46069  13.840  -0.002  10.668 -3.1246  0.4401 -1.5524
  334MOL0     H46070  14.034   0.205  10.791  0.9047 -0.6122  1.0455
  334MOL0     H46071  14.048   0.139  10.628  0.4270  2.7790  1.1318
  334MOL0     H46072  12.972   0.024  10.741 -0.8423  0.0726 -1.4994
  334MOL0     H46073  12.729   0.028  10.689 -2.2123  1.3197  2.5945
  334MOL0     H46074  12.343   0.251  10.788 -0.2581 -0.8906 -1.4747
  334MOL0     H46075  12.125   0.310  10.819 -0.4265  3.2252  0.2680
  334MOL0     H46076  10.158   0.110  10.690  1.5766 -2.1696 -0.2001
  334MOL0     H46077  10.045   0.204  10.504 -0.4541  1.4455  1.1362
  334MOL0     H46078  10.003   0.323  10.121  1.1268  0.2222 -0.5559
  334MOL0     H46079   9.862   0.358   9.952  0.7000 -0.7007  1.3027
  334MOL0     H46080   9.762   0.424   9.767  0.4847 -0.1893  0.4162
  334MOL0     H46081   9.622   0.475   9.874  0.7803  0.1960  1.2569
  334MOL0     H46082   9.685   0.591   9.605 -1.4164 -2.1259 -2.6902
  334MOL0     H46083   9.571   0.655   9.726  2.5031  1.0692  0.5518
  334MOL0     H46084   9.537   0.349   9.667 -0.6265 -0.5993 -1.6218
  334MOL0     H46085   9.424   0.470   9.716 -0.0833  2.8038 -2.6630
  334MOL0     H46086   9.424   0.373   9.479  1.0332 -0.9550  2.4905
  334MOL0     H46087   9.575   0.464   9.442  0.0805  0.4269 -1.0162
  334MOL0     H46088   9.319   0.793   9.421 -2.8360 -0.9937  1.9701
  334MOL0     H46089   9.891   0.782   9.996  0.1313 -0.3273 -1.0134
  334MOL0     H46090   9.973   0.880  10.169 -0.9014  2.3699  3.9788
  334MOL0     H46091   9.967   0.806  10.322  2.2244  0.6761  0.9964
  334MOL0     H46092  10.125   0.808  10.225 -0.0796 -1.4037 -0.6514
  335MOL0     O46093  10.814   3.312  10.936 -0.2210  0.2099  0.1730
  335MOL0     C46094  10.723   3.389  10.940  0.7204  0.2842  0.4918
  335MOL0     O46095  10.724   3.519  10.893  0.3473  0.0912  0.3825
  335MOL0     C46096  10.839   3.573  10.850  0.4627 -0.7682 -0.2307
  335MOL0     C46097  10.959   3.546  10.918 -0.1994 -1.2103 -0.0170
  335MOL0     C46098  11.083   3.592  10.868  0.5399  0.9012 -0.0594
  335MOL0     C46099  11.084   3.688  10.763 -0.3815 -0.2712  0.2260
  335MOL0     O46100  11.202   3.737  10.700  0.5315  0.0276  0.0283
  335MOL0     C46101  11.319   3.717  10.779 -0.4343  1.3148 -0.9321
  335MOL0     C46102  11.444   3.781  10.701 -0.0284  0.1222 -1.0162
  335MOL0     C46103  11.571   3.728  10.777 -1.2599 -0.0086  0.0964
  335MOL0     C46104  11.619   3.597  10.725  0.1227  0.1140 -0.0753
  335MOL0     C46105  11.768   3.570  10.774  0.0747  0.5456 -0.2570
  335MOL0     C46106  11.831   3.453  10.707  0.0489  0.2898 -0.0561
  335MOL0     C46107  11.977   3.447  10.757  0.2990  0.0191  0.2985
  335MOL0     C46108  12.059   3.353  10.669 -0.1232  0.5155 -0.9365
  335MOL0     N46109  12.196   3.342  10.726 -0.4869 -0.6909  0.3296
  335MOL0     C46110  12.233   3.325  10.855 -0.2539  0.2233  0.0871
  335MOL0     C46111  12.363   3.309  10.857  0.1499 -0.8256  1.0292
  335MOL0     C46112  12.440   3.259  10.974 -1.0460 -0.6405 -0.0896
  335MOL0     C46113  12.590   3.298  10.972 -0.4631 -0.2202  0.0788
  335MOL0     C46114  12.675   3.184  10.913  0.1922 -0.0516 -0.7925
  335MOL0     C46115  12.818   3.227  10.890 -0.2293  0.5295 -0.1484
  335MOL0     O46116  12.885   3.187  11.012 -0.1466 -0.3415 -0.0674
  335MOL0     C46117  13.028   3.201  11.033  0.5546  0.3242 -0.2225
  335MOL0     C46118  13.081   3.180  11.162 -0.1206 -0.3632  0.1556
  335MOL0     C46119  13.218   3.201  11.188 -1.0769  0.0599  0.5185
  335MOL0     C46120  13.273   3.185  11.324 -0.3209  0.0045  0.6173
  335MOL0     C46121  13.311   3.233  11.077  0.1598  0.5272 -0.7242
  335MOL0     C46122  13.453   3.251  11.083  0.7409  0.6051 -0.7946
  335MOL0     O46123  13.513   3.304  10.971 -0.3031  0.6023 -0.3666
  335MOL0     C46124  13.649   3.325  10.982 -0.1223 -0.3986 -1.0352
  335MOL0     C46125  13.731   3.264  10.893 -0.5416 -0.0861  0.5883
  335MOL0     C46126  13.870   3.286  10.894  0.5962  0.6532 -1.1105
  335MOL0     C46127  13.927   3.382  10.984  1.1889  0.4800  1.0256
  335MOL0     O46128  14.063   3.413  10.973 -0.0074  0.2710 -0.1695
  335MOL0     C46129  14.110   3.490  11.083  0.7483  0.4095 -0.0621
  335MOL0     C46130  14.248   3.543  11.048  0.5433 -0.7632 -0.5131
  335MOL0     C46131  14.359   3.434  11.077 -0.6707 -0.8789  0.1311
  335MOL0     C46132  14.497   3.472  11.022 -1.1284 -0.4853  0.2042
  335MOL0     C46133  14.557   3.605  11.090  0.5882 -0.3304 -0.1521
  335MOL0     C46134  14.709   3.603  11.070 -0.2379  0.7291  0.0206
  335MOL0     C46135  14.790   3.722  11.124  0.3744 -1.0526  0.1502
  335MOL0     C46136  14.929   3.731  11.067  0.3136  0.4068 -0.7200
  335MOL0    Cl46137  15.015   3.889  11.110 -0.5419  0.0323  0.0651
  335MOL0     C46138  13.836   3.451  11.069  0.8267 -1.6698  0.4612
  335MOL0     C46139  13.700   3.425  11.064  0.3955  1.1065  0.3195
  335MOL0     O46140  13.513   3.218  11.184  0.3753  0.0638  1.0690
  335MOL0     C46141  13.252   3.242  10.950  0.5510  0.3306  0.1345
  335MOL0     C46142  13.111   3.230  10.929 -0.0375 -0.2068 -0.8681
  335MOL0     N46143  12.411   3.323  10.721  0.1200  0.0833 -0.0893
  335MOL0     N46144  12.308   3.349  10.643  0.2602 -0.0183 -0.6970
  335MOL0     C46145  10.960   3.740  10.718 -0.2662 -0.4342 -0.6287
  335MOL0     C46146  10.843   3.677  10.755 -0.3929  0.3650  0.5102
  335MOL0     C46147  10.589   3.335  10.985 -0.3901 -0.0330  1.0081
  335MOL0     C46148  10.586   3.233  11.080  0.2979  0.0128  0.2155
  335MOL0     C46149  10.468   3.175  11.121  0.1391  0.2954 -0.9930
  335MOL0     C46150  10.343   3.215  11.076  0.3796  0.0718  0.4696
  335MOL0     O46151  10.218   3.165  11.111  0.2500 -0.9103 -0.2371
  335MOL0     C46152  10.198   3.089  11.233 -0.6313  0.5750 -0.6125
  335MOL0     C46153  10.048   3.085  11.272 -1.7023 -0.5567 -0.0127
  335MOL0     C46154   9.948   3.031  11.167 -0.4478 -0.0926 -0.6523
  335MOL0     C46155   9.982   2.886  11.140  0.0338 -0.0706  0.6655
  335MOL0     C46156   9.876   2.815  11.059 -0.2602 -0.1554  0.5388
  335MOL0     C46157   9.793   2.785  10.979  0.5038  0.0644  0.5815
  335MOL0     C46158  10.343   3.327  10.991 -0.8286 -0.1867 -0.7573
  335MOL0     C46159  10.460   3.380  10.938 -0.7683 -0.1881 -1.4123
  335MOL0     C46160  10.437   3.487  10.825  0.0962  0.4002 -0.4998
  335MOL0     H46161  10.967   3.487  11.009 -2.0004 -0.3453  0.7410
  335MOL0     H46162  11.171   3.549  10.915  0.6041  0.5249 -0.5147
  335MOL0     H46163  11.334   3.608  10.782 -1.0068  1.1858 -2.0573
  335MOL0     H46164  11.305   3.762  10.878  1.0457 -1.0576  0.4662
  335MOL0     H46165  11.440   3.743  10.599  0.6500 -0.7890 -0.7261
  335MOL0     H46166  11.443   3.890  10.703 -0.4705  0.1140 -0.4387
  335MOL0     H46167  11.653   3.799  10.763  1.5415 -2.5731  2.3185
  335MOL0     H46168  11.557   3.716  10.885 -0.3941 -2.2863 -0.0047
  335MOL0     H46169  11.551   3.513  10.744  0.7549 -1.2270 -3.1682
  335MOL0     H46170  11.625   3.595  10.616 -1.7072 -4.1150 -0.3087
  335MOL0     H46171  11.768   3.557  10.882 -2.3367 -0.3391 -0.2949
  335MOL0     H46172  11.826   3.659  10.747  0.4339 -0.3036 -2.5789
  335MOL0     H46173  11.776   3.362  10.733  1.3038 -0.3421  0.4958
  335MOL0     H46174  11.831   3.460  10.598 -0.5910 -2.1696 -0.2631
  335MOL0     H46175  11.966   3.418  10.862  2.2186  1.2332  0.8945
  335MOL0     H46176  12.022   3.545  10.737 -2.0492  0.3712 -4.6139
  335MOL0     H46177  12.011   3.254  10.668 -1.4969  1.0363  2.0929
  335MOL0     H46178  12.079   3.406  10.576  1.8685  0.5427 -0.5515
  335MOL0     H46179  12.164   3.295  10.933  0.6659 -3.2822 -0.2791
  335MOL0     H46180  12.441   3.150  10.968  1.1613 -0.7754  1.3870
  335MOL0     H46181  12.403   3.303  11.067 -0.3305  0.1561 -0.1717
  335MOL0     H46182  12.608   3.388  10.912 -0.7694 -0.0437  0.2514
  335MOL0     H46183  12.625   3.315  11.074 -0.3674 -3.2487  0.6561
  335MOL0     H46184  12.672   3.099  10.982  0.6568  2.0430  2.0451
  335MOL0     H46185  12.629   3.157  10.818 -2.2578 -3.5726  1.1811
  335MOL0     H46186  12.856   3.183  10.798  1.7709 -0.0703  0.9064
  335MOL0     H46187  12.828   3.336  10.886  4.3652  0.3245  0.3872
  335MOL0     H46188  13.012   3.141  11.235 -1.7020  1.0665 -0.5031
  335MOL0     H46189  13.332   3.093  11.328  3.8617  2.4350  1.8146
  335MOL0     H46190  13.186   3.190  11.390 -1.4862 -0.3519 -0.8240
  335MOL0     H46191  13.342   3.265  11.353  0.6016  0.3004 -2.0923
  335MOL0     H46192  13.690   3.199  10.816  0.2890 -0.0047  0.0691
  335MOL0     H46193  13.942   3.223  10.844  1.6646  0.6397  0.3801
  335MOL0     H46194  14.060   3.587  11.099  2.2169  1.1290  0.3889
  335MOL0     H46195  14.111   3.434  11.177 -0.1629 -3.3330 -2.1039
  335MOL0     H46196  14.249   3.583  10.946  2.7465  2.2641  0.5357
  335MOL0     H46197  14.274   3.629  11.110 -0.7990  0.1771 -1.1932
  335MOL0     H46198  14.335   3.339  11.028  3.2732 -0.9474 -2.0262
  335MOL0     H46199  14.369   3.409  11.183  0.2931 -0.8068  0.0601
  335MOL0     H46200  14.497   3.474  10.913  0.6359  2.7877  0.1346
  335MOL0     H46201  14.573   3.396  11.037  1.1863  1.6510 -0.0517
  335MOL0     H46202  14.515   3.695  11.044  1.9514 -0.1831 -1.1850
  335MOL0     H46203  14.530   3.596  11.195  2.7271 -0.3841  0.4331
  335MOL0     H46204  14.738   3.596  10.964  1.7401 -1.4697  0.6322
  335MOL0     H46205  14.747   3.513  11.118 -1.2399  0.4160  0.2604
  335MOL0     H46206  14.802   3.724  11.233 -2.6395  4.1613  0.7137
  335MOL0     H46207  14.748   3.814  11.084  1.3827  0.7050  2.8816
  335MOL0     H46208  14.911   3.716  10.960 -1.0968  0.0174 -0.4525
  335MOL0     H46209  14.996   3.652  11.102  0.7160 -0.3124 -2.9535
  335MOL0     H46210  13.874   3.533  11.129 -0.0590 -0.8571 -0.0566
  335MOL0     H46211  13.638   3.495  11.118 -1.3481  1.2778 -1.7852
  335MOL0     H46212  13.309   3.247  10.858  0.4772 -0.4192  0.0440
  335MOL0     H46213  13.070   3.225  10.829  0.0289 -0.1257 -0.8998
  335MOL0     H46214  10.960   3.820  10.644 -0.5535  0.3013  0.1468
  335MOL0     H46215  10.752   3.712  10.708  0.4732  1.6527 -0.2722
  335MOL0     H46216  10.674   3.187  11.124  0.9215 -1.3570 -2.2642
  335MOL0     H46217  10.472   3.086  11.182 -0.4681 -0.3577 -1.8941
  335MOL0     H46218  10.225   2.983  11.225 -2.0830  0.0677  0.5754
  335MOL0     H46219  10.252   3.138  11.314  1.6635 -0.3460 -1.5203
  335MOL0     H46220  10.005   3.183  11.297 -2.4698 -0.9976  0.4346
  335MOL0     H46221  10.045   3.026  11.364  2.4684  1.0280  1.3559
  335MOL0     H46222   9.849   3.049  11.209  0.4160  0.2774  1.3398
  335MOL0     H46223   9.964   3.086  11.074  0.9909 -0.9447 -0.9393
  335MOL0     H46224   9.999   2.828  11.231 -2.7154  0.4305  1.6007
  335MOL0     H46225  10.069   2.879  11.074  0.4761  0.9438  1.1130
  335MOL0     H46226   9.723   2.757  10.902  0.4868  2.0388 -0.1651
  335MOL0     H46227  10.246   3.371  10.966 -1.2739 -0.2623  0.7496
  335MOL0     H46228  10.482   3.587  10.836 -0.5172  0.7591 -1.1703
  335MOL0     H46229  10.470   3.447  10.729  4.0720 -0.3720  0.9979
  335MOL0     H46230  10.329   3.502  10.820  0.0480  1.7396  2.2962
  336MOL0     O46231   8.294   1.348   7.395  0.5280  0.8680  0.1063
  336MOL0     C46232   8.254   1.225   7.401  0.3111 -0.3463  0.1876
  336MOL0     O46233   8.336   1.110   7.392  0.0384  0.3630 -0.1697
  336MOL0     C46234   8.462   1.114   7.430 -0.0920 -0.4614 -0.7985
  336MOL0     C46235   8.551   1.036   7.362 -1.3912 -0.2072 -0.0176
  336MOL0     C46236   8.687   1.034   7.399 -0.4987 -0.2220  0.5031
  336MOL0     C46237   8.731   1.109   7.510  0.2112 -0.4581  0.3279
  336MOL0     O46238   8.859   1.108   7.564  0.2447  0.0479  0.4963
  336MOL0     C46239   8.927   1.231   7.576 -0.5333 -0.8223  0.3336
  336MOL0     C46240   8.954   1.298   7.443  0.0981 -0.5622 -0.2485
  336MOL0     C46241   9.050   1.205   7.354 -0.1392  0.2584 -0.2416
  336MOL0     C46242   9.198   1.187   7.395  0.2498  0.1097  0.2286
  336MOL0     C46243   9.283   1.078   7.319  1.2138 -0.0142  0.1045
  336MOL0     C46244   9.427   1.094   7.360 -0.0948  0.3520  0.7315
  336MOL0     C46245   9.501   0.969   7.313 -0.2344  0.3787 -0.5395
  336MOL0     C46246   9.530   0.961   7.157  0.3002  0.1211 -0.3521
  336MOL0     N46247   9.649   1.030   7.118  0.3927  0.0678 -0.1299
  336MOL0     C46248   9.648   1.144   7.042  0.2758 -0.0847  0.3427
  336MOL0     C46249   9.781   1.176   7.015  0.0428  0.0806 -0.6660
  336MOL0     C46250   9.820   1.284   6.919 -0.4335  0.0295 -0.1180
  336MOL0     C46251   9.714   1.299   6.811  0.5456 -0.7246 -1.2183
  336MOL0     C46252   9.740   1.413   6.713 -0.1046 -0.4845 -0.1371
  336MOL0     C46253   9.765   1.552   6.784 -0.2697 -0.3332 -0.2319
  336MOL0     O46254   9.891   1.571   6.851 -0.2736  0.3669 -0.5166
  336MOL0     C46255  10.014   1.575   6.788 -0.9157 -0.7555  0.4580
  336MOL0     C46256  10.128   1.586   6.874  0.7952 -0.0496 -0.2545
  336MOL0     C46257  10.258   1.592   6.816  0.6206  0.5660  0.4860
  336MOL0     C46258  10.371   1.589   6.912 -0.3962 -0.7290  1.1660
  336MOL0     C46259  10.274   1.590   6.674 -0.3469 -0.5286  0.6111
  336MOL0     C46260  10.401   1.613   6.597 -0.2478 -0.9451 -0.5281
  336MOL0     O46261  10.412   1.568   6.467 -0.0694 -0.5979 -0.1681
  336MOL0     C46262  10.519   1.619   6.386  0.6309 -0.4700 -0.0206
  336MOL0     C46263  10.516   1.740   6.313  0.8590 -0.3445  1.1819
  336MOL0     C46264  10.634   1.794   6.250  0.3809 -0.1920  0.1374
  336MOL0     C46265  10.753   1.721   6.260 -0.1254  0.2685  0.5869
  336MOL0     O46266  10.871   1.763   6.202 -0.3469  0.0106  0.2676
  336MOL0     C46267  10.872   1.897   6.140 -0.3907  0.1836 -0.4033
  336MOL0     C46268  10.822   1.886   5.997  0.0919 -0.8186  0.5821
  336MOL0     C46269  10.849   2.021   5.922  0.1736  0.6006 -0.2638
  336MOL0     C46270  10.828   1.994   5.772 -0.1234 -0.3317 -0.3719
  336MOL0     C46271  10.862   2.114   5.676  0.4261  0.1242  0.0134
  336MOL0     C46272  11.005   2.102   5.609 -0.5707  1.0830 -0.7047
  336MOL0     C46273  11.116   2.153   5.696 -0.2140  0.4955  0.9369
  336MOL0     C46274  11.258   2.180   5.631  0.2300 -0.0224 -0.5814
  336MOL0    Cl46275  11.303   2.024   5.556  0.3269  0.0291 -0.3066
  336MOL0     C46276  10.753   1.600   6.325 -0.0975  0.5532  0.5395
  336MOL0     C46277  10.641   1.550   6.387  0.7768 -0.2627 -0.1066
  336MOL0     O46278  10.484   1.688   6.653  0.4328  0.4164  0.0280
  336MOL0     C46279  10.156   1.581   6.590  0.2993 -0.1313  0.0622
  336MOL0     C46280  10.027   1.575   6.646  0.2683 -0.5819  0.3338
  336MOL0     N46281   9.861   1.078   7.079  0.1215 -0.7332  0.9184
  336MOL0     N46282   9.780   0.997   7.145 -0.1899 -0.4965  0.2134
  336MOL0     C46283   8.641   1.200   7.574  0.4844 -0.0805 -0.7292
  336MOL0     C46284   8.501   1.187   7.544  1.2924  0.7011 -0.3817
  336MOL0     C46285   8.107   1.191   7.410  0.3163  0.4341  0.5446
  336MOL0     C46286   8.063   1.108   7.303 -0.3672 -0.0780 -0.0150
  336MOL0     C46287   7.934   1.048   7.308  0.9946  0.0829 -0.7932
  336MOL0     C46288   7.840   1.094   7.399  0.2279 -0.2300  0.0656
  336MOL0     O46289   7.700   1.063   7.413 -0.4030  0.4126 -0.4231
  336MOL0     C46290   7.634   1.011   7.303  0.7085  1.0481 -0.1457
  336MOL0     C46291   7.481   0.995   7.342  0.2478  0.5717  0.5157
  336MOL0     C46292   7.415   0.900   7.238 -1.2517 -0.2347  0.7184
  336MOL0     C46293   7.263   0.877   7.254  0.8126 -0.2559 -0.1364
  336MOL0     C46294   7.177   0.991   7.203 -0.3699  0.5930  0.7068
  336MOL0     C46295   7.119   1.085   7.159 -0.3140  0.2959 -0.8195
  336MOL0     C46296   7.883   1.185   7.497  0.1430  0.0572 -0.2611
  336MOL0     C46297   8.013   1.242   7.495 -0.3612  0.5894  0.6981
  336MOL0     C46298   8.052   1.340   7.608 -0.3612 -1.0428 -0.8223
  336MOL0     H46299   8.514   0.974   7.280 -1.3716 -2.2612  1.4407
  336MOL0     H46300   8.752   0.964   7.347 -0.3636 -0.2309  0.6836
  336MOL0     H46301   9.020   1.218   7.631 -0.2553  2.3286  0.8230
  336MOL0     H46302   8.884   1.304   7.645  2.9381  0.0495  1.7749
  336MOL0     H46303   8.865   1.326   7.386  0.1709 -0.7408 -0.4541
  336MOL0     H46304   9.012   1.387   7.467 -0.0480 -0.8767  1.3547
  336MOL0     H46305   9.000   1.108   7.348  1.9898 -0.8135 -2.0502
  336MOL0     H46306   9.055   1.243   7.251  2.6578 -1.0615 -0.6708
  336MOL0     H46307   9.258   1.278   7.387  2.9268 -1.5795 -0.0165
  336MOL0     H46308   9.200   1.155   7.500 -3.8577  0.6651  0.6241
  336MOL0     H46309   9.259   1.084   7.212 -1.5505 -1.6464  0.5334
  336MOL0     H46310   9.244   0.979   7.344 -1.0274 -0.4109 -4.1212
  336MOL0     H46311   9.469   1.189   7.326 -1.2218  1.1081  1.3648
  336MOL0     H46312   9.444   1.083   7.467  1.3503 -2.7492  0.3107
  336MOL0     H46313   9.444   0.883   7.349 -0.1886  0.7603  0.4901
  336MOL0     H46314   9.594   0.966   7.370  1.8939  1.5259 -3.7191
  336MOL0     H46315   9.543   0.856   7.130 -0.9697  0.5368 -2.8142
  336MOL0     H46316   9.445   1.000   7.102 -1.4329 -2.9066 -0.0677
  336MOL0     H46317   9.559   1.202   7.020  0.9280  1.3275  1.2972
  336MOL0     H46318   9.911   1.251   6.867 -0.8561 -2.1786  0.4554
  336MOL0     H46319   9.846   1.376   6.972  0.5912 -1.6450  2.5038
  336MOL0     H46320   9.703   1.202   6.763 -1.5594 -1.7853  1.1678
  336MOL0     H46321   9.622   1.325   6.863  1.3739  0.6583 -0.3687
  336MOL0     H46322   9.825   1.390   6.648  1.5082  2.6970  0.6525
  336MOL0     H46323   9.652   1.425   6.648  0.3601  1.6718 -0.4256
  336MOL0     H46324   9.750   1.629   6.708 -0.0184 -0.2869 -0.2342
  336MOL0     H46325   9.693   1.565   6.865  2.9562  1.6602  2.5849
  336MOL0     H46326  10.122   1.588   6.983  0.6554 -0.7525 -0.2434
  336MOL0     H46327  10.384   1.688   6.957 -0.5070  0.8302 -1.8912
  336MOL0     H46328  10.462   1.557   6.861  0.3376  0.4278  1.7033
  336MOL0     H46329  10.357   1.515   6.990 -1.9384 -1.7678 -0.0269
  336MOL0     H46330  10.427   1.799   6.294 -1.4885 -4.1572 -1.2557
  336MOL0     H46331  10.619   1.887   6.196 -2.2564 -1.2467 -1.0952
  336MOL0     H46332  10.805   1.969   6.189 -0.6871 -0.7175  0.5558
  336MOL0     H46333  10.977   1.927   6.141 -0.6396  1.0475 -0.1125
  336MOL0     H46334  10.885   1.812   5.946  1.1897  2.0746 -2.6395
  336MOL0     H46335  10.714   1.867   5.996  0.1488 -1.1461  0.3407
  336MOL0     H46336  10.954   2.050   5.924  0.8589 -1.1955 -3.4223
  336MOL0     H46337  10.781   2.096   5.964  0.7029  0.3682  1.0666
  336MOL0     H46338  10.722   1.979   5.750 -0.0237  0.3074 -1.3826
  336MOL0     H46339  10.881   1.903   5.743  2.0493 -0.1124  2.4445
  336MOL0     H46340  10.788   2.117   5.596 -2.2229 -1.6508  2.1975
  336MOL0     H46341  10.850   2.207   5.733 -0.7597  0.7217 -1.1857
  336MOL0     H46342  11.014   2.153   5.513  0.7915  2.0747 -0.0880
  336MOL0     H46343  11.030   1.997   5.590  1.2616  1.3605 -0.0423
  336MOL0     H46344  11.128   2.075   5.772 -1.2180 -1.9396 -1.2601
  336MOL0     H46345  11.083   2.254   5.724  0.5781  0.8711  0.5709
  336MOL0     H46346  11.332   2.201   5.709 -0.2308 -3.7150  1.0648
  336MOL0     H46347  11.243   2.258   5.555  0.0146 -0.8177 -1.3773
  336MOL0     H46348  10.844   1.541   6.314 -0.1674  0.2871  1.3343
  336MOL0     H46349  10.647   1.454   6.436  1.8584 -0.3255 -0.3295
  336MOL0     H46350  10.156   1.587   6.481 -2.9894  0.1541 -0.0210
  336MOL0     H46351   9.936   1.570   6.587  0.4744  1.6575 -0.2443
  336MOL0     H46352   8.679   1.266   7.651 -1.5779  0.7514 -0.3458
  336MOL0     H46353   8.416   1.233   7.594 -0.1624 -2.9475  0.8206
  336MOL0     H46354   8.131   1.090   7.220  0.3334  1.4531  0.1874
  336MOL0     H46355   7.883   0.980   7.240 -2.5931  1.0483  0.6961
  336MOL0     H46356   7.642   1.076   7.215  1.6481  0.1877 -0.7169
  336MOL0     H46357   7.671   0.912   7.277 -0.7001 -0.3504  2.7909
  336MOL0     H46358   7.435   1.094   7.339 -0.1122  0.4296 -2.7473
  336MOL0     H46359   7.469   0.956   7.443  0.4025 -1.4274 -0.1790
  336MOL0     H46360   7.432   0.945   7.140 -0.2012 -1.9373  0.0841
  336MOL0     H46361   7.466   0.803   7.239  2.1290  1.2925 -1.9196
  336MOL0     H46362   7.247   0.855   7.360 -0.9342 -2.8843 -0.8376
  336MOL0     H46363   7.236   0.792   7.191  0.7041 -0.6406  0.4154
  336MOL0     H46364   7.051   1.155   7.114 -1.6490 -0.8866 -0.6990
  336MOL0     H46365   7.802   1.212   7.564 -2.5856 -0.4803 -3.1319
  336MOL0     H46366   8.099   1.282   7.688 -3.1735 -2.1854  0.1231
  336MOL0     H46367   8.113   1.425   7.576 -1.1523  0.4775  1.4633
  336MOL0     H46368   7.967   1.400   7.643  1.3017  1.1325 -0.2929
  337MOL0     O46369   7.590   5.345   3.202  0.7339 -0.0339  0.6657
  337MOL0     C46370   7.627   5.229   3.238  0.0133 -0.2607 -0.1182
  337MOL0     O46371   7.754   5.179   3.225 -0.2043 -0.4375 -0.4099
  337MOL0     C46372   7.857   5.267   3.199  1.0472  0.1600 -0.3783
  337MOL0     C46373   7.965   5.200   3.145  0.2045  0.4044 -0.4203
  337MOL0     C46374   8.088   5.260   3.120 -0.3599  0.0802 -0.0167
  337MOL0     C46375   8.096   5.406   3.121 -0.4326  0.4864 -0.0727
  337MOL0     O46376   8.209   5.472   3.080  0.1320  0.3912  0.0581
  337MOL0     C46377   8.316   5.398   3.030  0.0358  0.3192 -0.6731
  337MOL0     C46378   8.417   5.492   2.975 -0.5663  0.1662  0.4315
  337MOL0     C46379   8.528   5.410   2.913 -0.2721 -0.6959 -0.5122
  337MOL0     C46380   8.633   5.506   2.862  0.0805 -0.3869 -0.2043
  337MOL0     C46381   8.771   5.448   2.836  0.3807  0.0608 -0.2183
  337MOL0     C46382   8.854   5.543   2.758  0.2187  0.4609 -0.0990
  337MOL0     C46383   8.990   5.486   2.721  0.1366 -0.3310 -0.1555
  337MOL0     C46384   8.974   5.362   2.645  0.0528  0.2685  1.0380
  337MOL0     N46385   9.100   5.329   2.577  0.6916  0.4342 -0.4894
  337MOL0     C46386   9.112   5.267   2.457  0.3116 -0.4274 -0.2468
  337MOL0     C46387   9.243   5.252   2.447  0.5674  0.1409 -0.3427
  337MOL0     C46388   9.313   5.185   2.325  1.2629 -0.1978 -0.3673
  337MOL0     C46389   9.444   5.115   2.365  0.2345  0.0984 -0.0147
  337MOL0     C46390   9.510   5.061   2.233  0.7186 -0.2854 -0.2832
  337MOL0     C46391   9.647   4.976   2.234 -0.1325 -1.0355 -1.0685
  337MOL0     O46392   9.644   4.866   2.329 -0.9827  0.7059  0.3516
  337MOL0     C46393   9.755   4.786   2.325  0.0112  0.2846  1.0787
  337MOL0     C46394   9.880   4.828   2.289 -0.7875 -0.1311 -0.5054
  337MOL0     C46395   9.991   4.741   2.291  1.1034  0.4353 -0.4878
  337MOL0     C46396  10.117   4.791   2.215  0.5516  0.1262 -0.4658
  337MOL0     C46397   9.970   4.613   2.345 -1.1149  0.1795  0.2321
  337MOL0     C46398  10.079   4.512   2.372  0.8899  0.0795 -0.2395
  337MOL0     O46399  10.030   4.388   2.380 -0.0296  0.2662 -0.2692
  337MOL0     C46400  10.125   4.293   2.395 -0.5038  1.3333  0.6109
  337MOL0     C46401  10.109   4.200   2.505 -0.0916 -0.3969  0.2610
  337MOL0     C46402  10.176   4.079   2.513 -0.2677 -0.2971  0.2629
  337MOL0     C46403  10.278   4.048   2.415 -0.3884 -1.6757 -0.1004
  337MOL0     O46404  10.351   3.936   2.417  0.0976  0.0187 -0.7190
  337MOL0     C46405  10.348   3.829   2.521  0.0419 -0.2061  1.0077
  337MOL0     C46406  10.462   3.839   2.620 -0.5761  0.4169 -0.4032
  337MOL0     C46407  10.483   3.707   2.706  0.9601  0.3853  0.6423
  337MOL0     C46408  10.622   3.669   2.765  0.1578 -0.6053 -0.3321
  337MOL0     C46409  10.610   3.562   2.872  0.5805  0.7541  0.4538
  337MOL0     C46410  10.732   3.537   2.950  0.1663  0.2011  0.5215
  337MOL0     C46411  10.842   3.455   2.868  0.0811  0.1995  0.0481
  337MOL0     C46412  10.955   3.420   2.966 -0.0902 -0.1387  0.2683
  337MOL0    Cl46413  10.995   3.557   3.086  0.3281  0.2448 -0.0098
  337MOL0     C46414  10.302   4.144   2.310 -0.9504 -0.1090 -0.0195
  337MOL0     C46415  10.225   4.261   2.297  0.3532  0.3986  0.1023
  337MOL0     O46416  10.188   4.556   2.401 -0.3433 -0.6438 -0.7341
  337MOL0     C46417   9.846   4.578   2.403 -0.5790  0.0718 -0.3446
  337MOL0     C46418   9.738   4.662   2.390 -0.7889 -1.0776 -0.1018
  337MOL0     N46419   9.305   5.298   2.560  0.1733 -0.2521  0.1465
  337MOL0     N46420   9.223   5.351   2.632  0.5740  1.0885 -0.4397
  337MOL0     C46421   7.979   5.471   3.147 -0.6153 -0.2686 -0.2037
  337MOL0     C46422   7.868   5.407   3.194 -0.2518  0.0826  0.2587
  337MOL0     C46423   7.526   5.152   3.295 -0.1716  0.8249  0.6433
  337MOL0     C46424   7.560   5.024   3.343 -0.3691 -0.2405  0.1660
  337MOL0     C46425   7.465   4.929   3.391  0.7599  0.4977  0.3382
  337MOL0     C46426   7.334   4.970   3.409  0.0557  0.4585  0.0267
  337MOL0     O46427   7.238   4.880   3.445  0.4293 -0.0486  0.7205
  337MOL0     C46428   7.117   4.914   3.527 -0.0178  0.7689 -1.5410
  337MOL0     C46429   7.070   4.792   3.618  0.0637 -0.3821 -0.3281
  337MOL0     C46430   6.915   4.784   3.640 -0.0619 -0.5257  0.2291
  337MOL0     C46431   6.874   4.894   3.739  0.4078  0.0405 -0.5524
  337MOL0     C46432   6.746   4.870   3.805  0.3748  0.3034 -0.1283
  337MOL0     C46433   6.643   4.851   3.860 -1.2427  0.5864 -0.1119
  337MOL0     C46434   7.299   5.097   3.380  0.0805  0.8918 -0.4354
  337MOL0     C46435   7.386   5.184   3.320  0.0238 -0.6659 -0.4238
  337MOL0     C46436   7.315   5.308   3.277  0.7870  0.1427  0.2839
  337MOL0     H46437   7.960   5.092   3.135  2.3177  0.0889  1.0599
  337MOL0     H46438   8.172   5.204   3.082  0.4111  1.3742 -0.2836
  337MOL0     H46439   8.281   5.330   2.952  2.1436 -2.1710  0.4233
  337MOL0     H46440   8.361   5.337   3.109 -0.2151 -0.2884 -0.9954
  337MOL0     H46441   8.379   5.557   2.896  3.1380  2.1987  0.0775
  337MOL0     H46442   8.445   5.555   3.060 -0.4956 -1.2232  1.4824
  337MOL0     H46443   8.570   5.344   2.989  1.7036 -2.5044 -3.0105
  337MOL0     H46444   8.493   5.349   2.829 -1.1004 -0.7754 -0.1223
  337MOL0     H46445   8.595   5.558   2.773  0.8761 -2.1281 -1.6375
  337MOL0     H46446   8.647   5.583   2.938 -2.2196  1.8977 -1.9324
  337MOL0     H46447   8.747   5.355   2.783 -1.4880 -0.6843  1.8029
  337MOL0     H46448   8.819   5.422   2.931 -0.4595 -1.8245 -0.2635
  337MOL0     H46449   8.796   5.564   2.668 -0.2536  2.0726  0.5498
  337MOL0     H46450   8.876   5.631   2.819  1.6606  1.2419 -1.6838
  337MOL0     H46451   9.053   5.477   2.810  0.8319  1.9435 -0.3590
  337MOL0     H46452   9.047   5.552   2.655 -0.5482 -0.1503 -0.5770
  337MOL0     H46453   8.948   5.277   2.709 -1.2057 -0.8980 -0.9354
  337MOL0     H46454   8.891   5.364   2.574 -1.3565  1.2543  2.6030
  337MOL0     H46455   9.026   5.233   2.400  0.3701 -1.5592  0.3041
  337MOL0     H46456   9.334   5.262   2.250 -4.8590  1.1329 -1.2609
  337MOL0     H46457   9.250   5.114   2.272 -0.1747 -0.0388  1.0497
  337MOL0     H46458   9.512   5.185   2.414 -0.0472  1.1464 -1.0836
  337MOL0     H46459   9.417   5.041   2.442  1.3451  0.6626  0.9484
  337MOL0     H46460   9.427   5.002   2.193 -1.3393  0.7755  2.0927
  337MOL0     H46461   9.528   5.140   2.160 -2.5397 -0.8263 -1.8395
  337MOL0     H46462   9.675   4.949   2.132 -0.2732  0.5238 -1.5517
  337MOL0     H46463   9.719   5.049   2.272 -0.5797  0.1099 -2.3046
  337MOL0     H46464   9.905   4.923   2.243  0.0762 -0.0864  0.0164
  337MOL0     H46465  10.213   4.754   2.253  1.0139  1.2152 -0.5227
  337MOL0     H46466  10.128   4.900   2.213 -1.0406  0.3598  1.2515
  337MOL0     H46467  10.095   4.760   2.112 -1.6057 -0.5515  0.1539
  337MOL0     H46468  10.041   4.236   2.581 -0.0127 -0.8261  0.5384
  337MOL0     H46469  10.149   4.008   2.590  2.6450  0.7996  2.4595
  337MOL0     H46470  10.248   3.817   2.562  0.6359  0.2688  2.6667
  337MOL0     H46471  10.376   3.747   2.454  1.7575  0.5233  0.7590
  337MOL0     H46472  10.555   3.871   2.571  1.1250  0.1332  2.4207
  337MOL0     H46473  10.437   3.917   2.691 -0.3069 -3.1789  4.1204
  337MOL0     H46474  10.465   3.626   2.635  0.3972 -0.0213  1.2427
  337MOL0     H46475  10.410   3.711   2.787 -0.6046 -1.9231 -0.5376
  337MOL0     H46476  10.666   3.754   2.818 -3.6766  0.6622  1.1706
  337MOL0     H46477  10.687   3.642   2.680  0.9914  2.5494 -0.8237
  337MOL0     H46478  10.541   3.606   2.943 -1.3345  0.4459 -1.1165
  337MOL0     H46479  10.572   3.466   2.835  1.5289  0.3406  0.5156
  337MOL0     H46480  10.709   3.478   3.039  3.4819 -3.7020 -0.9101
  337MOL0     H46481  10.767   3.632   2.990 -1.9763  1.0948  0.4182
  337MOL0     H46482  10.888   3.499   2.779  0.0829 -1.3013 -0.7385
  337MOL0     H46483  10.798   3.369   2.816 -1.5053  0.6112  0.6631
  337MOL0     H46484  11.046   3.392   2.912  0.4761  0.6788  0.7838
  337MOL0     H46485  10.926   3.330   3.021  3.3763 -1.3298  0.3492
  337MOL0     H46486  10.374   4.114   2.233 -3.0454  0.0040 -2.1404
  337MOL0     H46487  10.233   4.328   2.212 -1.2041  1.0566  0.4495
  337MOL0     H46488   9.829   4.483   2.452 -3.1684  0.7117  0.1107
  337MOL0     H46489   9.636   4.654   2.428 -1.1724  2.0284 -0.2603
  337MOL0     H46490   7.982   5.579   3.137  1.8674 -0.0681  1.7528
  337MOL0     H46491   7.783   5.471   3.217 -1.0090 -0.6857 -0.3764
  337MOL0     H46492   7.662   4.990   3.334 -0.1693  0.1862  0.7750
  337MOL0     H46493   7.478   4.829   3.432  1.6591  1.2172  1.8762
  337MOL0     H46494   7.143   4.991   3.601  1.6269 -2.2007  1.2152
  337MOL0     H46495   7.034   4.955   3.469  0.6010  3.8212 -0.4622
  337MOL0     H46496   7.131   4.800   3.709  1.5562 -1.5075 -1.1772
  337MOL0     H46497   7.097   4.700   3.566  1.1916  0.0661 -0.5754
  337MOL0     H46498   6.877   4.795   3.538  3.4824  1.7585 -1.0498
  337MOL0     H46499   6.896   4.687   3.686 -1.5876 -0.5997 -0.5193
  337MOL0     H46500   6.872   4.989   3.685 -1.8867 -1.4188 -3.3123
  337MOL0     H46501   6.944   4.896   3.823 -0.6197 -0.4907  0.3395
  337MOL0     H46502   6.558   4.833   3.923 -1.5233  3.8862  0.6602
  337MOL0     H46503   7.192   5.116   3.382 -1.0390 -3.6268 -3.1701
  337MOL0     H46504   7.327   5.329   3.170  2.2834  1.6164  0.7028
  337MOL0     H46505   7.208   5.303   3.302  0.0326  1.5240 -2.2409
  337MOL0     H46506   7.358   5.393   3.330  0.7827  0.1282  0.3102
  338MOL0     O46507   8.206   9.950   3.276  0.9579 -0.2743  0.0086
  338MOL0     C46508   8.203   9.894   3.389 -0.0230  0.0981  0.0163
  338MOL0     O46509   8.303   9.909   3.485 -0.0842 -0.5152 -0.2694
  338MOL0     C46510   8.427   9.955   3.470  0.0696 -0.2004  0.2139
  338MOL0     C46511   8.537   9.863   3.467 -0.8216  0.5489  0.2461
  338MOL0     C46512   8.664   9.899   3.432 -0.1495  0.0239 -0.4703
  338MOL0     C46513   8.689  10.031   3.400 -0.9658  0.4138  0.5249
  338MOL0     O46514   8.802  10.083   3.356 -0.1612 -0.4680  0.6740
  338MOL0     C46515   8.929  10.019   3.378  0.2761  0.5296  0.9474
  338MOL0     C46516   8.953   9.923   3.264  0.4430 -0.0156 -0.4775
  338MOL0     C46517   9.103   9.882   3.254 -0.7589  0.0603  0.2405
  338MOL0     C46518   9.180   9.967   3.147  0.3607  0.3549 -0.3661
  338MOL0     C46519   9.327   9.933   3.119  0.0842 -0.1454  0.1403
  338MOL0     C46520   9.423   9.961   3.234  0.0948 -0.1565 -0.1693
  338MOL0     C46521   9.564   9.930   3.191  0.0953 -0.4988 -0.1495
  338MOL0     C46522   9.661   9.924   3.310  0.1110 -0.1273 -0.3032
  338MOL0     N46523   9.794   9.859   3.283 -0.6491 -0.4005 -0.1198
  338MOL0     C46524   9.867   9.791   3.375  0.0911 -0.1752  0.1533
  338MOL0     C46525   9.983   9.765   3.311  0.8273  1.3514 -0.2373
  338MOL0     C46526  10.105   9.692   3.373  0.2400 -0.3131  0.5505
  338MOL0     C46527  10.227   9.783   3.356  0.1015  1.2062 -0.6176
  338MOL0     C46528  10.198   9.905   3.445  0.3909 -0.3110 -0.1853
  338MOL0     C46529  10.316  10.005   3.438  0.1001  0.4977  0.1207
  338MOL0     O46530  10.439   9.958   3.494 -0.3922 -0.2507 -1.1012
  338MOL0     C46531  10.549  10.028   3.460 -0.3467 -0.1055 -0.1256
  338MOL0     C46532  10.562  10.152   3.402  0.1200 -0.6204  0.4106
  338MOL0     C46533  10.685  10.210   3.382 -0.2143  0.0482  0.3906
  338MOL0     C46534  10.678  10.341   3.312  0.4958 -0.2337 -0.1860
  338MOL0     C46535  10.805  10.141   3.432 -0.1568 -0.5685 -0.6036
  338MOL0     C46536  10.942  10.192   3.421 -0.6079 -0.2078  0.1434
  338MOL0     O46537  11.045  10.115   3.474  0.0036 -0.6450 -0.3654
  338MOL0     C46538  11.179  10.161   3.479  0.3495  0.5959 -0.2475
  338MOL0     C46539  11.230  10.196   3.600  0.7618  1.0682 -0.1001
  338MOL0     C46540  11.369  10.217   3.607  0.5709  0.2808 -0.2263
  338MOL0     C46541  11.449  10.216   3.493 -0.5903  0.0812 -0.0387
  338MOL0     O46542  11.578  10.243   3.501  0.1885 -0.0136 -0.2464
  338MOL0     C46543  11.654  10.218   3.624 -0.4561 -0.7415  0.1161
  338MOL0     C46544  11.799  10.216   3.573  0.1546 -0.3243  0.1835
  338MOL0     C46545  11.840  10.085   3.509  0.9622  0.1627  0.6970
  338MOL0     C46546  11.986  10.071   3.480 -0.3016  0.3724  0.5608
  338MOL0     C46547  12.026   9.948   3.391  0.0428 -0.0273 -0.6788
  338MOL0     C46548  12.172   9.935   3.340 -0.4541  0.7156  0.0130
  338MOL0     C46549  12.187   9.803   3.266  0.2187  0.1067  0.0547
  338MOL0     C46550  12.332   9.759   3.222 -0.2032  0.5524  0.3441
  338MOL0    Cl46551  12.434   9.722   3.367 -0.5393 -0.0460  0.2316
  338MOL0     C46552  11.395  10.178   3.373  0.8902  0.0779  0.7866
  338MOL0     C46553  11.255  10.147   3.367  0.0829 -0.0358  0.2867
  338MOL0     O46554  10.964  10.295   3.356  1.1491  0.8556 -0.4929
  338MOL0     C46555  10.789  10.014   3.492 -0.7291  1.1040 -0.2194
  338MOL0     C46556  10.660   9.959   3.497 -0.2489  1.4057 -0.7994
  338MOL0     N46557   9.973   9.804   3.181 -0.9973 -0.0581 -0.0710
  338MOL0     N46558   9.867   9.872   3.167  0.4830 -0.0157 -0.4588
  338MOL0     C46559   8.581  10.124   3.403 -0.1418  0.4662  0.2537
  338MOL0     C46560   8.450  10.088   3.433  0.0945 -0.2223 -1.1618
  338MOL0     C46561   8.080   9.818   3.428  0.0098 -0.0147  0.3491
  338MOL0     C46562   8.076   9.765   3.558 -0.0792 -1.6147 -0.3184
  338MOL0     C46563   7.970   9.674   3.601 -0.9558  0.1030  0.6340
  338MOL0     C46564   7.871   9.651   3.511 -0.4591 -0.2497  0.7962
  338MOL0     O46565   7.769   9.569   3.550 -0.8049 -0.9114  0.0934
  338MOL0     C46566   7.668   9.519   3.456 -0.0564 -1.0032  0.3995
  338MOL0     C46567   7.563   9.430   3.522 -0.8404  0.0215  0.1674
  338MOL0     C46568   7.478   9.495   3.628  0.4774  0.0502  1.0652
  338MOL0     C46569   7.409   9.396   3.722  1.1399  0.1236  0.3320
  338MOL0     C46570   7.311   9.314   3.650  0.3661 -0.1376 -0.2847
  338MOL0     C46571   7.232   9.237   3.600  0.3074 -0.2695 -0.1498
  338MOL0     C46572   7.876   9.700   3.377 -0.2259  0.0051  0.3700
  338MOL0     C46573   7.979   9.780   3.335  0.0960  0.2525  0.0362
  338MOL0     C46574   7.974   9.820   3.193 -0.0970  1.1499 -0.1486
  338MOL0     H46575   8.513   9.760   3.490  1.9307 -1.1014 -3.3286
  338MOL0     H46576   8.741   9.823   3.430 -2.4848 -2.5445 -2.9394
  338MOL0     H46577   8.949   9.964   3.471  1.5429 -2.3473 -0.8594
  338MOL0     H46578   9.000  10.102   3.376  1.4594 -0.4189 -1.9307
  338MOL0     H46579   8.894   9.832   3.279 -2.2664  1.8226  1.0329
  338MOL0     H46580   8.922   9.971   3.171 -0.5288 -0.7897 -0.5691
  338MOL0     H46581   9.149   9.868   3.353  1.7923 -0.8886 -1.0021
  338MOL0     H46582   9.103   9.780   3.216  0.9267  0.0898  0.0685
  338MOL0     H46583   9.125   9.951   3.054  2.2585  0.7854 -1.6200
  338MOL0     H46584   9.172  10.072   3.178 -0.5316 -0.0267  0.7538
  338MOL0     H46585   9.358   9.995   3.034 -0.4813  0.3136  0.2638
  338MOL0     H46586   9.333   9.828   3.087 -0.7218 -0.2924  0.4535
  338MOL0     H46587   9.401  10.062   3.269  0.4056 -0.0587 -0.2590
  338MOL0     H46588   9.396   9.894   3.317 -0.9888  1.0107  0.4664
  338MOL0     H46589   9.596  10.009   3.121 -2.6994  0.3986 -0.5259
  338MOL0     H46590   9.567   9.828   3.153 -4.3542 -0.6823 -0.4768
  338MOL0     H46591   9.673  10.028   3.341 -0.9844 -0.6133  1.9472
  338MOL0     H46592   9.609   9.879   3.395 -0.8652  1.4725 -0.0054
  338MOL0     H46593   9.847   9.769   3.479  1.4257  2.7941  1.1370
  338MOL0     H46594  10.123   9.596   3.324 -1.7222 -0.9165  0.9137
  338MOL0     H46595  10.085   9.668   3.478  2.5314 -1.5534  0.7648
  338MOL0     H46596  10.306   9.726   3.405 -1.8444  1.0637  2.6355
  338MOL0     H46597  10.247   9.795   3.249  0.3515 -0.4363 -0.7918
  338MOL0     H46598  10.107   9.962   3.426  1.0552  0.9739  0.3574
  338MOL0     H46599  10.187   9.868   3.547  1.6859  0.9221  0.4365
  338MOL0     H46600  10.335  10.031   3.333 -1.2464  0.5286 -0.1363
  338MOL0     H46601  10.289  10.098   3.489 -1.5902  0.1489 -0.0769
  338MOL0     H46602  10.475  10.207   3.368  0.6912 -1.3129 -2.3918
  338MOL0     H46603  10.726  10.333   3.214  0.7305  0.1254 -0.1025
  338MOL0     H46604  10.728  10.426   3.361  0.5314  0.4559 -1.3775
  338MOL0     H46605  10.579  10.379   3.287  0.9590  1.2627  0.1614
  338MOL0     H46606  11.172  10.191   3.692 -0.1598 -0.5765 -0.7381
  338MOL0     H46607  11.419  10.234   3.702 -1.9483 -0.7854  1.4009
  338MOL0     H46608  11.636  10.293   3.700 -3.5201 -0.5710 -0.6646
  338MOL0     H46609  11.627  10.120   3.664  1.1787 -1.9796 -1.5757
  338MOL0     H46610  11.823  10.286   3.493  0.5217  0.3509  0.8768
  338MOL0     H46611  11.866  10.225   3.659 -2.5335  2.1902  2.1973
  338MOL0     H46612  11.787  10.074   3.414  1.4368  1.1733  0.3058
  338MOL0     H46613  11.796  10.008   3.574 -2.2297 -1.4692 -2.9941
  338MOL0     H46614  12.048  10.063   3.570  3.4278  2.1185 -1.5727
  338MOL0     H46615  12.015  10.162   3.426 -3.5646  1.3076  0.1856
  338MOL0     H46616  12.000   9.861   3.452 -2.5930  0.9798 -0.2127
  338MOL0     H46617  11.959   9.958   3.305 -1.7227 -0.2398  0.5972
  338MOL0     H46618  12.238   9.936   3.427  1.0756  3.5665 -1.0323
  338MOL0     H46619  12.198  10.013   3.268  0.2829 -2.8604 -3.9954
  338MOL0     H46620  12.129   9.805   3.173 -0.6182 -0.4776  0.5510
  338MOL0     H46621  12.143   9.726   3.329  0.4544 -0.5580 -0.5786
  338MOL0     H46622  12.379   9.835   3.159  3.4180  1.3015  3.6021
  338MOL0     H46623  12.319   9.670   3.160 -4.2316 -0.4983  2.3235
  338MOL0     H46624  11.454  10.153   3.285 -3.1889 -3.0208 -1.4414
  338MOL0     H46625  11.224  10.099   3.275 -2.0745 -0.9686  1.4315
  338MOL0     H46626  10.872   9.961   3.536  0.0143  1.7852 -0.7634
  338MOL0     H46627  10.641   9.867   3.551 -1.1014  2.6084  1.0716
  338MOL0     H46628   8.588  10.226   3.368  0.6135  0.0771 -0.7447
  338MOL0     H46629   8.374  10.164   3.449  1.3118  0.7770  0.2039
  338MOL0     H46630   8.152   9.782   3.634 -2.4799 -1.1779  2.1284
  338MOL0     H46631   7.958   9.633   3.701  2.6389 -1.2120  0.6998
  338MOL0     H46632   7.607   9.594   3.405 -1.6820 -2.1362  0.5916
  338MOL0     H46633   7.715   9.450   3.385 -0.3343 -1.6643  0.8451
  338MOL0     H46634   7.627   9.354   3.568 -0.0863 -0.5577 -1.7554
  338MOL0     H46635   7.506   9.378   3.445  1.2229 -2.1616  0.0021
  338MOL0     H46636   7.538   9.563   3.690  0.1284  0.3986  1.0300
  338MOL0     H46637   7.414   9.563   3.570 -0.5781 -0.9238  1.0644
  338MOL0     H46638   7.349   9.453   3.794 -0.2289 -0.2197 -0.5007
  338MOL0     H46639   7.478   9.333   3.779  1.9123  1.0766  0.4753
  338MOL0     H46640   7.152   9.182   3.554  0.0916  0.9756 -1.3108
  338MOL0     H46641   7.791   9.683   3.312 -0.4524  1.0353  0.3781
  338MOL0     H46642   8.068   9.794   3.143 -0.6416  0.5389 -0.8871
  338MOL0     H46643   7.903   9.766   3.130 -0.2740  2.9040 -1.5374
  338MOL0     H46644   7.954   9.927   3.198  1.9508  1.5539  0.0543
  339MOL0     O46645   6.840   2.079  11.056  0.0683 -0.8435 -0.5457
  339MOL0     C46646   6.935   2.157  11.048  0.5757  0.1374 -0.6657
  339MOL0     O46647   7.009   2.171  10.943 -0.1654 -0.7432 -0.0918
  339MOL0     C46648   6.994   2.084  10.835 -0.8226 -0.1081  1.2157
  339MOL0     C46649   6.974   2.137  10.713 -0.5979  0.5424  0.8204
  339MOL0     C46650   6.965   2.057  10.600 -0.6704  0.7742  0.8705
  339MOL0     C46651   6.980   1.918  10.613 -0.2263  0.4149 -0.2047
  339MOL0     O46652   6.964   1.846  10.498  0.0847  0.2588 -0.3300
  339MOL0     C46653   7.002   1.710  10.498 -0.5748  0.4864 -0.1891
  339MOL0     C46654   7.067   1.687  10.361  0.4626 -0.2971 -0.0801
  339MOL0     C46655   7.193   1.763  10.339 -0.1860  0.6720 -1.0663
  339MOL0     C46656   7.255   1.739  10.201  0.7664 -0.2440 -0.5263
  339MOL0     C46657   7.376   1.834  10.185  0.8748 -0.1556  1.4056
  339MOL0     C46658   7.426   1.853  10.043 -0.0568  0.5076 -0.0647
  339MOL0     C46659   7.558   1.915  10.037 -0.3314 -0.4122 -0.0731
  339MOL0     C46660   7.678   1.832  10.085  0.6695 -0.1628  0.4573
  339MOL0     N46661   7.799   1.877  10.023 -0.0295  0.2972  0.4043
  339MOL0     C46662   7.913   1.807  10.033 -0.1398  0.3305  0.1354
  339MOL0     C46663   8.014   1.889   9.977  0.0976  0.5176 -0.2617
  339MOL0     C46664   8.161   1.838   9.967 -0.0782 -0.6166  0.4548
  339MOL0     C46665   8.238   1.882  10.092 -0.6598  0.2530 -0.4930
  339MOL0     C46666   8.378   1.808  10.098  0.8780  0.3166 -0.5384
  339MOL0     C46667   8.483   1.855  10.002 -0.0166  0.4518 -0.1390
  339MOL0     O46668   8.516   1.992  10.016 -0.3648 -0.1780  0.2323
  339MOL0     C46669   8.636   2.038   9.960  0.2398 -0.2100  0.8260
  339MOL0     C46670   8.677   2.168   9.990  0.3553  0.3055 -0.5838
  339MOL0     C46671   8.804   2.219   9.954 -0.7162 -0.2120  0.5978
  339MOL0     C46672   8.836   2.350  10.008 -0.9339  0.5935 -0.0836
  339MOL0     C46673   8.896   2.135   9.874  0.3571 -0.5221 -0.6109
  339MOL0     C46674   9.031   2.171   9.840 -0.3984  0.0324 -0.7684
  339MOL0     O46675   9.095   2.121   9.726  0.4009 -0.1335 -0.1436
  339MOL0     C46676   9.223   2.164   9.708  0.7354  0.6141 -0.2944
  339MOL0     C46677   9.321   2.148   9.805 -0.0895  0.3140 -0.2768
  339MOL0     C46678   9.447   2.184   9.775 -0.0217 -0.4841  0.5533
  339MOL0     C46679   9.479   2.246   9.659 -0.4448  0.6804  0.4475
  339MOL0     O46680   9.609   2.284   9.629  0.3504  0.9960  0.0881
  339MOL0     C46681   9.715   2.198   9.677  0.0318  0.2196 -0.0359
  339MOL0     C46682   9.854   2.242   9.623  0.2739 -0.5822  0.8707
  339MOL0     C46683   9.968   2.164   9.689 -0.1931  0.2370  0.1774
  339MOL0     C46684  10.105   2.187   9.623  0.5942  0.8033  0.1347
  339MOL0     C46685  10.206   2.108   9.709  0.3862 -0.5697 -0.2584
  339MOL0     C46686  10.345   2.104   9.651  0.1152 -0.0683  0.1601
  339MOL0     C46687  10.450   2.025   9.744  0.3349  0.4020 -0.1955
  339MOL0     C46688  10.590   2.069   9.706  0.7959 -0.5179  0.3817
  339MOL0    Cl46689  10.618   2.206   9.810 -0.1778 -0.1981 -0.6115
  339MOL0     C46690   9.385   2.267   9.567 -0.0986 -0.5918 -0.0154
  339MOL0     C46691   9.252   2.231   9.593 -0.2545 -0.3491  0.7954
  339MOL0     O46692   9.080   2.253   9.919 -0.2441 -0.6175  0.0623
  339MOL0     C46693   8.838   2.015   9.826  0.6766 -0.6639  0.2298
  339MOL0     C46694   8.711   1.967   9.868  0.3824  0.2395 -0.0487
  339MOL0     N46695   7.958   2.011   9.947 -0.5183  0.3525 -0.1373
  339MOL0     N46696   7.828   2.002   9.968 -0.5925 -0.0633 -0.1596
  339MOL0     C46697   6.998   1.864  10.740 -0.0760  0.2622  0.5922
  339MOL0     C46698   7.007   1.945  10.850 -0.0530  0.0580  0.5840
  339MOL0     C46699   6.965   2.251  11.157 -0.2960  0.1248 -0.2829
  339MOL0     C46700   7.081   2.329  11.141  0.2316 -0.5825  0.8476
  339MOL0     C46701   7.133   2.415  11.233  0.1204 -0.1474  0.1859
  339MOL0     C46702   7.071   2.425  11.358  0.0305 -0.5456 -0.2222
  339MOL0     O46703   7.129   2.514  11.444 -0.2039 -0.3977  0.4059
  339MOL0     C46704   7.073   2.521  11.576 -0.4442 -0.2561 -0.2077
  339MOL0     C46705   7.133   2.631  11.654 -1.0624 -0.5139  0.7219
  339MOL0     C46706   7.274   2.679  11.623 -0.5515  1.3225  0.0124
  339MOL0     C46707   7.304   2.798  11.702  0.0657  0.2289  0.3776
  339MOL0     C46708   7.283   2.906  11.606  0.4294 -0.2896 -0.6750
  339MOL0     C46709   7.271   2.993  11.525  0.1592 -0.2485 -0.0765
  339MOL0     C46710   6.955   2.341  11.385  0.3605  0.0366 -0.7012
  339MOL0     C46711   6.899   2.252  11.284 -0.6240 -0.9339  0.1528
  339MOL0     C46712   6.778   2.169  11.319 -0.0899 -0.1079 -0.3066
  339MOL0     H46713   6.971   2.245  10.697 -0.8539  0.4903  0.4920
  339MOL0     H46714   6.951   2.096  10.499  0.7878 -1.7071 -0.3720
  339MOL0     H46715   6.913   1.646  10.503  0.4110 -0.9131  0.1710
  339MOL0     H46716   7.068   1.667  10.574 -0.0684  0.4696 -0.6360
  339MOL0     H46717   7.102   1.584  10.353 -0.5299 -0.6414 -0.0845
  339MOL0     H46718   6.997   1.708  10.280  1.4116 -1.2777 -1.1931
  339MOL0     H46719   7.172   1.868  10.362 -2.1079  0.0304  0.2549
  339MOL0     H46720   7.272   1.733  10.409 -1.9320  0.0380  0.7046
  339MOL0     H46721   7.282   1.633  10.195 -2.2166 -1.0880 -0.6683
  339MOL0     H46722   7.185   1.757  10.119  1.9721  0.9131 -1.3308
  339MOL0     H46723   7.452   1.795  10.254  1.9083  1.0107  0.9534
  339MOL0     H46724   7.361   1.931  10.233  0.7174 -0.5565  2.1951
  339MOL0     H46725   7.423   1.767   9.976  2.7912  0.9175 -0.8482
  339MOL0     H46726   7.353   1.926  10.007  1.2749  1.7048 -0.4493
  339MOL0     H46727   7.557   2.004  10.101 -1.3034 -0.5181  0.0738
  339MOL0     H46728   7.569   1.945   9.933  0.1882 -3.1654 -0.8848
  339MOL0     H46729   7.685   1.841  10.193  0.1287  0.2426  0.4650
  339MOL0     H46730   7.651   1.733  10.046  1.0864 -0.6000  1.2743
  339MOL0     H46731   7.929   1.706  10.069  0.7886 -0.0102 -1.1513
  339MOL0     H46732   8.204   1.873   9.873 -1.2250  0.2826  0.2392
  339MOL0     H46733   8.154   1.729   9.967  0.3419 -0.6448  0.2708
  339MOL0     H46734   8.248   1.991  10.081 -2.2199  0.6901  1.7271
  339MOL0     H46735   8.174   1.869  10.179 -0.7562  1.1782 -0.4124
  339MOL0     H46736   8.428   1.827  10.193  0.2544  2.6887 -0.6098
  339MOL0     H46737   8.367   1.699  10.101 -1.8357  0.5466  0.8592
  339MOL0     H46738   8.571   1.791  10.012  0.0419  0.7354  1.3166
  339MOL0     H46739   8.458   1.837   9.896 -1.0240  1.7871 -0.1476
  339MOL0     H46740   8.608   2.226  10.050 -1.0266 -1.0835 -0.7654
  339MOL0     H46741   8.906   2.336  10.091 -0.5126 -0.9501 -0.6688
  339MOL0     H46742   8.757   2.408  10.057 -1.2904 -0.3283  0.4450
  339MOL0     H46743   8.886   2.416   9.936  0.1316  2.0610  1.9016
  339MOL0     H46744   9.300   2.079   9.886  0.4676 -1.2444 -1.4232
  339MOL0     H46745   9.519   2.173   9.855  0.5901  0.6579  0.1823
  339MOL0     H46746   9.715   2.191   9.787 -1.5007 -2.4352 -0.1197
  339MOL0     H46747   9.693   2.097   9.641 -0.2608  0.4089 -0.3820
  339MOL0     H46748   9.861   2.222   9.516 -1.9131 -3.0544  1.1067
  339MOL0     H46749   9.858   2.348   9.649 -4.1344 -0.0595  0.2101
  339MOL0     H46750   9.945   2.058   9.674  0.9063  0.1619 -1.2418
  339MOL0     H46751   9.974   2.200   9.792 -2.6998  1.9048 -0.1733
  339MOL0     H46752  10.125   2.294   9.614 -1.9488  1.4586  1.3134
  339MOL0     H46753  10.107   2.137   9.526  1.7281  1.5059 -0.2260
  339MOL0     H46754  10.211   2.150   9.809 -2.8288 -1.4946  0.4128
  339MOL0     H46755  10.172   2.005   9.717  1.9686 -1.3175 -2.1934
  339MOL0     H46756  10.379   2.206   9.629  2.7407 -0.2632  2.7589
  339MOL0     H46757  10.353   2.050   9.556  2.7263  1.0623 -0.3521
  339MOL0     H46758  10.437   1.916   9.740 -0.5090  0.4985 -0.1795
  339MOL0     H46759  10.433   2.052   9.848  0.5568  0.7450 -0.2449
  339MOL0     H46760  10.598   2.099   9.601 -0.7098 -0.8616  0.1612
  339MOL0     H46761  10.658   1.990   9.738 -1.2885 -3.3682 -1.7739
  339MOL0     H46762   9.407   2.311   9.470  0.4917  0.3522  0.5405
  339MOL0     H46763   9.182   2.243   9.511 -0.4020 -1.4630  0.7444
  339MOL0     H46764   8.902   1.969   9.752  1.9989  1.5653 -0.0946
  339MOL0     H46765   8.679   1.872   9.828 -2.4692 -0.1711  2.8578
  339MOL0     H46766   7.005   1.758  10.758 -2.0512  0.1395  0.8876
  339MOL0     H46767   7.014   1.896  10.946  2.3960 -0.4236  0.2240
  339MOL0     H46768   7.136   2.338  11.048  0.1709 -0.7214  0.7968
  339MOL0     H46769   7.216   2.477  11.200  1.3489 -1.3509  0.8558
  339MOL0     H46770   6.965   2.537  11.585 -1.0875 -3.6351 -0.4702
  339MOL0     H46771   7.094   2.429  11.631  3.3638  0.0242 -0.9711
  339MOL0     H46772   7.129   2.607  11.761 -1.8181 -2.2872  0.3263
  339MOL0     H46773   7.063   2.714  11.638 -1.4634 -1.0084 -0.1029
  339MOL0     H46774   7.347   2.611  11.668 -0.2975  1.1078 -0.7041
  339MOL0     H46775   7.299   2.689  11.517 -2.9669  0.3726 -0.7111
  339MOL0     H46776   7.405   2.791  11.742 -0.5841 -0.4801  1.9710
  339MOL0     H46777   7.233   2.808  11.785 -0.9784  1.1480 -0.5883
  339MOL0     H46778   7.262   3.078  11.461  0.4088  0.6223  1.0167
  339MOL0     H46779   6.913   2.343  11.485  0.9527  3.3876 -0.4012
  339MOL0     H46780   6.738   2.181  11.420 -0.4442 -1.7448 -0.2245
  339MOL0     H46781   6.695   2.178  11.249 -0.5466 -1.8066 -0.0333
  339MOL0     H46782   6.806   2.063  11.316 -2.9390 -0.9007 -1.8183
  340MOL0     O46783   7.508   6.878   7.290 -0.0655  0.7663  1.2578
  340MOL0     C46784   7.392   6.913   7.253 -0.3000  0.4929  0.6440
  340MOL0     O46785   7.366   7.021   7.166 -0.5302  0.0435  0.2630
  340MOL0     C46786   7.451   7.075   7.069  0.3595  0.1452 -0.1486
  340MOL0     C46787   7.407   7.197   7.016  0.2560 -0.3425 -0.5098
  340MOL0     C46788   7.485   7.247   6.908 -0.4264 -0.7633  0.2798
  340MOL0     C46789   7.601   7.182   6.859  1.3906  0.0859  0.4523
  340MOL0     O46790   7.662   7.228   6.742  0.5943  0.8968 -0.5709
  340MOL0     C46791   7.812   7.221   6.741  0.8300  0.3949  0.7393
  340MOL0     C46792   7.871   7.328   6.841 -0.4176 -0.5425  0.3878
  340MOL0     C46793   8.021   7.321   6.864 -0.1653 -0.2992  0.4634
  340MOL0     C46794   8.092   7.402   6.746 -0.6311 -0.4477 -0.2193
  340MOL0     C46795   8.247   7.391   6.755 -0.4505  0.1294 -0.3165
  340MOL0     C46796   8.306   7.445   6.620  0.4636 -0.7032 -0.1746
  340MOL0     C46797   8.456   7.409   6.597 -1.3402 -0.0421 -0.2729
  340MOL0     C46798   8.537   7.532   6.629  0.6838  0.5551  1.0119
  340MOL0     N46799   8.675   7.489   6.635  0.4477  0.5142  0.5511
  340MOL0     C46800   8.763   7.492   6.524 -0.0068  0.8914 -0.4626
  340MOL0     C46801   8.882   7.466   6.585 -0.7706  0.2579  0.9598
  340MOL0     C46802   9.001   7.456   6.497  1.6116 -0.0652 -0.3889
  340MOL0     C46803   9.006   7.583   6.404  0.0934  0.0466  0.3920
  340MOL0     C46804   9.145   7.594   6.324  0.1496  0.7287 -0.3676
  340MOL0     C46805   9.150   7.722   6.240 -0.4449 -1.1649  0.7799
  340MOL0     O46806   9.254   7.743   6.137 -0.0950 -0.8293 -0.0273
  340MOL0     C46807   9.385   7.723   6.165  0.4895  0.1856 -1.3460
  340MOL0     C46808   9.451   7.786   6.277  0.0287 -0.1462  0.5732
  340MOL0     C46809   9.592   7.776   6.286 -1.3824  0.3764 -0.3341
  340MOL0     C46810   9.648   7.860   6.399  0.6350  0.5684  0.0226
  340MOL0     C46811   9.678   7.697   6.199 -0.0360 -0.1370  0.3520
  340MOL0     C46812   9.828   7.690   6.195  0.5612  0.0743 -0.4115
  340MOL0     O46813   9.901   7.742   6.299  1.0917  0.0115  0.1748
  340MOL0     C46814  10.035   7.712   6.311  0.1965  0.1186  0.1693
  340MOL0     C46815  10.088   7.591   6.267  0.2648 -0.1267 -0.4682
  340MOL0     C46816  10.219   7.557   6.277 -0.2326 -0.2907 -0.6928
  340MOL0     C46817  10.308   7.653   6.330 -0.5439  0.0540 -0.1268
  340MOL0     O46818  10.443   7.640   6.363  1.4624 -0.2938  0.2273
  340MOL0     C46819  10.500   7.511   6.371  0.2503  0.6962  0.3472
  340MOL0     C46820  10.639   7.521   6.396  0.3486 -0.0874 -0.1670
  340MOL0     C46821  10.658   7.593   6.532  0.1321 -0.3604  0.2605
  340MOL0     C46822  10.796   7.555   6.588 -0.4649 -0.3243 -0.1208
  340MOL0     C46823  10.835   7.645   6.701 -0.4616  0.0145 -0.5732
  340MOL0     C46824  10.833   7.579   6.842 -0.0600  0.1685  0.7787
  340MOL0     C46825  10.939   7.468   6.858  0.6631  0.3320  0.9847
  340MOL0     C46826  10.940   7.406   6.992  0.3064  0.0699 -0.4943
  340MOL0    Cl46827  11.020   7.513   7.092 -0.4464 -0.2794 -0.2565
  340MOL0     C46828  10.261   7.771   6.373  0.4158 -0.3987  0.7153
  340MOL0     C46829  10.122   7.801   6.360  0.7637  0.3978  0.0662
  340MOL0     O46830   9.877   7.671   6.081  0.3450  0.5359  0.4033
  340MOL0     C46831   9.604   7.647   6.093 -0.8406 -0.4405 -0.3015
  340MOL0     C46832   9.464   7.659   6.069 -0.0483  0.5620 -0.4437
  340MOL0     N46833   8.870   7.459   6.719 -0.0401  0.2333  0.6880
  340MOL0     N46834   8.745   7.458   6.749  0.4295 -0.6175 -0.2909
  340MOL0     C46835   7.643   7.069   6.929  0.4233 -0.4349  0.2368
  340MOL0     C46836   7.563   7.012   7.024 -0.0335  0.1262 -0.6722
  340MOL0     C46837   7.275   6.846   7.311 -0.7965 -0.2293  1.2823
  340MOL0     C46838   7.172   6.925   7.354  0.4449 -0.3899 -0.1588
  340MOL0     C46839   7.066   6.865   7.415 -0.5106  0.3283  0.0116
  340MOL0     C46840   7.060   6.730   7.446  0.0887  0.1342 -1.0008
  340MOL0     O46841   6.942   6.691   7.508 -0.2500 -0.5929  0.5176
  340MOL0     C46842   6.915   6.556   7.528  0.0865  0.9664  0.6327
  340MOL0     C46843   6.856   6.508   7.389 -0.4658 -0.1558 -0.2324
  340MOL0     C46844   6.782   6.370   7.360 -0.2600 -0.2885  0.1776
  340MOL0     C46845   6.855   6.247   7.410  0.4184  0.1215  0.2599
  340MOL0     C46846   6.992   6.231   7.350 -0.2251  0.9365  0.3617
  340MOL0     C46847   7.103   6.210   7.312 -0.8175 -0.7910 -0.2207
  340MOL0     C46848   7.158   6.647   7.399  0.3600 -0.4060 -0.4642
  340MOL0     C46849   7.264   6.701   7.325 -0.4417  0.0712  0.1742
  340MOL0     C46850   7.374   6.610   7.285  0.2127 -0.5449  0.3598
  340MOL0     H46851   7.326   7.255   7.057 -0.4944 -1.5026 -0.2818
  340MOL0     H46852   7.455   7.338   6.857  0.7358  0.5646  1.8244
  340MOL0     H46853   7.856   7.240   6.642 -0.6032  1.6927  0.3309
  340MOL0     H46854   7.854   7.124   6.769  1.4594  0.4104 -0.0771
  340MOL0     H46855   7.836   7.429   6.818 -0.6281 -0.2259  1.9761
  340MOL0     H46856   7.818   7.296   6.932 -2.7255  0.6543 -0.4692
  340MOL0     H46857   8.052   7.370   6.957  0.3748 -1.6481  1.0155
  340MOL0     H46858   8.057   7.218   6.865  1.3781  0.1996  2.0256
  340MOL0     H46859   8.063   7.369   6.646 -0.4452  1.0058 -0.7812
  340MOL0     H46860   8.068   7.508   6.761 -1.2959 -0.8465  1.7469
  340MOL0     H46861   8.287   7.289   6.766  2.3011  0.9025 -1.9628
  340MOL0     H46862   8.285   7.454   6.835  3.4042 -2.7056  0.3470
  340MOL0     H46863   8.242   7.412   6.539 -1.7146  1.8617  0.3572
  340MOL0     H46864   8.298   7.554   6.628  0.1596 -0.7497  0.1534
  340MOL0     H46865   8.474   7.384   6.492  1.8821  2.9141 -0.6000
  340MOL0     H46866   8.495   7.324   6.653 -1.1009  0.3382  0.1483
  340MOL0     H46867   8.518   7.602   6.546 -1.6026 -2.4421 -1.2513
  340MOL0     H46868   8.507   7.564   6.729  0.0546 -1.9499  1.6933
  340MOL0     H46869   8.735   7.493   6.419 -3.7258  1.5947  0.3922
  340MOL0     H46870   9.004   7.359   6.447 -0.2836 -1.2844  1.6800
  340MOL0     H46871   9.096   7.451   6.551  1.7859  0.0900 -0.6755
  340MOL0     H46872   8.920   7.579   6.336  2.8303 -0.1393 -3.3589
  340MOL0     H46873   8.994   7.667   6.473  1.4294  1.4638 -1.0298
  340MOL0     H46874   9.231   7.581   6.389  0.7706  0.9468 -1.1317
  340MOL0     H46875   9.154   7.517   6.247  0.5465 -1.1024  1.4522
  340MOL0     H46876   9.054   7.710   6.188 -1.4576  1.0294  1.9968
  340MOL0     H46877   9.152   7.810   6.305 -1.3230  0.1992 -0.9802
  340MOL0     H46878   9.392   7.849   6.343 -1.9138  1.8291 -2.7245
  340MOL0     H46879   9.628   7.813   6.496  0.6396  0.1358 -0.1823
  340MOL0     H46880   9.608   7.962   6.397  2.4181  1.3157  0.6782
  340MOL0     H46881   9.756   7.871   6.391  0.7026 -0.5167 -0.8895
  340MOL0     H46882  10.025   7.516   6.219  0.4413  0.7530 -2.1766
  340MOL0     H46883  10.239   7.453   6.251 -0.9048 -0.8009  0.7641
  340MOL0     H46884  10.453   7.448   6.447  0.6455  1.6147  1.3988
  340MOL0     H46885  10.491   7.465   6.272  3.4786  2.0528 -0.7110
  340MOL0     H46886  10.679   7.419   6.401  2.5648  0.7620  0.7667
  340MOL0     H46887  10.697   7.572   6.318 -0.0625  1.1860  0.3458
  340MOL0     H46888  10.582   7.577   6.610 -0.3233 -0.4361 -0.1975
  340MOL0     H46889  10.649   7.701   6.517 -1.4215 -0.7754 -2.3538
  340MOL0     H46890  10.855   7.586   6.501 -1.0677 -0.2892 -0.5226
  340MOL0     H46891  10.802   7.448   6.613  1.0170 -0.4666 -0.9721
  340MOL0     H46892  10.939   7.673   6.681  0.1105 -1.6605 -0.0793
  340MOL0     H46893  10.783   7.741   6.696  1.5424  1.1665 -0.4960
  340MOL0     H46894  10.737   7.539   6.875  2.1660 -3.9976  3.0316
  340MOL0     H46895  10.851   7.651   6.922 -0.3932 -0.7107  1.6614
  340MOL0     H46896  11.036   7.502   6.819 -0.1372 -0.3970 -1.8983
  340MOL0     H46897  10.912   7.386   6.791  0.4091  2.4661 -1.7193
  340MOL0     H46898  10.989   7.309   6.987  2.2655  0.7052  3.0303
  340MOL0     H46899  10.837   7.396   7.028 -0.0802  1.3344 -1.1600
  340MOL0     H46900  10.320   7.857   6.403  1.1896 -0.8716  0.5760
  340MOL0     H46901  10.095   7.899   6.399  1.6986  0.0710  1.6591
  340MOL0     H46902   9.650   7.586   6.016  1.5701  0.9845 -0.0928
  340MOL0     H46903   9.418   7.623   5.977 -0.0050 -0.2014 -0.1747
  340MOL0     H46904   7.732   7.017   6.895 -0.0508 -0.3654 -1.1650
  340MOL0     H46905   7.593   6.918   7.068 -0.1910  0.5371  0.3415
  340MOL0     H46906   7.176   7.032   7.337  0.2932 -0.3765 -0.1107
  340MOL0     H46907   6.985   6.933   7.439  0.0694  1.2973 -0.6830
  340MOL0     H46908   7.005   6.500   7.555  0.7348  2.4416  1.7079
  340MOL0     H46909   6.838   6.532   7.601 -0.9691  0.6469 -0.5569
  340MOL0     H46910   6.943   6.511   7.323  1.4238  1.2193  2.1448
  340MOL0     H46911   6.795   6.591   7.351 -0.9147  0.2302  1.2861
  340MOL0     H46912   6.685   6.372   7.411  0.7274  0.4865  2.0872
  340MOL0     H46913   6.767   6.351   7.253 -0.0882 -0.1350  0.1263
  340MOL0     H46914   6.798   6.155   7.394  1.7350 -0.7101  0.2106
  340MOL0     H46915   6.856   6.273   7.516 -1.0188 -1.8853  0.8163
  340MOL0     H46916   7.205   6.191   7.284  0.1548  0.5173  2.1187
  340MOL0     H46917   7.161   6.540   7.417  2.2743 -0.3705 -0.3398
  340MOL0     H46918   7.458   6.637   7.350 -0.2815  2.8059 -0.2052
  340MOL0     H46919   7.348   6.505   7.297 -0.1605 -0.2119  2.9620
  340MOL0     H46920   7.391   6.635   7.180  1.3825 -1.5402  0.2915
  341MOL0     O46921   7.638   4.618  10.392  0.2833  0.1539  0.0670
  341MOL0     C46922   7.632   4.707  10.304  0.4257  0.6137 -0.2578
  341MOL0     O46923   7.732   4.765  10.244  0.1700 -0.1556 -0.5175
  341MOL0     C46924   7.861   4.735  10.272  1.7762  0.1400 -0.2263
  341MOL0     C46925   7.908   4.753  10.397 -0.2257 -0.5620 -0.4443
  341MOL0     C46926   8.043   4.730  10.442  0.6526  0.2473  0.2839
  341MOL0     C46927   8.133   4.678  10.346 -1.0284 -0.3957  0.4626
  341MOL0     O46928   8.265   4.646  10.379  0.0924  0.0647 -0.5292
  341MOL0     C46929   8.292   4.573  10.498  0.2810 -0.0440 -0.3518
  341MOL0     C46930   8.431   4.520  10.495  0.0061  0.6543  0.1237
  341MOL0     C46931   8.541   4.620  10.490 -0.3679 -0.2639  0.0104
  341MOL0     C46932   8.682   4.553  10.506  0.5999 -0.2528  0.0103
  341MOL0     C46933   8.793   4.655  10.465  0.1080 -0.5630 -0.5016
  341MOL0     C46934   8.924   4.578  10.475  0.5924  0.2479  0.8874
  341MOL0     C46935   9.036   4.666  10.420  0.6568  0.2553 -0.1213
  341MOL0     C46936   9.058   4.800  10.495 -0.6073  0.6041 -0.6269
  341MOL0     N46937   9.094   4.768  10.632  0.7056 -0.4921 -0.2400
  341MOL0     C46938   9.220   4.771  10.693  0.2688 -0.8857  0.3984
  341MOL0     C46939   9.194   4.785  10.826 -0.1540 -0.0151 -0.4054
  341MOL0     C46940   9.299   4.796  10.934  0.1271  0.0647 -0.1294
  341MOL0     C46941   9.255   4.714  11.058  0.1423 -1.3576  0.0665
  341MOL0     C46942   9.254   4.562  11.054  0.6173 -0.8339 -0.8298
  341MOL0     C46943   9.375   4.509  10.979  0.2053  0.1016  0.3784
  341MOL0     O46944   9.488   4.537  11.059  0.0945 -0.2374  0.3664
  341MOL0     C46945   9.609   4.517  11.000 -0.1151 -0.0239 -0.2417
  341MOL0     C46946   9.647   4.455  10.878  0.7135  0.1850 -0.2543
  341MOL0     C46947   9.783   4.436  10.847 -0.3540  0.3087 -0.1520
  341MOL0     C46948   9.815   4.357  10.722 -0.5775 -1.1772 -0.2008
  341MOL0     C46949   9.883   4.482  10.940 -0.2508  0.3811 -0.2341
  341MOL0     C46950  10.025   4.480  10.904 -0.3196  0.3632 -0.0459
  341MOL0     O46951  10.111   4.463  11.006 -0.3233  0.5420  0.2058
  341MOL0     C46952  10.247   4.458  10.985 -0.4638  0.4788 -0.6208
  341MOL0     C46953  10.321   4.557  11.054 -0.0658 -0.2195 -0.6795
  341MOL0     C46954  10.463   4.554  11.047  0.4910 -0.5453  0.0446
  341MOL0     C46955  10.531   4.464  10.964  0.5143 -0.1936 -0.2053
  341MOL0     O46956  10.666   4.474  10.960 -0.4558  0.1766 -0.0964
  341MOL0     C46957  10.731   4.375  11.038 -0.1649  0.1245 -0.2429
  341MOL0     C46958  10.877   4.363  10.996 -0.1769  0.4361  0.4228
  341MOL0     C46959  10.881   4.301  10.856 -0.0572 -1.0738 -0.3225
  341MOL0     C46960  11.019   4.277  10.804  0.2561 -0.9471  0.5909
  341MOL0     C46961  11.007   4.175  10.691 -0.7115 -0.8353 -0.4977
  341MOL0     C46962  11.154   4.153  10.636  0.5220 -0.1098 -0.7967
  341MOL0     C46963  11.152   4.076  10.514  0.6153 -0.5219  0.0874
  341MOL0     C46964  11.281   4.068  10.439  0.5226 -0.5356  0.1742
  341MOL0    Cl46965  11.266   3.992  10.281  0.4633 -0.3079 -0.1323
  341MOL0     C46966  10.457   4.366  10.897  0.1836  0.3281 -0.7045
  341MOL0     C46967  10.320   4.360  10.917 -0.3487 -0.3534 -0.0076
  341MOL0     O46968  10.057   4.499  10.789  0.2901 -0.5339  0.0533
  341MOL0     C46969   9.843   4.540  11.057 -0.5815 -0.4618 -0.7801
  341MOL0     C46970   9.708   4.553  11.093  0.0106 -0.4651 -0.3762
  341MOL0     N46971   9.057   4.778  10.845  0.3812  0.6848  0.0389
  341MOL0     N46972   9.002   4.767  10.734  0.6187 -0.0955  0.0332
  341MOL0     C46973   8.093   4.682  10.215  0.6832 -1.0154  0.3407
  341MOL0     C46974   7.956   4.706  10.173  0.2204 -0.4889  0.2678
  341MOL0     C46975   7.495   4.742  10.259  0.2699  0.3136  0.1469
  341MOL0     C46976   7.387   4.673  10.315  0.8192  0.2087  0.0156
  341MOL0     C46977   7.255   4.699  10.283 -0.2104 -0.9249 -0.9518
  341MOL0     C46978   7.214   4.800  10.204  1.0473  0.3584  0.5035
  341MOL0     O46979   7.085   4.812  10.163  0.1374 -1.2293  0.4967
  341MOL0     C46980   7.035   4.697  10.098  0.5968 -0.0389 -0.5819
  341MOL0     C46981   6.883   4.709  10.072  0.0916  0.5902 -0.0864
  341MOL0     C46982   6.857   4.833   9.975 -0.1025 -0.4589 -0.3860
  341MOL0     C46983   6.744   4.803   9.876  0.9670  0.0593 -0.5667
  341MOL0     C46984   6.611   4.808   9.943  0.0804  1.2102 -0.4918
  341MOL0     C46985   6.509   4.798  10.015 -0.0035  0.4425 -0.5561
  341MOL0     C46986   7.312   4.886  10.144  0.1512  0.5842 -0.2195
  341MOL0     C46987   7.450   4.854  10.174 -0.8379 -0.0076 -0.8444
  341MOL0     C46988   7.549   4.955  10.125 -0.2371 -0.4183 -0.9232
  341MOL0     H46989   7.847   4.800  10.474 -0.1415 -0.2671 -0.5550
  341MOL0     H46990   8.068   4.737  10.547  1.5590  0.6485  0.0540
  341MOL0     H46991   8.218   4.493  10.503 -0.9335  1.1252  1.2910
  341MOL0     H46992   8.281   4.635  10.588 -0.5452 -0.0672 -0.4336
  341MOL0     H46993   8.439   4.456  10.584  0.3958 -1.4081 -1.3269
  341MOL0     H46994   8.447   4.470  10.399  2.7510  2.6723 -0.5729
  341MOL0     H46995   8.529   4.663  10.390 -1.5477 -0.2165  0.1627
  341MOL0     H46996   8.536   4.704  10.561  0.8815 -0.7252  0.6676
  341MOL0     H46997   8.695   4.525  10.611  0.9926 -0.3348 -0.0594
  341MOL0     H46998   8.697   4.471  10.436 -0.2663 -0.5023  0.0943
  341MOL0     H46999   8.786   4.747  10.524  0.9157 -0.7982 -0.0300
  341MOL0     H47000   8.788   4.680  10.358  1.9184 -1.0966 -0.7585
  341MOL0     H47001   8.947   4.539  10.574 -0.4257  0.8964  1.3887
  341MOL0     H47002   8.915   4.493  10.406 -0.7025  2.2747 -1.5838
  341MOL0     H47003   9.017   4.681  10.313  0.2884 -2.2617 -0.4664
  341MOL0     H47004   9.129   4.608  10.422 -0.4601 -1.5889 -0.0085
  341MOL0     H47005   9.129   4.866  10.446 -0.6279 -0.3104 -1.9378
  341MOL0     H47006   8.966   4.858  10.508 -0.3510  0.4524  2.7671
  341MOL0     H47007   9.316   4.770  10.643  0.7935 -2.3488  1.3812
  341MOL0     H47008   9.304   4.903  10.959  2.6928 -0.1735  0.7133
  341MOL0     H47009   9.398   4.766  10.900  1.0267  0.9725  1.5622
  341MOL0     H47010   9.307   4.749  11.148 -0.4780  0.3675 -0.1993
  341MOL0     H47011   9.151   4.740  11.083  1.1760 -1.4929  5.9120
  341MOL0     H47012   9.246   4.510  11.150  1.7364 -1.5547 -1.0974
  341MOL0     H47013   9.168   4.531  10.995  0.6850  1.8935 -2.5518
  341MOL0     H47014   9.370   4.400  10.971  4.4363 -0.2032 -0.3580
  341MOL0     H47015   9.385   4.561  10.883  0.4906  2.9537  1.8460
  341MOL0     H47016   9.569   4.406  10.820  0.1632  1.1246 -0.3238
  341MOL0     H47017   9.879   4.413  10.653 -0.2590  0.2486  1.2179
  341MOL0     H47018   9.733   4.336  10.652 -0.0900 -1.6172 -0.6530
  341MOL0     H47019   9.854   4.260  10.754 -0.4233 -0.2713  2.5612
  341MOL0     H47020  10.265   4.620  11.122 -1.0899 -1.9224  0.1325
  341MOL0     H47021  10.517   4.608  11.124 -1.4199 -0.5374  1.4574
  341MOL0     H47022  10.723   4.406  11.143  0.5763 -0.6218  0.0540
  341MOL0     H47023  10.685   4.276  11.027  0.2579 -0.1767  0.5709
  341MOL0     H47024  10.911   4.467  10.999 -1.2747  0.7823  1.4493
  341MOL0     H47025  10.934   4.303  11.067  0.3142 -0.0375 -0.3436
  341MOL0     H47026  10.824   4.377  10.803 -2.6886 -2.7188 -0.0140
  341MOL0     H47027  10.821   4.210  10.855 -1.7462  0.0037 -0.1129
  341MOL0     H47028  11.085   4.242  10.884  0.9305 -2.6877 -0.6811
  341MOL0     H47029  11.056   4.372  10.765  0.1640  0.4890  3.6693
  341MOL0     H47030  10.965   4.085  10.737  1.4213  0.1632  3.9335
  341MOL0     H47031  10.948   4.213  10.607  1.0344  3.7998  0.0782
  341MOL0     H47032  11.210   4.105  10.717 -2.1006 -0.9653  0.6112
  341MOL0     H47033  11.199   4.247  10.603 -0.9367 -0.0508 -2.8324
  341MOL0     H47034  11.088   4.127  10.442 -0.7855 -0.3903  1.3933
  341MOL0     H47035  11.115   3.974  10.530 -0.1017 -0.3670 -0.5197
  341MOL0     H47036  11.356   4.009  10.493  1.5241 -0.6071 -1.2445
  341MOL0     H47037  11.314   4.171  10.421 -2.8850  0.9094  1.2924
  341MOL0     H47038  10.507   4.290  10.838  2.3794  0.7652  0.4852
  341MOL0     H47039  10.252   4.292  10.867 -0.6884 -1.3012  1.6320
  341MOL0     H47040   9.915   4.575  11.131 -1.5595 -3.5546  1.9175
  341MOL0     H47041   9.690   4.595  11.191  1.8382 -3.0218  1.1734
  341MOL0     H47042   8.171   4.658  10.143  1.8098 -0.5794  1.3804
  341MOL0     H47043   7.923   4.682  10.072  0.6698 -1.7468  0.3964
  341MOL0     H47044   7.409   4.601  10.393  0.8228  0.7985  0.5657
  341MOL0     H47045   7.182   4.648  10.344  0.7591 -3.0330 -1.4722
  341MOL0     H47046   7.084   4.677  10.003 -3.1217 -1.4928 -2.3746
  341MOL0     H47047   7.044   4.617  10.172 -2.9867 -0.1723 -0.1093
  341MOL0     H47048   6.832   4.718  10.168 -3.4159  4.6714 -2.0292
  341MOL0     H47049   6.856   4.616  10.020 -1.0152  0.9570 -0.2056
  341MOL0     H47050   6.828   4.923  10.030  2.5014  1.5114 -2.0420
  341MOL0     H47051   6.945   4.851   9.914 -0.0834 -2.5458 -1.0632
  341MOL0     H47052   6.750   4.701   9.836  1.1198  0.4106 -1.4554
  341MOL0     H47053   6.761   4.880   9.801  2.0965 -0.4860 -0.9023
  341MOL0     H47054   6.420   4.794  10.075  1.0953 -1.3858  1.0799
  341MOL0     H47055   7.277   4.964  10.077 -0.5755  0.9308  0.5365
  341MOL0     H47056   7.619   4.990  10.201  1.1067 -0.0486 -2.2743
  341MOL0     H47057   7.612   4.902  10.053  2.6993 -1.6744  2.2929
  341MOL0     H47058   7.509   5.049  10.084  1.8655  1.7884  1.6907
  342MOL0     O47059   9.689  10.435   0.224 -0.5270  0.0776 -0.4447
  342MOL0     C47060   9.600  10.374   0.267  0.4909  0.9643  0.4628
  342MOL0     O47061   9.605  10.291   0.375 -0.0191 -0.4916 -0.5616
  342MOL0     C47062   9.716  10.304   0.454 -0.0736  0.5361 -0.9910
  342MOL0     C47063   9.726  10.410   0.549 -0.0352  0.2208 -0.0928
  342MOL0     C47064   9.843  10.405   0.630  1.0066 -0.5890  0.5921
  342MOL0     C47065   9.941  10.308   0.621  0.1647 -0.1302 -0.7468
  342MOL0     O47066  10.036  10.330   0.715 -0.5387 -0.1034  1.2563
  342MOL0     C47067  10.141  10.419   0.667  0.3699 -0.3487 -0.8118
  342MOL0     C47068  10.226  10.436   0.790 -0.7187 -0.2913 -1.3425
  342MOL0     C47069  10.351  10.513   0.750  0.6539  0.1550  0.8555
  342MOL0     C47070  10.438  10.544   0.874 -0.1566  0.6881 -0.4681
  342MOL0     C47071  10.540  10.662   0.857  0.0934  0.9713  0.5440
  342MOL0     C47072  10.629  10.680   0.979 -0.8032 -0.2191 -0.5096
  342MOL0     C47073  10.733  10.788   0.964 -0.4433 -0.7583 -0.0152
  342MOL0     C47074  10.836  10.803   1.081 -0.6386  0.5379  0.4648
  342MOL0     N47075  10.961  10.716   1.065 -0.5050 -0.4118 -0.2595
  342MOL0     C47076  11.040  10.709   0.955  0.6258  0.8764  0.0702
  342MOL0     C47077  11.117  10.602   0.966  0.0402  0.9182  0.1892
  342MOL0     C47078  11.212  10.538   0.868  1.5140 -0.8892 -0.8107
  342MOL0     C47079  11.361  10.573   0.892  0.7447  0.5818  0.1690
  342MOL0     C47080  11.409  10.583   1.035  0.4734  0.5848  0.1230
  342MOL0     C47081  11.559  10.618   1.054 -0.2879  0.1673  0.1976
  342MOL0     O47082  11.633  10.554   0.944  0.1101 -0.0237  0.2238
  342MOL0     C47083  11.768  10.568   0.935 -0.0185  0.4899 -0.2465
  342MOL0     C47084  11.827  10.475   0.849 -0.2790 -0.3460 -0.8314
  342MOL0     C47085  11.965  10.474   0.832 -0.5803 -0.4246  0.1019
  342MOL0     C47086  12.018  10.362   0.741 -0.2506 -0.0701  0.3799
  342MOL0     C47087  12.049  10.572   0.894  0.3653  0.8645 -0.0599
  342MOL0     C47088  12.200  10.569   0.895  0.1274  0.1031 -0.7384
  342MOL0     O47089  12.256  10.614   1.008  0.4368  0.9199 -0.6910
  342MOL0     C47090  12.386  10.611   1.039  0.4520  0.6395  0.2000
  342MOL0     C47091  12.465  10.501   1.001  0.3459  0.0753 -0.0348
  342MOL0     C47092  12.600  10.484   1.040  0.7830 -0.0828  0.0532
  342MOL0     C47093  12.662  10.583   1.109 -0.2800 -0.5129  0.6874
  342MOL0     O47094  12.801  10.583   1.119 -0.2393  0.0791  0.0720
  342MOL0     C47095  12.875  10.625   1.006  0.5202  0.5313  0.0986
  342MOL0     C47096  12.956  10.513   0.937  0.0660 -0.7419  0.6749
  342MOL0     C47097  13.061  10.453   1.036  0.8894  0.2989  0.0550
  342MOL0     C47098  13.206  10.440   0.982 -0.3775  0.5932 -0.6028
  342MOL0     C47099  13.212  10.342   0.860  0.2493 -0.0324 -0.4565
  342MOL0     C47100  13.348  10.362   0.794 -0.5117 -0.5145 -0.1331
  342MOL0     C47101  13.467  10.307   0.866  0.9469  0.0873 -0.4079
  342MOL0     C47102  13.570  10.247   0.764 -0.2580 -0.7401 -0.4893
  342MOL0    Cl47103  13.628  10.397   0.681 -0.0198 -0.0081 -0.1455
  342MOL0     C47104  12.583  10.699   1.154 -0.1840 -0.3580 -0.6847
  342MOL0     C47105  12.449  10.703   1.118  0.5842  0.0227 -0.1232
  342MOL0     O47106  12.261  10.507   0.808  0.2044  0.5231 -0.3591
  342MOL0     C47107  11.980  10.668   0.960  0.4204  0.2953 -0.6974
  342MOL0     C47108  11.840  10.674   0.986  0.7357  0.4308  0.0453
  342MOL0     N47109  11.087  10.554   1.094 -0.4129 -0.8961 -0.0267
  342MOL0     N47110  11.003  10.623   1.159  0.2360 -0.0077  0.0377
  342MOL0     C47111   9.932  10.210   0.518 -0.4250 -0.0033 -1.0664
  342MOL0     C47112   9.819  10.208   0.439  1.2918  0.7844 -0.3359
  342MOL0     C47113   9.491  10.368   0.171 -0.0348  0.4569 -0.3436
  342MOL0     C47114   9.434  10.239   0.147 -0.8111  0.2077 -0.2152
  342MOL0     C47115   9.332  10.215   0.054 -0.9001  0.8217 -0.2644
  342MOL0     C47116   9.285  10.323  -0.023  0.4434  0.6841  0.1279
  342MOL0     O47117   9.182  10.287  -0.111 -0.0006 -0.6893  0.1039
  342MOL0     C47118   9.111  10.392  -0.172  0.4393 -1.1084  0.4675
  342MOL0     C47119   9.000  10.355  -0.273  0.2128 -0.2173  0.0262
  342MOL0     C47120   8.880  10.290  -0.198 -0.1234  0.9599  0.7294
  342MOL0     C47121   8.792  10.200  -0.279  0.3436 -0.2939  0.3960
  342MOL0     C47122   8.743  10.278  -0.397 -0.3671 -0.3250  0.5004
  342MOL0     C47123   8.725  10.355  -0.489 -0.7851 -0.0314  0.4598
  342MOL0     C47124   9.332  10.452   0.004 -0.1075  0.0028 -0.0957
  342MOL0     C47125   9.431  10.475   0.104  0.6332 -0.3078 -0.3467
  342MOL0     C47126   9.478  10.617   0.127  0.2501  0.2648  0.7102
  342MOL0     H47127   9.646  10.484   0.557 -0.9022 -0.6172 -0.7189
  342MOL0     H47128   9.852  10.487   0.702  0.4306 -0.3729  0.4237
  342MOL0     H47129  10.096  10.516   0.645  1.3793  0.2308 -0.3791
  342MOL0     H47130  10.184  10.377   0.576 -0.1872  1.0799 -1.7696
  342MOL0     H47131  10.166  10.479   0.871 -1.2544 -2.0782 -0.7371
  342MOL0     H47132  10.258  10.341   0.834 -0.9308  1.5353  3.3473
  342MOL0     H47133  10.409  10.461   0.673 -1.5931  0.1477 -0.9283
  342MOL0     H47134  10.315  10.610   0.714  2.4172  0.5489  0.0449
  342MOL0     H47135  10.375  10.572   0.959  0.4288 -0.8290  0.4983
  342MOL0     H47136  10.492  10.454   0.906 -0.3796  0.7100 -0.0180
  342MOL0     H47137  10.495  10.760   0.838  3.0365  2.2230 -0.5459
  342MOL0     H47138  10.605  10.648   0.771 -2.3227 -0.1202 -1.2139
  342MOL0     H47139  10.561  10.719   1.055 -2.6746 -0.1336 -2.1465
  342MOL0     H47140  10.674  10.589   1.019 -0.5697  0.5131  0.9639
  342MOL0     H47141  10.689  10.888   0.953  1.7990  0.3968  0.6882
  342MOL0     H47142  10.788  10.769   0.871 -1.0320 -2.2385 -0.0819
  342MOL0     H47143  10.865  10.909   1.074 -0.4975  0.4358 -0.7154
  342MOL0     H47144  10.789  10.789   1.178 -0.4971 -4.2769  0.0508
  342MOL0     H47145  11.031  10.763   0.861 -3.5413  1.6449  0.7123
  342MOL0     H47146  11.200  10.586   0.770  4.7429  1.4108 -0.2602
  342MOL0     H47147  11.195  10.431   0.877 -3.2591 -0.1335  3.0688
  342MOL0     H47148  11.411  10.492   0.839 -0.2081 -0.4356  0.7742
  342MOL0     H47149  11.396  10.657   0.831  0.1076  0.2946 -0.6136
  342MOL0     H47150  11.340  10.654   1.083  0.5885 -0.8321  2.5730
  342MOL0     H47151  11.396  10.486   1.084  1.0592 -0.9329 -2.5579
  342MOL0     H47152  11.576  10.727   1.057 -1.9301  0.5010 -1.4406
  342MOL0     H47153  11.587  10.583   1.154 -1.8930  2.0456  1.3908
  342MOL0     H47154  11.767  10.394   0.809 -0.2277 -0.5899 -0.4233
  342MOL0     H47155  11.944  10.303   0.687  0.5913  0.4500 -1.4039
  342MOL0     H47156  12.101  10.310   0.789 -0.2391  2.7204  3.7788
  342MOL0     H47157  12.066  10.419   0.660 -0.5876  0.4194  0.5205
  342MOL0     H47158  12.431  10.412   0.949 -2.4723 -0.8091  2.9980
  342MOL0     H47159  12.654  10.396   1.006  1.1546 -0.3167  1.2189
  342MOL0     H47160  12.807  10.672   0.934 -0.7121  0.7033  1.3340
  342MOL0     H47161  12.945  10.702   1.039 -1.4697  1.9522  1.1891
  342MOL0     H47162  12.895  10.434   0.891 -0.1010 -1.0482  1.4054
  342MOL0     H47163  13.004  10.560   0.850 -1.1383 -0.9611 -0.1431
  342MOL0     H47164  13.019  10.362   1.080  0.2636  1.2294  1.4126
  342MOL0     H47165  13.068  10.527   1.116 -0.5003 -2.0316  2.4854
  342MOL0     H47166  13.270  10.402   1.062  0.8013 -0.1652 -1.8845
  342MOL0     H47167  13.241  10.542   0.961 -0.4341  1.2181  1.9852
  342MOL0     H47168  13.191  10.239   0.890 -0.9944 -0.5982 -3.0302
  342MOL0     H47169  13.137  10.371   0.786 -0.8190  0.2496  0.7059
  342MOL0     H47170  13.369  10.468   0.774  1.3001 -0.0467  3.4201
  342MOL0     H47171  13.335  10.319   0.694  1.1729  0.3130 -0.7343
  342MOL0     H47172  13.435  10.219   0.923 -0.4478  0.4293 -0.6279
  342MOL0     H47173  13.522  10.387   0.918 -0.2129  0.7276 -0.1308
  342MOL0     H47174  13.539  10.177   0.685  1.6767  1.8609 -3.8282
  342MOL0     H47175  13.657  10.202   0.812  0.5600  2.6292  1.5486
  342MOL0     H47176  12.630  10.779   1.211  1.3174 -0.6586 -1.4632
  342MOL0     H47177  12.401  10.790   1.162  1.4423  0.1775  0.5238
  342MOL0     H47178  12.040  10.742   1.013 -0.1722  2.4938 -2.8885
  342MOL0     H47179  11.799  10.753   1.048 -1.0508 -0.8092  0.5191
  342MOL0     H47180  10.007  10.134   0.497  0.1448 -0.2279  1.4205
  342MOL0     H47181   9.805  10.121   0.374 -0.5680 -1.0903  2.3575
  342MOL0     H47182   9.476  10.152   0.196 -2.3688 -0.1321  0.5718
  342MOL0     H47183   9.290  10.118   0.033  0.5860  0.0245  0.2921
  342MOL0     H47184   9.066  10.456  -0.095  0.9831 -0.6296  0.3963
  342MOL0     H47185   9.186  10.448  -0.229 -0.4089  1.6432  1.8670
  342MOL0     H47186   9.040  10.295  -0.355 -1.1892 -0.0534 -0.8236
  342MOL0     H47187   8.966  10.450  -0.317 -1.1980 -2.4007 -4.1351
  342MOL0     H47188   8.920  10.213  -0.131 -0.4644 -0.5540 -0.7248
  342MOL0     H47189   8.821  10.361  -0.141 -0.9573  2.1992 -1.5484
  342MOL0     H47190   8.711  10.161  -0.216  2.2035 -2.0010  1.8763
  342MOL0     H47191   8.849  10.119  -0.324  0.1269 -0.3069  0.1474
  342MOL0     H47192   8.710  10.413  -0.578  0.2663  2.5924  1.8887
  342MOL0     H47193   9.300  10.547  -0.038  2.3830  1.4206  0.9570
  342MOL0     H47194   9.579  10.626   0.088 -0.1036  1.5229  0.0066
  342MOL0     H47195   9.408  10.682   0.072  2.4251  1.3240 -0.9532
  342MOL0     H47196   9.481  10.656   0.229  5.3353 -0.9231  1.2542
  343MOL0     O47197   9.569   4.685   1.524 -0.7303  1.0725  0.0459
  343MOL0     C47198   9.533   4.568   1.526  0.2819 -0.2709  0.3339
  343MOL0     O47199   9.608   4.464   1.487 -0.0783  0.0818  0.5587
  343MOL0     C47200   9.746   4.471   1.463  0.5824 -0.4277  0.1867
  343MOL0     C47201   9.837   4.379   1.530  0.3846 -0.7973  0.5775
  343MOL0     C47202   9.975   4.392   1.506 -0.2761  0.0384  0.6909
  343MOL0     C47203  10.031   4.498   1.433  0.7944  0.1033 -0.8517
  343MOL0     O47204  10.166   4.497   1.441 -0.0418  0.9043 -0.7170
  343MOL0     C47205  10.245   4.594   1.370 -0.8526 -0.0128 -0.0410
  343MOL0     C47206  10.391   4.550   1.345  0.9633  0.0284 -0.2532
  343MOL0     C47207  10.487   4.667   1.309  1.0720 -0.0316 -0.2932
  343MOL0     C47208  10.627   4.613   1.290  0.0922 -0.3379 -0.0348
  343MOL0     C47209  10.740   4.669   1.375 -0.1309 -0.4846 -0.3398
  343MOL0     C47210  10.870   4.611   1.320  0.8569  0.8352 -0.3062
  343MOL0     C47211  10.972   4.665   1.424  0.5374 -0.1409  0.3415
  343MOL0     C47212  11.007   4.807   1.403  0.8244 -0.8542 -0.6508
  343MOL0     N47213  11.110   4.854   1.502 -0.5008  1.3374 -0.7452
  343MOL0     C47214  11.252   4.878   1.480  1.1635 -0.6854  0.8106
  343MOL0     C47215  11.310   4.906   1.597  0.3688  0.0752  0.4945
  343MOL0     C47216  11.456   4.914   1.626 -1.8119 -0.2756  0.5759
  343MOL0     C47217  11.491   5.006   1.739  1.0689  0.0068  0.2651
  343MOL0     C47218  11.632   4.972   1.786  0.1888 -0.1164 -0.4050
  343MOL0     C47219  11.730   5.062   1.702  0.2598 -0.0716  0.4864
  343MOL0     O47220  11.864   5.013   1.738 -0.2468 -0.4339  0.0091
  343MOL0     C47221  11.968   5.078   1.684  0.4209 -0.3234  0.1238
  343MOL0     C47222  11.971   5.113   1.549  0.3374  0.1418  0.2567
  343MOL0     C47223  12.088   5.172   1.491  0.3582  0.9786  0.0550
  343MOL0     C47224  12.081   5.190   1.340 -0.1010  0.0748 -0.4549
  343MOL0     C47225  12.199   5.198   1.572 -1.4587 -0.4861  0.2249
  343MOL0     C47226  12.322   5.261   1.526 -0.2753 -0.1652  0.4319
  343MOL0     O47227  12.424   5.284   1.620  0.2761 -0.2143 -0.0914
  343MOL0     C47228  12.551   5.296   1.569  0.6556 -0.4577  0.5409
  343MOL0     C47229  12.621   5.417   1.551 -0.0757  0.1466  0.0291
  343MOL0     C47230  12.744   5.419   1.494 -0.7832  0.0476  0.2457
  343MOL0     C47231  12.807   5.311   1.440 -0.2635 -0.0476  0.2413
  343MOL0     O47232  12.931   5.318   1.378  0.4536  0.1188  0.5058
  343MOL0     C47233  13.032   5.242   1.435 -0.2503 -0.5520 -0.2103
  343MOL0     C47234  13.152   5.264   1.340 -0.2543  0.1640  0.2951
  343MOL0     C47235  13.237   5.389   1.355  0.3961 -0.0807 -0.6021
  343MOL0     C47236  13.356   5.391   1.260  0.4822 -0.1842 -0.4975
  343MOL0     C47237  13.427   5.521   1.289  0.5358 -1.0402  0.9493
  343MOL0     C47238  13.550   5.546   1.207 -1.2442  1.1827  0.6289
  343MOL0     C47239  13.589   5.690   1.240 -0.3548 -0.7521  0.4787
  343MOL0     C47240  13.713   5.737   1.166  0.0027  0.2764  0.5152
  343MOL0    Cl47241  13.768   5.899   1.212 -0.2892 -0.1256  0.3031
  343MOL0     C47242  12.743   5.186   1.462 -0.2891 -0.4664 -0.4224
  343MOL0     C47243  12.614   5.176   1.526  0.3962  0.0063 -0.1098
  343MOL0     O47244  12.339   5.266   1.404  0.2799 -0.0681  0.5240
  343MOL0     C47245  12.195   5.156   1.703  0.5181 -0.4796 -0.5456
  343MOL0     C47246  12.078   5.107   1.763 -0.3573  0.3810  0.1640
  343MOL0     N47247  11.217   4.898   1.694 -0.6114  0.3867  0.2687
  343MOL0     N47248  11.100   4.860   1.639  0.3519 -0.1964  0.0494
  343MOL0     C47249   9.946   4.582   1.366  0.3664 -0.1841  0.2948
  343MOL0     C47250   9.808   4.567   1.378  0.2700 -0.5641  0.6034
  343MOL0     C47251   9.387   4.539   1.561  0.1676  0.2457 -0.6229
  343MOL0     C47252   9.336   4.406   1.562 -0.8033  0.5262  0.1728
  343MOL0     C47253   9.204   4.379   1.586  0.2607  0.1508  0.3678
  343MOL0     C47254   9.119   4.488   1.628 -0.8057  0.2757  0.5707
  343MOL0     O47255   8.990   4.477   1.681  0.3747  0.1352 -0.3061
  343MOL0     C47256   8.929   4.350   1.685 -0.2557 -0.2184 -0.3170
  343MOL0     C47257   8.779   4.382   1.677 -0.4475  0.1492 -0.1276
  343MOL0     C47258   8.700   4.255   1.706 -0.2902  1.1921 -0.6680
  343MOL0     C47259   8.550   4.299   1.694 -0.4667  0.6527  0.2735
  343MOL0     C47260   8.457   4.199   1.763 -0.8433  0.0643 -0.1693
  343MOL0     C47261   8.383   4.105   1.807 -0.6984 -0.6646  1.1510
  343MOL0     C47262   9.165   4.615   1.631 -0.1365 -0.4305 -0.7880
  343MOL0     C47263   9.290   4.644   1.590 -0.5514  0.2289 -0.3683
  343MOL0     C47264   9.309   4.796   1.571  0.4915  0.5320  1.3352
  343MOL0     H47265   9.796   4.300   1.592 -0.6038 -0.3679  0.4892
  343MOL0     H47266  10.030   4.321   1.567 -1.6758 -1.9653 -0.2854
  343MOL0     H47267  10.242   4.694   1.414  1.7321  0.0585  0.1115
  343MOL0     H47268  10.193   4.612   1.276 -0.6157 -0.0353 -0.1768
  343MOL0     H47269  10.424   4.515   1.444 -1.1381 -0.1409  0.4379
  343MOL0     H47270  10.392   4.466   1.275  0.9392 -1.0907  1.0235
  343MOL0     H47271  10.452   4.708   1.214  0.3911  0.9340  0.3616
  343MOL0     H47272  10.484   4.748   1.382 -2.5271  2.1715 -2.5632
  343MOL0     H47273  10.625   4.504   1.302  0.7888 -0.7312 -2.6903
  343MOL0     H47274  10.648   4.631   1.184  0.6186 -2.4890 -0.3556
  343MOL0     H47275  10.722   4.641   1.479 -0.3085  1.2739  0.1421
  343MOL0     H47276  10.724   4.777   1.363  0.6550 -0.3998 -0.6667
  343MOL0     H47277  10.870   4.501   1.322 -0.6807  0.7919 -1.4021
  343MOL0     H47278  10.894   4.645   1.219  2.1286  0.4860 -0.1419
  343MOL0     H47279  11.063   4.606   1.417  0.6364  0.1143 -0.6589
  343MOL0     H47280  10.935   4.650   1.526  1.3770 -2.6662  0.3533
  343MOL0     H47281  11.049   4.813   1.303 -0.0808 -0.1723 -1.0044
  343MOL0     H47282  10.926   4.880   1.394  1.3928  0.2267  1.9391
  343MOL0     H47283  11.291   4.859   1.381 -1.0255 -2.6570  0.2378
  343MOL0     H47284  11.512   4.951   1.540 -0.4217 -0.3839  1.4091
  343MOL0     H47285  11.495   4.812   1.640 -0.2606 -0.2986 -2.7873
  343MOL0     H47286  11.475   5.111   1.714 -1.2993 -0.1905  0.7173
  343MOL0     H47287  11.424   4.984   1.823 -0.8554 -0.1837 -1.2657
  343MOL0     H47288  11.639   5.003   1.891 -0.7375 -1.2048 -0.0012
  343MOL0     H47289  11.667   4.870   1.773  0.1295 -0.1279 -0.4743
  343MOL0     H47290  11.712   5.057   1.594  1.7745  0.3003  0.1848
  343MOL0     H47291  11.716   5.168   1.724  0.9862  0.2253 -0.4026
  343MOL0     H47292  11.883   5.103   1.486 -0.8551  0.5264  1.8068
  343MOL0     H47293  12.079   5.294   1.309  1.6481  0.6730  1.2442
  343MOL0     H47294  11.983   5.152   1.307 -0.7798  0.4697  1.0433
  343MOL0     H47295  12.160   5.136   1.286 -0.0159  0.3332 -0.5859
  343MOL0     H47296  12.571   5.506   1.588 -1.6143 -0.9851  0.8114
  343MOL0     H47297  12.783   5.520   1.487 -2.4981  0.6965 -0.4693
  343MOL0     H47298  13.050   5.279   1.537 -1.2599  0.6630 -0.4431
  343MOL0     H47299  13.013   5.135   1.432 -0.9749 -0.4665  0.6450
  343MOL0     H47300  13.221   5.180   1.343  1.5306  1.5225 -0.5734
  343MOL0     H47301  13.115   5.270   1.237 -0.1382  0.5589  0.2727
  343MOL0     H47302  13.282   5.390   1.455  0.5327 -1.1975 -0.6391
  343MOL0     H47303  13.165   5.471   1.344 -1.8036 -1.5870  1.4068
  343MOL0     H47304  13.336   5.377   1.153  1.1086 -2.0791 -0.3924
  343MOL0     H47305  13.421   5.307   1.283  0.4779 -0.4717 -1.4826
  343MOL0     H47306  13.352   5.599   1.271  1.5915 -0.4267 -1.1245
  343MOL0     H47307  13.457   5.533   1.393 -0.1181  1.6200  0.8907
  343MOL0     H47308  13.527   5.525   1.102 -0.8607 -0.3445  0.8266
  343MOL0     H47309  13.627   5.471   1.229  0.5459  2.7271 -0.1615
  343MOL0     H47310  13.603   5.699   1.348 -2.6246  0.2148  0.7394
  343MOL0     H47311  13.502   5.746   1.206 -1.0034 -2.3841 -0.7055
  343MOL0     H47312  13.694   5.723   1.059 -1.7529 -1.4274  0.9814
  343MOL0     H47313  13.793   5.667   1.191 -1.5773 -2.3890 -1.3770
  343MOL0     H47314  12.805   5.106   1.424  0.7120  0.9306 -1.8614
  343MOL0     H47315  12.573   5.076   1.522  3.3909 -1.3155 -0.1089
  343MOL0     H47316  12.278   5.171   1.772 -0.9983  0.6702  1.1047
  343MOL0     H47317  12.076   5.080   1.868  0.8613 -1.3346 -0.2117
  343MOL0     H47318   9.989   4.643   1.287  0.1649  2.4715  2.0950
  343MOL0     H47319   9.747   4.639   1.324 -0.9785 -1.1625  1.1855
  343MOL0     H47320   9.402   4.321   1.543 -1.2147  0.4519 -1.0374
  343MOL0     H47321   9.158   4.280   1.591 -2.9172  1.4924 -0.1170
  343MOL0     H47322   8.958   4.279   1.607 -0.6510 -1.0966  0.3097
  343MOL0     H47323   8.950   4.306   1.783  0.2094 -3.8902 -1.9033
  343MOL0     H47324   8.755   4.416   1.576  0.7194 -0.0378 -0.4905
  343MOL0     H47325   8.749   4.458   1.750 -2.1247  1.4179 -2.0326
  343MOL0     H47326   8.735   4.175   1.640  0.7632 -0.5734  1.8858
  343MOL0     H47327   8.719   4.225   1.810  0.0280 -2.0167 -1.5367
  343MOL0     H47328   8.527   4.299   1.588 -0.6946 -0.8781  0.2973
  343MOL0     H47329   8.537   4.393   1.748  0.2894 -0.0010  1.6693
  343MOL0     H47330   8.323   4.023   1.841 -2.6240  0.4203  0.5366
  343MOL0     H47331   9.091   4.689   1.658 -0.9144 -1.0889 -1.0973
  343MOL0     H47332   9.348   4.816   1.471 -2.0011  2.2986  0.6309
  343MOL0     H47333   9.222   4.860   1.582 -0.0608  0.8075 -2.8988
  343MOL0     H47334   9.397   4.823   1.630  1.1409 -1.1306  1.1853
  344MOL0     O47335   9.953   1.055   6.509 -0.1187 -0.0594 -0.1707
  344MOL0     C47336  10.076   1.054   6.489  1.0936  0.2115 -0.5060
  344MOL0     O47337  10.140   1.141   6.406 -0.3379 -0.0916 -0.3029
  344MOL0     C47338  10.078   1.206   6.299  0.0583  0.2572  0.0139
  344MOL0     C47339  10.157   1.292   6.227 -0.2680  0.0191 -0.5034
  344MOL0     C47340  10.104   1.385   6.138 -0.2113  0.3344  0.2003
  344MOL0     C47341   9.977   1.372   6.101  0.0762 -0.1616  0.6322
  344MOL0     O47342   9.911   1.454   6.017 -0.2008  0.2645 -0.1450
  344MOL0     C47343   9.979   1.576   5.972 -0.5497  0.2440  0.8830
  344MOL0     C47344  10.082   1.556   5.860  0.0875 -0.1224 -0.2397
  344MOL0     C47345  10.133   1.706   5.827 -0.6675 -0.8793  0.1901
  344MOL0     C47346  10.243   1.745   5.923  0.3952  0.2472 -0.4540
  344MOL0     C47347  10.288   1.896   5.901 -0.7854  0.3792  0.0263
  344MOL0     C47348  10.370   1.957   6.015  0.0148  0.0513  0.4196
  344MOL0     C47349  10.395   2.108   5.995 -0.1218 -0.0704 -0.1003
  344MOL0     C47350  10.450   2.143   5.853 -0.1619  0.5435 -0.0350
  344MOL0     N47351  10.490   2.288   5.845 -0.1610 -0.3765  0.1544
  344MOL0     C47352  10.409   2.401   5.846  0.5964 -1.2069 -0.6767
  344MOL0     C47353  10.494   2.506   5.875 -1.5816 -0.1256  0.6277
  344MOL0     C47354  10.455   2.650   5.886  0.8818 -0.3263 -0.0488
  344MOL0     C47355  10.406   2.712   5.759  0.2882  0.3791 -0.5495
  344MOL0     C47356  10.380   2.864   5.773  0.0197  0.2171  0.2598
  344MOL0     C47357  10.337   2.930   5.639  0.0328  0.5525 -0.4098
  344MOL0     O47358  10.428   2.895   5.531 -0.4743 -0.3861 -0.3814
  344MOL0     C47359  10.563   2.931   5.534  0.1805  0.1296 -0.1376
  344MOL0     C47360  10.645   2.857   5.452 -0.3019 -0.0837  0.0808
  344MOL0     C47361  10.784   2.883   5.450  0.4975  1.0854 -0.0140
  344MOL0     C47362  10.862   2.777   5.376 -1.0451  0.3627 -0.5467
  344MOL0     C47363  10.842   2.992   5.515 -0.0859 -1.4417  0.6161
  344MOL0     C47364  10.984   3.035   5.506 -0.2126  0.3120 -0.3523
  344MOL0     O47365  11.058   2.975   5.400  0.3883 -0.1263 -0.6262
  344MOL0     C47366  11.175   3.033   5.371 -0.1220  1.0600  0.3160
  344MOL0     C47367  11.273   3.043   5.457 -0.4195  0.3412  0.3230
  344MOL0     C47368  11.394   3.106   5.422  0.4030 -0.6609 -0.1296
  344MOL0     C47369  11.411   3.162   5.295  0.4425 -0.7155  0.8429
  344MOL0     O47370  11.530   3.234   5.291  0.5423 -0.4278  0.2171
  344MOL0     C47371  11.582   3.246   5.156 -0.4817  0.1977 -0.3252
  344MOL0     C47372  11.712   3.324   5.141  0.1965  0.3474  0.0900
  344MOL0     C47373  11.838   3.306   5.235  0.0578  0.5042  0.7663
  344MOL0     C47374  11.924   3.182   5.206  0.5780 -0.5871 -0.3869
  344MOL0     C47375  12.027   3.137   5.310  0.5489 -0.0799  0.2927
  344MOL0     C47376  12.089   3.261   5.384 -0.4112  1.4614 -0.1240
  344MOL0     C47377  12.229   3.295   5.340  0.3445  0.1261  0.3315
  344MOL0     C47378  12.242   3.347   5.199 -0.0808  1.2532  0.6606
  344MOL0    Cl47379  12.426   3.356   5.167 -0.1484  0.0626  0.1277
  344MOL0     C47380  11.307   3.153   5.203  0.3767 -0.1423  0.3291
  344MOL0     C47381  11.183   3.091   5.246 -0.3807 -0.5887 -0.3063
  344MOL0     O47382  11.031   3.119   5.586 -0.2640  0.0394  0.1816
  344MOL0     C47383  10.753   3.071   5.590 -0.2976  0.3520 -0.0705
  344MOL0     C47384  10.617   3.043   5.595  0.0929  0.6122  0.2416
  344MOL0     N47385  10.621   2.453   5.882 -0.2718 -1.0863 -0.0693
  344MOL0     N47386  10.620   2.323   5.864  0.4426  0.3634 -0.4166
  344MOL0     C47387   9.899   1.270   6.154 -0.7218  0.0928 -0.1967
  344MOL0     C47388   9.944   1.192   6.266  0.0394  0.5468  0.4026
  344MOL0     C47389  10.164   0.966   6.571  0.7381 -0.0316  0.4299
  344MOL0     C47390  10.285   0.929   6.521 -0.0815  0.6052 -0.1750
  344MOL0     C47391  10.375   0.847   6.600  0.3518 -1.7012 -0.7162
  344MOL0     C47392  10.340   0.800   6.725 -0.6768 -0.7043  0.5889
  344MOL0     O47393  10.416   0.706   6.788 -0.3464 -0.4616  0.4998
  344MOL0     C47394  10.557   0.733   6.801  0.0038  0.3947  0.1816
  344MOL0     C47395  10.637   0.653   6.703  0.2386  0.2608 -0.2465
  344MOL0     C47396  10.745   0.737   6.644  0.2897  0.0860  0.0784
  344MOL0     C47397  10.779   0.678   6.508  0.5095  0.5769  0.4743
  344MOL0     C47398  10.846   0.542   6.520  0.5501  0.7516  0.9673
  344MOL0     C47399  10.892   0.427   6.529 -0.0482 -0.0714  0.5544
  344MOL0     C47400  10.213   0.831   6.772 -1.0937 -0.5610  0.3055
  344MOL0     C47401  10.131   0.914   6.701  0.4250 -0.1187  0.7031
  344MOL0     C47402   9.999   0.948   6.768  0.0947 -0.7897  0.0780
  344MOL0     H47403  10.260   1.289   6.262  0.0908 -0.7136 -1.5772
  344MOL0     H47404  10.175   1.460   6.106  1.0639 -2.0670 -3.0851
  344MOL0     H47405  10.004   1.639   6.058  0.7535  0.8799  0.0706
  344MOL0     H47406   9.904   1.642   5.926 -0.0027  1.8543  2.2347
  344MOL0     H47407  10.160   1.483   5.885  2.0016  1.7372 -0.4427
  344MOL0     H47408  10.023   1.515   5.778 -0.7197 -1.3388  0.9156
  344MOL0     H47409  10.179   1.704   5.728 -1.3244  3.2542 -0.3776
  344MOL0     H47410  10.052   1.780   5.821 -0.9524 -1.3281 -3.2114
  344MOL0     H47411  10.202   1.739   6.025 -1.5417 -0.1827 -1.2193
  344MOL0     H47412  10.333   1.682   5.919 -0.1451 -0.7699  1.6326
  344MOL0     H47413  10.198   1.955   5.884  0.2873  2.6243  1.6721
  344MOL0     H47414  10.343   1.901   5.806 -0.7248  1.0544  0.0963
  344MOL0     H47415  10.320   1.937   6.110  1.8293 -1.6210  1.1056
  344MOL0     H47416  10.466   1.905   6.010 -0.5511 -0.9617 -0.6145
  344MOL0     H47417  10.469   2.138   6.070  1.1506  0.1754 -1.3798
  344MOL0     H47418  10.298   2.158   6.007 -0.0503 -0.1371  0.8300
  344MOL0     H47419  10.533   2.086   5.810  0.0659  2.3680 -2.1996
  344MOL0     H47420  10.371   2.126   5.779  1.8371  0.8409 -2.3472
  344MOL0     H47421  10.301   2.416   5.838  0.9883  1.5465 -2.2615
  344MOL0     H47422  10.538   2.706   5.930  0.2589  0.0136  0.7250
  344MOL0     H47423  10.376   2.659   5.961  3.0508 -1.1096  2.4908
  344MOL0     H47424  10.481   2.699   5.680 -0.5786 -2.1881 -1.0297
  344MOL0     H47425  10.314   2.661   5.730 -1.3927  2.3221  1.0448
  344MOL0     H47426  10.300   2.875   5.847 -1.9664 -0.9184 -1.5824
  344MOL0     H47427  10.476   2.907   5.804  0.9408 -0.2602 -1.8038
  344MOL0     H47428  10.239   2.896   5.603  0.0217 -0.4012  0.4802
  344MOL0     H47429  10.339   3.038   5.657 -0.2923  0.1713  2.3885
  344MOL0     H47430  10.611   2.778   5.386  2.1547 -1.7130  0.6029
  344MOL0     H47431  10.956   2.769   5.431 -2.6045 -0.4475  2.1940
  344MOL0     H47432  10.864   2.800   5.269  0.6095 -1.0049 -0.8448
  344MOL0     H47433  10.810   2.681   5.386  0.4835 -0.3814  0.5062
  344MOL0     H47434  11.259   2.980   5.544  0.1732 -2.8348 -1.7082
  344MOL0     H47435  11.474   3.104   5.495 -0.2363 -0.2701  0.6069
  344MOL0     H47436  11.613   3.151   5.110 -0.7846 -0.4000  0.6824
  344MOL0     H47437  11.513   3.292   5.085 -1.4163 -1.6711 -0.6935
  344MOL0     H47438  11.735   3.317   5.034 -1.2290  0.9234 -0.2696
  344MOL0     H47439  11.686   3.427   5.167 -0.3881  0.5739 -1.2972
  344MOL0     H47440  11.795   3.318   5.335  2.4335  3.4178  1.5793
  344MOL0     H47441  11.903   3.394   5.230 -0.2895  0.7083 -0.8407
  344MOL0     H47442  11.983   3.216   5.121  2.9651 -2.0137  0.6065
  344MOL0     H47443  11.850   3.104   5.185 -2.7201  2.3873 -0.6887
  344MOL0     H47444  11.969   3.077   5.380 -0.2455 -0.3347 -0.5516
  344MOL0     H47445  12.089   3.058   5.265  0.3786  0.5906 -1.1952
  344MOL0     H47446  12.095   3.234   5.490  3.9695 -0.3400 -0.6119
  344MOL0     H47447  12.027   3.350   5.392  0.0928  1.8455 -0.4575
  344MOL0     H47448  12.291   3.205   5.353 -1.0256 -0.6205  2.3624
  344MOL0     H47449  12.268   3.373   5.405 -0.8034  1.4845 -0.5600
  344MOL0     H47450  12.196   3.443   5.174  0.9297  0.6515 -4.6873
  344MOL0     H47451  12.213   3.268   5.130 -0.2354 -0.2754  2.3994
  344MOL0     H47452  11.312   3.197   5.104  0.7315 -1.9133 -0.4834
  344MOL0     H47453  11.100   3.070   5.180 -1.2773  3.0824 -0.5600
  344MOL0     H47454  10.788   3.166   5.629  0.1259 -0.2887  1.1696
  344MOL0     H47455  10.570   3.111   5.665  0.7794  1.5008 -0.1368
  344MOL0     H47456   9.795   1.256   6.127 -1.7934  2.2502  2.3091
  344MOL0     H47457   9.866   1.129   6.307 -0.4627  0.5586 -0.4978
  344MOL0     H47458  10.330   0.973   6.433  2.5664 -0.8233  0.3499
  344MOL0     H47459  10.476   0.822   6.567  1.8818  0.1486  2.1761
  344MOL0     H47460  10.574   0.841   6.797 -1.6926  0.8004  2.0694
  344MOL0     H47461  10.585   0.725   6.906  0.7994 -1.3817 -0.1246
  344MOL0     H47462  10.567   0.626   6.623 -0.9972 -0.1993  0.9355
  344MOL0     H47463  10.678   0.559   6.742  0.6348  0.3327 -0.4886
  344MOL0     H47464  10.721   0.843   6.635  1.6764  0.7094  2.5777
  344MOL0     H47465  10.836   0.726   6.704  0.0646 -2.2046  0.0721
  344MOL0     H47466  10.843   0.751   6.457 -0.4071  1.5836  0.7337
  344MOL0     H47467  10.690   0.681   6.445  0.6830  0.1280  0.1994
  344MOL0     H47468  10.927   0.326   6.533  0.2214 -0.0542 -1.0325
  344MOL0     H47469  10.186   0.795   6.870 -1.4977  1.9507  1.1903
  344MOL0     H47470   9.914   0.921   6.705  0.9411 -0.5479 -1.2005
  344MOL0     H47471   9.987   0.894   6.862  0.6004  2.3545  2.1220
  344MOL0     H47472   9.991   1.056   6.785  0.6740 -0.4691 -1.5154
  345MOL0     O47473   2.310   8.320   7.112 -0.1345 -0.0597 -0.3198
  345MOL0     C47474   2.334   8.231   7.033  0.8776  0.8486 -0.5545
  345MOL0     O47475   2.461   8.189   6.992 -0.6994  0.0746  0.8114
  345MOL0     C47476   2.568   8.245   7.060  0.6144  0.0511 -0.4471
  345MOL0     C47477   2.619   8.189   7.170 -0.1463  0.2562 -0.1456
  345MOL0     C47478   2.738   8.236   7.219  0.6709 -0.0167  0.7132
  345MOL0     C47479   2.802   8.344   7.163 -0.9645 -1.1424  0.3962
  345MOL0     O47480   2.922   8.402   7.210 -0.7328  0.4640 -0.4636
  345MOL0     C47481   3.008   8.312   7.280  0.1396  0.4364  0.2851
  345MOL0     C47482   3.143   8.375   7.279  0.0627  0.8181 -0.7331
  345MOL0     C47483   3.235   8.290   7.373 -0.2593 -0.1878 -0.3871
  345MOL0     C47484   3.373   8.355   7.387  0.1480  0.3103  0.0659
  345MOL0     C47485   3.489   8.273   7.329  1.2321 -0.1783  0.0743
  345MOL0     C47486   3.615   8.303   7.408 -0.2394  0.3143  0.5294
  345MOL0     C47487   3.723   8.194   7.364  1.1394  0.3016 -0.3893
  345MOL0     C47488   3.858   8.227   7.428  0.2950  0.3970  0.1835
  345MOL0     N47489   3.957   8.129   7.393 -0.6393 -0.1430 -0.0293
  345MOL0     C47490   3.957   7.999   7.436 -0.0456  0.3487  0.5400
  345MOL0     C47491   4.081   7.951   7.420  0.2875 -0.0877  0.3354
  345MOL0     C47492   4.130   7.815   7.467  0.4495  0.4944 -0.4745
  345MOL0     C47493   4.281   7.793   7.436 -0.2668 -0.0247 -0.1636
  345MOL0     C47494   4.344   7.662   7.499 -0.9741 -0.1258  0.1352
  345MOL0     C47495   4.488   7.637   7.457 -0.1093 -0.2238 -0.1334
  345MOL0     O47496   4.590   7.707   7.533 -0.3229 -0.5099 -0.8078
  345MOL0     C47497   4.695   7.630   7.576  0.9087 -1.1739 -0.0244
  345MOL0     C47498   4.684   7.505   7.624  0.2830 -0.1351 -0.6037
  345MOL0     C47499   4.793   7.427   7.668 -0.0748  1.2091  0.2583
  345MOL0     C47500   4.762   7.298   7.728 -0.2454  0.5662 -0.8494
  345MOL0     C47501   4.921   7.483   7.672  0.3304 -0.4996  0.5874
  345MOL0     C47502   5.051   7.409   7.689 -0.3728  0.0406  0.1167
  345MOL0     O47503   5.147   7.494   7.734 -0.7580  0.3163  0.2768
  345MOL0     C47504   5.264   7.442   7.782 -0.5110  0.0036 -0.2106
  345MOL0     C47505   5.389   7.483   7.722  0.3550  0.1211  0.4306
  345MOL0     C47506   5.505   7.415   7.755  0.1488 -0.1400  0.1025
  345MOL0     C47507   5.508   7.332   7.865 -0.3079  0.5246 -0.3745
  345MOL0     O47508   5.618   7.272   7.901 -0.5617  0.2906 -0.1748
  345MOL0     C47509   5.640   7.235   8.034  0.2965 -0.4403 -0.2891
  345MOL0     C47510   5.782   7.185   8.059  0.0972 -0.1898 -0.0284
  345MOL0     C47511   5.878   7.289   7.992  0.0590  0.7694  0.2145
  345MOL0     C47512   6.017   7.295   8.052 -0.5526  0.9829 -0.6801
  345MOL0     C47513   6.101   7.407   7.992  0.3234 -0.5032  0.3320
  345MOL0     C47514   6.234   7.411   8.069  0.1650  0.1196 -0.1391
  345MOL0     C47515   6.325   7.521   8.025  0.3653 -0.7983  0.4815
  345MOL0     C47516   6.291   7.663   8.054  0.2897 -0.4020  0.1656
  345MOL0    Cl47517   6.447   7.764   8.034  0.2218  0.4392  0.0221
  345MOL0     C47518   5.388   7.317   7.942  0.4763  0.0574  0.1221
  345MOL0     C47519   5.265   7.368   7.903 -0.4436  0.4365  0.0435
  345MOL0     O47520   5.072   7.295   7.642  0.6284  0.6322 -0.4157
  345MOL0     C47521   4.925   7.622   7.632 -0.1308 -0.0549 -0.5305
  345MOL0     C47522   4.817   7.689   7.584 -0.0642  0.3718 -0.8083
  345MOL0     N47523   4.144   8.048   7.349  0.4813 -0.0387  1.4551
  345MOL0     N47524   4.071   8.155   7.331  0.0999 -0.0660  0.1434
  345MOL0     C47525   2.735   8.414   7.060 -0.1510 -0.6380 -0.4724
  345MOL0     C47526   2.621   8.369   7.010 -0.0862  0.3075  0.0272
  345MOL0     C47527   2.213   8.146   7.000  0.0453  0.0582 -0.2016
  345MOL0     C47528   2.236   8.017   6.943  0.4869 -0.0315 -1.0172
  345MOL0     C47529   2.131   7.930   6.901 -0.8007 -0.6912  0.2230
  345MOL0     C47530   2.001   7.967   6.930 -0.1972  0.0288  0.3455
  345MOL0     O47531   1.911   7.872   6.901  0.0553  0.0580  0.9571
  345MOL0     C47532   1.791   7.920   6.840 -0.7983  0.2494  0.6283
  345MOL0     C47533   1.726   7.802   6.761  0.0890 -0.7725 -0.4099
  345MOL0     C47534   1.668   7.685   6.845 -0.2386  0.9576 -0.1458
  345MOL0     C47535   1.579   7.590   6.756  0.8986  0.4223 -0.0927
  345MOL0     C47536   1.668   7.525   6.662 -0.7873 -0.3490  1.0436
  345MOL0     C47537   1.739   7.477   6.577  0.4363  0.0084 -0.2106
  345MOL0     C47538   1.979   8.097   6.981 -0.3711 -0.2160 -0.0740
  345MOL0     C47539   2.081   8.186   7.034 -1.7001  0.2376 -0.6526
  345MOL0     C47540   2.038   8.307   7.104 -0.0208 -0.0756 -0.7357
  345MOL0     H47541   2.564   8.106   7.213 -1.1670 -0.5235 -2.7494
  345MOL0     H47542   2.779   8.191   7.309  0.8040 -0.3816  0.4758
  345MOL0     H47543   3.018   8.217   7.228 -0.2495 -1.2609  3.1091
  345MOL0     H47544   2.966   8.293   7.380 -1.5496 -0.3826 -0.5389
  345MOL0     H47545   3.178   8.369   7.175  1.9992  0.0997 -0.0628
  345MOL0     H47546   3.137   8.476   7.321  0.3600  0.2532  0.7091
  345MOL0     H47547   3.195   8.273   7.473  2.7689 -1.1069  0.7920
  345MOL0     H47548   3.245   8.198   7.315 -1.1880 -1.2990  1.1441
  345MOL0     H47549   3.371   8.458   7.350 -0.2449  0.0279 -0.7240
  345MOL0     H47550   3.380   8.373   7.494 -2.4818 -1.3416  0.6284
  345MOL0     H47551   3.505   8.293   7.222  3.6198 -1.0314  0.2185
  345MOL0     H47552   3.469   8.166   7.339  0.7247 -0.0343  0.6958
  345MOL0     H47553   3.657   8.404   7.402 -0.1977  0.5514  3.4553
  345MOL0     H47554   3.598   8.276   7.512 -0.8583 -1.4822 -0.0116
  345MOL0     H47555   3.733   8.199   7.255 -0.9644  1.2383 -0.5780
  345MOL0     H47556   3.694   8.093   7.394 -3.4709  1.5831  0.2982
  345MOL0     H47557   3.886   8.318   7.375 -0.9587  0.2303 -0.8040
  345MOL0     H47558   3.852   8.247   7.536 -2.2364 -1.5964  0.5291
  345MOL0     H47559   3.877   7.947   7.490  0.8390 -0.6042  0.9767
  345MOL0     H47560   4.076   7.737   7.413  0.8021 -0.4509  0.5067
  345MOL0     H47561   4.101   7.806   7.572 -2.3566 -0.2595 -1.2204
  345MOL0     H47562   4.302   7.799   7.329 -0.8393 -0.7343 -0.3259
  345MOL0     H47563   4.335   7.882   7.468 -0.1776 -0.8859  2.2714
  345MOL0     H47564   4.339   7.662   7.608 -1.0046 -0.5350  0.1337
  345MOL0     H47565   4.285   7.584   7.451  0.9884 -1.5145 -0.1417
  345MOL0     H47566   4.515   7.531   7.461  0.1619 -0.1281  2.1552
  345MOL0     H47567   4.493   7.664   7.351  1.2481 -0.2039 -0.0869
  345MOL0     H47568   4.583   7.465   7.622 -0.2152  0.9573  0.8879
  345MOL0     H47569   4.804   7.301   7.830 -0.1437  1.5497 -0.9164
  345MOL0     H47570   4.807   7.209   7.682 -0.7082  0.4271 -1.0358
  345MOL0     H47571   4.654   7.285   7.728 -0.4980  2.4355 -1.0394
  345MOL0     H47572   5.386   7.559   7.645 -0.3506 -0.1021  0.2280
  345MOL0     H47573   5.602   7.430   7.708  0.3063  1.4241  0.8609
  345MOL0     H47574   5.619   7.317   8.103 -1.0571 -2.4181  1.7958
  345MOL0     H47575   5.574   7.150   8.058  0.4467 -0.7116 -0.8099
  345MOL0     H47576   5.811   7.185   8.164  2.2345 -1.5193 -0.5451
  345MOL0     H47577   5.798   7.086   8.016  2.4926  0.8255 -1.7721
  345MOL0     H47578   5.835   7.389   8.001 -0.5270  0.7849 -2.2103
  345MOL0     H47579   5.883   7.289   7.883 -0.3425  0.1107  0.1880
  345MOL0     H47580   6.077   7.204   8.046  1.4866  2.0932  1.2317
  345MOL0     H47581   6.016   7.313   8.160 -0.0037 -1.1437 -0.2732
  345MOL0     H47582   6.125   7.382   7.889  3.6231 -0.2824  0.9286
  345MOL0     H47583   6.057   7.507   7.995  0.1479 -0.5427 -0.7448
  345MOL0     H47584   6.281   7.313   8.059  0.3036  0.4257 -4.1570
  345MOL0     H47585   6.209   7.424   8.175 -1.3445 -0.9872 -0.3217
  345MOL0     H47586   6.331   7.514   7.916 -3.0621 -0.7338  0.1587
  345MOL0     H47587   6.418   7.504   8.080  1.4746  1.6899 -0.5126
  345MOL0     H47588   6.253   7.675   8.156 -2.9609  0.4588 -1.0185
  345MOL0     H47589   6.218   7.703   7.983 -0.1481  0.6954  1.2079
  345MOL0     H47590   5.371   7.248   8.025 -1.7239  0.5243  0.1291
  345MOL0     H47591   5.175   7.350   7.961  0.3140  3.5115  2.4282
  345MOL0     H47592   5.019   7.677   7.634  0.5833 -1.1461 -1.9993
  345MOL0     H47593   4.834   7.792   7.552  0.1532  1.0024  1.2005
  345MOL0     H47594   2.781   8.508   7.030 -0.4774 -0.6678 -1.0777
  345MOL0     H47595   2.558   8.426   6.942 -0.7688 -0.9007 -0.3863
  345MOL0     H47596   2.340   7.994   6.925  0.2274 -0.8689 -1.5054
  345MOL0     H47597   2.162   7.843   6.844  0.6633  0.5952 -1.0320
  345MOL0     H47598   1.718   7.949   6.917 -3.5941 -3.0347 -0.5045
  345MOL0     H47599   1.806   8.004   6.772 -1.4143  0.7695  1.1191
  345MOL0     H47600   1.803   7.757   6.698  0.7307  0.8816 -0.8748
  345MOL0     H47601   1.648   7.845   6.697 -2.5515 -1.6977  1.9756
  345MOL0     H47602   1.738   7.626   6.905 -0.2427 -0.1123 -1.1549
  345MOL0     H47603   1.604   7.722   6.926  0.8358  1.2937  0.5688
  345MOL0     H47604   1.496   7.643   6.710  2.2282  1.3951 -1.4717
  345MOL0     H47605   1.532   7.512   6.817  0.1095  1.6027  0.8662
  345MOL0     H47606   1.803   7.448   6.496  0.5188  0.1332 -0.1904
  345MOL0     H47607   1.873   8.115   6.992 -0.3328 -0.4423  0.6859
  345MOL0     H47608   2.054   8.394   7.039  0.4895  2.5826  2.6422
  345MOL0     H47609   1.934   8.297   7.135 -0.6739 -0.2785 -2.8571
  345MOL0     H47610   2.095   8.333   7.194 -0.0493  0.6074 -0.9058
  346MOL0     O47611   1.615   4.916  10.636  0.2452  0.3401  0.0259
  346MOL0     C47612   1.576   4.990  10.725 -0.6036 -0.4159 -0.4283
  346MOL0     O47613   1.643   5.015  10.840  0.4035 -0.0045  0.0680
  346MOL0     C47614   1.775   5.009  10.858  0.1025  0.6197  1.1464
  346MOL0     C47615   1.860   5.031  10.747 -0.6595  0.8054  0.1297
  346MOL0     C47616   2.000   5.022  10.767  0.5368  0.2279 -0.8590
  346MOL0     C47617   2.051   4.989  10.897 -0.5053 -0.1917  0.6009
  346MOL0     O47618   2.182   4.973  10.921 -0.4040 -0.7967 -0.3348
  346MOL0     C47619   2.250   4.877  10.840 -0.0756 -0.3281 -0.4770
  346MOL0     C47620   2.380   4.834  10.902 -0.5865 -0.6113 -0.1455
  346MOL0     C47621   2.490   4.937  10.883 -1.0786  0.6454 -0.9214
  346MOL0     C47622   2.605   4.911  10.977  0.1847 -0.3583  0.0349
  346MOL0     C47623   2.723   5.002  10.937 -0.1331 -0.5761  0.6203
  346MOL0     C47624   2.790   4.945  10.815  0.1893  0.3127  0.4681
  346MOL0     C47625   2.936   5.003  10.815  0.3521  1.2629  0.5117
  346MOL0     C47626   3.021   4.927  10.713  0.0578 -0.5739  0.3686
  346MOL0     N47627   3.156   4.918  10.755 -0.1782 -0.3432  0.2677
  346MOL0     C47628   3.238   5.025  10.788  0.0598 -0.2423 -0.3037
  346MOL0     C47629   3.360   4.977  10.825 -0.4962 -0.5002 -0.5146
  346MOL0     C47630   3.490   5.037  10.867 -0.2241 -1.0818 -0.6603
  346MOL0     C47631   3.574   5.071  10.751  0.1492 -0.2782 -0.0453
  346MOL0     C47632   3.684   5.172  10.793 -0.0730  0.6314  0.0065
  346MOL0     C47633   3.776   5.217  10.671  0.6383 -0.2540 -0.7347
  346MOL0     O47634   3.886   5.291  10.712  0.0292 -0.5409  0.7769
  346MOL0     C47635   4.010   5.230  10.723  0.9939 -0.4607  0.4965
  346MOL0     C47636   4.125   5.309  10.750 -0.2282  0.3774  0.0749
  346MOL0     C47637   4.245   5.252  10.776 -1.1709 -0.6110 -0.5069
  346MOL0     C47638   4.363   5.340  10.827 -0.5004 -0.2379  0.3371
  346MOL0     C47639   4.256   5.108  10.761 -0.0437 -0.5822  0.8620
  346MOL0     C47640   4.391   5.046  10.774 -0.3120 -0.0355  0.1305
  346MOL0     O47641   4.469   5.074  10.670  0.1006 -0.5461 -0.0767
  346MOL0     C47642   4.605   5.042  10.684  0.6549 -0.0108  1.3073
  346MOL0     C47643   4.661   4.955  10.596  0.1189  0.6113 -0.0418
  346MOL0     C47644   4.794   4.914  10.603 -0.1434 -0.3011 -0.2100
  346MOL0     C47645   4.878   4.972  10.703 -0.1577  0.0290 -0.3953
  346MOL0     O47646   5.011   4.956  10.725 -0.1459 -0.5270  0.0072
  346MOL0     C47647   5.074   4.842  10.679  0.2820 -0.7967  0.1202
  346MOL0     C47648   5.209   4.824  10.750 -0.4700 -0.5504 -0.6059
  346MOL0     C47649   5.208   4.810  10.908 -0.0955  0.0607 -0.5323
  346MOL0     C47650   5.347   4.801  10.974  0.0644  0.1407 -0.3602
  346MOL0     C47651   5.431   4.929  10.935  0.0164 -0.1925  0.3002
  346MOL0     C47652   5.558   4.951  11.026  0.7418  1.2457 -0.3243
  346MOL0     C47653   5.537   4.922  11.176  0.5134 -0.5260 -0.3730
  346MOL0     C47654   5.659   4.962  11.257 -1.1752  0.1444 -0.6004
  346MOL0    Cl47655   5.675   5.132  11.279  0.1192 -0.2159 -0.3600
  346MOL0     C47656   4.820   5.061  10.794 -0.9013 -0.1868 -0.2425
  346MOL0     C47657   4.683   5.099  10.781  0.5361 -0.3077 -0.1165
  346MOL0     O47658   4.405   4.949  10.853  0.5290 -0.0852 -0.2145
  346MOL0     C47659   4.144   5.030  10.741  0.0807 -0.5016 -0.2142
  346MOL0     C47660   4.026   5.094  10.729  0.8581 -0.0475 -0.0103
  346MOL0     N47661   3.341   4.845  10.815 -0.0589  0.0430 -0.1810
  346MOL0     N47662   3.221   4.807  10.783 -0.1564  0.5991 -0.6405
  346MOL0     C47663   1.961   4.965  11.001 -0.3439  0.4197  0.3070
  346MOL0     C47664   1.827   4.983  10.984  0.0165  0.1498  0.5554
  346MOL0     C47665   1.440   5.042  10.701  0.4153  0.2291  0.1886
  346MOL0     C47666   1.388   5.136  10.794  0.1826 -0.0616 -0.1228
  346MOL0     C47667   1.262   5.195  10.771  0.6600 -0.3050  0.8203
  346MOL0     C47668   1.183   5.164  10.657  0.0469 -0.8308  0.6836
  346MOL0     O47669   1.062   5.231  10.619  0.1488  0.3888  0.3438
  346MOL0     C47670   1.056   5.370  10.642 -0.0092 -0.2178 -0.5770
  346MOL0     C47671   0.945   5.429  10.553  0.4061 -0.2398  0.2171
  346MOL0     C47672   0.811   5.366  10.574  0.2672  0.4890  0.3289
  346MOL0     C47673   0.706   5.422  10.481 -0.4484 -0.2340  0.5318
  346MOL0     C47674   0.575   5.384  10.534 -0.3385  0.4107  0.1024
  346MOL0     C47675   0.473   5.358  10.587  0.4813 -0.2935  0.5514
  346MOL0     C47676   1.231   5.073  10.566  0.0414  0.0640  0.1346
  346MOL0     C47677   1.353   5.009  10.587 -0.4069 -0.3361 -0.2557
  346MOL0     C47678   1.387   4.916  10.478 -0.5508  0.2045 -0.1594
  346MOL0     H47679   1.833   5.042  10.643  1.8710 -5.5498 -1.6766
  346MOL0     H47680   2.066   5.021  10.680  1.1815 -0.1914 -0.3773
  346MOL0     H47681   2.276   4.910  10.740 -1.4073 -3.1248 -1.8596
  346MOL0     H47682   2.191   4.787  10.824  0.8765 -1.4782  1.8991
  346MOL0     H47683   2.370   4.814  11.009 -0.0628 -1.7919 -0.2947
  346MOL0     H47684   2.393   4.735  10.856 -2.6029 -1.2588  0.5371
  346MOL0     H47685   2.525   4.941  10.779 -0.5255  0.2307 -0.7560
  346MOL0     H47686   2.451   5.037  10.903 -1.3400  1.0434 -3.1222
  346MOL0     H47687   2.587   4.930  11.084  4.1248  1.9033  0.5099
  346MOL0     H47688   2.635   4.806  10.980 -0.8087 -0.6630 -0.3497
  346MOL0     H47689   2.790   5.031  11.019  0.8907  1.4937 -0.8667
  346MOL0     H47690   2.675   5.096  10.911  0.9130 -1.0567 -3.9069
  346MOL0     H47691   2.803   4.836  10.819  1.1613  0.4499  2.3870
  346MOL0     H47692   2.735   4.972  10.725 -0.3478 -0.9443  0.3927
  346MOL0     H47693   2.992   4.976  10.906  3.3065 -1.4994 -1.8644
  346MOL0     H47694   2.943   5.111  10.796  2.4424  1.3242  1.3010
  346MOL0     H47695   2.980   4.829  10.685  0.1464  0.0582 -2.2644
  346MOL0     H47696   3.025   4.986  10.621  1.1948  1.9537  1.9515
  346MOL0     H47697   3.210   5.130  10.782 -1.5700 -0.5310  1.3164
  346MOL0     H47698   3.549   4.969  10.929 -1.3959  0.1024  1.9100
  346MOL0     H47699   3.473   5.128  10.927  1.5188 -0.7701 -0.5817
  346MOL0     H47700   3.620   4.982  10.706  3.1546  0.6372  0.9938
  346MOL0     H47701   3.497   5.117  10.689 -0.6494 -1.1304  0.2838
  346MOL0     H47702   3.643   5.256  10.849 -2.1211  1.4090 -2.4432
  346MOL0     H47703   3.746   5.121  10.867  1.3345 -0.8420 -2.0793
  346MOL0     H47704   3.800   5.123  10.621 -0.8738 -0.8817 -0.3340
  346MOL0     H47705   3.705   5.261  10.600 -2.6686  0.0098  2.4367
  346MOL0     H47706   4.101   5.415  10.751  1.8867  0.9148 -0.5291
  346MOL0     H47707   4.455   5.313  10.774  1.3504  0.9853  2.6897
  346MOL0     H47708   4.377   5.353  10.935  1.9778  3.8601 -0.2261
  346MOL0     H47709   4.347   5.444  10.797  0.0991 -0.3040 -0.2387
  346MOL0     H47710   4.601   4.923  10.512  0.5916 -0.5165  0.0299
  346MOL0     H47711   4.828   4.845  10.526 -1.9279 -2.1509  0.5775
  346MOL0     H47712   5.015   4.749  10.681 -1.5876  0.3413  0.2112
  346MOL0     H47713   5.088   4.860  10.572 -0.0805 -2.2763 -0.2049
  346MOL0     H47714   5.263   4.740  10.704  1.9721  0.4546  0.2355
  346MOL0     H47715   5.268   4.909  10.715  1.1888 -2.0581 -1.6601
  346MOL0     H47716   5.152   4.724  10.945  0.4028  0.7752  2.0565
  346MOL0     H47717   5.149   4.891  10.952 -1.1071 -0.6619 -0.5261
  346MOL0     H47718   5.388   4.707  10.935  0.3121 -0.2999  0.8983
  346MOL0     H47719   5.337   4.798  11.083  2.9518  2.7296  0.1102
  346MOL0     H47720   5.464   4.923  10.831  0.9800  0.7382  0.5362
  346MOL0     H47721   5.376   5.022  10.945 -1.6889 -1.1885  0.5657
  346MOL0     H47722   5.594   5.053  11.013  2.0032  1.0187  1.0945
  346MOL0     H47723   5.639   4.893  10.981 -0.2461  0.6348 -1.3755
  346MOL0     H47724   5.535   4.814  11.195 -0.1509 -0.3062  0.9141
  346MOL0     H47725   5.441   4.966  11.204  0.7792  0.9889 -1.7109
  346MOL0     H47726   5.751   4.916  11.219 -2.8222 -3.7684 -0.3114
  346MOL0     H47727   5.639   4.918  11.355 -3.5173 -1.4902 -1.7351
  346MOL0     H47728   4.881   5.087  10.880  0.3202 -2.1247 -0.4500
  346MOL0     H47729   4.636   5.166  10.852  0.5647  0.0229 -0.4075
  346MOL0     H47730   4.150   4.921  10.742  1.1509 -0.4966  1.9832
  346MOL0     H47731   3.949   5.018  10.719 -0.3141  1.2149 -0.8497
  346MOL0     H47732   1.989   4.942  11.103 -1.0918 -0.4133  0.3395
  346MOL0     H47733   1.764   4.959  11.069 -1.8971 -1.4154 -1.2110
  346MOL0     H47734   1.440   5.163  10.885 -0.1724 -1.7065  0.5891
  346MOL0     H47735   1.219   5.267  10.840 -0.8229  0.0969 -0.4596
  346MOL0     H47736   1.031   5.393  10.746  0.2028  5.7006 -1.4615
  346MOL0     H47737   1.150   5.420  10.617 -0.3041  1.8205  1.9328
  346MOL0     H47738   0.964   5.411  10.447 -2.3136 -2.4531 -0.0122
  346MOL0     H47739   0.931   5.537  10.564  3.2177  0.3117 -0.7597
  346MOL0     H47740   0.805   5.258  10.555 -0.9116  0.6873 -0.5824
  346MOL0     H47741   0.772   5.400  10.670 -0.4945  0.3108  0.0907
  346MOL0     H47742   0.718   5.392  10.377 -0.3587  0.7455  0.2521
  346MOL0     H47743   0.703   5.531  10.486  0.1705 -0.0651 -1.7153
  346MOL0     H47744   0.371   5.337  10.615  1.1601 -1.8626  2.1038
  346MOL0     H47745   1.168   5.057  10.480  1.1598 -2.0212 -0.3562
  346MOL0     H47746   1.479   4.953  10.432 -0.6118  0.0320 -0.4207
  346MOL0     H47747   1.414   4.820  10.524  2.9358  0.8681 -0.5588
  346MOL0     H47748   1.300   4.905  10.413 -2.0770 -0.2082  1.8424
  347MOL0     O47749   7.716   2.385  10.327 -0.8425  0.7832 -0.0725
  347MOL0     C47750   7.632   2.330  10.398  0.8850  0.5249 -0.7909
  347MOL0     O47751   7.658   2.293  10.531  0.1948  0.1430 -0.2576
  347MOL0     C47752   7.761   2.355  10.596 -0.1712 -0.4467 -0.5755
  347MOL0     C47753   7.757   2.496  10.603 -0.7072  0.3722 -0.4547
  347MOL0     C47754   7.862   2.566  10.664 -0.9453 -0.2574  0.0811
  347MOL0     C47755   7.974   2.492  10.720  0.2787  0.9579  0.2215
  347MOL0     O47756   8.061   2.560  10.789  0.0382  0.6339 -0.0879
  347MOL0     C47757   8.180   2.591  10.711 -1.3151 -0.5407 -0.0917
  347MOL0     C47758   8.278   2.657  10.809  0.3731  0.8064  0.7019
  347MOL0     C47759   8.226   2.786  10.874  0.0162 -1.3057 -0.4142
  347MOL0     C47760   8.320   2.835  10.982 -0.1997 -0.1583 -0.4272
  347MOL0     C47761   8.423   2.922  10.935 -0.2338 -0.6690  0.6233
  347MOL0     C47762   8.548   2.937  11.028  1.4822 -0.2831 -0.2991
  347MOL0     C47763   8.660   3.006  10.948 -0.4322  0.3596  0.2793
  347MOL0     C47764   8.777   3.011  11.043  0.3183  0.3571  0.5354
  347MOL0     N47765   8.902   3.061  10.984 -0.1514  0.7058 -0.7413
  347MOL0     C47766   8.911   3.171  10.900 -0.1526  0.0725 -0.3814
  347MOL0     C47767   9.041   3.182  10.877 -0.0401 -0.4511 -0.2287
  347MOL0     C47768   9.106   3.303  10.795  1.0075  0.8293  0.4229
  347MOL0     C47769   9.242   3.354  10.847  0.5917 -0.2908  1.2905
  347MOL0     C47770   9.250   3.398  10.994 -0.4823 -0.1358  0.2528
  347MOL0     C47771   9.391   3.440  11.047 -0.5727  0.1230 -0.6875
  347MOL0     O47772   9.423   3.561  10.981 -0.2112  0.7587 -0.4073
  347MOL0     C47773   9.550   3.571  10.929  0.2617 -0.2253 -0.3173
  347MOL0     C47774   9.661   3.510  10.997 -0.2637  0.1225 -0.2578
  347MOL0     C47775   9.792   3.525  10.954  0.3792  0.7328  0.3227
  347MOL0     C47776   9.898   3.456  11.032  0.1984 -0.9535 -0.7167
  347MOL0     C47777   9.814   3.585  10.826 -0.1133  0.3430 -0.3843
  347MOL0     C47778   9.958   3.603  10.768 -0.3474 -0.4688  0.4677
  347MOL0     O47779   9.962   3.644  10.633  0.4041  0.4117  0.0561
  347MOL0     C47780  10.082   3.648  10.567  1.0704  0.8101 -0.4644
  347MOL0     C47781  10.159   3.533  10.543  0.1699 -0.1507  0.3969
  347MOL0     C47782  10.264   3.536  10.462  0.4171 -0.2124  0.8000
  347MOL0     C47783  10.296   3.656  10.390  0.1926 -0.1146 -0.0644
  347MOL0     O47784  10.396   3.668  10.292  0.2845  0.0288 -0.0559
  347MOL0     C47785  10.445   3.551  10.221  0.0264  0.7226 -0.1753
  347MOL0     C47786  10.576   3.503  10.282 -0.5247  0.3262 -0.2152
  347MOL0     C47787  10.714   3.563  10.232  0.3632 -0.2889  0.4371
  347MOL0     C47788  10.843   3.533  10.316  0.2902 -0.0276  1.3000
  347MOL0     C47789  10.878   3.385  10.296 -0.0080 -1.5743 -0.3816
  347MOL0     C47790  11.017   3.355  10.335  0.9548  0.0840  0.0983
  347MOL0     C47791  11.032   3.360  10.482 -0.2647 -0.1378  0.2371
  347MOL0     C47792  11.167   3.325  10.530 -0.1105 -0.2189 -0.0500
  347MOL0    Cl47793  11.298   3.418  10.461 -0.2090 -0.3295 -0.3302
  347MOL0     C47794  10.220   3.772  10.410 -0.3023  0.3023 -0.1636
  347MOL0     C47795  10.108   3.764  10.487 -0.6678  0.0211  0.1696
  347MOL0     O47796  10.059   3.584  10.841  0.0637 -0.1730 -0.1286
  347MOL0     C47797   9.705   3.635  10.757  0.0911  0.4748 -1.3117
  347MOL0     C47798   9.576   3.630  10.804 -0.2674  0.2342  0.1303
  347MOL0     N47799   9.105   3.075  10.936 -0.2401 -0.5301 -0.5311
  347MOL0     N47800   9.023   3.003  11.004 -0.5432  0.3038 -0.6378
  347MOL0     C47801   7.964   2.350  10.726  0.2977 -0.4462 -0.0194
  347MOL0     C47802   7.851   2.282  10.665 -0.3884  0.0212 -0.3420
  347MOL0     C47803   7.499   2.305  10.339 -0.6181  0.2574 -0.7703
  347MOL0     C47804   7.390   2.298  10.430  0.0904  0.2185  0.3517
  347MOL0     C47805   7.263   2.262  10.386  0.2739 -0.1481 -0.2508
  347MOL0     C47806   7.243   2.218  10.252 -0.3482  0.1432 -0.0040
  347MOL0     O47807   7.111   2.177  10.226  0.6773  0.2604  0.3921
  347MOL0     C47808   7.066   2.154  10.093  0.0170  0.4285 -1.1600
  347MOL0     C47809   6.919   2.155  10.105  0.3801  0.1690  0.6340
  347MOL0     C47810   6.866   2.027  10.153  0.5110 -0.7007  0.5669
  347MOL0     C47811   6.717   2.034  10.186  0.3441  0.2154 -0.6959
  347MOL0     C47812   6.698   2.116  10.305 -0.1177 -0.9978  0.5885
  347MOL0     C47813   6.675   2.173  10.411 -0.2613  0.4195  0.5846
  347MOL0     C47814   7.349   2.225  10.161 -0.9496 -0.0974 -0.2055
  347MOL0     C47815   7.481   2.267  10.201 -0.1309 -0.1080 -0.1690
  347MOL0     C47816   7.587   2.282  10.093  0.2574 -0.1764  0.6337
  347MOL0     H47817   7.670   2.549  10.566 -1.0437  3.6680  4.2414
  347MOL0     H47818   7.860   2.674  10.657 -1.3455 -0.3516 -1.7501
  347MOL0     H47819   8.162   2.658  10.626  3.4053  0.3542 -0.6807
  347MOL0     H47820   8.231   2.503  10.670 -0.2664  0.1608 -0.3387
  347MOL0     H47821   8.306   2.576  10.876  1.0201  0.1434 -0.3317
  347MOL0     H47822   8.370   2.687  10.759 -0.5460  2.2291 -0.2291
  347MOL0     H47823   8.221   2.869  10.802  1.8592 -0.2900  0.5622
  347MOL0     H47824   8.126   2.777  10.918  1.1249 -0.9394  2.3921
  347MOL0     H47825   8.265   2.894  11.056  1.2762  0.2618  0.3779
  347MOL0     H47826   8.362   2.750  11.035 -1.0262 -0.8592 -0.8642
  347MOL0     H47827   8.391   3.026  10.922  1.0674 -0.4673 -1.4010
  347MOL0     H47828   8.461   2.896  10.836  1.0244  3.0007 -0.0336
  347MOL0     H47829   8.515   2.990  11.118  2.4505 -4.0728  2.5664
  347MOL0     H47830   8.575   2.837  11.062  1.6464 -0.8080 -1.8872
  347MOL0     H47831   8.628   3.103  10.909 -1.6887  0.0416  0.4510
  347MOL0     H47832   8.691   2.946  10.862  0.5069  1.1500  0.0465
  347MOL0     H47833   8.755   3.077  11.127 -0.4607  1.8298 -0.7591
  347MOL0     H47834   8.807   2.912  11.080  0.7036  0.4353  0.4358
  347MOL0     H47835   8.838   3.246  10.872  0.8513  2.1643  2.1760
  347MOL0     H47836   9.037   3.387  10.786 -0.7120 -0.6887 -1.2811
  347MOL0     H47837   9.124   3.263  10.695  0.6675  0.5233  0.4860
  347MOL0     H47838   9.312   3.273  10.828  1.0546  0.4813 -0.5432
  347MOL0     H47839   9.275   3.428  10.773 -3.1771 -1.2068 -1.6183
  347MOL0     H47840   9.188   3.487  11.007 -0.2457  0.1237 -0.3153
  347MOL0     H47841   9.210   3.318  11.056 -0.8554 -2.0274 -2.2844
  347MOL0     H47842   9.387   3.467  11.153 -2.7281  2.0488 -1.1805
  347MOL0     H47843   9.470   3.365  11.038  0.6079  1.3007 -0.5441
  347MOL0     H47844   9.646   3.459  11.092  1.3869  0.2719  0.1084
  347MOL0     H47845   9.951   3.544  11.068  0.1935  0.8313 -4.5929
  347MOL0     H47846   9.966   3.401  10.966 -0.0296  0.4237 -2.1810
  347MOL0     H47847   9.861   3.378  11.099 -0.1192 -2.9841 -3.0853
  347MOL0     H47848  10.146   3.439  10.595 -0.6031  1.0835  2.5511
  347MOL0     H47849  10.323   3.448  10.442 -0.2331 -1.2344  3.0683
  347MOL0     H47850  10.367   3.476  10.235  2.4801 -2.0795 -0.6363
  347MOL0     H47851  10.468   3.563  10.114 -0.6872 -1.3426 -0.6054
  347MOL0     H47852  10.566   3.545  10.383 -2.3844 -1.6612  0.5158
  347MOL0     H47853  10.577   3.394  10.279  2.3543  0.1675  1.4802
  347MOL0     H47854  10.703   3.671  10.238  0.7791 -0.2786  1.2308
  347MOL0     H47855  10.733   3.532  10.129  0.1021  2.7007 -0.5833
  347MOL0     H47856  10.818   3.544  10.422 -2.4352 -1.5408  0.8983
  347MOL0     H47857  10.925   3.600  10.288 -0.9666  0.4852 -1.5522
  347MOL0     H47858  10.811   3.320  10.353  0.4106 -0.5063  1.3969
  347MOL0     H47859  10.868   3.369  10.188  2.5003 -1.7651 -0.6623
  347MOL0     H47860  11.083   3.416  10.272  0.5506  0.2267 -0.1952
  347MOL0     H47861  11.017   3.251  10.302 -0.9261 -0.5000  1.7650
  347MOL0     H47862  10.964   3.286  10.524  1.2626 -1.1097  1.0833
  347MOL0     H47863  11.019   3.461  10.521 -1.0822 -0.2048  0.1512
  347MOL0     H47864  11.176   3.218  10.509  0.3068 -0.2719  0.3791
  347MOL0     H47865  11.184   3.343  10.636  1.0162  1.0941 -0.4203
  347MOL0     H47866  10.245   3.862  10.356 -2.5951  0.7962 -0.5326
  347MOL0     H47867  10.049   3.853  10.505  0.0619  0.5569 -0.0463
  347MOL0     H47868   9.719   3.679  10.659  1.3985 -1.3382 -2.0097
  347MOL0     H47869   9.503   3.681  10.742 -0.9143  0.5428  1.1308
  347MOL0     H47870   8.038   2.298  10.786  0.0817  0.4129  1.0288
  347MOL0     H47871   7.831   2.176  10.675  1.6344 -0.5007 -1.2270
  347MOL0     H47872   7.402   2.323  10.534 -0.7097 -0.3575  0.5951
  347MOL0     H47873   7.178   2.259  10.454 -1.1848  0.5826 -1.9689
  347MOL0     H47874   7.081   2.242  10.031 -0.7366 -0.0738 -2.0789
  347MOL0     H47875   7.119   2.067  10.054  0.8708 -1.4465  3.5746
  347MOL0     H47876   6.870   2.178  10.010  0.2464  0.9558  0.8909
  347MOL0     H47877   6.889   2.231  10.177 -1.6692 -0.6167  0.6881
  347MOL0     H47878   6.863   1.945  10.081  0.0362  0.1277 -0.3697
  347MOL0     H47879   6.925   1.993  10.239 -0.6690 -5.4816 -0.2449
  347MOL0     H47880   6.681   1.931  10.196  0.9315  0.1681  1.7689
  347MOL0     H47881   6.665   2.086  10.105 -3.1698 -1.6656  0.1609
  347MOL0     H47882   6.652   2.223  10.502  0.5733 -1.4887  1.9039
  347MOL0     H47883   7.335   2.215  10.054  0.3074  1.6937 -0.5797
  347MOL0     H47884   7.581   2.383  10.052  0.8657 -0.2508  0.3507
  347MOL0     H47885   7.684   2.242  10.124  1.6820  1.8463 -0.9298
  347MOL0     H47886   7.570   2.225  10.001 -4.0156  1.1650  0.3614
  348MOL0     O47887   2.034   3.079   5.901  0.7292  0.6578  0.3489
  348MOL0     C47888   2.044   3.128   5.787 -1.0602  0.7002  0.1081
  348MOL0     O47889   2.160   3.173   5.733  0.5522  0.2380  0.2856
  348MOL0     C47890   2.283   3.164   5.790  0.3323 -0.8293 -0.6014
  348MOL0     C47891   2.383   3.235   5.724  0.2479  0.5438 -0.1189
  348MOL0     C47892   2.514   3.224   5.761  0.6039 -0.0295  0.1955
  348MOL0     C47893   2.554   3.143   5.862 -0.5983 -0.0886 -0.3728
  348MOL0     O47894   2.685   3.122   5.891  0.7256  0.1679  0.0039
  348MOL0     C47895   2.784   3.169   5.795 -1.2804 -0.6128  0.1531
  348MOL0     C47896   2.924   3.127   5.836  0.9279  0.0262  0.2730
  348MOL0     C47897   3.030   3.171   5.740  0.5547 -0.6682 -0.1548
  348MOL0     C47898   3.034   3.079   5.612  0.5377 -0.4464 -0.5390
  348MOL0     C47899   3.152   3.119   5.524  1.0465  0.0122  0.9264
  348MOL0     C47900   3.292   3.079   5.566 -0.4235 -0.5374  1.0389
  348MOL0     C47901   3.364   3.189   5.647  0.3682  0.1071  0.3904
  348MOL0     C47902   3.471   3.140   5.742 -0.3300  0.1746 -1.9530
  348MOL0     N47903   3.577   3.057   5.684  0.4944 -0.1300  0.0559
  348MOL0     C47904   3.676   3.095   5.588  1.1170  0.0229 -0.2165
  348MOL0     C47905   3.749   2.987   5.571  0.0437 -0.0400 -0.5385
  348MOL0     C47906   3.879   2.989   5.490  0.1756 -0.3134  0.4537
  348MOL0     C47907   3.990   2.950   5.586 -0.3269 -0.2831 -0.4355
  348MOL0     C47908   4.126   2.934   5.505 -0.1463 -0.0234 -0.0512
  348MOL0     C47909   4.240   2.901   5.601  0.6791 -0.3702 -0.3808
  348MOL0     O47910   4.370   2.872   5.536  0.8785 -0.4355  0.3445
  348MOL0     C47911   4.440   2.972   5.473 -0.0686 -0.3164 -1.4524
  348MOL0     C47912   4.415   3.114   5.485 -0.0219  0.1194 -0.7017
  348MOL0     C47913   4.505   3.204   5.422  0.2784 -0.1320 -0.0906
  348MOL0     C47914   4.483   3.349   5.463 -0.2426 -0.3798 -0.1669
  348MOL0     C47915   4.613   3.154   5.338  0.4019 -0.2974 -0.4763
  348MOL0     C47916   4.719   3.245   5.281 -0.2447  0.1640 -0.1321
  348MOL0     O47917   4.698   3.372   5.278  0.1008  0.1900  0.2146
  348MOL0     C47918   4.795   3.455   5.229  0.4616  0.0202  0.4752
  348MOL0     C47919   4.882   3.435   5.117  0.6834  0.7753  0.3977
  348MOL0     C47920   4.958   3.539   5.064 -0.8535 -0.5763  0.2102
  348MOL0     C47921   4.945   3.666   5.114 -0.1810 -0.0321 -0.9123
  348MOL0     O47922   4.994   3.781   5.060 -0.9539 -0.5541 -0.4842
  348MOL0     C47923   5.111   3.752   4.979  0.2710 -0.2612 -0.1832
  348MOL0     C47924   5.161   3.894   4.952  0.6718 -0.2256  0.3047
  348MOL0     C47925   5.273   3.904   4.848  0.3795 -0.3663 -0.1070
  348MOL0     C47926   5.229   3.835   4.711 -0.1228  0.3841  0.1526
  348MOL0     C47927   5.316   3.883   4.591 -0.2125 -0.1563 -0.4460
  348MOL0     C47928   5.250   3.853   4.452  0.2715 -0.2863 -0.1761
  348MOL0     C47929   5.122   3.941   4.424  0.2024 -0.9477  0.4389
  348MOL0     C47930   5.140   4.090   4.469  0.0535  0.1644 -0.3248
  348MOL0    Cl47931   5.013   4.199   4.407  0.0318  0.4686  0.4142
  348MOL0     C47932   4.867   3.692   5.228 -0.0006  0.2801 -0.7278
  348MOL0     C47933   4.788   3.592   5.289  0.2681 -0.7788  0.5678
  348MOL0     O47934   4.825   3.176   5.263 -0.1946 -0.0666  0.7670
  348MOL0     C47935   4.622   3.014   5.317  1.0666  0.0271  0.2103
  348MOL0     C47936   4.538   2.926   5.390 -0.3890 -0.2988 -0.2819
  348MOL0     N47937   3.693   2.884   5.644 -0.3487 -0.6184  0.2638
  348MOL0     N47938   3.594   2.928   5.709 -0.2998 -0.1193  0.0259
  348MOL0     C47939   2.456   3.058   5.928  0.3827  0.7835  0.1905
  348MOL0     C47940   2.320   3.074   5.885  0.2749 -0.1813  0.0577
  348MOL0     C47941   1.930   3.149   5.698 -0.2738 -0.2221  0.2301
  348MOL0     C47942   1.918   3.268   5.624 -0.1160  0.5698 -0.1943
  348MOL0     C47943   1.807   3.297   5.554 -0.2388  0.6135  0.2348
  348MOL0     C47944   1.696   3.209   5.558 -0.8289 -0.8923  0.0744
  348MOL0     O47945   1.581   3.253   5.490 -0.6791 -0.2564 -0.2063
  348MOL0     C47946   1.473   3.171   5.464 -0.6592 -0.2499 -0.6143
  348MOL0     C47947   1.381   3.158   5.587  0.5933  0.1765 -0.5589
  348MOL0     C47948   1.272   3.062   5.558 -0.4418 -0.0155 -0.3355
  348MOL0     C47949   1.171   3.107   5.449 -0.0297 -0.6184 -0.8915
  348MOL0     C47950   1.058   3.015   5.452  0.4505  0.4727 -1.1432
  348MOL0     C47951   0.963   2.936   5.462 -0.3726 -0.2049  0.8151
  348MOL0     C47952   1.707   3.095   5.621 -0.2443 -0.0164  0.0231
  348MOL0     C47953   1.825   3.059   5.694  1.2606  0.4816 -0.0574
  348MOL0     C47954   1.832   2.919   5.751  0.1567  0.3181 -0.2389
  348MOL0     H47955   2.348   3.294   5.639  0.1600 -0.0340 -0.4872
  348MOL0     H47956   2.589   3.290   5.719  1.3410 -1.2432 -0.4666
  348MOL0     H47957   2.789   3.279   5.800  1.2336 -0.5549 -1.6736
  348MOL0     H47958   2.765   3.132   5.695  0.2583 -0.2982 -0.2871
  348MOL0     H47959   2.949   3.161   5.937  3.2941 -0.3973 -0.1045
  348MOL0     H47960   2.937   3.018   5.835 -1.1863 -0.2687  0.1353
  348MOL0     H47961   3.014   3.276   5.713 -0.6907 -0.9648 -0.6433
  348MOL0     H47962   3.122   3.154   5.796  2.0930  2.2815 -1.5548
  348MOL0     H47963   3.046   2.973   5.639 -0.7146 -0.1637  1.2640
  348MOL0     H47964   2.937   3.089   5.562 -1.3769  0.5240  3.0829
  348MOL0     H47965   3.135   3.227   5.520 -2.4624 -0.4422  0.1654
  348MOL0     H47966   3.132   3.077   5.424  1.7485  0.7054  0.4837
  348MOL0     H47967   3.292   2.982   5.618  0.7699 -1.5886 -0.8155
  348MOL0     H47968   3.348   3.064   5.474 -0.2310 -1.8518  1.3547
  348MOL0     H47969   3.287   3.239   5.706 -0.5303  0.0096 -0.6707
  348MOL0     H47970   3.404   3.264   5.578  0.7295  0.5308  1.0554
  348MOL0     H47971   3.524   3.230   5.775 -0.0239 -0.7522  0.2561
  348MOL0     H47972   3.418   3.091   5.824 -1.6990  0.2365 -2.7649
  348MOL0     H47973   3.665   3.194   5.545 -5.7134  0.2055  0.8631
  348MOL0     H47974   3.887   3.090   5.449 -2.7774 -0.3253 -0.4148
  348MOL0     H47975   3.872   2.922   5.404 -0.5961  1.4366 -0.9178
  348MOL0     H47976   4.006   3.038   5.648  1.8639  1.2214 -2.9308
  348MOL0     H47977   3.972   2.858   5.643  1.5655 -1.7311 -2.0334
  348MOL0     H47978   4.119   2.853   5.432  3.2014  0.3878 -1.0029
  348MOL0     H47979   4.153   3.024   5.448  2.5754  1.1465  2.7427
  348MOL0     H47980   4.268   2.982   5.668  0.9609 -0.9114  0.1671
  348MOL0     H47981   4.210   2.814   5.661  1.2855 -1.4715 -1.5991
  348MOL0     H47982   4.330   3.162   5.532  1.1490  1.7576 -0.1835
  348MOL0     H47983   4.429   3.410   5.390 -0.7138  2.1312  2.0755
  348MOL0     H47984   4.581   3.397   5.474 -0.5109 -0.2098  1.8865
  348MOL0     H47985   4.437   3.367   5.561  0.2648 -0.4398  0.0859
  348MOL0     H47986   4.880   3.347   5.053  0.7326  0.7194  0.4736
  348MOL0     H47987   5.005   3.527   4.967  0.2396  1.0433  0.5003
  348MOL0     H47988   5.184   3.700   5.042 -1.0509 -3.2146 -0.9245
  348MOL0     H47989   5.079   3.713   4.882  0.8860 -0.2407 -0.3993
  348MOL0     H47990   5.075   3.948   4.910  0.0668  0.1204  1.9197
  348MOL0     H47991   5.189   3.942   5.045 -0.9706 -1.0337  1.2690
  348MOL0     H47992   5.365   3.869   4.896  0.1184 -0.5992  0.2293
  348MOL0     H47993   5.279   4.010   4.824 -0.9339 -0.0697  0.7593
  348MOL0     H47994   5.124   3.857   4.690 -0.0410 -0.0671 -0.8269
  348MOL0     H47995   5.233   3.725   4.708 -2.1496  0.2682 -1.8958
  348MOL0     H47996   5.340   3.989   4.605 -2.4941  0.3411  0.1239
  348MOL0     H47997   5.410   3.827   4.592 -1.0828 -1.7046 -1.6027
  348MOL0     H47998   5.214   3.750   4.455 -0.1901 -0.1324 -0.2448
  348MOL0     H47999   5.323   3.853   4.371  0.4103  0.0983 -0.0549
  348MOL0     H48000   5.037   3.903   4.483 -0.1129 -1.6997 -0.4728
  348MOL0     H48001   5.094   3.948   4.319 -1.5994 -0.0861  0.9349
  348MOL0     H48002   5.237   4.126   4.433  0.4682 -2.2459 -1.8820
  348MOL0     H48003   5.133   4.087   4.578 -3.4984 -2.6412 -0.4437
  348MOL0     H48004   4.870   3.793   5.268 -1.5354  0.9588 -2.2287
  348MOL0     H48005   4.728   3.607   5.378  2.1178 -2.4138  2.1965
  348MOL0     H48006   4.695   2.969   5.251 -0.4011  0.4279 -1.7782
  348MOL0     H48007   4.548   2.821   5.364  3.1567  0.5288 -3.0454
  348MOL0     H48008   2.491   2.976   5.990  0.8318 -0.1163 -1.1868
  348MOL0     H48009   2.247   3.000   5.915 -0.9018  1.6999  2.1066
  348MOL0     H48010   2.000   3.339   5.630 -0.3873  1.1044 -2.1126
  348MOL0     H48011   1.803   3.388   5.496 -1.4587 -0.0084 -0.6983
  348MOL0     H48012   1.409   3.217   5.389 -2.9380 -0.7587  0.9171
  348MOL0     H48013   1.500   3.072   5.425 -0.9092 -1.1072  1.2552
  348MOL0     H48014   1.333   3.251   5.620  0.1522 -0.6112  1.1337
  348MOL0     H48015   1.441   3.126   5.672  1.1650  2.1227 -0.1672
  348MOL0     H48016   1.313   2.968   5.520 -1.9014  0.5116 -3.5210
  348MOL0     H48017   1.223   3.043   5.654 -1.9962 -0.3641 -1.1532
  348MOL0     H48018   1.213   3.107   5.348  1.3686 -0.8139 -0.3355
  348MOL0     H48019   1.126   3.207   5.460 -2.0147 -1.4535 -1.0891
  348MOL0     H48020   0.880   2.870   5.446 -0.2149  0.0652 -1.4927
  348MOL0     H48021   1.623   3.025   5.620 -0.2910  0.0247  0.7999
  348MOL0     H48022   1.928   2.878   5.718 -0.4311 -1.1617 -0.1737
  348MOL0     H48023   1.819   2.917   5.860  1.0975 -0.6175 -0.1260
  348MOL0     H48024   1.750   2.853   5.721  0.0709 -0.1633  0.9695
  349MOL0     O48025   5.152   3.966   8.677 -0.2262 -0.9301 -0.1121
  349MOL0     C48026   5.108   3.856   8.671  0.2584  0.1041  0.9034
  349MOL0     O48027   5.141   3.764   8.761 -0.5937 -0.6050 -0.1373
  349MOL0     C48028   5.259   3.779   8.826 -0.7473 -0.1476 -0.1987
  349MOL0     C48029   5.369   3.715   8.789 -0.0427  0.3912  0.1478
  349MOL0     C48030   5.482   3.718   8.872  0.0113 -0.6025 -0.3205
  349MOL0     C48031   5.478   3.781   8.999 -0.6562 -0.3395 -0.5094
  349MOL0     O48032   5.587   3.767   9.083 -0.0384 -0.0895  0.4034
  349MOL0     C48033   5.621   3.885   9.171 -0.2628  1.2544 -0.5101
  349MOL0     C48034   5.744   3.864   9.255 -0.0018 -1.7956  0.9881
  349MOL0     C48035   5.876   3.872   9.172  0.2524  0.0768 -0.1980
  349MOL0     C48036   6.008   3.849   9.247 -0.4124 -0.5678 -0.4873
  349MOL0     C48037   6.124   3.867   9.138  0.9406  0.3836 -0.1023
  349MOL0     C48038   6.259   3.868   9.206 -0.0566 -0.4606  0.1583
  349MOL0     C48039   6.376   3.869   9.107 -0.0470 -0.6012  0.2549
  349MOL0     C48040   6.507   3.886   9.191 -0.3397  0.3092 -0.1939
  349MOL0     N48041   6.553   4.031   9.207  0.1055 -0.2889  1.0505
  349MOL0     C48042   6.674   4.084   9.188  0.4698  0.1171 -0.0606
  349MOL0     C48043   6.673   4.210   9.240  0.2918  0.0368 -0.4794
  349MOL0     C48044   6.786   4.307   9.252 -0.5350 -0.1222  0.0373
  349MOL0     C48045   6.867   4.293   9.382  0.3633  0.0126  0.8192
  349MOL0     C48046   6.979   4.402   9.387 -0.0212 -0.2670 -0.4267
  349MOL0     C48047   7.119   4.346   9.384 -0.6980  0.4567 -0.1168
  349MOL0     O48048   7.157   4.282   9.511 -0.0882 -0.0408 -0.4846
  349MOL0     C48049   7.287   4.245   9.521 -0.5872  0.3002 -0.6493
  349MOL0     C48050   7.333   4.202   9.647  0.2509  0.4181  0.4349
  349MOL0     C48051   7.470   4.163   9.662  0.3842  0.4455  0.1271
  349MOL0     C48052   7.510   4.114   9.799  0.4190 -0.1733 -0.1564
  349MOL0     C48053   7.555   4.166   9.552  0.3855  0.0827 -0.3093
  349MOL0     C48054   7.699   4.126   9.551  0.0912 -0.0043  0.3803
  349MOL0     O48055   7.765   4.115   9.429  0.2612  0.5237 -0.4624
  349MOL0     C48056   7.875   4.026   9.425  0.3942 -0.7829  0.3112
  349MOL0     C48057   7.980   4.067   9.336 -1.0698 -0.1280 -0.1057
  349MOL0     C48058   8.107   3.999   9.344 -0.7703 -0.1255  0.7138
  349MOL0     C48059   8.126   3.901   9.444 -0.9532 -0.5878  0.4360
  349MOL0     O48060   8.246   3.836   9.458 -0.0172 -0.5295  0.1532
  349MOL0     C48061   8.370   3.901   9.435 -0.0755 -0.0176  0.3933
  349MOL0     C48062   8.414   3.853   9.300  0.2463  0.1228  0.4000
  349MOL0     C48063   8.563   3.869   9.273  0.0888 -0.0297 -0.2925
  349MOL0     C48064   8.646   3.778   9.366 -0.0694 -0.5793 -0.0872
  349MOL0     C48065   8.797   3.812   9.344 -0.7880 -0.3151  0.1720
  349MOL0     C48066   8.897   3.752   9.441 -0.7190  0.4176  0.5499
  349MOL0     C48067   9.042   3.789   9.406 -0.6952  0.1874 -0.8399
  349MOL0     C48068   9.137   3.728   9.508  0.1926  0.0129 -0.9010
  349MOL0    Cl48069   9.269   3.849   9.564 -0.6490  0.0952  0.3699
  349MOL0     C48070   8.018   3.855   9.519 -0.0303 -0.9990  0.6235
  349MOL0     C48071   7.899   3.922   9.516 -0.2034 -0.1537 -0.7872
  349MOL0     O48072   7.751   4.122   9.659  0.1817  0.7468 -0.2444
  349MOL0     C48073   7.507   4.209   9.430  1.0944  0.8510 -0.4457
  349MOL0     C48074   7.376   4.242   9.414 -0.1583 -0.2779  0.5070
  349MOL0     N48075   6.543   4.229   9.298 -0.0355 -0.5746 -0.1703
  349MOL0     N48076   6.478   4.121   9.276  0.4781  0.1022  0.6387
  349MOL0     C48077   5.358   3.849   9.041  0.4821  0.3034 -0.1663
  349MOL0     C48078   5.249   3.846   8.948  0.1369  0.5648 -1.3809
  349MOL0     C48079   5.002   3.825   8.568  0.4193  0.1011 -0.1520
  349MOL0     C48080   4.925   3.705   8.589  1.0549  0.1369 -0.2158
  349MOL0     C48081   4.827   3.657   8.505 -0.8110  0.4396  0.6329
  349MOL0     C48082   4.791   3.740   8.395 -0.4529 -0.7530  0.4136
  349MOL0     O48083   4.710   3.683   8.304  0.1697  0.3003  0.9115
  349MOL0     C48084   4.664   3.762   8.188  0.4531 -0.1180  0.1381
  349MOL0     C48085   4.536   3.714   8.129  0.7394  0.2113 -0.0699
  349MOL0     C48086   4.540   3.561   8.098 -0.0442  0.4913  0.2771
  349MOL0     C48087   4.425   3.517   8.012  0.3004  0.1058  0.0275
  349MOL0     C48088   4.445   3.386   7.972 -0.7041  0.1549  1.8276
  349MOL0     C48089   4.468   3.275   7.919 -2.0694  0.2416  0.0879
  349MOL0     C48090   4.839   3.875   8.385 -0.2083  0.5284 -0.0136
  349MOL0     C48091   4.946   3.913   8.465 -0.0921  0.5571 -1.3368
  349MOL0     C48092   5.000   4.051   8.456  0.2929 -0.3486  0.2657
  349MOL0     H48093   5.359   3.646   8.706  0.0648  0.0757  0.3958
  349MOL0     H48094   5.576   3.668   8.853 -0.3493 -1.2686 -0.3894
  349MOL0     H48095   5.541   3.880   9.246  1.1164 -1.1221  0.9294
  349MOL0     H48096   5.614   3.977   9.112 -2.6820 -0.1553 -2.6634
  349MOL0     H48097   5.743   3.940   9.334  0.7956  0.5962 -1.1910
  349MOL0     H48098   5.733   3.766   9.303  1.3238 -2.5581 -0.1816
  349MOL0     H48099   5.868   3.802   9.089 -0.8950 -3.5629  2.7235
  349MOL0     H48100   5.880   3.974   9.131  1.0013  0.3043  0.4107
  349MOL0     H48101   6.017   3.927   9.323 -1.6357  2.1452 -2.8886
  349MOL0     H48102   6.004   3.749   9.290 -0.6157  0.5429  2.2619
  349MOL0     H48103   6.109   3.957   9.078 -0.9833 -0.4644 -0.9601
  349MOL0     H48104   6.104   3.785   9.070 -0.9509  0.7649 -0.0420
  349MOL0     H48105   6.260   3.951   9.278 -3.6496 -0.6604  0.6529
  349MOL0     H48106   6.257   3.773   9.260  1.4133 -1.3124 -1.2267
  349MOL0     H48107   6.378   3.946   9.029  4.1798  0.4306  1.1196
  349MOL0     H48108   6.377   3.777   9.049  1.1462 -0.4947  0.0795
  349MOL0     H48109   6.497   3.830   9.284  0.8204 -0.5559 -0.5594
  349MOL0     H48110   6.590   3.831   9.145 -0.6673 -0.7635  0.4893
  349MOL0     H48111   6.756   4.026   9.147  2.0331  2.6974 -0.8031
  349MOL0     H48112   6.746   4.409   9.243 -1.1497 -0.5057 -2.2289
  349MOL0     H48113   6.855   4.287   9.170  0.5676  2.3031  0.2748
  349MOL0     H48114   6.802   4.314   9.467  2.1267  0.5175  2.1026
  349MOL0     H48115   6.908   4.191   9.384  1.1316  0.3100  0.5654
  349MOL0     H48116   6.965   4.474   9.306 -4.0326  0.6159  0.8526
  349MOL0     H48117   6.975   4.471   9.472 -2.8406  1.9136 -2.1429
  349MOL0     H48118   7.126   4.275   9.301 -0.5107  0.1570  0.1522
  349MOL0     H48119   7.188   4.427   9.360 -0.7202  0.5703  0.2056
  349MOL0     H48120   7.257   4.186   9.723 -2.0297 -2.5622 -2.1987
  349MOL0     H48121   7.586   4.172   9.852  2.6356 -3.6882  0.8776
  349MOL0     H48122   7.535   4.007   9.803  0.8507 -0.0723 -0.1297
  349MOL0     H48123   7.423   4.119   9.865  0.3771  1.2775 -0.2990
  349MOL0     H48124   7.971   4.149   9.266  2.0479 -1.1387 -1.9182
  349MOL0     H48125   8.173   4.027   9.263 -3.2924  1.2870 -0.9984
  349MOL0     H48126   8.373   4.011   9.439 -0.0188  0.0264 -0.5649
  349MOL0     H48127   8.416   3.852   9.521 -2.3634 -1.6586  0.7878
  349MOL0     H48128   8.381   3.751   9.282 -3.7519  1.5006 -1.2160
  349MOL0     H48129   8.363   3.911   9.222  2.3936  1.3149 -0.1899
  349MOL0     H48130   8.588   3.976   9.276 -0.6853  0.1645  3.2368
  349MOL0     H48131   8.582   3.828   9.174 -1.7831  0.3771 -0.8484
  349MOL0     H48132   8.622   3.673   9.346 -2.0792 -0.0477 -0.6872
  349MOL0     H48133   8.616   3.794   9.469  1.4067  0.7526  0.1814
  349MOL0     H48134   8.831   3.798   9.241  0.6787  2.1008  0.2422
  349MOL0     H48135   8.804   3.921   9.350 -1.5042 -0.2770  0.4295
  349MOL0     H48136   8.881   3.644   9.451  1.1601  0.2293  1.9770
  349MOL0     H48137   8.884   3.793   9.541  0.7170  1.8964  0.1713
  349MOL0     H48138   9.038   3.899   9.405 -1.2680  0.1709 -1.8242
  349MOL0     H48139   9.074   3.749   9.309  1.1697  0.5555 -0.4070
  349MOL0     H48140   9.185   3.643   9.458 -0.0159 -0.2731 -0.6173
  349MOL0     H48141   9.079   3.683   9.589 -0.3275  0.7522 -0.8505
  349MOL0     H48142   8.026   3.776   9.593  1.0710 -0.1627  1.4294
  349MOL0     H48143   7.817   3.890   9.580 -0.7625  0.1528 -1.3430
  349MOL0     H48144   7.565   4.213   9.338 -0.3122 -0.1512 -1.4102
  349MOL0     H48145   7.347   4.271   9.314 -0.7887 -0.0883  0.7438
  349MOL0     H48146   5.335   3.892   9.138  2.1460 -1.6674  1.1941
  349MOL0     H48147   5.156   3.888   8.984  1.0484 -0.6688  3.0543
  349MOL0     H48148   4.967   3.636   8.661 -1.4439  0.5588  1.7782
  349MOL0     H48149   4.801   3.553   8.525  4.0219 -1.3491 -0.9608
  349MOL0     H48150   4.646   3.865   8.220 -0.6426 -0.7829  1.7608
  349MOL0     H48151   4.748   3.758   8.118  1.0392  0.1818  0.8123
  349MOL0     H48152   4.500   3.767   8.041 -0.8440 -0.0462  0.3938
  349MOL0     H48153   4.452   3.729   8.197  0.3095  0.8682 -0.7301
  349MOL0     H48154   4.637   3.541   8.052 -1.0294  0.9091 -2.1444
  349MOL0     H48155   4.534   3.507   8.193  0.2075  0.2487  0.1574
  349MOL0     H48156   4.421   3.586   7.926  2.6668 -0.7447 -0.8462
  349MOL0     H48157   4.333   3.531   8.070 -0.3981 -0.0206 -1.0109
  349MOL0     H48158   4.503   3.178   7.891 -0.5299  1.4752 -2.6550
  349MOL0     H48159   4.801   3.952   8.318 -0.3551 -1.8960 -2.9737
  349MOL0     H48160   4.988   4.092   8.556 -1.4239 -0.1802  0.0256
  349MOL0     H48161   5.107   4.045   8.434  0.0531 -1.7952 -0.6385
  349MOL0     H48162   4.951   4.120   8.388 -0.7629 -2.2262 -0.9752
  350MOL0     O48163   9.585   2.303   1.689 -1.0251  0.6489 -0.3798
  350MOL0     C48164   9.539   2.330   1.579 -0.6720  0.8588  1.0179
  350MOL0     O48165   9.614   2.364   1.468 -0.0156  0.6185 -0.1219
  350MOL0     C48166   9.749   2.332   1.465  0.4021  0.8555  0.4565
  350MOL0     C48167   9.849   2.385   1.554 -0.4269 -0.2565 -0.3261
  350MOL0     C48168   9.982   2.341   1.553 -0.7353  0.0426  0.7012
  350MOL0     C48169  10.017   2.248   1.453  0.1087  0.4401 -0.0400
  350MOL0     O48170  10.147   2.212   1.436 -0.5686  0.1850  0.4745
  350MOL0     C48171  10.191   2.089   1.498  0.4172  0.9021  0.9730
  350MOL0     C48172  10.266   2.001   1.406 -0.1179  0.2559  0.2172
  350MOL0     C48173  10.175   1.900   1.335 -0.1348 -1.0617  0.4410
  350MOL0     C48174  10.262   1.805   1.240 -0.4359 -0.0589 -0.2274
  350MOL0     C48175  10.178   1.675   1.232 -0.3550 -0.2850 -0.1091
  350MOL0     C48176  10.253   1.562   1.157  0.6779  0.8076 -0.6317
  350MOL0     C48177  10.169   1.436   1.194 -0.9207 -0.7732 -0.5612
  350MOL0     C48178  10.223   1.313   1.126 -0.0980 -0.1478 -0.4322
  350MOL0     N48179  10.359   1.280   1.170  0.0211 -0.5442  0.3515
  350MOL0     C48180  10.394   1.233   1.287 -0.0685 -0.3087 -0.6903
  350MOL0     C48181  10.533   1.229   1.273 -0.1780 -0.1117 -0.4045
  350MOL0     C48182  10.626   1.169   1.384 -0.1807  0.0370  0.7190
  350MOL0     C48183  10.738   1.076   1.320  0.3623  0.0970  0.4101
  350MOL0     C48184  10.871   1.147   1.318 -0.6504 -0.2814 -0.2373
  350MOL0     C48185  10.988   1.062   1.295  0.1390  0.6326  0.0400
  350MOL0     O48186  11.108   1.133   1.278 -0.0525 -0.5924 -0.6509
  350MOL0     C48187  11.222   1.060   1.245 -0.1250 -0.2599  0.4497
  350MOL0     C48188  11.217   0.927   1.212  0.2892  0.7056  0.6477
  350MOL0     C48189  11.331   0.857   1.162  0.5709  0.3950 -0.2809
  350MOL0     C48190  11.319   0.710   1.124 -0.5515  0.2283 -0.4003
  350MOL0     C48191  11.451   0.925   1.146  0.4103  0.2672  0.5731
  350MOL0     C48192  11.576   0.859   1.109 -0.1146  0.7668  0.4191
  350MOL0     O48193  11.671   0.874   1.204  0.5820  0.2174 -0.1526
  350MOL0     C48194  11.802   0.841   1.171  0.5952 -0.8126  0.0143
  350MOL0     C48195  11.868   0.741   1.238 -0.1066 -0.3043  0.2585
  350MOL0     C48196  11.998   0.706   1.208 -0.6650 -0.3284  0.2888
  350MOL0     C48197  12.060   0.784   1.112 -0.4134 -0.4310  0.4353
  350MOL0     O48198  12.193   0.765   1.085  0.3781 -0.2092  0.6489
  350MOL0     C48199  12.267   0.654   1.149 -0.8665  0.0874 -0.8589
  350MOL0     C48200  12.398   0.640   1.082 -0.7625 -0.1447  0.0945
  350MOL0     C48201  12.481   0.759   1.116 -0.3544 -0.4574 -0.5537
  350MOL0     C48202  12.619   0.740   1.047 -0.2082 -0.6115  0.7553
  350MOL0     C48203  12.712   0.863   1.056 -1.1689  0.0411  0.0805
  350MOL0     C48204  12.759   0.891   1.198 -0.0457 -0.5544 -1.0543
  350MOL0     C48205  12.844   1.011   1.205 -0.2024  0.2340  0.6571
  350MOL0     C48206  12.934   1.016   1.320  0.3761 -1.0589 -0.4450
  350MOL0    Cl48207  12.824   1.027   1.464  0.0281  0.2844 -0.0774
  350MOL0     C48208  11.983   0.878   1.035 -0.1234  0.9746 -0.2290
  350MOL0     C48209  11.849   0.903   1.062  0.0185 -0.7275  0.1506
  350MOL0     O48210  11.583   0.787   1.008 -0.1691  0.2419 -0.8503
  350MOL0     C48211  11.462   1.062   1.188  1.2413 -0.4783  0.1431
  350MOL0     C48212  11.343   1.125   1.227 -0.1332  0.2824  0.2103
  350MOL0     N48213  10.581   1.294   1.162  0.7548  0.2539 -0.1363
  350MOL0     N48214  10.471   1.304   1.087 -0.0226 -0.1684 -0.5175
  350MOL0     C48215   9.918   2.193   1.373  0.9257 -0.9993  0.5538
  350MOL0     C48216   9.782   2.226   1.377  0.0803 -0.5373  0.5471
  350MOL0     C48217   9.391   2.339   1.564  0.2304 -0.3379 -0.4963
  350MOL0     C48218   9.344   2.418   1.453  0.3709  0.4349 -0.1429
  350MOL0     C48219   9.210   2.418   1.421 -0.7700 -0.2960 -0.4185
  350MOL0     C48220   9.112   2.360   1.508  0.5618 -0.4669 -0.7182
  350MOL0     O48221   8.977   2.369   1.494 -0.4629 -1.1045  0.4969
  350MOL0     C48222   8.937   2.477   1.412 -0.0849 -0.7780  0.0202
  350MOL0     C48223   8.798   2.508   1.455 -1.0005 -0.3781  0.3561
  350MOL0     C48224   8.688   2.401   1.426  0.3672 -0.1503 -0.4808
  350MOL0     C48225   8.653   2.392   1.274  0.2883 -0.1003  0.3749
  350MOL0     C48226   8.611   2.522   1.228 -0.5132 -0.4101  0.2005
  350MOL0     C48227   8.577   2.631   1.178 -1.0010  0.4989  0.6295
  350MOL0     C48228   9.161   2.293   1.620 -0.2129  0.2488 -0.7140
  350MOL0     C48229   9.295   2.283   1.649 -0.2027 -0.5715 -0.1528
  350MOL0     C48230   9.327   2.212   1.774 -0.2107 -0.4486  0.4995
  350MOL0     H48231   9.824   2.469   1.617 -1.0569 -0.0547 -0.8319
  350MOL0     H48232  10.057   2.401   1.602  0.0350  1.4519 -2.0179
  350MOL0     H48233  10.114   2.029   1.549  1.1146 -0.5835  0.3451
  350MOL0     H48234  10.251   2.124   1.583 -0.1879 -0.4940  2.0290
  350MOL0     H48235  10.326   2.056   1.333  0.5770  1.5216  1.7038
  350MOL0     H48236  10.343   1.941   1.456  0.4935 -0.0043 -0.9814
  350MOL0     H48237  10.119   1.838   1.407 -0.2115  0.2666  1.5721
  350MOL0     H48238  10.101   1.958   1.280  0.0158 -1.2700  0.0173
  350MOL0     H48239  10.273   1.856   1.144  0.2371 -0.7313 -0.5145
  350MOL0     H48240  10.364   1.789   1.276  0.0530  0.0111 -1.5273
  350MOL0     H48241  10.079   1.701   1.193 -0.6129  0.6252  1.0978
  350MOL0     H48242  10.176   1.639   1.335  2.1311 -0.9052 -0.1923
  350MOL0     H48243  10.270   1.575   1.050 -2.6865 -0.5985 -1.4707
  350MOL0     H48244  10.346   1.556   1.215  0.5178  0.1366 -0.4362
  350MOL0     H48245  10.064   1.454   1.170 -0.5860  3.2380  0.3664
  350MOL0     H48246  10.181   1.414   1.301 -1.2040  0.3702 -0.2813
  350MOL0     H48247  10.156   1.231   1.152 -0.2156  0.5614  1.6735
  350MOL0     H48248  10.229   1.323   1.017  0.2042  0.8273 -0.3336
  350MOL0     H48249  10.334   1.200   1.372 -0.4531 -2.3033 -1.6780
  350MOL0     H48250  10.572   1.116   1.463  0.6530  0.4124  1.5619
  350MOL0     H48251  10.682   1.240   1.445 -0.4940  0.6483  0.3029
  350MOL0     H48252  10.734   0.979   1.369 -2.2480  1.8702  4.1779
  350MOL0     H48253  10.716   1.054   1.215 -0.7182  0.2130  0.6020
  350MOL0     H48254  10.871   1.213   1.231 -2.4582 -1.4035 -1.1486
  350MOL0     H48255  10.892   1.195   1.414  0.5334  0.6436 -0.9339
  350MOL0     H48256  11.006   0.992   1.377  0.7370 -0.3532 -0.9024
  350MOL0     H48257  10.961   0.990   1.216  0.7745 -1.1351  1.3625
  350MOL0     H48258  11.124   0.870   1.216  1.3633 -1.4562 -1.8633
  350MOL0     H48259  11.215   0.678   1.139 -1.9595  4.2415 -0.5927
  350MOL0     H48260  11.392   0.650   1.181  1.8589  0.4013 -3.0839
  350MOL0     H48261  11.345   0.698   1.019  3.2937 -0.3449  0.4288
  350MOL0     H48262  11.815   0.709   1.328 -2.3324 -0.6708 -1.1231
  350MOL0     H48263  12.040   0.633   1.278 -0.3869  0.0139  0.4829
  350MOL0     H48264  12.272   0.672   1.256 -2.3426 -1.4223 -0.4846
  350MOL0     H48265  12.216   0.560   1.124  2.1156 -1.8124 -0.3486
  350MOL0     H48266  12.461   0.553   1.100 -0.1350 -0.1096 -1.6838
  350MOL0     H48267  12.364   0.640   0.977 -2.2602 -1.3001  0.5371
  350MOL0     H48268  12.496   0.761   1.224 -1.4433 -1.5381 -0.3537
  350MOL0     H48269  12.432   0.854   1.092  0.6105  0.1483 -0.2172
  350MOL0     H48270  12.609   0.709   0.943  1.9497  0.5594  0.1350
  350MOL0     H48271  12.677   0.656   1.087  4.0246  0.1600 -2.8857
  350MOL0     H48272  12.796   0.855   0.986 -0.7984  1.2221  0.3740
  350MOL0     H48273  12.652   0.946   1.017 -1.2401  0.0669  0.2450
  350MOL0     H48274  12.825   0.812   1.238  0.1892  0.7757  1.4106
  350MOL0     H48275  12.669   0.901   1.259 -0.9197 -3.4190 -1.7369
  350MOL0     H48276  12.779   1.098   1.212 -4.5347 -2.4970 -1.2686
  350MOL0     H48277  12.901   1.017   1.112  1.4092  1.1786  1.6761
  350MOL0     H48278  12.999   1.104   1.321 -0.1321 -0.6570  1.5098
  350MOL0     H48279  12.998   0.929   1.333 -0.7656 -2.1190 -1.6828
  350MOL0     H48280  12.036   0.915   0.948  0.8819 -1.5084 -0.7527
  350MOL0     H48281  11.778   0.955   0.999 -0.6944 -2.1778 -0.2799
  350MOL0     H48282  11.555   1.118   1.184  1.4139 -0.7412  0.4731
  350MOL0     H48283  11.335   1.230   1.251 -4.2709  0.9933 -3.2691
  350MOL0     H48284   9.955   2.118   1.303 -1.4735 -0.3711 -1.5326
  350MOL0     H48285   9.711   2.171   1.317 -0.2744  0.8036 -0.3022
  350MOL0     H48286   9.408   2.473   1.386 -0.3527  0.8552 -0.5068
  350MOL0     H48287   9.167   2.470   1.335 -2.9363  1.3448  1.5292
  350MOL0     H48288   9.003   2.558   1.442  1.8005 -2.8492  1.8395
  350MOL0     H48289   8.943   2.450   1.306 -1.4455  1.9606 -0.8277
  350MOL0     H48290   8.770   2.606   1.415  0.8338 -0.2685 -0.8126
  350MOL0     H48291   8.801   2.523   1.563  0.5269 -1.3099  0.4750
  350MOL0     H48292   8.717   2.306   1.472  0.5359 -0.3496 -0.9891
  350MOL0     H48293   8.596   2.436   1.475 -0.5023 -1.3573 -1.1699
  350MOL0     H48294   8.563   2.333   1.250  0.0303  0.4203  0.0572
  350MOL0     H48295   8.738   2.348   1.221 -0.4845 -0.8792 -0.2574
  350MOL0     H48296   8.581   2.733   1.144  0.6771  0.1548 -0.3414
  350MOL0     H48297   9.087   2.272   1.696 -1.0871  0.5568 -1.4504
  350MOL0     H48298   9.375   2.290   1.834  1.5023  1.4038 -2.9859
  350MOL0     H48299   9.235   2.166   1.812  0.1585 -1.5057  0.1376
  350MOL0     H48300   9.401   2.136   1.748 -0.2149 -0.6236  0.9881
  351MOL0     O48301   7.561   3.210   2.841  0.1864  0.3336 -0.1961
  351MOL0     C48302   7.491   3.114   2.833 -0.4569  0.5389  0.4256
  351MOL0     O48303   7.543   2.988   2.802  0.1105 -0.5779 -0.6093
  351MOL0     C48304   7.678   2.983   2.787  0.6586 -0.2213 -1.0398
  351MOL0     C48305   7.734   3.041   2.670  0.8675  0.4284 -0.3489
  351MOL0     C48306   7.863   3.038   2.651 -0.3090 -0.3071 -0.6593
  351MOL0     C48307   7.954   2.982   2.743  0.0197 -0.6451 -0.7222
  351MOL0     O48308   8.095   2.983   2.733  0.2887 -0.1460  0.2880
  351MOL0     C48309   8.135   2.960   2.599  0.0943  0.3974  0.1129
  351MOL0     C48310   8.283   2.937   2.594 -0.0874  0.0995  0.5694
  351MOL0     C48311   8.351   3.058   2.650  0.4582 -0.3448  0.0355
  351MOL0     C48312   8.494   3.040   2.622  0.7041  0.1449  0.4211
  351MOL0     C48313   8.572   3.144   2.697  0.1185  0.7171 -0.2971
  351MOL0     C48314   8.717   3.116   2.676 -0.4298 -0.0408 -0.1021
  351MOL0     C48315   8.809   3.208   2.762 -0.3305 -0.4738 -0.8174
  351MOL0     C48316   8.773   3.198   2.911 -0.4145 -0.1840 -0.3361
  351MOL0     N48317   8.883   3.235   2.998 -1.0789  0.8851  0.5448
  351MOL0     C48318   8.932   3.356   3.019  0.1001  0.0540  0.0758
  351MOL0     C48319   8.997   3.346   3.138 -0.3186 -0.8374 -0.1809
  351MOL0     C48320   9.049   3.465   3.220  0.6784 -0.2609 -0.0879
  351MOL0     C48321   9.181   3.428   3.295  0.0102  0.0995 -0.9514
  351MOL0     C48322   9.271   3.317   3.220 -0.0252 -0.3369  0.2523
  351MOL0     C48323   9.415   3.324   3.267  0.2558 -0.6731  0.5697
  351MOL0     O48324   9.409   3.271   3.403 -0.1629 -0.1102 -0.2810
  351MOL0     C48325   9.518   3.215   3.459 -0.5483  0.0438 -0.5007
  351MOL0     C48326   9.497   3.165   3.592  0.1941 -0.9216  0.5371
  351MOL0     C48327   9.605   3.124   3.671  0.1064 -0.1499  0.3853
  351MOL0     C48328   9.581   3.078   3.814  0.2245 -0.0508  0.6254
  351MOL0     C48329   9.731   3.110   3.607  0.2070 -0.8191 -0.2100
  351MOL0     C48330   9.852   3.061   3.674 -0.4816  0.3678 -0.8285
  351MOL0     O48331   9.930   2.984   3.595  0.1982  0.6490  0.6177
  351MOL0     C48332  10.067   2.971   3.607  0.2984  0.5815  0.6136
  351MOL0     C48333  10.138   3.092   3.616  0.1607  0.7038  0.6350
  351MOL0     C48334  10.278   3.091   3.599 -0.1956  0.7357  0.2083
  351MOL0     C48335  10.349   2.978   3.572  0.4903 -0.3099  0.0434
  351MOL0     O48336  10.482   3.001   3.534  0.7564  0.3290  0.3892
  351MOL0     C48337  10.526   2.925   3.416 -0.5332  0.3061  0.1481
  351MOL0     C48338  10.680   2.922   3.405  0.2599  0.6158  0.2865
  351MOL0     C48339  10.731   3.066   3.382  0.0029 -0.6827  0.4574
  351MOL0     C48340  10.879   3.056   3.334  0.3309 -0.0745 -0.0154
  351MOL0     C48341  10.946   3.195   3.341 -0.3319 -0.0177 -0.4858
  351MOL0     C48342  11.089   3.171   3.298  0.3448  0.2198 -0.1994
  351MOL0     C48343  11.176   3.297   3.302  0.5055  1.1640  0.3483
  351MOL0     C48344  11.293   3.296   3.196 -0.1659 -0.2660  1.1289
  351MOL0    Cl48345  11.397   3.162   3.220 -0.3134 -0.2848 -0.3793
  351MOL0     C48346  10.272   2.864   3.558  0.5830  0.5284  0.1059
  351MOL0     C48347  10.139   2.850   3.579  0.6808 -0.3959  0.0084
  351MOL0     O48348   9.877   3.098   3.787 -0.6520  0.0720  0.0771
  351MOL0     C48349   9.748   3.141   3.468 -0.1196 -0.0884 -0.0849
  351MOL0     C48350   9.646   3.206   3.401  0.0802 -0.4293  0.0081
  351MOL0     N48351   8.982   3.214   3.193 -0.9919 -1.5080 -0.1705
  351MOL0     N48352   8.922   3.154   3.103  0.1317  0.0205  1.1013
  351MOL0     C48353   7.894   2.912   2.851  0.1800  0.1548  0.0609
  351MOL0     C48354   7.759   2.919   2.880  0.5669 -0.2096 -0.0728
  351MOL0     C48355   7.346   3.127   2.850  0.2407  0.1568 -0.1379
  351MOL0     C48356   7.263   3.024   2.805 -0.4192 -0.4107  0.2129
  351MOL0     C48357   7.126   3.032   2.825  0.4239  0.3351  0.4503
  351MOL0     C48358   7.063   3.147   2.872  0.3998 -0.4714  0.1477
  351MOL0     O48359   6.922   3.144   2.887  0.7228  0.0535 -0.3457
  351MOL0     C48360   6.865   3.250   2.964 -0.3638 -0.5905  0.0254
  351MOL0     C48361   6.721   3.211   3.001  0.2994  0.6308 -0.2756
  351MOL0     C48362   6.700   3.134   3.135 -0.2212  0.0888 -0.1332
  351MOL0     C48363   6.809   3.025   3.162  0.5839  0.2433 -0.3067
  351MOL0     C48364   6.807   2.924   3.057  0.5513  0.1064 -0.0503
  351MOL0     C48365   6.795   2.847   2.963 -0.3254 -0.2809  0.4912
  351MOL0     C48366   7.149   3.251   2.906  0.3924  0.3908  0.2070
  351MOL0     C48367   7.286   3.244   2.902  0.2314  0.0751 -0.1006
  351MOL0     C48368   7.371   3.366   2.949  0.6780  0.5707  0.1229
  351MOL0     H48369   7.670   3.080   2.592 -1.0809 -0.8531  0.5208
  351MOL0     H48370   7.889   3.092   2.561 -0.7535  1.5895  0.3033
  351MOL0     H48371   8.107   3.049   2.542  0.5720  1.4743  1.4995
  351MOL0     H48372   8.075   2.880   2.555 -0.0424  1.9189 -2.7194
  351MOL0     H48373   8.312   2.850   2.655  2.3855  0.9895  0.7620
  351MOL0     H48374   8.307   2.904   2.492 -0.6316 -0.4345  0.6054
  351MOL0     H48375   8.318   3.155   2.614 -1.3560 -1.0590 -0.2970
  351MOL0     H48376   8.333   3.060   2.758  0.2505  3.8801  0.0926
  351MOL0     H48377   8.531   2.942   2.654  2.5769  0.7807  0.3443
  351MOL0     H48378   8.516   3.061   2.517  1.5793  0.4383  0.6533
  351MOL0     H48379   8.531   3.140   2.798 -2.2248  0.7357 -1.1761
  351MOL0     H48380   8.553   3.243   2.653  1.6786  1.6262  0.9524
  351MOL0     H48381   8.741   3.014   2.709 -1.9423 -0.9893 -1.7538
  351MOL0     H48382   8.735   3.117   2.568 -1.4240 -1.8284 -0.3247
  351MOL0     H48383   8.805   3.313   2.730 -3.3768 -0.3163 -0.2373
  351MOL0     H48384   8.915   3.194   2.740 -0.7794 -1.0404 -2.8412
  351MOL0     H48385   8.682   3.255   2.930  0.2645  1.5313 -1.9073
  351MOL0     H48386   8.741   3.096   2.933 -4.2196  1.2516  1.6643
  351MOL0     H48387   8.908   3.445   2.962 -2.4514  0.1292  1.1271
  351MOL0     H48388   8.976   3.512   3.286  1.1292  2.4352 -1.3681
  351MOL0     H48389   9.068   3.548   3.151 -1.3624  0.8115  0.5824
  351MOL0     H48390   9.238   3.520   3.311 -0.0021  0.4763 -2.8199
  351MOL0     H48391   9.159   3.392   3.396  2.0092 -1.0168 -0.8619
  351MOL0     H48392   9.227   3.219   3.238 -1.4726  0.4443  1.2066
  351MOL0     H48393   9.270   3.339   3.113  0.1679  2.0627  0.6902
  351MOL0     H48394   9.472   3.253   3.205  0.9807  0.1459  0.2698
  351MOL0     H48395   9.461   3.422   3.258  2.4023 -1.7440 -1.0455
  351MOL0     H48396   9.403   3.171   3.646  0.0501 -0.7260  0.2637
  351MOL0     H48397   9.475   3.086   3.841 -0.0496  2.9675 -0.9602
  351MOL0     H48398   9.642   3.143   3.877 -2.8169  3.2712  0.4641
  351MOL0     H48399   9.610   2.973   3.828 -1.9804 -0.5779  1.7939
  351MOL0     H48400  10.096   3.193   3.614  0.6133  0.8986 -1.2105
  351MOL0     H48401  10.336   3.183   3.597  1.0693 -0.0273  0.4277
  351MOL0     H48402  10.499   2.819   3.419  1.8705 -0.3610  0.9831
  351MOL0     H48403  10.481   2.962   3.323 -2.0181  0.5466  0.9387
  351MOL0     H48404  10.709   2.875   3.499  3.0879 -0.8845 -1.1994
  351MOL0     H48405  10.700   2.857   3.320 -0.7617  0.1748  0.3662
  351MOL0     H48406  10.724   3.115   3.480 -1.1028  0.6826 -0.2854
  351MOL0     H48407  10.678   3.128   3.310  0.9493  1.3766  1.4500
  351MOL0     H48408  10.877   3.020   3.230 -4.4569 -1.5097  0.3697
  351MOL0     H48409  10.938   2.977   3.383 -1.1452 -1.6276 -0.6237
  351MOL0     H48410  10.905   3.270   3.272  1.5422  1.5984  0.0452
  351MOL0     H48411  10.948   3.239   3.441 -1.3465 -0.4846 -0.2519
  351MOL0     H48412  11.095   3.131   3.196 -0.1333  0.4876 -0.3389
  351MOL0     H48413  11.146   3.100   3.358  2.0076  0.0045 -1.9114
  351MOL0     H48414  11.206   3.305   3.407 -3.2190 -0.1942  1.7038
  351MOL0     H48415  11.110   3.382   3.280 -1.9498 -0.7284  0.0396
  351MOL0     H48416  11.347   3.390   3.184  0.0232 -0.4674  0.3457
  351MOL0     H48417  11.246   3.287   3.098 -0.7337  0.5577  1.3114
  351MOL0     H48418  10.327   2.776   3.527 -0.3528  0.0739 -0.2852
  351MOL0     H48419  10.088   2.755   3.573 -1.0662  0.4759  0.3419
  351MOL0     H48420   9.852   3.135   3.438  0.9585 -0.3004  3.2408
  351MOL0     H48421   9.659   3.247   3.301  0.5551 -1.8644 -0.5546
  351MOL0     H48422   7.965   2.853   2.908  0.4373 -1.2835 -1.6477
  351MOL0     H48423   7.702   2.869   2.957 -2.4846  0.1789 -1.9108
  351MOL0     H48424   7.301   2.928   2.770  0.9049  0.0313  0.3805
  351MOL0     H48425   7.063   2.950   2.793  0.0962  0.1821  1.4605
  351MOL0     H48426   6.928   3.268   3.052 -0.1447  0.6513 -0.3705
  351MOL0     H48427   6.869   3.338   2.900  2.1192 -0.7715 -0.1882
  351MOL0     H48428   6.669   3.160   2.919  2.5677  0.0228 -1.4054
  351MOL0     H48429   6.672   3.306   3.022  1.2463  1.1760 -0.4714
  351MOL0     H48430   6.726   3.209   3.210 -0.0590 -1.3272  1.2791
  351MOL0     H48431   6.597   3.102   3.151 -0.1128  0.9328  2.8635
  351MOL0     H48432   6.792   2.990   3.264  0.6501  0.9478 -0.0448
  351MOL0     H48433   6.910   3.068   3.166  0.9449  0.0937 -4.0791
  351MOL0     H48434   6.785   2.794   2.871 -1.7419  1.6281 -0.5296
  351MOL0     H48435   7.113   3.342   2.954 -0.8116  0.3543 -0.5948
  351MOL0     H48436   7.423   3.407   2.862 -0.7119  0.8588 -0.6033
  351MOL0     H48437   7.303   3.444   2.984 -0.6135 -0.7942  0.7545
  351MOL0     H48438   7.437   3.352   3.036  0.8095  1.4406  0.1740
  352MOL0     O48439  10.709   3.637   3.704 -0.2279 -0.4275 -0.1132
  352MOL0     C48440  10.681   3.517   3.691 -0.0850 -0.1726  0.2519
  352MOL0     O48441  10.749   3.429   3.608  0.0242 -0.6544 -0.3590
  352MOL0     C48442  10.870   3.481   3.562 -0.1741  1.2620 -0.4982
  352MOL0     C48443  10.885   3.577   3.463 -0.1659 -0.1967 -0.0049
  352MOL0     C48444  11.016   3.629   3.427  0.4963 -0.1613  0.5843
  352MOL0     C48445  11.129   3.582   3.490 -0.0768 -0.1335 -0.4468
  352MOL0     O48446  11.243   3.622   3.438 -0.7300 -0.1275 -0.1604
  352MOL0     C48447  11.371   3.562   3.472  0.1398 -0.3583 -0.1520
  352MOL0     C48448  11.427   3.616   3.611  0.1485 -0.7483 -0.4432
  352MOL0     C48449  11.497   3.753   3.618 -0.6378  0.5376  0.4905
  352MOL0     C48450  11.638   3.752   3.547  0.2280  0.4247  0.0649
  352MOL0     C48451  11.739   3.709   3.658  0.7626  1.5678 -0.2773
  352MOL0     C48452  11.868   3.687   3.594  0.9268  0.4005 -0.2647
  352MOL0     C48453  11.982   3.660   3.701  0.6302  0.1068 -0.9027
  352MOL0     C48454  12.090   3.568   3.641 -1.2063 -0.2974 -0.1289
  352MOL0     N48455  12.213   3.550   3.728  0.2677  0.0245  0.8124
  352MOL0     C48456  12.317   3.457   3.699 -0.4366  0.0564 -0.1388
  352MOL0     C48457  12.398   3.458   3.809 -0.2180 -0.0039  0.8417
  352MOL0     C48458  12.513   3.361   3.814 -0.2735 -0.1051  0.1382
  352MOL0     C48459  12.654   3.421   3.850  0.5972  0.8960 -0.1078
  352MOL0     C48460  12.753   3.315   3.807 -0.1463 -0.4544 -0.1669
  352MOL0     C48461  12.741   3.174   3.871  0.5868 -0.0800 -0.9141
  352MOL0     O48462  12.755   3.190   4.017  0.1439  0.1775  0.2521
  352MOL0     C48463  12.872   3.237   4.072 -0.6842  0.4865  0.1916
  352MOL0     C48464  12.872   3.304   4.199 -0.5665  0.1235 -0.7746
  352MOL0     C48465  12.991   3.359   4.260  0.3705 -0.6176 -0.0735
  352MOL0     C48466  12.972   3.418   4.400 -0.3463  0.6531 -0.9164
  352MOL0     C48467  13.120   3.331   4.197 -0.2367  1.0912  0.4032
  352MOL0     C48468  13.247   3.369   4.254  0.2938 -0.4258 -0.5956
  352MOL0     O48469  13.344   3.275   4.245  0.1661  0.2599  0.1133
  352MOL0     C48470  13.474   3.291   4.290 -0.0235 -0.5064 -0.3913
  352MOL0     C48471  13.539   3.178   4.340 -0.5619 -0.1949 -0.0002
  352MOL0     C48472  13.662   3.190   4.395 -0.8246 -0.2282 -0.3211
  352MOL0     C48473  13.732   3.314   4.405 -0.1278  0.1480 -0.0521
  352MOL0     O48474  13.856   3.332   4.445  0.1102  0.5945  0.0913
  352MOL0     C48475  13.955   3.235   4.394 -0.1964  0.4166  0.0446
  352MOL0     C48476  14.078   3.304   4.329  0.3558  0.0754 -0.8336
  352MOL0     C48477  14.163   3.389   4.427 -0.0762 -0.2863 -0.0876
  352MOL0     C48478  14.277   3.454   4.351 -0.5155  0.6515  0.0984
  352MOL0     C48479  14.380   3.518   4.442 -0.5706 -0.1472  0.0778
  352MOL0     C48480  14.492   3.591   4.356 -0.2505  0.0847 -0.4352
  352MOL0     C48481  14.607   3.614   4.452 -0.1497 -0.2171 -0.2621
  352MOL0     C48482  14.725   3.691   4.386  0.2179 -0.3872  0.5579
  352MOL0    Cl48483  14.775   3.621   4.232 -0.2504 -0.0099 -0.1491
  352MOL0     C48484  13.665   3.426   4.357  0.9689  0.0145 -0.0196
  352MOL0     C48485  13.541   3.417   4.299 -0.1908  0.5613  0.4247
  352MOL0     O48486  13.258   3.478   4.306 -0.2177  0.2710 -0.1617
  352MOL0     C48487  13.114   3.264   4.070 -0.6871  0.5020  0.0129
  352MOL0     C48488  13.000   3.212   4.013  0.3994 -0.2299 -0.3563
  352MOL0     N48489  12.339   3.541   3.899  0.0315 -0.0595 -0.0259
  352MOL0     N48490  12.233   3.607   3.850  0.1543  0.3948 -0.9433
  352MOL0     C48491  11.117   3.494   3.598  1.3336  0.6820 -0.2429
  352MOL0     C48492  10.988   3.445   3.634  1.0912 -0.2233 -0.1463
  352MOL0     C48493  10.572   3.453   3.776 -0.6352  0.1361 -0.8965
  352MOL0     C48494  10.470   3.543   3.820 -0.0530 -0.6010  0.3954
  352MOL0     C48495  10.362   3.504   3.900 -0.9025 -0.5177  0.0313
  352MOL0     C48496  10.351   3.370   3.931  0.1728  0.0032 -1.0052
  352MOL0     O48497  10.251   3.331   4.017  0.2566  0.0547  0.2746
  352MOL0     C48498  10.155   3.231   3.977 -0.3611  0.0057 -0.5600
  352MOL0     C48499  10.184   3.100   4.047  0.2159  0.5715 -0.4535
  352MOL0     C48500  10.053   3.008   4.061  0.4345  0.5117 -0.5204
  352MOL0     C48501  10.075   2.899   4.164  0.5027  0.0493  0.6587
  352MOL0     C48502   9.943   2.845   4.183 -0.3422  0.4069 -0.7760
  352MOL0     C48503   9.830   2.808   4.189  0.2742  1.3632 -0.8412
  352MOL0     C48504  10.441   3.272   3.880  0.0066 -0.5229  0.8257
  352MOL0     C48505  10.558   3.317   3.805  0.4817  0.5698  0.3860
  352MOL0     C48506  10.653   3.202   3.771 -0.5321 -0.3295 -0.1887
  352MOL0     H48507  10.796   3.628   3.427 -0.4776  0.1568  1.2231
  352MOL0     H48508  11.014   3.699   3.345 -2.3315 -2.0617 -1.1562
  352MOL0     H48509  11.443   3.589   3.394 -0.4828  0.3861 -0.4820
  352MOL0     H48510  11.357   3.454   3.483 -3.2101 -0.3264 -2.6075
  352MOL0     H48511  11.337   3.629   3.671 -0.6910  3.1869 -2.2317
  352MOL0     H48512  11.493   3.542   3.657  0.3993 -1.8727 -2.5096
  352MOL0     H48513  11.435   3.828   3.568 -0.3045  1.4293  1.4002
  352MOL0     H48514  11.499   3.778   3.724 -0.8172  1.7211  0.2261
  352MOL0     H48515  11.628   3.677   3.468  0.6360  1.6556 -1.1990
  352MOL0     H48516  11.669   3.844   3.495  1.1015 -0.3458 -0.8139
  352MOL0     H48517  11.706   3.615   3.704  0.7300  1.7158  0.0046
  352MOL0     H48518  11.738   3.779   3.742 -0.8994 -0.2402  1.3073
  352MOL0     H48519  11.861   3.600   3.529 -0.0230  0.9470 -0.9137
  352MOL0     H48520  11.889   3.770   3.525  0.4243  0.4943 -0.3069
  352MOL0     H48521  11.952   3.615   3.797  1.5508  0.7203 -0.3149
  352MOL0     H48522  12.032   3.752   3.733  1.3609  0.0566 -1.8612
  352MOL0     H48523  12.041   3.473   3.620 -0.2791 -0.8251  0.0607
  352MOL0     H48524  12.122   3.600   3.541 -1.2553  0.1747  0.0032
  352MOL0     H48525  12.345   3.395   3.615  1.2513 -2.0815  1.8462
  352MOL0     H48526  12.525   3.316   3.715 -3.4579 -1.2734  0.1921
  352MOL0     H48527  12.497   3.276   3.882 -0.5418 -0.4026 -0.2939
  352MOL0     H48528  12.677   3.520   3.808 -0.4913  0.8530 -0.8364
  352MOL0     H48529  12.656   3.426   3.959  0.6038 -0.6012 -0.0172
  352MOL0     H48530  12.732   3.304   3.700 -1.6751  2.6265 -0.2900
  352MOL0     H48531  12.854   3.350   3.828  0.3473 -2.4665  1.1170
  352MOL0     H48532  12.641   3.134   3.853 -0.8005  1.9682  1.5404
  352MOL0     H48533  12.812   3.102   3.829 -1.4455 -1.5219 -2.0434
  352MOL0     H48534  12.773   3.315   4.241 -0.3348  1.3228 -0.5066
  352MOL0     H48535  13.062   3.398   4.459 -0.1523 -0.2283 -1.4967
  352MOL0     H48536  12.887   3.365   4.446  2.5834 -2.5742  1.3054
  352MOL0     H48537  12.958   3.526   4.400  1.6392  0.9824  1.0550
  352MOL0     H48538  13.469   3.095   4.340 -1.0684  0.1573  2.2929
  352MOL0     H48539  13.717   3.101   4.424  1.5629  0.7106 -1.6298
  352MOL0     H48540  13.977   3.167   4.477 -4.5644 -1.0905  0.2511
  352MOL0     H48541  13.913   3.168   4.318 -0.0545  1.6366 -1.1396
  352MOL0     H48542  14.131   3.221   4.282 -2.2032 -1.0233 -1.9749
  352MOL0     H48543  14.043   3.380   4.258  2.9649  0.0287 -2.2969
  352MOL0     H48544  14.198   3.329   4.512  1.6509 -1.8219 -1.7662
  352MOL0     H48545  14.092   3.459   4.470 -2.1739 -2.0242 -0.5730
  352MOL0     H48546  14.225   3.518   4.279 -0.2364 -0.8224 -1.4647
  352MOL0     H48547  14.333   3.385   4.287 -0.2890  1.8246 -1.0112
  352MOL0     H48548  14.322   3.588   4.503  0.0759 -0.9058  1.6218
  352MOL0     H48549  14.421   3.441   4.509 -0.0068  2.3560  2.8155
  352MOL0     H48550  14.463   3.687   4.312 -0.1941  0.4943  0.3898
  352MOL0     H48551  14.514   3.524   4.273 -1.8863  1.2711 -1.9083
  352MOL0     H48552  14.647   3.518   4.485 -1.7043 -0.2005  1.9195
  352MOL0     H48553  14.569   3.657   4.545 -2.3047 -0.3448 -1.0443
  352MOL0     H48554  14.809   3.692   4.457  0.9950 -1.4168 -0.3173
  352MOL0     H48555  14.708   3.797   4.365 -0.9927 -0.4373  1.2276
  352MOL0     H48556  13.712   3.522   4.374  3.0855 -1.1462  1.1633
  352MOL0     H48557  13.497   3.503   4.251 -4.0044 -1.1783  0.4908
  352MOL0     H48558  13.205   3.245   4.014 -0.4468  0.4392  0.4239
  352MOL0     H48559  13.005   3.165   3.915  1.6896 -2.1872  0.5880
  352MOL0     H48560  11.201   3.459   3.657  0.0469  0.3223  1.4461
  352MOL0     H48561  10.976   3.377   3.718 -3.0051 -1.3012 -1.3834
  352MOL0     H48562  10.478   3.645   3.783  0.6842 -0.5485  0.7002
  352MOL0     H48563  10.290   3.571   3.946  0.8004  0.3832  1.5374
  352MOL0     H48564  10.055   3.266   4.006 -0.7736 -1.6491  0.1259
  352MOL0     H48565  10.144   3.207   3.870  0.9172 -2.1284 -0.2567
  352MOL0     H48566  10.239   3.109   4.141 -1.0140 -1.7468  0.5893
  352MOL0     H48567  10.258   3.043   3.989  0.4302  1.1050 -0.7049
  352MOL0     H48568   9.964   3.065   4.090 -0.7070 -0.9096 -1.1105
  352MOL0     H48569  10.032   2.967   3.962  0.5823  0.6099 -0.5938
  352MOL0     H48570  10.111   2.941   4.258 -1.9485  3.0364  0.4191
  352MOL0     H48571  10.133   2.822   4.111 -1.5835 -1.8896  1.0359
  352MOL0     H48572   9.734   2.759   4.180  1.2970 -0.3952 -3.3314
  352MOL0     H48573  10.433   3.165   3.897 -3.3739 -0.4491  0.2865
  352MOL0     H48574  10.639   3.191   3.663 -0.1502  0.6027 -0.3417
  352MOL0     H48575  10.754   3.235   3.795 -0.3957 -1.6610  1.2617
  352MOL0     H48576  10.632   3.104   3.815 -1.6583  0.2689  0.6763
  353MOL0     O48577   5.769   1.564   2.705 -0.5192  0.5471 -0.1050
  353MOL0     C48578   5.683   1.477   2.682 -0.3267  0.2953 -0.7470
  353MOL0     O48579   5.700   1.378   2.589  0.1956  0.5066  0.5117
  353MOL0     C48580   5.825   1.365   2.537  0.4273 -0.2036  1.0720
  353MOL0     C48581   5.862   1.451   2.431 -0.6421 -0.6252  0.1597
  353MOL0     C48582   5.994   1.447   2.378  0.5950  0.1225  0.0092
  353MOL0     C48583   6.085   1.351   2.425  0.6758  0.4750 -0.3738
  353MOL0     O48584   6.214   1.325   2.371  0.9688  0.0662 -0.7584
  353MOL0     C48585   6.264   1.419   2.277 -0.4570 -0.4270  0.7026
  353MOL0     C48586   6.416   1.406   2.288  0.4988 -0.2242  0.0429
  353MOL0     C48587   6.485   1.461   2.166 -0.3620 -0.1032  0.1588
  353MOL0     C48588   6.633   1.437   2.171 -0.4519 -0.4578  0.6702
  353MOL0     C48589   6.700   1.467   2.031 -0.1711  0.2351  0.7984
  353MOL0     C48590   6.833   1.394   2.008  0.4830  0.7412  0.2503
  353MOL0     C48591   6.887   1.420   1.865  0.4737 -0.5484 -0.6714
  353MOL0     C48592   7.029   1.360   1.847 -0.8535 -0.2038 -0.0363
  353MOL0     N48593   7.134   1.433   1.924  0.6581  0.2644 -0.2242
  353MOL0     C48594   7.150   1.563   1.929  0.3870 -0.7960 -0.2741
  353MOL0     C48595   7.259   1.577   2.009 -0.5178  0.0031  0.6266
  353MOL0     C48596   7.321   1.707   2.045 -0.0898  0.3555 -0.7952
  353MOL0     C48597   7.467   1.704   2.066 -0.5037  0.0817 -0.8129
  353MOL0     C48598   7.537   1.839   2.120 -0.4845 -0.4140 -1.1675
  353MOL0     C48599   7.682   1.814   2.170  0.0029  0.2766  0.5067
  353MOL0     O48600   7.678   1.740   2.295  0.1557 -0.6136 -0.4498
  353MOL0     C48601   7.794   1.692   2.346 -1.6195 -0.0828 -0.1919
  353MOL0     C48602   7.790   1.604   2.455 -0.4846  0.5116 -0.6285
  353MOL0     C48603   7.902   1.558   2.524  0.3286 -0.3811  0.2601
  353MOL0     C48604   7.884   1.454   2.635  0.4082  0.3643  0.0023
  353MOL0     C48605   8.031   1.590   2.479 -0.4440 -0.1375  0.6076
  353MOL0     C48606   8.161   1.541   2.540  0.3544  0.5094  0.2023
  353MOL0     O48607   8.273   1.622   2.520  0.0248  0.4744 -0.5442
  353MOL0     C48608   8.389   1.596   2.589 -0.3851 -0.0339  0.7516
  353MOL0     C48609   8.399   1.614   2.723 -0.0684 -0.5826 -0.4817
  353MOL0     C48610   8.521   1.589   2.784  1.0405 -0.4532 -0.2248
  353MOL0     C48611   8.631   1.538   2.714 -0.2127  0.3211  0.6650
  353MOL0     O48612   8.752   1.511   2.766 -0.5122  0.1381  0.5084
  353MOL0     C48613   8.797   1.606   2.859  0.1131 -0.3724 -1.1741
  353MOL0     C48614   8.952   1.612   2.855 -0.1765  0.3278  0.0896
  353MOL0     C48615   9.017   1.699   2.970 -0.6517 -0.0260 -0.3606
  353MOL0     C48616   9.161   1.727   2.942  0.2934 -0.8816  0.0558
  353MOL0     C48617   9.227   1.786   3.065  0.1215  0.7972  0.0524
  353MOL0     C48618   9.192   1.934   3.062  0.0445 -0.3983 -0.4714
  353MOL0     C48619   9.261   1.994   3.187 -0.2228  0.1168 -0.0813
  353MOL0     C48620   9.417   1.980   3.190 -0.0961 -0.6051  0.5526
  353MOL0    Cl48621   9.484   2.056   3.043  0.1447  0.1488  0.2642
  353MOL0     C48622   8.617   1.501   2.582 -0.1451 -0.2534 -0.0914
  353MOL0     C48623   8.499   1.540   2.517  0.7276  0.2527 -1.1468
  353MOL0     O48624   8.166   1.428   2.570  0.7264 -0.1922  0.4085
  353MOL0     C48625   8.034   1.674   2.368  0.0324 -0.5646  0.0178
  353MOL0     C48626   7.920   1.716   2.297  0.4407  0.9839 -0.0233
  353MOL0     N48627   7.306   1.455   2.044  0.0720 -0.0679 -0.3752
  353MOL0     N48628   7.240   1.368   1.983 -0.4458  0.3097  0.5805
  353MOL0     C48629   6.045   1.262   2.529  0.4388  0.3081  0.5981
  353MOL0     C48630   5.917   1.276   2.586  0.1601  0.1449  0.1042
  353MOL0     C48631   5.564   1.448   2.770 -0.0556 -0.7968  0.3266
  353MOL0     C48632   5.448   1.389   2.715  0.1217  0.1764  0.1423
  353MOL0     C48633   5.329   1.371   2.788  0.0383  0.6310  0.1796
  353MOL0     C48634   5.320   1.410   2.921 -0.4170  0.3860  0.0438
  353MOL0     O48635   5.208   1.392   3.007  0.9103 -0.5994 -0.1973
  353MOL0     C48636   5.098   1.304   2.978  0.7132  0.1718  0.0733
  353MOL0     C48637   4.968   1.376   3.012 -0.5273  0.3507  0.3498
  353MOL0     C48638   4.851   1.278   3.033 -0.0865 -0.8743  0.2040
  353MOL0     C48639   4.727   1.363   3.049  0.9270  0.1714 -0.1751
  353MOL0     C48640   4.606   1.271   3.052 -0.9069 -0.1993  0.4332
  353MOL0     C48641   4.500   1.211   3.075 -0.5151  0.0151  0.7620
  353MOL0     C48642   5.434   1.465   2.977  0.8654 -0.2542  0.4001
  353MOL0     C48643   5.555   1.494   2.907 -0.4053 -0.1143 -0.3011
  353MOL0     C48644   5.663   1.564   2.981 -0.9450 -0.0692 -0.3177
  353MOL0     H48645   5.796   1.529   2.395  2.2579  1.4385 -1.0830
  353MOL0     H48646   6.027   1.512   2.297  1.2887  1.2717  1.1697
  353MOL0     H48647   6.243   1.524   2.302  0.5747 -0.1122  0.3136
  353MOL0     H48648   6.216   1.404   2.180  0.4441  1.6513 -0.1313
  353MOL0     H48649   6.456   1.458   2.375 -0.1412  1.3014 -0.5405
  353MOL0     H48650   6.448   1.301   2.298  2.7046  0.3692 -0.2604
  353MOL0     H48651   6.440   1.417   2.077 -1.8095 -1.7117  1.5931
  353MOL0     H48652   6.473   1.570   2.168  0.2102 -0.0148  2.8508
  353MOL0     H48653   6.688   1.491   2.248 -0.4429 -0.2717  0.5349
  353MOL0     H48654   6.643   1.332   2.199 -0.9477 -0.3873  1.1430
  353MOL0     H48655   6.714   1.575   2.021 -1.1833  0.3880  0.8728
  353MOL0     H48656   6.629   1.432   1.956  0.7906 -0.0694  0.0230
  353MOL0     H48657   6.911   1.425   2.078  1.3066  0.5160 -0.5384
  353MOL0     H48658   6.820   1.289   2.037  0.4386  0.2856 -1.3193
  353MOL0     H48659   6.877   1.525   1.838 -1.9683 -0.8449 -1.1150
  353MOL0     H48660   6.819   1.359   1.805 -2.0026  2.4735 -1.1911
  353MOL0     H48661   7.017   1.254   1.870  0.1810 -0.5234 -0.9180
  353MOL0     H48662   7.068   1.368   1.745  2.6228  0.2935  1.1819
  353MOL0     H48663   7.088   1.639   1.882 -0.5707  0.9136  3.3898
  353MOL0     H48664   7.273   1.737   2.138  0.5167  2.8706 -1.2137
  353MOL0     H48665   7.300   1.789   1.975 -2.7689  3.2523  2.9868
  353MOL0     H48666   7.486   1.623   2.138 -2.3076 -0.4437 -0.8825
  353MOL0     H48667   7.515   1.677   1.972  2.2104  1.4809  0.0572
  353MOL0     H48668   7.542   1.917   2.044 -0.5192  2.2730  1.4008
  353MOL0     H48669   7.473   1.877   2.200 -1.8881 -0.5340 -2.2082
  353MOL0     H48670   7.741   1.755   2.099  0.7222 -0.7945  1.9546
  353MOL0     H48671   7.725   1.913   2.186 -0.6571  0.5981  0.3453
  353MOL0     H48672   7.696   1.574   2.501 -0.1706 -1.1525 -0.9889
  353MOL0     H48673   7.967   1.470   2.704 -1.2212  1.6297  1.7816
  353MOL0     H48674   7.872   1.351   2.601 -1.4243  0.9386 -1.2298
  353MOL0     H48675   7.796   1.476   2.697  0.1615 -1.8228  0.5343
  353MOL0     H48676   8.317   1.664   2.774  2.1194  2.5373  0.3045
  353MOL0     H48677   8.533   1.629   2.884  2.0451 -1.1140 -0.0652
  353MOL0     H48678   8.764   1.709   2.843  4.5525  0.9565 -3.4474
  353MOL0     H48679   8.761   1.569   2.956  1.9535  0.8121  0.0259
  353MOL0     H48680   8.999   1.513   2.859  0.8837  0.6839 -2.1745
  353MOL0     H48681   8.984   1.662   2.763 -0.3565  1.2433  0.5108
  353MOL0     H48682   9.009   1.658   3.071 -2.2353  1.4716  0.1843
  353MOL0     H48683   8.951   1.785   2.986 -1.0084 -0.0567 -1.5797
  353MOL0     H48684   9.160   1.795   2.856 -0.0962 -0.7246  0.1799
  353MOL0     H48685   9.214   1.639   2.904 -0.8377 -1.8468  0.6392
  353MOL0     H48686   9.203   1.728   3.154  1.6248 -4.5370 -2.6354
  353MOL0     H48687   9.334   1.784   3.044 -0.1133  3.3316 -1.9592
  353MOL0     H48688   9.083   1.940   3.062  0.0619  0.0920 -1.1398
  353MOL0     H48689   9.239   1.988   2.979  0.4792 -0.7927 -0.4853
  353MOL0     H48690   9.224   1.950   3.280  0.8926  1.6088  1.1124
  353MOL0     H48691   9.238   2.100   3.196 -0.0452  0.3375 -1.8019
  353MOL0     H48692   9.447   1.875   3.195 -1.2906 -1.3654 -3.9254
  353MOL0     H48693   9.457   2.042   3.271  1.8563  0.3779 -1.0610
  353MOL0     H48694   8.708   1.461   2.538 -0.1055 -1.3594  0.9128
  353MOL0     H48695   8.497   1.505   2.414  0.1030 -0.1912 -0.9922
  353MOL0     H48696   8.133   1.705   2.338  0.5547 -0.1277  2.0286
  353MOL0     H48697   7.935   1.788   2.217  1.4699 -0.3749 -1.1033
  353MOL0     H48698   6.110   1.183   2.568  1.0860  0.7131  0.3563
  353MOL0     H48699   5.911   1.200   2.663  1.2887 -0.0123  0.0479
  353MOL0     H48700   5.434   1.347   2.616 -1.4313 -0.1689  0.4885
  353MOL0     H48701   5.244   1.321   2.742 -0.3959  0.9335  0.6458
  353MOL0     H48702   5.106   1.262   2.877 -1.1298  3.5225 -1.6360
  353MOL0     H48703   5.099   1.222   3.050  1.7339  2.3605  2.7127
  353MOL0     H48704   4.945   1.419   2.914  2.6145 -0.5880 -0.9095
  353MOL0     H48705   4.983   1.450   3.091  0.8427 -0.2926  0.7098
  353MOL0     H48706   4.848   1.220   2.940  2.4285  2.1491 -1.9589
  353MOL0     H48707   4.859   1.200   3.110 -0.3819  0.3757  1.5291
  353MOL0     H48708   4.718   1.428   2.962  0.4289  1.1357  0.5818
  353MOL0     H48709   4.729   1.427   3.138 -0.6055 -0.9822  0.7327
  353MOL0     H48710   4.412   1.159   3.107 -1.5159  0.6749 -0.7894
  353MOL0     H48711   5.423   1.490   3.082 -1.4704  1.2526 -0.1202
  353MOL0     H48712   5.622   1.609   3.072  0.9518  5.0570 -1.6293
  353MOL0     H48713   5.752   1.502   2.991  0.3948  1.5789 -1.3824
  353MOL0     H48714   5.690   1.656   2.928 -0.5099  0.3458  0.5873
  354MOL0     O48715   4.300   3.586   8.554 -0.1619 -0.0237  0.5111
  354MOL0     C48716   4.239   3.668   8.479 -0.3967  0.2552 -0.2930
  354MOL0     O48717   4.239   3.806   8.488  0.0995  0.8833  0.4128
  354MOL0     C48718   4.323   3.869   8.570 -0.5949 -0.8914 -0.6744
  354MOL0     C48719   4.293   3.999   8.616 -0.0164  0.0059 -0.1704
  354MOL0     C48720   4.381   4.076   8.697  0.8546 -0.3312 -0.3576
  354MOL0     C48721   4.508   4.038   8.723 -0.2654  0.2420  0.7217
  354MOL0     O48722   4.584   4.124   8.800  0.5616 -0.0985  0.0576
  354MOL0     C48723   4.718   4.099   8.826 -0.1734 -0.4878 -0.3410
  354MOL0     C48724   4.783   4.214   8.892  0.4584  0.0452 -0.6407
  354MOL0     C48725   4.937   4.204   8.910 -0.3755  0.7856  0.0745
  354MOL0     C48726   4.965   4.148   9.049 -0.1051  1.3369 -0.2188
  354MOL0     C48727   5.105   4.157   9.098 -0.3666  0.4197 -0.0370
  354MOL0     C48728   5.139   4.298   9.125 -0.4262 -0.6396 -0.1214
  354MOL0     C48729   5.286   4.309   9.183 -0.1352  0.4279 -0.4919
  354MOL0     C48730   5.340   4.449   9.216 -0.3035  0.1110 -0.1500
  354MOL0     N48731   5.489   4.439   9.244  0.5329  0.0005 -0.2372
  354MOL0     C48732   5.596   4.447   9.153 -0.1722 -0.3983 -0.6078
  354MOL0     C48733   5.705   4.436   9.229 -0.2223 -0.5681 -0.2133
  354MOL0     C48734   5.845   4.415   9.170  0.6811 -0.7177  1.1426
  354MOL0     C48735   5.961   4.381   9.260  1.0097  0.7865 -0.6903
  354MOL0     C48736   5.951   4.237   9.322 -0.2890  0.0323 -1.0279
  354MOL0     C48737   6.071   4.199   9.408 -0.3406 -0.7540 -0.0252
  354MOL0     O48738   6.082   4.290   9.519 -0.1780 -1.0196  0.1774
  354MOL0     C48739   6.202   4.289   9.586  0.4949  0.2062 -0.2620
  354MOL0     C48740   6.223   4.383   9.691  0.1059  0.4041 -0.1736
  354MOL0     C48741   6.345   4.384   9.763 -0.5874 -0.4773 -0.3677
  354MOL0     C48742   6.346   4.471   9.884 -0.3725 -0.1438  0.2400
  354MOL0     C48743   6.453   4.297   9.726 -0.1156  0.9686  0.8357
  354MOL0     C48744   6.582   4.290   9.796 -0.7125  0.0098  0.4544
  354MOL0     O48745   6.658   4.403   9.807  0.1833  0.0056  0.5253
  354MOL0     C48746   6.777   4.372   9.874 -0.4490  0.1090 -1.1358
  354MOL0     C48747   6.908   4.356   9.820  0.0328  0.4154 -0.4172
  354MOL0     C48748   7.018   4.335   9.909 -0.1853 -0.5563 -0.0720
  354MOL0     C48749   7.000   4.325  10.051  0.3202  0.5404 -1.2019
  354MOL0     O48750   7.103   4.310  10.132 -0.0360  0.2969 -0.0903
  354MOL0     C48751   7.237   4.275  10.091 -0.0128 -0.0720  0.3578
  354MOL0     C48752   7.339   4.266  10.208  0.4704  0.6557  0.1642
  354MOL0     C48753   7.479   4.254  10.139 -0.2011 -0.1083 -0.5950
  354MOL0     C48754   7.588   4.255  10.256  0.4316  0.0714 -0.5147
  354MOL0     C48755   7.725   4.299  10.197  0.2817  0.6903  0.1775
  354MOL0     C48756   7.829   4.298  10.307 -0.5314 -0.2893 -0.0232
  354MOL0     C48757   7.849   4.164  10.375  0.3004 -0.5660 -0.6002
  354MOL0     C48758   7.994   4.130  10.421  0.5031 -0.2166  0.3306
  354MOL0    Cl48759   8.038   4.245  10.543 -0.3271 -0.1307  0.2744
  354MOL0     C48760   6.871   4.348  10.104 -0.3735  1.0250 -0.1531
  354MOL0     C48761   6.764   4.372  10.014 -1.1705  1.3321  0.2177
  354MOL0     O48762   6.621   4.171   9.826 -0.3060 -0.4213  0.2704
  354MOL0     C48763   6.431   4.217   9.615 -0.1356 -0.5397 -0.6496
  354MOL0     C48764   6.312   4.216   9.542 -1.0601 -0.2043  0.7343
  354MOL0     N48765   5.662   4.430   9.362  0.1772  0.3170  0.3116
  354MOL0     N48766   5.534   4.428   9.373 -0.0255  0.1343  0.0450
  354MOL0     C48767   4.546   3.904   8.683  0.1025  0.0381  0.7457
  354MOL0     C48768   4.455   3.825   8.608  0.7120 -0.2385 -0.5599
  354MOL0     C48769   4.165   3.604   8.365  0.0495  0.3983 -0.1975
  354MOL0     C48770   4.074   3.682   8.294 -1.1723 -0.0677  0.1127
  354MOL0     C48771   3.991   3.639   8.193 -0.9702  0.2665  0.0728
  354MOL0     C48772   3.988   3.508   8.155 -0.2960  0.2688  0.0624
  354MOL0     O48773   3.915   3.463   8.048  0.3216  0.7750 -0.0778
  354MOL0     C48774   3.775   3.499   8.033 -0.6397 -0.5183  0.0225
  354MOL0     C48775   3.696   3.463   8.153  0.9046 -0.5771 -0.2022
  354MOL0     C48776   3.691   3.311   8.183  0.2462  0.1898 -0.1630
  354MOL0     C48777   3.623   3.277   8.318  0.2623 -0.1051 -0.1873
  354MOL0     C48778   3.480   3.321   8.336  0.4412 -0.6786 -0.0631
  354MOL0     C48779   3.362   3.339   8.344  0.1195 -0.0440  0.9878
  354MOL0     C48780   4.081   3.423   8.224  1.0182 -0.3175  0.2823
  354MOL0     C48781   4.175   3.469   8.322 -0.5408  0.6226  0.6107
  354MOL0     C48782   4.277   3.371   8.376 -0.1249 -0.4389 -0.4452
  354MOL0     H48783   4.194   4.042   8.606 -0.2693 -0.2362  1.0604
  354MOL0     H48784   4.350   4.173   8.734  0.8892 -0.5702  0.3089
  354MOL0     H48785   4.769   4.081   8.731  2.8100  0.5194  0.9535
  354MOL0     H48786   4.717   4.012   8.893 -1.8773  0.3756  0.8445
  354MOL0     H48787   4.760   4.299   8.827  1.0335  1.9023  1.4674
  354MOL0     H48788   4.732   4.233   8.987  3.5962 -0.6580  1.3315
  354MOL0     H48789   4.989   4.140   8.838 -1.6212 -0.2803  0.0771
  354MOL0     H48790   4.979   4.304   8.901  0.6722  0.1827 -3.3227
  354MOL0     H48791   4.895   4.192   9.121 -0.9611  0.3106 -0.4094
  354MOL0     H48792   4.947   4.040   9.044  1.1761  1.0416  1.0470
  354MOL0     H48793   5.170   4.118   9.019 -0.9985  1.2346 -0.9955
  354MOL0     H48794   5.129   4.102   9.189 -1.7855  1.2812  0.8878
  354MOL0     H48795   5.120   4.357   9.036 -1.0330 -0.4973  0.0946
  354MOL0     H48796   5.076   4.342   9.203  0.9064 -1.2285  1.3467
  354MOL0     H48797   5.353   4.268   9.108 -1.4617 -1.9153 -0.5065
  354MOL0     H48798   5.301   4.243   9.269  1.1112  0.5909 -0.5664
  354MOL0     H48799   5.320   4.515   9.131  1.8520 -3.0962 -3.4613
  354MOL0     H48800   5.288   4.492   9.302 -0.9311  0.5410 -0.7406
  354MOL0     H48801   5.605   4.437   9.045  0.1473  0.4494 -0.6664
  354MOL0     H48802   5.868   4.510   9.121  1.4771 -2.0650 -1.2423
  354MOL0     H48803   5.846   4.338   9.092  0.6158  1.0807 -0.7124
  354MOL0     H48804   6.054   4.387   9.203  1.5269  2.3412  0.2396
  354MOL0     H48805   5.958   4.455   9.341 -0.5659  1.6719 -1.5269
  354MOL0     H48806   5.865   4.223   9.388  0.8847 -0.1676  0.5346
  354MOL0     H48807   5.945   4.155   9.249 -0.9801  0.2508 -1.2225
  354MOL0     H48808   6.066   4.095   9.442 -0.8295 -1.4683 -2.1315
  354MOL0     H48809   6.151   4.208   9.333 -0.9793 -1.2569 -0.7814
  354MOL0     H48810   6.139   4.446   9.717 -0.4805  0.2404 -1.5839
  354MOL0     H48811   6.416   4.434   9.959 -3.2628  0.7317  3.6535
  354MOL0     H48812   6.244   4.482   9.922 -0.3077 -1.6596  0.9023
  354MOL0     H48813   6.376   4.573   9.858  0.0943  0.4227  2.7333
  354MOL0     H48814   6.930   4.371   9.715 -0.1724  0.0169 -0.5194
  354MOL0     H48815   7.108   4.335   9.849 -0.8693  0.1090 -1.1450
  354MOL0     H48816   7.239   4.186  10.027 -0.5246 -1.6819  2.4456
  354MOL0     H48817   7.268   4.357  10.027 -1.1550 -0.3353 -0.5648
  354MOL0     H48818   7.335   4.363  10.258 -4.6498  0.1924  1.1392
  354MOL0     H48819   7.324   4.200  10.294 -1.7690 -0.5307 -1.0452
  354MOL0     H48820   7.487   4.336  10.066  0.1007 -1.6601 -2.4029
  354MOL0     H48821   7.493   4.164  10.079  1.0864 -0.5091  0.2626
  354MOL0     H48822   7.588   4.159  10.307  0.0928  0.1499 -0.3662
  354MOL0     H48823   7.545   4.327  10.326  1.5434 -0.2273  0.4954
  354MOL0     H48824   7.763   4.233  10.119  0.5892 -2.3311  2.6686
  354MOL0     H48825   7.708   4.401  10.160 -0.1979  0.9953  1.1835
  354MOL0     H48826   7.786   4.371  10.376 -0.2640  3.8659 -3.8194
  354MOL0     H48827   7.924   4.337  10.269 -0.9592 -1.3373 -2.3712
  354MOL0     H48828   7.827   4.089  10.299  1.0902 -0.1361 -1.2786
  354MOL0     H48829   7.787   4.168  10.465  1.4756 -0.3380  0.2269
  354MOL0     H48830   8.071   4.141  10.344  0.1612 -1.5760 -0.2340
  354MOL0     H48831   8.002   4.025  10.451  2.1107 -0.0889  0.4155
  354MOL0     H48832   6.857   4.333  10.211  0.3744 -0.3717 -0.2271
  354MOL0     H48833   6.666   4.381  10.060 -1.1515  2.1152  0.1134
  354MOL0     H48834   6.511   4.149   9.588  1.6154  0.7701  0.9903
  354MOL0     H48835   6.306   4.158   9.451 -2.4667 -1.0222  1.3133
  354MOL0     H48836   4.642   3.863   8.711  0.2135  0.3417  0.8191
  354MOL0     H48837   4.492   3.731   8.569  3.6741 -0.2409  1.9620
  354MOL0     H48838   4.059   3.786   8.319  0.0388 -0.1655  1.3511
  354MOL0     H48839   3.927   3.707   8.138 -0.7729 -0.6247 -1.3219
  354MOL0     H48840   3.770   3.602   7.996  0.8550  0.3483  2.0962
  354MOL0     H48841   3.732   3.444   7.948  0.8513 -0.4969 -0.7671
  354MOL0     H48842   3.595   3.504   8.141  1.8110  1.7712 -0.1171
  354MOL0     H48843   3.737   3.520   8.236 -0.4979 -0.0528  0.1662
  354MOL0     H48844   3.642   3.258   8.100  0.4030 -1.6454  0.8520
  354MOL0     H48845   3.792   3.269   8.187 -0.7285 -2.3642 -0.4396
  354MOL0     H48846   3.663   3.328   8.405 -3.2275  3.0723 -0.2078
  354MOL0     H48847   3.630   3.169   8.334  3.1158  0.2968  2.0277
  354MOL0     H48848   3.257   3.359   8.356 -0.4320 -1.1001 -1.6207
  354MOL0     H48849   4.058   3.320   8.202  0.7180  0.1521 -1.7830
  354MOL0     H48850   4.280   3.279   8.317  1.0092 -0.1219 -0.9149
  354MOL0     H48851   4.373   3.421   8.357 -2.4379  3.4845 -3.1599
  354MOL0     H48852   4.250   3.342   8.478 -0.2674 -0.8795 -0.6050
  355MOL0     O48853   8.989   9.925  10.268  0.3628  0.5291 -0.2574
  355MOL0     C48854   8.897  10.007  10.267  0.4400  0.2283 -0.2363
  355MOL0     O48855   8.864  10.088  10.374  0.2342  0.3458 -0.2862
  355MOL0     C48856   8.959  10.119  10.469  0.9768  0.9001  0.3455
  355MOL0     C48857   9.102  10.100  10.458 -0.2912 -0.0435 -0.6413
  355MOL0     C48858   9.184  10.130  10.572 -0.3573  0.6822  0.8393
  355MOL0     C48859   9.129  10.177  10.683  0.0494 -0.0785 -1.0761
  355MOL0     O48860   9.199  10.202  10.798 -0.5917 -0.2590 -0.2808
  355MOL0     C48861   9.344  10.212  10.816  0.4206  0.4756 -0.6118
  355MOL0     C48862   9.367  10.186  10.967 -0.7439  0.3948  0.5567
  355MOL0     C48863   9.502  10.235  11.010 -0.8133  0.3843 -0.0324
  355MOL0     C48864   9.516  10.388  11.045  0.7715  0.1447 -0.0873
  355MOL0     C48865   9.649  10.417  11.104  0.4816  0.8268  1.0089
  355MOL0     C48866   9.669  10.568  11.162 -0.2569  0.1418  0.8194
  355MOL0     C48867   9.813  10.595  11.207  0.0306  0.0378 -0.5941
  355MOL0     C48868   9.862  10.518  11.324  0.1588 -0.4811  0.5359
  355MOL0     N48869   9.990  10.568  11.372  0.0098 -0.9791 -1.3478
  355MOL0     C48870   9.996  10.679  11.449 -0.0301 -0.7246 -0.2417
  355MOL0     C48871  10.130  10.705  11.450 -0.2114 -0.7805  0.1266
  355MOL0     C48872  10.196  10.800  11.538 -0.3985 -0.2718  0.0580
  355MOL0     C48873  10.154  10.783  11.681 -0.5802 -0.7739  0.8720
  355MOL0     C48874  10.221  10.680  11.767  0.0596  0.3352 -0.0994
  355MOL0     C48875  10.369  10.695  11.796 -0.0481  0.2179 -0.1634
  355MOL0     O48876  10.401  10.807  11.885  0.1755 -0.0717  0.8315
  355MOL0     C48877  10.541  10.818  11.907 -0.0863 -0.0020 -0.5843
  355MOL0     C48878  10.593  10.944  11.946 -0.4076  0.2685 -0.2031
  355MOL0     C48879  10.732  10.966  11.964  0.2444  0.0381  0.4018
  355MOL0     C48880  10.779  11.105  11.991  0.3441 -0.1224 -0.2312
  355MOL0     C48881  10.826  10.852  11.942 -0.3756 -0.3247  0.0851
  355MOL0     C48882  10.976  10.849  11.958  0.3981  0.8582  0.3298
  355MOL0     O48883  11.041  10.752  11.900 -0.3548 -0.2362  0.1757
  355MOL0     C48884  11.177  10.752  11.898 -0.2153  0.5633  0.8006
  355MOL0     C48885  11.262  10.862  11.895 -0.1505  0.4877  0.4157
  355MOL0     C48886  11.404  10.847  11.888  0.1197 -0.3298 -0.7832
  355MOL0     C48887  11.459  10.718  11.885  0.0999 -0.8905 -0.0005
  355MOL0     O48888  11.597  10.715  11.875 -0.1344  0.3307 -0.3076
  355MOL0     C48889  11.662  10.589  11.894 -0.0534  0.2042  0.1203
  355MOL0     C48890  11.813  10.602  11.907 -0.3454  0.5841  0.4175
  355MOL0     C48891  11.883  10.705  11.819 -0.5012 -0.4110  0.6371
  355MOL0     C48892  12.028  10.725  11.865  0.7904 -0.2047  0.0401
  355MOL0     C48893  12.125  10.621  11.811 -0.1091 -0.1986  0.4044
  355MOL0     C48894  12.273  10.645  11.844 -0.1559  0.2354  0.4946
  355MOL0     C48895  12.359  10.521  11.811 -0.3957 -0.3673 -0.1647
  355MOL0     C48896  12.413  10.502  11.670  0.4234 -0.0384 -0.4904
  355MOL0    Cl48897  12.511  10.645  11.610 -0.2095 -0.2623  0.1672
  355MOL0     C48898  11.374  10.610  11.875  0.8741  0.2788 -0.4033
  355MOL0     C48899  11.234  10.625  11.870 -0.4150 -0.3157  0.1456
  355MOL0     O48900  11.023  10.948  12.012  0.1672 -0.1291  0.5529
  355MOL0     C48901  10.769  10.735  11.904  0.3997 -0.2741  0.5171
  355MOL0     C48902  10.632  10.715  11.887 -0.2270  0.5100 -0.4223
  355MOL0     N48903  10.201  10.608  11.381  0.0284  0.0264  0.0181
  355MOL0     N48904  10.113  10.520  11.337 -0.9349 -0.1977 -0.2584
  355MOL0     C48905   8.991  10.193  10.697  0.4309  0.6842 -0.0626
  355MOL0     C48906   8.901  10.160  10.591  0.2458 -0.7152  0.3737
  355MOL0     C48907   8.803  10.008  10.143 -0.1565  0.3985 -0.1298
  355MOL0     C48908   8.695  10.104  10.146 -0.1949  0.0953  1.3061
  355MOL0     C48909   8.609  10.119  10.033 -0.9412  0.1054  0.8179
  355MOL0     C48910   8.613  10.030   9.929 -0.6034  0.0246  0.2914
  355MOL0     O48911   8.512  10.036   9.840 -0.3079 -0.6761  0.0196
  355MOL0     C48912   8.423   9.919   9.830 -0.7192  0.0534 -0.2290
  355MOL0     C48913   8.309   9.897   9.939  0.2557 -0.4272  0.0343
  355MOL0     C48914   8.216  10.031   9.945 -0.3736  0.2732  0.7240
  355MOL0     C48915   8.086  10.028  10.026 -0.7460 -0.4058  0.2171
  355MOL0     C48916   8.116  10.070  10.158  0.6299 -0.2869 -0.1819
  355MOL0     C48917   8.153  10.114  10.263 -0.6094  0.5635 -0.9833
  355MOL0     C48918   8.732   9.952   9.909  0.4307 -0.0981 -0.5128
  355MOL0     C48919   8.825   9.944  10.017 -0.2203 -0.2758  0.1486
  355MOL0     C48920   8.944   9.849   9.991 -0.4002  0.1347 -0.5875
  355MOL0     H48921   9.146  10.064  10.366 -1.4667  2.3866 -2.2842
  355MOL0     H48922   9.291  10.121  10.560 -0.5108  1.3757 -1.5054
  355MOL0     H48923   9.371  10.316  10.792  0.3882  0.8395  0.8462
  355MOL0     H48924   9.409  10.148  10.756 -0.6458 -1.3500  0.0980
  355MOL0     H48925   9.295  10.242  11.027 -0.4894  1.7270 -0.3473
  355MOL0     H48926   9.367  10.079  10.988 -0.9296  0.6183  1.7458
  355MOL0     H48927   9.525  10.192  11.108  0.6270  2.6570  0.7092
  355MOL0     H48928   9.578  10.196  10.941 -3.7331 -1.9853 -2.1568
  355MOL0     H48929   9.506  10.451  10.957  0.5481 -0.6982 -0.6765
  355MOL0     H48930   9.432  10.429  11.103 -0.2715 -1.6138 -0.2837
  355MOL0     H48931   9.722  10.415  11.023 -1.4465 -0.2365 -0.8112
  355MOL0     H48932   9.662  10.348  11.187 -3.7341  0.8053  1.9011
  355MOL0     H48933   9.647  10.631  11.076 -0.4610 -0.1884  0.6258
  355MOL0     H48934   9.602  10.580  11.248  0.6894 -1.5544  1.8484
  355MOL0     H48935   9.809  10.703  11.225  0.0283 -0.1628  0.7819
  355MOL0     H48936   9.884  10.574  11.127  1.7516  0.5489  0.7390
  355MOL0     H48937   9.785  10.517  11.402  1.3208  1.3598  1.7859
  355MOL0     H48938   9.865  10.411  11.303 -2.3104 -0.5284  0.0616
  355MOL0     H48939   9.927  10.748  11.497 -0.5323 -1.0214 -0.5356
  355MOL0     H48940  10.170  10.903  11.512 -1.4569  0.3386  3.1135
  355MOL0     H48941  10.305  10.801  11.526  0.1349 -0.7401  3.7721
  355MOL0     H48942  10.149  10.870  11.746 -1.9251 -1.8932  2.3587
  355MOL0     H48943  10.049  10.750  11.678 -0.9785  0.5108 -1.0707
  355MOL0     H48944  10.179  10.686  11.868  1.6519 -1.3401  0.7153
  355MOL0     H48945  10.204  10.581  11.724  2.8414  0.9753 -3.0679
  355MOL0     H48946  10.393  10.616  11.867  1.1703  3.5753  3.4951
  355MOL0     H48947  10.424  10.692  11.701  1.2581  1.4830  0.5139
  355MOL0     H48948  10.522  11.024  11.966  0.2962  0.5820  1.1516
  355MOL0     H48949  10.852  11.134  11.914  0.5583  1.0463  0.4047
  355MOL0     H48950  10.829  11.107  12.088  0.2217  0.0206 -0.1711
  355MOL0     H48951  10.699  11.179  11.995  0.0136 -0.4769 -0.1524
  355MOL0     H48952  11.225  10.963  11.910 -0.8999  0.1834  0.6632
  355MOL0     H48953  11.470  10.933  11.882  1.1507 -1.1553 -1.5643
  355MOL0     H48954  11.621  10.538  11.983  1.7143 -0.5700  0.5384
  355MOL0     H48955  11.646  10.521  11.810 -0.9246  2.3834 -1.5753
  355MOL0     H48956  11.830  10.634  12.010  1.1969 -1.5128  0.8842
  355MOL0     H48957  11.871  10.511  11.891 -1.1494 -0.4624  3.0614
  355MOL0     H48958  11.832  10.802  11.815  1.2423  0.5045 -0.8457
  355MOL0     H48959  11.884  10.673  11.714  2.2042  0.5800  0.2592
  355MOL0     H48960  12.034  10.731  11.974  1.5520 -2.9906  0.2314
  355MOL0     H48961  12.060  10.819  11.819 -0.4665  1.2086  1.9013
  355MOL0     H48962  12.100  10.523  11.854  0.9695 -0.7024 -0.0757
  355MOL0     H48963  12.108  10.610  11.703 -0.2972 -0.2165  0.4352
  355MOL0     H48964  12.283  10.659  11.952  0.5505  0.3545  0.4184
  355MOL0     H48965  12.315  10.736  11.801  0.6634  0.4341  1.6400
  355MOL0     H48966  12.295  10.435  11.834 -2.1608  0.5814 -1.2827
  355MOL0     H48967  12.448  10.526  11.875  1.3223  1.1755 -2.4902
  355MOL0     H48968  12.327  10.494  11.603 -0.3108  1.6341  0.1892
  355MOL0     H48969  12.475  10.411  11.672  1.6131  0.7247 -1.3877
  355MOL0     H48970  11.412  10.509  11.871  0.3639  0.1113 -1.1680
  355MOL0     H48971  11.162  10.548  11.845 -0.6842 -1.1311  3.0373
  355MOL0     H48972  10.827  10.644  11.898  1.6550  0.5599 -0.5578
  355MOL0     H48973  10.591  10.617  11.865 -1.2921  0.6205  0.9367
  355MOL0     H48974   8.947  10.236  10.786 -1.9936  0.8323 -1.2594
  355MOL0     H48975   8.795  10.173  10.608 -0.0191 -2.4277  0.2154
  355MOL0     H48976   8.679  10.161  10.238 -1.7235 -0.2534  1.2903
  355MOL0     H48977   8.526  10.188  10.033 -1.6098 -0.6742  1.7599
  355MOL0     H48978   8.364   9.924   9.738 -2.3082 -2.1177  0.5902
  355MOL0     H48979   8.487   9.831   9.826 -0.8668 -0.1437  1.3528
  355MOL0     H48980   8.357   9.877  10.035  0.7300  1.9866  0.3584
  355MOL0     H48981   8.245   9.811   9.915 -0.8056 -0.0690  1.4538
  355MOL0     H48982   8.281  10.111   9.982  1.4665  0.8337 -3.2089
  355MOL0     H48983   8.190  10.060   9.842 -0.0628 -0.3677  0.4631
  355MOL0     H48984   8.041   9.928  10.024 -2.6369  0.3599 -3.1550
  355MOL0     H48985   8.014  10.097   9.982  0.8377  1.4461  0.3903
  355MOL0     H48986   8.188  10.146  10.360 -0.5933 -1.1635 -0.3750
  355MOL0     H48987   8.750   9.901   9.815  2.6489  0.5955 -0.5236
  355MOL0     H48988   8.946   9.805   9.891 -2.6796  0.2095 -0.7051
  355MOL0     H48989   9.035   9.910   9.994  0.1660 -0.7184  0.4107
  355MOL0     H48990   8.958   9.780  10.075  4.4815 -0.2712 -1.4463
  356MOL0     O48991   6.120   7.551   7.532  0.3830  0.2219  0.1579
  356MOL0     C48992   6.152   7.624   7.623 -0.7382  0.2582  0.8553
  356MOL0     O48993   6.284   7.644   7.653  0.7344 -0.6746 -0.9039
  356MOL0     C48994   6.385   7.566   7.600  0.8913  0.8858 -0.0456
  356MOL0     C48995   6.462   7.618   7.497  0.0136 -0.0961  0.3148
  356MOL0     C48996   6.553   7.531   7.448  0.2873 -0.2357 -0.6432
  356MOL0     C48997   6.570   7.394   7.484  0.5868 -0.7786 -0.1038
  356MOL0     O48998   6.668   7.321   7.416  0.2733  0.3927 -0.2453
  356MOL0     C48999   6.784   7.306   7.504 -0.3166 -0.4210 -0.1556
  356MOL0     C49000   6.886   7.408   7.452 -0.1798 -0.3693  0.2839
  356MOL0     C49001   6.967   7.345   7.331 -0.2481  0.5075  0.2861
  356MOL0     C49002   7.058   7.440   7.249  0.1069  0.6312 -0.6752
  356MOL0     C49003   7.188   7.466   7.325 -0.4103  0.3128  0.1560
  356MOL0     C49004   7.291   7.537   7.233 -0.2107 -1.0604 -0.1932
  356MOL0     C49005   7.430   7.536   7.300  0.0735 -0.3923 -0.8042
  356MOL0     C49006   7.444   7.645   7.405  0.3374 -0.1376  0.2318
  356MOL0     N49007   7.459   7.780   7.339  0.4411  0.0730  0.1359
  356MOL0     C49008   7.567   7.841   7.298 -0.2522 -0.3492 -0.8885
  356MOL0     C49009   7.537   7.965   7.263  0.7015 -0.4534 -0.1912
  356MOL0     C49010   7.621   8.076   7.194  0.2021 -0.5964  0.2470
  356MOL0     C49011   7.762   8.084   7.263  0.3339 -0.6493 -0.2568
  356MOL0     C49012   7.851   8.180   7.180 -1.2508 -0.3825 -0.1875
  356MOL0     C49013   8.000   8.174   7.225  0.0613 -0.6610  0.5690
  356MOL0     O49014   8.069   8.254   7.130 -0.1075  0.0599 -0.5059
  356MOL0     C49015   8.192   8.303   7.166 -0.3081  0.0733  0.5272
  356MOL0     C49016   8.280   8.243   7.259  0.3145  0.4140 -0.5053
  356MOL0     C49017   8.395   8.303   7.307 -0.4618 -0.8162  0.6004
  356MOL0     C49018   8.470   8.231   7.418 -0.2704 -0.2118  0.0537
  356MOL0     C49019   8.447   8.422   7.243 -0.4343  0.8353 -0.4896
  356MOL0     C49020   8.571   8.494   7.272  0.0913  0.3235 -0.8123
  356MOL0     O49021   8.673   8.421   7.323 -0.3479 -0.4201  0.4739
  356MOL0     C49022   8.792   8.472   7.361 -0.0272  0.3568  1.0172
  356MOL0     C49023   8.799   8.571   7.459 -1.2591 -0.0253  0.1838
  356MOL0     C49024   8.923   8.611   7.503 -0.8271  0.5906 -1.6562
  356MOL0     C49025   9.041   8.548   7.456 -0.0189 -0.4145 -0.2945
  356MOL0     O49026   9.168   8.562   7.508  0.3057  0.0065 -0.0980
  356MOL0     C49027   9.193   8.656   7.614  0.4007 -0.7384 -0.2139
  356MOL0     C49028   9.342   8.635   7.659 -0.0075  0.2736  0.0589
  356MOL0     C49029   9.391   8.743   7.753  1.1240  0.0689 -0.4158
  356MOL0     C49030   9.545   8.771   7.756 -0.2922 -0.0099 -0.2455
  356MOL0     C49031   9.610   8.631   7.786 -0.3221 -0.0352 -0.1861
  356MOL0     C49032   9.749   8.651   7.837 -0.6296 -0.0424 -0.6028
  356MOL0     C49033   9.821   8.512   7.858 -0.7619 -0.3797  0.0930
  356MOL0     C49034   9.887   8.477   7.720 -0.1256 -0.0805  0.4985
  356MOL0    Cl49035  10.014   8.595   7.667 -0.2036 -0.0340  0.5831
  356MOL0     C49036   9.030   8.448   7.358  0.1651 -0.8902  0.3786
  356MOL0     C49037   8.909   8.414   7.304  0.5475 -0.8163 -0.6771
  356MOL0     O49038   8.571   8.617   7.256 -0.0833  0.1036 -0.6961
  356MOL0     C49039   8.352   8.487   7.147 -0.1856 -0.0718 -0.2831
  356MOL0     C49040   8.239   8.421   7.107  0.1255  0.4220 -0.8999
  356MOL0     N49041   7.405   7.974   7.271 -0.3602 -0.1768  0.2044
  356MOL0     N49042   7.354   7.866   7.317 -0.2177  0.3405 -0.8011
  356MOL0     C49043   6.497   7.349   7.593  0.2428  0.0496 -0.7840
  356MOL0     C49044   6.396   7.434   7.651 -0.2530 -0.1589  0.5475
  356MOL0     C49045   6.056   7.707   7.695  0.4542  0.2487 -0.6607
  356MOL0     C49046   6.101   7.818   7.769 -0.1908 -0.2165 -0.7642
  356MOL0     C49047   6.019   7.886   7.855 -0.1970  0.0297 -0.7309
  356MOL0     C49048   5.878   7.860   7.853  0.1836 -0.2370  0.3748
  356MOL0     O49049   5.780   7.940   7.910  0.2426 -0.1312 -0.4144
  356MOL0     C49050   5.832   8.052   7.984 -0.4982 -0.1899  0.6034
  356MOL0     C49051   5.727   8.095   8.086 -1.0119  0.0585  0.5427
  356MOL0     C49052   5.600   8.149   8.025 -0.0463 -0.3845  0.4453
  356MOL0     C49053   5.483   8.171   8.121 -0.7124 -0.1284 -0.2001
  356MOL0     C49054   5.411   8.276   8.050  0.0993 -0.2706  0.2786
  356MOL0     C49055   5.350   8.364   7.997 -0.2397  0.2366 -1.0481
  356MOL0     C49056   5.826   7.753   7.772  0.4677 -0.4894 -0.7801
  356MOL0     C49057   5.917   7.676   7.692  0.6725 -0.1625  0.9577
  356MOL0     C49058   5.849   7.574   7.610 -0.0130 -0.1747 -0.0083
  356MOL0     H49059   6.445   7.716   7.453  0.9248  0.9303  2.1280
  356MOL0     H49060   6.617   7.567   7.368 -1.3296  1.4268 -1.2528
  356MOL0     H49061   6.824   7.204   7.509  0.9929  0.0930  0.1523
  356MOL0     H49062   6.765   7.334   7.608  1.1968  1.0261 -0.2350
  356MOL0     H49063   6.840   7.507   7.441 -0.3280  0.0448  3.6592
  356MOL0     H49064   6.960   7.422   7.532  0.7273  1.2071 -0.7712
  356MOL0     H49065   7.023   7.259   7.367  0.2987  0.7203 -0.0554
  356MOL0     H49066   6.899   7.295   7.261 -1.5096  2.0972  0.3176
  356MOL0     H49067   7.078   7.402   7.148  1.2808  1.7109 -0.8655
  356MOL0     H49068   7.009   7.537   7.232 -0.2064  1.5513  4.1182
  356MOL0     H49069   7.236   7.380   7.372  1.3588  0.6340 -0.9707
  356MOL0     H49070   7.164   7.529   7.412 -1.4059 -2.2261  1.8463
  356MOL0     H49071   7.303   7.489   7.136  1.2578 -1.8290  0.3180
  356MOL0     H49072   7.258   7.638   7.208  3.3580  0.0496 -1.0996
  356MOL0     H49073   7.501   7.551   7.217  0.0106 -0.9218 -0.9593
  356MOL0     H49074   7.449   7.439   7.346 -1.1126 -0.8820 -1.3030
  356MOL0     H49075   7.352   7.642   7.465  0.9000  0.1301  1.1230
  356MOL0     H49076   7.535   7.629   7.464 -0.2001  0.0019  1.1258
  356MOL0     H49077   7.659   7.784   7.292 -0.5601 -1.1101  0.9169
  356MOL0     H49078   7.566   8.170   7.194  4.0978  1.9663 -2.0685
  356MOL0     H49079   7.643   8.056   7.089 -2.7700  2.0357 -1.0355
  356MOL0     H49080   7.747   8.120   7.365 -0.9484 -1.2824 -0.2082
  356MOL0     H49081   7.802   7.983   7.272 -0.2449 -0.9486 -0.9490
  356MOL0     H49082   7.837   8.137   7.080  0.5227 -0.5953 -0.3590
  356MOL0     H49083   7.815   8.283   7.185 -4.7938 -1.4450 -0.7496
  356MOL0     H49084   8.022   8.215   7.324  3.0621 -2.0033  0.5628
  356MOL0     H49085   8.037   8.071   7.217  0.1441 -0.7442  1.8312
  356MOL0     H49086   8.242   8.158   7.315  0.1224  0.8664  0.0554
  356MOL0     H49087   8.423   8.137   7.449  0.3240 -0.5053  0.0719
  356MOL0     H49088   8.473   8.293   7.508  0.4290 -1.3982  0.8700
  356MOL0     H49089   8.572   8.209   7.386  0.4500  0.9390  1.4505
  356MOL0     H49090   8.712   8.628   7.488  1.2070  2.9488  2.4557
  356MOL0     H49091   8.928   8.681   7.586  1.3037  1.1054 -2.1670
  356MOL0     H49092   9.169   8.763   7.608 -0.2405 -0.7650  1.4924
  356MOL0     H49093   9.130   8.639   7.701  1.1333  0.2743  0.5346
  356MOL0     H49094   9.341   8.539   7.712 -0.2311  0.3651  0.2257
  356MOL0     H49095   9.409   8.625   7.574  2.6523 -4.0767  2.3156
  356MOL0     H49096   9.353   8.716   7.852  2.3001 -0.0153  0.0232
  356MOL0     H49097   9.339   8.834   7.723 -1.3302 -1.0738  0.1002
  356MOL0     H49098   9.576   8.825   7.846  0.8696 -2.9817  1.2879
  356MOL0     H49099   9.589   8.815   7.666  1.2174 -1.2440 -0.1656
  356MOL0     H49100   9.545   8.569   7.848 -1.1581  0.9812 -0.0211
  356MOL0     H49101   9.616   8.581   7.688 -1.8667 -1.5463  0.4399
  356MOL0     H49102   9.753   8.705   7.932 -1.7638 -0.5982 -0.2239
  356MOL0     H49103   9.805   8.703   7.758  0.0589  0.1481  0.0018
  356MOL0     H49104   9.751   8.437   7.895 -0.8945 -0.2789  0.0471
  356MOL0     H49105   9.900   8.525   7.932 -0.7904 -1.6336  0.3618
  356MOL0     H49106   9.814   8.466   7.639  1.8537  0.9719 -1.5475
  356MOL0     H49107   9.939   8.382   7.732 -0.8054 -0.8186 -1.8570
  356MOL0     H49108   9.116   8.397   7.317  0.6490 -0.1118  0.4067
  356MOL0     H49109   8.906   8.335   7.231  1.0541 -1.0157 -0.4878
  356MOL0     H49110   8.367   8.584   7.102 -1.6053 -0.2755 -1.2460
  356MOL0     H49111   8.179   8.464   7.027 -1.0131 -0.0717 -0.3385
  356MOL0     H49112   6.514   7.247   7.626 -2.6000  0.3924  2.3061
  356MOL0     H49113   6.335   7.383   7.726 -1.3995  0.0730 -0.1981
  356MOL0     H49114   6.203   7.856   7.772 -1.6367  4.4104  4.0403
  356MOL0     H49115   6.073   7.961   7.912 -0.9560  0.1588 -0.1521
  356MOL0     H49116   5.908   8.011   8.051 -1.8586 -2.6199  0.8111
  356MOL0     H49117   5.874   8.131   7.921 -0.7551 -1.6912 -1.5754
  356MOL0     H49118   5.770   8.171   8.153 -1.8747  0.2781  0.8532
  356MOL0     H49119   5.700   8.004   8.141 -0.4269 -0.0926  0.5950
  356MOL0     H49120   5.627   8.239   7.969  0.0968 -0.6832  0.0272
  356MOL0     H49121   5.574   8.072   7.951 -3.1762 -0.8409  1.8770
  356MOL0     H49122   5.522   8.207   8.217 -1.2285  0.9264 -0.3661
  356MOL0     H49123   5.418   8.083   8.118 -3.5748  1.8443 -1.8842
  356MOL0     H49124   5.302   8.450   7.955 -0.9694 -0.2466 -1.2229
  356MOL0     H49125   5.719   7.734   7.777  0.4120  0.0715  1.6888
  356MOL0     H49126   5.895   7.475   7.611 -2.4531 -1.3949 -0.0057
  356MOL0     H49127   5.741   7.566   7.630  0.1691  0.9360  1.5554
  356MOL0     H49128   5.844   7.606   7.505  0.4791  0.6495  0.2175
  357MOL0     O49129   0.716   4.911   3.709 -0.2286  0.7069 -0.6609
  357MOL0     C49130   0.711   5.001   3.797 -0.5284  0.5825 -0.4340
  357MOL0     O49131   0.808   5.095   3.819  0.5819 -0.5331 -0.3053
  357MOL0     C49132   0.933   5.078   3.757 -0.9043  0.5469 -1.0699
  357MOL0     C49133   1.041   5.037   3.848  0.2954  0.3127  0.0609
  357MOL0     C49134   1.165   5.031   3.791  0.4083 -0.2687  0.2849
  357MOL0     C49135   1.187   5.066   3.656  0.0262 -0.5536 -0.9188
  357MOL0     O49136   1.312   5.060   3.606 -0.3552 -0.4078  0.5309
  357MOL0     C49137   1.421   5.128   3.672 -0.2438 -0.1731  0.2361
  357MOL0     C49138   1.401   5.280   3.683  0.0811 -0.2597 -0.1717
  357MOL0     C49139   1.514   5.352   3.749 -0.5702  0.4529 -0.7332
  357MOL0     C49140   1.490   5.498   3.759 -0.2691 -0.7358  0.2745
  357MOL0     C49141   1.600   5.570   3.837  0.2136 -0.0427  0.5758
  357MOL0     C49142   1.624   5.713   3.797  0.6863  0.5446  0.0209
  357MOL0     C49143   1.508   5.799   3.846 -0.2678 -0.3130  0.0761
  357MOL0     C49144   1.516   5.836   3.991  0.4499 -0.2880  1.0859
  357MOL0     N49145   1.634   5.914   4.035  0.2972  1.2855  0.3220
  357MOL0     C49146   1.739   5.869   4.118  0.0971 -0.1241  0.6768
  357MOL0     C49147   1.809   5.978   4.151  0.1136  0.1099  0.0231
  357MOL0     C49148   1.922   5.970   4.248  0.0360  0.5832 -0.3187
  357MOL0     C49149   2.037   6.057   4.203  1.0690  0.0830  0.4500
  357MOL0     C49150   2.157   6.045   4.298 -0.0328  0.2648  0.3360
  357MOL0     C49151   2.260   5.945   4.264 -0.0809 -0.2643  0.7318
  357MOL0     O49152   2.344   5.947   4.377  0.1282  0.0036 -0.3218
  357MOL0     C49153   2.458   5.868   4.373  0.0251  0.1555  0.1898
  357MOL0     C49154   2.477   5.751   4.299  0.3396  0.0624 -0.1661
  357MOL0     C49155   2.593   5.682   4.305 -0.5956 -0.2365  0.4327
  357MOL0     C49156   2.600   5.557   4.228  0.4393 -0.5169 -0.5107
  357MOL0     C49157   2.692   5.713   4.403 -1.3015 -0.0394 -0.2470
  357MOL0     C49158   2.821   5.639   4.412 -0.6872  0.2991 -0.5717
  357MOL0     O49159   2.818   5.526   4.487 -0.3912 -0.3884 -0.5229
  357MOL0     C49160   2.937   5.471   4.518  0.6783  0.0518 -0.3667
  357MOL0     C49161   3.006   5.415   4.418 -0.2227  0.4354  1.1150
  357MOL0     C49162   3.132   5.356   4.447 -0.5553  1.5280  0.5445
  357MOL0     C49163   3.197   5.359   4.572  0.7231  0.2719  0.4467
  357MOL0     O49164   3.319   5.309   4.600 -0.1818 -0.8657  0.0531
  357MOL0     C49165   3.388   5.240   4.496 -0.8901 -0.0371  0.7813
  357MOL0     C49166   3.538   5.242   4.512 -0.5144 -0.3409 -0.3014
  357MOL0     C49167   3.584   5.192   4.646  0.4467 -0.1167 -0.4486
  357MOL0     C49168   3.728   5.196   4.676  0.8972 -0.9102  0.0490
  357MOL0     C49169   3.758   5.149   4.815 -0.1701 -0.1223  0.5692
  357MOL0     C49170   3.897   5.190   4.851 -0.6186 -0.1388  0.2291
  357MOL0     C49171   3.953   5.116   4.973 -0.2367 -0.3584 -0.0702
  357MOL0     C49172   4.092   5.160   5.016 -0.3849 -0.1386  0.6817
  357MOL0    Cl49173   4.219   5.107   4.899 -0.2303  0.1637 -0.1910
  357MOL0     C49174   3.127   5.423   4.670  0.2279  0.3525  0.0393
  357MOL0     C49175   2.995   5.477   4.648 -0.2709 -0.3813  0.4275
  357MOL0     O49176   2.913   5.680   4.346 -0.6214 -0.0446 -0.2936
  357MOL0     C49177   2.676   5.830   4.476 -0.1719 -0.6465 -0.0167
  357MOL0     C49178   2.555   5.907   4.463 -0.5972  0.1821  0.7103
  357MOL0     N49179   1.753   6.090   4.081  0.0627 -0.1984 -0.2566
  357MOL0     N49180   1.647   6.049   4.015  0.2711  0.7855  0.6205
  357MOL0     C49181   1.088   5.108   3.573  0.9409 -0.3896 -0.5226
  357MOL0     C49182   0.959   5.102   3.624 -0.0086  0.0411 -0.0387
  357MOL0     C49183   0.593   5.006   3.885 -0.5593 -0.3998 -0.7479
  357MOL0     C49184   0.615   5.041   4.024 -0.1049 -0.7647  0.2878
  357MOL0     C49185   0.516   5.040   4.113  0.4171  0.4259 -0.5362
  357MOL0     C49186   0.393   5.006   4.073  0.0319  0.0051  0.8703
  357MOL0     O49187   0.295   5.006   4.169  0.5543  0.3194 -0.3973
  357MOL0     C49188   0.173   4.942   4.140 -0.0675 -0.9646 -0.2235
  357MOL0     C49189   0.084   4.945   4.264  0.7838  0.6439 -0.5883
  357MOL0     C49190  -0.048   4.881   4.243 -0.0430 -0.7219 -0.2296
  357MOL0     C49191  -0.036   4.724   4.243 -0.0513 -0.4242  0.9328
  357MOL0     C49192  -0.024   4.679   4.376 -0.3952 -1.5324  0.2318
  357MOL0     C49193  -0.016   4.629   4.486 -0.2919 -0.1572  0.4192
  357MOL0     C49194   0.365   4.978   3.941 -0.0732  0.3490 -0.0020
  357MOL0     C49195   0.465   4.977   3.843 -0.3052 -0.0880 -0.0067
  357MOL0     C49196   0.424   4.937   3.705 -0.2093  0.1429  0.5169
  357MOL0     H49197   1.009   5.016   3.950  0.2945 -1.6359 -0.3055
  357MOL0     H49198   1.252   5.014   3.854 -0.1886  0.0946  1.2294
  357MOL0     H49199   1.519   5.117   3.625  0.0935 -1.1861  1.1114
  357MOL0     H49200   1.435   5.075   3.767 -1.4589  2.6572  2.1088
  357MOL0     H49201   1.390   5.308   3.578  2.3903  0.2152 -0.3294
  357MOL0     H49202   1.303   5.301   3.728 -0.2818  0.1875 -1.1312
  357MOL0     H49203   1.516   5.304   3.847 -1.6178  1.2875 -0.2796
  357MOL0     H49204   1.602   5.336   3.688 -0.7203 -1.7457 -0.4829
  357MOL0     H49205   1.481   5.545   3.661 -0.1223  0.2548  0.7234
  357MOL0     H49206   1.389   5.512   3.798 -0.5608  0.8759 -0.9697
  357MOL0     H49207   1.697   5.526   3.814  0.5541  1.1497 -0.4270
  357MOL0     H49208   1.577   5.552   3.942  0.5181 -1.8783  0.3651
  357MOL0     H49209   1.718   5.746   3.843 -0.4898  1.0294  2.2269
  357MOL0     H49210   1.644   5.711   3.690 -0.6870  0.1028 -0.2423
  357MOL0     H49211   1.407   5.760   3.827 -1.3804  2.9183 -1.3198
  357MOL0     H49212   1.507   5.890   3.785  0.0151 -0.5134 -0.2332
  357MOL0     H49213   1.428   5.887   4.031 -0.4896 -1.2360  0.2766
  357MOL0     H49214   1.512   5.740   4.045 -1.4241  1.5098  4.4892
  357MOL0     H49215   1.762   5.767   4.148 -2.7850 -1.5452 -1.4517
  357MOL0     H49216   1.962   5.868   4.253 -0.2792  0.5130  1.5791
  357MOL0     H49217   1.889   5.995   4.349  1.3917  0.0602  0.2850
  357MOL0     H49218   2.065   6.019   4.104 -2.1472  0.4270 -0.7286
  357MOL0     H49219   2.006   6.161   4.194  0.5478 -0.1356 -0.3904
  357MOL0     H49220   2.213   6.139   4.300  0.8328 -0.0753 -2.8243
  357MOL0     H49221   2.119   6.035   4.401 -1.3921 -1.2899 -0.2623
  357MOL0     H49222   2.221   5.846   4.243  2.5060 -1.0910 -0.5277
  357MOL0     H49223   2.310   5.974   4.172 -0.3117  2.6444  1.4137
  357MOL0     H49224   2.384   5.711   4.258 -0.9919  2.2014  0.5666
  357MOL0     H49225   2.542   5.480   4.280  2.8666 -2.1737 -0.0725
  357MOL0     H49226   2.700   5.513   4.220  0.1146 -1.3442 -0.0924
  357MOL0     H49227   2.571   5.582   4.126 -1.6558  0.3652  0.2399
  357MOL0     H49228   2.973   5.414   4.314  0.9389  2.0984  0.6710
  357MOL0     H49229   3.176   5.312   4.358 -2.1792  2.2686 -0.6770
  357MOL0     H49230   3.353   5.136   4.494  1.9399 -1.1120 -2.3248
  357MOL0     H49231   3.373   5.278   4.394  1.0864  1.2168  0.9125
  357MOL0     H49232   3.569   5.160   4.447 -0.4937 -2.4757  2.2529
  357MOL0     H49233   3.571   5.344   4.491  1.0231 -0.7015  0.2599
  357MOL0     H49234   3.551   5.088   4.656  0.5393 -0.1486 -0.4682
  357MOL0     H49235   3.544   5.247   4.732  3.3483 -0.3872  1.2290
  357MOL0     H49236   3.754   5.302   4.673 -0.0881 -0.6303  0.7852
  357MOL0     H49237   3.785   5.143   4.599  0.2688  0.8522 -1.7055
  357MOL0     H49238   3.689   5.190   4.889  0.3747  1.8062  0.0484
  357MOL0     H49239   3.755   5.039   4.813  0.9451 -0.1573 -0.3755
  357MOL0     H49240   3.877   5.296   4.871 -1.7769 -0.2198 -0.3807
  357MOL0     H49241   3.969   5.173   4.770  0.0575 -1.5161  1.0924
  357MOL0     H49242   3.943   5.009   4.958 -3.7485  0.0543 -1.7262
  357MOL0     H49243   3.894   5.146   5.061 -0.2265  0.9484 -0.4820
  357MOL0     H49244   4.111   5.110   5.112 -4.3015 -2.9954  0.2078
  357MOL0     H49245   4.091   5.269   5.025  0.1912 -0.2918  4.1375
  357MOL0     H49246   3.183   5.436   4.762  2.6530 -0.4268 -1.2408
  357MOL0     H49247   2.946   5.527   4.731  2.1809  2.6268  0.2622
  357MOL0     H49248   2.757   5.864   4.539 -0.1800 -1.2955  0.3475
  357MOL0     H49249   2.532   5.983   4.537  0.9136  0.5545  0.8387
  357MOL0     H49250   1.121   5.142   3.476  4.9054  0.6408  1.0189
  357MOL0     H49251   0.873   5.133   3.567 -0.3629 -1.1423 -0.1659
  357MOL0     H49252   0.714   5.069   4.060 -0.6648 -1.5743  2.6429
  357MOL0     H49253   0.544   5.063   4.215 -1.6528 -1.9948  0.6928
  357MOL0     H49254   0.128   4.994   4.055  0.4754  2.9149  1.6412
  357MOL0     H49255   0.187   4.835   4.120 -0.0578 -1.5340  2.4738
  357MOL0     H49256   0.066   5.052   4.278 -1.1888  0.5339 -1.8497
  357MOL0     H49257   0.128   4.905   4.356 -1.5331  1.2100  0.8711
  357MOL0     H49258  -0.119   4.906   4.322 -0.2560  0.7363 -0.8395
  357MOL0     H49259  -0.095   4.910   4.149 -0.4798 -0.8200 -0.0428
  357MOL0     H49260   0.047   4.685   4.184 -1.0020  2.4160 -2.6495
  357MOL0     H49261  -0.127   4.687   4.195  0.7094  0.2340 -1.1399
  357MOL0     H49262  -0.017   4.588   4.585 -0.5186  1.2854  1.0439
  357MOL0     H49263   0.262   4.962   3.913 -0.5864  3.5992 -0.3309
  357MOL0     H49264   0.458   5.004   3.625  0.5437  0.5073  1.1394
  357MOL0     H49265   0.462   4.839   3.676 -0.7583 -0.3728  1.4911
  357MOL0     H49266   0.316   4.927   3.689  0.4811 -4.4045 -3.2796
  358MOL0     O49267   6.806   6.789   9.209 -0.1661  0.3392 -0.0230
  358MOL0     C49268   6.775   6.868   9.291  0.1981  0.4202  0.4122
  358MOL0     O49269   6.844   6.985   9.320 -0.0506 -0.1392  0.3839
  358MOL0     C49270   6.935   7.040   9.236 -0.4380 -0.2210 -0.3915
  358MOL0     C49271   6.978   7.172   9.279 -0.5201  0.5914  0.5039
  358MOL0     C49272   7.066   7.248   9.199 -0.2207  0.6538  0.3904
  358MOL0     C49273   7.131   7.187   9.089 -0.2662  0.1174 -0.8177
  358MOL0     O49274   7.231   7.259   9.040  0.4554  0.9521 -0.7957
  358MOL0     C49275   7.250   7.252   8.898 -0.2531 -0.1967  0.3364
  358MOL0     C49276   7.338   7.369   8.856  0.5399  0.2846 -0.2295
  358MOL0     C49277   7.271   7.506   8.900  0.5564  0.7968 -0.8876
  358MOL0     C49278   7.126   7.536   8.861  0.7967  0.8748 -0.3286
  358MOL0     C49279   7.015   7.485   8.956 -0.2789  0.9158 -0.5078
  358MOL0     C49280   6.866   7.522   8.924 -1.1996 -0.3735 -0.0620
  358MOL0     C49281   6.826   7.488   8.780  0.4305  0.5687  0.3136
  358MOL0     C49282   6.684   7.550   8.755  0.8433 -0.6542  0.6829
  358MOL0     N49283   6.573   7.503   8.833  0.6167  0.5148  0.2519
  358MOL0     C49284   6.482   7.397   8.812 -0.5682  0.2302  0.1835
  358MOL0     C49285   6.377   7.418   8.897  0.3748  0.5329 -0.4527
  358MOL0     C49286   6.263   7.322   8.904  0.2309 -0.6944 -0.5895
  358MOL0     C49287   6.129   7.380   8.959  0.0267 -0.0086 -0.1254
  358MOL0     C49288   6.060   7.470   8.856  0.5280 -0.3186 -0.4123
  358MOL0     C49289   5.931   7.519   8.898 -0.9523  0.3681 -0.0908
  358MOL0     O49290   5.842   7.405   8.935 -0.0187  0.2605  1.2466
  358MOL0     C49291   5.746   7.364   8.844  0.2019  0.5588 -0.1077
  358MOL0     C49292   5.771   7.283   8.733 -0.3344  0.4645  0.4521
  358MOL0     C49293   5.669   7.233   8.654  0.5194  0.0537  0.3421
  358MOL0     C49294   5.717   7.122   8.559 -0.2279 -0.5312 -1.1088
  358MOL0     C49295   5.532   7.273   8.682 -0.1214  0.0254  0.6312
  358MOL0     C49296   5.427   7.248   8.578 -0.0321 -0.5147  0.0514
  358MOL0     O49297   5.311   7.311   8.601  0.2159 -0.6577 -0.0581
  358MOL0     C49298   5.230   7.345   8.495  0.1271  0.7828 -0.0776
  358MOL0     C49299   5.271   7.454   8.416  0.6630  0.3599 -0.2056
  358MOL0     C49300   5.207   7.481   8.295  0.9174 -0.6059  0.4392
  358MOL0     C49301   5.099   7.403   8.248  0.5786 -0.3694  0.3365
  358MOL0     O49302   5.022   7.422   8.136  0.4902  0.0055  0.0109
  358MOL0     C49303   5.028   7.555   8.080  0.4207 -0.4166  0.3888
  358MOL0     C49304   4.888   7.584   8.017 -0.4682  0.0510  0.9527
  358MOL0     C49305   4.789   7.594   8.126  0.7505  0.1904  0.5044
  358MOL0     C49306   4.641   7.648   8.079  0.3754 -0.4126  0.0563
  358MOL0     C49307   4.554   7.567   7.979  0.2132 -0.3490  0.3993
  358MOL0     C49308   4.431   7.660   7.922  0.0394  0.1517  0.8770
  358MOL0     C49309   4.336   7.708   8.037 -0.0638  0.9174 -0.5185
  358MOL0     C49310   4.246   7.825   7.991 -0.1101  0.1900 -0.0097
  358MOL0    Cl49311   4.147   7.776   7.846 -0.3609  0.1054 -0.0828
  358MOL0     C49312   5.056   7.299   8.331 -0.1963  0.7805  0.8998
  358MOL0     C49313   5.122   7.269   8.444  0.0804 -0.2391 -0.6496
  358MOL0     O49314   5.454   7.181   8.477 -0.1020  0.2200  0.6672
  358MOL0     C49315   5.504   7.361   8.795 -0.0111 -0.3743  0.9043
  358MOL0     C49316   5.615   7.398   8.874  0.3190 -0.7355  0.3825
  358MOL0     N49317   6.398   7.524   8.974  0.5242 -0.0707  0.8585
  358MOL0     N49318   6.508   7.583   8.925 -0.1267 -0.0370  0.8698
  358MOL0     C49319   7.094   7.061   9.061  0.0699 -0.2991  0.4317
  358MOL0     C49320   6.988   6.995   9.117  0.2801  0.3729  0.5369
  358MOL0     C49321   6.662   6.838   9.381 -1.0320  0.5008 -0.9193
  358MOL0     C49322   6.627   6.928   9.478 -0.5921 -0.8666 -0.2981
  358MOL0     C49323   6.520   6.913   9.560  0.4097 -0.0815 -0.7185
  358MOL0     C49324   6.442   6.807   9.552 -0.7018  0.4398  0.5893
  358MOL0     O49325   6.328   6.786   9.621  0.2767  0.6616  0.1388
  358MOL0     C49326   6.334   6.833   9.752 -0.3448 -0.7685 -0.1945
  358MOL0     C49327   6.209   6.775   9.825 -0.2128  0.1625  0.1767
  358MOL0     C49328   6.182   6.820   9.970  0.1786  0.5167 -0.5991
  358MOL0     C49329   6.184   6.708  10.071  0.4296 -0.3067  0.4435
  358MOL0     C49330   6.315   6.642  10.075  0.5228  0.4711  0.4988
  358MOL0     C49331   6.413   6.578  10.095  0.0275  0.0785 -0.2251
  358MOL0     C49332   6.479   6.705   9.464 -0.2727 -0.4913  0.9948
  358MOL0     C49333   6.589   6.717   9.374 -0.0796  0.2532 -0.3191
  358MOL0     C49334   6.613   6.604   9.273  0.0493 -0.1912 -0.2282
  358MOL0     H49335   6.920   7.218   9.358 -1.5544  0.6213 -0.2510
  358MOL0     H49336   7.093   7.351   9.223 -0.2231  0.8249 -0.3197
  358MOL0     H49337   7.155   7.263   8.843 -0.8196  0.4933  1.4173
  358MOL0     H49338   7.293   7.155   8.871  2.5604  0.6047  1.6292
  358MOL0     H49339   7.438   7.365   8.899 -0.2046  0.5667  1.6430
  358MOL0     H49340   7.345   7.369   8.747 -0.1624  0.3595 -0.2821
  358MOL0     H49341   7.268   7.511   9.010 -1.8932 -0.7598 -0.7967
  358MOL0     H49342   7.328   7.586   8.853  1.5961  0.8070  0.3444
  358MOL0     H49343   7.113   7.644   8.849  0.3979  1.1558  2.1074
  358MOL0     H49344   7.101   7.501   8.761 -1.7568  1.5288 -0.0181
  358MOL0     H49345   7.035   7.524   9.056  2.3340  0.4317 -0.7665
  358MOL0     H49346   7.027   7.376   8.961  1.5973  1.1273  0.4160
  358MOL0     H49347   6.792   7.476   8.991 -3.3087 -1.1682 -2.7376
  358MOL0     H49348   6.852   7.629   8.942  0.7171  0.0487 -0.9017
  358MOL0     H49349   6.811   7.380   8.770  0.4663  0.5270  0.6761
  358MOL0     H49350   6.897   7.525   8.706 -0.0164 -0.1653 -0.5097
  358MOL0     H49351   6.703   7.655   8.777 -0.2702 -0.5810  1.3843
  358MOL0     H49352   6.657   7.528   8.651  0.3043 -2.2080  1.1312
  358MOL0     H49353   6.491   7.321   8.734  1.6829  1.9804 -1.4066
  358MOL0     H49354   6.303   7.235   8.957 -1.5479 -1.1603  0.0481
  358MOL0     H49355   6.237   7.296   8.801  1.9201  1.7069 -1.7247
  358MOL0     H49356   6.062   7.301   8.994  1.4195 -1.9231 -1.5301
  358MOL0     H49357   6.150   7.445   9.044 -0.5376 -1.3975  1.1107
  358MOL0     H49358   6.113   7.564   8.839 -1.5184  1.3999  1.9912
  358MOL0     H49359   6.048   7.412   8.764  2.0471  1.8608 -2.0860
  358MOL0     H49360   5.940   7.579   8.990 -0.4631 -0.6761  0.5603
  358MOL0     H49361   5.894   7.590   8.823  5.0380  3.0586 -1.1553
  358MOL0     H49362   5.869   7.239   8.718 -0.4426  0.3632  0.0383
  358MOL0     H49363   5.806   7.080   8.607 -0.4508  0.2204  0.0290
  358MOL0     H49364   5.745   7.162   8.461 -2.2502  1.2993 -1.0262
  358MOL0     H49365   5.640   7.047   8.541  1.2867 -2.1310 -1.1715
  358MOL0     H49366   5.361   7.507   8.445  0.8608 -0.3488  0.5388
  358MOL0     H49367   5.249   7.563   8.238 -0.7976  1.0958  1.5226
  358MOL0     H49368   5.038   7.630   8.160 -0.5626  0.5556 -0.3725
  358MOL0     H49369   5.104   7.582   8.006 -3.4947  1.7367 -3.3237
  358MOL0     H49370   4.892   7.679   7.963  2.1693 -0.5048  0.0545
  358MOL0     H49371   4.861   7.509   7.943  0.0920  0.2730  0.5128
  358MOL0     H49372   4.825   7.670   8.197  1.9963 -1.2452  1.4665
  358MOL0     H49373   4.779   7.499   8.179  2.3103  0.1264  0.7238
  358MOL0     H49374   4.652   7.754   8.051 -1.3526 -0.7637 -2.2540
  358MOL0     H49375   4.574   7.642   8.165 -0.7315 -0.7487 -0.8100
  358MOL0     H49376   4.615   7.547   7.890  1.7382  2.6204  0.6490
  358MOL0     H49377   4.521   7.472   8.022 -1.0229  0.5693  1.5544
  358MOL0     H49378   4.372   7.613   7.843 -2.9161  1.7568  1.9871
  358MOL0     H49379   4.473   7.747   7.872 -0.6892 -0.2423 -0.4824
  358MOL0     H49380   4.399   7.732   8.122 -0.0673 -1.3390  0.2001
  358MOL0     H49381   4.282   7.620   8.074  1.0817  0.6709  0.6389
  358MOL0     H49382   4.298   7.920   7.976 -1.4925  1.3141  1.8755
  358MOL0     H49383   4.181   7.838   8.078  0.5784 -0.2213  0.5794
  358MOL0     H49384   4.978   7.234   8.293  0.4975 -0.0546  0.8760
  358MOL0     H49385   5.090   7.182   8.501 -0.8844  0.2782 -0.3785
  358MOL0     H49386   5.400   7.384   8.817 -0.4493 -2.0506  0.7310
  358MOL0     H49387   5.590   7.458   8.962 -0.6320  3.0964 -2.2298
  358MOL0     H49388   7.163   7.007   8.997  0.1527  0.6774 -0.3313
  358MOL0     H49389   6.957   6.901   9.073 -1.0791  0.2929  1.5899
  358MOL0     H49390   6.676   7.025   9.479 -0.7065 -0.8062 -0.5142
  358MOL0     H49391   6.498   6.998   9.624  1.1265 -0.1025 -0.4239
  358MOL0     H49392   6.426   6.786   9.787 -1.1705 -1.6397  0.9200
  358MOL0     H49393   6.330   6.942   9.759 -3.5635 -0.8617  3.8092
  358MOL0     H49394   6.208   6.666   9.817  1.6819  0.2401 -2.4556
  358MOL0     H49395   6.121   6.803   9.765  0.4779  0.5635 -0.6722
  358MOL0     H49396   6.251   6.901   9.994  1.0575 -0.1494 -0.8637
  358MOL0     H49397   6.082   6.864   9.977  0.1015  0.0893  1.2991
  358MOL0     H49398   6.094   6.647  10.058 -0.8828  1.7756 -0.8575
  358MOL0     H49399   6.179   6.737  10.176  2.6631  3.3034 -0.2899
  358MOL0     H49400   6.499   6.514  10.103 -1.7641 -2.4718 -0.0492
  358MOL0     H49401   6.419   6.615   9.467  0.3585 -1.0590 -1.2367
  358MOL0     H49402   6.546   6.519   9.289  2.5719 -2.4806 -1.0162
  358MOL0     H49403   6.590   6.644   9.173 -0.3999  1.8451  0.6482
  358MOL0     H49404   6.714   6.563   9.283 -0.1736 -0.3913  1.5392
  359MOL0     O49405   9.628   5.362   9.702 -0.9374 -0.3460 -0.3122
  359MOL0     C49406   9.607   5.474   9.743 -0.1627  0.8595  0.4064
  359MOL0     O49407   9.694   5.561   9.780 -0.4434  0.0030 -0.3305
  359MOL0     C49408   9.827   5.533   9.794  0.7456  0.8817  0.2351
  359MOL0     C49409   9.921   5.635   9.773 -0.0721  0.0264 -0.3406
  359MOL0     C49410  10.052   5.620   9.779  0.5987 -1.0012  0.4557
  359MOL0     C49411  10.107   5.494   9.823  0.6123  0.3129  0.3681
  359MOL0     O49412  10.245   5.480   9.820  0.6917  0.6571  0.2329
  359MOL0     C49413  10.297   5.347   9.841 -0.8430  0.2191  0.6950
  359MOL0     C49414  10.445   5.343   9.810 -0.0738 -0.4429  0.0771
  359MOL0     C49415  10.496   5.394   9.668 -0.1156  0.2753 -0.1325
  359MOL0     C49416  10.648   5.386   9.667 -0.4489 -0.0023 -0.6603
  359MOL0     C49417  10.710   5.489   9.579 -0.1491 -0.4143  0.8504
  359MOL0     C49418  10.857   5.455   9.557  0.0279  0.5536  0.4491
  359MOL0     C49419  10.923   5.558   9.471 -0.1654  0.0896 -0.4586
  359MOL0     C49420  11.072   5.571   9.485 -0.3059  0.0522 -0.1689
  359MOL0     N49421  11.154   5.606   9.364  0.2520 -0.4251 -0.1119
  359MOL0     C49422  11.116   5.661   9.241 -0.9372 -1.0567 -0.2324
  359MOL0     C49423  11.233   5.722   9.199  0.3002 -0.4285 -0.2608
  359MOL0     C49424  11.259   5.784   9.069  0.3508  0.2966  0.1631
  359MOL0     C49425  11.323   5.692   8.965  0.8755  0.4562 -0.2166
  359MOL0     C49426  11.303   5.754   8.821  0.0645 -0.3999  0.3391
  359MOL0     C49427  11.169   5.716   8.762  0.3097 -0.1936 -0.5443
  359MOL0     O49428  11.182   5.723   8.618  0.1984  0.3233  0.0887
  359MOL0     C49429  11.115   5.617   8.558  0.6525 -0.6690 -0.5222
  359MOL0     C49430  11.186   5.537   8.467 -0.3288  0.0669 -0.3779
  359MOL0     C49431  11.125   5.431   8.399 -0.7293 -0.1802  1.1676
  359MOL0     C49432  11.210   5.346   8.303 -0.6368  0.5373 -0.0898
  359MOL0     C49433  10.986   5.408   8.412 -0.8398  0.6032 -0.2289
  359MOL0     C49434  10.911   5.314   8.336  0.0287 -0.5652  0.3626
  359MOL0     O49435  10.811   5.259   8.402 -0.1555 -0.2495 -0.1326
  359MOL0     C49436  10.714   5.183   8.334 -0.8886 -0.4738  0.5518
  359MOL0     C49437  10.629   5.248   8.240  0.1116  0.1768  0.3927
  359MOL0     C49438  10.517   5.185   8.193 -0.1020 -0.4793  0.0564
  359MOL0     C49439  10.499   5.045   8.226 -0.4836  0.0946 -0.7287
  359MOL0     O49440  10.396   4.971   8.169 -0.1171 -0.5301 -0.4997
  359MOL0     C49441  10.369   5.008   8.034 -0.5334 -0.1130 -0.1274
  359MOL0     C49442  10.303   4.901   7.951 -0.2444  0.5182  0.4706
  359MOL0     C49443  10.167   4.855   7.997 -0.0501 -0.2049 -0.2306
  359MOL0     C49444  10.099   4.769   7.884 -0.2819  0.7986 -0.5107
  359MOL0     C49445   9.944   4.771   7.870 -0.2691  0.1345  0.6457
  359MOL0     C49446   9.882   4.751   8.006  0.1684 -1.0287 -0.3611
  359MOL0     C49447   9.724   4.744   8.007 -0.2383  0.1971 -0.2448
  359MOL0     C49448   9.675   4.629   7.919  0.4385 -0.3206 -0.4232
  359MOL0    Cl49449   9.732   4.479   7.982  0.9053  0.1218 -0.1977
  359MOL0     C49450  10.581   4.985   8.316 -0.1071  0.7132 -0.8560
  359MOL0     C49451  10.689   5.056   8.378  0.5302  0.9223  0.5893
  359MOL0     O49452  10.932   5.283   8.219 -1.0070  0.5154 -0.4237
  359MOL0     C49453  10.911   5.495   8.498 -0.8404  0.2863 -0.4738
  359MOL0     C49454  10.974   5.587   8.575  0.9266 -0.5888  0.0283
  359MOL0     N49455  11.329   5.702   9.290  0.4127 -0.3014  0.2822
  359MOL0     N49456  11.286   5.626   9.390  0.2394 -1.0750  0.7507
  359MOL0     C49457  10.019   5.399   9.863 -0.7052  0.8985  0.7142
  359MOL0     C49458   9.878   5.419   9.848 -1.0544  0.4419 -0.7527
  359MOL0     C49459   9.469   5.523   9.770 -0.0175 -0.8043 -0.1521
  359MOL0     C49460   9.454   5.636   9.854 -0.2011  0.0122  0.2983
  359MOL0     C49461   9.335   5.707   9.856  0.7597  0.9726  0.1735
  359MOL0     C49462   9.215   5.663   9.799 -1.1621 -0.2194 -0.5604
  359MOL0     O49463   9.091   5.724   9.810  0.7820  0.0663 -0.1520
  359MOL0     C49464   9.073   5.848   9.887  0.2599  0.2233  0.2705
  359MOL0     C49465   8.937   5.916   9.849  0.0222  0.2963  0.2220
  359MOL0     C49466   8.912   5.940   9.705 -0.2270 -0.0077  0.6869
  359MOL0     C49467   8.783   6.019   9.677 -0.9462  0.2151 -0.4832
  359MOL0     C49468   8.783   6.168   9.723 -0.2526  0.4815  0.4123
  359MOL0     C49469   8.790   6.283   9.742 -0.4521 -0.1333 -0.6877
  359MOL0     C49470   9.234   5.546   9.725  0.0244 -0.3014 -0.6065
  359MOL0     C49471   9.352   5.468   9.712  0.1099 -0.9704  0.2662
  359MOL0     C49472   9.346   5.340   9.625 -0.4389 -0.7666 -0.2893
  359MOL0     H49473   9.874   5.732   9.765  1.5458  0.8588 -0.2254
  359MOL0     H49474  10.118   5.701   9.750  1.9611 -2.5451 -0.9768
  359MOL0     H49475  10.239   5.277   9.780 -0.7377 -0.4033  1.2999
  359MOL0     H49476  10.293   5.318   9.947 -2.7234  3.3052  1.6199
  359MOL0     H49477  10.506   5.398   9.881 -2.1839  1.2020  0.7264
  359MOL0     H49478  10.483   5.241   9.821  1.5368  0.0841 -0.3774
  359MOL0     H49479  10.457   5.349   9.576 -0.2836  1.5361 -0.7014
  359MOL0     H49480  10.453   5.494   9.656 -0.5060  0.0789 -0.3890
  359MOL0     H49481  10.698   5.391   9.765  3.0688 -1.8077 -2.1800
  359MOL0     H49482  10.678   5.291   9.623 -4.0022 -1.9928  0.7595
  359MOL0     H49483  10.727   5.581   9.636  3.1294 -1.3012  1.5599
  359MOL0     H49484  10.646   5.499   9.491  0.6939  2.7073  0.4939
  359MOL0     H49485  10.907   5.441   9.653  1.5224  1.1701 -0.2154
  359MOL0     H49486  10.853   5.356   9.510  0.1599  0.8042 -0.0904
  359MOL0     H49487  10.884   5.660   9.466  1.7608  0.8329 -1.3911
  359MOL0     H49488  10.903   5.529   9.367  1.0019  0.8413 -0.9186
  359MOL0     H49489  11.091   5.655   9.553  2.2905  0.6771 -1.5651
  359MOL0     H49490  11.095   5.471   9.522 -2.1698 -0.0236  0.9188
  359MOL0     H49491  11.026   5.654   9.181 -0.6311  3.3822 -1.5355
  359MOL0     H49492  11.322   5.873   9.079 -0.9215  1.1126  1.0729
  359MOL0     H49493  11.166   5.818   9.024  0.4170  0.6106  0.2628
  359MOL0     H49494  11.422   5.689   9.010  0.0108  0.8133  1.8121
  359MOL0     H49495  11.284   5.590   8.978  1.0396  0.7550  4.0151
  359MOL0     H49496  11.325   5.861   8.818 -1.7851  0.0137 -2.8300
  359MOL0     H49497  11.380   5.710   8.757  1.6403 -0.1329  1.9964
  359MOL0     H49498  11.150   5.619   8.808 -2.9905  0.6027 -0.0084
  359MOL0     H49499  11.092   5.786   8.793 -2.1880 -2.4314 -1.3523
  359MOL0     H49500  11.292   5.557   8.460 -0.1581  0.7953  2.6193
  359MOL0     H49501  11.315   5.358   8.332 -0.6888 -1.8712  1.4023
  359MOL0     H49502  11.196   5.364   8.196  1.0707  0.3719 -0.3717
  359MOL0     H49503  11.183   5.242   8.321 -0.3318  0.3524 -0.6636
  359MOL0     H49504  10.642   5.355   8.223 -0.8972  0.2468  0.0005
  359MOL0     H49505  10.451   5.241   8.128  3.9669  1.6543 -2.6972
  359MOL0     H49506  10.315   5.103   8.039  3.1838  2.1683  0.9166
  359MOL0     H49507  10.468   5.031   7.992 -1.0367  0.2968 -1.1393
  359MOL0     H49508  10.284   4.934   7.849 -1.3384  0.2113  0.5631
  359MOL0     H49509  10.377   4.822   7.940  0.4760  1.1725  0.4754
  359MOL0     H49510  10.098   4.936   8.023 -2.2652 -1.3495 -2.1909
  359MOL0     H49511  10.176   4.788   8.083  2.6851  1.2060  0.7202
  359MOL0     H49512  10.130   4.664   7.886 -1.0036  0.4613 -3.1433
  359MOL0     H49513  10.132   4.803   7.786 -2.6826  1.2148 -1.2446
  359MOL0     H49514   9.916   4.869   7.830 -4.0098 -0.9876  0.1994
  359MOL0     H49515   9.918   4.690   7.801 -1.3603 -0.7146  2.0156
  359MOL0     H49516   9.919   4.838   8.061  3.1711 -1.5988 -1.3335
  359MOL0     H49517   9.919   4.655   8.042 -0.4224 -0.8387  0.7802
  359MOL0     H49518   9.674   4.836   7.975 -3.1461 -0.6559  1.4556
  359MOL0     H49519   9.685   4.723   8.107  2.5324 -0.3654  0.8139
  359MOL0     H49520   9.723   4.633   7.821  2.5157 -3.1069  0.3288
  359MOL0     H49521   9.568   4.629   7.896 -0.1004  1.4347  1.7105
  359MOL0     H49522  10.548   4.885   8.344 -0.2327  0.3735 -2.1159
  359MOL0     H49523  10.757   5.010   8.449 -1.6158 -1.9230  0.9690
  359MOL0     H49524  10.805   5.477   8.506 -1.2274  2.3250 -0.4093
  359MOL0     H49525  10.922   5.651   8.646 -1.0852 -0.0407 -1.8290
  359MOL0     H49526  10.049   5.299   9.892  1.4329  1.7286  1.6448
  359MOL0     H49527   9.815   5.344   9.895 -0.7148  1.5557  1.6951
  359MOL0     H49528   9.530   5.688   9.911 -1.3616  0.6219  1.3385
  359MOL0     H49529   9.325   5.795   9.918  0.9765  1.1682 -0.0700
  359MOL0     H49530   9.078   5.841   9.996 -2.2747  0.8527  0.5055
  359MOL0     H49531   9.160   5.912   9.869 -0.5026  1.0182 -0.7210
  359MOL0     H49532   8.942   6.010   9.905 -4.1851  1.3640 -0.8370
  359MOL0     H49533   8.858   5.851   9.888 -0.3290  0.8268  0.4115
  359MOL0     H49534   8.998   5.992   9.662  0.5787 -1.6460  0.2664
  359MOL0     H49535   8.908   5.841   9.659  0.0766 -0.6778  2.0558
  359MOL0     H49536   8.696   5.966   9.719 -1.1302  0.1567 -0.9387
  359MOL0     H49537   8.782   6.012   9.568 -1.6792 -2.0983 -0.3910
  359MOL0     H49538   8.795   6.387   9.770 -0.1874  0.6933 -3.4910
  359MOL0     H49539   9.146   5.508   9.673 -0.7894  0.1482  0.4034
  359MOL0     H49540   9.241   5.336   9.592 -1.5419  3.1344  2.0248
  359MOL0     H49541   9.409   5.345   9.536 -1.1879  0.8984 -0.7722
  359MOL0     H49542   9.360   5.256   9.693 -1.2849 -1.0345 -0.4284
  360MOL0     O49543   0.705  10.725   1.375 -0.1367  0.1019 -0.8512
  360MOL0     C49544   0.618  10.657   1.412 -0.4888  0.0272  0.4318
  360MOL0     O49545   0.626  10.533   1.451  0.0894 -0.4609 -0.3459
  360MOL0     C49546   0.736  10.450   1.433  0.3226 -0.2965  0.0041
  360MOL0     C49547   0.769  10.358   1.538 -0.2651  0.0708 -0.0941
  360MOL0     C49548   0.887  10.291   1.519 -0.0019  0.0234 -0.5101
  360MOL0     C49549   0.975  10.305   1.416 -0.3012 -0.3313 -0.1941
  360MOL0     O49550   1.084  10.217   1.404  0.1192  0.5636 -0.0520
  360MOL0     C49551   1.177  10.232   1.291  0.2651 -0.0583  0.2530
  360MOL0     C49552   1.289  10.130   1.299  0.2584  0.1303  0.2929
  360MOL0     C49553   1.410  10.161   1.220  0.1667 -0.9476 -0.4483
  360MOL0     C49554   1.473  10.034   1.175  0.0713  0.6509  0.6092
  360MOL0     C49555   1.589  10.061   1.079 -0.0433  0.1399 -0.5678
  360MOL0     C49556   1.651   9.932   1.030 -0.6430  0.5026 -0.1023
  360MOL0     C49557   1.753   9.949   0.917 -1.1699  0.2145 -0.1580
  360MOL0     C49558   1.693   9.968   0.777 -0.4894  0.1822  0.7714
  360MOL0     N49559   1.613   9.845   0.742  0.5724 -0.6950 -0.8143
  360MOL0     C49560   1.659   9.714   0.753  0.0650  0.2924  0.2256
  360MOL0     C49561   1.541   9.646   0.756  0.1019  0.8691  0.7082
  360MOL0     C49562   1.537   9.499   0.774 -0.2838 -0.1209 -0.1294
  360MOL0     C49563   1.467   9.410   0.673 -0.0100  0.0674 -0.4084
  360MOL0     C49564   1.515   9.404   0.533  0.2302  0.1721  0.4672
  360MOL0     C49565   1.662   9.438   0.491 -0.8113 -0.4031  0.0796
  360MOL0     O49566   1.695   9.383   0.364 -0.2319  0.0739 -0.2615
  360MOL0     C49567   1.829   9.389   0.325 -0.3902  0.1499 -0.0109
  360MOL0     C49568   1.934   9.473   0.378  0.3484  0.6750 -0.4948
  360MOL0     C49569   2.064   9.469   0.329  0.0090 -0.2258 -0.4018
  360MOL0     C49570   2.162   9.550   0.404 -0.1983 -0.2452 -0.8734
  360MOL0     C49571   2.097   9.394   0.210  0.2066 -0.8420 -0.7938
  360MOL0     C49572   2.223   9.389   0.132 -0.3858 -0.0925  0.2624
  360MOL0     O49573   2.337   9.446   0.194  0.1629 -0.0880 -0.0679
  360MOL0     C49574   2.461   9.468   0.133  0.8622 -0.9224  0.6621
  360MOL0     C49575   2.514   9.380   0.043 -0.1500 -0.7597 -0.0844
  360MOL0     C49576   2.631   9.404  -0.028 -0.6192  0.9485  0.2460
  360MOL0     C49577   2.703   9.527  -0.009 -0.0513 -0.2819  0.0989
  360MOL0     O49578   2.824   9.578  -0.064 -0.0057 -0.3132 -0.4874
  360MOL0     C49579   2.904   9.489  -0.135  0.3431 -0.0263 -0.6625
  360MOL0     C49580   3.018   9.539  -0.214 -0.2674 -0.2142 -0.2968
  360MOL0     C49581   3.136   9.575  -0.122  0.4562 -0.3132 -0.1434
  360MOL0     C49582   3.238   9.650  -0.201  0.2513  0.0308  0.5701
  360MOL0     C49583   3.294   9.580  -0.319 -0.2290  0.4038  0.2596
  360MOL0     C49584   3.332   9.426  -0.305 -0.2480 -0.6804 -0.4530
  360MOL0     C49585   3.435   9.406  -0.188 -0.2074 -0.5231 -0.4905
  360MOL0     C49586   3.478   9.252  -0.191 -0.7849 -0.1855  0.4799
  360MOL0    Cl49587   3.339   9.146  -0.186 -0.2471 -0.6844 -0.0817
  360MOL0     C49588   2.661   9.616   0.087 -0.5392 -0.7989 -0.3524
  360MOL0     C49589   2.536   9.592   0.150 -0.2478  0.1838  0.3933
  360MOL0     O49590   2.209   9.370   0.010 -0.4200 -0.1038 -0.2413
  360MOL0     C49591   2.000   9.303   0.163  0.4778 -0.0910 -0.1794
  360MOL0     C49592   1.865   9.312   0.216 -0.2697  0.0640  1.3841
  360MOL0     N49593   1.430   9.726   0.738 -0.2338 -0.4059 -0.1980
  360MOL0     N49594   1.477   9.845   0.728  0.5517  1.2301  0.5082
  360MOL0     C49595   0.932  10.393   1.312 -0.2376  0.6394 -0.2604
  360MOL0     C49596   0.811  10.463   1.321 -0.9632  0.7845  0.0855
  360MOL0     C49597   0.484  10.718   1.428  0.9018  1.3673 -0.0410
  360MOL0     C49598   0.384  10.651   1.495 -0.2555  0.8267  0.2271
  360MOL0     C49599   0.253  10.695   1.504  0.2217  0.6901 -1.0666
  360MOL0     C49600   0.216  10.821   1.468 -0.0792 -0.3797  0.2459
  360MOL0     O49601   0.086  10.853   1.470 -0.4606  0.0750  0.2856
  360MOL0     C49602  -0.000  10.792   1.368 -1.0610  0.1319 -0.3760
  360MOL0     C49603  -0.132  10.861   1.348 -0.1032 -0.4858 -0.0557
  360MOL0     C49604  -0.203  10.864   1.480  1.1679 -0.1852 -0.4169
  360MOL0     C49605  -0.347  10.930   1.463 -0.4236 -0.4863 -0.1672
  360MOL0     C49606  -0.389  10.954   1.598  1.3683 -0.3246 -0.2737
  360MOL0     C49607  -0.427  10.962   1.712 -0.4931  0.1100  0.2573
  360MOL0     C49608   0.316  10.904   1.408  0.3070 -0.4443  0.2105
  360MOL0     C49609   0.450  10.849   1.388  0.5119  0.1369 -0.9106
  360MOL0     C49610   0.542  10.953   1.325 -0.1097  0.2372  0.4333
  360MOL0     H49611   0.717  10.347   1.632 -0.3993  0.9633 -0.0523
  360MOL0     H49612   0.911  10.218   1.596 -0.3834 -3.2886 -3.3100
  360MOL0     H49613   1.214  10.335   1.299 -0.5067  0.5616 -2.8272
  360MOL0     H49614   1.116  10.220   1.200 -2.0105  3.2490  1.1475
  360MOL0     H49615   1.319  10.140   1.403  1.0143  4.5037 -0.1473
  360MOL0     H49616   1.252  10.029   1.278 -4.4376  0.1694  5.8537
  360MOL0     H49617   1.392  10.232   1.139 -0.8654  1.3837  1.6618
  360MOL0     H49618   1.484  10.200   1.291 -1.7188  0.8000  0.6762
  360MOL0     H49619   1.506   9.967   1.255 -1.8617  0.2785  1.1503
  360MOL0     H49620   1.397   9.976   1.121  1.4399 -0.2658 -0.4183
  360MOL0     H49621   1.664  10.120   1.132 -0.0673  0.1942 -0.5946
  360MOL0     H49622   1.558  10.122   0.993 -0.5804 -1.8390 -1.8622
  360MOL0     H49623   1.704   9.897   1.119  2.6363  2.0730 -1.2758
  360MOL0     H49624   1.582   9.851   1.005 -0.9936  1.4624 -2.5070
  360MOL0     H49625   1.818   9.861   0.919 -2.9492 -1.1455  0.7604
  360MOL0     H49626   1.815  10.034   0.946  0.2932  0.9224 -4.6245
  360MOL0     H49627   1.633  10.059   0.777  0.9763  1.1862  1.6591
  360MOL0     H49628   1.764   9.977   0.694 -3.3061 -1.3370 -2.0212
  360MOL0     H49629   1.756   9.670   0.771 -0.7245 -2.3938 -1.4485
  360MOL0     H49630   1.487   9.484   0.870  3.0745 -1.1239  1.6205
  360MOL0     H49631   1.643   9.479   0.788 -0.7245 -0.6130  3.4745
  360MOL0     H49632   1.454   9.308   0.709  0.2867  0.2370  0.1953
  360MOL0     H49633   1.370   9.459   0.681 -0.9899 -1.6923 -0.9527
  360MOL0     H49634   1.488   9.305   0.497  0.2863  0.7102 -1.1601
  360MOL0     H49635   1.447   9.471   0.478 -1.5533 -2.3588 -0.5802
  360MOL0     H49636   1.681   9.546   0.499 -3.1544 -0.0082  1.1934
  360MOL0     H49637   1.723   9.380   0.560 -1.3666 -1.3922 -0.2504
  360MOL0     H49638   1.906   9.541   0.457 -1.1979  0.6348 -0.9820
  360MOL0     H49639   2.113   9.593   0.492  1.0507 -1.7978  0.6455
  360MOL0     H49640   2.206   9.628   0.340  1.0360 -1.4584 -1.5431
  360MOL0     H49641   2.237   9.490   0.455 -1.9743 -1.1199  0.8558
  360MOL0     H49642   2.464   9.283   0.044 -2.7997  0.5173  0.0066
  360MOL0     H49643   2.677   9.324  -0.086  0.8601  1.1351  1.1113
  360MOL0     H49644   2.946   9.417  -0.065 -4.1697 -0.0571  2.4397
  360MOL0     H49645   2.840   9.440  -0.209 -0.9510  0.7630 -0.1052
  360MOL0     H49646   3.053   9.462  -0.283 -0.6915  0.8795 -1.7627
  360MOL0     H49647   2.984   9.628  -0.267 -2.9612 -0.6048  0.6249
  360MOL0     H49648   3.167   9.475  -0.090  0.6389 -1.1650 -2.7461
  360MOL0     H49649   3.105   9.636  -0.036  1.5385  1.1254 -0.7253
  360MOL0     H49650   3.320   9.677  -0.135 -0.1556  0.8717  0.7478
  360MOL0     H49651   3.184   9.739  -0.235  0.3611 -1.0460 -2.8586
  360MOL0     H49652   3.227   9.595  -0.405  2.3743  1.9104 -1.6503
  360MOL0     H49653   3.378   9.636  -0.361 -0.9211 -0.7141 -2.9345
  360MOL0     H49654   3.382   9.399  -0.397 -1.3903  1.6854 -1.8761
  360MOL0     H49655   3.241   9.368  -0.288 -0.6143 -0.7655 -2.5129
  360MOL0     H49656   3.395   9.426  -0.088 -0.3481 -0.7373 -0.5037
  360MOL0     H49657   3.515   9.479  -0.204  0.3160 -0.6407  1.3486
  360MOL0     H49658   3.549   9.230  -0.111 -1.3745  0.8532  1.3099
  360MOL0     H49659   3.534   9.234  -0.283  1.1788  2.4359  1.0507
  360MOL0     H49660   2.731   9.695   0.110 -1.1498  0.1219 -1.5560
  360MOL0     H49661   2.497   9.665   0.220  0.7743 -0.8104  2.0654
  360MOL0     H49662   1.993   9.224   0.089 -0.0398 -0.9974  0.8092
  360MOL0     H49663   1.797   9.238   0.176  0.9356 -1.0424  1.3265
  360MOL0     H49664   0.997  10.406   1.226  1.6670  2.8401  1.3790
  360MOL0     H49665   0.778  10.525   1.239  0.4765  1.9628  0.3457
  360MOL0     H49666   0.399  10.552   1.536 -2.7824  0.2435 -0.0509
  360MOL0     H49667   0.182  10.628   1.553  1.9415 -0.0902  0.4850
  360MOL0     H49668   0.054  10.797   1.273  0.5851  4.6211  0.5345
  360MOL0     H49669  -0.018  10.688   1.396  2.2330 -0.9309 -1.7956
  360MOL0     H49670  -0.183  10.802   1.272 -2.4290 -0.0185  1.0382
  360MOL0     H49671  -0.120  10.965   1.317 -2.1236 -0.3176 -0.4237
  360MOL0     H49672  -0.208  10.766   1.528 -1.5070 -0.5868 -1.3481
  360MOL0     H49673  -0.147  10.933   1.545 -1.5034 -0.3578  2.2349
  360MOL0     H49674  -0.414  10.856   1.419 -2.0775 -0.3214  1.9371
  360MOL0     H49675  -0.340  11.026   1.410  0.6520 -0.9564 -0.9101
  360MOL0     H49676  -0.448  10.953   1.816 -0.8521 -0.9694  0.1059
  360MOL0     H49677   0.297  11.008   1.385  0.1064  0.5833  4.1603
  360MOL0     H49678   0.597  11.015   1.397 -0.8324  0.1039  1.1111
  360MOL0     H49679   0.614  10.913   1.253 -0.3582  2.4225 -1.1329
  360MOL0     H49680   0.477  11.025   1.275  0.2382  0.8749  0.8934
  361MOL0     O49681   5.701   4.630   8.370  0.2051  0.1598 -0.3410
  361MOL0     C49682   5.713   4.670   8.248 -0.5028 -0.0275 -0.8322
  361MOL0     O49683   5.816   4.737   8.198 -0.2964 -0.5509 -0.2588
  361MOL0     C49684   5.929   4.765   8.268 -1.1386 -0.1776 -0.0017
  361MOL0     C49685   6.047   4.763   8.190  0.0872 -0.6986  0.5226
  361MOL0     C49686   6.166   4.778   8.248  0.3880  0.1607 -0.4383
  361MOL0     C49687   6.177   4.798   8.389 -0.2398  0.6160  0.3865
  361MOL0     O49688   6.293   4.819   8.463  0.6014  0.0900 -0.2756
  361MOL0     C49689   6.417   4.863   8.404  0.2693  0.5199  0.1692
  361MOL0     C49690   6.526   4.847   8.511 -0.0294  0.7027  0.1519
  361MOL0     C49691   6.518   4.969   8.609 -0.2166  1.1906 -0.5302
  361MOL0     C49692   6.639   4.962   8.697  0.4409 -0.2505 -0.4212
  361MOL0     C49693   6.656   5.089   8.783 -0.2970 -0.4161 -0.1388
  361MOL0     C49694   6.806   5.075   8.835  0.7019 -0.5467  0.1175
  361MOL0     C49695   6.836   4.947   8.917  0.4151 -0.5072  0.6087
  361MOL0     C49696   6.983   4.935   8.935 -0.0575  0.4947 -0.5600
  361MOL0     N49697   7.054   4.887   8.810  0.6557  0.0444  0.1330
  361MOL0     C49698   7.045   4.761   8.752 -0.2483  0.4919 -0.2841
  361MOL0     C49699   7.127   4.757   8.641 -0.2426 -0.0800  0.1432
  361MOL0     C49700   7.140   4.636   8.552 -0.5988 -0.5422 -0.0658
  361MOL0     C49701   7.247   4.541   8.614 -0.6558 -0.5856 -0.0884
  361MOL0     C49702   7.392   4.588   8.585 -0.3157 -0.5059  0.2482
  361MOL0     C49703   7.487   4.513   8.673 -0.0761  0.0687  0.0811
  361MOL0     O49704   7.492   4.373   8.642 -0.5202 -0.5415  0.2572
  361MOL0     C49705   7.593   4.322   8.580 -0.6844  0.6801  0.1216
  361MOL0     C49706   7.696   4.391   8.505 -0.2108  0.3797 -0.2263
  361MOL0     C49707   7.798   4.321   8.442  0.1061  0.6594 -0.0437
  361MOL0     C49708   7.891   4.401   8.351  0.6481  0.6117  0.1180
  361MOL0     C49709   7.809   4.180   8.464 -0.1022 -0.0178  0.5005
  361MOL0     C49710   7.919   4.107   8.413 -0.4270  0.2264 -1.1744
  361MOL0     O49711   7.960   4.000   8.498 -0.1314  0.2913  0.6744
  361MOL0     C49712   8.083   3.935   8.481 -0.5133  0.5298  1.5520
  361MOL0     C49713   8.093   3.795   8.452 -0.8026  0.3758 -1.0249
  361MOL0     C49714   8.219   3.738   8.460  0.4068 -0.1416  0.5045
  361MOL0     C49715   8.342   3.808   8.497  0.4678 -1.2147 -0.5538
  361MOL0     O49716   8.463   3.748   8.505 -0.0485 -0.6502  0.3352
  361MOL0     C49717   8.577   3.823   8.545 -0.8062  0.0138  0.2606
  361MOL0     C49718   8.705   3.733   8.563 -0.1588 -0.0233 -0.0060
  361MOL0     C49719   8.826   3.788   8.634  0.3313  0.0199 -0.4680
  361MOL0     C49720   8.953   3.703   8.615  0.2727  0.5278  0.4282
  361MOL0     C49721   9.067   3.760   8.692 -0.3195 -0.5587 -0.1222
  361MOL0     C49722   9.200   3.697   8.636  0.3535 -0.1091  0.6979
  361MOL0     C49723   9.320   3.772   8.684 -0.0097 -0.2021 -0.3838
  361MOL0     C49724   9.356   3.892   8.593 -0.0619 -0.3449 -0.1236
  361MOL0    Cl49725   9.451   3.847   8.455  0.2845 -0.3671 -0.4604
  361MOL0     C49726   8.328   3.942   8.519  0.6673  0.5054 -0.1818
  361MOL0     C49727   8.202   4.009   8.506  0.6631  0.4147 -0.1824
  361MOL0     O49728   7.969   4.130   8.311 -0.5562 -0.3213 -0.0840
  361MOL0     C49729   7.713   4.119   8.547  0.4483  0.0301  0.2476
  361MOL0     C49730   7.605   4.187   8.602 -0.6438 -0.1803 -0.8296
  361MOL0     N49731   7.183   4.881   8.628 -0.3931 -0.3553  0.5232
  361MOL0     N49732   7.137   4.958   8.728  0.1165 -0.4577 -0.5984
  361MOL0     C49733   6.054   4.808   8.458 -0.4752  0.5758  0.0586
  361MOL0     C49734   5.932   4.796   8.406  0.6020 -0.2864  0.8665
  361MOL0     C49735   5.607   4.634   8.153  0.2193  0.2023 -0.0649
  361MOL0     C49736   5.473   4.681   8.154 -0.0262 -0.5387 -0.8155
  361MOL0     C49737   5.377   4.630   8.073  0.3756  0.7580 -0.3583
  361MOL0     C49738   5.412   4.548   7.974  0.8133 -0.2126  0.6420
  361MOL0     O49739   5.322   4.485   7.889  0.0777 -0.1010 -0.6467
  361MOL0     C49740   5.184   4.491   7.920 -0.4838 -0.3725  0.4289
  361MOL0     C49741   5.099   4.414   7.826  0.5852  0.0420 -0.0346
  361MOL0     C49742   4.944   4.415   7.864 -0.4374 -0.3467  0.2557
  361MOL0     C49743   4.865   4.548   7.848 -0.4238 -0.5073  0.3341
  361MOL0     C49744   4.721   4.517   7.839  0.3541  0.0056 -0.6171
  361MOL0     C49745   4.600   4.496   7.825 -0.0742  1.1526  0.0712
  361MOL0     C49746   5.544   4.502   7.970 -0.8096  0.6560  0.5021
  361MOL0     C49747   5.646   4.551   8.046 -0.9201 -0.8406 -1.1755
  361MOL0     C49748   5.786   4.505   8.021 -0.5491 -0.1604 -0.3710
  361MOL0     H49749   6.043   4.740   8.084  2.1864  0.5143  0.1408
  361MOL0     H49750   6.256   4.764   8.190 -1.2555 -0.5185 -2.9784
  361MOL0     H49751   6.416   4.968   8.374  3.6415  0.3770 -0.9378
  361MOL0     H49752   6.441   4.811   8.311 -1.1909  2.6067 -1.4679
  361MOL0     H49753   6.528   4.750   8.561 -1.4027 -0.7473 -2.4011
  361MOL0     H49754   6.617   4.843   8.451 -1.6636  0.4391 -2.4575
  361MOL0     H49755   6.526   5.061   8.550 -2.3425  0.8736 -1.4184
  361MOL0     H49756   6.418   4.968   8.653  0.0604 -2.0805  0.2445
  361MOL0     H49757   6.614   4.880   8.765  0.1626  1.4415  1.6296
  361MOL0     H49758   6.724   4.946   8.630  1.2194 -1.0438  0.7067
  361MOL0     H49759   6.589   5.093   8.869  1.7778 -1.2125  1.5925
  361MOL0     H49760   6.639   5.183   8.729 -0.2925  0.4941  1.4076
  361MOL0     H49761   6.858   5.067   8.739  1.2506  1.4583  0.2034
  361MOL0     H49762   6.849   5.165   8.878  1.1228 -0.3482 -0.7024
  361MOL0     H49763   6.803   4.851   8.876  3.6486 -1.9667  1.1583
  361MOL0     H49764   6.786   4.964   9.013  1.6140  1.1143  0.9861
  361MOL0     H49765   7.035   5.026   8.965  2.2042 -1.2012  1.1079
  361MOL0     H49766   6.990   4.865   9.020 -2.7692  1.7069  0.7757
  361MOL0     H49767   6.966   4.692   8.778 -0.3685  1.2704  1.6006
  361MOL0     H49768   7.173   4.671   8.453 -0.4380  0.4208  0.3136
  361MOL0     H49769   7.046   4.583   8.536 -0.3825 -0.2367 -2.8034
  361MOL0     H49770   7.234   4.518   8.720  1.5668 -1.8006 -0.0224
  361MOL0     H49771   7.232   4.448   8.558  2.2070  0.1722 -2.3862
  361MOL0     H49772   7.414   4.583   8.478 -1.6641 -0.1091 -0.0733
  361MOL0     H49773   7.409   4.694   8.610 -2.2607 -0.0012 -0.3855
  361MOL0     H49774   7.589   4.551   8.664 -1.1803  3.3439 -0.0714
  361MOL0     H49775   7.458   4.535   8.777 -0.2268 -1.9050  0.5080
  361MOL0     H49776   7.679   4.494   8.475 -1.9292 -0.2106 -1.4023
  361MOL0     H49777   7.866   4.507   8.345 -1.1487  0.1803 -0.6909
  361MOL0     H49778   7.882   4.360   8.251 -1.6982 -1.7231  1.1662
  361MOL0     H49779   7.991   4.392   8.395  0.6376 -0.5335 -0.0798
  361MOL0     H49780   8.009   3.727   8.444  0.0123 -1.3433  2.8670
  361MOL0     H49781   8.232   3.632   8.442  4.2985 -0.7210  4.8973
  361MOL0     H49782   8.604   3.904   8.475 -2.1199 -0.3204 -0.6670
  361MOL0     H49783   8.557   3.870   8.641 -0.3108 -1.5232  1.1503
  361MOL0     H49784   8.676   3.649   8.626 -0.5295  0.7201  0.8460
  361MOL0     H49785   8.736   3.704   8.463  0.4614  0.3105  0.0824
  361MOL0     H49786   8.803   3.802   8.741  0.3976  3.5050 -0.7822
  361MOL0     H49787   8.847   3.884   8.586 -0.3397  0.1077 -0.5964
  361MOL0     H49788   8.977   3.704   8.508 -2.8047 -1.5639 -0.4234
  361MOL0     H49789   8.943   3.598   8.641  2.5884 -0.3103 -1.6629
  361MOL0     H49790   9.073   3.869   8.683  1.8146 -0.6950 -0.9916
  361MOL0     H49791   9.067   3.734   8.798 -0.7343  1.3204  0.3679
  361MOL0     H49792   9.202   3.696   8.526  0.1282  1.3333  0.6640
  361MOL0     H49793   9.217   3.592   8.665 -1.5604  0.0379  2.5927
  361MOL0     H49794   9.410   3.710   8.691  0.0176 -0.0688  0.4436
  361MOL0     H49795   9.302   3.793   8.789 -1.6218 -3.8618  0.2477
  361MOL0     H49796   9.420   3.961   8.649 -0.8739  1.1174 -0.9395
  361MOL0     H49797   9.268   3.953   8.568 -0.4755 -0.2641  1.4269
  361MOL0     H49798   8.398   4.007   8.572 -1.0120 -0.0452  2.9372
  361MOL0     H49799   8.178   4.108   8.544  0.3839 -0.2966  1.6157
  361MOL0     H49800   7.711   4.012   8.565 -2.5803  0.1491  1.1224
  361MOL0     H49801   7.535   4.131   8.664 -0.9489  0.3965 -0.6449
  361MOL0     H49802   6.053   4.815   8.567 -1.9456 -2.3923  0.3474
  361MOL0     H49803   5.833   4.798   8.450 -2.7993  0.8440 -5.5198
  361MOL0     H49804   5.442   4.749   8.233 -1.9974 -1.9865 -0.2819
  361MOL0     H49805   5.271   4.654   8.078 -0.0088 -1.0109  1.2814
  361MOL0     H49806   5.180   4.459   8.025  0.1116  2.4974  1.4255
  361MOL0     H49807   5.151   4.595   7.910  0.8353  0.0052 -0.2237
  361MOL0     H49808   5.134   4.311   7.821 -1.0981 -0.6394  1.3072
  361MOL0     H49809   5.094   4.458   7.726 -0.4978 -2.1888 -1.0483
  361MOL0     H49810   4.896   4.336   7.805  0.1403  0.0204 -0.7275
  361MOL0     H49811   4.937   4.390   7.970  2.9201 -1.5050  0.3233
  361MOL0     H49812   4.903   4.584   7.752 -0.7434  0.6684  0.6376
  361MOL0     H49813   4.894   4.615   7.929  3.4707 -1.9964  0.3702
  361MOL0     H49814   4.495   4.478   7.810  0.2740 -0.0379 -1.1549
  361MOL0     H49815   5.564   4.426   7.895 -0.3034  0.1813  1.1069
  361MOL0     H49816   5.789   4.418   7.954 -0.6052 -1.5021  1.2726
  361MOL0     H49817   5.853   4.586   7.991  0.7509 -0.9125  0.3610
  361MOL0     H49818   5.822   4.461   8.115 -2.6082  0.7609  0.9017
  362MOL0     O49819  10.579   3.062   1.588  0.1573 -0.0952 -0.3273
  362MOL0     C49820  10.593   2.956   1.645  0.4021  0.2034 -0.3169
  362MOL0     O49821  10.716   2.910   1.684 -0.0476  0.1134  0.7092
  362MOL0     C49822  10.823   2.934   1.599  0.1881  1.0847 -0.3201
  362MOL0     C49823  10.939   2.945   1.674 -0.1622  0.0862 -0.1375
  362MOL0     C49824  11.058   2.983   1.616  0.6131 -0.9520  0.7465
  362MOL0     C49825  11.063   2.992   1.469 -0.5453 -0.2001  0.5824
  362MOL0     O49826  11.183   3.026   1.412 -0.8214 -0.0508  0.3369
  362MOL0     C49827  11.196   3.021   1.267 -0.1824  0.6924  0.1866
  362MOL0     C49828  11.322   3.113   1.243  1.2892  0.7536  0.0528
  362MOL0     C49829  11.450   3.052   1.299 -0.0613  0.6107  0.0865
  362MOL0     C49830  11.562   3.117   1.230  0.4418  0.0947  0.9863
  362MOL0     C49831  11.696   3.057   1.264 -0.1754 -0.2982 -0.3821
  362MOL0     C49832  11.809   3.135   1.197  0.3421 -0.6294  0.4813
  362MOL0     C49833  11.941   3.059   1.168  1.1148 -0.1803  0.1284
  362MOL0     C49834  12.034   3.138   1.086 -0.0624 -0.0242  0.2925
  362MOL0     N49835  12.099   3.251   1.154 -0.5989  0.3570 -0.3313
  362MOL0     C49836  12.173   3.230   1.265 -0.0033 -0.1221  0.7705
  362MOL0     C49837  12.222   3.353   1.286  0.0386 -0.1970 -0.2780
  362MOL0     C49838  12.320   3.393   1.391 -0.6394  0.0946  0.6755
  362MOL0     C49839  12.452   3.443   1.332  0.9238  0.2928 -0.1894
  362MOL0     C49840  12.517   3.515   1.443 -0.3661  1.1628 -0.2385
  362MOL0     C49841  12.664   3.536   1.406 -0.3133  0.3500  0.4377
  362MOL0     O49842  12.742   3.589   1.512  0.1061 -0.0032  0.4478
  362MOL0     C49843  12.873   3.608   1.474 -0.4696 -0.0932  0.1029
  362MOL0     C49844  12.957   3.503   1.423 -0.4348  0.0212 -0.9017
  362MOL0     C49845  13.086   3.529   1.375  0.2172  0.1771  0.2044
  362MOL0     C49846  13.174   3.423   1.316  1.0696 -0.7661 -0.4725
  362MOL0     C49847  13.133   3.664   1.371 -0.4826  0.5547  0.1031
  362MOL0     C49848  13.268   3.685   1.320 -0.7687 -0.4912 -0.9056
  362MOL0     O49849  13.296   3.659   1.184  0.3023 -0.1714 -0.5221
  362MOL0     C49850  13.420   3.628   1.132 -0.1801 -0.2433 -0.5732
  362MOL0     C49851  13.514   3.572   1.212 -0.6532  0.0329 -0.2313
  362MOL0     C49852  13.642   3.551   1.171 -0.4834 -0.3027 -0.1480
  362MOL0     C49853  13.688   3.580   1.042 -0.2715  0.3469  0.0283
  362MOL0     O49854  13.820   3.564   1.000 -0.1148 -0.1437  0.0872
  362MOL0     C49855  13.923   3.610   1.082 -0.0827 -0.1907  0.3436
  362MOL0     C49856  14.045   3.672   1.011 -0.2721  0.2335 -0.0845
  362MOL0     C49857  14.013   3.779   0.907  1.0830 -0.4032 -0.1465
  362MOL0     C49858  14.132   3.883   0.885  0.8832 -0.6971 -0.4817
  362MOL0     C49859  14.246   3.814   0.816 -0.6669  0.0234 -0.0908
  362MOL0     C49860  14.371   3.787   0.913  0.8512 -0.5677  0.2143
  362MOL0     C49861  14.509   3.783   0.839 -0.3561  0.5418  0.0338
  362MOL0     C49862  14.616   3.761   0.943 -0.3111 -0.1844 -0.6994
  362MOL0    Cl49863  14.782   3.741   0.869 -0.2621 -0.0974 -0.3341
  362MOL0     C49864  13.595   3.639   0.960  0.3839 -0.0170 -1.4354
  362MOL0     C49865  13.464   3.665   1.001 -0.4589  0.1658 -0.2101
  362MOL0     O49866  13.349   3.714   1.406 -0.4111  0.3236  0.0142
  362MOL0     C49867  13.046   3.762   1.411 -0.3203 -0.2142  0.2667
  362MOL0     C49868  12.921   3.734   1.467  0.1293  0.1768 -0.1878
  362MOL0     N49869  12.164   3.445   1.204 -0.1354 -0.6200 -0.3912
  362MOL0     N49870  12.079   3.382   1.128 -0.0854  0.5063  0.2768
  362MOL0     C49871  10.946   2.976   1.395  0.5185  1.2846  0.1384
  362MOL0     C49872  10.822   2.948   1.460 -0.3410  0.4191  0.4254
  362MOL0     C49873  10.478   2.881   1.704 -0.6427 -0.6204 -0.3982
  362MOL0     C49874  10.511   2.764   1.775 -0.2395  0.9609  0.0668
  362MOL0     C49875  10.413   2.680   1.830  0.2387  0.5982  0.4291
  362MOL0     C49876  10.281   2.712   1.819 -0.0367  0.1396  0.0123
  362MOL0     O49877  10.190   2.613   1.871 -0.2551 -1.2189  0.0791
  362MOL0     C49878  10.053   2.638   1.848  0.2805 -0.3601  0.5051
  362MOL0     C49879   9.961   2.534   1.902 -0.2022  0.3067  0.1810
  362MOL0     C49880   9.949   2.534   2.055 -0.4482  0.1579  0.0835
  362MOL0     C49881  10.056   2.453   2.129  0.2102  0.3599  0.2136
  362MOL0     C49882  10.045   2.452   2.276 -0.8877 -0.4673 -0.3605
  362MOL0     C49883  10.034   2.470   2.397  0.0202 -0.1227 -0.2391
  362MOL0     C49884  10.245   2.832   1.757  0.0862 -0.4559 -0.8582
  362MOL0     C49885  10.339   2.915   1.705 -0.1877 -0.2247  0.7580
  362MOL0     C49886  10.289   3.047   1.641 -0.3075 -0.3678 -0.1555
  362MOL0     H49887  10.935   2.923   1.780  2.1720 -1.7465 -0.3545
  362MOL0     H49888  11.143   3.008   1.678 -0.6732 -0.6604  2.4486
  362MOL0     H49889  11.110   3.056   1.210 -1.0226 -0.3745  0.7463
  362MOL0     H49890  11.224   2.920   1.235 -1.8251 -0.1282  1.1709
  362MOL0     H49891  11.329   3.140   1.137  2.2840  2.9355  0.6261
  362MOL0     H49892  11.307   3.204   1.302  3.7336 -0.6823  3.1841
  362MOL0     H49893  11.455   3.059   1.408  0.5297 -3.0909  0.4159
  362MOL0     H49894  11.452   2.944   1.282 -2.9822  0.8811 -2.8399
  362MOL0     H49895  11.548   3.109   1.121 -0.9755 -1.0951  1.2284
  362MOL0     H49896  11.569   3.223   1.257  0.8948  0.0896  0.8866
  362MOL0     H49897  11.706   2.949   1.248  2.5361 -0.3680  1.0770
  362MOL0     H49898  11.706   3.065   1.373 -0.4266 -0.1458 -0.3705
  362MOL0     H49899  11.776   3.162   1.096 -1.9126  0.0142  1.3120
  362MOL0     H49900  11.822   3.235   1.241 -3.7521  1.0503 -1.5538
  362MOL0     H49901  11.918   2.966   1.115 -0.8370  0.9897 -1.1592
  362MOL0     H49902  11.991   3.041   1.264 -3.6195 -1.0443  2.7548
  362MOL0     H49903  12.116   3.074   1.052  0.3369  2.0127 -2.9686
  362MOL0     H49904  11.989   3.179   0.995  0.4841 -0.2202 -0.0694
  362MOL0     H49905  12.201   3.141   1.321 -0.3951  1.5939  3.9274
  362MOL0     H49906  12.336   3.302   1.451 -2.2663 -1.2993 -0.8940
  362MOL0     H49907  12.274   3.468   1.456  0.7146  0.5923  1.0941
  362MOL0     H49908  12.515   3.361   1.294 -0.9938 -1.2015 -0.2761
  362MOL0     H49909  12.439   3.527   1.263  1.8242 -0.6709 -1.5888
  362MOL0     H49910  12.463   3.606   1.472 -1.1414  0.4746  0.5518
  362MOL0     H49911  12.525   3.455   1.535  0.4169 -1.1351 -1.7341
  362MOL0     H49912  12.700   3.441   1.366 -3.2019 -0.1345 -1.2994
  362MOL0     H49913  12.670   3.612   1.327  0.5752 -0.0030  0.1606
  362MOL0     H49914  12.930   3.406   1.462  0.1616  1.3690  3.3151
  362MOL0     H49915  13.204   3.445   1.213 -0.8294 -1.4755 -1.2199
  362MOL0     H49916  13.137   3.322   1.333  1.9281 -0.4466  5.2468
  362MOL0     H49917  13.262   3.418   1.381 -1.3857 -0.3592  3.1581
  362MOL0     H49918  13.485   3.535   1.310  0.3591  3.0920  1.3572
  362MOL0     H49919  13.705   3.499   1.243 -1.9319 -3.1993 -0.8326
  362MOL0     H49920  13.888   3.692   1.145  0.8480  1.1998 -0.8957
  362MOL0     H49921  13.952   3.531   1.153 -2.3702  0.4832  2.1436
  362MOL0     H49922  14.104   3.731   1.082  0.0463 -0.3606  0.1560
  362MOL0     H49923  14.094   3.586   0.964 -1.3433  1.3818 -3.6399
  362MOL0     H49924  13.923   3.826   0.946  1.4394 -1.4144  2.0328
  362MOL0     H49925  13.996   3.731   0.810  2.1704 -2.3397  0.5508
  362MOL0     H49926  14.163   3.931   0.979  0.1650 -2.1770  0.5520
  362MOL0     H49927  14.104   3.954   0.807  3.0036  0.9834  0.2017
  362MOL0     H49928  14.218   3.725   0.759  0.8823  0.7162 -2.0271
  362MOL0     H49929  14.280   3.886   0.741  0.8942 -1.0654 -0.4581
  362MOL0     H49930  14.356   3.693   0.967 -1.7893 -0.3902 -0.0643
  362MOL0     H49931  14.377   3.866   0.988 -0.5173  0.7986 -1.0420
  362MOL0     H49932  14.518   3.874   0.778 -5.0497  1.0280 -0.2952
  362MOL0     H49933  14.504   3.697   0.772 -0.2761  0.7966 -0.3008
  362MOL0     H49934  14.595   3.674   1.006  0.9131 -0.0584 -0.0786
  362MOL0     H49935  14.613   3.848   1.008 -0.5398 -1.0141  0.4304
  362MOL0     H49936  13.624   3.669   0.860  0.6360  1.3260 -0.9780
  362MOL0     H49937  13.388   3.709   0.936 -1.8858 -0.3493  1.0369
  362MOL0     H49938  13.085   3.862   1.395  0.0033 -0.5381 -1.1215
  362MOL0     H49939  12.852   3.810   1.504 -2.0491 -0.5012 -2.5440
  362MOL0     H49940  10.943   2.990   1.288  0.2592  1.0568  0.1145
  362MOL0     H49941  10.732   2.950   1.400  0.4590 -0.7758 -0.8868
  362MOL0     H49942  10.614   2.739   1.795 -0.0344  1.0096 -0.8854
  362MOL0     H49943  10.442   2.598   1.896  0.5823  2.8152  3.2098
  362MOL0     H49944  10.025   2.728   1.904 -1.2846 -1.2270  1.1583
  362MOL0     H49945  10.032   2.647   1.741  2.2579  0.5168  0.1311
  362MOL0     H49946  10.006   2.439   1.872 -1.4502 -1.0031  2.1958
  362MOL0     H49947   9.864   2.552   1.854 -0.2112 -0.9563 -0.3092
  362MOL0     H49948   9.953   2.635   2.098 -2.3084 -0.7180  2.5165
  362MOL0     H49949   9.849   2.497   2.079 -0.5548  0.1949 -0.2891
  362MOL0     H49950  10.151   2.504   2.108 -0.3643  1.2700 -0.2212
  362MOL0     H49951  10.051   2.348   2.098  0.2730  0.1448  0.9146
  362MOL0     H49952  10.034   2.470   2.504 -0.5616 -3.2515 -0.1531
  362MOL0     H49953  10.144   2.863   1.731  0.8013  1.4251 -1.5585
  362MOL0     H49954  10.338   3.132   1.688  1.3178 -1.2982 -0.0820
  362MOL0     H49955  10.295   3.043   1.532 -0.8793  1.3628 -0.2794
  362MOL0     H49956  10.185   3.057   1.673 -0.2462  1.3172 -0.3884
  363MOL0     O49957   0.927  11.357   5.517 -0.4026  0.0900 -0.2032
  363MOL0     C49958   0.829  11.405   5.572 -0.0077 -0.0831  0.3439
  363MOL0     O49959   0.806  11.542   5.577 -1.0618  0.4562  0.0119
  363MOL0     C49960   0.893  11.631   5.530  0.2341 -0.8194  1.2027
  363MOL0     C49961   1.033  11.623   5.566  0.1846  0.2230 -0.3636
  363MOL0     C49962   1.113  11.721   5.513  0.0557  0.0154 -0.0932
  363MOL0     C49963   1.060  11.830   5.443  0.2499  0.2780  0.2209
  363MOL0     O49964   1.127  11.944   5.405 -0.5589 -0.4457 -0.4350
  363MOL0     C49965   1.263  11.970   5.435 -0.5267  0.0101  0.0125
  363MOL0     C49966   1.283  12.120   5.409  0.4716 -0.3533  0.0581
  363MOL0     C49967   1.429  12.150   5.423 -0.3553  0.9632  0.0449
  363MOL0     C49968   1.460  12.295   5.404  0.6342  0.0087  0.1829
  363MOL0     C49969   1.604  12.336   5.424 -0.6224  0.2445  0.2930
  363MOL0     C49970   1.702  12.248   5.346 -0.2663 -0.2080 -0.8450
  363MOL0     C49971   1.682  12.255   5.192 -0.2957 -0.4599  0.9037
  363MOL0     C49972   1.729  12.385   5.141 -0.0612 -0.5227  0.5851
  363MOL0     N49973   1.750  12.377   4.995  0.6536  0.2973  0.0860
  363MOL0     C49974   1.680  12.458   4.908  0.2567 -0.1309 -0.1700
  363MOL0     C49975   1.756  12.466   4.790  0.9686  0.0288  0.2838
  363MOL0     C49976   1.714  12.530   4.656 -0.1251  0.6739 -0.7303
  363MOL0     C49977   1.790  12.661   4.645  0.4388 -1.0549  0.4504
  363MOL0     C49978   1.771  12.757   4.767  0.2143  0.0244  0.3595
  363MOL0     C49979   1.783  12.908   4.724 -0.1723  0.0798  0.2324
  363MOL0     O49980   1.913  12.944   4.680 -0.1764 -0.3296 -0.7762
  363MOL0     C49981   2.014  12.953   4.768 -0.0261 -0.2300  0.1506
  363MOL0     C49982   2.003  12.954   4.909  0.3614  0.0484 -0.9892
  363MOL0     C49983   2.110  12.968   4.992  0.0125  0.1765 -0.4842
  363MOL0     C49984   2.085  13.015   5.140 -0.7982  0.3723  0.2257
  363MOL0     C49985   2.239  12.959   4.935  0.2551 -0.4822  0.3414
  363MOL0     C49986   2.364  12.954   5.023  0.1066  0.2117 -0.4820
  363MOL0     O49987   2.489  12.962   4.960 -0.2438 -0.8852  0.4211
  363MOL0     C49988   2.608  12.946   5.033 -0.6820 -0.7355  0.4700
  363MOL0     C49989   2.717  13.031   5.020 -0.4539 -0.4228 -0.6021
  363MOL0     C49990   2.837  13.012   5.094 -0.8822 -0.9151  0.7694
  363MOL0     C49991   2.851  12.903   5.172 -0.5936  0.1348 -0.4002
  363MOL0     O49992   2.973  12.879   5.241  0.7502 -0.6629  0.4695
  363MOL0     C49993   3.088  12.956   5.207 -0.0181 -0.6094 -0.2487
  363MOL0     C49994   3.193  12.917   5.314 -0.1104  0.5610  0.1884
  363MOL0     C49995   3.340  12.936   5.280  0.3955 -0.6556  0.3022
  363MOL0     C49996   3.426  12.845   5.370 -1.5023  0.1206  1.4798
  363MOL0     C49997   3.569  12.878   5.329 -0.3952  0.3557  1.0406
  363MOL0     C49998   3.624  12.968   5.438 -0.3958 -0.6793 -0.1157
  363MOL0     C49999   3.754  13.041   5.401 -0.3111 -0.2865  0.1679
  363MOL0     C50000   3.868  12.946   5.356 -0.4749  0.0671 -0.1623
  363MOL0    Cl50001   4.013  13.059   5.357 -0.2368 -0.1444 -0.1361
  363MOL0     C50002   2.742  12.818   5.186  0.0569 -0.2938 -0.1318
  363MOL0     C50003   2.627  12.842   5.119  0.1640  0.6447  0.6854
  363MOL0     O50004   2.353  12.938   5.144  0.3886 -0.0345  0.6565
  363MOL0     C50005   2.256  12.961   4.797  0.4903 -0.3013 -0.0917
  363MOL0     C50006   2.143  12.965   4.711 -0.7536  0.4621 -0.0458
  363MOL0     N50007   1.866  12.384   4.812 -0.4410  0.4456  0.6420
  363MOL0     N50008   1.862  12.329   4.936  0.5795 -0.3076  1.1829
  363MOL0     C50009   0.924  11.835   5.395 -0.3935 -0.2282  0.7185
  363MOL0     C50010   0.847  11.736   5.446  0.2678  0.0260 -0.4438
  363MOL0     C50011   0.719  11.325   5.627 -0.2014  0.0200  1.1386
  363MOL0     C50012   0.598  11.389   5.671 -0.1361 -0.3559 -0.8922
  363MOL0     C50013   0.497  11.310   5.723  0.2802 -0.6791  0.3684
  363MOL0     C50014   0.510  11.169   5.736  0.6214 -0.0488 -0.4892
  363MOL0     O50015   0.419  11.095   5.792 -0.2801 -0.7282 -0.1328
  363MOL0     C50016   0.285  11.131   5.785  1.0218  0.8611 -0.2201
  363MOL0     C50017   0.196  11.018   5.830 -0.0526 -0.4600  0.0530
  363MOL0     C50018   0.048  11.042   5.838  0.7893  0.2991 -0.5223
  363MOL0     C50019  -0.011  10.930   5.922  0.6105  0.2486 -0.1795
  363MOL0     C50020  -0.158  10.924   5.917  0.7516 -0.6628 -0.1534
  363MOL0     C50021  -0.274  10.899   5.889  0.8938 -0.1762  0.0721
  363MOL0     C50022   0.621  11.105   5.691 -1.0171 -0.1605  0.3541
  363MOL0     C50023   0.722  11.183   5.622  0.4469 -0.3731 -0.3248
  363MOL0     C50024   0.829  11.105   5.561 -0.1445 -0.4105 -1.0848
  363MOL0     H50025   1.058  11.543   5.634 -2.0877 -0.0484  0.2237
  363MOL0     H50026   1.214  11.703   5.551 -0.6187 -1.8095  0.9606
  363MOL0     H50027   1.334  11.922   5.368  0.9957  1.0746  0.8114
  363MOL0     H50028   1.285  11.938   5.537 -2.6528  2.6126  1.4155
  363MOL0     H50029   1.260  12.141   5.304  1.8180 -3.8427 -1.1226
  363MOL0     H50030   1.218  12.184   5.469 -0.8053 -2.2839  0.8253
  363MOL0     H50031   1.455  12.124   5.526 -2.4783  3.8825  1.4538
  363MOL0     H50032   1.484  12.091   5.349 -1.8090  0.6491 -0.8257
  363MOL0     H50033   1.431  12.311   5.300 -0.9586  0.9863  0.7414
  363MOL0     H50034   1.394  12.360   5.462 -0.3796  1.0585 -2.0321
  363MOL0     H50035   1.631  12.308   5.526  2.0820 -2.0983 -0.9248
  363MOL0     H50036   1.624  12.442   5.402 -2.6459  0.6890  0.4352
  363MOL0     H50037   1.805  12.267   5.376 -0.9346 -0.0084  1.5357
  363MOL0     H50038   1.680  12.146   5.379 -3.6233  0.9733  1.0480
  363MOL0     H50039   1.583  12.243   5.147  1.7400 -2.0822 -3.7649
  363MOL0     H50040   1.745  12.173   5.158  2.5449  1.7686  0.3810
  363MOL0     H50041   1.648  12.456   5.157 -0.1256 -1.0784  3.0258
  363MOL0     H50042   1.825  12.410   5.189  0.2256  0.2457 -0.3442
  363MOL0     H50043   1.584  12.506   4.927  0.3517 -0.4600  1.2711
  363MOL0     H50044   1.606  12.545   4.659  0.1322  2.6416  0.4367
  363MOL0     H50045   1.740  12.462   4.575  0.3819 -0.8940  0.6753
  363MOL0     H50046   1.897  12.641   4.648  1.7672  4.0025 -1.8430
  363MOL0     H50047   1.771  12.716   4.552  2.1937  0.0482  0.7145
  363MOL0     H50048   1.677  12.741   4.821 -1.0230 -1.4376 -2.0411
  363MOL0     H50049   1.852  12.727   4.833  0.7009 -0.5771 -0.4930
  363MOL0     H50050   1.710  12.920   4.643  0.8370  0.7750 -0.6030
  363MOL0     H50051   1.737  12.966   4.804 -1.6263  0.8908 -1.1379
  363MOL0     H50052   1.903  12.948   4.950  0.5341  0.1039 -0.5495
  363MOL0     H50053   1.983  13.054   5.149 -0.5742  0.7093  1.4498
  363MOL0     H50054   2.153  13.096   5.165  0.4574 -0.3234 -0.8098
  363MOL0     H50055   2.089  12.924   5.200 -0.6564 -1.3655 -2.2530
  363MOL0     H50056   2.701  13.112   4.950  2.7622 -1.2516 -2.5455
  363MOL0     H50057   2.907  13.091   5.072  0.3616 -2.0041  0.6604
  363MOL0     H50058   3.123  12.932   5.106  0.1499  2.3372 -0.9668
  363MOL0     H50059   3.077  13.064   5.217 -0.3744 -0.6330 -0.3833
  363MOL0     H50060   3.169  12.959   5.413 -0.2916 -1.3147  0.9914
  363MOL0     H50061   3.173  12.810   5.322 -0.2922  0.6528  1.0907
  363MOL0     H50062   3.373  13.037   5.305 -1.2353 -0.1191  0.4183
  363MOL0     H50063   3.359  12.916   5.174 -0.8875 -2.4142  0.3600
  363MOL0     H50064   3.406  12.739   5.357 -0.9962 -0.0851  2.3371
  363MOL0     H50065   3.413  12.866   5.477 -1.5715  2.4990  1.0744
  363MOL0     H50066   3.632  12.790   5.314 -0.9052  0.4825 -2.6772
  363MOL0     H50067   3.580  12.932   5.235  0.0485 -1.7740 -0.1823
  363MOL0     H50068   3.651  12.906   5.525  3.0365 -2.9309 -2.4753
  363MOL0     H50069   3.551  13.038   5.478  1.5354  2.7755 -2.0901
  363MOL0     H50070   3.790  13.096   5.488  1.2113  0.5802 -0.9654
  363MOL0     H50071   3.733  13.119   5.328  3.3088 -0.6926 -1.5364
  363MOL0     H50072   3.835  12.922   5.255 -1.0387 -0.1889  0.0813
  363MOL0     H50073   3.885  12.863   5.425 -0.6979 -1.0435 -1.4125
  363MOL0     H50074   2.751  12.724   5.240 -1.5995 -1.8091 -2.2724
  363MOL0     H50075   2.546  12.771   5.134 -0.5687  1.2560 -0.2649
  363MOL0     H50076   2.357  12.946   4.759  0.9338  1.1142  0.4728
  363MOL0     H50077   2.157  12.964   4.603  0.6393 -2.9428  0.0262
  363MOL0     H50078   0.892  11.924   5.341 -2.1586 -0.6410  1.0169
  363MOL0     H50079   0.742  11.736   5.417  0.7699  4.5484 -3.2892
  363MOL0     H50080   0.592  11.496   5.692  1.3472 -0.2400 -0.9230
  363MOL0     H50081   0.420  11.364   5.777  1.9219  2.3940 -0.1455
  363MOL0     H50082   0.275  11.213   5.856  0.0575  0.2244  0.4010
  363MOL0     H50083   0.252  11.176   5.691 -0.6303  0.7136  0.2500
  363MOL0     H50084   0.242  10.991   5.925  4.1999 -1.1989 -1.9835
  363MOL0     H50085   0.200  10.938   5.755 -0.3117  2.9453 -4.0105
  363MOL0     H50086   0.031  11.134   5.895 -2.9915  0.1894 -1.1848
  363MOL0     H50087  -0.005  11.060   5.744 -2.1522 -1.7624  0.5810
  363MOL0     H50088   0.029  10.946   6.022  0.5155  1.5913 -0.3427
  363MOL0     H50089   0.020  10.831   5.888 -1.0307 -0.6211  0.7578
  363MOL0     H50090  -0.376  10.876   5.864  0.1794  2.5857  0.1096
  363MOL0     H50091   0.632  10.997   5.696 -0.5543 -0.2272 -1.5857
  363MOL0     H50092   0.800  11.000   5.550  0.3636 -0.7140  0.2509
  363MOL0     H50093   0.850  11.136   5.458 -1.7285  3.0164 -0.5173
  363MOL0     H50094   0.917  11.114   5.625 -2.3391  0.8669  1.9585
  364MOL0     O50095   8.272   4.632   8.564 -0.0991 -0.1014  0.6204
  364MOL0     C50096   8.196   4.546   8.615 -0.1404 -0.5828  0.3494
  364MOL0     O50097   8.216   4.412   8.606 -0.0543 -0.3587  0.3346
  364MOL0     C50098   8.331   4.369   8.544 -0.3631 -0.2424 -0.2296
  364MOL0     C50099   8.449   4.391   8.612 -0.9592  0.6836 -0.0420
  364MOL0     C50100   8.568   4.336   8.566  0.9358  0.1115  0.4815
  364MOL0     C50101   8.567   4.265   8.445  0.0276 -0.3579 -0.1974
  364MOL0     O50102   8.695   4.231   8.398 -0.5467 -0.2934  0.2281
  364MOL0     C50103   8.705   4.153   8.279 -0.2441  0.1171 -0.2392
  364MOL0     C50104   8.853   4.143   8.227  0.5313 -0.2501  0.7725
  364MOL0     C50105   8.936   4.070   8.324 -0.5162  0.1649  0.3460
  364MOL0     C50106   9.088   4.092   8.304 -0.0861  0.2764 -0.4024
  364MOL0     C50107   9.158   4.032   8.179  0.0781  0.6224 -0.1700
  364MOL0     C50108   9.110   3.887   8.166 -0.1351  0.1988  0.6684
  364MOL0     C50109   9.205   3.817   8.067  0.4278 -0.5724  0.5497
  364MOL0     C50110   9.182   3.670   8.040  0.0077 -0.4423  0.2537
  364MOL0     N50111   9.227   3.596   8.161  0.1610 -0.2945 -0.4572
  364MOL0     C50112   9.364   3.576   8.188  0.7168  0.4085  0.7141
  364MOL0     C50113   9.363   3.513   8.310  0.1165 -0.7735  0.0010
  364MOL0     C50114   9.478   3.468   8.398 -1.1266 -0.2740 -0.5127
  364MOL0     C50115   9.523   3.327   8.363 -0.0465 -0.0368 -0.6192
  364MOL0     C50116   9.611   3.322   8.236 -0.4297 -0.1402  0.4656
  364MOL0     C50117   9.726   3.428   8.240  0.4902  0.6020  0.9699
  364MOL0     O50118   9.816   3.374   8.147 -0.0126 -0.2856  0.6562
  364MOL0     C50119   9.933   3.304   8.171 -0.3163  0.4171 -0.7926
  364MOL0     C50120   9.943   3.254   8.302  0.3214  0.5402 -0.0665
  364MOL0     C50121  10.070   3.208   8.344  0.1651 -0.4810  0.0142
  364MOL0     C50122  10.083   3.169   8.491 -0.3105  0.6917  1.1637
  364MOL0     C50123  10.181   3.195   8.255  0.2174 -0.5562  0.3200
  364MOL0     C50124  10.301   3.118   8.284 -0.1930 -0.0332 -0.7683
  364MOL0     O50125  10.404   3.159   8.210  0.3552  0.3200  0.2321
  364MOL0     C50126  10.527   3.127   8.248 -0.1961  0.7306 -0.7654
  364MOL0     C50127  10.615   3.224   8.313 -0.7086  0.0917  0.2155
  364MOL0     C50128  10.741   3.182   8.352 -0.6365 -0.9243 -0.7341
  364MOL0     C50129  10.782   3.047   8.347 -0.0561 -0.1946  0.1016
  364MOL0     O50130  10.905   3.007   8.393 -0.0825  0.1678  0.2754
  364MOL0     C50131  10.983   3.091   8.481  0.3051  0.0190  0.5127
  364MOL0     C50132  11.108   3.026   8.532 -0.1681 -0.4390 -0.0093
  364MOL0     C50133  11.209   3.012   8.420 -0.1126  0.2997  0.1642
  364MOL0     C50134  11.342   2.948   8.476  0.5253  0.4063 -0.2836
  364MOL0     C50135  11.446   2.936   8.368 -1.1947  0.3236 -0.6414
  364MOL0     C50136  11.567   2.871   8.420 -0.2910  0.0607  0.3825
  364MOL0     C50137  11.675   2.862   8.312  0.3329  0.6656  0.2950
  364MOL0     C50138  11.800   2.802   8.380  0.4471  0.0846  0.1956
  364MOL0    Cl50139  11.923   2.774   8.255  0.1978 -0.4148 -0.0100
  364MOL0     C50140  10.698   2.953   8.293  0.1416  0.1123  1.1996
  364MOL0     C50141  10.575   2.995   8.241  0.2548 -0.3769  0.1421
  364MOL0     O50142  10.300   3.020   8.364  0.2447 -0.2313 -0.4859
  364MOL0     C50143  10.155   3.243   8.125 -0.6778 -1.1686  0.2956
  364MOL0     C50144  10.032   3.294   8.080 -0.4339  1.3475 -0.2028
  364MOL0     N50145   9.228   3.497   8.342 -0.1212 -0.3183 -1.1024
  364MOL0     N50146   9.149   3.554   8.260  0.4339  0.0689 -0.0241
  364MOL0     C50147   8.449   4.247   8.373 -0.2878  0.2289 -0.1470
  364MOL0     C50148   8.335   4.300   8.421  0.7774  0.8851 -1.0036
  364MOL0     C50149   8.057   4.593   8.660 -0.0085  0.2639  0.0216
  364MOL0     C50150   8.029   4.731   8.667 -0.3538  0.8294  0.2254
  364MOL0     C50151   7.904   4.772   8.704 -1.1994 -0.3540  0.0564
  364MOL0     C50152   7.811   4.688   8.752  0.2725 -0.2688 -0.6888
  364MOL0     O50153   7.690   4.730   8.809 -0.2901  0.1442 -0.3844
  364MOL0     C50154   7.627   4.848   8.745 -0.2286  1.0515  0.0927
  364MOL0     C50155   7.491   4.864   8.805  0.1063  0.1339  0.0824
  364MOL0     C50156   7.511   4.898   8.953 -0.1653  0.2653 -0.1264
  364MOL0     C50157   7.380   4.935   9.021 -0.6767 -0.1355  0.1536
  364MOL0     C50158   7.419   4.980   9.158 -0.2819 -0.3968  0.1205
  364MOL0     C50159   7.458   5.040   9.253 -0.5606  0.2489  0.6596
  364MOL0     C50160   7.839   4.555   8.762  0.1918  0.8186  0.1714
  364MOL0     C50161   7.964   4.499   8.719  0.5527  0.0493 -0.0758
  364MOL0     C50162   7.985   4.345   8.730  0.4331 -0.0411  0.6298
  364MOL0     H50163   8.465   4.464   8.690 -1.2202 -1.8050  2.5274
  364MOL0     H50164   8.659   4.362   8.620  0.1105  2.0535  1.0288
  364MOL0     H50165   8.645   4.199   8.199 -1.5494 -2.1529 -0.6417
  364MOL0     H50166   8.666   4.051   8.287 -0.0339 -0.0296 -0.9982
  364MOL0     H50167   8.857   4.083   8.136 -1.2442  0.8822 -0.1031
  364MOL0     H50168   8.890   4.244   8.211  0.0439 -0.1513  0.2529
  364MOL0     H50169   8.911   4.092   8.428  2.1230 -2.4293  1.6594
  364MOL0     H50170   8.908   3.965   8.316  1.3415 -0.2739 -0.8629
  364MOL0     H50171   9.118   4.197   8.305  0.4098  0.1524 -1.0169
  364MOL0     H50172   9.122   4.042   8.395  3.6180  1.3941 -0.9950
  364MOL0     H50173   9.267   4.032   8.187  0.1380  1.7878 -0.8185
  364MOL0     H50174   9.127   4.099   8.098  1.2615  1.3725 -0.0269
  364MOL0     H50175   9.112   3.828   8.259  0.9914 -0.5456  0.1877
  364MOL0     H50176   9.005   3.893   8.134 -0.9592  1.9359  3.2925
  364MOL0     H50177   9.309   3.830   8.099  0.9222  2.6175 -1.8255
  364MOL0     H50178   9.200   3.863   7.967  0.1009 -4.1543 -1.2358
  364MOL0     H50179   9.081   3.640   8.010 -0.6986  2.1093 -0.1050
  364MOL0     H50180   9.254   3.651   7.960  0.5384  0.7757  0.4288
  364MOL0     H50181   9.451   3.599   8.127  0.9112  0.8265  1.1489
  364MOL0     H50182   9.439   3.460   8.500 -0.2480  1.2036 -0.0352
  364MOL0     H50183   9.553   3.547   8.397  0.1276 -1.2789  2.5833
  364MOL0     H50184   9.585   3.279   8.440  1.1946 -1.1998 -2.2604
  364MOL0     H50185   9.441   3.255   8.353  0.9734 -1.6514  1.6697
  364MOL0     H50186   9.648   3.219   8.229  0.6814  0.2058  0.9851
  364MOL0     H50187   9.557   3.345   8.144  1.6837  0.5828 -0.6809
  364MOL0     H50188   9.685   3.522   8.201 -2.0602 -1.0804 -0.6387
  364MOL0     H50189   9.775   3.442   8.337  1.1052  0.4314  0.6882
  364MOL0     H50190   9.860   3.265   8.372 -0.2885 -0.4545 -0.6210
  364MOL0     H50191  10.178   3.194   8.538  0.2779  1.2229 -0.2471
  364MOL0     H50192  10.074   3.060   8.503 -0.8754  0.4951 -0.6521
  364MOL0     H50193  10.004   3.214   8.551 -2.1231 -1.1492  0.3077
  364MOL0     H50194  10.596   3.330   8.329  0.3328  0.1072  1.5519
  364MOL0     H50195  10.802   3.267   8.385 -3.5231  0.9980  0.0307
  364MOL0     H50196  11.009   3.179   8.422 -0.0591 -0.3533 -0.2183
  364MOL0     H50197  10.917   3.117   8.564  0.1824  0.7196  0.1959
  364MOL0     H50198  11.145   3.089   8.613  3.3091 -0.9084 -1.0535
  364MOL0     H50199  11.070   2.929   8.564  1.1231 -0.4648  1.5182
  364MOL0     H50200  11.230   3.107   8.370 -1.0385 -0.4336 -1.7258
  364MOL0     H50201  11.167   2.953   8.338 -1.7661  0.8864  0.5579
  364MOL0     H50202  11.310   2.851   8.514 -4.5407  0.8436 -2.7078
  364MOL0     H50203  11.392   3.008   8.553  0.5290  0.8447 -0.6258
  364MOL0     H50204  11.406   2.895   8.275 -1.3073  0.1856 -0.5314
  364MOL0     H50205  11.482   3.038   8.347 -3.1611  1.5872  1.6221
  364MOL0     H50206  11.543   2.772   8.460  1.4405  0.0834  1.5949
  364MOL0     H50207  11.597   2.929   8.508 -2.0127  2.8428 -0.7072
  364MOL0     H50208  11.674   2.954   8.254 -2.8902 -0.8334 -2.3224
  364MOL0     H50209  11.636   2.787   8.242 -1.7406 -0.5683  2.5890
  364MOL0     H50210  11.789   2.710   8.437  0.5442  0.3680  0.6790
  364MOL0     H50211  11.831   2.870   8.460  0.0231  0.5804 -0.0530
  364MOL0     H50212  10.746   2.856   8.286 -0.9756 -0.4130  0.5980
  364MOL0     H50213  10.510   2.931   8.183  0.0087 -0.0399  0.0420
  364MOL0     H50214  10.226   3.232   8.044  0.2348 -2.4575  1.2299
  364MOL0     H50215  10.014   3.330   7.979 -1.6257  3.5638  0.7219
  364MOL0     H50216   8.434   4.192   8.281  3.5752 -2.3709  0.5338
  364MOL0     H50217   8.243   4.275   8.369  1.7579  0.2706 -2.5143
  364MOL0     H50218   8.105   4.804   8.640  0.8966 -0.2495  0.6851
  364MOL0     H50219   7.879   4.878   8.708  0.2497  0.0809 -1.1648
  364MOL0     H50220   7.685   4.940   8.760 -0.9973  1.6658 -0.6358
  364MOL0     H50221   7.632   4.836   8.637  0.4092  0.0714  0.2238
  364MOL0     H50222   7.436   4.769   8.802 -0.9152  0.7285 -1.9320
  364MOL0     H50223   7.431   4.947   8.765 -2.3250 -0.0673  2.8959
  364MOL0     H50224   7.562   4.815   9.002  0.4706  0.2318 -0.8229
  364MOL0     H50225   7.578   4.985   8.963 -0.5857  0.4770  0.9390
  364MOL0     H50226   7.321   4.843   9.030  0.0412 -0.3825  3.8730
  364MOL0     H50227   7.322   5.018   8.979 -3.0665 -2.9254 -2.5685
  364MOL0     H50228   7.497   5.078   9.345  1.8752  1.1730 -0.6705
  364MOL0     H50229   7.761   4.492   8.803 -3.0860  2.6278 -2.7072
  364MOL0     H50230   8.052   4.305   8.807  1.3650 -3.5210 -1.7553
  364MOL0     H50231   7.881   4.315   8.747 -0.1658  1.6066  0.0839
  364MOL0     H50232   8.014   4.304   8.633 -1.4119  1.6825 -0.7548
  365MOL0     O50233   8.228   9.643   9.678  0.7818  0.6960  0.0379
  365MOL0     C50234   8.169   9.591   9.774  1.2990 -0.3614  0.4236
  365MOL0     O50235   8.232   9.561   9.892  0.0754  0.1587  0.3429
  365MOL0     C50236   8.366   9.561   9.914  0.1303  0.0776  0.1874
  365MOL0     C50237   8.461   9.543   9.810  0.4472 -0.9672  0.0281
  365MOL0     C50238   8.587   9.536   9.846  0.2473  0.2282  0.1920
  365MOL0     C50239   8.633   9.548   9.978 -0.1943 -0.3033  0.5746
  365MOL0     O50240   8.772   9.548  10.003 -0.8177 -0.0598 -1.0844
  365MOL0     C50241   8.816   9.551  10.140  0.8633 -0.1242 -0.7054
  365MOL0     C50242   8.965   9.511  10.159 -0.6993 -0.1607 -0.2396
  365MOL0     C50243   9.001   9.507  10.306 -0.4305 -0.1750 -0.5647
  365MOL0     C50244   9.142   9.457  10.325 -0.4543 -0.3277 -0.1231
  365MOL0     C50245   9.189   9.439  10.471  0.6620  0.7895  0.4347
  365MOL0     C50246   9.180   9.550  10.567  0.0169  0.3587  0.3130
  365MOL0     C50247   9.261   9.524  10.691 -1.2997  0.3525 -0.7201
  365MOL0     C50248   9.264   9.659  10.772  0.2589 -0.5559 -0.1705
  365MOL0     N50249   9.358   9.650  10.888 -0.8126  0.0615 -0.6891
  365MOL0     C50250   9.448   9.751  10.930  0.2216 -0.1640 -0.3490
  365MOL0     C50251   9.528   9.683  11.019  0.3907 -0.7719  0.0860
  365MOL0     C50252   9.631   9.763  11.089 -0.7488  0.4653 -0.2731
  365MOL0     C50253   9.573   9.833  11.216 -0.1028  0.6721  0.0851
  365MOL0     C50254   9.643   9.962  11.261  0.5113  0.4305 -0.0725
  365MOL0     C50255   9.769   9.945  11.348 -0.5972  0.0500 -0.5038
  365MOL0     O50256   9.783  10.053  11.438 -0.3401 -0.6633  0.2066
  365MOL0     C50257   9.904  10.070  11.500  0.6598  0.0723  0.6532
  365MOL0     C50258   9.987   9.963  11.543  0.8043  0.3683 -0.5082
  365MOL0     C50259  10.115   9.983  11.594 -0.4703 -0.1950  0.0084
  365MOL0     C50260  10.191   9.859  11.637  0.2545 -0.4197  0.1240
  365MOL0     C50261  10.164  10.115  11.597  0.0950  0.2405  0.0269
  365MOL0     C50262  10.300  10.154  11.634  0.2833 -0.1929  0.8616
  365MOL0     O50263  10.346  10.280  11.591 -0.0490 -0.6372 -0.6084
  365MOL0     C50264  10.473  10.324  11.641  0.5829 -0.5850  0.1905
  365MOL0     C50265  10.560  10.274  11.739  0.5991 -0.2744 -0.7829
  365MOL0     C50266  10.689  10.327  11.751  0.0418  0.5503 -0.1671
  365MOL0     C50267  10.741  10.418  11.664  0.0898 -0.4760  0.1308
  365MOL0     O50268  10.872  10.451  11.678  0.3042  0.0879 -0.0049
  365MOL0     C50269  10.945  10.452  11.561  0.0374 -0.3141  0.3561
  365MOL0     C50270  11.082  10.487  11.597  0.8571 -0.1996  0.7740
  365MOL0     C50271  11.183  10.443  11.489 -0.1367  1.2596 -0.5877
  365MOL0     C50272  11.323  10.489  11.509  0.2247  0.5648 -0.3381
  365MOL0     C50273  11.423  10.437  11.407 -0.2303  0.6972 -0.0565
  365MOL0     C50274  11.564  10.468  11.458 -0.7975 -0.6346  0.0920
  365MOL0     C50275  11.667  10.407  11.366 -1.0405 -0.4345 -0.1291
  365MOL0     C50276  11.809  10.466  11.402 -0.7393  0.0093  0.3385
  365MOL0    Cl50277  11.862  10.427  11.566  0.2809 -0.2185 -0.1536
  365MOL0     C50278  10.651  10.472  11.573  0.7178 -0.6155 -0.2864
  365MOL0     C50279  10.522  10.423  11.555 -0.0065 -0.5370  0.0740
  365MOL0     O50280  10.369  10.078  11.701 -0.1409 -0.3510  0.1187
  365MOL0     C50281  10.077  10.216  11.557  0.0423 -0.5135 -0.2953
  365MOL0     C50282   9.950  10.196  11.519  0.3458  0.1038  0.3348
  365MOL0     N50283   9.478   9.555  11.036 -0.6908  0.8404  0.2892
  365MOL0     N50284   9.372   9.540  10.960 -0.0667  0.6868 -0.0290
  365MOL0     C50285   8.540   9.562  10.081 -0.3012 -0.0052 -0.4999
  365MOL0     C50286   8.407   9.571  10.052  0.0575  0.1868  0.3727
  365MOL0     C50287   8.024   9.550   9.758  0.1201  0.5919 -0.8403
  365MOL0     C50288   7.973   9.454   9.845  0.3720 -0.3984 -0.5720
  365MOL0     C50289   7.842   9.393   9.824 -0.0209  1.2342 -0.6002
  365MOL0     C50290   7.756   9.448   9.738  0.4882 -0.6614  0.0118
  365MOL0     O50291   7.627   9.416   9.708 -0.1622  0.4813 -0.1504
  365MOL0     C50292   7.555   9.337   9.800 -0.3523  0.2135  0.2974
  365MOL0     C50293   7.405   9.327   9.766 -0.0314  0.2026 -0.3526
  365MOL0     C50294   7.311   9.347   9.887 -0.6940 -0.5467 -0.2638
  365MOL0     C50295   7.160   9.375   9.851 -0.1169  0.4527  0.2561
  365MOL0     C50296   7.099   9.273   9.762  0.2662  0.4500  0.1531
  365MOL0     C50297   7.040   9.196   9.693 -0.4018  0.3345 -1.2878
  365MOL0     C50298   7.801   9.554   9.661 -0.1792 -0.8079 -0.2300
  365MOL0     C50299   7.934   9.610   9.666 -0.7017  0.7698  0.0824
  365MOL0     C50300   7.966   9.726   9.580  1.0351  0.5136  0.5115
  365MOL0     H50301   8.438   9.525   9.705  0.0895 -0.6560  0.0498
  365MOL0     H50302   8.660   9.517   9.769 -0.8384 -2.0961 -0.3364
  365MOL0     H50303   8.759   9.476  10.195 -1.1377  1.6101 -0.3062
  365MOL0     H50304   8.802   9.650  10.183 -0.8706 -0.3801 -0.6161
  365MOL0     H50305   8.980   9.409  10.123  1.2145  0.1122 -0.3338
  365MOL0     H50306   9.022   9.584  10.100 -0.6976 -1.1194 -1.4649
  365MOL0     H50307   8.990   9.607  10.350  0.2205 -1.0666  1.7805
  365MOL0     H50308   8.929   9.444  10.359  1.4034 -1.7738  0.1053
  365MOL0     H50309   9.158   9.361  10.277 -1.2642 -1.4231  1.6980
  365MOL0     H50310   9.201   9.529  10.268 -1.5394  0.2671 -0.5241
  365MOL0     H50311   9.295   9.414  10.463  1.2528  3.4156 -5.5526
  365MOL0     H50312   9.145   9.352  10.520 -0.9643  1.5743  0.4380
  365MOL0     H50313   9.219   9.643  10.524 -0.3326 -0.1735 -1.2335
  365MOL0     H50314   9.081   9.568  10.609 -0.0113 -1.7019  1.2352
  365MOL0     H50315   9.363   9.489  10.675 -1.3839  0.5172 -1.6698
  365MOL0     H50316   9.206   9.445  10.744 -0.2984 -0.4643 -0.8582
  365MOL0     H50317   9.307   9.736  10.708 -1.5440  1.3602  0.7854
  365MOL0     H50318   9.163   9.690  10.803 -0.2905 -0.5984 -1.8130
  365MOL0     H50319   9.460   9.852  10.895  1.9144  0.5541  2.0660
  365MOL0     H50320   9.678   9.837  11.025 -0.9954  1.1842  0.3576
  365MOL0     H50321   9.707   9.692  11.123 -0.6787  0.5591 -0.2346
  365MOL0     H50322   9.467   9.857  11.202 -0.8132 -0.1545  3.1333
  365MOL0     H50323   9.564   9.758  11.295 -2.1336  0.6564 -0.0879
  365MOL0     H50324   9.661  10.023  11.172 -0.6602  1.1658  0.1786
  365MOL0     H50325   9.570  10.026  11.310  1.6376  1.9481 -0.3197
  365MOL0     H50326   9.753   9.852  11.402 -0.9172  0.1904 -0.3577
  365MOL0     H50327   9.855   9.938  11.280 -0.3707 -0.7633 -0.1473
  365MOL0     H50328   9.937   9.868  11.526  0.5580  0.9331 -3.6001
  365MOL0     H50329  10.220   9.855  11.743 -3.4416 -2.8242  1.2387
  365MOL0     H50330  10.281   9.849  11.576  0.7365 -1.3834  0.9682
  365MOL0     H50331  10.138   9.764  11.626  3.9072 -3.2236  3.8557
  365MOL0     H50332  10.534  10.186  11.798 -0.4999  0.8318  0.4343
  365MOL0     H50333  10.762  10.285  11.819 -1.0793 -0.6175  0.3431
  365MOL0     H50334  10.946  10.355  11.511  1.3631 -0.1020 -0.0749
  365MOL0     H50335  10.913  10.528  11.489  1.2524  0.5499  0.6966
  365MOL0     H50336  11.091  10.595  11.611  1.3763  0.1809 -1.9316
  365MOL0     H50337  11.094  10.448  11.699  0.4854  1.8165  1.6499
  365MOL0     H50338  11.145  10.463  11.388 -3.5815  1.8285  0.6906
  365MOL0     H50339  11.186  10.334  11.492  0.0718  1.2858  1.7889
  365MOL0     H50340  11.360  10.451  11.604 -0.0703 -4.1921 -1.8768
  365MOL0     H50341  11.323  10.599  11.507 -1.1347  0.5838 -1.4361
  365MOL0     H50342  11.406  10.332  11.383  3.8591  0.5383 -3.5955
  365MOL0     H50343  11.405  10.484  11.309  3.6352  0.5890 -0.9628
  365MOL0     H50344  11.576  10.440  11.563  2.1683  2.3715  0.7111
  365MOL0     H50345  11.581  10.576  11.460 -1.3481 -0.5204 -0.7089
  365MOL0     H50346  11.643  10.445  11.266 -0.0826 -1.7943 -0.9091
  365MOL0     H50347  11.679  10.298  11.365  1.2744 -0.3527 -4.2973
  365MOL0     H50348  11.812  10.573  11.384  2.9158 -0.2609 -1.7096
  365MOL0     H50349  11.886  10.423  11.336 -0.9006  0.9083 -0.4601
  365MOL0     H50350  10.688  10.540  11.496 -2.4673  0.5724 -0.9165
  365MOL0     H50351  10.466  10.462  11.471  1.4308  1.7230  0.0767
  365MOL0     H50352  10.106  10.321  11.559 -2.3158  0.2491 -1.8585
  365MOL0     H50353   9.886  10.282  11.498 -0.8595 -0.3379  2.0185
  365MOL0     H50354   8.565   9.583  10.185 -0.4774 -0.2050 -0.4129
  365MOL0     H50355   8.331   9.578  10.129  0.4688 -1.9463  1.0574
  365MOL0     H50356   8.031   9.405   9.923 -0.7212 -1.7678 -0.5743
  365MOL0     H50357   7.814   9.302   9.876  1.8175  0.2930 -1.1686
  365MOL0     H50358   7.604   9.239   9.807 -1.8385 -0.5202  0.7842
  365MOL0     H50359   7.571   9.389   9.895  0.9849 -0.8819  0.7145
  365MOL0     H50360   7.386   9.233   9.712 -2.8639  0.7874 -0.5443
  365MOL0     H50361   7.384   9.405   9.692  1.5561 -1.3384 -2.5678
  365MOL0     H50362   7.299   9.262   9.955 -2.0102  0.3044  0.6118
  365MOL0     H50363   7.353   9.427   9.949 -1.4993 -1.2718  1.2918
  365MOL0     H50364   7.160   9.472   9.801  0.4675  0.2176 -0.2066
  365MOL0     H50365   7.107   9.389   9.945 -2.3989  3.4664 -1.2945
  365MOL0     H50366   6.994   9.114   9.641 -1.2592  0.2815 -0.4666
  365MOL0     H50367   7.738   9.603   9.588 -1.2241 -2.8751 -0.8039
  365MOL0     H50368   7.969   9.820   9.636 -0.1726  0.0950  1.3240
  365MOL0     H50369   8.053   9.707   9.516 -0.4899 -1.5595 -1.1063
  365MOL0     H50370   7.888   9.741   9.506  0.2460  0.2685  1.2754
  366MOL0     O50371   2.074   9.563   8.422 -0.0437  0.7640  0.8465
  366MOL0     C50372   2.103   9.655   8.492  0.4530  0.0450  0.3988
  366MOL0     O50373   2.224   9.720   8.484  0.0097 -0.5183  0.5569
  366MOL0     C50374   2.326   9.664   8.418 -1.0605 -0.3060  0.3109
  366MOL0     C50375   2.372   9.530   8.443 -0.1100  0.2024  0.3678
  366MOL0     C50376   2.474   9.472   8.368  0.5907  0.2229 -0.6335
  366MOL0     C50377   2.542   9.549   8.279 -0.2534  0.0433 -0.4961
  366MOL0     O50378   2.650   9.499   8.218 -0.4694 -0.0122  0.0765
  366MOL0     C50379   2.728   9.401   8.292 -0.1583  0.1048  1.3088
  366MOL0     C50380   2.866   9.407   8.228 -0.4935  0.7848 -0.6394
  366MOL0     C50381   2.931   9.545   8.216 -0.4422 -0.1240  0.0030
  366MOL0     C50382   3.064   9.549   8.132 -0.1455  0.2987  0.6248
  366MOL0     C50383   3.189   9.508   8.215  0.1510  0.8087 -0.4600
  366MOL0     C50384   3.313   9.578   8.172 -0.5582 -0.4926 -0.0019
  366MOL0     C50385   3.431   9.560   8.268  0.4312 -0.5044 -0.0143
  366MOL0     C50386   3.515   9.429   8.268 -0.2482  1.1146  0.4602
  366MOL0     N50387   3.622   9.422   8.364 -0.7135  0.1951 -0.1320
  366MOL0     C50388   3.725   9.511   8.348  0.1812  0.4215 -0.3959
  366MOL0     C50389   3.823   9.472   8.428  0.5645 -0.3743  0.0928
  366MOL0     C50390   3.964   9.534   8.426 -0.1682  0.4593 -0.1385
  366MOL0     C50391   3.977   9.626   8.542  0.1682  0.0624 -0.2971
  366MOL0     C50392   4.124   9.662   8.574 -0.0522 -0.0822  0.0304
  366MOL0     C50393   4.167   9.783   8.495 -0.0455 -0.7234  0.2571
  366MOL0     O50394   4.314   9.778   8.509 -0.3002  0.3616  0.8537
  366MOL0     C50395   4.383   9.888   8.463  0.6133  0.2383 -0.8516
  366MOL0     C50396   4.520   9.884   8.496  0.2017 -0.0115 -0.1661
  366MOL0     C50397   4.605   9.995   8.480 -0.0482 -0.4244  0.4562
  366MOL0     C50398   4.748   9.983   8.520 -0.0850  0.2621  0.1240
  366MOL0     C50399   4.548  10.115   8.431 -0.0257  0.0056 -0.1025
  366MOL0     C50400   4.622  10.246   8.415  0.8872  0.3646  0.7527
  366MOL0     O50401   4.744  10.247   8.351 -0.3048 -0.1230  0.8163
  366MOL0     C50402   4.782  10.355   8.272 -0.0159 -0.1066  0.0199
  366MOL0     C50403   4.699  10.412   8.176 -0.0420  0.3388  0.3533
  366MOL0     C50404   4.737  10.527   8.102 -0.7845  0.7711 -0.1105
  366MOL0     C50405   4.872  10.574   8.123 -0.3066 -1.5653  0.5686
  366MOL0     O50406   4.934  10.680   8.051  0.1459  0.1685  0.3262
  366MOL0     C50407   4.859  10.743   7.950 -0.7165 -0.1792  0.1826
  366MOL0     C50408   4.953  10.826   7.870  0.1876  0.7669  0.4324
  366MOL0     C50409   5.052  10.734   7.798 -1.3127 -0.1014  0.1316
  366MOL0     C50410   5.152  10.799   7.707 -0.1675  0.5578  0.2879
  366MOL0     C50411   5.259  10.879   7.786 -0.1299  0.0838 -0.6394
  366MOL0     C50412   5.379  10.940   7.703  0.4728 -0.9155 -0.5997
  366MOL0     C50413   5.493  10.834   7.714 -0.5788  0.0961  0.6099
  366MOL0     C50414   5.602  10.869   7.608 -0.4039  0.6612 -1.4416
  366MOL0    Cl50415   5.738  10.745   7.613 -0.2650  0.2361  0.5317
  366MOL0     C50416   4.950  10.514   8.216 -0.7062 -0.4068 -0.0636
  366MOL0     C50417   4.908  10.414   8.297 -0.1630  0.2502  0.2541
  366MOL0     O50418   4.562  10.341   8.461  0.0978  0.3705 -0.0137
  366MOL0     C50419   4.411  10.121   8.395 -0.1597 -0.3881  0.1908
  366MOL0     C50420   4.330  10.004   8.396 -0.4622 -0.6364 -0.3177
  366MOL0     N50421   3.784   9.348   8.485  0.3953 -0.4403  0.5074
  366MOL0     N50422   3.667   9.313   8.437  0.6347 -0.6927 -0.1140
  366MOL0     C50423   2.514   9.686   8.260  0.6296 -0.1695 -0.4975
  366MOL0     C50424   2.405   9.738   8.328 -0.3210  0.0552  0.4045
  366MOL0     C50425   1.996   9.727   8.572 -0.3428  0.0649 -0.9306
  366MOL0     C50426   2.012   9.865   8.584  0.3422  0.0794 -0.2208
  366MOL0     C50427   1.921   9.945   8.657 -0.1450  0.0570  0.1469
  366MOL0     C50428   1.795   9.892   8.699  0.1431  0.9554 -0.1223
  366MOL0     O50429   1.698   9.970   8.767 -0.4643  0.1419  0.3293
  366MOL0     C50430   1.698  10.111   8.765 -0.6404 -0.2409 -0.2621
  366MOL0     C50431   1.780  10.155   8.885 -0.4837  0.5432 -0.0614
  366MOL0     C50432   1.734  10.120   9.023 -0.4098 -0.1758 -0.3211
  366MOL0     C50433   1.601  10.174   9.071  0.6507 -0.1748 -0.0540
  366MOL0     C50434   1.577  10.100   9.197  0.7038  0.3591  0.2166
  366MOL0     C50435   1.548  10.042   9.303  0.0276 -0.0184 -0.5833
  366MOL0     C50436   1.782   9.753   8.679 -0.1367  0.4599  0.4676
  366MOL0     C50437   1.881   9.671   8.619 -0.1583  0.1598  0.9500
  366MOL0     C50438   1.850   9.519   8.603 -0.4342  0.4975 -0.1553
  366MOL0     H50439   2.317   9.468   8.513  0.9812 -0.1224  0.9523
  366MOL0     H50440   2.491   9.368   8.393 -3.9731 -0.7007 -0.5237
  366MOL0     H50441   2.683   9.302   8.282  3.2885 -1.4362 -0.9841
  366MOL0     H50442   2.736   9.430   8.397  3.7112 -3.2673  2.1829
  366MOL0     H50443   2.932   9.339   8.284  0.1687  0.4733 -1.7694
  366MOL0     H50444   2.863   9.362   8.128  2.0857 -0.1091 -0.3897
  366MOL0     H50445   2.862   9.614   8.166 -1.9495 -0.5426  1.3919
  366MOL0     H50446   2.953   9.580   8.317 -0.1630  1.0852 -0.4623
  366MOL0     H50447   3.052   9.475   8.053  2.0517 -1.5130  1.8529
  366MOL0     H50448   3.083   9.645   8.083  3.0913 -0.0762  0.9319
  366MOL0     H50449   3.209   9.404   8.189 -1.8354 -0.1960  1.7197
  366MOL0     H50450   3.177   9.511   8.324 -0.6840  3.1293 -0.5652
  366MOL0     H50451   3.346   9.538   8.076 -0.3365  0.0719 -0.1667
  366MOL0     H50452   3.299   9.686   8.160 -0.5093 -0.4630  0.1993
  366MOL0     H50453   3.392   9.569   8.369 -0.7855 -2.5841 -0.2469
  366MOL0     H50454   3.507   9.638   8.255 -0.4605  0.7878  2.0043
  366MOL0     H50455   3.454   9.342   8.293  2.7030 -0.2595  3.8233
  366MOL0     H50456   3.543   9.410   8.164 -0.0815 -2.5079  1.0460
  366MOL0     H50457   3.727   9.599   8.286  0.0423  0.0336 -0.9558
  366MOL0     H50458   3.987   9.587   8.333  0.2445  1.9359  0.7846
  366MOL0     H50459   4.038   9.457   8.452 -2.1845 -1.3633  0.4899
  366MOL0     H50460   3.910   9.711   8.527  0.4055 -0.1058 -2.7519
  366MOL0     H50461   3.943   9.572   8.630 -1.3977 -1.3361 -1.6951
  366MOL0     H50462   4.123   9.686   8.681 -2.6883  0.0512  0.0558
  366MOL0     H50463   4.194   9.580   8.555  2.6271  0.8244  4.5243
  366MOL0     H50464   4.135   9.779   8.390  2.2638  0.7805 -0.5957
  366MOL0     H50465   4.122   9.870   8.543 -1.3853 -0.4886 -1.3192
  366MOL0     H50466   4.566   9.803   8.551 -1.6229  0.2861  1.9466
  366MOL0     H50467   4.783  10.085   8.537 -1.5792  0.9244 -0.5970
  366MOL0     H50468   4.815   9.937   8.448  1.2145  0.0021  1.4621
  366MOL0     H50469   4.762   9.930   8.615 -3.9147 -1.6612 -0.1686
  366MOL0     H50470   4.608  10.354   8.171  0.9116 -1.0846 -3.1117
  366MOL0     H50471   4.670  10.570   8.028  0.2166  2.0008 -0.3289
  366MOL0     H50472   4.817  10.666   7.884 -2.3340  0.3085  0.5874
  366MOL0     H50473   4.787  10.805   8.005  0.6512  1.5753  0.0896
  366MOL0     H50474   4.894  10.888   7.802 -1.2068  0.3624  1.2290
  366MOL0     H50475   5.007  10.893   7.937  2.9536  1.1167 -1.9461
  366MOL0     H50476   4.994  10.666   7.735 -0.1268 -1.5378  0.5316
  366MOL0     H50477   5.112  10.674   7.867  0.6486  0.4674 -0.9974
  366MOL0     H50478   5.100  10.852   7.627 -2.3062  0.1592  1.3459
  366MOL0     H50479   5.200  10.707   7.672 -2.2416 -1.4617  2.3655
  366MOL0     H50480   5.205  10.960   7.836  1.5447  0.7255  0.2084
  366MOL0     H50481   5.302  10.820   7.867  1.0732 -1.7970 -2.5410
  366MOL0     H50482   5.403  11.038   7.746  1.5859 -2.2052  1.9371
  366MOL0     H50483   5.337  10.953   7.603  1.2186  0.1228 -0.7942
  366MOL0     H50484   5.453  10.735   7.692 -1.9376  0.8739 -0.6008
  366MOL0     H50485   5.557  10.843   7.803  3.3522 -0.0757 -1.9341
  366MOL0     H50486   5.637  10.969   7.635 -0.4215  0.5974 -1.1749
  366MOL0     H50487   5.552  10.877   7.511 -1.1454 -0.7448 -1.2023
  366MOL0     H50488   5.052  10.547   8.234 -0.7442 -1.5522  2.7499
  366MOL0     H50489   4.973  10.390   8.380 -0.2019  0.7652  0.4377
  366MOL0     H50490   4.376  10.220   8.366 -0.5451 -0.5573  0.0694
  366MOL0     H50491   4.224  10.013   8.370 -0.7102 -2.3678 -0.0074
  366MOL0     H50492   2.571   9.744   8.189 -0.7542  1.7487 -0.1161
  366MOL0     H50493   2.377   9.843   8.317 -0.6510 -0.0687  0.0595
  366MOL0     H50494   2.105   9.907   8.548 -0.0179 -0.6301 -2.0971
  366MOL0     H50495   1.950  10.046   8.682 -1.5494  0.4534  0.2673
  366MOL0     H50496   1.741  10.152   8.672 -2.6587 -1.5817 -1.8754
  366MOL0     H50497   1.593  10.139   8.777 -0.9282 -0.4169 -2.0606
  366MOL0     H50498   1.796  10.262   8.875  3.0693  0.0131 -1.8135
  366MOL0     H50499   1.880  10.112   8.873 -0.0435  1.2338  1.0082
  366MOL0     H50500   1.722  10.011   9.021  2.6288 -0.5899 -1.3851
  366MOL0     H50501   1.817  10.136   9.091 -0.0033 -1.3287 -0.5265
  366MOL0     H50502   1.514  10.159   9.006 -1.5474  0.1135  2.6358
  366MOL0     H50503   1.613  10.279   9.098  0.5281  0.6285 -2.7420
  366MOL0     H50504   1.514   9.990   9.390  0.6194  3.7871  2.2041
  366MOL0     H50505   1.690   9.716   8.723  1.9453 -1.6216  3.5021
  366MOL0     H50506   1.837   9.484   8.500  1.2977 -0.4628 -0.0837
  366MOL0     H50507   1.945   9.472   8.629  0.6323  2.7578  0.2973
  366MOL0     H50508   1.766   9.481   8.662  0.1203 -1.3513 -0.4883
  367MOL0     O50509   3.548   3.486   9.984 -0.7983 -0.5084 -0.6377
  367MOL0     C50510   3.489   3.445  10.085  0.4044  0.8725  0.8171
  367MOL0     O50511   3.549   3.411  10.200  0.2203  0.1148  0.3365
  367MOL0     C50512   3.683   3.438  10.221  0.1407  0.7309 -0.0102
  367MOL0     C50513   3.742   3.556  10.175  0.5965 -0.2820 -0.0706
  367MOL0     C50514   3.877   3.580  10.188  0.2014  0.4231 -0.1996
  367MOL0     C50515   3.959   3.486  10.246 -0.5734  0.0209  0.0141
  367MOL0     O50516   4.095   3.519  10.258  0.2192 -0.3317  0.6038
  367MOL0     C50517   4.184   3.409  10.218 -0.5856  0.2231  0.4680
  367MOL0     C50518   4.323   3.438  10.176 -0.3876 -0.6598  0.0693
  367MOL0     C50519   4.390   3.517  10.280  0.1361 -0.1117 -0.1261
  367MOL0     C50520   4.544   3.506  10.270  0.6124  0.0768 -0.3974
  367MOL0     C50521   4.613   3.587  10.385  0.6206  0.2844 -0.5653
  367MOL0     C50522   4.740   3.645  10.330  1.1048  0.5076  0.3278
  367MOL0     C50523   4.806   3.740  10.429  0.7123  0.3952 -0.2102
  367MOL0     C50524   4.942   3.799  10.380  0.2037 -0.3551  0.0094
  367MOL0     N50525   4.987   3.917  10.460 -0.0262  0.8718  0.4273
  367MOL0     C50526   4.926   4.037  10.448  0.0379 -0.1592 -0.1774
  367MOL0     C50527   5.005   4.127  10.516 -0.0013  0.4727 -0.6926
  367MOL0     C50528   4.965   4.275  10.542  0.2033  0.1576  0.9666
  367MOL0     C50529   4.944   4.345  10.404 -0.7162 -0.1588 -0.5563
  367MOL0     C50530   5.068   4.347  10.312  0.4708  0.2424 -0.4110
  367MOL0     C50531   5.032   4.434  10.197 -0.8088 -0.1910 -0.1563
  367MOL0     O50532   5.009   4.562  10.235  0.0427 -0.1263 -0.2341
  367MOL0     C50533   5.107   4.656  10.243  1.1596 -0.0227 -1.2554
  367MOL0     C50534   5.066   4.784  10.250  0.1350 -0.3013  0.8229
  367MOL0     C50535   5.155   4.893  10.240 -0.3664  0.4839 -0.4407
  367MOL0     C50536   5.087   5.034  10.248  0.6949  0.0928 -0.0538
  367MOL0     C50537   5.296   4.862  10.222 -0.2853 -0.9590 -1.1135
  367MOL0     C50538   5.415   4.963  10.222  0.2391 -0.0939  0.8785
  367MOL0     O50539   5.541   4.909  10.212  0.0460 -0.1147  0.3484
  367MOL0     C50540   5.648   4.990  10.206 -0.2676 -0.3119 -0.9343
  367MOL0     C50541   5.750   4.941  10.128  0.7399  0.6157 -0.1782
  367MOL0     C50542   5.871   4.999  10.115  0.1340  0.0668  0.4592
  367MOL0     C50543   5.894   5.124  10.181  0.3426 -0.6081 -0.7411
  367MOL0     O50544   6.017   5.180  10.159 -0.6482 -0.0452  0.6149
  367MOL0     C50545   6.041   5.322  10.174 -0.4261 -0.2509 -0.0672
  367MOL0     C50546   6.157   5.376  10.087  0.4125  0.3613 -0.1796
  367MOL0     C50547   6.288   5.302  10.132  0.7037 -0.2981  0.4562
  367MOL0     C50548   6.391   5.300  10.013 -0.4386  0.0237  0.8179
  367MOL0     C50549   6.517   5.240  10.062  0.1856 -0.5357  0.4312
  367MOL0     C50550   6.621   5.346  10.081 -0.3299  0.6420  0.3140
  367MOL0     C50551   6.594   5.458  10.181  0.3053 -0.1100 -0.1058
  367MOL0     C50552   6.695   5.570  10.188 -0.3108  0.5088  0.7826
  367MOL0    Cl50553   6.853   5.487  10.233  0.0515  0.1926 -0.1707
  367MOL0     C50554   5.791   5.177  10.264  1.1328  0.0754  0.3994
  367MOL0     C50555   5.669   5.114  10.270 -0.3186  0.0527  0.0614
  367MOL0     O50556   5.394   5.085  10.217 -0.5930 -0.4250 -0.5565
  367MOL0     C50557   5.334   4.727  10.221  0.3920  0.1742 -0.4518
  367MOL0     C50558   5.238   4.629  10.236  0.1701 -0.0276  0.2121
  367MOL0     N50559   5.111   4.052  10.573  0.2314  0.2362  0.0075
  367MOL0     N50560   5.097   3.927  10.533  0.2253  0.1478  0.4044
  367MOL0     C50561   3.902   3.366  10.290 -0.7875  0.1239 -0.2060
  367MOL0     C50562   3.768   3.342  10.284  0.1890 -0.0627 -0.0984
  367MOL0     C50563   3.359   3.389  10.060  0.0075  0.1685  0.8202
  367MOL0     C50564   3.308   3.298  10.151 -0.0124 -1.0716  0.4443
  367MOL0     C50565   3.189   3.217  10.137 -0.3843  0.2690 -0.0491
  367MOL0     C50566   3.125   3.226  10.021  0.5506 -0.0539 -0.0267
  367MOL0     O50567   3.024   3.139   9.976  0.0894  0.3995 -0.1015
  367MOL0     C50568   2.958   3.064  10.071 -0.1477  0.6528  0.4014
  367MOL0     C50569   2.823   3.013  10.004 -0.6748 -0.2829 -1.4873
  367MOL0     C50570   2.778   2.897  10.094 -0.6413  0.3700  0.7030
  367MOL0     C50571   2.650   2.824  10.034 -1.0598 -0.3761  0.3531
  367MOL0     C50572   2.544   2.913   9.993  0.3864 -0.7961  0.2229
  367MOL0     C50573   2.459   2.998   9.965  0.1220 -0.4144 -0.6462
  367MOL0     C50574   3.153   3.325   9.927 -0.4191 -0.0872 -0.6514
  367MOL0     C50575   3.272   3.406   9.946  0.5275 -1.1046 -0.1181
  367MOL0     C50576   3.294   3.521   9.845  0.9157 -0.3094 -0.0085
  367MOL0     H50577   3.680   3.633  10.131 -2.2338 -1.5957  1.3571
  367MOL0     H50578   3.918   3.669  10.143 -0.7330  0.3747 -1.1733
  367MOL0     H50579   4.134   3.358  10.135 -2.2680  1.0552  0.9139
  367MOL0     H50580   4.194   3.340  10.303 -0.0689 -3.2264 -2.1826
  367MOL0     H50581   4.377   3.344  10.162  2.2803  0.8641 -0.6706
  367MOL0     H50582   4.324   3.491  10.080 -0.8007 -1.9171 -0.6520
  367MOL0     H50583   4.350   3.618  10.264  1.1714  0.5765  1.3597
  367MOL0     H50584   4.355   3.488  10.380 -1.0978 -1.0630 -0.8056
  367MOL0     H50585   4.576   3.401  10.275  1.6979  0.4747  2.5065
  367MOL0     H50586   4.570   3.547  10.172  1.0292 -1.6794 -1.0729
  367MOL0     H50587   4.623   3.518  10.469 -3.7980 -0.4223 -0.3756
  367MOL0     H50588   4.552   3.673  10.416  1.0492  0.2905  0.2732
  367MOL0     H50589   4.800   3.557  10.305 -1.8484 -1.5336 -0.0570
  367MOL0     H50590   4.715   3.699  10.238 -2.3510 -0.3484  0.6506
  367MOL0     H50591   4.816   3.698  10.530 -0.8938  1.9028  0.6398
  367MOL0     H50592   4.746   3.830  10.446  0.6708 -0.0321  2.2803
  367MOL0     H50593   5.018   3.720  10.384 -1.4321 -2.0174 -0.2887
  367MOL0     H50594   4.924   3.813  10.273  0.0508  1.0827  0.2052
  367MOL0     H50595   4.835   4.059  10.393 -1.1394 -4.4301 -0.3147
  367MOL0     H50596   5.033   4.329  10.609 -0.2918  1.5763  0.3559
  367MOL0     H50597   4.870   4.277  10.596 -1.8672  0.3905 -2.4275
  367MOL0     H50598   4.866   4.293  10.346 -2.6275 -0.3471  2.0252
  367MOL0     H50599   4.915   4.448  10.427  2.0963  0.9697 -1.6103
  367MOL0     H50600   5.151   4.389  10.370 -0.0661  0.3568  0.2811
  367MOL0     H50601   5.081   4.247  10.268  1.2649 -0.8202  2.0378
  367MOL0     H50602   5.116   4.427  10.127 -0.6356 -1.6140  0.1706
  367MOL0     H50603   4.944   4.391  10.147 -1.8212  0.1325  1.2920
  367MOL0     H50604   4.964   4.810  10.276  0.5610  2.8356 -0.1470
  367MOL0     H50605   4.996   5.039  10.309  0.8788  3.6712  0.1317
  367MOL0     H50606   5.066   5.074  10.148  0.6730  2.0343  0.6902
  367MOL0     H50607   5.154   5.114  10.281 -1.5028  1.2765  1.8001
  367MOL0     H50608   5.742   4.847  10.075  2.1765  1.6452 -2.3660
  367MOL0     H50609   5.944   4.950  10.052 -0.1476  0.5034 -0.2111
  367MOL0     H50610   5.953   5.386  10.166 -0.0757  0.7328  2.7092
  367MOL0     H50611   6.076   5.347  10.275 -3.4330  2.6320  0.4389
  367MOL0     H50612   6.128   5.348   9.985  0.4969  1.1449 -0.4302
  367MOL0     H50613   6.155   5.484  10.105 -0.2516  0.2839  0.2523
  367MOL0     H50614   6.256   5.200  10.156 -0.8124  0.1124  0.3234
  367MOL0     H50615   6.321   5.347  10.226  1.8532 -1.1223  0.4664
  367MOL0     H50616   6.417   5.395   9.966  0.6116 -0.6844 -0.0923
  367MOL0     H50617   6.344   5.232   9.941 -0.5705  2.1860 -1.2568
  367MOL0     H50618   6.487   5.176  10.146 -1.2120 -0.0206  0.3538
  367MOL0     H50619   6.556   5.170   9.987 -2.2772  0.2945 -1.7542
  367MOL0     H50620   6.630   5.398   9.985 -1.6859  1.9490  0.8592
  367MOL0     H50621   6.716   5.296  10.103 -0.8781 -0.2286  0.7384
  367MOL0     H50622   6.576   5.397  10.270 -0.2066  0.2355  0.0336
  367MOL0     H50623   6.502   5.512  10.158  1.3524  0.5980 -3.0825
  367MOL0     H50624   6.671   5.646  10.263 -0.7953  1.6625 -0.5080
  367MOL0     H50625   6.708   5.618  10.091  0.5964 -0.2719  0.5040
  367MOL0     H50626   5.809   5.270  10.316 -1.4730  1.8742 -1.6046
  367MOL0     H50627   5.605   5.165  10.341  1.5040 -0.4624  2.1672
  367MOL0     H50628   5.434   4.688  10.207 -0.1151 -1.1391 -0.6045
  367MOL0     H50629   5.276   4.528  10.226  1.9400  0.5379  0.9128
  367MOL0     H50630   3.966   3.291  10.335 -0.8813  0.8785  1.2312
  367MOL0     H50631   3.734   3.247  10.323  1.9004  0.4698  3.0450
  367MOL0     H50632   3.361   3.275  10.243 -0.9160 -1.5276  0.8609
  367MOL0     H50633   3.168   3.151  10.221 -1.0315 -0.6455 -0.8975
  367MOL0     H50634   3.021   2.981  10.105  2.0366  0.8715 -2.7038
  367MOL0     H50635   2.931   3.121  10.160  2.8079  0.6626  1.3996
  367MOL0     H50636   2.844   2.977   9.903 -1.1971 -1.2656 -1.2624
  367MOL0     H50637   2.752   3.096   9.993  0.7583  0.9047 -2.2041
  367MOL0     H50638   2.852   2.818  10.112  0.6974  0.9934 -1.7405
  367MOL0     H50639   2.761   2.939  10.194  3.4337 -2.7152  3.0245
  367MOL0     H50640   2.610   2.755  10.108  0.6884 -1.8569 -0.0121
  367MOL0     H50641   2.688   2.772   9.945  2.4595  2.1581  0.1589
  367MOL0     H50642   2.384   3.073   9.953 -1.2815 -1.8374 -1.2074
  367MOL0     H50643   3.094   3.333   9.837 -2.3671 -2.6927  0.2653
  367MOL0     H50644   3.396   3.531   9.805  0.0406  0.2831 -2.2281
  367MOL0     H50645   3.227   3.511   9.759  0.7071 -0.4285  0.1680
  367MOL0     H50646   3.282   3.621   9.888  2.7933  0.1854 -0.5285
  368MOL0     O50647   0.813   3.473  11.169 -0.4773 -0.4297  0.1731
  368MOL0     C50648   0.806   3.533  11.272 -0.5733 -0.0625  0.4979
  368MOL0     O50649   0.918   3.567  11.348 -0.0316 -0.2718  0.5255
  368MOL0     C50650   1.050   3.533  11.312  0.2981  0.3638  0.2014
  368MOL0     C50651   1.104   3.568  11.186  0.2970  0.2507 -0.2792
  368MOL0     C50652   1.238   3.578  11.170  0.5933 -0.5151  0.6276
  368MOL0     C50653   1.327   3.521  11.262 -0.3279  0.2522  0.1715
  368MOL0     O50654   1.458   3.524  11.247 -0.0458 -0.1971  0.1396
  368MOL0     C50655   1.526   3.579  11.128  0.6102 -1.1209  0.6543
  368MOL0     C50656   1.643   3.659  11.174  0.0896  0.5574 -0.6923
  368MOL0     C50657   1.757   3.566  11.230 -0.1820  0.2615 -0.2585
  368MOL0     C50658   1.845   3.652  11.319 -0.4383 -0.7915  0.1969
  368MOL0     C50659   1.970   3.570  11.347  1.1194 -0.7716  0.6142
  368MOL0     C50660   2.095   3.658  11.354  0.4644 -0.7021  0.1253
  368MOL0     C50661   2.114   3.711  11.502  0.0232 -0.1538 -0.3299
  368MOL0     C50662   2.236   3.804  11.516 -0.1275  0.1121 -0.3867
  368MOL0     N50663   2.357   3.729  11.476 -0.1593 -0.5122  0.7902
  368MOL0     C50664   2.398   3.609  11.531 -0.3383  1.2613 -0.3825
  368MOL0     C50665   2.507   3.576  11.455 -0.4008  0.1642 -0.0216
  368MOL0     C50666   2.599   3.456  11.464  0.1824 -0.1373 -0.6829
  368MOL0     C50667   2.735   3.516  11.503 -0.3949 -0.2042 -1.0056
  368MOL0     C50668   2.859   3.440  11.463 -0.1953 -0.2953 -0.8186
  368MOL0     C50669   2.987   3.507  11.500 -0.4174  0.0722 -0.8598
  368MOL0     O50670   3.084   3.412  11.467 -0.3212  0.2424 -0.0557
  368MOL0     C50671   3.214   3.464  11.444 -0.6694 -0.5075  0.0550
  368MOL0     C50672   3.300   3.378  11.366  0.6573 -1.1651  0.1540
  368MOL0     C50673   3.434   3.411  11.362  0.7241  0.2685 -0.3854
  368MOL0     C50674   3.525   3.312  11.287  0.7422 -0.4346 -0.4960
  368MOL0     C50675   3.489   3.530  11.421  0.3336  0.5118 -0.1378
  368MOL0     C50676   3.630   3.565  11.415  0.9286  0.2520 -0.1171
  368MOL0     O50677   3.688   3.542  11.293 -0.5228  0.2752  0.0928
  368MOL0     C50678   3.824   3.567  11.276 -0.0227  0.2093  0.4526
  368MOL0     C50679   3.900   3.668  11.329 -0.6223  0.0980 -0.7773
  368MOL0     C50680   4.035   3.687  11.296 -0.0072 -0.2973 -0.1494
  368MOL0     C50681   4.095   3.593  11.212 -0.7243 -0.4407  0.5200
  368MOL0     O50682   4.229   3.599  11.181 -0.0130  0.3342 -0.0165
  368MOL0     C50683   4.286   3.726  11.165 -0.7876  0.1897 -0.0636
  368MOL0     C50684   4.394   3.719  11.063 -0.4572 -0.3646  0.2424
  368MOL0     C50685   4.335   3.719  10.923  0.4337 -0.9566  0.7863
  368MOL0     C50686   4.427   3.766  10.815 -0.0077  0.1942 -0.4580
  368MOL0     C50687   4.365   3.763  10.664 -0.6393 -0.0295  0.2301
  368MOL0     C50688   4.267   3.880  10.656 -0.2402 -1.0970  0.4737
  368MOL0     C50689   4.233   3.907  10.504 -0.2820 -0.1990 -0.3578
  368MOL0     C50690   4.087   3.875  10.495  0.8671 -0.2003 -0.4529
  368MOL0    Cl50691   4.043   3.873  10.324 -0.0086  0.3933 -0.0773
  368MOL0     C50692   4.020   3.481  11.163  0.1683  0.6201  0.3974
  368MOL0     C50693   3.885   3.471  11.195  0.2701 -0.9074  0.2134
  368MOL0     O50694   3.676   3.625  11.514  0.6588 -0.3657 -0.4138
  368MOL0     C50695   3.402   3.608  11.494 -0.0660  0.8459 -0.8538
  368MOL0     C50696   3.266   3.583  11.506  0.0069 -0.1578  0.1172
  368MOL0     N50697   2.522   3.671  11.356  0.2046 -0.1453  0.1835
  368MOL0     N50698   2.437   3.765  11.371  1.2840  0.2338 -0.3904
  368MOL0     C50699   1.278   3.484  11.385 -0.7470 -0.4617  0.2305
  368MOL0     C50700   1.144   3.491  11.412 -0.8953 -1.2091  1.1029
  368MOL0     C50701   0.680   3.595  11.323 -0.4426  0.6560 -0.3202
  368MOL0     C50702   0.684   3.649  11.459  0.1111 -0.4509  0.2872
  368MOL0     C50703   0.567   3.708  11.508  0.4735  0.1183  0.6689
  368MOL0     C50704   0.450   3.714  11.433 -0.1303 -0.1315 -1.0047
  368MOL0     O50705   0.333   3.769  11.476  0.5473 -0.0694 -0.1091
  368MOL0     C50706   0.321   3.830  11.602 -0.3016 -0.9321 -1.3710
  368MOL0     C50707   0.186   3.841  11.666 -0.2090  0.0629 -0.2464
  368MOL0     C50708   0.080   3.909  11.575  0.1549 -0.1133 -0.6595
  368MOL0     C50709  -0.050   3.931  11.651 -0.3646 -0.5721 -0.2271
  368MOL0     C50710  -0.028   4.022  11.764  0.7622 -0.4880 -0.5532
  368MOL0     C50711  -0.017   4.083  11.870  0.1662 -1.3814  0.1221
  368MOL0     C50712   0.450   3.654  11.309 -0.2981  0.5822 -0.3010
  368MOL0     C50713   0.559   3.591  11.253  0.8200  0.0790 -0.8733
  368MOL0     C50714   0.526   3.518  11.124  0.9348  1.2762  0.5067
  368MOL0     H50715   1.039   3.604  11.107  0.1416 -2.2736 -1.3926
  368MOL0     H50716   1.269   3.632  11.081 -0.1223 -0.8759  0.1436
  368MOL0     H50717   1.468   3.653  11.072  2.1139  0.9696  1.7146
  368MOL0     H50718   1.563   3.502  11.060  0.1066 -1.5750  0.8857
  368MOL0     H50719   1.683   3.725  11.097  0.6400  0.4090 -0.5383
  368MOL0     H50720   1.603   3.720  11.257 -1.9178 -2.6092  0.8970
  368MOL0     H50721   1.722   3.489  11.299  3.5990  0.5219  2.2815
  368MOL0     H50722   1.808   3.527  11.142 -1.8385 -0.1696 -1.0595
  368MOL0     H50723   1.866   3.745  11.266 -2.0130 -0.8799 -0.6405
  368MOL0     H50724   1.787   3.663  11.411  0.1511 -1.0411  0.6072
  368MOL0     H50725   1.991   3.494  11.272  0.4543 -0.1611 -0.2092
  368MOL0     H50726   1.953   3.519  11.442 -0.2131 -1.3135  0.1126
  368MOL0     H50727   2.181   3.597  11.324  0.5644 -1.2147  1.4147
  368MOL0     H50728   2.085   3.744  11.287 -0.9375  0.6144  1.9363
  368MOL0     H50729   2.130   3.633  11.576  0.9959  0.3229 -0.0142
  368MOL0     H50730   2.024   3.768  11.526  0.4212 -0.4621  2.1192
  368MOL0     H50731   2.220   3.899  11.464  1.1235  1.5153  1.6565
  368MOL0     H50732   2.256   3.821  11.622 -0.2900 -1.0736 -0.1484
  368MOL0     H50733   2.362   3.547  11.612 -2.5514  1.2656 -1.3045
  368MOL0     H50734   2.592   3.406  11.366 -2.7207  1.5783 -1.4577
  368MOL0     H50735   2.560   3.386  11.539  0.6587  0.3517  0.0272
  368MOL0     H50736   2.755   3.613  11.458 -1.3001  1.1330  1.2927
  368MOL0     H50737   2.730   3.537  11.611 -3.4616  1.6833 -1.4069
  368MOL0     H50738   2.857   3.339  11.505 -0.3352 -0.4473 -1.1887
  368MOL0     H50739   2.864   3.422  11.355  2.5166 -0.3897 -0.7300
  368MOL0     H50740   2.987   3.600  11.442  1.6329 -0.7066 -2.1934
  368MOL0     H50741   2.996   3.532  11.606  0.7377  1.4594 -1.2528
  368MOL0     H50742   3.260   3.292  11.313 -0.0139  0.1732 -1.6167
  368MOL0     H50743   3.498   3.206  11.294  1.9476 -0.6733  1.7452
  368MOL0     H50744   3.620   3.313  11.341 -0.1783  1.4327  1.2689
  368MOL0     H50745   3.526   3.337  11.181  0.8590 -0.3105 -0.4660
  368MOL0     H50746   3.866   3.746  11.396  0.9285  1.8084 -1.8718
  368MOL0     H50747   4.082   3.775  11.338 -0.9163 -0.2555  0.8238
  368MOL0     H50748   4.216   3.808  11.145 -0.8264 -0.1458 -1.4472
  368MOL0     H50749   4.332   3.749  11.261 -1.1572  0.6152  0.0099
  368MOL0     H50750   4.448   3.813  11.077 -0.6238 -0.0940 -0.8524
  368MOL0     H50751   4.465   3.642  11.094  1.4696  0.7817 -1.1019
  368MOL0     H50752   4.248   3.785  10.928  1.9834  1.2693 -0.0010
  368MOL0     H50753   4.293   3.623  10.891  1.0111 -0.7933 -0.5318
  368MOL0     H50754   4.515   3.701  10.816 -0.4944 -0.4653  0.2802
  368MOL0     H50755   4.475   3.864  10.827  0.8327 -0.3882  1.2708
  368MOL0     H50756   4.447   3.774  10.593  0.1801  1.7152  1.3772
  368MOL0     H50757   4.309   3.669  10.655  1.8162 -1.6373  0.6871
  368MOL0     H50758   4.314   3.973  10.691  0.9558 -1.3127 -0.4788
  368MOL0     H50759   4.176   3.876  10.716 -2.0492  1.5999 -1.7841
  368MOL0     H50760   4.287   3.850  10.428 -2.3660  1.7806 -3.5654
  368MOL0     H50761   4.244   4.012  10.473 -1.4304  0.1223  0.2682
  368MOL0     H50762   4.038   3.960  10.544 -1.2855 -0.8280 -1.3990
  368MOL0     H50763   4.063   3.778  10.539 -1.4245  0.5419  0.0292
  368MOL0     H50764   4.064   3.411  11.093 -0.6088 -0.9464  1.4046
  368MOL0     H50765   3.839   3.384  11.149 -2.6546  1.7773 -2.4135
  368MOL0     H50766   3.443   3.693  11.548 -0.6185  1.6934 -1.7278
  368MOL0     H50767   3.202   3.651  11.562  0.8044  1.4285 -0.8244
  368MOL0     H50768   1.343   3.451  11.466  3.9432 -2.4880 -3.8239
  368MOL0     H50769   1.116   3.474  11.515 -0.7715  0.2899  1.4014
  368MOL0     H50770   0.771   3.635  11.522  1.0777 -1.5941 -1.2584
  368MOL0     H50771   0.574   3.737  11.613 -0.3866 -0.8393  1.0070
  368MOL0     H50772   0.381   3.795  11.687 -0.4530  0.9211 -0.4438
  368MOL0     H50773   0.357   3.931  11.582 -0.5032 -0.5887 -0.1146
  368MOL0     H50774   0.193   3.904  11.755 -1.2105  1.7221 -1.2903
  368MOL0     H50775   0.170   3.741  11.706  3.2651 -0.1340  0.9777
  368MOL0     H50776   0.115   4.006  11.538 -3.1291  0.5903 -2.3223
  368MOL0     H50777   0.073   3.845  11.486  0.2677  0.0121 -0.7590
  368MOL0     H50778  -0.076   3.836  11.698 -0.8331  0.2360  1.2033
  368MOL0     H50779  -0.123   3.974  11.583 -0.5702 -0.7904 -0.1474
  368MOL0     H50780   0.007   4.133  11.962  2.2354 -0.8964 -0.6132
  368MOL0     H50781   0.349   3.649  11.270 -0.9432  0.3567  1.3214
  368MOL0     H50782   0.531   3.412  11.151 -0.2783  1.7383  2.7928
  368MOL0     H50783   0.434   3.538  11.069  0.2720 -2.2400  0.0728
  368MOL0     H50784   0.601   3.541  11.048  1.3141  2.0862  1.1077
  369MOL0     O50785   8.070   7.587   6.469 -0.0801  0.2376  0.7812
  369MOL0     C50786   8.047   7.691   6.410 -0.8220  0.3003  0.6766
  369MOL0     O50787   8.122   7.736   6.300  0.0715 -0.4034 -0.2571
  369MOL0     C50788   8.247   7.683   6.277 -0.4010  0.0340  0.9340
  369MOL0     C50789   8.361   7.762   6.277  0.8989  0.7922  0.6309
  369MOL0     C50790   8.484   7.706   6.239 -0.0693 -0.7707 -0.1694
  369MOL0     C50791   8.503   7.571   6.214  0.2900 -0.1946 -0.1413
  369MOL0     O50792   8.625   7.523   6.183 -0.2028 -0.3632  0.0368
  369MOL0     C50793   8.639   7.387   6.143  0.8035  0.0479 -0.0355
  369MOL0     C50794   8.787   7.348   6.153  0.5887 -0.1135 -0.2653
  369MOL0     C50795   8.878   7.427   6.055  0.5060 -0.6501  0.5666
  369MOL0     C50796   9.010   7.349   6.018 -0.2743 -0.4797  0.5867
  369MOL0     C50797   9.074   7.405   5.895  0.3448 -0.6998 -0.0896
  369MOL0     C50798   9.197   7.325   5.866  0.2652 -0.0165  0.1761
  369MOL0     C50799   9.283   7.361   5.752 -0.1716  0.6325 -0.0331
  369MOL0     C50800   9.396   7.261   5.726  0.3918  0.0128 -0.3180
  369MOL0     N50801   9.501   7.320   5.645 -0.3263 -0.3515 -0.3073
  369MOL0     C50802   9.624   7.352   5.699 -0.2044  0.6574 -0.2553
  369MOL0     C50803   9.693   7.406   5.594 -0.1980  0.1165  1.0700
  369MOL0     C50804   9.835   7.456   5.602  0.4125  0.6103 -0.8536
  369MOL0     C50805   9.840   7.598   5.560  0.6684 -0.8335 -0.2638
  369MOL0     C50806   9.762   7.698   5.648 -0.1994  0.1006 -0.1495
  369MOL0     C50807   9.612   7.722   5.628  1.1807 -0.0073  0.5223
  369MOL0     O50808   9.583   7.834   5.710  1.0781 -0.3896  0.3992
  369MOL0     C50809   9.455   7.859   5.768 -0.2274  0.5870 -0.2923
  369MOL0     C50810   9.330   7.796   5.726  0.1169 -0.2723  0.4559
  369MOL0     C50811   9.206   7.830   5.779  0.5550  0.8401 -0.3706
  369MOL0     C50812   9.098   7.751   5.704  0.3216 -0.1791 -1.1768
  369MOL0     C50813   9.198   7.918   5.876  0.7593 -0.5819  0.2458
  369MOL0     C50814   9.066   7.960   5.936 -0.1027  0.0528 -0.4819
  369MOL0     O50815   8.963   7.871   5.932 -0.4017 -0.1200  0.3173
  369MOL0     C50816   8.838   7.908   5.979 -0.6557  0.2726  0.1080
  369MOL0     C50817   8.725   7.851   5.917  0.9817  0.1813 -0.1146
  369MOL0     C50818   8.592   7.887   5.945 -0.1582 -0.1744  0.0196
  369MOL0     C50819   8.572   7.976   6.045 -0.0802 -0.6087 -0.2669
  369MOL0     O50820   8.436   8.001   6.068 -0.4795  1.1074 -0.5278
  369MOL0     C50821   8.386   8.114   6.139 -0.0999  0.8495  0.3142
  369MOL0     C50822   8.234   8.115   6.119  0.3192  0.1138 -0.3188
  369MOL0     C50823   8.154   8.239   6.153 -0.2694  0.5678  0.1982
  369MOL0     C50824   8.004   8.236   6.123  0.0681  0.0776  0.0047
  369MOL0     C50825   7.939   8.362   6.171  0.7137 -0.0947  0.4111
  369MOL0     C50826   7.781   8.361   6.146  0.3177 -0.0249  0.1735
  369MOL0     C50827   7.715   8.464   6.243 -0.0419  0.2061 -0.0440
  369MOL0     C50828   7.736   8.429   6.387  0.5351  0.0079 -0.2710
  369MOL0    Cl50829   7.854   8.533   6.476  0.4467  0.1161 -0.5772
  369MOL0     C50830   8.679   8.038   6.112  0.2215  0.1786 -0.1655
  369MOL0     C50831   8.812   8.003   6.081  0.3033 -0.4955  0.0591
  369MOL0     O50832   9.075   8.066   5.991  0.8001 -0.0719  0.3192
  369MOL0     C50833   9.321   7.988   5.913 -0.4624 -0.3339 -0.0778
  369MOL0     C50834   9.446   7.956   5.871  0.1857  0.4639  0.1187
  369MOL0     N50835   9.610   7.399   5.480 -0.4504 -0.2115 -0.1744
  369MOL0     N50836   9.495   7.347   5.515 -0.2901 -0.4506  0.0940
  369MOL0     C50837   8.389   7.492   6.232  0.0836  0.3514  0.3308
  369MOL0     C50838   8.270   7.544   6.269  0.6896 -0.5657 -0.6281
  369MOL0     C50839   7.913   7.766   6.416 -0.4074 -0.5154  1.4555
  369MOL0     C50840   7.891   7.873   6.325 -0.1243  0.0790 -0.0719
  369MOL0     C50841   7.765   7.935   6.324 -0.8439 -0.3932  0.3386
  369MOL0     C50842   7.667   7.912   6.422  0.3021  0.1434  1.2522
  369MOL0     O50843   7.544   7.975   6.409 -0.0615  0.0141 -0.1397
  369MOL0     C50844   7.446   7.953   6.506  0.0814  0.0116 -0.0606
  369MOL0     C50845   7.328   8.051   6.491  0.0082 -1.4142  0.4636
  369MOL0     C50846   7.385   8.190   6.492  0.5179  0.0579 -0.6069
  369MOL0     C50847   7.270   8.288   6.499  1.3335  0.3725 -1.0254
  369MOL0     C50848   7.323   8.421   6.479 -0.7380  0.2060  0.7572
  369MOL0     C50849   7.381   8.522   6.473 -0.2370  0.3176  0.0893
  369MOL0     C50850   7.688   7.797   6.499  0.8681 -0.4556 -0.1992
  369MOL0     C50851   7.807   7.730   6.501 -0.7711  0.2654 -0.0183
  369MOL0     C50852   7.816   7.604   6.580  0.0280 -0.1079  0.6620
  369MOL0     H50853   8.350   7.868   6.297 -2.2377  0.9678 -1.3695
  369MOL0     H50854   8.571   7.766   6.215 -0.3720 -1.2767 -2.8566
  369MOL0     H50855   8.598   7.372   6.043  1.1577  0.1973 -0.2014
  369MOL0     H50856   8.591   7.326   6.221 -0.6314  2.8591  1.4512
  369MOL0     H50857   8.810   7.368   6.259  0.1516  0.9463 -0.3551
  369MOL0     H50858   8.788   7.243   6.123  0.9656 -0.3330  0.4815
  369MOL0     H50859   8.818   7.451   5.966  3.4821  2.2421 -0.8699
  369MOL0     H50860   8.914   7.525   6.088  0.3836  0.7905 -3.0155
  369MOL0     H50861   9.086   7.357   6.096 -0.7363 -0.4455  1.0382
  369MOL0     H50862   8.981   7.246   5.995 -2.1426 -0.2928  1.8693
  369MOL0     H50863   9.094   7.508   5.925 -3.3483  0.1933 -0.2408
  369MOL0     H50864   9.005   7.413   5.811  1.6050 -0.6824 -1.1646
  369MOL0     H50865   9.267   7.349   5.946  0.8982  0.2900 -0.4593
  369MOL0     H50866   9.179   7.217   5.856 -0.0952  0.0725 -0.1849
  369MOL0     H50867   9.327   7.458   5.774 -2.1071  1.6484 -0.4290
  369MOL0     H50868   9.223   7.375   5.662 -0.6875 -0.8653  0.0447
  369MOL0     H50869   9.432   7.222   5.822  2.1618  1.0135 -0.5404
  369MOL0     H50870   9.353   7.172   5.679 -1.7462  0.9219 -0.1899
  369MOL0     H50871   9.665   7.345   5.799 -2.3492 -0.9874  0.5956
  369MOL0     H50872   9.907   7.399   5.543  3.1069  1.4724  1.3589
  369MOL0     H50873   9.873   7.463   5.705 -1.9957 -0.9433  0.2320
  369MOL0     H50874   9.945   7.626   5.564  0.6977 -1.0336  0.6972
  369MOL0     H50875   9.803   7.609   5.458  0.1243  0.6306  0.0709
  369MOL0     H50876   9.790   7.670   5.750 -0.1707 -3.0596 -0.9082
  369MOL0     H50877   9.810   7.792   5.621 -0.3439  0.8383  1.9593
  369MOL0     H50878   9.588   7.735   5.522 -2.7051 -0.2396  1.2000
  369MOL0     H50879   9.548   7.641   5.665  0.7163  0.5812  1.0186
  369MOL0     H50880   9.325   7.728   5.642 -0.9053 -0.3015  0.5217
  369MOL0     H50881   9.133   7.689   5.621 -1.5113  0.4438 -2.4870
  369MOL0     H50882   9.019   7.818   5.669  1.7073  0.4256 -3.3081
  369MOL0     H50883   9.061   7.685   5.783 -1.4677  0.5895 -1.3146
  369MOL0     H50884   8.748   7.778   5.839 -0.0381 -1.6793  1.2411
  369MOL0     H50885   8.511   7.845   5.886  0.6259  1.1044 -2.0800
  369MOL0     H50886   8.412   8.119   6.245  1.6532  0.6845 -0.0810
  369MOL0     H50887   8.417   8.201   6.080 -0.3357  0.3941 -0.4845
  369MOL0     H50888   8.217   8.090   6.014 -1.7475 -2.4014  0.5189
  369MOL0     H50889   8.182   8.030   6.164 -0.2456 -0.2260 -1.5444
  369MOL0     H50890   8.198   8.325   6.102  0.1406 -0.4823 -1.3118
  369MOL0     H50891   8.154   8.254   6.261 -2.0304  1.2084  0.1439
  369MOL0     H50892   7.969   8.146   6.176  0.0986  0.2056  0.2430
  369MOL0     H50893   7.982   8.230   6.016  1.1295  0.7319 -0.2626
  369MOL0     H50894   7.955   8.357   6.279  0.2296 -0.5767  0.4686
  369MOL0     H50895   7.984   8.448   6.122  0.7991 -1.6844 -2.5615
  369MOL0     H50896   7.737   8.261   6.157 -1.9988  1.0550  1.3515
  369MOL0     H50897   7.758   8.395   6.044 -1.1236 -1.9870 -0.2233
  369MOL0     H50898   7.607   8.457   6.226  0.0382 -2.4243  0.0865
  369MOL0     H50899   7.735   8.570   6.224  0.5800  0.3722  1.3943
  369MOL0     H50900   7.778   8.328   6.390  0.9054  0.1703  1.8721
  369MOL0     H50901   7.639   8.428   6.437  0.8105  0.1888  0.2749
  369MOL0     H50902   8.657   8.115   6.185  0.1913  1.7336 -1.7720
  369MOL0     H50903   8.888   8.048   6.143  3.1455 -1.2174 -2.6445
  369MOL0     H50904   9.320   8.056   5.998 -1.3875 -0.2039 -0.1834
  369MOL0     H50905   9.532   8.006   5.913  0.7470  1.1138 -1.7083
  369MOL0     H50906   8.392   7.387   6.207  3.1190 -0.2079  2.4442
  369MOL0     H50907   8.187   7.474   6.276  1.1872 -1.0510  0.6353
  369MOL0     H50908   7.971   7.913   6.263  1.8927 -2.5653  0.6217
  369MOL0     H50909   7.754   8.011   6.247  2.2830 -0.6388 -0.4855
  369MOL0     H50910   7.422   7.847   6.493 -2.0176  0.7128 -2.5140
  369MOL0     H50911   7.490   7.958   6.607  1.7278  0.3605 -0.7660
  369MOL0     H50912   7.263   8.043   6.579  1.3339  0.3120  1.6436
  369MOL0     H50913   7.281   8.034   6.394 -0.2280  1.7942 -0.0842
  369MOL0     H50914   7.443   8.197   6.584 -1.2185 -2.9607  0.8801
  369MOL0     H50915   7.447   8.206   6.403  1.3246  1.7887  0.2249
  369MOL0     H50916   7.225   8.293   6.599 -0.1920  1.2676 -1.7212
  369MOL0     H50917   7.194   8.261   6.426 -2.9357  0.7049  2.8293
  369MOL0     H50918   7.446   8.607   6.467 -0.4460  0.5761  1.2945
  369MOL0     H50919   7.612   7.763   6.568 -1.8443  2.1001 -1.7106
  369MOL0     H50920   7.889   7.612   6.661 -1.9526 -0.2353  2.5423
  369MOL0     H50921   7.715   7.583   6.617 -0.8915  1.2836 -0.8959
  369MOL0     H50922   7.836   7.517   6.517 -0.3114 -0.2385  0.7339
  370MOL0     O50923   3.933   9.808  10.931 -0.0650  0.0906 -0.3029
  370MOL0     C50924   3.955   9.894  10.849 -0.3546 -0.5730  0.3489
  370MOL0     O50925   4.079   9.962  10.837  0.7769 -0.5083  0.1699
  370MOL0     C50926   4.180   9.930  10.927 -0.4061  0.3131 -0.0491
  370MOL0     C50927   4.279   9.825  10.907  0.9177 -0.9036  0.3179
  370MOL0     C50928   4.370   9.790  11.010  0.7040  0.1801 -0.1585
  370MOL0     C50929   4.376   9.877  11.122  0.1530 -0.0991 -0.5520
  370MOL0     O50930   4.475   9.873  11.221 -0.0423 -0.2058  0.1460
  370MOL0     C50931   4.610   9.849  11.161 -0.3402  0.3783  0.0818
  370MOL0     C50932   4.673   9.954  11.068 -0.3880 -1.0887  0.2166
  370MOL0     C50933   4.824   9.921  11.045 -0.0835  0.0392  0.4656
  370MOL0     C50934   4.841   9.790  10.963  0.2774  0.2778  0.1285
  370MOL0     C50935   4.948   9.809  10.849 -0.2777 -0.7647 -0.0288
  370MOL0     C50936   4.984   9.683  10.775  0.4481 -0.6462  0.0653
  370MOL0     C50937   5.057   9.703  10.640  0.2458 -0.4202  0.0179
  370MOL0     C50938   4.968   9.721  10.515 -0.0686 -0.0177 -0.0200
  370MOL0     N50939   5.047   9.697  10.397  0.5461  0.2967  0.0599
  370MOL0     C50940   5.145   9.767  10.350 -0.1711  0.3603  0.7884
  370MOL0     C50941   5.197   9.689  10.248 -0.3261 -0.3197 -0.0329
  370MOL0     C50942   5.321   9.736  10.162  0.0162  0.8854 -0.0643
  370MOL0     C50943   5.456   9.706  10.231  0.5162 -0.6106  0.6959
  370MOL0     C50944   5.569   9.732  10.128  0.6939  0.1632 -0.4050
  370MOL0     C50945   5.696   9.666  10.172  0.8940  0.2570  0.0340
  370MOL0     O50946   5.724   9.716  10.302 -0.0268  0.3724  0.0101
  370MOL0     C50947   5.852   9.723  10.348 -0.4439 -0.0312  0.2881
  370MOL0     C50948   5.874   9.809  10.459 -0.3180 -0.0492 -0.2278
  370MOL0     C50949   5.998   9.814  10.527 -0.4880  0.3638  0.4168
  370MOL0     C50950   6.007   9.901  10.642  0.4473 -0.2155  0.7114
  370MOL0     C50951   6.107   9.734  10.472  0.5398 -0.5360  0.1658
  370MOL0     C50952   6.240   9.731  10.539  0.1278  0.4223  0.5876
  370MOL0     O50953   6.299   9.600  10.543 -0.2080  0.0162  0.3597
  370MOL0     C50954   6.419   9.574  10.606 -0.3273  0.2492 -0.0103
  370MOL0     C50955   6.471   9.642  10.713  0.1347  0.1204 -0.0611
  370MOL0     C50956   6.595   9.611  10.766 -0.5627  0.1265  0.1266
  370MOL0     C50957   6.663   9.503  10.714 -0.2292 -0.9830  0.4906
  370MOL0     O50958   6.784   9.485  10.784 -0.4824 -0.3311  0.0857
  370MOL0     C50959   6.897   9.420  10.724  1.5837 -0.7410 -0.0628
  370MOL0     C50960   7.021   9.460  10.817 -0.5198  0.3312 -0.3131
  370MOL0     C50961   7.155   9.388  10.766 -0.5182  0.5560  0.4440
  370MOL0     C50962   7.281   9.435  10.836  0.7567 -0.0532  0.5306
  370MOL0     C50963   7.402   9.344  10.812  0.4763 -0.6470 -0.4087
  370MOL0     C50964   7.443   9.329  10.667  0.1836  0.4924 -0.1899
  370MOL0     C50965   7.558   9.229  10.667 -0.2833  0.4222  0.8366
  370MOL0     C50966   7.688   9.297  10.602  0.0677  0.0656 -0.4820
  370MOL0    Cl50967   7.806   9.162  10.607  0.2639  0.1951  0.7190
  370MOL0     C50968   6.624   9.437  10.602 -0.0002  0.5868  0.2542
  370MOL0     C50969   6.494   9.470  10.548 -0.8633 -0.5364 -0.1889
  370MOL0     O50970   6.290   9.834  10.576  0.0874 -0.5771 -0.4403
  370MOL0     C50971   6.087   9.655  10.362 -0.7547  0.9879  0.6831
  370MOL0     C50972   5.962   9.646  10.303  0.0222 -0.2350 -0.0825
  370MOL0     N50973   5.121   9.578  10.239 -0.0455  0.2581 -0.4784
  370MOL0     N50974   5.027   9.583  10.328  0.2892  0.0636  0.3170
  370MOL0     C50975   4.279   9.969  11.149 -0.6874 -0.4635 -0.3596
  370MOL0     C50976   4.185   9.996  11.053 -0.0761  0.0138  0.9075
  370MOL0     C50977   3.841   9.951  10.770 -0.0168  0.3349 -0.5945
  370MOL0     C50978   3.729  10.005  10.840 -0.0906  0.4826 -0.0495
  370MOL0     C50979   3.633  10.061  10.760  0.6894 -0.0270  0.2744
  370MOL0     C50980   3.636  10.057  10.617  0.5886  0.1723  0.4322
  370MOL0     O50981   3.526  10.118  10.553  0.1744 -0.2483 -0.3571
  370MOL0     C50982   3.560  10.244  10.485  0.2102 -0.2187 -0.8281
  370MOL0     C50983   3.470  10.269  10.366  0.1077 -0.4134  0.5998
  370MOL0     C50984   3.315  10.252  10.401 -0.5000 -0.2919 -0.4732
  370MOL0     C50985   3.270  10.325  10.531  0.1032 -0.0272 -0.5914
  370MOL0     C50986   3.288  10.469  10.529 -0.0157  0.2616 -0.8623
  370MOL0     C50987   3.316  10.586  10.501 -0.1490 -0.6376  0.0663
  370MOL0     C50988   3.752  10.014  10.548  0.4105 -0.4252  0.1424
  370MOL0     C50989   3.852   9.954  10.628 -0.2980  0.5118  0.0715
  370MOL0     C50990   3.968   9.899  10.555  0.0728 -0.5758  0.3135
  370MOL0     H50991   4.262   9.756  10.824  0.6147 -0.5282  0.0653
  370MOL0     H50992   4.426   9.698  10.995  0.5108  0.0985 -0.3862
  370MOL0     H50993   4.613   9.752  11.110 -0.5861 -0.4797  1.6119
  370MOL0     H50994   4.674   9.846  11.250 -0.3491  0.5672  0.0949
  370MOL0     H50995   4.621   9.971  10.973 -0.3626  1.5637  0.6038
  370MOL0     H50996   4.666  10.054  11.111 -1.1013 -1.1811  0.3358
  370MOL0     H50997   4.862  10.010  10.993 -0.5490  1.0302  1.7602
  370MOL0     H50998   4.862   9.915  11.147 -0.3308 -1.0553  0.5016
  370MOL0     H50999   4.874   9.709  11.028  3.2852 -0.6075 -2.2482
  370MOL0     H51000   4.750   9.759  10.912  2.1712 -0.4467 -3.0936
  370MOL0     H51001   5.043   9.836  10.898  0.0640 -1.1550 -0.4721
  370MOL0     H51002   4.930   9.895  10.784  2.2194  0.9041  1.2864
  370MOL0     H51003   5.025   9.610  10.845  2.4675  1.3810  1.1323
  370MOL0     H51004   4.890   9.645  10.736  1.3118 -2.5512 -0.2440
  370MOL0     H51005   5.134   9.628  10.626 -0.0317 -0.5281 -1.0034
  370MOL0     H51006   5.115   9.796  10.643  2.4119 -1.5272 -2.6871
  370MOL0     H51007   4.885   9.650  10.528  1.5403 -1.7789  1.2454
  370MOL0     H51008   4.918   9.816  10.498  1.9374  1.1317  0.1816
  370MOL0     H51009   5.184   9.862  10.386 -0.5792  0.1875  1.6951
  370MOL0     H51010   5.298   9.843  10.154 -3.0969  0.2054 -2.1610
  370MOL0     H51011   5.322   9.691  10.063  2.3196 -3.0559  1.5240
  370MOL0     H51012   5.475   9.768  10.319  0.7599 -2.6176  2.1276
  370MOL0     H51013   5.453   9.599  10.254 -2.6558 -1.2013 -1.8652
  370MOL0     H51014   5.542   9.692  10.030  0.7576 -0.9418  0.0150
  370MOL0     H51015   5.587   9.840  10.127 -0.3498  0.3636  0.3970
  370MOL0     H51016   5.678   9.558  10.167  1.7216  0.1284 -0.2770
  370MOL0     H51017   5.779   9.698  10.108 -0.3360  1.5694 -0.9523
  370MOL0     H51018   5.796   9.874  10.497  1.7916  3.6632 -1.7809
  370MOL0     H51019   6.027   9.833  10.726  1.0987 -1.5314 -0.4773
  370MOL0     H51020   5.917   9.956  10.672  1.7481  1.0602  2.5698
  370MOL0     H51021   6.093   9.968  10.634  0.4779 -0.2545  0.7160
  370MOL0     H51022   6.427   9.731  10.758  1.6947  0.3056  1.1937
  370MOL0     H51023   6.638   9.653  10.857 -2.0336 -2.1005  1.9467
  370MOL0     H51024   6.887   9.312  10.736 -4.2298 -0.4138  0.9300
  370MOL0     H51025   6.909   9.462  10.623  2.6195  0.8618  0.6806
  370MOL0     H51026   7.028   9.569  10.821 -4.6508  0.7350  0.0946
  370MOL0     H51027   7.003   9.425  10.919  2.3862  3.8072  1.6371
  370MOL0     H51028   7.160   9.408  10.659  1.5632  0.0066  0.3825
  370MOL0     H51029   7.148   9.280  10.786  0.0289 -0.2425 -3.1012
  370MOL0     H51030   7.252   9.435  10.941  0.3924  0.8210  0.4348
  370MOL0     H51031   7.311   9.535  10.803 -1.5829  1.3972  2.4671
  370MOL0     H51032   7.487   9.387  10.866 -0.2694  0.2512  0.0936
  370MOL0     H51033   7.385   9.247  10.859 -1.3896 -0.0263  0.3274
  370MOL0     H51034   7.486   9.424  10.636 -2.1927  1.6763 -0.0443
  370MOL0     H51035   7.362   9.288  10.605  0.9963  2.5857 -2.7825
  370MOL0     H51036   7.532   9.141  10.606  0.7092  0.5354  0.2238
  370MOL0     H51037   7.578   9.187  10.766 -0.0232  0.7122  0.9065
  370MOL0     H51038   7.719   9.385  10.660 -1.3538 -0.8489  1.7800
  370MOL0     H51039   7.674   9.326  10.497 -1.6321 -0.5654 -0.4515
  370MOL0     H51040   6.690   9.365  10.555 -2.0862 -0.7196 -0.8220
  370MOL0     H51041   6.457   9.415  10.462 -1.8082 -0.3596  0.0874
  370MOL0     H51042   6.166   9.593  10.320 -0.6651  1.5955 -0.0708
  370MOL0     H51043   5.953   9.564  10.232  0.4524 -0.6932  0.3917
  370MOL0     H51044   4.265  10.011  11.248  0.2412 -1.7763  0.3517
  370MOL0     H51045   4.111  10.069  11.086  2.1269  1.4093  3.1478
  370MOL0     H51046   3.721  10.005  10.948 -1.3409  2.2572 -0.0951
  370MOL0     H51047   3.548  10.116  10.798  0.3970  0.4144 -0.9751
  370MOL0     H51048   3.560  10.322  10.561 -2.0056 -1.1642  0.2491
  370MOL0     H51049   3.661  10.227  10.446  0.0090 -0.4583 -1.2498
  370MOL0     H51050   3.508  10.204  10.287  2.6592 -0.4613  1.7718
  370MOL0     H51051   3.481  10.371  10.329  0.3214  0.3136  2.5485
  370MOL0     H51052   3.255  10.290  10.317  0.9560  0.5752 -1.1658
  370MOL0     H51053   3.292  10.145  10.402  0.9955 -0.6239 -0.0147
  370MOL0     H51054   3.324  10.293  10.621 -0.9127  0.5745  0.2536
  370MOL0     H51055   3.165  10.298  10.544 -0.4302 -0.0084 -3.8674
  370MOL0     H51056   3.333  10.691  10.487 -2.8439 -0.2550 -0.9961
  370MOL0     H51057   3.762  10.036  10.442 -1.1764  0.6455  0.1853
  370MOL0     H51058   3.993   9.801  10.596  1.9291 -0.6948 -0.9846
  370MOL0     H51059   3.937   9.897  10.450  0.7121 -2.1477  0.1333
  370MOL0     H51060   4.057   9.963  10.556 -0.4499  0.1938  1.7952
  371MOL0     O51061   5.957   2.252   2.664  0.2381  0.1425 -0.5148
  371MOL0     C51062   5.873   2.215   2.588 -0.5171  0.1327  0.2719
  371MOL0     O51063   5.905   2.155   2.458 -0.0592 -0.4275  0.2691
  371MOL0     C51064   6.035   2.151   2.406 -0.5160 -0.1340 -0.4906
  371MOL0     C51065   6.144   2.093   2.477 -0.9593  0.1117  0.2945
  371MOL0     C51066   6.272   2.093   2.419  0.9585 -0.8178  0.1848
  371MOL0     C51067   6.290   2.143   2.292  0.0787  0.4207  0.1855
  371MOL0     O51068   6.412   2.130   2.227 -0.1543  0.0476 -0.6121
  371MOL0     C51069   6.456   2.247   2.161 -0.0728  0.8065 -0.0323
  371MOL0     C51070   6.588   2.240   2.107 -1.1624 -0.3683  0.5750
  371MOL0     C51071   6.684   2.171   2.199  0.6436 -0.2124 -0.3708
  371MOL0     C51072   6.829   2.205   2.176 -0.2134 -0.8436 -0.4500
  371MOL0     C51073   6.909   2.167   2.297 -0.3276  0.4473  0.0708
  371MOL0     C51074   7.061   2.164   2.255  0.6922  0.4587  0.0951
  371MOL0     C51075   7.139   2.096   2.372 -0.3236 -0.3612 -0.4495
  371MOL0     C51076   7.272   2.045   2.317 -0.3022 -0.8507 -1.0405
  371MOL0     N51077   7.360   2.135   2.230  0.4859  0.5362  0.7019
  371MOL0     C51078   7.447   2.227   2.275  0.0319  0.7324  0.2089
  371MOL0     C51079   7.497   2.283   2.162  0.8404  1.6914  0.2450
  371MOL0     C51080   7.574   2.411   2.157  0.1061 -0.5710 -0.2302
  371MOL0     C51081   7.722   2.381   2.123  0.1630 -0.0998 -0.8651
  371MOL0     C51082   7.790   2.300   2.245  0.3297 -0.0816  0.3027
  371MOL0     C51083   7.919   2.237   2.198 -0.3106  0.6624 -0.0868
  371MOL0     O51084   7.986   2.164   2.297  0.8826  0.1663  0.0916
  371MOL0     C51085   8.119   2.142   2.285  0.6396 -0.6874 -0.6483
  371MOL0     C51086   8.180   2.082   2.171 -0.9206  0.0265  0.2647
  371MOL0     C51087   8.313   2.075   2.150 -0.8417 -0.1238 -0.5565
  371MOL0     C51088   8.376   2.008   2.030 -0.1890  0.3205  0.3261
  371MOL0     C51089   8.395   2.117   2.257  0.8375  0.7204  0.0660
  371MOL0     C51090   8.542   2.104   2.257  0.0104 -0.6621 -0.3644
  371MOL0     O51091   8.595   2.136   2.138  0.4116 -0.2368 -0.1537
  371MOL0     C51092   8.726   2.158   2.129  0.5420 -0.1890 -0.8976
  371MOL0     C51093   8.789   2.143   2.007  0.3926 -0.4320  0.1267
  371MOL0     C51094   8.923   2.167   1.990 -0.1189 -0.1507  0.4825
  371MOL0     C51095   9.002   2.211   2.093 -1.1525  0.1732  0.6630
  371MOL0     O51096   9.141   2.205   2.073  0.2037 -0.0666  0.1710
  371MOL0     C51097   9.227   2.300   2.133 -0.5079  0.2938  0.2255
  371MOL0     C51098   9.372   2.289   2.087  0.1756  0.1787 -0.8163
  371MOL0     C51099   9.471   2.279   2.210  0.3590 -0.0222  0.3885
  371MOL0     C51100   9.486   2.418   2.271 -0.0194 -0.0870 -0.1889
  371MOL0     C51101   9.561   2.415   2.405  0.4093 -0.5557 -0.2092
  371MOL0     C51102   9.611   2.550   2.441 -0.1794 -0.3211  0.2068
  371MOL0     C51103   9.500   2.662   2.430 -0.6294  0.2317 -0.5517
  371MOL0     C51104   9.382   2.651   2.532  0.4775  0.0792 -0.4302
  371MOL0    Cl51105   9.440   2.657   2.705  0.2382 -0.2124  0.0966
  371MOL0     C51106   8.939   2.244   2.212  0.4656 -0.5236  0.2048
  371MOL0     C51107   8.803   2.216   2.227  0.2643 -0.1397 -1.5144
  371MOL0     O51108   8.610   2.080   2.356  0.7202  0.3887  0.0122
  371MOL0     C51109   8.338   2.170   2.374 -0.6288  0.8276 -0.8039
  371MOL0     C51110   8.201   2.181   2.392  0.0586  1.1448 -0.9600
  371MOL0     N51111   7.454   2.209   2.052 -0.2790  0.0073  0.2330
  371MOL0     N51112   7.379   2.115   2.093 -0.1628  0.6835  0.7497
  371MOL0     C51113   6.172   2.183   2.217  0.6802  0.0828  0.6869
  371MOL0     C51114   6.047   2.189   2.278  0.4769  0.0639 -0.0313
  371MOL0     C51115   5.732   2.239   2.612 -0.6383  0.1464 -0.0643
  371MOL0     C51116   5.692   2.267   2.747  0.4175  0.3864 -0.1722
  371MOL0     C51117   5.559   2.279   2.788  0.1289  0.0123 -0.3543
  371MOL0     C51118   5.455   2.283   2.692 -0.2496 -0.3323  0.5411
  371MOL0     O51119   5.329   2.321   2.743 -0.0655  0.3678 -0.1942
  371MOL0     C51120   5.220   2.313   2.662  0.2646 -0.1849 -0.6947
  371MOL0     C51121   5.097   2.343   2.748  0.4831 -0.2121 -0.2824
  371MOL0     C51122   5.050   2.224   2.845 -0.8046  0.2965 -0.1778
  371MOL0     C51123   5.137   2.219   2.969 -0.0880  1.0311 -0.1841
  371MOL0     C51124   5.149   2.338   3.053 -0.2179 -0.7443 -0.2612
  371MOL0     C51125   5.146   2.448   3.110 -0.9164  0.7203  1.1099
  371MOL0     C51126   5.498   2.258   2.556  0.2830 -0.1488  0.3821
  371MOL0     C51127   5.627   2.236   2.513 -0.1772  0.1406 -0.2736
  371MOL0     C51128   5.646   2.217   2.359 -0.2065 -0.3327  0.2983
  371MOL0     H51129   6.132   2.053   2.577  0.3987  0.4981  0.6347
  371MOL0     H51130   6.361   2.054   2.468  1.5886  1.8058  1.2906
  371MOL0     H51131   6.438   2.336   2.222 -1.2242 -0.0508  0.9326
  371MOL0     H51132   6.389   2.243   2.074 -0.0248 -2.1854 -0.0516
  371MOL0     H51133   6.583   2.181   2.014 -2.6251  0.3663  0.1481
  371MOL0     H51134   6.621   2.341   2.083 -0.1766 -0.5732  1.0415
  371MOL0     H51135   6.658   2.191   2.303  0.3837  1.2745 -0.6995
  371MOL0     H51136   6.670   2.063   2.186  1.0636 -0.3174 -0.0117
  371MOL0     H51137   6.862   2.157   2.083  0.8495  2.2405 -1.8312
  371MOL0     H51138   6.855   2.308   2.147 -0.8472 -0.6647 -0.3933
  371MOL0     H51139   6.883   2.066   2.331  0.6053  0.6414  1.4788
  371MOL0     H51140   6.895   2.238   2.379  1.0601  0.6266  0.1850
  371MOL0     H51141   7.072   2.105   2.164 -2.3613  0.2564 -0.2561
  371MOL0     H51142   7.098   2.266   2.240  0.0539  0.6691 -0.0826
  371MOL0     H51143   7.095   2.002   2.406  2.8898 -2.0686 -0.6440
  371MOL0     H51144   7.148   2.174   2.448  1.1425 -1.1306  0.1977
  371MOL0     H51145   7.339   2.038   2.403  0.2212  1.5829 -1.1586
  371MOL0     H51146   7.272   1.944   2.276  0.5731 -2.4641  2.5387
  371MOL0     H51147   7.471   2.265   2.374  2.4519  1.1398 -0.4740
  371MOL0     H51148   7.562   2.472   2.247  0.7715  0.9517 -1.1445
  371MOL0     H51149   7.527   2.470   2.078 -1.8799 -1.0983  0.4959
  371MOL0     H51150   7.730   2.329   2.027 -0.9241  2.0082 -2.1672
  371MOL0     H51151   7.773   2.476   2.106 -0.9352  0.7022  0.1977
  371MOL0     H51152   7.824   2.359   2.331  1.4193  3.2766 -2.2065
  371MOL0     H51153   7.736   2.213   2.283  3.0919 -2.2397 -0.3946
  371MOL0     H51154   7.899   2.168   2.117 -0.0575  0.9073 -0.3608
  371MOL0     H51155   7.984   2.320   2.167 -1.1604  1.1300 -0.6318
  371MOL0     H51156   8.115   2.038   2.096  0.9799 -1.7740 -0.4307
  371MOL0     H51157   8.297   1.979   1.961 -0.8380  2.6646 -0.0046
  371MOL0     H51158   8.436   1.918   2.045  1.4732  1.0746 -1.3877
  371MOL0     H51159   8.435   2.076   1.968 -0.6132  1.1337  0.7936
  371MOL0     H51160   8.720   2.105   1.931 -0.2997 -1.2758  1.1503
  371MOL0     H51161   8.966   2.152   1.891 -0.9116 -1.3631  0.3024
  371MOL0     H51162   9.198   2.396   2.089  2.0839  1.2884  0.5101
  371MOL0     H51163   9.220   2.308   2.242 -0.2643 -1.6836  0.4105
  371MOL0     H51164   9.380   2.196   2.031  0.7263 -0.9316  1.0295
  371MOL0     H51165   9.412   2.365   2.019 -3.5351  0.9333 -2.4174
  371MOL0     H51166   9.573   2.252   2.179  0.9296  2.7925 -0.4643
  371MOL0     H51167   9.432   2.202   2.276  0.2672  0.8547  1.3755
  371MOL0     H51168   9.384   2.457   2.276 -0.2491 -0.7559  0.7117
  371MOL0     H51169   9.549   2.473   2.201  1.9712 -2.0798 -0.0835
  371MOL0     H51170   9.490   2.371   2.476  0.3460  0.1039  0.1407
  371MOL0     H51171   9.645   2.345   2.394 -0.6095 -1.7513 -0.5611
  371MOL0     H51172   9.681   2.566   2.359  2.9964 -0.1509  2.7576
  371MOL0     H51173   9.671   2.555   2.532 -1.4902 -0.0768  1.0815
  371MOL0     H51174   9.467   2.668   2.325  1.0440  1.4028 -1.0616
  371MOL0     H51175   9.563   2.749   2.451 -0.3974 -0.3637  1.3674
  371MOL0     H51176   9.330   2.558   2.505 -1.1166  1.5033 -2.7072
  371MOL0     H51177   9.308   2.731   2.526 -0.0095 -0.3947 -0.8591
  371MOL0     H51178   8.999   2.284   2.293  0.7206 -0.0832 -0.1910
  371MOL0     H51179   8.763   2.248   2.322  1.4713  2.2408 -1.7423
  371MOL0     H51180   8.407   2.186   2.457 -0.5714 -2.3036 -0.1142
  371MOL0     H51181   8.158   2.233   2.477  2.2248  0.4963  0.6495
  371MOL0     H51182   6.188   2.203   2.111  1.1463 -2.1919  0.2681
  371MOL0     H51183   5.980   2.249   2.217 -1.3646 -1.1732  0.6976
  371MOL0     H51184   5.767   2.270   2.825  0.1304  0.2806  0.1055
  371MOL0     H51185   5.540   2.295   2.893  3.3721 -1.8850  0.6855
  371MOL0     H51186   5.235   2.388   2.583  0.1433  5.0263  3.6054
  371MOL0     H51187   5.203   2.214   2.621 -0.2866  0.1433 -1.2707
  371MOL0     H51188   5.011   2.368   2.684  0.6535 -0.3902 -0.5886
  371MOL0     H51189   5.125   2.433   2.802  2.2404 -0.2764 -1.0198
  371MOL0     H51190   4.947   2.234   2.881 -2.0334  0.9717 -3.4678
  371MOL0     H51191   5.062   2.132   2.788  1.1336  0.8608 -0.7631
  371MOL0     H51192   5.239   2.182   2.951 -0.5414 -0.8473  0.9308
  371MOL0     H51193   5.093   2.142   3.033  0.5554  2.8848  2.7155
  371MOL0     H51194   5.130   2.535   3.170  0.3874  1.1705  0.8235
  371MOL0     H51195   5.422   2.266   2.479  1.1707 -0.1299 -0.5123
  371MOL0     H51196   5.677   2.116   2.329 -0.3142 -0.0043 -0.9923
  371MOL0     H51197   5.555   2.240   2.302  0.5098  0.2092 -0.6665
  371MOL0     H51198   5.732   2.278   2.328 -1.0994  2.1499  2.3402
  372MOL0     O51199   8.100  10.831   0.301 -0.0944  0.2063  0.4367
  372MOL0     C51200   7.998  10.837   0.373  0.4111 -0.0007 -0.6109
  372MOL0     O51201   7.972  10.934   0.470  0.0139 -0.4814 -0.3844
  372MOL0     C51202   8.070  11.022   0.495  0.1704  0.5147 -0.0394
  372MOL0     C51203   8.050  11.148   0.443  0.9982  0.9717  0.3853
  372MOL0     C51204   8.152  11.240   0.454  0.1577  0.2852 -0.2679
  372MOL0     C51205   8.267  11.208   0.530 -0.6740  0.8024  0.3206
  372MOL0     O51206   8.373  11.292   0.549 -0.0351 -0.3509  0.6287
  372MOL0     C51207   8.378  11.412   0.471 -0.5648 -0.2027  0.2146
  372MOL0     C51208   8.509  11.490   0.493 -0.4751  1.0042 -0.0410
  372MOL0     C51209   8.525  11.536   0.640  0.2071  0.7823 -0.3162
  372MOL0     C51210   8.639  11.625   0.654  0.0416  0.0443 -0.2031
  372MOL0     C51211   8.686  11.646   0.799 -0.3819 -0.1377 -0.4204
  372MOL0     C51212   8.807  11.736   0.827 -0.4345 -0.0586  0.3472
  372MOL0     C51213   8.815  11.761   0.980  0.7718  1.1276 -0.2335
  372MOL0     C51214   8.924  11.869   1.000 -0.6858 -0.2838  0.1460
  372MOL0     N51215   8.989  11.876   1.131 -0.8392  0.0272 -0.0738
  372MOL0     C51216   8.928  11.881   1.251 -0.3216  0.5041 -0.8585
  372MOL0     C51217   9.035  11.881   1.339  0.1399 -0.2282 -0.2478
  372MOL0     C51218   9.033  11.894   1.492 -0.4653  0.8857 -0.4113
  372MOL0     C51219   9.091  12.025   1.546 -0.5451  0.5290  0.3147
  372MOL0     C51220   9.246  12.030   1.516  1.3517 -0.4695  0.2321
  372MOL0     C51221   9.319  12.137   1.597  0.7204  1.0050  0.9787
  372MOL0     O51222   9.461  12.122   1.595  0.3629 -0.1566  0.2611
  372MOL0     C51223   9.550  12.220   1.565  0.1232  0.0395 -0.0468
  372MOL0     C51224   9.686  12.202   1.588  0.5842 -0.3276 -0.8723
  372MOL0     C51225   9.775  12.297   1.563  0.1106 -0.8399 -0.3059
  372MOL0     C51226   9.907  12.270   1.620 -0.7106  0.0334 -0.3906
  372MOL0     C51227   9.739  12.433   1.523 -0.5652  0.5851  0.8315
  372MOL0     C51228   9.837  12.545   1.517 -1.1794  1.3775  0.6179
  372MOL0     O51229   9.936  12.549   1.605  0.1502  0.5887 -0.7013
  372MOL0     C51230  10.048  12.625   1.597  0.6743  0.7626  0.1739
  372MOL0     C51231  10.052  12.748   1.552  0.2175  0.3821 -0.0552
  372MOL0     C51232  10.165  12.829   1.571 -0.2508 -0.0870  0.2136
  372MOL0     C51233  10.278  12.781   1.638 -0.6316 -0.0225 -0.9442
  372MOL0     O51234  10.394  12.845   1.663  0.2908  0.1355  0.8131
  372MOL0     C51235  10.402  12.986   1.623 -0.8917  0.1782 -0.3145
  372MOL0     C51236  10.526  13.060   1.666 -0.0508  0.3349 -0.5100
  372MOL0     C51237  10.661  13.025   1.603  0.5684 -0.1810 -0.8941
  372MOL0     C51238  10.785  13.064   1.694 -0.2200 -0.3178 -0.6762
  372MOL0     C51239  10.922  13.046   1.609  0.1881  0.3614 -0.6891
  372MOL0     C51240  11.042  13.052   1.713  0.2057 -0.5965  0.2015
  372MOL0     C51241  11.173  13.018   1.643  0.3709  0.0450 -0.7758
  372MOL0     C51242  11.288  13.000   1.744 -0.0252  0.6631  0.0651
  372MOL0    Cl51243  11.315  13.148   1.831  0.4596  0.2403  0.1819
  372MOL0     C51244  10.281  12.647   1.668  0.1642 -0.2307  0.0874
  372MOL0     C51245  10.168  12.567   1.650 -0.0311  0.4857  0.5735
  372MOL0     O51246   9.834  12.610   1.419  0.6998  0.4202 -0.6188
  372MOL0     C51247   9.602  12.443   1.479 -0.7933 -0.1052  0.6308
  372MOL0     C51248   9.511  12.339   1.495  0.0016 -1.0678  1.0320
  372MOL0     N51249   9.149  11.868   1.266 -0.3824 -1.1994 -0.0134
  372MOL0     N51250   9.125  11.868   1.144  0.1882  0.0272 -0.3839
  372MOL0     C51251   8.276  11.084   0.598  0.4379 -0.1322  0.0153
  372MOL0     C51252   8.179  10.986   0.570 -0.0573  0.1598  0.2932
  372MOL0     C51253   7.895  10.730   0.345 -0.2445 -0.1660  0.2722
  372MOL0     C51254   7.755  10.772   0.358 -0.0467 -0.1847 -0.2671
  372MOL0     C51255   7.659  10.691   0.319  0.5749 -0.0946 -0.7746
  372MOL0     C51256   7.681  10.567   0.269 -0.3308  0.8794 -1.1342
  372MOL0     O51257   7.561  10.507   0.235  0.3877 -0.0287  0.2693
  372MOL0     C51258   7.559  10.408   0.141 -0.1108 -0.5674 -0.2683
  372MOL0     C51259   7.440  10.417   0.051  0.1305 -0.0883  0.2050
  372MOL0     C51260   7.308  10.414   0.126 -0.1106  0.6111 -0.7620
  372MOL0     C51261   7.202  10.326   0.067  0.1447  0.0648 -0.0469
  372MOL0     C51262   7.133  10.396  -0.045 -0.2518  0.5310  0.1772
  372MOL0     C51263   7.071  10.424  -0.146 -0.4419 -0.4960  0.6082
  372MOL0     C51264   7.808  10.512   0.274 -0.1635  0.1985 -0.0879
  372MOL0     C51265   7.917  10.590   0.304 -0.8878 -0.5220  0.0328
  372MOL0     C51266   8.049  10.531   0.297 -0.8740 -0.0338 -0.0111
  372MOL0     H51267   7.953  11.178   0.404 -0.3333 -0.9261  2.0066
  372MOL0     H51268   8.137  11.337   0.406 -0.5956 -0.0981 -0.8369
  372MOL0     H51269   8.296  11.481   0.494  0.6028  1.6748 -0.9465
  372MOL0     H51270   8.373  11.397   0.363  0.1903 -2.7609  0.4551
  372MOL0     H51271   8.592  11.422   0.471 -1.3078 -1.3868  3.3179
  372MOL0     H51272   8.511  11.573   0.422  0.2155 -0.0679 -1.3168
  372MOL0     H51273   8.437  11.593   0.672 -0.5047 -0.0102 -0.7830
  372MOL0     H51274   8.540  11.449   0.705 -0.0561  0.5709 -0.5336
  372MOL0     H51275   8.722  11.588   0.594  1.7309  0.3776  1.8010
  372MOL0     H51276   8.603  11.723   0.621 -2.7559 -0.7624  0.1747
  372MOL0     H51277   8.714  11.546   0.833 -0.1731  0.1314  0.2146
  372MOL0     H51278   8.601  11.674   0.863 -0.9759 -1.7437 -0.4634
  372MOL0     H51279   8.907  11.707   0.793 -0.3802 -0.3582  0.7597
  372MOL0     H51280   8.798  11.838   0.787  0.3788  0.8622  2.3433
  372MOL0     H51281   8.832  11.665   1.029 -2.2500  0.2894 -0.6024
  372MOL0     H51282   8.715  11.798   1.009  0.2316 -0.5143  0.0948
  372MOL0     H51283   9.008  11.853   0.931  0.5880 -0.2712  1.6404
  372MOL0     H51284   8.886  11.971   0.985 -0.6091 -0.0737  1.3104
  372MOL0     H51285   8.820  11.888   1.267 -0.5682 -3.8034  0.5955
  372MOL0     H51286   9.097  11.814   1.532  0.0328  1.3557 -0.2644
  372MOL0     H51287   8.932  11.880   1.533 -0.3587 -0.1601 -0.4597
  372MOL0     H51288   9.027  12.102   1.501  0.9649  0.3347 -2.3471
  372MOL0     H51289   9.081  12.030   1.655 -1.1120  2.8375  0.2096
  372MOL0     H51290   9.292  11.932   1.528 -1.4883 -1.9447 -0.2050
  372MOL0     H51291   9.262  12.057   1.411  2.1848 -0.5586  0.3308
  372MOL0     H51292   9.287  12.233   1.555 -0.7723  0.0583 -0.1727
  372MOL0     H51293   9.288  12.141   1.702 -0.8329  0.6829  0.5588
  372MOL0     H51294   9.718  12.108   1.633  0.1595  0.9474  2.3530
  372MOL0     H51295   9.932  12.164   1.609  2.0056  0.6501 -0.9264
  372MOL0     H51296   9.905  12.301   1.725 -3.4983 -1.9854  0.2787
  372MOL0     H51297   9.988  12.306   1.555  0.3622 -4.2002 -1.7169
  372MOL0     H51298   9.957  12.783   1.511 -1.3196 -3.4312 -0.1857
  372MOL0     H51299  10.153  12.934   1.544 -2.1694  0.1445  1.8118
  372MOL0     H51300  10.400  12.980   1.514  2.6043 -1.2942 -0.4393
  372MOL0     H51301  10.328  13.045   1.678  1.2317  1.9317  0.8105
  372MOL0     H51302  10.519  13.164   1.632 -0.5911 -0.3779 -2.7973
  372MOL0     H51303  10.534  13.063   1.775 -1.7774 -1.2101 -0.3060
  372MOL0     H51304  10.669  13.081   1.509 -1.3108  3.5713  0.9371
  372MOL0     H51305  10.661  12.918   1.584  0.9244 -0.8146  2.1233
  372MOL0     H51306  10.798  12.985   1.770 -0.6061 -0.4890 -0.7860
  372MOL0     H51307  10.784  13.164   1.738  0.2244  0.4973 -2.4484
  372MOL0     H51308  10.934  12.952   1.553  0.7733 -0.4147  0.6729
  372MOL0     H51309  10.918  13.130   1.539  0.2302 -0.1565 -1.3334
  372MOL0     H51310  11.021  12.983   1.796 -0.3850  0.3500  0.8547
  372MOL0     H51311  11.053  13.154   1.751  0.8877 -0.7082  0.3223
  372MOL0     H51312  11.199  13.088   1.562 -0.2005  1.3637  0.1506
  372MOL0     H51313  11.166  12.916   1.603 -0.3776 -0.3324  0.2967
  372MOL0     H51314  11.375  12.970   1.685 -0.3469  1.1409 -0.6689
  372MOL0     H51315  11.262  12.922   1.816 -0.2589  0.4946 -0.1999
  372MOL0     H51316  10.364  12.606   1.724 -0.1144  0.1716  0.8009
  372MOL0     H51317  10.167  12.466   1.690  0.2204 -0.2295 -1.1195
  372MOL0     H51318   9.574  12.540   1.438 -0.6782 -0.3900 -0.1285
  372MOL0     H51319   9.418  12.353   1.440  1.4679  0.3182 -1.2344
  372MOL0     H51320   8.359  11.068   0.665  1.0660  1.6279 -0.2858
  372MOL0     H51321   8.193  10.887   0.612  0.8304 -1.0747 -2.7034
  372MOL0     H51322   7.735  10.873   0.392 -0.1442  0.2018 -1.4334
  372MOL0     H51323   7.554  10.719   0.318  0.7633  0.6467 -1.1239
  372MOL0     H51324   7.646  10.417   0.076 -2.1585  1.5260 -2.9533
  372MOL0     H51325   7.565  10.314   0.196 -1.0571  1.3146  3.3272
  372MOL0     H51326   7.451  10.322  -0.003  1.1626  0.4109 -0.5031
  372MOL0     H51327   7.435  10.501  -0.019 -3.7727 -0.1403  0.2071
  372MOL0     H51328   7.330  10.365   0.221 -1.3120  0.1600 -0.6965
  372MOL0     H51329   7.270  10.512   0.154  1.2058  0.3159  2.4609
  372MOL0     H51330   7.126  10.313   0.144 -1.6098  0.3203 -1.6623
  372MOL0     H51331   7.241  10.226   0.049 -2.0152 -0.8641  0.1743
  372MOL0     H51332   7.033  10.443  -0.244 -1.1998 -0.6264  0.8680
  372MOL0     H51333   7.824  10.408   0.250 -2.2564  0.2400 -1.9645
  372MOL0     H51334   8.032  10.440   0.238 -1.5786  0.9465 -1.3621
  372MOL0     H51335   8.122  10.591   0.243  0.5734  0.0210  1.9005
  372MOL0     H51336   8.092  10.508   0.395 -0.6977 -0.2460 -0.1384
  373MOL0     O51337  11.021   0.509   2.222  0.1093  0.5881 -0.1225
  373MOL0     C51338  11.076   0.499   2.110  0.3679 -0.1050  0.3100
  373MOL0     O51339  11.100   0.381   2.051  1.0413  0.6317  0.4260
  373MOL0     C51340  11.179   0.370   1.936 -0.1859  0.2451  0.0920
  373MOL0     C51341  11.316   0.350   1.941 -0.0421  0.0117  0.4542
  373MOL0     C51342  11.394   0.335   1.823  0.5258  0.2317  0.5537
  373MOL0     C51343  11.322   0.331   1.696  0.0625 -0.5926  0.2901
  373MOL0     O51344  11.395   0.298   1.582  0.7789  0.1827 -0.9260
  373MOL0     C51345  11.374   0.390   1.472  0.0911  0.1918 -0.1313
  373MOL0     C51346  11.476   0.370   1.359 -0.0587 -0.5120 -0.0658
  373MOL0     C51347  11.617   0.358   1.422 -0.1688  0.8157  0.1806
  373MOL0     C51348  11.724   0.334   1.306 -0.4166 -0.3092 -0.0696
  373MOL0     C51349  11.865   0.322   1.362  0.0901 -0.2482 -0.3675
  373MOL0     C51350  11.965   0.284   1.251  0.6708 -0.3770  0.0250
  373MOL0     C51351  12.114   0.319   1.271  0.3563 -0.0750 -0.4940
  373MOL0     C51352  12.207   0.238   1.171 -0.2374  0.0481 -0.3783
  373MOL0     N51353  12.348   0.254   1.197  0.1901  0.8410 -0.5029
  373MOL0     C51354  12.440   0.302   1.115  0.2923  0.1360 -0.1020
  373MOL0     C51355  12.554   0.313   1.179 -0.2185 -0.0057 -0.2095
  373MOL0     C51356  12.684   0.367   1.122 -0.1713 -0.2413  0.4203
  373MOL0     C51357  12.777   0.261   1.066 -0.0002  0.1719 -0.5119
  373MOL0     C51358  12.923   0.306   1.049 -0.6109 -0.8519 -0.5400
  373MOL0     C51359  12.996   0.372   1.169  0.7691  0.2590 -0.2785
  373MOL0     O51360  13.135   0.366   1.137 -0.3368 -0.0823 -0.4016
  373MOL0     C51361  13.219   0.405   1.240  0.3365  0.3846  1.1506
  373MOL0     C51362  13.204   0.510   1.340 -0.6604 -0.5665  0.4965
  373MOL0     C51363  13.296   0.529   1.450 -0.3507 -0.7674  0.2763
  373MOL0     C51364  13.250   0.636   1.543 -0.3505 -0.0188 -1.5511
  373MOL0     C51365  13.420   0.461   1.453  0.2251  0.1366 -0.5382
  373MOL0     C51366  13.536   0.488   1.543  0.5827 -0.5644  0.0162
  373MOL0     O51367  13.655   0.426   1.514 -0.6270 -0.4602 -0.3945
  373MOL0     C51368  13.771   0.473   1.572 -0.6550 -0.1199  0.5280
  373MOL0     C51369  13.794   0.610   1.610 -0.3724 -1.1816 -0.4408
  373MOL0     C51370  13.916   0.646   1.671 -0.2868 -0.6656 -1.2379
  373MOL0     C51371  14.020   0.552   1.692  1.3274 -0.0094  0.3070
  373MOL0     O51372  14.141   0.581   1.746 -0.5138  0.2281 -0.2325
  373MOL0     C51373  14.188   0.719   1.750 -0.1723  0.1396 -0.5172
  373MOL0     C51374  14.281   0.729   1.861 -0.4771  0.6063 -0.3974
  373MOL0     C51375  14.394   0.622   1.888  0.0048 -0.6193  0.7671
  373MOL0     C51376  14.499   0.596   1.778 -0.1678 -0.2756  0.3684
  373MOL0     C51377  14.585   0.464   1.786 -0.6466 -0.1093  0.4290
  373MOL0     C51378  14.695   0.464   1.895 -0.2724 -0.6029 -0.2843
  373MOL0     C51379  14.792   0.336   1.883 -0.0975 -0.6336 -0.5847
  373MOL0     C51380  14.914   0.354   1.977 -0.0878  0.2142  0.6350
  373MOL0    Cl51381  15.015   0.200   1.977  0.0361 -0.3003  0.3852
  373MOL0     C51382  13.990   0.418   1.665 -0.5514  0.0808 -0.6417
  373MOL0     C51383  13.873   0.378   1.602  0.6260 -0.1561  0.6145
  373MOL0     O51384  13.521   0.571   1.633  0.3873  0.0312  0.1296
  373MOL0     C51385  13.431   0.367   1.345 -0.0556  0.3672  0.0803
  373MOL0     C51386  13.337   0.333   1.248  1.2027  0.0685 -0.5279
  373MOL0     N51387  12.533   0.268   1.308 -0.1273  0.2432 -0.1383
  373MOL0     N51388  12.412   0.230   1.317 -0.9426  0.1659  0.1455
  373MOL0     C51389  11.185   0.361   1.693  0.7614 -0.4888 -0.5655
  373MOL0     C51390  11.108   0.365   1.818 -0.1686 -0.4834 -0.2965
  373MOL0     C51391  11.142   0.625   2.071 -0.1082  0.5458 -0.8303
  373MOL0     C51392  11.270   0.642   2.115 -0.1597 -0.4711 -0.1967
  373MOL0     C51393  11.343   0.762   2.086  1.1927  0.9146 -0.3442
  373MOL0     C51394  11.284   0.866   2.007 -0.2427  0.7845 -0.2703
  373MOL0     O51395  11.322   0.994   1.988 -0.6613  0.1815  0.2722
  373MOL0     C51396  11.440   1.043   2.056 -0.6040  0.1920  0.5175
  373MOL0     C51397  11.570   1.012   1.985 -0.1858  0.1340 -0.2155
  373MOL0     C51398  11.678   0.993   2.098 -0.0350 -0.0480 -0.2640
  373MOL0     C51399  11.817   0.973   2.046 -0.0963 -0.4714 -0.0839
  373MOL0     C51400  11.920   0.935   2.146  0.5102  0.1990  0.0881
  373MOL0     C51401  12.012   0.914   2.223 -0.2125 -1.0992 -0.1669
  373MOL0     C51402  11.156   0.832   1.952  0.1299 -0.9898  0.3615
  373MOL0     C51403  11.085   0.715   1.987  0.2720 -0.4799  0.5633
  373MOL0     C51404  10.949   0.703   1.931 -0.0523  0.0784 -0.1679
  373MOL0     H51405  11.361   0.375   2.036 -0.1704 -2.1364  1.1372
  373MOL0     H51406  11.499   0.308   1.817 -0.0221 -1.7285 -1.7569
  373MOL0     H51407  11.388   0.492   1.508 -1.2819  0.7825 -1.1788
  373MOL0     H51408  11.272   0.370   1.439  0.6264 -2.6266 -0.3629
  373MOL0     H51409  11.452   0.286   1.294 -1.8187  0.4922 -0.7546
  373MOL0     H51410  11.481   0.460   1.297  2.3447 -1.0676 -0.7915
  373MOL0     H51411  11.646   0.441   1.487 -2.3347  1.2191  0.7158
  373MOL0     H51412  11.627   0.278   1.496  1.8381  1.0298  0.1942
  373MOL0     H51413  11.687   0.240   1.264 -2.6878  0.3775  0.2357
  373MOL0     H51414  11.731   0.411   1.229 -0.4572  2.7418  2.7853
  373MOL0     H51415  11.876   0.251   1.445 -0.5736 -0.2497 -0.2746
  373MOL0     H51416  11.881   0.424   1.397  0.0853 -0.6427  0.8384
  373MOL0     H51417  11.963   0.176   1.232 -1.0955  0.1607 -3.9150
  373MOL0     H51418  11.936   0.335   1.159 -1.8637 -0.9037  0.4338
  373MOL0     H51419  12.135   0.281   1.371 -0.5563 -3.6393 -1.5065
  373MOL0     H51420  12.129   0.428   1.270 -1.6860  0.2455 -0.5846
  373MOL0     H51421  12.184   0.131   1.183 -1.8845  0.5464  1.4890
  373MOL0     H51422  12.195   0.264   1.065  1.7701  0.5121 -0.5279
  373MOL0     H51423  12.414   0.334   1.015 -1.8250  0.3024  0.4501
  373MOL0     H51424  12.730   0.428   1.200 -2.8901  1.6932  0.6424
  373MOL0     H51425  12.665   0.438   1.041 -0.6631 -0.3988  0.3963
  373MOL0     H51426  12.783   0.179   1.139  1.0690  0.3600 -0.3880
  373MOL0     H51427  12.747   0.224   0.967 -1.2669 -2.8336  0.8470
  373MOL0     H51428  12.987   0.223   1.018  0.7948  0.9179 -2.6802
  373MOL0     H51429  12.923   0.386   0.975 -1.1088  0.8027  1.1526
  373MOL0     H51430  12.961   0.475   1.173 -2.5895 -0.6986 -1.3477
  373MOL0     H51431  12.973   0.311   1.257  0.1934 -0.2576 -0.7628
  373MOL0     H51432  13.111   0.567   1.336  0.3758  1.4795  2.9079
  373MOL0     H51433  13.171   0.697   1.499  1.2961  0.9735 -3.2650
  373MOL0     H51434  13.332   0.706   1.560 -0.6400  0.3275 -1.5805
  373MOL0     H51435  13.229   0.581   1.635 -1.3339 -2.0182 -2.8961
  373MOL0     H51436  13.731   0.689   1.571  2.4702  1.1673 -0.7086
  373MOL0     H51437  13.949   0.747   1.694  2.1101 -1.4457 -0.8696
  373MOL0     H51438  14.249   0.734   1.660  1.5037 -1.9459  0.1960
  373MOL0     H51439  14.123   0.807   1.755  0.4352  0.6486 -1.2378
  373MOL0     H51440  14.333   0.826   1.862  0.6892  0.0065 -0.9421
  373MOL0     H51441  14.223   0.722   1.954  0.5743  1.8048  0.3997
  373MOL0     H51442  14.352   0.525   1.916  1.1842 -0.9193  1.5787
  373MOL0     H51443  14.453   0.644   1.977  2.3224 -2.0343 -0.3263
  373MOL0     H51444  14.567   0.680   1.769 -0.2653 -0.2336 -0.0184
  373MOL0     H51445  14.447   0.601   1.681 -3.3898 -2.8915  1.7577
  373MOL0     H51446  14.520   0.378   1.803  0.0185 -0.6053  0.5338
  373MOL0     H51447  14.629   0.447   1.687 -1.2190  2.2038 -0.2664
  373MOL0     H51448  14.636   0.467   1.987 -1.1618  0.6223 -0.8625
  373MOL0     H51449  14.750   0.559   1.889 -1.2754  0.2017  2.0698
  373MOL0     H51450  14.836   0.323   1.784  1.7476  0.5238  0.0283
  373MOL0     H51451  14.745   0.242   1.914  0.7814 -0.9004 -0.0488
  373MOL0     H51452  14.886   0.390   2.076 -0.5802  1.8553 -0.0592
  373MOL0     H51453  14.976   0.432   1.931  0.3034  0.7239  1.9748
  373MOL0     H51454  14.057   0.335   1.685 -0.2436 -0.3174 -3.0757
  373MOL0     H51455  13.861   0.271   1.584  0.5240 -0.0232 -0.1141
  373MOL0     H51456  13.526   0.315   1.343  0.8814  2.0221 -0.1058
  373MOL0     H51457  13.356   0.255   1.176  2.1160  0.3662 -0.6213
  373MOL0     H51458  11.126   0.374   1.603 -1.6740 -3.7991  0.3769
  373MOL0     H51459  11.003   0.391   1.812  0.4654  2.0708 -1.5433
  373MOL0     H51460  11.315   0.564   2.175  0.6573 -0.5447 -0.8728
  373MOL0     H51461  11.442   0.768   2.129  0.8603  0.5083  0.5021
  373MOL0     H51462  11.433   1.148   2.084 -1.6263  0.1902  0.3239
  373MOL0     H51463  11.444   0.985   2.148  2.1167 -0.7803 -0.1274
  373MOL0     H51464  11.598   1.103   1.931  1.4773  0.3500  0.9425
  373MOL0     H51465  11.563   0.938   1.905 -0.8968  3.0285 -3.0457
  373MOL0     H51466  11.683   1.079   2.166  1.8050  0.0034 -0.4103
  373MOL0     H51467  11.647   0.905   2.155 -1.4379 -0.1254 -1.1177
  373MOL0     H51468  11.849   1.058   1.985 -1.8799 -0.6580 -1.3346
  373MOL0     H51469  11.815   0.886   1.980  2.1803  0.6090 -1.7416
  373MOL0     H51470  12.099   0.928   2.284 -0.4990  2.3286 -0.3951
  373MOL0     H51471  11.109   0.915   1.901  2.9910  0.2174 -0.4920
  373MOL0     H51472  10.944   0.623   1.856 -1.2131 -0.5519  0.5507
  373MOL0     H51473  10.881   0.678   2.013  1.0492 -1.7403  0.2425
  373MOL0     H51474  10.922   0.800   1.887 -0.1285  0.1239 -0.0209
  374MOL0     O51475   2.274   3.910   1.954  0.3248 -0.3361 -0.1205
  374MOL0     C51476   2.281   3.949   1.841  0.6876  0.0998  0.4623
  374MOL0     O51477   2.395   3.960   1.775 -0.1578  0.5281 -0.1596
  374MOL0     C51478   2.513   3.936   1.843  0.1075  0.1210 -0.3949
  374MOL0     C51479   2.537   3.814   1.899  0.5873 -0.3929 -0.0536
  374MOL0     C51480   2.660   3.783   1.946  0.5890  0.6088  0.0334
  374MOL0     C51481   2.759   3.871   1.948 -0.6899 -0.3400  0.4619
  374MOL0     O51482   2.877   3.839   2.005 -0.1812  0.3041 -0.3528
  374MOL0     C51483   2.883   3.832   2.147  0.0975  0.5503 -0.0936
  374MOL0     C51484   2.863   3.687   2.195  0.6546  0.0171  0.9055
  374MOL0     C51485   2.954   3.581   2.138 -0.4700 -0.1494 -0.3956
  374MOL0     C51486   3.098   3.592   2.179  0.7157 -0.2779  0.2127
  374MOL0     C51487   3.183   3.511   2.078  0.1509 -0.1971 -0.2942
  374MOL0     C51488   3.151   3.369   2.050  0.1554 -0.8676  0.5136
  374MOL0     C51489   3.243   3.300   1.954 -0.6511  0.2079  0.5052
  374MOL0     C51490   3.378   3.280   2.017  0.7921 -0.3298  0.6994
  374MOL0     N51491   3.479   3.225   1.920  1.2850  0.4667 -0.8956
  374MOL0     C51492   3.495   3.090   1.885  0.0170 -0.5774 -0.0672
  374MOL0     C51493   3.610   3.100   1.809  0.0229 -0.0749 -0.4924
  374MOL0     C51494   3.698   2.994   1.754 -0.0437  0.4690  0.7172
  374MOL0     C51495   3.709   2.879   1.863 -0.0008 -0.0382 -0.5708
  374MOL0     C51496   3.791   2.929   1.985 -0.2276  0.4563  0.9185
  374MOL0     C51497   3.806   2.838   2.109 -0.2165 -0.6595  0.9127
  374MOL0     O51498   3.676   2.790   2.161 -0.4658 -0.4371  0.6311
  374MOL0     C51499   3.610   2.889   2.230 -0.6857  0.6760  0.5758
  374MOL0     C51500   3.664   2.914   2.354  0.9632  0.4319 -0.3229
  374MOL0     C51501   3.589   2.977   2.448  0.5082  0.3892  0.6030
  374MOL0     C51502   3.630   2.978   2.586 -0.4464 -0.1779 -0.1415
  374MOL0     C51503   3.460   3.033   2.406 -0.9019  0.4058  0.6286
  374MOL0     C51504   3.361   3.102   2.492 -0.5606  0.0063  0.0899
  374MOL0     O51505   3.403   3.170   2.600 -0.0760 -0.6806 -0.0697
  374MOL0     C51506   3.296   3.232   2.666 -0.4784 -0.2691  0.5454
  374MOL0     C51507   3.230   3.339   2.613  0.1106  0.6544 -0.3513
  374MOL0     C51508   3.121   3.395   2.672  0.0592  1.1518 -0.0072
  374MOL0     C51509   3.085   3.354   2.808  0.7789  0.4326 -0.1130
  374MOL0     O51510   2.973   3.409   2.870  0.3106  0.2698  0.5112
  374MOL0     C51511   2.880   3.323   2.930  0.1209  0.2042  0.3293
  374MOL0     C51512   2.891   3.342   3.077 -0.1820  0.3758 -0.3640
  374MOL0     C51513   2.783   3.252   3.154  0.3080  0.6629 -0.0602
  374MOL0     C51514   2.781   3.299   3.299  0.2140 -0.2850  1.7113
  374MOL0     C51515   2.680   3.214   3.373 -0.2736  0.5147  0.2440
  374MOL0     C51516   2.541   3.267   3.343 -0.2590  0.4260 -0.5746
  374MOL0     C51517   2.443   3.210   3.449  0.2788 -0.1386  0.1537
  374MOL0     C51518   2.293   3.237   3.402 -0.4564  0.2719  0.0730
  374MOL0    Cl51519   2.266   3.414   3.391 -0.4588  0.3341  0.2838
  374MOL0     C51520   3.162   3.243   2.856  0.4776  0.3281  0.6296
  374MOL0     C51521   3.270   3.178   2.788  0.1896  0.1817 -0.1560
  374MOL0     O51522   3.250   3.104   2.440  0.3947  0.7158 -0.3398
  374MOL0     C51523   3.424   3.014   2.274  0.2342  0.8784 -0.5529
  374MOL0     C51524   3.495   2.936   2.185 -0.0333  0.5781 -0.6307
  374MOL0     N51525   3.650   3.237   1.803  0.3428  0.7027 -0.7137
  374MOL0     N51526   3.569   3.310   1.875  0.2239  0.4090 -0.6233
  374MOL0     C51527   2.747   3.988   1.883  0.8862  0.1465 -0.1195
  374MOL0     C51528   2.623   4.021   1.831 -0.1193 -0.3894  1.4709
  374MOL0     C51529   2.150   3.982   1.774 -0.0768 -0.9638 -0.8338
  374MOL0     C51530   2.039   4.023   1.852  0.2469 -0.3306 -0.4989
  374MOL0     C51531   1.914   4.046   1.802 -0.1100  0.6909 -0.9677
  374MOL0     C51532   1.892   4.039   1.667  0.4577  0.3515  0.1081
  374MOL0     O51533   1.785   4.049   1.593  0.2995  0.2538 -0.2667
  374MOL0     C51534   1.669   4.098   1.659  0.6382  0.5715  0.4161
  374MOL0     C51535   1.647   4.235   1.618 -0.0042 -0.0514 -0.2058
  374MOL0     C51536   1.718   4.337   1.701 -0.1008 -0.4638  0.0446
  374MOL0     C51537   1.725   4.474   1.634 -0.1843 -0.2249 -0.0641
  374MOL0     C51538   1.823   4.565   1.711  0.5225  0.6830  0.2763
  374MOL0     C51539   1.907   4.639   1.760  0.1257 -0.4246 -1.0478
  374MOL0     C51540   1.997   4.007   1.580 -0.7565 -0.6335 -0.6721
  374MOL0     C51541   2.131   3.977   1.632 -0.2898 -0.6567 -0.1211
  374MOL0     C51542   2.248   3.947   1.539 -0.2147 -0.6752  0.4939
  374MOL0     H51543   2.460   3.737   1.905  2.3351 -2.1025  2.3009
  374MOL0     H51544   2.676   3.683   1.986  0.3647  1.3855  2.2058
  374MOL0     H51545   2.803   3.890   2.194 -2.1679 -1.6611 -0.9785
  374MOL0     H51546   2.981   3.865   2.182  0.4075  1.6380 -1.8841
  374MOL0     H51547   2.864   3.675   2.304 -0.6055 -4.9257  0.5972
  374MOL0     H51548   2.762   3.655   2.169  0.8393  1.2098 -1.6008
  374MOL0     H51549   2.919   3.479   2.154  0.2296 -0.6767 -1.9978
  374MOL0     H51550   2.945   3.595   2.030 -1.7883  1.6906 -0.1011
  374MOL0     H51551   3.134   3.695   2.183  2.1020 -0.6379 -1.4922
  374MOL0     H51552   3.128   3.557   2.278  0.1658  0.8746  0.8046
  374MOL0     H51553   3.285   3.536   2.109 -0.1756  1.2041 -0.2798
  374MOL0     H51554   3.181   3.563   1.982  1.9517  1.6648  0.5782
  374MOL0     H51555   3.160   3.310   2.142 -1.4912  0.3116  1.4744
  374MOL0     H51556   3.050   3.363   2.007 -0.2583 -0.8853  1.4618
  374MOL0     H51557   3.247   3.364   1.865  0.1538 -2.6821 -1.7192
  374MOL0     H51558   3.205   3.199   1.932  0.0769 -0.4485  2.1365
  374MOL0     H51559   3.426   3.374   2.046 -1.5396  1.2990 -0.3677
  374MOL0     H51560   3.360   3.218   2.105  0.3026  2.7618  2.9243
  374MOL0     H51561   3.428   3.007   1.904  1.2607 -1.5065  0.3520
  374MOL0     H51562   3.793   3.037   1.722 -0.7374  2.5130  1.2456
  374MOL0     H51563   3.661   2.945   1.663  3.5300 -1.9566  0.3889
  374MOL0     H51564   3.612   2.857   1.908  0.8009 -0.6266  0.9542
  374MOL0     H51565   3.743   2.786   1.818 -1.1854 -1.9097  2.1171
  374MOL0     H51566   3.893   2.941   1.945 -0.5871 -2.4832 -1.1532
  374MOL0     H51567   3.761   3.029   2.018 -0.3169  0.6978  0.1198
  374MOL0     H51568   3.851   2.742   2.085 -1.0071 -1.2816  1.8421
  374MOL0     H51569   3.865   2.889   2.185 -0.1632  2.3738 -0.9665
  374MOL0     H51570   3.766   2.889   2.382  0.9956  0.6074 -0.2841
  374MOL0     H51571   3.649   3.076   2.632  0.5270  1.2336 -3.2916
  374MOL0     H51572   3.725   2.924   2.592  0.1793  1.0339  2.2703
  374MOL0     H51573   3.564   2.922   2.653 -0.0890 -1.0369 -0.5058
  374MOL0     H51574   3.254   3.389   2.520 -1.1957  2.9885  0.4667
  374MOL0     H51575   3.076   3.477   2.617  1.1476  1.0540 -1.0600
  374MOL0     H51576   2.775   3.336   2.900  0.2395 -1.1429 -0.7711
  374MOL0     H51577   2.907   3.220   2.904  2.8318  0.5853  1.3528
  374MOL0     H51578   2.989   3.313   3.117 -1.3065  0.5942  2.8201
  374MOL0     H51579   2.883   3.450   3.093 -0.6202  0.5945 -1.9008
  374MOL0     H51580   2.813   3.147   3.147  0.5488  0.5929  1.5959
  374MOL0     H51581   2.685   3.261   3.107 -0.5557 -0.2980  1.4635
  374MOL0     H51582   2.757   3.406   3.297 -1.6906 -0.5860 -2.2051
  374MOL0     H51583   2.878   3.284   3.347  0.6614 -0.0018  0.9147
  374MOL0     H51584   2.700   3.111   3.341 -2.3955  0.2203 -0.2620
  374MOL0     H51585   2.700   3.227   3.479  1.1757 -0.9427  0.1928
  374MOL0     H51586   2.505   3.236   3.245 -4.7151 -1.5367  1.3722
  374MOL0     H51587   2.546   3.377   3.346  0.9369  0.3767 -0.2902
  374MOL0     H51588   2.461   3.255   3.547 -1.0669  0.3757  0.1799
  374MOL0     H51589   2.462   3.103   3.466 -0.5731 -0.8227 -2.6765
  374MOL0     H51590   2.223   3.197   3.477 -1.1016 -3.3714 -2.2162
  374MOL0     H51591   2.266   3.196   3.304 -0.7725 -0.5390  0.4880
  374MOL0     H51592   3.129   3.205   2.952  0.7137  2.2799  1.5215
  374MOL0     H51593   3.326   3.098   2.833  0.0929  1.3429  2.1857
  374MOL0     H51594   3.326   3.050   2.242 -2.1963 -2.4054  2.3363
  374MOL0     H51595   3.460   2.901   2.088 -0.1974 -0.4647 -0.2067
  374MOL0     H51596   2.832   4.051   1.862  1.7682 -1.1558 -0.5984
  374MOL0     H51597   2.618   4.122   1.790  0.7516 -1.1920 -0.7400
  374MOL0     H51598   2.055   4.020   1.960  1.9849 -1.9469 -0.7473
  374MOL0     H51599   1.830   4.066   1.868 -1.0832 -2.1957 -1.1993
  374MOL0     H51600   1.590   4.043   1.606  1.7683 -1.3634  0.6304
  374MOL0     H51601   1.662   4.079   1.767  1.6621  1.0082  0.5705
  374MOL0     H51602   1.538   4.244   1.622 -0.3324 -1.8423 -2.9127
  374MOL0     H51603   1.650   4.247   1.510  1.0713 -0.0510 -0.1839
  374MOL0     H51604   1.667   4.356   1.796 -0.7140  1.5901 -0.6322
  374MOL0     H51605   1.821   4.318   1.732  0.5636  2.3089 -0.1833
  374MOL0     H51606   1.628   4.525   1.633  1.1033  2.3800 -0.0621
  374MOL0     H51607   1.753   4.463   1.529 -2.0218  1.7431 -0.8351
  374MOL0     H51608   1.987   4.705   1.786  1.8364 -1.6247 -2.9414
  374MOL0     H51609   1.976   4.001   1.474 -2.2467 -1.5848 -0.3588
  374MOL0     H51610   2.304   4.040   1.537 -0.2828 -0.6195  1.0559
  374MOL0     H51611   2.310   3.864   1.575  0.0476 -0.4869  0.4778
  374MOL0     H51612   2.227   3.926   1.434  2.8585  5.1305 -1.7030
  375MOL0     O51613   5.016   8.426  10.423 -0.6387  0.2583 -0.5183
  375MOL0     C51614   4.933   8.381  10.505  0.1299 -0.1388  0.1711
  375MOL0     O51615   4.947   8.271  10.584 -0.4915 -0.5412  0.4429
  375MOL0     C51616   5.077   8.230  10.615 -0.2321 -0.4822  0.1746
  375MOL0     C51617   5.171   8.308  10.674  0.4272 -0.0881  0.3826
  375MOL0     C51618   5.309   8.269  10.671  0.5216 -0.3515  0.3248
  375MOL0     C51619   5.338   8.141  10.620 -1.3310  0.0686 -0.2850
  375MOL0     O51620   5.470   8.109  10.620 -0.4774 -0.1243  0.0014
  375MOL0     C51621   5.510   7.968  10.597 -0.2453 -1.2479  0.0972
  375MOL0     C51622   5.658   7.938  10.614 -0.3324  0.8665 -0.3133
  375MOL0     C51623   5.707   7.792  10.578 -0.5936  0.2935  0.5966
  375MOL0     C51624   5.665   7.685  10.689 -0.7626  0.5361  0.5410
  375MOL0     C51625   5.721   7.716  10.831 -0.4493  0.8546 -0.2581
  375MOL0     C51626   5.866   7.739  10.843 -0.5202 -0.4610  0.5990
  375MOL0     C51627   5.949   7.619  10.805 -0.3329 -0.1076 -0.6580
  375MOL0     C51628   6.101   7.651  10.816  0.8813  0.1880  0.6093
  375MOL0     N51629   6.150   7.667  10.953 -1.0432 -0.5422  0.2760
  375MOL0     C51630   6.134   7.791  11.014  0.3935  0.1008  0.9705
  375MOL0     C51631   6.214   7.777  11.122  0.7053 -0.9099  0.1350
  375MOL0     C51632   6.236   7.882  11.217 -0.5522  0.3571 -0.1011
  375MOL0     C51633   6.251   7.817  11.352 -0.0340  0.0928  0.0844
  375MOL0     C51634   6.240   7.911  11.477 -0.5409  0.6021  0.5482
  375MOL0     C51635   6.385   7.970  11.501  0.7321 -0.9659 -0.3149
  375MOL0     O51636   6.372   8.060  11.611 -0.4849  0.7252  0.0564
  375MOL0     C51637   6.485   8.115  11.672 -0.6106 -0.4580  0.0050
  375MOL0     C51638   6.471   8.229  11.754 -0.1993  0.1671  0.0430
  375MOL0     C51639   6.584   8.301  11.814  0.2009 -0.0332 -0.2648
  375MOL0     C51640   6.530   8.425  11.886  0.3437 -0.0936  1.0509
  375MOL0     C51641   6.714   8.244  11.801  1.1877  0.5090  0.8412
  375MOL0     C51642   6.822   8.295  11.880 -0.1053 -0.5427  0.5590
  375MOL0     O51643   6.938   8.233  11.860 -0.3597  0.5581 -0.2161
  375MOL0     C51644   7.045   8.270  11.948 -0.1020 -0.0410 -0.9751
  375MOL0     C51645   7.137   8.368  11.917  0.0554 -1.0868  0.4229
  375MOL0     C51646   7.240   8.402  12.002  0.4766 -0.9828  0.0172
  375MOL0     C51647   7.255   8.347  12.125 -0.6451  0.3079  0.0562
  375MOL0     O51648   7.360   8.396  12.202 -0.1422  0.2718 -0.0888
  375MOL0     C51649   7.312   8.488  12.301  0.2054 -0.3746 -0.2276
  375MOL0     C51650   7.403   8.520  12.427 -0.1251 -0.1085 -0.5636
  375MOL0     C51651   7.541   8.569  12.381 -0.0521 -0.2116 -0.4992
  375MOL0     C51652   7.610   8.651  12.483  0.1201 -0.0161  0.9526
  375MOL0     C51653   7.724   8.725  12.411  0.4851  1.1125  0.4254
  375MOL0     C51654   7.837   8.642  12.352 -0.1947 -0.1660 -0.0326
  375MOL0     C51655   7.949   8.742  12.310 -1.2337  0.2837 -0.0995
  375MOL0     C51656   7.904   8.848  12.214  0.7368  0.0231 -0.6335
  375MOL0    Cl51657   8.044   8.940  12.148 -0.0750  0.0164  0.1497
  375MOL0     C51658   7.182   8.233  12.151  0.5988  0.7874 -0.5790
  375MOL0     C51659   7.074   8.198  12.073  0.1208 -0.4587  0.8200
  375MOL0     O51660   6.804   8.383  11.964  0.8026 -0.0833  0.5793
  375MOL0     C51661   6.729   8.132  11.726 -0.1516  0.8796  1.0208
  375MOL0     C51662   6.615   8.063  11.664 -0.9606 -0.2866  0.3448
  375MOL0     N51663   6.274   7.647  11.119  0.5969  0.0081  0.1839
  375MOL0     N51664   6.234   7.582  11.019  0.1090  0.2971 -0.2708
  375MOL0     C51665   5.236   8.061  10.563  0.5336  0.1186 -0.4546
  375MOL0     C51666   5.103   8.106  10.570  0.2143  0.2710 -0.6046
  375MOL0     C51667   4.791   8.437  10.502  0.5249  0.8979 -0.5915
  375MOL0     C51668   4.682   8.366  10.560 -0.2642 -0.4227 -0.7769
  375MOL0     C51669   4.551   8.415  10.557 -0.1824  0.1710 -0.0615
  375MOL0     C51670   4.520   8.534  10.491  0.9938 -0.7606  0.9692
  375MOL0     O51671   4.392   8.589  10.479 -1.4846  0.0686  0.2792
  375MOL0     C51672   4.276   8.512  10.515  0.4180  0.2805 -0.0919
  375MOL0     C51673   4.167   8.613  10.546  0.1314  0.2725  0.3827
  375MOL0     C51674   4.025   8.557  10.538  0.7579 -0.3601  0.4719
  375MOL0     C51675   3.917   8.664  10.554 -0.8254  0.0892  0.5665
  375MOL0     C51676   3.918   8.736  10.424  0.4847  0.3542 -0.0866
  375MOL0     C51677   3.913   8.819  10.333  0.4728  0.5399 -0.2893
  375MOL0     C51678   4.621   8.606  10.431 -0.8720  0.3574 -0.5034
  375MOL0     C51679   4.759   8.562  10.436 -0.4911 -0.0349  0.0004
  375MOL0     C51680   4.853   8.645  10.357 -0.3361  0.3159 -0.2390
  375MOL0     H51681   5.149   8.410  10.702 -0.2733 -0.0873 -0.1645
  375MOL0     H51682   5.393   8.329  10.705 -1.0008  2.7120 -0.8636
  375MOL0     H51683   5.473   7.951  10.496  0.0361  0.5997 -0.3511
  375MOL0     H51684   5.455   7.898  10.662 -1.0295 -1.2756 -0.5841
  375MOL0     H51685   5.724   8.010  10.564  1.4161  1.0436  2.0660
  375MOL0     H51686   5.674   7.962  10.720  0.1022 -0.7483  0.0029
  375MOL0     H51687   5.678   7.767  10.476 -0.1315 -0.4210  0.6320
  375MOL0     H51688   5.816   7.781  10.572 -0.6324  0.8303 -3.5773
  375MOL0     H51689   5.556   7.677  10.694 -0.6605 -0.3349  4.2258
  375MOL0     H51690   5.699   7.586  10.657 -0.6131  1.0049 -0.8106
  375MOL0     H51691   5.702   7.627  10.892 -0.7990  0.1041 -1.4219
  375MOL0     H51692   5.664   7.799  10.874 -1.1509 -0.3574  1.2361
  375MOL0     H51693   5.880   7.822  10.772 -1.8534 -0.7344 -0.0116
  375MOL0     H51694   5.890   7.779  10.942 -1.2787 -0.6302  0.8552
  375MOL0     H51695   5.933   7.599  10.698 -0.3685 -0.1506 -0.6443
  375MOL0     H51696   5.919   7.533  10.864  3.5696  0.5128  2.6565
  375MOL0     H51697   6.149   7.567  10.764 -1.4493 -1.1043  0.3959
  375MOL0     H51698   6.129   7.743  10.764 -0.7843 -1.5014 -3.7061
  375MOL0     H51699   6.070   7.874  10.986 -0.1239 -0.4039  0.6364
  375MOL0     H51700   6.151   7.952  11.216 -0.4334  0.5323  0.9408
  375MOL0     H51701   6.325   7.935  11.184 -1.6611  1.0140 -2.2860
  375MOL0     H51702   6.168   7.746  11.363  3.1768 -3.9319  0.9222
  375MOL0     H51703   6.336   7.748  11.361  0.1019  0.2066 -0.3537
  375MOL0     H51704   6.173   7.997  11.463 -0.6188  0.5995  0.8948
  375MOL0     H51705   6.204   7.860  11.566  0.0296  0.6709  0.8247
  375MOL0     H51706   6.459   7.892  11.520  1.4959 -0.3826 -0.8733
  375MOL0     H51707   6.419   8.026  11.414  0.4604  0.1552  0.2860
  375MOL0     H51708   6.367   8.260  11.767 -0.1940  0.1636  0.0946
  375MOL0     H51709   6.595   8.512  11.894 -1.8116  1.7271  0.1429
  375MOL0     H51710   6.512   8.380  11.984  0.1277 -1.8205  0.2689
  375MOL0     H51711   6.433   8.458  11.847  0.2387  0.6440  1.9129
  375MOL0     H51712   7.124   8.412  11.818 -2.0804 -3.0658 -0.2858
  375MOL0     H51713   7.314   8.480  11.987  1.0100 -1.0066  2.1677
  375MOL0     H51714   7.286   8.586  12.259  0.6189  0.5949  1.6704
  375MOL0     H51715   7.216   8.449  12.336  0.5373  1.1125  2.6325
  375MOL0     H51716   7.352   8.580  12.503 -0.0981 -1.7523  0.8217
  375MOL0     H51717   7.408   8.426  12.482 -0.5048 -0.5648 -1.2944
  375MOL0     H51718   7.527   8.633  12.294  1.4121 -0.3085 -0.8331
  375MOL0     H51719   7.598   8.479  12.355 -1.2226 -1.1339  0.0027
  375MOL0     H51720   7.641   8.592  12.570 -1.7561 -0.9468  1.0562
  375MOL0     H51721   7.544   8.724  12.532 -0.1911  0.3499  0.0152
  375MOL0     H51722   7.677   8.776  12.326  0.6313  0.8786  0.2008
  375MOL0     H51723   7.760   8.800  12.482 -0.7852 -0.1007  2.4443
  375MOL0     H51724   7.804   8.591  12.260 -0.4803  1.5605 -0.9343
  375MOL0     H51725   7.875   8.560  12.413  0.2519  0.8073  1.0480
  375MOL0     H51726   8.028   8.695  12.251 -1.6786  0.4202 -0.8176
  375MOL0     H51727   8.001   8.797  12.389  2.3823  0.6082 -2.4580
  375MOL0     H51728   7.838   8.924  12.258  1.7376  1.0318 -0.8135
  375MOL0     H51729   7.845   8.793  12.140 -0.4119 -1.2611  1.1653
  375MOL0     H51730   7.200   8.190  12.249  0.4424 -0.3850 -1.0501
  375MOL0     H51731   7.001   8.120  12.095 -0.5097 -0.3598 -0.7936
  375MOL0     H51732   6.825   8.080  11.727 -0.0957  0.9833  1.1080
  375MOL0     H51733   6.632   7.978  11.599 -0.5495 -0.0993  0.2024
  375MOL0     H51734   5.251   7.964  10.516 -1.6434  0.0998 -1.2222
  375MOL0     H51735   5.021   8.043  10.538  0.4221 -0.7002  0.6969
  375MOL0     H51736   4.695   8.268  10.605 -2.8685  0.1425  1.5370
  375MOL0     H51737   4.476   8.353  10.605  1.6917 -2.9788 -0.8976
  375MOL0     H51738   4.233   8.446  10.439  0.2671  2.3261 -1.8553
  375MOL0     H51739   4.295   8.463  10.611  3.5113  2.2281  0.4259
  375MOL0     H51740   4.173   8.695  10.474 -1.6727 -1.9910 -2.5877
  375MOL0     H51741   4.184   8.653  10.646 -0.3982 -0.3900  0.7443
  375MOL0     H51742   4.019   8.515  10.437  1.4247  2.7036 -0.9744
  375MOL0     H51743   4.023   8.481  10.616  2.7180 -1.2128 -0.2570
  375MOL0     H51744   3.938   8.730  10.639 -2.9033  0.7700  0.5947
  375MOL0     H51745   3.820   8.618  10.572 -1.1659  1.3631  2.2970
  375MOL0     H51746   3.898   8.886  10.251 -2.6443  2.5138  1.6944
  375MOL0     H51747   4.596   8.694  10.372 -0.7518  1.2739  0.7797
  375MOL0     H51748   4.815   8.742  10.322  0.4718  1.0046  0.7273
  375MOL0     H51749   4.924   8.660  10.439 -1.3821 -2.0810  1.2126
  375MOL0     H51750   4.900   8.594  10.272  1.4101  0.9709  0.2695
  376MOL0     O51751   2.263  11.373   0.628  0.3441  0.5846  1.0190
  376MOL0     C51752   2.265  11.281   0.706 -0.3105 -0.0709  0.3841
  376MOL0     O51753   2.156  11.213   0.741 -0.2971 -0.4318  0.0886
  376MOL0     C51754   2.032  11.241   0.685  0.1216 -0.8747 -0.0241
  376MOL0     C51755   1.946  11.344   0.727  0.4085 -0.6292 -0.2698
  376MOL0     C51756   1.815  11.359   0.663 -0.4944  0.0649 -0.2247
  376MOL0     C51757   1.773  11.262   0.579  1.0108  0.0886  0.0272
  376MOL0     O51758   1.641  11.267   0.534 -0.2448 -0.2546  0.0096
  376MOL0     C51759   1.585  11.160   0.456 -0.3256 -0.2079  0.1189
  376MOL0     C51760   1.436  11.168   0.446  0.0981  0.1754 -0.3201
  376MOL0     C51761   1.379  11.077   0.328  0.3734  0.4411 -0.8567
  376MOL0     C51762   1.254  11.122   0.267 -0.3397 -0.3507  0.1074
  376MOL0     C51763   1.185  11.010   0.190 -0.7438  0.6559  0.0959
  376MOL0     C51764   1.070  11.043   0.101  0.6772  0.3797  0.6227
  376MOL0     C51765   0.953  11.113   0.173  0.5875  0.8677  0.5439
  376MOL0     C51766   0.841  11.161   0.079 -0.4102 -0.4694 -0.5543
  376MOL0     N51767   0.892  11.258  -0.021 -0.6094 -0.4618  0.0372
  376MOL0     C51768   0.950  11.217  -0.135  0.6013 -0.2173  0.6471
  376MOL0     C51769   1.006  11.322  -0.199 -0.3504 -0.1591 -0.3513
  376MOL0     C51770   1.073  11.331  -0.328 -0.0939  0.4219 -0.1559
  376MOL0     C51771   1.224  11.337  -0.302 -0.3653  0.4577 -0.0257
  376MOL0     C51772   1.259  11.482  -0.249 -0.1507  1.1907  1.3183
  376MOL0     C51773   1.382  11.499  -0.168  0.5820  0.0244  0.2896
  376MOL0     O51774   1.495  11.448  -0.241 -0.1857 -0.2253  0.1339
  376MOL0     C51775   1.614  11.428  -0.182 -0.6603  0.8451 -0.0067
  376MOL0     C51776   1.634  11.402  -0.044 -0.1245  0.0740 -1.2338
  376MOL0     C51777   1.764  11.418   0.011  0.3557  0.8314 -0.8211
  376MOL0     C51778   1.777  11.383   0.158 -0.4039 -0.1061 -0.1270
  376MOL0     C51779   1.881  11.457  -0.064  0.2991  0.9515 -0.0918
  376MOL0     C51780   2.016  11.474  -0.006  0.3423 -0.2696  0.6235
  376MOL0     O51781   2.106  11.528  -0.105  0.1412  0.3662 -0.3162
  376MOL0     C51782   2.241  11.487  -0.102  0.3389 -0.5017  0.2212
  376MOL0     C51783   2.323  11.557  -0.185  0.0762 -0.0609 -0.3509
  376MOL0     C51784   2.465  11.546  -0.160  1.1067  0.0341  0.6629
  376MOL0     C51785   2.516  11.471  -0.057 -0.7045  0.4673  0.1781
  376MOL0     O51786   2.652  11.481  -0.039  0.3009 -0.5866  0.1732
  376MOL0     C51787   2.678  11.502   0.102 -0.0354 -0.1771 -0.0814
  376MOL0     C51788   2.807  11.588   0.115 -0.5286  0.9701 -0.5112
  376MOL0     C51789   2.800  11.739   0.071  0.5651  0.2745 -0.8887
  376MOL0     C51790   2.919  11.835   0.113  0.7003  0.7144  0.7141
  376MOL0     C51791   3.039  11.798   0.024  0.3574 -0.2583 -0.0839
  376MOL0     C51792   3.175  11.841   0.088  0.2188  0.2914 -0.3111
  376MOL0     C51793   3.292  11.766   0.025  0.1540 -1.1176  0.1553
  376MOL0     C51794   3.427  11.805   0.080 -0.0966 -0.1057  0.7138
  376MOL0    Cl51795   3.561  11.724  -0.022 -0.3898  0.1609  0.5290
  376MOL0     C51796   2.430  11.385   0.023 -0.7571 -0.0572  1.2029
  376MOL0     C51797   2.294  11.389  -0.011 -0.1717  0.4588 -0.3096
  376MOL0     O51798   2.028  11.467   0.116 -0.5608  0.2545 -0.0987
  376MOL0     C51799   1.860  11.470  -0.206  0.2270  0.0866  0.2093
  376MOL0     C51800   1.734  11.453  -0.258 -0.0124 -0.1315  0.3031
  376MOL0     N51801   0.958  11.431  -0.125 -0.5517  0.2181  0.3154
  376MOL0     N51802   0.892  11.392  -0.021  0.2877 -0.9459  0.1363
  376MOL0     C51803   1.858  11.169   0.524 -1.1930 -0.8043 -0.3783
  376MOL0     C51804   1.986  11.166   0.579  0.1049  0.8830  0.3599
  376MOL0     C51805   2.394  11.235   0.775 -0.1283 -0.4203 -0.0595
  376MOL0     C51806   2.397  11.111   0.839 -0.4208 -0.4239  0.0171
  376MOL0     C51807   2.505  11.074   0.918 -0.2927  0.1847 -0.3354
  376MOL0     C51808   2.622  11.156   0.914  0.2796 -0.1536 -0.2775
  376MOL0     O51809   2.733  11.138   0.989  0.0322  0.0617 -0.3051
  376MOL0     C51810   2.734  11.049   1.106 -0.8203  0.4399  0.2060
  376MOL0     C51811   2.845  11.099   1.196  0.1458 -0.2540  0.1129
  376MOL0     C51812   2.837  11.031   1.337 -0.3942 -0.0621  1.1847
  376MOL0     C51813   2.898  11.130   1.434  0.4995  0.5248  0.0926
  376MOL0     C51814   3.037  11.159   1.405  0.1091 -0.2614  0.1883
  376MOL0     C51815   3.160  11.164   1.390  0.2857  0.6126  0.0091
  376MOL0     C51816   2.621  11.279   0.852  0.0763  0.0654  0.3424
  376MOL0     C51817   2.504  11.322   0.783 -0.8516 -0.1105  0.4437
  376MOL0     C51818   2.509  11.460   0.724  0.0643  0.6703  0.7523
  376MOL0     H51819   1.983  11.406   0.808  3.9301 -0.3368 -1.8800
  376MOL0     H51820   1.756  11.440   0.706  0.1977 -0.1812  1.2710
  376MOL0     H51821   1.614  11.065   0.502 -0.5478 -0.6065 -0.5540
  376MOL0     H51822   1.640  11.169   0.362 -3.6488 -1.0525 -2.0818
  376MOL0     H51823   1.399  11.132   0.542  1.4977  0.7319  0.4535
  376MOL0     H51824   1.411  11.274   0.436  0.5471  0.5909  2.3432
  376MOL0     H51825   1.454  11.073   0.249  1.9323 -1.1403  0.6169
  376MOL0     H51826   1.355  10.977   0.365  0.2290 -0.1460 -2.4598
  376MOL0     H51827   1.185  11.160   0.343  0.3919 -1.4736  1.3640
  376MOL0     H51828   1.275  11.202   0.195 -1.9043 -0.1985 -0.2097
  376MOL0     H51829   1.152  10.931   0.258 -0.1540 -1.6768 -2.1614
  376MOL0     H51830   1.256  10.970   0.118 -0.7335  0.9743 -0.0689
  376MOL0     H51831   1.104  11.108   0.020  0.3473 -1.1622 -0.8143
  376MOL0     H51832   1.032  10.947   0.064 -0.3296  0.9089  0.2427
  376MOL0     H51833   0.994  11.189   0.240  2.7386  0.2234  0.0305
  376MOL0     H51834   0.907  11.039   0.240 -0.9978  0.0519 -1.3669
  376MOL0     H51835   0.796  11.075   0.028 -2.2933  1.4545 -2.3239
  376MOL0     H51836   0.761  11.214   0.130 -1.3919  0.0738 -2.5555
  376MOL0     H51837   0.949  11.118  -0.179 -0.4131  1.0480 -2.4549
  376MOL0     H51838   1.027  11.416  -0.379  1.4037 -0.0450 -2.4610
  376MOL0     H51839   1.061  11.239  -0.387 -1.1799 -0.3574  1.2280
  376MOL0     H51840   1.253  11.263  -0.226  0.4449  0.2713 -0.5119
  376MOL0     H51841   1.272  11.310  -0.396  1.4410 -1.9542  1.4655
  376MOL0     H51842   1.267  11.543  -0.339 -2.9997  1.3049  1.0369
  376MOL0     H51843   1.176  11.528  -0.194 -0.4348  5.2399 -1.9560
  376MOL0     H51844   1.409  11.599  -0.135  1.8745 -0.9272  2.2897
  376MOL0     H51845   1.358  11.449  -0.074  3.2251 -0.5681  0.7277
  376MOL0     H51846   1.549  11.385   0.022 -1.0954  1.9763 -1.9507
  376MOL0     H51847   1.843  11.297   0.174  1.2322  1.4300  1.8764
  376MOL0     H51848   1.688  11.339   0.205  0.1808 -0.8838  0.2820
  376MOL0     H51849   1.813  11.469   0.215  2.1937 -0.2091 -1.4977
  376MOL0     H51850   2.276  11.629  -0.252 -1.8111 -0.6544  0.2984
  376MOL0     H51851   2.543  11.593  -0.219  3.4673 -3.6150  0.5519
  376MOL0     H51852   2.592  11.550   0.151 -1.8682 -4.8144  1.8059
  376MOL0     H51853   2.695  11.406   0.151  2.2006  2.0130  3.9654
  376MOL0     H51854   2.841  11.583   0.218  0.6804 -1.5138 -0.9437
  376MOL0     H51855   2.883  11.536   0.055 -0.7309 -3.2951  2.4520
  376MOL0     H51856   2.709  11.784   0.112  1.2992  0.7347  0.2778
  376MOL0     H51857   2.793  11.757  -0.037  1.1467  1.9746 -0.6853
  376MOL0     H51858   2.942  11.829   0.220  0.4342 -2.2221  0.6901
  376MOL0     H51859   2.887  11.934   0.079  1.2863  0.1719 -1.5839
  376MOL0     H51860   3.046  11.690   0.005 -0.1018 -0.2551 -0.2931
  376MOL0     H51861   3.032  11.859  -0.067 -1.5038 -0.9382 -0.4363
  376MOL0     H51862   3.174  11.812   0.193 -0.4064  2.3154  0.2837
  376MOL0     H51863   3.177  11.950   0.076 -1.0267  0.1115 -2.6567
  376MOL0     H51864   3.298  11.779  -0.084  0.7846 -1.5667  0.1326
  376MOL0     H51865   3.273  11.660   0.046  2.2547 -2.0809 -2.2213
  376MOL0     H51866   3.438  11.777   0.185  0.6701 -0.9165  0.4318
  376MOL0     H51867   3.439  11.913   0.092  0.3290 -0.4637  5.7281
  376MOL0     H51868   2.461  11.321   0.105 -1.3145 -0.6757  0.9390
  376MOL0     H51869   2.220  11.348   0.057  0.3374  1.2473  0.7293
  376MOL0     H51870   1.943  11.492  -0.273  0.9525  1.4457  1.4816
  376MOL0     H51871   1.725  11.463  -0.366  0.5230  1.3570  0.3715
  376MOL0     H51872   1.834  11.103   0.441  3.1542 -0.3079 -2.2948
  376MOL0     H51873   2.056  11.087   0.555 -0.2688 -0.4885  3.3212
  376MOL0     H51874   2.313  11.043   0.831 -2.9220  2.4131  0.4197
  376MOL0     H51875   2.498  10.975   0.963 -1.9496  0.8204  0.9148
  376MOL0     H51876   2.634  11.043   1.151 -0.7615 -1.5522  0.1276
  376MOL0     H51877   2.772  10.954   1.067  0.0360  1.8834 -2.8063
  376MOL0     H51878   2.824  11.206   1.209  0.9821  0.0511 -0.9143
  376MOL0     H51879   2.943  11.089   1.150 -1.1990 -0.0881 -3.0376
  376MOL0     H51880   2.736  11.001   1.365 -1.7931  1.6622 -1.6099
  376MOL0     H51881   2.904  10.945   1.337 -1.6715 -1.0797  0.8713
  376MOL0     H51882   2.882  11.091   1.535 -0.9161  0.5432 -0.0956
  376MOL0     H51883   2.839  11.222   1.441  0.5174  0.4303  2.4634
  376MOL0     H51884   3.267  11.160   1.380  0.0659 -3.2184 -2.6819
  376MOL0     H51885   2.710  11.340   0.856  0.1500 -0.1070  1.8560
  376MOL0     H51886   2.524  11.457   0.616 -0.4673  1.5597  0.6378
  376MOL0     H51887   2.417  11.516   0.745  0.9788  2.4915  0.1761
  376MOL0     H51888   2.599  11.508   0.765 -0.2853  1.6174  0.4539
  377MOL0     O51889   9.520   5.114  10.529  0.1237 -0.0310 -0.7524
  377MOL0     C51890   9.466   5.069  10.631 -0.8208  0.3055 -0.3684
  377MOL0     O51891   9.522   4.989  10.724 -0.3294  0.1003  0.1463
  377MOL0     C51892   9.640   4.923  10.693  0.4894 -0.7746  0.4895
  377MOL0     C51893   9.752   5.003  10.648  0.2554 -0.0937 -0.7446
  377MOL0     C51894   9.869   4.953  10.608 -0.2726  0.3730 -0.1111
  377MOL0     C51895   9.882   4.815  10.603 -0.2996 -0.2741  0.4511
  377MOL0     O51896   9.988   4.741  10.552 -0.1117  0.6128  0.0560
  377MOL0     C51897  10.100   4.810  10.498 -0.0628 -0.1317 -0.4475
  377MOL0     C51898  10.215   4.709  10.480  0.2971 -0.5063 -0.0169
  377MOL0     C51899  10.352   4.774  10.463  0.2488 -0.0960 -0.0707
  377MOL0     C51900  10.452   4.671  10.507  0.2325  0.2114 -0.1212
  377MOL0     C51901  10.594   4.715  10.483  0.1130 -0.0894  0.4000
  377MOL0     C51902  10.684   4.631  10.575  0.0738  0.4575 -0.2035
  377MOL0     C51903  10.829   4.680  10.550 -0.1482 -0.4188 -0.2654
  377MOL0     C51904  10.944   4.589  10.600 -0.1727  0.2342 -0.2763
  377MOL0     N51905  11.077   4.657  10.585  0.6604  0.2006 -0.1211
  377MOL0     C51906  11.109   4.790  10.615  0.6508  0.2827 -0.0214
  377MOL0     C51907  11.223   4.811  10.552 -0.4264  0.3436 -0.2260
  377MOL0     C51908  11.294   4.940  10.567  0.4053  1.0372 -0.9278
  377MOL0     C51909  11.445   4.935  10.526 -0.2797 -0.5166 -0.3212
  377MOL0     C51910  11.529   4.859  10.623  0.5223  0.3821  0.1714
  377MOL0     C51911  11.677   4.862  10.576 -0.3569 -0.2259  0.1266
  377MOL0     O51912  11.732   4.766  10.668  0.1795 -0.8001  0.2391
  377MOL0     C51913  11.855   4.716  10.654  0.0047  0.2303  0.5606
  377MOL0     C51914  11.896   4.609  10.735  0.3297 -0.3127 -0.0273
  377MOL0     C51915  12.020   4.559  10.739 -0.0563  0.3789 -0.7348
  377MOL0     C51916  12.040   4.432  10.814  0.7106  0.6644 -0.3376
  377MOL0     C51917  12.116   4.616  10.646  0.6562 -0.2444  0.1772
  377MOL0     C51918  12.257   4.561  10.634 -0.3942  0.2700 -0.2679
  377MOL0     O51919  12.328   4.622  10.529  0.0770  0.1160  0.0165
  377MOL0     C51920  12.466   4.597  10.515 -0.1568 -0.4573  0.1761
  377MOL0     C51921  12.516   4.631  10.390 -0.8975 -0.1667 -0.4114
  377MOL0     C51922  12.646   4.613  10.356 -0.2284 -0.1738  1.4029
  377MOL0     C51923  12.737   4.561  10.438 -0.8067 -0.2894  0.1257
  377MOL0     O51924  12.866   4.522  10.395  0.4375  0.3335 -0.1932
  377MOL0     C51925  12.939   4.630  10.332 -0.5294  0.7002 -1.1554
  377MOL0     C51926  13.071   4.556  10.310 -0.2151 -0.0294 -0.2899
  377MOL0     C51927  13.173   4.630  10.220  0.9652  0.7685 -0.5186
  377MOL0     C51928  13.278   4.532  10.178 -0.4490 -0.3186  0.4495
  377MOL0     C51929  13.396   4.602  10.101 -0.1678 -0.6025 -1.3107
  377MOL0     C51930  13.493   4.506  10.056 -0.6864 -0.6632  0.1621
  377MOL0     C51931  13.611   4.576   9.971  0.5152  1.2940 -0.9154
  377MOL0     C51932  13.716   4.465   9.943  0.0690 -0.3525  0.1938
  377MOL0    Cl51933  13.654   4.345   9.821  0.4660 -0.0393  0.5636
  377MOL0     C51934  12.698   4.537  10.572 -0.4567  0.3875  0.4052
  377MOL0     C51935  12.560   4.563  10.612 -0.3487  0.4508 -1.1534
  377MOL0     O51936  12.297   4.480  10.716  0.0952 -0.4130  0.0077
  377MOL0     C51937  12.085   4.739  10.580 -0.1493  1.0914 -0.7793
  377MOL0     C51938  11.953   4.783  10.576 -0.1834 -0.0896  0.4823
  377MOL0     N51939  11.268   4.687  10.504 -0.2278  0.2578 -0.7286
  377MOL0     N51940  11.178   4.591  10.522 -0.0468 -0.1336 -0.0090
  377MOL0     C51941   9.783   4.736  10.656 -0.3485  0.0455 -0.1005
  377MOL0     C51942   9.664   4.791  10.714  0.5179 -0.2352 -0.6163
  377MOL0     C51943   9.325   5.114  10.660  0.2546  0.7943 -0.0504
  377MOL0     C51944   9.287   5.137  10.794  0.1615 -0.5261  1.0720
  377MOL0     C51945   9.145   5.141  10.824 -0.2011 -0.8214  0.4597
  377MOL0     C51946   9.047   5.157  10.728 -0.2956  0.5934  0.7536
  377MOL0     O51947   8.920   5.189  10.762  0.5374  0.8208  0.5467
  377MOL0     C51948   8.868   5.183  10.904 -0.5553  0.5719 -0.0781
  377MOL0     C51949   8.726   5.143  10.891 -0.7446 -0.2825  0.6942
  377MOL0     C51950   8.627   5.250  10.840  0.3343  0.8640 -0.5259
  377MOL0     C51951   8.562   5.324  10.961  0.4172  0.6516  0.8609
  377MOL0     C51952   8.475   5.436  10.921  0.4673  0.3518  0.7945
  377MOL0     C51953   8.409   5.518  10.859 -0.0876  0.1336 -0.0261
  377MOL0     C51954   9.093   5.138  10.598 -0.0792  0.4909  0.0247
  377MOL0     C51955   9.228   5.119  10.560  0.1785 -0.4455 -1.1607
  377MOL0     C51956   9.263   5.098  10.415  0.0800 -0.6370 -0.3480
  377MOL0     H51957   9.738   5.110  10.650 -0.4300 -0.1109  2.6701
  377MOL0     H51958   9.943   5.022  10.568 -1.0960 -0.1080 -2.5927
  377MOL0     H51959  10.141   4.875  10.576 -1.0771 -1.3024  1.1220
  377MOL0     H51960  10.092   4.863  10.403  1.4293 -0.3333 -0.7201
  377MOL0     H51961  10.218   4.634  10.559 -0.0139  0.3520  0.8300
  377MOL0     H51962  10.196   4.656  10.386 -0.9813  1.3633 -0.8822
  377MOL0     H51963  10.359   4.800  10.357  0.2373 -1.0389 -0.3174
  377MOL0     H51964  10.355   4.867  10.520 -3.3586  1.7834 -2.5359
  377MOL0     H51965  10.431   4.665  10.614 -0.6723  0.6583 -0.2689
  377MOL0     H51966  10.435   4.571  10.467  1.3570  0.3179 -0.8920
  377MOL0     H51967  10.610   4.818  10.517  0.0264  0.3910 -0.9720
  377MOL0     H51968  10.620   4.699  10.378 -0.6716 -2.2374  0.4811
  377MOL0     H51969  10.651   4.632  10.679 -1.5407 -1.0253 -0.6512
  377MOL0     H51970  10.674   4.527  10.541  1.1421  0.6969 -1.3340
  377MOL0     H51971  10.845   4.777  10.599 -0.7078 -1.0619  1.2243
  377MOL0     H51972  10.843   4.696  10.443 -0.0056  1.0172 -0.0550
  377MOL0     H51973  10.932   4.579  10.709  3.7008  1.0669  0.3662
  377MOL0     H51974  10.935   4.491  10.554  1.5568 -1.5972  2.9035
  377MOL0     H51975  11.038   4.857  10.664 -2.1138 -1.4736 -1.3842
  377MOL0     H51976  11.276   4.979  10.668 -1.6688 -1.0482 -0.3959
  377MOL0     H51977  11.240   5.005  10.497 -0.8043 -1.7261 -2.7802
  377MOL0     H51978  11.458   4.886  10.430 -0.4168 -1.3514  0.0775
  377MOL0     H51979  11.486   5.036  10.517  0.2626 -0.0753  4.4253
  377MOL0     H51980  11.531   4.895  10.727  3.5108  5.4419 -1.2613
  377MOL0     H51981  11.491   4.757  10.630 -2.1716  1.2950 -0.2314
  377MOL0     H51982  11.691   4.821  10.476  0.4341 -3.0970  1.3054
  377MOL0     H51983  11.736   4.952  10.594  0.5956 -0.9755  0.8404
  377MOL0     H51984  11.821   4.559  10.795 -0.5782  1.5835  0.5054
  377MOL0     H51985  11.945   4.394  10.853  0.0967  1.0749 -1.3996
  377MOL0     H51986  12.108   4.453  10.898  0.9162  1.2817 -0.6594
  377MOL0     H51987  12.081   4.358  10.745 -0.1757  0.7488 -0.9632
  377MOL0     H51988  12.446   4.675  10.320  0.5303 -0.3811 -2.0430
  377MOL0     H51989  12.681   4.635  10.256  1.3546 -0.6332  1.8186
  377MOL0     H51990  12.896   4.666  10.238 -1.0331  0.7263 -0.9173
  377MOL0     H51991  12.954   4.711  10.403  2.1306 -1.6779  1.2494
  377MOL0     H51992  13.121   4.544  10.406  2.3056  2.7202 -1.1000
  377MOL0     H51993  13.041   4.460  10.266  0.9651 -0.8324  0.6079
  377MOL0     H51994  13.228   4.715  10.262  0.4251  0.7122  0.3421
  377MOL0     H51995  13.110   4.681  10.147  0.0030  3.8118  2.1870
  377MOL0     H51996  13.246   4.460  10.102  1.6023 -0.4476 -0.3693
  377MOL0     H51997  13.324   4.482  10.264 -0.3194 -1.5953 -0.3338
  377MOL0     H51998  13.352   4.661  10.020 -0.2359  0.0367 -0.8090
  377MOL0     H51999  13.444   4.666  10.175 -0.4970 -2.0451  0.2108
  377MOL0     H52000  13.446   4.436   9.986  0.7908 -1.9959  0.4521
  377MOL0     H52001  13.538   4.452  10.140  1.8901 -1.4547 -1.6062
  377MOL0     H52002  13.645   4.661  10.030 -0.6290 -0.2227  2.1412
  377MOL0     H52003  13.568   4.617   9.879  0.8787  0.9701 -1.2322
  377MOL0     H52004  13.749   4.420  10.037 -3.2831 -1.8124  0.8300
  377MOL0     H52005  13.801   4.514   9.895  0.1377 -0.0643  0.6047
  377MOL0     H52006  12.762   4.505  10.654 -0.1252 -1.4311 -0.5222
  377MOL0     H52007  12.534   4.543  10.716 -2.2429  2.9589 -1.0503
  377MOL0     H52008  12.160   4.800  10.532  1.1973  1.7055  1.9246
  377MOL0     H52009  11.930   4.876  10.526  2.3980  0.2986 -0.1130
  377MOL0     H52010   9.792   4.628  10.648 -0.6813  0.1260 -1.9943
  377MOL0     H52011   9.586   4.734  10.763 -1.1130  0.2444 -2.5416
  377MOL0     H52012   9.365   5.127  10.868  1.6992 -2.3776 -0.6922
  377MOL0     H52013   9.114   5.162  10.926 -0.5633 -0.1727  0.2223
  377MOL0     H52014   8.914   5.118  10.979  0.1708  1.9471  0.7115
  377MOL0     H52015   8.889   5.285  10.936  0.0266  1.2857 -2.5610
  377MOL0     H52016   8.698   5.110  10.991  2.1873 -0.8270  1.4243
  377MOL0     H52017   8.725   5.056  10.825  0.0541  1.8386 -2.3807
  377MOL0     H52018   8.679   5.319  10.773  2.9374 -0.4913 -0.0093
  377MOL0     H52019   8.552   5.198  10.780  0.5070  2.2183 -1.9634
  377MOL0     H52020   8.636   5.370  11.026  0.8906  1.4153 -0.1834
  377MOL0     H52021   8.492   5.257  11.011 -2.7085  0.2143 -3.5333
  377MOL0     H52022   8.364   5.595  10.799 -2.0837 -0.0940  1.0781
  377MOL0     H52023   9.015   5.135  10.522 -0.6341 -2.1488  0.6130
  377MOL0     H52024   9.318   5.004  10.411 -2.0937 -1.9534 -0.7581
  377MOL0     H52025   9.174   5.093  10.352 -0.7369  1.2422  0.5736
  377MOL0     H52026   9.344   5.162  10.377  1.1036 -1.7636 -0.1299
  378MOL0     O52027   7.662   5.195   3.824  0.2252  0.0411  0.5909
  378MOL0     C52028   7.610   5.252   3.724  0.4223  0.0405 -0.0734
  378MOL0     O52029   7.684   5.319   3.628 -0.2821  0.2137 -0.4690
  378MOL0     C52030   7.823   5.323   3.640 -0.4916 -0.0280  0.2121
  378MOL0     C52031   7.870   5.444   3.701 -0.6314 -0.0882  0.3512
  378MOL0     C52032   8.006   5.463   3.703 -0.7752  0.5156 -0.0230
  378MOL0     C52033   8.098   5.366   3.655 -0.1248 -0.3778 -0.5098
  378MOL0     O52034   8.227   5.406   3.664  0.2667  0.1215  0.9433
  378MOL0     C52035   8.309   5.366   3.559  0.7810  0.4143  0.4778
  378MOL0     C52036   8.417   5.473   3.547  1.2156  0.4035 -0.2234
  378MOL0     C52037   8.518   5.421   3.445  0.9193  0.0911  0.8079
  378MOL0     C52038   8.622   5.526   3.425 -0.4588 -0.4227  0.5225
  378MOL0     C52039   8.710   5.468   3.312  1.4993  0.5620 -0.1016
  378MOL0     C52040   8.829   5.560   3.259  0.3887  0.3412  0.2879
  378MOL0     C52041   8.917   5.616   3.372 -0.3681  0.1716  0.0682
  378MOL0     C52042   9.023   5.708   3.321 -0.4509 -0.5109 -0.0070
  378MOL0     N52043   9.128   5.627   3.259  0.4255 -0.6544  0.4651
  378MOL0     C52044   9.249   5.588   3.320  0.4837  0.6573  0.2073
  378MOL0     C52045   9.324   5.553   3.216  0.0709  0.1544  0.5847
  378MOL0     C52046   9.475   5.510   3.222 -0.8323 -0.0337 -0.7046
  378MOL0     C52047   9.557   5.636   3.230  0.6810  0.6156  0.1298
  378MOL0     C52048   9.701   5.616   3.231 -0.3569  0.3631  0.6627
  378MOL0     C52049   9.768   5.751   3.223 -0.0014 -0.3607  0.2210
  378MOL0     O52050   9.914   5.760   3.230 -0.1398  0.1698  0.9746
  378MOL0     C52051   9.988   5.698   3.130 -0.5644 -0.1059  0.0978
  378MOL0     C52052   9.941   5.685   2.995  0.3334  0.0685  0.2951
  378MOL0     C52053  10.024   5.637   2.890  0.7801  0.3030 -0.2305
  378MOL0     C52054   9.957   5.604   2.753  0.3794  0.3322 -0.5414
  378MOL0     C52055  10.152   5.597   2.919 -0.0468 -0.4119 -0.3972
  378MOL0     C52056  10.238   5.521   2.832  0.1485  1.1212  0.2640
  378MOL0     O52057  10.329   5.433   2.897 -0.8564  0.2371  0.0545
  378MOL0     C52058  10.449   5.417   2.839  0.0925  0.2588  0.0326
  378MOL0     C52059  10.557   5.493   2.880  0.5537 -0.3689  0.4173
  378MOL0     C52060  10.682   5.469   2.830 -0.4243  0.3773 -0.3926
  378MOL0     C52061  10.709   5.354   2.755  0.3905  0.2273  0.3660
  378MOL0     O52062  10.840   5.323   2.736  0.1915 -0.0736 -0.2691
  378MOL0     C52063  10.878   5.193   2.695  0.5399  1.0864 -0.9065
  378MOL0     C52064  10.997   5.135   2.774  0.1839 -0.2143  0.2130
  378MOL0     C52065  11.037   5.000   2.720 -1.0673  0.6581 -0.3655
  378MOL0     C52066  11.175   4.957   2.768  0.8425  0.1061  0.5184
  378MOL0     C52067  11.183   4.806   2.727 -0.5007  0.5310  0.2986
  378MOL0     C52068  11.113   4.709   2.823 -0.6022  0.0830 -0.7803
  378MOL0     C52069  11.146   4.567   2.780  0.4068 -0.3912  0.2711
  378MOL0     C52070  11.039   4.534   2.669  0.3413 -1.0860 -0.5694
  378MOL0    Cl52071  11.036   4.366   2.657  0.4823 -0.1507  0.7356
  378MOL0     C52072  10.597   5.273   2.715 -0.6904  0.3032  0.9043
  378MOL0     C52073  10.474   5.308   2.760  0.1680 -0.1487 -0.4758
  378MOL0     O52074  10.249   5.561   2.714  0.2342  0.3583 -0.7934
  378MOL0     C52075  10.197   5.615   3.047 -0.5907  0.1272  0.1267
  378MOL0     C52076  10.126   5.665   3.155  0.8673 -0.1142  1.1049
  378MOL0     N52077   9.261   5.569   3.092  0.3213  0.3086  0.8077
  378MOL0     N52078   9.149   5.617   3.126 -0.0481 -0.3934 -0.1299
  378MOL0     C52079   8.051   5.249   3.599  0.2460 -0.8601 -0.2095
  378MOL0     C52080   7.912   5.223   3.601 -1.1768 -0.2877 -0.1442
  378MOL0     C52081   7.460   5.261   3.726 -0.2848 -0.2024  0.1072
  378MOL0     C52082   7.394   5.374   3.650 -0.4992 -0.1062 -0.7880
  378MOL0     C52083   7.256   5.388   3.648  0.2292  0.4691  0.1910
  378MOL0     C52084   7.176   5.288   3.704  1.0522  0.4166  0.3425
  378MOL0     O52085   7.040   5.276   3.711 -0.2172 -0.0745 -0.1769
  378MOL0     C52086   6.963   5.391   3.668 -0.5148  0.8681  0.2101
  378MOL0     C52087   6.936   5.381   3.523 -0.2094  0.2683  0.5491
  378MOL0     C52088   6.858   5.245   3.488 -0.3183  0.0399 -0.0378
  378MOL0     C52089   6.812   5.236   3.340  0.0020 -0.7251  0.4492
  378MOL0     C52090   6.920   5.173   3.264 -0.5161 -0.2354 -0.0103
  378MOL0     C52091   7.004   5.119   3.196  0.0712  0.8087  0.1330
  378MOL0     C52092   7.238   5.174   3.760 -0.1407 -0.6415  0.0698
  378MOL0     C52093   7.379   5.164   3.779  0.5672  0.7798  0.0618
  378MOL0     C52094   7.439   5.045   3.845  0.1590  0.0809  0.3843
  378MOL0     H52095   7.800   5.527   3.710  0.4808  0.9296 -0.1182
  378MOL0     H52096   8.047   5.545   3.761 -0.7371 -1.4676  3.0280
  378MOL0     H52097   8.248   5.349   3.470 -1.4755 -1.0314  2.1948
  378MOL0     H52098   8.366   5.276   3.588  1.3069  0.4195 -0.4938
  378MOL0     H52099   8.374   5.566   3.509  3.0286  0.0155 -3.5234
  378MOL0     H52100   8.451   5.497   3.649 -0.8179 -0.6713  0.7876
  378MOL0     H52101   8.564   5.329   3.480 -0.3283 -0.1162  1.9979
  378MOL0     H52102   8.468   5.407   3.349 -0.7981 -1.9387  1.9072
  378MOL0     H52103   8.587   5.622   3.384  1.9230 -0.1589 -1.0695
  378MOL0     H52104   8.679   5.552   3.514  1.8759  0.4128 -1.1163
  378MOL0     H52105   8.646   5.441   3.228  1.1517  1.8720 -0.2753
  378MOL0     H52106   8.754   5.377   3.355  1.0419  1.3904  2.2835
  378MOL0     H52107   8.887   5.498   3.190 -2.0059 -0.9226 -0.7316
  378MOL0     H52108   8.778   5.637   3.200  0.6770 -0.2146 -0.7102
  378MOL0     H52109   8.970   5.537   3.428 -2.6015 -0.8535  0.8615
  378MOL0     H52110   8.852   5.672   3.439 -1.0968  1.1836 -1.4486
  378MOL0     H52111   8.975   5.767   3.242  0.2117 -1.1732 -0.9184
  378MOL0     H52112   9.074   5.764   3.399  1.1552 -2.0564  0.1128
  378MOL0     H52113   9.277   5.593   3.425 -1.5400 -2.6098  1.0441
  378MOL0     H52114   9.504   5.465   3.127  2.9050 -1.0690  0.7708
  378MOL0     H52115   9.491   5.442   3.306  0.2210  0.5554 -0.4050
  378MOL0     H52116   9.521   5.692   3.144  2.1923 -1.1288 -1.7383
  378MOL0     H52117   9.523   5.689   3.320  0.6276 -0.8957  1.0372
  378MOL0     H52118   9.745   5.568   3.319  0.0583 -2.2412 -0.8357
  378MOL0     H52119   9.730   5.554   3.145 -1.0025  0.0104  0.6953
  378MOL0     H52120   9.728   5.800   3.133  0.3184 -0.4843  0.0075
  378MOL0     H52121   9.740   5.820   3.303 -0.2423  2.1737 -1.9173
  378MOL0     H52122   9.837   5.695   2.965  0.4901 -0.1643 -0.3296
  378MOL0     H52123   9.861   5.650   2.730  0.2037 -0.8546 -2.3518
  378MOL0     H52124   9.935   5.497   2.757  0.6474  0.2995  0.9684
  378MOL0     H52125  10.011   5.624   2.660 -0.4843 -1.3255 -1.4428
  378MOL0     H52126  10.546   5.581   2.943 -0.5903 -0.3750  0.2567
  378MOL0     H52127  10.763   5.536   2.860  0.6815 -0.0060 -2.3526
  378MOL0     H52128  10.802   5.115   2.703  0.2861  1.5599  2.7388
  378MOL0     H52129  10.909   5.206   2.590 -1.9529 -0.7914 -1.9917
  378MOL0     H52130  11.082   5.204   2.776 -1.3327  1.6965  0.7250
  378MOL0     H52131  10.974   5.121   2.881  2.8567 -0.6431  0.8132
  378MOL0     H52132  11.032   5.007   2.611 -2.2599  2.2021 -0.2508
  378MOL0     H52133  10.963   4.928   2.755  0.8798 -0.8668  0.9009
  378MOL0     H52134  11.194   4.970   2.875  2.7199  1.2714  0.0875
  378MOL0     H52135  11.251   5.024   2.726  0.7353  0.0654  0.2602
  378MOL0     H52136  11.149   4.787   2.625 -0.7209  3.0386 -0.1458
  378MOL0     H52137  11.290   4.784   2.727 -0.8889 -1.6128 -0.9466
  378MOL0     H52138  11.005   4.720   2.818 -0.7286 -1.3620 -1.7971
  378MOL0     H52139  11.152   4.715   2.925 -0.4286  0.1321 -0.8495
  378MOL0     H52140  11.130   4.500   2.866  0.9488 -0.9077 -0.0195
  378MOL0     H52141  11.250   4.552   2.749  0.6661  1.2921  0.2677
  378MOL0     H52142  11.073   4.581   2.576  1.8558  1.9806  1.3688
  378MOL0     H52143  10.939   4.576   2.686  1.5883  2.1141 -0.3386
  378MOL0     H52144  10.602   5.189   2.646  1.1105 -0.6433  2.0982
  378MOL0     H52145  10.386   5.253   2.728  0.9852 -1.1384 -1.0568
  378MOL0     H52146  10.298   5.579   3.067 -0.8132 -0.3600  0.3752
  378MOL0     H52147  10.167   5.668   3.255  3.2566  0.5270  0.1689
  378MOL0     H52148   8.121   5.178   3.556 -2.3059 -0.4851 -5.8971
  378MOL0     H52149   7.877   5.122   3.582 -1.2623 -0.7858  2.3146
  378MOL0     H52150   7.465   5.444   3.607 -1.2394  0.1792 -1.5563
  378MOL0     H52151   7.203   5.476   3.613 -0.6046 -0.3376 -0.6091
  378MOL0     H52152   6.874   5.387   3.732 -0.3605 -0.2742  0.3864
  378MOL0     H52153   7.012   5.487   3.688 -0.7597  1.0532 -0.0885
  378MOL0     H52154   7.033   5.399   3.475 -0.6615  1.4212  0.0437
  378MOL0     H52155   6.864   5.458   3.495 -0.7672  1.6720  4.9594
  378MOL0     H52156   6.914   5.155   3.514 -2.4166 -0.6938  2.2837
  378MOL0     H52157   6.763   5.240   3.542 -0.8063 -1.8592 -0.9869
  378MOL0     H52158   6.792   5.337   3.303 -3.3491 -0.1993  3.1893
  378MOL0     H52159   6.715   5.187   3.332 -1.5514  2.2383 -0.0249
  378MOL0     H52160   7.084   5.079   3.138  1.2342  0.7831  1.6902
  378MOL0     H52161   7.170   5.096   3.792 -2.7522 -0.5162 -4.2732
  378MOL0     H52162   7.358   4.977   3.870  0.0159  1.2945  3.6526
  378MOL0     H52163   7.508   4.998   3.774 -0.9147 -2.9648  1.2316
  378MOL0     H52164   7.484   5.074   3.940 -1.3963 -2.2642  1.9376
  379MOL0     O52165   6.871   9.122   0.493 -0.3897  0.1618  0.2352
  379MOL0     C52166   6.916   9.146   0.606  0.3301 -0.6806  0.1937
  379MOL0     O52167   7.038   9.208   0.634  0.6382 -0.4507  0.0342
  379MOL0     C52168   7.140   9.204   0.548  0.5374 -0.0769 -0.0155
  379MOL0     C52169   7.241   9.298   0.556  0.4526 -0.0840  0.0392
  379MOL0     C52170   7.352   9.295   0.478 -0.7324 -0.0957  1.0455
  379MOL0     C52171   7.374   9.195   0.385  0.4904  0.8473  0.4217
  379MOL0     O52172   7.483   9.179   0.305  0.2759 -0.7649 -0.2407
  379MOL0     C52173   7.615   9.210   0.352  0.1861 -0.0602 -0.5537
  379MOL0     C52174   7.709   9.090   0.310 -0.1294  0.4160  0.1891
  379MOL0     C52175   7.668   8.955   0.358 -0.0195  0.5365 -0.2941
  379MOL0     C52176   7.703   8.908   0.507  0.9500 -0.4446  0.0143
  379MOL0     C52177   7.627   8.778   0.556  0.4676 -0.1971  0.4303
  379MOL0     C52178   7.472   8.783   0.549  0.3517  0.9708  0.2176
  379MOL0     C52179   7.416   8.906   0.624  0.9728 -0.2357 -0.1993
  379MOL0     C52180   7.441   8.887   0.773 -0.2988 -0.1623 -0.6708
  379MOL0     N52181   7.363   8.984   0.852  0.0448 -0.2876  0.2151
  379MOL0     C52182   7.340   9.117   0.831 -0.3029  0.5426  1.1057
  379MOL0     C52183   7.263   9.156   0.938  0.1848 -0.8210  0.1422
  379MOL0     C52184   7.215   9.303   0.968 -0.8007  0.0511 -0.5166
  379MOL0     C52185   7.296   9.370   1.080 -0.1628  0.1061 -0.3917
  379MOL0     C52186   7.411   9.456   1.016 -0.3230 -0.0339  0.0109
  379MOL0     C52187   7.450   9.577   1.106  0.1244  0.0123 -0.6272
  379MOL0     O52188   7.540   9.660   1.028  0.6639  0.2134 -0.5689
  379MOL0     C52189   7.626   9.749   1.095  0.5136 -0.5435 -0.7876
  379MOL0     C52190   7.715   9.810   1.008 -0.6090 -0.1406  0.1617
  379MOL0     C52191   7.834   9.877   1.054 -0.2757 -0.5870 -0.1586
  379MOL0     C52192   7.937   9.911   0.952 -0.2169 -0.4174 -0.1876
  379MOL0     C52193   7.839   9.904   1.190 -0.7289  0.0462 -1.1856
  379MOL0     C52194   7.954   9.964   1.256 -0.2749  0.4331  0.1192
  379MOL0     O52195   8.001   9.913   1.373  0.0049 -0.3857  0.1497
  379MOL0     C52196   8.113   9.969   1.429  0.2855  0.3143  0.7738
  379MOL0     C52197   8.244   9.919   1.393 -0.0005  0.4295  0.5535
  379MOL0     C52198   8.358   9.993   1.433 -0.1974 -0.6894  1.1088
  379MOL0     C52199   8.349  10.118   1.492 -0.5568  0.1195 -0.5722
  379MOL0     O52200   8.457  10.194   1.535 -0.6241 -0.1517  0.1953
  379MOL0     C52201   8.593  10.176   1.489 -0.0110  0.1526  1.2455
  379MOL0     C52202   8.685  10.264   1.573  1.0367 -0.0828  0.5494
  379MOL0     C52203   8.826  10.228   1.510 -0.4170  0.1812 -0.7555
  379MOL0     C52204   8.931  10.247   1.611 -0.5715 -0.4559 -0.3335
  379MOL0     C52205   9.067  10.269   1.551 -0.1591  0.2340 -0.2698
  379MOL0     C52206   9.186  10.243   1.636 -0.0743 -0.4108 -0.6154
  379MOL0     C52207   9.314  10.279   1.567  1.4608 -0.4528  0.1074
  379MOL0     C52208   9.428  10.273   1.663 -0.2341 -0.2965  0.1579
  379MOL0    Cl52209   9.566  10.339   1.575 -0.2807 -0.5520  0.5884
  379MOL0     C52210   8.223  10.162   1.520 -0.4632  0.0368 -0.0306
  379MOL0     C52211   8.105  10.088   1.498 -0.7090 -0.4794  0.6730
  379MOL0     O52212   7.994  10.071   1.217 -0.0625  0.1807 -0.2656
  379MOL0     C52213   7.736   9.854   1.273 -0.0550  0.4126 -0.2150
  379MOL0     C52214   7.631   9.775   1.224  0.0550  0.1368 -0.5722
  379MOL0     N52215   7.234   9.049   1.013  0.1309 -0.2576 -0.2192
  379MOL0     N52216   7.290   8.949   0.960 -0.8749  0.2370 -0.3785
  379MOL0     C52217   7.287   9.086   0.382  0.0948  0.1279  0.7051
  379MOL0     C52218   7.169   9.098   0.461  0.8358  0.0848  0.0345
  379MOL0     C52219   6.850   9.104   0.731 -0.2677 -0.5108  0.1702
  379MOL0     C52220   6.924   9.027   0.825  0.0635 -1.0174  0.4575
  379MOL0     C52221   6.860   8.979   0.944  0.2892  1.0934  0.1718
  379MOL0     C52222   6.722   9.011   0.963 -0.2628 -0.1132  0.3032
  379MOL0     O52223   6.640   8.959   1.064 -0.1660  0.6143  0.5270
  379MOL0     C52224   6.704   8.876   1.167  0.1200 -0.0003  0.7147
  379MOL0     C52225   6.591   8.821   1.269 -1.2458  0.0037  1.2867
  379MOL0     C52226   6.483   8.742   1.196  0.5651 -0.1789 -0.0331
  379MOL0     C52227   6.377   8.675   1.281 -0.1132  0.1304 -0.1049
  379MOL0     C52228   6.290   8.777   1.342 -0.5686 -0.1010 -1.0054
  379MOL0     C52229   6.215   8.861   1.390  0.7003 -0.1703  0.5631
  379MOL0     C52230   6.649   9.075   0.869  0.1923  0.5766 -0.5693
  379MOL0     C52231   6.710   9.119   0.753  0.0198  0.9964  1.0789
  379MOL0     C52232   6.623   9.198   0.660  0.1710  0.2972 -0.2007
  379MOL0     H52233   7.212   9.379   0.623 -1.7806  0.8693 -1.9135
  379MOL0     H52234   7.416   9.383   0.475 -1.7266  0.6383  0.5662
  379MOL0     H52235   7.631   9.233   0.457  0.1934 -1.5576 -0.2018
  379MOL0     H52236   7.647   9.299   0.296  0.2060 -0.2525 -0.8499
  379MOL0     H52237   7.706   9.083   0.201 -1.9096 -0.9428  0.2755
  379MOL0     H52238   7.810   9.120   0.338 -0.3301  2.7293 -1.3489
  379MOL0     H52239   7.559   8.951   0.355 -0.0186 -1.1490  1.0131
  379MOL0     H52240   7.711   8.883   0.288 -0.3838  0.2624 -0.2366
  379MOL0     H52241   7.810   8.886   0.501  1.2655  1.3424 -3.3968
  379MOL0     H52242   7.689   8.983   0.585  1.8013 -1.2584  0.9811
  379MOL0     H52243   7.657   8.752   0.658 -0.5002 -2.4750  0.1934
  379MOL0     H52244   7.661   8.694   0.494 -2.0674 -0.2009 -1.1152
  379MOL0     H52245   7.444   8.805   0.446 -3.0099 -1.9861  0.3333
  379MOL0     H52246   7.425   8.686   0.566 -2.2486  1.8109 -1.7125
  379MOL0     H52247   7.309   8.920   0.609  1.1027  1.6422  0.3731
  379MOL0     H52248   7.454   9.000   0.583  0.8373 -0.3066 -0.4920
  379MOL0     H52249   7.417   8.786   0.806  1.2498 -0.3724 -0.0993
  379MOL0     H52250   7.548   8.903   0.792 -0.2302  1.2456 -2.0393
  379MOL0     H52251   7.386   9.175   0.752  0.5824 -1.2991  0.2183
  379MOL0     H52252   7.107   9.293   0.988 -0.7348 -2.1993 -1.0186
  379MOL0     H52253   7.222   9.358   0.874 -0.4380 -2.5363 -2.0973
  379MOL0     H52254   7.223   9.434   1.131 -0.3533  0.6089 -1.2732
  379MOL0     H52255   7.338   9.309   1.160 -0.3493 -0.2514 -0.5631
  379MOL0     H52256   7.498   9.394   0.991  0.0744 -0.1094  1.4907
  379MOL0     H52257   7.374   9.499   0.923 -2.1213  2.4862  1.7655
  379MOL0     H52258   7.359   9.629   1.139 -0.9044 -2.7495  1.2415
  379MOL0     H52259   7.495   9.542   1.199 -0.2085  1.9817  0.3327
  379MOL0     H52260   7.702   9.805   0.901  0.0360 -0.9392  0.1043
  379MOL0     H52261   8.008   9.829   0.939 -0.4728 -0.8436  1.0107
  379MOL0     H52262   7.984  10.006   0.981  2.2394 -2.4183  3.1838
  379MOL0     H52263   7.899   9.934   0.852 -2.0148 -3.0896 -0.2235
  379MOL0     H52264   8.264   9.830   1.335  0.9591  1.9267 -1.5429
  379MOL0     H52265   8.456   9.953   1.407  0.5203  1.5057  0.2506
  379MOL0     H52266   8.621  10.071   1.502  0.8762  0.2277  0.0603
  379MOL0     H52267   8.610  10.194   1.383  1.2955  0.9915  1.5785
  379MOL0     H52268   8.660  10.370   1.558  1.2643 -0.0510  0.4053
  379MOL0     H52269   8.682  10.243   1.680 -3.8155  1.7570  1.0361
  379MOL0     H52270   8.845  10.290   1.422 -0.6906 -1.8975 -2.3846
  379MOL0     H52271   8.839  10.134   1.455 -0.9650  1.0601 -2.4720
  379MOL0     H52272   8.929  10.168   1.687  0.1391  0.1515  0.3413
  379MOL0     H52273   8.893  10.331   1.671  0.9338  1.9515 -2.5797
  379MOL0     H52274   9.073  10.195   1.470 -3.1362  0.5646 -0.9108
  379MOL0     H52275   9.072  10.374   1.520  1.9451  0.6616  1.3078
  379MOL0     H52276   9.177  10.139   1.668 -2.8759 -0.4745 -1.3280
  379MOL0     H52277   9.170  10.314   1.718  1.1233  0.9208 -1.4885
  379MOL0     H52278   9.309  10.383   1.534  2.2994 -1.2563 -2.8261
  379MOL0     H52279   9.318  10.218   1.476 -0.0507  0.9106 -0.9328
  379MOL0     H52280   9.443  10.168   1.690  1.4880 -0.4501 -1.1614
  379MOL0     H52281   9.406  10.337   1.749 -0.9444  3.0048 -2.2729
  379MOL0     H52282   8.219  10.258   1.570  1.7987 -0.3892  1.1392
  379MOL0     H52283   8.008  10.134   1.516  0.1953  2.2237 -0.7874
  379MOL0     H52284   7.733   9.861   1.381 -2.8756 -1.2685 -0.0977
  379MOL0     H52285   7.565   9.728   1.296 -1.2340  1.1156 -1.0796
  379MOL0     H52286   7.315   8.996   0.327  0.4999  0.4580  0.3614
  379MOL0     H52287   7.104   9.012   0.467 -0.8036  0.9017 -3.5144
  379MOL0     H52288   7.030   9.008   0.808  0.0369 -1.3756  0.6918
  379MOL0     H52289   6.918   8.932   1.023  2.0006  3.8935  0.7533
  379MOL0     H52290   6.759   8.794   1.121 -0.0741  1.7368 -3.0097
  379MOL0     H52291   6.773   8.935   1.228  0.1961 -0.9753  1.5912
  379MOL0     H52292   6.542   8.903   1.322  0.6334  0.2063  2.8004
  379MOL0     H52293   6.644   8.766   1.347  0.8438 -0.6394 -0.4754
  379MOL0     H52294   6.437   8.805   1.120 -0.1053  1.6981  1.8351
  379MOL0     H52295   6.542   8.661   1.151  4.2791  3.4400 -2.4552
  379MOL0     H52296   6.426   8.604   1.348 -1.0932 -1.1130 -0.6762
  379MOL0     H52297   6.310   8.609   1.225 -2.3659  1.6300  0.6674
  379MOL0     H52298   6.148   8.940   1.417  2.8161  2.3433 -1.0774
  379MOL0     H52299   6.543   9.094   0.888  0.7026  2.9239  0.3866
  379MOL0     H52300   6.557   9.144   0.592  0.3531 -1.3379  0.8750
  379MOL0     H52301   6.565   9.260   0.728  0.7449  1.2825 -0.5813
  379MOL0     H52302   6.683   9.270   0.603 -1.6870  2.3997  0.3585
  380MOL0     O52303   4.568   5.776   5.807 -0.0665 -1.1917 -0.0697
  380MOL0     C52304   4.570   5.812   5.689 -0.1961 -0.5385  0.2515
  380MOL0     O52305   4.687   5.860   5.624  0.2400  0.6473  0.5070
  380MOL0     C52306   4.810   5.824   5.672  0.2931 -0.2375 -0.2927
  380MOL0     C52307   4.837   5.699   5.721  0.7710 -1.2251 -0.3444
  380MOL0     C52308   4.962   5.667   5.769  1.0867 -0.8181 -0.5678
  380MOL0     C52309   5.063   5.753   5.748 -0.2476  1.5967  0.8053
  380MOL0     O52310   5.193   5.715   5.781 -0.0212 -0.1098  0.4709
  380MOL0     C52311   5.287   5.731   5.669 -0.2937 -0.1228 -0.0729
  380MOL0     C52312   5.425   5.666   5.691 -0.0394  0.0406  1.0030
  380MOL0     C52313   5.509   5.743   5.785 -0.3790 -0.2079  1.8785
  380MOL0     C52314   5.651   5.684   5.773  0.1814  0.4826 -0.3284
  380MOL0     C52315   5.760   5.778   5.827  0.3808 -0.2182 -0.5423
  380MOL0     C52316   5.891   5.711   5.848 -0.0707 -0.1217 -0.1040
  380MOL0     C52317   5.992   5.812   5.913  0.4303 -0.0128 -0.4474
  380MOL0     C52318   6.135   5.743   5.924  0.0138  0.8919 -0.4565
  380MOL0     N52319   6.234   5.809   6.005  0.5631  0.1444 -0.4324
  380MOL0     C52320   6.310   5.754   6.103 -0.1382  0.2670  0.1660
  380MOL0     C52321   6.380   5.853   6.157 -0.2975  0.8991  0.0780
  380MOL0     C52322   6.467   5.834   6.284  0.0546 -0.4003  0.3165
  380MOL0     C52323   6.612   5.890   6.275 -0.2593 -0.5305  0.3349
  380MOL0     C52324   6.612   6.037   6.304 -0.3083 -0.2317  0.5150
  380MOL0     C52325   6.753   6.096   6.266 -0.6821 -0.2768 -0.6912
  380MOL0     O52326   6.860   6.015   6.305  0.0093 -0.6941 -0.5083
  380MOL0     C52327   6.976   6.025   6.234 -0.0461 -0.3620 -0.5813
  380MOL0     C52328   7.048   5.912   6.205 -0.3726  0.1943  0.3850
  380MOL0     C52329   7.176   5.914   6.142 -0.5917 -0.0571 -0.0437
  380MOL0     C52330   7.237   5.780   6.097  0.5743 -0.6854 -0.1589
  380MOL0     C52331   7.234   6.041   6.134  0.1112 -0.4066 -0.3059
  380MOL0     C52332   7.368   6.065   6.080 -0.4972 -0.2641 -0.2867
  380MOL0     O52333   7.438   6.175   6.130  0.2855 -0.8698 -0.0073
  380MOL0     C52334   7.573   6.164   6.149 -0.1125  0.5404 -0.3380
  380MOL0     C52335   7.642   6.051   6.171  0.0314  0.0322 -0.1988
  380MOL0     C52336   7.783   6.046   6.177  0.5251 -0.5245 -0.5266
  380MOL0     C52337   7.859   6.164   6.148  0.3702  0.2573 -1.0457
  380MOL0     O52338   7.993   6.171   6.170 -0.7956 -0.2035  0.3851
  380MOL0     C52339   8.065   6.056   6.200  0.1008  0.0631  0.2957
  380MOL0     C52340   8.210   6.066   6.149 -0.3838 -0.1346 -0.8331
  380MOL0     C52341   8.216   6.044   6.000  0.0117  0.0081  0.5426
  380MOL0     C52342   8.350   6.068   5.943 -0.1823  0.3772 -0.1059
  380MOL0     C52343   8.368   6.014   5.795 -0.1268 -0.0115 -0.6195
  380MOL0     C52344   8.502   6.046   5.722 -1.0642 -0.6733 -1.1025
  380MOL0     C52345   8.623   5.962   5.772  0.0539  0.2140 -0.4697
  380MOL0     C52346   8.712   6.018   5.887  0.3035 -1.2482 -0.4352
  380MOL0    Cl52347   8.767   6.189   5.871  0.1675 -0.0368  0.3369
  380MOL0     C52348   7.789   6.277   6.114 -0.1200  0.1375 -0.4376
  380MOL0     C52349   7.651   6.275   6.117  0.7649 -0.1833  0.2592
  380MOL0     O52350   7.411   5.985   6.006  0.1402  0.3725  0.8658
  380MOL0     C52351   7.167   6.153   6.178 -0.5406 -0.5983  0.0601
  380MOL0     C52352   7.045   6.148   6.222  0.4693 -0.2613 -0.6594
  380MOL0     N52353   6.359   5.965   6.088 -0.5369  0.0135  0.0329
  380MOL0     N52354   6.270   5.943   5.999  0.0487  0.7952  0.1447
  380MOL0     C52355   5.042   5.885   5.714 -0.6013 -0.2270  0.5242
  380MOL0     C52356   4.912   5.915   5.668 -0.2733 -0.0265 -0.0758
  380MOL0     C52357   4.435   5.836   5.622 -0.2194  0.5686  0.1213
  380MOL0     C52358   4.316   5.847   5.696  0.8762  1.2663 -0.1472
  380MOL0     C52359   4.197   5.886   5.644 -0.3598 -0.0873  0.0068
  380MOL0     C52360   4.182   5.922   5.517  0.7878 -0.3018  0.1566
  380MOL0     O52361   4.053   5.951   5.467 -0.1606  0.4025  0.1133
  380MOL0     C52362   4.055   6.042   5.352  0.1699  0.2500 -0.7668
  380MOL0     C52363   3.920   6.098   5.323  0.6636 -0.0854 -0.9158
  380MOL0     C52364   3.803   6.003   5.319  0.9471 -0.0053  0.2500
  380MOL0     C52365   3.740   5.977   5.457 -1.3756 -0.7837  1.2174
  380MOL0     C52366   3.612   5.916   5.458 -0.6446  0.4419 -0.4451
  380MOL0     C52367   3.507   5.869   5.425 -0.1147 -0.7013 -0.0716
  380MOL0     C52368   4.293   5.916   5.438 -0.3115 -0.2786 -0.0727
  380MOL0     C52369   4.421   5.878   5.487  0.1719  0.6216  0.3180
  380MOL0     C52370   4.531   5.865   5.379 -0.2297 -0.3061 -0.1210
  380MOL0     H52371   4.757   5.628   5.738 -0.3284  0.5288  2.7415
  380MOL0     H52372   4.970   5.572   5.820 -1.9247 -0.3483  1.0192
  380MOL0     H52373   5.309   5.836   5.648 -0.5572 -0.1657 -0.5924
  380MOL0     H52374   5.236   5.688   5.582 -2.2298  1.4640  0.2177
  380MOL0     H52375   5.417   5.561   5.722 -1.8904 -0.5526 -1.2243
  380MOL0     H52376   5.467   5.662   5.590  2.1940 -0.1604  1.8722
  380MOL0     H52377   5.517   5.851   5.765 -0.2754 -0.9372 -3.8333
  380MOL0     H52378   5.470   5.731   5.886 -0.2445 -2.4848  1.7073
  380MOL0     H52379   5.644   5.595   5.836 -0.8359 -0.1438 -1.2708
  380MOL0     H52380   5.674   5.664   5.668  1.7277 -1.4033  0.3264
  380MOL0     H52381   5.730   5.805   5.928  2.0313 -0.6066  0.0725
  380MOL0     H52382   5.770   5.867   5.763 -0.1217  0.9758  0.9703
  380MOL0     H52383   5.890   5.629   5.920  2.2927  0.3385  0.5300
  380MOL0     H52384   5.940   5.678   5.756  2.8011  0.2294  1.1952
  380MOL0     H52385   5.958   5.841   6.013  0.8201  0.1833 -0.3687
  380MOL0     H52386   6.001   5.902   5.851  1.7436 -0.6939 -1.2886
  380MOL0     H52387   6.114   5.638   5.947 -1.9600  0.8275 -2.2098
  380MOL0     H52388   6.172   5.747   5.821  1.6558  1.3501  0.1201
  380MOL0     H52389   6.303   5.657   6.151  1.1780  1.6821  3.5078
  380MOL0     H52390   6.461   5.726   6.301  1.0139 -0.6911 -1.0154
  380MOL0     H52391   6.407   5.886   6.359 -2.3246 -2.9313  0.3180
  380MOL0     H52392   6.687   5.834   6.331  1.0945 -1.1870 -2.0287
  380MOL0     H52393   6.659   5.888   6.176 -1.5762  1.9618 -0.4341
  380MOL0     H52394   6.540   6.103   6.255  3.9639  3.5174 -1.3934
  380MOL0     H52395   6.599   6.044   6.412 -3.9409 -1.0729  0.2521
  380MOL0     H52396   6.743   6.115   6.159 -2.2648  0.2025 -0.4846
  380MOL0     H52397   6.761   6.190   6.321  1.1614  0.6737 -2.4573
  380MOL0     H52398   7.014   5.811   6.227  0.8189  0.0497  1.6686
  380MOL0     H52399   7.344   5.787   6.119  0.9039  3.5664 -2.0146
  380MOL0     H52400   7.220   5.779   5.989 -1.8719  2.2615  0.0719
  380MOL0     H52401   7.187   5.704   6.157 -1.1456  2.1941  2.3582
  380MOL0     H52402   7.603   5.952   6.193  1.0398 -0.6817 -1.4422
  380MOL0     H52403   7.837   5.954   6.193  0.2164 -1.1191 -2.6689
  380MOL0     H52404   8.056   6.050   6.309  2.8856 -1.0720  0.5435
  380MOL0     H52405   8.019   5.969   6.152 -1.5748  0.8753  0.3243
  380MOL0     H52406   8.257   6.156   6.189 -1.3106 -0.6622  1.6138
  380MOL0     H52407   8.273   5.992   6.199  0.4592  0.8676 -0.3874
  380MOL0     H52408   8.140   6.112   5.959 -2.0730 -0.5100  3.2380
  380MOL0     H52409   8.182   5.944   5.970 -1.2858  0.3625  0.7487
  380MOL0     H52410   8.423   6.017   6.006 -0.2168  0.3491 -0.0887
  380MOL0     H52411   8.371   6.175   5.951 -1.0827  0.5781 -0.3079
  380MOL0     H52412   8.364   5.904   5.796  0.5158 -0.0412 -0.0903
  380MOL0     H52413   8.287   6.051   5.733  0.1231  0.9265 -0.4025
  380MOL0     H52414   8.529   6.150   5.740  1.4848 -1.7409  2.3537
  380MOL0     H52415   8.495   6.018   5.616  3.4300 -1.2410 -1.4471
  380MOL0     H52416   8.698   5.940   5.696  0.7928  0.2848  0.2218
  380MOL0     H52417   8.583   5.865   5.803  0.8131  0.0945  0.1950
  380MOL0     H52418   8.804   5.959   5.899  0.4895 -0.6863  0.9990
  380MOL0     H52419   8.654   6.013   5.979  1.6129 -0.1221  0.4935
  380MOL0     H52420   7.834   6.374   6.098 -0.1965  0.0778 -1.0246
  380MOL0     H52421   7.599   6.367   6.094  0.7559 -0.3393 -0.3594
  380MOL0     H52422   7.212   6.251   6.167 -0.2603 -0.7502 -0.1224
  380MOL0     H52423   6.996   6.238   6.257 -1.3411 -2.2846  2.5057
  380MOL0     H52424   5.124   5.956   5.715  0.5771 -1.5399  0.4963
  380MOL0     H52425   4.881   6.012   5.630 -2.5994  0.0135  1.7081
  380MOL0     H52426   4.317   5.820   5.802 -1.2825 -3.5233 -1.0749
  380MOL0     H52427   4.109   5.895   5.707  0.0689 -1.2309  0.7966
  380MOL0     H52428   4.129   6.120   5.374 -1.7635  2.8549 -2.7988
  380MOL0     H52429   4.093   5.986   5.266  2.0747 -0.2341  0.3193
  380MOL0     H52430   3.916   6.155   5.230 -2.1558 -0.8337 -1.3276
  380MOL0     H52431   3.899   6.172   5.402  0.6090 -0.1489 -0.8708
  380MOL0     H52432   3.729   6.042   5.249  1.1277 -3.6546 -2.2947
  380MOL0     H52433   3.833   5.904   5.281 -0.2534 -0.4441  0.3741
  380MOL0     H52434   3.722   6.077   5.495 -2.3038 -0.5571  0.2235
  380MOL0     H52435   3.815   5.932   5.524  2.1038  1.1513 -1.0616
  380MOL0     H52436   3.407   5.831   5.430 -0.1326 -0.5807  0.6124
  380MOL0     H52437   4.272   5.935   5.333  5.1288 -1.8150 -1.7568
  380MOL0     H52438   4.596   5.778   5.396 -0.2704  0.1235  2.8027
  380MOL0     H52439   4.492   5.870   5.277 -0.7798  0.9379  0.1330
  380MOL0     H52440   4.593   5.955   5.385  0.8626 -0.9444 -1.2756
  381MOL0     O52441   2.820   0.780   4.574  0.1730  0.0578  0.5462
  381MOL0     C52442   2.755   0.759   4.470  0.2454  0.3126 -0.0560
  381MOL0     O52443   2.701   0.627   4.437 -0.3927  0.5827 -0.2962
  381MOL0     C52444   2.768   0.526   4.495 -0.4174  0.2610 -0.3606
  381MOL0     C52445   2.892   0.486   4.436  0.3091  0.7356  0.4350
  381MOL0     C52446   2.980   0.399   4.502  0.1770  0.8136  0.4339
  381MOL0     C52447   2.946   0.344   4.620  1.0854  0.7041 -0.0708
  381MOL0     O52448   3.035   0.263   4.688 -0.2885 -0.3405  0.0462
  381MOL0     C52449   3.024   0.261   4.838 -0.1436 -0.1873  0.0553
  381MOL0     C52450   3.119   0.147   4.883  0.0901  0.4484  0.0964
  381MOL0     C52451   3.128   0.129   5.027 -0.0486 -0.1699  0.6198
  381MOL0     C52452   3.213   0.009   5.075 -0.6745 -0.2241 -0.6432
  381MOL0     C52453   3.244   0.023   5.223 -0.7860 -0.3509  0.7145
  381MOL0     C52454   3.372  -0.048   5.262 -0.5482  0.1200  0.1859
  381MOL0     C52455   3.352  -0.201   5.250 -0.9480 -0.7759  0.6791
  381MOL0     C52456   3.271  -0.259   5.376  0.1325 -0.4158 -0.3011
  381MOL0     N52457   3.273  -0.404   5.382  0.0184  0.4715  0.1365
  381MOL0     C52458   3.351  -0.481   5.467 -0.0464 -0.0035 -0.4301
  381MOL0     C52459   3.299  -0.600   5.445 -0.1626  0.1176 -0.2640
  381MOL0     C52460   3.337  -0.721   5.527  0.3882  0.5173 -0.2309
  381MOL0     C52461   3.246  -0.742   5.652 -0.4487 -0.4316  0.1286
  381MOL0     C52462   3.315  -0.840   5.747 -0.2763 -0.7041  0.3814
  381MOL0     C52463   3.442  -0.794   5.816 -0.9107 -0.1331 -0.0759
  381MOL0     O52464   3.566  -0.802   5.739  0.1377  0.3276 -0.2136
  381MOL0     C52465   3.696  -0.795   5.780  0.3079 -0.6582 -0.4690
  381MOL0     C52466   3.732  -0.762   5.907 -0.0418 -0.3571 -0.4939
  381MOL0     C52467   3.873  -0.753   5.949  0.4156  0.1723 -0.0786
  381MOL0     C52468   3.905  -0.706   6.088 -0.3764  0.0237  1.0275
  381MOL0     C52469   3.972  -0.794   5.854 -0.7385  0.2871 -0.0494
  381MOL0     C52470   4.120  -0.790   5.875  0.3229 -0.6317 -0.1309
  381MOL0     O52471   4.188  -0.724   5.773  0.1051 -0.4592  0.5805
  381MOL0     C52472   4.328  -0.721   5.777 -0.1284 -0.1217  0.7116
  381MOL0     C52473   4.398  -0.632   5.856  0.8996  0.1697  0.1559
  381MOL0     C52474   4.534  -0.629   5.859  0.2946  0.2348  0.7795
  381MOL0     C52475   4.606  -0.732   5.789  0.0365 -0.5168  0.1456
  381MOL0     O52476   4.736  -0.741   5.809 -0.1880 -0.1206 -0.3302
  381MOL0     C52477   4.780  -0.855   5.876  0.7956  0.1527  0.1756
  381MOL0     C52478   4.931  -0.848   5.876  1.5559  0.6163  0.1225
  381MOL0     C52479   5.007  -0.853   5.735  0.5230  0.0838  0.8811
  381MOL0     C52480   5.160  -0.870   5.752 -0.0570  0.4285 -0.7218
  381MOL0     C52481   5.243  -0.863   5.627  1.1647 -0.3755 -0.1587
  381MOL0     C52482   5.381  -0.930   5.638  0.2394  0.5428 -0.1308
  381MOL0     C52483   5.459  -0.913   5.509  0.3527 -0.1247  1.2020
  381MOL0     C52484   5.612  -0.902   5.540 -0.1437 -0.2038 -0.0713
  381MOL0    Cl52485   5.660  -1.066   5.595 -0.0881  0.0160  0.1934
  381MOL0     C52486   4.538  -0.817   5.708  0.8995 -0.4923 -0.2702
  381MOL0     C52487   4.397  -0.815   5.702  0.3697 -0.7702 -0.5116
  381MOL0     O52488   4.167  -0.823   5.983  0.7134 -0.1362  0.5044
  381MOL0     C52489   3.926  -0.831   5.727  0.1025 -0.0073 -0.1309
  381MOL0     C52490   3.796  -0.824   5.684 -0.4792 -0.1621 -0.4087
  381MOL0     N52491   3.222  -0.612   5.337 -0.3715  0.0536 -0.4595
  381MOL0     N52492   3.201  -0.488   5.300 -0.1990 -0.4523  0.2752
  381MOL0     C52493   2.813   0.354   4.667 -0.2053 -0.0286 -0.0439
  381MOL0     C52494   2.726   0.451   4.601 -0.6636 -0.0961  0.2838
  381MOL0     C52495   2.713   0.873   4.380 -0.1591  0.7849 -0.1949
  381MOL0     C52496   2.622   0.841   4.281 -0.4590  0.3530 -0.0018
  381MOL0     C52497   2.568   0.931   4.194  1.2476  0.4920 -0.2228
  381MOL0     C52498   2.591   1.069   4.218  0.3518  0.1987  0.5002
  381MOL0     O52499   2.518   1.170   4.149 -0.0437  0.3089 -0.3748
  381MOL0     C52500   2.393   1.134   4.085  0.4827 -0.2563 -0.6795
  381MOL0     C52501   2.330   1.258   4.020 -0.2952 -0.2454  0.0473
  381MOL0     C52502   2.182   1.224   3.966 -0.4399  0.1909 -0.2205
  381MOL0     C52503   2.143   1.351   3.897  0.6475 -0.3504  0.3465
  381MOL0     C52504   2.066   1.446   3.990  0.5995  0.5548 -0.2608
  381MOL0     C52505   2.010   1.531   4.062 -0.8076  0.3272  0.5597
  381MOL0     C52506   2.682   1.104   4.317  0.4310  0.5171  0.3464
  381MOL0     C52507   2.749   1.015   4.396  0.3710 -0.4481  0.1575
  381MOL0     C52508   2.836   1.070   4.513 -0.2941  0.4886  0.4441
  381MOL0     H52509   2.924   0.532   4.343  1.5293 -2.4319 -0.8555
  381MOL0     H52510   3.073   0.383   4.447  0.7449 -2.2690  2.0796
  381MOL0     H52511   2.921   0.245   4.872  0.4801  0.3874  2.3666
  381MOL0     H52512   3.069   0.348   4.887 -1.1964 -0.4693  1.5727
  381MOL0     H52513   3.084   0.057   4.832 -0.9341  2.1083 -2.3264
  381MOL0     H52514   3.222   0.173   4.859  0.1894  0.3392  0.4140
  381MOL0     H52515   3.171   0.221   5.067 -1.2438  0.3468  0.7383
  381MOL0     H52516   3.025   0.107   5.058 -0.5375  1.1835  0.0046
  381MOL0     H52517   3.165  -0.088   5.060  0.3881 -1.2942  2.2209
  381MOL0     H52518   3.306   0.017   5.018 -1.4179  2.8873 -1.6540
  381MOL0     H52519   3.159  -0.017   5.278  0.9899  0.6135  4.5195
  381MOL0     H52520   3.245   0.130   5.245  3.1587  0.0699 -0.6133
  381MOL0     H52521   3.440  -0.015   5.182  0.4444  1.4686  1.5263
  381MOL0     H52522   3.418  -0.016   5.356  0.2222 -1.3505  0.3448
  381MOL0     H52523   3.452  -0.245   5.259 -0.7559 -0.8744 -1.4733
  381MOL0     H52524   3.307  -0.224   5.153 -1.3694  0.3698  0.5773
  381MOL0     H52525   3.307  -0.219   5.471  0.4455  1.1694 -1.0492
  381MOL0     H52526   3.168  -0.224   5.364 -0.7784 -2.5804  0.6827
  381MOL0     H52527   3.411  -0.452   5.553 -0.0138  0.6862 -0.6835
  381MOL0     H52528   3.436  -0.700   5.569 -0.1854  0.8880  0.9792
  381MOL0     H52529   3.342  -0.815   5.471 -1.1964 -1.2211  2.3439
  381MOL0     H52530   3.237  -0.646   5.704 -2.6588 -0.7926  0.5065
  381MOL0     H52531   3.144  -0.770   5.626 -0.2772 -0.0584 -1.0301
  381MOL0     H52532   3.237  -0.871   5.817 -1.2609  1.9135  0.5353
  381MOL0     H52533   3.335  -0.937   5.699  0.1713 -1.4858  2.0537
  381MOL0     H52534   3.427  -0.693   5.856 -0.1605  0.8338 -2.0780
  381MOL0     H52535   3.459  -0.861   5.901  0.4856 -0.4003 -0.5353
  381MOL0     H52536   3.647  -0.753   5.975 -1.6164 -2.1981 -2.1123
  381MOL0     H52537   3.815  -0.695   6.149 -1.4525  2.0046 -0.7705
  381MOL0     H52538   3.948  -0.605   6.078  0.2474 -0.4329 -1.9022
  381MOL0     H52539   3.968  -0.775   6.144 -1.2607  0.0166  2.0269
  381MOL0     H52540   4.337  -0.559   5.908 -0.8112 -0.7542 -0.4639
  381MOL0     H52541   4.586  -0.570   5.934  3.2148 -0.4886 -0.5393
  381MOL0     H52542   4.735  -0.859   5.976  0.8639 -3.6890  0.1816
  381MOL0     H52543   4.729  -0.944   5.839  1.7189 -1.2693  2.1226
  381MOL0     H52544   4.966  -0.762   5.934  1.1739 -0.8209  2.6518
  381MOL0     H52545   4.954  -0.939   5.933 -1.7240 -0.7106 -0.4151
  381MOL0     H52546   4.984  -0.755   5.692 -0.5322 -0.9865 -1.1612
  381MOL0     H52547   4.969  -0.922   5.659  0.2778 -0.1678  1.2289
  381MOL0     H52548   5.177  -0.964   5.805  0.7194 -0.7341 -2.8999
  381MOL0     H52549   5.192  -0.798   5.827 -0.9536 -0.3452  0.4450
  381MOL0     H52550   5.192  -0.921   5.549  0.6918 -0.8000  0.4640
  381MOL0     H52551   5.245  -0.757   5.601 -1.4559  0.7789  3.6688
  381MOL0     H52552   5.378  -1.035   5.668  1.6814  0.9773  1.7333
  381MOL0     H52553   5.433  -0.869   5.712  3.0392 -1.4092 -0.3246
  381MOL0     H52554   5.432  -0.821   5.456  0.4563 -2.1173 -2.7152
  381MOL0     H52555   5.426  -0.990   5.438 -3.7457  2.4856 -0.0819
  381MOL0     H52556   5.630  -0.818   5.607 -0.9618  2.4596 -2.9232
  381MOL0     H52557   5.672  -0.878   5.451 -0.5374  2.4763  0.3012
  381MOL0     H52558   4.596  -0.878   5.640  0.4469 -1.1747 -0.0565
  381MOL0     H52559   4.332  -0.874   5.639  0.3350 -2.2973  0.9031
  381MOL0     H52560   3.992  -0.865   5.647 -1.3562 -1.1685 -0.8721
  381MOL0     H52561   3.755  -0.853   5.588  0.4233 -1.8353 -0.3399
  381MOL0     H52562   2.772   0.302   4.753  3.4674 -2.1002  0.6984
  381MOL0     H52563   2.636   0.475   4.656 -1.1392 -0.6683 -0.2325
  381MOL0     H52564   2.588   0.739   4.269 -0.2593  0.0800  1.6355
  381MOL0     H52565   2.514   0.891   4.108  0.3601  1.0215  0.0705
  381MOL0     H52566   2.413   1.070   3.998  2.2878 -1.5584  0.6243
  381MOL0     H52567   2.331   1.075   4.154  1.9294 -0.1534  0.7454
  381MOL0     H52568   2.378   1.288   3.926  0.4391  1.1756  0.8399
  381MOL0     H52569   2.328   1.345   4.086 -1.2465  1.0284 -1.5615
  381MOL0     H52570   2.190   1.145   3.891  1.9512  3.1224 -3.3512
  381MOL0     H52571   2.123   1.206   4.056 -0.1724  3.4908  0.7177
  381MOL0     H52572   2.083   1.328   3.809  3.6500  1.7766 -2.5393
  381MOL0     H52573   2.227   1.389   3.837 -0.4852 -0.5846 -1.4549
  381MOL0     H52574   1.963   1.599   4.131 -1.0389  1.5445 -0.7615
  381MOL0     H52575   2.686   1.212   4.319  0.5489  0.5414  3.7597
  381MOL0     H52576   2.833   1.179   4.523  1.0416  0.5051  0.8480
  381MOL0     H52577   2.806   1.016   4.604  2.8493 -2.7622 -0.1903
  381MOL0     H52578   2.940   1.042   4.494 -0.2492  1.5714 -1.0314
  382MOL0     O52579   3.220   4.589   0.388  0.9417  1.3451 -0.2108
  382MOL0     C52580   3.104   4.612   0.423 -0.0486 -0.0426 -0.0309
  382MOL0     O52581   3.067   4.625   0.555 -0.0660  0.1333  0.2936
  382MOL0     C52582   3.168   4.621   0.650 -0.0301 -0.2624 -0.5683
  382MOL0     C52583   3.239   4.504   0.682  0.1551  0.0633 -0.5503
  382MOL0     C52584   3.350   4.518   0.760  0.6847 -0.3687  0.1738
  382MOL0     C52585   3.391   4.639   0.801  0.0143 -0.6295  0.0623
  382MOL0     O52586   3.507   4.641   0.867 -0.1881  0.0538 -0.3417
  382MOL0     C52587   3.576   4.761   0.914  0.1838 -0.3282  0.1608
  382MOL0     C52588   3.721   4.735   0.939 -0.1879 -0.0791 -1.1985
  382MOL0     C52589   3.775   4.867   1.011 -0.4582  0.6898 -0.0557
  382MOL0     C52590   3.924   4.862   1.042 -0.2999  0.1171  0.4428
  382MOL0     C52591   3.973   4.984   1.106 -0.2192 -0.1582 -1.2984
  382MOL0     C52592   4.111   4.962   1.168  0.1339 -1.0679 -0.3024
  382MOL0     C52593   4.181   5.083   1.232 -0.7606 -0.0891 -0.5886
  382MOL0     C52594   4.322   5.046   1.283 -0.1605 -0.3448  0.3546
  382MOL0     N52595   4.398   5.158   1.336 -0.4767  0.2190 -0.1911
  382MOL0     C52596   4.368   5.213   1.452  0.2023 -0.1248  0.5009
  382MOL0     C52597   4.444   5.319   1.463 -0.4089  0.2106 -0.0474
  382MOL0     C52598   4.441   5.391   1.594  0.1580 -0.6229  0.3029
  382MOL0     C52599   4.490   5.539   1.603 -0.5420  0.4839 -0.0260
  382MOL0     C52600   4.633   5.564   1.554  0.6837  0.3727 -0.9238
  382MOL0     C52601   4.688   5.702   1.623  0.3930  0.0365  0.3107
  382MOL0     O52602   4.712   5.678   1.759  0.2812 -0.1059 -0.2015
  382MOL0     C52603   4.846   5.665   1.789  0.5360  0.2059  0.7883
  382MOL0     C52604   4.906   5.538   1.810 -0.5489 -0.1830  0.2100
  382MOL0     C52605   5.044   5.531   1.855 -0.0114  0.4296 -0.1386
  382MOL0     C52606   5.088   5.394   1.882  0.6087 -0.1756 -0.2647
  382MOL0     C52607   5.118   5.649   1.884 -0.4626  0.8056  1.3291
  382MOL0     C52608   5.261   5.658   1.927  0.5721 -0.2581 -0.7243
  382MOL0     O52609   5.302   5.777   1.959  0.0022 -0.0626 -0.0427
  382MOL0     C52610   5.429   5.802   2.003  0.4435 -0.3595 -0.3905
  382MOL0     C52611   5.534   5.766   1.918 -0.3318  0.5212  0.3635
  382MOL0     C52612   5.671   5.796   1.947  0.1502  0.0690 -0.3749
  382MOL0     C52613   5.703   5.849   2.065 -0.5174 -0.0687  0.1583
  382MOL0     O52614   5.834   5.885   2.081  0.0852  1.3219 -0.6369
  382MOL0     C52615   5.869   5.944   2.204 -0.2207 -0.4459 -0.2976
  382MOL0     C52616   6.024   5.976   2.200 -0.1484 -0.4582  0.2168
  382MOL0     C52617   6.094   6.007   2.337 -0.0352 -0.0056  0.2823
  382MOL0     C52618   6.231   6.079   2.325  0.5541  0.4160  0.5171
  382MOL0     C52619   6.276   6.150   2.453  0.5399  0.5172  0.8825
  382MOL0     C52620   6.300   6.074   2.584  0.3847  0.4979 -0.4258
  382MOL0     C52621   6.368   6.155   2.681 -0.4724 -0.5933 -0.7873
  382MOL0     C52622   6.487   6.084   2.757  0.1188 -0.1813  0.4923
  382MOL0    Cl52623   6.579   6.199   2.863  0.1038  0.3226  0.2181
  382MOL0     C52624   5.602   5.896   2.153  0.4366  0.8780 -0.6048
  382MOL0     C52625   5.464   5.863   2.123  0.1176  0.2869 -0.3826
  382MOL0     O52626   5.331   5.556   1.917 -0.4096  0.1013  0.6906
  382MOL0     C52627   5.048   5.777   1.858  0.2779  0.0643  0.1634
  382MOL0     C52628   4.921   5.786   1.811 -0.5362 -0.0051  0.3916
  382MOL0     N52629   4.528   5.310   1.359 -0.2511 -0.8965  0.3422
  382MOL0     N52630   4.503   5.214   1.280  0.1576 -0.8790 -0.7058
  382MOL0     C52631   3.311   4.756   0.790 -0.7405  0.1801  0.6474
  382MOL0     C52632   3.198   4.739   0.716 -0.5313 -0.3042 -0.0592
  382MOL0     C52633   2.998   4.621   0.321  0.1354  0.9852 -0.1804
  382MOL0     C52634   2.866   4.645   0.365  0.1141  0.5732 -0.4009
  382MOL0     C52635   2.754   4.663   0.279  0.3113  0.0515 -0.2735
  382MOL0     C52636   2.767   4.632   0.142 -0.5032  0.1501 -0.1464
  382MOL0     O52637   2.648   4.626   0.084  0.4480 -0.0707  0.9382
  382MOL0     C52638   2.639   4.551  -0.036 -0.3126 -0.7575  0.8197
  382MOL0     C52639   2.492   4.544  -0.073 -0.0911 -0.0320 -0.7193
  382MOL0     C52640   2.429   4.681  -0.106  0.2953  0.0386 -0.0737
  382MOL0     C52641   2.287   4.670  -0.147 -0.6297 -0.1298 -0.8646
  382MOL0     C52642   2.197   4.689  -0.033 -0.5400 -0.2095 -0.1792
  382MOL0     C52643   2.113   4.721   0.044 -0.5636  0.1670 -0.3233
  382MOL0     C52644   2.894   4.590   0.093 -0.2488 -0.4320  0.1827
  382MOL0     C52645   3.010   4.585   0.183  0.0250  0.5399  1.0195
  382MOL0     C52646   3.138   4.549   0.121  0.6479 -0.5850  0.5876
  382MOL0     H52647   3.201   4.413   0.636  2.6019  0.0002 -2.6627
  382MOL0     H52648   3.409   4.432   0.791 -1.0023 -1.7300 -0.2379
  382MOL0     H52649   3.525   4.803   1.001 -0.0053 -0.3517  0.0624
  382MOL0     H52650   3.573   4.835   0.834  1.1731  1.7436  1.9750
  382MOL0     H52651   3.736   4.644   0.998 -0.1602 -0.4816 -1.8283
  382MOL0     H52652   3.765   4.712   0.842 -0.9537 -3.3569 -0.8876
  382MOL0     H52653   3.753   4.958   0.953 -2.3077 -0.0325 -0.5676
  382MOL0     H52654   3.718   4.876   1.103  2.6241  2.2008  1.8640
  382MOL0     H52655   3.939   4.786   1.119 -2.1637  0.5299  1.2685
  382MOL0     H52656   3.984   4.841   0.953  1.5308  0.9893  1.4128
  382MOL0     H52657   3.902   5.020   1.180  0.2543 -3.2088  0.8070
  382MOL0     H52658   3.981   5.062   1.029  2.4525 -0.2154 -1.1745
  382MOL0     H52659   4.093   4.891   1.249  0.3959 -0.9201 -0.1134
  382MOL0     H52660   4.169   4.910   1.092  2.2588 -0.5793  0.9070
  382MOL0     H52661   4.115   5.118   1.312  0.8699  1.5985  0.0953
  382MOL0     H52662   4.192   5.164   1.159  0.0069  0.9648  0.6467
  382MOL0     H52663   4.320   4.972   1.363 -0.7196  1.0746  1.7077
  382MOL0     H52664   4.386   4.996   1.210 -0.1715 -2.0071  1.4081
  382MOL0     H52665   4.290   5.176   1.518 -1.6218 -1.3971 -2.2040
  382MOL0     H52666   4.484   5.328   1.673  1.5670 -1.2931 -0.9582
  382MOL0     H52667   4.334   5.395   1.618  0.2098  0.5527  0.4107
  382MOL0     H52668   4.424   5.605   1.545 -0.0797 -0.3305 -1.5260
  382MOL0     H52669   4.482   5.573   1.707 -1.5322  1.5953 -0.4386
  382MOL0     H52670   4.689   5.473   1.577 -1.3090 -1.3455 -2.5055
  382MOL0     H52671   4.635   5.575   1.445 -1.5460  1.2118 -0.9156
  382MOL0     H52672   4.775   5.736   1.567 -0.5810  1.8740 -0.1898
  382MOL0     H52673   4.606   5.772   1.603 -0.5548 -1.4671 -1.3485
  382MOL0     H52674   4.850   5.445   1.806 -0.1064 -0.6219  2.5841
  382MOL0     H52675   5.000   5.329   1.870 -0.6014  1.2366  0.5667
  382MOL0     H52676   5.120   5.380   1.985  0.1239 -0.5866 -0.1608
  382MOL0     H52677   5.174   5.359   1.825  0.9132 -2.1130  1.2853
  382MOL0     H52678   5.509   5.729   1.819 -0.4113 -0.2036  0.6501
  382MOL0     H52679   5.753   5.776   1.879  0.7066 -0.1564  0.3471
  382MOL0     H52680   5.806   6.028   2.234  2.3252  0.6563  2.3356
  382MOL0     H52681   5.861   5.871   2.285 -2.8312  2.4056  2.3046
  382MOL0     H52682   6.071   5.889   2.152  3.0421  2.0014 -1.5303
  382MOL0     H52683   6.040   6.061   2.133  0.2330 -1.5211 -1.0900
  382MOL0     H52684   6.125   5.914   2.385  4.6296  0.1960 -1.7874
  382MOL0     H52685   6.023   6.069   2.392 -0.1960  1.6103 -1.6470
  382MOL0     H52686   6.222   6.154   2.246  0.5141 -0.2439 -0.1255
  382MOL0     H52687   6.303   6.010   2.280 -0.7409  0.6784 -2.1846
  382MOL0     H52688   6.363   6.210   2.423  1.9321 -1.5253  0.6281
  382MOL0     H52689   6.187   6.206   2.483 -0.1693  0.5115 -1.0411
  382MOL0     H52690   6.361   5.986   2.561  0.1140  0.0526  0.4678
  382MOL0     H52691   6.200   6.046   2.621  0.7915 -0.8445 -0.2773
  382MOL0     H52692   6.287   6.181   2.750 -0.4279 -3.2326  0.3779
  382MOL0     H52693   6.396   6.246   2.627  0.7373 -0.8872 -0.6915
  382MOL0     H52694   6.554   6.043   2.681 -0.2011 -0.6860  0.4804
  382MOL0     H52695   6.449   6.001   2.817  1.1059 -0.0617  1.3134
  382MOL0     H52696   5.614   5.959   2.240 -0.8674 -1.6996  1.5798
  382MOL0     H52697   5.380   5.904   2.179 -1.3231 -0.1706 -2.1198
  382MOL0     H52698   5.099   5.873   1.862  0.4390  0.0426 -0.9525
  382MOL0     H52699   4.870   5.880   1.797  0.5986  0.6143  0.2937
  382MOL0     H52700   3.345   4.849   0.834  1.0363  0.3713 -1.0125
  382MOL0     H52701   3.148   4.828   0.680 -1.8538  0.0602  2.4706
  382MOL0     H52702   2.851   4.659   0.471 -1.3705  1.2872 -0.6787
  382MOL0     H52703   2.657   4.684   0.322  0.1754  0.9445 -0.9799
  382MOL0     H52704   2.694   4.610  -0.110 -1.6258  2.7650  2.4250
  382MOL0     H52705   2.691   4.457  -0.016  0.2216 -0.0140  3.3147
  382MOL0     H52706   2.442   4.503   0.015  1.5813  2.0825  1.3423
  382MOL0     H52707   2.480   4.475  -0.157 -0.8297  0.7204 -1.2360
  382MOL0     H52708   2.434   4.766  -0.038 -1.1731  1.9413 -2.2078
  382MOL0     H52709   2.474   4.718  -0.198  0.9298  0.3968  0.3745
  382MOL0     H52710   2.266   4.582  -0.209 -2.8611 -0.0711 -0.2792
  382MOL0     H52711   2.260   4.755  -0.211  0.1831  1.3008  0.6031
  382MOL0     H52712   2.027   4.750   0.100 -0.8268  0.5403 -0.9019
  382MOL0     H52713   2.899   4.577  -0.014  1.4398  0.1998  0.1680
  382MOL0     H52714   3.116   4.531   0.015  2.9476  3.2327 -0.7253
  382MOL0     H52715   3.196   4.642   0.129  0.7132 -0.1534 -3.0592
  382MOL0     H52716   3.192   4.463   0.161  1.1749 -1.8929 -2.6609
  383MOL0     O52717   2.673   6.762   7.469 -0.1194 -0.0014  0.3803
  383MOL0     C52718   2.634   6.717   7.363  0.6668  0.1489  0.5517
  383MOL0     O52719   2.697   6.724   7.242  0.1568  0.0005 -0.6974
  383MOL0     C52720   2.826   6.760   7.235 -0.1376  0.6409  0.2929
  383MOL0     C52721   2.918   6.654   7.255  0.1137  0.1862  0.0277
  383MOL0     C52722   3.050   6.688   7.258 -0.2368  0.2488 -0.6990
  383MOL0     C52723   3.095   6.825   7.241 -0.8193  0.1660  0.6165
  383MOL0     O52724   3.225   6.832   7.199  0.0852  0.8012 -0.0476
  383MOL0     C52725   3.308   6.934   7.254  0.4151 -0.3596 -0.3821
  383MOL0     C52726   3.448   6.885   7.208  0.3475 -0.3912  0.3542
  383MOL0     C52727   3.560   6.987   7.237 -0.5040  0.0955  0.3944
  383MOL0     C52728   3.707   6.928   7.194 -0.0498  0.5710 -0.1860
  383MOL0     C52729   3.811   7.033   7.228 -0.1939  0.2099 -0.1275
  383MOL0     C52730   3.953   6.992   7.191 -1.0012  0.1215 -0.2891
  383MOL0     C52731   4.004   6.865   7.280  0.2510  0.3716  0.1531
  383MOL0     C52732   4.157   6.864   7.280  0.7975  0.4399 -0.9800
  383MOL0     N52733   4.213   6.848   7.143  0.5637 -0.2940  0.1452
  383MOL0     C52734   4.231   6.733   7.070 -0.3076 -0.0733  0.8936
  383MOL0     C52735   4.271   6.792   6.953 -0.3573  0.2061  0.2516
  383MOL0     C52736   4.296   6.721   6.827 -0.0470  0.2939 -1.0987
  383MOL0     C52737   4.446   6.708   6.789  0.8405 -0.9772  0.3677
  383MOL0     C52738   4.531   6.590   6.845 -0.4355  0.1026  0.5696
  383MOL0     C52739   4.675   6.588   6.807 -0.4343  1.1489  0.7300
  383MOL0     O52740   4.729   6.723   6.822  0.0841 -0.0078  1.0239
  383MOL0     C52741   4.858   6.734   6.772  0.4421  0.3143  0.7843
  383MOL0     C52742   4.946   6.625   6.739  0.0366 -0.6626  0.0019
  383MOL0     C52743   5.074   6.650   6.684 -0.3713 -0.7689 -0.0283
  383MOL0     C52744   5.153   6.527   6.638  0.7677  0.8904  0.8396
  383MOL0     C52745   5.118   6.787   6.667  0.4708  0.1366  0.4100
  383MOL0     C52746   5.255   6.820   6.639 -0.4138  0.0428  0.7496
  383MOL0     O52747   5.288   6.949   6.658 -0.0214  0.6945 -0.8596
  383MOL0     C52748   5.422   6.992   6.656  0.1659  0.1917  1.1063
  383MOL0     C52749   5.474   7.040   6.773 -0.0585 -0.1273 -0.6943
  383MOL0     C52750   5.606   7.068   6.791 -0.1479 -0.4532 -1.0204
  383MOL0     C52751   5.702   7.050   6.692  0.4079  0.8341  0.2327
  383MOL0     O52752   5.827   7.082   6.724 -0.6354 -0.0791  0.4402
  383MOL0     C52753   5.899   7.177   6.632  0.4053  0.3523 -0.2269
  383MOL0     C52754   6.037   7.174   6.688  0.5870  0.0822  0.5340
  383MOL0     C52755   6.146   7.251   6.613 -0.7033  0.7247  0.8107
  383MOL0     C52756   6.269   7.254   6.703 -0.6741  0.2982  0.1945
  383MOL0     C52757   6.391   7.300   6.620 -0.1833 -1.0810  0.0776
  383MOL0     C52758   6.519   7.244   6.683  0.1680 -0.1855  0.3906
  383MOL0     C52759   6.645   7.272   6.594  0.3319 -0.0602  0.1123
  383MOL0     C52760   6.770   7.231   6.659  0.6868 -0.0511  0.1586
  383MOL0    Cl52761   6.919   7.296   6.561 -0.1537  0.1407 -0.0913
  383MOL0     C52762   5.653   6.993   6.570  0.7796  0.9391  0.3156
  383MOL0     C52763   5.513   6.960   6.561  0.2402  0.4079 -0.8762
  383MOL0     O52764   5.330   6.735   6.597  0.9013  0.0555  0.5076
  383MOL0     C52765   5.028   6.890   6.702  0.0169  0.6933 -0.1783
  383MOL0     C52766   4.902   6.864   6.742  0.4901  0.8232 -0.0797
  383MOL0     N52767   4.291   6.925   6.968  0.8026 -0.1918 -0.1580
  383MOL0     N52768   4.250   6.968   7.083  0.5256  0.5565 -0.0056
  383MOL0     C52769   3.007   6.931   7.228 -0.1186  0.1395 -0.5454
  383MOL0     C52770   2.872   6.892   7.225  1.1073  0.2276 -0.4648
  383MOL0     C52771   2.501   6.638   7.351 -0.2041 -0.3340 -0.5091
  383MOL0     C52772   2.479   6.531   7.255 -0.4048 -0.2656 -0.7519
  383MOL0     C52773   2.364   6.452   7.247  0.3608  0.4019 -0.6949
  383MOL0     C52774   2.269   6.471   7.346  0.2702  0.4825  0.2394
  383MOL0     O52775   2.150   6.399   7.363  0.9818  0.3237 -0.0553
  383MOL0     C52776   2.104   6.315   7.251  0.6317  0.3614 -0.3380
  383MOL0     C52777   1.981   6.221   7.292 -0.0693  0.2349  0.4139
  383MOL0     C52778   1.912   6.169   7.167  0.4464  0.6214  0.3636
  383MOL0     C52779   1.776   6.109   7.203 -0.5077  0.5560  0.9402
  383MOL0     C52780   1.715   6.048   7.086 -0.3100 -0.4062 -0.0991
  383MOL0     C52781   1.688   5.969   6.998 -0.3014  0.2677  0.1176
  383MOL0     C52782   2.290   6.571   7.446  0.2904 -0.4112  0.4656
  383MOL0     C52783   2.401   6.663   7.444  0.0361 -0.5293 -0.0062
  383MOL0     C52784   2.405   6.782   7.549 -0.7770  0.3288  0.5384
  383MOL0     H52785   2.899   6.549   7.276  0.0587 -0.2423 -1.9836
  383MOL0     H52786   3.122   6.615   7.296 -1.3045 -0.9184 -0.8272
  383MOL0     H52787   3.293   6.945   7.362 -0.1160  0.2464 -0.5141
  383MOL0     H52788   3.290   7.035   7.216  2.5358  0.5214  0.7716
  383MOL0     H52789   3.474   6.787   7.251  2.0309  0.5647  1.6368
  383MOL0     H52790   3.443   6.866   7.100  1.1722 -3.6141  0.7830
  383MOL0     H52791   3.560   7.079   7.179  1.6579  0.1246  0.3570
  383MOL0     H52792   3.549   7.013   7.342  1.0683  0.7652  0.4157
  383MOL0     H52793   3.739   6.843   7.254  1.9348  1.3045 -0.1533
  383MOL0     H52794   3.705   6.902   7.088 -0.5166 -1.2396  0.2342
  383MOL0     H52795   3.802   7.057   7.334 -1.9479 -3.4428  0.6924
  383MOL0     H52796   3.799   7.119   7.161  0.9774  0.3638 -0.1648
  383MOL0     H52797   3.954   6.955   7.089 -0.2853 -1.3027  0.2065
  383MOL0     H52798   4.026   7.072   7.202 -2.1554  1.5300 -2.2277
  383MOL0     H52799   3.959   6.777   7.233 -1.3527  1.0463  0.3469
  383MOL0     H52800   3.959   6.880   7.379  0.1400  1.9888 -0.1165
  383MOL0     H52801   4.187   6.964   7.314  2.2901 -0.1019 -0.6408
  383MOL0     H52802   4.197   6.787   7.346 -0.6471  1.3923  1.1077
  383MOL0     H52803   4.208   6.630   7.093  2.4633 -0.6304  1.4438
  383MOL0     H52804   4.243   6.771   6.745  1.3998  1.6564 -1.2548
  383MOL0     H52805   4.247   6.625   6.843  2.2828 -0.4846  2.6301
  383MOL0     H52806   4.451   6.711   6.680 -1.5512  1.1853  0.2204
  383MOL0     H52807   4.492   6.805   6.811 -2.1976  0.7111 -0.1973
  383MOL0     H52808   4.533   6.596   6.954  0.5732  0.2444  0.5541
  383MOL0     H52809   4.483   6.495   6.822  1.5428 -0.7331 -0.3756
  383MOL0     H52810   4.729   6.518   6.872 -0.8338 -0.9639 -1.0997
  383MOL0     H52811   4.679   6.548   6.705 -1.0233  2.9840 -0.0406
  383MOL0     H52812   4.929   6.521   6.762  2.5133 -0.3005  4.6602
  383MOL0     H52813   5.202   6.554   6.544 -0.3435 -0.0341 -0.0456
  383MOL0     H52814   5.076   6.458   6.602  1.7037  0.7071 -0.9328
  383MOL0     H52815   5.219   6.483   6.713  0.9006 -0.4202 -0.0096
  383MOL0     H52816   5.401   7.060   6.851  1.2592 -3.3464  1.5723
  383MOL0     H52817   5.646   7.100   6.887 -1.1940  1.0328 -1.0420
  383MOL0     H52818   5.879   7.142   6.530 -0.4124  1.7463 -0.5738
  383MOL0     H52819   5.857   7.277   6.644  1.5982  0.7238  1.0162
  383MOL0     H52820   6.039   7.222   6.786  1.5229 -1.0133  1.0768
  383MOL0     H52821   6.057   7.068   6.701 -1.1313 -0.6893 -2.1164
  383MOL0     H52822   6.123   7.355   6.590 -1.2514  0.3094 -0.6093
  383MOL0     H52823   6.169   7.190   6.526  0.0656 -0.7925  2.0286
  383MOL0     H52824   6.286   7.150   6.728 -2.1639  0.0694  0.3634
  383MOL0     H52825   6.256   7.314   6.793  1.2297  1.4694 -0.2409
  383MOL0     H52826   6.378   7.245   6.526 -0.9135  1.3072 -1.2963
  383MOL0     H52827   6.401   7.409   6.610 -0.5744 -1.0172  0.3637
  383MOL0     H52828   6.519   7.136   6.702  1.7002 -0.4693 -1.0435
  383MOL0     H52829   6.522   7.290   6.782 -0.5877  1.5076 -0.3343
  383MOL0     H52830   6.646   7.381   6.586 -0.8058 -0.0599 -0.0691
  383MOL0     H52831   6.635   7.224   6.497 -0.9076 -1.2948  0.8143
  383MOL0     H52832   6.770   7.122   6.671 -3.3128 -0.5706 -2.6752
  383MOL0     H52833   6.769   7.278   6.758  2.3505  2.3707 -0.8676
  383MOL0     H52834   5.718   6.958   6.491 -1.2929  0.6024 -1.3159
  383MOL0     H52835   5.478   6.917   6.467  1.2916 -1.4496 -0.4850
  383MOL0     H52836   5.048   6.997   6.701  0.6049  0.6776  2.7287
  383MOL0     H52837   4.839   6.952   6.752 -1.6909 -0.6634 -0.0408
  383MOL0     H52838   3.033   7.035   7.209 -0.2693  0.1453 -0.7183
  383MOL0     H52839   2.799   6.969   7.199 -0.9340 -1.7140 -0.8520
  383MOL0     H52840   2.560   6.503   7.188  0.0640 -1.0434  0.1123
  383MOL0     H52841   2.372   6.378   7.169  1.1139  1.1398 -1.3415
  383MOL0     H52842   2.078   6.381   7.167 -0.6825  1.6143  0.9883
  383MOL0     H52843   2.187   6.247   7.230  1.2310  1.0999 -0.4070
  383MOL0     H52844   1.911   6.277   7.354  1.2737 -1.0421  3.2915
  383MOL0     H52845   2.019   6.141   7.357  1.8641  0.9350  0.2151
  383MOL0     H52846   1.902   6.251   7.096  0.4173  1.8945  1.8041
  383MOL0     H52847   1.974   6.091   7.121  2.4226  1.7171  1.0318
  383MOL0     H52848   1.710   6.189   7.237  1.1853  1.9455  1.0896
  383MOL0     H52849   1.793   6.033   7.280 -0.4707 -0.7099 -0.2840
  383MOL0     H52850   1.670   5.904   6.914  0.8705 -0.3405  0.3093
  383MOL0     H52851   2.211   6.584   7.519  0.5729  1.0837  0.5448
  383MOL0     H52852   2.487   6.768   7.620  3.2672  2.5112 -3.2232
  383MOL0     H52853   2.417   6.880   7.502 -1.4522  1.0782  1.8451
  383MOL0     H52854   2.317   6.790   7.613 -0.8444 -1.6468  0.7487
  384MOL0     O52855   3.655   0.695   2.013 -0.3164  0.9617 -0.3916
  384MOL0     C52856   3.570   0.682   2.101  0.6539 -0.0971  0.4753
  384MOL0     O52857   3.577   0.603   2.200 -0.1535  1.0248  1.0729
  384MOL0     C52858   3.695   0.544   2.239 -0.3168  0.0703  0.0129
  384MOL0     C52859   3.717   0.551   2.371  0.1437  0.9810 -0.0636
  384MOL0     C52860   3.831   0.492   2.428 -0.5930  0.5816  0.6134
  384MOL0     C52861   3.920   0.417   2.353 -0.4538  0.7854  0.2391
  384MOL0     O52862   4.027   0.339   2.406  0.3648  0.9698 -0.0911
  384MOL0     C52863   4.158   0.375   2.362  0.0218  0.4143 -0.0415
  384MOL0     C52864   4.255   0.385   2.480 -0.2613 -0.8088  0.1870
  384MOL0     C52865   4.390   0.417   2.423 -0.5099  0.5768 -0.4048
  384MOL0     C52866   4.479   0.474   2.534  0.7104 -0.3142  1.0158
  384MOL0     C52867   4.612   0.513   2.470 -0.1047  0.4206  0.3764
  384MOL0     C52868   4.701   0.571   2.579 -0.0847  0.2993 -0.5191
  384MOL0     C52869   4.826   0.627   2.517 -0.1823 -0.3603  0.2399
  384MOL0     C52870   4.924   0.665   2.630  1.0060 -0.5901  0.0334
  384MOL0     N52871   5.063   0.678   2.586 -0.2788  0.0731  0.2193
  384MOL0     C52872   5.146   0.569   2.541 -0.0842  0.2384 -0.1867
  384MOL0     C52873   5.269   0.619   2.517 -0.5036 -0.1788  0.3756
  384MOL0     C52874   5.395   0.548   2.482  0.3723  0.5163  0.0794
  384MOL0     C52875   5.462   0.465   2.593 -0.8503 -0.3017 -0.2562
  384MOL0     C52876   5.487   0.552   2.711 -0.2470 -0.0499  0.0939
  384MOL0     C52877   5.572   0.475   2.808  0.1665  0.2757  0.4172
  384MOL0     O52878   5.714   0.490   2.785 -0.0130 -0.3556 -0.4317
  384MOL0     C52879   5.805   0.423   2.863 -0.4028 -0.1289  0.0569
  384MOL0     C52880   5.770   0.347   2.967  0.5124  0.0622 -1.0484
  384MOL0     C52881   5.862   0.272   3.045 -0.4628 -0.2922 -0.5157
  384MOL0     C52882   5.828   0.194   3.173  0.0464 -0.0921 -0.0155
  384MOL0     C52883   6.001   0.271   3.008 -0.6409 -1.0577  0.7696
  384MOL0     C52884   6.120   0.199   3.063  0.3599  0.6238  0.9982
  384MOL0     O52885   6.240   0.250   3.034  0.5638  0.8718  0.4860
  384MOL0     C52886   6.356   0.201   3.097 -0.9842  0.4235 -0.5542
  384MOL0     C52887   6.364   0.155   3.233  0.0097  0.4397 -0.4153
  384MOL0     C52888   6.487   0.116   3.290 -0.1675 -0.9454 -0.6215
  384MOL0     C52889   6.604   0.141   3.221 -0.8162 -0.9216  0.0185
  384MOL0     O52890   6.730   0.144   3.282  0.8004  0.8176 -0.2872
  384MOL0     C52891   6.848   0.100   3.210 -1.0138 -0.6591 -0.3876
  384MOL0     C52892   6.957   0.098   3.318 -0.1681  0.4555 -0.1110
  384MOL0     C52893   7.087   0.028   3.283 -0.1702 -0.0144 -0.0306
  384MOL0     C52894   7.065  -0.123   3.269 -0.1653 -0.1058 -0.0813
  384MOL0     C52895   7.194  -0.209   3.252  0.2771 -0.3957 -0.2079
  384MOL0     C52896   7.281  -0.219   3.381 -0.6504  0.4028 -0.3761
  384MOL0     C52897   7.419  -0.272   3.350  0.1285 -0.0159  0.0111
  384MOL0     C52898   7.512  -0.284   3.470 -0.0896  0.1044 -0.4937
  384MOL0    Cl52899   7.597  -0.124   3.500  0.0818 -0.2079 -0.3969
  384MOL0     C52900   6.596   0.189   3.088  0.0361  0.0623 -0.2520
  384MOL0     C52901   6.475   0.221   3.026  0.5075 -1.0810  0.5485
  384MOL0     O52902   6.103   0.086   3.113  0.0622 -0.5726  0.5032
  384MOL0     C52903   6.028   0.359   2.899 -0.5071 -0.3723  0.5090
  384MOL0     C52904   5.934   0.424   2.823 -0.3011 -0.0478  0.0045
  384MOL0     N52905   5.263   0.760   2.544 -0.6146  0.0480 -0.2327
  384MOL0     N52906   5.143   0.790   2.580 -0.7673  0.1729  0.2501
  384MOL0     C52907   3.890   0.402   2.220 -0.6174  0.0354  0.3976
  384MOL0     C52908   3.787   0.472   2.160 -0.4344  0.1400  0.1458
  384MOL0     C52909   3.449   0.761   2.079  0.1972  0.4810  0.2036
  384MOL0     C52910   3.453   0.856   1.979 -0.0655  0.0628  0.4261
  384MOL0     C52911   3.340   0.924   1.935 -0.1234 -0.2704 -0.3324
  384MOL0     C52912   3.218   0.914   2.001  0.0935  0.7292 -0.3143
  384MOL0     O52913   3.100   0.984   1.968 -0.1939 -0.1314 -0.2719
  384MOL0     C52914   3.108   1.082   1.868 -0.8474 -0.1521  0.2968
  384MOL0     C52915   2.988   1.179   1.877 -0.1619 -0.0855 -0.2784
  384MOL0     C52916   2.852   1.117   1.865 -0.4420  0.0883  0.0359
  384MOL0     C52917   2.742   1.223   1.863 -0.1190  0.7522  0.4539
  384MOL0     C52918   2.615   1.162   1.833  0.6567 -0.4580 -0.2927
  384MOL0     C52919   2.510   1.107   1.802 -0.3072 -0.2568  0.5801
  384MOL0     C52920   3.209   0.824   2.108 -0.3516  0.2095  0.3097
  384MOL0     C52921   3.329   0.753   2.148 -0.3296  0.5815  0.5141
  384MOL0     C52922   3.309   0.656   2.272  0.2769 -0.5617 -0.4114
  384MOL0     H52923   3.644   0.603   2.432  1.1609  0.6899  1.4452
  384MOL0     H52924   3.860   0.492   2.533  2.7148 -1.0871 -0.1387
  384MOL0     H52925   4.158   0.460   2.294 -2.4444 -0.5452 -1.3564
  384MOL0     H52926   4.189   0.286   2.307  1.1927  0.3969  0.6098
  384MOL0     H52927   4.214   0.465   2.541 -0.0380  0.0171 -0.7300
  384MOL0     H52928   4.275   0.288   2.528  2.5829 -0.0021  0.8305
  384MOL0     H52929   4.440   0.329   2.380  1.2024  1.1393  0.3529
  384MOL0     H52930   4.384   0.486   2.339 -0.7352  1.2896  0.1938
  384MOL0     H52931   4.440   0.559   2.590 -0.4435 -0.4304  0.4439
  384MOL0     H52932   4.488   0.381   2.591 -2.1911 -2.7758 -2.0212
  384MOL0     H52933   4.595   0.586   2.390 -1.7805  0.1267  0.4284
  384MOL0     H52934   4.664   0.430   2.421 -0.2991  0.9967 -0.8620
  384MOL0     H52935   4.645   0.654   2.623 -0.2665 -0.3101  0.4124
  384MOL0     H52936   4.725   0.496   2.655 -0.8724 -1.0693 -1.5663
  384MOL0     H52937   4.800   0.713   2.455 -0.6006 -0.8233 -0.2485
  384MOL0     H52938   4.872   0.554   2.449 -2.6036 -2.4037  0.6443
  384MOL0     H52939   4.891   0.755   2.683  4.7932 -0.2112  2.0487
  384MOL0     H52940   4.926   0.576   2.693 -1.2432 -0.4837  0.3267
  384MOL0     H52941   5.120   0.464   2.527 -1.1267  0.8332 -3.8810
  384MOL0     H52942   5.467   0.608   2.425  2.0097 -2.1229 -0.7873
  384MOL0     H52943   5.372   0.469   2.410  0.3284  1.1211 -0.5873
  384MOL0     H52944   5.406   0.377   2.626 -1.7473  1.2872  2.7790
  384MOL0     H52945   5.551   0.430   2.540  0.6132 -1.0121  2.5079
  384MOL0     H52946   5.546   0.640   2.685 -0.0203 -0.7551 -1.8940
  384MOL0     H52947   5.403   0.589   2.772  1.5666 -0.1636  2.8428
  384MOL0     H52948   5.559   0.516   2.908  0.8024 -2.1661  1.5780
  384MOL0     H52949   5.531   0.374   2.817 -1.1246  0.6323 -0.9782
  384MOL0     H52950   5.671   0.348   3.010  0.5920  1.3272 -0.8551
  384MOL0     H52951   5.873   0.096   3.153  2.8749  0.8985  1.1266
  384MOL0     H52952   5.719   0.193   3.186 -0.5161  2.1674 -3.3931
  384MOL0     H52953   5.881   0.235   3.259 -0.3992  1.6871 -0.5576
  384MOL0     H52954   6.277   0.162   3.298  0.9712 -0.2859  0.9903
  384MOL0     H52955   6.510   0.098   3.395 -2.4782  0.3743  0.1829
  384MOL0     H52956   6.839  -0.001   3.168  0.9238  0.0090 -2.6713
  384MOL0     H52957   6.880   0.167   3.129 -2.5246  0.4641 -0.1070
  384MOL0     H52958   6.983   0.197   3.356 -0.3181 -0.0864  1.4887
  384MOL0     H52959   6.917   0.042   3.404 -0.6944  1.9495  0.6452
  384MOL0     H52960   7.154   0.045   3.368  1.1337 -0.8514 -0.8531
  384MOL0     H52961   7.142   0.068   3.197  0.0559  0.8821  0.5187
  384MOL0     H52962   7.005  -0.134   3.178 -1.6623 -0.6661  0.9374
  384MOL0     H52963   7.004  -0.169   3.348  0.2824  1.4209  1.2053
  384MOL0     H52964   7.166  -0.312   3.227 -0.0862 -0.5511  0.7527
  384MOL0     H52965   7.256  -0.161   3.177 -0.6338 -0.8365 -1.2691
  384MOL0     H52966   7.231  -0.283   3.454  0.1996 -0.8283 -0.8409
  384MOL0     H52967   7.291  -0.123   3.434  2.1645 -1.1760  2.2917
  384MOL0     H52968   7.464  -0.215   3.268  3.3244 -3.0400 -0.6048
  384MOL0     H52969   7.386  -0.371   3.318 -1.6111 -0.5419  3.0802
  384MOL0     H52970   7.588  -0.363   3.465  1.3142  1.3193  0.6193
  384MOL0     H52971   7.462  -0.312   3.564  1.2562 -0.3088  0.1190
  384MOL0     H52972   6.689   0.211   3.038  0.4557 -0.0256  0.4736
  384MOL0     H52973   6.482   0.272   2.930  1.9123  0.6584  1.5142
  384MOL0     H52974   6.130   0.375   2.866 -0.9486  0.1847 -0.6233
  384MOL0     H52975   5.965   0.480   2.735  0.8327  0.0722  0.4689
  384MOL0     H52976   3.972   0.361   2.161 -0.4535  0.1585  0.5399
  384MOL0     H52977   3.782   0.470   2.052  1.7857 -2.9680 -0.0348
  384MOL0     H52978   3.533   0.865   1.907  1.7952 -3.6121  1.7598
  384MOL0     H52979   3.368   0.981   1.846  2.8471 -2.5108 -0.9934
  384MOL0     H52980   3.198   1.142   1.882 -1.0811 -0.4559  4.9021
  384MOL0     H52981   3.102   1.024   1.776  0.0195 -0.7683  0.6147
  384MOL0     H52982   2.996   1.263   1.807  1.1383  1.6215  1.7625
  384MOL0     H52983   2.994   1.229   1.975  0.1563 -1.5619  0.4842
  384MOL0     H52984   2.863   1.063   1.771  1.3257 -1.3504  0.9944
  384MOL0     H52985   2.834   1.045   1.945  0.1603 -0.9610 -0.7529
  384MOL0     H52986   2.772   1.295   1.787  2.2727 -0.3422  0.2639
  384MOL0     H52987   2.732   1.278   1.958 -1.7867  2.5831 -0.6982
  384MOL0     H52988   2.415   1.065   1.779 -0.8944  1.8510 -1.1144
  384MOL0     H52989   3.120   0.812   2.169 -0.5945  1.8285  0.3194
  384MOL0     H52990   3.313   0.548   2.255 -1.6536 -1.5645  4.0645
  384MOL0     H52991   3.387   0.681   2.345  1.7012 -2.2869 -1.2703
  384MOL0     H52992   3.210   0.673   2.314  0.6104  4.2713 -1.0502
  385MOL0     O52993   3.010   0.569   9.035 -0.0821 -0.5048 -0.1431
  385MOL0     C52994   2.921   0.486   9.037  0.6954 -0.5645  0.7550
  385MOL0     O52995   2.924   0.373   8.961  0.5443  0.0536  0.5012
  385MOL0     C52996   3.031   0.363   8.870  0.4142  0.0436 -0.0363
  385MOL0     C52997   3.019   0.411   8.738  0.0747 -0.5444  0.5930
  385MOL0     C52998   3.113   0.383   8.639  0.8687  0.5443  0.6364
  385MOL0     C52999   3.228   0.305   8.675  0.9696 -0.9468 -0.3648
  385MOL0     O53000   3.326   0.266   8.585  0.2541 -0.8479 -0.0924
  385MOL0     C53001   3.317   0.310   8.449 -0.1455  0.4401 -0.1218
  385MOL0     C53002   3.427   0.232   8.366  0.3176  0.2702  0.1654
  385MOL0     C53003   3.558   0.304   8.378 -1.1389  0.7510  0.0875
  385MOL0     C53004   3.677   0.224   8.334  0.2425  0.2225  1.0388
  385MOL0     C53005   3.811   0.272   8.392 -0.1697  0.2592  0.1337
  385MOL0     C53006   3.918   0.166   8.368 -0.3556 -0.0043  0.1131
  385MOL0     C53007   4.054   0.220   8.421 -0.8561  0.6212 -0.4028
  385MOL0     C53008   4.158   0.110   8.396 -1.0206  0.7206  0.2133
  385MOL0     N53009   4.138  -0.013   8.470  0.3455 -0.4364  0.1637
  385MOL0     C53010   4.166  -0.035   8.604 -0.3571 -0.4026 -0.2400
  385MOL0     C53011   4.151  -0.167   8.633  0.0618 -0.3743 -0.2766
  385MOL0     C53012   4.191  -0.236   8.764  0.1292  0.4013  0.2869
  385MOL0     C53013   4.347  -0.230   8.778 -0.0514 -0.4980 -0.6955
  385MOL0     C53014   4.382  -0.340   8.869  0.4798  0.6154 -0.3914
  385MOL0     C53015   4.519  -0.344   8.927 -0.7069 -0.1570  0.0837
  385MOL0     O53016   4.618  -0.373   8.830 -0.0886  0.3168  0.0196
  385MOL0     C53017   4.749  -0.359   8.857 -0.5342 -0.1458  0.3351
  385MOL0     C53018   4.808  -0.321   8.976  0.6004  0.3458  0.2779
  385MOL0     C53019   4.949  -0.304   8.990 -0.4525  0.4266 -1.0054
  385MOL0     C53020   5.004  -0.281   9.133  0.2681  0.2285 -0.6486
  385MOL0     C53021   5.032  -0.322   8.883 -0.0443 -0.3203  0.0325
  385MOL0     C53022   5.184  -0.314   8.882  0.4262 -0.3296 -0.6730
  385MOL0     O53023   5.244  -0.391   8.792 -0.2561 -0.1850 -0.3133
  385MOL0     C53024   5.376  -0.361   8.745  0.6275  0.6072 -0.3469
  385MOL0     C53025   5.461  -0.465   8.699  0.6219  0.5754 -0.2757
  385MOL0     C53026   5.574  -0.435   8.629 -0.0668 -0.4316  0.7093
  385MOL0     C53027   5.622  -0.305   8.604  0.0188  2.4143 -1.2929
  385MOL0     O53028   5.728  -0.265   8.526 -0.4022 -0.0578 -0.4131
  385MOL0     C53029   5.848  -0.335   8.515 -0.8753  0.0821 -0.4489
  385MOL0     C53030   5.931  -0.285   8.401 -1.1048  0.1072 -0.3031
  385MOL0     C53031   6.076  -0.354   8.401 -0.2962  0.0185 -0.4106
  385MOL0     C53032   6.178  -0.266   8.469  0.3850 -0.7583  0.0173
  385MOL0     C53033   6.320  -0.324   8.458 -0.3442 -0.1595 -0.2577
  385MOL0     C53034   6.425  -0.204   8.441  0.2140 -0.4916  0.2865
  385MOL0     C53035   6.569  -0.255   8.448  0.3550  0.2417  0.7040
  385MOL0     C53036   6.677  -0.159   8.406  0.9191 -1.3395  0.1594
  385MOL0    Cl53037   6.844  -0.212   8.461 -0.0551 -0.2646 -0.3601
  385MOL0     C53038   5.535  -0.207   8.661  0.0566 -0.4620  0.2894
  385MOL0     C53039   5.415  -0.234   8.729  0.2246 -0.3119 -0.2046
  385MOL0     O53040   5.246  -0.232   8.961  1.1849  0.4340 -0.5628
  385MOL0     C53041   4.967  -0.349   8.754 -1.3595 -0.0397 -0.6992
  385MOL0     C53042   4.831  -0.371   8.743 -0.2556  0.0675 -0.0200
  385MOL0     N53043   4.128  -0.222   8.509  0.2702  0.0810  0.9794
  385MOL0     N53044   4.102  -0.133   8.414 -0.0185 -0.0039  0.7650
  385MOL0     C53045   3.238   0.261   8.807 -0.7073  0.5561  0.2067
  385MOL0     C53046   3.146   0.292   8.904  0.6783 -0.8293 -0.7633
  385MOL0     C53047   2.810   0.500   9.125 -0.0819 -0.2510 -0.9236
  385MOL0     C53048   2.783   0.384   9.199 -0.3232 -0.5344 -0.1570
  385MOL0     C53049   2.672   0.372   9.273  0.7706 -0.1234 -0.1171
  385MOL0     C53050   2.571   0.474   9.276  0.1133 -0.7034 -0.0053
  385MOL0     O53051   2.450   0.467   9.326  0.9260  0.3290 -0.7722
  385MOL0     C53052   2.426   0.383   9.437  0.4256 -0.1488 -0.5334
  385MOL0     C53053   2.327   0.456   9.525 -0.1028 -0.5499 -0.3484
  385MOL0     C53054   2.186   0.428   9.477 -0.0212  0.3308 -0.3946
  385MOL0     C53055   2.089   0.509   9.556 -0.2032 -0.4872 -0.0202
  385MOL0     C53056   1.949   0.480   9.524 -0.1124  0.4710 -0.1481
  385MOL0     C53057   1.838   0.467   9.486  0.1311 -0.2900 -0.2762
  385MOL0     C53058   2.601   0.593   9.199 -0.6998  0.3674  0.0308
  385MOL0     C53059   2.722   0.608   9.127 -0.6821 -0.2653 -0.5646
  385MOL0     C53060   2.754   0.736   9.055 -0.4515  0.1403 -0.1548
  385MOL0     H53061   2.941   0.484   8.719  0.3279 -0.5625 -0.5908
  385MOL0     H53062   3.100   0.426   8.541  0.5412  0.8427  0.8077
  385MOL0     H53063   3.308   0.418   8.439  1.3945  0.6959  0.8651
  385MOL0     H53064   3.224   0.267   8.409 -0.6383  1.3496  0.0293
  385MOL0     H53065   3.428   0.133   8.414 -2.6738  0.0492 -0.0539
  385MOL0     H53066   3.396   0.224   8.262 -1.9851  0.7587  0.7635
  385MOL0     H53067   3.564   0.390   8.309  1.5646  0.6222  0.0732
  385MOL0     H53068   3.574   0.340   8.480  0.3949 -0.4830  0.3045
  385MOL0     H53069   3.665   0.127   8.382  1.1942  0.5900  2.0579
  385MOL0     H53070   3.676   0.212   8.225  1.4621  1.3653  0.8743
  385MOL0     H53071   3.796   0.286   8.499 -1.1731  0.6576 -0.0450
  385MOL0     H53072   3.849   0.365   8.348  0.6012 -0.0808  0.0667
  385MOL0     H53073   3.886   0.066   8.400  2.7785 -1.2704 -0.3497
  385MOL0     H53074   3.933   0.150   8.261  1.6966 -0.7530  0.4839
  385MOL0     H53075   4.055   0.237   8.529 -0.4054  0.7442 -0.4265
  385MOL0     H53076   4.092   0.310   8.371  1.0219 -0.2684 -0.6750
  385MOL0     H53077   4.150   0.100   8.287 -1.2438  0.3361  0.2661
  385MOL0     H53078   4.256   0.148   8.424 -1.2054  0.3847  1.3575
  385MOL0     H53079   4.202   0.039   8.674  2.5409 -0.5480 -1.4405
  385MOL0     H53080   4.154  -0.338   8.768  0.3987  0.3213  0.8256
  385MOL0     H53081   4.143  -0.194   8.853 -0.9299 -2.5401  1.1948
  385MOL0     H53082   4.401  -0.246   8.685  0.3128 -0.3528 -0.5116
  385MOL0     H53083   4.373  -0.140   8.834  0.2477 -1.3328  0.5754
  385MOL0     H53084   4.318  -0.329   8.957  0.0622  1.2094 -0.7683
  385MOL0     H53085   4.365  -0.432   8.813  0.0439  0.0019  0.7136
  385MOL0     H53086   4.532  -0.240   8.957  0.6012 -0.2549 -0.1010
  385MOL0     H53087   4.525  -0.401   9.021 -4.0545  0.3687  0.7477
  385MOL0     H53088   4.743  -0.301   9.061 -1.3119 -1.2248 -0.7449
  385MOL0     H53089   4.947  -0.325   9.216  1.6784  3.5142  2.3534
  385MOL0     H53090   4.996  -0.173   9.149 -2.2570 -0.3094  3.1149
  385MOL0     H53091   5.109  -0.311   9.139 -0.1476 -1.0387  0.8223
  385MOL0     H53092   5.444  -0.567   8.732  0.0611  0.8680  0.3495
  385MOL0     H53093   5.635  -0.519   8.595 -1.9520 -1.7089  0.3638
  385MOL0     H53094   5.901  -0.315   8.608 -0.9577  1.0654 -0.6016
  385MOL0     H53095   5.835  -0.444   8.518 -0.2156  0.0251  0.9673
  385MOL0     H53096   5.880  -0.306   8.306 -0.3552 -3.6317 -0.0302
  385MOL0     H53097   5.946  -0.176   8.401 -0.8634  0.1197 -2.3791
  385MOL0     H53098   6.098  -0.363   8.294 -1.0804 -1.2895 -0.4760
  385MOL0     H53099   6.073  -0.457   8.437  0.1646  0.5706  1.3115
  385MOL0     H53100   6.150  -0.248   8.574 -1.9062 -0.6738 -0.5637
  385MOL0     H53101   6.178  -0.174   8.409 -1.0077 -0.6024  0.2187
  385MOL0     H53102   6.343  -0.378   8.551  0.2385 -2.5828 -1.7178
  385MOL0     H53103   6.322  -0.382   8.365 -1.5110 -0.1835 -0.2901
  385MOL0     H53104   6.407  -0.128   8.519 -0.4531 -1.2458  0.8913
  385MOL0     H53105   6.413  -0.158   8.343  0.9940  0.0065  0.4175
  385MOL0     H53106   6.576  -0.340   8.379  3.2181  1.6888 -0.9937
  385MOL0     H53107   6.588  -0.286   8.551 -2.5857  0.5907  1.4323
  385MOL0     H53108   6.644  -0.062   8.445 -0.7001 -2.2998  1.3065
  385MOL0     H53109   6.662  -0.138   8.299  2.7160 -0.7600 -0.0112
  385MOL0     H53110   5.572  -0.108   8.637  0.2037 -0.5590  0.1115
  385MOL0     H53111   5.351  -0.149   8.749 -0.6627 -0.5328 -1.9247
  385MOL0     H53112   5.033  -0.350   8.668  1.0398  0.7582  1.0343
  385MOL0     H53113   4.791  -0.399   8.646  0.1844  0.9519 -0.4718
  385MOL0     H53114   3.336   0.215   8.818  0.4301  2.9005  0.6762
  385MOL0     H53115   3.152   0.265   9.009  0.2967  1.1427 -0.2032
  385MOL0     H53116   2.853   0.301   9.193 -0.7802 -1.0770  1.6453
  385MOL0     H53117   2.639   0.276   9.311 -0.9260 -0.4055 -2.1399
  385MOL0     H53118   2.376   0.292   9.401  0.3281  0.3292 -1.6494
  385MOL0     H53119   2.521   0.367   9.488  0.8651  1.5577 -0.7760
  385MOL0     H53120   2.346   0.564   9.522 -2.5884 -0.0218 -0.0588
  385MOL0     H53121   2.341   0.415   9.626 -2.2719 -2.8502 -0.8654
  385MOL0     H53122   2.182   0.469   9.376  5.2645 -1.3115 -1.5556
  385MOL0     H53123   2.170   0.320   9.478 -0.2425  0.3621 -0.0227
  385MOL0     H53124   2.118   0.614   9.548 -1.7976 -0.0046  0.1964
  385MOL0     H53125   2.103   0.470   9.658  2.1746 -0.8824 -0.4548
  385MOL0     H53126   1.739   0.452   9.448  1.5079  0.6565 -4.7367
  385MOL0     H53127   2.537   0.680   9.205  2.0430  2.7938 -2.6802
  385MOL0     H53128   2.857   0.764   9.079  2.0294 -4.3893 -3.8280
  385MOL0     H53129   2.751   0.735   8.946  0.2509  3.1761 -0.2742
  385MOL0     H53130   2.696   0.819   9.096  0.8409 -0.5172  3.3899
  386MOL0     O53131   6.749   6.660   8.369 -0.1517  0.1149  0.1785
  386MOL0     C53132   6.727   6.659   8.492 -0.3552 -0.1112 -0.3184
  386MOL0     O53133   6.815   6.623   8.583  0.0049 -0.3645 -0.0985
  386MOL0     C53134   6.945   6.619   8.541  0.9934 -0.9229 -0.6392
  386MOL0     C53135   7.022   6.496   8.553 -0.2364  0.0255 -0.8180
  386MOL0     C53136   7.158   6.496   8.520 -0.6819 -0.4255 -0.1747
  386MOL0     C53137   7.226   6.618   8.506 -0.2845 -0.3265  0.0845
  386MOL0     O53138   7.366   6.636   8.502 -0.1307  0.3231  0.2247
  386MOL0     C53139   7.453   6.522   8.535 -0.8951  0.1308 -0.0929
  386MOL0     C53140   7.598   6.568   8.575 -0.2493  1.3362 -0.1410
  386MOL0     C53141   7.707   6.478   8.521 -0.9174  0.4177 -0.1684
  386MOL0     C53142   7.690   6.341   8.568 -0.1921  0.2401 -0.0352
  386MOL0     C53143   7.799   6.255   8.504 -0.8732  0.2226 -0.8850
  386MOL0     C53144   7.803   6.112   8.564  0.0288  1.1700 -0.6026
  386MOL0     C53145   7.909   6.022   8.492  0.2356  0.1127 -0.1964
  386MOL0     C53146   8.055   6.077   8.484  0.3164  0.1214 -0.2822
  386MOL0     N53147   8.118   6.104   8.617  0.0962 -0.5188 -0.3976
  386MOL0     C53148   8.109   6.036   8.739  0.1359 -0.4162  0.1920
  386MOL0     C53149   8.186   6.096   8.826 -0.1703  0.2598  0.4602
  386MOL0     C53150   8.209   6.063   8.971  0.4635 -0.5075  0.1117
  386MOL0     C53151   8.290   5.938   8.993  0.2269  0.2134  0.0445
  386MOL0     C53152   8.432   5.947   8.940  0.2468  0.2839 -0.0657
  386MOL0     C53153   8.505   5.814   8.944  0.2923 -0.5410 -0.0935
  386MOL0     O53154   8.430   5.721   8.864 -0.2716  0.3820 -0.1637
  386MOL0     C53155   8.482   5.713   8.738 -0.4879 -0.5524 -0.3017
  386MOL0     C53156   8.590   5.629   8.703  0.4779  0.2194 -0.1329
  386MOL0     C53157   8.637   5.613   8.582  0.2431 -0.0008 -0.4733
  386MOL0     C53158   8.732   5.502   8.565  0.0447  0.1178 -0.2141
  386MOL0     C53159   8.590   5.697   8.477 -0.3578  0.2988 -0.9582
  386MOL0     C53160   8.655   5.702   8.336 -0.1658 -0.4252  0.7965
  386MOL0     O53161   8.727   5.595   8.289  0.2408 -0.2086  0.0371
  386MOL0     C53162   8.768   5.613   8.160 -0.4125 -0.7228  0.0786
  386MOL0     C53163   8.903   5.653   8.140  0.2078 -0.0597 -0.5408
  386MOL0     C53164   8.958   5.673   8.012  0.0756 -0.9529  0.1504
  386MOL0     C53165   8.884   5.670   7.896 -0.0570  0.4802 -0.2841
  386MOL0     O53166   8.926   5.713   7.773  0.3767  0.7183 -0.0305
  386MOL0     C53167   9.056   5.763   7.753  0.6021 -0.4959  1.0847
  386MOL0     C53168   9.055   5.826   7.618  0.5701  0.1308 -0.8296
  386MOL0     C53169   9.193   5.859   7.570  0.3782 -0.3903  0.0165
  386MOL0     C53170   9.266   5.955   7.658 -0.4484  0.3827  0.7896
  386MOL0     C53171   9.416   5.979   7.627  0.1437 -0.0660 -0.7666
  386MOL0     C53172   9.464   5.995   7.484  0.0637 -0.0730  0.6602
  386MOL0     C53173   9.605   6.061   7.470 -0.2813 -0.0300 -0.1804
  386MOL0     C53174   9.683   5.993   7.360 -0.5366 -0.1036 -0.7322
  386MOL0    Cl53175   9.732   5.827   7.413  0.1457  0.1299  0.0278
  386MOL0     C53176   8.754   5.626   7.907 -0.1165 -0.1262 -0.3290
  386MOL0     C53177   8.697   5.593   8.033  0.6259  0.6779 -0.4358
  386MOL0     O53178   8.633   5.796   8.264  0.0835  0.2236 -0.3517
  386MOL0     C53179   8.478   5.767   8.504 -0.5443  1.0214 -0.4033
  386MOL0     C53180   8.424   5.783   8.630 -0.1382  0.2112 -1.1094
  386MOL0     N53181   8.248   6.200   8.752 -0.2260 -0.4105  0.2257
  386MOL0     N53182   8.209   6.205   8.628  0.4679  0.2232 -0.6337
  386MOL0     C53183   7.155   6.739   8.497  0.2981  0.6490 -0.1235
  386MOL0     C53184   7.009   6.734   8.499  0.8741 -0.4462 -0.5818
  386MOL0     C53185   6.592   6.690   8.543  0.6270  1.2620  0.8789
  386MOL0     C53186   6.483   6.685   8.443 -0.0767  0.0272  0.0105
  386MOL0     C53187   6.353   6.719   8.471 -0.1789 -0.2130  0.9236
  386MOL0     C53188   6.317   6.756   8.603 -0.1086 -0.4015 -0.3022
  386MOL0     O53189   6.188   6.794   8.628  0.3141  0.0942 -0.2962
  386MOL0     C53190   6.127   6.814   8.757 -0.4005  0.4967  0.7503
  386MOL0     C53191   5.994   6.890   8.751 -0.4892  0.1547  0.1925
  386MOL0     C53192   5.904   6.857   8.872  0.9538 -1.0974  0.1930
  386MOL0     C53193   5.762   6.902   8.835 -0.0093 -0.3673 -0.0951
  386MOL0     C53194   5.664   6.899   8.942 -1.0955 -1.0680  0.9321
  386MOL0     C53195   5.588   6.901   9.034 -0.2293 -0.8637  0.1795
  386MOL0     C53196   6.421   6.745   8.707  0.2278  0.1007  0.3135
  386MOL0     C53197   6.553   6.715   8.677 -0.3619  0.8808 -0.2743
  386MOL0     C53198   6.656   6.714   8.786 -0.6302 -0.2097 -0.2389
  386MOL0     H53199   6.964   6.412   8.589 -1.8208  0.7226 -1.6441
  386MOL0     H53200   7.217   6.406   8.506  0.8869  0.2791  1.4740
  386MOL0     H53201   7.462   6.463   8.443 -0.2495  0.8931 -0.5380
  386MOL0     H53202   7.401   6.467   8.614 -1.2111  2.4539  1.4071
  386MOL0     H53203   7.622   6.673   8.556  4.0680  0.3744 -0.9733
  386MOL0     H53204   7.605   6.569   8.685  2.7805  2.3942 -0.2670
  386MOL0     H53205   7.709   6.481   8.411  2.3996 -1.3398 -0.3020
  386MOL0     H53206   7.802   6.523   8.551 -0.1960 -1.7173  0.9401
  386MOL0     H53207   7.691   6.337   8.678 -1.9701 -1.8962 -0.0344
  386MOL0     H53208   7.595   6.294   8.541 -0.3781 -0.2088  1.2998
  386MOL0     H53209   7.892   6.311   8.519 -0.4485 -0.8147  0.5194
  386MOL0     H53210   7.776   6.245   8.398  0.1579 -2.6913 -0.9147
  386MOL0     H53211   7.838   6.125   8.667  0.3306  0.0108 -0.5445
  386MOL0     H53212   7.705   6.063   8.572  0.9508 -0.5318  1.6225
  386MOL0     H53213   7.860   5.995   8.398 -4.1767  1.8654  1.3120
  386MOL0     H53214   7.922   5.924   8.540 -0.8906  1.1530  2.4189
  386MOL0     H53215   8.117   6.009   8.425  0.0406  0.7269 -1.2952
  386MOL0     H53216   8.054   6.171   8.427 -0.9858 -0.8667 -1.9963
  386MOL0     H53217   8.047   5.950   8.764 -0.8073  0.0509 -0.4660
  386MOL0     H53218   8.112   6.045   9.017  0.8379 -1.2058  0.6591
  386MOL0     H53219   8.259   6.145   9.024  3.0502 -1.2089 -1.0862
  386MOL0     H53220   8.293   5.906   9.097  0.9883 -3.4388 -0.9677
  386MOL0     H53221   8.238   5.858   8.941  1.1206 -0.2431 -0.1820
  386MOL0     H53222   8.431   5.983   8.836  1.1259  0.7287  0.0655
  386MOL0     H53223   8.484   6.024   8.998 -0.5460  1.6842 -1.1360
  386MOL0     H53224   8.605   5.827   8.902 -1.1173  0.4141 -3.4451
  386MOL0     H53225   8.517   5.777   9.046  0.6104 -1.3611 -0.4263
  386MOL0     H53226   8.635   5.572   8.785 -0.7580  0.0969  0.4824
  386MOL0     H53227   8.770   5.475   8.664 -0.3022  4.4406  1.3096
  386MOL0     H53228   8.821   5.526   8.506  0.2119 -3.6503 -1.7836
  386MOL0     H53229   8.675   5.421   8.518 -2.3698  1.2975  0.5243
  386MOL0     H53230   8.967   5.661   8.228 -2.0011  1.0184  1.0881
  386MOL0     H53231   9.063   5.700   8.015 -0.3583  1.7687 -3.3343
  386MOL0     H53232   9.069   5.847   7.822 -0.2548  0.4364  0.1504
  386MOL0     H53233   9.139   5.692   7.760 -0.3043 -2.2241 -2.8977
  386MOL0     H53234   9.012   5.758   7.544 -2.2514  0.5214  0.3222
  386MOL0     H53235   9.004   5.923   7.611  0.4203 -0.0429 -3.2073
  386MOL0     H53236   9.181   5.900   7.469  0.6590 -0.7555 -0.1620
  386MOL0     H53237   9.250   5.767   7.558 -0.4362 -0.9766  0.4959
  386MOL0     H53238   9.260   5.910   7.757 -0.2529  0.6926  0.9414
  386MOL0     H53239   9.211   6.049   7.652  1.1363  1.2929 -3.8178
  386MOL0     H53240   9.441   6.064   7.691 -2.8931  0.4086 -0.0546
  386MOL0     H53241   9.473   5.891   7.659 -2.9034 -2.5649 -1.6542
  386MOL0     H53242   9.404   6.054   7.414 -0.1127 -0.2875  0.6305
  386MOL0     H53243   9.473   5.895   7.442  0.0590  0.8155 -1.6122
  386MOL0     H53244   9.653   6.063   7.568 -0.6495  1.2345 -0.0119
  386MOL0     H53245   9.588   6.164   7.438 -0.8107  0.0803  0.4474
  386MOL0     H53246   9.777   6.044   7.339 -0.8806 -1.2192 -6.9280
  386MOL0     H53247   9.624   5.993   7.268 -1.7981  0.1068  0.0597
  386MOL0     H53248   8.703   5.598   7.816 -2.5843 -1.1947  1.2770
  386MOL0     H53249   8.599   5.547   8.020  1.4486 -0.5889 -2.5515
  386MOL0     H53250   8.437   5.821   8.419 -0.2622  1.0482 -0.5237
  386MOL0     H53251   8.344   5.854   8.647  1.0651  1.7491 -1.6470
  386MOL0     H53252   7.212   6.826   8.463 -0.1400  1.2034  0.5464
  386MOL0     H53253   6.962   6.829   8.475 -0.3098 -1.0491 -0.7534
  386MOL0     H53254   6.498   6.663   8.338 -2.8776  2.1816 -0.9621
  386MOL0     H53255   6.277   6.735   8.395 -1.0531 -0.3169  1.7427
  386MOL0     H53256   6.101   6.716   8.800  0.4982 -0.9997 -1.8943
  386MOL0     H53257   6.194   6.874   8.819 -0.7157  0.2183  1.3819
  386MOL0     H53258   5.943   6.868   8.656  0.4210  0.8268 -0.4797
  386MOL0     H53259   6.023   6.995   8.740  1.2171 -0.2467  0.6027
  386MOL0     H53260   5.897   6.751   8.898  0.5117 -1.3347 -0.8409
  386MOL0     H53261   5.946   6.926   8.946  1.8281  0.3368 -1.5406
  386MOL0     H53262   5.726   6.832   8.758 -1.8048 -0.8935  1.1581
  386MOL0     H53263   5.756   7.006   8.803 -1.1949  0.2842  2.0682
  386MOL0     H53264   5.522   6.912   9.118  0.3353 -2.4357  0.8549
  386MOL0     H53265   6.408   6.755   8.814  5.9320 -4.4090  1.9462
  386MOL0     H53266   6.618   6.756   8.880  1.4817 -1.8639  1.4811
  386MOL0     H53267   6.668   6.608   8.811 -2.6554 -0.3980  0.1752
  386MOL0     H53268   6.746   6.772   8.764 -0.2420 -0.7227 -0.0095
  387MOL0     O53269   2.912   7.970   4.138 -0.3668  0.1950 -0.0911
  387MOL0     C53270   2.870   8.005   4.244  0.2254 -0.0138  0.5954
  387MOL0     O53271   2.926   8.112   4.322  0.5623 -0.0008  0.1835
  387MOL0     C53272   3.036   8.183   4.282 -0.6903  0.4219  0.6834
  387MOL0     C53273   3.152   8.117   4.243 -0.7951  0.7933  0.3630
  387MOL0     C53274   3.260   8.199   4.200 -0.4604 -0.3389 -0.0136
  387MOL0     C53275   3.261   8.344   4.206 -0.1930  0.6119  0.1498
  387MOL0     O53276   3.374   8.426   4.190  0.1148  0.4002 -0.5565
  387MOL0     C53277   3.485   8.355   4.135 -0.1717  0.2068  0.3213
  387MOL0     C53278   3.595   8.460   4.146  0.4333 -0.4047 -0.3894
  387MOL0     C53279   3.725   8.401   4.089  0.2479 -0.2403  0.5711
  387MOL0     C53280   3.835   8.507   4.081  0.1919  0.4709  0.4323
  387MOL0     C53281   3.948   8.447   3.994 -0.2442 -0.1378  0.2246
  387MOL0     C53282   4.047   8.553   3.936  0.3499 -0.5627  0.3211
  387MOL0     C53283   4.095   8.645   4.049  0.0043 -0.3102 -0.2201
  387MOL0     C53284   4.173   8.575   4.158  0.3366  0.3355 -0.1004
  387MOL0     N53285   4.235   8.666   4.257  0.0756 -0.4070 -0.3260
  387MOL0     C53286   4.167   8.718   4.370  0.5703  0.3306  0.7593
  387MOL0     C53287   4.248   8.812   4.423 -0.3901 -0.2013 -0.9547
  387MOL0     C53288   4.217   8.901   4.544 -0.2034  1.2334 -0.4092
  387MOL0     C53289   4.341   8.971   4.603 -0.5482 -0.6467 -0.4218
  387MOL0     C53290   4.452   8.877   4.649 -0.7705 -0.1402 -0.3835
  387MOL0     C53291   4.427   8.799   4.773 -0.0803 -1.0303 -0.4182
  387MOL0     O53292   4.392   8.886   4.877 -0.0665 -0.0863 -0.0830
  387MOL0     C53293   4.315   8.851   4.988  0.2706 -0.3935 -0.7076
  387MOL0     C53294   4.317   8.719   5.049 -1.0807  0.0395  0.8743
  387MOL0     C53295   4.243   8.677   5.155  0.5862 -0.6819 -1.2323
  387MOL0     C53296   4.262   8.547   5.218  0.7918  1.2259  0.2486
  387MOL0     C53297   4.147   8.768   5.206  0.6183 -0.4002 -0.1236
  387MOL0     C53298   4.036   8.726   5.298  0.2329  0.2679  0.0939
  387MOL0     O53299   3.975   8.830   5.354 -0.8249 -1.2186  0.0415
  387MOL0     C53300   3.902   8.825   5.473 -0.5624 -0.2017  1.0791
  387MOL0     C53301   3.937   8.903   5.578  0.8106 -0.1215  0.6020
  387MOL0     C53302   3.869   8.890   5.702  0.3022 -0.3967 -0.1930
  387MOL0     C53303   3.754   8.806   5.718  0.5529 -0.3475  0.9446
  387MOL0     O53304   3.685   8.805   5.834  0.7464  0.0019 -0.0352
  387MOL0     C53305   3.542   8.785   5.819 -1.0050  0.2918  0.2424
  387MOL0     C53306   3.525   8.650   5.888  0.3081 -0.0306  0.3005
  387MOL0     C53307   3.376   8.621   5.867  0.4699 -1.0608  0.1398
  387MOL0     C53308   3.312   8.541   5.970 -1.0837  0.0581 -0.0797
  387MOL0     C53309   3.174   8.496   5.917  0.3143  0.5950 -0.4781
  387MOL0     C53310   3.096   8.397   6.013  0.5749 -0.5814  0.1914
  387MOL0     C53311   2.989   8.321   5.947  0.1495 -0.3111 -0.3487
  387MOL0     C53312   2.886   8.250   6.034 -0.1760 -0.6463  0.0746
  387MOL0    Cl53313   2.983   8.149   6.145  0.6912 -0.0017  0.1579
  387MOL0     C53314   3.721   8.731   5.601  1.3213 -1.6489 -0.8518
  387MOL0     C53315   3.787   8.744   5.477 -0.3578 -0.0465  0.6995
  387MOL0     O53316   3.995   8.616   5.312 -0.4442  0.0350  0.2631
  387MOL0     C53317   4.142   8.898   5.142 -0.0843  0.7035  0.5175
  387MOL0     C53318   4.216   8.940   5.032 -1.1144  0.2317  0.2853
  387MOL0     N53319   4.359   8.820   4.344 -1.0659 -0.0002 -0.0978
  387MOL0     N53320   4.350   8.732   4.248  0.5894 -0.3682  0.2372
  387MOL0     C53321   3.137   8.404   4.234 -0.4226  0.0872 -0.0442
  387MOL0     C53322   3.028   8.319   4.262 -0.5329  0.3797  0.1243
  387MOL0     C53323   2.754   7.938   4.294  0.0821 -0.4066  0.2469
  387MOL0     C53324   2.651   8.020   4.359  0.0054  0.5853  0.7679
  387MOL0     C53325   2.537   7.966   4.410 -0.1576 -0.6234 -0.2880
  387MOL0     C53326   2.519   7.826   4.420 -0.0399  0.3978 -0.2932
  387MOL0     O53327   2.412   7.763   4.471 -0.5422  0.2567 -0.0782
  387MOL0     C53328   2.306   7.839   4.538 -0.3787 -0.2588 -0.1080
  387MOL0     C53329   2.194   7.756   4.600  0.2456  0.5015 -0.1565
  387MOL0     C53330   2.234   7.633   4.682  0.3833  0.2401 -0.7061
  387MOL0     C53331   2.104   7.567   4.737 -0.2249  0.4970  0.1262
  387MOL0     C53332   2.138   7.465   4.839  0.0123 -1.4826  0.5422
  387MOL0     C53333   2.157   7.387   4.922  0.3634 -0.2855 -0.0976
  387MOL0     C53334   2.602   7.754   4.340  0.4887 -0.0939  0.1300
  387MOL0     C53335   2.723   7.802   4.288 -0.9467 -0.3999  1.4501
  387MOL0     C53336   2.818   7.699   4.214  0.0610  0.1169 -0.6231
  387MOL0     H53337   3.145   8.009   4.243 -3.8268  0.9039  0.0788
  387MOL0     H53338   3.344   8.141   4.163  0.3572  1.0053 -0.3263
  387MOL0     H53339   3.460   8.318   4.035 -0.1019 -0.2856  0.4827
  387MOL0     H53340   3.515   8.266   4.190  2.1612  0.2932 -0.6721
  387MOL0     H53341   3.561   8.546   4.087 -1.8615 -1.3542 -0.5238
  387MOL0     H53342   3.606   8.490   4.251  0.0699 -4.0207  0.8262
  387MOL0     H53343   3.762   8.309   4.137 -0.0405 -1.0733 -0.7563
  387MOL0     H53344   3.701   8.366   3.988  0.4824  0.2446  0.3478
  387MOL0     H53345   3.803   8.602   4.036 -1.0511  0.3793  1.0868
  387MOL0     H53346   3.875   8.533   4.179 -0.8358 -1.4999  1.4169
  387MOL0     H53347   3.904   8.396   3.908 -0.5392  0.2055  0.1704
  387MOL0     H53348   4.016   8.378   4.046  2.8201  1.1452 -1.7714
  387MOL0     H53349   4.136   8.503   3.897  0.6370 -0.3486  0.6984
  387MOL0     H53350   3.993   8.611   3.860  1.0971 -0.4533 -0.1407
  387MOL0     H53351   4.019   8.708   4.096  2.0181  0.7328  1.8919
  387MOL0     H53352   4.161   8.719   4.001  0.0911  0.0216  0.3918
  387MOL0     H53353   4.103   8.509   4.210  1.5705  0.3629  1.7010
  387MOL0     H53354   4.245   8.507   4.111 -2.7047 -1.7789 -2.0372
  387MOL0     H53355   4.070   8.696   4.413  0.4065 -1.1396 -0.2825
  387MOL0     H53356   4.168   8.843   4.622  1.1452  2.4036  1.3921
  387MOL0     H53357   4.150   8.979   4.510 -1.5599 -0.0556 -0.7873
  387MOL0     H53358   4.388   9.037   4.529  0.8306 -3.6201 -2.4340
  387MOL0     H53359   4.313   9.035   4.687 -0.3082 -0.0626 -0.7767
  387MOL0     H53360   4.482   8.812   4.566 -1.7803 -3.2892  1.5590
  387MOL0     H53361   4.547   8.925   4.675  0.8066 -3.1826 -0.0544
  387MOL0     H53362   4.348   8.724   4.760 -0.3499 -0.5333 -1.9040
  387MOL0     H53363   4.517   8.742   4.795  1.1345  0.8777 -0.2765
  387MOL0     H53364   4.404   8.665   5.014  1.3678  2.9082  2.0811
  387MOL0     H53365   4.268   8.551   5.327 -1.2036 -2.5317  0.6488
  387MOL0     H53366   4.354   8.494   5.194  1.4405  2.4230  0.0092
  387MOL0     H53367   4.174   8.490   5.188  2.3517 -0.2251 -1.8950
  387MOL0     H53368   4.031   8.957   5.569  0.7998 -0.1043  0.5948
  387MOL0     H53369   3.906   8.943   5.788  1.2538 -1.1830 -0.0959
  387MOL0     H53370   3.485   8.857   5.880 -1.9636 -0.9000  0.8078
  387MOL0     H53371   3.515   8.786   5.713 -2.9112  1.4097  0.6790
  387MOL0     H53372   3.585   8.575   5.835 -1.2413  0.6933 -2.7304
  387MOL0     H53373   3.553   8.660   5.993  0.1506 -0.6926  0.4043
  387MOL0     H53374   3.370   8.562   5.775  1.8365  1.2121 -1.5006
  387MOL0     H53375   3.317   8.711   5.847  1.3040 -0.2874  1.0795
  387MOL0     H53376   3.307   8.590   6.067  0.6177 -0.9049  0.5352
  387MOL0     H53377   3.382   8.457   5.983  4.1134  3.9087  0.1673
  387MOL0     H53378   3.111   8.585   5.915  1.2200  1.2484 -2.0093
  387MOL0     H53379   3.175   8.447   5.819 -0.2813 -2.5341  0.9617
  387MOL0     H53380   3.055   8.455   6.096  2.6793  0.9977  0.2019
  387MOL0     H53381   3.162   8.322   6.060 -0.3769 -1.1619  0.6265
  387MOL0     H53382   3.043   8.239   5.898  2.6334  2.1787 -2.1128
  387MOL0     H53383   2.938   8.383   5.873  0.6332  2.7529  1.7075
  387MOL0     H53384   2.813   8.185   5.985 -1.8865 -0.7090  2.5078
  387MOL0     H53385   2.813   8.315   6.084  2.2732  1.1814  1.5308
  387MOL0     H53386   3.653   8.648   5.614  1.8683 -1.7267  2.1768
  387MOL0     H53387   3.768   8.677   5.394  1.7041  0.2201 -0.0383
  387MOL0     H53388   4.069   8.972   5.171  0.6159 -0.0636  5.0604
  387MOL0     H53389   4.203   9.030   4.974 -1.2622  0.7801  1.1521
  387MOL0     H53390   3.122   8.511   4.235 -2.4838 -0.1657 -0.4548
  387MOL0     H53391   2.928   8.362   4.256 -0.4318  0.4780 -1.2972
  387MOL0     H53392   2.673   8.126   4.366  0.7785  0.5043 -0.2303
  387MOL0     H53393   2.465   8.044   4.434 -0.6072 -0.0763 -3.0937
  387MOL0     H53394   2.350   7.904   4.613 -0.2730  0.7213 -0.9912
  387MOL0     H53395   2.278   7.910   4.460 -1.8420 -1.6015 -0.8525
  387MOL0     H53396   2.123   7.727   4.522 -0.5867  3.5289 -0.6677
  387MOL0     H53397   2.153   7.836   4.662  2.9126  2.2875 -0.5454
  387MOL0     H53398   2.279   7.557   4.618  1.3891 -0.0348  0.2983
  387MOL0     H53399   2.289   7.656   4.774  0.2072  0.3346 -0.6211
  387MOL0     H53400   2.046   7.523   4.655 -0.3004 -1.5424  1.1971
  387MOL0     H53401   2.043   7.644   4.785  0.3454  1.5029 -0.7155
  387MOL0     H53402   2.178   7.301   4.981  0.6090  0.3269  0.7285
  387MOL0     H53403   2.569   7.651   4.334 -0.7222  0.1779  1.4222
  387MOL0     H53404   2.833   7.607   4.272  2.3011  0.9865  0.2892
  387MOL0     H53405   2.774   7.668   4.118  4.0551 -1.5665 -2.1258
  387MOL0     H53406   2.919   7.738   4.202  0.1454 -0.3175 -1.3919
  388MOL0     O53407   0.739   7.204   1.845 -0.5558  0.3418  0.7677
  388MOL0     C53408   0.694   7.149   1.944  1.1196  0.9366  0.6385
  388MOL0     O53409   0.771   7.078   2.038  0.8344 -0.5990  0.2764
  388MOL0     C53410   0.897   7.043   2.012 -0.8778 -0.8433 -0.3106
  388MOL0     C53411   0.939   6.919   2.063 -0.2209 -0.8119  0.2415
  388MOL0     C53412   1.078   6.886   2.059  0.8807  0.1054  0.2501
  388MOL0     C53413   1.178   6.969   2.005 -0.4925  0.1281  0.3453
  388MOL0     O53414   1.302   6.907   1.989  0.6887  0.2730  0.2430
  388MOL0     C53415   1.394   6.969   1.900  0.4020 -0.0610  0.9209
  388MOL0     C53416   1.516   6.881   1.880 -0.5066  0.1245  0.0778
  388MOL0     C53417   1.640   6.960   1.840  0.0298  0.2974 -0.2176
  388MOL0     C53418   1.744   6.872   1.778  0.0483 -0.1135  0.7556
  388MOL0     C53419   1.868   6.952   1.728  0.3482  0.1338  0.1991
  388MOL0     C53420   1.972   6.847   1.680  0.3417  0.8275 -0.4648
  388MOL0     C53421   2.107   6.908   1.637  0.6470  0.2464 -0.3991
  388MOL0     C53422   2.077   7.021   1.537  0.2554 -0.2579 -0.8446
  388MOL0     N53423   2.210   7.074   1.487  0.3177 -0.2679 -0.2713
  388MOL0     C53424   2.221   7.151   1.375 -0.1912 -0.6332 -0.0346
  388MOL0     C53425   2.354   7.166   1.345 -0.4817 -0.2821  0.4200
  388MOL0     C53426   2.413   7.239   1.230 -1.0408  0.0069  0.0295
  388MOL0     C53427   2.474   7.141   1.127 -0.1525 -0.2103  0.2569
  388MOL0     C53428   2.377   7.069   1.031 -0.4467 -1.2347 -0.4826
  388MOL0     C53429   2.454   6.982   0.930  0.5850  0.8297  0.7417
  388MOL0     O53430   2.536   6.884   0.998  0.0059  0.1873  0.6339
  388MOL0     C53431   2.666   6.904   1.038 -0.7805  0.8947  0.2794
  388MOL0     C53432   2.725   6.801   1.115  0.9871 -0.9653  0.4843
  388MOL0     C53433   2.853   6.826   1.173  0.0056 -0.1046  0.0697
  388MOL0     C53434   2.920   6.707   1.232 -0.3765  0.4819 -0.4505
  388MOL0     C53435   2.922   6.951   1.151  0.2787 -0.1768  0.0995
  388MOL0     C53436   3.059   6.983   1.195  0.2540  0.5566  0.7659
  388MOL0     O53437   3.116   7.100   1.142  0.4351 -0.3656 -0.2589
  388MOL0     C53438   3.230   7.153   1.206  1.0637 -0.5217 -1.1453
  388MOL0     C53439   3.235   7.162   1.350  0.0772  0.4524  0.0338
  388MOL0     C53440   3.351   7.191   1.421  0.6500  0.2246 -1.0471
  388MOL0     C53441   3.459   7.243   1.360 -0.6024 -0.7810 -0.0185
  388MOL0     O53442   3.582   7.285   1.418 -0.0433 -0.2179  0.2630
  388MOL0     C53443   3.601   7.281   1.557  0.8202 -0.5632  0.2023
  388MOL0     C53444   3.747   7.317   1.597  0.4379  0.6882 -0.2211
  388MOL0     C53445   3.862   7.259   1.511 -0.3101  0.0347 -0.5253
  388MOL0     C53446   3.853   7.107   1.485  0.4351  0.5668  0.7267
  388MOL0     C53447   3.970   7.066   1.396  0.0815 -0.1361 -0.2426
  388MOL0     C53448   4.115   7.071   1.466 -0.9006 -0.6147  0.9764
  388MOL0     C53449   4.234   6.993   1.394  0.5296  0.2548 -0.0204
  388MOL0     C53450   4.372   7.073   1.393 -0.2056  0.4316  0.0828
  388MOL0    Cl53451   4.447   7.074   1.553  0.4418  0.1157 -0.1796
  388MOL0     C53452   3.449   7.256   1.213 -0.1233 -0.3713  1.2027
  388MOL0     C53453   3.340   7.207   1.142 -0.3857 -0.5482 -0.3795
  388MOL0     O53454   3.100   6.912   1.287 -0.0556  0.1064 -0.4950
  388MOL0     C53455   2.858   7.048   1.070  0.3378  0.1534  0.6916
  388MOL0     C53456   2.735   7.023   1.010  0.0042  0.3070  0.2225
  388MOL0     N53457   2.429   7.109   1.448  0.5065 -0.7304 -0.2755
  388MOL0     N53458   2.342   7.045   1.525 -0.7125  0.6942 -0.4371
  388MOL0     C53459   1.135   7.087   1.942 -0.3778 -1.3067 -0.1489
  388MOL0     C53460   0.994   7.126   1.951 -0.6264 -0.0050  0.0547
  388MOL0     C53461   0.550   7.166   1.965  0.5457 -1.3009  0.1126
  388MOL0     C53462   0.497   7.096   2.064 -0.8181  0.0381  0.0303
  388MOL0     C53463   0.368   7.098   2.098  0.1887  0.7775  0.3916
  388MOL0     C53464   0.281   7.182   2.032  0.1505  0.0989  0.0405
  388MOL0     O53465   0.149   7.201   2.069 -0.3898 -0.1648 -0.4436
  388MOL0     C53466   0.083   7.124   2.176 -0.6472  0.2832 -1.5056
  388MOL0     C53467   0.023   6.990   2.127 -0.3694 -1.2368  0.2711
  388MOL0     C53468  -0.007   6.894   2.232  0.0766  0.1734  0.0559
  388MOL0     C53469  -0.082   6.770   2.190  0.3046  0.5246  0.4972
  388MOL0     C53470  -0.028   6.687   2.086  0.3001  0.3819  0.5680
  388MOL0     C53471  -0.004   6.631   1.979  0.2290  0.7328  0.7533
  388MOL0     C53472   0.323   7.242   1.914  1.0483 -0.3021 -0.1009
  388MOL0     C53473   0.457   7.241   1.880 -0.7579  0.6309  0.7135
  388MOL0     C53474   0.486   7.317   1.754 -0.2746 -0.1945 -0.3569
  388MOL0     H53475   0.868   6.850   2.109  1.4941 -2.0715  1.1084
  388MOL0     H53476   1.110   6.786   2.085 -0.2962  0.3205  2.7864
  388MOL0     H53477   1.440   7.060   1.939  1.2214  0.9329 -2.1010
  388MOL0     H53478   1.345   6.999   1.807 -1.4735  1.0007  2.1765
  388MOL0     H53479   1.527   6.816   1.967 -0.8885  0.4036  0.3374
  388MOL0     H53480   1.495   6.817   1.793  1.3368 -1.6587  0.8469
  388MOL0     H53481   1.617   7.042   1.771  0.6416  1.9657  1.4956
  388MOL0     H53482   1.684   7.007   1.928 -2.5584 -1.7109  2.3277
  388MOL0     H53483   1.789   6.802   1.849  0.1865 -0.2653  0.5196
  388MOL0     H53484   1.704   6.820   1.691  1.5033  0.7004 -0.4713
  388MOL0     H53485   1.905   7.023   1.802  1.6893  2.2088 -2.3157
  388MOL0     H53486   1.841   7.015   1.643 -0.2427  2.1353  1.7844
  388MOL0     H53487   1.999   6.784   1.766 -0.0725 -0.8635 -1.5302
  388MOL0     H53488   1.922   6.783   1.607 -0.2937 -0.0540  0.6929
  388MOL0     H53489   2.170   6.828   1.597 -0.8968 -1.4122  0.3332
  388MOL0     H53490   2.163   6.945   1.723  0.9001  0.3111 -0.5908
  388MOL0     H53491   2.011   6.983   1.457 -1.1908 -0.7729  0.5356
  388MOL0     H53492   2.027   7.106   1.584  2.5503  0.7197 -0.0200
  388MOL0     H53493   2.137   7.172   1.309 -0.3555 -1.3111 -0.0494
  388MOL0     H53494   2.482   7.318   1.260 -0.1557 -0.5896 -0.4045
  388MOL0     H53495   2.332   7.291   1.177 -1.5615  2.4425  2.9367
  388MOL0     H53496   2.546   7.194   1.064 -0.5302 -0.7126 -0.6182
  388MOL0     H53497   2.533   7.065   1.180 -0.6213 -1.3411 -0.7920
  388MOL0     H53498   2.306   7.010   1.089 -0.3305 -1.8789 -0.9892
  388MOL0     H53499   2.308   7.141   0.986 -0.4092 -1.9261 -1.6707
  388MOL0     H53500   2.388   6.927   0.862  1.5371 -0.3307  0.7181
  388MOL0     H53501   2.506   7.053   0.865  0.5112  1.2251  1.1120
  388MOL0     H53502   2.667   6.710   1.126 -2.5179  1.2471  1.9355
  388MOL0     H53503   2.910   6.712   1.341 -0.3676 -0.1071 -0.4245
  388MOL0     H53504   3.016   6.698   1.180 -0.8308 -0.5161 -1.1467
  388MOL0     H53505   2.863   6.619   1.202  1.6087 -0.0422 -3.0796
  388MOL0     H53506   3.153   7.123   1.409  1.0041 -0.8890  0.4908
  388MOL0     H53507   3.346   7.178   1.529  2.7760 -2.2348 -1.1449
  388MOL0     H53508   3.530   7.358   1.589  1.1299 -0.3320  0.3408
  388MOL0     H53509   3.573   7.187   1.605 -0.7461 -0.5781 -0.6935
  388MOL0     H53510   3.764   7.425   1.597  0.5953  0.7987  3.4132
  388MOL0     H53511   3.763   7.271   1.695  1.5837  1.1966 -0.1549
  388MOL0     H53512   3.957   7.282   1.559  0.4666 -0.7204 -1.6843
  388MOL0     H53513   3.861   7.305   1.412  1.3169  0.8530 -0.1938
  388MOL0     H53514   3.759   7.066   1.446  0.3113 -1.2477  2.7426
  388MOL0     H53515   3.860   7.060   1.584 -0.9786 -2.6712 -0.5798
  388MOL0     H53516   3.955   6.964   1.361 -1.7156  0.1646 -0.4487
  388MOL0     H53517   3.971   7.127   1.306  0.4599  3.0846  1.7781
  388MOL0     H53518   4.119   7.030   1.567  1.9464 -1.5436  0.5870
  388MOL0     H53519   4.144   7.176   1.466 -1.0063 -0.5341 -1.0651
  388MOL0     H53520   4.204   6.983   1.289 -0.7677  3.1315 -0.0059
  388MOL0     H53521   4.247   6.892   1.434 -0.0843 -0.3273 -1.2321
  388MOL0     H53522   4.364   7.180   1.373  1.9918  0.7717  0.7484
  388MOL0     H53523   4.441   7.021   1.326  0.1081 -0.0513  0.7612
  388MOL0     H53524   3.534   7.290   1.155 -0.9497 -0.7200 -0.2638
  388MOL0     H53525   3.332   7.210   1.034 -1.3259 -0.4546 -0.3114
  388MOL0     H53526   2.902   7.144   1.045  0.5995 -0.4429 -1.3122
  388MOL0     H53527   2.694   7.095   0.940 -0.6248 -1.1991 -1.0147
  388MOL0     H53528   1.201   7.161   1.897 -0.2460 -0.7251  0.9645
  388MOL0     H53529   0.973   7.227   1.918 -0.8296 -0.1483 -0.2540
  388MOL0     H53530   0.561   7.033   2.125 -0.4400 -1.1497 -1.5245
  388MOL0     H53531   0.324   7.027   2.167 -1.8076  1.3772 -0.1774
  388MOL0     H53532   0.152   7.106   2.258 -2.3005 -0.3590 -0.1824
  388MOL0     H53533   0.001   7.186   2.216  0.1518  0.7430 -0.5286
  388MOL0     H53534   0.096   6.947   2.058 -1.0283 -0.8431 -0.6821
  388MOL0     H53535  -0.071   7.010   2.075 -0.3030 -1.1480  0.1861
  388MOL0     H53536   0.075   6.861   2.296 -0.7322  1.6347  1.9414
  388MOL0     H53537  -0.082   6.933   2.301 -1.0661 -1.6401 -0.0691
  388MOL0     H53538  -0.181   6.796   2.151  1.5224  3.4658 -0.9905
  388MOL0     H53539  -0.085   6.705   2.278  0.2475  2.7134  2.2060
  388MOL0     H53540   0.017   6.586   1.885 -1.2329 -0.3544  0.9130
  388MOL0     H53541   0.244   7.301   1.868 -0.9624 -3.1235 -0.4965
  388MOL0     H53542   0.491   7.245   1.672  0.0572 -3.4877  2.3343
  388MOL0     H53543   0.408   7.392   1.739 -0.3749 -0.3764 -0.7804
  388MOL0     H53544   0.578   7.376   1.766 -0.6112 -0.0904  2.1248
  389MOL0     O53545  10.062   0.654   4.099 -0.2337  0.5660  0.0636
  389MOL0     C53546   9.982   0.683   4.014 -0.9523  0.1193  0.8369
  389MOL0     O53547   9.999   0.647   3.877  0.2119  0.1030 -0.5401
  389MOL0     C53548  10.122   0.658   3.809 -0.5533 -0.3277  0.2924
  389MOL0     C53549  10.134   0.589   3.683 -0.0899 -0.0403  0.3075
  389MOL0     C53550  10.260   0.594   3.620  0.7505  0.0869  0.6706
  389MOL0     C53551  10.359   0.667   3.670 -0.7514  0.2173 -0.4780
  389MOL0     O53552  10.483   0.670   3.602 -1.0293  0.0557  0.3751
  389MOL0     C53553  10.593   0.738   3.664  0.0830  0.2887  0.6254
  389MOL0     C53554  10.722   0.690   3.607  0.6719  0.2347  0.1710
  389MOL0     C53555  10.842   0.736   3.689 -0.3274 -0.0932  0.3765
  389MOL0     C53556  10.973   0.673   3.627 -0.1860  0.0700 -0.3983
  389MOL0     C53557  11.081   0.702   3.727 -0.0232 -0.5005 -0.2026
  389MOL0     C53558  11.218   0.660   3.679 -0.2930 -0.6198 -0.1004
  389MOL0     C53559  11.324   0.719   3.782  0.0286  0.2511 -0.2340
  389MOL0     C53560  11.458   0.686   3.719 -0.0297 -0.1611 -0.4266
  389MOL0     N53561  11.558   0.756   3.798 -0.0560 -0.6071 -0.1942
  389MOL0     C53562  11.578   0.895   3.810  0.7518  0.3647  0.4810
  389MOL0     C53563  11.704   0.907   3.867  0.4195  0.3559 -0.5179
  389MOL0     C53564  11.779   1.035   3.889 -1.1102  0.3408  0.2847
  389MOL0     C53565  11.829   1.099   3.760 -0.8069 -0.1427  0.2350
  389MOL0     C53566  11.903   1.225   3.796 -0.5545  0.0461  0.5653
  389MOL0     C53567  11.989   1.260   3.675 -0.3543  0.0407  0.4032
  389MOL0     O53568  12.082   1.366   3.727  0.1698 -0.4145 -0.2942
  389MOL0     C53569  12.149   1.448   3.633  0.2559 -1.3045  0.5246
  389MOL0     C53570  12.192   1.574   3.670  0.0489 -0.2949 -0.2532
  389MOL0     C53571  12.263   1.667   3.596  0.3888 -0.1001 -0.0496
  389MOL0     C53572  12.298   1.794   3.673  1.1528 -1.3562 -0.2110
  389MOL0     C53573  12.296   1.627   3.462  0.3584  0.8639 -0.0608
  389MOL0     C53574  12.384   1.705   3.371 -0.0833 -0.9575  0.7069
  389MOL0     O53575  12.392   1.674   3.236 -0.3863  0.3063 -0.3054
  389MOL0     C53576  12.484   1.737   3.156  0.4586 -0.2816 -0.1035
  389MOL0     C53577  12.621   1.721   3.177 -0.7360  0.2085  0.6153
  389MOL0     C53578  12.716   1.788   3.090 -0.6809 -0.3903  0.1411
  389MOL0     C53579  12.673   1.877   2.992 -0.6100  0.4272 -0.3811
  389MOL0     O53580  12.763   1.943   2.915  0.4558 -0.3127 -0.3625
  389MOL0     C53581  12.722   2.053   2.838 -0.0953 -0.0527  1.2480
  389MOL0     C53582  12.849   2.109   2.778  0.7044 -0.7017 -0.0125
  389MOL0     C53583  12.935   2.003   2.710 -0.9568  0.0734  0.2706
  389MOL0     C53584  13.034   2.053   2.610  0.0018 -0.4613 -0.8034
  389MOL0     C53585  13.142   1.947   2.562  0.3918 -0.4914  0.1388
  389MOL0     C53586  13.208   1.857   2.661  0.5096  0.2345 -0.1980
  389MOL0     C53587  13.296   1.935   2.763 -0.0161 -0.1643 -0.0267
  389MOL0     C53588  13.341   1.850   2.879  0.5084  0.0271  0.6402
  389MOL0    Cl53589  13.419   1.956   2.996 -0.0627  0.4756 -0.0096
  389MOL0     C53590  12.536   1.908   2.986 -0.2634 -0.1320  0.4128
  389MOL0     C53591  12.444   1.839   3.068 -0.2049  0.1272  0.8010
  389MOL0     O53592  12.447   1.798   3.420 -0.6314 -0.8047 -0.8032
  389MOL0     C53593  12.237   1.502   3.416 -0.0836 -0.6997  0.1943
  389MOL0     C53594  12.167   1.418   3.500 -0.1583  0.3458  0.0218
  389MOL0     N53595  11.750   0.781   3.909 -0.3583  0.0608 -0.1637
  389MOL0     N53596  11.670   0.702   3.860  0.8930 -0.0623  0.9044
  389MOL0     C53597  10.341   0.736   3.787  0.1095 -0.4524 -0.5754
  389MOL0     C53598  10.227   0.733   3.863  0.1047  0.1946 -0.1151
  389MOL0     C53599   9.846   0.730   4.035 -0.4829 -0.6991  0.4087
  389MOL0     C53600   9.772   0.785   3.925  0.2928 -0.3333 -0.0979
  389MOL0     C53601   9.653   0.850   3.951  0.4682 -0.0512  0.6008
  389MOL0     C53602   9.594   0.859   4.079 -0.7199 -0.4679  0.0814
  389MOL0     O53603   9.486   0.940   4.089  0.0892  0.4897 -0.3724
  389MOL0     C53604   9.406   0.960   4.205 -0.0204 -0.0771 -0.2042
  389MOL0     C53605   9.334   0.837   4.249  0.2872 -0.8294  0.1429
  389MOL0     C53606   9.237   0.777   4.139  0.6318  0.2011 -0.2437
  389MOL0     C53607   9.131   0.678   4.198 -0.0805 -0.0109 -0.5429
  389MOL0     C53608   9.046   0.625   4.095 -0.1670  0.2140 -0.3342
  389MOL0     C53609   8.967   0.589   4.009  0.3504 -0.1782  0.3499
  389MOL0     C53610   9.668   0.813   4.190  0.1089  0.7581  0.4387
  389MOL0     C53611   9.797   0.737   4.169 -0.2913 -0.2457  0.1438
  389MOL0     C53612   9.862   0.683   4.297  0.3691  0.3650 -0.0101
  389MOL0     H53613  10.054   0.528   3.644  1.0453 -0.5998 -1.2187
  389MOL0     H53614  10.283   0.560   3.519  0.8820  1.3138  0.2743
  389MOL0     H53615  10.584   0.730   3.773 -0.7222  2.7639  0.8163
  389MOL0     H53616  10.575   0.846   3.660  2.0587  0.8631  3.7492
  389MOL0     H53617  10.717   0.581   3.616 -0.0326  0.3328  1.1383
  389MOL0     H53618  10.729   0.723   3.503  0.1895  2.0185  0.6591
  389MOL0     H53619  10.850   0.845   3.686 -0.2447 -0.1320 -1.7883
  389MOL0     H53620  10.822   0.717   3.795 -1.9173 -1.4918 -0.1333
  389MOL0     H53621  10.956   0.565   3.621  2.7350 -0.4491 -0.7706
  389MOL0     H53622  10.980   0.705   3.523 -3.7980  1.2047 -0.4435
  389MOL0     H53623  11.055   0.664   3.826  0.7476 -0.4251  0.0428
  389MOL0     H53624  11.085   0.811   3.737  1.0521 -0.4741 -0.7584
  389MOL0     H53625  11.214   0.550   3.675 -2.6226 -0.5695 -0.4626
  389MOL0     H53626  11.246   0.701   3.582 -1.8396  2.1937  0.5617
  389MOL0     H53627  11.315   0.659   3.873  0.5506  3.0391  1.7850
  389MOL0     H53628  11.311   0.826   3.800 -3.4786 -0.1539  0.2882
  389MOL0     H53629  11.477   0.579   3.729  0.5371 -0.0961 -0.8214
  389MOL0     H53630  11.466   0.725   3.617 -0.9154 -0.0617 -0.4659
  389MOL0     H53631  11.525   0.980   3.769 -1.0950 -2.1278 -2.7464
  389MOL0     H53632  11.860   1.010   3.958 -1.7450  0.6575  1.1794
  389MOL0     H53633  11.713   1.110   3.934 -2.3676 -0.4944 -0.1005
  389MOL0     H53634  11.887   1.028   3.702  0.3016  0.4525  0.5959
  389MOL0     H53635  11.740   1.128   3.703  1.0964  0.8584 -2.4260
  389MOL0     H53636  11.836   1.310   3.808 -2.1757 -0.8385 -1.4638
  389MOL0     H53637  11.967   1.220   3.884 -0.2373 -0.2936  0.3211
  389MOL0     H53638  12.050   1.173   3.649 -0.0347 -0.1861  1.8198
  389MOL0     H53639  11.923   1.286   3.591  1.4154  0.8686 -0.7814
  389MOL0     H53640  12.160   1.611   3.767  0.1036  2.5102 -1.2434
  389MOL0     H53641  12.292   1.885   3.613  0.3573  1.0821  3.2130
  389MOL0     H53642  12.402   1.781   3.704  1.7974  0.4488 -1.4710
  389MOL0     H53643  12.239   1.821   3.761  2.3982 -0.7791  0.4814
  389MOL0     H53644  12.645   1.641   3.246  0.7098 -0.8081 -0.9792
  389MOL0     H53645  12.820   1.761   3.105  0.1549 -0.1885 -4.0406
  389MOL0     H53646  12.655   2.028   2.755 -0.2386 -3.0100  2.1426
  389MOL0     H53647  12.668   2.131   2.893  1.5952  1.3476  1.0129
  389MOL0     H53648  12.836   2.195   2.712 -2.7837  0.3219  1.7980
  389MOL0     H53649  12.915   2.139   2.860  2.0132  0.4269 -1.4115
  389MOL0     H53650  12.870   1.924   2.670 -0.9322 -0.5328  1.3730
  389MOL0     H53651  12.988   1.950   2.790  0.2620  0.4114 -0.2884
  389MOL0     H53652  13.083   2.140   2.654 -0.9573 -0.1242 -0.3797
  389MOL0     H53653  12.974   2.081   2.524  1.0764 -0.7065 -1.6684
  389MOL0     H53654  13.079   1.884   2.499 -0.1131  1.6826 -1.6561
  389MOL0     H53655  13.207   1.996   2.489 -0.5246  0.9195  0.2297
  389MOL0     H53656  13.278   1.788   2.613 -0.6569 -0.8014 -0.4745
  389MOL0     H53657  13.137   1.795   2.716  0.5948  0.4732  0.1876
  389MOL0     H53658  13.250   2.027   2.799  1.4969  0.7310 -0.2452
  389MOL0     H53659  13.391   1.965   2.716 -0.2215 -1.8712 -1.6248
  389MOL0     H53660  13.396   1.767   2.834 -1.8404 -1.1623 -0.2220
  389MOL0     H53661  13.257   1.800   2.929  0.4257  0.8945  1.3892
  389MOL0     H53662  12.492   1.980   2.918  0.4789 -0.8187 -0.8381
  389MOL0     H53663  12.340   1.866   3.051  0.5062  2.8493  0.2887
  389MOL0     H53664  12.262   1.486   3.312  0.1352  3.0874 -0.4808
  389MOL0     H53665  12.139   1.318   3.467  3.1776 -1.1622  1.2143
  389MOL0     H53666  10.409   0.816   3.815 -0.5965 -0.4694  1.3439
  389MOL0     H53667  10.221   0.799   3.948  1.0955 -1.0041  0.9319
  389MOL0     H53668   9.821   0.803   3.830  0.8747  1.5667  0.5258
  389MOL0     H53669   9.612   0.909   3.870  0.0045 -1.6840 -0.4138
  389MOL0     H53670   9.469   0.997   4.286  1.1594  0.5289 -1.3539
  389MOL0     H53671   9.327   1.034   4.189  0.3435  0.4207  0.2660
  389MOL0     H53672   9.282   0.866   4.341  3.2221  1.3096  1.2987
  389MOL0     H53673   9.420   0.776   4.278 -1.4078 -2.5072  1.9426
  389MOL0     H53674   9.182   0.856   4.088  1.7637  0.9807 -0.2977
  389MOL0     H53675   9.293   0.722   4.063  1.7957 -0.5632  1.1147
  389MOL0     H53676   9.066   0.718   4.277 -0.1466 -0.3943 -0.3962
  389MOL0     H53677   9.185   0.592   4.240  0.9463  1.5501  1.5016
  389MOL0     H53678   8.898   0.551   3.937 -0.3174  2.1430 -0.3501
  389MOL0     H53679   9.627   0.817   4.290 -0.7464 -2.2656  0.3166
  389MOL0     H53680   9.910   0.585   4.289  2.4370  1.2707  0.4393
  389MOL0     H53681   9.933   0.758   4.335 -1.6174  0.2656  4.5498
  389MOL0     H53682   9.786   0.686   4.376 -0.7668  2.1678 -1.1017
  390MOL0     O53683  10.356   6.841   9.066 -0.4145  0.7187 -0.4017
  390MOL0     C53684  10.302   6.739   9.095  0.0129  0.4208 -0.0066
  390MOL0     O53685  10.367   6.615   9.121 -0.6956  0.2303  0.4129
  390MOL0     C53686  10.502   6.628   9.155 -0.3065  0.4049  0.4642
  390MOL0     C53687  10.600   6.574   9.079 -0.0427 -0.0675  0.8035
  390MOL0     C53688  10.736   6.599   9.108  0.4767  0.1328  0.0113
  390MOL0     C53689  10.773   6.663   9.226  0.1013 -0.3177 -0.1294
  390MOL0     O53690  10.898   6.660   9.267 -0.0709  0.0355  0.5134
  390MOL0     C53691  10.931   6.706   9.405  0.1268  0.1867 -0.4955
  390MOL0     C53692  11.085   6.715   9.413 -0.3058  0.5904  0.7773
  390MOL0     C53693  11.131   6.747   9.557  1.2669 -0.2299  0.3452
  390MOL0     C53694  11.284   6.732   9.572 -0.5152  0.1087 -0.2483
  390MOL0     C53695  11.325   6.770   9.717  0.4169  0.8086  0.5985
  390MOL0     C53696  11.468   6.730   9.753  0.3776 -0.0520 -1.0230
  390MOL0     C53697  11.512   6.781   9.897  0.1560 -0.0274 -0.1604
  390MOL0     C53698  11.659   6.746   9.936 -0.7879 -0.2330 -0.0547
  390MOL0     N53699  11.687   6.765  10.075  0.1116 -0.5676 -0.6571
  390MOL0     C53700  11.714   6.897  10.123 -0.3136  0.1708  0.6914
  390MOL0     C53701  11.727   6.886  10.260 -0.3495  0.4251  0.4184
  390MOL0     C53702  11.757   6.995  10.357 -0.1266  0.1166  0.2144
  390MOL0     C53703  11.903   7.016  10.366 -0.2752 -0.2113 -0.1283
  390MOL0     C53704  11.926   7.104  10.495 -0.1430  0.5744  0.7444
  390MOL0     C53705  12.078   7.111  10.516  0.6357  0.5745 -0.1676
  390MOL0     O53706  12.124   7.179  10.398 -0.4845 -0.4784 -0.0911
  390MOL0     C53707  12.261   7.163  10.378  0.2525 -0.1392  0.2134
  390MOL0     C53708  12.290   7.048  10.302 -0.5882 -1.2591  0.4332
  390MOL0     C53709  12.426   7.025  10.277 -0.7061  0.0720 -0.5382
  390MOL0     C53710  12.443   6.904  10.183 -0.7204 -0.2220 -0.1097
  390MOL0     C53711  12.531   7.095  10.334  0.3266  0.5389 -0.1217
  390MOL0     C53712  12.671   7.043  10.343 -0.3044 -0.8938 -0.3950
  390MOL0     O53713  12.760   7.124  10.422 -0.8098  0.0501  0.6805
  390MOL0     C53714  12.889   7.084  10.411 -0.2020 -0.1518  0.0751
  390MOL0     C53715  12.929   6.964  10.468 -0.3245 -0.3141  0.8178
  390MOL0     C53716  13.062   6.924  10.461  0.3095  0.2007  0.1111
  390MOL0     C53717  13.159   7.011  10.413  0.0409  0.0628  1.1693
  390MOL0     O53718  13.298   6.986  10.395  0.6122 -0.3165 -0.3962
  390MOL0     C53719  13.333   6.853  10.417 -0.4411  0.1093  0.2605
  390MOL0     C53720  13.479   6.821  10.369  0.3700 -0.0122 -0.4509
  390MOL0     C53721  13.530   6.884  10.236  0.6727  0.5127 -0.3056
  390MOL0     C53722  13.672   6.853  10.216  0.1478 -0.4058 -0.0392
  390MOL0     C53723  13.709   6.909  10.082  0.0473  0.3300  0.1421
  390MOL0     C53724  13.847   6.874  10.037 -0.3959  0.0568  0.1931
  390MOL0     C53725  13.878   6.939   9.899  0.5310 -0.3746 -0.0099
  390MOL0     C53726  14.001   6.875   9.844 -0.6005  0.1583 -0.7349
  390MOL0    Cl53727  14.063   6.959   9.691 -0.0998 -0.3747  0.0889
  390MOL0     C53728  13.128   7.140  10.366  0.2916 -0.6380 -1.1919
  390MOL0     C53729  12.990   7.169  10.367 -0.0443  0.8515 -0.3906
  390MOL0     O53730  12.703   6.942  10.281 -0.6186 -0.0934 -0.1270
  390MOL0     C53731  12.497   7.212  10.409 -0.3220  0.9958 -0.0637
  390MOL0     C53732  12.367   7.234  10.436  0.0959 -0.1084 -0.1521
  390MOL0     N53733  11.706   6.748  10.290  0.7333  0.0693 -0.2334
  390MOL0     N53734  11.689   6.680  10.183 -0.1713  1.5013 -0.3744
  390MOL0     C53735  10.672   6.738   9.288 -0.1019  0.7956  0.8114
  390MOL0     C53736  10.540   6.709   9.259 -0.1337  0.8493  0.0092
  390MOL0     C53737  10.151   6.735   9.111 -0.9833  0.3208  0.7363
  390MOL0     C53738  10.086   6.862   9.112 -0.3928 -0.5774  0.6011
  390MOL0     C53739   9.944   6.866   9.118  0.0501  0.1743 -0.2699
  390MOL0     C53740   9.872   6.745   9.148 -0.0499  0.1152  1.1420
  390MOL0     O53741   9.735   6.750   9.165  0.3947 -0.4628 -0.0052
  390MOL0     C53742   9.665   6.627   9.193  0.1951 -0.1638 -0.4932
  390MOL0     C53743   9.516   6.663   9.210  0.1443 -0.7693  0.1830
  390MOL0     C53744   9.424   6.550   9.173  0.1805 -0.6509 -0.2434
  390MOL0     C53745   9.275   6.579   9.195  0.3606 -0.3948 -0.4104
  390MOL0     C53746   9.180   6.471   9.151  0.1314 -0.3401 -0.2807
  390MOL0     C53747   9.105   6.381   9.117 -0.6235  1.3494  0.6191
  390MOL0     C53748   9.943   6.622   9.148 -0.1254 -0.1085  0.1413
  390MOL0     C53749  10.079   6.614   9.134  0.1361 -0.8358 -0.1887
  390MOL0     C53750  10.137   6.469   9.141 -0.4994 -0.0077 -0.1785
  390MOL0     H53751  10.576   6.522   8.987 -1.6323 -0.7584  1.5778
  390MOL0     H53752  10.818   6.568   9.044  0.1655  0.9385 -0.7933
  390MOL0     H53753  10.886   6.643   9.483  0.4735 -0.9300 -1.1768
  390MOL0     H53754  10.888   6.804   9.424  0.4607  0.3141 -0.3960
  390MOL0     H53755  11.130   6.624   9.372  0.4193  1.5452 -0.6176
  390MOL0     H53756  11.113   6.806   9.359 -1.1389  0.3608 -0.0614
  390MOL0     H53757  11.101   6.850   9.577  1.7877  0.0284 -0.1826
  390MOL0     H53758  11.079   6.680   9.626  2.4345 -0.6803  0.8099
  390MOL0     H53759  11.315   6.631   9.543 -1.3650 -0.1682 -0.2389
  390MOL0     H53760  11.323   6.802   9.498 -0.1913 -0.4137 -0.5790
  390MOL0     H53761  11.254   6.720   9.784  0.6908 -0.1904  0.1449
  390MOL0     H53762  11.317   6.879   9.731 -0.3705  0.6084  1.8853
  390MOL0     H53763  11.472   6.621   9.753 -0.0982 -0.0719 -1.3363
  390MOL0     H53764  11.530   6.777   9.677 -1.2237  2.4143 -0.9219
  390MOL0     H53765  11.452   6.728   9.971  0.1036  0.9478  0.5199
  390MOL0     H53766  11.487   6.886   9.914 -2.5196 -0.2095 -2.3527
  390MOL0     H53767  11.686   6.645   9.904 -0.1487 -0.4813  1.2164
  390MOL0     H53768  11.721   6.817   9.880  0.6701  1.6019  3.5633
  390MOL0     H53769  11.724   6.980  10.054  0.9590  0.1357  0.8256
  390MOL0     H53770  11.715   6.953  10.449  0.2102 -2.1806 -0.6144
  390MOL0     H53771  11.712   7.093  10.339  1.6095  0.4014 -3.6505
  390MOL0     H53772  11.955   6.920  10.372 -1.3131 -0.8132 -0.5951
  390MOL0     H53773  11.945   7.064  10.277  1.4012  1.1830  1.3330
  390MOL0     H53774  11.883   7.202  10.474 -1.9603 -0.2340  0.4858
  390MOL0     H53775  11.880   7.056  10.582 -0.0546  0.0169  0.4938
  390MOL0     H53776  12.091   7.165  10.610 -1.5768  2.1189 -0.6875
  390MOL0     H53777  12.131   7.017  10.533  1.5862  1.3735  1.4784
  390MOL0     H53778  12.208   6.982  10.276 -0.5450 -1.6172  1.1869
  390MOL0     H53779  12.514   6.928  10.103 -1.2057  0.6735 -0.2859
  390MOL0     H53780  12.348   6.875  10.137 -0.1591 -0.0791 -1.3836
  390MOL0     H53781  12.469   6.820  10.249  0.9637  0.5222  0.2195
  390MOL0     H53782  12.852   6.894  10.499 -0.8882  0.6352  1.6273
  390MOL0     H53783  13.090   6.826  10.497  0.3131  0.3981  0.6449
  390MOL0     H53784  13.324   6.827  10.523  2.0458  2.5930  1.1877
  390MOL0     H53785  13.263   6.786  10.366  0.2221 -0.0938 -0.3793
  390MOL0     H53786  13.537   6.874  10.446 -1.2595  1.6704 -0.2837
  390MOL0     H53787  13.502   6.715  10.372  0.2392 -0.0337  0.0120
  390MOL0     H53788  13.511   6.992  10.240 -1.2205  0.1878  1.5478
  390MOL0     H53789  13.477   6.838  10.152 -0.1286 -2.2743  1.5696
  390MOL0     H53790  13.694   6.745  10.219  1.0399 -0.2827 -1.2481
  390MOL0     H53791  13.734   6.901  10.292  0.0128 -0.7260  0.2813
  390MOL0     H53792  13.641   6.875  10.004 -2.9082  0.0857  2.6285
  390MOL0     H53793  13.694   7.017  10.090 -1.9237 -0.0273  2.7619
  390MOL0     H53794  13.855   6.766  10.028  2.3165  0.1980  0.0707
  390MOL0     H53795  13.923   6.909  10.108  0.1488 -0.7803  0.0387
  390MOL0     H53796  13.909   7.042   9.919  0.7969 -0.3791 -0.3923
  390MOL0     H53797  13.796   6.931   9.827 -3.2848  2.4831  3.5531
  390MOL0     H53798  13.979   6.770   9.822  1.5062 -0.3549 -0.6461
  390MOL0     H53799  14.080   6.871   9.920  0.9725 -0.1860 -2.3296
  390MOL0     H53800  13.205   7.212  10.341  1.3455 -1.4170 -0.3140
  390MOL0     H53801  12.958   7.266  10.328 -0.1215  0.2123 -1.9715
  390MOL0     H53802  12.575   7.274  10.452 -1.0368  1.7063  0.2344
  390MOL0     H53803  12.330   7.320  10.491  1.7283  0.6490 -0.1768
  390MOL0     H53804  10.697   6.816   9.359  1.2285  2.1872 -1.0615
  390MOL0     H53805  10.461   6.764   9.308 -2.0325 -0.9005 -0.9484
  390MOL0     H53806  10.132   6.960   9.100  0.7738 -1.2923 -1.0804
  390MOL0     H53807   9.893   6.959   9.096 -0.8885  0.0749  1.3559
  390MOL0     H53808   9.679   6.556   9.111 -1.7569 -1.2591  0.0499
  390MOL0     H53809   9.695   6.566   9.279 -1.0383 -2.4522 -1.5771
  390MOL0     H53810   9.489   6.749   9.148 -0.8862 -1.2494 -0.0513
  390MOL0     H53811   9.510   6.697   9.314 -2.1874 -2.3434  0.6429
  390MOL0     H53812   9.442   6.509   9.074 -0.6837 -1.6891  0.0113
  390MOL0     H53813   9.442   6.464   9.239  0.3485 -0.8363 -0.5304
  390MOL0     H53814   9.247   6.677   9.156 -1.7343 -0.0953  1.6519
  390MOL0     H53815   9.267   6.603   9.301 -1.8137 -0.5799 -0.4873
  390MOL0     H53816   9.039   6.301   9.089  1.7567 -0.6558  0.3851
  390MOL0     H53817   9.881   6.536   9.171 -1.6831  0.4099 -1.9109
  390MOL0     H53818  10.192   6.454   9.234 -1.5047 -2.8307  0.0478
  390MOL0     H53819  10.050   6.402   9.143 -1.2254  0.8759 -1.1322
  390MOL0     H53820  10.197   6.451   9.051  0.7494  1.5701  0.2958
  391MOL0     O53821   6.532   5.050   1.643  0.4464  0.0450 -0.5223
  391MOL0     C53822   6.509   5.125   1.548  0.3137 -0.2541 -0.4668
  391MOL0     O53823   6.597   5.196   1.475  0.0151  0.3399  0.0022
  391MOL0     C53824   6.726   5.212   1.522 -0.3775  0.4875 -0.3750
  391MOL0     C53825   6.764   5.301   1.613  0.2411 -0.0513 -0.4677
  391MOL0     C53826   6.902   5.313   1.637 -0.2893  0.2005  0.2213
  391MOL0     C53827   6.999   5.226   1.586 -0.1842  0.2723  0.3047
  391MOL0     O53828   7.130   5.236   1.621 -0.2664  0.3051 -0.0235
  391MOL0     C53829   7.213   5.125   1.656 -0.4606 -0.1839 -0.0179
  391MOL0     C53830   7.182   5.075   1.795 -0.2299 -0.0151  0.3115
  391MOL0     C53831   7.291   4.982   1.854  0.1481 -0.5560  0.1199
  391MOL0     C53832   7.295   4.851   1.784 -0.3579 -0.1205  0.5361
  391MOL0     C53833   7.421   4.779   1.838  0.2228 -0.6659  0.1316
  391MOL0     C53834   7.443   4.646   1.769  0.3604 -0.3653 -0.6708
  391MOL0     C53835   7.316   4.553   1.789 -0.1756  0.0717 -0.0541
  391MOL0     C53836   7.336   4.416   1.710 -0.5151 -0.1809 -0.5121
  391MOL0     N53837   7.209   4.350   1.719  0.0559  0.0923  1.2398
  391MOL0     C53838   7.135   4.311   1.829  0.7789  0.2622 -0.0714
  391MOL0     C53839   7.015   4.274   1.781 -0.5017 -1.3236 -0.2111
  391MOL0     C53840   6.913   4.195   1.862  0.0172  0.1973  0.5185
  391MOL0     C53841   6.770   4.259   1.858 -0.3093  0.1490  0.1527
  391MOL0     C53842   6.671   4.159   1.931 -0.0494 -0.2292 -0.1152
  391MOL0     C53843   6.524   4.174   1.899 -0.5284 -0.1031  0.6371
  391MOL0     O53844   6.500   4.183   1.757 -0.7036  0.3324 -0.3259
  391MOL0     C53845   6.372   4.177   1.716  0.2766 -0.9791 -0.4699
  391MOL0     C53846   6.357   4.120   1.590  0.0450 -0.0655 -0.2803
  391MOL0     C53847   6.228   4.103   1.536 -0.0743  0.2298 -0.0994
  391MOL0     C53848   6.222   4.021   1.409 -0.1989 -0.2538 -0.0022
  391MOL0     C53849   6.111   4.146   1.603  0.0791  0.5389 -0.2522
  391MOL0     C53850   5.973   4.125   1.557  0.3864 -0.2807 -0.6868
  391MOL0     O53851   5.876   4.075   1.653 -0.0774  0.3362  0.2305
  391MOL0     C53852   5.758   4.039   1.601  0.3177 -0.9160  0.7270
  391MOL0     C53853   5.747   3.915   1.531 -0.0911 -0.2468  0.2792
  391MOL0     C53854   5.625   3.879   1.469  0.1432 -0.3333 -0.7270
  391MOL0     C53855   5.509   3.960   1.476 -0.1994 -0.0691 -0.4119
  391MOL0     O53856   5.389   3.919   1.420 -0.6781  0.5262 -0.1794
  391MOL0     C53857   5.381   3.880   1.287  0.4662 -0.5854  0.7432
  391MOL0     C53858   5.320   3.995   1.205  0.8856  0.4485  0.5917
  391MOL0     C53859   5.319   3.967   1.060 -0.3057  0.2731 -0.2817
  391MOL0     C53860   5.298   4.098   0.999 -0.0256  0.0336 -0.2163
  391MOL0     C53861   5.264   4.087   0.852  0.3070 -0.6000 -0.0371
  391MOL0     C53862   5.229   4.224   0.795 -0.4035 -0.6769  0.5938
  391MOL0     C53863   5.202   4.227   0.642  0.4539  0.3990 -0.4877
  391MOL0     C53864   5.315   4.274   0.552  0.1043  0.1209  0.4035
  391MOL0    Cl53865   5.450   4.168   0.601  0.0135  0.3679 -0.3026
  391MOL0     C53866   5.521   4.072   1.549 -0.4780 -1.1017 -0.0999
  391MOL0     C53867   5.636   4.118   1.610  0.4822 -0.0942  0.3078
  391MOL0     O53868   5.950   4.151   1.443 -0.3598  0.3972  0.0373
  391MOL0     C53869   6.130   4.195   1.734  0.1246 -0.3866  0.4636
  391MOL0     C53870   6.255   4.199   1.794 -0.7439  0.1138 -0.3318
  391MOL0     N53871   7.019   4.292   1.646  0.4413 -0.0230  0.0247
  391MOL0     N53872   7.130   4.341   1.609 -0.1733  0.0034 -0.0664
  391MOL0     C53873   6.953   5.127   1.497 -0.1460 -0.2654 -0.0881
  391MOL0     C53874   6.822   5.121   1.464  0.2715 -0.3437 -0.2412
  391MOL0     C53875   6.366   5.134   1.507  0.0395  0.3967 -0.2159
  391MOL0     C53876   6.299   5.017   1.468 -0.2388  0.2644 -0.2991
  391MOL0     C53877   6.158   5.025   1.440  0.6219  0.4685  0.8298
  391MOL0     C53878   6.091   5.148   1.440 -0.9553 -0.5984  0.1199
  391MOL0     O53879   5.953   5.165   1.432 -0.6498 -0.1644  0.4608
  391MOL0     C53880   5.877   5.089   1.524  0.8245 -0.4036 -0.2156
  391MOL0     C53881   5.758   5.166   1.569 -0.0640  0.2841 -0.7049
  391MOL0     C53882   5.672   5.196   1.443  0.5039  0.7553  0.7830
  391MOL0     C53883   5.527   5.212   1.488  0.2373  0.5615 -0.4544
  391MOL0     C53884   5.442   5.204   1.363 -0.0390 -0.4715  0.3545
  391MOL0     C53885   5.371   5.213   1.267 -1.0446 -0.7127  0.1525
  391MOL0     C53886   6.163   5.259   1.468 -0.8119 -0.3675  0.3757
  391MOL0     C53887   6.296   5.256   1.516  0.1964  0.0260  0.1827
  391MOL0     C53888   6.379   5.379   1.544  1.0526  0.1063  0.8822
  391MOL0     H53889   6.699   5.372   1.663  0.3111 -1.5549  1.9409
  391MOL0     H53890   6.934   5.397   1.698 -0.6293  0.4721  0.0326
  391MOL0     H53891   7.310   5.176   1.661  0.6475 -2.2067  0.1942
  391MOL0     H53892   7.215   5.043   1.584 -1.8225  0.4678 -0.8454
  391MOL0     H53893   7.188   5.157   1.868  1.7716  1.2499 -1.1707
  391MOL0     H53894   7.084   5.025   1.797  0.7302 -2.0417 -0.3712
  391MOL0     H53895   7.377   5.049   1.843 -2.5158  3.0973 -0.7290
  391MOL0     H53896   7.274   4.972   1.962  0.7620  1.0348  0.3887
  391MOL0     H53897   7.204   4.797   1.812 -2.0882  3.1640  1.6949
  391MOL0     H53898   7.298   4.873   1.676  0.6845  1.3264  0.8268
  391MOL0     H53899   7.409   4.756   1.945  1.8159 -1.3729  0.1912
  391MOL0     H53900   7.505   4.847   1.823  1.2756 -2.2654 -1.7196
  391MOL0     H53901   7.465   4.660   1.663 -1.2858 -2.0979 -1.3066
  391MOL0     H53902   7.530   4.594   1.810 -0.3021 -0.9472  0.0239
  391MOL0     H53903   7.245   4.614   1.733  1.8458  0.4420 -2.4030
  391MOL0     H53904   7.279   4.533   1.890 -1.4332  0.3150 -0.4497
  391MOL0     H53905   7.360   4.440   1.606 -1.4829  2.0674 -0.2714
  391MOL0     H53906   7.419   4.369   1.764  0.0045  0.7436 -0.4844
  391MOL0     H53907   7.167   4.303   1.932 -0.3333 -1.2997  0.2032
  391MOL0     H53908   6.937   4.196   1.969 -3.4983  3.0092  1.4492
  391MOL0     H53909   6.924   4.095   1.820  0.0645 -0.1210  1.2680
  391MOL0     H53910   6.768   4.355   1.909  0.3375  2.7937 -4.3262
  391MOL0     H53911   6.750   4.269   1.751  0.0882 -0.8107 -0.0259
  391MOL0     H53912   6.698   4.062   1.888 -0.9981  0.2145 -1.8162
  391MOL0     H53913   6.687   4.162   2.039 -0.3167  0.8218 -0.0944
  391MOL0     H53914   6.468   4.092   1.944  1.9350 -1.5858  1.1544
  391MOL0     H53915   6.498   4.274   1.934 -1.1652  0.5132 -1.4288
  391MOL0     H53916   6.441   4.091   1.527 -0.6258 -0.0365 -1.2007
  391MOL0     H53917   6.152   4.063   1.336  0.0294  0.1756  0.0239
  391MOL0     H53918   6.186   3.924   1.443  0.4355 -0.6584 -0.4582
  391MOL0     H53919   6.324   4.014   1.368  2.0555 -1.1037  4.9396
  391MOL0     H53920   5.839   3.858   1.527 -0.0582 -0.1616 -0.2781
  391MOL0     H53921   5.617   3.788   1.411 -1.2448  0.3596 -1.6919
  391MOL0     H53922   5.475   3.862   1.234 -0.0111  1.1507 -0.7837
  391MOL0     H53923   5.326   3.786   1.280  0.7782 -0.6850 -0.7258
  391MOL0     H53924   5.224   4.020   1.252  1.4672  3.3481  0.4682
  391MOL0     H53925   5.376   4.086   1.231 -0.2640  0.6043  2.8259
  391MOL0     H53926   5.243   3.894   1.030 -0.0295 -0.9780  1.8547
  391MOL0     H53927   5.414   3.922   1.032 -0.3010 -0.4298  0.8043
  391MOL0     H53928   5.391   4.157   1.004 -0.5707  0.9810 -0.8818
  391MOL0     H53929   5.226   4.163   1.049  2.4330  2.4770  0.4044
  391MOL0     H53930   5.354   4.048   0.801 -1.7095 -4.0049 -1.3582
  391MOL0     H53931   5.188   4.014   0.823  1.2801 -1.8623  0.4493
  391MOL0     H53932   5.300   4.299   0.831 -2.0149 -0.0762  2.7168
  391MOL0     H53933   5.132   4.246   0.842 -0.8700 -2.5353  0.5674
  391MOL0     H53934   5.120   4.296   0.619  2.3983  3.9647  2.2264
  391MOL0     H53935   5.175   4.126   0.610 -1.2219  1.2518 -1.9788
  391MOL0     H53936   5.338   4.381   0.563 -1.7002  0.7555 -1.3936
  391MOL0     H53937   5.280   4.272   0.448 -0.2468 -0.1721  0.5267
  391MOL0     H53938   5.431   4.132   1.559  2.2146  3.1400  1.7543
  391MOL0     H53939   5.630   4.216   1.658  1.7061 -0.1931  0.7106
  391MOL0     H53940   6.044   4.239   1.784 -0.1334 -1.4184  0.9732
  391MOL0     H53941   6.268   4.243   1.892  0.1250  0.0092 -0.3849
  391MOL0     H53942   7.021   5.060   1.445  1.0930  1.8038 -1.2762
  391MOL0     H53943   6.793   5.056   1.381  3.4423 -0.9120 -1.0355
  391MOL0     H53944   6.347   4.920   1.457 -0.6635  0.2564 -2.5583
  391MOL0     H53945   6.105   4.934   1.414  1.3310  0.7099 -1.7005
  391MOL0     H53946   5.840   4.994   1.483 -1.2509  0.7471 -1.1731
  391MOL0     H53947   5.934   5.059   1.612 -2.9880 -2.8569  1.7511
  391MOL0     H53948   5.804   5.254   1.616 -0.1293 -0.1141  0.1052
  391MOL0     H53949   5.702   5.104   1.639  1.1037 -0.1215 -0.0892
  391MOL0     H53950   5.693   5.288   1.388 -0.8789 -0.6605 -2.3630
  391MOL0     H53951   5.680   5.114   1.371 -0.0216  0.2159  1.3206
  391MOL0     H53952   5.522   5.313   1.531 -0.5741 -0.2242  1.3592
  391MOL0     H53953   5.497   5.136   1.560  1.7192 -0.6120 -1.0187
  391MOL0     H53954   5.311   5.214   1.179 -0.6735  3.7053 -0.2409
  391MOL0     H53955   6.115   5.357   1.473  0.7751  0.4542  0.3122
  391MOL0     H53956   6.453   5.398   1.466 -1.7068  1.9876 -1.4775
  391MOL0     H53957   6.314   5.466   1.534 -1.8867 -2.0919 -0.4475
  391MOL0     H53958   6.439   5.374   1.636  2.3740  1.2043  0.1094
  392MOL0     O53959   3.711   0.056   5.944  0.0318  0.1172  0.5617
  392MOL0     C53960   3.769   0.151   5.992 -0.6764  1.7151  0.4352
  392MOL0     O53961   3.882   0.141   6.075  0.7882 -0.0404 -0.9255
  392MOL0     C53962   3.929   0.015   6.120  0.0968  0.4645 -0.4866
  392MOL0     C53963   3.991   0.010   6.246 -0.3123  0.1372  0.5212
  392MOL0     C53964   4.047  -0.108   6.300 -0.2139 -0.1466  0.1508
  392MOL0     C53965   4.045  -0.223   6.223 -0.1104  0.1852 -0.4079
  392MOL0     O53966   4.102  -0.345   6.262 -0.1227 -0.0418  0.6296
  392MOL0     C53967   4.216  -0.341   6.357 -0.2694 -0.6978  0.3998
  392MOL0     C53968   4.278  -0.473   6.385  0.2846  0.6223  0.7418
  392MOL0     C53969   4.302  -0.566   6.267 -0.4575 -0.9197  0.4376
  392MOL0     C53970   4.381  -0.697   6.316  0.2210 -0.2203  0.3609
  392MOL0     C53971   4.529  -0.676   6.335  0.1251 -0.0522 -0.3120
  392MOL0     C53972   4.600  -0.638   6.202  0.0157  0.4320  0.1581
  392MOL0     C53973   4.748  -0.662   6.196 -0.2621  0.0353 -0.7713
  392MOL0     C53974   4.818  -0.585   6.311 -0.3173  0.4593 -0.5056
  392MOL0     N53975   4.965  -0.582   6.303  0.7326  0.0705  0.0964
  392MOL0     C53976   5.056  -0.677   6.274 -0.1581 -0.1318  0.6007
  392MOL0     C53977   5.170  -0.632   6.330  0.1336  0.2301  0.7543
  392MOL0     C53978   5.302  -0.701   6.303 -0.3980 -0.0827  0.1670
  392MOL0     C53979   5.382  -0.643   6.187  0.7250  0.0784  0.3650
  392MOL0     C53980   5.501  -0.714   6.122  0.7692  0.6767  0.2124
  392MOL0     C53981   5.619  -0.627   6.147 -0.1986  0.7248 -0.2451
  392MOL0     O53982   5.750  -0.678   6.137 -0.2394  0.3306  0.3667
  392MOL0     C53983   5.860  -0.592   6.142  0.1695  0.1572 -0.0777
  392MOL0     C53984   5.985  -0.661   6.117 -0.4868 -0.1073 -0.2673
  392MOL0     C53985   6.105  -0.593   6.137 -0.8149  0.2401 -0.8130
  392MOL0     C53986   6.229  -0.672   6.106 -0.7444 -0.7593 -0.2493
  392MOL0     C53987   6.108  -0.464   6.178 -0.0890 -0.0825  0.8849
  392MOL0     C53988   6.240  -0.392   6.197  0.6280 -0.2174 -0.2802
  392MOL0     O53989   6.252  -0.285   6.280 -0.0802 -0.1450 -0.1906
  392MOL0     C53990   6.366  -0.212   6.289  0.2245  0.2797 -0.3642
  392MOL0     C53991   6.381  -0.102   6.210  0.3030 -0.2524  0.2462
  392MOL0     C53992   6.504  -0.039   6.202 -0.8142  0.3472  0.3690
  392MOL0     C53993   6.620  -0.084   6.267  0.5472 -1.2727  0.1420
  392MOL0     O53994   6.748  -0.014   6.265 -1.0904  0.8760  0.1994
  392MOL0     C53995   6.749   0.129   6.248  0.6601  0.1317 -0.2880
  392MOL0     C53996   6.891   0.191   6.226 -0.2434  0.0075 -1.0357
  392MOL0     C53997   7.004   0.082   6.220 -0.2144 -1.4372  1.2130
  392MOL0     C53998   7.136   0.152   6.234 -0.1222  0.5814 -0.0499
  392MOL0     C53999   7.254   0.056   6.249  0.3383 -0.7455 -0.0600
  392MOL0     C54000   7.385   0.135   6.242  0.2166  0.0868 -0.9650
  392MOL0     C54001   7.490   0.035   6.255  0.3163  0.1253 -0.1982
  392MOL0     C54002   7.631   0.088   6.246 -0.6574  0.4084 -0.3886
  392MOL0    Cl54003   7.679   0.129   6.087 -0.2030 -0.1943  0.0945
  392MOL0     C54004   6.602  -0.189   6.363  0.2431  0.3510  0.3762
  392MOL0     C54005   6.480  -0.255   6.367  0.3386 -0.0337 -0.3109
  392MOL0     O54006   6.326  -0.416   6.121 -0.9048 -0.0104 -0.1556
  392MOL0     C54007   5.990  -0.390   6.201 -0.8394 -0.0015  0.3477
  392MOL0     C54008   5.869  -0.455   6.190  0.0801  1.0652  0.5247
  392MOL0     N54009   5.149  -0.516   6.402 -0.5589 -0.8969 -0.1404
  392MOL0     N54010   5.026  -0.486   6.385 -0.8957  0.0994  0.4624
  392MOL0     C54011   3.975  -0.225   6.101  0.4229 -0.0770  0.1221
  392MOL0     C54012   3.927  -0.105   6.046  1.3025 -0.4252 -0.2451
  392MOL0     C54013   3.726   0.288   5.964  0.3265  0.9338  0.2054
  392MOL0     C54014   3.829   0.377   5.934 -0.7206  0.0296  0.2597
  392MOL0     C54015   3.812   0.512   5.927  0.4222  0.8486 -0.1876
  392MOL0     C54016   3.686   0.564   5.946 -0.3434 -0.3523  0.1574
  392MOL0     O54017   3.678   0.702   5.928 -0.2830 -0.6035 -0.0155
  392MOL0     C54018   3.556   0.771   5.904 -0.3252 -0.8199 -0.3065
  392MOL0     C54019   3.578   0.921   5.899 -0.3800  0.2373  0.1663
  392MOL0     C54020   3.445   0.994   5.899  0.6787  0.0688  0.2428
  392MOL0     C54021   3.471   1.145   5.886 -0.5737  1.0825  0.2624
  392MOL0     C54022   3.534   1.187   5.755  0.7483 -0.5349  0.4394
  392MOL0     C54023   3.584   1.221   5.654 -0.8848 -0.6460  0.1619
  392MOL0     C54024   3.579   0.479   5.968 -1.3816  0.3874 -0.3050
  392MOL0     C54025   3.592   0.343   5.978 -0.3701 -0.3646 -0.4536
  392MOL0     C54026   3.469   0.262   6.016  0.4056  0.0275 -0.0862
  392MOL0     H54027   4.005   0.102   6.302  0.0334  0.4179 -0.0231
  392MOL0     H54028   4.080  -0.119   6.403 -0.7834  1.9169  0.5939
  392MOL0     H54029   4.179  -0.312   6.456  2.0058 -1.8350  1.6737
  392MOL0     H54030   4.280  -0.265   6.311 -0.3338 -2.1303 -2.2757
  392MOL0     H54031   4.380  -0.460   6.420  0.6223 -0.1484  0.0940
  392MOL0     H54032   4.222  -0.533   6.457 -0.4227 -1.8264 -1.6679
  392MOL0     H54033   4.200  -0.593   6.239 -0.3752 -1.0287  0.2348
  392MOL0     H54034   4.344  -0.507   6.185 -0.8533  0.2982  1.0860
  392MOL0     H54035   4.342  -0.738   6.409  1.5269 -1.7716  0.2714
  392MOL0     H54036   4.369  -0.775   6.240 -1.2806 -2.8011  3.0797
  392MOL0     H54037   4.577  -0.771   6.363  0.0585  0.2329  0.8234
  392MOL0     H54038   4.548  -0.603   6.413  1.1757  0.7369 -1.2736
  392MOL0     H54039   4.555  -0.690   6.117 -0.3168  3.4894 -1.6943
  392MOL0     H54040   4.588  -0.530   6.188 -1.9533  0.2957  0.5169
  392MOL0     H54041   4.784  -0.625   6.100  0.7557 -0.2415 -0.5071
  392MOL0     H54042   4.767  -0.770   6.193 -0.5024 -0.0057 -0.8098
  392MOL0     H54043   4.789  -0.479   6.313  0.8451  0.7886 -0.5002
  392MOL0     H54044   4.796  -0.633   6.407 -0.1018 -1.2696 -1.2853
  392MOL0     H54045   5.042  -0.764   6.210  1.1833  2.2274 -3.2582
  392MOL0     H54046   5.280  -0.806   6.285 -2.1264  0.3143 -0.2938
  392MOL0     H54047   5.369  -0.707   6.389  0.1343  2.1258 -0.0299
  392MOL0     H54048   5.310  -0.629   6.106 -1.1064 -2.1906  1.4750
  392MOL0     H54049   5.419  -0.549   6.228  1.8682 -0.0664 -0.2902
  392MOL0     H54050   5.503  -0.816   6.162 -1.1440 -0.1974 -1.6575
  392MOL0     H54051   5.482  -0.735   6.016 -2.1654 -0.3296  0.8252
  392MOL0     H54052   5.609  -0.547   6.074 -1.4804 -2.4285 -3.8431
  392MOL0     H54053   5.615  -0.590   6.250 -0.2538 -0.3384  0.1528
  392MOL0     H54054   5.984  -0.761   6.076  1.4066 -1.0229  1.7067
  392MOL0     H54055   6.211  -0.780   6.112  0.3259 -1.3587 -4.6229
  392MOL0     H54056   6.308  -0.657   6.180 -1.8257 -1.2866  1.0531
  392MOL0     H54057   6.267  -0.654   6.005  0.2228 -0.6426  0.1222
  392MOL0     H54058   6.301  -0.068   6.146  0.8058 -1.8030 -1.2969
  392MOL0     H54059   6.521   0.044   6.135  2.1422 -0.0419  0.5315
  392MOL0     H54060   6.699   0.159   6.156  0.9315  0.6794 -0.2615
  392MOL0     H54061   6.700   0.174   6.335 -1.9585  1.5287 -2.3295
  392MOL0     H54062   6.896   0.255   6.137  0.4853  1.2665 -0.1213
  392MOL0     H54063   6.920   0.255   6.310  1.2572 -0.2754 -1.2972
  392MOL0     H54064   7.005   0.047   6.117  0.6323  1.2127  0.2373
  392MOL0     H54065   6.995  -0.004   6.288 -0.6272 -1.8275  0.6729
  392MOL0     H54066   7.131   0.215   6.324 -1.0624  0.5366 -0.0649
  392MOL0     H54067   7.156   0.217   6.148 -1.3360 -0.7577 -1.3903
  392MOL0     H54068   7.246  -0.016   6.332 -0.2213  0.6741  1.1718
  392MOL0     H54069   7.246  -0.006   6.160 -1.0952 -1.6877  0.6828
  392MOL0     H54070   7.386   0.216   6.315  0.4832 -1.4233  0.7799
  392MOL0     H54071   7.394   0.177   6.141 -0.2735  1.0385 -0.6203
  392MOL0     H54072   7.472  -0.031   6.169 -4.4787  2.6441 -1.4778
  392MOL0     H54073   7.486  -0.025   6.347 -1.1852  0.7114  0.1446
  392MOL0     H54074   7.700   0.009   6.278 -1.0834 -0.8969 -2.4968
  392MOL0     H54075   7.642   0.173   6.314  0.5359 -0.6364  0.7902
  392MOL0     H54076   6.672  -0.210   6.442 -2.1372 -0.1971  2.4786
  392MOL0     H54077   6.460  -0.336   6.436 -2.3057  0.0534 -0.8524
  392MOL0     H54078   5.998  -0.287   6.234  0.3435  0.0427 -0.0168
  392MOL0     H54079   5.775  -0.407   6.215 -0.7389  0.9569 -2.0378
  392MOL0     H54080   3.971  -0.316   6.043  1.5838 -0.3437  0.4170
  392MOL0     H54081   3.880  -0.104   5.949 -0.1154 -2.2115  0.3427
  392MOL0     H54082   3.931   0.348   5.912 -0.4206  2.9901 -3.2364
  392MOL0     H54083   3.898   0.577   5.910  0.6693  0.8407  0.9657
  392MOL0     H54084   3.508   0.745   5.809  0.6278 -0.6793 -0.8431
  392MOL0     H54085   3.482   0.745   5.980  1.1071  0.0344  1.4636
  392MOL0     H54086   3.623   0.945   5.802  0.0880 -0.8816  0.0865
  392MOL0     H54087   3.637   0.956   5.984 -0.2548 -0.6288  0.4385
  392MOL0     H54088   3.380   0.951   5.822 -0.8115 -2.7997  2.8809
  392MOL0     H54089   3.395   0.972   5.993 -1.3274 -1.9184 -1.1827
  392MOL0     H54090   3.545   1.168   5.963  0.0525 -0.9775  0.3285
  392MOL0     H54091   3.377   1.200   5.898 -1.5425  0.4073 -3.0981
  392MOL0     H54092   3.630   1.253   5.563 -1.8724  0.0165 -0.1345
  392MOL0     H54093   3.478   0.515   5.985 -2.4136 -2.1289 -0.7879
  392MOL0     H54094   3.458   0.273   6.124 -1.6901 -1.7119 -0.0644
  392MOL0     H54095   3.382   0.275   5.951 -1.8103  0.4151  2.7671
  392MOL0     H54096   3.491   0.155   6.021 -0.9471 -0.5415 -3.3247
  393MOL0     O54097  10.280   7.259   3.003  0.7466  0.2924  0.6365
  393MOL0     C54098  10.252   7.247   3.121 -0.6178  0.4307 -0.5524
  393MOL0     O54099  10.347   7.206   3.214 -0.1232 -0.3270 -0.1216
  393MOL0     C54100  10.469   7.159   3.163  0.5477 -0.7450 -0.2753
  393MOL0     C54101  10.470   7.031   3.097 -0.0212 -0.0352 -0.3757
  393MOL0     C54102  10.578   6.983   3.035 -1.1228 -0.1649  0.2333
  393MOL0     C54103  10.699   7.055   3.047  0.9160  0.7729  0.4031
  393MOL0     O54104  10.817   7.015   2.993 -0.1203 -0.3867 -0.2276
  393MOL0     C54105  10.821   6.891   2.920  0.2340 -0.8674 -0.4513
  393MOL0     C54106  10.973   6.875   2.912  0.9419 -0.2367 -0.5446
  393MOL0     C54107  11.023   6.781   2.802  0.0687  0.5524 -0.0190
  393MOL0     C54108  11.173   6.752   2.798 -0.1151 -0.1741 -0.2915
  393MOL0     C54109  11.196   6.633   2.709 -0.0933  0.5036 -0.1688
  393MOL0     C54110  11.334   6.573   2.729 -0.2477  0.0249 -0.0297
  393MOL0     C54111  11.438   6.658   2.656 -1.0207  0.8341  0.2141
  393MOL0     C54112  11.553   6.559   2.614  0.1975 -0.0886  0.1553
  393MOL0     N54113  11.508   6.462   2.514 -0.0333  0.4062 -0.1569
  393MOL0     C54114  11.494   6.489   2.378 -0.3454  0.0036 -0.9726
  393MOL0     C54115  11.469   6.368   2.324  0.3650  0.2518  0.1316
  393MOL0     C54116  11.437   6.338   2.182  0.4343  0.4364  0.0895
  393MOL0     C54117  11.552   6.335   2.094  1.1114  0.0415 -0.6357
  393MOL0     C54118  11.645   6.225   2.138  0.9059  0.0287 -0.1196
  393MOL0     C54119  11.735   6.174   2.028 -0.3604 -0.2524  0.4818
  393MOL0     O54120  11.781   6.276   1.936 -0.3281  0.4009 -0.5919
  393MOL0     C54121  11.913   6.302   1.948 -0.3466  0.2905 -0.5667
  393MOL0     C54122  11.989   6.289   2.067  0.2880  0.2795  0.5166
  393MOL0     C54123  12.134   6.317   2.076  0.6575  0.4668 -0.3482
  393MOL0     C54124  12.211   6.311   2.208 -0.3540 -0.4786  0.3804
  393MOL0     C54125  12.201   6.349   1.952 -0.8461  0.1610  0.6467
  393MOL0     C54126  12.351   6.364   1.934  0.5986  0.3628  0.3479
  393MOL0     O54127  12.397   6.450   1.839 -0.1567 -0.1136  0.8051
  393MOL0     C54128  12.535   6.475   1.819  0.8417  0.8199  1.0175
  393MOL0     C54129  12.577   6.482   1.692 -0.9061  0.2779  0.5164
  393MOL0     C54130  12.716   6.487   1.661  0.2694  0.5386 -0.0472
  393MOL0     C54131  12.807   6.495   1.764 -0.1075 -0.1483 -0.8164
  393MOL0     O54132  12.930   6.502   1.721  0.0514 -0.2929 -0.3145
  393MOL0     C54133  13.040   6.523   1.810 -0.2529  0.2863  0.0822
  393MOL0     C54134  13.171   6.459   1.748 -0.4223 -0.1137 -0.0804
  393MOL0     C54135  13.182   6.494   1.595 -0.7427  0.1129  0.0545
  393MOL0     C54136  13.324   6.435   1.552  0.5360 -0.0947 -0.2093
  393MOL0     C54137  13.374   6.490   1.414  0.0314  1.0089  1.1695
  393MOL0     C54138  13.262   6.487   1.311  0.6223 -0.4428 -0.3106
  393MOL0     C54139  13.207   6.350   1.257 -0.4631 -0.2922  0.1607
  393MOL0     C54140  13.080   6.383   1.186 -0.7493 -0.3968  0.0148
  393MOL0    Cl54141  12.948   6.371   1.305  0.1778  0.2224 -0.2352
  393MOL0     C54142  12.761   6.505   1.901  0.2512  0.2864 -0.3450
  393MOL0     C54143  12.626   6.486   1.927 -0.7439  0.3273 -0.1915
  393MOL0     O54144  12.425   6.302   2.011  0.5780  0.1866 -0.6231
  393MOL0     C54145  12.121   6.369   1.838  0.6020  0.0759 -0.8242
  393MOL0     C54146  11.981   6.360   1.840 -0.4838  0.9918 -0.2827
  393MOL0     N54147  11.484   6.276   2.428  0.4160  0.0677  0.0048
  393MOL0     N54148  11.505   6.333   2.541  0.3669  0.4552  0.8457
  393MOL0     C54149  10.708   7.169   3.116 -0.0648 -0.6676  0.1590
  393MOL0     C54150  10.589   7.222   3.173 -1.0237  0.2448  0.3306
  393MOL0     C54151  10.113   7.282   3.182 -0.3466 -0.9459 -0.6241
  393MOL0     C54152  10.111   7.333   3.316 -0.0739  0.1926 -0.3404
  393MOL0     C54153   9.991   7.395   3.364 -0.3951  0.5543  0.1172
  393MOL0     C54154   9.872   7.393   3.299 -0.3525  0.2011  0.2949
  393MOL0     O54155   9.769   7.465   3.362 -0.3280  0.1718  0.4018
  393MOL0     C54156   9.629   7.438   3.311  0.0643  0.5415 -0.0167
  393MOL0     C54157   9.544   7.548   3.376  0.3830 -0.4245 -0.2446
  393MOL0     C54158   9.510   7.514   3.523  0.1585  0.2573 -0.5507
  393MOL0     C54159   9.432   7.618   3.598  0.0823 -1.5371 -0.6967
  393MOL0     C54160   9.431   7.596   3.745  0.2472  0.2572  0.7983
  393MOL0     C54161   9.426   7.571   3.865  0.4745 -0.5407  0.0811
  393MOL0     C54162   9.874   7.332   3.165 -0.0886  0.4013  0.4065
  393MOL0     C54163   9.988   7.280   3.112  0.2302  0.2386 -0.2667
  393MOL0     C54164   9.982   7.244   2.967  0.7784 -0.4994 -0.5220
  393MOL0     H54165  10.372   6.984   3.098  0.8520 -2.0599  2.8161
  393MOL0     H54166  10.563   6.892   2.979 -1.0283 -0.4100  0.6019
  393MOL0     H54167  10.782   6.915   2.820 -0.5950  0.4430  0.1674
  393MOL0     H54168  10.770   6.803   2.961  0.6643 -0.2265  1.5462
  393MOL0     H54169  11.025   6.970   2.895  0.7501  0.0358  0.3626
  393MOL0     H54170  11.005   6.827   3.005 -1.6136 -0.4170  0.3257
  393MOL0     H54171  10.957   6.694   2.807  0.0132  0.5735 -0.3600
  393MOL0     H54172  10.999   6.830   2.707 -1.5748  2.7562  1.4385
  393MOL0     H54173  11.234   6.842   2.786 -0.1872 -0.0209  0.4574
  393MOL0     H54174  11.209   6.725   2.898  1.2949  1.0940 -0.4197
  393MOL0     H54175  11.180   6.649   2.602 -0.2388 -0.5947 -0.3296
  393MOL0     H54176  11.136   6.545   2.735  0.2489 -0.7676 -3.3116
  393MOL0     H54177  11.349   6.554   2.835  0.5111 -1.3427 -0.3536
  393MOL0     H54178  11.322   6.476   2.680 -1.0106 -0.0982  0.3891
  393MOL0     H54179  11.476   6.742   2.716 -3.0537  2.1880 -0.2834
  393MOL0     H54180  11.402   6.704   2.563  1.3828 -2.0877 -2.4138
  393MOL0     H54181  11.636   6.613   2.567  0.3537  0.4293  0.9946
  393MOL0     H54182  11.595   6.522   2.708  2.3184 -0.0199 -0.7080
  393MOL0     H54183  11.491   6.586   2.330 -1.3887  0.0897 -0.7542
  393MOL0     H54184  11.367   6.410   2.138 -0.0506 -0.2308 -0.2542
  393MOL0     H54185  11.384   6.242   2.181 -3.2771  2.2512  0.8907
  393MOL0     H54186  11.519   6.316   1.991 -0.3308 -0.2596 -0.1479
  393MOL0     H54187  11.607   6.429   2.099 -1.6224  1.6858  2.7262
  393MOL0     H54188  11.706   6.258   2.222  0.0658 -1.0950  0.9707
  393MOL0     H54189  11.584   6.139   2.166  1.5367 -0.2350  0.4822
  393MOL0     H54190  11.815   6.118   2.078  0.7835  1.5511  0.7938
  393MOL0     H54191  11.679   6.104   1.966 -0.7920  0.7430 -0.2691
  393MOL0     H54192  11.946   6.267   2.164 -1.9480  0.0110 -0.4836
  393MOL0     H54193  12.271   6.220   2.215 -1.3099 -0.9808  3.3855
  393MOL0     H54194  12.144   6.313   2.295  2.5141 -1.3933  2.7555
  393MOL0     H54195  12.280   6.395   2.219 -0.3566 -0.6829  2.2340
  393MOL0     H54196  12.499   6.483   1.617 -0.9595 -1.2153  0.5201
  393MOL0     H54197  12.739   6.502   1.556  2.2016  1.5418  0.4656
  393MOL0     H54198  13.058   6.629   1.828  0.3161  0.7574 -2.7529
  393MOL0     H54199  13.025   6.478   1.908  3.9098 -2.4940 -0.2976
  393MOL0     H54200  13.251   6.508   1.804 -2.6286  0.4484  2.7760
  393MOL0     H54201  13.180   6.352   1.769  0.4993 -0.4776 -2.0132
  393MOL0     H54202  13.179   6.601   1.571 -0.2377 -0.4701 -3.0744
  393MOL0     H54203  13.103   6.441   1.540 -1.2074 -0.2824  1.0716
  393MOL0     H54204  13.309   6.330   1.528  0.7170 -0.2795  0.4811
  393MOL0     H54205  13.389   6.441   1.640  0.3979 -0.9410 -0.0403
  393MOL0     H54206  13.403   6.595   1.426  1.5736  0.8606 -0.7878
  393MOL0     H54207  13.458   6.429   1.379 -1.5733 -1.0577  0.7223
  393MOL0     H54208  13.319   6.535   1.230  2.3205 -0.7988  0.6203
  393MOL0     H54209  13.183   6.554   1.347  0.1620  0.1971 -2.3910
  393MOL0     H54210  13.194   6.271   1.332  0.3863 -2.6627 -2.0277
  393MOL0     H54211  13.282   6.304   1.191 -0.4716 -0.2614  0.1291
  393MOL0     H54212  13.066   6.300   1.117  1.2356 -1.6703  1.0442
  393MOL0     H54213  13.087   6.474   1.127 -0.8909 -0.0681  0.4910
  393MOL0     H54214  12.828   6.493   1.986 -1.6253 -1.3077  0.9823
  393MOL0     H54215  12.586   6.484   2.028 -1.6016  0.4871 -0.5183
  393MOL0     H54216  12.168   6.411   1.749  1.6740 -1.6974 -1.1352
  393MOL0     H54217  11.922   6.382   1.752 -1.2212  1.2838  0.2719
  393MOL0     H54218  10.807   7.213   3.121 -0.0647 -0.7536  3.8421
  393MOL0     H54219  10.585   7.318   3.224  1.0425  0.3449  0.3902
  393MOL0     H54220  10.199   7.332   3.380 -0.5787 -2.2729  0.4199
  393MOL0     H54221  10.007   7.442   3.460  2.8856  0.4229 -0.2478
  393MOL0     H54222   9.618   7.450   3.203 -1.5707 -0.2274  0.0340
  393MOL0     H54223   9.585   7.341   3.333  0.3476  0.8001  1.8473
  393MOL0     H54224   9.453   7.546   3.316  0.7597  0.5009 -0.8785
  393MOL0     H54225   9.596   7.644   3.371  0.8585 -0.6532  0.2150
  393MOL0     H54226   9.455   7.420   3.532 -1.9076  1.3005 -1.6060
  393MOL0     H54227   9.605   7.500   3.576  0.3452  1.0302 -0.6584
  393MOL0     H54228   9.328   7.616   3.564  0.2414 -1.0647 -1.2412
  393MOL0     H54229   9.463   7.722   3.583 -1.6434 -0.5200  2.1252
  393MOL0     H54230   9.420   7.545   3.969 -2.4925  0.0935  0.1333
  393MOL0     H54231   9.778   7.335   3.114 -0.0838  2.0777  0.4147
  393MOL0     H54232   9.882   7.216   2.932 -0.0579  1.4010  0.2204
  393MOL0     H54233  10.021   7.333   2.917  1.1917  1.2957  2.7113
  393MOL0     H54234  10.042   7.156   2.941 -1.7613 -1.8105 -2.4556
  394MOL0     O54235   8.904   9.920   6.167 -0.0562 -0.2069 -0.4619
  394MOL0     C54236   8.889   9.945   6.285  0.8110 -0.0199  0.1789
  394MOL0     O54237   8.983   9.918   6.378 -0.3893  0.5954 -0.4364
  394MOL0     C54238   9.110   9.888   6.334 -1.1393  0.3485 -0.3798
  394MOL0     C54239   9.201   9.990   6.297  0.4480 -0.1646 -0.6926
  394MOL0     C54240   9.332   9.960   6.264  0.1733 -0.4196  0.9178
  394MOL0     C54241   9.378   9.826   6.266  0.3945  0.5537 -0.0299
  394MOL0     O54242   9.503   9.780   6.228 -0.7952  0.1490  0.2538
  394MOL0     C54243   9.618   9.859   6.221  0.5236 -0.4899  1.3986
  394MOL0     C54244   9.734   9.771   6.188 -0.4549 -0.3713 -0.0245
  394MOL0     C54245   9.865   9.852   6.161  0.7908 -0.8812  0.1681
  394MOL0     C54246   9.983   9.765   6.144 -0.6420 -0.2905  0.4872
  394MOL0     C54247  10.117   9.832   6.172  0.4622  0.2759 -0.7860
  394MOL0     C54248  10.128   9.969   6.103  0.0906  0.2821 -0.2473
  394MOL0     C54249  10.255  10.052   6.155  0.3163 -0.1857  1.3509
  394MOL0     C54250  10.311  10.154   6.056 -0.2232  1.3063  0.5345
  394MOL0     N54251  10.367  10.266   6.120 -0.2508 -0.6766 -0.0055
  394MOL0     C54252  10.436  10.265   6.236  0.1536  0.2260 -0.3556
  394MOL0     C54253  10.450  10.393   6.283 -0.1199 -0.3127  0.0593
  394MOL0     C54254  10.516  10.455   6.402  0.0150 -0.4191  1.1387
  394MOL0     C54255  10.559  10.603   6.380  0.0877 -0.2067 -0.1299
  394MOL0     C54256  10.683  10.629   6.283 -0.0900  0.0068  0.1526
  394MOL0     C54257  10.795  10.523   6.298 -0.2699 -0.4199  0.2389
  394MOL0     O54258  10.911  10.581   6.227 -0.5160 -0.8512 -0.7519
  394MOL0     C54259  11.006  10.502   6.173 -0.6581 -0.3345  0.1046
  394MOL0     C54260  11.034  10.371   6.214 -0.0506  0.5482 -0.3486
  394MOL0     C54261  11.143  10.302   6.162 -0.0595 -0.1031 -0.4747
  394MOL0     C54262  11.170  10.169   6.230  0.4009  0.0654 -0.0041
  394MOL0     C54263  11.229  10.352   6.061  1.2326 -1.5688  0.7523
  394MOL0     C54264  11.342  10.291   5.998 -0.2075  0.2349 -0.0054
  394MOL0     O54265  11.455  10.356   5.985  0.2404 -0.3214 -0.5873
  394MOL0     C54266  11.578  10.303   5.949  0.0478 -0.1837 -0.2220
  394MOL0     C54267  11.662  10.368   5.860  0.5889  0.2611  0.2091
  394MOL0     C54268  11.797  10.332   5.840 -0.4321  0.1534  0.0866
  394MOL0     C54269  11.853  10.232   5.916  0.4350  0.2583 -0.3358
  394MOL0     O54270  11.979  10.179   5.904  0.0726 -0.3899 -0.6728
  394MOL0     C54271  12.056  10.215   5.790 -1.2765  0.5820 -0.5452
  394MOL0     C54272  12.191  10.139   5.780 -0.6048  0.0853 -0.6614
  394MOL0     C54273  12.173   9.988   5.770  0.1655 -0.3880  0.1983
  394MOL0     C54274  12.292   9.923   5.694 -0.5743 -0.2550 -0.5142
  394MOL0     C54275  12.272   9.777   5.680  0.5022 -0.3660  0.7830
  394MOL0     C54276  12.412   9.723   5.640 -0.1785  0.1851  0.7549
  394MOL0     C54277  12.430   9.569   5.645 -0.3945 -0.1093 -0.1235
  394MOL0     C54278  12.319   9.497   5.577 -0.8897  0.0471  0.0067
  394MOL0    Cl54279  12.342   9.526   5.404  0.0107  0.1579 -0.0902
  394MOL0     C54280  11.767  10.174   6.006  0.3391 -0.8021 -0.1620
  394MOL0     C54281  11.631  10.197   6.020 -0.3814  0.4334 -0.0297
  394MOL0     O54282  11.328  10.182   5.951 -0.3366 -0.0714 -0.2115
  394MOL0     C54283  11.192  10.486   6.016 -0.3319  0.3955 -0.1378
  394MOL0     C54284  11.090  10.560   6.077 -0.9878  0.2131 -0.5725
  394MOL0     N54285  10.372  10.466   6.190 -0.3701  0.7279 -0.3240
  394MOL0     N54286  10.323  10.392   6.101 -0.2444 -0.1499 -0.1124
  394MOL0     C54287   9.286   9.721   6.308 -0.5919 -0.3657 -0.3318
  394MOL0     C54288   9.149   9.753   6.331  0.0611  0.4566 -0.2887
  394MOL0     C54289   8.753  10.005   6.323 -0.3088 -0.2296 -0.6416
  394MOL0     C54290   8.732  10.019   6.455 -0.0761 -0.1243 -0.1467
  394MOL0     C54291   8.614  10.064   6.520 -0.6685  0.2114 -0.0517
  394MOL0     C54292   8.506  10.090   6.437  0.3606  1.2204  0.0281
  394MOL0     O54293   8.397  10.149   6.486 -0.3696 -0.2577  0.3485
  394MOL0     C54294   8.276  10.075   6.463  0.5516 -0.3422 -0.4996
  394MOL0     C54295   8.203  10.043   6.598 -1.1231 -0.2547  0.3162
  394MOL0     C54296   8.175  10.168   6.680  0.5559 -0.5339 -0.4372
  394MOL0     C54297   8.099  10.278   6.605 -0.3308 -0.2819  0.2590
  394MOL0     C54298   7.965  10.238   6.567  0.5634 -0.1511 -0.2426
  394MOL0     C54299   7.844  10.207   6.547  0.2268  0.0318  0.7864
  394MOL0     C54300   8.520  10.064   6.295 -0.4084 -0.4078  0.6007
  394MOL0     C54301   8.642  10.021   6.238  0.1250  0.3242 -0.0550
  394MOL0     C54302   8.646   9.994   6.087 -1.3114  0.2934  0.2814
  394MOL0     H54303   9.162  10.091   6.294 -0.2900 -0.4072  0.1460
  394MOL0     H54304   9.394  10.043   6.231  2.0639 -1.8633  0.7496
  394MOL0     H54305   9.632   9.908   6.319  2.9723  0.8379  0.4866
  394MOL0     H54306   9.596   9.928   6.140 -4.2119 -0.4709  2.4255
  394MOL0     H54307   9.754   9.713   6.278  0.2975 -0.0040  0.0496
  394MOL0     H54308   9.700   9.702   6.110  0.8311  0.7646 -1.6627
  394MOL0     H54309   9.852   9.926   6.082  3.0102 -0.2197  0.3645
  394MOL0     H54310   9.889   9.919   6.244  1.1302 -2.0829  1.0747
  394MOL0     H54311   9.974   9.685   6.218  1.0674  1.2197  2.4608
  394MOL0     H54312   9.972   9.740   6.038  0.3251  0.7407  0.1198
  394MOL0     H54313  10.188   9.771   6.117  1.1571 -1.6816  2.0822
  394MOL0     H54314  10.148   9.836   6.277 -1.3225 -0.7847 -0.1794
  394MOL0     H54315  10.151   9.951   5.998  5.0887 -0.7939  0.7834
  394MOL0     H54316  10.038  10.027   6.126 -1.2837 -2.2807  1.2942
  394MOL0     H54317  10.333   9.976   6.163 -2.0791 -2.8456  1.0491
  394MOL0     H54318  10.236  10.110   6.246  1.5830  2.0928  0.2448
  394MOL0     H54319  10.393  10.102   6.007 -0.1132  0.3815  1.6246
  394MOL0     H54320  10.232  10.173   5.983 -2.4350 -1.5283  1.9491
  394MOL0     H54321  10.474  10.179   6.291 -0.4480  1.6106  2.4398
  394MOL0     H54322  10.608  10.401   6.429  2.0964  2.2724 -0.0472
  394MOL0     H54323  10.451  10.445   6.489 -0.2783 -0.1141  0.9543
  394MOL0     H54324  10.468  10.648   6.339 -0.7725 -2.3545 -0.7669
  394MOL0     H54325  10.576  10.653   6.475 -0.9722  2.3696 -1.2088
  394MOL0     H54326  10.652  10.630   6.179 -2.5651  0.5589  0.8315
  394MOL0     H54327  10.714  10.732   6.300  0.6223  0.9305 -5.2054
  394MOL0     H54328  10.825  10.512   6.403  4.2181 -0.3694 -0.8080
  394MOL0     H54329  10.759  10.430   6.253  1.4339 -1.1622  0.3007
  394MOL0     H54330  10.986  10.323   6.298  2.8410 -4.3527 -1.1319
  394MOL0     H54331  11.144  10.082   6.168  0.5008 -1.5035  2.0218
  394MOL0     H54332  11.122  10.154   6.328 -3.1568  0.0526 -1.6086
  394MOL0     H54333  11.279  10.164   6.239  0.5300 -2.5213 -1.7256
  394MOL0     H54334  11.618  10.453   5.808 -2.2388 -1.1759  0.0356
  394MOL0     H54335  11.861  10.391   5.775  0.1133  0.2043  0.6513
  394MOL0     H54336  12.006  10.186   5.697 -1.2225  1.3910 -0.8347
  394MOL0     H54337  12.075  10.323   5.792  1.8603  0.3283 -3.9286
  394MOL0     H54338  12.253  10.174   5.697  1.3870  1.6336  1.3650
  394MOL0     H54339  12.247  10.157   5.872 -2.9600  0.9558  0.6886
  394MOL0     H54340  12.077   9.964   5.725  0.9771 -1.4335 -1.0414
  394MOL0     H54341  12.165   9.964   5.877 -1.3116  1.4948  0.5684
  394MOL0     H54342  12.379   9.937   5.759 -0.2026 -0.7970 -0.8915
  394MOL0     H54343  12.298   9.962   5.592  0.6493 -1.0253 -0.7578
  394MOL0     H54344  12.238   9.743   5.779  1.3632 -3.0052  0.2456
  394MOL0     H54345  12.204   9.764   5.595 -1.9217  0.9839  2.3747
  394MOL0     H54346  12.488   9.767   5.705  2.9969  2.0434 -3.7332
  394MOL0     H54347  12.439   9.762   5.542  3.2772 -0.8523  1.1734
  394MOL0     H54348  12.443   9.543   5.751  0.4481 -2.7330 -0.8233
  394MOL0     H54349  12.520   9.534   5.595 -1.1705 -3.8420  0.8023
  394MOL0     H54350  12.220   9.536   5.605 -1.2455 -1.1139  0.3968
  394MOL0     H54351  12.335   9.391   5.596 -0.1010 -0.0237 -0.9242
  394MOL0     H54352  11.800  10.086   6.059 -0.0132  0.1968  1.8090
  394MOL0     H54353  11.583  10.144   6.102  2.3347  2.4094  3.0809
  394MOL0     H54354  11.260  10.537   5.948  1.1954  0.8532  1.6365
  394MOL0     H54355  11.078  10.661   6.040  0.7695 -0.4753 -3.3390
  394MOL0     H54356   9.326   9.621   6.295  0.7004  0.0836  0.0921
  394MOL0     H54357   9.077   9.674   6.349  0.5439 -0.0225 -0.4001
  394MOL0     H54358   8.816  10.005   6.523  0.5797  1.4140 -0.5836
  394MOL0     H54359   8.601  10.072   6.627  0.5938  3.5328 -0.0347
  394MOL0     H54360   8.213  10.121   6.386 -1.3340  0.5119  1.4407
  394MOL0     H54361   8.304   9.984   6.409 -1.1924 -0.6389 -0.9704
  394MOL0     H54362   8.257   9.969   6.658 -1.6971  0.0889  1.2668
  394MOL0     H54363   8.107  10.000   6.567 -1.9943  1.1941  0.9298
  394MOL0     H54364   8.112  10.132   6.762 -1.3576  0.8558 -1.2101
  394MOL0     H54365   8.269  10.207   6.720 -0.1788 -0.6692  1.5196
  394MOL0     H54366   8.149  10.321   6.518  0.2473 -1.3917  0.0195
  394MOL0     H54367   8.091  10.366   6.670 -2.2107 -0.0460 -0.2288
  394MOL0     H54368   7.744  10.179   6.524  0.8243 -1.3486 -0.3182
  394MOL0     H54369   8.437  10.083   6.228  0.7348 -1.2728 -1.1739
  394MOL0     H54370   8.720  10.063   6.047  3.7044 -3.0768  2.7666
  394MOL0     H54371   8.683   9.892   6.073  1.1323  0.9681  1.3661
  394MOL0     H54372   8.548  10.003   6.039 -1.7767  0.7005  1.2828
  395MOL0     O54373   9.272   2.650   9.012  0.5956  0.0430 -0.2468
  395MOL0     C54374   9.320   2.611   9.121 -0.3263 -0.3655  0.7770
  395MOL0     O54375   9.438   2.551   9.132 -0.6149  0.0928 -0.4962
  395MOL0     C54376   9.511   2.497   9.029 -0.1369  0.2330  0.2134
  395MOL0     C54377   9.531   2.572   8.912  0.4123 -0.5437  0.1994
  395MOL0     C54378   9.628   2.527   8.813 -0.4712  0.8852 -0.2388
  395MOL0     C54379   9.696   2.402   8.824  0.5038  0.0905 -0.5430
  395MOL0     O54380   9.794   2.352   8.747  0.1171  0.6687  0.6236
  395MOL0     C54381   9.842   2.430   8.637 -0.4853  0.1228 -1.2228
  395MOL0     C54382   9.966   2.358   8.582  0.3011  0.4359  0.1729
  395MOL0     C54383  10.094   2.384   8.653 -0.4186  0.3770  0.1448
  395MOL0     C54384  10.141   2.531   8.639 -0.5686 -0.1798 -0.2274
  395MOL0     C54385  10.279   2.554   8.705  0.1646 -0.8257  0.9432
  395MOL0     C54386  10.274   2.577   8.851  0.0492 -0.6804 -1.5174
  395MOL0     C54387  10.395   2.659   8.901  0.2789 -0.4039 -0.0797
  395MOL0     C54388  10.529   2.616   8.842  0.2594  0.2228 -0.2893
  395MOL0     N54389  10.579   2.484   8.887 -0.1700  1.2878  0.4959
  395MOL0     C54390  10.649   2.461   9.009 -0.1955 -0.1067 -0.4032
  395MOL0     C54391  10.712   2.343   8.996  0.1975 -0.0684 -0.2626
  395MOL0     C54392  10.809   2.280   9.087 -0.5452 -0.3922  0.1529
  395MOL0     C54393  10.823   2.336   9.228 -0.1645 -0.4865 -0.3784
  395MOL0     C54394  10.700   2.313   9.321  0.1132  0.1638  0.4425
  395MOL0     C54395  10.733   2.359   9.457 -0.1197 -0.1285 -0.2683
  395MOL0     O54396  10.770   2.499   9.458 -0.3047  0.6001  0.2438
  395MOL0     C54397  10.842   2.548   9.569  0.3703  0.3892 -0.0296
  395MOL0     C54398  10.878   2.683   9.564  0.2815 -0.4507  0.1708
  395MOL0     C54399  10.964   2.742   9.665 -0.3845  0.4795  0.2976
  395MOL0     C54400  10.992   2.889   9.637 -1.2596 -0.1416 -0.8369
  395MOL0     C54401  11.025   2.671   9.767  0.0733  0.1190 -0.1543
  395MOL0     C54402  11.131   2.716   9.863  0.4067  0.1785  0.7205
  395MOL0     O54403  11.159   2.632   9.969 -0.0794 -0.5993 -0.3415
  395MOL0     C54404  11.288   2.619  10.013 -0.4515  0.4033  0.0027
  395MOL0     C54405  11.400   2.609   9.937 -0.9597 -0.1118  0.3949
  395MOL0     C54406  11.529   2.592   9.992 -0.0578 -0.1165 -0.0938
  395MOL0     C54407  11.546   2.596  10.133  0.0950  0.1234 -0.0311
  395MOL0     O54408  11.669   2.573  10.195 -0.4344 -0.6611  0.3875
  395MOL0     C54409  11.795   2.628  10.130  0.7166  0.1507 -0.1490
  395MOL0     C54410  11.918   2.583  10.218  0.2113 -0.1312 -0.0548
  395MOL0     C54411  12.048   2.634  10.168 -1.0869  0.7214 -0.2710
  395MOL0     C54412  12.156   2.568  10.250  0.1649  0.3782 -0.3681
  395MOL0     C54413  12.287   2.642  10.214 -1.1418  0.3842 -0.1271
  395MOL0     C54414  12.404   2.617  10.314 -0.5292  0.0722  0.2199
  395MOL0     C54415  12.539   2.695  10.286 -0.9627  0.4047  0.1818
  395MOL0     C54416  12.607   2.643  10.158  0.2106 -0.1299  0.4766
  395MOL0    Cl54417  12.778   2.705  10.154  0.0157  0.0387 -0.6010
  395MOL0     C54418  11.430   2.601  10.213  0.2815 -0.1138 -0.0626
  395MOL0     C54419  11.303   2.616  10.153 -0.5806  0.0406  0.0533
  395MOL0     O54420  11.200   2.811   9.831  0.1743 -0.0527  0.4256
  395MOL0     C54421  10.971   2.543   9.784 -0.8457 -0.3407 -0.6651
  395MOL0     C54422  10.888   2.484   9.689  0.0590 -0.0889  0.0381
  395MOL0     N54423  10.689   2.307   8.867  0.4731  0.7259 -0.1491
  395MOL0     N54424  10.610   2.383   8.803  0.4817  0.1192 -0.0034
  395MOL0     C54425   9.645   2.316   8.928 -0.3705 -0.3587 -0.0829
  395MOL0     C54426   9.575   2.373   9.032 -0.4784  0.3664 -0.3975
  395MOL0     C54427   9.247   2.619   9.251 -0.8179  0.5866  0.9429
  395MOL0     C54428   9.322   2.566   9.356  0.0307  0.2248  0.0488
  395MOL0     C54429   9.267   2.575   9.482 -0.2685 -0.8916 -1.3733
  395MOL0     C54430   9.153   2.637   9.508  0.1533 -0.4152 -0.2177
  395MOL0     O54431   9.112   2.647   9.637  0.3908 -0.6137  0.5164
  395MOL0     C54432   9.047   2.521   9.687 -0.0996 -0.3886 -0.0126
  395MOL0     C54433   8.907   2.511   9.635  0.4222  0.2453 -1.1798
  395MOL0     C54434   8.827   2.616   9.709  0.5238  0.0248 -0.2809
  395MOL0     C54435   8.690   2.627   9.641 -0.2402  0.3905 -0.3827
  395MOL0     C54436   8.576   2.653   9.731  0.3910  1.5011 -0.0137
  395MOL0     C54437   8.490   2.718   9.777 -0.0903 -0.3849 -0.5848
  395MOL0     C54438   9.078   2.680   9.405 -0.5286 -0.5345 -0.0192
  395MOL0     C54439   9.118   2.671   9.269 -0.0600  0.4420  0.0005
  395MOL0     C54440   9.027   2.721   9.160 -0.2609  0.5189  0.2142
  395MOL0     H54441   9.478   2.665   8.893  2.7965  0.6076 -1.3000
  395MOL0     H54442   9.654   2.601   8.739  0.3841  3.7835  2.7427
  395MOL0     H54443   9.874   2.522   8.686 -0.9664 -0.2554 -0.1804
  395MOL0     H54444   9.771   2.452   8.557  0.9059 -1.4868 -2.9979
  395MOL0     H54445   9.939   2.252   8.586 -2.6322  1.0789 -0.7057
  395MOL0     H54446   9.977   2.389   8.477  2.6188 -0.8161 -0.0314
  395MOL0     H54447  10.073   2.366   8.759 -1.4693 -0.3483 -0.1690
  395MOL0     H54448  10.160   2.311   8.605 -4.2469 -0.5420 -4.5378
  395MOL0     H54449  10.140   2.564   8.535  2.0159  2.3722  0.4586
  395MOL0     H54450  10.068   2.605   8.675 -2.1712 -1.9920  0.4761
  395MOL0     H54451  10.314   2.639   8.646 -1.2306 -1.4622 -0.9320
  395MOL0     H54452  10.349   2.475   8.676  0.4174  0.7786 -3.7829
  395MOL0     H54453  10.185   2.634   8.877  1.5801  0.8935  0.6317
  395MOL0     H54454  10.263   2.481   8.900 -0.2535 -1.1953 -2.5577
  395MOL0     H54455  10.395   2.677   9.009 -0.1179  0.4439 -0.2107
  395MOL0     H54456  10.392   2.754   8.847  2.4963 -0.3687 -0.2346
  395MOL0     H54457  10.521   2.606   8.733 -2.8889 -1.2445 -0.0168
  395MOL0     H54458  10.603   2.688   8.877 -0.3122 -0.8681  3.5861
  395MOL0     H54459  10.647   2.529   9.094 -0.4685  0.9146 -1.2095
  395MOL0     H54460  10.910   2.282   9.046 -0.7091 -0.0319 -0.2381
  395MOL0     H54461  10.777   2.175   9.087 -2.3829  0.1423 -0.2930
  395MOL0     H54462  10.896   2.268   9.274  2.9068  3.3210  0.9083
  395MOL0     H54463  10.866   2.436   9.235  0.8850 -1.0261  4.2423
  395MOL0     H54464  10.619   2.374   9.279 -0.8585 -1.6261 -0.4096
  395MOL0     H54465  10.663   2.210   9.330 -2.9575  0.5441 -4.0413
  395MOL0     H54466  10.640   2.347   9.514 -0.9817  0.4918 -1.4940
  395MOL0     H54467  10.825   2.313   9.495  3.3038  4.4389 -2.0733
  395MOL0     H54468  10.839   2.744   9.484  1.3280 -0.0032 -0.0142
  395MOL0     H54469  10.903   2.948   9.611 -1.4070  1.7589  3.2465
  395MOL0     H54470  11.066   2.886   9.557 -2.2763 -0.5663 -1.8019
  395MOL0     H54471  11.031   2.938   9.726  1.5114 -0.6112 -1.7091
  395MOL0     H54472  11.405   2.621   9.829  0.7860  2.7053  0.6809
  395MOL0     H54473  11.615   2.582   9.928 -1.1434  1.6046 -1.9412
  395MOL0     H54474  11.802   2.614  10.022  1.1166  0.9162 -0.2278
  395MOL0     H54475  11.788   2.738  10.133 -2.2750  0.0716 -0.7307
  395MOL0     H54476  11.908   2.633  10.315  2.0695 -0.9885  0.6252
  395MOL0     H54477  11.907   2.474  10.221 -0.8365 -0.0877 -1.5046
  395MOL0     H54478  12.057   2.743  10.168 -0.5708  0.7461  2.6442
  395MOL0     H54479  12.052   2.597  10.065  1.1778 -2.4453  0.8215
  395MOL0     H54480  12.151   2.460  10.233 -0.0235  0.5052 -1.1599
  395MOL0     H54481  12.139   2.579  10.357 -3.8628 -2.1957 -0.5272
  395MOL0     H54482  12.318   2.590  10.123 -3.0369 -0.4485 -0.3299
  395MOL0     H54483  12.269   2.748  10.195  1.8755  0.9930 -0.1424
  395MOL0     H54484  12.416   2.509  10.320  0.9094  0.1121 -1.2214
  395MOL0     H54485  12.369   2.647  10.413 -0.2170  0.3416  0.2504
  395MOL0     H54486  12.597   2.660  10.372 -1.5597 -0.6272  0.1737
  395MOL0     H54487  12.520   2.803  10.281 -0.2125  0.4944 -1.2133
  395MOL0     H54488  12.563   2.680  10.064  0.3396 -0.4829  0.2768
  395MOL0     H54489  12.611   2.535  10.145 -1.0221 -0.1965  0.4853
  395MOL0     H54490  11.447   2.598  10.320  1.4540  1.7593 -0.1373
  395MOL0     H54491  11.228   2.622  10.232  0.3832 -1.2751  1.1226
  395MOL0     H54492  11.013   2.478   9.860 -2.9254  0.4012  1.2241
  395MOL0     H54493  10.856   2.382   9.709 -1.7469  1.0596  4.2203
  395MOL0     H54494   9.694   2.221   8.952  0.5917  0.1563  0.0433
  395MOL0     H54495   9.568   2.314   9.123  1.6795  1.3594  0.4840
  395MOL0     H54496   9.418   2.517   9.355 -0.3985 -0.7394  1.8469
  395MOL0     H54497   9.327   2.531   9.560  1.0419  0.8282 -1.3379
  395MOL0     H54498   9.106   2.436   9.651  0.2823  0.6001 -1.8830
  395MOL0     H54499   9.047   2.516   9.796  0.2125  1.2386  0.0837
  395MOL0     H54500   8.866   2.413   9.662  0.2000  1.1845  2.4272
  395MOL0     H54501   8.903   2.522   9.527 -0.5226  1.2130 -1.0631
  395MOL0     H54502   8.814   2.591   9.815  1.5267 -2.5986 -0.6866
  395MOL0     H54503   8.869   2.717   9.703 -0.6429  0.4652 -1.2986
  395MOL0     H54504   8.674   2.530   9.595 -0.8872  0.4041 -0.1834
  395MOL0     H54505   8.685   2.705   9.565  0.3050  0.3084 -0.5115
  395MOL0     H54506   8.405   2.770   9.816 -0.6850  1.7725 -4.3172
  395MOL0     H54507   8.983   2.733   9.415 -0.3695 -0.4996  1.6368
  395MOL0     H54508   9.062   2.816   9.118  1.3168  0.8906  2.2119
  395MOL0     H54509   9.028   2.649   9.078  2.4037  1.0975 -0.3488
  395MOL0     H54510   8.926   2.743   9.194 -0.1095 -0.5803  1.4469
  396MOL0     O54511   0.016  10.482   1.680 -0.0990 -0.7616  0.1911
  396MOL0     C54512  -0.056  10.406   1.619  0.1366  0.6399 -0.0396
  396MOL0     O54513  -0.015  10.273   1.595  1.0096 -0.5442  0.1587
  396MOL0     C54514   0.119  10.239   1.585  0.2466  0.2989 -0.3214
  396MOL0     C54515   0.217  10.305   1.518  0.1247 -0.4082  0.1396
  396MOL0     C54516   0.349  10.260   1.530 -0.3618  0.7845 -0.1146
  396MOL0     C54517   0.380  10.141   1.603 -0.0114 -0.5308  0.9473
  396MOL0     O54518   0.511  10.107   1.591 -0.1635 -0.2764 -0.5314
  396MOL0     C54519   0.542   9.975   1.650 -1.0480  0.6164 -0.0007
  396MOL0     C54520   0.680   9.920   1.602  0.3705 -0.1568  0.6651
  396MOL0     C54521   0.711   9.791   1.668  0.0168 -1.4112  0.7433
  396MOL0     C54522   0.785   9.703   1.560  0.3099 -0.6180  0.5701
  396MOL0     C54523   0.822   9.556   1.599 -0.8812 -0.7475  0.5115
  396MOL0     C54524   0.918   9.552   1.725  0.3058 -0.2539  0.2142
  396MOL0     C54525   1.005   9.417   1.736  0.3432 -1.1000 -0.2268
  396MOL0     C54526   1.151   9.445   1.694  1.6179 -0.3380 -0.5681
  396MOL0     N54527   1.249   9.346   1.724  0.0965 -0.2366  0.7181
  396MOL0     C54528   1.244   9.214   1.700  0.7424 -0.1474 -0.4956
  396MOL0     C54529   1.365   9.171   1.744  0.3533 -0.1423  0.3570
  396MOL0     C54530   1.409   9.026   1.757 -0.0869  0.7343  0.1858
  396MOL0     C54531   1.556   8.988   1.755 -0.8429 -1.1481  0.3175
  396MOL0     C54532   1.623   9.013   1.618  0.6078  0.1420 -0.0278
  396MOL0     C54533   1.759   8.940   1.603 -0.4111  0.2559  0.0924
  396MOL0     O54534   1.842   8.963   1.716  0.1611 -0.2416 -0.0270
  396MOL0     C54535   1.973   8.928   1.699 -0.0860  0.2453  0.5036
  396MOL0     C54536   2.019   8.811   1.632  0.2877  0.0117 -0.5787
  396MOL0     C54537   2.156   8.781   1.628 -0.4199 -0.3695  0.1151
  396MOL0     C54538   2.198   8.656   1.557  0.1956 -0.6617  0.3244
  396MOL0     C54539   2.258   8.873   1.685  1.1906  1.0209  0.0220
  396MOL0     C54540   2.406   8.844   1.697 -0.0365  0.3974 -0.0493
  396MOL0     O54541   2.462   8.728   1.656  0.1472  0.7718 -0.0625
  396MOL0     C54542   2.602   8.719   1.626  1.1806  0.1668  0.0626
  396MOL0     C54543   2.672   8.802   1.535 -0.1408  0.2367 -0.5519
  396MOL0     C54544   2.803   8.766   1.501 -0.3221  0.3362  0.4829
  396MOL0     C54545   2.859   8.655   1.555  0.1031  0.1032 -0.2457
  396MOL0     O54546   2.983   8.613   1.508  0.5733 -0.3781 -0.2317
  396MOL0     C54547   3.086   8.604   1.605  0.3286 -0.5707  0.1203
  396MOL0     C54548   3.217   8.646   1.545  0.3076 -0.4532 -0.3042
  396MOL0     C54549   3.214   8.798   1.513 -0.1555  0.0271  0.1657
  396MOL0     C54550   3.344   8.846   1.438 -0.0976  0.7818  0.7399
  396MOL0     C54551   3.465   8.872   1.525 -0.0674 -0.5150  0.0260
  396MOL0     C54552   3.591   8.907   1.449 -0.0674 -0.6544  0.5651
  396MOL0     C54553   3.596   9.034   1.380  0.2441 -0.1240  0.5983
  396MOL0     C54554   3.721   9.061   1.285  0.0920 -0.1350  0.2565
  396MOL0    Cl54555   3.840   8.926   1.279  0.2474 -0.0134 -0.1857
  396MOL0     C54556   2.795   8.581   1.657  0.5701 -0.2797 -0.7823
  396MOL0     C54557   2.663   8.608   1.692 -0.6761  0.6222 -0.1673
  396MOL0     O54558   2.473   8.939   1.745  0.1835  0.0767  0.6469
  396MOL0     C54559   2.200   8.994   1.740  0.6569 -0.8371 -0.4028
  396MOL0     C54560   2.068   9.016   1.743  0.2892  0.2594  0.2695
  396MOL0     N54561   1.443   9.281   1.783  0.4164 -0.0836  0.1324
  396MOL0     N54562   1.367   9.382   1.772 -1.0065  1.2815 -0.0360
  396MOL0     C54563   0.279  10.070   1.667 -0.0780 -0.0754 -0.4905
  396MOL0     C54564   0.147  10.117   1.649 -0.4962  0.1163 -0.2632
  396MOL0     C54565  -0.199  10.448   1.588 -0.3782 -0.1178 -0.1969
  396MOL0     C54566  -0.261  10.398   1.473  1.1396  0.4825  0.0270
  396MOL0     C54567  -0.395  10.427   1.440  0.8074 -0.2412 -0.0466
  396MOL0     C54568  -0.459  10.524   1.520 -0.3642 -0.9069 -0.1578
  396MOL0     O54569  -0.582  10.570   1.485  0.4556  0.7175 -0.3960
  396MOL0     C54570  -0.651  10.510   1.377  0.1242  0.7857 -0.1763
  396MOL0     C54571  -0.792  10.558   1.391  0.3440  0.4390 -0.1359
  396MOL0     C54572  -0.880  10.478   1.295  0.5058  0.2399  0.1465
  396MOL0     C54573  -1.034  10.521   1.306 -0.2518  0.6930 -0.1267
  396MOL0     C54574  -1.055  10.657   1.272  0.0396 -1.1795 -0.7513
  396MOL0     C54575  -1.084  10.775   1.256 -0.4220 -0.5548  0.0113
  396MOL0     C54576  -0.397  10.580   1.635 -0.1400  0.2185 -0.1117
  396MOL0     C54577  -0.273  10.542   1.674  0.0434  0.0228  0.9748
  396MOL0     C54578  -0.218  10.591   1.804 -0.0462  0.6573  0.8133
  396MOL0     H54579   0.191  10.387   1.452  1.5077  2.3430  2.7517
  396MOL0     H54580   0.425  10.313   1.474  1.4056  2.2423  3.3012
  396MOL0     H54581   0.469   9.899   1.619 -1.3336  1.6295 -1.9802
  396MOL0     H54582   0.537   9.973   1.759 -0.1767  0.2221  0.0427
  396MOL0     H54583   0.668   9.915   1.494 -0.5713  0.4796  0.7268
  396MOL0     H54584   0.757   9.994   1.625 -0.2947  1.4096 -1.7560
  396MOL0     H54585   0.779   9.811   1.752  3.7106 -2.3705 -1.7959
  396MOL0     H54586   0.624   9.742   1.714  0.9376  0.3179  4.8304
  396MOL0     H54587   0.729   9.704   1.465 -0.1751  1.5353  0.8242
  396MOL0     H54588   0.878   9.753   1.533  0.0919 -1.1609 -1.4150
  396MOL0     H54589   0.882   9.513   1.519  0.6374  2.3516 -0.1727
  396MOL0     H54590   0.732   9.496   1.615 -0.4366 -1.7602 -0.6669
  396MOL0     H54591   0.976   9.644   1.734 -0.8977  0.6495 -0.8992
  396MOL0     H54592   0.860   9.547   1.818 -1.1365 -1.4137 -0.7002
  396MOL0     H54593   0.952   9.342   1.676 -0.6004  0.8075 -1.9114
  396MOL0     H54594   1.001   9.388   1.841  1.1678  2.0698  0.7684
  396MOL0     H54595   1.147   9.479   1.590  0.4872  0.3121 -0.3248
  396MOL0     H54596   1.181   9.544   1.729  2.4070 -0.4994 -0.7616
  396MOL0     H54597   1.160   9.157   1.661  1.2603  0.1202 -2.0433
  396MOL0     H54598   1.358   8.964   1.682  1.6792  0.4233 -0.8172
  396MOL0     H54599   1.354   8.997   1.847 -5.7684  1.8601 -2.4751
  396MOL0     H54600   1.613   9.045   1.827  3.8387 -1.3786 -2.7465
  396MOL0     H54601   1.564   8.881   1.780  2.0870 -1.1236 -0.0946
  396MOL0     H54602   1.546   8.978   1.549 -0.8896 -1.4389  2.3061
  396MOL0     H54603   1.650   9.119   1.609  4.3322 -0.3290  2.9330
  396MOL0     H54604   1.741   8.832   1.598  3.3728 -0.6859  2.4884
  396MOL0     H54605   1.807   8.978   1.512 -1.6285  1.9277  0.1061
  396MOL0     H54606   1.942   8.740   1.603 -0.7312  0.8241  0.0475
  396MOL0     H54607   2.104   8.614   1.521 -3.0518  3.8284  2.4872
  396MOL0     H54608   2.251   8.594   1.630  1.4527  1.2120  1.0919
  396MOL0     H54609   2.253   8.698   1.472  0.8922  1.2900  1.6672
  396MOL0     H54610   2.623   8.886   1.487 -1.1792  0.4906  0.8939
  396MOL0     H54611   2.858   8.824   1.427 -1.0951  0.5899  0.0928
  396MOL0     H54612   3.063   8.658   1.698  2.3892  0.3339  0.1593
  396MOL0     H54613   3.095   8.502   1.643  2.0917  0.0120  1.3999
  396MOL0     H54614   3.297   8.629   1.617  0.0887  0.9835  0.3150
  396MOL0     H54615   3.224   8.585   1.454  0.3815 -1.3977  0.3220
  396MOL0     H54616   3.212   8.853   1.607 -1.4297 -3.7144  2.5156
  396MOL0     H54617   3.120   8.818   1.461  0.6299  2.1996 -0.5640
  396MOL0     H54618   3.328   8.940   1.384  0.0329  0.2735 -0.1910
  396MOL0     H54619   3.361   8.779   1.354 -4.1047 -1.8572  1.7098
  396MOL0     H54620   3.437   8.948   1.599  0.1049 -1.6000  1.2328
  396MOL0     H54621   3.489   8.781   1.580  0.3507  0.2661  1.1819
  396MOL0     H54622   3.609   8.831   1.372 -0.2213 -1.3069  1.1638
  396MOL0     H54623   3.682   8.909   1.509  1.8305  2.1862 -2.1153
  396MOL0     H54624   3.595   9.111   1.457  0.9494 -1.9477  2.5294
  396MOL0     H54625   3.503   9.034   1.321  1.7343  0.3369 -1.9107
  396MOL0     H54626   3.768   9.152   1.322  1.5297 -1.4828  1.8699
  396MOL0     H54627   3.691   9.085   1.182  0.0091 -3.5185 -0.6522
  396MOL0     H54628   2.838   8.490   1.696  0.2879 -0.2660 -0.4375
  396MOL0     H54629   2.602   8.546   1.757 -4.1251  1.8415 -1.9739
  396MOL0     H54630   2.261   9.061   1.799 -2.2265  2.9217 -1.3113
  396MOL0     H54631   2.043   9.110   1.790  1.8562  0.5321  0.6354
  396MOL0     H54632   0.303   9.992   1.739 -0.5798 -0.0531 -0.2933
  396MOL0     H54633   0.075  10.062   1.708 -2.4603  1.1269 -1.5953
  396MOL0     H54634  -0.200  10.344   1.401 -0.8158  0.9494 -2.0721
  396MOL0     H54635  -0.435  10.381   1.350 -1.7222  1.4897  0.1180
  396MOL0     H54636  -0.605  10.542   1.283  2.9316 -1.8848  0.1316
  396MOL0     H54637  -0.644  10.401   1.381  0.5281  0.7771 -0.9710
  396MOL0     H54638  -0.796  10.665   1.367  1.3246  1.1324  2.4725
  396MOL0     H54639  -0.835  10.553   1.491 -3.5800  2.6699 -1.4743
  396MOL0     H54640  -0.848  10.506   1.194 -1.6068  0.6826 -0.4570
  396MOL0     H54641  -0.875  10.369   1.298  0.5240  0.1972 -0.8969
  396MOL0     H54642  -1.066  10.510   1.410  0.3680 -3.0010 -0.1885
  396MOL0     H54643  -1.090  10.454   1.240 -0.7107 -0.2826  1.2222
  396MOL0     H54644  -1.089  10.882   1.257 -1.4895 -0.5768  2.0517
  396MOL0     H54645  -0.452  10.657   1.688 -0.3124  1.0891 -1.4920
  396MOL0     H54646  -0.154  10.520   1.857  0.7892  1.9363  1.5929
  396MOL0     H54647  -0.151  10.671   1.773  1.1966 -0.5458  0.3152
  396MOL0     H54648  -0.305  10.607   1.869 -1.8562  0.2157 -1.3637
  397MOL0     O54649  10.601   5.480   7.135  0.2336 -0.1831 -0.1563
  397MOL0     C54650  10.529   5.413   7.056 -1.2038 -0.8548 -0.5320
  397MOL0     O54651  10.560   5.388   6.921  0.0075 -0.0254  0.2808
  397MOL0     C54652  10.688   5.430   6.886 -0.0523  0.4887  0.2581
  397MOL0     C54653  10.806   5.378   6.945 -0.1814  0.3754 -0.2257
  397MOL0     C54654  10.935   5.410   6.892 -1.1288  0.0421  0.0269
  397MOL0     C54655  10.944   5.503   6.784 -0.1693  0.0708 -0.6282
  397MOL0     O54656  11.054   5.533   6.715 -0.4184 -0.5298  0.0154
  397MOL0     C54657  11.117   5.661   6.754 -1.0586  0.5159  0.4148
  397MOL0     C54658  11.265   5.652   6.778  0.5220 -0.7173 -0.5249
  397MOL0     C54659  11.293   5.563   6.907 -0.3509  0.1083  0.0517
  397MOL0     C54660  11.258   5.634   7.034  0.0317  0.2862 -0.5774
  397MOL0     C54661  11.320   5.567   7.152 -0.5553  0.1555 -0.0964
  397MOL0     C54662  11.280   5.421   7.163 -0.6269 -0.3230 -0.4052
  397MOL0     C54663  11.338   5.377   7.301 -0.9107  0.0498  0.1673
  397MOL0     C54664  11.318   5.229   7.329  0.1185 -0.1126  0.1551
  397MOL0     N54665  11.440   5.187   7.387 -0.1638 -0.2499  0.5134
  397MOL0     C54666  11.479   5.180   7.516  0.6937  0.3715  0.7358
  397MOL0     C54667  11.581   5.101   7.527  0.6938 -0.3419 -0.6418
  397MOL0     C54668  11.652   5.067   7.654 -0.7806  0.6202 -0.4071
  397MOL0     C54669  11.760   5.164   7.692  0.1548  0.9387  0.0451
  397MOL0     C54670  11.832   5.104   7.809  0.2271 -0.0284  0.6613
  397MOL0     C54671  11.946   5.193   7.860  0.1299 -0.3004  0.4685
  397MOL0     O54672  11.984   5.312   7.787  0.4322  0.8342  0.0640
  397MOL0     C54673  12.062   5.405   7.847  0.2687  0.0297 -0.5649
  397MOL0     C54674  12.107   5.398   7.980 -0.0388 -0.3666  0.9274
  397MOL0     C54675  12.185   5.501   8.038  0.4328 -0.9433 -0.4548
  397MOL0     C54676  12.239   5.492   8.181  0.7657  0.0419  1.0439
  397MOL0     C54677  12.220   5.617   7.965 -0.0615 -0.4745 -0.3288
  397MOL0     C54678  12.312   5.727   8.008 -0.1337 -0.0004  0.2788
  397MOL0     O54679  12.339   5.827   7.914  0.6201 -0.5326  0.0608
  397MOL0     C54680  12.433   5.927   7.941 -0.2826 -0.3623  0.4920
  397MOL0     C54681  12.551   5.918   8.012  0.1843 -0.0339  0.4563
  397MOL0     C54682  12.635   6.033   8.012  0.2516  0.3249  0.7174
  397MOL0     C54683  12.601   6.150   7.944  0.3506  0.0632 -0.2765
  397MOL0     O54684  12.688   6.253   7.956 -0.2561 -0.2215 -0.1599
  397MOL0     C54685  12.647   6.384   8.012  0.2848 -0.6049 -0.8870
  397MOL0     C54686  12.652   6.383   8.165 -0.8658  0.5663 -0.0318
  397MOL0     C54687  12.611   6.508   8.240  0.1998  0.2927 -0.6338
  397MOL0     C54688  12.601   6.467   8.386 -0.5332 -0.2434  0.7523
  397MOL0     C54689  12.575   6.585   8.478 -0.0066  0.3568 -0.1660
  397MOL0     C54690  12.634   6.554   8.617 -0.8346  0.1538 -0.2593
  397MOL0     C54691  12.602   6.659   8.719  0.5111 -0.2430 -0.2628
  397MOL0     C54692  12.675   6.790   8.693  0.2225 -0.8138  0.5283
  397MOL0    Cl54693  12.845   6.772   8.662 -0.4175 -0.1999  0.4377
  397MOL0     C54694  12.485   6.154   7.865 -0.1883 -0.3218  0.0118
  397MOL0     C54695  12.399   6.045   7.864  0.6159 -0.0191 -0.4655
  397MOL0     O54696  12.361   5.724   8.121  0.0389  0.4476  0.3001
  397MOL0     C54697  12.178   5.621   7.830 -0.1320 -0.9467  0.1273
  397MOL0     C54698  12.104   5.519   7.774  0.1420 -0.1593 -0.0528
  397MOL0     N54699  11.605   5.054   7.397  0.2566  0.0454 -0.7098
  397MOL0     N54700  11.526   5.105   7.315  0.4590 -0.9222  0.3984
  397MOL0     C54701  10.832   5.557   6.734  0.1316 -0.2426 -0.5195
  397MOL0     C54702  10.707   5.515   6.774  0.5775 -0.1017  0.2331
  397MOL0     C54703  10.392   5.386   7.104  0.6134 -0.4549 -0.1741
  397MOL0     C54704  10.292   5.416   7.007 -0.9454  1.1228  0.2624
  397MOL0     C54705  10.159   5.399   7.034  0.0014  0.0744  0.0683
  397MOL0     C54706  10.114   5.350   7.159  0.3098  0.2486 -0.0251
  397MOL0     O54707   9.983   5.353   7.199  0.3655 -0.2638 -0.4357
  397MOL0     C54708   9.883   5.373   7.097 -0.3247  0.2686  0.1440
  397MOL0     C54709   9.750   5.357   7.167  0.3184 -0.4012 -0.3436
  397MOL0     C54710   9.665   5.225   7.137 -0.0757 -0.5742  0.0585
  397MOL0     C54711   9.523   5.244   7.199 -0.2163  0.2646  0.5261
  397MOL0     C54712   9.436   5.131   7.194 -0.4422  0.1835  0.0696
  397MOL0     C54713   9.367   5.038   7.178  1.3790  1.3361  0.5477
  397MOL0     C54714  10.216   5.313   7.260 -0.5398  0.5117  0.5972
  397MOL0     C54715  10.354   5.337   7.233 -0.2677  0.2233 -0.1036
  397MOL0     C54716  10.455   5.294   7.339 -0.3659  0.4029  0.7315
  397MOL0     H54717  10.810   5.302   7.022  1.1131 -0.4514 -1.0709
  397MOL0     H54718  11.028   5.372   6.933 -0.6100  1.1592 -0.0837
  397MOL0     H54719  11.066   5.705   6.840 -3.3581  2.3603 -1.7226
  397MOL0     H54720  11.097   5.729   6.671 -2.4164 -1.9787 -1.4574
  397MOL0     H54721  11.309   5.588   6.701 -1.3569 -0.7061 -1.6789
  397MOL0     H54722  11.318   5.747   6.775  0.2819 -0.2688  3.6252
  397MOL0     H54723  11.241   5.467   6.898 -1.1519  0.5495 -0.0924
  397MOL0     H54724  11.399   5.537   6.896  0.4024  3.4644 -2.1046
  397MOL0     H54725  11.293   5.737   7.032 -2.8580  1.3750 -0.1900
  397MOL0     H54726  11.151   5.651   7.052 -0.3673 -1.2897 -1.3011
  397MOL0     H54727  11.293   5.621   7.243 -2.2506 -0.5107 -0.1545
  397MOL0     H54728  11.428   5.574   7.135 -0.9083  2.3953 -2.1020
  397MOL0     H54729  11.172   5.405   7.160 -0.4341 -1.8175 -0.2052
  397MOL0     H54730  11.331   5.358   7.089  2.0561  2.7468 -1.3654
  397MOL0     H54731  11.304   5.430   7.390 -1.6268 -1.1251  0.6179
  397MOL0     H54732  11.445   5.396   7.285 -1.1336  0.0424 -1.5485
  397MOL0     H54733  11.228   5.211   7.388 -0.2012 -1.0214 -0.5869
  397MOL0     H54734  11.308   5.169   7.238 -1.2357 -0.0074  0.2068
  397MOL0     H54735  11.445   5.244   7.598  0.8918  0.6985  0.5619
  397MOL0     H54736  11.697   4.968   7.644 -1.4819  0.0551  1.4795
  397MOL0     H54737  11.580   5.063   7.737 -1.0273  1.5864 -0.5662
  397MOL0     H54738  11.828   5.180   7.608  1.2156 -2.6283  0.0867
  397MOL0     H54739  11.713   5.258   7.723  0.5458  1.1472  0.0043
  397MOL0     H54740  11.770   5.077   7.895  1.6982  0.1944  1.8194
  397MOL0     H54741  11.872   5.009   7.771  0.8805  0.7896 -0.7610
  397MOL0     H54742  11.928   5.216   7.965  1.8287  0.6882  0.5776
  397MOL0     H54743  12.038   5.133   7.863  1.7325  1.8377 -1.5973
  397MOL0     H54744  12.093   5.309   8.041 -0.8754  0.7318  2.4181
  397MOL0     H54745  12.191   5.413   8.240  1.0042 -0.9998 -0.1157
  397MOL0     H54746  12.213   5.587   8.228  1.5868  0.7457  0.1181
  397MOL0     H54747  12.347   5.480   8.186  0.6978 -1.1036  0.2624
  397MOL0     H54748  12.575   5.819   8.049 -2.0278 -1.9100 -2.6147
  397MOL0     H54749  12.724   6.042   8.074 -0.6350  0.8155  1.9497
  397MOL0     H54750  12.719   6.457   7.974 -0.0103 -0.3689 -0.9970
  397MOL0     H54751  12.543   6.400   7.981  0.1352 -1.5595 -0.9338
  397MOL0     H54752  12.597   6.293   8.196  1.5124 -1.2268 -0.6772
  397MOL0     H54753  12.755   6.357   8.192 -1.7272  0.0646  3.3372
  397MOL0     H54754  12.519   6.542   8.191  0.9924  0.7308 -1.8650
  397MOL0     H54755  12.691   6.582   8.237  0.1034  0.3741 -1.3352
  397MOL0     H54756  12.693   6.416   8.413  0.2983  0.0694 -1.3101
  397MOL0     H54757  12.524   6.390   8.393 -2.2992  1.3937  0.2768
  397MOL0     H54758  12.625   6.671   8.433  1.1168 -0.3623 -0.3269
  397MOL0     H54759  12.470   6.615   8.481  0.1095  0.9277 -1.2734
  397MOL0     H54760  12.742   6.541   8.614 -0.9038 -0.8411  1.0094
  397MOL0     H54761  12.599   6.455   8.647  1.8363 -0.9077 -0.4126
  397MOL0     H54762  12.628   6.631   8.822 -0.4554  2.4464  0.8005
  397MOL0     H54763  12.495   6.679   8.718  0.7374  1.0477 -0.8468
  397MOL0     H54764  12.666   6.858   8.778  0.3056  1.6965 -1.3672
  397MOL0     H54765  12.628   6.838   8.607 -2.0448 -0.9581  1.6235
  397MOL0     H54766  12.465   6.243   7.807 -3.5541  0.1687  1.7056
  397MOL0     H54767  12.309   6.036   7.804 -0.0614  0.2849  0.4830
  397MOL0     H54768  12.196   5.703   7.761  0.4449 -0.1393  1.1943
  397MOL0     H54769  12.070   5.529   7.671 -1.4719 -2.8048  0.1174
  397MOL0     H54770  10.839   5.630   6.655  0.3167  0.3859  0.0711
  397MOL0     H54771  10.622   5.550   6.717  0.1058 -0.6541  0.5995
  397MOL0     H54772  10.317   5.458   6.910 -2.4204  1.0464 -0.1770
  397MOL0     H54773  10.086   5.423   6.958  0.8493 -0.0369 -0.8057
  397MOL0     H54774   9.893   5.471   7.049  0.1324  0.2667  0.2289
  397MOL0     H54775   9.889   5.302   7.013  0.7838 -0.6579  0.9768
  397MOL0     H54776   9.685   5.440   7.137 -1.8947 -2.8113 -2.9419
  397MOL0     H54777   9.780   5.362   7.272  2.3724  1.2414 -0.9405
  397MOL0     H54778   9.647   5.215   7.030 -4.4287  1.0456  0.4228
  397MOL0     H54779   9.719   5.137   7.173 -0.5165 -0.9016 -0.0685
  397MOL0     H54780   9.472   5.317   7.136 -1.4404 -1.5410 -0.6410
  397MOL0     H54781   9.520   5.300   7.293 -1.6330 -0.8742  1.1927
  397MOL0     H54782   9.299   4.960   7.149 -0.9951  2.3935  2.8785
  397MOL0     H54783  10.175   5.267   7.349  1.4234 -1.1474  0.7002
  397MOL0     H54784  10.393   5.237   7.408  0.8333  0.4912  1.9235
  397MOL0     H54785  10.536   5.229   7.306  1.4624  0.8606  3.8299
  397MOL0     H54786  10.506   5.378   7.389  0.4305 -0.0546  0.6974
  398MOL0     O54787   0.522   1.458   1.772  0.7146  0.4435  0.3291
  398MOL0     C54788   0.481   1.571   1.807  0.0444  0.0556  0.1353
  398MOL0     O54789   0.516   1.692   1.751 -0.1689  0.8462  0.4232
  398MOL0     C54790   0.621   1.695   1.665 -0.2520  0.1369 -0.3016
  398MOL0     C54791   0.734   1.765   1.703 -0.1085  0.6418 -0.1059
  398MOL0     C54792   0.845   1.780   1.633 -0.2669 -0.0240 -0.0512
  398MOL0     C54793   0.849   1.720   1.505  0.4341 -0.0924 -0.8549
  398MOL0     O54794   0.961   1.738   1.425 -0.6170 -0.1513 -0.2672
  398MOL0     C54795   0.942   1.747   1.289  0.3279  0.0957  0.1672
  398MOL0     C54796   1.045   1.817   1.194  0.5556 -0.2044  0.7316
  398MOL0     C54797   1.177   1.735   1.203 -0.1160  1.0900 -0.3702
  398MOL0     C54798   1.289   1.800   1.124 -0.4467  0.3636  0.1070
  398MOL0     C54799   1.414   1.712   1.157 -0.4848  0.1028  0.5882
  398MOL0     C54800   1.535   1.736   1.066  0.5108 -0.2978 -0.6887
  398MOL0     C54801   1.653   1.645   1.096  0.3474 -0.6327 -0.3880
  398MOL0     C54802   1.763   1.649   0.997 -0.1679 -0.3572  0.1387
  398MOL0     N54803   1.848   1.773   0.977  0.4626 -0.6077 -0.8059
  398MOL0     C54804   1.920   1.832   1.082  0.0039  0.5173 -0.4877
  398MOL0     C54805   1.977   1.940   1.027 -0.3839  1.3900 -0.2723
  398MOL0     C54806   2.050   2.046   1.108 -0.8667  1.0965 -0.0448
  398MOL0     C54807   2.196   1.985   1.158  0.5887 -0.2847 -0.3298
  398MOL0     C54808   2.284   1.980   1.027 -0.0148  0.3212 -0.0209
  398MOL0     C54809   2.430   1.988   1.071 -0.3913  0.4660 -0.2854
  398MOL0     O54810   2.488   1.854   1.060 -0.4079  0.0892 -0.0600
  398MOL0     C54811   2.625   1.864   1.072 -0.1036  0.0982 -0.1826
  398MOL0     C54812   2.701   1.973   1.107  0.0626 -0.1867 -0.0785
  398MOL0     C54813   2.839   1.959   1.137 -0.2917 -0.3390  0.1122
  398MOL0     C54814   2.913   2.083   1.192  0.1735  0.6701  0.4602
  398MOL0     C54815   2.909   1.838   1.102  0.0413 -0.4973  0.6570
  398MOL0     C54816   3.048   1.809   1.144 -1.1886  0.3785  0.7027
  398MOL0     O54817   3.089   1.826   1.273  0.0985 -0.2094  0.1836
  398MOL0     C54818   3.217   1.786   1.298 -0.0409 -0.1505  0.0593
  398MOL0     C54819   3.232   1.673   1.379 -0.3007 -0.4996  0.5394
  398MOL0     C54820   3.362   1.655   1.440  0.2357  0.3921  0.3706
  398MOL0     C54821   3.470   1.736   1.409 -0.2439  0.4824  0.0309
  398MOL0     O54822   3.591   1.727   1.467  0.3542  0.4089 -0.0805
  398MOL0     C54823   3.650   1.611   1.520 -0.3498  0.1745  0.5968
  398MOL0     C54824   3.800   1.639   1.530  0.6590  0.4439 -0.3777
  398MOL0     C54825   3.837   1.655   1.666 -0.4735 -0.4427 -0.0379
  398MOL0     C54826   3.990   1.663   1.695 -0.1727 -0.0029  0.8516
  398MOL0     C54827   4.021   1.644   1.843  0.0756 -0.0339  1.0890
  398MOL0     C54828   4.163   1.683   1.890  0.4836  0.9294  0.2623
  398MOL0     C54829   4.196   1.650   2.033  0.0737 -0.2072 -0.0313
  398MOL0     C54830   4.232   1.504   2.043 -0.5709 -0.3682 -0.4885
  398MOL0    Cl54831   4.328   1.461   2.193 -0.1427 -0.1406 -0.3228
  398MOL0     C54832   3.450   1.853   1.329 -0.9826 -0.0971  0.3996
  398MOL0     C54833   3.324   1.875   1.270  0.4061 -0.2616 -0.0873
  398MOL0     O54834   3.118   1.759   1.053  0.0409  0.4427  1.2360
  398MOL0     C54835   2.828   1.742   1.046 -0.3484 -0.3510  0.1158
  398MOL0     C54836   2.692   1.750   1.033  0.1164  0.3642 -0.2689
  398MOL0     N54837   1.953   1.936   0.886 -0.5433  0.3322 -0.0837
  398MOL0     N54838   1.874   1.845   0.862  0.4270  0.4974  0.1969
  398MOL0     C54839   0.739   1.639   1.463 -0.5366 -0.5423 -0.1444
  398MOL0     C54840   0.622   1.629   1.541  0.0276 -0.4315  0.0211
  398MOL0     C54841   0.364   1.571   1.903 -0.4760  0.2906 -0.8908
  398MOL0     C54842   0.280   1.454   1.897 -1.0958 -0.1140  0.3775
  398MOL0     C54843   0.178   1.447   1.981  0.5626 -0.2270  0.2359
  398MOL0     C54844   0.131   1.547   2.060  0.9004  0.0324 -0.0901
  398MOL0     O54845   0.019   1.516   2.133  0.1819  0.5750 -0.3554
  398MOL0     C54846  -0.032   1.626   2.215  0.2167 -0.4176 -1.0816
  398MOL0     C54847  -0.170   1.587   2.281 -0.5202 -0.0397  0.2656
  398MOL0     C54848  -0.137   1.500   2.404 -0.1504  0.1252  0.5340
  398MOL0     C54849  -0.244   1.393   2.429  0.1917  0.4093 -1.0506
  398MOL0     C54850  -0.244   1.282   2.333 -0.0415  0.4212 -1.1235
  398MOL0     C54851  -0.242   1.186   2.257 -0.4206  0.7965  0.8291
  398MOL0     C54852   0.198   1.664   2.063  0.0006 -0.5327 -0.0595
  398MOL0     C54853   0.322   1.680   1.990  0.5784 -0.6771  0.0152
  398MOL0     C54854   0.414   1.805   2.000 -0.0890  0.1253 -0.4469
  398MOL0     H54855   0.726   1.825   1.793 -0.4047  1.9126 -0.9631
  398MOL0     H54856   0.924   1.848   1.666  0.0359  0.3458 -1.4575
  398MOL0     H54857   0.848   1.802   1.277  1.0185  0.7977 -2.8745
  398MOL0     H54858   0.939   1.643   1.254 -1.4492  0.1870 -0.0595
  398MOL0     H54859   1.015   1.814   1.089  0.6414  1.6128  0.6182
  398MOL0     H54860   1.059   1.920   1.228  0.8990 -0.3170  0.9321
  398MOL0     H54861   1.202   1.720   1.308  2.1577 -0.7326 -1.1086
  398MOL0     H54862   1.152   1.637   1.163 -0.6378  0.2547  1.8677
  398MOL0     H54863   1.272   1.796   1.016 -1.4592  0.2417  0.2645
  398MOL0     H54864   1.307   1.905   1.149 -1.5857  0.7952 -0.8052
  398MOL0     H54865   1.387   1.606   1.154 -0.5775  0.1260 -2.2938
  398MOL0     H54866   1.443   1.738   1.259  1.1883 -0.0070  0.1768
  398MOL0     H54867   1.509   1.711   0.962 -1.1377 -0.2606 -0.3107
  398MOL0     H54868   1.561   1.842   1.072  1.5666 -0.6443  1.6077
  398MOL0     H54869   1.624   1.542   1.118 -0.4354 -0.3266  0.0390
  398MOL0     H54870   1.693   1.685   1.190 -1.5283 -1.1909  0.6955
  398MOL0     H54871   1.831   1.568   1.024 -0.7867 -1.1730 -0.6690
  398MOL0     H54872   1.723   1.619   0.900 -1.9716 -0.9674  1.0383
  398MOL0     H54873   1.923   1.806   1.187  3.0698 -1.8795 -1.0146
  398MOL0     H54874   1.992   2.056   1.200 -0.1570 -0.8655  0.6722
  398MOL0     H54875   2.065   2.141   1.056 -2.7060  1.5472  0.1761
  398MOL0     H54876   2.239   2.059   1.226 -1.7095  0.1395  0.7822
  398MOL0     H54877   2.192   1.882   1.195  1.2469 -1.1064 -2.3880
  398MOL0     H54878   2.257   1.898   0.961 -1.7337 -0.5835  1.7230
  398MOL0     H54879   2.260   2.071   0.970 -2.6239 -0.8071 -0.8582
  398MOL0     H54880   2.479   2.063   1.009 -0.5278  1.1200  0.3940
  398MOL0     H54881   2.436   2.018   1.176 -1.0182  1.4882 -0.5323
  398MOL0     H54882   2.665   2.073   1.130  3.3696  0.8048  1.3883
  398MOL0     H54883   3.018   2.086   1.160 -0.0013 -1.0031 -0.3558
  398MOL0     H54884   2.905   2.094   1.301 -1.1109  3.4640  0.1610
  398MOL0     H54885   2.881   2.177   1.146  2.0203  2.5463  2.6765
  398MOL0     H54886   3.144   1.619   1.410  1.2791 -1.3903  3.9867
  398MOL0     H54887   3.366   1.581   1.519  1.5077  1.2361  1.1330
  398MOL0     H54888   3.600   1.588   1.615 -0.9600 -4.3298 -0.5587
  398MOL0     H54889   3.641   1.526   1.451 -0.9916  0.1440  0.7136
  398MOL0     H54890   3.844   1.553   1.479 -1.3273  0.2673 -1.9442
  398MOL0     H54891   3.829   1.737   1.490  3.1464  0.7064  1.8307
  398MOL0     H54892   3.788   1.576   1.725  0.3113  0.4470  1.8784
  398MOL0     H54893   3.788   1.746   1.702  0.5567  0.6116 -1.2223
  398MOL0     H54894   4.023   1.762   1.665  2.1611 -1.8315 -3.5720
  398MOL0     H54895   4.038   1.584   1.637 -0.0134  0.0534  0.9089
  398MOL0     H54896   3.939   1.687   1.900  0.6248 -0.3108  2.1145
  398MOL0     H54897   4.010   1.536   1.853 -2.0568 -0.2967 -2.5637
  398MOL0     H54898   4.181   1.789   1.872  3.0694  0.7037  1.1837
  398MOL0     H54899   4.225   1.632   1.816 -0.5036  1.7667 -1.1976
  398MOL0     H54900   4.117   1.678   2.102  1.3402 -3.6320  3.1794
  398MOL0     H54901   4.291   1.704   2.044  0.5758 -0.8695 -0.9620
  398MOL0     H54902   4.283   1.474   1.951  0.8534 -0.0326  0.1650
  398MOL0     H54903   4.137   1.451   2.056 -0.4244 -0.0964  2.0894
  398MOL0     H54904   3.537   1.914   1.307 -0.5693 -1.9277 -4.0098
  398MOL0     H54905   3.309   1.956   1.199  0.6678 -0.4670 -0.3774
  398MOL0     H54906   2.882   1.652   1.017  1.2333  1.1447 -1.8164
  398MOL0     H54907   2.632   1.672   0.987 -1.0179  0.9804  0.1118
  398MOL0     H54908   0.745   1.590   1.366  0.1993  0.1108 -0.4448
  398MOL0     H54909   0.533   1.576   1.509  0.2545 -1.9058  1.6880
  398MOL0     H54910   0.304   1.369   1.834 -1.3241 -1.2441  1.7479
  398MOL0     H54911   0.115   1.359   1.971 -0.1958  0.4704 -1.4838
  398MOL0     H54912   0.039   1.654   2.294 -0.3799  1.2741 -1.0971
  398MOL0     H54913  -0.048   1.711   2.147 -1.2795 -1.5836 -2.2647
  398MOL0     H54914  -0.236   1.540   2.208  0.2713  0.1988 -0.6282
  398MOL0     H54915  -0.218   1.679   2.314  1.8480  1.3570  0.0747
  398MOL0     H54916  -0.039   1.452   2.396  0.2237  0.8792  0.4871
  398MOL0     H54917  -0.136   1.569   2.489 -3.7938 -1.0704  1.7529
  398MOL0     H54918  -0.342   1.442   2.424 -0.1193 -0.2745 -2.6272
  398MOL0     H54919  -0.238   1.357   2.532  0.8746  2.1662 -0.4425
  398MOL0     H54920  -0.242   1.098   2.197  2.0410  0.3099  1.4332
  398MOL0     H54921   0.167   1.755   2.115 -0.8842  0.2832 -1.9175
  398MOL0     H54922   0.396   1.891   1.934 -0.3894 -0.4189 -1.0832
  398MOL0     H54923   0.419   1.848   2.101 -0.1434  2.6545 -1.4332
  398MOL0     H54924   0.519   1.783   1.980  0.1056 -1.0551  1.5966
  399MOL0     O54925   2.998   5.734   9.456 -0.4993 -0.0047 -0.2612
  399MOL0     C54926   2.957   5.645   9.382  0.4334 -0.7933 -0.3527
  399MOL0     O54927   3.034   5.559   9.305 -0.4495 -0.2155 -0.7880
  399MOL0     C54928   3.172   5.589   9.296 -0.1090  0.4991 -0.6656
  399MOL0     C54929   3.213   5.722   9.266 -0.2460 -0.3400 -0.2173
  399MOL0     C54930   3.348   5.762   9.253 -0.0492  0.0356 -0.2841
  399MOL0     C54931   3.445   5.662   9.261 -0.1812  0.1125 -0.0892
  399MOL0     O54932   3.577   5.697   9.241  0.1261  0.1419 -0.0327
  399MOL0     C54933   3.651   5.730   9.362 -0.5043  0.1471 -0.0376
  399MOL0     C54934   3.782   5.792   9.324  0.1798 -0.4805 -0.0157
  399MOL0     C54935   3.902   5.698   9.305  0.4264  0.2135 -0.2858
  399MOL0     C54936   4.030   5.775   9.323 -0.6809 -0.2697 -0.1412
  399MOL0     C54937   4.142   5.673   9.296 -0.2927  0.4348 -0.1831
  399MOL0     C54938   4.289   5.711   9.344  0.4903  0.1037 -0.3350
  399MOL0     C54939   4.387   5.608   9.281 -0.5508 -0.0816 -0.6374
  399MOL0     C54940   4.530   5.623   9.340  0.2264  0.0438  0.7844
  399MOL0     N54941   4.617   5.537   9.251 -0.5427  0.1527  0.0443
  399MOL0     C54942   4.638   5.405   9.245  0.1045 -0.1739 -0.4387
  399MOL0     C54943   4.731   5.387   9.154 -0.1417 -0.0747  0.3813
  399MOL0     C54944   4.766   5.246   9.105 -0.4776 -0.2765  0.1705
  399MOL0     C54945   4.919   5.234   9.063  0.2418  0.0405 -0.2345
  399MOL0     C54946   4.964   5.318   8.942 -0.2567  1.1219 -0.4642
  399MOL0     C54947   5.107   5.279   8.886 -0.8914  0.0510  0.0764
  399MOL0     O54948   5.139   5.377   8.790 -0.0192  0.8001  0.2187
  399MOL0     C54949   5.262   5.355   8.740  0.6111 -0.1001  0.6470
  399MOL0     C54950   5.363   5.266   8.770 -0.6069 -0.7657 -0.7550
  399MOL0     C54951   5.486   5.265   8.701  0.3069  0.3647 -0.0151
  399MOL0     C54952   5.573   5.150   8.724 -0.7200 -0.1095 -0.0788
  399MOL0     C54953   5.515   5.362   8.604  0.7073 -1.1224  0.3748
  399MOL0     C54954   5.641   5.379   8.525  0.6386  1.0294 -0.1229
  399MOL0     O54955   5.760   5.329   8.582 -0.4031 -0.6283 -1.2182
  399MOL0     C54956   5.882   5.319   8.516 -0.1435 -0.3574  0.3907
  399MOL0     C54957   5.942   5.194   8.512 -0.4343  0.3327  0.5178
  399MOL0     C54958   6.062   5.173   8.438  0.4218 -0.1174  0.4035
  399MOL0     C54959   6.113   5.275   8.361 -0.3996 -0.9697 -1.0562
  399MOL0     O54960   6.235   5.259   8.298 -0.1372 -0.4381  0.1223
  399MOL0     C54961   6.220   5.219   8.165 -0.2562 -0.5457  0.6016
  399MOL0     C54962   6.185   5.333   8.068 -0.1704 -0.3219  0.3445
  399MOL0     C54963   6.294   5.442   8.048  0.3237 -0.5427  0.9936
  399MOL0     C54964   6.251   5.537   7.930  0.2094 -0.2636 -1.0820
  399MOL0     C54965   6.384   5.607   7.888  0.2779  0.0848 -0.5314
  399MOL0     C54966   6.368   5.700   7.773  0.2637 -1.0871  0.4061
  399MOL0     C54967   6.286   5.651   7.655  0.0607  0.6447 -0.6116
  399MOL0     C54968   6.300   5.715   7.528  0.1845 -0.5393  0.6260
  399MOL0    Cl54969   6.280   5.894   7.536  0.2829  0.0172  0.1421
  399MOL0     C54970   6.049   5.397   8.360 -0.1217  0.4915  0.6098
  399MOL0     C54971   5.939   5.423   8.438  0.2898 -0.1498  0.3771
  399MOL0     O54972   5.635   5.427   8.411  0.2010 -0.1106 -0.7651
  399MOL0     C54973   5.408   5.453   8.578  0.5391  0.2334 -0.3447
  399MOL0     C54974   5.280   5.450   8.644 -0.0524  0.1263  0.0754
  399MOL0     N54975   4.779   5.509   9.115 -0.0845  0.4547  0.2744
  399MOL0     N54976   4.709   5.600   9.171  0.3058 -0.4590  0.0367
  399MOL0     C54977   3.408   5.530   9.289 -0.1353 -0.5796  0.0705
  399MOL0     C54978   3.277   5.495   9.298  0.1133  0.7295 -0.7199
  399MOL0     C54979   2.809   5.641   9.369  1.1401  0.3666  0.4129
  399MOL0     C54980   2.752   5.606   9.241  1.1260  0.0786 -0.0668
  399MOL0     C54981   2.613   5.605   9.218  0.0324 -0.6578 -0.1216
  399MOL0     C54982   2.526   5.644   9.322  0.5079 -0.2202  0.2678
  399MOL0     O54983   2.395   5.661   9.306 -0.0677 -0.1055 -0.0470
  399MOL0     C54984   2.328   5.654   9.182 -0.6075 -0.2634  0.0712
  399MOL0     C54985   2.185   5.677   9.225  0.7504 -0.1735 -0.9403
  399MOL0     C54986   2.122   5.560   9.287 -0.2567  0.3492 -0.5195
  399MOL0     C54987   1.967   5.572   9.291 -0.5144 -0.9811 -0.2674
  399MOL0     C54988   1.903   5.471   9.371 -0.0361 -0.1074  0.1218
  399MOL0     C54989   1.880   5.375   9.434 -0.0342  0.2036  0.1845
  399MOL0     C54990   2.576   5.677   9.446  0.7066  0.1167 -0.3410
  399MOL0     C54991   2.715   5.677   9.474  0.9766 -0.3743 -0.0308
  399MOL0     C54992   2.742   5.736   9.607 -0.0280 -0.1479  0.6426
  399MOL0     H54993   3.139   5.802   9.261  1.4973  1.4371  0.8102
  399MOL0     H54994   3.382   5.865   9.253  0.1800 -0.0293  0.4641
  399MOL0     H54995   3.677   5.640   9.419 -1.3364  0.2866  0.5847
  399MOL0     H54996   3.593   5.798   9.425 -1.6332  2.5944 -3.4294
  399MOL0     H54997   3.763   5.859   9.239 -1.2969 -2.4909 -1.3519
  399MOL0     H54998   3.822   5.860   9.400  0.2699  0.2454 -0.6985
  399MOL0     H54999   3.901   5.619   9.381  1.3946  0.1512 -0.3352
  399MOL0     H55000   3.898   5.652   9.206 -2.3275  1.6357 -0.9503
  399MOL0     H55001   4.035   5.865   9.261  0.0842  1.7872  2.6967
  399MOL0     H55002   4.034   5.821   9.422 -1.2955 -3.3942  1.4783
  399MOL0     H55003   4.148   5.655   9.188  0.1737  0.4971 -0.1699
  399MOL0     H55004   4.109   5.578   9.339  0.8845 -0.4022 -1.0482
  399MOL0     H55005   4.330   5.806   9.310 -1.7372 -0.0670 -3.9906
  399MOL0     H55006   4.297   5.706   9.453  5.3990 -0.5528 -0.4657
  399MOL0     H55007   4.398   5.613   9.173  0.4937  1.7712 -0.4702
  399MOL0     H55008   4.361   5.506   9.313  0.5831  0.5608  2.7352
  399MOL0     H55009   4.558   5.728   9.327  0.7170 -0.3407 -1.7671
  399MOL0     H55010   4.545   5.595   9.445 -2.3938 -0.0132  1.1917
  399MOL0     H55011   4.587   5.319   9.286  0.5124 -1.9553 -3.3862
  399MOL0     H55012   4.708   5.228   9.015  0.9941 -1.5229 -0.5779
  399MOL0     H55013   4.737   5.176   9.184  0.2773 -0.1841  0.5417
  399MOL0     H55014   4.981   5.264   9.148  1.0082 -1.9394 -0.0270
  399MOL0     H55015   4.930   5.128   9.040  0.2555 -0.5880  2.3222
  399MOL0     H55016   4.888   5.304   8.865 -1.0392  2.8254 -0.0591
  399MOL0     H55017   4.946   5.421   8.974 -2.3324 -0.0624  2.7006
  399MOL0     H55018   5.183   5.277   8.965 -0.7153  0.3749 -0.0853
  399MOL0     H55019   5.108   5.176   8.848 -1.1399 -0.7621  2.1160
  399MOL0     H55020   5.342   5.184   8.838 -0.5104  1.4710  2.1538
  399MOL0     H55021   5.525   5.073   8.785 -2.6096 -1.3713 -2.9515
  399MOL0     H55022   5.668   5.183   8.767 -0.5931  1.5510 -1.5202
  399MOL0     H55023   5.597   5.099   8.630  2.8038  1.3325 -0.1365
  399MOL0     H55024   5.898   5.109   8.564  2.7921 -1.4952  0.5467
  399MOL0     H55025   6.113   5.079   8.420  1.2483  0.7164 -2.1226
  399MOL0     H55026   6.317   5.183   8.130 -0.8761 -1.2909 -0.3922
  399MOL0     H55027   6.150   5.135   8.157  0.9169 -1.4615 -0.5471
  399MOL0     H55028   6.174   5.292   7.967  0.3853  1.1238 -0.3299
  399MOL0     H55029   6.085   5.372   8.092 -0.1226  0.5588 -0.8075
  399MOL0     H55030   6.385   5.387   8.021 -0.7811 -1.1685 -1.8156
  399MOL0     H55031   6.310   5.508   8.134 -0.3852  1.8466 -0.5756
  399MOL0     H55032   6.185   5.620   7.959  1.1922  0.2608 -0.2833
  399MOL0     H55033   6.211   5.482   7.845  0.5594  1.3910 -2.3763
  399MOL0     H55034   6.429   5.672   7.964  0.4133  0.1176 -0.6388
  399MOL0     H55035   6.457   5.531   7.860 -1.3498 -1.7926  0.0781
  399MOL0     H55036   6.467   5.727   7.735  0.0322  0.2506  0.7182
  399MOL0     H55037   6.332   5.798   7.803  1.3291 -0.7713  0.6827
  399MOL0     H55038   6.182   5.637   7.687  0.3205 -0.0665 -0.0586
  399MOL0     H55039   6.326   5.551   7.641 -0.0072  0.4844  0.2859
  399MOL0     H55040   6.225   5.677   7.459 -2.1873  2.7290  1.1982
  399MOL0     H55041   6.399   5.694   7.485  0.3248  1.5692 -0.1676
  399MOL0     H55042   6.094   5.469   8.292 -3.5993  1.7849 -0.5383
  399MOL0     H55043   5.889   5.519   8.447  0.4773 -0.2134  2.6019
  399MOL0     H55044   5.427   5.534   8.509 -1.2236  0.7244 -0.3053
  399MOL0     H55045   5.195   5.516   8.627 -0.8543 -1.1815 -1.2209
  399MOL0     H55046   3.480   5.449   9.284  2.4939  1.6445 -0.1303
  399MOL0     H55047   3.263   5.388   9.304  2.0620  0.5201  1.0491
  399MOL0     H55048   2.812   5.569   9.158 -1.6456 -1.5055 -1.4922
  399MOL0     H55049   2.584   5.563   9.122  0.4494 -0.2562 -0.4290
  399MOL0     H55050   2.374   5.733   9.121  0.1114 -0.0745  0.8444
  399MOL0     H55051   2.329   5.564   9.119 -4.0169 -0.0998 -0.4355
  399MOL0     H55052   2.133   5.695   9.130 -1.5213 -2.0941 -0.1603
  399MOL0     H55053   2.188   5.765   9.289 -0.5349 -1.4440  0.9903
  399MOL0     H55054   2.149   5.466   9.239  2.3322 -0.1087  1.5955
  399MOL0     H55055   2.168   5.563   9.386 -0.3648  0.1146 -0.4590
  399MOL0     H55056   1.933   5.568   9.187 -0.9049  2.1250 -0.3533
  399MOL0     H55057   1.941   5.671   9.328  1.7001 -0.8753  1.2189
  399MOL0     H55058   1.864   5.292   9.499  0.7809  0.1373  0.3137
  399MOL0     H55059   2.507   5.706   9.525  0.1132 -0.3075 -0.6916
  399MOL0     H55060   2.667   5.809   9.638  1.6814  0.4272  3.8926
  399MOL0     H55061   2.755   5.662   9.687 -0.7213  0.8617  1.7199
  399MOL0     H55062   2.840   5.786   9.610 -0.8252  1.5513 -0.1297
  400MOL0     O55063   6.483   6.572   7.760 -0.2322  0.7087 -0.3556
  400MOL0     C55064   6.437   6.515   7.860  0.2193  0.1157  0.7691
  400MOL0     O55065   6.511   6.476   7.967 -0.0234  0.5417  0.3001
  400MOL0     C55066   6.641   6.524   7.976  0.2468  0.7064 -0.1244
  400MOL0     C55067   6.672   6.639   8.045 -0.9722 -0.4937  0.2744
  400MOL0     C55068   6.798   6.691   8.031  0.2598 -0.1456  0.0299
  400MOL0     C55069   6.908   6.621   7.980  0.1331  0.4096  0.5208
  400MOL0     O55070   7.030   6.684   7.988 -0.0335 -0.2502 -0.3975
  400MOL0     C55071   7.136   6.650   7.897 -0.1295 -0.3559 -0.3818
  400MOL0     C55072   7.253   6.752   7.909 -0.7812 -0.0799  0.1306
  400MOL0     C55073   7.373   6.724   7.808  0.6777 -0.0096 -0.4543
  400MOL0     C55074   7.481   6.835   7.805 -0.3802 -0.5933  0.5339
  400MOL0     C55075   7.584   6.795   7.691  0.1625 -0.2646 -0.5940
  400MOL0     C55076   7.706   6.886   7.683  0.3540  0.7739  0.2567
  400MOL0     C55077   7.770   6.864   7.547 -0.8067  0.8291  0.3388
  400MOL0     C55078   7.916   6.915   7.536 -0.3505 -0.2881 -1.0584
  400MOL0     N55079   7.974   6.899   7.405  0.3567 -1.2537  1.0667
  400MOL0     C55080   7.974   7.002   7.312  0.4212 -0.1468 -0.2269
  400MOL0     C55081   8.025   6.952   7.201 -0.9344  0.0363  0.5089
  400MOL0     C55082   8.069   7.037   7.086  0.7786  0.5392 -0.3723
  400MOL0     C55083   8.206   7.003   7.024  0.0897  0.8564  0.3407
  400MOL0     C55084   8.311   6.990   7.128  0.1130  0.2625 -0.4178
  400MOL0     C55085   8.441   6.963   7.072 -0.4246 -0.2653  0.1615
  400MOL0     O55086   8.536   6.926   7.175 -0.2536 -0.4429 -0.5926
  400MOL0     C55087   8.669   6.921   7.149 -0.0474 -0.3960 -0.5498
  400MOL0     C55088   8.750   6.969   7.042 -0.0329  0.1293 -0.5771
  400MOL0     C55089   8.886   6.952   7.026  0.1825 -0.2903  0.4413
  400MOL0     C55090   8.950   7.014   6.903 -0.1557 -0.4783 -0.4680
  400MOL0     C55091   8.956   6.876   7.124 -0.5007 -0.1075 -0.2768
  400MOL0     C55092   9.109   6.847   7.121 -0.3585  0.0819  0.0893
  400MOL0     O55093   9.180   6.858   7.001 -0.9382 -0.0394  0.5305
  400MOL0     C55094   9.309   6.842   7.011 -0.5470  0.7132  1.1752
  400MOL0     C55095   9.386   6.943   7.067 -0.1298  1.2415  0.1558
  400MOL0     C55096   9.524   6.939   7.056 -0.2419 -0.5256  0.2341
  400MOL0     C55097   9.596   6.824   7.018  0.5161 -0.0257 -0.2308
  400MOL0     O55098   9.732   6.836   7.028 -1.1827  0.7075  0.0797
  400MOL0     C55099   9.810   6.721   6.987  0.5729  0.4927  0.2734
  400MOL0     C55100   9.954   6.760   6.972 -0.8067 -0.3108 -0.1229
  400MOL0     C55101  10.019   6.772   7.115  0.0591  0.0837  0.0750
  400MOL0     C55102  10.174   6.777   7.103  0.6364  0.1149 -0.8321
  400MOL0     C55103  10.242   6.752   7.240  0.1639 -0.4945  0.3495
  400MOL0     C55104  10.398   6.764   7.242  0.1274 -0.4112 -0.9081
  400MOL0     C55105  10.475   6.689   7.135 -0.1742 -0.1522 -0.1992
  400MOL0     C55106  10.615   6.740   7.118  0.5612  0.7387  0.3964
  400MOL0    Cl55107  10.721   6.665   7.237  0.3089  0.0496  0.0330
  400MOL0     C55108   9.522   6.718   6.973  0.3814 -0.1137  0.2712
  400MOL0     C55109   9.377   6.730   6.962  0.3513  0.0118 -0.9634
  400MOL0     O55110   9.161   6.812   7.229  0.4998 -0.3254 -0.0190
  400MOL0     C55111   8.875   6.820   7.225 -0.3965  0.1773 -0.2613
  400MOL0     C55112   8.740   6.839   7.243 -0.9511 -0.2904 -0.2962
  400MOL0     N55113   8.047   6.812   7.220  0.6863  0.0090 -0.2033
  400MOL0     N55114   8.015   6.783   7.343  0.1584 -0.8445  0.6824
  400MOL0     C55115   6.874   6.502   7.911 -0.4478  0.2218 -0.3718
  400MOL0     C55116   6.738   6.456   7.910  0.2898 -0.2838  0.1495
  400MOL0     C55117   6.284   6.497   7.868 -0.4145  0.3452  0.2190
  400MOL0     C55118   6.219   6.469   7.990 -0.2508  0.4628  0.7048
  400MOL0     C55119   6.080   6.457   8.000  0.8990 -0.3765  0.3617
  400MOL0     C55120   5.995   6.495   7.890 -0.1500 -0.2986 -0.4680
  400MOL0     O55121   5.857   6.501   7.894  0.2831 -0.7130  0.8844
  400MOL0     C55122   5.809   6.370   7.883 -0.4514  0.3364 -0.4470
  400MOL0     C55123   5.791   6.310   7.749 -0.3565  0.4989 -0.2719
  400MOL0     C55124   5.711   6.396   7.650 -0.9419 -0.4921 -0.1310
  400MOL0     C55125   5.574   6.413   7.711 -0.5647  0.7036 -0.7675
  400MOL0     C55126   5.482   6.477   7.619  0.1743 -0.0579 -0.4393
  400MOL0     C55127   5.405   6.541   7.558  0.4012 -1.3334  0.2397
  400MOL0     C55128   6.056   6.532   7.774 -0.0940  0.4032 -0.3595
  400MOL0     C55129   6.191   6.514   7.757 -0.4381 -1.2027  0.5553
  400MOL0     C55130   6.236   6.553   7.615 -0.9445  0.2236 -0.3832
  400MOL0     H55131   6.600   6.700   8.099 -0.2209  0.5151  0.1751
  400MOL0     H55132   6.823   6.792   8.064 -0.5449  0.8614 -2.1803
  400MOL0     H55133   7.110   6.659   7.791  5.1750  1.0336 -1.8995
  400MOL0     H55134   7.173   6.551   7.924  1.8349  0.1977 -0.8704
  400MOL0     H55135   7.211   6.848   7.878 -1.6378 -0.2697  0.6585
  400MOL0     H55136   7.299   6.777   8.005  0.0860 -0.3430 -0.2047
  400MOL0     H55137   7.404   6.622   7.833 -0.5814 -0.5583 -1.0648
  400MOL0     H55138   7.337   6.719   7.705 -0.2534  1.4107 -0.2218
  400MOL0     H55139   7.439   6.933   7.781  1.4148 -0.7999 -4.9525
  400MOL0     H55140   7.537   6.838   7.898  2.6874 -0.7873 -1.1876
  400MOL0     H55141   7.529   6.800   7.596  2.6382 -1.8094 -2.2253
  400MOL0     H55142   7.623   6.695   7.713  1.7310 -0.3739 -3.4088
  400MOL0     H55143   7.675   6.991   7.693 -1.8065  0.0884  1.3407
  400MOL0     H55144   7.775   6.859   7.763  0.3189  0.5852  0.2223
  400MOL0     H55145   7.711   6.900   7.462  1.6028 -1.1627 -2.3923
  400MOL0     H55146   7.780   6.755   7.540  2.4634  1.1135 -0.5882
  400MOL0     H55147   7.923   7.020   7.567  1.5228 -1.1202  1.7916
  400MOL0     H55148   7.978   6.861   7.609 -0.2041  3.0301  1.5271
  400MOL0     H55149   7.964   7.105   7.344  1.5109 -0.7986  2.4500
  400MOL0     H55150   8.070   7.143   7.113 -1.2351  0.3596  0.6051
  400MOL0     H55151   7.995   7.021   7.007  1.4308 -3.5532 -0.3839
  400MOL0     H55152   8.192   6.908   6.971 -1.3149 -0.0539  2.2133
  400MOL0     H55153   8.226   7.073   6.943 -0.7578 -2.6922 -3.2418
  400MOL0     H55154   8.322   7.073   7.198 -0.9112 -0.6467  0.8783
  400MOL0     H55155   8.281   6.902   7.185  1.0341  0.0978 -0.1651
  400MOL0     H55156   8.427   6.873   7.011 -0.2303 -1.7036  2.1660
  400MOL0     H55157   8.482   7.040   7.006 -0.2883  0.4845  1.1025
  400MOL0     H55158   8.697   7.034   6.972 -2.4338  2.0976  2.7357
  400MOL0     H55159   8.956   6.935   6.828  0.9278 -0.4714 -0.4049
  400MOL0     H55160   9.047   7.064   6.915 -1.4340  2.3429 -1.2021
  400MOL0     H55161   8.879   7.093   6.880 -0.1598  0.5640  2.6619
  400MOL0     H55162   9.340   7.037   7.098 -1.4718  0.7492 -0.2610
  400MOL0     H55163   9.569   7.031   7.092  1.9178 -1.8064  1.0115
  400MOL0     H55164   9.805   6.640   7.061 -1.1853  2.5556  2.5850
  400MOL0     H55165   9.775   6.686   6.889  0.3389  1.4300  0.0109
  400MOL0     H55166  10.005   6.698   6.898 -1.8988 -0.1612 -1.0467
  400MOL0     H55167   9.954   6.854   6.916  4.2994 -0.2673 -0.4796
  400MOL0     H55168   9.979   6.685   7.167  1.4302  0.1124  1.2212
  400MOL0     H55169   9.982   6.862   7.166 -0.4677  0.6759 -1.3008
  400MOL0     H55170  10.206   6.871   7.057  0.1191  0.0351 -1.3562
  400MOL0     H55171  10.219   6.697   7.043  1.8106 -1.3821  1.8393
  400MOL0     H55172  10.189   6.816   7.311 -0.6685  2.3197 -2.5436
  400MOL0     H55173  10.221   6.651   7.276  1.0064 -0.0584  2.1766
  400MOL0     H55174  10.428   6.738   7.344  0.1080  1.2835 -0.4475
  400MOL0     H55175  10.431   6.868   7.233  1.6036 -0.7648  0.0842
  400MOL0     H55176  10.438   6.684   7.032  1.6245 -0.0995 -0.8862
  400MOL0     H55177  10.473   6.583   7.163  1.3249 -0.2442 -0.3671
  400MOL0     H55178  10.611   6.849   7.134 -0.5489  1.1796 -2.2519
  400MOL0     H55179  10.648   6.725   7.015  0.3277  1.1052  0.2642
  400MOL0     H55180   9.572   6.629   6.937  1.2258 -0.2369  1.7013
  400MOL0     H55181   9.325   6.644   6.920  1.2729 -1.7317  1.2643
  400MOL0     H55182   8.916   6.749   7.297 -0.1815  1.2317  0.6904
  400MOL0     H55183   8.681   6.797   7.323 -0.4325 -1.2170 -0.3903
  400MOL0     H55184   6.950   6.458   7.848  0.3983  1.3111 -0.1362
  400MOL0     H55185   6.706   6.370   7.851 -0.3931 -0.9858  1.5072
  400MOL0     H55186   6.272   6.439   8.080 -1.4343 -0.9618  0.9629
  400MOL0     H55187   6.034   6.429   8.094 -1.0580  1.8859  0.1813
  400MOL0     H55188   5.873   6.304   7.942  0.9480  0.8768 -1.3165
  400MOL0     H55189   5.713   6.365   7.934  1.3614 -0.2875  3.2162
  400MOL0     H55190   5.750   6.211   7.767  0.4430  0.4873  1.7290
  400MOL0     H55191   5.889   6.300   7.703  0.1910  1.9830  0.4839
  400MOL0     H55192   5.763   6.492   7.643 -1.8909 -0.0476 -1.2978
  400MOL0     H55193   5.708   6.352   7.550 -1.1039  0.0538 -0.3671
  400MOL0     H55194   5.570   6.459   7.811 -0.5940 -0.1241 -0.3785
  400MOL0     H55195   5.530   6.315   7.731 -1.9567  1.1829 -1.3945
  400MOL0     H55196   5.337   6.595   7.496  1.9918 -0.4426 -0.7755
  400MOL0     H55197   5.995   6.551   7.686  0.4983 -1.9838 -1.3714
  400MOL0     H55198   6.278   6.653   7.607  0.4550 -0.3417 -0.4197
  400MOL0     H55199   6.324   6.492   7.588 -0.5411  0.9928 -0.8487
  400MOL0     H55200   6.166   6.543   7.531 -0.7153  2.8088 -0.9479
  401MOL0     O55201   9.026  10.420   1.032  0.2021 -0.1122 -0.1901
  401MOL0     C55202   9.029  10.305   1.077  0.4333 -0.0988 -0.9872
  401MOL0     O55203   9.141  10.232   1.098  0.7582 -0.6767  0.0619
  401MOL0     C55204   9.258  10.306   1.112  0.6221 -0.0593  0.4394
  401MOL0     C55205   9.278  10.377   1.230  0.1272 -0.7674 -0.2742
  401MOL0     C55206   9.404  10.448   1.253  0.5291  0.0131 -0.3474
  401MOL0     C55207   9.499  10.455   1.150  0.0980  0.5255 -0.9522
  401MOL0     O55208   9.616  10.521   1.179  0.8236  0.2285  0.5041
  401MOL0     C55209   9.705  10.545   1.068  0.3715  0.6353 -0.4613
  401MOL0     C55210   9.824  10.625   1.101 -0.5045 -0.7036  0.8742
  401MOL0     C55211   9.793  10.780   1.093 -0.2567  0.4992  0.4509
  401MOL0     C55212   9.917  10.847   1.151  0.4847  0.2949  0.6001
  401MOL0     C55213   9.912  11.001   1.138  0.1532 -1.0576 -0.3476
  401MOL0     C55214   9.995  11.068   1.247 -0.4153 -0.5415  1.2630
  401MOL0     C55215   9.989  11.220   1.216 -0.3138  0.4025 -0.4866
  401MOL0     C55216  10.029  11.295   1.343  0.1062 -0.0448 -0.5030
  401MOL0     N55217  10.164  11.251   1.391  0.6029  0.3593 -0.2959
  401MOL0     C55218  10.283  11.276   1.334 -0.6696  0.4911  0.0264
  401MOL0     C55219  10.367  11.174   1.380 -0.0863 -0.1991  1.1250
  401MOL0     C55220  10.510  11.156   1.342  0.8565 -0.2979  0.6755
  401MOL0     C55221  10.605  11.216   1.446  0.0853  0.5810 -0.1628
  401MOL0     C55222  10.635  11.116   1.553 -0.7284  0.5025 -1.1739
  401MOL0     C55223  10.688  11.186   1.687  0.1965 -0.1005  0.1908
  401MOL0     O55224  10.581  11.269   1.739 -0.0481 -0.5641 -0.0657
  401MOL0     C55225  10.511  11.210   1.840 -0.4563 -1.0991 -0.8504
  401MOL0     C55226  10.574  11.214   1.966 -0.6046 -0.5438 -0.0134
  401MOL0     C55227  10.506  11.166   2.079 -0.3916  0.2219  0.2642
  401MOL0     C55228  10.588  11.150   2.215  0.0534 -0.5300  0.2402
  401MOL0     C55229  10.374  11.120   2.064  0.8418  0.8030  0.4326
  401MOL0     C55230  10.290  11.061   2.171  0.1820 -0.7393 -0.3488
  401MOL0     O55231  10.231  10.935   2.152  0.2589  0.7054 -0.0782
  401MOL0     C55232  10.143  10.901   2.256 -0.5282 -0.4060  0.0621
  401MOL0     C55233  10.005  10.941   2.248  0.1054 -0.1486  1.5238
  401MOL0     C55234   9.910  10.896   2.335 -0.1890 -0.2378  0.1738
  401MOL0     C55235   9.952  10.799   2.432  0.7608 -0.6065  0.4043
  401MOL0     O55236   9.861  10.746   2.521  0.1025  0.1740 -0.0293
  401MOL0     C55237   9.725  10.719   2.480  0.2765 -0.9470 -0.5741
  401MOL0     C55238   9.676  10.628   2.592  0.2496  0.0685 -0.0766
  401MOL0     C55239   9.538  10.571   2.561  0.5126 -0.0846 -0.0300
  401MOL0     C55240   9.474  10.495   2.682 -0.8866 -0.9561  0.3290
  401MOL0     C55241   9.365  10.419   2.630  0.5631  0.2242  0.3613
  401MOL0     C55242   9.278  10.347   2.738  0.2890  0.1471  0.5710
  401MOL0     C55243   9.190  10.241   2.686  1.0688  0.4085 -0.0299
  401MOL0     C55244   9.139  10.153   2.803  0.4455 -1.1631  0.7885
  401MOL0    Cl55245   8.985  10.063   2.755 -0.2653  0.1240 -0.3088
  401MOL0     C55246  10.090  10.764   2.442 -0.2439 -0.0401 -0.5081
  401MOL0     C55247  10.186  10.819   2.355 -0.1189  0.4429 -0.9438
  401MOL0     O55248  10.272  11.137   2.265  0.1406 -0.1546 -0.4291
  401MOL0     C55249  10.308  11.121   1.938 -0.5669 -0.3107 -0.1810
  401MOL0     C55250  10.373  11.169   1.827  1.2597 -0.5910  0.4292
  401MOL0     N55251  10.302  11.101   1.468  0.2657  0.3502  0.3794
  401MOL0     N55252  10.181  11.147   1.480  0.4797  0.3935  0.4636
  401MOL0     C55253   9.476  10.379   1.023 -0.2627  0.4104 -0.5605
  401MOL0     C55254   9.355  10.307   1.008 -1.1792  0.6540 -0.0008
  401MOL0     C55255   8.905  10.219   1.071  0.4120 -0.2075  1.2349
  401MOL0     C55256   8.894  10.115   1.160 -0.3945  0.0323 -0.1799
  401MOL0     C55257   8.790  10.029   1.157  0.3159  0.4766  0.3590
  401MOL0     C55258   8.694  10.037   1.061  0.3235 -0.7906 -0.6159
  401MOL0     O55259   8.585   9.949   1.069 -0.3798  0.6474 -0.6780
  401MOL0     C55260   8.450   9.987   1.048 -0.3769 -0.4286 -0.3516
  401MOL0     C55261   8.391   9.894   0.947  0.2753  0.6695 -0.0240
  401MOL0     C55262   8.411   9.952   0.803 -0.1121 -0.3504 -0.2780
  401MOL0     C55263   8.281  10.025   0.753 -1.1323 -0.4809 -0.7658
  401MOL0     C55264   8.240  10.141   0.834  0.8048  0.1916  1.2338
  401MOL0     C55265   8.196  10.219   0.915  0.4141  0.8036 -0.6082
  401MOL0     C55266   8.700  10.155   0.978  0.0947 -0.6738 -0.4710
  401MOL0     C55267   8.806  10.240   0.976 -0.2068  0.9160 -0.0491
  401MOL0     C55268   8.813  10.338   0.853  0.2814  0.0943  0.2234
  401MOL0     H55269   9.198  10.382   1.303 -0.5413  2.7422 -1.0254
  401MOL0     H55270   9.422  10.492   1.351 -0.5751 -0.2007 -0.0315
  401MOL0     H55271   9.654  10.608   0.994 -0.5927  0.5763  0.1424
  401MOL0     H55272   9.735  10.450   1.024  1.9712  1.9353 -2.3442
  401MOL0     H55273   9.886  10.594   1.186  0.6815 -0.3529  0.1584
  401MOL0     H55274   9.895  10.601   1.022  1.2870  1.1097  1.8297
  401MOL0     H55275   9.780  10.810   0.989 -1.9797 -0.2731  0.4182
  401MOL0     H55276   9.710  10.808   1.159  0.6784  1.4042  1.2898
  401MOL0     H55277   9.925  10.827   1.259 -0.0949  0.6703  0.7142
  401MOL0     H55278  10.004  10.810   1.097  1.1420  2.3832  0.1317
  401MOL0     H55279   9.811  11.043   1.141  1.8527  3.5404  0.5609
  401MOL0     H55280   9.954  11.035   1.043  1.4536 -0.5458  0.3822
  401MOL0     H55281   9.963  11.036   1.346 -1.4593  1.2091  1.5327
  401MOL0     H55282  10.097  11.029   1.236 -1.2828 -2.9013  1.0180
  401MOL0     H55283   9.891  11.255   1.182 -0.0855  1.4033 -0.1500
  401MOL0     H55284  10.059  11.248   1.137  0.0089  1.0287  0.0094
  401MOL0     H55285  10.036  11.403   1.328 -2.1861  0.4530  1.3803
  401MOL0     H55286   9.953  11.280   1.420  1.8936 -3.5737  0.7628
  401MOL0     H55287  10.291  11.354   1.259 -0.2351 -0.1644 -0.6222
  401MOL0     H55288  10.532  11.203   1.246  3.7144  1.0415  1.8548
  401MOL0     H55289  10.539  11.051   1.327  1.6963 -0.0758  0.7011
  401MOL0     H55290  10.694  11.240   1.387  0.5066  1.7461  0.9072
  401MOL0     H55291  10.555  11.302   1.493 -2.2019 -1.1999  0.8786
  401MOL0     H55292  10.547  11.054   1.575  0.2761 -0.6965 -0.4143
  401MOL0     H55293  10.723  11.061   1.519  1.0682  2.6045 -0.1733
  401MOL0     H55294  10.715  11.113   1.763 -2.8888 -0.4331  1.0943
  401MOL0     H55295  10.782  11.237   1.665  0.5072 -1.8197 -3.0403
  401MOL0     H55296  10.677  11.249   1.958 -0.5818 -0.8895 -1.4751
  401MOL0     H55297  10.693  11.161   2.186 -0.3393 -0.3798 -1.2083
  401MOL0     H55298  10.564  11.060   2.272 -1.3200  0.9456  2.1440
  401MOL0     H55299  10.578  11.245   2.269  1.5172  1.3731 -2.6033
  401MOL0     H55300   9.990  11.011   2.166  3.6631 -1.4475 -0.4833
  401MOL0     H55301   9.811  10.940   2.343  0.0767  0.0161  3.2097
  401MOL0     H55302   9.666  10.810   2.466 -1.1204 -1.6520  0.5466
  401MOL0     H55303   9.719  10.663   2.387 -0.8450  0.5266 -1.4301
  401MOL0     H55304   9.749  10.549   2.614  0.0651  0.0728  0.5921
  401MOL0     H55305   9.667  10.681   2.687  1.6846 -0.9116  0.6472
  401MOL0     H55306   9.544  10.490   2.488 -1.7449 -0.6912  0.4052
  401MOL0     H55307   9.468  10.651   2.537  0.0605 -0.6280 -0.5569
  401MOL0     H55308   9.432  10.570   2.749 -2.9451 -1.5321 -0.2651
  401MOL0     H55309   9.550  10.430   2.726 -0.8653 -0.2691  1.3402
  401MOL0     H55310   9.300  10.497   2.589  0.7650  0.4056  0.3853
  401MOL0     H55311   9.411  10.343   2.566  2.4437  0.7322  1.0556
  401MOL0     H55312   9.218  10.417   2.797 -1.5339 -0.5847 -0.3458
  401MOL0     H55313   9.347  10.304   2.812 -0.7880 -0.2003  1.4023
  401MOL0     H55314   9.247  10.185   2.611  2.0336  1.1332  0.1423
  401MOL0     H55315   9.103  10.287   2.639  1.2614  0.6695 -0.1327
  401MOL0     H55316   9.116  10.225   2.882  1.2199  0.1971 -0.1915
  401MOL0     H55317   9.215  10.082   2.836  0.9580 -2.3444 -2.5230
  401MOL0     H55318  10.114  10.697   2.523 -1.6591 -1.9824 -1.6056
  401MOL0     H55319  10.292  10.799   2.356 -0.6028 -2.7303 -0.3874
  401MOL0     H55320  10.205  11.091   1.927 -0.8027  0.5271 -0.2492
  401MOL0     H55321  10.327  11.178   1.729 -0.8643 -0.7063  1.3809
  401MOL0     H55322   9.544  10.382   0.938  2.2576  1.1988  1.3651
  401MOL0     H55323   9.334  10.241   0.924  1.2415 -1.7229  1.1129
  401MOL0     H55324   8.970  10.089   1.234  0.7668 -3.0379 -2.2223
  401MOL0     H55325   8.782   9.943   1.222 -0.7210  1.4096  1.5154
  401MOL0     H55326   8.392   9.985   1.140  0.6658  2.0814  0.4402
  401MOL0     H55327   8.434  10.091   1.019  0.9671 -0.2383 -0.5139
  401MOL0     H55328   8.287   9.873   0.973  0.5563  0.0094  0.6116
  401MOL0     H55329   8.443   9.799   0.964  2.4724  1.7392 -0.3425
  401MOL0     H55330   8.494  10.023   0.795  2.1026 -2.6740  0.7836
  401MOL0     H55331   8.434   9.861   0.747  0.2617 -1.3211  1.3880
  401MOL0     H55332   8.203   9.950   0.739 -0.4032 -1.1592 -1.3226
  401MOL0     H55333   8.309  10.068   0.656 -1.7586  1.6392 -0.0643
  401MOL0     H55334   8.149  10.274   0.994  1.3647 -1.9858  2.1238
  401MOL0     H55335   8.622  10.170   0.904 -1.7425 -0.0655  1.4949
  401MOL0     H55336   8.810  10.446   0.871  0.6782  0.1392  0.0375
  401MOL0     H55337   8.899  10.308   0.792  0.7460  1.8403 -0.0422
  401MOL0     H55338   8.727  10.319   0.787 -2.0431  1.7167  2.5965
  402MOL0     O55339   9.818   3.090   1.628  0.4946 -0.5345 -0.3283
  402MOL0     C55340   9.777   3.115   1.517 -0.2353  0.5456 -0.5395
  402MOL0     O55341   9.834   3.064   1.405  0.0102  0.2822  0.0328
  402MOL0     C55342   9.923   2.960   1.415 -0.7659  0.1611  0.4184
  402MOL0     C55343  10.051   2.975   1.361  0.7751  0.3554 -0.1784
  402MOL0     C55344  10.142   2.871   1.362  0.1846 -0.0765 -0.5109
  402MOL0     C55345  10.108   2.743   1.424 -0.7822 -0.8594 -0.2974
  402MOL0     O55346  10.198   2.637   1.440  0.3602 -0.3443 -0.7248
  402MOL0     C55347  10.333   2.645   1.377  0.7711  0.3456 -0.8058
  402MOL0     C55348  10.402   2.515   1.404 -0.2503 -0.7456 -0.2391
  402MOL0     C55349  10.425   2.486   1.556 -0.7620 -0.1893 -0.4490
  402MOL0     C55350  10.507   2.357   1.578  0.1786 -0.6104  0.0826
  402MOL0     C55351  10.635   2.352   1.494  0.1025 -0.3295  0.3361
  402MOL0     C55352  10.724   2.482   1.516 -0.5877 -0.2974  0.4118
  402MOL0     C55353  10.856   2.466   1.439  0.4143  0.0806  0.3758
  402MOL0     C55354  10.936   2.599   1.448 -0.1217  0.4477 -0.2644
  402MOL0     N55355  11.074   2.580   1.391  0.5718  0.0265 -0.1943
  402MOL0     C55356  11.185   2.602   1.472  0.2765 -0.7150 -0.1982
  402MOL0     C55357  11.286   2.581   1.385 -0.0441  0.3803  0.0435
  402MOL0     C55358  11.427   2.618   1.415  1.3275 -0.5069  0.2682
  402MOL0     C55359  11.536   2.513   1.393 -0.3692 -0.1681  0.2992
  402MOL0     C55360  11.507   2.396   1.483  0.6787 -0.8656 -0.2925
  402MOL0     C55361  11.615   2.294   1.464  0.9896 -0.3509  0.6262
  402MOL0     O55362  11.728   2.356   1.533 -0.1380  0.0554 -0.0666
  402MOL0     C55363  11.856   2.317   1.494  0.6593 -0.7188 -0.1390
  402MOL0     C55364  11.892   2.192   1.450 -0.7522 -0.1419 -0.2304
  402MOL0     C55365  12.028   2.168   1.429  0.3909  0.0704  0.6018
  402MOL0     C55366  12.054   2.036   1.367  0.1954 -0.1650 -0.6898
  402MOL0     C55367  12.125   2.272   1.421 -0.6946  0.1932  0.4938
  402MOL0     C55368  12.259   2.261   1.351 -0.7348  1.1888  0.0532
  402MOL0     O55369  12.346   2.344   1.403 -0.2974 -0.2416 -0.2068
  402MOL0     C55370  12.483   2.328   1.377  0.4090  0.1531 -0.0281
  402MOL0     C55371  12.558   2.434   1.410 -0.7469  0.1442  0.8209
  402MOL0     C55372  12.700   2.427   1.397 -0.3548  1.0195  1.4403
  402MOL0     C55373  12.767   2.309   1.351  0.0236 -0.8949 -0.2040
  402MOL0     O55374  12.903   2.331   1.346  0.0633  0.3514  0.3253
  402MOL0     C55375  12.978   2.230   1.276  0.4036  0.0344 -0.7782
  402MOL0     C55376  13.123   2.277   1.263  0.4841 -0.1026  0.4234
  402MOL0     C55377  13.196   2.281   1.391 -0.6010 -0.2342 -0.6112
  402MOL0     C55378  13.348   2.303   1.371  0.7465  0.7512  0.3909
  402MOL0     C55379  13.438   2.301   1.490  0.4547  0.3648 -0.7486
  402MOL0     C55380  13.581   2.335   1.440 -0.9878 -0.0237 -0.1671
  402MOL0     C55381  13.693   2.298   1.532  0.3809  0.2060 -0.2296
  402MOL0     C55382  13.829   2.319   1.477 -0.7169 -0.4435 -0.2999
  402MOL0    Cl55383  13.855   2.238   1.317  0.4023  0.3349 -0.0025
  402MOL0     C55384  12.689   2.193   1.331 -0.1247 -0.1862  0.1094
  402MOL0     C55385  12.545   2.201   1.335 -0.1694 -0.4916  0.2021
  402MOL0     O55386  12.283   2.189   1.248  0.1545 -0.6429 -0.8490
  402MOL0     C55387  12.090   2.385   1.488 -0.3374 -0.0778  0.3886
  402MOL0     C55388  11.958   2.409   1.532 -0.4905  0.7234  0.1621
  402MOL0     N55389  11.238   2.548   1.257 -0.1488  0.2144 -0.0996
  402MOL0     N55390  11.111   2.551   1.267 -0.4680 -0.5194  0.2893
  402MOL0     C55391   9.987   2.727   1.488  0.3616  1.0024 -0.2387
  402MOL0     C55392   9.891   2.834   1.477 -0.1737 -0.7891  0.4280
  402MOL0     C55393   9.662   3.214   1.492  0.4848  0.1110  0.5690
  402MOL0     C55394   9.663   3.302   1.378 -0.3079 -0.2082  0.0301
  402MOL0     C55395   9.563   3.398   1.357 -0.4803 -0.7288  1.0586
  402MOL0     C55396   9.459   3.401   1.440  0.1236  0.1554 -0.9003
  402MOL0     O55397   9.370   3.505   1.436 -0.0588  0.0837 -0.2565
  402MOL0     C55398   9.300   3.522   1.317  0.0385  0.4320 -0.5472
  402MOL0     C55399   9.148   3.484   1.331 -0.3685  0.3993  0.7545
  402MOL0     C55400   9.127   3.342   1.387  0.2703  0.2861  0.1814
  402MOL0     C55401   8.975   3.319   1.399  0.0931  0.4907 -0.1337
  402MOL0     C55402   8.916   3.411   1.495  0.3821 -0.8425  0.2884
  402MOL0     C55403   8.869   3.495   1.577 -0.6251 -0.0182  0.7895
  402MOL0     C55404   9.454   3.318   1.556  0.4656  0.5701 -0.4808
  402MOL0     C55405   9.553   3.225   1.582 -0.4081  0.3111  0.3456
  402MOL0     C55406   9.543   3.151   1.706 -0.1518 -0.7442 -0.5003
  402MOL0     H55407  10.075   3.076   1.329 -0.6266 -0.2621 -3.6170
  402MOL0     H55408  10.241   2.891   1.323  1.0096 -0.0280  1.4965
  402MOL0     H55409  10.399   2.716   1.428  0.3806 -0.8338  1.5055
  402MOL0     H55410  10.322   2.674   1.273  1.9775  0.4109 -0.9298
  402MOL0     H55411  10.346   2.429   1.366 -0.7031  0.0286 -1.4179
  402MOL0     H55412  10.493   2.526   1.344  0.9601 -0.4182  1.5828
  402MOL0     H55413  10.495   2.563   1.589 -2.0246  1.3904 -1.3388
  402MOL0     H55414  10.331   2.480   1.611 -2.1164  0.7358 -2.5517
  402MOL0     H55415  10.524   2.346   1.685 -0.0280  0.5136  0.2493
  402MOL0     H55416  10.451   2.272   1.539  1.9266 -1.5214 -0.5325
  402MOL0     H55417  10.608   2.327   1.391  0.6006  0.0960  0.0990
  402MOL0     H55418  10.695   2.264   1.519  1.8567  0.5279 -0.6771
  402MOL0     H55419  10.670   2.567   1.471 -0.5955 -0.0069  0.9637
  402MOL0     H55420  10.733   2.492   1.624 -0.7483 -1.3086  0.5310
  402MOL0     H55421  10.833   2.440   1.335  1.1733 -3.5289  0.9571
  402MOL0     H55422  10.904   2.377   1.481  1.1410  0.8196  1.1567
  402MOL0     H55423  10.882   2.672   1.386  1.3764  0.6800 -1.3561
  402MOL0     H55424  10.935   2.613   1.556 -0.1563 -0.6346 -0.1198
  402MOL0     H55425  11.204   2.645   1.569  3.9599 -0.1777 -1.0158
  402MOL0     H55426  11.424   2.651   1.519  2.2309  1.3941 -0.2644
  402MOL0     H55427  11.440   2.703   1.347  1.1264 -0.0263  0.8249
  402MOL0     H55428  11.552   2.490   1.287 -0.8165  1.1555 -0.0795
  402MOL0     H55429  11.632   2.557   1.422 -0.0317 -2.4675  3.0253
  402MOL0     H55430  11.517   2.419   1.590  0.1800  3.0713 -0.9496
  402MOL0     H55431  11.407   2.356   1.465  1.3436 -2.2266 -1.0930
  402MOL0     H55432  11.589   2.200   1.513  0.4941  0.2268  1.4941
  402MOL0     H55433  11.637   2.282   1.357 -0.2605  0.1542  0.2993
  402MOL0     H55434  11.816   2.115   1.440  0.5730 -1.4469 -0.5946
  402MOL0     H55435  12.078   2.054   1.261 -3.3688  2.3771 -1.2640
  402MOL0     H55436  11.967   1.971   1.374 -0.6562  1.1662  2.8570
  402MOL0     H55437  12.136   1.981   1.414  0.5754  0.3738 -0.7090
  402MOL0     H55438  12.502   2.522   1.437 -0.3277  0.9509 -0.7844
  402MOL0     H55439  12.755   2.518   1.419  2.2647 -0.5720  1.9765
  402MOL0     H55440  12.972   2.132   1.324 -1.5643 -0.0155 -1.0433
  402MOL0     H55441  12.936   2.223   1.176 -0.3004 -1.2284 -0.4155
  402MOL0     H55442  13.160   2.208   1.186 -3.1863 -0.3714 -1.3223
  402MOL0     H55443  13.131   2.375   1.214  1.7585 -0.7648 -0.7911
  402MOL0     H55444  13.185   2.188   1.447  2.1773  0.0426  0.5842
  402MOL0     H55445  13.160   2.362   1.455  2.5023 -1.1211  2.5818
  402MOL0     H55446  13.351   2.399   1.320  1.4189  0.7723  0.4603
  402MOL0     H55447  13.381   2.244   1.285  0.1348  0.8584  0.0785
  402MOL0     H55448  13.409   2.367   1.573  0.4075 -1.2870  0.6008
  402MOL0     H55449  13.438   2.198   1.526 -1.3195  0.0860 -1.4794
  402MOL0     H55450  13.582   2.444   1.426  1.9814 -0.2545 -2.9190
  402MOL0     H55451  13.597   2.287   1.343 -0.2598 -1.2407  0.5213
  402MOL0     H55452  13.674   2.190   1.530 -0.6578  0.2623  2.6593
  402MOL0     H55453  13.675   2.332   1.634  1.1917 -0.2752  0.0856
  402MOL0     H55454  13.908   2.282   1.542 -2.2069  0.3283  2.0949
  402MOL0     H55455  13.842   2.427   1.470  1.4193 -0.5222  1.3702
  402MOL0     H55456  12.734   2.095   1.320 -0.3531 -0.3111  0.2823
  402MOL0     H55457  12.485   2.111   1.336 -3.2132  1.4028  1.0435
  402MOL0     H55458  12.152   2.470   1.512 -0.7647  0.0716  1.0070
  402MOL0     H55459  11.925   2.502   1.577 -1.7464  0.0311  0.7199
  402MOL0     H55460   9.969   2.632   1.538 -0.3308  0.0615 -2.1726
  402MOL0     H55461   9.795   2.828   1.526 -0.5315 -2.2036 -0.4001
  402MOL0     H55462   9.735   3.308   1.297 -0.4663  1.2126 -0.0347
  402MOL0     H55463   9.568   3.465   1.272 -0.0281 -0.5623  1.2089
  402MOL0     H55464   9.295   3.628   1.293 -2.2597  0.2831 -0.9484
  402MOL0     H55465   9.346   3.461   1.239 -0.1413  0.4675 -0.6790
  402MOL0     H55466   9.099   3.482   1.233  1.0671 -1.6313 -0.0135
  402MOL0     H55467   9.097   3.552   1.399 -6.1646 -1.4480 -1.1744
  402MOL0     H55468   9.176   3.272   1.318  1.7950  1.6879 -0.2253
  402MOL0     H55469   9.168   3.330   1.487  1.5695 -2.6100 -0.5867
  402MOL0     H55470   8.960   3.215   1.428  0.1719  0.9046  1.4863
  402MOL0     H55471   8.930   3.331   1.300  0.6724 -0.9378 -0.5918
  402MOL0     H55472   8.825   3.574   1.634 -1.5717  0.0795 -0.0427
  402MOL0     H55473   9.377   3.346   1.627  0.4701  0.1219 -0.2929
  402MOL0     H55474   9.595   3.199   1.789  0.2342 -1.7056 -0.1768
  402MOL0     H55475   9.440   3.154   1.743  0.8079  1.2889  2.3893
  402MOL0     H55476   9.565   3.044   1.696 -0.7732 -0.9033 -0.2133
  403MOL0     O55477   6.976   3.832   9.935  0.1784  0.0095 -0.1000
  403MOL0     C55478   7.076   3.898   9.896  0.8891  1.6703 -0.7723
  403MOL0     O55479   7.161   3.956   9.983  0.0951 -0.3946  0.0467
  403MOL0     C55480   7.160   3.941  10.118  0.3605 -1.4719 -0.4688
  403MOL0     C55481   7.046   3.952  10.194  0.1751 -0.8016 -0.4818
  403MOL0     C55482   7.058   3.944  10.330 -0.8149 -0.4376 -0.7577
  403MOL0     C55483   7.176   3.928  10.404 -0.5963 -0.5213 -0.2080
  403MOL0     O55484   7.197   3.908  10.544  0.0382  0.0677  0.4510
  403MOL0     C55485   7.100   3.820  10.606  0.1993  0.5652 -1.1312
  403MOL0     C55486   7.163   3.736  10.724 -0.3337 -0.4423  0.6471
  403MOL0     C55487   7.283   3.652  10.671 -0.2578  0.2792  0.0027
  403MOL0     C55488   7.315   3.530  10.754  0.1878  0.0423 -0.5663
  403MOL0     C55489   7.444   3.454  10.708  0.7129 -0.5913  0.6929
  403MOL0     C55490   7.499   3.391  10.826 -0.0000  0.5389  0.5993
  403MOL0     C55491   7.619   3.299  10.799  0.0880  0.4474  0.1462
  403MOL0     C55492   7.760   3.377  10.825 -0.6757  0.1879 -0.3500
  403MOL0     N55493   7.779   3.448  10.953 -0.0448 -0.0513  0.2369
  403MOL0     C55494   7.720   3.420  11.072 -0.4451  0.4927  0.4213
  403MOL0     C55495   7.752   3.531  11.145  0.4213  0.8160  0.3120
  403MOL0     C55496   7.716   3.546  11.289 -0.2226 -0.8780  0.2450
  403MOL0     C55497   7.828   3.607  11.368 -0.0600  0.0465  0.4972
  403MOL0     C55498   7.761   3.644  11.510  0.3370  0.3736  0.2152
  403MOL0     C55499   7.870   3.723  11.584  1.1878 -0.1588 -0.2308
  403MOL0     O55500   7.815   3.772  11.703  0.2566 -0.0542  0.6797
  403MOL0     C55501   7.897   3.788  11.804 -0.9627  0.0065  0.2046
  403MOL0     C55502   7.856   3.784  11.939 -0.0554  0.9364 -0.2762
  403MOL0     C55503   7.935   3.828  12.053  0.6426 -0.3514  0.6617
  403MOL0     C55504   7.875   3.814  12.185  0.1967  0.4787 -0.2685
  403MOL0     C55505   8.071   3.868  12.028  0.0899 -0.5171 -0.0023
  403MOL0     C55506   8.163   3.915  12.129  0.3642  0.2791 -0.0936
  403MOL0     O55507   8.303   3.909  12.109  0.1512  0.2871  0.7403
  403MOL0     C55508   8.372   3.991  12.195 -0.7305 -0.3370 -0.1092
  403MOL0     C55509   8.435   4.104  12.147 -0.3809  0.5832 -0.1882
  403MOL0     C55510   8.518   4.187  12.230 -0.0270  0.3418 -0.4451
  403MOL0     C55511   8.555   4.142  12.362  0.2205  0.7073  0.4141
  403MOL0     O55512   8.645   4.220  12.426  0.0664 -0.1954 -0.3511
  403MOL0     C55513   8.671   4.163  12.553  0.6182  0.0363  0.0415
  403MOL0     C55514   8.774   4.251  12.626  0.1999  0.2815 -0.1076
  403MOL0     C55515   8.920   4.201  12.599 -0.0895 -0.3325 -0.2570
  403MOL0     C55516   9.020   4.300  12.646 -0.2706  0.2500 -0.0429
  403MOL0     C55517   9.109   4.346  12.531 -0.3764  0.3322 -0.1869
  403MOL0     C55518   9.220   4.437  12.577 -0.8136 -0.1462  0.4144
  403MOL0     C55519   9.303   4.472  12.458  0.1136  0.6249  0.0023
  403MOL0     C55520   9.402   4.579  12.497  0.3105  0.3887 -0.0812
  403MOL0    Cl55521   9.516   4.579  12.368 -0.1592 -0.2117 -0.0154
  403MOL0     C55522   8.501   4.011  12.402 -0.2874 -1.1937  0.4478
  403MOL0     C55523   8.410   3.945  12.320 -0.1983 -0.2836 -0.2447
  403MOL0     O55524   8.109   3.964  12.224  0.3587 -0.1224 -0.0288
  403MOL0     C55525   8.121   3.855  11.891 -0.0223 -0.5029  0.0435
  403MOL0     C55526   8.033   3.817  11.789  1.3368 -0.4516  0.7209
  403MOL0     N55527   7.820   3.620  11.075  0.0144  0.4511  0.1434
  403MOL0     N55528   7.847   3.567  10.961  0.1935 -0.1525  0.3089
  403MOL0     C55529   7.295   3.925  10.326 -0.3329 -0.1560 -0.1559
  403MOL0     C55530   7.289   3.938  10.182  0.3270 -0.0966 -1.4720
  403MOL0     C55531   7.114   3.892   9.751 -0.2487 -0.1522  0.4700
  403MOL0     C55532   7.241   3.832   9.719 -0.1563  0.1274 -0.4077
  403MOL0     C55533   7.278   3.832   9.584  0.0486 -0.6357  0.1172
  403MOL0     C55534   7.192   3.877   9.482 -0.4254  0.0076  0.3001
  403MOL0     O55535   7.247   3.870   9.350  0.0822  0.1914  0.1605
  403MOL0     C55536   7.181   3.912   9.234  0.4260 -0.7185  0.4762
  403MOL0     C55537   7.284   3.958   9.134  0.3971 -0.3241  0.5262
  403MOL0     C55538   7.218   3.994   8.992  0.0391 -0.0959  0.9628
  403MOL0     C55539   7.320   4.047   8.895 -0.0724  0.4593 -0.3681
  403MOL0     C55540   7.273   4.090   8.760 -0.8376  0.1038  0.1219
  403MOL0     C55541   7.254   4.146   8.659  0.2407 -0.5710  0.8676
  403MOL0     C55542   7.069   3.935   9.517 -0.1365 -0.1396 -0.2260
  403MOL0     C55543   7.032   3.936   9.654 -0.2251  0.7314  0.7390
  403MOL0     C55544   6.895   3.992   9.685 -0.3957  0.0010 -0.0685
  403MOL0     H55545   6.951   3.966  10.143 -2.0691 -0.5190  3.3400
  403MOL0     H55546   6.958   3.948  10.371  0.0410  1.0812  1.3794
  403MOL0     H55547   7.064   3.736  10.546  2.0292 -0.7999 -0.4423
  403MOL0     H55548   7.014   3.876  10.642 -0.3599 -1.1205  0.3266
  403MOL0     H55549   7.186   3.801  10.809  0.2360 -1.2358  1.1109
  403MOL0     H55550   7.093   3.663  10.767 -2.1074  1.1181  0.5606
  403MOL0     H55551   7.252   3.621  10.571 -0.4757 -2.0562  0.7280
  403MOL0     H55552   7.371   3.714  10.653 -0.4859  0.2150 -1.4780
  403MOL0     H55553   7.327   3.568  10.856 -3.1184  2.7710 -1.0123
  403MOL0     H55554   7.226   3.468  10.765  1.0946 -1.1655  0.2194
  403MOL0     H55555   7.515   3.520  10.659  1.4895 -1.7033  0.2681
  403MOL0     H55556   7.411   3.377  10.638  0.1703  1.1029 -0.9878
  403MOL0     H55557   7.533   3.477  10.884 -2.5921  2.7107 -0.8450
  403MOL0     H55558   7.415   3.349  10.882 -1.4932  3.0957  0.4313
  403MOL0     H55559   7.602   3.255  10.701  1.0202  0.2645  0.0646
  403MOL0     H55560   7.613   3.213  10.866  1.9616  0.6792  0.6586
  403MOL0     H55561   7.835   3.297  10.826  0.4125  0.8849 -4.4217
  403MOL0     H55562   7.781   3.440  10.738  2.2352  0.0216  0.1143
  403MOL0     H55563   7.662   3.333  11.102  1.1138 -0.7998 -0.1930
  403MOL0     H55564   7.676   3.453  11.330 -1.7465  0.4741  2.0130
  403MOL0     H55565   7.635   3.619  11.296  0.2512 -0.4312  1.2326
  403MOL0     H55566   7.915   3.541  11.379 -0.2804 -0.6372 -1.5466
  403MOL0     H55567   7.865   3.697  11.317  0.0977 -1.6255 -2.5043
  403MOL0     H55568   7.667   3.698  11.494  0.1707  0.1770  0.5014
  403MOL0     H55569   7.739   3.550  11.562  2.8137  0.5801  1.7916
  403MOL0     H55570   7.950   3.656  11.616  1.1358  0.4061  1.1754
  403MOL0     H55571   7.913   3.808  11.531  3.0820  1.7965  3.9239
  403MOL0     H55572   7.753   3.755  11.957 -0.0935  0.9296 -0.5016
  403MOL0     H55573   7.776   3.767  12.183  0.3602  0.1482 -0.9944
  403MOL0     H55574   7.847   3.911  12.225  1.5148  0.3785  0.9765
  403MOL0     H55575   7.929   3.759  12.263 -1.7790  0.6564  1.2926
  403MOL0     H55576   8.421   4.136  12.045 -0.4419 -3.1830 -1.5306
  403MOL0     H55577   8.538   4.290  12.203  3.2456 -0.0005  0.2052
  403MOL0     H55578   8.586   4.157  12.621  2.0708 -0.1207  1.9334
  403MOL0     H55579   8.713   4.062  12.553  0.6934  0.0518  1.2751
  403MOL0     H55580   8.772   4.356  12.594  0.5006  0.4392  0.3832
  403MOL0     H55581   8.758   4.267  12.733 -2.0855  2.3556 -0.6655
  403MOL0     H55582   8.941   4.177  12.495 -0.7732 -4.4010  0.3820
  403MOL0     H55583   8.936   4.110  12.658 -0.7757 -0.3671 -0.1149
  403MOL0     H55584   9.078   4.273  12.735  0.9096 -0.5735 -1.0459
  403MOL0     H55585   8.961   4.387  12.678  0.8027  0.6809  0.7976
  403MOL0     H55586   9.160   4.257  12.493 -0.3553  0.3445 -0.1869
  403MOL0     H55587   9.047   4.395  12.455  1.8547 -1.3930 -3.3702
  403MOL0     H55588   9.278   4.370  12.642 -3.5176 -1.7064  1.3959
  403MOL0     H55589   9.173   4.524  12.623 -1.9864 -0.3684 -0.3068
  403MOL0     H55590   9.237   4.500  12.374  2.2641 -0.7967 -2.3040
  403MOL0     H55591   9.350   4.386  12.410 -0.5191  0.1566  0.2079
  403MOL0     H55592   9.450   4.550  12.591  1.1095 -0.2086 -0.6597
  403MOL0     H55593   9.347   4.673  12.503 -1.7804 -0.8266  1.3189
  403MOL0     H55594   8.507   3.976  12.504 -1.8303 -0.0092  0.9868
  403MOL0     H55595   8.367   3.850  12.354  0.4989 -2.1913 -4.1555
  403MOL0     H55596   8.221   3.888  11.866 -0.5180  0.8012 -0.2462
  403MOL0     H55597   8.083   3.816  11.693  1.6926 -0.2037  0.9045
  403MOL0     H55598   7.391   3.921  10.376 -0.3981 -0.1387 -0.0300
  403MOL0     H55599   7.379   3.941  10.122 -0.2990  1.6750 -2.3745
  403MOL0     H55600   7.312   3.803   9.797  0.4858 -0.6271 -1.2579
  403MOL0     H55601   7.380   3.806   9.558  0.0283  0.2769 -0.9465
  403MOL0     H55602   7.124   3.825   9.201  1.6445 -0.3860 -2.8454
  403MOL0     H55603   7.110   3.994   9.252 -0.4215 -0.9901 -1.4283
  403MOL0     H55604   7.363   3.886   9.113  0.0361 -0.1014 -1.8877
  403MOL0     H55605   7.327   4.049   9.177 -1.5396  0.9708 -0.1324
  403MOL0     H55606   7.156   3.913   8.954 -1.8798  0.1156  3.3105
  403MOL0     H55607   7.147   4.075   9.014 -0.8064 -1.0669  1.9542
  403MOL0     H55608   7.394   3.969   8.875  2.2869  2.6581 -0.8344
  403MOL0     H55609   7.371   4.132   8.942  3.8696 -1.9974  0.2993
  403MOL0     H55610   7.232   4.194   8.566 -0.5345 -5.1126 -1.5660
  403MOL0     H55611   6.999   3.978   9.445  0.9758  1.8719 -0.1669
  403MOL0     H55612   6.852   4.045   9.599  1.3574 -1.8828 -2.2397
  403MOL0     H55613   6.823   3.914   9.709 -1.1662  0.9111  0.6726
  403MOL0     H55614   6.890   4.055   9.774 -1.6910 -1.7096  1.1240
  404MOL0     O55615   3.707   2.385   1.942  0.3551  0.5928 -0.6261
  404MOL0     C55616   3.644   2.288   1.985  0.1907  0.9145  0.1224
  404MOL0     O55617   3.691   2.154   2.003  0.3455 -0.1067  0.1940
  404MOL0     C55618   3.818   2.142   1.959 -0.3713  0.1534 -0.3596
  404MOL0     C55619   3.845   2.083   1.835 -0.6001 -0.1098 -0.1278
  404MOL0     C55620   3.979   2.063   1.793  0.5739  0.4993  1.0665
  404MOL0     C55621   4.094   2.094   1.861  0.3290  0.0849 -0.3955
  404MOL0     O55622   4.218   2.066   1.809  0.0581  0.5491 -0.2817
  404MOL0     C55623   4.329   2.083   1.889 -0.5320  0.3916 -0.5192
  404MOL0     C55624   4.451   2.024   1.828  0.1229  0.5901  0.7933
  404MOL0     C55625   4.576   2.020   1.913 -0.6743 -0.2646  0.5996
  404MOL0     C55626   4.596   1.906   2.012 -0.0497 -0.5071  0.0004
  404MOL0     C55627   4.710   1.929   2.120  0.1519 -0.8053  0.1005
  404MOL0     C55628   4.658   1.893   2.258  0.6177  0.3050 -0.0607
  404MOL0     C55629   4.780   1.850   2.342 -0.7243  0.1829  0.2736
  404MOL0     C55630   4.891   1.959   2.366  0.7434 -0.8000 -0.3681
  404MOL0     N55631   4.980   1.911   2.475 -0.5480 -0.8476 -0.0742
  404MOL0     C55632   5.045   1.788   2.482 -0.4440  0.2018 -0.2369
  404MOL0     C55633   5.115   1.803   2.596  0.1717  0.0383 -0.9905
  404MOL0     C55634   5.215   1.707   2.646  0.1785  0.2352 -0.3463
  404MOL0     C55635   5.366   1.742   2.620 -0.0413 -0.0851  0.5670
  404MOL0     C55636   5.436   1.775   2.744  1.0660  0.5829 -0.3789
  404MOL0     C55637   5.425   1.916   2.768 -0.1270 -0.3362 -0.5603
  404MOL0     O55638   5.489   1.945   2.894 -0.2492  0.4709  0.2220
  404MOL0     C55639   5.624   1.942   2.914  0.9504  0.7537  0.4161
  404MOL0     C55640   5.728   1.939   2.825 -1.1740 -0.2334 -0.2988
  404MOL0     C55641   5.861   1.919   2.866  0.0846  0.4808  0.4452
  404MOL0     C55642   5.962   1.909   2.758  0.0903 -0.7986  0.2772
  404MOL0     C55643   5.884   1.908   3.006 -0.5189 -0.0031 -0.6569
  404MOL0     C55644   6.019   1.880   3.064 -0.2105  0.0452 -0.4601
  404MOL0     O55645   6.132   1.893   2.983 -0.4793  0.1232 -0.4026
  404MOL0     C55646   6.263   1.893   3.026 -0.5513  0.1223  0.6399
  404MOL0     C55647   6.301   1.947   3.148 -0.0273 -0.0061  0.2581
  404MOL0     C55648   6.439   1.958   3.182 -0.0466  0.3060  0.3354
  404MOL0     C55649   6.546   1.919   3.091  1.0483  0.5718  0.3632
  404MOL0     O55650   6.682   1.917   3.116  0.0932  0.2521 -0.1873
  404MOL0     C55651   6.749   1.981   3.227  0.0506 -0.5644 -0.6893
  404MOL0     C55652   6.890   1.921   3.245  0.0964  0.0324  0.5936
  404MOL0     C55653   6.964   1.997   3.352 -0.0014  0.0351 -0.4961
  404MOL0     C55654   7.108   1.932   3.363  0.7774 -0.5900 -0.2178
  404MOL0     C55655   7.181   1.989   3.493 -0.6252  0.2133  0.5337
  404MOL0     C55656   7.321   1.936   3.499 -0.2520 -0.2025 -0.1869
  404MOL0     C55657   7.386   1.990   3.626 -0.9101  0.4340  0.1384
  404MOL0     C55658   7.363   1.910   3.756 -0.2725 -0.2087 -0.4881
  404MOL0    Cl55659   7.342   1.729   3.724  0.0508  0.0978  0.0298
  404MOL0     C55660   6.493   1.871   2.967 -0.9894 -0.3948 -0.2383
  404MOL0     C55661   6.360   1.866   2.930 -0.5105  0.8943  0.2925
  404MOL0     O55662   6.017   1.852   3.182 -0.2125  0.2765  0.6235
  404MOL0     C55663   5.776   1.916   3.097  0.1583 -0.0460 -0.0857
  404MOL0     C55664   5.650   1.934   3.053  0.7439  0.4969 -0.0630
  404MOL0     N55665   5.079   1.915   2.662 -0.2271 -0.5974 -0.1259
  404MOL0     N55666   4.992   1.981   2.591 -0.8477  0.3490 -0.0288
  404MOL0     C55667   4.069   2.176   1.973 -0.0152  0.0544 -0.2752
  404MOL0     C55668   3.937   2.195   2.025  0.4695 -0.2930 -0.5132
  404MOL0     C55669   3.500   2.303   2.006 -0.2259  0.3620 -0.5296
  404MOL0     C55670   3.422   2.183   1.996  0.8333  0.0795 -0.6848
  404MOL0     C55671   3.281   2.184   1.998 -0.4538 -0.8770 -0.2545
  404MOL0     C55672   3.214   2.310   2.017 -0.5526  0.0406  1.1087
  404MOL0     O55673   3.078   2.331   2.015 -0.4632 -0.7080 -0.7328
  404MOL0     C55674   2.983   2.234   1.955 -0.2200 -0.1594  0.2541
  404MOL0     C55675   2.994   2.227   1.796 -0.4952 -0.3946 -0.2061
  404MOL0     C55676   3.045   2.362   1.746  0.1230 -0.1882 -0.9685
  404MOL0     C55677   3.038   2.362   1.593 -0.7267 -0.1931 -0.6635
  404MOL0     C55678   3.077   2.243   1.521 -0.0967  0.2598  0.4065
  404MOL0     C55679   3.117   2.144   1.467 -0.5371 -0.0952  0.1660
  404MOL0     C55680   3.293   2.424   2.028 -0.3934 -0.0124  0.0688
  404MOL0     C55681   3.435   2.431   2.023  0.8688  0.1080 -0.1390
  404MOL0     C55682   3.509   2.566   2.045 -0.6122  0.7835  0.3607
  404MOL0     H55683   3.760   2.049   1.776 -1.6452  1.6716  0.2656
  404MOL0     H55684   3.988   2.004   1.703 -1.2482 -0.4085  1.4366
  404MOL0     H55685   4.321   2.033   1.986 -0.7456 -0.3420 -0.9049
  404MOL0     H55686   4.350   2.188   1.912  0.4732  0.5266 -1.9117
  404MOL0     H55687   4.423   1.921   1.802 -1.5779  0.9525  1.0348
  404MOL0     H55688   4.467   2.078   1.734 -2.3370  0.9303  0.5016
  404MOL0     H55689   4.661   2.023   1.844 -1.3779 -1.0633 -0.3293
  404MOL0     H55690   4.585   2.118   1.960 -1.1357  0.0330  0.0777
  404MOL0     H55691   4.504   1.892   2.070  0.1677 -0.3683  0.3801
  404MOL0     H55692   4.616   1.814   1.955  0.9798  1.1058 -2.4143
  404MOL0     H55693   4.749   2.031   2.123  1.4290 -1.2548 -0.5919
  404MOL0     H55694   4.786   1.855   2.096  2.5033  1.2152  0.9367
  404MOL0     H55695   4.611   1.975   2.312  2.8448  2.2590 -0.9330
  404MOL0     H55696   4.583   1.814   2.264  1.5267 -0.5007  3.9713
  404MOL0     H55697   4.822   1.763   2.290 -3.1675 -0.1285 -1.3602
  404MOL0     H55698   4.747   1.811   2.438  2.5804 -0.1229  1.4314
  404MOL0     H55699   4.943   1.968   2.270  0.3022 -2.0858 -0.7447
  404MOL0     H55700   4.847   2.051   2.405 -0.8129 -1.9173  0.6060
  404MOL0     H55701   5.061   1.707   2.411  1.9102 -0.7335  1.2388
  404MOL0     H55702   5.185   1.611   2.602  0.4619  0.6871 -1.5859
  404MOL0     H55703   5.194   1.689   2.751  4.7619 -1.0031  0.6164
  404MOL0     H55704   5.418   1.657   2.574  0.4975  0.8324 -0.5598
  404MOL0     H55705   5.380   1.824   2.549  0.5417  0.2669  1.0797
  404MOL0     H55706   5.393   1.721   2.829 -1.1236  2.3722 -0.2549
  404MOL0     H55707   5.537   1.737   2.727  0.7295 -0.2064 -0.6598
  404MOL0     H55708   5.477   1.967   2.686 -0.1851 -3.0059 -2.3803
  404MOL0     H55709   5.320   1.944   2.775 -0.1523 -0.4973 -0.2666
  404MOL0     H55710   5.706   1.938   2.719 -1.6053 -2.6808 -0.2566
  404MOL0     H55711   6.029   1.995   2.756 -0.7479 -0.1464 -0.3102
  404MOL0     H55712   5.925   1.907   2.655  0.2965 -2.0036  0.2100
  404MOL0     H55713   6.011   1.812   2.770  0.1261 -0.6700  1.1849
  404MOL0     H55714   6.231   1.993   3.217 -0.7423 -0.7640  0.0493
  404MOL0     H55715   6.480   1.996   3.275  2.6040  1.4761 -1.1965
  404MOL0     H55716   6.761   2.089   3.212  1.8544 -0.7465 -0.7029
  404MOL0     H55717   6.695   1.965   3.321  0.4619  0.0815 -0.3382
  404MOL0     H55718   6.886   1.820   3.287  1.6803  0.1095  0.9920
  404MOL0     H55719   6.950   1.927   3.155  0.0699  0.7637  0.6156
  404MOL0     H55720   6.912   1.988   3.448  0.1166 -1.6940 -0.5555
  404MOL0     H55721   6.964   2.104   3.333 -1.4958  0.6831  2.5037
  404MOL0     H55722   7.165   1.961   3.274  0.2275  2.6355  0.3700
  404MOL0     H55723   7.104   1.823   3.359  1.6531 -0.6611  0.5730
  404MOL0     H55724   7.174   2.098   3.495 -2.0244  0.1771  3.5852
  404MOL0     H55725   7.140   1.964   3.591  2.1179  2.1468  2.3165
  404MOL0     H55726   7.378   1.984   3.419 -2.4918  2.1865 -0.4631
  404MOL0     H55727   7.332   1.827   3.493  0.2944 -0.3590  2.4036
  404MOL0     H55728   7.353   2.093   3.643 -3.3816  0.2004 -2.5354
  404MOL0     H55729   7.492   1.980   3.600 -1.0320 -0.9741  0.0996
  404MOL0     H55730   7.274   1.954   3.803  0.5138  3.1759 -1.8412
  404MOL0     H55731   7.439   1.943   3.828  1.2933  2.2689 -3.0662
  404MOL0     H55732   6.572   1.849   2.896 -1.9625 -2.1814 -0.8184
  404MOL0     H55733   6.331   1.823   2.835 -0.9266  1.4297  0.1693
  404MOL0     H55734   5.787   1.927   3.204 -0.0754  1.4705 -0.2055
  404MOL0     H55735   5.561   1.933   3.115  0.2954 -0.5164 -0.6915
  404MOL0     H55736   4.152   2.220   2.027  0.2639 -0.2162 -0.4737
  404MOL0     H55737   3.926   2.259   2.112 -0.1497  2.3304 -2.3699
  404MOL0     H55738   3.469   2.086   1.980 -0.0637 -0.3462 -0.8615
  404MOL0     H55739   3.224   2.096   1.971 -4.5892  0.9000  1.8318
  404MOL0     H55740   2.990   2.131   1.990  1.8512 -0.6924 -1.5194
  404MOL0     H55741   2.883   2.269   1.982  0.7262  2.7738  0.3370
  404MOL0     H55742   2.897   2.188   1.764  0.1761 -2.7987  0.4517
  404MOL0     H55743   3.067   2.151   1.767 -1.1620 -0.9280 -0.5145
  404MOL0     H55744   2.982   2.439   1.792  0.0675 -0.1142 -1.1642
  404MOL0     H55745   3.148   2.378   1.779 -0.6196 -0.8611  1.8715
  404MOL0     H55746   3.092   2.448   1.553  0.1241  0.3094  1.4136
  404MOL0     H55747   2.934   2.387   1.572 -0.3433  1.9947 -0.2478
  404MOL0     H55748   3.152   2.066   1.401  2.6813  1.5133 -0.2144
  404MOL0     H55749   3.234   2.514   2.025 -0.0878  0.3461  2.8305
  404MOL0     H55750   3.598   2.554   2.106  1.1389  0.9894 -2.0108
  404MOL0     H55751   3.529   2.610   1.946 -0.3502  2.1722  1.0057
  404MOL0     H55752   3.447   2.630   2.108 -1.5602  0.8741 -0.6125
  405MOL0     O55753  11.052   7.532   0.258  0.5109  1.0947  0.3930
  405MOL0     C55754  11.089   7.497   0.372  0.8037  0.0479  0.2956
  405MOL0     O55755  11.194   7.547   0.438  0.0116 -0.5276  0.2394
  405MOL0     C55756  11.295   7.621   0.373 -0.5268  0.5832 -0.2844
  405MOL0     C55757  11.372   7.567   0.272  0.3660  0.9972  1.1458
  405MOL0     C55758  11.494   7.630   0.226  0.1976  1.1557 -0.0028
  405MOL0     C55759  11.529   7.758   0.281 -0.1428  0.0513 -0.0782
  405MOL0     O55760  11.640   7.832   0.253 -0.4371 -0.0225 -0.0404
  405MOL0     C55761  11.763   7.770   0.213  0.3324 -0.3010 -0.0201
  405MOL0     C55762  11.847   7.867   0.124  0.0459  0.3776 -0.6777
  405MOL0     C55763  11.988   7.816   0.095  0.0573  0.1993  0.0062
  405MOL0     C55764  12.048   7.894  -0.014  1.0518  0.0658 -0.0867
  405MOL0     C55765  12.097   8.032   0.033 -0.4698 -0.4707  0.3506
  405MOL0     C55766  12.188   8.088  -0.079 -0.2009  0.8160 -0.5535
  405MOL0     C55767  12.109   8.174  -0.190 -0.7442  0.2481  0.6533
  405MOL0     C55768  12.196   8.178  -0.320  0.4049  0.1316 -0.2232
  405MOL0     N55769  12.332   8.226  -0.321  0.5853  0.2360  0.3384
  405MOL0     C55770  12.383   8.349  -0.304 -0.3108 -0.1345 -0.0018
  405MOL0     C55771  12.517   8.339  -0.332  1.0505 -0.3981  0.3082
  405MOL0     C55772  12.608   8.454  -0.359 -0.1812  0.5564  0.6593
  405MOL0     C55773  12.725   8.430  -0.461 -0.1886  0.9129 -0.6382
  405MOL0     C55774  12.834   8.343  -0.398  0.4801 -0.0309 -0.7118
  405MOL0     C55775  12.965   8.369  -0.483  0.1221  0.4114 -0.2494
  405MOL0     O55776  13.070   8.277  -0.433  0.1199 -0.7862  0.0250
  405MOL0     C55777  13.203   8.322  -0.428 -0.1060  0.8474  0.3405
  405MOL0     C55778  13.288   8.269  -0.330 -0.0870  1.6511  0.5065
  405MOL0     C55779  13.419   8.303  -0.328  0.3427  0.5779 -0.7090
  405MOL0     C55780  13.497   8.230  -0.221  0.5505  1.0410  0.5924
  405MOL0     C55781  13.479   8.389  -0.424  0.4321 -1.2191 -0.1317
  405MOL0     C55782  13.622   8.428  -0.430 -0.1627  0.9216 -1.0043
  405MOL0     O55783  13.656   8.542  -0.490  0.8489 -0.1121  0.6771
  405MOL0     C55784  13.783   8.594  -0.509  0.5443  0.3309 -0.9517
  405MOL0     C55785  13.872   8.531  -0.589 -0.4980 -0.5167 -0.0115
  405MOL0     C55786  14.001   8.591  -0.616  0.1750 -0.1970 -0.7997
  405MOL0     C55787  14.030   8.724  -0.577 -0.1788 -0.4176 -0.5846
  405MOL0     O55788  14.153   8.776  -0.603  0.2160 -0.6658 -0.8212
  405MOL0     C55789  14.173   8.925  -0.585  0.2353  0.5271 -0.4486
  405MOL0     C55790  14.128   8.985  -0.716 -0.1458  0.8772  0.4789
  405MOL0     C55791  14.197   8.919  -0.844 -0.1658  0.8880 -0.4922
  405MOL0     C55792  14.172   9.014  -0.958 -0.8093 -0.3365 -0.0853
  405MOL0     C55793  14.207   8.951  -1.090  0.0346  0.1379  0.3172
  405MOL0     C55794  14.354   8.930  -1.114 -0.5437  1.0901  0.2562
  405MOL0     C55795  14.393   8.846  -1.240  0.9989 -0.3512  0.3951
  405MOL0     C55796  14.341   8.905  -1.370  0.5597 -0.5944 -0.2712
  405MOL0    Cl55797  14.417   9.054  -1.445  0.3118  0.0559 -0.5058
  405MOL0     C55798  13.934   8.780  -0.493  0.7989 -0.6247  0.0824
  405MOL0     C55799  13.811   8.720  -0.452 -0.7193  0.5944  0.0026
  405MOL0     O55800  13.708   8.353  -0.380  0.2147 -1.2864 -0.0668
  405MOL0     C55801  13.395   8.447  -0.518 -0.1835 -0.5899  0.3756
  405MOL0     C55802  13.254   8.417  -0.521 -0.5007  0.4186  0.0073
  405MOL0     N55803  12.540   8.207  -0.367  1.1948 -0.0840  0.2622
  405MOL0     N55804  12.434   8.142  -0.355  0.1411 -0.5115 -0.3611
  405MOL0     C55805  11.446   7.816   0.379 -0.3258  0.3013  0.5328
  405MOL0     C55806  11.332   7.746   0.431 -0.1489 -0.5502  1.0191
  405MOL0     C55807  11.003   7.399   0.450 -0.2466 -0.2732 -0.3109
  405MOL0     C55808  11.066   7.336   0.560 -0.0465 -0.4549 -0.0797
  405MOL0     C55809  10.992   7.242   0.637 -0.0806  0.2787 -0.0881
  405MOL0     C55810  10.862   7.206   0.605  1.1576  0.1530 -0.0160
  405MOL0     O55811  10.784   7.126   0.684  0.4556  0.0155  0.4536
  405MOL0     C55812  10.806   7.126   0.826 -0.6541 -0.2085 -0.4710
  405MOL0     C55813  10.680   7.077   0.895 -0.1304 -1.1295 -0.5345
  405MOL0     C55814  10.577   7.173   0.853  0.7517 -0.4888 -0.3509
  405MOL0     C55815  10.451   7.188   0.940 -0.9248  0.6870  1.0829
  405MOL0     C55816  10.343   7.278   0.888  0.4766  0.4937  0.9531
  405MOL0     C55817  10.249   7.343   0.847  0.3949 -0.4757 -0.1369
  405MOL0     C55818  10.800   7.265   0.499  0.0229  0.0861  0.0249
  405MOL0     C55819  10.866   7.359   0.419 -0.4463  0.3228 -0.0341
  405MOL0     C55820  10.796   7.415   0.307 -0.0749  0.0283  0.7920
  405MOL0     H55821  11.345   7.464   0.253 -0.8322  1.7273 -1.5284
  405MOL0     H55822  11.554   7.571   0.157 -0.7755 -0.0790  0.1880
  405MOL0     H55823  11.757   7.668   0.175 -0.7970 -0.8604  1.5594
  405MOL0     H55824  11.823   7.756   0.303  0.1069 -0.9219  0.0401
  405MOL0     H55825  11.780   7.869   0.037  1.9349  0.4431 -2.1967
  405MOL0     H55826  11.847   7.970   0.162 -1.2791  0.1531 -0.0053
  405MOL0     H55827  12.045   7.816   0.188 -1.6233  0.6164  1.0639
  405MOL0     H55828  11.986   7.710   0.065 -1.5170  0.8054 -2.3302
  405MOL0     H55829  12.127   7.832  -0.057  0.0215 -1.4004  0.0439
  405MOL0     H55830  11.974   7.900  -0.094  0.2641  0.7254  0.6628
  405MOL0     H55831  12.151   8.008   0.125  0.0091 -0.1788  0.1474
  405MOL0     H55832  12.009   8.092   0.056 -0.6280 -0.0647 -1.2426
  405MOL0     H55833  12.265   8.154  -0.038  0.3044  1.3568 -2.3077
  405MOL0     H55834  12.235   8.004  -0.130  0.6190  0.9548 -0.0485
  405MOL0     H55835  12.084   8.274  -0.153 -0.9462 -0.0876  1.4639
  405MOL0     H55836  12.010   8.130  -0.205 -2.0780  2.3281  2.5390
  405MOL0     H55837  12.198   8.081  -0.370 -2.2130 -0.1276  0.0128
  405MOL0     H55838  12.147   8.241  -0.395  1.3364 -1.8447 -2.6567
  405MOL0     H55839  12.322   8.438  -0.290  0.4794  0.1474  1.8794
  405MOL0     H55840  12.657   8.485  -0.266  2.6741  2.0961 -1.2173
  405MOL0     H55841  12.557   8.542  -0.398  0.7818  1.3969  1.2467
  405MOL0     H55842  12.688   8.376  -0.548  2.3873 -1.1548 -0.6213
  405MOL0     H55843  12.759   8.528  -0.494 -1.7077  1.5176 -0.4783
  405MOL0     H55844  12.846   8.370  -0.293  0.8506 -0.3844 -0.6609
  405MOL0     H55845  12.812   8.236  -0.405  1.6957 -0.3677  0.3865
  405MOL0     H55846  12.940   8.332  -0.583 -0.6783  0.1813  0.0317
  405MOL0     H55847  12.997   8.473  -0.493  0.4246  0.1526 -2.6122
  405MOL0     H55848  13.235   8.198  -0.268 -1.9598  1.9254 -0.6966
  405MOL0     H55849  13.591   8.277  -0.192  1.6025  0.0797 -1.1023
  405MOL0     H55850  13.521   8.136  -0.272  0.7588  1.0990  0.5849
  405MOL0     H55851  13.446   8.202  -0.128  0.5524 -1.2384 -0.0331
  405MOL0     H55852  13.850   8.432  -0.627 -1.0533 -0.4534  0.1408
  405MOL0     H55853  14.068   8.527  -0.672 -0.7523 -0.1047 -2.0620
  405MOL0     H55854  14.111   8.975  -0.511 -0.4743  0.5362 -1.0421
  405MOL0     H55855  14.278   8.949  -0.567  0.2927 -0.9655  1.5615
  405MOL0     H55856  14.021   8.967  -0.729 -0.0121 -0.0326  0.5584
  405MOL0     H55857  14.150   9.092  -0.719 -0.4067  0.9321  0.4529
  405MOL0     H55858  14.149   8.822  -0.856  0.4754  0.7223 -2.0074
  405MOL0     H55859  14.305   8.910  -0.828 -0.4348 -1.0081  0.4974
  405MOL0     H55860  14.236   9.102  -0.951 -1.1346  0.5024 -4.5993
  405MOL0     H55861  14.068   9.047  -0.947 -0.0508  1.3183  4.1680
  405MOL0     H55862  14.149   8.861  -1.112 -0.3842  0.7249 -1.0923
  405MOL0     H55863  14.185   9.022  -1.171  3.6464 -2.3769 -3.2495
  405MOL0     H55864  14.385   8.870  -1.028 -2.3888 -1.9925 -1.0699
  405MOL0     H55865  14.408   9.025  -1.114 -0.4850  1.2778 -4.0885
  405MOL0     H55866  14.342   8.749  -1.242 -0.7058  0.5283  0.2468
  405MOL0     H55867  14.502   8.836  -1.251  0.8926  0.6110 -2.2675
  405MOL0     H55868  14.232   8.916  -1.372  0.4049 -1.2726  1.8811
  405MOL0     H55869  14.364   8.822  -1.436  0.7606 -1.7973  1.2495
  405MOL0     H55870  13.956   8.871  -0.438  0.2793 -0.2933 -0.2516
  405MOL0     H55871  13.734   8.767  -0.393  0.4377  1.2308  1.0597
  405MOL0     H55872  13.449   8.504  -0.594  0.3102 -3.4931 -1.6139
  405MOL0     H55873  13.192   8.457  -0.601  2.1092  0.3981 -2.1482
  405MOL0     H55874  11.489   7.899   0.434 -0.2102  0.0250  0.8698
  405MOL0     H55875  11.269   7.806   0.497 -0.1412  1.4534 -0.6882
  405MOL0     H55876  11.168   7.351   0.593 -0.5533 -0.7521  1.7755
  405MOL0     H55877  11.046   7.200   0.721  0.3947 -1.1664 -1.0649
  405MOL0     H55878  10.891   7.060   0.846  0.9686  2.1877  1.1305
  405MOL0     H55879  10.831   7.226   0.863 -1.1567 -1.0490  2.3554
  405MOL0     H55880  10.698   7.085   1.003  0.5898  0.3433 -0.7333
  405MOL0     H55881  10.644   6.982   0.854 -4.4318 -0.0966  0.3099
  405MOL0     H55882  10.619   7.273   0.842  0.1611 -0.1835  0.1400
  405MOL0     H55883  10.542   7.147   0.752  0.6487  1.2370 -0.7884
  405MOL0     H55884  10.489   7.216   1.039 -3.9940  0.3057  2.4861
  405MOL0     H55885  10.402   7.090   0.944  0.3255  0.0140  0.4741
  405MOL0     H55886  10.172   7.401   0.802  0.2246  0.5835  1.4396
  405MOL0     H55887  10.696   7.237   0.489  0.1009  0.5380 -2.5847
  405MOL0     H55888  10.687   7.411   0.309 -0.1351  1.1359  0.5122
  405MOL0     H55889  10.821   7.521   0.295 -0.2240 -0.1685 -1.7005
  405MOL0     H55890  10.824   7.359   0.217 -1.3867 -1.7545  1.4400
  406MOL0     O55891   5.698  11.330   1.730 -0.4682 -0.2631 -0.2683
  406MOL0     C55892   5.628  11.292   1.817  0.1075 -0.5053 -0.3961
  406MOL0     O55893   5.669  11.204   1.915  0.9140  0.2568 -0.3109
  406MOL0     C55894   5.799  11.165   1.916  0.5236  0.1682 -0.1388
  406MOL0     C55895   5.907  11.254   1.941 -0.4198  0.7818 -0.5593
  406MOL0     C55896   6.037  11.188   1.952  0.1781  0.3150  0.2109
  406MOL0     C55897   6.057  11.048   1.926  0.4049  0.9589 -0.0143
  406MOL0     O55898   6.185  11.007   1.948 -0.0020 -0.2206  0.1315
  406MOL0     C55899   6.230  10.910   1.850 -0.2514  0.5328  0.2036
  406MOL0     C55900   6.375  10.888   1.879 -0.3718  0.4664 -0.5298
  406MOL0     C55901   6.439  10.775   1.792  0.6906 -0.2294 -0.2486
  406MOL0     C55902   6.589  10.750   1.827  0.0701 -0.3483 -0.3497
  406MOL0     C55903   6.622  10.598   1.831 -0.3683 -1.6199 -0.8359
  406MOL0     C55904   6.588  10.529   1.696 -0.3865 -0.4124  0.4468
  406MOL0     C55905   6.638  10.388   1.686  0.1963 -0.1282 -0.0550
  406MOL0     C55906   6.786  10.373   1.657 -0.2479  0.1120 -0.6704
  406MOL0     N55907   6.829  10.236   1.641 -0.1446  0.5746 -0.0694
  406MOL0     C55908   6.956  10.186   1.641 -0.1593 -0.2601 -0.7292
  406MOL0     C55909   6.942  10.049   1.664  0.6291 -0.5411 -1.0785
  406MOL0     C55910   7.048   9.945   1.709 -0.0864 -0.0161 -0.5329
  406MOL0     C55911   7.186   9.994   1.722 -1.1240 -0.8087  0.4825
  406MOL0     C55912   7.285   9.872   1.715  0.8361 -0.2639  0.1191
  406MOL0     C55913   7.424   9.896   1.763  0.2337  0.0154 -1.0748
  406MOL0     O55914   7.492  10.008   1.702 -0.2307  0.0711  0.0894
  406MOL0     C55915   7.620  10.044   1.749  0.9184  0.2319 -0.5367
  406MOL0     C55916   7.663  10.171   1.716  0.9007 -0.8736  0.3755
  406MOL0     C55917   7.794  10.225   1.756  0.3764  0.4935  0.0306
  406MOL0     C55918   7.816  10.376   1.722  0.2702 -0.1327  0.6311
  406MOL0     C55919   7.880  10.138   1.817  0.0984  0.5576 -0.9150
  406MOL0     C55920   8.022  10.166   1.865  0.3708  0.0002 -0.4365
  406MOL0     O55921   8.094  10.058   1.914 -0.1373  0.3036 -0.0837
  406MOL0     C55922   8.226  10.081   1.936 -0.0345 -0.5576 -0.2190
  406MOL0     C55923   8.322  10.033   1.846 -0.3987  1.2612 -0.2147
  406MOL0     C55924   8.457  10.060   1.857 -0.1684 -0.6365 -0.4018
  406MOL0     C55925   8.501  10.134   1.962 -0.5083 -0.2869  1.4805
  406MOL0     O55926   8.632  10.172   1.992 -0.5417  0.3762 -0.5473
  406MOL0     C55927   8.732  10.089   1.930 -0.4150 -0.2381  0.1452
  406MOL0     C55928   8.862  10.153   1.961  0.3557 -0.6190 -1.0941
  406MOL0     C55929   8.889  10.167   2.108 -0.2944 -0.8120  0.4927
  406MOL0     C55930   9.035  10.199   2.126  0.8017 -0.9668 -0.4135
  406MOL0     C55931   9.069  10.190   2.275 -0.3437  0.2483  0.2957
  406MOL0     C55932   9.210  10.244   2.306  1.0543  0.1601 -0.6816
  406MOL0     C55933   9.326  10.173   2.242 -1.1618  0.1234 -0.3088
  406MOL0     C55934   9.440  10.269   2.245  0.0165  0.1121  0.5390
  406MOL0    Cl55935   9.417  10.395   2.119 -0.3965  0.1098  0.0015
  406MOL0     C55936   8.403  10.196   2.052 -0.4224 -0.3942  0.5781
  406MOL0     C55937   8.268  10.158   2.047  0.4972  0.5808 -0.8194
  406MOL0     O55938   8.075  10.276   1.846 -0.0915 -0.1376 -0.2960
  406MOL0     C55939   7.844  10.001   1.830 -0.2093 -0.1969 -1.4232
  406MOL0     C55940   7.710   9.965   1.811 -0.2484  0.0850 -0.3719
  406MOL0     N55941   6.803  10.024   1.675  1.4358 -0.4207  0.0875
  406MOL0     N55942   6.740  10.130   1.657 -0.0216 -0.1499  0.1371
  406MOL0     C55943   5.950  10.968   1.904 -0.0983  0.4523  0.0447
  406MOL0     C55944   5.825  11.027   1.909  0.4692 -0.1093 -0.8148
  406MOL0     C55945   5.484  11.347   1.819 -0.2994 -0.8822 -0.4720
  406MOL0     C55946   5.451  11.471   1.762  0.8500 -0.3258  0.3952
  406MOL0     C55947   5.324  11.516   1.741  0.1573  0.4258 -0.0094
  406MOL0     C55948   5.211  11.434   1.783 -0.4768  0.5226 -0.0789
  406MOL0     O55949   5.084  11.467   1.741 -0.2534 -0.7696 -0.5836
  406MOL0     C55950   5.048  11.609   1.727 -0.5184  0.3734 -0.3658
  406MOL0     C55951   4.897  11.591   1.736  0.1868 -0.0372 -0.1601
  406MOL0     C55952   4.831  11.735   1.729  0.0405  0.5373  0.0185
  406MOL0     C55953   4.698  11.754   1.797  0.0002 -0.3423 -0.1806
  406MOL0     C55954   4.585  11.664   1.759  0.6940  0.1275 -0.0698
  406MOL0     C55955   4.497  11.580   1.750 -0.2364 -0.4647  0.2296
  406MOL0     C55956   5.243  11.308   1.838 -0.8952 -0.1586 -0.3397
  406MOL0     C55957   5.378  11.262   1.866 -1.2919 -0.5429  0.0918
  406MOL0     C55958   5.387  11.120   1.923  0.1014 -0.2563  0.2146
  406MOL0     H55959   5.897  11.361   1.952  0.1289  0.6165  2.1839
  406MOL0     H55960   6.119  11.250   1.989  0.5303 -1.5348  2.7575
  406MOL0     H55961   6.215  10.951   1.749 -0.8728  2.1587  0.9321
  406MOL0     H55962   6.171  10.819   1.868 -0.5728  0.5406 -0.7511
  406MOL0     H55963   6.436  10.975   1.849  0.1207  0.6401  0.9076
  406MOL0     H55964   6.384  10.865   1.985 -4.0019 -0.7764 -0.3604
  406MOL0     H55965   6.384  10.683   1.811 -3.2039  1.8238 -0.5126
  406MOL0     H55966   6.429  10.795   1.684 -0.9727 -0.1600 -0.1201
  406MOL0     H55967   6.644  10.806   1.751 -1.9457  2.4488  0.1021
  406MOL0     H55968   6.613  10.804   1.919 -1.2963  2.8912 -1.7385
  406MOL0     H55969   6.569  10.540   1.908  0.8473 -0.4289  0.9838
  406MOL0     H55970   6.728  10.597   1.859 -0.9924  0.0182  2.0020
  406MOL0     H55971   6.480  10.529   1.685 -0.4758 -1.3682  1.1921
  406MOL0     H55972   6.631  10.586   1.613  1.0236 -2.1465 -0.0714
  406MOL0     H55973   6.596  10.342   1.596 -0.7427  1.4803 -0.4784
  406MOL0     H55974   6.603  10.333   1.774 -1.1124 -1.3974 -1.3165
  406MOL0     H55975   6.815  10.428   1.567  0.9696 -1.2821 -1.1667
  406MOL0     H55976   6.840  10.419   1.740  2.6576 -0.4286 -2.1229
  406MOL0     H55977   7.049  10.239   1.625 -1.1578  1.0234 -2.7760
  406MOL0     H55978   7.038   9.861   1.640  1.2212  0.4452 -1.3161
  406MOL0     H55979   7.021   9.887   1.798  2.1072 -2.7087 -1.5018
  406MOL0     H55980   7.211  10.064   1.641 -0.9783 -1.6300 -0.1935
  406MOL0     H55981   7.217  10.035   1.818 -3.3257 -0.4097  1.0649
  406MOL0     H55982   7.233   9.796   1.775 -4.0835  0.6571 -2.4769
  406MOL0     H55983   7.307   9.831   1.616  3.2689  0.7840  0.1665
  406MOL0     H55984   7.424   9.911   1.872 -1.8928 -1.2709 -0.8257
  406MOL0     H55985   7.483   9.807   1.739 -0.8136 -0.7036 -1.0596
  406MOL0     H55986   7.594  10.223   1.649  0.7700 -0.1513  1.0488
  406MOL0     H55987   7.728  10.439   1.738 -1.0519 -1.8447  0.3585
  406MOL0     H55988   7.839  10.390   1.616 -0.3680  1.6771  0.7005
  406MOL0     H55989   7.900  10.421   1.776 -0.3652  1.5164  0.3058
  406MOL0     H55990   8.283   9.968   1.769 -3.1303  3.5836 -0.9529
  406MOL0     H55991   8.534  10.039   1.783 -0.0055  2.2827 -1.1711
  406MOL0     H55992   8.736   9.984   1.961 -4.2246 -0.0086  2.0563
  406MOL0     H55993   8.707  10.084   1.824 -1.4349 -0.2720  0.3684
  406MOL0     H55994   8.943  10.087   1.929 -0.3978 -2.6859  1.0065
  406MOL0     H55995   8.866  10.248   1.906 -1.6942  0.0670 -0.1546
  406MOL0     H55996   8.873  10.067   2.151 -3.1349 -0.3793  0.6569
  406MOL0     H55997   8.832  10.240   2.166  0.2466 -0.4776  0.6099
  406MOL0     H55998   9.047  10.304   2.097  1.6358 -0.4471  1.6747
  406MOL0     H55999   9.099  10.128   2.072 -0.1259 -1.1940 -1.2502
  406MOL0     H56000   8.995  10.251   2.328 -3.5130 -1.7534 -1.4985
  406MOL0     H56001   9.068  10.087   2.312  3.2707 -0.9225 -2.2977
  406MOL0     H56002   9.232  10.245   2.413 -1.9398  0.7028  0.0081
  406MOL0     H56003   9.198  10.349   2.275 -1.0409  0.1639  0.0216
  406MOL0     H56004   9.302  10.129   2.145 -1.1046 -0.7373  0.0583
  406MOL0     H56005   9.347  10.084   2.303 -2.7907 -0.8197 -1.0470
  406MOL0     H56006   9.531  10.218   2.213  0.4216  0.2220  1.4661
  406MOL0     H56007   9.466  10.301   2.347 -0.1610  0.8159  0.3753
  406MOL0     H56008   8.445  10.252   2.135 -0.2204  0.1479  0.1128
  406MOL0     H56009   8.193  10.204   2.111 -0.4744 -2.2171  0.2071
  406MOL0     H56010   7.909   9.931   1.882 -0.1087  0.5741 -0.5006
  406MOL0     H56011   7.675   9.864   1.829  3.0005 -1.4120 -1.5909
  406MOL0     H56012   5.953  10.860   1.897  0.4875  0.4313  0.5442
  406MOL0     H56013   5.738  10.964   1.896 -0.5483  0.6548  1.6343
  406MOL0     H56014   5.535  11.539   1.750  1.9989 -1.6286  0.7314
  406MOL0     H56015   5.311  11.617   1.706 -0.6377  1.6738  3.4851
  406MOL0     H56016   5.091  11.673   1.804  1.8036 -1.2132 -0.2362
  406MOL0     H56017   5.076  11.643   1.627 -1.9977  1.0406 -0.5854
  406MOL0     H56018   4.864  11.545   1.830  1.3177  2.3293  1.4913
  406MOL0     H56019   4.864  11.527   1.654 -2.8400  0.1452  0.7855
  406MOL0     H56020   4.902  11.809   1.769 -1.3440  0.9430  1.8675
  406MOL0     H56021   4.826  11.759   1.623 -1.2597 -1.1739 -0.3438
  406MOL0     H56022   4.662  11.856   1.779 -0.4483 -0.8652 -2.6802
  406MOL0     H56023   4.701  11.752   1.906 -1.4662  1.3367 -0.0689
  406MOL0     H56024   4.412  11.514   1.745 -1.2134  0.4926  2.7394
  406MOL0     H56025   5.156  11.248   1.866 -0.1929 -1.7835 -1.4612
  406MOL0     H56026   5.440  11.125   2.019 -0.1344  0.3520  0.3159
  406MOL0     H56027   5.290  11.075   1.941  0.0220 -0.1775 -0.0173
  406MOL0     H56028   5.446  11.068   1.847 -0.4547 -0.2758 -0.2017
  407MOL0     O56029   2.149   8.233   0.246 -0.5752 -0.6466 -0.1140
  407MOL0     C56030   2.088   8.275   0.342  0.3270 -0.1467  0.0523
  407MOL0     O56031   2.146   8.336   0.447  0.5863  0.4180 -0.2298
  407MOL0     C56032   2.283   8.370   0.432  0.4430 -0.2519 -0.5680
  407MOL0     C56033   2.387   8.282   0.446  0.4941  0.1462 -0.4884
  407MOL0     C56034   2.520   8.321   0.434 -1.3601  0.7940 -0.5441
  407MOL0     C56035   2.555   8.451   0.386  0.5094  0.2501  0.4725
  407MOL0     O56036   2.685   8.475   0.360  0.5176  0.4328  0.3709
  407MOL0     C56037   2.711   8.530   0.228 -0.2650  0.1406  0.2753
  407MOL0     C56038   2.856   8.554   0.182 -0.3254 -0.9074  0.4429
  407MOL0     C56039   2.919   8.661   0.266 -0.8682  0.4507  0.1887
  407MOL0     C56040   3.068   8.682   0.233 -0.5512 -0.4634  0.9077
  407MOL0     C56041   3.152   8.772   0.325 -0.5648 -0.8038 -0.2948
  407MOL0     C56042   3.128   8.741   0.473 -0.6688 -0.3311  0.6138
  407MOL0     C56043   3.232   8.812   0.563  0.4109  0.8955  0.1943
  407MOL0     C56044   3.334   8.701   0.616  0.4814 -0.2301 -0.4723
  407MOL0     N56045   3.441   8.691   0.519 -0.6558  0.4067  0.3501
  407MOL0     C56046   3.527   8.794   0.488  0.5292  0.1536  0.3409
  407MOL0     C56047   3.618   8.736   0.396  0.1830  0.5517  0.2917
  407MOL0     C56048   3.748   8.788   0.344 -0.6055 -0.3621 -0.5803
  407MOL0     C56049   3.823   8.683   0.260  0.7785 -0.0451  0.1128
  407MOL0     C56050   3.956   8.741   0.201  0.4038  0.0749 -0.3686
  407MOL0     C56051   4.069   8.792   0.293  0.1101 -0.5170  0.0917
  407MOL0     O56052   4.118   8.686   0.380 -0.0211 -0.2176 -0.3692
  407MOL0     C56053   4.241   8.623   0.355  0.3975 -0.0022  1.1395
  407MOL0     C56054   4.303   8.625   0.228  0.1139  0.6114  0.8110
  407MOL0     C56055   4.428   8.562   0.204 -0.7569 -0.2962  0.1984
  407MOL0     C56056   4.486   8.574   0.065  0.0612 -0.0377 -0.0773
  407MOL0     C56057   4.503   8.500   0.309  0.9487 -1.0921 -0.1276
  407MOL0     C56058   4.630   8.426   0.310 -0.4085 -0.1547  0.5055
  407MOL0     O56059   4.706   8.441   0.426 -0.1092  0.0621  0.1004
  407MOL0     C56060   4.840   8.424   0.418  0.2242  0.5227 -0.7365
  407MOL0     C56061   4.915   8.528   0.461 -0.6980  0.7254  0.3727
  407MOL0     C56062   5.056   8.526   0.448 -0.6174 -0.4016 -0.5104
  407MOL0     C56063   5.121   8.417   0.385 -0.3825  0.1223 -0.1567
  407MOL0     O56064   5.263   8.420   0.371  0.2465  0.4273 -0.4643
  407MOL0     C56065   5.316   8.327   0.272  0.2471  0.4410  0.0576
  407MOL0     C56066   5.452   8.379   0.219 -0.1661 -0.0525  0.6712
  407MOL0     C56067   5.559   8.392   0.331 -0.0146 -0.0667  0.0091
  407MOL0     C56068   5.703   8.414   0.276  0.1045  1.0920 -0.1909
  407MOL0     C56069   5.812   8.428   0.383  0.2625 -0.4253 -0.2537
  407MOL0     C56070   5.888   8.295   0.419  0.8788  0.0678  0.4391
  407MOL0     C56071   6.014   8.323   0.504 -0.2273  0.3565  0.1514
  407MOL0     C56072   6.124   8.422   0.446  0.5396 -0.0830 -0.2259
  407MOL0    Cl56073   6.085   8.592   0.473  0.2764  0.0734  0.1014
  407MOL0     C56074   5.034   8.314   0.345 -0.0153 -0.5143  0.0255
  407MOL0     C56075   4.900   8.315   0.353 -0.8693  0.0009 -0.1167
  407MOL0     O56076   4.670   8.383   0.200  0.6406  0.0592  0.0322
  407MOL0     C56077   4.443   8.520   0.434 -0.9487  0.1809  1.0218
  407MOL0     C56078   4.320   8.585   0.460 -0.2257 -0.4309 -0.1124
  407MOL0     N56079   3.570   8.605   0.373 -0.5742  0.1856  0.0888
  407MOL0     N56080   3.470   8.584   0.445  0.2059  0.0119 -0.7213
  407MOL0     C56081   2.447   8.539   0.361  0.0677 -0.9031  0.4238
  407MOL0     C56082   2.316   8.502   0.399 -0.4845  0.1893 -0.1236
  407MOL0     C56083   1.938   8.263   0.341  0.2126  0.3429 -0.6347
  407MOL0     C56084   1.869   8.330   0.444 -0.3422  0.8167 -0.3992
  407MOL0     C56085   1.729   8.317   0.461 -0.2286  0.0850  0.6510
  407MOL0     C56086   1.651   8.243   0.369  0.1728 -0.6288  0.9036
  407MOL0     O56087   1.516   8.240   0.370 -0.1388  0.7052  0.1215
  407MOL0     C56088   1.442   8.296   0.474  0.4870 -0.4156 -0.3090
  407MOL0     C56089   1.288   8.271   0.465  0.0726  0.0414  0.7286
  407MOL0     C56090   1.210   8.317   0.590 -1.1627  0.7162 -0.8510
  407MOL0     C56091   1.183   8.470   0.597 -0.3323  0.0024  0.2827
  407MOL0     C56092   1.067   8.507   0.513  0.8077  0.2290  0.4018
  407MOL0     C56093   0.972   8.528   0.441 -0.5109 -0.3145  0.2291
  407MOL0     C56094   1.721   8.178   0.265  0.4007 -0.6974 -0.2338
  407MOL0     C56095   1.862   8.189   0.250  0.4608  0.5750  0.4548
  407MOL0     C56096   1.916   8.121   0.121  0.4435 -0.6550 -0.6090
  407MOL0     H56097   2.357   8.181   0.470  3.0072 -0.6278 -0.2899
  407MOL0     H56098   2.603   8.251   0.437 -1.7964 -0.0242 -3.5750
  407MOL0     H56099   2.658   8.625   0.218 -0.9952 -0.1981  0.8566
  407MOL0     H56100   2.668   8.459   0.156 -0.4278  0.9286 -0.4270
  407MOL0     H56101   2.911   8.459   0.187 -0.5078 -0.9933  0.9407
  407MOL0     H56102   2.850   8.595   0.081 -0.0095 -0.0195  0.7761
  407MOL0     H56103   2.858   8.752   0.257  1.5511  2.1399 -0.2574
  407MOL0     H56104   2.916   8.615   0.365  1.9258 -2.2495 -0.8072
  407MOL0     H56105   3.119   8.585   0.227  1.4047  0.2802  3.7155
  407MOL0     H56106   3.088   8.726   0.135  1.1138  0.1467  1.4890
  407MOL0     H56107   3.125   8.875   0.300 -1.8593 -0.9232  0.5205
  407MOL0     H56108   3.255   8.750   0.296 -0.5426 -3.2118  1.2470
  407MOL0     H56109   3.027   8.767   0.508 -0.2146  0.4679  1.3573
  407MOL0     H56110   3.138   8.634   0.492 -0.2677 -0.1314  1.5817
  407MOL0     H56111   3.181   8.853   0.651 -2.5096  0.0250 -0.9755
  407MOL0     H56112   3.292   8.886   0.509  0.9843 -0.1435 -0.6245
  407MOL0     H56113   3.362   8.720   0.721  1.9880  1.8608 -1.1833
  407MOL0     H56114   3.286   8.604   0.623  0.7065 -0.3302 -0.2792
  407MOL0     H56115   3.545   8.892   0.531  3.1663  0.2953 -0.9143
  407MOL0     H56116   3.812   8.814   0.429 -0.4262 -0.0045 -0.8212
  407MOL0     H56117   3.731   8.876   0.281 -0.4634  0.7051  0.8034
  407MOL0     H56118   3.843   8.586   0.305 -1.3905 -0.8917 -0.5966
  407MOL0     H56119   3.759   8.672   0.172 -0.2044  2.6358  0.3866
  407MOL0     H56120   4.002   8.661   0.143  0.8306  0.9590 -1.2939
  407MOL0     H56121   3.928   8.821   0.132 -1.5160 -0.4876 -0.2723
  407MOL0     H56122   4.146   8.831   0.227 -0.3459 -1.9642 -1.3518
  407MOL0     H56123   4.013   8.870   0.347 -4.9172 -1.0264 -3.6007
  407MOL0     H56124   4.244   8.658   0.143  0.6708 -0.2375  0.0776
  407MOL0     H56125   4.464   8.486   0.004  1.0806  0.8538 -1.8242
  407MOL0     H56126   4.594   8.591   0.068 -0.1055  1.4464 -1.1721
  407MOL0     H56127   4.437   8.657   0.012  1.6732  0.1743 -1.3189
  407MOL0     H56128   4.871   8.618   0.502 -0.6788  0.9199 -0.0305
  407MOL0     H56129   5.133   8.599   0.468  1.8108 -2.3398 -2.2391
  407MOL0     H56130   5.319   8.225   0.310 -0.3863 -0.1106 -1.2958
  407MOL0     H56131   5.240   8.323   0.193  0.7518  1.7647 -0.5325
  407MOL0     H56132   5.494   8.304   0.151  0.8391  2.4305 -1.6101
  407MOL0     H56133   5.443   8.468   0.157  0.1819  0.3512  1.1987
  407MOL0     H56134   5.545   8.315   0.407 -0.8613  0.0017 -0.0669
  407MOL0     H56135   5.532   8.484   0.384 -1.7267 -0.4035 -0.1954
  407MOL0     H56136   5.711   8.494   0.201 -1.4691  1.0995 -0.3818
  407MOL0     H56137   5.724   8.328   0.212 -1.7100  0.6655 -0.2576
  407MOL0     H56138   5.893   8.492   0.346 -1.0338  2.2421  1.2847
  407MOL0     H56139   5.771   8.470   0.475 -1.0784 -3.0052  0.4498
  407MOL0     H56140   5.920   8.236   0.332 -1.5014  0.4748 -0.7881
  407MOL0     H56141   5.815   8.244   0.482  0.5144  2.7678  2.3638
  407MOL0     H56142   6.063   8.225   0.505  1.1995  1.0358 -0.4974
  407MOL0     H56143   5.993   8.350   0.608 -0.5327 -0.4872  0.3136
  407MOL0     H56144   6.139   8.407   0.339 -0.2709 -0.2922 -0.3195
  407MOL0     H56145   6.218   8.408   0.500 -0.5072 -0.7289  1.5235
  407MOL0     H56146   5.067   8.223   0.295  1.0750 -0.6714  1.0077
  407MOL0     H56147   4.844   8.235   0.305  1.6690 -1.5773 -0.5908
  407MOL0     H56148   4.489   8.484   0.525 -2.0960  2.1630  2.4603
  407MOL0     H56149   4.290   8.598   0.563  1.5201 -1.2559  0.5296
  407MOL0     H56150   2.468   8.640   0.328 -1.2559 -0.5487  0.6044
  407MOL0     H56151   2.242   8.578   0.375  2.5315  2.6199 -2.6913
  407MOL0     H56152   1.923   8.392   0.515  0.8318 -0.4635 -0.1332
  407MOL0     H56153   1.692   8.380   0.541  2.2925  0.4485  1.6077
  407MOL0     H56154   1.481   8.260   0.569  2.4225  0.6274 -0.6661
  407MOL0     H56155   1.454   8.404   0.472  0.6318 -0.3677  1.7120
  407MOL0     H56156   1.271   8.163   0.457  1.1968 -0.1949  1.3100
  407MOL0     H56157   1.242   8.321   0.379  0.1900  1.4793  1.4689
  407MOL0     H56158   1.112   8.269   0.586 -0.4524 -0.9954  0.5539
  407MOL0     H56159   1.265   8.296   0.683  0.1646 -0.6752 -1.8848
  407MOL0     H56160   1.266   8.528   0.556 -1.1239  0.3875 -0.8211
  407MOL0     H56161   1.159   8.497   0.701  0.6886 -1.0524  0.8189
  407MOL0     H56162   0.882   8.526   0.382 -0.0697 -1.0154 -0.4462
  407MOL0     H56163   1.660   8.125   0.192  3.1848 -1.6784 -2.0095
  407MOL0     H56164   1.947   8.207   0.061 -0.0430  0.5543  0.8158
  407MOL0     H56165   1.993   8.047   0.143  1.7662 -0.2120 -3.3638
  407MOL0     H56166   1.832   8.071   0.073  1.4550  0.2367 -3.4984
  408MOL0     O56167   8.588   8.388   4.640  0.4518 -0.3774  0.0749
  408MOL0     C56168   8.568   8.432   4.525 -0.8130 -0.3775 -0.1102
  408MOL0     O56169   8.624   8.544   4.481  0.6716  0.1580  0.5391
  408MOL0     C56170   8.718   8.606   4.557 -0.1925 -0.2836 -0.6320
  408MOL0     C56171   8.842   8.539   4.567 -0.6763  0.4073 -0.0857
  408MOL0     C56172   8.949   8.613   4.608  0.4721 -0.1667 -0.2764
  408MOL0     C56173   8.948   8.749   4.632  0.0189  0.2933 -0.0879
  408MOL0     O56174   9.060   8.812   4.683 -0.6299 -0.0815 -0.4479
  408MOL0     C56175   9.052   8.956   4.692  0.0335 -0.1429 -0.3754
  408MOL0     C56176   9.193   9.008   4.704  0.1444 -0.2555 -0.4027
  408MOL0     C56177   9.296   8.958   4.605  0.7387  0.4463 -0.2976
  408MOL0     C56178   9.415   9.059   4.600  0.5760 -0.1556  0.6312
  408MOL0     C56179   9.525   8.996   4.513 -0.3290  0.0026 -0.2011
  408MOL0     C56180   9.636   9.105   4.485  1.0569 -0.0181 -0.4706
  408MOL0     C56181   9.756   9.050   4.408  0.1457  0.5528 -0.6687
  408MOL0     C56182   9.861   8.981   4.497 -0.1044 -0.6834  0.7050
  408MOL0     N56183   9.955   8.921   4.401 -0.9255  0.2499 -0.0310
  408MOL0     C56184   9.939   8.800   4.338 -0.2626  0.8860  0.2473
  408MOL0     C56185  10.054   8.799   4.260 -0.4796 -0.0727 -0.4192
  408MOL0     C56186  10.086   8.675   4.170  1.0934  0.0791 -0.7307
  408MOL0     C56187  10.211   8.609   4.225  0.1809  0.5561 -0.5205
  408MOL0     C56188  10.186   8.509   4.345  0.3365  0.0468 -0.1192
  408MOL0     C56189  10.305   8.438   4.391  0.0451 -0.1225 -0.0931
  408MOL0     O56190  10.373   8.371   4.275  0.1144  0.0392  0.0271
  408MOL0     C56191  10.481   8.294   4.303 -0.4106  0.4941  0.3105
  408MOL0     C56192  10.535   8.266   4.433  0.5919 -0.6015 -0.4438
  408MOL0     C56193  10.654   8.198   4.455 -0.2230 -0.1797 -0.3558
  408MOL0     C56194  10.702   8.176   4.599 -0.2509 -0.8093 -0.2530
  408MOL0     C56195  10.725   8.146   4.339  0.6686  0.2556  0.1249
  408MOL0     C56196  10.847   8.060   4.340  0.0684  0.2485  0.5575
  408MOL0     O56197  10.904   8.033   4.219 -0.4013 -0.5835  0.3928
  408MOL0     C56198  11.002   7.947   4.215  0.2732 -0.2715  0.2308
  408MOL0     C56199  11.131   7.991   4.176 -0.2698  0.1695 -0.4732
  408MOL0     C56200  11.234   7.896   4.171  0.1469  0.3529 -0.9764
  408MOL0     C56201  11.210   7.761   4.196 -0.2988 -0.0213  0.2075
  408MOL0     O56202  11.315   7.672   4.200 -0.1700 -0.0298 -0.5418
  408MOL0     C56203  11.350   7.614   4.073  0.6572  0.5446  0.3739
  408MOL0     C56204  11.450   7.509   4.092  0.3544  0.8339  0.5405
  408MOL0     C56205  11.525   7.472   3.955 -0.0383 -0.7265 -0.3672
  408MOL0     C56206  11.636   7.367   3.979 -0.0943 -0.1114 -0.5319
  408MOL0     C56207  11.699   7.327   3.847  0.4581  0.4001  0.2996
  408MOL0     C56208  11.843   7.262   3.870  0.0003 -0.3085  0.0968
  408MOL0     C56209  11.908   7.198   3.738  0.0801  0.3796  0.7812
  408MOL0     C56210  12.039   7.122   3.739 -0.1749  0.4912 -0.5749
  408MOL0    Cl56211  12.046   6.988   3.870  0.1080  0.0481  0.2065
  408MOL0     C56212  11.083   7.719   4.225 -0.0987  0.0176  0.6829
  408MOL0     C56213  10.980   7.813   4.241 -0.9923  0.6218 -0.0666
  408MOL0     O56214  10.887   8.018   4.447  0.2765  0.0047 -0.0552
  408MOL0     C56215  10.665   8.174   4.213 -0.3058  0.1076  0.0125
  408MOL0     C56216  10.551   8.243   4.194  0.3380 -1.4810 -0.3202
  408MOL0     N56217  10.146   8.905   4.296  0.2528  0.3501  0.2728
  408MOL0     N56218  10.081   8.976   4.376 -0.2440  0.6259 -0.2165
  408MOL0     C56219   8.830   8.820   4.608  0.3277  1.3083  0.9611
  408MOL0     C56220   8.715   8.748   4.576 -0.1818  0.3130 -0.1043
  408MOL0     C56221   8.468   8.370   4.434 -0.8764  0.1994  0.1783
  408MOL0     C56222   8.425   8.438   4.315 -0.2353  0.6693  0.2033
  408MOL0     C56223   8.346   8.379   4.219 -0.0752  0.3873  1.1047
  408MOL0     C56224   8.298   8.253   4.238 -0.2631 -0.0744 -0.1736
  408MOL0     O56225   8.213   8.186   4.150  0.3263 -0.7290  0.0868
  408MOL0     C56226   8.139   8.253   4.048 -0.4242  0.1128 -0.0419
  408MOL0     C56227   8.173   8.209   3.902  0.7694 -0.2580 -0.5680
  408MOL0     C56228   8.321   8.216   3.867 -0.0114 -0.2744 -0.1959
  408MOL0     C56229   8.344   8.225   3.718  0.4083  0.5598  0.4498
  408MOL0     C56230   8.477   8.238   3.680 -0.0351 -0.8083  0.5883
  408MOL0     C56231   8.591   8.252   3.640 -0.2106 -0.1102 -0.0319
  408MOL0     C56232   8.330   8.184   4.349  0.0651  0.4844 -0.8381
  408MOL0     C56233   8.415   8.233   4.451 -0.0252 -0.0166  0.1703
  408MOL0     C56234   8.448   8.145   4.569  0.8622  0.3213 -0.1648
  408MOL0     H56235   8.848   8.432   4.547  0.8554  0.2076  1.2875
  408MOL0     H56236   9.045   8.565   4.625  2.0674  3.1413  1.0204
  408MOL0     H56237   8.986   8.991   4.772 -1.2947 -0.7500 -1.1785
  408MOL0     H56238   9.016   8.989   4.594 -0.3199  0.4951 -0.0405
  408MOL0     H56239   9.181   9.116   4.689 -1.7510 -0.4615 -0.6555
  408MOL0     H56240   9.239   8.977   4.798  2.0116 -0.3398 -1.2999
  408MOL0     H56241   9.326   8.858   4.636 -0.8337 -0.6459 -2.1481
  408MOL0     H56242   9.256   8.951   4.504  0.5491  0.6841 -0.2405
  408MOL0     H56243   9.397   9.161   4.563 -0.8472  1.0401  4.1876
  408MOL0     H56244   9.458   9.076   4.699  2.6316 -0.4741 -0.1482
  408MOL0     H56245   9.493   8.964   4.414  0.9386  1.8346 -1.2656
  408MOL0     H56246   9.566   8.915   4.574 -1.9971 -2.0166 -1.6291
  408MOL0     H56247   9.588   9.178   4.419 -0.7645 -1.1757 -0.4942
  408MOL0     H56248   9.668   9.161   4.574  1.1768  2.4362 -1.9727
  408MOL0     H56249   9.804   9.118   4.336  2.5828 -2.4991 -2.1566
  408MOL0     H56250   9.719   8.967   4.348  0.9135 -1.4831  1.5541
  408MOL0     H56251   9.913   9.053   4.561 -0.2089 -0.8767  1.0122
  408MOL0     H56252   9.820   8.905   4.565 -0.8371  1.8776  3.3201
  408MOL0     H56253   9.863   8.722   4.342 -0.7039  1.3245  0.5645
  408MOL0     H56254  10.109   8.720   4.073  0.9702  1.0160 -0.3397
  408MOL0     H56255  10.001   8.609   4.155 -0.3342  2.1237 -2.0517
  408MOL0     H56256  10.244   8.547   4.141 -0.4068 -2.4538  1.3084
  408MOL0     H56257  10.285   8.685   4.249  1.2013  0.2233 -2.3766
  408MOL0     H56258  10.159   8.573   4.430 -1.2326 -0.6861 -0.0298
  408MOL0     H56259  10.109   8.435   4.321 -0.0509  0.6931 -0.9246
  408MOL0     H56260  10.353   8.521   4.443 -3.3813  1.9318  0.0599
  408MOL0     H56261  10.286   8.360   4.466 -0.5865 -0.8974 -1.0278
  408MOL0     H56262  10.468   8.293   4.514  1.7157 -1.4154  0.7869
  408MOL0     H56263  10.651   8.234   4.676  1.1345 -0.3967  0.3900
  408MOL0     H56264  10.805   8.212   4.611 -0.5166 -0.2700  0.5017
  408MOL0     H56265  10.688   8.073   4.633 -1.3008  0.3986  3.4165
  408MOL0     H56266  11.146   8.098   4.171  0.3676  0.3317  2.9198
  408MOL0     H56267  11.334   7.933   4.154  0.1189  1.2090  0.5222
  408MOL0     H56268  11.265   7.560   4.030  1.2303  1.0490 -1.4879
  408MOL0     H56269  11.386   7.689   4.003 -1.8054  1.6540  0.1981
  408MOL0     H56270  11.518   7.530   4.175  0.1721  2.1951  0.3667
  408MOL0     H56271  11.397   7.414   4.107 -2.1701  0.7656 -5.6421
  408MOL0     H56272  11.567   7.567   3.920 -2.5165  0.8162  0.5918
  408MOL0     H56273  11.457   7.435   3.878 -0.2850 -0.9188 -0.0553
  408MOL0     H56274  11.594   7.285   4.038 -2.6966  2.5303  1.5724
  408MOL0     H56275  11.716   7.416   4.036 -0.1008 -0.0331 -0.5903
  408MOL0     H56276  11.632   7.259   3.794  0.8653 -0.0493  0.3538
  408MOL0     H56277  11.701   7.419   3.787 -0.4069 -0.3153 -0.8607
  408MOL0     H56278  11.850   7.189   3.951  1.9335 -0.3863 -0.0848
  408MOL0     H56279  11.904   7.347   3.902  0.1272 -0.8232  1.2376
  408MOL0     H56280  11.910   7.272   3.657 -1.1973  1.1697  1.4376
  408MOL0     H56281  11.829   7.128   3.710  2.0541 -1.1434 -1.3271
  408MOL0     H56282  12.116   7.197   3.756  1.2354 -1.3194  1.5553
  408MOL0     H56283  12.052   7.074   3.642 -1.9093 -2.4155  0.4809
  408MOL0     H56284  11.071   7.611   4.230 -1.1558  0.1692  1.8920
  408MOL0     H56285  10.885   7.774   4.276 -0.5788  0.2496  0.6552
  408MOL0     H56286  10.709   8.128   4.125 -1.0543 -0.7051  0.0461
  408MOL0     H56287  10.520   8.266   4.093  0.9247  1.0064 -0.0069
  408MOL0     H56288   8.816   8.927   4.610  2.7639  1.6893  0.9554
  408MOL0     H56289   8.623   8.806   4.567  2.0498  4.1232 -0.8087
  408MOL0     H56290   8.454   8.542   4.302 -2.3178  1.3364  0.3984
  408MOL0     H56291   8.327   8.436   4.128  1.5356  0.0041  0.4920
  408MOL0     H56292   8.033   8.230   4.061 -0.4325  0.6845  0.9322
  408MOL0     H56293   8.142   8.362   4.057  0.0869  0.0873  0.1354
  408MOL0     H56294   8.118   8.278   3.838 -2.7619 -0.2508  2.1591
  408MOL0     H56295   8.127   8.112   3.883  1.5453 -0.5156 -1.1679
  408MOL0     H56296   8.360   8.307   3.915  1.4723  1.2744 -3.9130
  408MOL0     H56297   8.374   8.127   3.903  0.7745  0.7217  1.2183
  408MOL0     H56298   8.281   8.304   3.675 -0.0257  1.2696  2.2726
  408MOL0     H56299   8.307   8.126   3.691 -0.7129  0.4871  2.0972
  408MOL0     H56300   8.696   8.260   3.617  0.3308 -1.1268  1.9029
  408MOL0     H56301   8.285   8.087   4.363 -1.2612  0.8081 -2.5278
  408MOL0     H56302   8.427   8.198   4.662 -1.6515  1.8817 -1.5259
  408MOL0     H56303   8.403   8.045   4.577  0.5934  0.5812  2.2571
  408MOL0     H56304   8.553   8.116   4.557  1.0509  0.6423  0.6625
  409MOL0     O56305   8.181   9.931   7.403 -0.3803  0.6098 -0.1794
  409MOL0     C56306   8.110  10.022   7.392  0.7751 -0.3239 -0.3346
  409MOL0     O56307   8.149  10.153   7.380  0.5746  0.5910  0.1491
  409MOL0     C56308   8.282  10.196   7.385 -0.5221 -0.2730  0.2300
  409MOL0     C56309   8.298  10.334   7.349 -0.2574 -0.4387  0.4152
  409MOL0     C56310   8.421  10.397   7.356 -0.0746  0.2964 -1.0939
  409MOL0     C56311   8.537  10.333   7.402  0.2241 -0.5236 -0.4526
  409MOL0     O56312   8.656  10.405   7.390 -0.3356  0.8228 -0.6227
  409MOL0     C56313   8.784  10.330   7.401  0.6827  0.0393  0.1495
  409MOL0     C56314   8.900  10.423   7.365  0.8716  0.1108 -0.8097
  409MOL0     C56315   9.028  10.343   7.387  0.1291 -0.7728  0.8066
  409MOL0     C56316   9.152  10.437   7.374 -0.3411  0.0772 -0.7803
  409MOL0     C56317   9.298  10.376   7.397 -0.6798 -0.3605 -0.6887
  409MOL0     C56318   9.333  10.356   7.546  0.6463  0.4337 -0.0469
  409MOL0     C56319   9.475  10.316   7.569  0.2669  0.2268 -1.3745
  409MOL0     C56320   9.587  10.430   7.561 -0.7750 -0.3004  0.5290
  409MOL0     N56321   9.584  10.536   7.670 -0.1750  0.2528 -0.0695
  409MOL0     C56322   9.508  10.651   7.672  0.1738 -0.3861  0.0680
  409MOL0     C56323   9.570  10.731   7.772 -0.1432  0.6265 -0.2738
  409MOL0     C56324   9.521  10.863   7.827 -0.3153  0.5091  0.2582
  409MOL0     C56325   9.636  10.967   7.819  0.3768  0.5826  0.5092
  409MOL0     C56326   9.602  11.094   7.893  0.3509 -0.2139  0.4960
  409MOL0     C56327   9.704  11.210   7.882  0.8100  0.5546  0.4417
  409MOL0     O56328   9.835  11.167   7.915  0.4468  0.4957 -0.2805
  409MOL0     C56329   9.936  11.213   7.832  0.0915 -0.5614 -0.1408
  409MOL0     C56330  10.018  11.117   7.782 -0.4394 -0.2616  0.0622
  409MOL0     C56331  10.128  11.133   7.708  0.5907  0.0120  0.3256
  409MOL0     C56332  10.219  11.013   7.686 -0.5128 -0.0848 -0.5195
  409MOL0     C56333  10.151  11.257   7.648 -0.2519  0.5627  0.1449
  409MOL0     C56334  10.257  11.296   7.539  0.3370 -0.1925 -0.3002
  409MOL0     O56335  10.269  11.434   7.498  0.0318  0.0398 -1.3784
  409MOL0     C56336  10.393  11.460   7.444  0.8068  0.4177  0.3241
  409MOL0     C56337  10.397  11.501   7.307  0.3704 -0.1395  0.6894
  409MOL0     C56338  10.518  11.527   7.242 -0.0651 -0.1991 -0.2336
  409MOL0     C56339  10.639  11.531   7.311  0.6272  0.2272 -0.5837
  409MOL0     O56340  10.762  11.540   7.255  0.3384 -0.3049  0.3993
  409MOL0     C56341  10.769  11.637   7.148 -0.1133 -0.4844 -0.0527
  409MOL0     C56342  10.913  11.665   7.105  0.0452  0.3236  0.2444
  409MOL0     C56343  10.905  11.774   7.001  0.0062 -0.0627  0.4698
  409MOL0     C56344  11.046  11.801   6.945  0.7221 -0.5379  0.4729
  409MOL0     C56345  11.038  11.940   6.870 -1.5771  0.4034  0.9325
  409MOL0     C56346  11.175  11.961   6.792 -0.0539  0.4436 -0.0892
  409MOL0     C56347  11.190  12.103   6.728 -0.1656  0.6040  0.1440
  409MOL0     C56348  11.285  12.103   6.614 -0.4247  0.5045 -0.1599
  409MOL0    Cl56349  11.235  11.996   6.477 -0.4118 -0.0184 -0.3316
  409MOL0     C56350  10.628  11.497   7.454 -0.4152 -0.1000  0.3219
  409MOL0     C56351  10.510  11.465   7.518  0.1525  0.4267 -0.5722
  409MOL0     O56352  10.322  11.203   7.495 -0.9799  0.7201 -0.0037
  409MOL0     C56353  10.058  11.359   7.689 -0.2235 -0.1224 -0.1906
  409MOL0     C56354   9.952  11.336   7.782 -0.4808 -0.3722  0.6015
  409MOL0     N56355   9.685  10.666   7.810  0.7658  0.3191  0.2408
  409MOL0     N56356   9.685  10.550   7.761  0.0060 -0.6857  0.0011
  409MOL0     C56357   8.524  10.204   7.440 -0.1755  0.4763  0.4329
  409MOL0     C56358   8.403  10.140   7.436 -0.1062  0.5891  0.1204
  409MOL0     C56359   7.965   9.994   7.392  0.5381 -0.8311  0.1824
  409MOL0     C56360   7.886  10.087   7.317 -0.3283 -0.0412 -0.7131
  409MOL0     C56361   7.747  10.067   7.307  0.2367 -1.0183  0.0920
  409MOL0     C56362   7.682   9.973   7.389 -0.9534  0.2339  0.7434
  409MOL0     O56363   7.546   9.946   7.387  0.0817 -0.4871  0.2225
  409MOL0     C56364   7.467  10.005   7.287 -0.0363 -0.2927 -0.1852
  409MOL0     C56365   7.326   9.948   7.272  0.3799 -0.1899  0.6579
  409MOL0     C56366   7.268   9.972   7.134  0.1673  0.0854  0.3395
  409MOL0     C56367   7.117   9.960   7.137  0.6783  0.0482  0.1624
  409MOL0     C56368   7.050  10.072   7.211  0.1994 -0.2620 -0.2843
  409MOL0     C56369   7.007  10.163   7.282  1.2248  0.6704 -0.1252
  409MOL0     C56370   7.762   9.888   7.464  0.6533 -0.1166  0.5971
  409MOL0     C56371   7.896   9.895   7.469  0.3151 -0.4155  0.6197
  409MOL0     C56372   7.974   9.807   7.564  0.1010 -0.9665  0.7738
  409MOL0     H56373   8.210  10.385   7.313 -0.4270 -1.0694 -0.0699
  409MOL0     H56374   8.432  10.495   7.311 -0.3098 -0.3075 -2.4969
  409MOL0     H56375   8.798  10.242   7.338  0.9938 -0.6163  1.1188
  409MOL0     H56376   8.788  10.303   7.507  1.0276 -0.1840  0.0800
  409MOL0     H56377   8.885  10.462   7.264 -3.8747 -0.3251 -0.5299
  409MOL0     H56378   8.906  10.505   7.437  0.7198  0.8089 -1.5809
  409MOL0     H56379   9.030  10.290   7.483 -2.1119 -1.1343  0.7151
  409MOL0     H56380   9.036  10.265   7.311  2.1821  1.3691 -1.3530
  409MOL0     H56381   9.127  10.462   7.270 -1.7570 -1.6428 -0.9166
  409MOL0     H56382   9.147  10.523   7.440 -0.5853  0.6382 -1.5086
  409MOL0     H56383   9.374  10.439   7.350 -0.3430  0.4242  0.8294
  409MOL0     H56384   9.307  10.282   7.342 -2.2681  0.0598 -1.7059
  409MOL0     H56385   9.309  10.440   7.612  1.5576  1.3004 -0.7968
  409MOL0     H56386   9.266  10.275   7.578 -0.7468  1.3525 -0.5560
  409MOL0     H56387   9.502  10.234   7.502  0.8376  0.4236 -1.3900
  409MOL0     H56388   9.486  10.273   7.669  1.1371 -1.3905 -2.1395
  409MOL0     H56389   9.680  10.374   7.571 -1.7587 -1.8070  1.7057
  409MOL0     H56390   9.578  10.482   7.465  0.5343  3.2862  2.1903
  409MOL0     H56391   9.419  10.678   7.616  1.3964 -0.0635 -1.7651
  409MOL0     H56392   9.503  10.848   7.933  0.6846 -0.8278  0.2632
  409MOL0     H56393   9.428  10.892   7.777  0.0985 -1.2976 -1.7243
  409MOL0     H56394   9.729  10.924   7.857 -0.3688  0.1320  1.8831
  409MOL0     H56395   9.657  10.984   7.713  0.4892  0.7386  0.5549
  409MOL0     H56396   9.505  11.134   7.862 -1.1945 -1.1156  3.6639
  409MOL0     H56397   9.583  11.073   7.999 -0.6108  0.6104  0.5015
  409MOL0     H56398   9.697  11.254   7.782 -1.6157 -0.3163  0.1418
  409MOL0     H56399   9.668  11.288   7.949 -0.6405 -0.6155  1.0840
  409MOL0     H56400   9.997  11.020   7.826 -2.9214  0.5313  0.8123
  409MOL0     H56401  10.324  11.046   7.679 -1.4693  2.9576 -2.2478
  409MOL0     H56402  10.199  10.947   7.602 -1.9510 -1.5297  0.8796
  409MOL0     H56403  10.212  10.944   7.771  2.0425  0.6740  0.4293
  409MOL0     H56404  10.305  11.485   7.252  1.1957 -0.0926 -0.7592
  409MOL0     H56405  10.513  11.535   7.134  3.3264 -1.5116 -0.5901
  409MOL0     H56406  10.717  11.610   7.056 -0.5097  0.7463 -0.2058
  409MOL0     H56407  10.712  11.720   7.191 -1.2002  0.3625 -2.9024
  409MOL0     H56408  10.978  11.689   7.190 -0.0204 -3.1261  1.4302
  409MOL0     H56409  10.956  11.574   7.062 -1.2360  0.7814 -2.1311
  409MOL0     H56410  10.870  11.868   7.044  0.7159  1.2990 -1.7628
  409MOL0     H56411  10.833  11.749   6.922 -0.7541 -1.3032  1.5147
  409MOL0     H56412  11.080  11.729   6.870 -0.1255 -0.1246 -0.3257
  409MOL0     H56413  11.114  11.802   7.031  0.6065 -1.5305  0.5941
  409MOL0     H56414  10.956  11.937   6.798 -1.2254 -0.2163  0.5486
  409MOL0     H56415  11.019  12.015   6.948 -0.7413 -0.2783  1.8259
  409MOL0     H56416  11.179  11.881   6.717 -1.5289 -0.6766  0.9823
  409MOL0     H56417  11.264  11.949   6.856  0.0138  0.5379 -0.1650
  409MOL0     H56418  11.213  12.173   6.809 -0.5809 -0.2433  1.0119
  409MOL0     H56419  11.095  12.135   6.684  0.4625 -0.5003 -2.1532
  409MOL0     H56420  11.388  12.077   6.642 -0.0026  1.2762 -0.9638
  409MOL0     H56421  11.292  12.205   6.578 -0.5438  1.2248  1.7339
  409MOL0     H56422  10.724  11.490   7.503 -0.1747  1.5080  0.1382
  409MOL0     H56423  10.508  11.452   7.626  0.2572  1.1734 -0.4727
  409MOL0     H56424  10.049  11.449   7.629 -3.0113 -2.2114 -3.2562
  409MOL0     H56425   9.876  11.410   7.804 -2.1236 -1.4719 -1.0597
  409MOL0     H56426   8.608  10.151   7.483 -1.7227 -1.6454  0.9847
  409MOL0     H56427   8.405  10.035   7.462 -1.6388  0.6822  0.7371
  409MOL0     H56428   7.927  10.184   7.293  0.9928 -0.3827  0.0276
  409MOL0     H56429   7.701  10.146   7.249  0.9263  0.6870  1.7676
  409MOL0     H56430   7.456  10.113   7.300  0.8586 -0.3932  1.8362
  409MOL0     H56431   7.518   9.989   7.192 -0.5912  2.1767 -0.9457
  409MOL0     H56432   7.260   9.986   7.351 -1.8198 -0.8121 -0.7904
  409MOL0     H56433   7.329   9.839   7.277  4.9447 -0.2978 -0.0933
  409MOL0     H56434   7.292  10.072   7.096 -0.1495 -1.0337 -3.1849
  409MOL0     H56435   7.314   9.904   7.062 -2.1979 -0.4981 -0.7069
  409MOL0     H56436   7.087   9.865   7.183  1.5661 -1.7884 -2.8160
  409MOL0     H56437   7.074   9.943   7.038 -0.9082 -3.1801  1.2750
  409MOL0     H56438   6.975  10.243   7.346  3.7670  2.1569 -0.5729
  409MOL0     H56439   7.708   9.818   7.527 -0.7569  1.9583  1.7970
  409MOL0     H56440   8.064   9.763   7.519  2.9386  1.3427  3.7696
  409MOL0     H56441   8.014   9.863   7.649 -0.5383 -0.6182  0.8496
  409MOL0     H56442   7.902   9.732   7.599 -1.7357  0.8566  1.0217
  410MOL0     O56443   3.337   2.171   7.151  0.1359 -0.1380 -0.1636
  410MOL0     C56444   3.291   2.073   7.103  0.1090  0.4230  0.0414
  410MOL0     O56445   3.358   1.950   7.097  0.0079 -0.0583  0.1199
  410MOL0     C56446   3.494   1.922   7.131 -0.1426  0.5440  1.2259
  410MOL0     C56447   3.544   1.788   7.133 -1.2034 -0.1091 -0.3274
  410MOL0     C56448   3.676   1.754   7.169  0.5464  0.2729 -0.0191
  410MOL0     C56449   3.758   1.854   7.218 -0.2123 -0.2540 -0.0982
  410MOL0     O56450   3.878   1.810   7.272  1.1339 -0.1107  0.0300
  410MOL0     C56451   3.897   1.840   7.409 -1.0177  0.1577 -0.4775
  410MOL0     C56452   4.053   1.858   7.427  0.1321  0.0767 -0.6684
  410MOL0     C56453   4.072   1.889   7.576  0.0194  0.1583  0.1749
  410MOL0     C56454   4.220   1.916   7.604  0.0772 -0.1445  0.3174
  410MOL0     C56455   4.240   1.944   7.751  0.6172 -0.0217 -0.4970
  410MOL0     C56456   4.378   1.992   7.806 -0.5278 -0.1220 -0.1395
  410MOL0     C56457   4.381   1.990   7.954  0.4256 -0.2752  0.7455
  410MOL0     C56458   4.441   2.120   7.999 -0.5057  0.4989  0.5724
  410MOL0     N56459   4.452   2.130   8.143 -0.0001  0.1209 -0.3029
  410MOL0     C56460   4.356   2.183   8.222  0.3042  0.5674  0.3076
  410MOL0     C56461   4.424   2.225   8.333 -0.2199 -0.7929  0.3331
  410MOL0     C56462   4.352   2.289   8.455 -0.2671 -0.3546 -0.1359
  410MOL0     C56463   4.280   2.419   8.404 -0.7246 -0.2769  0.4201
  410MOL0     C56464   4.376   2.519   8.332  0.1590  0.3342 -0.7428
  410MOL0     C56465   4.326   2.662   8.308  0.7651 -0.9212  0.3298
  410MOL0     O56466   4.433   2.760   8.290 -0.6426  0.4197 -0.0500
  410MOL0     C56467   4.473   2.796   8.167  0.8966  0.8291 -0.5749
  410MOL0     C56468   4.579   2.888   8.153  0.1117  0.1916 -0.5864
  410MOL0     C56469   4.628   2.916   8.028  0.1411 -1.1560  0.7835
  410MOL0     C56470   4.744   3.017   8.032 -1.1112 -0.2697  0.3750
  410MOL0     C56471   4.572   2.858   7.911  0.0739 -1.0555  0.5133
  410MOL0     C56472   4.632   2.867   7.781 -0.2218 -0.0503 -0.0451
  410MOL0     O56473   4.613   2.751   7.710 -0.5650  0.6177  0.0495
  410MOL0     C56474   4.648   2.755   7.577  0.2528 -0.4828 -0.0016
  410MOL0     C56475   4.546   2.820   7.503 -0.7524  0.9933 -0.4820
  410MOL0     C56476   4.556   2.831   7.363 -0.7087 -1.5235 -0.1958
  410MOL0     C56477   4.669   2.768   7.293  0.1174 -0.1667 -0.1333
  410MOL0     O56478   4.683   2.775   7.157  0.0998 -0.6755 -0.1958
  410MOL0     C56479   4.581   2.835   7.074  0.6442 -0.0485 -0.2524
  410MOL0     C56480   4.612   2.828   6.925  0.3641  0.8925 -0.2125
  410MOL0     C56481   4.481   2.860   6.855 -0.1573 -0.0003 -0.6228
  410MOL0     C56482   4.504   2.889   6.703  0.7368 -1.0097  0.4485
  410MOL0     C56483   4.373   2.935   6.631 -0.3834  0.1510 -0.0373
  410MOL0     C56484   4.393   2.999   6.492 -0.0418  1.3523  0.0924
  410MOL0     C56485   4.270   3.069   6.442 -0.0523 -0.3972 -0.1556
  410MOL0     C56486   4.261   3.211   6.483  0.0514 -0.2345 -0.4783
  410MOL0    Cl56487   4.302   3.251   6.657 -0.6873  0.1950  0.1130
  410MOL0     C56488   4.760   2.705   7.370  0.3172 -0.3687  0.5949
  410MOL0     C56489   4.753   2.697   7.511  0.4661  0.4294 -0.2128
  410MOL0     O56490   4.687   2.979   7.741 -0.1526 -0.0412  0.2846
  410MOL0     C56491   4.456   2.785   7.927  0.4609  0.6144  0.4933
  410MOL0     C56492   4.403   2.755   8.051 -1.0422  0.6470 -0.1564
  410MOL0     N56493   4.555   2.188   8.322  0.8681  0.0179 -0.4657
  410MOL0     N56494   4.578   2.141   8.206 -0.1984 -0.3528 -0.0364
  410MOL0     C56495   3.717   1.989   7.218  0.3724  0.1780 -0.3828
  410MOL0     C56496   3.589   2.017   7.169  0.7721 -0.0706  0.5305
  410MOL0     C56497   3.152   2.079   7.055 -0.1134  0.6704  0.7679
  410MOL0     C56498   3.110   1.975   6.966 -0.2556  0.4049  0.2201
  410MOL0     C56499   2.976   1.957   6.926 -0.1348 -1.0413 -0.7731
  410MOL0     C56500   2.876   2.043   6.971  0.0995 -0.2350  0.0139
  410MOL0     O56501   2.751   2.017   6.924 -0.1781  0.4846 -0.0287
  410MOL0     C56502   2.656   2.014   7.029 -0.0987 -0.0190 -0.4291
  410MOL0     C56503   2.516   1.977   6.982 -0.7943 -0.6286  0.2453
  410MOL0     C56504   2.454   2.094   6.898  1.1065  0.2247 -0.0175
  410MOL0     C56505   2.319   2.062   6.846  0.2565  0.3285 -0.1381
  410MOL0     C56506   2.311   1.948   6.756  0.6777 -0.0351 -0.5310
  410MOL0     C56507   2.288   1.853   6.691  0.4992  0.4603 -0.4751
  410MOL0     C56508   2.912   2.146   7.060 -0.3706 -0.1853  0.3622
  410MOL0     C56509   3.052   2.162   7.105  0.1529  0.3524 -0.0482
  410MOL0     C56510   3.071   2.264   7.214  0.9095  0.3907  0.3066
  410MOL0     H56511   3.468   1.717   7.101 -0.5146 -0.5813 -0.9693
  410MOL0     H56512   3.699   1.648   7.175 -0.1265  0.0591 -1.0207
  410MOL0     H56513   3.870   1.756   7.474  1.8291 -0.3664  0.1610
  410MOL0     H56514   3.842   1.931   7.436 -2.6048 -1.2700  1.3538
  410MOL0     H56515   4.097   1.761   7.400 -0.5625 -0.1866 -0.8814
  410MOL0     H56516   4.099   1.946   7.380  1.4487  0.3675  1.0557
  410MOL0     H56517   4.010   1.976   7.602 -0.7008  0.2866 -1.8012
  410MOL0     H56518   4.025   1.809   7.634  0.1765 -0.2317 -0.2317
  410MOL0     H56519   4.279   1.832   7.565  2.4852  1.4836  0.1794
  410MOL0     H56520   4.261   2.003   7.552 -0.8915  1.2043  1.7436
  410MOL0     H56521   4.219   1.847   7.799 -1.5483  0.4290 -0.4613
  410MOL0     H56522   4.168   2.013   7.794  0.7292  0.4715 -1.0853
  410MOL0     H56523   4.458   1.929   7.766  0.8372  1.8164 -0.5983
  410MOL0     H56524   4.399   2.090   7.761  1.5727 -0.0462  0.9191
  410MOL0     H56525   4.439   1.903   7.986  3.0222  0.5003 -1.5225
  410MOL0     H56526   4.279   1.988   7.994  1.3254  2.9316  3.8045
  410MOL0     H56527   4.535   2.147   7.950 -0.8121  0.1928 -0.2045
  410MOL0     H56528   4.365   2.194   7.971 -2.4817 -2.0605 -1.2642
  410MOL0     H56529   4.249   2.197   8.217  0.3695  0.4522 -2.3413
  410MOL0     H56530   4.429   2.320   8.526 -1.4038 -0.5973  1.2723
  410MOL0     H56531   4.276   2.218   8.490 -0.8494 -0.8479 -2.2549
  410MOL0     H56532   4.200   2.384   8.338 -1.7358 -0.7760  1.8681
  410MOL0     H56533   4.236   2.468   8.492 -0.4414 -0.0067  0.4098
  410MOL0     H56534   4.471   2.520   8.386 -1.3665  0.8408  2.0935
  410MOL0     H56535   4.398   2.492   8.228  1.3400  1.0601 -0.6939
  410MOL0     H56536   4.237   2.659   8.245  1.3521  0.5469 -0.6379
  410MOL0     H56537   4.277   2.690   8.402  2.9347  0.7865  1.0337
  410MOL0     H56538   4.630   2.912   8.246  1.9537 -0.3415 -1.4024
  410MOL0     H56539   4.835   2.958   8.020 -1.0801  0.1630 -2.1510
  410MOL0     H56540   4.760   3.075   8.123  0.2125 -2.7491  1.8270
  410MOL0     H56541   4.741   3.093   7.953  2.1480 -1.5172 -1.1229
  410MOL0     H56542   4.462   2.876   7.544 -0.8942 -0.6845  1.6894
  410MOL0     H56543   4.481   2.886   7.307 -1.1568 -1.9341 -0.0095
  410MOL0     H56544   4.493   2.774   7.100  0.7608 -1.0431 -2.0452
  410MOL0     H56545   4.553   2.938   7.097 -0.4576 -0.7738  2.0040
  410MOL0     H56546   4.695   2.895   6.901  0.2910  1.2640  0.5463
  410MOL0     H56547   4.635   2.724   6.900 -1.5223 -0.2053  2.2280
  410MOL0     H56548   4.439   2.948   6.904 -0.5905 -0.3770 -0.3152
  410MOL0     H56549   4.408   2.779   6.858 -1.5166  1.1001 -2.4102
  410MOL0     H56550   4.550   2.814   6.638 -0.2319 -0.9227 -0.3625
  410MOL0     H56551   4.564   2.981   6.706 -2.2239  1.1357 -0.7392
  410MOL0     H56552   4.300   2.853   6.634 -0.6613  0.3738 -0.5439
  410MOL0     H56553   4.336   3.012   6.700  1.8274 -0.5568  2.0860
  410MOL0     H56554   4.429   2.926   6.420 -0.3273  1.7509 -0.4622
  410MOL0     H56555   4.473   3.073   6.504 -1.0468  2.4799  0.0232
  410MOL0     H56556   4.185   3.022   6.494 -0.2001 -0.5305 -0.5167
  410MOL0     H56557   4.266   3.065   6.333 -0.8708 -1.4532 -0.1004
  410MOL0     H56558   4.158   3.247   6.476 -1.0787 -1.8280  4.3189
  410MOL0     H56559   4.315   3.277   6.415 -0.5058  0.6629 -0.0713
  410MOL0     H56560   4.843   2.653   7.324 -0.0164  0.2190 -0.7004
  410MOL0     H56561   4.824   2.644   7.572 -1.2242  0.7874  2.2008
  410MOL0     H56562   4.401   2.752   7.839  1.2772  1.2683 -0.2813
  410MOL0     H56563   4.320   2.685   8.050  0.0464 -0.6737 -0.2189
  410MOL0     H56564   3.784   2.066   7.255 -2.0658  2.4319 -0.2978
  410MOL0     H56565   3.554   2.120   7.173 -0.4531 -0.3967 -0.8456
  410MOL0     H56566   3.186   1.908   6.929 -0.6194  1.3176 -2.4643
  410MOL0     H56567   2.945   1.878   6.858 -1.0512 -1.2762 -0.0873
  410MOL0     H56568   2.690   1.940   7.101  1.4024  1.2058  0.1647
  410MOL0     H56569   2.652   2.112   7.077  1.1549 -0.4521  0.6148
  410MOL0     H56570   2.453   1.975   7.071 -2.8687 -1.7923 -1.1743
  410MOL0     H56571   2.503   1.881   6.932 -2.6758 -1.1719  1.6828
  410MOL0     H56572   2.450   2.183   6.961  0.8822  0.7276 -0.7325
  410MOL0     H56573   2.523   2.117   6.816  2.5977  0.5106  1.2572
  410MOL0     H56574   2.290   2.155   6.797 -1.8618  0.2660  0.8675
  410MOL0     H56575   2.254   2.043   6.932  1.7596 -1.3796  0.7107
  410MOL0     H56576   2.265   1.764   6.636  0.3665  2.0079 -3.1113
  410MOL0     H56577   2.833   2.205   7.104 -2.0165 -0.5991 -1.8587
  410MOL0     H56578   2.980   2.324   7.209  0.5309 -0.2134 -0.2982
  410MOL0     H56579   3.090   2.211   7.308  0.8718  1.6915  1.0700
  410MOL0     H56580   3.159   2.324   7.187  0.6894  0.9971  0.9165
  411MOL0     O56581   8.144   7.902   2.914 -0.6224  0.1770  0.4246
  411MOL0     C56582   8.070   7.977   2.977  0.7024 -1.0543  0.1395
  411MOL0     O56583   8.110   8.064   3.079  0.4309 -0.5640 -0.2051
  411MOL0     C56584   8.227   8.042   3.143  0.8146  0.3861  1.3178
  411MOL0     C56585   8.233   8.000   3.275  0.1252  0.8345 -0.2209
  411MOL0     C56586   8.358   7.981   3.333 -0.1716 -0.6016  0.1671
  411MOL0     C56587   8.481   7.999   3.256  0.2354 -0.4193 -1.0198
  411MOL0     O56588   8.612   7.999   3.301  0.7105 -0.3577  0.2577
  411MOL0     C56589   8.632   7.957   3.436 -0.3589 -0.0554 -0.3703
  411MOL0     C56590   8.782   7.962   3.483 -0.3961 -0.3271 -0.7993
  411MOL0     C56591   8.862   7.850   3.420  0.7776 -0.2966  0.3853
  411MOL0     C56592   8.982   7.820   3.518 -0.0226  0.4924  0.6153
  411MOL0     C56593   9.075   7.728   3.434  0.0573 -0.0125  0.0726
  411MOL0     C56594   9.035   7.580   3.441 -0.4145 -0.0085 -0.0216
  411MOL0     C56595   9.118   7.485   3.365 -0.1653 -0.9507  0.5475
  411MOL0     C56596   9.106   7.497   3.213  0.2408 -1.0807 -0.0007
  411MOL0     N56597   9.203   7.410   3.157 -0.1931  0.0376 -0.0251
  411MOL0     C56598   9.203   7.281   3.155 -0.2879  1.3029 -0.6061
  411MOL0     C56599   9.316   7.235   3.089 -0.5476 -0.5777 -0.0221
  411MOL0     C56600   9.370   7.105   3.070 -0.5116  0.7557 -0.8108
  411MOL0     C56601   9.362   7.015   3.194  0.1700  0.7910 -0.0086
  411MOL0     C56602   9.456   7.070   3.298 -0.0592  0.0715  0.1625
  411MOL0     C56603   9.596   7.080   3.248 -0.5897  0.1652 -0.0081
  411MOL0     O56604   9.636   6.951   3.200 -0.5261 -0.0839  0.1855
  411MOL0     C56605   9.743   6.951   3.113  0.1524  0.1590  0.7293
  411MOL0     C56606   9.716   6.887   2.991  0.6503 -0.6627 -0.8879
  411MOL0     C56607   9.818   6.867   2.901 -0.8161 -0.1089 -0.1552
  411MOL0     C56608   9.780   6.803   2.771  0.5832  0.4195  0.1226
  411MOL0     C56609   9.955   6.889   2.946  0.3312 -0.1173 -0.1248
  411MOL0     C56610  10.075   6.861   2.853 -1.1305 -0.1286  0.3120
  411MOL0     O56611  10.197   6.878   2.908 -0.6243 -0.1996 -0.5843
  411MOL0     C56612  10.305   6.849   2.833  0.1295 -0.1263 -0.0638
  411MOL0     C56613  10.366   6.722   2.826  0.1037 -0.4754 -0.4582
  411MOL0     C56614  10.484   6.694   2.755  0.6164 -0.3171  0.4080
  411MOL0     C56615  10.541   6.811   2.688 -0.4882 -0.1503 -0.0669
  411MOL0     O56616  10.646   6.805   2.605  0.4483 -0.5661  0.2034
  411MOL0     C56617  10.696   6.678   2.560  0.2983  0.0448 -0.7397
  411MOL0     C56618  10.802   6.669   2.457 -0.0790  0.1095 -0.0752
  411MOL0     C56619  10.853   6.526   2.441 -0.0994  0.4793 -0.1160
  411MOL0     C56620  10.995   6.538   2.383  0.4815  0.2742 -0.0978
  411MOL0     C56621  11.082   6.418   2.426  0.0000 -0.0399  0.1904
  411MOL0     C56622  11.025   6.280   2.395  0.1791 -0.9408  0.6458
  411MOL0     C56623  11.118   6.167   2.436  0.4855 -0.2949 -0.3734
  411MOL0     C56624  11.049   6.026   2.444 -0.0857  0.3533  0.1906
  411MOL0    Cl56625  11.159   5.895   2.452 -0.3318 -0.1374 -0.1143
  411MOL0     C56626  10.486   6.945   2.703  0.3600 -0.0651  0.3219
  411MOL0     C56627  10.366   6.968   2.776 -0.0046 -0.2881  0.4850
  411MOL0     O56628  10.059   6.816   2.739 -0.1310 -1.5020  0.0309
  411MOL0     C56629   9.980   6.943   3.074 -0.1773  0.7789 -0.4997
  411MOL0     C56630   9.870   6.978   3.161  0.0973 -0.3563  0.1281
  411MOL0     N56631   9.384   7.350   3.057  0.2876  0.2672  0.1440
  411MOL0     N56632   9.314   7.458   3.091  0.5809  0.1455  0.0775
  411MOL0     C56633   8.464   8.037   3.123 -0.1543 -0.3053  0.8177
  411MOL0     C56634   8.339   8.056   3.065  0.1676 -0.7058 -0.4710
  411MOL0     C56635   7.922   7.985   2.951 -0.4652  0.4358  0.1884
  411MOL0     C56636   7.848   8.079   3.024 -0.2652  0.9353 -0.5768
  411MOL0     C56637   7.708   8.082   3.007 -0.4987 -0.1921  0.2774
  411MOL0     C56638   7.637   7.991   2.928 -1.0364  0.1932 -0.2604
  411MOL0     O56639   7.504   7.996   2.947  0.2323 -0.2889  0.1637
  411MOL0     C56640   7.425   7.901   2.875  0.3198  0.3336  0.2651
  411MOL0     C56641   7.286   7.959   2.857  0.2164  1.0908  0.2162
  411MOL0     C56642   7.197   7.853   2.779  0.9359 -0.4859 -0.6327
  411MOL0     C56643   7.135   7.745   2.876 -0.6117 -0.8033  0.4419
  411MOL0     C56644   7.219   7.641   2.929  0.0254  0.2928  0.1091
  411MOL0     C56645   7.292   7.555   2.975 -0.2155  0.2507  0.2614
  411MOL0     C56646   7.707   7.903   2.846 -0.5668  0.2754  0.8056
  411MOL0     C56647   7.855   7.904   2.852  0.1113  0.1883  0.2764
  411MOL0     C56648   7.924   7.812   2.759 -0.0631 -0.7137  0.3838
  411MOL0     H56649   8.140   8.003   3.332  1.4510  0.8907  2.0428
  411MOL0     H56650   8.364   7.955   3.438  3.9931  1.2282  0.5713
  411MOL0     H56651   8.590   7.857   3.448 -3.8280  1.1762 -0.8390
  411MOL0     H56652   8.566   8.014   3.502  0.9576  0.6660  0.3617
  411MOL0     H56653   8.825   8.063   3.482  0.6612 -0.7118 -3.2496
  411MOL0     H56654   8.770   7.948   3.590 -0.6857  0.0968 -0.7711
  411MOL0     H56655   8.803   7.758   3.412  1.5888 -1.0738  2.5234
  411MOL0     H56656   8.882   7.885   3.318 -2.2606 -1.1782 -0.6466
  411MOL0     H56657   9.028   7.912   3.555 -0.3739  0.1844  1.8747
  411MOL0     H56658   8.955   7.770   3.612 -4.0902  0.8668 -0.2116
  411MOL0     H56659   9.178   7.745   3.467  0.3777  3.0989 -2.0941
  411MOL0     H56660   9.075   7.761   3.330  0.9149 -0.1715  0.0162
  411MOL0     H56661   9.061   7.548   3.543  1.0980 -0.9313 -0.6546
  411MOL0     H56662   8.926   7.571   3.443 -0.2537 -5.2387 -1.1152
  411MOL0     H56663   9.093   7.380   3.381 -0.1100 -0.9254  0.8085
  411MOL0     H56664   9.223   7.500   3.393  0.1577 -0.0277 -1.0706
  411MOL0     H56665   9.004   7.472   3.180 -0.8157  0.5532  1.7947
  411MOL0     H56666   9.124   7.600   3.180  2.1632 -0.7023  1.9795
  411MOL0     H56667   9.139   7.221   3.219  2.7314 -0.6155  0.8475
  411MOL0     H56668   9.471   7.109   3.029 -1.5834  2.0721 -3.5208
  411MOL0     H56669   9.310   7.052   2.995 -0.9528  2.6403 -1.8567
  411MOL0     H56670   9.258   7.023   3.226  0.2736  1.2143  0.2241
  411MOL0     H56671   9.387   6.911   3.170  1.9857  1.1060  0.3618
  411MOL0     H56672   9.424   7.174   3.313 -1.3570 -0.3072  0.1048
  411MOL0     H56673   9.461   7.016   3.393  0.9640 -1.4597 -0.7245
  411MOL0     H56674   9.610   7.155   3.169 -0.3892  0.0964 -0.0386
  411MOL0     H56675   9.654   7.101   3.339 -1.8114 -1.1822  1.1161
  411MOL0     H56676   9.613   6.867   2.963  1.0549 -0.8133 -2.3481
  411MOL0     H56677   9.672   6.801   2.754  0.6533  0.4343 -0.3330
  411MOL0     H56678   9.815   6.700   2.771 -1.7052 -0.4193 -0.6977
  411MOL0     H56679   9.832   6.844   2.685  0.5578  2.6072  1.0743
  411MOL0     H56680  10.324   6.638   2.881  0.5076 -0.1286  0.4129
  411MOL0     H56681  10.516   6.590   2.753  2.3348  0.0745  2.9116
  411MOL0     H56682  10.728   6.619   2.647 -4.0656 -0.2638  0.8973
  411MOL0     H56683  10.611   6.628   2.513  1.4772 -1.2651 -1.5585
  411MOL0     H56684  10.765   6.700   2.359  1.0502 -0.1889 -0.6164
  411MOL0     H56685  10.882   6.739   2.483 -1.7726  1.9694  0.3124
  411MOL0     H56686  10.786   6.466   2.379 -0.7662 -1.6173  2.4364
  411MOL0     H56687  10.844   6.471   2.535  1.0051  1.1112  0.3716
  411MOL0     H56688  11.050   6.626   2.418  0.5448  0.0986  0.2550
  411MOL0     H56689  10.978   6.540   2.275  1.9679 -1.7285 -0.4228
  411MOL0     H56690  11.185   6.433   2.392  0.2992  0.5904  1.3448
  411MOL0     H56691  11.092   6.429   2.535 -0.9014  0.0638  0.2673
  411MOL0     H56692  11.005   6.270   2.288  3.3047 -0.7405 -0.0610
  411MOL0     H56693  10.931   6.276   2.450 -0.2357  2.1120  0.2962
  411MOL0     H56694  11.157   6.200   2.533 -4.4100 -0.1254  1.8883
  411MOL0     H56695  11.195   6.167   2.359  0.2758  3.4037 -0.7821
  411MOL0     H56696  10.995   5.996   2.353 -1.1203 -1.0853  1.2190
  411MOL0     H56697  10.983   6.023   2.531  0.7402  0.4279  0.8279
  411MOL0     H56698  10.534   7.031   2.659  2.9435  0.8633  4.4195
  411MOL0     H56699  10.317   7.065   2.774 -2.5943 -1.4411 -2.7842
  411MOL0     H56700  10.081   6.970   3.106  0.2932 -1.1217 -0.2942
  411MOL0     H56701   9.888   7.031   3.255 -2.2503 -0.6104  0.7711
  411MOL0     H56702   8.553   8.060   3.065  0.9274 -1.3491  2.0222
  411MOL0     H56703   8.342   8.096   2.965  1.1123 -1.2497 -0.6766
  411MOL0     H56704   7.887   8.142   3.103  0.8866  0.4026 -0.7015
  411MOL0     H56705   7.639   8.152   3.053 -0.8629 -1.2050  1.3390
  411MOL0     H56706   7.459   7.872   2.775  1.1739  2.5892 -0.1605
  411MOL0     H56707   7.417   7.805   2.927  1.8985 -0.1504 -0.3154
  411MOL0     H56708   7.298   8.051   2.799  3.4733  1.0486  0.6034
  411MOL0     H56709   7.245   7.992   2.953 -1.4767  0.7489 -0.3549
  411MOL0     H56710   7.116   7.908   2.731  1.5581  1.7999  0.7986
  411MOL0     H56711   7.252   7.804   2.698 -1.9312 -1.8613 -1.8883
  411MOL0     H56712   7.056   7.691   2.822  0.0198 -0.8243 -0.4832
  411MOL0     H56713   7.083   7.805   2.951 -1.2207 -0.5175 -0.2023
  411MOL0     H56714   7.349   7.478   3.024 -0.8467  0.4656  1.3741
  411MOL0     H56715   7.649   7.840   2.779 -0.7032  1.9382 -0.7305
  411MOL0     H56716   8.004   7.866   2.708 -0.1853 -2.2630 -1.5926
  411MOL0     H56717   7.964   7.723   2.809  0.3682 -0.8519 -0.1946
  411MOL0     H56718   7.857   7.787   2.676  0.0447 -1.1876  0.4335
  412MOL0     O56719   8.825   1.362   7.881  0.3039  0.6229  0.0481
  412MOL0     C56720   8.846   1.488   7.897 -0.4004 -0.0149  0.4214
  412MOL0     O56721   8.955   1.558   7.852  0.4224  0.3036 -0.3243
  412MOL0     C56722   9.068   1.499   7.808  0.1702  0.2411  0.3889
  412MOL0     C56723   9.137   1.405   7.877  0.6196 -0.2428 -0.5185
  412MOL0     C56724   9.261   1.344   7.843  0.0129 -0.2055 -1.3392
  412MOL0     C56725   9.324   1.388   7.735  0.2914  0.0472  0.1335
  412MOL0     O56726   9.450   1.335   7.707  0.0024  0.6759  0.5428
  412MOL0     C56727   9.546   1.419   7.646 -0.7423  0.2328 -0.1303
  412MOL0     C56728   9.683   1.358   7.676 -0.0739  0.2426 -0.0660
  412MOL0     C56729   9.696   1.210   7.659  0.1000  0.1872 -0.0473
  412MOL0     C56730   9.841   1.166   7.676  0.0965  0.4345  0.4050
  412MOL0     C56731   9.866   1.025   7.619  0.4917  0.2832 -0.6559
  412MOL0     C56732  10.014   1.007   7.587  0.3097 -0.0839  0.1337
  412MOL0     C56733  10.027   0.877   7.494 -0.0908 -0.3833 -0.3780
  412MOL0     C56734  10.162   0.863   7.415 -0.3938 -0.1751 -0.1075
  412MOL0     N56735  10.204   0.980   7.335  1.1440 -0.4161 -0.3103
  412MOL0     C56736  10.152   1.006   7.210  0.0102  0.2289  0.2764
  412MOL0     C56737  10.213   1.110   7.171  0.0852 -0.4929 -0.1141
  412MOL0     C56738  10.182   1.200   7.062 -1.1723  0.2742  0.1234
  412MOL0     C56739  10.302   1.217   6.972 -0.0789 -0.3787  0.1610
  412MOL0     C56740  10.257   1.244   6.821 -0.2618 -0.1718 -0.2084
  412MOL0     C56741  10.363   1.204   6.725  0.5555 -0.8688  0.0165
  412MOL0     O56742  10.463   1.304   6.721  0.6634 -0.1815 -0.1274
  412MOL0     C56743  10.578   1.271   6.652 -0.2013 -0.4227  0.3962
  412MOL0     C56744  10.601   1.181   6.551  0.5857  0.3517  0.6856
  412MOL0     C56745  10.725   1.171   6.487 -0.7403 -0.5281 -0.0618
  412MOL0     C56746  10.729   1.064   6.375  0.0085  0.3984 -0.2828
  412MOL0     C56747  10.827   1.258   6.516 -0.1450  0.9865  0.1615
  412MOL0     C56748  10.965   1.255   6.445 -0.5928 -0.1841 -0.3458
  412MOL0     O56749  11.030   1.375   6.439 -0.2478 -0.4411  0.4635
  412MOL0     C56750  11.153   1.388   6.375 -0.5544  0.3066 -1.1775
  412MOL0     C56751  11.268   1.324   6.436 -0.5680 -0.0968  0.2354
  412MOL0     C56752  11.393   1.338   6.376  0.2898 -0.2932  0.3989
  412MOL0     C56753  11.406   1.422   6.265  0.3571  0.7414  0.7538
  412MOL0     O56754  11.523   1.429   6.201  0.1531  0.0306 -0.5254
  412MOL0     C56755  11.633   1.496   6.270  0.9462 -0.6598 -0.6505
  412MOL0     C56756  11.747   1.517   6.172  0.4472 -0.9486 -0.0773
  412MOL0     C56757  11.859   1.580   6.242 -0.4652  1.1974  0.3353
  412MOL0     C56758  11.968   1.613   6.141  0.4986 -0.4004 -0.4196
  412MOL0     C56759  12.095   1.680   6.194  0.2161 -0.5315  0.2643
  412MOL0     C56760  12.201   1.684   6.085 -0.0190  0.1230 -0.0254
  412MOL0     C56761  12.342   1.746   6.132  0.8116 -0.4659 -0.0503
  412MOL0     C56762  12.439   1.787   6.011 -0.5800 -0.0217  0.4855
  412MOL0    Cl56763  12.595   1.849   6.064 -0.1914 -0.3103 -0.0799
  412MOL0     C56764  11.304   1.493   6.212  0.7478 -1.0764 -0.1462
  412MOL0     C56765  11.177   1.478   6.275  0.1453  0.3370  0.0658
  412MOL0     O56766  10.996   1.152   6.388 -0.0169  0.4255 -0.5869
  412MOL0     C56767  10.807   1.355   6.617 -0.6374  0.3026  0.4545
  412MOL0     C56768  10.682   1.356   6.678 -0.1585 -0.6233 -0.5009
  412MOL0     N56769  10.316   1.140   7.259  0.4648 -0.4012 -0.1373
  412MOL0     N56770  10.316   1.060   7.358  0.5919 -0.3001  0.4932
  412MOL0     C56771   9.254   1.483   7.652 -0.4723  0.5828  0.1055
  412MOL0     C56772   9.131   1.540   7.692  0.4157 -0.2836  0.0990
  412MOL0     C56773   8.738   1.568   7.968  0.1211 -0.7561 -0.0913
  412MOL0     C56774   8.608   1.527   7.960  0.6092  0.8371 -0.3902
  412MOL0     C56775   8.513   1.587   8.038  0.3728  0.9788 -0.2633
  412MOL0     C56776   8.527   1.703   8.111 -0.4797 -0.5539  0.0503
  412MOL0     O56777   8.414   1.758   8.166 -0.3544  0.1209 -0.0844
  412MOL0     C56778   8.425   1.901   8.191 -0.3994  0.5852 -0.0378
  412MOL0     C56779   8.304   1.981   8.144  0.1197  0.5254 -0.1187
  412MOL0     C56780   8.168   1.937   8.210  0.2825 -0.3684 -0.3916
  412MOL0     C56781   8.181   1.922   8.356 -0.3606 -0.3568  0.2572
  412MOL0     C56782   8.052   1.896   8.424  0.6260  0.1774  0.4933
  412MOL0     C56783   7.950   1.891   8.497  0.3766  0.2430  0.1554
  412MOL0     C56784   8.663   1.745   8.119  0.2149  0.4378  1.0144
  412MOL0     C56785   8.770   1.676   8.060  0.1854 -0.5449  0.2105
  412MOL0     C56786   8.906   1.725   8.082 -0.2665  1.1430 -0.4594
  412MOL0     H56787   9.093   1.369   7.970  1.8942  0.1514  0.2646
  412MOL0     H56788   9.308   1.263   7.898 -0.5767  0.1696 -0.2414
  412MOL0     H56789   9.542   1.516   7.696  1.8556 -0.0225  0.7036
  412MOL0     H56790   9.533   1.427   7.538  0.1113 -0.2662 -0.2822
  412MOL0     H56791   9.757   1.398   7.606 -1.2313  0.2833 -1.3061
  412MOL0     H56792   9.716   1.392   7.774 -0.5748 -0.6141  0.4087
  412MOL0     H56793   9.628   1.151   7.722  0.0711 -0.2494 -0.4853
  412MOL0     H56794   9.662   1.185   7.558  1.7006  0.5687 -0.7125
  412MOL0     H56795   9.906   1.229   7.615 -1.2752  2.3918  0.9029
  412MOL0     H56796   9.865   1.172   7.783 -0.7208 -1.1967  0.7125
  412MOL0     H56797   9.808   1.019   7.527 -0.3800 -0.7076 -0.0579
  412MOL0     H56798   9.827   0.944   7.682  0.5645  2.1044  1.9013
  412MOL0     H56799  10.064   1.086   7.529  0.4157  1.7947  2.6456
  412MOL0     H56800  10.063   0.997   7.684  0.4773 -0.8996 -0.0231
  412MOL0     H56801   9.946   0.873   7.421  0.1016 -0.6922 -0.5768
  412MOL0     H56802  10.000   0.791   7.557 -1.5493  0.7579  0.6124
  412MOL0     H56803  10.244   0.838   7.484  1.2933 -2.0800 -2.6356
  412MOL0     H56804  10.161   0.772   7.355 -0.1168 -0.7083  0.6796
  412MOL0     H56805  10.063   0.959   7.168  0.5238  1.0668 -1.8967
  412MOL0     H56806  10.134   1.292   7.095 -1.4910 -0.2795  1.2535
  412MOL0     H56807  10.107   1.155   6.996  2.2412 -1.6396 -2.8762
  412MOL0     H56808  10.361   1.298   7.015 -2.5135  1.1351  0.8647
  412MOL0     H56809  10.371   1.133   6.968 -1.4859 -1.7113  2.2894
  412MOL0     H56810  10.168   1.188   6.794 -2.4810  4.1513 -2.9239
  412MOL0     H56811  10.240   1.351   6.805 -2.9056 -0.6093 -0.6591
  412MOL0     H56812  10.398   1.102   6.745  2.2678 -0.8424 -2.3270
  412MOL0     H56813  10.303   1.203   6.633 -0.1507  0.2718  0.4582
  412MOL0     H56814  10.515   1.121   6.524 -0.2653  2.2279 -1.0874
  412MOL0     H56815  10.775   1.106   6.285  0.2755 -1.1202 -0.8934
  412MOL0     H56816  10.630   1.029   6.347  0.1131 -0.1751  0.0426
  412MOL0     H56817  10.789   0.979   6.410  1.7385  2.5765  2.5127
  412MOL0     H56818  11.258   1.253   6.517  1.9145  0.0378  0.7185
  412MOL0     H56819  11.475   1.278   6.415 -1.1967 -2.8087 -0.1523
  412MOL0     H56820  11.611   1.599   6.302 -1.4014 -1.6054  1.0815
  412MOL0     H56821  11.653   1.441   6.363  0.4006 -1.5168 -1.0343
  412MOL0     H56822  11.769   1.421   6.123  0.6565 -0.1470 -1.6082
  412MOL0     H56823  11.711   1.589   6.098 -1.0826 -1.5746  0.0135
  412MOL0     H56824  11.901   1.531   6.331 -1.7072  2.6989  1.8209
  412MOL0     H56825  11.821   1.675   6.280 -1.1461  2.5196 -3.2421
  412MOL0     H56826  11.929   1.672   6.057 -0.7300  0.5675  0.7876
  412MOL0     H56827  11.998   1.513   6.109 -1.7402 -1.6655  1.1223
  412MOL0     H56828  12.071   1.786   6.205 -1.3035 -0.9523  1.3375
  412MOL0     H56829  12.132   1.639   6.289 -0.5688  1.4000  1.4721
  412MOL0     H56830  12.165   1.746   6.003  1.4124  0.0920 -0.7009
  412MOL0     H56831  12.214   1.581   6.049 -0.4898  0.7822 -2.2541
  412MOL0     H56832  12.391   1.680   6.205  2.2148 -1.2699 -1.6471
  412MOL0     H56833  12.326   1.843   6.180  0.2208  0.3957 -1.9081
  412MOL0     H56834  12.407   1.876   5.957 -1.3022 -2.1810 -2.9771
  412MOL0     H56835  12.445   1.696   5.949 -0.4067 -0.4583  1.1298
  412MOL0     H56836  11.305   1.561   6.127 -0.4337 -0.1514  0.5416
  412MOL0     H56837  11.091   1.528   6.231 -0.2199 -0.8810 -0.6701
  412MOL0     H56838  10.883   1.426   6.646 -1.1376  0.8592  0.4358
  412MOL0     H56839  10.672   1.429   6.757 -1.6131 -0.7808 -0.5127
  412MOL0     H56840   9.304   1.527   7.567 -0.2766  0.1229 -0.0223
  412MOL0     H56841   9.068   1.618   7.650  1.2705  2.0374  2.7581
  412MOL0     H56842   8.569   1.448   7.896 -4.5691  0.8347  2.2546
  412MOL0     H56843   8.416   1.539   8.045  0.4190  0.3645 -2.8646
  412MOL0     H56844   8.444   1.924   8.296  1.6378  0.7185 -0.4030
  412MOL0     H56845   8.513   1.950   8.149 -0.4647  1.9867  1.3615
  412MOL0     H56846   8.285   1.962   8.038 -0.0791 -2.4218  0.3623
  412MOL0     H56847   8.315   2.089   8.158 -1.3439  0.8770 -1.3293
  412MOL0     H56848   8.105   2.026   8.201  0.4469 -0.2266 -0.1771
  412MOL0     H56849   8.114   1.853   8.168 -0.4511 -0.0028 -0.1961
  412MOL0     H56850   8.230   2.011   8.396  0.3645 -0.8482  0.4805
  412MOL0     H56851   8.248   1.845   8.397 -0.9005 -2.1714 -1.9998
  412MOL0     H56852   7.860   1.864   8.548  1.0306 -2.0409  0.2296
  412MOL0     H56853   8.684   1.832   8.180 -0.1871  0.5036  1.0641
  412MOL0     H56854   8.911   1.796   8.165  1.5742 -1.9321  2.3226
  412MOL0     H56855   8.972   1.645   8.117 -1.9821  0.1898  0.7299
  412MOL0     H56856   8.935   1.780   7.992 -2.2840  1.8078 -0.7565
  413MOL0     O56857   9.437   5.171   4.649 -0.1315  0.4614 -0.2948
  413MOL0     C56858   9.403   5.064   4.599 -0.3347 -0.3417  0.2987
  413MOL0     O56859   9.483   4.961   4.561 -0.2352  0.5002  0.2758
  413MOL0     C56860   9.614   4.963   4.606  0.8052 -1.0292 -0.0279
  413MOL0     C56861   9.640   4.874   4.712 -0.2165 -0.2361 -0.1585
  413MOL0     C56862   9.768   4.864   4.747  0.2060  0.2883  0.5444
  413MOL0     C56863   9.867   4.953   4.698 -0.7451  0.1024  0.1155
  413MOL0     O56864  10.003   4.930   4.719 -0.6158  0.9540  1.0394
  413MOL0     C56865  10.045   4.817   4.632  0.2409  0.2071 -0.4726
  413MOL0     C56866  10.115   4.863   4.496  0.0679 -0.9965 -0.1586
  413MOL0     C56867  10.223   4.974   4.516  0.4232  0.5089  0.3790
  413MOL0     C56868  10.366   4.909   4.521 -0.8612 -0.6036  1.1378
  413MOL0     C56869  10.476   5.025   4.519  0.3384  0.3246  0.4508
  413MOL0     C56870  10.603   4.968   4.575 -0.3741  0.1933 -0.8091
  413MOL0     C56871  10.719   5.068   4.562  0.0058 -0.3694  0.4965
  413MOL0     C56872  10.852   4.999   4.587 -0.7771 -0.2413  0.0599
  413MOL0     N56873  10.967   5.072   4.529  2.0858 -0.2041  0.1970
  413MOL0     C56874  10.986   5.207   4.530 -0.3968 -0.3938  0.3890
  413MOL0     C56875  11.103   5.225   4.469 -0.1593 -0.7089  0.0230
  413MOL0     C56876  11.178   5.355   4.440 -0.2709  0.8442 -0.1024
  413MOL0     C56877  11.114   5.446   4.332  0.2104 -0.5404 -0.2554
  413MOL0     C56878  11.214   5.567   4.299 -0.2332 -0.3685 -0.8704
  413MOL0     C56879  11.144   5.653   4.191 -0.4174 -0.3379  0.0509
  413MOL0     O56880  11.244   5.721   4.111 -0.2287  0.6664  0.3167
  413MOL0     C56881  11.333   5.814   4.165 -0.1388  0.1317  1.5496
  413MOL0     C56882  11.326   5.878   4.289  0.6218 -0.5076  0.5066
  413MOL0     C56883  11.425   5.971   4.332  1.3429  0.7073  0.5609
  413MOL0     C56884  11.424   6.004   4.477  0.5964 -0.3726  0.3717
  413MOL0     C56885  11.524   6.010   4.238  0.2222 -0.1668  0.2963
  413MOL0     C56886  11.638   6.100   4.279 -0.3225  0.0288 -0.5887
  413MOL0     O56887  11.608   6.195   4.376 -0.2273  0.0955  0.4216
  413MOL0     C56888  11.699   6.280   4.416 -0.5913 -0.1948 -0.3138
  413MOL0     C56889  11.656   6.410   4.443  0.3066  0.3294 -0.7676
  413MOL0     C56890  11.745   6.490   4.503 -0.5233  0.5208 -0.2261
  413MOL0     C56891  11.879   6.462   4.532  0.4421 -0.5636  0.6244
  413MOL0     O56892  11.980   6.542   4.578  0.6131 -0.1150 -0.5194
  413MOL0     C56893  11.954   6.680   4.565 -0.0915  0.1533 -0.5051
  413MOL0     C56894  12.036   6.774   4.660  0.0981 -0.1312  0.7143
  413MOL0     C56895  12.188   6.755   4.647  0.6222  0.5806 -0.1178
  413MOL0     C56896  12.249   6.840   4.752  0.0154 -0.7102  0.5201
  413MOL0     C56897  12.398   6.802   4.762 -0.1052 -0.3822  0.6714
  413MOL0     C56898  12.479   6.856   4.880  0.3826  0.3461 -0.1645
  413MOL0     C56899  12.632   6.836   4.871 -0.8587  1.1652  0.4524
  413MOL0     C56900  12.692   6.957   4.797  0.9045 -0.0109 -0.0380
  413MOL0    Cl56901  12.725   7.094   4.899  0.0514  0.3462 -0.4177
  413MOL0     C56902  11.918   6.334   4.499  0.1150 -0.0701 -0.4020
  413MOL0     C56903  11.832   6.246   4.436 -0.8117  0.2301 -0.3660
  413MOL0     O56904  11.742   6.084   4.219  0.0103  0.0141 -0.3529
  413MOL0     C56905  11.508   5.969   4.106  0.4211 -0.1212 -0.2657
  413MOL0     C56906  11.424   5.864   4.076  0.4687 -0.4391  0.6641
  413MOL0     N56907  11.140   5.102   4.418 -0.9453 -0.5519 -0.1030
  413MOL0     N56908  11.057   5.015   4.451  0.1101 -0.0784  0.3751
  413MOL0     C56909   9.838   5.042   4.604 -0.3470 -0.2419  0.6797
  413MOL0     C56910   9.712   5.045   4.549  0.0666 -0.1457  0.1476
  413MOL0     C56911   9.256   5.036   4.580 -0.6368 -0.2383  0.4569
  413MOL0     C56912   9.171   5.148   4.555 -0.8681 -0.6329 -0.1048
  413MOL0     C56913   9.033   5.122   4.544 -0.3618 -0.6601  0.7803
  413MOL0     C56914   8.983   4.990   4.540  1.0629 -0.0265 -0.4783
  413MOL0     O56915   8.842   4.956   4.516 -0.0507  0.8600 -0.9572
  413MOL0     C56916   8.759   5.060   4.480  0.2491  0.1451 -0.6176
  413MOL0     C56917   8.630   5.006   4.424  0.0166  0.3567 -0.1115
  413MOL0     C56918   8.538   5.119   4.372  0.5566 -0.0650  0.4387
  413MOL0     C56919   8.392   5.105   4.425 -0.0718 -0.5085  0.2025
  413MOL0     C56920   8.337   4.967   4.390 -0.2202  0.9097 -0.1900
  413MOL0     C56921   8.287   4.866   4.353  0.0567  0.6714  0.9377
  413MOL0     C56922   9.064   4.881   4.563 -0.0091 -0.7838  0.4021
  413MOL0     C56923   9.199   4.904   4.578 -0.5000 -0.0794 -0.2784
  413MOL0     C56924   9.282   4.775   4.615  0.2371  0.3539  0.3695
  413MOL0     H56925   9.564   4.811   4.757 -0.9283  1.6798  1.5272
  413MOL0     H56926   9.798   4.783   4.813  3.0811 -1.2541 -2.3080
  413MOL0     H56927   9.964   4.744   4.625 -0.6986  1.0653  0.9482
  413MOL0     H56928  10.126   4.765   4.684 -1.3026 -2.2342 -0.3448
  413MOL0     H56929  10.151   4.775   4.443 -0.1985 -0.2809 -1.5845
  413MOL0     H56930  10.041   4.894   4.421 -0.7077 -2.5457 -0.0637
  413MOL0     H56931  10.216   5.037   4.427 -0.2019 -2.0659 -1.5232
  413MOL0     H56932  10.207   5.045   4.597 -0.1495  2.4116 -1.3025
  413MOL0     H56933  10.375   4.858   4.617 -0.5366 -0.8169  0.9942
  413MOL0     H56934  10.396   4.842   4.440  2.4311  0.6098  1.2165
  413MOL0     H56935  10.434   5.106   4.578 -1.3197 -0.1202 -0.0543
  413MOL0     H56936  10.493   5.072   4.421 -1.4037  2.5416  1.1225
  413MOL0     H56937  10.591   4.943   4.680  1.9257 -1.6902 -0.9027
  413MOL0     H56938  10.630   4.877   4.520  1.6411 -0.7645  1.5968
  413MOL0     H56939  10.700   5.152   4.628  0.7836  0.3179 -0.1247
  413MOL0     H56940  10.719   5.109   4.460 -1.4887  1.0684  1.0403
  413MOL0     H56941  10.863   5.001   4.695  1.9289 -3.1044 -0.0026
  413MOL0     H56942  10.865   4.893   4.562  1.2035  0.1221 -0.6669
  413MOL0     H56943  10.931   5.289   4.575  0.1447  0.7375 -0.9159
  413MOL0     H56944  11.276   5.334   4.397  1.2619  1.9409  2.6012
  413MOL0     H56945  11.185   5.412   4.533  0.7975 -0.0976  0.4119
  413MOL0     H56946  11.091   5.383   4.246  0.2726  0.7307 -1.2374
  413MOL0     H56947  11.020   5.477   4.378 -0.1786 -0.3777 -1.1533
  413MOL0     H56948  11.238   5.611   4.396 -0.6306 -2.5648  0.3018
  413MOL0     H56949  11.306   5.520   4.261 -0.6691 -1.2771 -0.8397
  413MOL0     H56950  11.099   5.583   4.120  2.7696 -1.9263 -0.6175
  413MOL0     H56951  11.076   5.714   4.251  0.9856 -1.7995  3.3846
  413MOL0     H56952  11.252   5.844   4.360  1.3625 -3.3402  0.0596
  413MOL0     H56953  11.417   6.109   4.509 -0.8825 -1.0917  2.6508
  413MOL0     H56954  11.512   5.950   4.515  1.5472 -0.3497 -1.6808
  413MOL0     H56955  11.333   5.958   4.517 -0.4596 -1.2786 -2.8387
  413MOL0     H56956  11.552   6.439   4.436  0.7967  2.1971 -0.8636
  413MOL0     H56957  11.693   6.580   4.534 -4.6082 -1.7748  0.3121
  413MOL0     H56958  11.965   6.695   4.457  0.0792 -2.0454 -0.8422
  413MOL0     H56959  11.850   6.701   4.593 -0.1450 -2.7152  2.0098
  413MOL0     H56960  12.006   6.877   4.638  0.6863  0.3210  1.9808
  413MOL0     H56961  12.009   6.752   4.764  0.8642  0.0425  0.9514
  413MOL0     H56962  12.220   6.782   4.546 -2.1390 -0.9267 -1.5053
  413MOL0     H56963  12.211   6.651   4.671 -0.3980 -0.2253 -2.3256
  413MOL0     H56964  12.222   6.816   4.855  0.3365 -1.4127  0.4461
  413MOL0     H56965  12.241   6.949   4.745 -0.5556 -0.8453 -1.8520
  413MOL0     H56966  12.402   6.694   4.751 -3.0999 -0.3166 -2.6267
  413MOL0     H56967  12.447   6.844   4.673  0.7705 -0.7532  0.9662
  413MOL0     H56968  12.444   6.794   4.962  0.3664  1.0538  0.3753
  413MOL0     H56969  12.444   6.953   4.918  0.2665 -0.0150  0.6457
  413MOL0     H56970  12.655   6.736   4.836  2.2048  0.5945  3.5327
  413MOL0     H56971  12.680   6.825   4.968  2.7025  0.6139 -1.2227
  413MOL0     H56972  12.620   6.988   4.720 -0.8321 -0.7473  1.2305
  413MOL0     H56973  12.789   6.928   4.756  0.5428 -3.5516  1.3104
  413MOL0     H56974  12.021   6.314   4.528 -0.5289 -1.0088  1.4101
  413MOL0     H56975  11.866   6.145   4.419  0.0054  0.4847 -0.2872
  413MOL0     H56976  11.568   6.012   4.026  0.4401  3.5237  1.5053
  413MOL0     H56977  11.427   5.821   3.976 -1.8350 -2.5988  1.4419
  413MOL0     H56978   9.912   5.109   4.561  1.0594 -0.7537  2.2296
  413MOL0     H56979   9.690   5.122   4.476  3.8763  1.2255  0.1993
  413MOL0     H56980   9.201   5.252   4.554 -4.5337  0.6135 -2.3717
  413MOL0     H56981   8.964   5.200   4.512  1.8064  0.2064 -2.2510
  413MOL0     H56982   8.744   5.147   4.545  0.3271 -0.7510  0.6216
  413MOL0     H56983   8.803   5.102   4.389 -1.0077  0.3635 -1.1570
  413MOL0     H56984   8.581   4.939   4.496  0.4247  0.8656  0.6591
  413MOL0     H56985   8.652   4.942   4.339 -2.7823  0.3836 -0.9624
  413MOL0     H56986   8.566   5.220   4.403  1.3737  0.0518 -0.6131
  413MOL0     H56987   8.553   5.112   4.264 -1.5193 -2.5437  0.2063
  413MOL0     H56988   8.333   5.185   4.380 -0.0211  1.3117  3.0969
  413MOL0     H56989   8.386   5.118   4.533 -1.2504  0.0990  0.0762
  413MOL0     H56990   8.245   4.779   4.306 -0.7737  1.2820  0.5312
  413MOL0     H56991   9.020   4.783   4.578  0.7920 -1.1416  0.4352
  413MOL0     H56992   9.354   4.798   4.694 -0.9523  2.1713  1.0178
  413MOL0     H56993   9.206   4.705   4.652  1.4851 -0.4268  1.5428
  413MOL0     H56994   9.335   4.725   4.534  1.1339  1.5513  0.1951
  414MOL0     O56995   0.544   9.689   8.326 -0.2882  0.0275  0.0551
  414MOL0     C56996   0.640   9.615   8.341  0.0113 -0.4470 -0.4966
  414MOL0     O56997   0.768   9.660   8.342 -0.2133  0.7646  0.0089
  414MOL0     C56998   0.808   9.780   8.292  0.4355  0.6483  0.1070
  414MOL0     C56999   0.742   9.875   8.208  0.5566 -0.1907  0.3553
  414MOL0     C57000   0.815   9.979   8.157 -1.0717 -0.9347 -0.0302
  414MOL0     C57001   0.954   9.999   8.184 -0.0443 -0.0753  0.2715
  414MOL0     O57002   1.016  10.094   8.105 -0.6004 -0.2635 -0.1761
  414MOL0     C57003   1.158  10.114   8.129  0.5355 -0.2986  0.1051
  414MOL0     C57004   1.233  10.017   8.034  0.3902  0.1205 -0.5841
  414MOL0     C57005   1.381  10.041   8.033 -0.4334 -0.7333  0.5564
  414MOL0     C57006   1.467   9.918   7.997  0.6351 -0.8719  0.8442
  414MOL0     C57007   1.618   9.946   8.014 -0.1269 -0.9816 -0.3420
  414MOL0     C57008   1.668  10.033   7.903 -0.4947 -0.2518 -0.3032
  414MOL0     C57009   1.818  10.021   7.902  1.1038  0.7931 -0.4263
  414MOL0     C57010   1.865  10.114   7.790 -0.0377  0.1709 -0.3498
  414MOL0     N57011   2.005  10.091   7.761 -0.7381  0.8195  0.4862
  414MOL0     C57012   2.104  10.185   7.743 -0.2018 -0.7495 -0.4877
  414MOL0     C57013   2.205  10.130   7.678 -0.6760  0.1124 -0.2880
  414MOL0     C57014   2.331  10.206   7.643 -0.2208  0.1504 -0.0098
  414MOL0     C57015   2.412  10.127   7.540  0.4598  0.0656  0.1110
  414MOL0     C57016   2.546  10.195   7.526 -0.8124 -0.4086 -0.0609
  414MOL0     C57017   2.628  10.144   7.408 -1.0837 -0.2018  0.4361
  414MOL0     O57018   2.672  10.015   7.455 -0.1212  0.2859  0.9473
  414MOL0     C57019   2.768   9.954   7.383  0.2311  0.6497  0.9301
  414MOL0     C57020   2.816  10.002   7.259 -0.3561 -0.9684 -0.7103
  414MOL0     C57021   2.917   9.931   7.185  0.6962 -0.2749 -1.5592
  414MOL0     C57022   2.959  10.007   7.064  1.0573 -0.0736 -1.0763
  414MOL0     C57023   2.975   9.815   7.246 -0.1437 -0.5853  0.4341
  414MOL0     C57024   3.091   9.747   7.179  0.6274  0.1636 -0.0875
  414MOL0     O57025   3.124   9.777   7.052 -0.4101 -0.4666  0.5267
  414MOL0     C57026   3.226   9.711   6.994 -0.1265  0.0859 -0.1219
  414MOL0     C57027   3.221   9.705   6.858 -0.0640  0.3507 -0.4245
  414MOL0     C57028   3.324   9.651   6.777 -0.3089  0.8464 -0.6488
  414MOL0     C57029   3.438   9.606   6.846  0.0051 -0.1352 -0.4391
  414MOL0     O57030   3.538   9.552   6.772 -0.1625 -0.1135  0.8275
  414MOL0     C57031   3.602   9.433   6.820  0.0711 -0.0949  0.4827
  414MOL0     C57032   3.671   9.363   6.708 -0.5988  0.0689  0.5479
  414MOL0     C57033   3.789   9.440   6.650 -0.4192 -0.4206 -0.3237
  414MOL0     C57034   3.906   9.354   6.600  0.6380  0.2365 -0.7276
  414MOL0     C57035   4.016   9.446   6.568  0.3254  0.1102  0.5636
  414MOL0     C57036   4.127   9.384   6.470  0.8770 -0.2809 -0.9967
  414MOL0     C57037   4.230   9.489   6.442 -0.2655  0.9321  0.0329
  414MOL0     C57038   4.346   9.427   6.373 -0.9882 -0.5961  0.3853
  414MOL0    Cl57039   4.465   9.561   6.325 -0.4247  0.0651 -0.0781
  414MOL0     C57040   3.445   9.617   6.985 -0.5208 -0.1599  0.2635
  414MOL0     C57041   3.347   9.676   7.055  0.1342 -0.0631 -0.1689
  414MOL0     O57042   3.142   9.650   7.241  0.0390 -0.7446 -0.4175
  414MOL0     C57043   2.927   9.768   7.374 -0.1681 -0.1875  1.2950
  414MOL0     C57044   2.817   9.840   7.439 -0.1092  0.6853  0.3700
  414MOL0     N57045   2.171  10.000   7.656  0.5381  0.3117  1.0495
  414MOL0     N57046   2.048   9.979   7.699 -0.3607 -0.5215 -0.2840
  414MOL0     C57047   1.020   9.904   8.265  0.0041  0.2540 -0.3739
  414MOL0     C57048   0.942   9.800   8.324 -0.0583  0.1742 -0.0790
  414MOL0     C57049   0.605   9.471   8.368 -0.3212 -0.1872 -0.9769
  414MOL0     C57050   0.703   9.404   8.431 -0.9546 -0.0955  0.2176
  414MOL0     C57051   0.690   9.264   8.443 -0.7792  0.5566  0.4587
  414MOL0     C57052   0.584   9.190   8.394 -0.8217  0.1458  0.9695
  414MOL0     O57053   0.600   9.061   8.384 -0.0203  0.3091  0.3173
  414MOL0     C57054   0.506   8.978   8.320 -0.2600 -0.2474  0.2851
  414MOL0     C57055   0.390   8.927   8.407  0.0290  0.7853 -0.4593
  414MOL0     C57056   0.299   8.825   8.321 -0.2773 -0.0677  0.3832
  414MOL0     C57057   0.159   8.801   8.380  0.3714 -0.8090 -0.3700
  414MOL0     C57058   0.080   8.925   8.384 -0.4027 -0.7668 -0.8050
  414MOL0     C57059   0.015   9.031   8.373 -1.2036  0.1051 -0.4873
  414MOL0     C57060   0.470   9.261   8.363 -0.5515  0.5508 -0.1427
  414MOL0     C57061   0.479   9.404   8.343  0.6550  0.8595  0.0432
  414MOL0     C57062   0.358   9.468   8.291  0.1893  0.2258  0.2594
  414MOL0     H57063   0.641   9.859   8.173  0.1101 -1.1327  1.9598
  414MOL0     H57064   0.769  10.052   8.091 -1.1358 -1.4663 -0.5918
  414MOL0     H57065   1.185  10.092   8.233  0.3360 -0.2037  0.1759
  414MOL0     H57066   1.192  10.217   8.118  2.9861 -1.0366  0.1422
  414MOL0     H57067   1.212   9.913   8.062 -3.3373  0.9335  0.3008
  414MOL0     H57068   1.191  10.024   7.933  0.1800  0.8069 -0.4555
  414MOL0     H57069   1.397  10.123   7.962 -0.3131 -0.1746  1.2183
  414MOL0     H57070   1.416  10.078   8.129  0.9627  2.6787 -1.0999
  414MOL0     H57071   1.438   9.841   8.069 -0.2956  0.6149  2.1266
  414MOL0     H57072   1.460   9.878   7.895  0.1831 -1.0788  0.9541
  414MOL0     H57073   1.673   9.852   8.011  1.5395 -0.0768  0.3366
  414MOL0     H57074   1.635   9.995   8.111 -1.1738  0.4339 -0.8268
  414MOL0     H57075   1.627   9.985   7.814  0.4938 -1.8329  0.0637
  414MOL0     H57076   1.643  10.139   7.915  1.4640  0.2580 -0.4156
  414MOL0     H57077   1.840   9.919   7.871 -2.0235  0.4173 -1.7233
  414MOL0     H57078   1.871  10.052   7.993  0.9789  0.4767 -0.2453
  414MOL0     H57079   1.812  10.106   7.694 -2.2332  3.1524  0.4772
  414MOL0     H57080   1.860  10.215   7.830  3.1614  0.5199 -0.5772
  414MOL0     H57081   2.098  10.289   7.772  0.0989 -1.3616  2.0669
  414MOL0     H57082   2.388  10.218   7.736  2.1091  0.2857 -1.3817
  414MOL0     H57083   2.300  10.305   7.608 -4.3135 -0.6276  0.9515
  414MOL0     H57084   2.431  10.026   7.578  0.5542 -0.2807 -0.8280
  414MOL0     H57085   2.350  10.124   7.450  0.3543 -1.5574  0.2067
  414MOL0     H57086   2.536  10.304   7.519 -0.2208 -0.0292  3.0869
  414MOL0     H57087   2.599  10.173   7.620  0.4700 -0.3091 -0.7386
  414MOL0     H57088   2.577  10.137   7.312 -2.1148 -0.7817  1.0030
  414MOL0     H57089   2.716  10.208   7.397  0.5692 -1.8414  2.9598
  414MOL0     H57090   2.761  10.084   7.215 -2.6349 -1.2718  1.3331
  414MOL0     H57091   2.908  10.104   7.057  0.0040 -0.3493  1.5484
  414MOL0     H57092   2.946   9.944   6.976  1.7100  0.5780 -1.6576
  414MOL0     H57093   3.066  10.027   7.061  1.1685 -0.6223 -0.8295
  414MOL0     H57094   3.130   9.729   6.803  0.8335 -0.4951 -2.3814
  414MOL0     H57095   3.320   9.640   6.669  2.0803 -2.2102 -0.5725
  414MOL0     H57096   3.671   9.447   6.904 -2.5333  1.1689  2.5784
  414MOL0     H57097   3.518   9.369   6.847 -1.9144  1.4735 -1.6022
  414MOL0     H57098   3.705   9.266   6.745  0.4784  1.3723  3.2724
  414MOL0     H57099   3.598   9.352   6.627 -0.9810  0.1590  0.8765
  414MOL0     H57100   3.830   9.509   6.724  2.6764 -1.6144 -0.7425
  414MOL0     H57101   3.754   9.485   6.556 -1.8421  0.4183  0.5838
  414MOL0     H57102   3.879   9.303   6.507  2.0706 -0.0393 -1.0067
  414MOL0     H57103   3.948   9.284   6.672 -0.2955  1.1783  0.7759
  414MOL0     H57104   3.967   9.518   6.502 -0.6550 -1.3686 -0.3718
  414MOL0     H57105   4.064   9.485   6.658  0.9103  0.2924  0.1734
  414MOL0     H57106   4.072   9.350   6.382  0.0306 -0.6694 -0.3405
  414MOL0     H57107   4.169   9.294   6.517 -0.9994 -1.4584 -1.4372
  414MOL0     H57108   4.258   9.536   6.536  0.3213 -2.3388  1.6421
  414MOL0     H57109   4.190   9.555   6.364 -1.4087 -1.6512 -1.7403
  414MOL0     H57110   4.308   9.383   6.281  1.4516  2.2917 -2.2380
  414MOL0     H57111   4.403   9.355   6.433 -2.2375  0.3413  2.8350
  414MOL0     H57112   3.539   9.587   7.030 -1.9824 -2.2840  2.1131
  414MOL0     H57113   3.350   9.685   7.163 -1.6822 -2.7467  0.2006
  414MOL0     H57114   2.969   9.675   7.411  1.7687 -0.9797 -2.4188
  414MOL0     H57115   2.772   9.785   7.521 -2.7933  0.7411 -0.9558
  414MOL0     H57116   1.126   9.904   8.290 -0.0460  1.0857 -0.1212
  414MOL0     H57117   0.994   9.726   8.384 -1.9852 -1.7930 -0.6755
  414MOL0     H57118   0.799   9.440   8.466 -0.0807 -3.0409  1.0521
  414MOL0     H57119   0.779   9.212   8.479 -1.2318  0.6355  1.7227
  414MOL0     H57120   0.452   9.028   8.239 -0.7343 -0.5185  0.4313
  414MOL0     H57121   0.560   8.896   8.274  0.6636  0.3201  0.3323
  414MOL0     H57122   0.331   9.008   8.451 -0.8681 -1.5042  2.9296
  414MOL0     H57123   0.440   8.873   8.487 -0.8809  2.1706  1.1096
  414MOL0     H57124   0.277   8.859   8.220  3.1236 -2.5649 -1.3813
  414MOL0     H57125   0.351   8.729   8.312 -1.0180 -0.6651  2.0626
  414MOL0     H57126   0.161   8.760   8.482  0.7799  4.1628  1.8907
  414MOL0     H57127   0.109   8.729   8.315 -3.3240  1.2869 -0.1138
  414MOL0     H57128  -0.034   9.125   8.352  1.0461  1.3722 -0.4327
  414MOL0     H57129   0.378   9.210   8.340 -0.5133  1.2107 -1.9149
  414MOL0     H57130   0.377   9.525   8.200  0.9630  3.1410  2.1268
  414MOL0     H57131   0.276   9.401   8.264  1.4931 -0.4908 -2.2061
  414MOL0     H57132   0.331   9.547   8.361 -0.7876 -1.2447  1.6283
  415MOL0     O57133   6.130   5.618  11.129 -0.5245 -0.5882  0.7480
  415MOL0     C57134   6.194   5.663  11.036  0.6046  0.6835  1.0811
  415MOL0     O57135   6.171   5.776  10.975 -0.0675 -0.4570 -0.3846
  415MOL0     C57136   6.085   5.863  11.036 -1.1266  0.3260  0.0647
  415MOL0     C57137   6.141   5.987  11.081  0.4280  0.5183  0.5528
  415MOL0     C57138   6.082   6.077  11.158  0.3376 -0.1139 -0.8232
  415MOL0     C57139   5.942   6.058  11.182  0.0535 -0.2389  0.3513
  415MOL0     O57140   5.857   6.138  11.262  0.1607 -0.9967 -0.1204
  415MOL0     C57141   5.890   6.276  11.283  0.3550  0.1006  0.0626
  415MOL0     C57142   5.782   6.359  11.359  0.2151  0.3980  0.0902
  415MOL0     C57143   5.652   6.373  11.282  0.6063  0.5206 -1.3065
  415MOL0     C57144   5.657   6.426  11.141 -0.3119 -0.3426 -0.4124
  415MOL0     C57145   5.525   6.407  11.064 -0.5310 -0.0838 -0.3232
  415MOL0     C57146   5.537   6.446  10.922 -1.2354  0.9294 -0.1309
  415MOL0     C57147   5.653   6.368  10.848  1.1781 -0.2057 -0.5272
  415MOL0     C57148   5.644   6.212  10.860  0.5021 -0.3298  0.9153
  415MOL0     N57149   5.756   6.162  10.787 -0.4097  0.0362  0.3759
  415MOL0     C57150   5.891   6.157  10.818  0.8324  0.4437 -0.9040
  415MOL0     C57151   5.959   6.086  10.726 -0.5905  0.7725  0.1713
  415MOL0     C57152   6.107   6.054  10.746  0.0237  0.0677 -0.0318
  415MOL0     C57153   6.187   6.081  10.608 -0.6453  0.3763  0.0824
  415MOL0     C57154   6.341   6.075  10.628 -0.4346 -0.9935  0.3049
  415MOL0     C57155   6.391   5.930  10.644  0.3595 -0.1362 -0.2634
  415MOL0     O57156   6.533   5.927  10.670 -0.2594 -0.0282 -0.1916
  415MOL0     C57157   6.618   5.913  10.557 -0.4981  0.2960 -0.5003
  415MOL0     C57158   6.752   5.898  10.581  0.2463  0.4933  0.0615
  415MOL0     C57159   6.852   5.896  10.488  0.7458  0.1062  0.9423
  415MOL0     C57160   6.995   5.858  10.527  0.3217  0.6158  0.3698
  415MOL0     C57161   6.819   5.926  10.355 -0.6505  0.7145 -0.7830
  415MOL0     C57162   6.922   5.935  10.244  1.0043  0.3806  0.6918
  415MOL0     O57163   7.053   5.914  10.262  0.1093  0.5989 -0.1678
  415MOL0     C57164   7.144   5.895  10.162  0.0213  0.5736 -0.3387
  415MOL0     C57165   7.164   5.989  10.062 -1.0457 -0.6296  0.4200
  415MOL0     C57166   7.260   5.959   9.958 -0.5571  0.1965 -0.4018
  415MOL0     C57167   7.338   5.839   9.959  0.1887  0.4626 -0.1421
  415MOL0     O57168   7.420   5.808   9.852  0.6269 -0.2787 -0.1140
  415MOL0     C57169   7.347   5.797   9.724 -0.4826  0.1275 -0.4063
  415MOL0     C57170   7.352   5.648   9.690 -0.4072 -0.3212 -0.1266
  415MOL0     C57171   7.498   5.594   9.675  0.1705  0.4481  0.3425
  415MOL0     C57172   7.576   5.657   9.558  0.0231  0.3530  1.3779
  415MOL0     C57173   7.714   5.600   9.545 -0.2337 -0.7867 -0.1413
  415MOL0     C57174   7.805   5.690   9.443  0.8909 -0.0743 -0.1385
  415MOL0     C57175   7.888   5.793   9.516  0.3393 -0.7082  0.3305
  415MOL0     C57176   8.013   5.846   9.442 -0.7130  0.2135 -0.2116
  415MOL0    Cl57177   7.974   5.930   9.297 -0.2713 -0.3325 -0.2711
  415MOL0     C57178   7.318   5.752  10.065  0.1143 -0.2527 -0.3510
  415MOL0     C57179   7.219   5.779  10.159  0.3366  0.0943  0.0735
  415MOL0     O57180   6.871   5.951  10.133 -0.1764 -0.3110  0.5069
  415MOL0     C57181   6.682   5.948  10.329  0.3127  0.6574 -0.8232
  415MOL0     C57182   6.582   5.943  10.428 -0.1667 -1.0348  0.3106
  415MOL0     N57183   5.869   6.050  10.632  0.2639 -0.5162  0.4338
  415MOL0     N57184   5.752   6.098  10.666 -0.4343  0.1286 -0.1834
  415MOL0     C57185   5.887   5.934  11.136  0.5677  0.4481  0.0740
  415MOL0     C57186   5.953   5.843  11.059 -0.3719 -0.2716 -0.1511
  415MOL0     C57187   6.301   5.575  10.987 -0.9908 -0.0428 -0.2828
  415MOL0     C57188   6.279   5.441  10.968 -0.9611  0.1541  0.4623
  415MOL0     C57189   6.388   5.360  10.924  0.7718  0.0878  0.0485
  415MOL0     C57190   6.519   5.408  10.907 -0.3224 -0.7780 -0.8644
  415MOL0     O57191   6.633   5.339  10.870  0.5851 -0.3354 -0.0048
  415MOL0     C57192   6.633   5.193  10.878  0.8762  0.5935 -0.4661
  415MOL0     C57193   6.776   5.145  10.848  0.1131 -0.3856  0.4165
  415MOL0     C57194   6.852   5.154  10.984 -0.1709  0.3677  0.0441
  415MOL0     C57195   6.985   5.091  10.974  0.5099  0.6749 -0.3257
  415MOL0     C57196   7.067   5.116  11.093 -0.4554  0.2187  0.2799
  415MOL0     C57197   7.135   5.140  11.190 -0.1945 -0.3906 -0.3263
  415MOL0     C57198   6.532   5.543  10.924 -0.2152 -0.4892  0.4986
  415MOL0     C57199   6.433   5.631  10.968 -1.0782  0.1107 -0.2346
  415MOL0     C57200   6.467   5.774  10.992  0.3955 -0.5165 -0.3728
  415MOL0     H57201   6.249   5.992  11.070  0.7607 -0.6204  2.8005
  415MOL0     H57202   6.131   6.160  11.208 -0.8347  2.3681 -3.5119
  415MOL0     H57203   5.915   6.330  11.192 -1.6855  2.8247  0.9894
  415MOL0     H57204   5.981   6.272  11.344  0.9251 -2.5711 -0.8269
  415MOL0     H57205   5.768   6.319  11.460 -2.4385  0.9457  0.0005
  415MOL0     H57206   5.823   6.456  11.388 -1.6674  1.3221 -0.1951
  415MOL0     H57207   5.596   6.279  11.282 -1.9308  1.9172 -1.9615
  415MOL0     H57208   5.591   6.445  11.338  2.0518  1.4753 -0.9191
  415MOL0     H57209   5.683   6.532  11.145 -0.5930 -0.3032  0.9159
  415MOL0     H57210   5.737   6.372  11.090  0.0038  2.3465 -3.0235
  415MOL0     H57211   5.440   6.457  11.112  0.2575  0.8957  0.0785
  415MOL0     H57212   5.491   6.303  11.064 -1.9721  0.3247 -2.2089
  415MOL0     H57213   5.439   6.430  10.876 -0.0797  2.6371 -3.4683
  415MOL0     H57214   5.571   6.548  10.936  2.4728 -0.3238  1.0923
  415MOL0     H57215   5.744   6.398  10.900 -1.0572  0.9407  3.0260
  415MOL0     H57216   5.666   6.403  10.745  0.2994  0.3734 -0.4511
  415MOL0     H57217   5.666   6.192  10.965 -1.1520 -0.1917  1.3090
  415MOL0     H57218   5.545   6.177  10.831 -0.1711  1.5112  0.8421
  415MOL0     H57219   5.932   6.196  10.912 -1.2055  2.7542 -0.8790
  415MOL0     H57220   6.116   5.948  10.771 -4.2195 -0.5670 -0.5759
  415MOL0     H57221   6.147   6.113  10.829 -0.4642  3.0921 -1.7950
  415MOL0     H57222   6.154   6.006  10.537 -0.4993 -0.4432  0.8582
  415MOL0     H57223   6.158   6.183  10.579  1.6495  0.8540 -0.7269
  415MOL0     H57224   6.378   6.129  10.541 -2.3172  0.7502  0.5072
  415MOL0     H57225   6.380   6.133  10.713  1.9698  0.5891 -1.7513
  415MOL0     H57226   6.329   5.893  10.726  1.7554 -2.2864 -0.0879
  415MOL0     H57227   6.377   5.870  10.554 -0.3557 -0.8538  0.3120
  415MOL0     H57228   6.773   5.880  10.685  0.2396 -2.7609 -0.4099
  415MOL0     H57229   7.011   5.822  10.629 -1.3151  0.1739  0.5042
  415MOL0     H57230   7.065   5.940  10.512 -0.7268  1.5390  0.3685
  415MOL0     H57231   7.042   5.777  10.471 -0.7048 -0.1728  0.6143
  415MOL0     H57232   7.101   6.077  10.070 -1.5625 -1.1318  2.8627
  415MOL0     H57233   7.259   6.019   9.867  1.3438 -2.4966 -2.3403
  415MOL0     H57234   7.243   5.829   9.737 -0.2408  1.3535 -1.2881
  415MOL0     H57235   7.391   5.859   9.646 -2.8156 -0.1194 -2.0162
  415MOL0     H57236   7.291   5.593   9.762  0.0692 -0.6895  0.0039
  415MOL0     H57237   7.299   5.627   9.597 -0.0257 -0.0652 -0.4014
  415MOL0     H57238   7.486   5.488   9.653  1.5297  0.4891 -0.6939
  415MOL0     H57239   7.558   5.614   9.765 -0.2081  0.5246  0.5830
  415MOL0     H57240   7.575   5.765   9.575 -0.3764  0.1384  2.8666
  415MOL0     H57241   7.524   5.645   9.462  1.0615 -0.8023  0.9343
  415MOL0     H57242   7.765   5.581   9.639  3.8061  1.7772 -1.5806
  415MOL0     H57243   7.694   5.504   9.496 -1.1379 -0.4826 -0.3961
  415MOL0     H57244   7.740   5.734   9.367 -0.1129  1.2569  1.4313
  415MOL0     H57245   7.862   5.608   9.397 -2.3448 -2.2512 -0.6522
  415MOL0     H57246   7.922   5.741   9.607 -0.4784 -0.9978  0.4800
  415MOL0     H57247   7.830   5.880   9.546  1.9632 -0.3739  2.7660
  415MOL0     H57248   8.076   5.759   9.421  2.1571  2.1733 -0.2819
  415MOL0     H57249   8.069   5.919   9.500  0.3335 -0.3513 -0.4706
  415MOL0     H57250   7.374   5.660  10.074 -1.8846 -1.5419 -0.3717
  415MOL0     H57251   7.192   5.706  10.234 -2.7524  0.3530 -0.6708
  415MOL0     H57252   6.657   5.973  10.226 -1.5386 -1.3712 -0.9391
  415MOL0     H57253   6.481   5.950  10.389  0.2993  1.6932 -0.6409
  415MOL0     H57254   5.782   5.918  11.160  1.0000 -0.5429  1.4129
  415MOL0     H57255   5.902   5.754  11.025  0.7544 -0.3084 -1.7856
  415MOL0     H57256   6.180   5.403  10.988 -2.1008  2.9414  0.5556
  415MOL0     H57257   6.372   5.253  10.916  1.7164 -0.1946  1.4898
  415MOL0     H57258   6.595   5.153  10.973  2.2710 -1.1781 -0.6036
  415MOL0     H57259   6.577   5.144  10.798  1.8030  0.2630 -0.9198
  415MOL0     H57260   6.827   5.201  10.769 -0.3232 -1.3538 -0.5719
  415MOL0     H57261   6.773   5.040  10.819 -2.4337  0.2393 -1.9856
  415MOL0     H57262   6.870   5.259  11.009  0.8476  0.7666 -2.1551
  415MOL0     H57263   6.797   5.097  11.060  0.2753 -0.9112 -0.5650
  415MOL0     H57264   7.038   5.136  10.890  3.2571 -1.8166 -0.0967
  415MOL0     H57265   6.985   4.982  10.964 -0.6768  0.4235  1.8656
  415MOL0     H57266   7.191   5.163  11.279 -1.2824 -1.2741  0.6284
  415MOL0     H57267   6.630   5.589  10.919 -0.1082 -0.0456  3.8419
  415MOL0     H57268   6.444   5.809  11.094 -0.7039  0.1529 -0.8319
  415MOL0     H57269   6.576   5.775  10.983  0.7743 -1.2652  2.9051
  415MOL0     H57270   6.415   5.844  10.926  2.6274 -0.5787 -2.3189
  416MOL0     O57271   0.264   5.685   7.931 -0.7397  0.1262  0.3155
  416MOL0     C57272   0.203   5.791   7.908  0.6166  0.2867 -0.7582
  416MOL0     O57273   0.216   5.907   7.977 -0.4845 -0.5744 -0.1910
  416MOL0     C57274   0.339   5.929   8.043 -0.2180  0.3075 -0.1452
  416MOL0     C57275   0.341   6.029   8.144 -0.0507 -0.5938 -0.1018
  416MOL0     C57276   0.461   6.053   8.219 -0.2194  0.3362 -0.9058
  416MOL0     C57277   0.574   5.977   8.192 -0.7896  0.3142 -0.0408
  416MOL0     O57278   0.680   6.022   8.258 -0.4933  0.1016 -0.4009
  416MOL0     C57279   0.782   6.085   8.181  0.3617 -0.5803  0.0052
  416MOL0     C57280   0.876   6.167   8.271  0.0456 -0.4100 -0.3249
  416MOL0     C57281   0.805   6.278   8.351  0.5276 -0.5266  0.3331
  416MOL0     C57282   0.736   6.371   8.253 -0.6906  0.1735 -0.5884
  416MOL0     C57283   0.735   6.510   8.302 -1.3197 -0.7651 -0.3447
  416MOL0     C57284   0.657   6.512   8.439 -0.4456 -0.1396 -0.2497
  416MOL0     C57285   0.607   6.653   8.478 -0.4814  0.0762  0.2972
  416MOL0     C57286   0.696   6.784   8.440 -1.0094  0.7817  0.1151
  416MOL0     N57287   0.614   6.901   8.452  0.1505  0.2478  0.3891
  416MOL0     C57288   0.622   6.994   8.551  0.5229  0.5466  0.7194
  416MOL0     C57289   0.541   7.092   8.520 -0.0553  0.1739  0.4344
  416MOL0     C57290   0.518   7.207   8.620 -0.1892 -0.8173  0.3394
  416MOL0     C57291   0.399   7.301   8.584  0.1471  0.1581 -0.5965
  416MOL0     C57292   0.421   7.431   8.658 -1.0918  0.1787  0.3113
  416MOL0     C57293   0.318   7.532   8.642  0.2953 -0.7643  0.3412
  416MOL0     O57294   0.291   7.568   8.511  0.3634 -0.0736  0.2204
  416MOL0     C57295   0.217   7.681   8.492 -0.1148 -0.7146  0.1829
  416MOL0     C57296   0.205   7.725   8.356 -1.1431 -0.9187 -0.0161
  416MOL0     C57297   0.142   7.844   8.317  0.1277  0.1561 -0.5638
  416MOL0     C57298   0.149   7.890   8.175 -0.5834  0.2436 -0.4526
  416MOL0     C57299   0.096   7.929   8.426 -0.2233 -0.4280  0.0609
  416MOL0     C57300   0.059   8.070   8.411 -0.6259 -0.3626 -0.1975
  416MOL0     O57301   0.010   8.140   8.523 -0.1712  0.0637  0.0483
  416MOL0     C57302  -0.084   8.238   8.498 -0.5396  0.5059 -0.9250
  416MOL0     C57303  -0.068   8.363   8.568  0.4670 -0.8218 -0.1207
  416MOL0     C57304  -0.146   8.473   8.536  0.2564  0.0347 -0.0582
  416MOL0     C57305  -0.236   8.462   8.433  0.5400  0.3841  0.2765
  416MOL0     O57306  -0.311   8.573   8.398  0.3250 -0.2601  0.0369
  416MOL0     C57307  -0.241   8.667   8.312  0.4043 -0.1591 -0.3893
  416MOL0     C57308  -0.347   8.756   8.249  0.2901  0.5287 -0.3140
  416MOL0     C57309  -0.295   8.870   8.176  0.2597 -0.8918 -0.6665
  416MOL0     C57310  -0.404   8.927   8.088  0.4756  0.2305 -0.6691
  416MOL0     C57311  -0.361   9.049   8.013 -0.4610  0.1344  0.0768
  416MOL0     C57312  -0.474   9.101   7.920 -0.0559 -0.1070  1.1581
  416MOL0     C57313  -0.422   9.232   7.859  0.2961 -0.2908 -0.2969
  416MOL0     C57314  -0.509   9.264   7.733  0.3968  0.0428  0.3684
  416MOL0    Cl57315  -0.456   9.166   7.599 -0.1397 -0.0966  0.3449
  416MOL0     C57316  -0.265   8.340   8.376  0.2350 -0.1370 -0.3631
  416MOL0     C57317  -0.183   8.229   8.399 -0.1511  0.3087 -0.2804
  416MOL0     O57318   0.087   8.133   8.311  0.1700  0.0142 -0.3533
  416MOL0     C57319   0.092   7.879   8.558  0.4810 -0.1746 -0.4477
  416MOL0     C57320   0.151   7.760   8.592 -0.9152  0.1908  0.4645
  416MOL0     N57321   0.483   7.056   8.399 -0.1028  0.1229  0.6497
  416MOL0     N57322   0.532   6.946   8.358  0.6660  0.1786  0.0764
  416MOL0     C57323   0.573   5.873   8.096 -0.2709 -0.4755  0.0315
  416MOL0     C57324   0.460   5.853   8.018  0.2690 -0.0334  0.2024
  416MOL0     C57325   0.097   5.785   7.804  0.1926 -0.4717 -0.3603
  416MOL0     C57326   0.103   5.671   7.720  0.4409 -0.6174  0.1947
  416MOL0     C57327   0.025   5.663   7.606 -0.6376  0.2010 -0.2571
  416MOL0     C57328  -0.087   5.745   7.594  0.0795 -0.4255  0.4549
  416MOL0     O57329  -0.164   5.729   7.482  0.2727  0.2903  0.0973
  416MOL0     C57330  -0.296   5.791   7.476 -0.7786 -0.0770 -0.7083
  416MOL0     C57331  -0.382   5.724   7.372 -0.4105 -1.0549  0.4534
  416MOL0     C57332  -0.392   5.570   7.405 -0.5499 -1.2387  0.0880
  416MOL0     C57333  -0.515   5.510   7.331  0.4522 -0.0914 -0.3271
  416MOL0     C57334  -0.535   5.371   7.373  0.2778  0.2171 -0.9782
  416MOL0     C57335  -0.560   5.255   7.402 -0.0546 -0.7226  0.1253
  416MOL0     C57336  -0.097   5.858   7.673 -0.2679  0.2205  0.1557
  416MOL0     C57337  -0.007   5.878   7.779 -0.3716  0.5503  0.5615
  416MOL0     C57338  -0.048   5.990   7.870  0.1611 -0.9023  0.3587
  416MOL0     H57339   0.255   6.089   8.171  0.3946 -0.2592  0.5850
  416MOL0     H57340   0.468   6.113   8.309  0.5507 -1.1904  0.0968
  416MOL0     H57341   0.734   6.151   8.108 -0.3741 -2.1643 -1.0108
  416MOL0     H57342   0.832   6.004   8.126  1.9543 -0.5616  1.3496
  416MOL0     H57343   0.916   6.099   8.347  0.4070  1.4365  1.2017
  416MOL0     H57344   0.961   6.221   8.228 -0.4791  1.6827  1.1418
  416MOL0     H57345   0.726   6.230   8.409  0.5863 -3.0605 -1.5371
  416MOL0     H57346   0.877   6.330   8.415 -0.7626  1.2222  0.4626
  416MOL0     H57347   0.791   6.382   8.158  1.5313  2.0200  0.7962
  416MOL0     H57348   0.635   6.341   8.225 -1.1743 -0.3900  1.6465
  416MOL0     H57349   0.694   6.585   8.234 -0.0379  0.2390 -0.0541
  416MOL0     H57350   0.837   6.544   8.320 -1.3234 -1.8948  2.3248
  416MOL0     H57351   0.557   6.468   8.431 -1.5213  2.2218 -0.9168
  416MOL0     H57352   0.719   6.476   8.521  0.3684  0.5354 -0.5557
  416MOL0     H57353   0.595   6.653   8.587  2.1208 -0.8543  0.6535
  416MOL0     H57354   0.505   6.660   8.441 -0.9398 -0.3787  1.4101
  416MOL0     H57355   0.785   6.790   8.503 -1.8550 -4.3528  2.2393
  416MOL0     H57356   0.728   6.782   8.335  2.2131  1.0438  0.9874
  416MOL0     H57357   0.683   6.996   8.640  0.5914 -0.7320  0.7077
  416MOL0     H57358   0.606   7.272   8.622  2.0065 -3.5492 -1.1755
  416MOL0     H57359   0.495   7.171   8.720 -4.0081  0.5530  0.1170
  416MOL0     H57360   0.385   7.316   8.476 -1.2898 -2.9196 -0.9401
  416MOL0     H57361   0.310   7.250   8.623 -0.0243  3.0204  3.3704
  416MOL0     H57362   0.437   7.420   8.766 -0.5914 -0.6191  0.1710
  416MOL0     H57363   0.504   7.484   8.612 -2.1354  1.4386 -0.1804
  416MOL0     H57364   0.225   7.491   8.680 -0.1613 -1.1609 -1.1517
  416MOL0     H57365   0.349   7.619   8.701 -0.4121 -1.6521  2.0960
  416MOL0     H57366   0.254   7.665   8.281 -0.5951 -2.8469  1.7764
  416MOL0     H57367   0.242   7.943   8.154  1.6839 -2.8553  0.9053
  416MOL0     H57368   0.070   7.963   8.157  1.1772  2.9697  2.0427
  416MOL0     H57369   0.148   7.798   8.115  3.0632 -0.5490  0.4385
  416MOL0     H57370  -0.012   8.374   8.660 -0.1754  1.1988  0.0718
  416MOL0     H57371  -0.133   8.565   8.592  1.1564  0.0852 -0.3329
  416MOL0     H57372  -0.174   8.728   8.373 -1.2220  0.2742  1.0459
  416MOL0     H57373  -0.184   8.627   8.228 -1.5605  2.2261 -3.0736
  416MOL0     H57374  -0.395   8.686   8.180  1.6552 -1.2449  0.4391
  416MOL0     H57375  -0.419   8.797   8.321 -0.9494 -2.2688  0.1537
  416MOL0     H57376  -0.206   8.842   8.119  1.4569  0.5296  0.4244
  416MOL0     H57377  -0.259   8.949   8.243 -4.0371 -0.6881  1.7398
  416MOL0     H57378  -0.496   8.938   8.147 -0.8177  1.4059 -2.7892
  416MOL0     H57379  -0.435   8.851   8.016  1.3554  0.1449 -0.9668
  416MOL0     H57380  -0.332   9.124   8.088  2.3974  0.8930 -1.6522
  416MOL0     H57381  -0.275   9.026   7.950  0.9853  0.4684  1.8460
  416MOL0     H57382  -0.560   9.133   7.980 -0.8267  3.5504 -1.5578
  416MOL0     H57383  -0.513   9.029   7.847  3.2812  0.2398 -1.1920
  416MOL0     H57384  -0.318   9.234   7.825  0.0955 -1.0775 -0.9977
  416MOL0     H57385  -0.435   9.302   7.941  1.1154  1.1956 -1.3921
  416MOL0     H57386  -0.501   9.367   7.698  0.8451  0.0283  0.4208
  416MOL0     H57387  -0.614   9.243   7.756  0.1095  1.6982  0.6896
  416MOL0     H57388  -0.342   8.341   8.300  0.1036  2.3909 -0.3037
  416MOL0     H57389  -0.211   8.137   8.349  0.1210  0.1382 -0.1212
  416MOL0     H57390   0.043   7.937   8.636  0.2348  0.5068 -1.0866
  416MOL0     H57391   0.158   7.741   8.699  2.7361 -1.4661  0.0989
  416MOL0     H57392   0.657   5.806   8.085  0.1191  0.3881 -2.8882
  416MOL0     H57393   0.469   5.766   7.954 -0.5429 -0.6361  0.8886
  416MOL0     H57394   0.180   5.597   7.741  0.8712  0.5597  3.3985
  416MOL0     H57395   0.034   5.581   7.535 -0.3995 -1.1962  1.3151
  416MOL0     H57396  -0.348   5.787   7.572  1.2581  1.3632  0.5418
  416MOL0     H57397  -0.286   5.898   7.455  0.0605  0.4304  1.8842
  416MOL0     H57398  -0.337   5.746   7.274 -0.7832  0.6203  0.6241
  416MOL0     H57399  -0.481   5.769   7.377 -0.1048 -0.1827 -0.8155
  416MOL0     H57400  -0.301   5.526   7.361 -0.5471 -3.2196  1.9305
  416MOL0     H57401  -0.376   5.547   7.511  1.1389 -3.3590 -0.5412
  416MOL0     H57402  -0.490   5.499   7.225 -1.7887 -3.1068 -0.6839
  416MOL0     H57403  -0.609   5.564   7.343  0.7489  0.4604 -0.4702
  416MOL0     H57404  -0.581   5.160   7.449 -0.0298 -0.8369 -0.0939
  416MOL0     H57405  -0.169   5.933   7.646  0.4152  1.3962  1.4760
  416MOL0     H57406   0.033   6.064   7.873  1.5540 -2.3917  0.6115
  416MOL0     H57407  -0.137   6.046   7.838 -0.1943 -2.4294 -1.4916
  416MOL0     H57408  -0.061   5.956   7.973  2.1618 -0.0773  0.9415
  417MOL0     O57409   6.743   3.645   1.029  0.1824  0.4485  0.2382
  417MOL0     C57410   6.748   3.767   1.047 -0.0103 -0.5198 -0.5565
  417MOL0     O57411   6.867   3.841   1.053  0.1394 -0.1454 -0.1745
  417MOL0     C57412   6.976   3.774   1.010 -0.4266  0.2386 -0.3407
  417MOL0     C57413   7.047   3.686   1.097 -1.4284 -0.7646 -0.5387
  417MOL0     C57414   7.148   3.602   1.049 -0.0207  0.4599  0.6838
  417MOL0     C57415   7.185   3.613   0.911  0.9554 -0.2712 -0.0569
  417MOL0     O57416   7.274   3.519   0.857 -0.0268 -0.4397 -0.1170
  417MOL0     C57417   7.397   3.482   0.934  0.0440 -0.0267  0.3369
  417MOL0     C57418   7.494   3.404   0.842 -0.3971 -0.4812  0.6916
  417MOL0     C57419   7.559   3.470   0.721  0.6371 -0.4010 -0.3184
  417MOL0     C57420   7.452   3.480   0.609  0.2827  0.4434 -0.6688
  417MOL0     C57421   7.517   3.556   0.492 -0.1586  0.5294 -0.2870
  417MOL0     C57422   7.435   3.554   0.363 -0.7267 -0.4598  0.3610
  417MOL0     C57423   7.434   3.424   0.284  0.5158 -0.2254  0.2185
  417MOL0     C57424   7.299   3.399   0.220 -0.3301  0.4369  0.0850
  417MOL0     N57425   7.275   3.485   0.103  0.1253  0.0215 -0.6144
  417MOL0     C57426   7.244   3.616   0.111  0.2043  0.0675 -0.6996
  417MOL0     C57427   7.262   3.666  -0.007 -1.1818 -0.9742 -0.1727
  417MOL0     C57428   7.244   3.811  -0.023  0.4398 -0.5090 -0.4126
  417MOL0     C57429   7.137   3.846  -0.128 -0.1384  0.7826 -0.1052
  417MOL0     C57430   6.991   3.826  -0.080 -0.6326 -0.2130  0.0217
  417MOL0     C57431   6.913   3.831  -0.210  0.4784  0.3629  1.1736
  417MOL0     O57432   6.903   3.703  -0.272 -0.2082  0.2965  0.6916
  417MOL0     C57433   6.875   3.690  -0.404  0.9030  0.9556  0.1224
  417MOL0     C57434   6.890   3.560  -0.457  0.5363 -0.6845 -0.5868
  417MOL0     C57435   6.855   3.528  -0.590 -0.0737  0.6252  0.4091
  417MOL0     C57436   6.890   3.388  -0.641 -0.4343 -0.4489 -0.1099
  417MOL0     C57437   6.799   3.633  -0.669 -0.5386  0.3402 -0.2275
  417MOL0     C57438   6.756   3.612  -0.807 -0.3660 -0.9695  0.0275
  417MOL0     O57439   6.756   3.732  -0.888 -0.0461  0.4791 -0.9905
  417MOL0     C57440   6.700   3.722  -1.009 -0.0412  1.0675 -0.4001
  417MOL0     C57441   6.767   3.715  -1.123  0.0455  0.1802 -0.6541
  417MOL0     C57442   6.703   3.721  -1.244  0.7245 -0.1029  0.3090
  417MOL0     C57443   6.560   3.728  -1.263  0.3460  0.3393 -0.8353
  417MOL0     O57444   6.488   3.750  -1.375 -1.1834 -0.4951  0.7059
  417MOL0     C57445   6.550   3.828  -1.478 -0.3036  0.4961 -0.1727
  417MOL0     C57446   6.461   3.875  -1.597 -0.1318  0.5954  0.4055
  417MOL0     C57447   6.403   3.768  -1.689 -0.1951 -0.1873 -0.8331
  417MOL0     C57448   6.339   3.824  -1.825 -0.2041 -0.8500 -0.1233
  417MOL0     C57449   6.195   3.871  -1.802  0.1254 -0.2212  0.8435
  417MOL0     C57450   6.090   3.755  -1.796 -0.0334 -0.5585  0.1120
  417MOL0     C57451   5.952   3.797  -1.739  0.5361  0.1414 -0.4516
  417MOL0     C57452   5.883   3.665  -1.681  0.4907 -0.1195  0.2649
  417MOL0    Cl57453   5.907   3.522  -1.790  0.2072  0.0593 -0.5146
  417MOL0     C57454   6.495   3.735  -1.139  0.1582 -0.4952 -0.5406
  417MOL0     C57455   6.557   3.724  -1.015 -0.0915  0.3012  0.1946
  417MOL0     O57456   6.719   3.504  -0.843  0.3927 -0.1779 -0.4629
  417MOL0     C57457   6.796   3.769  -0.617 -0.5414 -0.4756  0.5013
  417MOL0     C57458   6.839   3.789  -0.485  0.5153 -0.5285  0.6732
  417MOL0     N57459   7.311   3.570  -0.091 -0.5709 -0.7658 -0.2864
  417MOL0     N57460   7.317   3.461  -0.022  0.0205 -0.0719 -0.7444
  417MOL0     C57461   7.121   3.703   0.827  0.4396 -0.7820 -0.3760
  417MOL0     C57462   7.018   3.779   0.875 -0.2379 -0.8831 -0.2307
  417MOL0     C57463   6.614   3.830   1.052 -0.1722 -0.0911 -0.2418
  417MOL0     C57464   6.503   3.745   1.074  0.9082 -0.0244  0.2029
  417MOL0     C57465   6.378   3.790   1.082 -0.5509 -0.2943 -0.1344
  417MOL0     C57466   6.340   3.921   1.075 -0.6322 -0.6997 -0.2253
  417MOL0     O57467   6.208   3.951   1.110  0.4642 -0.4315  0.4786
  417MOL0     C57468   6.142   4.056   1.029 -0.1388 -0.8965  0.1575
  417MOL0     C57469   6.007   4.102   1.079  0.6876 -0.1516 -0.0850
  417MOL0     C57470   5.913   3.987   1.090 -0.3298  0.5015 -0.0236
  417MOL0     C57471   5.773   4.032   1.133 -0.8070  0.4120 -0.7399
  417MOL0     C57472   5.708   4.084   1.009  0.2369  0.8731 -0.7128
  417MOL0     C57473   5.658   4.137   0.917  0.4719  0.4776  0.0734
  417MOL0     C57474   6.447   4.014   1.068 -0.1019 -0.7527 -1.5689
  417MOL0     C57475   6.579   3.971   1.049 -0.2549 -0.1774  0.3017
  417MOL0     C57476   6.682   4.078   1.043 -0.4726  0.0721 -0.1976
  417MOL0     H57477   7.015   3.692   1.201  2.3583  2.4839  0.7220
  417MOL0     H57478   7.198   3.536   1.120  0.0492 -0.4606 -0.2058
  417MOL0     H57479   7.369   3.414   1.014 -0.4715 -0.2391 -0.0173
  417MOL0     H57480   7.436   3.579   0.968 -1.2506  0.3866  0.6974
  417MOL0     H57481   7.577   3.367   0.903  0.0449 -2.6954 -1.1357
  417MOL0     H57482   7.448   3.310   0.813 -0.1141 -0.6741  0.8662
  417MOL0     H57483   7.600   3.566   0.753 -5.0513  1.3837  2.9254
  417MOL0     H57484   7.647   3.415   0.684  2.0412  0.7827  1.1309
  417MOL0     H57485   7.427   3.377   0.579 -0.3373  0.4824 -0.3023
  417MOL0     H57486   7.359   3.530   0.637 -0.4914 -1.0482 -0.4610
  417MOL0     H57487   7.608   3.504   0.463 -0.1408 -0.8332  1.9740
  417MOL0     H57488   7.531   3.661   0.521 -2.9282  0.5385  1.3530
  417MOL0     H57489   7.333   3.584   0.390 -1.0836 -0.6865 -0.6667
  417MOL0     H57490   7.482   3.634   0.305  1.0378 -1.5188  0.2605
  417MOL0     H57491   7.449   3.339   0.352 -0.6614 -0.9019 -0.3469
  417MOL0     H57492   7.508   3.429   0.203  1.9249 -2.9119  1.2008
  417MOL0     H57493   7.292   3.294   0.191 -0.3833  0.1927  0.9617
  417MOL0     H57494   7.220   3.419   0.293 -1.0090 -0.8616 -0.2581
  417MOL0     H57495   7.201   3.673   0.192 -1.3732 -2.5432  0.4146
  417MOL0     H57496   7.343   3.850  -0.049  0.5610  0.3325  1.2210
  417MOL0     H57497   7.213   3.853   0.073  0.8925 -2.2460  0.5261
  417MOL0     H57498   7.148   3.954  -0.146 -1.0807  1.0655  0.9524
  417MOL0     H57499   7.160   3.788  -0.218 -0.8279 -0.7000  0.6377
  417MOL0     H57500   6.983   3.729  -0.030  2.6829 -0.4225  0.3695
  417MOL0     H57501   6.954   3.902  -0.010 -0.6147  0.8908 -1.1347
  417MOL0     H57502   6.819   3.877  -0.181 -0.7546 -0.0868 -1.7900
  417MOL0     H57503   6.960   3.896  -0.284  1.5618  1.3526  2.6686
  417MOL0     H57504   6.932   3.488  -0.387 -1.4259 -1.7157 -0.3921
  417MOL0     H57505   6.918   3.385  -0.747 -2.3836 -0.1377 -0.6839
  417MOL0     H57506   6.811   3.313  -0.630  1.1267 -1.8802  2.4009
  417MOL0     H57507   6.973   3.359  -0.577  0.8306  2.0339 -0.5155
  417MOL0     H57508   6.875   3.710  -1.125 -0.0143 -2.3555 -2.0551
  417MOL0     H57509   6.755   3.716  -1.339 -3.1845  2.2955 -2.2683
  417MOL0     H57510   6.601   3.915  -1.436  0.0741  0.9530 -1.5313
  417MOL0     H57511   6.625   3.761  -1.522 -1.6773 -1.5412  0.4419
  417MOL0     H57512   6.378   3.937  -1.564  1.0840  0.6671  3.7287
  417MOL0     H57513   6.530   3.929  -1.663 -2.4812 -0.1052 -2.8727
  417MOL0     H57514   6.330   3.709  -1.632 -1.9703  0.6336 -2.1821
  417MOL0     H57515   6.491   3.705  -1.709  1.6242  1.8818  0.2492
  417MOL0     H57516   6.334   3.758  -1.912 -1.9938  1.7421 -2.1466
  417MOL0     H57517   6.401   3.911  -1.852  2.3687 -2.2151  0.9698
  417MOL0     H57518   6.186   3.929  -1.709  1.1233  0.6153  0.4252
  417MOL0     H57519   6.175   3.940  -1.884  0.3768 -1.4162 -0.2546
  417MOL0     H57520   6.129   3.675  -1.734 -2.7317 -0.8923  1.5596
  417MOL0     H57521   6.077   3.720  -1.899  2.9010  1.4062 -1.0616
  417MOL0     H57522   5.886   3.844  -1.812  0.8277  2.9191  0.9482
  417MOL0     H57523   5.965   3.868  -1.657  3.1095 -0.7181 -0.0050
  417MOL0     H57524   5.776   3.684  -1.688  0.5592 -0.1291 -1.0540
  417MOL0     H57525   5.935   3.660  -1.585 -3.0005  0.2177  2.3641
  417MOL0     H57526   6.389   3.752  -1.155  0.0610 -1.0140 -0.4683
  417MOL0     H57527   6.504   3.738  -0.922 -1.7716  1.1028 -0.8411
  417MOL0     H57528   6.761   3.855  -0.673  0.6257  0.0667  0.5811
  417MOL0     H57529   6.822   3.887  -0.441 -1.2196 -0.0939 -0.8467
  417MOL0     H57530   7.151   3.721   0.724  2.9430 -3.0460 -0.1661
  417MOL0     H57531   6.978   3.853   0.807 -0.8743  1.2777  2.3511
  417MOL0     H57532   6.525   3.640   1.095  0.7756  0.3363  2.3690
  417MOL0     H57533   6.299   3.716   1.091 -0.0456 -0.9825 -1.1292
  417MOL0     H57534   6.206   4.144   1.027  1.1560 -1.8273 -0.4368
  417MOL0     H57535   6.151   4.023   0.925  1.2466 -2.7031  0.7907
  417MOL0     H57536   5.969   4.177   1.010  1.8094  0.1527 -0.3892
  417MOL0     H57537   6.019   4.149   1.177  1.9907  1.5112 -1.0018
  417MOL0     H57538   5.915   3.929   0.997  0.9725 -1.7979  1.3343
  417MOL0     H57539   5.944   3.917   1.168  1.2312  0.9933 -0.1758
  417MOL0     H57540   5.769   4.109   1.211 -2.0387 -2.4690  2.3075
  417MOL0     H57541   5.721   3.950   1.183 -0.3390 -0.1503 -1.1536
  417MOL0     H57542   5.620   4.176   0.824  0.0634  1.4172  0.6158
  417MOL0     H57543   6.432   4.121   1.068 -1.7468 -0.9305  0.2415
  417MOL0     H57544   6.734   4.078   0.947 -0.8600 -1.2461 -0.4363
  417MOL0     H57545   6.651   4.180   1.068  2.0141  1.1201 -1.0733
  417MOL0     H57546   6.759   4.051   1.116  0.3690 -0.3670 -1.2297
  418MOL0     O57547   3.701   1.402   3.999  0.2770 -0.9003 -0.0620
  418MOL0     C57548   3.603   1.470   4.037  0.0836  0.2823  0.3862
  418MOL0     O57549   3.610   1.578   4.120 -0.1240  0.0655  0.2737
  418MOL0     C57550   3.732   1.599   4.188  0.3175 -0.4228  0.1985
  418MOL0     C57551   3.802   1.716   4.172  1.6167  0.3175  0.0832
  418MOL0     C57552   3.933   1.729   4.226 -0.5254  0.1350  0.1884
  418MOL0     C57553   3.995   1.631   4.311  0.7259  0.4493  0.3916
  418MOL0     O57554   4.111   1.641   4.383 -0.4382  0.0909 -0.4629
  418MOL0     C57555   4.205   1.743   4.332  0.4122  0.4624  0.0408
  418MOL0     C57556   4.338   1.756   4.410  0.3650 -0.0052  0.0240
  418MOL0     C57557   4.441   1.836   4.323  0.1650 -0.0155 -0.2131
  418MOL0     C57558   4.574   1.849   4.407  0.2145  0.7121  0.9909
  418MOL0     C57559   4.698   1.913   4.347 -0.0575  0.6118  0.0205
  418MOL0     C57560   4.828   1.914   4.433 -0.1116 -0.4683 -1.0502
  418MOL0     C57561   4.948   1.959   4.348 -0.8352  0.8627 -0.1692
  418MOL0     C57562   5.039   1.839   4.313  0.1800  0.0988 -0.5869
  418MOL0     N57563   5.164   1.828   4.402  0.3436  0.4672 -0.4081
  418MOL0     C57564   5.262   1.920   4.410  0.6059  0.7288 -0.3982
  418MOL0     C57565   5.353   1.861   4.482  0.8801  0.4448  0.6929
  418MOL0     C57566   5.487   1.921   4.520 -0.7153 -0.2928  0.2236
  418MOL0     C57567   5.494   1.979   4.663 -0.2223 -0.8821  0.2183
  418MOL0     C57568   5.550   1.883   4.761  0.0419 -0.4699  0.0760
  418MOL0     C57569   5.645   1.959   4.869 -0.7147 -0.3909  0.1433
  418MOL0     O57570   5.773   1.997   4.815  0.4690 -0.2958 -0.1261
  418MOL0     C57571   5.855   2.089   4.873 -0.0974  0.6222  0.4653
  418MOL0     C57572   5.847   2.147   4.996  0.2535  0.3174  0.5961
  418MOL0     C57573   5.932   2.238   5.051 -0.5714  0.3344  0.5644
  418MOL0     C57574   5.898   2.285   5.192 -0.3185 -0.0950  0.5949
  418MOL0     C57575   6.036   2.281   4.971 -0.7354 -0.3171  0.0619
  418MOL0     C57576   6.143   2.379   5.004  0.2446  0.4819 -0.2416
  418MOL0     O57577   6.261   2.354   4.957  0.1658  0.1109  0.0631
  418MOL0     C57578   6.366   2.424   5.007 -0.0065  0.5208 -0.6503
  418MOL0     C57579   6.408   2.373   5.130  0.1876  0.0659 -0.8975
  418MOL0     C57580   6.530   2.418   5.170  0.3421  0.8655 -0.6408
  418MOL0     C57581   6.610   2.501   5.093  0.4530  0.5625 -0.3062
  418MOL0     O57582   6.736   2.518   5.136  0.1146 -0.3458  0.2384
  418MOL0     C57583   6.780   2.655   5.135  0.5350  1.2050 -0.3672
  418MOL0     C57584   6.874   2.663   5.257  0.5002 -0.2248 -0.8780
  418MOL0     C57585   6.980   2.759   5.236 -0.2285 -0.9694 -0.7684
  418MOL0     C57586   7.069   2.773   5.363 -0.2786 -1.4940 -0.3964
  418MOL0     C57587   7.179   2.866   5.330 -0.9107 -0.4056  0.2409
  418MOL0     C57588   7.309   2.796   5.290  0.3741 -0.1827  0.3083
  418MOL0     C57589   7.421   2.893   5.273 -0.0932  0.5474  1.1502
  418MOL0     C57590   7.492   2.923   5.403  0.1062 -0.4199 -0.3712
  418MOL0    Cl57591   7.604   3.058   5.367 -0.1992 -0.0065 -0.3342
  418MOL0     C57592   6.555   2.562   4.982 -0.2767 -0.2050  0.1479
  418MOL0     C57593   6.428   2.526   4.936 -0.4378 -0.1705 -0.3586
  418MOL0     O57594   6.116   2.466   5.078 -0.0240 -0.0433  0.6500
  418MOL0     C57595   6.055   2.225   4.844  0.0279  0.2548 -0.4711
  418MOL0     C57596   5.965   2.124   4.798  0.1108 -0.6075  0.4776
  418MOL0     N57597   5.306   1.738   4.521  0.4576  0.0038  0.2017
  418MOL0     N57598   5.196   1.714   4.474  0.0604 -1.2057  0.3499
  418MOL0     C57599   3.922   1.510   4.321 -0.5244  0.0505  0.9004
  418MOL0     C57600   3.793   1.498   4.265  0.5021 -0.2275  0.5998
  418MOL0     C57601   3.471   1.415   4.005 -0.6964  0.4389 -0.1171
  418MOL0     C57602   3.472   1.289   3.935 -0.3035 -0.3785  0.4191
  418MOL0     C57603   3.364   1.213   3.908  0.0447  0.5568 -0.9876
  418MOL0     C57604   3.228   1.267   3.936 -0.1354 -0.3361  0.6100
  418MOL0     O57605   3.122   1.187   3.896 -0.5916 -0.3689 -0.6555
  418MOL0     C57606   2.989   1.237   3.925  0.3870 -0.6167 -0.3728
  418MOL0     C57607   2.897   1.111   3.926  0.1239  0.4471  0.2665
  418MOL0     C57608   2.922   1.014   4.045  0.0843 -0.7850 -0.4778
  418MOL0     C57609   3.061   0.950   4.072  0.1792 -0.6700  0.7773
  418MOL0     C57610   3.062   0.853   4.181  0.6843  0.5919  0.7548
  418MOL0     C57611   3.060   0.778   4.273  0.2109 -0.0740  0.1834
  418MOL0     C57612   3.222   1.392   3.995 -0.4181 -0.5015  0.2860
  418MOL0     C57613   3.340   1.468   4.032  0.4618 -0.5466 -0.1137
  418MOL0     C57614   3.315   1.614   4.071  0.2920  1.0178  0.6152
  418MOL0     H57615   3.754   1.806   4.133 -0.0135 -1.0533 -1.2700
  418MOL0     H57616   3.981   1.827   4.226  2.1164 -0.9309  3.7137
  418MOL0     H57617   4.163   1.844   4.322  2.2933  1.1046 -2.4618
  418MOL0     H57618   4.224   1.714   4.228  1.6281  0.0350  0.3619
  418MOL0     H57619   4.317   1.807   4.505  0.8334 -0.6532  0.4832
  418MOL0     H57620   4.366   1.651   4.427 -1.7413 -1.1032 -2.5785
  418MOL0     H57621   4.471   1.777   4.235  0.5539 -2.3724  1.4084
  418MOL0     H57622   4.404   1.932   4.285 -0.2063  0.3210  0.9779
  418MOL0     H57623   4.548   1.902   4.499  1.1864 -1.1833  2.4318
  418MOL0     H57624   4.591   1.742   4.424 -2.0883 -0.2148 -1.7574
  418MOL0     H57625   4.670   2.016   4.327 -2.7159 -0.2564 -1.1800
  418MOL0     H57626   4.708   1.874   4.246  1.1112  0.2083  0.2824
  418MOL0     H57627   4.813   1.975   4.522  1.3608 -1.5962  0.0288
  418MOL0     H57628   4.849   1.811   4.466  0.1096 -0.5160 -1.3298
  418MOL0     H57629   5.004   2.029   4.412 -0.2201 -0.9280  1.3484
  418MOL0     H57630   4.907   2.020   4.267  1.6699 -0.2854 -2.4388
  418MOL0     H57631   4.981   1.746   4.318 -2.4603  1.6236 -1.0204
  418MOL0     H57632   5.071   1.857   4.210  0.6141 -0.8598 -0.6286
  418MOL0     H57633   5.263   2.020   4.367  0.8932 -0.0158 -2.2471
  418MOL0     H57634   5.511   2.006   4.455 -1.3838  0.6455  1.1584
  418MOL0     H57635   5.567   1.847   4.512  0.6269  0.9955  1.1563
  418MOL0     H57636   5.550   2.073   4.667 -0.4944 -0.6770 -0.6578
  418MOL0     H57637   5.395   1.996   4.705  0.2886 -0.0710  1.1624
  418MOL0     H57638   5.473   1.839   4.825  0.1593  2.4471  2.4396
  418MOL0     H57639   5.606   1.801   4.714  0.8816  0.9251 -1.4603
  418MOL0     H57640   5.593   2.054   4.888  0.6995  0.5492 -0.5111
  418MOL0     H57641   5.659   1.913   4.967  2.8500  1.7898  0.8291
  418MOL0     H57642   5.760   2.114   5.053  0.2582 -1.4281 -0.3395
  418MOL0     H57643   5.972   2.348   5.242  0.8569 -0.0202 -1.1455
  418MOL0     H57644   5.872   2.196   5.250  2.4765 -2.8415 -2.0374
  418MOL0     H57645   5.807   2.343   5.173 -1.0025 -1.4148 -0.2495
  418MOL0     H57646   6.347   2.300   5.183  2.0693 -2.0877 -1.5454
  418MOL0     H57647   6.559   2.379   5.267  0.3028  2.6929  0.1491
  418MOL0     H57648   6.844   2.676   5.049  1.6600 -0.4745 -0.0001
  418MOL0     H57649   6.700   2.728   5.144 -2.0399 -1.1080 -2.4480
  418MOL0     H57650   6.814   2.685   5.346 -0.1802 -2.4301 -0.7401
  418MOL0     H57651   6.911   2.564   5.284 -2.2809 -0.4361  3.1442
  418MOL0     H57652   6.933   2.855   5.212 -1.1756 -1.0754  0.5335
  418MOL0     H57653   7.049   2.726   5.158 -0.0588  0.2813 -1.1643
  418MOL0     H57654   7.118   2.681   5.398 -0.3096 -1.9654 -1.5658
  418MOL0     H57655   7.012   2.818   5.445 -1.1139  1.2638 -2.3284
  418MOL0     H57656   7.151   2.939   5.253  0.6022 -0.5197 -0.4686
  418MOL0     H57657   7.186   2.926   5.421  2.0517  0.9789 -0.7827
  418MOL0     H57658   7.300   2.752   5.190  2.9711 -0.1886 -0.0086
  418MOL0     H57659   7.320   2.724   5.372 -0.1405  0.5738  1.0591
  418MOL0     H57660   7.375   2.987   5.241 -1.9866  0.1269  2.4586
  418MOL0     H57661   7.492   2.863   5.195 -0.9614 -0.0905  0.5787
  418MOL0     H57662   7.547   2.841   5.449  0.9201  1.0596  1.4322
  418MOL0     H57663   7.423   2.947   5.485  0.9380 -1.2287  0.5852
  418MOL0     H57664   6.609   2.629   4.916 -1.3823  0.5930  0.0069
  418MOL0     H57665   6.397   2.574   4.843  1.8567  0.1667 -1.0205
  418MOL0     H57666   6.145   2.242   4.786  0.0532 -1.7832 -1.1032
  418MOL0     H57667   5.990   2.072   4.706 -2.0498  0.9689 -1.0958
  418MOL0     H57668   3.966   1.432   4.383  0.5191  0.1187  0.2642
  418MOL0     H57669   3.744   1.401   4.272 -0.6730 -0.2531 -4.2412
  418MOL0     H57670   3.568   1.250   3.903  1.6305  1.5692  3.3138
  418MOL0     H57671   3.372   1.120   3.853  0.7867  0.0840 -0.0941
  418MOL0     H57672   2.987   1.285   4.024  2.0870  0.1959 -0.6910
  418MOL0     H57673   2.962   1.305   3.843  3.8946  2.5392  0.8059
  418MOL0     H57674   2.917   1.061   3.831 -0.9694  0.6744 -0.1019
  418MOL0     H57675   2.792   1.143   3.924 -0.4763 -1.3261  1.0440
  418MOL0     H57676   2.898   1.076   4.133  0.4484 -0.4239 -0.6303
  418MOL0     H57677   2.846   0.935   4.047  1.9924 -2.7162 -0.9877
  418MOL0     H57678   3.139   1.023   4.095  0.5007 -0.6952 -0.1692
  418MOL0     H57679   3.089   0.901   3.978  3.9764  1.2868  0.7064
  418MOL0     H57680   3.065   0.699   4.346  0.2283  1.8190  2.3436
  418MOL0     H57681   3.125   1.436   4.015 -0.7308 -1.2894  0.5158
  418MOL0     H57682   3.274   1.663   3.982  3.1664  1.0936 -0.7672
  418MOL0     H57683   3.237   1.605   4.147  0.2941  0.3752  0.5455
  418MOL0     H57684   3.402   1.665   4.112  1.6633 -0.9367  0.2657
  419MOL0     O57685   1.542   9.320   6.786 -1.2989  0.0636 -0.1698
  419MOL0     C57686   1.474   9.420   6.805 -0.4084 -0.2640 -0.0983
  419MOL0     O57687   1.513   9.540   6.854  0.3769 -0.1537  0.0763
  419MOL0     C57688   1.626   9.533   6.936 -0.0656 -0.4457 -0.2260
  419MOL0     C57689   1.742   9.586   6.889 -0.5755 -0.3011  0.0521
  419MOL0     C57690   1.852   9.583   6.971 -0.3363  0.2774 -0.0028
  419MOL0     C57691   1.857   9.527   7.100  0.0568 -0.2922 -1.1623
  419MOL0     O57692   1.969   9.524   7.183 -0.1323 -0.3330 -0.2507
  419MOL0     C57693   2.094   9.574   7.134 -0.5500  0.1104  0.1324
  419MOL0     C57694   2.203   9.488   7.199  0.2960 -0.3743 -0.5365
  419MOL0     C57695   2.202   9.344   7.166  0.0538  0.3461  0.1183
  419MOL0     C57696   2.330   9.270   7.203  0.0870  0.2485  0.0728
  419MOL0     C57697   2.321   9.117   7.201 -0.2997  0.3151 -0.7375
  419MOL0     C57698   2.307   9.056   7.066  0.1187  0.5861  0.1833
  419MOL0     C57699   2.273   8.904   7.068 -0.3728 -0.5213 -0.2287
  419MOL0     C57700   2.224   8.866   6.930  0.7095 -0.3532  0.3523
  419MOL0     N57701   2.082   8.896   6.904 -0.3595  0.4682 -0.4800
  419MOL0     C57702   1.989   8.950   6.990 -0.2929  0.5140  0.5382
  419MOL0     C57703   1.887   8.967   6.910 -0.4453  0.2532  0.8625
  419MOL0     C57704   1.759   9.040   6.933  0.1826  0.0631 -0.4599
  419MOL0     C57705   1.680   8.976   7.052 -0.4658 -0.1350 -0.3292
  419MOL0     C57706   1.632   8.833   7.016 -0.0105  0.1284 -0.6557
  419MOL0     C57707   1.610   8.753   7.142  0.3069  0.3499  0.2136
  419MOL0     O57708   1.532   8.831   7.244  0.0504 -0.0831 -0.0778
  419MOL0     C57709   1.398   8.860   7.228 -0.3112  0.3762 -0.0549
  419MOL0     C57710   1.364   8.993   7.234  0.1678  0.7947  0.4175
  419MOL0     C57711   1.231   9.036   7.211 -0.9000 -0.1591 -0.0427
  419MOL0     C57712   1.199   9.184   7.223  0.8522 -0.3607  0.2084
  419MOL0     C57713   1.141   8.936   7.172 -0.3029  0.0774  0.0679
  419MOL0     C57714   1.006   8.960   7.124 -0.1189  0.1958 -0.2834
  419MOL0     O57715   0.928   8.845   7.096 -0.2958 -0.1003  0.0311
  419MOL0     C57716   0.802   8.865   7.038  0.6090  0.2318  0.9889
  419MOL0     C57717   0.795   8.857   6.899 -1.3086  0.0269 -0.1137
  419MOL0     C57718   0.675   8.875   6.833  0.4797  0.4852 -0.2196
  419MOL0     C57719   0.559   8.901   6.902  0.6499 -1.8351 -0.0660
  419MOL0     O57720   0.440   8.906   6.835  0.4800  0.4598 -0.2479
  419MOL0     C57721   0.320   8.932   6.906 -0.3369  0.7533 -0.9338
  419MOL0     C57722   0.210   8.921   6.805  0.2671  0.3653  0.0637
  419MOL0     C57723   0.071   8.939   6.869 -0.2623 -0.2852 -0.0225
  419MOL0     C57724   0.034   8.834   6.979 -0.0637  0.6032  0.1584
  419MOL0     C57725  -0.120   8.823   7.014 -0.4547 -0.8581  0.1466
  419MOL0     C57726  -0.163   8.956   7.069  0.2680  0.1405  0.1101
  419MOL0     C57727  -0.302   8.944   7.124 -0.1295 -0.3813 -0.1147
  419MOL0     C57728  -0.332   9.058   7.217 -0.2649  0.1857  0.3476
  419MOL0    Cl57729  -0.496   9.047   7.282 -0.5762  0.3923 -0.0128
  419MOL0     C57730   0.574   8.921   7.038 -0.2500 -0.4068  0.2774
  419MOL0     C57731   0.690   8.892   7.109  1.0096 -0.4577  0.4333
  419MOL0     O57732   0.979   9.073   7.093 -0.5723  0.8748 -0.4336
  419MOL0     C57733   1.176   8.801   7.181 -0.8121 -0.3981  0.5476
  419MOL0     C57734   1.302   8.760   7.223 -0.9069  0.1942  0.6561
  419MOL0     N57735   1.913   8.930   6.786  0.0956  1.3701 -0.0980
  419MOL0     N57736   2.029   8.893   6.783 -0.0157 -0.3470  0.3480
  419MOL0     C57737   1.739   9.471   7.147 -0.0490  0.4146 -0.1716
  419MOL0     C57738   1.626   9.461   7.065 -0.1962  0.1108 -0.3893
  419MOL0     C57739   1.331   9.413   6.785 -0.4372  1.0368  0.6368
  419MOL0     C57740   1.261   9.533   6.745  0.1026 -0.8132  0.1039
  419MOL0     C57741   1.118   9.543   6.754 -0.4316 -0.4485  0.9572
  419MOL0     C57742   1.041   9.436   6.796 -0.0050  0.1797  0.2379
  419MOL0     O57743   0.902   9.446   6.791  0.3283 -0.7327  0.2976
  419MOL0     C57744   0.826   9.337   6.832  0.1610 -0.2332 -0.2250
  419MOL0     C57745   0.684   9.398   6.855  0.1737  0.0933  0.2943
  419MOL0     C57746   0.580   9.282   6.846  0.4165 -0.1049 -0.0738
  419MOL0     C57747   0.434   9.316   6.859  0.6911  0.1168  0.8495
  419MOL0     C57748   0.385   9.401   6.758  0.8101  0.2460 -0.0651
  419MOL0     C57749   0.357   9.472   6.666 -0.3166 -0.4081  0.3302
  419MOL0     C57750   1.111   9.310   6.808  0.8577  0.4080 -0.9461
  419MOL0     C57751   1.252   9.293   6.816 -0.1715 -0.2263  0.1912
  419MOL0     C57752   1.298   9.152   6.831 -0.1259  0.5936 -1.0944
  419MOL0     H57753   1.750   9.633   6.791 -0.9485  0.7502  0.5095
  419MOL0     H57754   1.941   9.625   6.926 -0.6287  1.5488  0.5419
  419MOL0     H57755   2.108   9.680   7.157 -3.4080  0.9042 -1.2553
  419MOL0     H57756   2.115   9.567   7.027  2.0697 -3.6890  0.6855
  419MOL0     H57757   2.303   9.532   7.193 -0.1569  1.4483  2.6368
  419MOL0     H57758   2.187   9.501   7.307 -2.2164  0.3344 -0.9368
  419MOL0     H57759   2.118   9.308   7.226 -0.2109 -1.5918 -1.2963
  419MOL0     H57760   2.165   9.319   7.066 -3.9987 -1.2910  1.7841
  419MOL0     H57761   2.410   9.304   7.136  0.6705  0.3921  0.8322
  419MOL0     H57762   2.346   9.300   7.307 -4.5515  0.2641  1.0031
  419MOL0     H57763   2.227   9.084   7.246  2.2783 -5.2164  1.5073
  419MOL0     H57764   2.407   9.068   7.247 -1.0373 -0.4563 -0.1625
  419MOL0     H57765   2.220   9.114   7.033 -0.2381  1.4428  2.4434
  419MOL0     H57766   2.398   9.085   7.012  1.2869 -3.4443 -0.2802
  419MOL0     H57767   2.200   8.871   7.143 -1.9089 -2.3525 -2.3731
  419MOL0     H57768   2.368   8.855   7.091 -0.2229 -1.2542 -2.2193
  419MOL0     H57769   2.289   8.919   6.859  5.4259 -2.9456  2.2747
  419MOL0     H57770   2.236   8.759   6.912  2.6660  0.0132 -0.8420
  419MOL0     H57771   1.987   8.987   7.092  1.6844  0.1556  0.7307
  419MOL0     H57772   1.695   9.022   6.846 -1.0062 -5.3162  1.1391
  419MOL0     H57773   1.784   9.143   6.962  0.1506 -0.2585  0.7431
  419MOL0     H57774   1.738   8.973   7.145 -1.2211 -1.2635  0.1378
  419MOL0     H57775   1.594   9.036   7.083 -0.0644  0.0863  0.3724
  419MOL0     H57776   1.540   8.831   6.957  0.2842  0.2904 -1.1267
  419MOL0     H57777   1.693   8.770   6.951  0.9477  0.1545  0.1934
  419MOL0     H57778   1.552   8.662   7.129  0.8907  0.1365 -1.1005
  419MOL0     H57779   1.710   8.726   7.178  1.3861  1.6746 -1.6066
  419MOL0     H57780   1.432   9.077   7.248 -1.7240  2.1313  2.1864
  419MOL0     H57781   1.119   9.181   7.297  1.4268 -0.9538  0.8291
  419MOL0     H57782   1.182   9.228   7.125  1.3009  0.4326  0.4777
  419MOL0     H57783   1.274   9.244   7.275 -0.0414 -0.0752  1.1955
  419MOL0     H57784   0.880   8.848   6.832 -1.0946 -0.4862  0.2267
  419MOL0     H57785   0.668   8.858   6.726  0.4520  3.2511 -0.7315
  419MOL0     H57786   0.309   8.853   6.980  2.1811  0.4721 -0.7904
  419MOL0     H57787   0.321   9.032   6.949  3.4659  1.6857 -2.7671
  419MOL0     H57788   0.223   8.991   6.722  0.9363  0.4379  0.2251
  419MOL0     H57789   0.223   8.822   6.759 -3.0518 -0.3001  0.3226
  419MOL0     H57790   0.007   8.921   6.783  0.5898  0.9793 -0.9602
  419MOL0     H57791   0.059   9.042   6.904  2.2429  0.6759 -1.7056
  419MOL0     H57792   0.087   8.864   7.070 -0.2939  0.6309  0.2818
  419MOL0     H57793   0.080   8.739   6.950  1.8582  1.5392 -0.0720
  419MOL0     H57794  -0.171   8.801   6.920  3.4310 -1.1376 -2.0952
  419MOL0     H57795  -0.125   8.739   7.084  3.0804 -1.1081  0.2629
  419MOL0     H57796  -0.143   9.038   6.999  0.4983 -0.4935 -0.5773
  419MOL0     H57797  -0.100   8.981   7.155  1.4973 -0.3707 -0.6118
  419MOL0     H57798  -0.317   8.848   7.173  1.5758 -0.1634  0.9214
  419MOL0     H57799  -0.364   8.950   7.034  1.5548  1.8831 -1.2232
  419MOL0     H57800  -0.327   9.149   7.157  1.1225  1.1700  1.8439
  419MOL0     H57801  -0.252   9.074   7.291 -0.1863  2.9574 -0.2331
  419MOL0     H57802   0.483   8.949   7.091 -0.0492 -0.6494  0.7514
  419MOL0     H57803   0.680   8.892   7.217 -0.3616 -0.4074  0.3253
  419MOL0     H57804   1.106   8.722   7.158  0.2713 -0.4101 -3.4170
  419MOL0     H57805   1.319   8.657   7.250  1.5561  0.4876  0.4491
  419MOL0     H57806   1.742   9.416   7.240 -2.3749 -1.0785 -0.8752
  419MOL0     H57807   1.540   9.409   7.104  0.5212  0.4883  1.8678
  419MOL0     H57808   1.321   9.619   6.719  1.1357 -1.3955  0.4709
  419MOL0     H57809   1.069   9.631   6.714 -0.8578 -1.5469 -1.0986
  419MOL0     H57810   0.826   9.254   6.761  1.0759 -1.4130  1.1045
  419MOL0     H57811   0.866   9.314   6.931  0.1594  3.9941  0.9611
  419MOL0     H57812   0.650   9.476   6.787  0.6621 -0.0381 -0.1080
  419MOL0     H57813   0.678   9.429   6.960 -1.2324  1.7454 -0.2360
  419MOL0     H57814   0.589   9.219   6.757  0.8350 -0.6844  0.3713
  419MOL0     H57815   0.609   9.216   6.928  2.8161  1.6375  0.5797
  419MOL0     H57816   0.416   9.377   6.948 -3.3029  1.2830 -0.5520
  419MOL0     H57817   0.370   9.228   6.876  1.1324 -0.0770  1.5358
  419MOL0     H57818   0.343   9.522   6.572  0.1533  0.3528  0.6538
  419MOL0     H57819   1.056   9.217   6.822  0.3033  0.6985 -1.1403
  419MOL0     H57820   1.369   9.137   6.749  0.5015 -0.8292 -0.3139
  419MOL0     H57821   1.348   9.156   6.928  0.8411 -0.6983 -1.5107
  419MOL0     H57822   1.215   9.081   6.828 -0.4814  0.8780  0.9402
  420MOL0     O57823   6.313  10.968   0.176  0.2711 -0.0146 -0.2239
  420MOL0     C57824   6.420  10.918   0.222  0.0151  0.2690 -0.4218
  420MOL0     O57825   6.438  10.793   0.261 -0.5832  0.2741  0.4627
  420MOL0     C57826   6.341  10.696   0.246 -0.3913  0.1523  1.0116
  420MOL0     C57827   6.204  10.709   0.256  0.3085  0.0448 -0.6123
  420MOL0     C57828   6.110  10.602   0.233  0.2320  0.3464  0.8918
  420MOL0     C57829   6.156  10.475   0.197 -0.1675  0.2479  0.4518
  420MOL0     O57830   6.076  10.369   0.177  0.6659 -0.5065  0.0264
  420MOL0     C57831   5.983  10.351   0.292  1.6235  0.2619 -0.2547
  420MOL0     C57832   5.864  10.252   0.250 -0.1321 -1.7252 -0.7211
  420MOL0     C57833   5.786  10.233   0.380  0.9339  0.3508 -0.3756
  420MOL0     C57834   5.634  10.200   0.355  0.0423 -0.7520 -0.4306
  420MOL0     C57835   5.581  10.110   0.468  0.2487 -0.1231  0.9478
  420MOL0     C57836   5.426  10.082   0.441  0.3318  0.4541 -0.3258
  420MOL0     C57837   5.383   9.956   0.526 -0.2973 -0.4625 -0.3319
  420MOL0     C57838   5.424   9.973   0.665 -0.0001  0.4101  0.2050
  420MOL0     N57839   5.383  10.099   0.712  0.1249 -0.0255 -0.5451
  420MOL0     C57840   5.250  10.134   0.715  0.4539 -0.3021 -0.5843
  420MOL0     C57841   5.249  10.254   0.782 -0.2935 -0.4868 -0.4683
  420MOL0     C57842   5.129  10.337   0.818  0.1894 -0.3497  0.5432
  420MOL0     C57843   5.070  10.423   0.702  0.7763  0.4233 -0.2652
  420MOL0     C57844   5.007  10.351   0.578  0.2540 -0.0696  0.5431
  420MOL0     C57845   4.891  10.252   0.606  0.3613  0.5687  0.2143
  420MOL0     O57846   4.780  10.316   0.668  0.6564 -0.4730  0.2260
  420MOL0     C57847   4.702  10.396   0.578  0.4158 -0.6908 -0.4153
  420MOL0     C57848   4.642  10.507   0.643  0.3408  0.1376  0.0157
  420MOL0     C57849   4.577  10.598   0.563 -0.4904  0.6147 -0.5217
  420MOL0     C57850   4.527  10.717   0.631  0.2177 -0.2157 -0.2622
  420MOL0     C57851   4.568  10.578   0.428  0.4260  0.3244  0.6915
  420MOL0     C57852   4.513  10.679   0.340  0.0270  0.2706 -0.1349
  420MOL0     O57853   4.594  10.751   0.247  0.1894 -0.0830  0.1591
  420MOL0     C57854   4.732  10.751   0.250  0.7147  0.6465  0.2793
  420MOL0     C57855   4.808  10.692   0.147  0.3386  0.1000  0.0877
  420MOL0     C57856   4.943  10.670   0.170  0.6107  0.2831  0.0876
  420MOL0     C57857   5.013  10.709   0.278  0.1957  0.1236 -0.1381
  420MOL0     O57858   5.147  10.697   0.272  0.1905  0.2883 -0.6508
  420MOL0     C57859   5.199  10.651   0.397 -0.8345 -0.0090  0.3303
  420MOL0     C57860   5.341  10.604   0.378 -0.4436  0.4772  0.5355
  420MOL0     C57861   5.406  10.581   0.515  0.3740 -0.2652 -0.4438
  420MOL0     C57862   5.558  10.593   0.517  0.5134 -0.4709  0.0146
  420MOL0     C57863   5.612  10.557   0.651 -0.2990 -0.3184 -0.7116
  420MOL0     C57864   5.769  10.577   0.642 -0.6496 -0.3597 -0.1107
  420MOL0     C57865   5.846  10.549   0.776  0.2182 -0.1856 -0.2000
  420MOL0     C57866   5.993  10.530   0.746 -0.7222  0.2800  0.1954
  420MOL0    Cl57867   6.036  10.370   0.662 -0.5220 -0.4810  0.1101
  420MOL0     C57868   4.938  10.767   0.383  0.2781 -0.0040 -0.7458
  420MOL0     C57869   4.799  10.784   0.368  0.0644 -0.0716  0.6745
  420MOL0     O57870   4.391  10.694   0.357  0.9599  0.8806  0.8734
  420MOL0     C57871   4.616  10.459   0.364  0.2612 -0.9817  0.2027
  420MOL0     C57872   4.684  10.374   0.442  0.2586 -0.0184 -0.2547
  420MOL0     N57873   5.381  10.286   0.805 -0.2441  0.1154 -0.1246
  420MOL0     N57874   5.462  10.188   0.772  0.2985 -0.1540 -0.6515
  420MOL0     C57875   6.293  10.458   0.188 -0.7139 -0.2831  0.0581
  420MOL0     C57876   6.387  10.561   0.219  0.5155 -0.2417 -0.9581
  420MOL0     C57877   6.536  11.010   0.230 -0.3767  0.1415  0.3868
  420MOL0     C57878   6.662  10.959   0.196 -0.0881  0.4787  0.1570
  420MOL0     C57879   6.785  11.032   0.203  0.5295  1.0946  0.1817
  420MOL0     C57880   6.788  11.163   0.245 -0.0475 -0.6798  0.4564
  420MOL0     O57881   6.905  11.235   0.249 -1.0120 -0.3540  0.0649
  420MOL0     C57882   6.913  11.337   0.346  0.4396 -0.0965 -0.2594
  420MOL0     C57883   7.056  11.395   0.347  0.1738  0.0963 -0.0224
  420MOL0     C57884   7.061  11.541   0.397 -0.0402  0.3954 -1.1230
  420MOL0     C57885   7.189  11.561   0.488  0.4952 -1.0145  0.1274
  420MOL0     C57886   7.210  11.702   0.523 -0.3607  0.7033  1.1174
  420MOL0     C57887   7.225  11.817   0.532  0.8597 -0.8317  0.1429
  420MOL0     C57888   6.670  11.208   0.289  0.5228 -0.6611 -0.1030
  420MOL0     C57889   6.543  11.145   0.280  0.4325  0.3612  0.2136
  420MOL0     C57890   6.420  11.222   0.332 -0.1700  0.3275 -0.2673
  420MOL0     H57891   6.160  10.802   0.289  2.2455 -0.7979  5.7115
  420MOL0     H57892   6.002  10.609   0.237 -0.0236 -1.3666 -1.1740
  420MOL0     H57893   5.943  10.442   0.337  1.0119 -1.0167  1.9288
  420MOL0     H57894   6.043  10.301   0.368  1.3833 -1.5692 -1.2004
  420MOL0     H57895   5.797  10.304   0.180 -1.3707 -1.9655  0.2574
  420MOL0     H57896   5.905  10.160   0.208  1.8012 -1.4009  0.3733
  420MOL0     H57897   5.836  10.153   0.436 -0.6748 -0.5146 -0.1312
  420MOL0     H57898   5.796  10.320   0.447 -0.3939  0.8126 -0.7481
  420MOL0     H57899   5.579  10.294   0.357  0.7332 -0.3390 -0.1759
  420MOL0     H57900   5.618  10.157   0.256 -1.4813  0.0032 -0.5422
  420MOL0     H57901   5.600  10.153   0.567 -1.1232 -0.1390  1.2363
  420MOL0     H57902   5.634  10.014   0.468 -1.3413 -1.0959 -1.6726
  420MOL0     H57903   5.372  10.175   0.461 -0.3055 -0.3438  2.1235
  420MOL0     H57904   5.406  10.052   0.338  0.1503  0.9609 -0.4404
  420MOL0     H57905   5.440   9.873   0.482 -0.2825 -0.5514 -0.1503
  420MOL0     H57906   5.275   9.944   0.525 -0.1496 -2.6233  1.0937
  420MOL0     H57907   5.378   9.886   0.711  0.4427  0.1510  0.1578
  420MOL0     H57908   5.533   9.969   0.671 -0.0026 -0.3236 -0.1853
  420MOL0     H57909   5.157  10.081   0.694  0.4996 -0.5413 -0.1892
  420MOL0     H57910   5.157  10.405   0.899 -0.3024 -0.7872  1.0987
  420MOL0     H57911   5.054  10.267   0.857 -0.2701 -1.4371 -2.0857
  420MOL0     H57912   4.992  10.489   0.742 -0.3754 -0.3104 -1.2140
  420MOL0     H57913   5.140  10.499   0.666 -1.2827  2.2001 -0.7643
  420MOL0     H57914   4.975  10.421   0.500 -2.6167 -0.8869  0.8560
  420MOL0     H57915   5.088  10.292   0.537  0.1626  0.7323 -0.8657
  420MOL0     H57916   4.865  10.206   0.511 -1.0521  3.2300 -0.7918
  420MOL0     H57917   4.908  10.170   0.676 -0.0202 -0.6699 -1.1037
  420MOL0     H57918   4.650  10.507   0.751 -0.2695 -1.8028  0.1022
  420MOL0     H57919   4.419  10.713   0.616  0.3897 -0.8932 -1.4160
  420MOL0     H57920   4.569  10.811   0.594  3.0740 -0.8574  1.0246
  420MOL0     H57921   4.551  10.710   0.738  0.9906 -1.5295 -0.4943
  420MOL0     H57922   4.750  10.654   0.063 -0.7944 -0.3335  1.0498
  420MOL0     H57923   4.997  10.610   0.097  1.0814 -0.1629  0.7986
  420MOL0     H57924   5.198  10.720   0.482  1.7163  2.4613 -1.4532
  420MOL0     H57925   5.135  10.564   0.413  0.9201 -1.7853 -1.6258
  420MOL0     H57926   5.343  10.510   0.322 -1.1684 -1.3148  3.2602
  420MOL0     H57927   5.387  10.685   0.321 -1.4468  0.4292 -0.3716
  420MOL0     H57928   5.373  10.483   0.552 -1.7747  0.3350 -0.6113
  420MOL0     H57929   5.379  10.667   0.577  0.3375 -0.1702 -0.5912
  420MOL0     H57930   5.571  10.701   0.503 -0.6568 -0.3362 -0.2169
  420MOL0     H57931   5.605  10.530   0.441 -0.0941  0.8155 -1.4891
  420MOL0     H57932   5.568  10.622   0.727  0.3513 -0.8479  0.1319
  420MOL0     H57933   5.583  10.455   0.677 -0.1946  0.3307  2.3938
  420MOL0     H57934   5.791  10.677   0.605 -2.1242 -0.7813 -2.3166
  420MOL0     H57935   5.805  10.504   0.569  0.5677 -1.0129  1.1008
  420MOL0     H57936   5.816  10.460   0.833  0.0262 -1.5782 -2.3534
  420MOL0     H57937   5.848  10.642   0.833 -2.0000 -1.3961  2.0199
  420MOL0     H57938   6.050  10.555   0.837 -1.7033  0.9699  0.6333
  420MOL0     H57939   6.030  10.610   0.680  0.6203  0.4083  1.0548
  420MOL0     H57940   4.969  10.791   0.484 -0.9953  2.6363 -0.9201
  420MOL0     H57941   4.748  10.828   0.453  1.2488  1.3447  0.7039
  420MOL0     H57942   4.592  10.441   0.260 -0.1866  0.5660  0.0097
  420MOL0     H57943   4.731  10.288   0.395 -1.9542 -0.4758 -1.8164
  420MOL0     H57944   6.339  10.365   0.158  2.7578  1.4093 -0.3794
  420MOL0     H57945   6.493  10.541   0.216  0.3923 -0.7374 -3.0456
  420MOL0     H57946   6.673  10.852   0.185 -2.0177  0.3975 -1.7137
  420MOL0     H57947   6.872  10.972   0.178  0.4215  0.2883  1.6276
  420MOL0     H57948   6.845  11.415   0.311 -1.0159 -0.4622  1.5961
  420MOL0     H57949   6.889  11.306   0.448 -0.9931  1.3199 -0.1260
  420MOL0     H57950   7.099  11.396   0.246  0.7404 -0.7485  0.2039
  420MOL0     H57951   7.118  11.325   0.404  2.9816  1.7199 -0.9057
  420MOL0     H57952   7.068  11.611   0.314 -1.0297  0.8153 -0.8692
  420MOL0     H57953   6.969  11.547   0.456  1.2477 -0.3344  1.0613
  420MOL0     H57954   7.282  11.533   0.436  0.0928  0.7117 -1.6583
  420MOL0     H57955   7.190  11.494   0.574  2.1865 -1.6150 -0.3068
  420MOL0     H57956   7.232  11.923   0.543  2.0507 -0.6505 -1.8106
  420MOL0     H57957   6.659  11.310   0.325 -1.0176 -1.6767  2.6003
  420MOL0     H57958   6.392  11.293   0.254 -1.0218 -0.1385 -0.3882
  420MOL0     H57959   6.331  11.161   0.346 -0.0895  0.0414 -0.9796
  420MOL0     H57960   6.442  11.283   0.421  0.4526  2.8641 -2.0485
  421MOL0     O57961   8.685   4.698   7.158  0.2344 -0.1538  0.3791
  421MOL0     C57962   8.783   4.631   7.184 -0.3487  1.0053  0.3777
  421MOL0     O57963   8.902   4.633   7.116  0.0918  0.0365  0.8166
  421MOL0     C57964   8.923   4.744   7.039 -0.0265 -0.0126 -0.3111
  421MOL0     C57965   8.963   4.857   7.110  0.6682  0.1988 -0.1828
  421MOL0     C57966   9.016   4.973   7.044  0.3204  1.8095  0.0171
  421MOL0     C57967   9.030   4.968   6.901 -0.0305 -0.1542 -0.7249
  421MOL0     O57968   9.093   5.081   6.838 -0.2408 -0.2342 -0.2631
  421MOL0     C57969   9.098   5.092   6.692 -0.6158  0.5834  0.0908
  421MOL0     C57970   9.207   5.001   6.639 -0.1961  1.1789  0.5091
  421MOL0     C57971   9.352   5.017   6.680 -0.3892  0.0254 -0.3534
  421MOL0     C57972   9.410   5.157   6.658  0.0289 -0.4589  0.2533
  421MOL0     C57973   9.565   5.149   6.628  0.5225 -0.3257 -0.7774
  421MOL0     C57974   9.641   5.104   6.757 -0.2319  0.0134 -0.0561
  421MOL0     C57975   9.780   5.048   6.740  0.6842  0.1605 -0.3736
  421MOL0     C57976   9.782   4.913   6.686  0.2174  0.1404  1.2351
  421MOL0     N57977   9.921   4.875   6.646  0.2683 -0.1579 -1.2303
  421MOL0     C57978   9.984   4.930   6.537 -0.6708  0.5237 -0.3369
  421MOL0     C57979  10.112   4.905   6.569  0.8270  0.0573 -0.1805
  421MOL0     C57980  10.231   4.930   6.483  0.2452  0.1782 -0.3794
  421MOL0     C57981  10.367   4.871   6.536  0.3750  0.0134 -0.4564
  421MOL0     C57982  10.374   4.719   6.522 -0.3900  0.1298  0.1739
  421MOL0     C57983  10.386   4.647   6.654  0.6032  0.0445 -0.2233
  421MOL0     O57984  10.490   4.687   6.741  0.1626 -0.5733  0.8874
  421MOL0     C57985  10.520   4.622   6.851 -0.4692 -0.0819 -0.1380
  421MOL0     C57986  10.442   4.575   6.949  0.7951 -0.1469 -0.0857
  421MOL0     C57987  10.491   4.526   7.067 -0.3478 -0.0378 -0.8194
  421MOL0     C57988  10.384   4.480   7.168  0.5722  0.6041 -0.0895
  421MOL0     C57989  10.630   4.511   7.096  0.0913 -0.0235  0.4839
  421MOL0     C57990  10.706   4.468   7.216  0.3279 -0.6769 -0.7875
  421MOL0     O57991  10.835   4.435   7.200 -0.2343 -0.1048  0.8127
  421MOL0     C57992  10.891   4.358   7.306 -0.6320 -0.8343  0.2014
  421MOL0     C57993  10.838   4.237   7.349 -0.2777 -1.0054 -1.2270
  421MOL0     C57994  10.882   4.172   7.461  0.2563 -0.8572 -0.1957
  421MOL0     C57995  10.992   4.224   7.524 -0.1064  1.1582 -0.9158
  421MOL0     O57996  11.036   4.177   7.648  0.4438  0.8727 -0.1236
  421MOL0     C57997  11.060   4.038   7.655 -0.7487 -0.2851  0.0458
  421MOL0     C57998  11.215   4.011   7.645  0.1114  0.0781  0.1715
  421MOL0     C57999  11.253   3.884   7.578  0.3216 -0.1092  0.0746
  421MOL0     C58000  11.397   3.854   7.618  0.3035 -1.0595  0.4347
  421MOL0     C58001  11.442   3.726   7.564 -0.8702 -0.9088  1.4540
  421MOL0     C58002  11.589   3.693   7.591  0.5445 -0.1423  0.6735
  421MOL0     C58003  11.624   3.558   7.545  0.3595  0.3612  0.3896
  421MOL0     C58004  11.772   3.520   7.553 -0.4302 -0.2934  1.0384
  421MOL0    Cl58005  11.792   3.354   7.504  0.6634 -0.4682  0.1802
  421MOL0     C58006  11.060   4.336   7.474 -0.6450 -0.5087 -0.1230
  421MOL0     C58007  11.006   4.401   7.365  0.4162 -0.2768 -0.0021
  421MOL0     O58008  10.644   4.461   7.325  0.5879  0.1321  0.5981
  421MOL0     C58009  10.713   4.540   6.985 -0.1907  0.0114  0.0655
  421MOL0     C58010  10.659   4.597   6.863 -0.1556  0.0105 -0.2013
  421MOL0     N58011  10.129   4.850   6.693 -0.2017  1.0130 -0.6317
  421MOL0     N58012  10.012   4.831   6.738  0.5304 -0.6471 -0.1689
  421MOL0     C58013   8.978   4.856   6.828  0.6718  0.2169 -0.1796
  421MOL0     C58014   8.929   4.740   6.897  0.4060 -0.0139  0.0207
  421MOL0     C58015   8.773   4.534   7.300  0.0739 -0.1212  0.2896
  421MOL0     C58016   8.653   4.469   7.311 -0.0951 -0.4531 -0.4338
  421MOL0     C58017   8.620   4.375   7.409 -0.2952 -0.0381  0.0054
  421MOL0     C58018   8.716   4.353   7.504  1.1670  0.4290 -0.6078
  421MOL0     O58019   8.678   4.282   7.613 -0.3682 -0.2661  0.4499
  421MOL0     C58020   8.692   4.352   7.736 -0.4851  0.1546 -0.0190
  421MOL0     C58021   8.593   4.473   7.741  0.5979 -0.8681  0.1438
  421MOL0     C58022   8.600   4.537   7.882  0.0568  0.1880  0.2700
  421MOL0     C58023   8.723   4.627   7.907 -0.4273 -0.0974  0.7756
  421MOL0     C58024   8.739   4.647   8.049 -0.0232  0.6770  0.8647
  421MOL0     C58025   8.771   4.673   8.163 -0.6321 -0.0814 -0.3108
  421MOL0     C58026   8.844   4.409   7.492 -0.1885  0.2455 -0.5423
  421MOL0     C58027   8.872   4.505   7.392 -0.2957 -0.5506  0.0174
  421MOL0     C58028   9.011   4.572   7.392  0.3553  0.3981 -0.4871
  421MOL0     H58029   8.956   4.863   7.219  0.9010 -0.2159 -0.1451
  421MOL0     H58030   9.056   5.057   7.100  0.0532  1.8840  0.0956
  421MOL0     H58031   9.120   5.192   6.653  3.5644 -0.5459 -0.9139
  421MOL0     H58032   9.002   5.054   6.655 -0.6389 -0.9096  1.6163
  421MOL0     H58033   9.192   4.893   6.653  2.8461  0.1367 -2.7793
  421MOL0     H58034   9.199   5.017   6.532  0.6563 -1.6555 -0.0532
  421MOL0     H58035   9.366   4.984   6.783  0.9854 -2.9357 -1.3828
  421MOL0     H58036   9.410   4.952   6.613 -0.9821  0.6141 -1.4704
  421MOL0     H58037   9.353   5.195   6.572  0.3930 -1.0110 -0.2422
  421MOL0     H58038   9.395   5.216   6.749  2.2778  3.3736 -1.6226
  421MOL0     H58039   9.595   5.253   6.609 -2.8411  0.8700 -0.2648
  421MOL0     H58040   9.582   5.090   6.537 -1.6098 -0.5080 -1.1119
  421MOL0     H58041   9.646   5.190   6.825  0.8171  0.1288 -0.2556
  421MOL0     H58042   9.581   5.026   6.803  0.4300 -1.3550 -1.4185
  421MOL0     H58043   9.823   5.040   6.841 -1.2353 -1.1249  0.4187
  421MOL0     H58044   9.839   5.121   6.685 -3.1487  1.2664 -3.4953
  421MOL0     H58045   9.747   4.835   6.754 -2.1721 -1.9969 -2.1045
  421MOL0     H58046   9.730   4.907   6.590  0.9655 -0.9853  0.8681
  421MOL0     H58047   9.953   4.972   6.442 -0.4705  1.9925  0.2253
  421MOL0     H58048  10.250   5.037   6.472  3.7252 -0.4735 -1.9588
  421MOL0     H58049  10.215   4.874   6.391  1.2772  0.8411 -0.9717
  421MOL0     H58050  10.432   4.917   6.460 -0.0985 -0.3486 -1.0920
  421MOL0     H58051  10.398   4.899   6.637 -1.5064  0.0574  0.1379
  421MOL0     H58052  10.292   4.674   6.467 -0.3618  0.8710 -0.4931
  421MOL0     H58053  10.465   4.692   6.468 -0.1623 -2.5749  1.7266
  421MOL0     H58054  10.290   4.664   6.705  1.9565  1.4677  2.0320
  421MOL0     H58055  10.394   4.539   6.635 -2.3785  0.0230 -2.0287
  421MOL0     H58056  10.335   4.594   6.951  0.4117 -1.9928  2.9836
  421MOL0     H58057  10.410   4.387   7.219  2.2448  0.2996 -1.4195
  421MOL0     H58058  10.290   4.472   7.112  0.4003  0.8856  0.1607
  421MOL0     H58059  10.355   4.559   7.238 -0.7971 -1.0914  1.3516
  421MOL0     H58060  10.748   4.202   7.299 -0.6500 -2.8341  0.5947
  421MOL0     H58061  10.825   4.083   7.485 -1.1787  0.1561  0.2978
  421MOL0     H58062  11.023   4.009   7.753  0.4786  1.0116  0.9391
  421MOL0     H58063  11.007   3.985   7.575  1.0892  0.5084 -1.8194
  421MOL0     H58064  11.266   4.092   7.592  3.6037 -0.2418  2.7248
  421MOL0     H58065  11.248   4.019   7.749 -1.5261  0.0542  0.7257
  421MOL0     H58066  11.240   3.882   7.470 -0.0832 -2.2558  0.1268
  421MOL0     H58067  11.189   3.801   7.609 -1.4856 -0.2703 -3.5575
  421MOL0     H58068  11.412   3.861   7.726 -2.1154 -2.1043  0.9045
  421MOL0     H58069  11.462   3.928   7.570 -0.8897 -0.2505  0.0193
  421MOL0     H58070  11.383   3.644   7.606 -2.1226 -0.9520 -0.2837
  421MOL0     H58071  11.414   3.727   7.458 -2.8760 -3.3682  1.8589
  421MOL0     H58072  11.599   3.691   7.700 -2.3560 -1.7308  1.0022
  421MOL0     H58073  11.648   3.770   7.541 -0.1014 -0.0632  0.0246
  421MOL0     H58074  11.587   3.553   7.442 -3.0141  0.9729  1.4655
  421MOL0     H58075  11.556   3.492   7.599  1.3288 -0.9111  0.1093
  421MOL0     H58076  11.804   3.532   7.656  1.6948 -0.8859  0.4913
  421MOL0     H58077  11.823   3.586   7.482 -1.8766  0.2159  0.4334
  421MOL0     H58078  11.146   4.359   7.536 -2.0543 -2.1633  2.6015
  421MOL0     H58079  11.058   4.490   7.331  1.4495 -0.1452  1.8084
  421MOL0     H58080  10.820   4.529   6.999 -0.2685  0.0909  0.7313
  421MOL0     H58081  10.727   4.642   6.791 -0.9638  2.6129  0.5395
  421MOL0     H58082   8.987   4.855   6.720 -0.0479 -1.7639 -0.2613
  421MOL0     H58083   8.900   4.648   6.849  1.3195 -0.2244 -0.1497
  421MOL0     H58084   8.579   4.501   7.238 -0.8595 -0.1618  0.4476
  421MOL0     H58085   8.518   4.338   7.415 -0.1539 -0.5652 -0.6807
  421MOL0     H58086   8.673   4.272   7.808  0.5401 -0.3713 -0.3191
  421MOL0     H58087   8.797   4.381   7.745 -0.3442 -0.6045  0.9175
  421MOL0     H58088   8.490   4.436   7.732 -0.1405  0.9200  0.7402
  421MOL0     H58089   8.602   4.550   7.665 -1.8380  0.3752  0.9825
  421MOL0     H58090   8.511   4.602   7.879 -0.2580 -0.2459 -3.1363
  421MOL0     H58091   8.595   4.462   7.961 -1.8609 -0.8113 -0.7191
  421MOL0     H58092   8.712   4.728   7.868 -0.2237  0.5665  2.3670
  421MOL0     H58093   8.807   4.570   7.865 -1.3503 -0.1638 -1.0853
  421MOL0     H58094   8.778   4.710   8.263 -2.2357  0.8943 -0.5220
  421MOL0     H58095   8.927   4.391   7.560 -0.9668 -1.6885 -0.0394
  421MOL0     H58096   9.070   4.545   7.480  0.9272 -0.9175 -1.2403
  421MOL0     H58097   9.073   4.539   7.307  0.5941 -0.9163  0.1688
  421MOL0     H58098   8.994   4.679   7.403  2.7426  0.5700  3.3755
  422MOL0     O58099   4.074   4.097   3.895  0.0810 -0.1027  0.4787
  422MOL0     C58100   4.014   3.994   3.911  0.0925 -0.1288 -0.3016
  422MOL0     O58101   4.077   3.869   3.918  0.4092 -0.3968 -0.6009
  422MOL0     C58102   4.207   3.857   3.897 -0.2726 -0.0094 -0.7590
  422MOL0     C58103   4.285   3.764   3.974  0.3702  0.0886 -0.5305
  422MOL0     C58104   4.424   3.748   3.947  0.7529  1.1715  0.3611
  422MOL0     C58105   4.494   3.816   3.842  0.0514  0.3435 -0.1639
  422MOL0     O58106   4.632   3.800   3.829 -0.1037 -0.5162 -0.3380
  422MOL0     C58107   4.712   3.860   3.725  0.4916 -0.2492 -0.0055
  422MOL0     C58108   4.859   3.811   3.718  0.4368  0.6843  0.4958
  422MOL0     C58109   4.903   3.772   3.574  0.7558 -0.1246 -0.2149
  422MOL0     C58110   5.047   3.729   3.581 -0.1898  1.0619 -0.0808
  422MOL0     C58111   5.142   3.841   3.623  0.2006  0.4413  0.3284
  422MOL0     C58112   5.287   3.838   3.577 -0.5519  0.6898  0.3744
  422MOL0     C58113   5.363   3.716   3.606 -1.1607  0.8173 -0.5030
  422MOL0     C58114   5.380   3.702   3.762  0.0175  0.9551  0.9596
  422MOL0     N58115   5.450   3.569   3.788 -0.0184 -0.2043 -0.7806
  422MOL0     C58116   5.387   3.449   3.789 -0.4560  0.2227  0.9237
  422MOL0     C58117   5.492   3.356   3.810  0.5544 -0.1865  0.2934
  422MOL0     C58118   5.489   3.213   3.830  0.3875  0.5613  0.1491
  422MOL0     C58119   5.352   3.160   3.884 -0.5837 -0.7287 -0.3572
  422MOL0     C58120   5.371   3.013   3.907  0.0066 -0.1406 -0.0799
  422MOL0     C58121   5.264   2.951   3.998  0.4651  0.6258 -0.1655
  422MOL0     O58122   5.152   2.926   3.905  0.0514  0.4708 -0.6659
  422MOL0     C58123   5.025   2.942   3.958 -0.1127 -0.2092  0.3370
  422MOL0     C58124   4.930   2.920   3.857 -0.1758 -0.0779  0.4298
  422MOL0     C58125   4.790   2.936   3.878 -0.9487  0.3268  0.8472
  422MOL0     C58126   4.690   2.927   3.763 -0.2215  0.0496 -0.5036
  422MOL0     C58127   4.750   2.984   4.005 -0.7888 -0.4709  1.0653
  422MOL0     C58128   4.607   3.002   4.056 -0.5797 -0.8661 -1.1389
  422MOL0     O58129   4.590   3.093   4.167  0.0143 -0.0901  0.3469
  422MOL0     C58130   4.471   3.156   4.176  0.0442 -0.7352  0.3599
  422MOL0     C58131   4.466   3.289   4.149  0.7211  0.1306 -0.2918
  422MOL0     C58132   4.343   3.356   4.176  0.1894  0.1459  0.1172
  422MOL0     C58133   4.225   3.284   4.214  0.5538 -0.3468 -0.0335
  422MOL0     O58134   4.102   3.353   4.232 -0.2237  0.6809 -0.1396
  422MOL0     C58135   4.097   3.495   4.243 -0.3555  0.5590  0.6202
  422MOL0     C58136   3.960   3.558   4.260 -0.8904  0.1290 -0.0651
  422MOL0     C58137   3.932   3.616   4.402  0.3009  0.6634  0.3317
  422MOL0     C58138   3.779   3.634   4.406  0.3713 -0.6511  0.6939
  422MOL0     C58139   3.724   3.667   4.552  0.3231 -0.9619 -0.1188
  422MOL0     C58140   3.696   3.533   4.624  0.1329  0.2503  0.6197
  422MOL0     C58141   3.674   3.553   4.771 -0.2788  0.3879 -0.3617
  422MOL0     C58142   3.623   3.423   4.843 -0.0220 -0.3203  0.3713
  422MOL0    Cl58143   3.738   3.294   4.864 -0.2136 -0.2033  0.1726
  422MOL0     C58144   4.235   3.153   4.240  0.6409  0.2935 -0.1035
  422MOL0     C58145   4.358   3.086   4.212 -0.2228 -0.2107 -0.4277
  422MOL0     O58146   4.515   2.940   4.011 -0.0658  0.4011  0.0696
  422MOL0     C58147   4.854   3.010   4.100  0.7291 -1.4284 -0.1768
  422MOL0     C58148   4.982   2.992   4.073 -0.1570 -0.1420 -0.4732
  422MOL0     N58149   5.609   3.425   3.806  0.1032  0.7297  0.7734
  422MOL0     N58150   5.585   3.555   3.795  0.1121  0.0854  0.9843
  422MOL0     C58151   4.421   3.911   3.768  1.4718  0.1178 -0.9554
  422MOL0     C58152   4.276   3.926   3.794 -0.3642 -0.3775 -0.2835
  422MOL0     C58153   3.862   3.987   3.911  0.2381 -0.0059 -0.0225
  422MOL0     C58154   3.807   3.914   4.013 -0.2134 -0.3723 -0.9422
  422MOL0     C58155   3.668   3.903   4.030  0.9431  0.4566 -0.2457
  422MOL0     C58156   3.575   3.963   3.945  0.6097 -0.5274  0.0803
  422MOL0     O58157   3.438   3.948   3.945  0.5223  0.2237 -0.3586
  422MOL0     C58158   3.382   3.848   4.028  0.8026 -0.8454  0.4387
  422MOL0     C58159   3.239   3.836   3.963 -0.5390 -0.2446 -0.1901
  422MOL0     C58160   3.250   3.762   3.828  0.1509  0.7905  0.2584
  422MOL0     C58161   3.116   3.680   3.806 -0.1281 -0.2636 -0.5485
  422MOL0     C58162   3.089   3.589   3.924 -0.4362  0.5331  0.1188
  422MOL0     C58163   3.057   3.508   4.010  0.2351  0.2927  0.7018
  422MOL0     C58164   3.632   4.025   3.834  0.3421  0.5158 -0.5997
  422MOL0     C58165   3.773   4.041   3.820 -0.2096  0.0074  0.8118
  422MOL0     C58166   3.820   4.111   3.695 -0.4145 -0.0959 -0.1134
  422MOL0     H58167   4.242   3.703   4.052  1.4441  1.2103  0.9858
  422MOL0     H58168   4.479   3.673   4.003 -2.4252 -0.1576  1.9469
  422MOL0     H58169   4.703   3.968   3.736  1.1116 -0.3661  2.0766
  422MOL0     H58170   4.667   3.829   3.630 -2.5231  2.0100  0.5493
  422MOL0     H58171   4.922   3.891   3.756 -0.3737  0.7898  1.6566
  422MOL0     H58172   4.870   3.729   3.790  2.9589  1.8419  1.5348
  422MOL0     H58173   4.839   3.694   3.531  0.2454  0.4740 -0.5506
  422MOL0     H58174   4.891   3.852   3.501 -0.7194 -1.1402 -1.1458
  422MOL0     H58175   5.050   3.654   3.660  0.1828  1.8258  0.6564
  422MOL0     H58176   5.088   3.694   3.487 -0.7867  1.1554 -0.3825
  422MOL0     H58177   5.138   3.841   3.733  1.0025  0.0635  0.3665
  422MOL0     H58178   5.093   3.935   3.595 -0.5181  0.3990  1.3588
  422MOL0     H58179   5.293   3.857   3.469 -0.8366 -1.5322 -0.0817
  422MOL0     H58180   5.343   3.911   3.636 -2.2061  0.5813  2.1509
  422MOL0     H58181   5.466   3.730   3.574 -0.6781 -1.9333 -0.4278
  422MOL0     H58182   5.308   3.637   3.552 -0.2288  1.5584 -2.6375
  422MOL0     H58183   5.433   3.794   3.787  0.1047  1.3406 -0.5603
  422MOL0     H58184   5.283   3.703   3.813 -0.8395 -1.3915 -0.4473
  422MOL0     H58185   5.281   3.429   3.783 -0.0543 -2.0731  0.4606
  422MOL0     H58186   5.576   3.179   3.887 -0.2320 -1.4175 -0.0141
  422MOL0     H58187   5.496   3.171   3.729 -0.6635  1.7490 -0.4611
  422MOL0     H58188   5.322   3.223   3.968  1.2598 -0.5041  0.1666
  422MOL0     H58189   5.274   3.166   3.807 -1.0942  3.0029  0.2408
  422MOL0     H58190   5.373   2.962   3.810  0.5490 -0.5248  0.1309
  422MOL0     H58191   5.470   3.003   3.952  0.2769  1.1968 -0.3352
  422MOL0     H58192   5.288   2.855   4.046 -1.6182  0.1970  0.1443
  422MOL0     H58193   5.238   3.020   4.079 -0.8094  0.2046 -0.1851
  422MOL0     H58194   4.957   2.885   3.758 -1.6408  0.3922 -0.1672
  422MOL0     H58195   4.658   3.031   3.749  0.3335  0.0361 -2.0621
  422MOL0     H58196   4.604   2.865   3.789  0.6937 -1.8022 -1.6796
  422MOL0     H58197   4.731   2.895   3.667  0.0161  0.0522 -0.4042
  422MOL0     H58198   4.557   3.331   4.108  0.3015 -1.5843 -3.3021
  422MOL0     H58199   4.343   3.465   4.171  2.0828  0.2578  1.4689
  422MOL0     H58200   4.148   3.523   4.336 -1.2086  1.4893  0.8205
  422MOL0     H58201   4.149   3.537   4.157 -0.4865 -0.0535  0.2368
  422MOL0     H58202   3.950   3.648   4.198  0.2341  0.2933 -0.0207
  422MOL0     H58203   3.888   3.486   4.218 -0.9591  1.0587 -1.6378
  422MOL0     H58204   3.975   3.715   4.419 -0.8914  1.3943 -0.8157
  422MOL0     H58205   3.959   3.552   4.487  0.7551 -0.7652 -0.8428
  422MOL0     H58206   3.726   3.545   4.373 -1.3493  0.0838  1.3761
  422MOL0     H58207   3.745   3.712   4.336 -0.7566 -1.8790 -0.1681
  422MOL0     H58208   3.791   3.731   4.611  1.0986 -1.0035 -0.9455
  422MOL0     H58209   3.625   3.715   4.545  0.0902 -1.5716 -1.2041
  422MOL0     H58210   3.774   3.459   4.606 -1.8986 -1.7177 -0.5260
  422MOL0     H58211   3.603   3.491   4.584 -2.8407  3.5383  3.3459
  422MOL0     H58212   3.602   3.634   4.787 -0.6858  0.3604 -1.8629
  422MOL0     H58213   3.762   3.586   4.828 -1.3869 -0.5791  2.0410
  422MOL0     H58214   3.537   3.386   4.786  0.5436 -1.2088  0.0655
  422MOL0     H58215   3.595   3.456   4.943  0.2529  2.8219 -0.4581
  422MOL0     H58216   4.143   3.109   4.276  0.0116  2.0669  0.5731
  422MOL0     H58217   4.373   2.979   4.214  1.0622 -0.0397  1.0234
  422MOL0     H58218   4.828   3.051   4.197  0.4134 -1.8745 -0.0685
  422MOL0     H58219   5.040   3.010   4.163  1.6503 -2.4995 -1.0581
  422MOL0     H58220   4.459   3.968   3.684  1.8607  0.0734 -0.8156
  422MOL0     H58221   4.229   4.007   3.740  0.7272 -0.8657 -2.0440
  422MOL0     H58222   3.871   3.873   4.090  1.5494  3.7466  0.0779
  422MOL0     H58223   3.635   3.851   4.119  2.4705 -2.7561 -1.3784
  422MOL0     H58224   3.439   3.757   4.007  1.7360 -0.2713  0.4360
  422MOL0     H58225   3.382   3.874   4.135  0.2356  0.6825  0.0863
  422MOL0     H58226   3.193   3.932   3.939 -1.2776  0.3381  3.0295
  422MOL0     H58227   3.180   3.792   4.045 -2.0349 -1.6496 -1.9265
  422MOL0     H58228   3.293   3.822   3.747 -1.0760  1.3060 -0.0239
  422MOL0     H58229   3.331   3.688   3.840  1.0542  1.6680 -0.2545
  422MOL0     H58230   3.126   3.626   3.712  3.8321  0.6413 -0.8177
  422MOL0     H58231   3.025   3.740   3.802 -0.4846 -0.7289  0.2513
  422MOL0     H58232   3.034   3.419   4.065  1.3683 -0.8940 -0.6902
  422MOL0     H58233   3.565   4.070   3.761  0.6084  0.1614 -1.0680
  422MOL0     H58234   3.865   4.039   3.625 -0.1829 -1.2318  1.1675
  422MOL0     H58235   3.743   4.170   3.644  0.4499  1.1088 -0.0711
  422MOL0     H58236   3.891   4.190   3.724 -1.1285  0.6876 -0.4589
  423MOL0     O58237   5.271   0.585   8.139 -0.0091  0.1912  0.0555
  423MOL0     C58238   5.293   0.632   8.029 -0.0474  0.1826  0.0790
  423MOL0     O58239   5.357   0.591   7.920 -0.0543 -0.3303  0.8732
  423MOL0     C58240   5.439   0.480   7.907  0.8804  0.9053 -0.8571
  423MOL0     C58241   5.488   0.444   7.785  0.5253 -0.7307  0.3153
  423MOL0     C58242   5.573   0.337   7.763 -0.2091  0.1283 -0.3843
  423MOL0     C58243   5.582   0.238   7.862 -1.0786 -0.0812  0.1234
  423MOL0     O58244   5.657   0.129   7.838  0.7840 -0.6945  0.2027
  423MOL0     C58245   5.795   0.151   7.796  0.8474  0.5334  0.1896
  423MOL0     C58246   5.872   0.248   7.886  0.2109  0.4425 -0.9044
  423MOL0     C58247   5.915   0.207   8.025  0.5874  0.1632 -0.9624
  423MOL0     C58248   5.928   0.334   8.116 -0.3637  0.5377 -0.6208
  423MOL0     C58249   5.916   0.301   8.271 -0.1295 -0.1477  0.9434
  423MOL0     C58250   6.000   0.169   8.311  0.3960 -0.4084  0.1050
  423MOL0     C58251   6.151   0.180   8.288  0.5360  0.1450 -0.4969
  423MOL0     C58252   6.208   0.322   8.336  0.2086 -0.2924 -0.1074
  423MOL0     N58253   6.352   0.304   8.335  0.7540  0.1581 -0.9282
  423MOL0     C58254   6.421   0.267   8.219 -0.4506  1.1909 -0.0819
  423MOL0     C58255   6.557   0.267   8.261 -0.1282  0.0291 -0.3265
  423MOL0     C58256   6.671   0.201   8.185  0.4825 -0.0009 -0.2263
  423MOL0     C58257   6.810   0.214   8.240  0.6140 -1.0487  0.6273
  423MOL0     C58258   6.915   0.111   8.186 -0.2947  0.5364  0.5736
  423MOL0     C58259   6.915   0.104   8.036  0.2099 -1.0136  0.6441
  423MOL0     O58260   6.986   0.220   7.984  0.0455  0.2847  0.0808
  423MOL0     C58261   7.121   0.220   7.982 -1.1344 -0.1406  0.1643
  423MOL0     C58262   7.201   0.103   7.996  0.2050 -0.4094  0.5770
  423MOL0     C58263   7.339   0.104   7.993  0.4348 -0.4776  0.7595
  423MOL0     C58264   7.407  -0.027   7.997  0.8755  0.4068 -0.6349
  423MOL0     C58265   7.399   0.220   7.955  0.0893 -0.2069 -0.3243
  423MOL0     C58266   7.544   0.226   7.925  0.3788 -0.5362 -0.0342
  423MOL0     O58267   7.583   0.318   7.840  0.0669  0.4529 -0.4353
  423MOL0     C58268   7.723   0.329   7.806  0.6478 -0.3257 -0.7566
  423MOL0     C58269   7.776   0.298   7.684 -0.5109 -0.1114 -0.0517
  423MOL0     C58270   7.921   0.309   7.661  0.3368  0.0260  0.7889
  423MOL0     C58271   8.008   0.361   7.757 -0.0955  0.5196  0.9112
  423MOL0     O58272   8.142   0.365   7.734 -0.8256 -0.3108 -0.8442
  423MOL0     C58273   8.234   0.457   7.802  0.1863  0.3591  0.1248
  423MOL0     C58274   8.371   0.441   7.734  0.3026 -0.6331 -0.7019
  423MOL0     C58275   8.411   0.295   7.740 -0.0677  0.2017  0.0984
  423MOL0     C58276   8.543   0.272   7.664 -0.4367 -0.1865  0.9066
  423MOL0     C58277   8.576   0.119   7.682  0.3978 -0.0255 -0.0868
  423MOL0     C58278   8.672   0.063   7.572 -0.2929 -0.7366  0.4267
  423MOL0     C58279   8.712  -0.079   7.604  0.4763  1.2586 -0.4746
  423MOL0     C58280   8.761  -0.158   7.478  0.7416 -0.5547 -0.6388
  423MOL0    Cl58281   8.907  -0.090   7.399 -0.2427 -0.4051 -0.1240
  423MOL0     C58282   7.946   0.404   7.872 -0.1679  0.5931  0.4783
  423MOL0     C58283   7.813   0.381   7.905 -0.5551  0.0058  0.1661
  423MOL0     O58284   7.619   0.143   7.975  0.9953  0.2639  0.1348
  423MOL0     C58285   7.322   0.342   7.931 -0.5780  0.5276 -0.1518
  423MOL0     C58286   7.189   0.341   7.956  0.1459 -0.3208 -0.8602
  423MOL0     N58287   6.563   0.326   8.385  0.1330  0.2611 -0.3166
  423MOL0     N58288   6.440   0.345   8.432 -0.5193  0.2820  0.2943
  423MOL0     C58289   5.538   0.269   7.991 -0.3338  0.6088  0.6575
  423MOL0     C58290   5.464   0.391   8.017  0.5601  0.8887 -0.0889
  423MOL0     C58291   5.223   0.760   8.012  0.3168  0.6633 -0.2667
  423MOL0     C58292   5.149   0.772   7.895  0.0389  0.1602 -0.2393
  423MOL0     C58293   5.078   0.895   7.867  0.9011  0.0051  0.0387
  423MOL0     C58294   5.063   0.994   7.960 -0.2002  0.1485  0.6922
  423MOL0     O58295   4.980   1.098   7.939  0.5240  0.0293  0.5509
  423MOL0     C58296   4.873   1.104   8.039 -0.5216 -1.8152  0.6361
  423MOL0     C58297   4.826   0.969   8.082 -0.0457 -0.3250  0.2727
  423MOL0     C58298   4.702   0.984   8.177  0.2482 -0.5130  0.8187
  423MOL0     C58299   4.728   1.040   8.318  0.5521  0.3169 -1.1251
  423MOL0     C58300   4.809   0.949   8.387  0.0558 -0.3717 -0.1313
  423MOL0     C58301   4.875   0.873   8.452  0.6517 -0.8555 -1.1272
  423MOL0     C58302   5.140   0.975   8.080  0.0071 -0.0879 -0.0204
  423MOL0     C58303   5.224   0.869   8.100 -0.4389  0.8905  0.3787
  423MOL0     C58304   5.284   0.846   8.237  1.1067  0.4553  0.4881
  423MOL0     H58305   5.471   0.508   7.699 -0.4632 -0.9198  0.3584
  423MOL0     H58306   5.625   0.319   7.669 -0.0651 -0.2893 -0.2296
  423MOL0     H58307   5.795   0.178   7.690 -2.0214 -0.6380 -0.1975
  423MOL0     H58308   5.846   0.054   7.801 -1.4422 -0.7159  1.4398
  423MOL0     H58309   5.961   0.274   7.828  0.1769 -1.3663 -1.8633
  423MOL0     H58310   5.805   0.333   7.894  0.1390  0.5063 -2.0208
  423MOL0     H58311   5.834   0.153   8.074  1.1697  0.8447  0.8628
  423MOL0     H58312   6.013   0.158   8.018 -0.6971 -2.9910  1.0455
  423MOL0     H58313   6.028   0.375   8.102  0.5358 -0.4557  2.2085
  423MOL0     H58314   5.854   0.414   8.102 -1.3802 -0.0717  1.0095
  423MOL0     H58315   5.809   0.301   8.295 -0.2754  0.6168  0.3187
  423MOL0     H58316   5.945   0.384   8.336  0.8272 -1.1466  1.8374
  423MOL0     H58317   5.991   0.170   8.420 -0.7187  0.3144  0.0319
  423MOL0     H58318   5.946   0.083   8.268  0.9075 -0.2891 -0.7980
  423MOL0     H58319   6.180   0.157   8.185 -1.8092 -1.6427 -0.8339
  423MOL0     H58320   6.192   0.103   8.355  2.6627  1.9625  0.4375
  423MOL0     H58321   6.185   0.403   8.266  1.7406 -0.9731 -1.4507
  423MOL0     H58322   6.180   0.344   8.440  0.7633  0.8503 -0.1857
  423MOL0     H58323   6.389   0.222   8.126 -0.1740 -0.5477  0.6272
  423MOL0     H58324   6.673   0.250   8.087  2.3529 -0.6938 -0.5738
  423MOL0     H58325   6.653   0.093   8.173  5.6494 -1.2049  0.5596
  423MOL0     H58326   6.845   0.312   8.209 -0.1635 -0.4028  1.7373
  423MOL0     H58327   6.797   0.208   8.348 -2.0576 -0.4313  0.4131
  423MOL0     H58328   7.015   0.138   8.220  1.1968 -2.4288 -1.0775
  423MOL0     H58329   6.885   0.015   8.228  1.0588 -1.1316 -2.0461
  423MOL0     H58330   6.962   0.017   7.989  0.9725 -0.8145  1.0197
  423MOL0     H58331   6.811   0.108   8.002  0.2498 -1.8720  0.4030
  423MOL0     H58332   7.159   0.005   8.017  2.8205 -2.0726 -1.2464
  423MOL0     H58333   7.481  -0.034   8.078  0.4246  0.0118 -0.2519
  423MOL0     H58334   7.455  -0.052   7.902  1.4781 -0.4862 -0.1094
  423MOL0     H58335   7.328  -0.101   8.014 -0.4311  1.1916 -2.8495
  423MOL0     H58336   7.709   0.266   7.606 -2.4200  2.8707  0.1888
  423MOL0     H58337   7.961   0.271   7.568  2.1087 -0.1677  1.5888
  423MOL0     H58338   8.192   0.558   7.797  1.7187  0.9494 -2.6956
  423MOL0     H58339   8.242   0.421   7.905  1.1419 -1.6323 -0.5973
  423MOL0     H58340   8.350   0.480   7.633 -4.6028  1.2382  0.7065
  423MOL0     H58341   8.446   0.501   7.787  0.5332 -1.0157 -0.5966
  423MOL0     H58342   8.342   0.229   7.687 -0.3168  1.2179 -0.8895
  423MOL0     H58343   8.438   0.273   7.844  1.9574 -0.9347 -0.5974
  423MOL0     H58344   8.623   0.331   7.709  0.1214 -2.8273  3.7449
  423MOL0     H58345   8.538   0.292   7.557  0.0972 -3.6394  0.1397
  423MOL0     H58346   8.633   0.104   7.775  1.5843  2.4861 -0.3287
  423MOL0     H58347   8.489   0.052   7.686 -0.0359  0.4429 -1.3511
  423MOL0     H58348   8.759   0.130   7.570 -0.5636 -0.3660 -1.7625
  423MOL0     H58349   8.628   0.066   7.472  0.9849 -2.1673 -0.2060
  423MOL0     H58350   8.626  -0.128   7.650 -0.3581  0.1621 -3.0358
  423MOL0     H58351   8.800  -0.081   7.670  1.0887 -3.2448 -1.1621
  423MOL0     H58352   8.673  -0.162   7.412 -0.7577  0.5863  1.2014
  423MOL0     H58353   8.771  -0.263   7.507  0.4320 -0.3198  0.3680
  423MOL0     H58354   8.013   0.454   7.941  1.0600 -0.9236  0.4269
  423MOL0     H58355   7.784   0.400   8.008 -0.8299 -2.8526  0.6867
  423MOL0     H58356   7.371   0.437   7.910 -1.7384  1.1367 -0.1949
  423MOL0     H58357   7.131   0.431   7.972  0.6914 -0.0267 -0.5022
  423MOL0     H58358   5.557   0.192   8.065 -1.7254  0.0775  0.4864
  423MOL0     H58359   5.435   0.403   8.121 -0.6914  1.1055 -0.4481
  423MOL0     H58360   5.144   0.700   7.815 -0.2681  0.1904 -0.2478
  423MOL0     H58361   5.031   0.915   7.771  2.0309  1.1380 -0.2952
  423MOL0     H58362   4.925   1.156   8.120  0.3172  1.2273 -1.6680
  423MOL0     H58363   4.794   1.169   8.000  1.4055  0.0668 -0.3854
  423MOL0     H58364   4.898   0.904   8.133  1.2133  0.2710 -0.6923
  423MOL0     H58365   4.793   0.919   7.990  1.3924 -0.4923 -0.1737
  423MOL0     H58366   4.622   1.048   8.140  1.1646  2.5979  3.6993
  423MOL0     H58367   4.656   0.885   8.183  1.1358 -1.0655 -0.8174
  423MOL0     H58368   4.634   1.047   8.375 -0.2290  1.8217 -2.5168
  423MOL0     H58369   4.773   1.140   8.316  1.3153 -0.0143 -1.0013
  423MOL0     H58370   4.920   0.803   8.520 -2.6618 -2.4161 -0.3325
  423MOL0     H58371   5.119   1.043   8.162 -4.7407 -1.3983  0.1302
  423MOL0     H58372   5.387   0.810   8.238  1.1422  0.5635  1.1752
  423MOL0     H58373   5.287   0.940   8.293 -1.5665  0.6099  0.4897
  423MOL0     H58374   5.221   0.782   8.300  0.6341  0.1798 -0.2591
  424MOL0     O58375   4.762   6.035   2.525 -0.1856  0.2293 -0.6915
  424MOL0     C58376   4.737   5.916   2.496 -0.0969 -0.8184 -0.2968
  424MOL0     O58377   4.782   5.805   2.565  0.3883  0.3876 -0.2658
  424MOL0     C58378   4.835   5.814   2.691 -0.1912  0.1855  0.3969
  424MOL0     C58379   4.785   5.906   2.783 -0.2831  0.3236 -0.2858
  424MOL0     C58380   4.833   5.902   2.920  0.2886 -0.6566  0.3282
  424MOL0     C58381   4.932   5.816   2.958 -0.3820 -0.3511 -0.5654
  424MOL0     O58382   4.958   5.821   3.097 -0.0732 -0.2185  0.1944
  424MOL0     C58383   5.082   5.767   3.147  0.1117 -0.5155  0.0134
  424MOL0     C58384   5.108   5.825   3.285  0.2526  0.3323 -1.0036
  424MOL0     C58385   5.239   5.772   3.354  0.4795 -0.4362  0.7649
  424MOL0     C58386   5.273   5.847   3.482  0.7289  0.7116  0.6101
  424MOL0     C58387   5.383   5.772   3.553 -0.4812 -0.2201 -0.9473
  424MOL0     C58388   5.431   5.847   3.680 -0.0161  0.5263 -0.3739
  424MOL0     C58389   5.323   5.857   3.795 -0.3174 -0.1759  0.0265
  424MOL0     C58390   5.385   5.907   3.924 -1.2807 -0.3318 -0.0767
  424MOL0     N58391   5.492   5.826   3.988  0.0350  0.5835 -0.0603
  424MOL0     C58392   5.598   5.881   4.055 -0.4441 -0.1754  0.0981
  424MOL0     C58393   5.654   5.775   4.120 -0.2183  0.0663 -0.1054
  424MOL0     C58394   5.780   5.784   4.200 -0.2433 -0.3601 -0.3673
  424MOL0     C58395   5.891   5.688   4.166  0.3778 -0.5695  0.0562
  424MOL0     C58396   5.950   5.608   4.291 -0.5251 -0.4762 -0.0797
  424MOL0     C58397   6.046   5.491   4.261 -0.6222 -0.8913  0.8362
  424MOL0     O58398   6.105   5.445   4.386  0.2630 -0.2584 -0.2851
  424MOL0     C58399   6.213   5.362   4.377 -0.1150 -0.1289  0.5919
  424MOL0     C58400   6.258   5.298   4.260 -1.0586 -0.4111  0.8148
  424MOL0     C58401   6.379   5.220   4.263 -0.5416 -0.4757 -0.8752
  424MOL0     C58402   6.410   5.147   4.140  0.9814  0.2441  0.4514
  424MOL0     C58403   6.460   5.211   4.384  0.8875  0.0593 -0.9908
  424MOL0     C58404   6.588   5.134   4.398  0.2022  0.5886  1.1394
  424MOL0     O58405   6.665   5.113   4.283  0.1861 -0.0227 -0.1912
  424MOL0     C58406   6.773   5.027   4.283  0.1884  0.3429 -0.2818
  424MOL0     C58407   6.878   5.031   4.382  0.4789 -0.1086  0.4278
  424MOL0     C58408   6.992   4.949   4.353 -0.4803 -0.5725  0.2071
  424MOL0     C58409   6.997   4.866   4.244  0.4090 -1.0902  0.6380
  424MOL0     O58410   7.104   4.783   4.206  0.2415  0.5129  0.1134
  424MOL0     C58411   7.226   4.799   4.275  0.3492  0.3882  0.1463
  424MOL0     C58412   7.333   4.741   4.169 -0.4089  0.1904 -0.5819
  424MOL0     C58413   7.468   4.774   4.236 -0.0884 -0.5867  0.4051
  424MOL0     C58414   7.585   4.700   4.162  0.1031  0.1565  0.0654
  424MOL0     C58415   7.709   4.711   4.241 -0.1094 -0.0068  0.0970
  424MOL0     C58416   7.824   4.622   4.182 -1.1613  0.3516  0.4111
  424MOL0     C58417   7.955   4.646   4.260 -0.5334 -0.0668  0.2199
  424MOL0     C58418   8.040   4.515   4.263  0.4005 -0.0130  0.2673
  424MOL0    Cl58419   8.130   4.492   4.105 -0.1225  0.1752 -0.3156
  424MOL0     C58420   6.891   4.857   4.155 -0.0311 -0.1450  0.0517
  424MOL0     C58421   6.779   4.937   4.171  0.2103  0.6324 -0.8019
  424MOL0     O58422   6.616   5.081   4.507  0.4162  0.0773  0.2949
  424MOL0     C58423   6.406   5.269   4.498  0.5310 -0.5544  0.7331
  424MOL0     C58424   6.289   5.343   4.490 -0.6535  0.0455 -1.0464
  424MOL0     N58425   5.576   5.667   4.093  0.2642  0.1892  0.0503
  424MOL0     N58426   5.485   5.691   4.012  0.0041  0.0745  0.3181
  424MOL0     C58427   4.986   5.726   2.858 -0.0250 -0.4713 -0.1045
  424MOL0     C58428   4.938   5.731   2.730  1.0271  0.2747  0.6077
  424MOL0     C58429   4.627   5.896   2.408  0.4163 -0.8330  0.0649
  424MOL0     C58430   4.529   5.806   2.458  0.2781  0.3519  0.7100
  424MOL0     C58431   4.414   5.783   2.393 -0.6487 -0.3152 -0.3470
  424MOL0     C58432   4.383   5.861   2.286 -0.6004 -0.5481  0.6025
  424MOL0     O58433   4.271   5.864   2.224 -0.1563 -0.1068 -0.1355
  424MOL0     C58434   4.153   5.816   2.294  0.4486 -0.5487  0.0309
  424MOL0     C58435   4.138   5.668   2.249  0.7290 -0.3728  0.2738
  424MOL0     C58436   3.989   5.613   2.258 -0.9434  0.7466 -0.0734
  424MOL0     C58437   3.976   5.469   2.197 -1.0269 -0.2759 -0.2685
  424MOL0     C58438   4.045   5.373   2.282 -1.0164 -0.1046  1.0819
  424MOL0     C58439   4.100   5.274   2.338  0.7616 -0.8069 -0.7572
  424MOL0     C58440   4.475   5.953   2.229 -0.1156 -0.0454 -0.0950
  424MOL0     C58441   4.594   5.974   2.296 -0.2289 -0.3935  0.2330
  424MOL0     C58442   4.683   6.072   2.231  0.2518 -0.7105  0.7874
  424MOL0     H58443   4.715   5.986   2.759 -1.3959 -0.8619 -1.1668
  424MOL0     H58444   4.776   5.974   2.978  2.0503 -0.2262  1.6194
  424MOL0     H58445   5.161   5.780   3.072  1.1989  0.2496  1.2435
  424MOL0     H58446   5.073   5.658   3.147 -1.5960 -0.5262 -3.5635
  424MOL0     H58447   5.107   5.934   3.292  1.1196  0.2565  1.0405
  424MOL0     H58448   5.028   5.788   3.351 -0.1519  1.8046 -0.6259
  424MOL0     H58449   5.225   5.667   3.380  0.8979 -1.1796 -1.7408
  424MOL0     H58450   5.322   5.773   3.282 -1.0240 -1.5883 -1.0778
  424MOL0     H58451   5.291   5.951   3.452  2.1954  0.3375  0.0952
  424MOL0     H58452   5.194   5.854   3.557 -0.6440  2.3891 -0.8857
  424MOL0     H58453   5.470   5.781   3.487 -1.2489 -1.8912 -2.2503
  424MOL0     H58454   5.355   5.668   3.567  0.5186 -0.3177  0.5849
  424MOL0     H58455   5.513   5.786   3.717 -0.6799  0.8980  1.8389
  424MOL0     H58456   5.473   5.945   3.655  1.2416  0.8489  2.6200
  424MOL0     H58457   5.274   5.760   3.805  0.7910 -0.9106 -1.2887
  424MOL0     H58458   5.237   5.915   3.759 -1.3235 -2.3813 -1.3240
  424MOL0     H58459   5.439   6.001   3.916  0.5986 -1.4916 -2.0250
  424MOL0     H58460   5.311   5.916   4.004  1.5629  5.3285  2.5000
  424MOL0     H58461   5.618   5.988   4.049 -3.3077  0.3621 -1.0802
  424MOL0     H58462   5.746   5.768   4.303 -0.2906  1.0820 -0.1358
  424MOL0     H58463   5.825   5.883   4.211 -2.7684  0.6021  2.6658
  424MOL0     H58464   5.849   5.618   4.093  0.6024  0.4153 -1.0401
  424MOL0     H58465   5.974   5.742   4.118  2.2008 -0.4153  3.1034
  424MOL0     H58466   5.984   5.665   4.378 -0.9455  0.9562 -0.8167
  424MOL0     H58467   5.863   5.564   4.341 -2.1819  1.0151 -1.4959
  424MOL0     H58468   5.998   5.407   4.210 -0.3872 -1.6797  1.8926
  424MOL0     H58469   6.128   5.539   4.207 -1.6674  0.9345  0.8020
  424MOL0     H58470   6.214   5.324   4.164 -1.8153  1.8070  1.6910
  424MOL0     H58471   6.326   5.146   4.071  1.0237  1.1987  0.3699
  424MOL0     H58472   6.424   5.042   4.166 -1.6018  0.6898  4.5137
  424MOL0     H58473   6.501   5.177   4.087  1.0769  0.0193  0.4857
  424MOL0     H58474   6.872   5.098   4.467  2.0197  2.3465 -1.3031
  424MOL0     H58475   7.079   4.976   4.412 -1.1607  0.4454  0.7816
  424MOL0     H58476   7.255   4.900   4.304  1.1171  0.2649 -0.1548
  424MOL0     H58477   7.216   4.736   4.364 -0.6440 -2.0613 -1.5872
  424MOL0     H58478   7.330   4.632   4.155  3.3001 -0.2443  0.9031
  424MOL0     H58479   7.331   4.797   4.075  0.1645  0.0843 -0.6587
  424MOL0     H58480   7.447   4.748   4.340 -3.0641 -1.8241 -0.4191
  424MOL0     H58481   7.482   4.883   4.234 -0.4874 -0.5348  0.4524
  424MOL0     H58482   7.599   4.747   4.064 -0.2225 -1.4144 -0.7797
  424MOL0     H58483   7.562   4.594   4.146  1.8415 -0.2598  0.1478
  424MOL0     H58484   7.759   4.807   4.254  1.4169 -0.8932  1.1272
  424MOL0     H58485   7.680   4.680   4.342 -2.6772  1.0160 -0.2350
  424MOL0     H58486   7.846   4.637   4.076  3.0851  0.7020  1.1604
  424MOL0     H58487   7.795   4.517   4.190  1.2511 -0.6307 -1.9032
  424MOL0     H58488   7.922   4.665   4.362 -2.4318  0.7851 -0.5143
  424MOL0     H58489   8.019   4.731   4.231 -0.1647 -0.7975 -1.1922
  424MOL0     H58490   7.980   4.429   4.296 -0.2549  0.6882  0.9618
  424MOL0     H58491   8.116   4.531   4.340  0.6846 -0.2698  0.0403
  424MOL0     H58492   6.903   4.808   4.058 -2.3885  1.6144 -1.2502
  424MOL0     H58493   6.699   4.948   4.099 -1.3014 -1.3829  0.4585
  424MOL0     H58494   6.467   5.273   4.587  3.6132 -0.7883 -1.2133
  424MOL0     H58495   6.270   5.400   4.580  1.9327 -0.6085  0.0244
  424MOL0     H58496   5.064   5.658   2.890 -0.9819 -0.9401  1.3029
  424MOL0     H58497   4.978   5.675   2.646 -3.1394 -0.9949 -0.7931
  424MOL0     H58498   4.536   5.745   2.548 -1.4672 -0.8176  0.0934
  424MOL0     H58499   4.340   5.713   2.431 -0.7746 -1.9649 -3.3198
  424MOL0     H58500   4.159   5.808   2.403 -1.0342 -2.1608  0.0438
  424MOL0     H58501   4.067   5.880   2.272  0.1812 -1.1143 -0.5831
  424MOL0     H58502   4.192   5.609   2.324 -2.3152 -2.1746  1.2123
  424MOL0     H58503   4.166   5.655   2.144 -2.7205 -2.6696 -0.5218
  424MOL0     H58504   3.950   5.618   2.360 -4.4417  1.8049 -1.3472
  424MOL0     H58505   3.917   5.675   2.204 -0.5195  1.0275 -0.3185
  424MOL0     H58506   4.001   5.466   2.091  4.2889  1.1601  0.6360
  424MOL0     H58507   3.868   5.454   2.192 -0.8935 -0.7523 -3.0533
  424MOL0     H58508   4.138   5.179   2.369 -1.0118 -0.8809  1.4655
  424MOL0     H58509   4.454   6.016   2.143  0.5481  1.6624  0.9549
  424MOL0     H58510   4.656   6.169   2.275  0.7551 -0.3739  0.3644
  424MOL0     H58511   4.790   6.054   2.240  0.6829  0.4849 -1.3266
  424MOL0     H58512   4.649   6.086   2.128 -1.7487  1.5639  1.6574
  425MOL0     O58513  11.041  10.021   1.353 -0.0724 -0.5538  0.0421
  425MOL0     C58514  11.006  10.092   1.260  0.6822  0.4046  0.2199
  425MOL0     O58515  11.091  10.154   1.176  0.2841  0.3065  0.5297
  425MOL0     C58516  11.232  10.169   1.183  0.3820  0.6281  0.3482
  425MOL0     C58517  11.298  10.227   1.072  0.6586 -0.1264 -0.0138
  425MOL0     C58518  11.433  10.227   1.067  0.2949  0.0586 -0.0812
  425MOL0     C58519  11.502  10.178   1.169 -0.8723 -0.3789 -0.2156
  425MOL0     O58520  11.637  10.170   1.170  0.4033  0.1248 -0.1899
  425MOL0     C58521  11.706  10.271   1.098 -0.6969  0.1990 -0.7374
  425MOL0     C58522  11.855  10.266   1.155 -0.2860 -0.3174 -0.2075
  425MOL0     C58523  11.920  10.133   1.143 -0.4968  0.3423 -0.1080
  425MOL0     C58524  12.071  10.158   1.126  0.3318 -0.5711 -0.8292
  425MOL0     C58525  12.139  10.031   1.087 -0.1828 -0.5120 -0.4004
  425MOL0     C58526  12.124   9.917   1.190 -0.0436  0.1925  0.2082
  425MOL0     C58527  12.227   9.806   1.162 -0.0862  0.1432 -0.6083
  425MOL0     C58528  12.194   9.749   1.021  0.4056  0.8152 -0.0096
  425MOL0     N58529  12.270   9.623   1.004  0.3488  0.1672  0.6885
  425MOL0     C58530  12.267   9.512   1.090  0.0877 -1.1285  0.7626
  425MOL0     C58531  12.369   9.436   1.038  0.5241  0.1467  0.1214
  425MOL0     C58532  12.419   9.318   1.104  1.0102 -0.0800 -0.7803
  425MOL0     C58533  12.534   9.356   1.195  0.5108 -0.1878 -0.5330
  425MOL0     C58534  12.574   9.237   1.276 -0.1942  1.0877 -0.1089
  425MOL0     C58535  12.703   9.259   1.357 -0.1918  0.0711 -0.1799
  425MOL0     O58536  12.813   9.251   1.268 -0.4308 -0.1872  0.6835
  425MOL0     C58537  12.943   9.273   1.315 -0.5224 -0.8491 -0.8286
  425MOL0     C58538  12.969   9.323   1.447 -0.3831 -0.3360 -0.0090
  425MOL0     C58539  13.104   9.326   1.487 -0.8867 -0.3038  0.2188
  425MOL0     C58540  13.121   9.382   1.623 -0.2188 -0.2859 -0.1221
  425MOL0     C58541  13.218   9.292   1.398 -0.4323  0.0896 -0.1077
  425MOL0     C58542  13.360   9.328   1.425  0.4036 -0.3947 -0.1430
  425MOL0     O58543  13.442   9.294   1.329  0.1361 -0.4339 -0.1563
  425MOL0     C58544  13.573   9.341   1.337 -0.5951 -0.4170  0.4815
  425MOL0     C58545  13.670   9.277   1.410  0.4794  0.4552 -0.4881
  425MOL0     C58546  13.805   9.323   1.412 -0.2188  0.0011  0.5261
  425MOL0     C58547  13.837   9.418   1.308 -1.2312  0.0821  0.3528
  425MOL0     O58548  13.965   9.459   1.284 -0.2763 -0.3826  0.7676
  425MOL0     C58549  14.076   9.412   1.356 -1.1282  0.0473 -0.5073
  425MOL0     C58550  14.195   9.491   1.308  0.0638 -0.8468  0.8891
  425MOL0     C58551  14.232   9.458   1.162 -0.4144 -0.6461 -0.5762
  425MOL0     C58552  14.330   9.554   1.103 -0.2779  0.7917 -0.5137
  425MOL0     C58553  14.346   9.532   0.953  0.1965  0.8230 -0.7962
  425MOL0     C58554  14.455   9.634   0.903  1.1279 -0.2731 -0.2239
  425MOL0     C58555  14.462   9.619   0.751  0.2657  0.2357  0.8344
  425MOL0     C58556  14.604   9.589   0.708 -0.6737 -0.3350 -0.4656
  425MOL0    Cl58557  14.617   9.559   0.535  0.1775 -0.3592 -0.0741
  425MOL0     C58558  13.747   9.464   1.222 -0.3318 -0.8417  0.4835
  425MOL0     C58559  13.619   9.439   1.244  0.0096 -0.9366 -0.1700
  425MOL0     O58560  13.392   9.380   1.531  0.0913 -0.3482  0.8415
  425MOL0     C58561  13.182   9.249   1.273  0.7428 -0.0942 -0.0464
  425MOL0     C58562  13.045   9.234   1.228  0.8003  0.2616 -0.5086
  425MOL0     N58563  12.414   9.493   0.917 -0.1022 -0.2351 -0.4952
  425MOL0     N58564  12.360   9.614   0.900  0.0067  0.1824 -0.3760
  425MOL0     C58565  11.441  10.118   1.272  0.2523  0.6487 -0.0662
  425MOL0     C58566  11.303  10.115   1.288  0.4298 -0.6249 -0.4499
  425MOL0     C58567  10.862  10.094   1.224 -0.2272 -1.2910  0.2677
  425MOL0     C58568  10.778  10.016   1.303 -0.5893  0.9133 -0.4767
  425MOL0     C58569  10.640  10.018   1.282  0.0707 -0.1576 -0.1047
  425MOL0     C58570  10.580  10.091   1.179 -0.3365 -0.0394 -0.2241
  425MOL0     O58571  10.452  10.094   1.139  0.2771  0.1037 -0.3308
  425MOL0     C58572  10.363  10.016   1.206  0.1876  0.4554  0.3925
  425MOL0     C58573  10.223  10.026   1.135 -0.2813  0.0524 -1.4570
  425MOL0     C58574  10.154  10.154   1.169  1.0806  0.0568  0.0801
  425MOL0     C58575   9.995  10.124   1.176  0.2689 -1.1142 -0.3627
  425MOL0     C58576   9.921  10.240   1.235  0.0406 -0.4712  0.2211
  425MOL0     C58577   9.858  10.316   1.304 -1.4053  0.3263  0.4869
  425MOL0     C58578  10.665  10.164   1.105 -0.6386 -0.8472  0.7297
  425MOL0     C58579  10.803  10.186   1.125  0.3931  0.2662  0.2832
  425MOL0     C58580  10.871  10.292   1.047 -0.0216 -0.3805 -0.1457
  425MOL0     H58581  11.228  10.256   0.994 -1.3866 -0.1854  1.6837
  425MOL0     H58582  11.477  10.276   0.981  1.1375 -3.0822 -1.5965
  425MOL0     H58583  11.659  10.369   1.109  3.0097  2.1089 -0.0672
  425MOL0     H58584  11.724  10.240   0.995  1.2493  1.0320 -0.6858
  425MOL0     H58585  11.900  10.348   1.099 -0.6705  2.1706  2.8632
  425MOL0     H58586  11.855  10.295   1.260  1.8979  2.1726 -0.7873
  425MOL0     H58587  11.899  10.079   1.236  0.8901 -1.7128 -0.9105
  425MOL0     H58588  11.878  10.076   1.059 -3.5153  1.3893  0.5646
  425MOL0     H58589  12.094  10.238   1.055  0.5091  0.0204 -0.1169
  425MOL0     H58590  12.102  10.197   1.223  1.7820 -0.4351 -1.3294
  425MOL0     H58591  12.242  10.066   1.077 -0.2219  0.1284  1.0746
  425MOL0     H58592  12.101  10.002   0.989  0.6080 -0.5233 -0.7093
  425MOL0     H58593  12.134   9.959   1.290 -4.5326 -0.8292  1.3250
  425MOL0     H58594  12.024   9.872   1.192  0.1970 -0.3043  1.7871
  425MOL0     H58595  12.220   9.737   1.246  1.0657  1.7212  0.8414
  425MOL0     H58596  12.330   9.843   1.166  0.9237 -2.5889  2.3694
  425MOL0     H58597  12.087   9.729   1.020  0.5711 -0.1661  0.8137
  425MOL0     H58598  12.224   9.825   0.948  0.8846  0.5024 -0.1454
  425MOL0     H58599  12.213   9.506   1.183 -0.2336  0.9874  0.7625
  425MOL0     H58600  12.431   9.237   1.032 -1.3860 -0.8624 -0.3793
  425MOL0     H58601  12.341   9.269   1.162  2.1424 -0.3841  0.5540
  425MOL0     H58602  12.623   9.373   1.134  1.0865  0.9794  0.5772
  425MOL0     H58603  12.504   9.439   1.260  0.1397  0.7330 -1.8260
  425MOL0     H58604  12.496   9.211   1.349  1.3646 -0.1616  1.1921
  425MOL0     H58605  12.590   9.150   1.211  2.7671  0.6048  1.1325
  425MOL0     H58606  12.702   9.356   1.407 -0.2085 -0.6767  1.3552
  425MOL0     H58607  12.713   9.193   1.444 -1.3304  0.5327  0.3261
  425MOL0     H58608  12.888   9.343   1.517 -2.4893  1.3212 -2.7283
  425MOL0     H58609  13.042   9.336   1.684 -0.5567  0.1263 -0.2410
  425MOL0     H58610  13.116   9.491   1.626  0.4815 -0.1591 -1.9869
  425MOL0     H58611  13.211   9.363   1.681 -1.7173  0.9423  2.8213
  425MOL0     H58612  13.649   9.197   1.480  1.9526 -1.7530 -2.4667
  425MOL0     H58613  13.873   9.278   1.483  0.3635  2.2245  1.4493
  425MOL0     H58614  14.060   9.436   1.461 -0.2968  0.5507 -0.4864
  425MOL0     H58615  14.096   9.306   1.334  1.7789  0.9348 -2.7663
  425MOL0     H58616  14.174   9.596   1.327  1.8417 -0.7704  2.8074
  425MOL0     H58617  14.285   9.457   1.361  0.5458 -2.1305 -0.6550
  425MOL0     H58618  14.144   9.462   1.098 -1.4128  2.5284  0.7964
  425MOL0     H58619  14.277   9.359   1.149  1.2062  0.2345 -2.1053
  425MOL0     H58620  14.425   9.542   1.157 -1.2082 -1.0269  0.8379
  425MOL0     H58621  14.294   9.657   1.114  1.8831  1.8493 -2.5405
  425MOL0     H58622  14.373   9.428   0.930  1.9408  0.8018  1.0874
  425MOL0     H58623  14.253   9.558   0.902  0.3992  2.1214 -0.5352
  425MOL0     H58624  14.551   9.619   0.954 -0.5296  0.0204  3.2782
  425MOL0     H58625  14.424   9.733   0.936  2.7752  0.3936 -0.5516
  425MOL0     H58626  14.449   9.723   0.720 -0.6494  0.4387  1.8526
  425MOL0     H58627  14.390   9.560   0.694  0.3321  2.0474 -1.2654
  425MOL0     H58628  14.632   9.494   0.755 -0.7113 -0.4389 -0.6545
  425MOL0     H58629  14.675   9.666   0.740 -0.7894 -0.6766  0.6756
  425MOL0     H58630  13.778   9.538   1.149  1.7914 -2.6021 -0.5226
  425MOL0     H58631  13.544   9.485   1.181  0.1350  1.6626  1.4533
  425MOL0     H58632  13.264   9.215   1.210  1.5131  1.6985 -0.0682
  425MOL0     H58633  13.020   9.186   1.134  1.1112  0.7296 -0.8336
  425MOL0     H58634  11.496  10.062   1.347  0.4508  0.7379 -0.1454
  425MOL0     H58635  11.270  10.063   1.378  0.7510 -0.1807 -0.0681
  425MOL0     H58636  10.833   9.958   1.378 -0.1654  1.1875 -0.5716
  425MOL0     H58637  10.565   9.961   1.336 -2.4864  0.4629 -2.7393
  425MOL0     H58638  10.384   9.908   1.203  0.5528  0.5032  1.1139
  425MOL0     H58639  10.367  10.044   1.312  2.0220 -0.2564  0.5465
  425MOL0     H58640  10.154   9.950   1.174 -2.7749  2.6297 -0.4020
  425MOL0     H58641  10.231  10.013   1.027 -1.0394 -2.9264 -1.2469
  425MOL0     H58642  10.181  10.215   1.256  0.0057  2.1593 -0.9730
  425MOL0     H58643  10.165  10.220   1.082 -1.2685 -1.3178 -1.3643
  425MOL0     H58644   9.982  10.044   1.249 -2.6119 -0.1303  0.3531
  425MOL0     H58645   9.956  10.087   1.081 -1.3897  1.9685 -1.0026
  425MOL0     H58646   9.806  10.392   1.360 -2.2064  0.7204 -0.7540
  425MOL0     H58647  10.615  10.222   1.028 -1.1502 -1.6235  0.4569
  425MOL0     H58648  10.812  10.341   0.969 -0.0413 -0.5391 -0.2310
  425MOL0     H58649  10.898  10.379   1.109 -1.7555 -1.5808  2.4986
  425MOL0     H58650  10.956  10.241   1.002 -0.9002 -3.4734  1.4660
  426MOL0     O58651   2.434   7.355   6.401  0.0489  0.2959  0.1380
  426MOL0     C58652   2.412   7.386   6.284  0.2529  0.0484  0.0971
  426MOL0     O58653   2.485   7.359   6.183  0.1307  0.5390 -0.9230
  426MOL0     C58654   2.614   7.345   6.213  0.2623  0.4817 -0.1902
  426MOL0     C58655   2.702   7.450   6.173  0.5192  0.3873 -0.1783
  426MOL0     C58656   2.838   7.429   6.177  0.0425 -0.1929  0.5083
  426MOL0     C58657   2.900   7.321   6.229 -0.3906 -0.0910  0.5728
  426MOL0     O58658   3.032   7.305   6.246 -0.9891  0.0673 -0.0590
  426MOL0     C58659   3.108   7.372   6.150 -1.3429  0.5010 -0.0408
  426MOL0     C58660   3.139   7.515   6.175  0.0454  0.5975 -0.1048
  426MOL0     C58661   3.284   7.545   6.188 -1.0141 -0.1187  0.3580
  426MOL0     C58662   3.356   7.564   6.057 -0.6242  0.6800  0.4182
  426MOL0     C58663   3.379   7.718   6.033  0.1635  0.5659 -0.3281
  426MOL0     C58664   3.429   7.719   5.887 -0.7035 -1.2331 -0.1568
  426MOL0     C58665   3.420   7.855   5.814 -0.5458  0.7060 -0.5911
  426MOL0     C58666   3.437   7.855   5.659  0.1315 -0.4494 -0.2604
  426MOL0     N58667   3.549   7.782   5.615  0.0078  0.2079 -0.3744
  426MOL0     C58668   3.673   7.823   5.602  0.2581  0.5154  0.3259
  426MOL0     C58669   3.736   7.714   5.564 -0.0411  0.3029 -0.3590
  426MOL0     C58670   3.881   7.692   5.521  0.2182  0.4069  0.1732
  426MOL0     C58671   3.909   7.728   5.371 -1.1151 -0.2163 -0.3439
  426MOL0     C58672   4.058   7.739   5.357 -0.0273 -0.7952 -0.0953
  426MOL0     C58673   4.104   7.783   5.212  0.5405  0.8424  0.1575
  426MOL0     O58674   4.074   7.679   5.118  0.5419 -0.6218  0.0028
  426MOL0     C58675   4.167   7.584   5.090 -0.1964  0.2194 -0.5739
  426MOL0     C58676   4.125   7.498   4.986  0.3059  0.1911 -0.5168
  426MOL0     C58677   4.205   7.392   4.955  0.4292 -0.3385  0.1133
  426MOL0     C58678   4.164   7.299   4.832 -0.1573  0.0479  0.3986
  426MOL0     C58679   4.327   7.359   5.021 -0.2864 -0.5570  0.2063
  426MOL0     C58680   4.409   7.238   4.990  0.8719 -0.1823 -0.1375
  426MOL0     O58681   4.534   7.257   5.019 -0.8594  0.1323 -0.0192
  426MOL0     C58682   4.642   7.175   5.009  0.4375  0.3791  0.2438
  426MOL0     C58683   4.633   7.030   5.000 -0.1888  0.1210  0.0367
  426MOL0     C58684   4.749   6.952   4.983  0.2298 -0.1506 -0.6839
  426MOL0     C58685   4.869   7.023   4.963 -0.0777  0.3697 -0.2520
  426MOL0     O58686   4.988   6.948   4.954  0.4343 -0.3820 -0.0056
  426MOL0     C58687   5.115   7.012   4.978 -0.1728  0.3280  0.5770
  426MOL0     C58688   5.219   6.910   4.995  0.0129 -0.3635  0.3100
  426MOL0     C58689   5.286   6.865   4.870 -0.0883  0.0252 -0.4202
  426MOL0     C58690   5.372   6.751   4.906  0.1968  0.2952 -0.3569
  426MOL0     C58691   5.437   6.684   4.783  0.1920 -0.8479 -0.2134
  426MOL0     C58692   5.499   6.550   4.819 -0.0394  0.0329 -0.7353
  426MOL0     C58693   5.632   6.566   4.901  0.3662  0.4077 -0.1718
  426MOL0     C58694   5.719   6.446   4.885 -0.1624  0.1764 -0.2451
  426MOL0    Cl58695   5.631   6.294   4.931  0.4565 -0.4251  0.0167
  426MOL0     C58696   4.875   7.163   4.986  0.6640 -0.6563 -0.5958
  426MOL0     C58697   4.766   7.238   5.012 -0.9685  0.3329 -1.0741
  426MOL0     O58698   4.365   7.134   4.944 -0.2334 -0.5647  0.0067
  426MOL0     C58699   4.372   7.449   5.119 -0.1234 -0.0880  0.6495
  426MOL0     C58700   4.291   7.557   5.158 -0.2303  0.2907  0.7698
  426MOL0     N58701   3.649   7.612   5.565  0.3944  0.8408  1.5208
  426MOL0     N58702   3.532   7.651   5.594  0.0886  0.2310  0.8735
  426MOL0     C58703   2.815   7.229   6.290 -0.2320 -0.1262  0.6258
  426MOL0     C58704   2.675   7.235   6.276  0.6511 -0.9897 -0.9798
  426MOL0     C58705   2.275   7.427   6.252  0.8684  0.3332  0.2724
  426MOL0     C58706   2.185   7.448   6.356  0.3143  0.3845  0.3159
  426MOL0     C58707   2.050   7.474   6.331 -0.1670  0.2619 -0.5098
  426MOL0     C58708   1.993   7.489   6.206 -0.3920 -0.9077  1.4426
  426MOL0     O58709   1.862   7.520   6.196 -0.1465  0.1585 -0.7112
  426MOL0     C58710   1.819   7.574   6.068 -0.6219  0.7482 -0.5200
  426MOL0     C58711   1.673   7.597   6.063  0.4877  0.8696  0.3339
  426MOL0     C58712   1.613   7.678   6.179 -0.6648 -0.7126  0.3742
  426MOL0     C58713   1.547   7.584   6.277 -0.6454  0.3252  0.7380
  426MOL0     C58714   1.424   7.533   6.220  0.5720 -0.3056  0.8286
  426MOL0     C58715   1.320   7.489   6.183  0.1059 -0.5852  0.0987
  426MOL0     C58716   2.090   7.481   6.102  0.0938  0.6213 -0.6525
  426MOL0     C58717   2.221   7.443   6.114 -0.9304  0.4480 -0.8058
  426MOL0     C58718   2.301   7.432   5.981  0.1237 -0.8385 -0.0787
  426MOL0     H58719   2.651   7.537   6.134  1.7971  1.8327  1.2063
  426MOL0     H58720   2.886   7.520   6.142 -1.3356  0.6197  0.6577
  426MOL0     H58721   3.076   7.371   6.046 -1.4023  1.5212 -0.0404
  426MOL0     H58722   3.207   7.327   6.143 -2.3077 -1.4965 -2.6141
  426MOL0     H58723   3.096   7.562   6.086 -4.4421 -3.2970 -0.3598
  426MOL0     H58724   3.092   7.553   6.266  0.9240  1.4078  0.0270
  426MOL0     H58725   3.303   7.635   6.247 -0.2111  0.9251 -1.3990
  426MOL0     H58726   3.324   7.460   6.243 -1.5935  0.8240  2.3356
  426MOL0     H58727   3.446   7.504   6.042 -0.8686 -0.3410  2.6620
  426MOL0     H58728   3.283   7.535   5.981 -0.6568  0.6550  0.4598
  426MOL0     H58729   3.461   7.752   6.097  0.1051  2.3114 -1.1052
  426MOL0     H58730   3.290   7.780   6.048  0.7723  1.2774  0.4403
  426MOL0     H58731   3.534   7.688   5.894  0.1783  1.6699  0.6029
  426MOL0     H58732   3.371   7.652   5.822  0.1663 -1.3372 -0.8553
  426MOL0     H58733   3.492   7.922   5.861 -1.5518 -0.0253  2.2505
  426MOL0     H58734   3.320   7.894   5.833 -0.1361  1.1938  0.6402
  426MOL0     H58735   3.342   7.808   5.629 -0.5996 -0.9817  2.6022
  426MOL0     H58736   3.442   7.956   5.616 -1.5349 -0.2426 -0.0629
  426MOL0     H58737   3.713   7.923   5.617  2.9603 -0.2859 -0.9466
  426MOL0     H58738   3.906   7.587   5.536 -2.2115 -0.0487  1.5404
  426MOL0     H58739   3.940   7.752   5.591 -1.3656  0.1599  1.8178
  426MOL0     H58740   3.863   7.649   5.310  0.6507 -2.0719  0.5945
  426MOL0     H58741   3.872   7.831   5.361  0.0062  0.3441  1.0228
  426MOL0     H58742   4.105   7.810   5.426  0.6954  2.5672 -3.7057
  426MOL0     H58743   4.093   7.640   5.390 -2.2913 -0.9323  2.2451
  426MOL0     H58744   4.051   7.877   5.194 -2.1519 -0.5185  0.4999
  426MOL0     H58745   4.210   7.810   5.219  0.4832  0.9250  0.7801
  426MOL0     H58746   4.031   7.513   4.934 -0.7247 -3.8477 -0.1128
  426MOL0     H58747   4.257   7.282   4.777  1.5993  2.1320  2.4680
  426MOL0     H58748   4.091   7.350   4.768  1.0931 -0.0750 -1.1731
  426MOL0     H58749   4.114   7.207   4.863 -1.7473  1.0688  0.9708
  426MOL0     H58750   4.538   6.979   4.988  1.4766 -3.5209  0.8274
  426MOL0     H58751   4.742   6.844   4.975 -2.2104  0.0336 -2.3732
  426MOL0     H58752   5.138   7.074   4.890 -0.5286 -2.4094 -1.5798
  426MOL0     H58753   5.110   7.065   5.073 -0.9329  2.0628 -0.3708
  426MOL0     H58754   5.296   6.953   5.059  1.7697 -1.9589 -0.6662
  426MOL0     H58755   5.182   6.827   5.056  1.0969  0.4630  2.1589
  426MOL0     H58756   5.346   6.948   4.832  1.1777 -0.8993 -0.4696
  426MOL0     H58757   5.218   6.848   4.786  1.6765 -0.5493 -1.7834
  426MOL0     H58758   5.314   6.675   4.959  1.4133  2.1452  4.0968
  426MOL0     H58759   5.458   6.769   4.972  1.0385 -4.2530  0.1036
  426MOL0     H58760   5.367   6.668   4.701  0.4160 -0.5060 -0.4697
  426MOL0     H58761   5.521   6.751   4.761 -1.1475  1.2650  0.7624
  426MOL0     H58762   5.503   6.482   4.734 -3.0909  0.0037 -0.9486
  426MOL0     H58763   5.444   6.501   4.900  1.5985  1.7849  1.6095
  426MOL0     H58764   5.611   6.572   5.008  0.5176  1.3401 -0.1853
  426MOL0     H58765   5.693   6.651   4.869  3.6804 -1.4096  0.7953
  426MOL0     H58766   5.810   6.460   4.946 -0.0337 -0.1166 -0.3686
  426MOL0     H58767   5.748   6.451   4.780 -2.2275 -1.9087 -0.9894
  426MOL0     H58768   4.972   7.212   4.983  0.3930  0.1330  1.9315
  426MOL0     H58769   4.777   7.342   5.039 -1.3645 -0.1277  1.1155
  426MOL0     H58770   4.466   7.429   5.171 -0.2523  0.7642  1.2542
  426MOL0     H58771   4.327   7.625   5.235 -3.3931  3.0375  0.0577
  426MOL0     H58772   2.852   7.138   6.336  1.0320  0.0908  0.0708
  426MOL0     H58773   2.603   7.165   6.317 -1.0541  0.7649 -0.7824
  426MOL0     H58774   2.223   7.447   6.457  1.9026  0.3747 -0.2531
  426MOL0     H58775   1.988   7.496   6.417  1.0988  0.7046  0.3153
  426MOL0     H58776   1.876   7.660   6.031  1.9976 -0.4580  0.4582
  426MOL0     H58777   1.836   7.500   5.990 -1.0989  0.3987 -0.2980
  426MOL0     H58778   1.617   7.505   6.044  1.7222  0.2645 -0.4991
  426MOL0     H58779   1.646   7.652   5.972  0.3224  1.6207  0.8181
  426MOL0     H58780   1.690   7.730   6.238 -0.8211  0.3875 -0.3466
  426MOL0     H58781   1.537   7.743   6.134  1.3018  1.9846  0.6263
  426MOL0     H58782   1.515   7.626   6.373 -1.0900 -1.1523  1.2706
  426MOL0     H58783   1.624   7.508   6.293 -0.3593  0.4138 -0.1730
  426MOL0     H58784   1.219   7.462   6.162  0.2608 -0.4814 -0.7937
  426MOL0     H58785   2.051   7.490   6.001  1.2017 -0.2586 -1.1813
  426MOL0     H58786   2.346   7.336   5.955  1.3410 -0.0055 -1.1813
  426MOL0     H58787   2.234   7.453   5.897  2.2130 -0.8591 -1.8298
  426MOL0     H58788   2.372   7.515   5.976 -0.5765 -0.3151 -2.6817
  427MOL0     O58789   6.352   6.801   8.099 -0.4130 -0.4244 -0.6239
  427MOL0     C58790   6.287   6.898   8.125  0.1165 -0.4357  0.5324
  427MOL0     O58791   6.334   7.027   8.099 -0.9977 -0.2089  0.8200
  427MOL0     C58792   6.476   7.047   8.107  0.1764  0.1520 -0.5017
  427MOL0     C58793   6.556   7.003   8.215  0.7939 -0.7645  0.1079
  427MOL0     C58794   6.692   7.038   8.220 -0.1826 -0.2396  0.6745
  427MOL0     C58795   6.758   7.119   8.118  0.3352 -0.0310 -0.6045
  427MOL0     O58796   6.890   7.154   8.110 -0.4422  0.7827 -0.0794
  427MOL0     C58797   6.967   7.153   8.233  0.0631  0.4533 -0.0261
  427MOL0     C58798   7.045   7.028   8.249 -0.0196  0.5988  0.3432
  427MOL0     C58799   7.186   7.042   8.192 -0.3552 -0.0535  0.4509
  427MOL0     C58800   7.201   7.091   8.050 -0.4167  0.5096  0.4812
  427MOL0     C58801   7.349   7.083   8.011  0.0909 -0.0476  0.2458
  427MOL0     C58802   7.439   7.182   8.090 -1.1208 -0.0312 -0.1967
  427MOL0     C58803   7.574   7.229   8.024  1.4155 -0.0043 -0.3316
  427MOL0     C58804   7.686   7.122   8.013  1.2029  0.5327  0.6411
  427MOL0     N58805   7.816   7.182   8.021  0.5475 -0.6776 -0.0665
  427MOL0     C58806   7.886   7.206   8.130 -0.3813 -0.0755 -0.5009
  427MOL0     C58807   7.996   7.275   8.092  0.4177  0.2092  0.1903
  427MOL0     C58808   8.092   7.332   8.192 -0.1997  0.4268 -0.2137
  427MOL0     C58809   8.234   7.280   8.186  0.3568  0.9250 -1.2611
  427MOL0     C58810   8.237   7.130   8.209  0.5335 -0.4137  0.3407
  427MOL0     C58811   8.381   7.083   8.197 -0.1247  0.0289  0.6424
  427MOL0     O58812   8.447   7.131   8.079 -0.2769  0.2534 -0.2912
  427MOL0     C58813   8.581   7.151   8.065  0.0692 -0.4128 -0.3572
  427MOL0     C58814   8.624   7.231   7.957 -1.2522  0.5437  0.6151
  427MOL0     C58815   8.761   7.245   7.934  0.1969 -0.6246  0.0163
  427MOL0     C58816   8.804   7.332   7.820 -0.0934 -0.0840 -0.2871
  427MOL0     C58817   8.849   7.188   8.026 -0.8769  0.1089 -0.3684
  427MOL0     C58818   8.992   7.221   8.023  0.1354  0.2171 -0.2716
  427MOL0     O58819   9.078   7.124   8.012 -0.3620  0.8352 -0.1436
  427MOL0     C58820   9.202   7.149   7.974 -0.6149  0.1491  0.1199
  427MOL0     C58821   9.227   7.165   7.838  0.3024  0.0435  0.5966
  427MOL0     C58822   9.356   7.211   7.798  0.0377 -0.7009 -0.1512
  427MOL0     C58823   9.457   7.247   7.888 -0.3360  0.0196  0.3298
  427MOL0     O58824   9.575   7.306   7.851  0.6858 -0.1175 -0.0965
  427MOL0     C58825   9.571   7.376   7.729 -0.3011 -0.4559  0.0275
  427MOL0     C58826   9.682   7.489   7.723  0.4141 -0.8591  0.3538
  427MOL0     C58827   9.819   7.436   7.762  0.1712 -0.0094 -0.8606
  427MOL0     C58828   9.907   7.550   7.821 -0.0827 -0.8231 -0.1670
  427MOL0     C58829  10.057   7.507   7.796 -0.9972 -0.3944 -0.1106
  427MOL0     C58830  10.167   7.618   7.820  0.9094  0.1420  0.1672
  427MOL0     C58831  10.177   7.654   7.962 -0.0578  0.1040 -1.0104
  427MOL0     C58832  10.281   7.766   7.981 -0.3482 -0.2802  0.6492
  427MOL0    Cl58833  10.288   7.800   8.158 -0.1630  0.3108  0.0151
  427MOL0     C58834   9.430   7.223   8.024  0.6994 -0.4277  0.1671
  427MOL0     C58835   9.301   7.177   8.066 -0.3549 -0.5364 -0.7961
  427MOL0     O58836   9.016   7.341   8.033 -0.9439 -0.3728 -0.2771
  427MOL0     C58837   8.810   7.106   8.132  0.6024  0.5538  0.0647
  427MOL0     C58838   8.669   7.090   8.151 -0.1729  0.1785  0.1012
  427MOL0     N58839   7.997   7.274   7.956 -0.0588  0.0102  0.4218
  427MOL0     N58840   7.892   7.215   7.917 -0.1883  0.3881  0.6536
  427MOL0     C58841   6.670   7.168   8.016 -0.3472  0.3373 -0.1584
  427MOL0     C58842   6.537   7.126   8.011 -0.2088  0.3753  0.2878
  427MOL0     C58843   6.148   6.881   8.169  0.6430  0.7702  0.0438
  427MOL0     C58844   6.074   6.777   8.108  0.5529  0.0332  0.1211
  427MOL0     C58845   5.940   6.756   8.134  0.0863 -0.3055  0.5014
  427MOL0     C58846   5.875   6.839   8.229  0.4839 -0.2305  0.2194
  427MOL0     O58847   5.732   6.839   8.251 -0.0894 -0.0972  0.4939
  427MOL0     C58848   5.690   6.782   8.382 -1.2986 -0.1765 -0.0474
  427MOL0     C58849   5.716   6.628   8.386 -0.6118 -0.6689 -0.0364
  427MOL0     C58850   5.620   6.559   8.294 -0.4525  0.9387 -0.1000
  427MOL0     C58851   5.614   6.410   8.339  0.1894  0.2727  0.0464
  427MOL0     C58852   5.736   6.337   8.307 -0.0598  0.7772  0.6191
  427MOL0     C58853   5.848   6.289   8.268  0.5904  0.1099  0.4302
  427MOL0     C58854   5.953   6.925   8.309  0.1489  0.1467 -0.4422
  427MOL0     C58855   6.083   6.947   8.274 -0.1828 -0.4265 -0.1920
  427MOL0     C58856   6.165   7.042   8.363 -0.1897  0.2207  0.3962
  427MOL0     H58857   6.506   6.951   8.296  0.4315 -0.3438  0.1558
  427MOL0     H58858   6.758   6.996   8.295  1.3741 -1.3842 -1.2413
  427MOL0     H58859   6.903   7.170   8.320  2.2137 -1.8557  2.1803
  427MOL0     H58860   7.033   7.240   8.237  0.6661  0.0250 -0.4872
  427MOL0     H58861   7.059   7.009   8.356  0.6279  1.3108  0.3970
  427MOL0     H58862   6.995   6.945   8.200  1.0177  1.6195 -2.6665
  427MOL0     H58863   7.244   7.093   8.270 -0.0853 -0.6480  0.6467
  427MOL0     H58864   7.224   6.940   8.186 -0.4127  0.0050 -1.1100
  427MOL0     H58865   7.132   7.023   7.999  2.4777 -0.5926 -2.3835
  427MOL0     H58866   7.168   7.192   8.027  1.7069  0.5571 -3.1078
  427MOL0     H58867   7.340   7.113   7.906  0.0185 -0.1653  0.2175
  427MOL0     H58868   7.378   6.979   8.027 -2.0514 -0.7383  0.0369
  427MOL0     H58869   7.388   7.276   8.110  0.7676  0.5227  2.5373
  427MOL0     H58870   7.450   7.139   8.189  1.8192  1.5319  0.2575
  427MOL0     H58871   7.613   7.319   8.072  2.6332  0.0950 -1.4421
  427MOL0     H58872   7.558   7.263   7.921  1.9669 -0.1654 -0.4706
  427MOL0     H58873   7.684   7.063   8.105 -0.9605 -0.9001 -0.2557
  427MOL0     H58874   7.679   7.051   7.931  2.5127  1.8918 -0.7165
  427MOL0     H58875   7.853   7.191   8.233 -0.4195 -2.0250 -0.7739
  427MOL0     H58876   8.052   7.322   8.294 -1.1494  2.4836 -0.3266
  427MOL0     H58877   8.100   7.438   8.166  2.3574  0.5329  0.7294
  427MOL0     H58878   8.278   7.298   8.088 -1.1857  0.1312 -2.1372
  427MOL0     H58879   8.295   7.334   8.259  0.5978  0.6671 -1.2697
  427MOL0     H58880   8.180   7.088   8.292 -0.5300 -1.1287 -0.7166
  427MOL0     H58881   8.192   7.080   8.122 -1.3683 -1.4768  1.8687
  427MOL0     H58882   8.440   7.101   8.288 -2.2075 -0.1576  2.1068
  427MOL0     H58883   8.377   6.974   8.197  0.3156  0.0062 -0.0672
  427MOL0     H58884   8.544   7.272   7.895  0.2581  2.1165 -0.3841
  427MOL0     H58885   8.727   7.369   7.751  1.3985 -0.0732 -2.0011
  427MOL0     H58886   8.876   7.278   7.758  0.0407 -1.0715  0.6909
  427MOL0     H58887   8.852   7.417   7.869 -1.4915  0.3957  0.3143
  427MOL0     H58888   9.140   7.145   7.777  1.1076  0.9814 -0.9442
  427MOL0     H58889   9.381   7.224   7.693  2.1876  1.5637  0.5693
  427MOL0     H58890   9.583   7.305   7.646  2.4323 -0.5693  0.4342
  427MOL0     H58891   9.479   7.433   7.709  1.1839  1.3570 -2.1270
  427MOL0     H58892   9.678   7.529   7.622 -2.8720 -3.0158 -0.5484
  427MOL0     H58893   9.654   7.570   7.791  0.7818 -0.2227 -0.2394
  427MOL0     H58894   9.863   7.376   7.682 -0.1673 -0.1414 -0.9494
  427MOL0     H58895   9.801   7.373   7.850 -0.3779 -0.9354 -1.6203
  427MOL0     H58896   9.892   7.554   7.930  3.5109  2.3283  0.3995
  427MOL0     H58897   9.882   7.648   7.780 -1.7289 -0.9739  0.3758
  427MOL0     H58898  10.084   7.424   7.862  0.9307 -0.8810 -1.4371
  427MOL0     H58899  10.074   7.473   7.694  0.2200  0.8465 -0.3528
  427MOL0     H58900  10.143   7.710   7.767  0.3900 -0.0319  0.0892
  427MOL0     H58901  10.260   7.573   7.784  0.8837 -1.0830  1.5541
  427MOL0     H58902  10.205   7.564   8.017  0.1238  2.6652  3.5794
  427MOL0     H58903  10.082   7.676   8.012 -0.3970 -0.6052 -1.3371
  427MOL0     H58904  10.234   7.850   7.930 -0.3073  0.9845  2.5906
  427MOL0     H58905  10.375   7.746   7.930 -0.8329 -2.3267  0.4311
  427MOL0     H58906   9.517   7.239   8.088 -0.9938 -1.1962  2.8479
  427MOL0     H58907   9.288   7.165   8.173 -0.9735 -0.2077 -0.8280
  427MOL0     H58908   8.881   7.066   8.204  1.3556  1.8029  0.0452
  427MOL0     H58909   8.641   7.021   8.229  3.8988  0.4366  2.0459
  427MOL0     H58910   6.710   7.233   7.939 -2.5924  0.4220 -1.3227
  427MOL0     H58911   6.471   7.159   7.932 -0.9938 -3.7807 -1.0277
  427MOL0     H58912   6.124   6.710   8.038  1.2689  2.0649 -1.3990
  427MOL0     H58913   5.869   6.694   8.081  1.2072 -1.4825  0.3180
  427MOL0     H58914   5.741   6.827   8.467  1.3217 -0.2589 -1.4829
  427MOL0     H58915   5.582   6.789   8.398 -0.8863  0.0133  3.2758
  427MOL0     H58916   5.709   6.605   8.492  3.3304 -0.0794  0.4952
  427MOL0     H58917   5.814   6.594   8.350 -0.9428 -2.3159  0.5175
  427MOL0     H58918   5.517   6.594   8.303 -1.5656 -1.1345 -3.0697
  427MOL0     H58919   5.651   6.571   8.190  1.3652 -2.2052 -0.0352
  427MOL0     H58920   5.529   6.377   8.279  0.3154  2.6558 -1.5809
  427MOL0     H58921   5.590   6.391   8.444  3.1586  4.4663  1.7842
  427MOL0     H58922   5.942   6.243   8.244  0.5101  0.8233 -1.4050
  427MOL0     H58923   5.898   6.980   8.384  1.5446  0.6153  0.2589
  427MOL0     H58924   6.127   7.031   8.465 -0.1415  2.0461  0.6347
  427MOL0     H58925   6.273   7.027   8.359 -0.0308  1.0277  1.3018
  427MOL0     H58926   6.145   7.147   8.342 -2.5132 -0.3767 -0.6347
  428MOL0     O58927   9.302   2.919   2.316  0.2292  0.3927  0.3824
  428MOL0     C58928   9.239   2.999   2.243 -0.9391 -0.1034 -0.8058
  428MOL0     O58929   9.299   3.100   2.168 -0.1899 -0.3054 -0.1426
  428MOL0     C58930   9.437   3.098   2.158 -0.6373  0.4888 -0.2951
  428MOL0     C58931   9.507   3.217   2.172 -0.0490  0.5172  0.3975
  428MOL0     C58932   9.646   3.219   2.144  0.0305 -0.2947 -0.0189
  428MOL0     C58933   9.714   3.107   2.106 -0.5439 -0.2060  0.6323
  428MOL0     O58934   9.846   3.127   2.079 -0.2641 -0.0040  0.1434
  428MOL0     C58935   9.908   3.053   1.970 -0.3124 -0.2122 -0.5519
  428MOL0     C58936  10.053   3.029   2.018  0.3984  0.5962 -0.0418
  428MOL0     C58937  10.063   2.929   2.135  0.5337  0.5149  0.0985
  428MOL0     C58938  10.204   2.871   2.163 -0.3943  0.1554 -0.0770
  428MOL0     C58939  10.199   2.807   2.304  0.4359 -0.1852  0.2195
  428MOL0     C58940  10.339   2.737   2.319  0.0600 -0.5748 -0.0956
  428MOL0     C58941  10.452   2.826   2.332  0.3545  0.5285 -0.3200
  428MOL0     C58942  10.435   2.933   2.443  0.1450  0.0985  0.1389
  428MOL0     N58943  10.549   3.022   2.452  0.4950 -0.1448  0.1936
  428MOL0     C58944  10.539   3.155   2.423  0.0372 -0.8800  0.2334
  428MOL0     C58945  10.636   3.214   2.485 -0.0948  1.0016 -0.2489
  428MOL0     C58946  10.668   3.360   2.504 -0.0028  0.3951 -0.2495
  428MOL0     C58947  10.669   3.445   2.374 -0.1825 -0.2011 -0.3666
  428MOL0     C58948  10.759   3.389   2.264 -0.8669  0.3870 -1.2687
  428MOL0     C58949  10.764   3.472   2.139 -1.0927 -0.0237  0.2532
  428MOL0     O58950  10.821   3.393   2.030 -0.2479 -0.7906 -0.3074
  428MOL0     C58951  10.962   3.389   2.017  0.1307  1.2582 -0.3195
  428MOL0     C58952  11.049   3.484   2.071  0.3010 -0.9532 -0.7270
  428MOL0     C58953  11.190   3.484   2.050  0.4990 -0.4547  0.0236
  428MOL0     C58954  11.277   3.592   2.118  0.3196 -0.5052 -0.2952
  428MOL0     C58955  11.245   3.389   1.961  1.1766  0.5953  0.5206
  428MOL0     C58956  11.389   3.370   1.931  0.7316 -0.2328  0.0403
  428MOL0     O58957  11.428   3.245   1.895  0.5106 -0.2433 -0.1644
  428MOL0     C58958  11.554   3.250   1.843 -1.0236 -0.5898 -0.3616
  428MOL0     C58959  11.574   3.291   1.712 -0.2544  0.3682 -0.2524
  428MOL0     C58960  11.703   3.275   1.661  0.3018  0.0477 -0.0484
  428MOL0     C58961  11.814   3.225   1.737 -0.3894 -0.1018 -0.3132
  428MOL0     O58962  11.940   3.209   1.677  0.1448  0.3404  0.3135
  428MOL0     C58963  11.977   3.258   1.540  0.5871 -0.0051 -0.1348
  428MOL0     C58964  11.978   3.408   1.540  0.2590 -0.1884 -0.3206
  428MOL0     C58965  12.053   3.484   1.635  0.0764  0.5267 -0.1459
  428MOL0     C58966  12.064   3.633   1.598  0.1525 -0.3583  0.4382
  428MOL0     C58967  12.134   3.721   1.701  0.3808 -0.3179  0.2580
  428MOL0     C58968  12.282   3.666   1.721  0.9115 -0.0712  0.3811
  428MOL0     C58969  12.389   3.776   1.772  0.3313  0.1201 -0.7782
  428MOL0     C58970  12.458   3.855   1.670  0.4777 -0.5852  0.8030
  428MOL0    Cl58971  12.592   3.945   1.749  0.2623 -0.5216 -0.2551
  428MOL0     C58972  11.785   3.193   1.868 -0.8476 -0.4272 -0.0663
  428MOL0     C58973  11.655   3.207   1.922 -0.2928  0.7317  0.7197
  428MOL0     O58974  11.453   3.470   1.929  0.2181 -0.3255  0.5302
  428MOL0     C58975  11.153   3.299   1.894 -0.1941  0.9884 -0.8762
  428MOL0     C58976  11.018   3.294   1.926  0.1864 -0.2363 -0.8162
  428MOL0     N58977  10.713   3.120   2.550  0.4976 -0.2004 -0.7076
  428MOL0     N58978  10.659   3.001   2.528  0.1880  0.3755 -0.2572
  428MOL0     C58979   9.642   2.988   2.091 -0.7800 -0.0989 -0.4823
  428MOL0     C58980   9.508   2.980   2.116  0.6751  0.4387  0.7179
  428MOL0     C58981   9.094   2.988   2.231 -0.0610  0.4005 -1.4516
  428MOL0     C58982   9.012   3.102   2.221 -0.4962  0.7500 -0.4004
  428MOL0     C58983   8.871   3.083   2.212 -0.8650  0.3863 -0.7250
  428MOL0     C58984   8.817   2.958   2.187  0.5632 -0.5235  0.4830
  428MOL0     O58985   8.686   2.934   2.155  0.0554 -0.0489 -0.4941
  428MOL0     C58986   8.612   3.044   2.108  0.0054 -0.4532  0.8492
  428MOL0     C58987   8.489   2.991   2.043  0.3946 -0.2670 -0.0961
  428MOL0     C58988   8.389   2.942   2.155  0.4141 -0.2640 -0.2052
  428MOL0     C58989   8.293   3.057   2.206 -0.0482  0.2894 -0.2768
  428MOL0     C58990   8.149   3.015   2.192 -0.7551 -0.2134  0.6191
  428MOL0     C58991   8.039   2.974   2.179  0.3295 -0.3207  0.6191
  428MOL0     C58992   8.897   2.849   2.190 -0.9293 -0.2284 -0.1860
  428MOL0     C58993   9.038   2.861   2.216 -0.1968  1.0119  0.2623
  428MOL0     C58994   9.121   2.736   2.209 -0.4288  0.5679  0.1871
  428MOL0     H58995   9.452   3.309   2.195  1.7539  1.6728  0.2590
  428MOL0     H58996   9.709   3.305   2.165  0.2576 -0.2726 -0.7685
  428MOL0     H58997   9.922   3.122   1.886  5.5150  0.3669  0.4636
  428MOL0     H58998   9.859   2.959   1.942 -2.7640  0.8923 -0.1366
  428MOL0     H58999  10.113   3.002   1.930 -0.8332 -1.9928 -0.1766
  428MOL0     H59000  10.099   3.124   2.046 -0.7370  1.9964 -2.4942
  428MOL0     H59001  10.038   2.972   2.232  2.8808  0.3537  0.8324
  428MOL0     H59002   9.997   2.842   2.125  1.0796  0.0611  0.4600
  428MOL0     H59003  10.227   2.793   2.090 -1.4276  0.1090 -0.3685
  428MOL0     H59004  10.279   2.950   2.153 -0.9949  0.8867  0.9899
  428MOL0     H59005  10.117   2.735   2.312 -1.1378  1.7598  2.7661
  428MOL0     H59006  10.182   2.880   2.383  2.6642  0.8718 -0.1866
  428MOL0     H59007  10.327   2.676   2.408 -2.0916 -1.3944 -0.8878
  428MOL0     H59008  10.365   2.676   2.232 -1.1933  1.5739 -2.0936
  428MOL0     H59009  10.473   2.879   2.239  2.4134 -1.4983 -1.1007
  428MOL0     H59010  10.531   2.753   2.354  1.1748  1.1283 -1.1879
  428MOL0     H59011  10.346   2.992   2.420 -1.2343 -2.6228 -2.2524
  428MOL0     H59012  10.420   2.871   2.532  2.9284  0.1397  0.7431
  428MOL0     H59013  10.457   3.198   2.367  1.1358 -0.2759 -0.9851
  428MOL0     H59014  10.760   3.361   2.563 -2.0889 -0.7953  3.3195
  428MOL0     H59015  10.596   3.400   2.575 -0.2467 -0.5815  0.0670
  428MOL0     H59016  10.564   3.450   2.344  0.4902  0.1117 -2.8431
  428MOL0     H59017  10.714   3.543   2.396  0.9234 -0.9789  0.9945
  428MOL0     H59018  10.859   3.386   2.308 -1.6291  1.3403  0.6465
  428MOL0     H59019  10.740   3.282   2.246  0.4403 -0.1127  0.1406
  428MOL0     H59020  10.666   3.515   2.117 -1.3596 -0.4288  0.6297
  428MOL0     H59021  10.824   3.563   2.152 -1.7319  0.6313 -1.1615
  428MOL0     H59022  11.028   3.564   2.143  3.3811  1.1173 -1.9325
  428MOL0     H59023  11.300   3.679   2.056 -1.5455  1.2794  1.3126
  428MOL0     H59024  11.368   3.543   2.153 -0.1138 -2.6819 -2.0185
  428MOL0     H59025  11.228   3.634   2.207  1.3011  1.9333 -0.8414
  428MOL0     H59026  11.495   3.320   1.644  0.4429 -0.0741 -1.2769
  428MOL0     H59027  11.715   3.294   1.554 -0.9305 -2.1588 -0.6438
  428MOL0     H59028  12.079   3.231   1.511  0.1859 -0.1359 -1.4881
  428MOL0     H59029  11.907   3.225   1.463  1.6669  1.1840 -1.7073
  428MOL0     H59030  11.999   3.434   1.436 -0.3527  2.3809  0.1308
  428MOL0     H59031  11.874   3.436   1.562  0.5269  0.8326 -0.3106
  428MOL0     H59032  12.150   3.436   1.650 -0.4917 -0.3290  0.9488
  428MOL0     H59033  12.003   3.482   1.732 -1.4474  2.1051 -0.8417
  428MOL0     H59034  11.964   3.673   1.583  0.2345 -0.5807 -0.8018
  428MOL0     H59035  12.120   3.644   1.504 -0.9062  1.0938 -0.0724
  428MOL0     H59036  12.136   3.821   1.658 -2.4336 -0.5056 -0.5261
  428MOL0     H59037  12.084   3.715   1.798  1.0977  1.6046  0.7820
  428MOL0     H59038  12.308   3.610   1.631  1.1962 -0.6686  0.8339
  428MOL0     H59039  12.288   3.590   1.799  3.6284  1.1248  1.4548
  428MOL0     H59040  12.461   3.723   1.835  0.9276  2.5414  0.7053
  428MOL0     H59041  12.334   3.849   1.833 -0.9186 -1.1018 -0.3763
  428MOL0     H59042  12.384   3.923   1.627  0.0810 -2.6196 -1.9988
  428MOL0     H59043  12.494   3.788   1.592  0.1758 -1.1587  1.1530
  428MOL0     H59044  11.863   3.147   1.928 -0.7156  0.5329  0.5186
  428MOL0     H59045  11.636   3.183   2.026  1.2640  2.1097  1.3722
  428MOL0     H59046  11.192   3.228   1.822 -2.4979 -2.0231  0.6149
  428MOL0     H59047  10.945   3.226   1.883 -1.4835  2.3564 -2.4115
  428MOL0     H59048   9.689   2.894   2.063  0.6834  0.1773  0.8908
  428MOL0     H59049   9.454   2.890   2.088  1.4957 -0.1135  0.8570
  428MOL0     H59050   9.059   3.199   2.230  3.4155 -1.0186  0.2693
  428MOL0     H59051   8.811   3.172   2.230  2.1352  2.6660 -1.2381
  428MOL0     H59052   8.586   3.117   2.185 -0.4630 -2.2030  2.4130
  428MOL0     H59053   8.666   3.095   2.028  1.3455 -2.7822  0.1807
  428MOL0     H59054   8.503   2.917   1.963 -0.4719  1.0939 -1.5573
  428MOL0     H59055   8.447   3.077   1.992  0.5171 -0.8558 -1.2247
  428MOL0     H59056   8.318   2.868   2.118 -0.7348  0.3500  0.6659
  428MOL0     H59057   8.434   2.883   2.235 -0.0137 -0.3237 -0.0050
  428MOL0     H59058   8.323   3.144   2.148 -1.2154  1.0723  0.2558
  428MOL0     H59059   8.313   3.084   2.310  0.4602 -0.1951 -0.2464
  428MOL0     H59060   7.944   2.930   2.157  0.4851 -0.5679  0.4306
  428MOL0     H59061   8.838   2.759   2.179 -2.0114  0.4011  0.3004
  428MOL0     H59062   9.162   2.712   2.307  0.9259  2.4938  0.1610
  428MOL0     H59063   9.057   2.657   2.169  0.2391 -0.2989  0.8047
  428MOL0     H59064   9.214   2.750   2.153  0.8953  1.2071  2.4391
  429MOL0     O59065   5.033   6.107  10.938  0.1180 -0.0719  0.0103
  429MOL0     C59066   5.075   6.217  10.967 -0.5033  0.2466  0.3667
  429MOL0     O59067   5.176   6.239  11.063  0.3064  0.4480  0.6301
  429MOL0     C59068   5.263   6.133  11.108  0.7405  0.1794  0.5292
  429MOL0     C59069   5.323   6.149  11.232 -0.5305  1.2375 -0.4995
  429MOL0     C59070   5.407   6.040  11.280 -0.7018  0.1697  0.6917
  429MOL0     C59071   5.450   5.935  11.194  0.0297  0.5326  0.1585
  429MOL0     O59072   5.517   5.824  11.256  0.0784 -0.3610  0.9251
  429MOL0     C59073   5.541   5.712  11.168 -0.4066  0.0055  0.4118
  429MOL0     C59074   5.643   5.604  11.233  0.1877  0.0596 -0.4187
  429MOL0     C59075   5.644   5.467  11.162  0.2413  0.5782 -0.3282
  429MOL0     C59076   5.635   5.476  11.008  0.2682  0.2979 -0.2304
  429MOL0     C59077   5.668   5.340  10.937  0.5248 -0.5529 -0.3052
  429MOL0     C59078   5.717   5.377  10.793  0.2254 -0.0881 -0.8738
  429MOL0     C59079   5.725   5.243  10.715 -0.4100 -0.0145 -0.3386
  429MOL0     C59080   5.826   5.138  10.772  0.6486  0.5041 -0.4389
  429MOL0     N59081   5.963   5.173  10.729 -0.4850  0.4253  0.0305
  429MOL0     C59082   6.015   5.124  10.605 -0.3124  0.1173 -0.4706
  429MOL0     C59083   6.130   5.194  10.598  0.0689  0.7684  0.2806
  429MOL0     C59084   6.215   5.222  10.478 -0.8164  0.3249 -1.1282
  429MOL0     C59085   6.357   5.169  10.494  0.5479  0.0902  0.1990
  429MOL0     C59086   6.356   5.017  10.474  0.0059 -0.2844 -0.1677
  429MOL0     C59087   6.494   4.960  10.520 -0.0893  0.8646  0.3508
  429MOL0     O59088   6.590   4.999  10.420  0.2350 -0.1697 -0.9590
  429MOL0     C59089   6.722   4.980  10.447 -0.5307  0.3670 -0.0369
  429MOL0     C59090   6.812   5.061  10.379 -0.8330  0.3821  0.3032
  429MOL0     C59091   6.949   5.055  10.406  0.1587 -0.2332 -0.1151
  429MOL0     C59092   7.047   5.137  10.324 -0.6055  0.7484  0.2163
  429MOL0     C59093   6.996   4.980  10.516  0.6462 -1.1945 -0.2801
  429MOL0     C59094   7.140   4.974  10.563 -0.7280  0.9274  0.4066
  429MOL0     O59095   7.236   4.975  10.466 -0.7392  0.3942  0.4428
  429MOL0     C59096   7.373   4.970  10.489  0.3082  0.3296 -0.2288
  429MOL0     C59097   7.439   4.884  10.586  0.5819 -1.1074  0.0746
  429MOL0     C59098   7.573   4.904  10.619 -0.1461  0.0378 -0.0873
  429MOL0     C59099   7.648   5.002  10.555 -0.7932 -0.4444 -0.0300
  429MOL0     O59100   7.780   5.044  10.580 -0.1347 -0.4014  0.0933
  429MOL0     C59101   7.850   5.020  10.698  0.5753 -0.0206 -0.2884
  429MOL0     C59102   7.926   5.138  10.737 -0.5831 -0.5560 -0.0461
  429MOL0     C59103   8.047   5.165  10.641  0.5828  0.3808  0.2907
  429MOL0     C59104   8.168   5.067  10.667  0.6609  0.1187 -0.0605
  429MOL0     C59105   8.273   5.102  10.562 -0.5546  0.0172 -0.0510
  429MOL0     C59106   8.397   5.023  10.596 -0.6482  0.4726  0.4811
  429MOL0     C59107   8.496   5.042  10.480 -0.1924 -0.7583  0.3199
  429MOL0     C59108   8.635   5.014  10.535 -1.0956 -0.8546  0.2047
  429MOL0    Cl59109   8.739   4.979  10.392  0.5323  0.0534 -0.3609
  429MOL0     C59110   7.589   5.071  10.453 -0.1614  0.1625 -0.1705
  429MOL0     C59111   7.448   5.063  10.424 -0.1129  0.9919 -0.9531
  429MOL0     O59112   7.170   4.953  10.682  0.0991 -0.1562  0.2952
  429MOL0     C59113   6.897   4.903  10.584 -0.1302 -0.0341 -0.0316
  429MOL0     C59114   6.768   4.898  10.554  0.2769  0.0028  0.1086
  429MOL0     N59115   6.145   5.269  10.714  0.8064 -0.4350  0.0164
  429MOL0     N59116   6.046   5.248  10.796 -0.4315  0.5854  0.3119
  429MOL0     C59117   5.407   5.940  11.063  0.0221  0.4999  0.2309
  429MOL0     C59118   5.315   6.036  11.022  0.5851  0.1504  0.3003
  429MOL0     C59119   5.004   6.336  10.911  0.4760  0.2802 -0.2058
  429MOL0     C59120   5.022   6.461  10.970  0.4700  1.1714  0.4829
  429MOL0     C59121   4.974   6.584  10.916 -0.4118  0.0850  0.4776
  429MOL0     C59122   4.889   6.578  10.802  0.4536 -0.1653 -0.4190
  429MOL0     O59123   4.819   6.685  10.756  0.3752  0.1373 -0.8576
  429MOL0     C59124   4.873   6.727  10.634 -0.9508 -0.4614 -0.2636
  429MOL0     C59125   4.840   6.877  10.613 -0.0674 -1.1561 -0.4128
  429MOL0     C59126   4.916   6.921  10.479 -0.0148 -0.1662 -0.1639
  429MOL0     C59127   4.886   7.067  10.457  0.8502 -0.6936  0.4809
  429MOL0     C59128   4.745   7.083  10.418  0.5977 -0.7444 -0.1443
  429MOL0     C59129   4.633   7.101  10.379  0.2934  0.8256  0.0192
  429MOL0     C59130   4.859   6.455  10.750 -0.0109  0.2392 -0.2198
  429MOL0     C59131   4.916   6.337  10.796 -0.4385 -0.6120 -0.8388
  429MOL0     C59132   4.870   6.212  10.727  0.1366  0.0917 -0.7098
  429MOL0     H59133   5.288   6.228  11.298  0.4219  0.6681  0.7354
  429MOL0     H59134   5.452   6.041  11.379  0.7355 -1.7550  0.1147
  429MOL0     H59135   5.591   5.753  11.079 -2.4220 -1.3471 -1.4443
  429MOL0     H59136   5.452   5.654  11.142 -0.1334 -1.2594  2.1614
  429MOL0     H59137   5.738   5.658  11.226 -0.7067  1.6352 -1.1027
  429MOL0     H59138   5.612   5.593  11.337 -1.6272  2.3006 -0.6398
  429MOL0     H59139   5.738   5.412  11.177  0.2892  0.4831 -0.9403
  429MOL0     H59140   5.560   5.403  11.191 -0.8303  0.1983 -3.8430
  429MOL0     H59141   5.544   5.521  10.968 -0.3633 -1.1315 -0.4448
  429MOL0     H59142   5.706   5.554  10.977  0.8870 -0.3148 -0.3759
  429MOL0     H59143   5.573   5.286  10.927 -0.0163  0.2144  0.5594
  429MOL0     H59144   5.733   5.279  11.000  0.4562  3.2130  3.9013
  429MOL0     H59145   5.635   5.431  10.745  1.7178  0.4555 -2.9494
  429MOL0     H59146   5.815   5.425  10.796 -0.4933  1.5306  3.1836
  429MOL0     H59147   5.754   5.266  10.612 -0.4240 -3.8687 -1.3439
  429MOL0     H59148   5.631   5.196  10.686 -0.1114  1.2775 -3.9438
  429MOL0     H59149   5.819   5.151  10.880  0.6228  1.9662 -0.5939
  429MOL0     H59150   5.795   5.036  10.749 -0.0183  0.8470 -1.0951
  429MOL0     H59151   5.963   5.073  10.525 -0.3043  0.5578 -0.7577
  429MOL0     H59152   6.215   5.326  10.446 -0.7400  0.0561 -2.0336
  429MOL0     H59153   6.175   5.161  10.396  2.7565 -1.9658 -1.3882
  429MOL0     H59154   6.419   5.222  10.422 -0.6956  3.3467  1.3487
  429MOL0     H59155   6.407   5.187  10.590  1.5656  1.4073 -0.5567
  429MOL0     H59156   6.285   4.964  10.539  0.9766 -3.0763 -1.2745
  429MOL0     H59157   6.332   4.997  10.369  1.7201 -0.4437 -0.5528
  429MOL0     H59158   6.513   4.995  10.622 -2.2103  2.3560  0.2972
  429MOL0     H59159   6.480   4.851  10.514 -2.4529  1.0437  1.4075
  429MOL0     H59160   6.775   5.116  10.292 -0.6936 -1.2983 -0.8787
  429MOL0     H59161   7.123   5.174  10.393  0.7382 -1.4411  0.0175
  429MOL0     H59162   7.002   5.218  10.266 -0.7012  0.5437  0.0006
  429MOL0     H59163   7.098   5.069  10.255  0.2452  1.0714  0.5172
  429MOL0     H59164   7.391   4.801  10.635 -0.4598 -1.0879 -0.8718
  429MOL0     H59165   7.624   4.850  10.699  0.6646 -0.7550 -1.1169
  429MOL0     H59166   7.781   5.008  10.782  1.3934  1.2511  0.6078
  429MOL0     H59167   7.917   4.934  10.686 -0.4669 -0.9435  0.3608
  429MOL0     H59168   7.859   5.224  10.744 -0.4888 -0.6355  3.2860
  429MOL0     H59169   7.960   5.150  10.840 -2.2694 -0.6025  0.5553
  429MOL0     H59170   8.077   5.267  10.664 -0.0590  1.1130 -1.8893
  429MOL0     H59171   8.024   5.153  10.535  0.1687  2.2373  0.1447
  429MOL0     H59172   8.139   4.962  10.655  2.7872 -0.5539  0.2877
  429MOL0     H59173   8.202   5.081  10.770  2.0679 -3.0472  0.0122
  429MOL0     H59174   8.239   5.079  10.461 -0.2358 -6.8811  0.8934
  429MOL0     H59175   8.294   5.209  10.570  2.3468 -0.5497  1.6274
  429MOL0     H59176   8.365   4.919  10.600 -2.9641  1.1283  0.5286
  429MOL0     H59177   8.430   5.045  10.698 -0.5587 -1.9226  1.0216
  429MOL0     H59178   8.484   5.140  10.433 -1.9694 -1.0500  0.0737
  429MOL0     H59179   8.468   4.968  10.404  1.0451 -1.7624  0.8136
  429MOL0     H59180   8.631   4.944  10.619 -0.2148  0.2618  1.2035
  429MOL0     H59181   8.683   5.101  10.581  1.6214 -2.4210  0.4892
  429MOL0     H59182   7.644   5.141  10.390 -0.0418 -0.3498 -0.6352
  429MOL0     H59183   7.404   5.130  10.351 -0.9367 -0.3492 -1.7274
  429MOL0     H59184   6.933   4.852  10.673  2.4164  0.2077 -0.8231
  429MOL0     H59185   6.702   4.847  10.623 -0.6721  0.0156 -0.7598
  429MOL0     H59186   5.429   5.859  10.994 -0.2370 -2.2639  3.1537
  429MOL0     H59187   5.285   6.031  10.918  1.9672 -2.2395 -0.0744
  429MOL0     H59188   5.075   6.468  11.065  1.0304  1.4943  0.1548
  429MOL0     H59189   5.005   6.678  10.959  1.6892  0.2117 -1.1651
  429MOL0     H59190   4.979   6.703  10.627 -1.0155 -0.6577 -0.5923
  429MOL0     H59191   4.828   6.679  10.547  1.3510 -1.8095 -0.7714
  429MOL0     H59192   4.882   6.930  10.699  1.0699 -0.4809 -1.3538
  429MOL0     H59193   4.733   6.897  10.606  0.2931  0.6737 -1.7037
  429MOL0     H59194   5.023   6.906  10.497  0.0088  1.6309  1.5286
  429MOL0     H59195   4.881   6.865  10.391 -1.1969 -0.0967  0.2402
  429MOL0     H59196   4.937   7.094  10.364  1.2750 -2.2875  0.2267
  429MOL0     H59197   4.921   7.137  10.533 -1.8824  1.6091 -0.1756
  429MOL0     H59198   4.529   7.104  10.353  0.4159  1.5255 -0.4340
  429MOL0     H59199   4.766   6.461  10.693 -1.4415  1.0778  2.0667
  429MOL0     H59200   4.959   6.155  10.701 -0.2771 -1.8795  1.8370
  429MOL0     H59201   4.801   6.154  10.789 -3.0560  2.6383 -1.5894
  429MOL0     H59202   4.819   6.238  10.634 -0.3676  1.1440 -0.1675
  430MOL0     O59203   2.225  10.376   4.242 -0.0011 -0.0363 -0.1002
  430MOL0     C59204   2.226  10.450   4.147  1.1824 -0.1244  0.8923
  430MOL0     O59205   2.329  10.466   4.056  0.1579 -0.2951 -0.1995
  430MOL0     C59206   2.445  10.388   4.073  0.5210  0.0378  0.5885
  430MOL0     C59207   2.514  10.374   4.190 -0.2551 -0.0357 -0.7469
  430MOL0     C59208   2.635  10.305   4.197  0.1163  1.2317  1.2336
  430MOL0     C59209   2.688  10.250   4.080 -0.5932 -0.5318 -0.4340
  430MOL0     O59210   2.811  10.187   4.070 -0.5567 -0.0010 -0.1931
  430MOL0     C59211   2.859  10.111   4.181 -0.1402 -0.4752  0.1071
  430MOL0     C59212   3.014  10.137   4.207 -0.4879  0.3592  0.1552
  430MOL0     C59213   3.087  10.070   4.094  0.1886  0.1983  0.1190
  430MOL0     C59214   3.232  10.040   4.140  0.9443 -0.4012  0.0609
  430MOL0     C59215   3.324   9.970   4.033  0.2135 -0.3004 -0.0828
  430MOL0     C59216   3.308  10.019   3.888  0.2658  0.2435 -0.0040
  430MOL0     C59217   3.439   9.965   3.813 -0.3300 -0.0054 -0.9261
  430MOL0     C59218   3.448   9.808   3.804  0.1241  0.1175  0.4134
  430MOL0     N59219   3.580   9.759   3.766  0.6463  0.1547 -0.7464
  430MOL0     C59220   3.597   9.703   3.648  0.0856  0.1484  0.3568
  430MOL0     C59221   3.715   9.649   3.658 -0.7815  0.2559 -0.0722
  430MOL0     C59222   3.790   9.592   3.541 -0.1528  0.1021 -0.1799
  430MOL0     C59223   3.892   9.689   3.481 -0.0040  0.4977  0.7455
  430MOL0     C59224   4.019   9.691   3.567 -0.0312 -0.9554 -0.6849
  430MOL0     C59225   4.102   9.566   3.567 -0.4207  0.2533 -0.8873
  430MOL0     O59226   4.239   9.592   3.614  0.8074  0.0125  0.5565
  430MOL0     C59227   4.345   9.503   3.601 -0.8013  0.3659  0.0881
  430MOL0     C59228   4.336   9.369   3.633  0.0411 -0.1759 -0.3758
  430MOL0     C59229   4.440   9.282   3.626 -0.2594 -0.4549 -0.3419
  430MOL0     C59230   4.415   9.139   3.663 -0.0021 -0.1939  0.3437
  430MOL0     C59231   4.574   9.327   3.587 -0.2806  0.5906 -0.0673
  430MOL0     C59232   4.696   9.236   3.584 -0.5833 -0.0728  0.3575
  430MOL0     O59233   4.683   9.099   3.564 -0.7977  0.3722  0.0183
  430MOL0     C59234   4.795   9.027   3.609  0.3616 -0.1220 -0.4018
  430MOL0     C59235   4.806   8.998   3.747 -0.7572  0.0519  0.4276
  430MOL0     C59236   4.908   8.922   3.802  0.1179 -0.6372  0.2638
  430MOL0     C59237   5.007   8.879   3.715 -0.1212  0.5563  0.2091
  430MOL0     O59238   5.098   8.787   3.768  0.8832 -0.0863  0.1843
  430MOL0     C59239   5.235   8.808   3.741  0.0039  0.5052  0.0740
  430MOL0     C59240   5.277   8.952   3.754  0.5929  0.1965  0.3832
  430MOL0     C59241   5.416   8.967   3.797  0.2415  0.8454  0.5123
  430MOL0     C59242   5.502   8.923   3.678 -0.7649 -0.5504  0.4631
  430MOL0     C59243   5.648   8.924   3.695  0.4480  0.4350 -0.8230
  430MOL0     C59244   5.706   9.066   3.698 -0.3410  0.4293  0.3944
  430MOL0     C59245   5.858   9.056   3.685  0.0104 -0.0979 -0.0624
  430MOL0     C59246   5.922   9.193   3.685  0.3607  0.4045  0.3349
  430MOL0    Cl59247   5.892   9.283   3.531 -0.1951 -0.4443 -0.0442
  430MOL0     C59248   5.003   8.902   3.572 -0.3248 -0.1449  0.5446
  430MOL0     C59249   4.891   8.980   3.521 -1.7444 -0.0540 -0.0276
  430MOL0     O59250   4.803   9.297   3.575 -0.4704  0.4388 -0.0572
  430MOL0     C59251   4.585   9.462   3.560  0.2966  0.4406  0.0789
  430MOL0     C59252   4.474   9.545   3.561  1.1041  0.5010  0.6822
  430MOL0     N59253   3.763   9.664   3.779 -0.3032  0.0242 -0.6986
  430MOL0     N59254   3.684   9.736   3.851 -0.3460  1.0655 -0.1363
  430MOL0     C59255   2.625  10.273   3.960 -0.0188 -0.0793 -0.2877
  430MOL0     C59256   2.503  10.345   3.957  0.8801 -0.3128  0.1062
  430MOL0     C59257   2.100  10.536   4.138 -0.2354 -0.4474  0.1920
  430MOL0     C59258   2.009  10.534   4.248  0.7093  0.1970  0.2397
  430MOL0     C59259   1.889  10.603   4.245 -0.8661 -0.1988 -0.2798
  430MOL0     C59260   1.854  10.673   4.133 -0.6888 -0.2685  0.9926
  430MOL0     O59261   1.731  10.730   4.149 -0.2046  0.0241  0.5729
  430MOL0     C59262   1.662  10.794   4.037 -0.0832  0.4587 -0.0208
  430MOL0     C59263   1.615  10.699   3.926  0.5867  0.1598  0.5051
  430MOL0     C59264   1.501  10.747   3.834  1.0940  0.6528  0.0629
  430MOL0     C59265   1.371  10.744   3.903  0.0262 -0.2543  0.2823
  430MOL0     C59266   1.313  10.613   3.941  0.0042 -0.1831  0.6023
  430MOL0     C59267   1.265  10.516   3.974  0.1081  1.1087 -0.7483
  430MOL0     C59268   1.944  10.684   4.023  0.9998 -0.1854 -1.3268
  430MOL0     C59269   2.066  10.612   4.028  0.2687 -0.8922  0.9608
  430MOL0     C59270   2.151  10.620   3.901 -0.6443 -0.5973 -0.3269
  430MOL0     H59271   2.464  10.419   4.275 -0.5979 -0.1902 -0.8658
  430MOL0     H59272   2.703  10.312   4.282 -1.2740 -0.2564  2.5367
  430MOL0     H59273   2.845  10.006   4.153  0.0309 -0.5427  0.2731
  430MOL0     H59274   2.796  10.128   4.269 -2.1728  2.0713 -1.6671
  430MOL0     H59275   3.041  10.240   4.231  2.3061 -0.5959  1.4886
  430MOL0     H59276   3.047  10.096   4.303  1.0084  0.8525 -0.1298
  430MOL0     H59277   3.046   9.975   4.060  2.4995 -0.6757 -0.4098
  430MOL0     H59278   3.093  10.138   4.009  2.2043 -2.3357 -1.9351
  430MOL0     H59279   3.278  10.134   4.170 -0.2533  1.8294 -4.2693
  430MOL0     H59280   3.235   9.987   4.235  1.1703 -0.9686 -0.2533
  430MOL0     H59281   3.284   9.868   4.036 -3.5398  0.9963 -0.7307
  430MOL0     H59282   3.424   9.977   4.078  0.3169  1.7012 -0.5553
  430MOL0     H59283   3.227   9.981   3.825  0.4336 -1.0170  0.5032
  430MOL0     H59284   3.300  10.128   3.893 -0.5258  0.2914 -1.5376
  430MOL0     H59285   3.525  10.012   3.860 -0.4577 -1.0430  0.3880
  430MOL0     H59286   3.447  10.012   3.715  1.3007 -1.1381 -1.3764
  430MOL0     H59287   3.421   9.749   3.892 -1.3873 -2.0390 -1.3804
  430MOL0     H59288   3.376   9.764   3.735  1.7399 -1.3815 -0.3829
  430MOL0     H59289   3.534   9.705   3.560  0.7784 -2.0405 -0.2535
  430MOL0     H59290   3.721   9.570   3.459 -1.1945 -0.6441  0.8659
  430MOL0     H59291   3.835   9.496   3.567  0.4838  0.4471  0.0149
  430MOL0     H59292   3.915   9.642   3.384  2.4112 -0.6087  1.7743
  430MOL0     H59293   3.850   9.788   3.461 -0.9248 -0.3362 -1.8715
  430MOL0     H59294   4.083   9.767   3.522 -1.4510  1.8344  1.6705
  430MOL0     H59295   4.006   9.724   3.671  1.1207 -1.5576 -0.3295
  430MOL0     H59296   4.060   9.507   3.649  1.0376  1.8371  1.0775
  430MOL0     H59297   4.115   9.522   3.467 -0.0735 -0.5915 -0.4801
  430MOL0     H59298   4.237   9.335   3.662 -1.5181  2.5163 -2.1884
  430MOL0     H59299   4.322   9.123   3.720  0.0706 -1.9679  0.0327
  430MOL0     H59300   4.496   9.104   3.729 -0.4431 -2.0539 -0.0400
  430MOL0     H59301   4.415   9.081   3.571  0.4327  0.3112  0.0227
  430MOL0     H59302   4.735   9.041   3.817 -1.3335  0.3965 -0.3600
  430MOL0     H59303   4.913   8.908   3.909  2.3511  0.7371  0.3861
  430MOL0     H59304   5.291   8.751   3.816 -2.6427  0.4614  2.1823
  430MOL0     H59305   5.273   8.772   3.645 -0.1803  2.5020 -0.7742
  430MOL0     H59306   5.268   9.007   3.660  2.8683 -2.2088 -1.3839
  430MOL0     H59307   5.205   9.011   3.811 -1.5015 -0.7515 -1.1461
  430MOL0     H59308   5.449   8.919   3.890  2.5429 -0.3047 -0.7934
  430MOL0     H59309   5.435   9.073   3.818  0.8160  0.7452  0.5297
  430MOL0     H59310   5.491   8.988   3.590  1.9945  1.6355  1.6078
  430MOL0     H59311   5.477   8.819   3.658  0.8560 -1.0028  0.6883
  430MOL0     H59312   5.665   8.863   3.784  0.6028  0.7096 -0.6632
  430MOL0     H59313   5.704   8.881   3.610  0.6549  1.1446 -1.0506
  430MOL0     H59314   5.686   9.110   3.796 -0.0752 -1.7807  1.4877
  430MOL0     H59315   5.666   9.127   3.616  0.0693  0.4612  0.2176
  430MOL0     H59316   5.884   9.002   3.593 -0.8437 -4.1508  1.8479
  430MOL0     H59317   5.889   9.000   3.773  2.3251  1.7309  0.3713
  430MOL0     H59318   6.031   9.184   3.689  0.3068 -0.2948  0.4023
  430MOL0     H59319   5.882   9.248   3.770 -1.6924 -3.5835  2.2314
  430MOL0     H59320   5.065   8.850   3.500  1.6306  1.1987  1.1652
  430MOL0     H59321   4.888   9.017   3.419 -2.5778 -4.4886 -1.8322
  430MOL0     H59322   4.681   9.512   3.553  0.3918  0.3575  0.7912
  430MOL0     H59323   4.486   9.652   3.545  1.9932  0.4898  1.2237
  430MOL0     H59324   2.669  10.245   3.865 -0.7096  1.1795 -0.9963
  430MOL0     H59325   2.449  10.363   3.865  0.4685  1.2831  0.6367
  430MOL0     H59326   2.006  10.464   4.332  0.1000 -0.4581 -0.3090
  430MOL0     H59327   1.824  10.609   4.331 -1.1383 -3.1292 -0.1945
  430MOL0     H59328   1.578  10.845   4.085 -0.2692  0.9025 -0.8191
  430MOL0     H59329   1.723  10.874   3.998  0.6277  0.1666  0.4722
  430MOL0     H59330   1.581  10.610   3.980  0.6537 -0.0525  0.1998
  430MOL0     H59331   1.706  10.686   3.867 -0.8419 -2.5748 -1.3015
  430MOL0     H59332   1.518  10.850   3.801  2.0942 -0.5984 -3.8497
  430MOL0     H59333   1.493  10.689   3.741 -0.5206  1.1583 -0.1387
  430MOL0     H59334   1.293  10.782   3.836 -0.2445 -0.9960  0.1714
  430MOL0     H59335   1.379  10.813   3.988 -0.6753 -2.0096  1.8478
  430MOL0     H59336   1.212  10.423   3.982  0.6976  0.8205 -0.0725
  430MOL0     H59337   1.926  10.744   3.935  3.3347  1.5539 -0.7439
  430MOL0     H59338   2.197  10.523   3.879  2.7757  0.8451 -0.2533
  430MOL0     H59339   2.091  10.651   3.815  1.5759 -0.0424 -1.7755
  430MOL0     H59340   2.235  10.686   3.922 -1.4196 -0.2829  2.1294
  431MOL0     O59341   6.190   9.563   1.284  0.5161 -0.2718 -1.0297
  431MOL0     C59342   6.125   9.624   1.372  0.3518 -1.0880  0.0980
  431MOL0     O59343   6.152   9.757   1.412 -0.5826 -0.1360 -0.1662
  431MOL0     C59344   6.273   9.806   1.364 -0.7729  0.1338  0.2679
  431MOL0     C59345   6.368   9.839   1.452 -0.0546 -0.3453 -0.2026
  431MOL0     C59346   6.491   9.891   1.413  0.9650 -0.2969  0.1938
  431MOL0     C59347   6.519   9.899   1.275 -0.3156 -0.1636  0.6576
  431MOL0     O59348   6.645   9.953   1.253  0.3137  0.5749  0.1562
  431MOL0     C59349   6.724   9.891   1.157 -0.2590  0.4444 -0.5757
  431MOL0     C59350   6.853   9.957   1.185  0.1201  0.1744  0.4407
  431MOL0     C59351   6.915   9.899   1.317  0.6291 -0.4108 -0.9781
  431MOL0     C59352   7.067   9.857   1.298 -0.4817 -0.6547 -0.2147
  431MOL0     C59353   7.160   9.981   1.287  0.2057 -0.0484  0.1653
  431MOL0     C59354   7.295   9.923   1.261 -0.5752  0.2505  0.1406
  431MOL0     C59355   7.393  10.036   1.255 -0.5880  0.4061 -0.0096
  431MOL0     C59356   7.446  10.090   1.397  0.8949  0.1474  0.0386
  431MOL0     N59357   7.527  10.207   1.386  0.3118  0.3504 -0.6092
  431MOL0     C59358   7.664  10.200   1.337 -0.5833 -0.3261  0.3954
  431MOL0     C59359   7.699  10.333   1.334 -0.1669  0.7774  1.0342
  431MOL0     C59360   7.829  10.393   1.297 -0.1419 -0.1404  1.4136
  431MOL0     C59361   7.837  10.416   1.139 -0.2682  0.3238 -1.0209
  431MOL0     C59362   7.776  10.296   1.058  0.0905 -0.8625 -0.6748
  431MOL0     C59363   7.633  10.310   1.016  0.4742  0.1764 -0.3476
  431MOL0     O59364   7.602  10.187   0.952  0.2270  0.1287  0.1463
  431MOL0     C59365   7.472  10.160   0.916 -0.2637  0.2772  0.9227
  431MOL0     C59366   7.441  10.030   0.883 -0.3788 -0.1358 -1.0219
  431MOL0     C59367   7.317   9.989   0.860  0.3433  0.3449 -0.2290
  431MOL0     C59368   7.309   9.838   0.828 -0.6521 -0.2781  0.5322
  431MOL0     C59369   7.205  10.074   0.872  0.5165  0.4994 -0.4911
  431MOL0     C59370   7.060  10.047   0.858 -0.1030  0.0203 -0.0563
  431MOL0     O59371   6.974  10.146   0.828  0.3162 -0.1290 -0.5546
  431MOL0     C59372   6.840  10.145   0.853 -0.3069 -0.3792 -1.0468
  431MOL0     C59373   6.757  10.047   0.800 -0.3130  0.5782 -0.6451
  431MOL0     C59374   6.610  10.042   0.817  0.5296 -0.6981 -0.0081
  431MOL0     C59375   6.556  10.148   0.898  0.1140 -0.0769 -0.1101
  431MOL0     O59376   6.419  10.170   0.923 -0.2358 -0.9384 -0.2843
  431MOL0     C59377   6.317  10.086   0.866 -0.6954  0.4371  0.3899
  431MOL0     C59378   6.180  10.138   0.900  0.6559 -0.1694  0.5188
  431MOL0     C59379   6.145  10.134   1.050  0.3603  0.7704  0.3326
  431MOL0     C59380   6.002  10.177   1.082  0.7788 -0.6603 -0.1064
  431MOL0     C59381   5.984  10.160   1.234  0.5654 -0.3769 -0.8735
  431MOL0     C59382   5.828  10.163   1.252  0.6487  0.2714  0.4398
  431MOL0     C59383   5.782  10.185   1.394  0.0231 -0.6778 -1.1955
  431MOL0     C59384   5.641  10.139   1.429 -0.3223  1.2027 -0.2204
  431MOL0    Cl59385   5.636  10.125   1.607  0.2227  0.2341 -0.5577
  431MOL0     C59386   6.638  10.239   0.960  0.2579 -0.7047 -0.0759
  431MOL0     C59387   6.775  10.239   0.937 -0.0491  0.1105  0.7249
  431MOL0     O59388   7.021   9.933   0.883  0.2148  0.2632 -0.3452
  431MOL0     C59389   7.237  10.205   0.905  0.4172 -0.1441 -0.7182
  431MOL0     C59390   7.364  10.250   0.916 -0.8427  1.0341 -0.6891
  431MOL0     N59391   7.586  10.401   1.371 -0.0677 -0.4107  0.4631
  431MOL0     N59392   7.485  10.332   1.399 -0.0195  0.4476  0.0867
  431MOL0     C59393   6.419   9.871   1.183  0.3688 -0.0240 -0.0459
  431MOL0     C59394   6.292   9.825   1.225  0.6213  0.8967 -0.0926
  431MOL0     C59395   6.018   9.561   1.456 -0.0573 -0.4969  0.9414
  431MOL0     C59396   6.029   9.423   1.470  0.2624 -0.7605  0.2344
  431MOL0     C59397   5.955   9.358   1.563  1.0218 -0.6531  0.1611
  431MOL0     C59398   5.853   9.419   1.635  0.6279 -0.1466  0.1235
  431MOL0     O59399   5.777   9.351   1.730  0.7068 -0.0869 -0.4962
  431MOL0     C59400   5.749   9.423   1.849 -0.1441  0.4402  0.1218
  431MOL0     C59401   5.723   9.311   1.950  0.5712 -1.1086 -0.4051
  431MOL0     C59402   5.726   9.378   2.090 -0.2480  0.0282  0.3014
  431MOL0     C59403   5.659   9.304   2.198 -0.2182 -0.5092 -0.1314
  431MOL0     C59404   5.746   9.197   2.239  0.1751 -0.0562  0.1772
  431MOL0     C59405   5.818   9.107   2.280 -0.6604 -0.4162 -0.3573
  431MOL0     C59406   5.825   9.551   1.596  0.4156  0.7326 -0.2879
  431MOL0     C59407   5.905   9.626   1.509  0.5463 -0.6611 -0.8033
  431MOL0     C59408   5.871   9.775   1.495  0.6977  0.0464 -0.3793
  431MOL0     H59409   6.353   9.816   1.557  1.4169 -2.6906 -0.4308
  431MOL0     H59410   6.560   9.931   1.486 -0.1102  0.6177  0.7480
  431MOL0     H59411   6.684   9.919   1.059 -0.5582 -0.3082 -0.6808
  431MOL0     H59412   6.735   9.784   1.178 -0.5636  1.0807  3.6259
  431MOL0     H59413   6.922   9.942   1.101 -3.1137 -4.4163 -1.7879
  431MOL0     H59414   6.830  10.064   1.192 -3.8191 -0.3440 -1.9162
  431MOL0     H59415   6.891   9.966   1.400 -1.0094 -0.2759 -1.5303
  431MOL0     H59416   6.862   9.807   1.345 -0.3968  0.6847  0.8461
  431MOL0     H59417   7.112   9.802   1.381 -0.0254  0.5144  0.3461
  431MOL0     H59418   7.075   9.790   1.213  0.3420 -1.6608  0.6333
  431MOL0     H59419   7.156  10.051   1.371  0.9340  0.0536  0.1241
  431MOL0     H59420   7.136  10.045   1.201  0.4286  0.3362  0.3839
  431MOL0     H59421   7.322   9.847   1.335 -1.2758 -0.3026 -0.1631
  431MOL0     H59422   7.290   9.870   1.166 -1.2549  0.3794  0.0998
  431MOL0     H59423   7.361  10.118   1.190  0.0341 -1.2956 -2.6597
  431MOL0     H59424   7.486  10.003   1.207  0.4200  0.8160  1.5860
  431MOL0     H59425   7.357  10.101   1.460 -0.3694  1.3165 -1.8439
  431MOL0     H59426   7.503  10.006   1.435  0.7911 -0.8406 -1.8747
  431MOL0     H59427   7.729  10.121   1.302 -3.3886 -1.1087 -3.7822
  431MOL0     H59428   7.914  10.332   1.328 -0.3449 -1.1333  0.0762
  431MOL0     H59429   7.826  10.487   1.354 -0.5755  0.0140  1.1396
  431MOL0     H59430   7.795  10.513   1.111 -2.0690  0.9344  2.9962
  431MOL0     H59431   7.944  10.415   1.118 -0.7748 -0.1612 -3.9787
  431MOL0     H59432   7.830  10.295   0.963 -0.6951 -1.6969 -1.1270
  431MOL0     H59433   7.787  10.201   1.112  1.2311 -1.7120 -2.3099
  431MOL0     H59434   7.563  10.316   1.100 -0.0952  1.5188 -0.8888
  431MOL0     H59435   7.617  10.400   0.956  1.0409  0.0299 -0.7299
  431MOL0     H59436   7.530   9.972   0.862 -0.5340 -1.0261  0.5916
  431MOL0     H59437   7.271   9.828   0.726  1.7863 -2.6199 -0.2602
  431MOL0     H59438   7.250   9.792   0.908 -2.1808 -1.2261 -1.0590
  431MOL0     H59439   7.408   9.794   0.837 -1.6314 -2.3559  2.0879
  431MOL0     H59440   6.811   9.962   0.759 -0.4332  0.4771 -0.5968
  431MOL0     H59441   6.552   9.965   0.767  0.0524  0.0698 -0.6534
  431MOL0     H59442   6.316  10.089   0.757  0.1217 -0.8934  0.3208
  431MOL0     H59443   6.335   9.984   0.902 -0.6022  0.0915 -0.6130
  431MOL0     H59444   6.170  10.238   0.858 -1.4870 -0.6521 -0.2256
  431MOL0     H59445   6.126  10.062   0.843  1.6095  1.2770 -2.5160
  431MOL0     H59446   6.214  10.203   1.098  0.3274  0.2610  1.1356
  431MOL0     H59447   6.151  10.031   1.086 -1.8429  1.2676  2.3501
  431MOL0     H59448   5.942  10.110   1.020  1.6849 -3.3279  1.7182
  431MOL0     H59449   5.985  10.282   1.057 -0.7129 -1.2268 -1.6984
  431MOL0     H59450   6.022  10.064   1.271  1.2194  1.2514  3.1707
  431MOL0     H59451   6.032  10.242   1.288  1.8453 -0.2315 -2.1601
  431MOL0     H59452   5.791  10.065   1.221 -0.9059  0.5055  1.4588
  431MOL0     H59453   5.787  10.233   1.180 -2.2107 -1.2600  0.4262
  431MOL0     H59454   5.796  10.291   1.417  0.5648 -1.3059  2.0062
  431MOL0     H59455   5.855  10.128   1.454 -1.1616 -0.3962  0.6095
  431MOL0     H59456   5.633  10.034   1.399  2.0098  1.7083 -3.0262
  431MOL0     H59457   5.559  10.204   1.397 -1.5487 -0.1632  0.0602
  431MOL0     H59458   6.593  10.321   1.016  2.3527  0.6149 -0.1818
  431MOL0     H59459   6.833  10.317   0.985  0.0070 -1.0608  2.6806
  431MOL0     H59460   7.155  10.266   0.942 -0.9173 -1.0523 -2.0369
  431MOL0     H59461   7.386  10.354   0.935 -0.2414  0.6141  1.1103
  431MOL0     H59462   6.437   9.886   1.077  3.5350  0.5280  0.4665
  431MOL0     H59463   6.210   9.804   1.157 -1.7776 -1.1154  3.1262
  431MOL0     H59464   6.113   9.364   1.435  0.4772 -0.6739  0.5980
  431MOL0     H59465   5.978   9.253   1.580  4.1074  0.0644  1.0083
  431MOL0     H59466   5.831   9.492   1.875 -1.1680  1.5756  0.4501
  431MOL0     H59467   5.661   9.486   1.833  0.5382  1.5744  0.6700
  431MOL0     H59468   5.794   9.228   1.945  1.4973 -0.3259 -0.5374
  431MOL0     H59469   5.623   9.268   1.939  1.2406 -4.0392  3.1407
  431MOL0     H59470   5.826   9.406   2.123 -0.3832 -0.2608  0.9657
  431MOL0     H59471   5.674   9.475   2.086 -0.4127  0.0402  2.2337
  431MOL0     H59472   5.566   9.256   2.167 -0.9300 -0.1858  1.4440
  431MOL0     H59473   5.629   9.380   2.270  0.3631  0.9387 -1.3416
  431MOL0     H59474   5.872   9.027   2.325  0.6266 -0.6629 -2.2722
  431MOL0     H59475   5.733   9.594   1.634 -0.1687  0.9878 -1.9214
  431MOL0     H59476   5.890   9.829   1.588  0.6090 -2.7451  1.3649
  431MOL0     H59477   5.915   9.814   1.403  0.0862 -3.2396 -2.2105
  431MOL0     H59478   5.762   9.774   1.486  0.7164  1.0954 -0.8639
  432MOL0     O59479   7.218   0.998   2.859  0.4257  0.8562 -0.3209
  432MOL0     C59480   7.210   1.070   2.955  0.4084  0.6432 -0.0379
  432MOL0     O59481   7.316   1.093   3.038  0.4566 -0.3556 -1.6557
  432MOL0     C59482   7.437   1.039   3.018  0.3702 -0.5085  0.6715
  432MOL0     C59483   7.463   0.904   3.009 -0.1212 -0.7935 -0.1191
  432MOL0     C59484   7.599   0.863   2.991 -0.0130 -0.2097  0.4972
  432MOL0     C59485   7.698   0.959   2.970 -0.7694  0.5395 -0.0796
  432MOL0     O59486   7.821   0.912   2.928  0.0001 -0.2223 -0.0924
  432MOL0     C59487   7.928   0.999   2.878  0.3707  0.8711  1.4589
  432MOL0     C59488   8.026   0.923   2.792  0.0780 -1.0075 -0.8787
  432MOL0     C59489   7.964   0.846   2.680 -0.6290  0.6261  0.0417
  432MOL0     C59490   8.078   0.776   2.596 -0.0943 -0.1664  0.0200
  432MOL0     C59491   8.028   0.692   2.479 -0.4503  0.3972 -0.4250
  432MOL0     C59492   7.961   0.569   2.537 -0.1347  0.7383 -0.9075
  432MOL0     C59493   7.946   0.481   2.407 -0.0487 -0.3401 -0.0166
  432MOL0     C59494   7.862   0.354   2.419  0.0242  0.0814  0.0824
  432MOL0     N59495   7.879   0.277   2.295 -1.0034 -0.2804 -0.3358
  432MOL0     C59496   7.949   0.156   2.286  0.4711 -0.8419 -0.3321
  432MOL0     C59497   7.946   0.128   2.155  0.1283  0.3834 -0.2169
  432MOL0     C59498   7.993   0.012   2.080 -0.9126  0.4037  0.3406
  432MOL0     C59499   8.124  -0.040   2.141  0.3995  0.3861 -0.6980
  432MOL0     C59500   8.208  -0.130   2.046 -0.1872 -0.4384 -0.2026
  432MOL0     C59501   8.354  -0.140   2.096  0.2450 -0.3766 -0.0787
  432MOL0     O59502   8.411  -0.009   2.077  0.1152 -0.3901 -0.1321
  432MOL0     C59503   8.544   0.011   2.096  0.0964  0.1320  0.2087
  432MOL0     C59504   8.589   0.132   2.039 -0.7484 -0.2353  0.8699
  432MOL0     C59505   8.724   0.163   2.029 -0.4224 -0.1446 -0.5843
  432MOL0     C59506   8.771   0.283   1.945  0.5091  0.7223  0.5925
  432MOL0     C59507   8.820   0.073   2.086 -0.4595  0.2568  0.9068
  432MOL0     C59508   8.974   0.088   2.081  0.5475 -0.3628 -0.3115
  432MOL0     O59509   9.043   0.004   2.165  0.7341  0.7789  1.4882
  432MOL0     C59510   9.181   0.007   2.155  0.3555  0.6144  0.1557
  432MOL0     C59511   9.252  -0.100   2.103 -0.0265 -0.1687  0.2790
  432MOL0     C59512   9.388  -0.115   2.130  0.2128  0.2185  0.2069
  432MOL0     C59513   9.462  -0.014   2.203  0.1229  0.8692  1.1304
  432MOL0     O59514   9.597  -0.013   2.237  0.0062  0.6517  0.6266
  432MOL0     C59515   9.692  -0.101   2.173 -0.1443  0.0338 -0.4227
  432MOL0     C59516   9.835  -0.054   2.182  0.2431 -0.1760 -0.3930
  432MOL0     C59517   9.864   0.082   2.122  0.7936  0.0620  0.4595
  432MOL0     C59518  10.010   0.098   2.098 -0.0244  0.1552 -0.4743
  432MOL0     C59519  10.093   0.113   2.226 -0.2239  0.1061  0.2916
  432MOL0     C59520  10.066   0.243   2.307  0.4249 -0.3394  0.2265
  432MOL0     C59521  10.160   0.247   2.427 -0.0570 -0.7126  0.0912
  432MOL0     C59522  10.186   0.382   2.499  0.4364  0.5062  0.2384
  432MOL0    Cl59523  10.290   0.489   2.399  0.1067 -0.3917  0.1541
  432MOL0     C59524   9.381   0.094   2.241 -0.8273  0.6309 -0.4484
  432MOL0     C59525   9.242   0.102   2.229 -0.1180 -0.2081 -0.4823
  432MOL0     O59526   9.026   0.168   2.007 -0.2937 -0.9602 -0.4437
  432MOL0     C59527   8.771  -0.051   2.145 -0.0765  0.5692 -0.2831
  432MOL0     C59528   8.633  -0.082   2.145  0.3636 -0.5454 -0.0303
  432MOL0     N59529   7.853   0.215   2.091  1.2851  0.0402 -0.2095
  432MOL0     N59530   7.815   0.295   2.181 -0.1493  1.1818  0.9327
  432MOL0     C59531   7.665   1.094   2.979 -0.1830  0.3505 -0.3899
  432MOL0     C59532   7.536   1.132   3.004 -0.8644 -0.4482  0.7244
  432MOL0     C59533   7.077   1.127   2.996 -0.1770  0.0993 -0.7280
  432MOL0     C59534   7.074   1.222   3.097  0.4426  0.0545 -0.5321
  432MOL0     C59535   6.960   1.283   3.141 -0.1095 -0.4441 -0.8698
  432MOL0     C59536   6.836   1.256   3.088  0.1503  0.2467  0.1040
  432MOL0     O59537   6.733   1.331   3.151 -0.4385  0.6896 -1.2681
  432MOL0     C59538   6.596   1.323   3.106  0.5397 -0.5557  0.0046
  432MOL0     C59539   6.521   1.443   3.147  0.1345 -0.8670 -0.7544
  432MOL0     C59540   6.370   1.433   3.102  0.3041 -0.4088 -0.3285
  432MOL0     C59541   6.279   1.556   3.121 -0.0987 -0.3553 -0.2145
  432MOL0     C59542   6.155   1.555   3.039 -0.6181  0.2666  0.0558
  432MOL0     C59543   6.064   1.554   2.961  0.5265 -1.0124  0.0979
  432MOL0     C59544   6.833   1.151   2.985  0.2962 -0.7751  0.1375
  432MOL0     C59545   6.947   1.091   2.939 -0.5456 -0.2164  0.4082
  432MOL0     C59546   6.936   0.989   2.824 -1.1409 -0.5386  0.8589
  432MOL0     H59547   7.389   0.826   3.026 -1.2937  0.5913  1.3678
  432MOL0     H59548   7.610   0.755   2.989 -1.7102 -0.4325  0.9564
  432MOL0     H59549   7.984   1.048   2.959  0.8644  0.5705  1.3037
  432MOL0     H59550   7.876   1.064   2.807  0.6088 -1.0614 -0.6160
  432MOL0     H59551   8.105   0.993   2.762 -2.0400  0.7549 -2.8525
  432MOL0     H59552   8.080   0.860   2.862  0.4085  0.1987 -0.0261
  432MOL0     H59553   7.912   0.759   2.720  0.3080 -0.1922 -0.4724
  432MOL0     H59554   7.896   0.910   2.624 -0.7588  1.3045  0.9524
  432MOL0     H59555   8.133   0.860   2.552 -0.9143 -0.0227 -0.7619
  432MOL0     H59556   8.141   0.715   2.661 -0.1677  0.4221  0.6548
  432MOL0     H59557   8.113   0.663   2.416  0.0937  0.2319  0.3663
  432MOL0     H59558   7.957   0.752   2.423 -1.1079  0.5875  0.5854
  432MOL0     H59559   8.030   0.516   2.603 -0.2309 -1.2615 -2.3160
  432MOL0     H59560   7.867   0.597   2.587  1.5053 -0.1408  3.0867
  432MOL0     H59561   8.046   0.449   2.377  1.0798  1.8565  1.1749
  432MOL0     H59562   7.904   0.535   2.321  2.2259  0.9339 -0.3974
  432MOL0     H59563   7.881   0.292   2.508  3.3412 -0.4204 -0.8181
  432MOL0     H59564   7.759   0.389   2.416  0.0612  0.1254 -1.2293
  432MOL0     H59565   7.985   0.092   2.366  0.6330  1.0746  1.1881
  432MOL0     H59566   8.019   0.045   1.979  0.8013 -0.2017  0.5481
  432MOL0     H59567   7.923  -0.069   2.059  0.3490 -0.0894 -2.3759
  432MOL0     H59568   8.177   0.051   2.171 -0.7624 -0.4575  4.9019
  432MOL0     H59569   8.093  -0.088   2.234 -2.0192  1.6144 -0.7913
  432MOL0     H59570   8.167  -0.231   2.037 -1.8473  0.3615 -2.8372
  432MOL0     H59571   8.218  -0.076   1.952  1.8682  0.3876  0.4327
  432MOL0     H59572   8.368  -0.168   2.201 -2.8316  0.9245  0.7923
  432MOL0     H59573   8.407  -0.204   2.024 -0.5897 -0.2443 -0.8246
  432MOL0     H59574   8.520   0.205   1.997 -1.2144 -1.8431 -1.3181
  432MOL0     H59575   8.812   0.231   1.859 -1.8137 -1.6242  0.7699
  432MOL0     H59576   8.841   0.347   1.999  1.2763  1.4876 -1.2356
  432MOL0     H59577   8.687   0.340   1.906  0.5390  1.4946  1.6153
  432MOL0     H59578   9.192  -0.166   2.041  1.2370 -0.7706 -0.3221
  432MOL0     H59579   9.434  -0.204   2.090 -3.4637 -1.4118 -0.7619
  432MOL0     H59580   9.685  -0.200   2.218  0.8366  0.5824  1.0350
  432MOL0     H59581   9.666  -0.113   2.068 -1.5025  2.2365 -0.4011
  432MOL0     H59582   9.862  -0.055   2.288 -1.3432  0.6416  0.0441
  432MOL0     H59583   9.902  -0.128   2.138  0.1055 -0.4055 -0.2198
  432MOL0     H59584   9.831   0.161   2.190  1.0867  0.3167  0.3106
  432MOL0     H59585   9.818   0.087   2.023 -0.2235 -1.3001  0.8355
  432MOL0     H59586  10.030   0.186   2.035 -1.6136  0.5894 -0.4304
  432MOL0     H59587  10.041   0.006   2.048 -0.7773 -2.1918  3.0282
  432MOL0     H59588  10.083   0.028   2.294 -3.7222  0.7422  0.7354
  432MOL0     H59589  10.195   0.122   2.187 -1.2248 -0.4538 -2.6989
  432MOL0     H59590   9.967   0.243   2.352  0.1066  0.9004 -0.4259
  432MOL0     H59591  10.077   0.330   2.242 -1.3534  2.5574  3.4889
  432MOL0     H59592  10.257   0.206   2.398  0.5485 -0.7483  1.9954
  432MOL0     H59593  10.113   0.173   2.491 -2.0893  1.1177  0.8273
  432MOL0     H59594  10.235   0.363   2.595  1.3932  2.1299  0.1128
  432MOL0     H59595  10.095   0.440   2.516  1.0381  0.9143  2.3219
  432MOL0     H59596   9.432   0.166   2.305 -2.0857  1.5206 -0.4086
  432MOL0     H59597   9.183   0.178   2.279 -2.1285  0.6622 -3.8935
  432MOL0     H59598   8.839  -0.121   2.192 -1.0736 -0.1854  0.0645
  432MOL0     H59599   8.594  -0.175   2.184 -0.7517  0.0961  0.4384
  432MOL0     H59600   7.744   1.168   2.968 -0.9365  1.2503  0.1037
  432MOL0     H59601   7.517   1.239   3.002  0.3644 -0.1962 -2.0083
  432MOL0     H59602   7.156   1.257   3.158  0.2387 -2.1891  1.1381
  432MOL0     H59603   6.968   1.355   3.222 -0.6482  0.4204 -1.5710
  432MOL0     H59604   6.593   1.318   2.997  1.2538  1.3176 -0.1320
  432MOL0     H59605   6.551   1.231   3.146  0.5108 -1.8557 -2.7671
  432MOL0     H59606   6.564   1.535   3.108 -0.5459  1.4213  3.2650
  432MOL0     H59607   6.526   1.456   3.256  0.3493  1.5324 -1.0015
  432MOL0     H59608   6.366   1.390   3.002 -0.9176  1.1332 -0.9735
  432MOL0     H59609   6.324   1.354   3.162 -0.9938  0.4855 -0.1240
  432MOL0     H59610   6.334   1.648   3.101 -2.5114  1.0806 -0.6196
  432MOL0     H59611   6.246   1.556   3.226  0.5763  0.2039  0.0049
  432MOL0     H59612   5.982   1.579   2.897  0.0342 -0.0107  1.0767
  432MOL0     H59613   6.739   1.131   2.934  1.0762 -0.4542 -1.4844
  432MOL0     H59614   6.974   0.888   2.844 -0.4066 -0.2963  0.7062
  432MOL0     H59615   6.836   0.975   2.782 -1.1532 -1.2307  1.1001
  432MOL0     H59616   7.002   1.021   2.743 -0.7007 -0.1560  1.3663
  433MOL0     O59617   9.098   3.615  10.364 -0.2480  0.4621 -0.1168
  433MOL0     C59618   9.088   3.624  10.485  0.2203 -0.1742  0.8378
  433MOL0     O59619   9.201   3.608  10.570  0.3177 -0.0599 -0.1580
  433MOL0     C59620   9.321   3.577  10.516 -0.0514  0.5654  0.5527
  433MOL0     C59621   9.411   3.676  10.472  0.8107  0.6267 -0.5341
  433MOL0     C59622   9.532   3.637  10.418 -0.3002 -0.9413  0.4328
  433MOL0     C59623   9.559   3.496  10.401  0.0663  0.7509  0.0885
  433MOL0     O59624   9.667   3.450  10.328 -0.1567 -0.0660 -0.1566
  433MOL0     C59625   9.772   3.543  10.286  1.5059  0.5622  0.2585
  433MOL0     C59626   9.879   3.474  10.215  0.2072  0.5977  0.6187
  433MOL0     C59627   9.977   3.564  10.142  0.1135  0.7585 -0.5240
  433MOL0     C59628  10.111   3.484  10.127  0.0459 -0.1166 -0.1454
  433MOL0     C59629  10.103   3.389  10.014 -0.1132  0.6826 -0.3200
  433MOL0     C59630  10.245   3.309  10.023  0.3184  0.5136 -0.0154
  433MOL0     C59631  10.249   3.184   9.926 -0.8113  0.3358  0.1743
  433MOL0     C59632  10.359   3.084   9.946 -0.2635 -0.4553 -0.0547
  433MOL0     N59633  10.488   3.148   9.987  0.8655  0.0829 -0.9928
  433MOL0     C59634  10.582   3.198   9.895  0.1240  0.2911 -0.0397
  433MOL0     C59635  10.691   3.232   9.961  0.1041 -0.4220  0.0170
  433MOL0     C59636  10.808   3.300   9.896  0.9201 -0.8848 -0.0498
  433MOL0     C59637  10.932   3.209   9.923 -0.1747  0.2807 -0.0661
  433MOL0     C59638  11.058   3.270   9.871  0.4243  0.4493  0.3218
  433MOL0     C59639  11.184   3.208   9.933 -0.6183 -0.3853  0.4135
  433MOL0     O59640  11.296   3.288   9.884  0.3010  0.6838  0.2814
  433MOL0     C59641  11.422   3.238   9.898 -0.4794  0.1768 -0.7197
  433MOL0     C59642  11.460   3.118   9.972 -0.0907 -1.2820  0.0514
  433MOL0     C59643  11.593   3.076   9.958  0.1752  0.1647 -0.4165
  433MOL0     C59644  11.615   2.935  10.004  0.0506  0.8767  0.1417
  433MOL0     C59645  11.697   3.162   9.909  0.3874 -0.3377 -0.0754
  433MOL0     C59646  11.838   3.135   9.913  0.1756  0.2799  0.0741
  433MOL0     O59647  11.876   3.032   9.996  0.0494  0.0529 -0.0182
  433MOL0     C59648  12.010   2.999   9.991 -0.3439 -0.3532 -0.4059
  433MOL0     C59649  12.097   3.082  10.066  0.4165  0.4712  0.2492
  433MOL0     C59650  12.241   3.056  10.074  0.5884  1.1243  0.5907
  433MOL0     C59651  12.293   2.953   9.993  0.1969 -0.3094  0.0099
  433MOL0     O59652  12.431   2.940  10.001 -0.6178  0.9839  0.4786
  433MOL0     C59653  12.516   3.056   9.985  0.0056  0.4384  0.0597
  433MOL0     C59654  12.669   3.031   9.941  0.1213 -0.5014 -0.7627
  433MOL0     C59655  12.671   3.010   9.786  0.1662  0.4535 -0.1180
  433MOL0     C59656  12.820   2.973   9.744 -0.6136 -0.5539 -0.3273
  433MOL0     C59657  12.883   2.841   9.791  0.3814 -0.2364 -0.5671
  433MOL0     C59658  12.826   2.711   9.736 -0.2901  0.1516 -0.1404
  433MOL0     C59659  12.868   2.590   9.817  0.5148 -0.3231  0.1742
  433MOL0     C59660  13.010   2.569   9.878 -0.4511  0.3950  0.6492
  433MOL0    Cl59661  13.129   2.547   9.746  0.3155  0.2964  0.1728
  433MOL0     C59662  12.210   2.867   9.924 -0.5700  0.3122 -0.1463
  433MOL0     C59663  12.070   2.887   9.926 -0.2745 -1.0548  0.4146
  433MOL0     O59664  11.916   3.212   9.853 -0.0948  0.3598  0.6524
  433MOL0     C59665  11.656   3.285   9.858 -0.2984  0.7586  0.5315
  433MOL0     C59666  11.523   3.324   9.852 -0.1544 -0.4037  0.1126
  433MOL0     N59667  10.664   3.199  10.095 -0.4905  0.5811 -0.0276
  433MOL0     N59668  10.544   3.148  10.111  0.0097  0.0703  0.0138
  433MOL0     C59669   9.467   3.400  10.439 -0.4301  0.1654  0.2789
  433MOL0     C59670   9.351   3.442  10.496  0.1135 -0.0672  0.0207
  433MOL0     C59671   8.966   3.663  10.554  0.7892  0.5744 -0.1796
  433MOL0     C59672   8.958   3.686  10.702 -0.0072  0.5451 -0.4872
  433MOL0     C59673   8.836   3.715  10.769 -0.6526  0.1915  1.1010
  433MOL0     C59674   8.719   3.731  10.701 -0.1971  0.1905 -0.3585
  433MOL0     O59675   8.597   3.769  10.760  1.1880  0.2641 -0.1117
  433MOL0     C59676   8.586   3.759  10.904  0.1345  0.6131  0.1839
  433MOL0     C59677   8.436   3.777  10.925  0.5359  0.9610  0.0526
  433MOL0     C59678   8.405   3.785  11.080  1.0318 -0.5277 -0.3841
  433MOL0     C59679   8.254   3.791  11.103 -0.0312 -0.1043 -0.9637
  433MOL0     C59680   8.221   3.786  11.247 -0.5875 -0.3077 -0.2569
  433MOL0     C59681   8.208   3.775  11.366 -0.4207 -0.0599 -0.2613
  433MOL0     C59682   8.727   3.709  10.562  0.4106  0.1366 -0.5549
  433MOL0     C59683   8.837   3.671  10.491  1.1306  0.5964  0.1514
  433MOL0     C59684   8.812   3.616  10.354 -0.4287 -0.2351 -0.6561
  433MOL0     H59685   9.395   3.783  10.480 -0.5616  0.2974  2.6011
  433MOL0     H59686   9.606   3.711  10.391  1.5194 -1.8013  2.7395
  433MOL0     H59687   9.809   3.603  10.369  1.4683 -0.5755  1.1292
  433MOL0     H59688   9.719   3.602  10.211  1.0401 -0.1582  0.0063
  433MOL0     H59689   9.916   3.414  10.299  0.8748 -0.7745 -0.6142
  433MOL0     H59690   9.842   3.407  10.137  0.9935 -0.8792  1.4710
  433MOL0     H59691   9.937   3.582  10.041 -0.9048 -0.9802 -0.4595
  433MOL0     H59692   9.975   3.659  10.196  1.0379 -0.1966  1.2676
  433MOL0     H59693  10.190   3.557  10.107 -0.2865  0.0124 -1.0064
  433MOL0     H59694  10.138   3.427  10.216  1.4131 -1.6758 -1.5215
  433MOL0     H59695  10.096   3.445   9.921 -1.2768 -1.9423 -1.9405
  433MOL0     H59696  10.021   3.321  10.040 -0.9085  1.4242 -0.8423
  433MOL0     H59697  10.335   3.368  10.004  1.8811 -1.3566  1.2339
  433MOL0     H59698  10.259   3.277  10.126 -1.4150  0.0769  0.1129
  433MOL0     H59699  10.261   3.229   9.827 -0.5141  1.8286  0.8717
  433MOL0     H59700  10.151   3.135   9.929 -0.8797  0.3113 -1.4034
  433MOL0     H59701  10.336   3.015  10.027  1.9558  0.8142  1.7831
  433MOL0     H59702  10.372   3.030   9.852 -1.4613 -1.8394  0.5441
  433MOL0     H59703  10.572   3.221   9.790  1.4330 -0.2570 -0.3012
  433MOL0     H59704  10.821   3.404   9.928 -0.1036 -1.4219  2.3378
  433MOL0     H59705  10.788   3.306   9.788  1.0655  0.2871 -0.0199
  433MOL0     H59706  10.942   3.200  10.031  3.2773 -0.0957 -0.3125
  433MOL0     H59707  10.920   3.109   9.881 -0.2094  0.2103  0.1126
  433MOL0     H59708  11.069   3.251   9.764 -0.7724 -3.0210  0.7126
  433MOL0     H59709  11.066   3.379   9.883 -1.8275  0.5523  1.4523
  433MOL0     H59710  11.183   3.217  10.042 -1.5350  2.8627  0.2464
  433MOL0     H59711  11.191   3.104   9.898 -0.7402 -0.3324  0.2326
  433MOL0     H59712  11.395   3.051  10.027  0.2201 -2.0092 -0.4639
  433MOL0     H59713  11.524   2.879  10.028  1.0862 -1.6474 -1.3676
  433MOL0     H59714  11.677   2.937  10.093  1.0500 -0.0121 -0.5045
  433MOL0     H59715  11.663   2.882   9.921 -0.9117  1.5087 -0.8440
  433MOL0     H59716  12.049   3.160  10.125  1.3983  0.5291  1.0031
  433MOL0     H59717  12.303   3.120  10.136  2.7534  0.2934 -0.6259
  433MOL0     H59718  12.478   3.117   9.903 -0.6271  2.1818  1.5943
  433MOL0     H59719  12.503   3.105  10.081  0.5293 -0.1098  0.4247
  433MOL0     H59720  12.740   3.107   9.972  0.8413 -1.2603 -0.5159
  433MOL0     H59721  12.701   2.942   9.996  1.9119  0.3767 -0.3358
  433MOL0     H59722  12.627   3.095   9.733 -0.9037  0.1951  0.3255
  433MOL0     H59723  12.607   2.926   9.759 -1.5019  0.0490  4.3812
  433MOL0     H59724  12.889   3.050   9.779  1.5734 -1.9411 -1.3390
  433MOL0     H59725  12.821   2.971   9.634  1.4363 -1.0520 -0.3334
  433MOL0     H59726  12.989   2.846   9.768  0.7658 -1.1908  0.8761
  433MOL0     H59727  12.868   2.843   9.899  2.0435  2.2663 -0.2932
  433MOL0     H59728  12.844   2.694   9.630 -2.6049 -5.3810  0.0326
  433MOL0     H59729  12.718   2.714   9.753 -0.7447 -2.9820 -1.7502
  433MOL0     H59730  12.848   2.505   9.751 -2.4745  1.0034 -0.8110
  433MOL0     H59731  12.801   2.565   9.900  1.5135  0.0800  1.1117
  433MOL0     H59732  12.994   2.481   9.941  2.5259 -0.7240  0.0046
  433MOL0     H59733  13.040   2.649   9.946 -2.1771  0.1168  1.8024
  433MOL0     H59734  12.249   2.777   9.877  0.4725 -1.1854  3.2630
  433MOL0     H59735  11.992   2.821   9.887 -0.5968 -1.4280  1.6342
  433MOL0     H59736  11.730   3.362   9.836  0.6057  0.3899  2.1322
  433MOL0     H59737  11.492   3.422   9.818 -2.4704 -1.5811 -1.3501
  433MOL0     H59738   9.492   3.295  10.433  1.3703  0.5978 -0.9536
  433MOL0     H59739   9.279   3.370  10.532  0.7050  0.1598  1.7441
  433MOL0     H59740   9.046   3.658  10.759  0.9969 -0.2423 -2.3385
  433MOL0     H59741   8.847   3.721  10.877  2.5736 -3.3658  1.1737
  433MOL0     H59742   8.619   3.669  10.955 -1.3611  0.5807  1.1626
  433MOL0     H59743   8.632   3.836  10.966 -0.0734  0.8279  0.0757
  433MOL0     H59744   8.382   3.689  10.890  1.6071 -0.6021  2.1468
  433MOL0     H59745   8.392   3.872  10.893  1.4309  1.5424  0.4969
  433MOL0     H59746   8.439   3.694  11.130 -0.7122 -1.4796 -0.8619
  433MOL0     H59747   8.457   3.874  11.119  1.6714 -0.8367 -0.5200
  433MOL0     H59748   8.218   3.700  11.054  0.2276  0.6265 -2.5776
  433MOL0     H59749   8.208   3.879  11.057 -0.1669  0.9242  1.0122
  433MOL0     H59750   8.178   3.765  11.468 -1.6504 -1.2875 -0.7000
  433MOL0     H59751   8.632   3.722  10.510  0.7689  2.3876 -0.7335
  433MOL0     H59752   8.837   3.511  10.338 -1.5474 -0.7718  0.9158
  433MOL0     H59753   8.709   3.635  10.321  0.7754  3.6126 -2.8474
  433MOL0     H59754   8.862   3.670  10.273 -1.8361 -0.8112 -1.9745
  434MOL0     O59755   6.950   7.203  11.041 -0.1387 -0.1265 -0.1031
  434MOL0     C59756   6.918   7.299  11.116 -0.2714  0.0376 -0.1772
  434MOL0     O59757   6.960   7.314  11.244 -0.2377 -0.5231 -0.0333
  434MOL0     C59758   7.048   7.242  11.315 -0.1682 -0.4154 -0.0128
  434MOL0     C59759   7.107   7.117  11.284 -0.2107 -1.0267  0.6191
  434MOL0     C59760   7.182   7.043  11.375  0.3038  0.3852  0.3928
  434MOL0     C59761   7.198   7.095  11.503  0.3399  0.7891 -0.3909
  434MOL0     O59762   7.278   7.045  11.604  0.2340  0.9523  0.0539
  434MOL0     C59763   7.304   6.905  11.605  1.1015  0.1746 -0.3871
  434MOL0     C59764   7.413   6.882  11.719  0.5293 -0.4463 -0.1811
  434MOL0     C59765   7.551   6.930  11.665 -0.2145 -0.0652  0.0508
  434MOL0     C59766   7.603   6.837  11.567  0.2296 -0.6173 -0.5003
  434MOL0     C59767   7.744   6.871  11.538 -0.1271 -0.8064 -0.0543
  434MOL0     C59768   7.800   6.763  11.452  0.3331 -0.0253  0.5699
  434MOL0     C59769   7.924   6.816  11.371  0.5472  0.8949  0.1565
  434MOL0     C59770   8.047   6.860  11.449  0.7488  0.4066 -0.3561
  434MOL0     N59771   8.167   6.809  11.396 -0.9751  0.4798 -0.1654
  434MOL0     C59772   8.270   6.882  11.333 -0.6437  0.1304 -0.3692
  434MOL0     C59773   8.376   6.801  11.307  0.1591 -0.8188  0.3791
  434MOL0     C59774   8.500   6.848  11.236  0.0222  0.2630 -0.7259
  434MOL0     C59775   8.627   6.794  11.303  0.5021 -0.3664 -0.2268
  434MOL0     C59776   8.750   6.849  11.228 -0.9277  0.0116  0.2368
  434MOL0     C59777   8.878   6.805  11.293  0.0066  0.6474  0.1839
  434MOL0     O59778   8.971   6.907  11.259  0.1320 -0.1859 -0.6368
  434MOL0     C59779   9.100   6.871  11.247 -0.0456  0.3225  0.6956
  434MOL0     C59780   9.169   6.950  11.156 -0.8098 -0.5810  0.4175
  434MOL0     C59781   9.301   6.932  11.125 -0.3875  0.7685  0.0880
  434MOL0     C59782   9.362   7.022  11.018  0.6893  0.6017 -0.0549
  434MOL0     C59783   9.374   6.837  11.203  0.5792 -0.2051 -0.2046
  434MOL0     C59784   9.524   6.824  11.207 -0.2663 -0.6307  0.5592
  434MOL0     O59785   9.578   6.762  11.320  0.1283  0.1372 -0.1306
  434MOL0     C59786   9.712   6.741  11.329 -0.5519  0.6426  0.0286
  434MOL0     C59787   9.771   6.666  11.234  0.8192 -0.0595  0.0573
  434MOL0     C59788   9.906   6.633  11.234 -0.7794  0.2542 -0.4808
  434MOL0     C59789   9.983   6.659  11.344  0.5398 -0.2183  0.2543
  434MOL0     O59790  10.107   6.621  11.324 -0.5935 -0.1576 -0.4202
  434MOL0     C59791  10.201   6.620  11.434 -0.1130 -1.3896  0.1360
  434MOL0     C59792  10.330   6.575  11.382 -0.7976 -0.4835  0.0411
  434MOL0     C59793  10.438   6.532  11.486  0.0075  1.0341 -0.9519
  434MOL0     C59794  10.570   6.511  11.426 -0.6286 -0.0642 -0.5458
  434MOL0     C59795  10.679   6.477  11.523  0.2880 -0.8217 -0.4284
  434MOL0     C59796  10.824   6.448  11.474  0.4844 -0.7872 -0.2058
  434MOL0     C59797  10.932   6.497  11.563 -0.0338  0.7387 -0.3770
  434MOL0     C59798  10.926   6.443  11.706 -1.2516  0.4676 -0.0389
  434MOL0    Cl59799  10.947   6.255  11.703 -0.0384 -0.0190  0.1402
  434MOL0     C59800   9.918   6.725  11.455  0.1826 -0.0389  0.1826
  434MOL0     C59801   9.787   6.761  11.446 -0.2486  0.0141  0.2333
  434MOL0     O59802   9.586   6.856  11.105 -0.0080  0.1396  0.0243
  434MOL0     C59803   9.301   6.747  11.286 -0.8457 -0.8123 -0.0567
  434MOL0     C59804   9.166   6.759  11.304  0.8347  0.2783  0.2446
  434MOL0     N59805   8.340   6.676  11.356 -0.3421  0.5254  0.1920
  434MOL0     N59806   8.220   6.681  11.413 -0.2312  0.7599 -0.1935
  434MOL0     C59807   7.133   7.214  11.544 -0.5058 -0.5576  0.7006
  434MOL0     C59808   7.058   7.287  11.450  0.5683  0.1589 -0.0824
  434MOL0     C59809   6.842   7.414  11.073  0.3182 -0.0994  0.5266
  434MOL0     C59810   6.912   7.534  11.066  0.6492 -0.1077 -0.4252
  434MOL0     C59811   6.859   7.642  11.015 -0.1084 -0.2281 -0.0070
  434MOL0     C59812   6.727   7.641  10.981 -0.4871 -0.6127  0.7548
  434MOL0     O59813   6.684   7.761  10.925 -0.1853 -0.3066 -1.2788
  434MOL0     C59814   6.550   7.790  10.916  0.3477 -0.1482 -0.2006
  434MOL0     C59815   6.547   7.941  10.922  0.1237 -0.2912 -0.2578
  434MOL0     C59816   6.600   8.000  11.056  0.8438  0.4393  0.6228
  434MOL0     C59817   6.566   8.150  11.077 -1.3740  0.1807  0.6969
  434MOL0     C59818   6.424   8.169  11.057  0.6178 -0.6344 -0.3258
  434MOL0     C59819   6.300   8.184  11.047 -0.0303  0.1177 -0.4981
  434MOL0     C59820   6.646   7.532  11.000 -0.0293 -0.1125  0.3142
  434MOL0     C59821   6.701   7.408  11.036  0.3506  0.7991  0.5451
  434MOL0     C59822   6.625   7.278  11.067  0.9464 -0.0467  0.0884
  434MOL0     H59823   7.087   7.074  11.187 -0.6627 -0.0950  0.2892
  434MOL0     H59824   7.227   6.952  11.337 -1.7544 -1.5017  2.2020
  434MOL0     H59825   7.340   6.862  11.511  0.3547  0.3704 -0.7683
  434MOL0     H59826   7.211   6.854  11.629  2.3144 -3.1669 -2.1420
  434MOL0     H59827   7.398   6.951  11.802  0.6840 -2.3593  1.5282
  434MOL0     H59828   7.422   6.778  11.753  2.5540 -0.0369  0.6831
  434MOL0     H59829   7.534   7.021  11.606 -0.1057 -1.5309 -2.3416
  434MOL0     H59830   7.623   6.941  11.746 -1.0916 -0.3628  0.8963
  434MOL0     H59831   7.597   6.735  11.605 -1.6718 -0.4208 -0.1554
  434MOL0     H59832   7.543   6.837  11.475 -1.1849 -0.3836  0.3860
  434MOL0     H59833   7.800   6.866  11.632  0.4415 -2.8306 -0.4733
  434MOL0     H59834   7.748   6.963  11.479  2.2209  0.5013  1.9335
  434MOL0     H59835   7.816   6.671  11.509 -0.1090 -0.8274 -0.5609
  434MOL0     H59836   7.725   6.725  11.382  1.7068 -3.3281  0.6695
  434MOL0     H59837   7.891   6.896  11.303  0.4672  0.3570 -0.4492
  434MOL0     H59838   7.951   6.735  11.303  1.3618  0.4752  0.9577
  434MOL0     H59839   8.054   6.969  11.460 -1.9360  0.3970  3.2962
  434MOL0     H59840   8.034   6.818  11.549 -3.2139 -0.2618 -0.9826
  434MOL0     H59841   8.265   6.988  11.313 -1.6882 -0.1219 -1.5596
  434MOL0     H59842   8.498   6.957  11.238  1.0256  0.2896  0.6673
  434MOL0     H59843   8.504   6.805  11.136  0.7923 -1.8750  0.1485
  434MOL0     H59844   8.623   6.824  11.408 -2.2766 -0.7471 -0.1642
  434MOL0     H59845   8.616   6.686  11.291 -0.6015 -0.1153 -1.9314
  434MOL0     H59846   8.747   6.819  11.123 -3.6548  2.0943 -0.3937
  434MOL0     H59847   8.748   6.958  11.225  0.1774  0.1136  1.8508
  434MOL0     H59848   8.864   6.788  11.400  0.0622 -2.4888 -0.2182
  434MOL0     H59849   8.907   6.707  11.255  2.2265  0.8434  1.2268
  434MOL0     H59850   9.121   7.032  11.103 -2.9374  0.2900  3.4173
  434MOL0     H59851   9.288   7.080  10.963  0.6508 -0.2926 -0.9768
  434MOL0     H59852   9.412   6.954  10.948  3.5370  3.3900 -1.0086
  434MOL0     H59853   9.443   7.076  11.068  0.9644 -0.5365  0.7722
  434MOL0     H59854   9.721   6.633  11.144 -1.2687 -1.8959  1.7841
  434MOL0     H59855   9.947   6.576  11.152  0.8077  0.9625 -0.2231
  434MOL0     H59856  10.211   6.719  11.481  0.2492 -1.3705  0.0210
  434MOL0     H59857  10.179   6.545  11.511  2.0662 -1.4701  0.7543
  434MOL0     H59858  10.318   6.489  11.315  5.3373 -2.0359  0.3384
  434MOL0     H59859  10.377   6.653  11.321  2.3903 -0.9925  1.5944
  434MOL0     H59860  10.414   6.437  11.534  0.8021  0.7600 -1.0888
  434MOL0     H59861  10.456   6.606  11.564  1.2203  2.0105 -2.0961
  434MOL0     H59862  10.591   6.602  11.368  2.7314 -1.9013 -2.5180
  434MOL0     H59863  10.573   6.429  11.354  5.2013 -0.6345 -0.0983
  434MOL0     H59864  10.697   6.565  11.586  1.5581 -2.1585  1.1750
  434MOL0     H59865  10.647   6.396  11.590 -1.0911 -1.3634 -1.6853
  434MOL0     H59866  10.838   6.496  11.376  0.1591 -0.4774 -0.1013
  434MOL0     H59867  10.830   6.342  11.448 -0.6010 -0.5737 -1.4090
  434MOL0     H59868  10.926   6.606  11.564  0.4828  0.7678  0.1397
  434MOL0     H59869  11.031   6.473  11.522 -0.9219 -0.5655 -1.9258
  434MOL0     H59870  10.836   6.470  11.762  0.0575  2.0909  1.3963
  434MOL0     H59871  11.020   6.488  11.740  0.5666 -0.0058 -3.9343
  434MOL0     H59872   9.970   6.748  11.548 -0.4873  0.4078  0.4496
  434MOL0     H59873   9.728   6.812  11.522 -2.6436  1.6037 -2.4799
  434MOL0     H59874   9.356   6.672  11.342  1.9171  1.3000  0.2919
  434MOL0     H59875   9.124   6.686  11.372  1.4121  0.1359  0.4577
  434MOL0     H59876   7.143   7.258  11.643  2.8410 -0.8858  0.6257
  434MOL0     H59877   7.009   7.378  11.482  0.5630  0.3716 -0.6836
  434MOL0     H59878   7.017   7.543  11.093  0.3737  2.8858  0.0156
  434MOL0     H59879   6.919   7.729  10.995 -1.6402  0.5294 -1.5656
  434MOL0     H59880   6.505   7.757  10.822 -0.6554 -1.0552  0.5735
  434MOL0     H59881   6.490   7.749  10.998  0.3640  0.8750  0.3328
  434MOL0     H59882   6.444   7.969  10.896 -0.6597 -2.9461 -0.2498
  434MOL0     H59883   6.610   7.979  10.841  2.2469  0.1727  1.5098
  434MOL0     H59884   6.576   7.942  11.145  1.4764 -1.9648 -0.6759
  434MOL0     H59885   6.707   7.977  11.060  0.6018 -0.6696  1.2022
  434MOL0     H59886   6.614   8.200  10.992  1.9859 -0.0036  2.3320
  434MOL0     H59887   6.610   8.193  11.167 -1.0822 -2.1346  1.7397
  434MOL0     H59888   6.194   8.190  11.049 -0.0339  0.4882  2.7546
  434MOL0     H59889   6.539   7.543  10.989  0.2253  3.0347  0.0625
  434MOL0     H59890   6.649   7.199  10.995 -2.8527 -1.2217 -0.0936
  434MOL0     H59891   6.655   7.230  11.161  3.8151 -0.0792 -0.7451
  434MOL0     H59892   6.516   7.284  11.065  0.9658  0.3059 -0.1313
  435MOL0     O59893   1.852  10.251  10.015  0.1873 -0.5714 -0.6176
  435MOL0     C59894   1.837  10.151   9.946  0.0594 -0.2151  0.9212
  435MOL0     O59895   1.930  10.104   9.857 -0.2053  0.1560  0.4052
  435MOL0     C59896   2.052  10.168   9.854 -0.4491  0.0672  0.0664
  435MOL0     C59897   2.058  10.302   9.822  0.2245  0.3668 -0.8405
  435MOL0     C59898   2.179  10.375   9.843 -0.0352 -0.2184  1.1344
  435MOL0     C59899   2.302  10.305   9.864 -0.3385 -0.0595  0.7050
  435MOL0     O59900   2.402  10.393   9.891 -0.0018 -0.2726 -0.4801
  435MOL0     C59901   2.538  10.348   9.875  0.7590 -0.3961  0.0915
  435MOL0     C59902   2.633  10.433   9.974  0.2346 -0.0332 -0.3644
  435MOL0     C59903   2.779  10.441   9.917 -0.6935 -0.2811  0.0187
  435MOL0     C59904   2.863  10.545   9.996 -0.1296  0.1666  0.2273
  435MOL0     C59905   3.012  10.555   9.956  0.5376  0.4086 -0.0933
  435MOL0     C59906   3.089  10.422   9.994  0.8998  0.2244  0.5344
  435MOL0     C59907   3.232  10.426   9.939 -0.3048 -0.1246 -0.1360
  435MOL0     C59908   3.332  10.375  10.051  0.4995  0.6843  0.2865
  435MOL0     N59909   3.453  10.323   9.981  0.3421  0.2005 -0.2248
  435MOL0     C59910   3.537  10.404   9.907  0.2907  0.0310  0.2965
  435MOL0     C59911   3.605  10.315   9.823  0.2279  0.4885  0.5914
  435MOL0     C59912   3.706  10.349   9.719  0.6047 -0.6400 -0.1448
  435MOL0     C59913   3.835  10.411   9.773  0.5965  0.8075 -1.1147
  435MOL0     C59914   3.942  10.435   9.663 -0.0011  0.2162 -0.0730
  435MOL0     C59915   4.075  10.469   9.725  0.3008  0.8793  0.3541
  435MOL0     O59916   4.176  10.496   9.617  0.4433 -0.4431 -0.5397
  435MOL0     C59917   4.299  10.553   9.644 -0.5522  0.3243 -0.6364
  435MOL0     C59918   4.337  10.621   9.760  0.1621  0.0963  0.5788
  435MOL0     C59919   4.469  10.656   9.777 -0.7744 -0.6481  0.4423
  435MOL0     C59920   4.500  10.725   9.912  0.0204  0.4596  0.0495
  435MOL0     C59921   4.565  10.635   9.676  0.2171  0.3552 -0.1874
  435MOL0     C59922   4.711  10.671   9.695  0.8155  0.2725  0.0413
  435MOL0     O59923   4.804  10.647   9.597 -0.0482 -0.1804  0.0318
  435MOL0     C59924   4.942  10.680   9.612  1.0294  0.2818  0.5105
  435MOL0     C59925   4.984  10.802   9.650 -0.1146  0.5193 -0.4154
  435MOL0     C59926   5.122  10.827   9.642 -0.3544  0.4526  0.1188
  435MOL0     C59927   5.222  10.732   9.605  0.0186 -0.2332 -0.1879
  435MOL0     O59928   5.357  10.763   9.612 -0.6698 -0.0538  0.2508
  435MOL0     C59929   5.453  10.679   9.550  0.1507 -0.0856  0.3142
  435MOL0     C59930   5.577  10.769   9.520  0.1033  0.2334 -0.7112
  435MOL0     C59931   5.543  10.869   9.410 -0.5461  0.7057  0.3050
  435MOL0     C59932   5.674  10.944   9.373  0.1927 -1.1083  0.6656
  435MOL0     C59933   5.722  11.052   9.479 -0.5469 -0.6966  0.2108
  435MOL0     C59934   5.861  11.115   9.451  0.5061 -0.4261 -0.1271
  435MOL0     C59935   5.856  11.209   9.324  0.1433  0.2301 -0.4890
  435MOL0     C59936   6.002  11.250   9.288 -0.0164 -0.3238  0.8666
  435MOL0    Cl59937   6.123  11.123   9.248 -0.2100  0.3011 -0.3270
  435MOL0     C59938   5.167  10.605   9.584  1.0216 -0.2314 -0.0021
  435MOL0     C59939   5.029  10.576   9.578 -0.3112  0.2455  0.0108
  435MOL0     O59940   4.748  10.722   9.801  0.3488 -0.4495  0.3100
  435MOL0     C59941   4.527  10.560   9.566  0.9045  1.1781  1.5559
  435MOL0     C59942   4.395  10.521   9.552 -0.8463  0.1977 -1.0221
  435MOL0     N59943   3.573  10.187   9.882 -0.2517 -0.4825 -0.2941
  435MOL0     N59944   3.474  10.194   9.969 -0.2174  0.4242  0.0956
  435MOL0     C59945   2.293  10.167   9.889 -0.0478 -0.4787 -0.0557
  435MOL0     C59946   2.174  10.096   9.885 -0.5278 -0.1405 -0.5278
  435MOL0     C59947   1.698  10.090   9.958 -0.3805 -0.6334  0.5789
  435MOL0     C59948   1.625  10.113  10.080 -0.0683 -0.1208  0.0599
  435MOL0     C59949   1.497  10.069  10.104  0.1029 -0.4772 -0.3690
  435MOL0     C59950   1.434  10.004  10.001  0.1641 -0.9734  0.3606
  435MOL0     O59951   1.306   9.958  10.030 -0.9585  0.0226  0.6572
  435MOL0     C59952   1.253   9.850   9.945 -0.2112  0.2649  0.6279
  435MOL0     C59953   1.189   9.747  10.031 -0.8922  0.0494  0.0539
  435MOL0     C59954   1.119   9.642   9.946  0.5786 -0.5827 -0.0190
  435MOL0     C59955   1.061   9.531  10.023  0.9716 -0.2589  1.2290
  435MOL0     C59956   0.975   9.581  10.132  0.4535 -0.6472 -0.0549
  435MOL0     C59957   0.911   9.627  10.223 -0.1145  0.6376 -0.2259
  435MOL0     C59958   1.496   9.992   9.877  0.7487  0.3431  0.0748
  435MOL0     C59959   1.632  10.018   9.853 -0.7877  0.0933 -0.2552
  435MOL0     C59960   1.691   9.979   9.718  0.4485  0.8209 -0.7712
  435MOL0     H59961   1.967  10.353   9.791  0.2372  0.7009 -0.3406
  435MOL0     H59962   2.176  10.483   9.850 -1.0123 -0.1941  0.5051
  435MOL0     H59963   2.576  10.367   9.774  3.1484  0.0619  0.9934
  435MOL0     H59964   2.553  10.243   9.901  1.9450 -0.3775 -0.4147
  435MOL0     H59965   2.597  10.536   9.983  3.0312  1.0597 -0.7376
  435MOL0     H59966   2.638  10.381  10.071 -0.5699 -1.6786 -1.1749
  435MOL0     H59967   2.823  10.342   9.930 -0.8325 -0.0800  2.3853
  435MOL0     H59968   2.787  10.465   9.810  0.3931  0.4934  0.2566
  435MOL0     H59969   2.818  10.644   9.986 -0.3072  0.1403  0.7533
  435MOL0     H59970   2.856  10.534  10.105 -1.5259  4.2155  0.7241
  435MOL0     H59971   3.049  10.638  10.016 -0.5795  2.1300 -1.6723
  435MOL0     H59972   3.010  10.593   9.854  0.1395  0.1102 -0.2015
  435MOL0     H59973   3.081  10.399  10.101  1.0298  1.8109  0.9000
  435MOL0     H59974   3.042  10.339   9.940  0.9362  0.4408  0.1635
  435MOL0     H59975   3.267  10.526   9.910  0.0998 -0.2576 -0.1176
  435MOL0     H59976   3.233  10.376   9.842  0.0861 -1.3679  0.4820
  435MOL0     H59977   3.344  10.460  10.119  2.2648  2.3851 -1.9821
  435MOL0     H59978   3.285  10.291  10.103 -0.0163  0.2240 -0.8848
  435MOL0     H59979   3.523  10.512   9.903  2.2835  0.4211  1.7937
  435MOL0     H59980   3.664  10.424   9.651 -0.1628 -0.7249  0.2263
  435MOL0     H59981   3.728  10.257   9.664 -1.3210 -1.4908  0.4126
  435MOL0     H59982   3.808  10.506   9.819  1.0043  0.4893 -0.1939
  435MOL0     H59983   3.878  10.346   9.850  2.3389  0.1778 -2.5188
  435MOL0     H59984   3.942  10.346   9.599 -3.1133 -0.7237  1.0587
  435MOL0     H59985   3.920  10.524   9.602  0.1317 -0.2572 -0.8200
  435MOL0     H59986   4.065  10.550   9.798 -2.7213  0.8915  0.0626
  435MOL0     H59987   4.100  10.373   9.773 -1.0102  0.2557 -0.1459
  435MOL0     H59988   4.262  10.636   9.837 -0.0586 -1.4460  0.7104
  435MOL0     H59989   4.410  10.743   9.972  1.4121  0.7643  2.1488
  435MOL0     H59990   4.546  10.820   9.881  0.4161 -0.5764 -2.8230
  435MOL0     H59991   4.573  10.666   9.967 -4.0439 -1.0253  4.5616
  435MOL0     H59992   4.907  10.874   9.677 -1.2062  0.2579 -2.6051
  435MOL0     H59993   5.164  10.924   9.665  1.2893 -0.3483  0.6791
  435MOL0     H59994   5.481  10.595   9.614  2.8136  1.4067  1.2619
  435MOL0     H59995   5.412  10.636   9.457 -1.3073  1.0911  0.3820
  435MOL0     H59996   5.608  10.820   9.612  0.1176  0.3144 -0.7613
  435MOL0     H59997   5.661  10.704   9.496 -0.7537 -1.6406  1.0189
  435MOL0     H59998   5.463  10.938   9.438 -0.9530  1.0289 -1.4876
  435MOL0     H59999   5.507  10.812   9.323  0.0929 -0.5329  0.8323
  435MOL0     H60000   5.659  10.985   9.273  0.2591 -2.0189  0.2646
  435MOL0     H60001   5.756  10.872   9.372  2.1902  0.9607  2.7654
  435MOL0     H60002   5.648  11.132   9.489 -1.0093 -1.2436  1.4410
  435MOL0     H60003   5.731  11.005   9.578  2.0118  1.3334  1.0211
  435MOL0     H60004   5.941  11.041   9.443  1.5005  0.6523 -0.5900
  435MOL0     H60005   5.882  11.171   9.543 -1.3861  0.9824 -0.5030
  435MOL0     H60006   5.796  11.295   9.353 -0.3805  0.5201 -2.3329
  435MOL0     H60007   5.814  11.168   9.232  0.4510 -0.4103 -0.3490
  435MOL0     H60008   6.033  11.313   9.372  1.2247 -1.0447  0.9660
  435MOL0     H60009   5.985  11.311   9.198 -0.2878 -1.7503 -0.0815
  435MOL0     H60010   5.244  10.534   9.558  1.3257  0.4358 -1.0083
  435MOL0     H60011   4.985  10.479   9.560 -0.5225  0.2570  0.4627
  435MOL0     H60012   4.600  10.542   9.488 -0.3780 -1.0144  0.7754
  435MOL0     H60013   4.368  10.469   9.461 -0.4187 -0.0415 -1.0151
  435MOL0     H60014   2.381  10.110   9.916  1.6554  1.5790 -0.9554
  435MOL0     H60015   2.171   9.993   9.918 -1.8657  0.6229  2.0127
  435MOL0     H60016   1.665  10.180  10.155 -0.1087  2.1649 -1.8233
  435MOL0     H60017   1.461  10.079  10.206  1.5718  1.1765  0.0455
  435MOL0     H60018   1.185   9.895   9.872 -2.6554 -3.6963  0.1497
  435MOL0     H60019   1.330   9.789   9.896 -1.1487 -1.9656  1.7732
  435MOL0     H60020   1.117   9.806  10.089  1.4870  2.4711  0.7523
  435MOL0     H60021   1.259   9.688  10.089 -0.9636 -1.1070 -0.9988
  435MOL0     H60022   1.039   9.677   9.880  0.8614 -1.0067 -0.6033
  435MOL0     H60023   1.192   9.605   9.873 -2.0718  0.9638 -3.7635
  435MOL0     H60024   1.140   9.470  10.068 -0.3701 -0.7054  3.0984
  435MOL0     H60025   1.000   9.475   9.952 -0.2137  4.9084 -2.4218
  435MOL0     H60026   0.866   9.668  10.311 -0.3265 -2.0543  1.0070
  435MOL0     H60027   1.435   9.945   9.800 -2.9912  2.2449  1.6178
  435MOL0     H60028   1.615   9.940   9.650  0.3808 -1.0221  0.2949
  435MOL0     H60029   1.742  10.067   9.678  4.2209 -1.5383 -1.7195
  435MOL0     H60030   1.773   9.907   9.731  0.1575  0.5080 -0.6672
  436MOL0     O60031   5.407   0.486   9.348 -0.2666 -0.2611 -0.3392
  436MOL0     C60032   5.357   0.534   9.242 -0.2985  0.2575 -1.0336
  436MOL0     O60033   5.425   0.608   9.148 -0.0739  0.5216 -0.7141
  436MOL0     C60034   5.563   0.607   9.158  0.9209 -0.5936  0.3985
  436MOL0     C60035   5.622   0.615   9.033 -0.0560  0.7394 -0.2918
  436MOL0     C60036   5.759   0.628   9.012 -0.8770  1.0360  0.2168
  436MOL0     C60037   5.845   0.631   9.124 -0.3233  0.3445 -0.1817
  436MOL0     O60038   5.976   0.645   9.104 -0.2168  0.9435  0.5331
  436MOL0     C60039   6.015   0.759   9.023  0.1058  0.1705  0.1095
  436MOL0     C60040   6.164   0.778   9.011 -0.0923  0.0970  0.4910
  436MOL0     C60041   6.225   0.792   9.153 -0.5015 -0.6069 -0.0482
  436MOL0     C60042   6.363   0.870   9.148  0.4226  0.2259 -0.5825
  436MOL0     C60043   6.410   0.902   9.282 -0.0611 -0.6538 -0.3516
  436MOL0     C60044   6.496   1.027   9.278 -0.8122  0.1739  0.0968
  436MOL0     C60045   6.609   1.022   9.182 -1.1206  0.4718  0.1068
  436MOL0     C60046   6.706   0.898   9.202  0.0108  0.3184  0.1149
  436MOL0     N60047   6.823   0.907   9.122  0.7122 -0.0641  0.3277
  436MOL0     C60048   6.908   1.020   9.122 -0.0759 -0.3411  0.1705
  436MOL0     C60049   7.002   0.975   9.037  0.2346 -0.6354 -0.2074
  436MOL0     C60050   7.113   1.057   8.992 -0.6310 -0.0572 -0.3601
  436MOL0     C60051   7.183   0.991   8.868 -0.3873  0.5236  0.4298
  436MOL0     C60052   7.293   1.081   8.806  0.1769 -0.1358 -0.0160
  436MOL0     C60053   7.430   1.069   8.863  0.0336 -0.2408 -0.2150
  436MOL0     O60054   7.529   1.137   8.785 -0.3973  0.0563 -0.1683
  436MOL0     C60055   7.660   1.110   8.820  0.4675  0.3200 -0.3718
  436MOL0     C60056   7.692   1.037   8.939  0.3199 -0.1542  0.6151
  436MOL0     C60057   7.830   1.016   8.964  0.6476 -0.8563 -0.3523
  436MOL0     C60058   7.862   0.946   9.092  0.1733 -0.5690  0.5502
  436MOL0     C60059   7.925   1.076   8.882 -0.3710 -0.0874  0.1053
  436MOL0     C60060   8.071   1.076   8.907 -1.1917 -0.3615  0.2141
  436MOL0     O60061   8.152   1.062   8.800 -0.5526 -0.8810  0.2725
  436MOL0     C60062   8.291   1.079   8.829  0.1033  0.1030 -0.7556
  436MOL0     C60063   8.372   0.982   8.884 -1.3246 -0.0761  0.7649
  436MOL0     C60064   8.507   1.002   8.895 -1.6786 -0.3355 -0.1083
  436MOL0     C60065   8.569   1.134   8.862  0.7023  0.7125  0.4425
  436MOL0     O60066   8.699   1.162   8.868  0.3818 -0.0363  0.5029
  436MOL0     C60067   8.802   1.061   8.891 -0.5438 -0.6393  0.5125
  436MOL0     C60068   8.944   1.105   8.916 -1.0112  0.4255  0.3500
  436MOL0     C60069   9.044   1.004   8.873 -0.0759 -0.4486  0.0033
  436MOL0     C60070   9.185   1.049   8.901 -0.7775 -0.0213 -1.0104
  436MOL0     C60071   9.285   0.942   8.847  0.7189  0.2511  0.4918
  436MOL0     C60072   9.428   0.982   8.887 -0.4759 -0.1554  0.4266
  436MOL0     C60073   9.529   0.886   8.824 -0.3881 -0.3491  0.3742
  436MOL0     C60074   9.516   0.750   8.885 -0.5126  0.1374  0.3810
  436MOL0    Cl60075   9.657   0.643   8.837  0.0334  0.2121  0.2684
  436MOL0     C60076   8.472   1.238   8.821 -0.4542  0.4587 -0.2019
  436MOL0     C60077   8.336   1.206   8.805 -0.1260 -0.1593  0.3340
  436MOL0     O60078   8.116   1.094   9.020  0.5421  0.5096 -0.0739
  436MOL0     C60079   7.884   1.140   8.764 -0.3097  0.1252  0.5421
  436MOL0     C60080   7.755   1.164   8.738  0.7161  0.2774  0.2192
  436MOL0     N60081   6.982   0.843   8.993  0.2475  0.4861 -0.1446
  436MOL0     N60082   6.867   0.806   9.043 -0.3365  0.3825  0.0608
  436MOL0     C60083   5.791   0.635   9.252  0.1757  0.1485  0.1250
  436MOL0     C60084   5.653   0.627   9.270  0.1451  0.2897 -0.4930
  436MOL0     C60085   5.210   0.539   9.233 -0.0438  0.1522 -0.0150
  436MOL0     C60086   5.153   0.605   9.126 -0.2693 -0.9010  1.1244
  436MOL0     C60087   5.017   0.615   9.093  0.1475  1.1821  0.1623
  436MOL0     C60088   4.933   0.550   9.181  0.2382  0.1264  0.5050
  436MOL0     O60089   4.802   0.554   9.142 -0.3068 -0.3734  0.6016
  436MOL0     C60090   4.714   0.443   9.170 -0.6084  0.3099  0.2819
  436MOL0     C60091   4.619   0.440   9.050 -0.1137  0.6750  0.4107
  436MOL0     C60092   4.526   0.569   9.055  0.4933  0.5401 -0.4873
  436MOL0     C60093   4.415   0.553   8.950 -0.6624  0.2574 -0.5778
  436MOL0     C60094   4.328   0.675   8.941  0.2571  0.7902  0.0296
  436MOL0     C60095   4.244   0.760   8.926 -0.1429 -0.4440  0.6500
  436MOL0     C60096   4.975   0.487   9.294 -0.1351  0.1052  0.0146
  436MOL0     C60097   5.110   0.474   9.320  0.3427 -0.3173 -1.0823
  436MOL0     C60098   5.151   0.388   9.434  0.6969  0.9876 -1.1611
  436MOL0     H60099   5.551   0.626   8.951 -0.0764  1.1293 -0.2265
  436MOL0     H60100   5.785   0.627   8.906 -3.3476  1.9255 -0.4670
  436MOL0     H60101   5.958   0.846   9.057  0.5664 -0.5123  2.9434
  436MOL0     H60102   5.982   0.737   8.922  1.9311 -2.4657 -0.0132
  436MOL0     H60103   6.207   0.688   8.964 -2.3262 -0.5994 -0.3606
  436MOL0     H60104   6.189   0.869   8.956  0.4986 -0.0438  0.5153
  436MOL0     H60105   6.156   0.838   9.225  0.6871  0.1967  0.6142
  436MOL0     H60106   6.242   0.694   9.197 -2.2518  0.0898  2.3908
  436MOL0     H60107   6.441   0.813   9.096 -0.0995  0.5426 -1.7556
  436MOL0     H60108   6.348   0.964   9.094 -0.6964  1.1111  1.1705
  436MOL0     H60109   6.469   0.820   9.323  5.0015  3.6990  2.2943
  436MOL0     H60110   6.323   0.923   9.344  0.2063  0.8102 -0.4277
  436MOL0     H60111   6.432   1.111   9.251 -2.3499 -0.0971  2.5679
  436MOL0     H60112   6.533   1.060   9.376  1.5442  1.0955 -1.0379
  436MOL0     H60113   6.673   1.109   9.197 -0.5235 -0.2842  2.2745
  436MOL0     H60114   6.561   1.015   9.084 -0.3899  1.2555 -0.3242
  436MOL0     H60115   6.742   0.914   9.304  0.3781  1.7657 -0.2206
  436MOL0     H60116   6.653   0.802   9.204  0.4500  0.0016 -1.6737
  436MOL0     H60117   6.888   1.115   9.170 -3.0197  0.3310 -2.1034
  436MOL0     H60118   7.190   1.066   9.069  0.0932 -1.5866 -0.8561
  436MOL0     H60119   7.066   1.151   8.963 -1.0834 -0.1473  0.0696
  436MOL0     H60120   7.230   0.896   8.894 -0.9877 -0.1761 -0.9210
  436MOL0     H60121   7.106   0.962   8.796 -0.3431 -2.0433  1.3094
  436MOL0     H60122   7.292   1.063   8.698 -2.9885  0.0969 -0.1332
  436MOL0     H60123   7.263   1.184   8.822  0.1437 -0.4453  2.1214
  436MOL0     H60124   7.436   1.115   8.962  3.3715 -1.3783  0.2316
  436MOL0     H60125   7.456   0.963   8.876 -1.4360 -0.6900 -0.7812
  436MOL0     H60126   7.624   0.989   9.009 -1.6775 -1.6240 -2.1697
  436MOL0     H60127   7.955   0.888   9.086  0.8584 -0.0088  3.8311
  436MOL0     H60128   7.776   0.887   9.126  0.6447 -1.3330  0.4455
  436MOL0     H60129   7.874   1.035   9.154 -4.3223  1.7698 -1.4762
  436MOL0     H60130   8.327   0.885   8.904  1.5005 -1.5618  0.3252
  436MOL0     H60131   8.573   0.924   8.933 -1.1918 -1.0260 -2.2537
  436MOL0     H60132   8.773   1.010   8.984  0.1142 -1.2428  0.3847
  436MOL0     H60133   8.793   0.990   8.809  0.6387 -0.0215 -0.1734
  436MOL0     H60134   8.971   1.200   8.868 -1.5050  0.5033  0.2252
  436MOL0     H60135   8.958   1.144   9.017  0.4739 -0.0432  0.3454
  436MOL0     H60136   9.035   0.994   8.764 -0.3027 -1.0325  0.0734
  436MOL0     H60137   9.026   0.906   8.918  2.7439 -1.6766 -1.2873
  436MOL0     H60138   9.193   1.050   9.010  0.8519 -1.8248 -1.0651
  436MOL0     H60139   9.201   1.147   8.855  0.1111 -0.7507 -2.2963
  436MOL0     H60140   9.266   0.841   8.886  1.6649  0.1485  0.7042
  436MOL0     H60141   9.283   0.947   8.738 -0.8713 -1.9825  0.3447
  436MOL0     H60142   9.444   0.980   8.995 -1.5365  2.5831  0.7206
  436MOL0     H60143   9.453   1.081   8.846  0.6092 -0.2943  0.7273
  436MOL0     H60144   9.629   0.928   8.836 -0.2071  0.4136 -2.8696
  436MOL0     H60145   9.494   0.879   8.720 -3.1043 -0.2640  1.2051
  436MOL0     H60146   9.430   0.701   8.838  1.1955 -1.3670 -1.3531
  436MOL0     H60147   9.502   0.743   8.993  0.7203 -2.0374  0.4666
  436MOL0     H60148   8.514   1.336   8.799 -0.0301  0.4544  0.5519
  436MOL0     H60149   8.282   1.292   8.768  1.5070  0.4485 -0.6917
  436MOL0     H60150   7.953   1.185   8.693  0.1979 -0.2620  0.7819
  436MOL0     H60151   7.733   1.227   8.653 -0.1343  0.2373  0.3970
  436MOL0     H60152   5.860   0.651   9.335 -2.1436  1.1113  1.9754
  436MOL0     H60153   5.615   0.632   9.372  1.0002  1.8026 -0.2250
  436MOL0     H60154   5.208   0.674   9.062  0.1092 -1.4073  0.9016
  436MOL0     H60155   4.996   0.665   8.999  0.0518 -1.3171 -1.2260
  436MOL0     H60156   4.771   0.351   9.157  0.1742  0.6699  1.0171
  436MOL0     H60157   4.654   0.447   9.261 -0.9763 -0.6768  0.0894
  436MOL0     H60158   4.558   0.349   9.056  0.0063  0.5237 -0.5423
  436MOL0     H60159   4.676   0.429   8.957  0.4102 -0.5935  0.8583
  436MOL0     H60160   4.472   0.573   9.150 -3.2875 -3.2609 -2.1350
  436MOL0     H60161   4.592   0.655   9.038  0.2689  0.9890  0.7960
  436MOL0     H60162   4.360   0.462   8.974  0.1430 -0.2506 -0.6076
  436MOL0     H60163   4.469   0.529   8.858  1.6379 -2.0427  1.2183
  436MOL0     H60164   4.188   0.852   8.931  1.0838  0.5997 -2.4266
  436MOL0     H60165   4.905   0.426   9.349 -2.0570  0.7110 -1.6580
  436MOL0     H60166   5.197   0.451   9.511 -2.0722  0.9265  0.6519
  436MOL0     H60167   5.067   0.341   9.485  3.7766 -1.8005  1.8246
  436MOL0     H60168   5.227   0.311   9.418 -0.6580 -1.6137  3.3320
  437MOL0     O60169   6.936  10.088  10.402 -0.1167 -0.1592 -0.8058
  437MOL0     C60170   6.907  10.084  10.281 -0.8943  0.1181 -0.1006
  437MOL0     O60171   6.992  10.118  10.176  0.0404 -0.1394 -0.2262
  437MOL0     C60172   7.128  10.106  10.198  0.8008  0.7153  0.3798
  437MOL0     C60173   7.192   9.981  10.193  0.4405 -0.2054  0.2184
  437MOL0     C60174   7.328   9.972  10.217  0.3687 -0.4200 -1.0029
  437MOL0     C60175   7.397  10.091  10.257  0.3452 -0.0231 -0.0759
  437MOL0     O60176   7.530  10.078  10.294  0.3524  0.7527 -0.0870
  437MOL0     C60177   7.604  10.198  10.275  0.7518 -0.7531  0.4336
  437MOL0     C60178   7.741  10.162  10.256 -0.7775  0.4085 -0.4347
  437MOL0     C60179   7.807  10.103  10.375  0.0260  0.2101  0.0398
  437MOL0     C60180   7.834  10.206  10.481 -0.3151  0.3546  0.3630
  437MOL0     C60181   7.915  10.143  10.586 -0.0561 -0.3120  0.1183
  437MOL0     C60182   7.972  10.256  10.678 -0.3001  0.3107  0.1160
  437MOL0     C60183   8.079  10.343  10.605  0.3609 -0.1238 -0.1629
  437MOL0     C60184   8.198  10.362  10.697  0.3904 -0.4764 -0.0930
  437MOL0     N60185   8.291  10.251  10.697  0.0179  0.8470 -0.0613
  437MOL0     C60186   8.317  10.171  10.803  0.8964  0.0411  0.8411
  437MOL0     C60187   8.400  10.078  10.757  0.2116  0.4490 -0.3298
  437MOL0     C60188   8.439   9.952  10.834 -0.1362  0.4951  0.7995
  437MOL0     C60189   8.528   9.986  10.959  0.2488  0.2485 -0.5456
  437MOL0     C60190   8.543   9.874  11.054 -0.7979 -0.2042  1.0466
  437MOL0     C60191   8.439   9.868  11.169  0.2407 -0.8331  0.4434
  437MOL0     O60192   8.422   9.991  11.253 -0.3170  0.7827 -0.0279
  437MOL0     C60193   8.538  10.028  11.322 -0.1665 -0.1992 -0.0442
  437MOL0     C60194   8.530  10.158  11.359  0.8689 -0.4702 -0.3444
  437MOL0     C60195   8.629  10.211  11.447 -0.0323 -0.9820 -0.2791
  437MOL0     C60196   8.609  10.354  11.463  0.3793 -0.2365 -0.3459
  437MOL0     C60197   8.736  10.132  11.498  0.1058 -1.4583 -0.2266
  437MOL0     C60198   8.824  10.185  11.602  0.2127 -0.9167 -0.4193
  437MOL0     O60199   8.948  10.126  11.609 -0.1344  0.1061  0.3706
  437MOL0     C60200   9.027  10.177  11.707 -0.3891  0.4008 -0.2711
  437MOL0     C60201   9.018  10.116  11.829 -0.3848  0.3181  0.2258
  437MOL0     C60202   9.085  10.175  11.940 -0.7050  0.0372 -0.3689
  437MOL0     C60203   9.173  10.278  11.914 -0.0455 -0.4880 -0.7367
  437MOL0     O60204   9.246  10.328  12.023  0.4268 -0.0719  0.1015
  437MOL0     C60205   9.186  10.439  12.097 -0.2591 -0.0189  0.6050
  437MOL0     C60206   9.281  10.554  12.149 -0.4112 -0.4066  0.2833
  437MOL0     C60207   9.353  10.648  12.049 -0.2520  0.3939  0.5709
  437MOL0     C60208   9.261  10.767  12.014 -0.5745 -1.0220  1.3577
  437MOL0     C60209   9.346  10.872  11.931 -0.4313 -0.5473  0.0153
  437MOL0     C60210   9.458  10.943  12.019 -0.6434  0.2582 -0.1482
  437MOL0     C60211   9.416  11.008  12.144  0.4452  0.3322  0.4985
  437MOL0     C60212   9.494  11.125  12.189  0.5044 -1.3335  0.4034
  437MOL0    Cl60213   9.666  11.107  12.190  0.0343  0.0939  0.4978
  437MOL0     C60214   9.193  10.328  11.794  0.8986 -0.2268  0.2077
  437MOL0     C60215   9.118  10.282  11.683  0.5555  0.2499 -0.9041
  437MOL0     O60216   8.790  10.280  11.677  0.0709 -0.8994 -0.0290
  437MOL0     C60217   8.745   9.996  11.456 -0.3968 -0.3109  0.2210
  437MOL0     C60218   8.640   9.946  11.364 -0.3549 -0.2300  0.6237
  437MOL0     N60219   8.420  10.102  10.622 -0.0429  0.0569 -0.3609
  437MOL0     N60220   8.360  10.212  10.588 -0.2486 -0.0591 -0.1953
  437MOL0     C60221   7.330  10.218  10.266 -0.1540 -0.0183  0.7114
  437MOL0     C60222   7.196  10.221  10.237  0.3579 -0.0300  0.1653
  437MOL0     C60223   6.762  10.065  10.248  0.5972 -0.6466  0.0868
  437MOL0     C60224   6.712  10.146  10.146 -0.3557 -0.1236  0.2058
  437MOL0     C60225   6.569  10.162  10.131 -0.5330  0.0696 -0.7916
  437MOL0     C60226   6.485  10.084  10.208  0.1764  0.7965 -0.2982
  437MOL0     O60227   6.353  10.092  10.174  0.6944 -0.1964 -0.1907
  437MOL0     C60228   6.247  10.038  10.256 -0.4157  0.6085  0.4611
  437MOL0     C60229   6.118  10.029  10.175 -0.7463  0.8460  0.1941
  437MOL0     C60230   6.043  10.164  10.184  0.5403  0.3007  0.6311
  437MOL0     C60231   6.124  10.285  10.143 -0.5396  0.4276 -0.4671
  437MOL0     C60232   6.187  10.273  10.011  0.1008  0.5031  0.3073
  437MOL0     C60233   6.241  10.263   9.899 -0.0252  0.4796  0.4205
  437MOL0     C60234   6.534   9.998  10.307 -0.2171  1.0140  0.3534
  437MOL0     C60235   6.671   9.986  10.326 -0.5439  0.1160  1.0500
  437MOL0     C60236   6.727   9.878  10.425  0.0547 -0.4752 -0.9093
  437MOL0     H60237   7.132   9.900  10.155 -1.0196  0.7469  0.4113
  437MOL0     H60238   7.383   9.879  10.207  1.4230  0.3276 -2.4882
  437MOL0     H60239   7.607  10.271  10.356 -0.4078  0.1947 -0.3367
  437MOL0     H60240   7.557  10.252  10.192 -0.9600 -1.8654  0.6153
  437MOL0     H60241   7.758  10.089  10.177 -0.1687 -0.2391  0.2813
  437MOL0     H60242   7.799  10.253  10.238  0.3900  0.3549  2.4387
  437MOL0     H60243   7.746  10.029  10.428 -0.0350  1.6808  2.1664
  437MOL0     H60244   7.904  10.065  10.344  0.0432  1.2887 -1.3014
  437MOL0     H60245   7.886  10.289  10.431  1.0506 -0.9449 -0.4680
  437MOL0     H60246   7.744  10.245  10.528  0.0335  0.7487  0.7110
  437MOL0     H60247   7.997  10.087  10.540  0.5724 -2.3860  3.4668
  437MOL0     H60248   7.845  10.083  10.644 -1.3937  0.2331 -0.8893
  437MOL0     H60249   7.891  10.315  10.722  0.2112  2.3536 -1.5256
  437MOL0     H60250   8.022  10.197  10.755  0.9339  1.4366  0.2023
  437MOL0     H60251   8.037  10.439  10.572  0.2631 -0.4698 -1.0777
  437MOL0     H60252   8.109  10.284  10.518  2.0725 -1.5912  1.3600
  437MOL0     H60253   8.241  10.451  10.652  1.1158 -2.1483 -2.9203
  437MOL0     H60254   8.164  10.386  10.798  0.7312  0.5635 -0.2146
  437MOL0     H60255   8.281  10.181  10.905 -0.1047 -0.2238  0.5265
  437MOL0     H60256   8.498   9.879  10.778 -0.0083  0.8374  0.4886
  437MOL0     H60257   8.356   9.889  10.868  0.3555  0.9953  3.0911
  437MOL0     H60258   8.627  10.008  10.919  0.9824  0.5848  1.3644
  437MOL0     H60259   8.499  10.076  11.014  0.0975  0.7849 -1.4947
  437MOL0     H60260   8.528   9.784  10.994 -1.3278 -0.6870  1.8780
  437MOL0     H60261   8.643   9.885  11.096  0.9100  2.1091 -3.0683
  437MOL0     H60262   8.338   9.837  11.141 -0.4522  0.9942  0.7812
  437MOL0     H60263   8.473   9.789  11.236  3.0484 -0.0679  0.0755
  437MOL0     H60264   8.450  10.223  11.325  0.1935 -1.1961 -0.1602
  437MOL0     H60265   8.693  10.418  11.491  0.5021 -0.8654  0.7514
  437MOL0     H60266   8.534  10.374  11.540 -0.1391  0.5331 -1.0307
  437MOL0     H60267   8.569  10.404  11.374  0.1873 -1.7333 -1.1296
  437MOL0     H60268   8.940  10.042  11.844 -0.2691  0.4320  1.5292
  437MOL0     H60269   9.080  10.134  12.040  1.8493 -2.6354 -1.1843
  437MOL0     H60270   9.105  10.481  12.037  1.9455  1.1774 -1.6929
  437MOL0     H60271   9.146  10.396  12.190  1.3747 -1.4307  0.7026
  437MOL0     H60272   9.227  10.615  12.222 -2.3417 -2.3729  0.5940
  437MOL0     H60273   9.360  10.507  12.208  2.1553  4.1675  1.0211
  437MOL0     H60274   9.377  10.596  11.955  1.8009  3.3267 -0.6672
  437MOL0     H60275   9.446  10.684  12.093  1.3645 -0.8812 -1.5717
  437MOL0     H60276   9.213  10.809  12.103 -3.1431 -3.3992  1.2588
  437MOL0     H60277   9.182  10.739  11.945 -0.7670  2.0848  0.1619
  437MOL0     H60278   9.394  10.833  11.841 -1.4634 -0.8978 -0.3937
  437MOL0     H60279   9.282  10.954  11.899  0.6411  0.2057 -0.2569
  437MOL0     H60280   9.511  11.020  11.963 -0.8483  0.2196 -0.4007
  437MOL0     H60281   9.531  10.862  12.032 -2.3059 -1.7130 -2.0556
  437MOL0     H60282   9.421  10.935  12.225  2.8492 -0.3376 -0.1751
  437MOL0     H60283   9.311  11.035  12.127  0.6487  1.1127  0.4236
  437MOL0     H60284   9.461  11.156  12.289 -3.1235  3.8611 -1.9057
  437MOL0     H60285   9.469  11.211  12.126  0.1764 -1.0111  0.9583
  437MOL0     H60286   9.259  10.413  11.774 -2.8153  2.9119  0.1730
  437MOL0     H60287   9.108  10.329  11.586  0.4334  2.9516  0.3315
  437MOL0     H60288   8.834   9.943  11.488  0.7119  2.5748  2.3716
  437MOL0     H60289   8.644   9.840  11.340 -3.6608 -0.2855 -0.1738
  437MOL0     H60290   7.373  10.313  10.296 -1.1665  1.3123 -1.7545
  437MOL0     H60291   7.143  10.315  10.230 -0.6914 -0.4660  1.7654
  437MOL0     H60292   6.768  10.212  10.081 -3.2384  4.1071  1.5730
  437MOL0     H60293   6.525  10.230  10.059 -0.0464  1.8367  0.5129
  437MOL0     H60294   6.266   9.931  10.272  3.0223  1.0101 -0.1168
  437MOL0     H60295   6.240  10.091  10.352 -1.5218 -0.3584  0.9372
  437MOL0     H60296   6.065   9.956  10.236  1.6481 -0.4197  0.8810
  437MOL0     H60297   6.129   9.991  10.073  1.6862  0.6317  0.4753
  437MOL0     H60298   5.950  10.166  10.126  0.6972 -0.2520  0.3474
  437MOL0     H60299   6.023  10.173  10.291  1.2118 -1.9083  0.9888
  437MOL0     H60300   6.205  10.299  10.216 -2.0285  1.6453  1.0244
  437MOL0     H60301   6.064  10.374  10.160 -1.1304 -0.3593  1.9818
  437MOL0     H60302   6.272  10.252   9.797 -3.8499 -1.3753 -0.7294
  437MOL0     H60303   6.464   9.930  10.355 -0.3647  1.1782  0.3694
  437MOL0     H60304   6.802   9.815  10.377  1.7220  0.0887  0.8509
  437MOL0     H60305   6.761   9.914  10.523 -1.6600 -2.1491  0.4044
  437MOL0     H60306   6.646   9.811  10.456  1.4179 -1.9222 -0.3987
  438MOL0     O60307   3.543   1.906   0.459 -0.3640 -1.0338 -0.3956
  438MOL0     C60308   3.526   1.819   0.540 -0.6921 -0.9220 -0.3623
  438MOL0     O60309   3.630   1.747   0.603  1.1225 -0.1372  0.3574
  438MOL0     C60310   3.760   1.788   0.584 -0.3283 -0.0120  0.1216
  438MOL0     C60311   3.823   1.834   0.459 -0.0274  0.2473 -0.1693
  438MOL0     C60312   3.955   1.881   0.457  0.0647 -0.2973  0.4551
  438MOL0     C60313   4.028   1.891   0.581  0.3794 -1.0244  0.2395
  438MOL0     O60314   4.149   1.947   0.570 -0.1025  0.5654  0.1615
  438MOL0     C60315   4.250   1.915   0.673  0.0085  0.8460  0.8285
  438MOL0     C60316   4.379   1.879   0.593  0.0022 -1.0090  0.5645
  438MOL0     C60317   4.486   1.798   0.667  0.3035 -0.0099 -0.0125
  438MOL0     C60318   4.565   1.890   0.765  0.8061  0.4044  0.9609
  438MOL0     C60319   4.676   1.813   0.826 -0.0845 -0.3076  0.4723
  438MOL0     C60320   4.764   1.905   0.901 -0.9487 -0.6214  0.1273
  438MOL0     C60321   4.864   1.820   0.984 -0.5000  0.4463 -0.0746
  438MOL0     C60322   4.981   1.914   1.023 -0.5132 -0.2912 -0.0684
  438MOL0     N60323   5.087   1.861   1.111  0.4241  0.2194 -0.8452
  438MOL0     C60324   5.216   1.850   1.085 -0.2419 -0.5004  0.1816
  438MOL0     C60325   5.271   1.824   1.205 -0.7402 -1.1183 -0.8542
  438MOL0     C60326   5.410   1.805   1.236 -0.1301 -0.4108  0.3366
  438MOL0     C60327   5.465   1.872   1.368  0.5879  0.3861 -0.4496
  438MOL0     C60328   5.412   2.016   1.375 -0.2602  1.1861  0.1203
  438MOL0     C60329   5.467   2.081   1.506 -0.2060  0.0538  0.0901
  438MOL0     O60330   5.610   2.083   1.491 -0.5472 -0.0567  0.2925
  438MOL0     C60331   5.685   2.158   1.577  0.2406  0.9718 -0.2820
  438MOL0     C60332   5.648   2.169   1.707 -0.2795 -0.4804  0.0679
  438MOL0     C60333   5.734   2.229   1.802  0.4655 -0.6726  0.1713
  438MOL0     C60334   5.689   2.237   1.947 -0.3371 -0.3171 -0.6843
  438MOL0     C60335   5.855   2.295   1.763 -0.3624  0.5026  0.6687
  438MOL0     C60336   5.965   2.349   1.846  0.0253  0.0589 -0.9455
  438MOL0     O60337   6.079   2.389   1.783 -0.1509 -0.5228  0.3575
  438MOL0     C60338   6.190   2.447   1.847  0.1837  0.0122 -0.3441
  438MOL0     C60339   6.302   2.466   1.768 -0.4407  0.2743 -0.0645
  438MOL0     C60340   6.426   2.514   1.820  0.2739 -0.3113 -1.3941
  438MOL0     C60341   6.433   2.548   1.950 -0.1032  0.4788 -0.1852
  438MOL0     O60342   6.554   2.589   2.002  0.2776 -0.0464 -0.0262
  438MOL0     C60343   6.559   2.736   2.002 -0.1231 -0.0683  0.8309
  438MOL0     C60344   6.635   2.765   2.125 -0.5391 -0.2761  0.1939
  438MOL0     C60345   6.777   2.737   2.085 -0.5755  0.1848 -0.3269
  438MOL0     C60346   6.877   2.796   2.187  0.0178 -0.3241  0.2122
  438MOL0     C60347   7.020   2.807   2.135 -0.4997  0.7379  0.3553
  438MOL0     C60348   7.077   2.675   2.139  0.0560  0.0651 -0.3077
  438MOL0     C60349   7.231   2.674   2.097  0.0371  0.5876  0.1516
  438MOL0     C60350   7.261   2.769   1.976  0.5534 -0.2466 -0.0163
  438MOL0    Cl60351   7.416   2.704   1.913 -0.2470 -0.6354  0.3576
  438MOL0     C60352   6.316   2.552   2.027  0.0541  0.1388 -0.1537
  438MOL0     C60353   6.197   2.502   1.974  0.1419 -0.5821 -0.1204
  438MOL0     O60354   5.956   2.330   1.965  0.2662  0.4264 -0.2262
  438MOL0     C60355   5.880   2.300   1.615  0.1527 -0.6596 -1.2285
  438MOL0     C60356   5.794   2.222   1.532 -0.3966 -0.0088 -0.1194
  438MOL0     N60357   5.177   1.816   1.303  0.0902 -0.7676 -0.8714
  438MOL0     N60358   5.061   1.840   1.240 -0.0544 -0.8179 -0.2393
  438MOL0     C60359   3.973   1.849   0.701  0.9809 -0.6510 -0.2628
  438MOL0     C60360   3.841   1.801   0.699  0.4258  0.7270 -0.1123
  438MOL0     C60361   3.381   1.789   0.562 -0.3921  0.3578  0.0346
  438MOL0     C60362   3.293   1.782   0.454  0.9062 -0.4956 -0.3042
  438MOL0     C60363   3.168   1.728   0.471  0.9198  0.0382  0.3763
  438MOL0     C60364   3.117   1.683   0.589  0.4632  0.4490 -0.8873
  438MOL0     O60365   2.985   1.645   0.612 -0.0462 -0.0660  0.3225
  438MOL0     C60366   2.898   1.755   0.640 -0.0629  0.3889  0.6211
  438MOL0     C60367   2.749   1.711   0.674 -0.1296 -0.1479 -0.3869
  438MOL0     C60368   2.643   1.828   0.660  0.5921 -0.1215 -0.6862
  438MOL0     C60369   2.496   1.785   0.709 -1.2009  0.4346  0.4250
  438MOL0     C60370   2.418   1.724   0.606 -0.3050  0.7772 -0.4520
  438MOL0     C60371   2.365   1.661   0.518 -0.2044  0.7087  0.3170
  438MOL0     C60372   3.200   1.695   0.698  0.1927 -0.1072 -0.5808
  438MOL0     C60373   3.333   1.741   0.688  0.4276 -0.9186 -0.4656
  438MOL0     C60374   3.429   1.724   0.805 -0.3961  0.5642  0.2658
  438MOL0     H60375   3.758   1.852   0.373 -1.1389  3.8910  1.2339
  438MOL0     H60376   3.993   1.914   0.361 -1.9622 -0.0932 -0.3168
  438MOL0     H60377   4.221   1.823   0.726 -0.4648  0.4525 -0.0871
  438MOL0     H60378   4.273   1.999   0.739  3.8607 -0.9647  2.1082
  438MOL0     H60379   4.341   1.811   0.516  0.8768 -3.8441  2.4823
  438MOL0     H60380   4.432   1.965   0.552  0.9242 -0.8585  1.9853
  438MOL0     H60381   4.433   1.716   0.717  1.2144 -1.6912 -1.7057
  438MOL0     H60382   4.553   1.752   0.594 -0.7694 -0.6624 -0.6078
  438MOL0     H60383   4.611   1.973   0.710  1.2314 -0.2908  0.2491
  438MOL0     H60384   4.508   1.933   0.848  1.6525 -3.1266  3.6307
  438MOL0     H60385   4.735   1.760   0.751 -0.6147  0.1334 -0.2640
  438MOL0     H60386   4.640   1.745   0.904  2.6330 -0.0666  2.0435
  438MOL0     H60387   4.830   1.964   0.835 -0.9156  2.1369  2.4240
  438MOL0     H60388   4.714   1.978   0.966  0.6960  0.8384 -0.1648
  438MOL0     H60389   4.891   1.729   0.928  0.5985 -0.6210  2.0498
  438MOL0     H60390   4.813   1.796   1.078 -3.2171  2.5202 -0.8808
  438MOL0     H60391   5.027   1.955   0.932 -2.3519 -0.5037 -1.1356
  438MOL0     H60392   4.933   2.005   1.059  1.8581  0.7393  0.6937
  438MOL0     H60393   5.264   1.845   0.987 -0.9368  1.0195 -0.2664
  438MOL0     H60394   5.469   1.839   1.150 -0.0841 -1.2827  0.0176
  438MOL0     H60395   5.414   1.696   1.246 -3.9383 -0.6503  0.8622
  438MOL0     H60396   5.427   1.818   1.455  1.6168  2.3756  1.3288
  438MOL0     H60397   5.573   1.860   1.364  0.8107  2.0779 -0.4270
  438MOL0     H60398   5.446   2.070   1.286 -0.5801 -1.3086 -1.6039
  438MOL0     H60399   5.303   2.019   1.376 -0.3972 -1.3558 -1.0774
  438MOL0     H60400   5.429   2.183   1.515  1.9210  0.9545 -0.5488
  438MOL0     H60401   5.426   2.027   1.592 -2.9044  1.2114 -0.3847
  438MOL0     H60402   5.561   2.116   1.744 -0.3374  0.1196  0.8059
  438MOL0     H60403   5.583   2.210   1.944  0.1224 -2.7752  1.2677
  438MOL0     H60404   5.704   2.337   1.989  2.7796 -0.4747 -1.1774
  438MOL0     H60405   5.747   2.157   1.995  2.2095  1.5477 -0.4183
  438MOL0     H60406   6.302   2.454   1.660  1.0896  0.2221 -0.0896
  438MOL0     H60407   6.512   2.507   1.754  1.4481 -0.5584  0.1047
  438MOL0     H60408   6.619   2.777   1.919  2.3264 -2.5264  1.2334
  438MOL0     H60409   6.457   2.775   1.999 -0.6191 -1.3275  0.4590
  438MOL0     H60410   6.622   2.869   2.156 -0.5085 -0.9687  2.7425
  438MOL0     H60411   6.587   2.714   2.209 -3.2869  2.1560  0.2609
  438MOL0     H60412   6.809   2.769   1.986 -1.7107  0.3977 -0.6401
  438MOL0     H60413   6.788   2.629   2.085 -2.2870 -0.0180 -0.0573
  438MOL0     H60414   6.873   2.740   2.281  1.9287  0.3573  0.7507
  438MOL0     H60415   6.848   2.899   2.212  1.9016 -0.3216  2.8476
  438MOL0     H60416   7.032   2.843   2.032 -1.0116 -2.9589 -1.1691
  438MOL0     H60417   7.074   2.868   2.208 -1.0516  0.7973  0.7232
  438MOL0     H60418   7.024   2.608   2.071  2.7872 -1.1198 -1.4329
  438MOL0     H60419   7.068   2.636   2.241 -0.8422 -0.7624 -0.6924
  438MOL0     H60420   7.251   2.569   2.076 -0.4942  0.7918 -1.5120
  438MOL0     H60421   7.301   2.690   2.179  1.3685 -1.5942 -0.4761
  438MOL0     H60422   7.278   2.874   2.001  2.5354 -0.3307 -0.7879
  438MOL0     H60423   7.187   2.757   1.896 -0.1066  0.8583  0.4238
  438MOL0     H60424   6.304   2.573   2.133 -2.0205 -1.7672  0.0669
  438MOL0     H60425   6.101   2.504   2.026 -0.0375 -2.1341 -0.3340
  438MOL0     H60426   5.972   2.336   1.569 -0.2344  0.3827 -1.2118
  438MOL0     H60427   5.793   2.230   1.424 -3.3682 -0.1920 -0.1884
  438MOL0     H60428   4.013   1.868   0.800 -1.0784 -0.6744  0.6181
  438MOL0     H60429   3.795   1.778   0.794 -1.5255 -3.2748 -1.8084
  438MOL0     H60430   3.314   1.814   0.352  2.5737 -0.0995  0.1340
  438MOL0     H60431   3.093   1.708   0.395  2.6502 -0.7766 -1.2095
  438MOL0     H60432   2.927   1.801   0.735 -2.0637 -0.5677  1.7677
  438MOL0     H60433   2.910   1.820   0.553  0.9546 -1.0970 -0.3969
  438MOL0     H60434   2.742   1.673   0.776  0.4974 -2.2659 -1.0714
  438MOL0     H60435   2.723   1.635   0.600  1.9049  0.2061 -1.5372
  438MOL0     H60436   2.673   1.913   0.722 -2.0469  0.7458 -0.4568
  438MOL0     H60437   2.636   1.851   0.554  1.8063 -1.2045 -1.0252
  438MOL0     H60438   2.436   1.869   0.745 -1.4687  1.4194 -2.0993
  438MOL0     H60439   2.500   1.706   0.785  0.8355  1.0459  0.9957
  438MOL0     H60440   2.314   1.616   0.435  0.3876 -2.2347  1.4099
  438MOL0     H60441   3.164   1.660   0.794  0.3484 -0.2728 -0.5816
  438MOL0     H60442   3.496   1.809   0.819 -0.8687  1.1349 -0.7901
  438MOL0     H60443   3.384   1.702   0.902 -0.1002 -1.6716 -0.0560
  438MOL0     H60444   3.480   1.633   0.773 -0.9350  0.0851  0.7413
  439MOL0     O60445  10.028   8.775  11.113 -0.2101 -0.6372  1.0071
  439MOL0     C60446   9.938   8.838  11.057 -0.1267 -0.5883  0.5833
  439MOL0     O60447   9.948   8.912  10.943 -0.4604 -0.4652 -0.6065
  439MOL0     C60448  10.071   8.943  10.893 -0.3889  0.1483  0.5565
  439MOL0     C60449  10.084   8.927  10.752 -0.2893 -0.8051 -0.1240
  439MOL0     C60450  10.205   8.968  10.699 -0.8252 -0.0984  0.6240
  439MOL0     C60451  10.309   9.013  10.782 -0.2636 -0.3863  0.3297
  439MOL0     O60452  10.430   9.044  10.729 -0.1348 -0.2110  0.1496
  439MOL0     C60453  10.518   8.929  10.731 -0.2327 -0.3081  0.0277
  439MOL0     C60454  10.643   8.952  10.822 -0.3393  0.4860 -0.6962
  439MOL0     C60455  10.733   9.054  10.749 -0.1183 -0.4360 -0.9480
  439MOL0     C60456  10.881   9.041  10.804 -0.0510 -0.6508  0.1553
  439MOL0     C60457  10.977   9.154  10.756  0.3645  0.2227  0.5302
  439MOL0     C60458  10.949   9.276  10.841 -0.0511 -0.0322  0.5577
  439MOL0     C60459  11.009   9.390  10.768 -0.7283 -1.1170 -0.3014
  439MOL0     C60460  11.006   9.537  10.832  0.1515 -0.1971 -0.0989
  439MOL0     N60461  11.028   9.541  10.979  0.5863  0.2394 -0.8166
  439MOL0     C60462  10.936   9.505  11.071  0.4770 -0.2324 -0.1637
  439MOL0     C60463  10.990   9.525  11.187  0.5151 -0.2535 -0.6594
  439MOL0     C60464  10.925   9.523  11.318 -0.6585  0.1915 -0.0382
  439MOL0     C60465  10.780   9.575  11.308 -0.7049  0.0853 -0.0738
  439MOL0     C60466  10.682   9.460  11.300 -0.5066  0.1917 -0.8707
  439MOL0     C60467  10.542   9.505  11.316  0.6612 -0.5025  0.2462
  439MOL0     O60468  10.486   9.571  11.194 -0.4575 -0.4260  0.0574
  439MOL0     C60469  10.360   9.541  11.157  0.2429  0.1106 -0.1166
  439MOL0     C60470  10.266   9.647  11.148  0.0423  0.1273 -0.1079
  439MOL0     C60471  10.132   9.630  11.116  0.4845  0.2688 -0.1420
  439MOL0     C60472  10.042   9.747  11.131  0.2995 -0.9299 -0.0498
  439MOL0     C60473  10.087   9.491  11.093 -0.0544 -0.4363 -0.6976
  439MOL0     C60474   9.952   9.450  11.057 -0.6341 -0.2472 -0.2478
  439MOL0     O60475   9.917   9.323  11.078 -0.0816  0.1446  0.5086
  439MOL0     C60476   9.813   9.272  11.003 -0.3206  0.0809 -0.9511
  439MOL0     C60477   9.832   9.229  10.876  0.6191  0.6264  0.1200
  439MOL0     C60478   9.719   9.164  10.821 -0.7372  0.0136  0.1833
  439MOL0     C60479   9.595   9.154  10.886 -0.5837  0.1147 -1.1719
  439MOL0     O60480   9.493   9.090  10.830  0.3607 -0.5249 -0.7479
  439MOL0     C60481   9.376   9.165  10.806  0.6893  0.1982 -0.0387
  439MOL0     C60482   9.299   9.089  10.698  0.3576 -0.5460  0.0561
  439MOL0     C60483   9.375   9.109  10.562  0.3801 -0.0452  0.3297
  439MOL0     C60484   9.286   9.054  10.448  0.2404 -0.4649 -0.2932
  439MOL0     C60485   9.343   9.083  10.309 -0.9805 -0.3685 -0.4836
  439MOL0     C60486   9.234   9.027  10.221  0.4119 -1.1047 -0.4374
  439MOL0     C60487   9.253   9.053  10.070 -0.3487  0.0694  0.4259
  439MOL0     C60488   9.370   8.961  10.019 -0.7010  0.8459 -0.1462
  439MOL0    Cl60489   9.343   8.778  10.054 -0.0050 -0.2564  0.1998
  439MOL0     C60490   9.585   9.192  11.019  0.3919 -0.6594  0.1907
  439MOL0     C60491   9.694   9.246  11.073  0.1134  0.0635  0.8424
  439MOL0     O60492   9.876   9.534  11.013  0.0647  0.7159  0.0530
  439MOL0     C60493  10.181   9.385  11.097  1.6242  0.4032  0.0317
  439MOL0     C60494  10.316   9.408  11.123 -0.1609  0.5207  0.8454
  439MOL0     N60495  11.118   9.570  11.159  0.5599 -0.0806 -0.4000
  439MOL0     N60496  11.142   9.582  11.038  0.2734 -0.4093  0.9277
  439MOL0     C60497  10.285   9.028  10.921 -0.3948 -0.7045 -0.5104
  439MOL0     C60498  10.166   8.995  10.979  0.2324  0.3926 -0.0872
  439MOL0     C60499   9.796   8.815  11.098  0.4437 -0.6189 -0.1025
  439MOL0     C60500   9.696   8.854  11.003  0.9058  1.1056  0.2630
  439MOL0     C60501   9.559   8.824  11.028 -0.1053 -0.0072  0.6954
  439MOL0     C60502   9.523   8.759  11.142  0.4415  0.1134 -0.1147
  439MOL0     O60503   9.393   8.737  11.186  0.4402  0.0724 -0.0554
  439MOL0     C60504   9.287   8.803  11.115  1.2187 -0.5112  0.4117
  439MOL0     C60505   9.238   8.714  10.995 -0.4307 -0.3786  0.1061
  439MOL0     C60506   9.116   8.774  10.936 -0.3098  0.1227  0.2744
  439MOL0     C60507   8.982   8.771  11.010 -0.0054  0.0737 -0.1562
  439MOL0     C60508   8.949   8.637  11.064 -1.0092 -0.9165  0.2708
  439MOL0     C60509   8.913   8.533  11.097  0.3203 -0.0488 -0.7220
  439MOL0     C60510   9.622   8.727  11.237 -0.6725  0.4618 -1.0485
  439MOL0     C60511   9.753   8.761  11.219 -0.3386 -0.3362 -0.2792
  439MOL0     C60512   9.850   8.733  11.340 -0.3405 -0.3131  0.1469
  439MOL0     H60513  10.007   8.868  10.703  0.3200 -1.7184 -0.0003
  439MOL0     H60514  10.224   8.956  10.593 -3.1181 -2.6766  0.3940
  439MOL0     H60515  10.548   8.913  10.627  0.5567 -0.1587  0.2267
  439MOL0     H60516  10.454   8.848  10.769 -1.2673 -0.4109 -1.8422
  439MOL0     H60517  10.617   8.994  10.920 -0.0489 -0.4465 -0.1974
  439MOL0     H60518  10.683   8.852  10.844 -1.1165  0.4686  0.7762
  439MOL0     H60519  10.719   9.030  10.643 -1.1275 -0.0689 -0.9101
  439MOL0     H60520  10.688   9.153  10.755 -0.2088 -0.5247  0.0307
  439MOL0     H60521  10.867   9.044  10.912 -1.2564 -1.8915  0.0615
  439MOL0     H60522  10.912   8.941  10.773  2.9260  0.2415 -0.0758
  439MOL0     H60523  10.954   9.167  10.650 -2.0541 -2.2940  0.6121
  439MOL0     H60524  11.077   9.111  10.764  0.4951  0.6213  1.1004
  439MOL0     H60525  10.843   9.300  10.852  0.2498  2.0941 -0.6578
  439MOL0     H60526  10.991   9.258  10.941 -2.0940  1.0210  1.6624
  439MOL0     H60527  10.977   9.402  10.664  3.1156  3.4189 -1.3636
  439MOL0     H60528  11.117   9.371  10.762 -0.3814  0.7210 -0.6771
  439MOL0     H60529  11.074   9.614  10.795 -1.9247  1.6099 -0.3657
  439MOL0     H60530  10.911   9.584  10.804 -0.8620 -1.3532  1.2618
  439MOL0     H60531  10.833   9.480  11.047  0.2701  0.6132 -0.1777
  439MOL0     H60532  10.987   9.576  11.392 -0.2366  1.2184 -1.0811
  439MOL0     H60533  10.928   9.420  11.355  1.1530  0.1286 -0.2276
  439MOL0     H60534  10.763   9.640  11.395  3.2471  0.1625  0.8094
  439MOL0     H60535  10.759   9.643  11.224 -2.9206 -0.9492 -0.4410
  439MOL0     H60536  10.691   9.399  11.210  0.0719  0.0997 -0.7547
  439MOL0     H60537  10.697   9.398  11.389 -0.7053  2.5219  0.8832
  439MOL0     H60538  10.478   9.418  11.332  0.5123 -0.5431 -0.5078
  439MOL0     H60539  10.533   9.572  11.402 -2.9925  0.7547 -0.9353
  439MOL0     H60540  10.299   9.749  11.165  3.4948 -0.6652 -1.1963
  439MOL0     H60541  10.075   9.826  11.199  1.5141  1.6462 -3.2901
  439MOL0     H60542   9.945   9.718  11.172 -0.8347  0.8950 -1.2656
  439MOL0     H60543  10.022   9.796  11.034  0.7033 -3.9730 -1.7948
  439MOL0     H60544   9.924   9.225  10.819  0.8132  1.9405  0.3050
  439MOL0     H60545   9.726   9.135  10.717  0.0023  1.5745 -0.2353
  439MOL0     H60546   9.318   9.178  10.898 -1.1507  2.1556 -1.4115
  439MOL0     H60547   9.399   9.268  10.777  1.6945  1.1440  3.5407
  439MOL0     H60548   9.299   8.985  10.732  1.0078 -0.0675  1.6572
  439MOL0     H60549   9.195   9.118  10.682 -0.0605 -2.6698 -1.5905
  439MOL0     H60550   9.472   9.061  10.545 -0.0481  0.0255 -2.9059
  439MOL0     H60551   9.387   9.217  10.557  1.2393 -0.0014  2.3488
  439MOL0     H60552   9.188   9.102  10.453  0.9564  1.4595 -2.6234
  439MOL0     H60553   9.268   8.947  10.453 -0.2675 -0.4110 -0.8047
  439MOL0     H60554   9.346   9.191  10.289 -2.6907 -0.7790 -3.4172
  439MOL0     H60555   9.444   9.042  10.303 -0.1553  1.6427 -1.4585
  439MOL0     H60556   9.144   9.086  10.240  0.5030 -0.5986 -1.4905
  439MOL0     H60557   9.217   8.920  10.237  2.3303 -1.3538  0.1120
  439MOL0     H60558   9.275   9.159  10.053 -1.8643  0.9573  3.4149
  439MOL0     H60559   9.161   9.032  10.015  0.1047  2.8521 -1.5802
  439MOL0     H60560   9.458   8.994  10.075 -0.0761  1.5577 -1.5072
  439MOL0     H60561   9.401   8.972   9.914  2.6350  1.2346  0.7630
  439MOL0     H60562   9.506   9.175  11.091  0.3755  0.0365  0.3511
  439MOL0     H60563   9.690   9.266  11.180  0.0756  1.9883  0.5049
  439MOL0     H60564  10.156   9.281  11.077 -1.6487  0.7159  1.7551
  439MOL0     H60565  10.397   9.335  11.127  0.5269  1.2893  1.3575
  439MOL0     H60566  10.360   9.068  10.988 -2.1018  1.7018  0.1047
  439MOL0     H60567  10.141   9.018  11.082 -0.6457  2.8124 -0.7735
  439MOL0     H60568   9.728   8.902  10.911  1.3358 -0.6991 -0.5916
  439MOL0     H60569   9.485   8.864  10.958  2.3470  1.1446 -1.3950
  439MOL0     H60570   9.198   8.802  11.178 -0.2963 -4.5130 -1.4902
  439MOL0     H60571   9.306   8.908  11.088 -2.8738 -0.1557 -1.9242
  439MOL0     H60572   9.213   8.619  11.041 -2.9716  0.1416 -0.0792
  439MOL0     H60573   9.319   8.695  10.924 -0.2118 -2.4533  0.8693
  439MOL0     H60574   9.131   8.880  10.912 -0.6354 -0.0008 -0.5194
  439MOL0     H60575   9.093   8.724  10.841 -1.8920  0.1724  0.6145
  439MOL0     H60576   8.904   8.798  10.939 -1.2963  0.2429  1.2779
  439MOL0     H60577   8.981   8.836  11.098 -0.7372 -2.8363  2.1780
  439MOL0     H60578   8.882   8.434  11.122 -2.5967  1.2157  1.1526
  439MOL0     H60579   9.593   8.687  11.334  3.7811  0.5193  0.4984
  439MOL0     H60580   9.901   8.817  11.389  0.2936 -0.1532 -0.7514
  439MOL0     H60581   9.796   8.684  11.422 -1.2974  3.0904  1.7427
  439MOL0     H60582   9.925   8.664  11.299 -0.5888 -0.1290 -0.6255
  440MOL0     O60583   5.010   0.512   4.455  0.2404  0.4230  0.1325
  440MOL0     C60584   5.007   0.411   4.391  0.3719  0.3747  1.0741
  440MOL0     O60585   5.121   0.348   4.338  0.1802  0.5107 -0.4097
  440MOL0     C60586   5.248   0.390   4.368  0.9738  0.0272  0.1894
  440MOL0     C60587   5.294   0.407   4.501  0.6775  0.4681  0.6382
  440MOL0     C60588   5.421   0.445   4.526 -0.2735 -0.8122 -0.3966
  440MOL0     C60589   5.506   0.468   4.418 -0.4636 -0.3704 -0.2178
  440MOL0     O60590   5.628   0.527   4.425 -0.6611  0.4890  0.1087
  440MOL0     C60591   5.695   0.556   4.551  0.1868 -0.0347 -0.0585
  440MOL0     C60592   5.840   0.560   4.534  0.7629 -0.2438  0.1104
  440MOL0     C60593   5.897   0.695   4.479 -1.2127 -0.7786  0.1294
  440MOL0     C60594   6.049   0.719   4.483 -1.0372 -0.3887  0.6037
  440MOL0     C60595   6.074   0.849   4.404  0.1366  0.0300  0.3012
  440MOL0     C60596   6.216   0.879   4.355 -0.0279  0.3177  0.0291
  440MOL0     C60597   6.299   0.965   4.469  0.4806 -0.6928  0.2461
  440MOL0     C60598   6.427   1.019   4.411 -0.8445 -0.5334 -0.4920
  440MOL0     N60599   6.511   0.903   4.382 -0.5862 -0.1523  0.5800
  440MOL0     C60600   6.551   0.869   4.262 -0.8903 -1.1607 -0.8625
  440MOL0     C60601   6.627   0.758   4.281 -0.8520  0.2808 -0.0014
  440MOL0     C60602   6.695   0.678   4.170  0.6570  0.5887  0.1376
  440MOL0     C60603   6.840   0.719   4.149 -0.0813 -1.1038 -0.1795
  440MOL0     C60604   6.933   0.683   4.260  0.3950 -0.4064  0.1589
  440MOL0     C60605   7.081   0.724   4.242  0.9013 -0.6766 -0.3121
  440MOL0     O60606   7.096   0.860   4.211  1.1817 -0.6048 -0.1212
  440MOL0     C60607   7.218   0.924   4.215  0.0597 -0.4639 -0.2852
  440MOL0     C60608   7.217   1.056   4.167  0.9109 -0.7575  0.3295
  440MOL0     C60609   7.329   1.132   4.174 -0.1948 -0.7945 -0.8220
  440MOL0     C60610   7.307   1.280   4.134 -0.1970  0.4712  0.6223
  440MOL0     C60611   7.445   1.080   4.237 -0.2307  1.5447 -1.5340
  440MOL0     C60612   7.569   1.150   4.257 -0.7915  0.3034  0.3873
  440MOL0     O60613   7.679   1.083   4.295 -1.1851  0.0136 -0.1643
  440MOL0     C60614   7.793   1.150   4.304  0.2248  0.1621 -1.0768
  440MOL0     C60615   7.882   1.140   4.202 -0.0744  0.4120 -0.1885
  440MOL0     C60616   7.995   1.219   4.191  0.2702  0.9357 -0.3441
  440MOL0     C60617   8.033   1.289   4.312  0.6857  0.3588  0.4475
  440MOL0     O60618   8.138   1.367   4.298 -0.2992 -0.6619  0.1715
  440MOL0     C60619   8.161   1.461   4.410  0.2311 -0.2035  0.4338
  440MOL0     C60620   8.288   1.536   4.391 -0.1595  0.0175  0.2939
  440MOL0     C60621   8.273   1.643   4.284 -0.1783 -0.4277  1.3146
  440MOL0     C60622   8.335   1.777   4.313  0.3071  0.3232 -0.4323
  440MOL0     C60623   8.299   1.894   4.210  0.2273 -0.9593 -0.4590
  440MOL0     C60624   8.338   2.033   4.263  1.1413  0.3749  0.5012
  440MOL0     C60625   8.487   2.048   4.242 -0.7663 -0.5207 -0.0182
  440MOL0     C60626   8.521   2.194   4.264  0.3900 -0.4100 -0.0229
  440MOL0    Cl60627   8.698   2.202   4.304  0.1253 -0.1116 -0.3568
  440MOL0     C60628   7.934   1.296   4.410  1.0598  0.8563  0.5314
  440MOL0     C60629   7.816   1.221   4.416 -1.0993 -0.9662 -0.2911
  440MOL0     O60630   7.569   1.273   4.218 -0.9146  0.2918 -0.8571
  440MOL0     C60631   7.445   0.950   4.287 -0.3345  0.1815  0.4457
  440MOL0     C60632   7.337   0.874   4.264 -0.3215  1.1125 -0.0193
  440MOL0     N60633   6.632   0.725   4.410 -0.2482  0.0718 -1.0424
  440MOL0     N60634   6.550   0.807   4.468  0.9857  0.0721 -0.5769
  440MOL0     C60635   5.472   0.435   4.289 -0.0886 -0.4331 -0.6136
  440MOL0     C60636   5.342   0.395   4.267 -0.2924  0.4554  1.2350
  440MOL0     C60637   4.874   0.354   4.348  0.0914  0.0582  0.2021
  440MOL0     C60638   4.881   0.262   4.237  0.5409  1.0471  0.5859
  440MOL0     C60639   4.773   0.181   4.206 -0.2262 -0.2882  0.7494
  440MOL0     C60640   4.657   0.187   4.262  0.1242 -0.1372 -0.9328
  440MOL0     O60641   4.555   0.110   4.210 -0.2786 -0.4692  0.3042
  440MOL0     C60642   4.484   0.024   4.297  0.2997 -0.5249  0.8471
  440MOL0     C60643   4.340   0.005   4.245 -0.4382 -0.5831 -0.5604
  440MOL0     C60644   4.310  -0.105   4.143 -0.8429 -0.2391 -0.7437
  440MOL0     C60645   4.157  -0.114   4.097  0.3557  0.4247  0.6939
  440MOL0     C60646   4.141  -0.010   3.994  0.1320 -0.0320  0.8286
  440MOL0     C60647   4.125   0.062   3.898  0.5201 -0.3212  0.0397
  440MOL0     C60648   4.644   0.276   4.367 -0.4089  0.3253 -0.3982
  440MOL0     C60649   4.748   0.364   4.411 -0.4476 -0.7071 -0.4363
  440MOL0     C60650   4.719   0.449   4.528  1.0348 -0.4327 -0.1579
  440MOL0     H60651   5.224   0.403   4.584  0.6470  0.7491  0.6268
  440MOL0     H60652   5.458   0.479   4.623  0.0696  0.7968 -1.0529
  440MOL0     H60653   5.674   0.486   4.633  0.6321  3.4323  3.3330
  440MOL0     H60654   5.663   0.649   4.599  1.5031  0.2887  0.2213
  440MOL0     H60655   5.883   0.537   4.632  0.8358 -0.9483 -0.0777
  440MOL0     H60656   5.885   0.479   4.476  1.3172 -0.5231  0.9007
  440MOL0     H60657   5.881   0.703   4.371 -0.3634  0.2636  0.0571
  440MOL0     H60658   5.843   0.777   4.527 -0.7930 -1.1588  1.2769
  440MOL0     H60659   6.082   0.715   4.587  1.1440  0.2740 -0.0156
  440MOL0     H60660   6.095   0.631   4.437  3.3132  1.0811  1.6392
  440MOL0     H60661   6.032   0.936   4.455  0.6145  0.2043  0.4040
  440MOL0     H60662   6.011   0.842   4.315  0.8612  2.2798 -0.4546
  440MOL0     H60663   6.258   0.781   4.328 -3.7845 -2.0461  1.9075
  440MOL0     H60664   6.219   0.947   4.269  2.6521  1.3636  0.8682
  440MOL0     H60665   6.306   0.899   4.556 -1.2360 -1.3259 -0.0557
  440MOL0     H60666   6.240   1.052   4.497 -0.3571 -0.4621 -2.0209
  440MOL0     H60667   6.416   1.082   4.322 -2.9766 -0.2442 -0.0769
  440MOL0     H60668   6.479   1.076   4.489 -0.4617 -1.3382 -0.1469
  440MOL0     H60669   6.536   0.921   4.167 -1.1926 -1.5147 -1.0089
  440MOL0     H60670   6.635   0.701   4.082  1.3491  1.5448 -0.1083
  440MOL0     H60671   6.696   0.570   4.186  2.1391  0.3272 -1.3461
  440MOL0     H60672   6.867   0.677   4.051 -0.9191  1.6521 -1.6760
  440MOL0     H60673   6.848   0.826   4.129  3.8753 -1.3418 -0.5548
  440MOL0     H60674   6.886   0.729   4.348  0.7086 -0.0669  0.1507
  440MOL0     H60675   6.937   0.574   4.261  1.1777 -0.3832 -0.1452
  440MOL0     H60676   7.113   0.702   4.345 -1.2336  1.4599  0.9302
  440MOL0     H60677   7.136   0.658   4.175  1.4786  1.2134 -1.7811
  440MOL0     H60678   7.130   1.096   4.117  1.1063 -1.5416 -0.7003
  440MOL0     H60679   7.325   1.337   4.226 -2.1140  0.8939  0.7670
  440MOL0     H60680   7.206   1.299   4.098  0.0156  0.4828  0.0256
  440MOL0     H60681   7.365   1.316   4.049  0.6757 -0.9259  0.5926
  440MOL0     H60682   7.855   1.077   4.118 -0.2359  2.0244 -1.3928
  440MOL0     H60683   8.051   1.226   4.098 -0.2845  1.3759 -0.6554
  440MOL0     H60684   8.084   1.537   4.427 -0.6893 -1.0650  0.2035
  440MOL0     H60685   8.165   1.403   4.503 -1.0984 -0.6116  0.2590
  440MOL0     H60686   8.305   1.593   4.483  2.2281 -1.8286  1.0990
  440MOL0     H60687   8.379   1.477   4.374  1.1502  2.0644 -0.1089
  440MOL0     H60688   8.165   1.647   4.266  0.2380 -1.4263 -1.9546
  440MOL0     H60689   8.320   1.610   4.191 -3.0360 -1.6639  0.2026
  440MOL0     H60690   8.444   1.773   4.323  0.2114  0.8455  0.9795
  440MOL0     H60691   8.297   1.799   4.413 -1.1487 -0.8429 -0.6901
  440MOL0     H60692   8.353   1.879   4.116 -0.4725  2.7860 -1.6012
  440MOL0     H60693   8.191   1.890   4.195  0.0448  3.0652 -1.2687
  440MOL0     H60694   8.318   2.046   4.370  3.9604  1.6370  0.9729
  440MOL0     H60695   8.286   2.121   4.224 -0.5741 -0.2516  1.2744
  440MOL0     H60696   8.522   2.022   4.142 -1.0113 -1.7282  0.1933
  440MOL0     H60697   8.540   1.988   4.316 -1.1249  0.9353  1.4898
  440MOL0     H60698   8.468   2.234   4.351  1.3936 -1.5659  1.1742
  440MOL0     H60699   8.512   2.260   4.177 -1.7317  1.7663  1.7104
  440MOL0     H60700   7.943   1.363   4.496  0.0654  3.0824 -0.9877
  440MOL0     H60701   7.738   1.231   4.491 -0.1579 -1.0185  0.7068
  440MOL0     H60702   7.529   0.906   4.339  0.5677  0.2426 -0.9242
  440MOL0     H60703   7.346   0.775   4.306  0.2364  1.7699  1.4819
  440MOL0     H60704   5.535   0.455   4.203 -0.0848 -0.9343 -0.7291
  440MOL0     H60705   5.316   0.385   4.162  0.9227 -0.1031  0.9662
  440MOL0     H60706   4.970   0.250   4.176 -0.5593 -1.3974 -0.6597
  440MOL0     H60707   4.791   0.110   4.125  0.2176  1.1398 -0.4520
  440MOL0     H60708   4.532  -0.074   4.298  0.3974 -0.4884  2.6199
  440MOL0     H60709   4.489   0.065   4.399  1.5519  3.1791 -0.5192
  440MOL0     H60710   4.299   0.102   4.215  0.2451  0.6237  2.0885
  440MOL0     H60711   4.279  -0.024   4.331  4.2256 -4.4311  2.0144
  440MOL0     H60712   4.369  -0.105   4.052 -1.0360 -2.6088 -0.9400
  440MOL0     H60713   4.348  -0.199   4.184 -0.8090  0.7808  1.7219
  440MOL0     H60714   4.081  -0.108   4.174 -0.1991  1.9893  0.0570
  440MOL0     H60715   4.143  -0.208   4.042 -1.4387  0.9294  0.2454
  440MOL0     H60716   4.112   0.114   3.805  0.2099  0.7552  0.6688
  440MOL0     H60717   4.547   0.289   4.414 -0.2337  1.2210 -0.2699
  440MOL0     H60718   4.757   0.547   4.497  2.5413 -0.7629  0.5375
  440MOL0     H60719   4.617   0.450   4.569  1.3917  1.0186  0.7943
  440MOL0     H60720   4.782   0.408   4.608  1.5469 -2.8695 -1.7021
  441MOL0     O60721   3.223   0.962   2.938 -0.4567 -0.1078  0.6612
  441MOL0     C60722   3.120   1.013   2.974  0.4040 -1.3600 -0.2628
  441MOL0     O60723   3.103   1.080   3.097 -0.0225  0.0197  0.1370
  441MOL0     C60724   3.212   1.089   3.179 -0.6802  0.3843 -0.5493
  441MOL0     C60725   3.321   1.165   3.142  1.1711 -0.1159  0.8017
  441MOL0     C60726   3.438   1.172   3.220 -0.5040  0.5205 -0.8722
  441MOL0     C60727   3.442   1.117   3.348 -0.1793  0.3186 -0.0766
  441MOL0     O60728   3.551   1.143   3.419 -0.8218 -0.0511 -0.1218
  441MOL0     C60729   3.535   1.145   3.563 -0.0643 -0.9071  0.3193
  441MOL0     C60730   3.664   1.221   3.596 -0.5015  0.0822  0.0965
  441MOL0     C60731   3.789   1.116   3.590  0.1337  0.2930  0.8060
  441MOL0     C60732   3.915   1.188   3.632 -0.2806  0.9101  0.2689
  441MOL0     C60733   3.898   1.222   3.785  0.9493 -0.2223  0.5414
  441MOL0     C60734   4.034   1.266   3.836 -0.2209  0.0215  0.3020
  441MOL0     C60735   4.020   1.342   3.971 -0.5182 -0.7549  0.2140
  441MOL0     C60736   4.150   1.338   4.053  0.4603 -0.2697 -0.0924
  441MOL0     N60737   4.271   1.364   3.967 -0.7643  0.4716 -0.5110
  441MOL0     C60738   4.318   1.489   3.923  0.1748  1.2242  0.5481
  441MOL0     C60739   4.439   1.459   3.882  0.1236 -0.5660  0.2591
  441MOL0     C60740   4.543   1.559   3.847  0.6274  0.6627 -0.2421
  441MOL0     C60741   4.688   1.527   3.856 -0.5143 -0.2819 -0.2078
  441MOL0     C60742   4.770   1.650   3.798 -0.9161  0.4851  0.4028
  441MOL0     C60743   4.916   1.638   3.836 -0.6002 -0.9720 -0.6111
  441MOL0     O60744   4.933   1.660   3.975 -0.2395  0.2890 -0.1496
  441MOL0     C60745   5.064   1.666   4.013  0.2956 -0.2360  0.8159
  441MOL0     C60746   5.115   1.558   4.080  0.0415  0.2587 -0.0379
  441MOL0     C60747   5.242   1.561   4.137 -0.3995 -1.2544 -0.4894
  441MOL0     C60748   5.289   1.438   4.206  0.1414 -0.6428  0.2428
  441MOL0     C60749   5.330   1.678   4.124 -0.0195 -0.7491 -0.5200
  441MOL0     C60750   5.474   1.689   4.185 -0.2932  0.7749  0.2889
  441MOL0     O60751   5.536   1.815   4.178 -0.2561  0.7953  0.1014
  441MOL0     C60752   5.662   1.851   4.223 -0.2628  0.4486  0.3355
  441MOL0     C60753   5.764   1.765   4.251 -0.7638  0.2380  0.3637
  441MOL0     C60754   5.886   1.807   4.318  0.3162  0.2052  0.2654
  441MOL0     C60755   5.898   1.935   4.359  0.0520 -0.4814 -0.5479
  441MOL0     O60756   6.009   1.984   4.425  0.5093 -0.2596  0.3913
  441MOL0     C60757   6.137   1.968   4.358  0.7916 -0.1591  0.1871
  441MOL0     C60758   6.249   2.040   4.431 -0.3432 -0.4083  0.1049
  441MOL0     C60759   6.387   1.970   4.406  0.1729  0.4605  0.2287
  441MOL0     C60760   6.494   2.066   4.476 -0.0861  0.2838 -0.1173
  441MOL0     C60761   6.636   2.042   4.444  0.2360 -0.5365 -0.7974
  441MOL0     C60762   6.668   2.020   4.294  0.2300  0.5375 -0.0486
  441MOL0     C60763   6.821   1.979   4.270  0.5338 -0.2180  0.4459
  441MOL0     C60764   6.846   1.970   4.117 -0.0144 -0.8231  0.2542
  441MOL0    Cl60765   6.828   2.127   4.041  0.4404 -0.1889 -0.2369
  441MOL0     C60766   5.800   2.025   4.326 -0.2633  0.0764  0.3318
  441MOL0     C60767   5.688   1.982   4.255  0.0316 -0.2161  0.3845
  441MOL0     O60768   5.529   1.590   4.236  0.2425 -0.1665 -0.1596
  441MOL0     C60769   5.272   1.782   4.040  0.5932  0.4273 -0.1852
  441MOL0     C60770   5.143   1.778   3.987 -0.2123  0.4266 -0.5799
  441MOL0     N60771   4.477   1.330   3.913 -0.0683  0.8360  0.6061
  441MOL0     N60772   4.376   1.277   3.969  0.1498 -0.4110 -0.5126
  441MOL0     C60773   3.334   1.030   3.378  0.3662 -0.9121 -0.4140
  441MOL0     C60774   3.225   1.009   3.296 -0.7232  0.0161  0.9879
  441MOL0     C60775   3.002   1.002   2.882 -0.5463 -0.6471  0.5537
  441MOL0     C60776   2.882   1.065   2.925 -0.4394  0.0276 -0.2436
  441MOL0     C60777   2.778   1.078   2.841 -0.2883 -0.3470  0.5373
  441MOL0     C60778   2.781   1.022   2.717 -0.6348  0.0175  0.0522
  441MOL0     O60779   2.678   1.028   2.628  0.1381 -0.6442  0.0296
  441MOL0     C60780   2.554   0.965   2.668 -0.3779  0.2159  0.1240
  441MOL0     C60781   2.488   0.927   2.535  0.4742 -0.1724  0.1324
  441MOL0     C60782   2.405   1.044   2.466  0.3574 -0.9039  0.3822
  441MOL0     C60783   2.384   1.024   2.316 -0.8130  0.2271  0.6175
  441MOL0     C60784   2.320   0.895   2.284 -0.8997 -0.3007 -0.4387
  441MOL0     C60785   2.263   0.790   2.258 -0.1149 -0.3384  0.0166
  441MOL0     C60786   2.896   0.954   2.679 -0.2971 -0.2064 -0.7043
  441MOL0     C60787   3.011   0.946   2.758 -1.0198  0.0615  0.4853
  441MOL0     C60788   3.132   0.876   2.683  0.7099  0.0069 -0.2580
  441MOL0     H60789   3.315   1.213   3.045  1.2549  0.6381  1.1639
  441MOL0     H60790   3.520   1.225   3.175 -1.7384  2.3947 -1.0284
  441MOL0     H60791   3.527   1.046   3.608  1.2211 -0.2057  2.2043
  441MOL0     H60792   3.444   1.195   3.596  0.8095 -0.1478  1.6770
  441MOL0     H60793   3.687   1.300   3.523  1.9166 -2.9171 -2.6640
  441MOL0     H60794   3.647   1.271   3.692 -1.2814  0.1044 -0.0419
  441MOL0     H60795   3.769   1.026   3.650 -0.1137  0.3487  0.8075
  441MOL0     H60796   3.806   1.087   3.486  0.2417  2.8886  0.0452
  441MOL0     H60797   4.006   1.130   3.614  0.8904  3.2460 -1.9219
  441MOL0     H60798   3.930   1.274   3.567 -2.5479  1.0675 -0.1429
  441MOL0     H60799   3.865   1.134   3.841  2.2198 -0.8077  0.4103
  441MOL0     H60800   3.824   1.303   3.791  0.2360 -0.6153 -1.8235
  441MOL0     H60801   4.099   1.177   3.842  1.9789  1.3831 -1.4480
  441MOL0     H60802   4.091   1.335   3.773  1.5704 -0.8615  0.8701
  441MOL0     H60803   3.934   1.310   4.032 -1.0836  0.6449  0.1889
  441MOL0     H60804   4.017   1.449   3.947 -1.2127 -1.2430 -2.0672
  441MOL0     H60805   4.145   1.408   4.137  0.3794 -1.2397  0.7337
  441MOL0     H60806   4.161   1.234   4.087  1.0389 -0.0922  0.2786
  441MOL0     H60807   4.272   1.587   3.926  2.2755  2.2835  0.0518
  441MOL0     H60808   4.506   1.650   3.896 -0.4986  0.5651 -0.9057
  441MOL0     H60809   4.519   1.563   3.741 -0.6348  2.7273  0.0665
  441MOL0     H60810   4.711   1.508   3.962  0.3821  2.0243  0.0611
  441MOL0     H60811   4.705   1.437   3.796  0.1492  0.5633 -1.3230
  441MOL0     H60812   4.753   1.654   3.691  0.6177  0.7409  0.1436
  441MOL0     H60813   4.737   1.746   3.839 -0.3719  0.2389  1.4858
  441MOL0     H60814   4.949   1.536   3.815  3.5218  0.0210  0.0513
  441MOL0     H60815   4.978   1.710   3.781  0.0990 -0.3426  0.9221
  441MOL0     H60816   5.060   1.464   4.076  0.9343 -0.2481 -0.6316
  441MOL0     H60817   5.318   1.450   4.311 -2.6363 -1.1840  1.1563
  441MOL0     H60818   5.372   1.396   4.148 -1.4202 -0.3905 -2.2909
  441MOL0     H60819   5.202   1.374   4.216 -0.1216 -0.6607 -1.7321
  441MOL0     H60820   5.755   1.662   4.217 -0.0326  0.8399 -1.7978
  441MOL0     H60821   5.967   1.736   4.330 -2.4152 -3.3336 -0.4983
  441MOL0     H60822   6.146   1.859   4.361 -0.5307 -0.2799  0.4085
  441MOL0     H60823   6.132   2.009   4.257 -2.7278  0.4187  0.4493
  441MOL0     H60824   6.271   2.144   4.403 -0.0103 -0.7643 -1.0066
  441MOL0     H60825   6.209   2.049   4.532 -1.9228 -0.5674 -0.4754
  441MOL0     H60826   6.391   1.956   4.297  1.1414 -0.7748  0.3987
  441MOL0     H60827   6.383   1.870   4.449 -0.1034 -0.0771 -1.0016
  441MOL0     H60828   6.486   2.061   4.585 -0.6423  2.5835  0.0116
  441MOL0     H60829   6.486   2.168   4.436  2.9035 -0.1864 -2.2919
  441MOL0     H60830   6.699   2.127   4.472 -1.2527  1.1332 -2.3016
  441MOL0     H60831   6.672   1.963   4.511  1.5103  0.2456 -0.5310
  441MOL0     H60832   6.648   2.111   4.236 -2.9537 -1.1727 -1.8977
  441MOL0     H60833   6.609   1.941   4.248 -1.5597  1.7316  0.0939
  441MOL0     H60834   6.846   1.878   4.305  2.6579 -1.3558 -3.6905
  441MOL0     H60835   6.884   2.055   4.317  0.2489  1.0078 -1.0489
  441MOL0     H60836   6.775   1.900   4.070 -2.2624  2.0188 -0.9065
  441MOL0     H60837   6.949   1.939   4.098 -0.1754 -0.3133 -1.6505
  441MOL0     H60838   5.827   2.127   4.351 -1.6156  0.5858 -0.1723
  441MOL0     H60839   5.615   2.051   4.214  1.0839 -0.3077 -1.7817
  441MOL0     H60840   5.328   1.873   4.020  0.1023  0.7642 -0.0578
  441MOL0     H60841   5.098   1.859   3.929  0.2243  1.1242  0.0388
  441MOL0     H60842   3.331   0.971   3.470  0.9167 -1.1872 -0.5707
  441MOL0     H60843   3.148   0.935   3.314 -0.3859 -0.8061 -0.8023
  441MOL0     H60844   2.879   1.117   3.021 -0.2229  0.5769 -0.5288
  441MOL0     H60845   2.696   1.148   2.856  0.0517  1.3913 -4.0490
  441MOL0     H60846   2.583   0.867   2.707 -1.0763  0.5507  1.5504
  441MOL0     H60847   2.498   1.021   2.743  3.8324  0.9370  3.1107
  441MOL0     H60848   2.420   0.845   2.562 -0.0403  0.9761  2.6676
  441MOL0     H60849   2.560   0.889   2.462 -0.8924 -0.7726 -0.9396
  441MOL0     H60850   2.307   1.062   2.513 -0.1873 -2.8760  0.0689
  441MOL0     H60851   2.466   1.135   2.470 -0.6354 -0.2073  0.2169
  441MOL0     H60852   2.479   1.025   2.261 -0.1332  2.1197  1.7458
  441MOL0     H60853   2.320   1.099   2.269 -0.8739 -0.4664 -0.4462
  441MOL0     H60854   2.217   0.697   2.231  0.9236 -1.1257  0.8920
  441MOL0     H60855   2.900   0.897   2.586 -0.9469 -0.4350 -0.5994
  441MOL0     H60856   3.185   0.954   2.627  0.9206 -0.0821 -0.1821
  441MOL0     H60857   3.187   0.813   2.753  1.4266  0.2958 -0.5487
  441MOL0     H60858   3.097   0.810   2.603 -0.7125  0.8588 -0.3679
  442MOL0     O60859   1.775   6.297   5.191  0.5267  0.9029 -0.7368
  442MOL0     C60860   1.688   6.378   5.224  0.4375 -0.2461 -0.1972
  442MOL0     O60861   1.653   6.480   5.142  0.8861 -0.3056 -0.0835
  442MOL0     C60862   1.730   6.514   5.032  0.4136  0.0539 -0.2066
  442MOL0     C60863   1.864   6.555   5.041  0.3584  0.2539  0.2803
  442MOL0     C60864   1.940   6.589   4.934  0.7803 -0.2848  0.7361
  442MOL0     C60865   1.875   6.585   4.806  0.3265  0.5806 -0.1996
  442MOL0     O60866   1.928   6.628   4.692  0.2158  0.1250 -0.0229
  442MOL0     C60867   1.871   6.753   4.655  0.9996  0.0594  0.1168
  442MOL0     C60868   1.970   6.871   4.655  0.2336  0.2908 -0.3919
  442MOL0     C60869   2.068   6.877   4.540 -0.1499 -0.1679  0.1094
  442MOL0     C60870   2.163   7.000   4.550 -0.6286 -0.2853 -0.4803
  442MOL0     C60871   2.265   7.025   4.436  0.7891  0.3473  0.8660
  442MOL0     C60872   2.331   7.158   4.447  0.9149 -0.0638 -0.1503
  442MOL0     C60873   2.452   7.147   4.357  0.4617 -0.4362  0.1113
  442MOL0     C60874   2.523   7.284   4.350  0.8912 -0.3146 -0.2652
  442MOL0     N60875   2.589   7.323   4.469  0.2686 -0.7123 -0.3987
  442MOL0     C60876   2.583   7.435   4.540  0.7053 -0.8365 -0.9348
  442MOL0     C60877   2.686   7.426   4.628  0.0598  0.4265 -0.6005
  442MOL0     C60878   2.720   7.540   4.721  0.6512  0.5072 -0.6102
  442MOL0     C60879   2.783   7.653   4.632 -0.9630  0.2074 -0.3701
  442MOL0     C60880   2.833   7.769   4.720  1.0140 -0.0669 -0.8636
  442MOL0     C60881   2.861   7.905   4.642 -0.4835  0.3236 -1.2719
  442MOL0     O60882   2.951   7.876   4.538  0.2604 -0.9811  0.6249
  442MOL0     C60883   3.088   7.863   4.546 -0.7362  0.9114 -0.5359
  442MOL0     C60884   3.153   7.815   4.431 -0.0868  0.1633 -0.5597
  442MOL0     C60885   3.291   7.816   4.424 -0.3882  0.7819 -0.3568
  442MOL0     C60886   3.361   7.745   4.304 -0.1280 -0.2982  0.6716
  442MOL0     C60887   3.369   7.864   4.529 -0.0782  0.3367  0.3896
  442MOL0     C60888   3.518   7.859   4.541 -0.6489 -0.1069  0.1485
  442MOL0     O60889   3.575   7.820   4.659  0.6532  0.0518  0.3397
  442MOL0     C60890   3.708   7.830   4.664 -0.1037 -0.1490  0.4279
  442MOL0     C60891   3.768   7.956   4.665 -0.7112  0.5305  0.2618
  442MOL0     C60892   3.908   7.970   4.676  1.1262 -0.7250 -0.5187
  442MOL0     C60893   3.979   7.854   4.680  0.0177 -0.1588 -0.2483
  442MOL0     O60894   4.115   7.862   4.687 -0.7663 -0.7448 -0.5615
  442MOL0     C60895   4.173   7.825   4.819 -0.0252  0.2451 -0.4840
  442MOL0     C60896   4.305   7.765   4.782 -0.3308 -0.5943  0.6421
  442MOL0     C60897   4.303   7.669   4.665 -0.5559  0.2893 -0.4544
  442MOL0     C60898   4.441   7.597   4.660 -0.1117  0.2660 -0.2720
  442MOL0     C60899   4.429   7.502   4.544  0.0226  0.0833  0.4134
  442MOL0     C60900   4.565   7.425   4.501  0.1380 -0.1619  0.5698
  442MOL0     C60901   4.645   7.361   4.617  0.5797  0.5147  0.5972
  442MOL0     C60902   4.744   7.253   4.574 -0.3972  0.9372 -0.4747
  442MOL0    Cl60903   4.661   7.107   4.514 -0.3375  0.3351  0.0201
  442MOL0     C60904   3.922   7.731   4.682 -0.4834  0.0521  0.0689
  442MOL0     C60905   3.781   7.717   4.670 -0.7183  0.1698 -0.3048
  442MOL0     O60906   3.578   7.885   4.437 -0.3426  1.1330  0.5649
  442MOL0     C60907   3.303   7.893   4.649  0.0685  0.4069  0.2914
  442MOL0     C60908   3.163   7.889   4.659  0.3957 -0.6761  0.3709
  442MOL0     N60909   2.756   7.308   4.613 -0.0561  0.2530  0.2515
  442MOL0     N60910   2.692   7.245   4.525  0.7119  0.5731  0.3013
  442MOL0     C60911   1.737   6.543   4.795 -0.0022  0.2586  0.1857
  442MOL0     C60912   1.664   6.510   4.909  0.4668 -0.3713 -0.7188
  442MOL0     C60913   1.613   6.354   5.345 -0.4679 -0.6796 -0.2477
  442MOL0     C60914   1.504   6.445   5.372 -0.0295  0.0626  0.3341
  442MOL0     C60915   1.425   6.423   5.484 -0.0193 -0.2555  0.1542
  442MOL0     C60916   1.442   6.310   5.568  1.0735 -0.5202  0.3302
  442MOL0     O60917   1.375   6.284   5.684  0.3661  0.4288 -0.4890
  442MOL0     C60918   1.250   6.342   5.715 -1.0520  0.3662  0.8533
  442MOL0     C60919   1.135   6.320   5.621  0.4895 -1.1539  0.2373
  442MOL0     C60920   1.109   6.174   5.609  0.7299  0.4617 -0.1191
  442MOL0     C60921   0.993   6.152   5.508 -0.5780 -0.3597 -0.0179
  442MOL0     C60922   0.867   6.211   5.549  0.0611 -0.4029 -0.8524
  442MOL0     C60923   0.745   6.248   5.551  0.0068  1.0555 -0.5212
  442MOL0     C60924   1.547   6.223   5.535  1.2607 -0.2974  0.7006
  442MOL0     C60925   1.640   6.246   5.430 -1.2376  0.6958 -0.3661
  442MOL0     C60926   1.744   6.133   5.420  0.5199 -0.3197  0.2632
  442MOL0     H60927   1.910   6.553   5.140  1.7595  0.1154 -0.3540
  442MOL0     H60928   2.046   6.610   4.937  1.0489 -1.4138 -0.1426
  442MOL0     H60929   1.785   6.783   4.715 -2.3953 -0.4509 -4.0775
  442MOL0     H60930   1.828   6.751   4.555 -0.2162 -1.0097  0.6318
  442MOL0     H60931   1.912   6.963   4.663  0.3520  0.6126 -2.5718
  442MOL0     H60932   2.036   6.862   4.742  0.3030  0.3941 -0.4337
  442MOL0     H60933   2.117   6.780   4.530  0.1049 -0.0391  0.0973
  442MOL0     H60934   2.005   6.891   4.452 -0.3177  1.3281  0.4285
  442MOL0     H60935   2.107   7.093   4.564  1.8450  1.0225  1.7682
  442MOL0     H60936   2.219   6.980   4.642  0.5932  0.9656 -0.9182
  442MOL0     H60937   2.218   7.022   4.336  0.1528  0.1318  1.1656
  442MOL0     H60938   2.338   6.944   4.440  0.8933  0.5115  2.6365
  442MOL0     H60939   2.260   7.239   4.425 -1.0881 -0.7388  3.0910
  442MOL0     H60940   2.363   7.174   4.550  0.3635 -0.9610  0.1741
  442MOL0     H60941   2.420   7.119   4.256 -2.9880  3.5068 -0.1341
  442MOL0     H60942   2.519   7.071   4.399  0.7016  0.3834  1.2748
  442MOL0     H60943   2.605   7.286   4.278  0.4744 -2.1295 -0.8513
  442MOL0     H60944   2.441   7.349   4.321 -0.7432 -2.1409  0.0617
  442MOL0     H60945   2.517   7.519   4.521  0.7647 -0.6091 -0.1907
  442MOL0     H60946   2.796   7.496   4.787  2.6014 -0.1665 -3.1349
  442MOL0     H60947   2.631   7.568   4.777  0.2780 -0.5552 -0.6476
  442MOL0     H60948   2.868   7.620   4.573 -1.0743  1.0158 -0.9917
  442MOL0     H60949   2.708   7.689   4.561  0.3368  0.8363 -1.4480
  442MOL0     H60950   2.765   7.781   4.805  1.4150  2.0084 -0.7795
  442MOL0     H60951   2.929   7.745   4.766  1.0055  0.3917 -0.5961
  442MOL0     H60952   2.770   7.956   4.611 -1.5657 -0.0137  1.1137
  442MOL0     H60953   2.897   7.976   4.717  2.6957 -1.8570 -0.5213
  442MOL0     H60954   3.083   7.791   4.352 -0.3114  0.6676 -0.5203
  442MOL0     H60955   3.428   7.814   4.251  1.9415 -1.8518  1.1061
  442MOL0     H60956   3.287   7.704   4.236  1.0933  0.4700 -1.2042
  442MOL0     H60957   3.423   7.664   4.345  0.9271 -1.0737 -2.2400
  442MOL0     H60958   3.697   8.036   4.646 -1.5724 -0.6359 -1.7483
  442MOL0     H60959   3.967   8.060   4.667 -0.9060  0.5890 -1.4516
  442MOL0     H60960   4.179   7.916   4.879 -2.1935 -0.2486  0.5732
  442MOL0     H60961   4.127   7.749   4.882  1.0319 -0.2603 -0.2948
  442MOL0     H60962   4.382   7.842   4.770  0.4767 -1.6698 -1.6300
  442MOL0     H60963   4.335   7.700   4.865  0.6330  2.2812  2.7293
  442MOL0     H60964   4.283   7.719   4.571 -1.8850  0.7623  0.0657
  442MOL0     H60965   4.222   7.599   4.685 -1.0208  1.3845  1.8639
  442MOL0     H60966   4.455   7.548   4.757  0.5236 -0.0052 -0.4905
  442MOL0     H60967   4.523   7.664   4.632  0.4001 -0.8956 -1.7097
  442MOL0     H60968   4.350   7.428   4.556 -2.0927  1.9095 -1.2903
  442MOL0     H60969   4.401   7.554   4.451  0.0757  1.6912  1.2495
  442MOL0     H60970   4.629   7.498   4.451  2.1683 -0.1491  3.0176
  442MOL0     H60971   4.534   7.348   4.430  0.5435 -0.3616  0.6044
  442MOL0     H60972   4.571   7.334   4.693 -0.7147 -0.9798 -1.1073
  442MOL0     H60973   4.695   7.446   4.663  3.2047  0.9893 -2.7997
  442MOL0     H60974   4.802   7.217   4.659 -0.2903  1.8165 -0.1598
  442MOL0     H60975   4.810   7.286   4.494 -0.0831  1.2831 -0.0801
  442MOL0     H60976   3.971   7.635   4.693 -0.6779 -0.0130  0.3773
  442MOL0     H60977   3.744   7.615   4.677  2.8825 -1.2272  0.6132
  442MOL0     H60978   3.357   7.924   4.738 -1.4534  0.5593  1.2028
  442MOL0     H60979   3.121   7.912   4.757  0.7989 -1.7889  0.8228
  442MOL0     H60980   1.690   6.548   4.698  0.3833 -0.2847 -0.0316
  442MOL0     H60981   1.566   6.462   4.907  0.2430  0.0875 -0.7381
  442MOL0     H60982   1.492   6.536   5.314 -0.3523 -0.5004 -0.4962
  442MOL0     H60983   1.352   6.501   5.504 -0.0074 -0.4750  1.1134
  442MOL0     H60984   1.206   6.313   5.812 -1.3411 -0.1395  0.5769
  442MOL0     H60985   1.267   6.450   5.722 -0.3151  0.3586 -0.5220
  442MOL0     H60986   1.164   6.357   5.522  0.7104 -0.8870  0.3998
  442MOL0     H60987   1.045   6.371   5.655 -0.1106  0.1541 -2.8952
  442MOL0     H60988   1.201   6.128   5.573 -1.1837 -4.1246  0.2076
  442MOL0     H60989   1.087   6.130   5.707  2.1900  1.0948  0.5217
  442MOL0     H60990   0.979   6.044   5.495 -1.5850 -0.1073 -1.2885
  442MOL0     H60991   1.026   6.200   5.416 -0.4407  1.2754  0.8403
  442MOL0     H60992   0.643   6.281   5.550 -0.6023 -0.6893 -1.3797
  442MOL0     H60993   1.556   6.133   5.596 -1.6595 -1.0504  0.1494
  442MOL0     H60994   1.714   6.068   5.337  0.9226 -0.5307  0.2805
  442MOL0     H60995   1.842   6.173   5.392 -0.0042  0.7365 -0.0977
  442MOL0     H60996   1.749   6.062   5.503 -0.9270 -0.0504  0.5992
  443MOL0     O60997   4.473  10.165   0.214  0.6679 -0.8652 -0.3384
  443MOL0     C60998   4.359  10.180   0.158  0.1830 -0.1977 -0.2002
  443MOL0     O60999   4.329  10.279   0.073  0.1074 -0.4936  0.5112
  443MOL0     C61000   4.435  10.346   0.008  0.8119 -0.7448 -0.7247
  443MOL0     C61001   4.536  10.274  -0.045 -0.1481  0.1288 -0.0949
  443MOL0     C61002   4.641  10.333  -0.103 -0.6973 -1.1163 -0.9858
  443MOL0     C61003   4.641  10.475  -0.120 -0.3367  0.1755 -0.4883
  443MOL0     O61004   4.753  10.540  -0.156  0.2491 -0.6242  0.8507
  443MOL0     C61005   4.840  10.475  -0.240 -0.9174  0.1241  0.5464
  443MOL0     C61006   4.922  10.581  -0.326 -0.1674 -0.2935  0.0362
  443MOL0     C61007   4.840  10.679  -0.406  0.1762  0.0717 -0.2532
  443MOL0     C61008   4.935  10.762  -0.490  0.0760  0.0396  0.3584
  443MOL0     C61009   4.861  10.879  -0.564 -0.2080 -0.0923  0.4587
  443MOL0     C61010   4.937  10.938  -0.685  0.1950  0.3334  0.2048
  443MOL0     C61011   4.870  11.069  -0.737 -0.3295  1.1592 -0.1917
  443MOL0     C61012   4.940  11.119  -0.866 -0.9378 -0.0196  0.4153
  443MOL0     N61013   5.055  11.218  -0.842  0.4526  0.6526 -0.0499
  443MOL0     C61014   5.171  11.183  -0.782 -0.5597 -0.2507  0.8950
  443MOL0     C61015   5.233  11.300  -0.763 -0.3839  0.0613 -0.1582
  443MOL0     C61016   5.376  11.318  -0.715  0.4891 -0.4371  0.7358
  443MOL0     C61017   5.412  11.465  -0.716  0.0707 -0.0124  0.8892
  443MOL0     C61018   5.553  11.476  -0.647  0.0976  0.1344  0.9725
  443MOL0     C61019   5.579  11.619  -0.591  0.3316  0.2832 -0.0386
  443MOL0     O61020   5.610  11.699  -0.707  0.5965  0.3676 -0.1036
  443MOL0     C61021   5.631  11.836  -0.689 -0.3847  1.3107  0.6286
  443MOL0     C61022   5.651  11.900  -0.570 -0.2917  0.1516  0.6434
  443MOL0     C61023   5.658  12.037  -0.557  0.0638 -0.1867  0.3173
  443MOL0     C61024   5.646  12.092  -0.414  0.2830  0.3701 -0.1467
  443MOL0     C61025   5.660  12.118  -0.677 -0.2769 -0.8887  0.0338
  443MOL0     C61026   5.693  12.266  -0.666 -0.0775 -0.1453 -0.1561
  443MOL0     O61027   5.679  12.339  -0.779  0.8719  0.1559 -0.3480
  443MOL0     C61028   5.680  12.474  -0.784  1.5426 -1.0071  0.4053
  443MOL0     C61029   5.600  12.555  -0.700  0.4552 -0.5477 -0.2905
  443MOL0     C61030   5.600  12.693  -0.713 -0.5517 -0.6938 -0.4828
  443MOL0     C61031   5.679  12.750  -0.818 -0.0238 -0.0171 -0.6138
  443MOL0     O61032   5.680  12.882  -0.853 -0.5345  0.0786  0.0665
  443MOL0     C61033   5.576  12.975  -0.810  0.4906 -0.3243 -0.5060
  443MOL0     C61034   5.602  13.120  -0.852  0.2387  0.1415 -0.5962
  443MOL0     C61035   5.721  13.163  -0.772  0.1515 -0.1669  0.3506
  443MOL0     C61036   5.764  13.309  -0.801  0.2614  0.6950 -0.3621
  443MOL0     C61037   5.905  13.345  -0.745  0.1136  0.2546  0.5901
  443MOL0     C61038   5.941  13.494  -0.728  0.9127 -1.0705 -0.3754
  443MOL0     C61039   5.863  13.552  -0.610  0.2720 -0.1146 -0.1379
  443MOL0     C61040   5.927  13.686  -0.562  0.1811  0.4242  0.0699
  443MOL0    Cl61041   6.100  13.664  -0.518 -0.0046  0.3379  0.0944
  443MOL0     C61042   5.765  12.670  -0.887  0.8535  0.3944 -0.3366
  443MOL0     C61043   5.763  12.532  -0.879 -0.7621 -0.6411 -0.2058
  443MOL0     O61044   5.763  12.307  -0.572  0.3699  0.6309 -0.3682
  443MOL0     C61045   5.662  12.050  -0.799  0.6051  0.2573  0.1950
  443MOL0     C61046   5.636  11.912  -0.806 -0.3238 -0.2880  0.4041
  443MOL0     N61047   5.145  11.402  -0.806  0.2019 -0.4560 -0.1478
  443MOL0     N61048   5.039  11.346  -0.846 -0.2773  0.1166 -0.2057
  443MOL0     C61049   4.535  10.552  -0.070 -0.5893 -0.2739  0.2194
  443MOL0     C61050   4.436  10.488   0.002 -0.2551  0.9369 -0.0759
  443MOL0     C61051   4.255  10.103   0.210  0.6344  0.9123 -0.3333
  443MOL0     C61052   4.127  10.166   0.224 -0.0317  0.2850  0.3219
  443MOL0     C61053   4.014  10.096   0.270 -0.4719  0.2272 -0.4630
  443MOL0     C61054   4.030   9.966   0.316 -0.0234 -0.1978  0.7930
  443MOL0     O61055   3.911   9.908   0.360 -0.4393  0.6608  0.5048
  443MOL0     C61056   3.909   9.766   0.361  0.0490  0.3010 -0.4620
  443MOL0     C61057   3.775   9.726   0.417  1.1003 -0.9123  0.6903
  443MOL0     C61058   3.771   9.762   0.568 -0.6922 -0.4130 -0.0519
  443MOL0     C61059   3.635   9.729   0.641  0.2766 -1.4299  0.5637
  443MOL0     C61060   3.592   9.590   0.646  1.1598 -0.4022 -0.0861
  443MOL0     C61061   3.558   9.478   0.631 -0.3993  0.0928 -0.3943
  443MOL0     C61062   4.155   9.902   0.299 -0.6961  0.1239 -0.0599
  443MOL0     C61063   4.271   9.967   0.246  1.2629  0.5715  1.0500
  443MOL0     C61064   4.385   9.889   0.191 -0.4757  0.4024  0.2480
  443MOL0     H61065   4.528  10.166  -0.032  0.3401  0.0091 -0.7301
  443MOL0     H61066   4.727  10.275  -0.136 -0.1297 -1.3555  0.8110
  443MOL0     H61067   4.788  10.412  -0.312  2.7189 -0.0780 -2.1946
  443MOL0     H61068   4.910  10.412  -0.185  1.4033  0.2700 -2.0402
  443MOL0     H61069   4.984  10.638  -0.256  0.5125  0.2104 -0.9476
  443MOL0     H61070   4.987  10.521  -0.391 -1.5147 -2.2764  0.4088
  443MOL0     H61071   4.780  10.624  -0.479 -1.0911  0.5323  0.4063
  443MOL0     H61072   4.769  10.732  -0.341 -1.1544 -0.1788 -1.4628
  443MOL0     H61073   5.022  10.802  -0.436  0.6184 -0.5811 -0.0435
  443MOL0     H61074   4.978  10.702  -0.571  1.6739  0.0687  1.1375
  443MOL0     H61075   4.838  10.960  -0.494  0.3532  0.2848  0.2169
  443MOL0     H61076   4.765  10.841  -0.601 -0.7612  3.2630 -2.0443
  443MOL0     H61077   5.036  10.968  -0.652 -0.2636  1.9674  0.2073
  443MOL0     H61078   4.944  10.861  -0.763  1.4021  1.7212 -1.1126
  443MOL0     H61079   4.873  11.155  -0.669  0.7199  1.3131 -0.4309
  443MOL0     H61080   4.764  11.047  -0.753 -1.3922  5.0888  0.4848
  443MOL0     H61081   4.978  11.036  -0.925  0.6412  0.1781  1.1118
  443MOL0     H61082   4.868  11.174  -0.928 -2.0020 -0.1205  1.5248
  443MOL0     H61083   5.197  11.078  -0.767  0.1473 -0.1374  0.4938
  443MOL0     H61084   5.447  11.271  -0.784  2.7629  3.1222  0.4324
  443MOL0     H61085   5.381  11.280  -0.613 -1.0700 -0.5606  0.7866
  443MOL0     H61086   5.415  11.516  -0.813 -0.7941  1.8150  1.7659
  443MOL0     H61087   5.345  11.524  -0.653 -0.0262  0.8214  0.0427
  443MOL0     H61088   5.567  11.403  -0.567  2.1037  0.3840  0.8826
  443MOL0     H61089   5.634  11.458  -0.718  2.2350  1.6856  2.8479
  443MOL0     H61090   5.494  11.659  -0.535  1.7079  0.5012  1.9819
  443MOL0     H61091   5.662  11.633  -0.522 -2.5601  4.7938  3.0253
  443MOL0     H61092   5.663  11.842  -0.480 -1.6096  0.8498  1.2949
  443MOL0     H61093   5.570  12.040  -0.355 -0.4184  0.9140 -0.5460
  443MOL0     H61094   5.587  12.185  -0.413  0.2129  0.3302 -0.4297
  443MOL0     H61095   5.744  12.111  -0.371  0.7083  0.8948 -1.2898
  443MOL0     H61096   5.543  12.503  -0.625  1.7201 -0.9010  0.4652
  443MOL0     H61097   5.526  12.754  -0.662 -1.3083 -2.6900  0.9627
  443MOL0     H61098   5.478  12.943  -0.846 -0.4279  1.3309  0.4042
  443MOL0     H61099   5.568  12.978  -0.701  1.2292  0.9855 -0.4653
  443MOL0     H61100   5.633  13.124  -0.957  0.1189 -0.2333 -0.6478
  443MOL0     H61101   5.516  13.184  -0.830  0.0698  0.0477 -0.9684
  443MOL0     H61102   5.790  13.090  -0.815 -1.2966 -0.8019 -1.0322
  443MOL0     H61103   5.694  13.147  -0.667 -2.4494 -1.7660 -0.4428
  443MOL0     H61104   5.684  13.373  -0.762  0.8679  0.3690  1.5122
  443MOL0     H61105   5.766  13.330  -0.908 -3.2522  1.5486 -0.3673
  443MOL0     H61106   5.930  13.296  -0.650 -0.3622  1.0191  1.1201
  443MOL0     H61107   5.984  13.306  -0.810 -2.2082 -1.7283 -1.1964
  443MOL0     H61108   5.923  13.552  -0.819  2.0398  1.4733  0.9526
  443MOL0     H61109   6.048  13.503  -0.707  0.4631  0.3603  1.4464
  443MOL0     H61110   5.859  13.482  -0.526  1.3692  0.3452  0.3112
  443MOL0     H61111   5.763  13.581  -0.645 -0.3609 -0.9516  0.8882
  443MOL0     H61112   5.870  13.721  -0.475  0.8148  0.2561  0.5627
  443MOL0     H61113   5.923  13.765  -0.639 -2.1317  0.1611 -0.1515
  443MOL0     H61114   5.820  12.717  -0.968 -0.8306  1.3983 -0.9551
  443MOL0     H61115   5.834  12.468  -0.929  2.0859  2.4162 -0.3807
  443MOL0     H61116   5.664  12.105  -0.892 -1.6357 -0.1181 -0.1455
  443MOL0     H61117   5.626  11.861  -0.901  2.0125  0.1592 -0.1298
  443MOL0     H61118   4.538  10.660  -0.076 -0.6621 -0.1673  1.6942
  443MOL0     H61119   4.349  10.530   0.051  0.2060 -0.5589  2.1532
  443MOL0     H61120   4.110  10.270   0.199 -0.3143  0.2992  0.5636
  443MOL0     H61121   3.926  10.156   0.290 -0.4392 -0.1067  0.7217
  443MOL0     H61122   3.919   9.725   0.260  4.2059 -3.3179  1.0732
  443MOL0     H61123   3.989   9.719   0.420  0.7118  1.1742 -0.6423
  443MOL0     H61124   3.761   9.618   0.406 -0.3725 -0.8062  1.2616
  443MOL0     H61125   3.687   9.766   0.367  0.7865 -2.1118  0.2644
  443MOL0     H61126   3.856   9.719   0.621  0.1190  0.9153 -0.2388
  443MOL0     H61127   3.780   9.871   0.573 -1.0180 -0.4362  2.2214
  443MOL0     H61128   3.556   9.792   0.599  0.6398  1.1816  3.4873
  443MOL0     H61129   3.646   9.768   0.743  0.1668  1.0013 -0.2908
  443MOL0     H61130   3.523   9.377   0.623  1.6332 -0.5217 -2.2458
  443MOL0     H61131   4.163   9.796   0.318  2.0793 -0.1103 -1.8434
  443MOL0     H61132   4.360   9.784   0.173  0.7044  0.1577 -0.0431
  443MOL0     H61133   4.428   9.935   0.101 -1.2506  1.4912  0.4067
  443MOL0     H61134   4.458   9.886   0.273  0.1547 -0.7223 -0.3387
  444MOL0     O61135   3.678   7.726   7.672  0.7615 -0.3253 -0.1203
  444MOL0     C61136   3.597   7.631   7.668 -0.2539 -0.2393 -0.3538
  444MOL0     O61137   3.619   7.503   7.705  0.1916 -0.0201  0.5793
  444MOL0     C61138   3.737   7.472   7.768  0.9265 -0.2661 -0.2593
  444MOL0     C61139   3.857   7.491   7.697  0.7162 -0.0862  0.4643
  444MOL0     C61140   3.979   7.473   7.770  0.2137  0.7576  0.1715
  444MOL0     C61141   3.981   7.427   7.902 -0.3538 -0.8481  0.4342
  444MOL0     O61142   4.110   7.390   7.955 -0.2372  0.4246  0.2484
  444MOL0     C61143   4.119   7.264   8.016 -0.1049 -0.1409  0.2234
  444MOL0     C61144   4.243   7.246   8.103 -0.2761 -0.2175  0.3381
  444MOL0     C61145   4.367   7.213   8.017 -0.4292  1.2795 -0.0807
  444MOL0     C61146   4.476   7.176   8.121  0.1820 -0.3122 -0.1531
  444MOL0     C61147   4.591   7.123   8.046 -0.2772 -0.5258  0.0487
  444MOL0     C61148   4.710   7.123   8.152  0.6606 -0.5910  0.3191
  444MOL0     C61149   4.823   7.022   8.120  0.4808  0.1896 -0.3085
  444MOL0     C61150   4.925   7.084   8.021 -0.7128 -0.7272 -0.1256
  444MOL0     N61151   5.044   7.007   8.005 -0.4789  0.2884  0.1106
  444MOL0     C61152   5.071   6.875   8.048  0.0969 -0.6486 -0.1536
  444MOL0     C61153   5.174   6.831   7.970 -0.1846  0.0119 -0.2867
  444MOL0     C61154   5.233   6.697   7.981 -0.0488 -0.2760  0.3209
  444MOL0     C61155   5.374   6.695   8.053  0.3585  0.5688 -0.4245
  444MOL0     C61156   5.486   6.782   7.999 -0.7329  0.8310  0.1926
  444MOL0     C61157   5.538   6.767   7.857 -0.6883  0.6797  0.1548
  444MOL0     O61158   5.636   6.860   7.820 -0.6626 -1.2395 -0.1358
  444MOL0     C61159   5.713   6.823   7.721  0.4915 -0.1072 -0.0132
  444MOL0     C61160   5.653   6.785   7.600  0.0203  0.1005 -0.3495
  444MOL0     C61161   5.719   6.760   7.483 -0.4373  0.0322  1.0262
  444MOL0     C61162   5.638   6.745   7.356  0.8491  0.1916  1.2842
  444MOL0     C61163   5.861   6.759   7.487  0.5392 -0.0623 -0.3522
  444MOL0     C61164   5.942   6.724   7.358 -0.2186  0.6594 -0.8710
  444MOL0     O61165   6.077   6.743   7.375 -0.7185 -0.0335 -1.0256
  444MOL0     C61166   6.169   6.707   7.274 -0.5446 -1.0753  0.3672
  444MOL0     C61167   6.149   6.641   7.155  0.1296  0.5308  0.8768
  444MOL0     C61168   6.265   6.624   7.068 -0.4550  0.0132  0.2189
  444MOL0     C61169   6.393   6.669   7.104  0.1462  0.2551  0.5511
  444MOL0     O61170   6.488   6.652   7.012  1.0353 -0.3502 -0.5477
  444MOL0     C61171   6.621   6.663   7.051 -0.1054 -0.7033  0.0187
  444MOL0     C61172   6.705   6.584   6.952  0.1175 -0.2578 -0.5062
  444MOL0     C61173   6.847   6.559   7.004  0.0771 -0.1283  0.9533
  444MOL0     C61174   6.938   6.521   6.888 -0.0675  0.6962 -0.7261
  444MOL0     C61175   7.075   6.481   6.940 -0.2268 -0.8068  0.0259
  444MOL0     C61176   7.177   6.473   6.818 -0.1157 -1.1076  0.8627
  444MOL0     C61177   7.324   6.468   6.862  0.4418  0.6165 -0.8050
  444MOL0     C61178   7.358   6.331   6.921 -0.8472  0.3541 -0.1769
  444MOL0    Cl61179   7.317   6.320   7.095  0.2476 -0.2635 -0.1824
  444MOL0     C61180   6.406   6.740   7.223 -0.3181  0.2841  0.3985
  444MOL0     C61181   6.300   6.748   7.310  0.6616 -0.5174  0.3585
  444MOL0     O61182   5.888   6.693   7.254  0.0707 -0.1146  0.3274
  444MOL0     C61183   5.925   6.796   7.609 -0.2994  0.6974 -0.1310
  444MOL0     C61184   5.849   6.828   7.726 -0.0508 -0.5249  0.6765
  444MOL0     N61185   5.219   6.936   7.897  0.6163 -0.4326  0.2985
  444MOL0     N61186   5.147   7.042   7.926 -0.0690 -0.5064 -0.1374
  444MOL0     C61187   3.860   7.394   7.963  0.8844  0.1340 -0.1824
  444MOL0     C61188   3.743   7.413   7.899  0.4094 -0.3382  1.0903
  444MOL0     C61189   3.466   7.653   7.592 -0.7044  0.8080 -0.3710
  444MOL0     C61190   3.356   7.593   7.648 -0.4150 -0.5084  0.1404
  444MOL0     C61191   3.231   7.617   7.597  0.2035 -0.7666 -0.3323
  444MOL0     C61192   3.211   7.698   7.491  0.2571 -1.1983  0.1695
  444MOL0     O61193   3.083   7.719   7.430 -0.2400 -0.2099  0.4802
  444MOL0     C61194   2.972   7.747   7.518  0.3903 -0.4249 -0.0979
  444MOL0     C61195   2.886   7.857   7.464  0.8052  0.9069 -0.1418
  444MOL0     C61196   2.940   7.998   7.484  0.1108  0.5830  0.4642
  444MOL0     C61197   2.863   8.077   7.599 -0.4080  0.1966 -0.0477
  444MOL0     C61198   2.722   8.106   7.562 -0.2426  0.5714 -0.3298
  444MOL0     C61199   2.609   8.138   7.526  0.0783  0.1687 -0.2916
  444MOL0     C61200   3.326   7.768   7.434 -0.7688  0.9018 -0.5724
  444MOL0     C61201   3.454   7.724   7.479 -0.3140 -0.0459 -0.2166
  444MOL0     C61202   3.569   7.758   7.393  0.1597  0.3815  0.7448
  444MOL0     H61203   3.858   7.535   7.598 -0.0099  1.0467  0.9345
  444MOL0     H61204   4.072   7.495   7.720 -1.0403 -0.4877 -3.0242
  444MOL0     H61205   4.113   7.196   7.931 -2.3975  1.7110 -1.1978
  444MOL0     H61206   4.029   7.252   8.078 -0.3958  1.0446  0.0425
  444MOL0     H61207   4.261   7.329   8.171 -0.6714 -0.6603  0.9859
  444MOL0     H61208   4.222   7.157   8.162  1.3290  0.1375  1.4922
  444MOL0     H61209   4.342   7.131   7.950  1.7979  1.2137 -0.9065
  444MOL0     H61210   4.402   7.305   7.969  1.8633  1.5303  1.8983
  444MOL0     H61211   4.508   7.266   8.174 -1.1162 -0.5193  1.0200
  444MOL0     H61212   4.445   7.102   8.196  1.4362 -1.9974 -1.2035
  444MOL0     H61213   4.613   7.179   7.955  0.2413  0.9350  1.0274
  444MOL0     H61214   4.570   7.019   8.018 -1.4027 -0.2845 -0.0371
  444MOL0     H61215   4.756   7.222   8.148 -1.1362  0.5120  3.5038
  444MOL0     H61216   4.676   7.112   8.255 -1.2404  0.3653 -0.1631
  444MOL0     H61217   4.783   6.931   8.074  2.1979 -1.6711  1.5918
  444MOL0     H61218   4.867   6.988   8.215 -3.3897 -0.8059  1.3280
  444MOL0     H61219   4.880   7.098   7.922  1.5629  1.0955 -0.9915
  444MOL0     H61220   4.951   7.185   8.053 -0.3946 -1.1505  0.9948
  444MOL0     H61221   5.020   6.819   8.126  3.0994 -0.4536  2.1194
  444MOL0     H61222   5.236   6.669   7.875  0.8119  0.0143  0.2576
  444MOL0     H61223   5.174   6.622   8.035  0.6888 -1.0748  0.0357
  444MOL0     H61224   5.353   6.720   8.158  1.2730  1.0505 -0.3384
  444MOL0     H61225   5.402   6.590   8.041 -0.2138  0.3921 -0.2208
  444MOL0     H61226   5.451   6.886   7.992 -2.1199  0.4320  0.8062
  444MOL0     H61227   5.573   6.761   8.062  0.4262  0.5123 -1.4587
  444MOL0     H61228   5.575   6.665   7.849 -2.1414  0.1209  0.3134
  444MOL0     H61229   5.447   6.783   7.797 -0.5118  0.5437 -0.1494
  444MOL0     H61230   5.545   6.793   7.592 -0.2175  0.7647  2.4105
  444MOL0     H61231   5.658   6.654   7.300 -1.1163 -0.2062  1.1606
  444MOL0     H61232   5.673   6.814   7.279 -1.4856 -0.0861 -0.1104
  444MOL0     H61233   5.532   6.763   7.375  0.4259  0.2060 -0.8509
  444MOL0     H61234   6.058   6.598   7.113  1.8177 -1.1993 -1.2816
  444MOL0     H61235   6.264   6.584   6.967  3.4415  1.2331 -0.4739
  444MOL0     H61236   6.656   6.767   7.057  0.9793 -1.1111  1.0755
  444MOL0     H61237   6.637   6.617   7.149 -1.4394  0.1805  0.6842
  444MOL0     H61238   6.643   6.496   6.934 -0.1447 -0.4757  1.2887
  444MOL0     H61239   6.718   6.630   6.853  3.1126  2.9791  1.1432
  444MOL0     H61240   6.851   6.471   7.069  0.3268 -2.1780 -1.6585
  444MOL0     H61241   6.882   6.643   7.066 -1.7896 -0.2647  2.2897
  444MOL0     H61242   6.945   6.604   6.818  0.1192  1.3158  0.0164
  444MOL0     H61243   6.896   6.431   6.843 -0.4866 -1.3774  3.3155
  444MOL0     H61244   7.110   6.562   7.004  1.2379 -2.1155  0.9621
  444MOL0     H61245   7.060   6.389   6.998 -1.8713  0.1750  1.2320
  444MOL0     H61246   7.151   6.561   6.758 -0.2945 -2.7047 -1.5341
  444MOL0     H61247   7.140   6.383   6.768  1.4579 -0.9907 -0.5855
  444MOL0     H61248   7.364   6.540   6.935  2.6626 -1.2861  0.0168
  444MOL0     H61249   7.370   6.473   6.763  1.9507 -1.3251 -0.2839
  444MOL0     H61250   7.465   6.315   6.900 -0.9171 -2.9033  1.4340
  444MOL0     H61251   7.316   6.243   6.873 -2.5861 -0.0997  2.0391
  444MOL0     H61252   6.502   6.774   7.259  0.0802 -0.7105  0.3111
  444MOL0     H61253   6.323   6.799   7.402  1.7403 -0.2915 -0.0262
  444MOL0     H61254   6.033   6.798   7.617 -0.2958 -2.0046  2.2896
  444MOL0     H61255   5.894   6.864   7.818 -0.3817  2.3607 -0.1762
  444MOL0     H61256   3.848   7.359   8.066 -0.1828  3.6086  1.0096
  444MOL0     H61257   3.649   7.382   7.943  0.8227 -1.3663  1.2710
  444MOL0     H61258   3.358   7.538   7.741 -0.2900  1.4609  1.3772
  444MOL0     H61259   3.152   7.560   7.644 -0.7094 -0.8195 -1.8392
  444MOL0     H61260   2.909   7.657   7.525 -1.7596  1.0844  0.8971
  444MOL0     H61261   3.002   7.765   7.622  0.7609 -0.0220 -0.2757
  444MOL0     H61262   2.781   7.851   7.495  0.1249 -0.5503 -2.4954
  444MOL0     H61263   2.870   7.832   7.359 -1.4227 -2.9646  0.9126
  444MOL0     H61264   3.045   7.999   7.513  0.4627  2.5021 -0.7037
  444MOL0     H61265   2.931   8.061   7.394  1.1892  0.3948  0.2070
  444MOL0     H61266   2.915   8.167   7.634 -0.3847  0.3941 -0.5745
  444MOL0     H61267   2.869   8.011   7.686 -1.4130  0.3394  0.1468
  444MOL0     H61268   2.509   8.167   7.502  0.1585  0.2975 -0.4699
  444MOL0     H61269   3.317   7.839   7.353  0.9873  0.8708 -0.8455
  444MOL0     H61270   3.566   7.710   7.295  0.8409  1.8748 -0.0454
  444MOL0     H61271   3.561   7.866   7.377 -0.6462  0.2028 -0.1451
  444MOL0     H61272   3.664   7.736   7.443  0.4760  0.1467  0.0406
  445MOL0     O61273   8.905   5.836   0.659 -1.2023 -0.3334 -0.6515
  445MOL0     C61274   8.878   5.727   0.715  0.4496  0.2428 -0.0330
  445MOL0     O61275   8.966   5.626   0.736  0.2143 -0.1834 -0.5775
  445MOL0     C61276   9.097   5.640   0.709  0.2798  0.8834 -1.1520
  445MOL0     C61277   9.150   5.625   0.587  0.1452 -0.3134  0.6411
  445MOL0     C61278   9.283   5.657   0.557 -0.1253  0.2786  1.2257
  445MOL0     C61279   9.370   5.699   0.662 -0.0269 -0.7889  0.4406
  445MOL0     O61280   9.497   5.723   0.625  0.1331 -0.9022  0.3068
  445MOL0     C61281   9.590   5.729   0.731 -0.7467  0.0564  0.1780
  445MOL0     C61282   9.730   5.726   0.670 -0.2010  0.1541  0.0478
  445MOL0     C61283   9.762   5.600   0.588  0.7978 -0.3811 -0.0794
  445MOL0     C61284   9.900   5.610   0.522 -0.4298  0.0889 -0.0121
  445MOL0     C61285   9.937   5.485   0.443  0.5837 -0.3916  0.5064
  445MOL0     C61286   9.983   5.372   0.544  0.6118 -0.0643  0.3626
  445MOL0     C61287  10.019   5.242   0.472 -0.8334 -0.7087 -0.3464
  445MOL0     C61288  10.160   5.245   0.411  0.5633 -0.2029 -0.3354
  445MOL0     N61289  10.252   5.226   0.525  0.5611 -0.4813  0.4093
  445MOL0     C61290  10.357   5.303   0.556 -0.0683 -0.2354  1.1362
  445MOL0     C61291  10.430   5.222   0.633  0.4745  0.2404 -0.5917
  445MOL0     C61292  10.567   5.250   0.691 -0.1429  0.0998 -0.9251
  445MOL0     C61293  10.666   5.137   0.638 -0.5683  0.5541 -0.3941
  445MOL0     C61294  10.803   5.168   0.685  0.6680  0.1386  1.0096
  445MOL0     C61295  10.904   5.059   0.663  0.7330  1.4886  0.0876
  445MOL0     O61296  11.025   5.088   0.733  0.5381 -0.0100  0.2881
  445MOL0     C61297  11.133   5.013   0.705 -0.3203 -0.6659  0.3340
  445MOL0     C61298  11.140   4.895   0.631  0.1579 -0.1619  0.6162
  445MOL0     C61299  11.254   4.829   0.590 -0.2748 -0.1358 -0.6880
  445MOL0     C61300  11.232   4.722   0.485  0.1916  0.0945 -0.1256
  445MOL0     C61301  11.378   4.869   0.657 -0.3356  0.5506  0.6393
  445MOL0     C61302  11.511   4.801   0.653  0.2899 -0.2540 -0.5267
  445MOL0     O61303  11.627   4.873   0.696  0.2174 -0.3715 -0.6584
  445MOL0     C61304  11.747   4.806   0.684 -0.0417  0.3534  0.2361
  445MOL0     C61305  11.865   4.847   0.618  0.1938 -0.3214  0.6844
  445MOL0     C61306  11.985   4.784   0.626  0.3059 -0.0765 -0.4243
  445MOL0     C61307  11.995   4.680   0.718  0.1452  0.0129 -0.8821
  445MOL0     O61308  12.101   4.605   0.735 -0.2493  0.2408  0.2234
  445MOL0     C61309  12.224   4.638   0.674  0.1686  1.0097 -0.4682
  445MOL0     C61310  12.301   4.768   0.719 -0.5598 -0.8672 -0.2116
  445MOL0     C61311  12.443   4.767   0.655 -0.7930  0.1437 -0.8492
  445MOL0     C61312  12.527   4.874   0.727  0.8116  0.2905 -0.1326
  445MOL0     C61313  12.674   4.888   0.670  0.2783  0.1819  0.4913
  445MOL0     C61314  12.768   4.793   0.734 -0.3968 -0.5260 -0.6613
  445MOL0     C61315  12.911   4.788   0.669  0.2778 -0.5575 -0.6547
  445MOL0     C61316  12.940   4.672   0.569  0.0033 -0.0517  0.2895
  445MOL0    Cl61317  12.932   4.518   0.656  0.1027 -0.0133  0.2117
  445MOL0     C61318  11.893   4.642   0.802  0.3030 -0.5061 -0.1130
  445MOL0     C61319  11.766   4.704   0.782 -0.3845 -0.3872 -0.2839
  445MOL0     O61320  11.513   4.684   0.612  0.0667 -0.1205  0.2263
  445MOL0     C61321  11.373   4.988   0.738 -0.2497  0.8169 -0.5702
  445MOL0     C61322  11.252   5.060   0.758  0.1153  0.4973  0.2966
  445MOL0     N61323  10.368   5.101   0.655  0.0365 -1.1400  0.2058
  445MOL0     N61324  10.258   5.104   0.583 -0.1611 -0.7622  0.6259
  445MOL0     C61325   9.316   5.714   0.792  0.7996  0.4761 -0.7992
  445MOL0     C61326   9.183   5.686   0.815  0.5084  0.4570  0.0981
  445MOL0     C61327   8.733   5.703   0.758  0.0633  0.2144  0.3112
  445MOL0     C61328   8.702   5.571   0.802 -0.6610  0.4833  0.4752
  445MOL0     C61329   8.581   5.541   0.848  0.8849 -0.3137  0.4659
  445MOL0     C61330   8.475   5.627   0.821  0.1369  0.3430 -0.1141
  445MOL0     O61331   8.340   5.589   0.831 -0.7575 -0.4769 -0.4170
  445MOL0     C61332   8.306   5.470   0.904  0.9985 -0.0885 -0.2011
  445MOL0     C61333   8.158   5.487   0.940  0.0387 -0.2930 -0.4207
  445MOL0     C61334   8.106   5.383   1.036  0.4756  0.5316  0.8954
  445MOL0     C61335   8.120   5.236   0.987 -0.0370  0.6433  0.6414
  445MOL0     C61336   7.994   5.203   0.916 -0.2547  0.3808 -0.4651
  445MOL0     C61337   7.889   5.170   0.857  0.1142  0.3222 -0.2679
  445MOL0     C61338   8.498   5.749   0.760  0.2108 -0.3571  0.3917
  445MOL0     C61339   8.626   5.794   0.741 -0.0863 -0.3710 -1.1935
  445MOL0     C61340   8.648   5.932   0.706  0.4639 -0.5839 -0.1357
  445MOL0     H61341   9.084   5.571   0.521 -0.2421  0.2244  0.5846
  445MOL0     H61342   9.321   5.661   0.456 -2.0018  1.4649  0.5309
  445MOL0     H61343   9.579   5.635   0.787 -3.3591 -1.0953 -1.9946
  445MOL0     H61344   9.581   5.818   0.794  1.2862  0.1824  0.3537
  445MOL0     H61345   9.736   5.813   0.604 -1.0584  0.4344  0.3200
  445MOL0     H61346   9.811   5.748   0.741 -0.1158 -2.8481  0.9866
  445MOL0     H61347   9.757   5.507   0.646  0.2433 -0.5672 -0.4092
  445MOL0     H61348   9.702   5.603   0.496  2.6733 -0.2695 -1.3548
  445MOL0     H61349   9.899   5.689   0.447  0.1664  1.2483  1.1586
  445MOL0     H61350   9.975   5.630   0.600 -0.5426 -0.6275  0.2912
  445MOL0     H61351  10.007   5.508   0.362 -1.4758 -0.4133 -1.3603
  445MOL0     H61352   9.849   5.450   0.389  0.8305  0.2916 -0.3526
  445MOL0     H61353  10.074   5.407   0.593 -0.6270  2.6021  0.9903
  445MOL0     H61354   9.899   5.357   0.613 -3.0139 -1.7844 -3.9523
  445MOL0     H61355   9.953   5.214   0.389  0.5536 -0.6313 -1.5179
  445MOL0     H61356  10.021   5.154   0.537 -1.9956 -0.4904  0.0105
  445MOL0     H61357  10.170   5.163   0.339 -1.7116  1.1632 -2.3755
  445MOL0     H61358  10.171   5.334   0.347  0.8909  0.9478  1.2677
  445MOL0     H61359  10.379   5.405   0.526 -0.0028 -0.8087 -0.8729
  445MOL0     H61360  10.555   5.267   0.798  2.1445  0.9231 -0.7337
  445MOL0     H61361  10.601   5.337   0.633  1.0587  0.4538  0.2803
  445MOL0     H61362  10.647   5.039   0.683  1.7426  0.2496  0.0411
  445MOL0     H61363  10.667   5.141   0.529  3.6356  0.1267 -0.5235
  445MOL0     H61364  10.834   5.254   0.624  0.7188  0.8518  2.0162
  445MOL0     H61365  10.806   5.190   0.792  0.7056 -1.2607  1.3121
  445MOL0     H61366  10.856   4.965   0.693 -1.1069  2.1873 -0.5255
  445MOL0     H61367  10.916   5.051   0.555  1.0675 -3.7038  0.2416
  445MOL0     H61368  11.050   4.854   0.588  1.7935 -4.7801  1.0310
  445MOL0     H61369  11.316   4.665   0.446 -0.3297 -0.2008 -0.8505
  445MOL0     H61370  11.181   4.769   0.400  0.4180  3.3602  1.3844
  445MOL0     H61371  11.157   4.649   0.515 -1.1555 -0.1953 -3.6516
  445MOL0     H61372  11.850   4.934   0.556 -2.1346 -1.5332 -0.5723
  445MOL0     H61373  12.071   4.817   0.569  0.2877 -2.9996 -2.3677
  445MOL0     H61374  12.287   4.557   0.711 -0.7889  1.1795  1.7398
  445MOL0     H61375  12.222   4.623   0.566  2.5757  0.8063 -0.5464
  445MOL0     H61376  12.256   4.866   0.700  0.1085  0.5340  4.3356
  445MOL0     H61377  12.318   4.758   0.826  2.0724 -0.9691 -0.5582
  445MOL0     H61378  12.444   4.789   0.547  6.6285 -0.4957 -1.4351
  445MOL0     H61379  12.498   4.673   0.666  1.1337  1.2835 -0.2217
  445MOL0     H61380  12.531   4.839   0.831  2.8793 -1.3648 -0.6889
  445MOL0     H61381  12.470   4.967   0.725 -2.6272 -1.6265 -3.2884
  445MOL0     H61382  12.665   4.881   0.562  0.2170  1.1525  0.4172
  445MOL0     H61383  12.706   4.991   0.687  0.0226  0.5111 -0.9177
  445MOL0     H61384  12.723   4.693   0.731 -0.3672 -0.5515 -0.2694
  445MOL0     H61385  12.781   4.818   0.840  2.2182  2.1837 -1.4849
  445MOL0     H61386  12.982   4.775   0.751 -1.7229 -1.6061  1.0061
  445MOL0     H61387  12.926   4.884   0.617 -0.8891 -0.0071 -0.0025
  445MOL0     H61388  13.038   4.692   0.525 -0.9742  2.2166 -1.0353
  445MOL0     H61389  12.861   4.676   0.494  1.0766  0.5456 -0.8477
  445MOL0     H61390  11.906   4.563   0.874 -0.0794 -0.9796 -0.5539
  445MOL0     H61391  11.678   4.680   0.840 -0.1618 -0.7295 -0.0784
  445MOL0     H61392  11.469   5.016   0.779  1.7215 -0.8082 -3.6850
  445MOL0     H61393  11.244   5.153   0.814  1.5193  1.0969 -0.4419
  445MOL0     H61394   9.385   5.741   0.871  0.6606 -0.1174 -0.4662
  445MOL0     H61395   9.136   5.706   0.910 -0.8822  2.1999 -0.9105
  445MOL0     H61396   8.770   5.487   0.809 -0.8442 -0.0908 -2.8922
  445MOL0     H61397   8.560   5.444   0.891 -1.7734  1.2738  3.1280
  445MOL0     H61398   8.313   5.380   0.843 -1.5568 -1.1214  0.8954
  445MOL0     H61399   8.366   5.468   0.995  0.5195  1.3444  0.1846
  445MOL0     H61400   8.093   5.493   0.852  0.0694 -0.1830 -0.4357
  445MOL0     H61401   8.152   5.583   0.993 -1.3608 -2.6553  4.3049
  445MOL0     H61402   8.161   5.402   1.129 -0.5912  3.4752  1.0317
  445MOL0     H61403   8.001   5.399   1.060 -0.1944 -0.8066 -0.9250
  445MOL0     H61404   8.131   5.170   1.073 -3.7139  1.1423  1.6814
  445MOL0     H61405   8.206   5.214   0.923 -1.6536  1.7210 -2.0549
  445MOL0     H61406   7.799   5.152   0.802 -0.4504 -0.7344  0.9479
  445MOL0     H61407   8.408   5.804   0.732 -0.4860 -2.4806 -1.9986
  445MOL0     H61408   8.562   5.993   0.735  1.1967  1.4305 -1.9357
  445MOL0     H61409   8.736   5.964   0.763 -0.3093 -1.4552  1.6480
  445MOL0     H61410   8.672   5.946   0.601  3.2457 -0.0580  0.4780
  446MOL0     O61411   2.952  10.120   9.074  0.4512  0.1255 -0.1232
  446MOL0     C61412   2.914  10.038   8.993  0.2872 -1.1056  0.0305
  446MOL0     O61413   2.991   9.980   8.904  0.1070  0.1536  0.3608
  446MOL0     C61414   3.128   9.970   8.916 -0.9756 -0.1648 -0.3604
  446MOL0     C61415   3.209  10.001   8.804 -0.0489  0.7206 -0.8945
  446MOL0     C61416   3.347   9.995   8.808 -0.1321 -0.6421  0.8521
  446MOL0     C61417   3.416   9.963   8.930  0.8565 -0.3576  0.3317
  446MOL0     O61418   3.548   9.959   8.920  0.6539  0.1092 -0.1813
  446MOL0     C61419   3.629   9.904   9.023 -0.2925 -1.0309 -0.7175
  446MOL0     C61420   3.763   9.853   8.964 -0.0380  0.9068 -0.2078
  446MOL0     C61421   3.876   9.955   8.924  0.8870 -0.1490  0.5148
  446MOL0     C61422   4.018   9.895   8.904 -0.1185 -0.0525 -0.3440
  446MOL0     C61423   4.109   9.994   8.844 -0.6277 -0.1980  0.2954
  446MOL0     C61424   4.259   9.942   8.847 -0.2518 -0.3409  0.4831
  446MOL0     C61425   4.365  10.026   8.774  0.4242  0.8097  0.0271
  446MOL0     C61426   4.415  10.124   8.876  0.4856 -0.3035  1.3166
  446MOL0     N61427   4.541  10.187   8.827  0.1672  0.2004 -0.4144
  446MOL0     C61428   4.560  10.321   8.790  0.1836 -0.1882 -0.2219
  446MOL0     C61429   4.694  10.341   8.771  0.1954  0.7378 -0.0944
  446MOL0     C61430   4.766  10.470   8.757 -0.4442  0.1318 -0.7256
  446MOL0     C61431   4.739  10.538   8.619  0.7175 -0.6000 -0.4639
  446MOL0     C61432   4.819  10.666   8.588 -0.5022  0.1918  0.9481
  446MOL0     C61433   4.763  10.738   8.464 -0.1624 -0.4514 -0.2494
  446MOL0     O61434   4.644  10.809   8.489  0.1344 -1.0799 -0.9994
  446MOL0     C61435   4.606  10.906   8.403  0.0737 -0.1335  0.4687
  446MOL0     C61436   4.649  10.936   8.279  0.1119 -0.3124  0.4670
  446MOL0     C61437   4.596  11.032   8.199  0.7794 -0.6044 -0.0066
  446MOL0     C61438   4.679  11.049   8.066 -0.2395 -0.4287  0.4605
  446MOL0     C61439   4.490  11.113   8.246 -0.1110 -1.2989 -0.3888
  446MOL0     C61440   4.430  11.228   8.168 -0.8030  0.1434 -0.7827
  446MOL0     O61441   4.446  11.228   8.040 -0.2257  0.2132  0.5674
  446MOL0     C61442   4.417  11.347   7.975  0.4122  0.0638  0.0076
  446MOL0     C61443   4.498  11.460   7.990 -0.7087  0.3840 -0.3351
  446MOL0     C61444   4.465  11.583   7.947  0.4856  0.6734 -0.1574
  446MOL0     C61445   4.345  11.601   7.884 -0.3789  1.5693  0.3699
  446MOL0     O61446   4.317  11.723   7.822 -0.3155 -0.2682  0.1097
  446MOL0     C61447   4.180  11.751   7.826 -0.2643 -0.2103 -0.0778
  446MOL0     C61448   4.149  11.895   7.793  1.3640  0.0683 -0.5721
  446MOL0     C61449   4.010  11.944   7.847 -1.4735  0.5988  0.8643
  446MOL0     C61450   3.891  11.861   7.794 -0.2878 -0.4545  0.2135
  446MOL0     C61451   3.760  11.916   7.852  0.6212  0.4506 -0.0635
  446MOL0     C61452   3.738  11.901   7.995  0.7424 -0.0100  0.4195
  446MOL0     C61453   3.600  11.941   8.057 -0.5739  0.9606  0.1636
  446MOL0     C61454   3.550  12.082   8.018  0.0010 -0.8790 -0.1306
  446MOL0    Cl61455   3.383  12.119   8.079  0.2550 -0.2929  0.5722
  446MOL0     C61456   4.260  11.490   7.858  1.2462 -0.1123 -1.1360
  446MOL0     C61457   4.295  11.362   7.914  0.1859  0.8236  0.9601
  446MOL0     O61458   4.374  11.320   8.225 -0.1119  0.7146 -0.2034
  446MOL0     C61459   4.439  11.084   8.370 -1.3332  0.1664  0.8063
  446MOL0     C61460   4.493  10.976   8.446  0.3226 -0.7068  0.1654
  446MOL0     N61461   4.749  10.219   8.813 -0.0525 -0.3699  0.7428
  446MOL0     N61462   4.660  10.128   8.843 -0.3786 -0.0845  0.1029
  446MOL0     C61463   3.335   9.941   9.045  0.2861  1.4260  0.3352
  446MOL0     C61464   3.194   9.935   9.032 -0.5475  0.7744 -0.0592
  446MOL0     C61465   2.764  10.014   8.999 -0.3954  0.1230  0.5595
  446MOL0     C61466   2.696   9.969   8.882 -1.1260  0.2190 -0.2999
  446MOL0     C61467   2.560   9.935   8.879  0.1239 -0.3762  0.2091
  446MOL0     C61468   2.485   9.948   8.993  0.2563 -0.1681  0.6076
  446MOL0     O61469   2.346   9.924   8.984  0.0747  0.1260  0.5092
  446MOL0     C61470   2.259   9.937   9.101 -0.5730  0.7016  0.1003
  446MOL0     C61471   2.111   9.928   9.077 -0.1385  0.0850  0.9970
  446MOL0     C61472   2.070   9.786   9.018  0.1371 -0.1557  0.2691
  446MOL0     C61473   1.922   9.769   9.007 -0.3110 -0.0668 -0.4632
  446MOL0     C61474   1.851   9.761   9.130 -0.1000  1.0354 -0.8794
  446MOL0     C61475   1.781   9.769   9.232  0.5279  1.6385 -0.0946
  446MOL0     C61476   2.551   9.979   9.114  0.4828  0.0548 -0.3663
  446MOL0     C61477   2.684  10.015   9.118  0.8459 -0.4258 -0.5375
  446MOL0     C61478   2.736  10.054   9.256  0.1659 -1.1602  0.4993
  446MOL0     H61479   3.165  10.031   8.710 -1.2468  3.8214  0.5602
  446MOL0     H61480   3.411  10.006   8.721 -0.0298 -4.8244  0.1758
  446MOL0     H61481   3.583   9.821   9.076  1.7354 -2.4355 -1.0419
  446MOL0     H61482   3.658   9.972   9.104  0.7605 -3.5535  1.1552
  446MOL0     H61483   3.798   9.780   9.038 -0.8431 -1.0890 -1.6868
  446MOL0     H61484   3.750   9.790   8.875  1.4090  0.9627 -0.4892
  446MOL0     H61485   3.856  10.001   8.827 -0.0438  0.4658  0.9915
  446MOL0     H61486   3.886  10.034   8.999  2.1795  1.3509 -1.1355
  446MOL0     H61487   4.061   9.851   8.995  1.0152  0.7629 -0.4771
  446MOL0     H61488   4.011   9.817   8.828  4.2783 -0.5021 -0.5358
  446MOL0     H61489   4.117  10.083   8.907  0.1357 -1.1261  1.5715
  446MOL0     H61490   4.076  10.013   8.742 -0.2551 -0.2004  0.1706
  446MOL0     H61491   4.275   9.930   8.954  0.4083  0.6551  0.5137
  446MOL0     H61492   4.261   9.845   8.796  3.4981 -0.1805  0.0015
  446MOL0     H61493   4.322  10.068   8.682  1.2920  4.2139  1.0597
  446MOL0     H61494   4.449   9.962   8.745  0.8323 -0.1167  2.9325
  446MOL0     H61495   4.345  10.205   8.900  0.2640  0.4754 -1.5397
  446MOL0     H61496   4.444  10.073   8.968 -2.2850  1.8965  3.6061
  446MOL0     H61497   4.476  10.390   8.791 -0.7221 -0.9510 -4.0903
  446MOL0     H61498   4.873  10.461   8.778 -0.7493 -1.1882  0.3826
  446MOL0     H61499   4.729  10.537   8.835  3.2301  0.2625  1.1168
  446MOL0     H61500   4.773  10.466   8.544  1.7182 -0.4537 -0.1508
  446MOL0     H61501   4.634  10.569   8.606  1.5585  1.7375 -2.5496
  446MOL0     H61502   4.827  10.740   8.668 -1.2621  1.3790 -0.0435
  446MOL0     H61503   4.922  10.633   8.573 -1.4510 -2.2832 -0.9159
  446MOL0     H61504   4.829  10.818   8.430 -1.6905  0.7698 -0.4846
  446MOL0     H61505   4.748  10.664   8.385 -1.5738 -1.5530  0.9945
  446MOL0     H61506   4.725  10.866   8.245 -0.0441  0.3434 -1.3962
  446MOL0     H61507   4.669  11.148   8.021  0.5300  0.6190  2.4508
  446MOL0     H61508   4.656  10.968   7.996 -0.4388 -0.2636  0.3343
  446MOL0     H61509   4.788  11.043   8.078  0.0333 -1.4857 -1.9513
  446MOL0     H61510   4.592  11.454   8.045 -0.5390  3.9856 -0.0098
  446MOL0     H61511   4.524  11.674   7.955 -1.5621  2.0262  0.5265
  446MOL0     H61512   4.125  11.683   7.761  1.4565 -1.9598  0.1840
  446MOL0     H61513   4.147  11.725   7.927 -0.0625 -1.6088 -0.3404
  446MOL0     H61514   4.230  11.960   7.827  1.5848  1.6454 -3.7014
  446MOL0     H61515   4.143  11.897   7.683 -0.0983  0.2435 -0.5044
  446MOL0     H61516   4.001  12.052   7.831  0.5373  0.9304  1.6509
  446MOL0     H61517   4.022  11.935   7.956  2.9076 -0.3529  0.5274
  446MOL0     H61518   3.912  11.757   7.820 -0.9608 -0.8225 -0.6699
  446MOL0     H61519   3.884  11.862   7.685 -2.1008 -1.3643  0.2806
  446MOL0     H61520   3.743  12.020   7.820 -0.0537 -0.0071 -1.2771
  446MOL0     H61521   3.683  11.859   7.800  1.2319  0.5310 -1.0790
  446MOL0     H61522   3.811  11.965   8.047  0.7602 -0.7963  1.3806
  446MOL0     H61523   3.759  11.798   8.026  2.4714  0.8260  2.2883
  446MOL0     H61524   3.634  11.941   8.160  3.1679  1.0616 -0.9376
  446MOL0     H61525   3.536  11.855   8.034  1.4504 -0.8089  0.8311
  446MOL0     H61526   3.558  12.113   7.913  0.5957 -0.8510 -0.0826
  446MOL0     H61527   3.605  12.162   8.068 -0.3268 -0.4600 -0.4363
  446MOL0     H61528   4.162  11.503   7.813  0.8918  0.9771 -0.1093
  446MOL0     H61529   4.233  11.274   7.929  0.8767  0.5804  2.5682
  446MOL0     H61530   4.368  11.151   8.419  0.5499  0.6098  3.0965
  446MOL0     H61531   4.449  10.966   8.545  0.1999  3.2209  0.6623
  446MOL0     H61532   3.376   9.915   9.142 -0.4976 -2.2938 -0.1709
  446MOL0     H61533   3.130   9.910   9.116  1.6157 -1.0826  1.1598
  446MOL0     H61534   2.765   9.948   8.802 -0.2675 -0.4592  0.5996
  446MOL0     H61535   2.529   9.902   8.780  1.9765  1.0820 -0.9281
  446MOL0     H61536   2.282   9.868   9.183  0.4203 -1.4293 -1.8536
  446MOL0     H61537   2.277  10.040   9.135 -1.1149  0.9585 -0.3683
  446MOL0     H61538   2.085  10.012   9.012 -0.7154 -1.4204 -0.8268
  446MOL0     H61539   2.066   9.931   9.177 -1.5049 -1.9852  0.4938
  446MOL0     H61540   2.106   9.772   8.916  2.8601 -0.9146  1.2530
  446MOL0     H61541   2.103   9.702   9.079 -0.8168 -1.7050 -1.2540
  446MOL0     H61542   1.912   9.676   8.949  1.5920 -0.7660  0.2432
  446MOL0     H61543   1.867   9.850   8.959 -2.8201 -2.5403 -2.0732
  446MOL0     H61544   1.718   9.758   9.318 -2.4487  0.2560 -2.2648
  446MOL0     H61545   2.488   9.978   9.203  0.7335 -0.1564 -0.1894
  446MOL0     H61546   2.658  10.074   9.330  3.1847  2.3660  3.0551
  446MOL0     H61547   2.798   9.968   9.282  2.6345  0.8921  1.7515
  446MOL0     H61548   2.799  10.143   9.258 -0.3156 -0.8218  1.5583
  447MOL0     O61549   7.265   1.570   7.661  0.0276  0.2656 -0.1909
  447MOL0     C61550   7.315   1.458   7.660  0.2721  0.1016 -0.2979
  447MOL0     O61551   7.448   1.433   7.645  0.0899 -0.6296  0.1038
  447MOL0     C61552   7.537   1.529   7.686 -0.1379 -0.3823  0.0384
  447MOL0     C61553   7.666   1.518   7.634  0.0364  0.0519  1.2415
  447MOL0     C61554   7.769   1.606   7.677  0.0944 -0.3178 -0.1925
  447MOL0     C61555   7.740   1.696   7.774  0.0985  0.1159 -0.6608
  447MOL0     O61556   7.842   1.785   7.810  0.2094  0.4781  0.2161
  447MOL0     C61557   7.925   1.735   7.915 -0.4898 -0.2820 -0.0695
  447MOL0     C61558   8.073   1.759   7.887 -0.0250  0.2072  0.6012
  447MOL0     C61559   8.125   1.663   7.761 -0.5451 -0.2560  1.1577
  447MOL0     C61560   8.271   1.696   7.729 -0.4993 -0.0531 -0.1872
  447MOL0     C61561   8.332   1.603   7.627 -0.2181 -0.7374  0.4676
  447MOL0     C61562   8.479   1.653   7.625 -0.3864  0.1695  0.4743
  447MOL0     C61563   8.560   1.567   7.528  0.4098 -0.1851  0.1024
  447MOL0     C61564   8.712   1.560   7.577  0.0018 -0.5125 -0.3656
  447MOL0     N61565   8.798   1.676   7.548  0.2349 -0.1483 -0.5517
  447MOL0     C61566   8.834   1.777   7.638 -0.8558 -0.6054  0.4354
  447MOL0     C61567   8.915   1.861   7.573  1.2095  0.8459 -0.1229
  447MOL0     C61568   8.977   1.987   7.635 -0.3536  0.3162 -0.7520
  447MOL0     C61569   9.094   1.962   7.734  0.5174 -0.1887  0.3818
  447MOL0     C61570   9.225   1.922   7.664  0.0436 -0.4445 -0.4231
  447MOL0     C61571   9.319   1.895   7.778 -0.1806 -0.2720 -0.1520
  447MOL0     O61572   9.267   1.786   7.856 -0.7229 -0.2143 -0.4721
  447MOL0     C61573   9.371   1.729   7.930  0.2573  0.4393 -0.0054
  447MOL0     C61574   9.324   1.647   8.036 -0.2553 -0.0530  0.5012
  447MOL0     C61575   9.411   1.569   8.108 -0.5535  0.1206 -0.2355
  447MOL0     C61576   9.353   1.474   8.208  0.5147  0.1695  0.0348
  447MOL0     C61577   9.549   1.586   8.089 -0.1784 -0.9926 -0.4196
  447MOL0     C61578   9.659   1.509   8.164 -0.1944  0.2964  0.9994
  447MOL0     O61579   9.768   1.467   8.087 -0.9062 -0.0642 -0.0103
  447MOL0     C61580   9.875   1.407   8.151  0.0723  0.0116  0.4510
  447MOL0     C61581   9.963   1.470   8.236 -0.5793 -0.4314  0.8767
  447MOL0     C61582  10.060   1.400   8.313 -0.4455 -0.0382  0.6344
  447MOL0     C61583  10.065   1.254   8.298 -0.4003 -0.4768 -0.7521
  447MOL0     O61584  10.160   1.195   8.377 -0.4354 -0.5181 -0.2370
  447MOL0     C61585  10.191   1.060   8.354  0.4367 -0.0487 -0.1949
  447MOL0     C61586  10.271   1.002   8.472  0.1927 -0.6323  0.9702
  447MOL0     C61587  10.320   0.859   8.447  0.9913 -0.1328 -0.0853
  447MOL0     C61588  10.345   0.801   8.587  0.2309 -0.1589 -0.4934
  447MOL0     C61589  10.405   0.663   8.570 -0.8209  0.3762 -1.0668
  447MOL0     C61590  10.437   0.615   8.719  0.5414 -0.3705 -0.3478
  447MOL0     C61591  10.493   0.482   8.718  0.2427  0.0226  0.0324
  447MOL0     C61592  10.406   0.377   8.796  0.0125 -0.1135 -0.4167
  447MOL0    Cl61593  10.383   0.422   8.973 -0.1590  0.3747  0.0295
  447MOL0     C61594   9.985   1.192   8.202 -0.1516 -0.1135  0.4915
  447MOL0     C61595   9.897   1.269   8.126  0.3057  0.1084 -0.6345
  447MOL0     O61596   9.654   1.496   8.282  0.0648  0.3059 -0.0923
  447MOL0     C61597   9.598   1.668   7.985 -0.4538  0.1427 -0.7245
  447MOL0     C61598   9.510   1.739   7.907  0.1193  0.5877 -0.4426
  447MOL0     N61599   8.935   1.807   7.452  0.2449 -0.4395  0.8561
  447MOL0     N61600   8.870   1.695   7.434  0.1048 -1.3480  0.8797
  447MOL0     C61601   7.612   1.706   7.820  0.5761 -1.3890 -0.6157
  447MOL0     C61602   7.512   1.625   7.780  0.7199 -0.4411  0.0405
  447MOL0     C61603   7.232   1.339   7.665 -0.9344 -0.5347  0.2502
  447MOL0     C61604   7.293   1.217   7.612  0.7955 -0.0399 -0.9074
  447MOL0     C61605   7.214   1.099   7.604 -0.1815  0.2122  0.1463
  447MOL0     C61606   7.081   1.104   7.647 -0.6720 -0.4697  0.3187
  447MOL0     O61607   7.017   0.988   7.610 -0.5891 -0.2874 -0.9352
  447MOL0     C61608   6.878   0.972   7.637 -0.9005  0.2397  0.1350
  447MOL0     C61609   6.809   0.867   7.553 -0.3858  0.9345  0.3885
  447MOL0     C61610   6.660   0.888   7.551  0.4171 -0.3858  0.6253
  447MOL0     C61611   6.594   0.869   7.694  0.4066  0.0891  1.3591
  447MOL0     C61612   6.445   0.864   7.681  0.2834  0.0476 -0.5172
  447MOL0     C61613   6.339   0.857   7.622  0.5345 -0.3035  0.4268
  447MOL0     C61614   7.028   1.220   7.703  0.2017  0.0755  1.1545
  447MOL0     C61615   7.099   1.337   7.714 -0.0790  0.0924  0.2705
  447MOL0     C61616   7.030   1.447   7.798 -0.4041 -1.2713 -0.0474
  447MOL0     H61617   7.688   1.438   7.565 -0.0801 -0.7739  2.1411
  447MOL0     H61618   7.869   1.612   7.637  0.1282 -0.5900 -0.1490
  447MOL0     H61619   7.921   1.626   7.922  0.4115 -0.3895 -1.0196
  447MOL0     H61620   7.895   1.774   8.013  0.0244 -1.8379  0.7426
  447MOL0     H61621   8.090   1.863   7.861  0.7179 -0.4419 -1.7332
  447MOL0     H61622   8.128   1.725   7.976  1.4704  1.6639  0.2769
  447MOL0     H61623   8.116   1.555   7.776 -0.8645 -0.1257  1.9468
  447MOL0     H61624   8.068   1.679   7.669 -2.8570 -1.5889  2.2539
  447MOL0     H61625   8.287   1.801   7.702 -1.2282  0.3401  0.8322
  447MOL0     H61626   8.323   1.687   7.825  1.0814  3.0447 -0.6121
  447MOL0     H61627   8.280   1.614   7.532  0.0553  2.3852  0.5796
  447MOL0     H61628   8.322   1.500   7.663  0.6850 -1.8680 -2.2790
  447MOL0     H61629   8.477   1.756   7.590 -2.8527 -0.7025 -2.4103
  447MOL0     H61630   8.521   1.643   7.726 -3.2965  0.1684  1.8032
  447MOL0     H61631   8.557   1.614   7.429 -0.2542  4.7877  2.1926
  447MOL0     H61632   8.523   1.464   7.529 -1.0680  0.3193  1.0804
  447MOL0     H61633   8.710   1.528   7.682  1.1819 -1.2833 -0.5699
  447MOL0     H61634   8.768   1.482   7.525  0.4170  0.2108 -1.0337
  447MOL0     H61635   8.799   1.791   7.740  1.7499 -1.1982  1.5058
  447MOL0     H61636   8.901   2.046   7.688 -4.0928 -3.7663 -0.9506
  447MOL0     H61637   9.017   2.055   7.560  0.7529 -0.1225 -0.5811
  447MOL0     H61638   9.104   2.045   7.805 -0.3428 -0.4397  0.8174
  447MOL0     H61639   9.057   1.879   7.795 -2.9355  0.3045 -0.8214
  447MOL0     H61640   9.209   1.837   7.596  2.6821  0.7981 -2.7804
  447MOL0     H61641   9.277   2.001   7.611  1.5295 -1.2027 -0.1425
  447MOL0     H61642   9.412   1.870   7.726  0.9184  0.1230  1.5447
  447MOL0     H61643   9.339   1.987   7.834  2.4730  0.0474 -1.4467
  447MOL0     H61644   9.217   1.635   8.049 -0.1315 -0.6645  0.9737
  447MOL0     H61645   9.423   1.391   8.216  0.1364 -0.2329 -0.7520
  447MOL0     H61646   9.254   1.445   8.172  0.9671  0.1778 -1.2745
  447MOL0     H61647   9.339   1.515   8.309 -1.9138  0.5122 -0.3843
  447MOL0     H61648   9.962   1.577   8.255  1.4873 -0.3551  0.8405
  447MOL0     H61649  10.130   1.443   8.384  0.6446 -1.9159  0.7855
  447MOL0     H61650  10.096   1.007   8.343  0.2895 -0.0766  1.0495
  447MOL0     H61651  10.241   1.059   8.257 -0.8158  2.1900 -0.9265
  447MOL0     H61652  10.343   1.076   8.507 -1.6907  0.4231  2.8565
  447MOL0     H61653  10.202   1.001   8.557  0.2303  2.5371  1.1518
  447MOL0     H61654  10.394   0.847   8.367 -0.2881  0.6619 -1.4502
  447MOL0     H61655  10.238   0.794   8.415  0.9244 -1.5485  2.6540
  447MOL0     H61656  10.248   0.799   8.638 -0.3692  2.1363 -1.4150
  447MOL0     H61657  10.410   0.866   8.645 -0.5170 -1.0762  1.4723
  447MOL0     H61658  10.336   0.596   8.519 -0.7288 -0.0072 -0.6923
  447MOL0     H61659  10.502   0.673   8.520  1.0782  0.0801  2.2279
  447MOL0     H61660  10.340   0.619   8.768 -0.5569  2.9555 -2.3932
  447MOL0     H61661  10.500   0.682   8.778  1.5287 -0.5045 -1.2172
  447MOL0     H61662  10.587   0.474   8.773  0.3054 -0.1566 -0.1009
  447MOL0     H61663  10.511   0.450   8.615 -1.7623  0.5036 -0.5125
  447MOL0     H61664  10.450   0.277   8.792 -2.2382 -1.2327  0.8821
  447MOL0     H61665  10.305   0.368   8.753 -1.9064  0.8755  3.4697
  447MOL0     H61666   9.992   1.086   8.182 -1.0890  0.1929 -1.6701
  447MOL0     H61667   9.840   1.218   8.049  1.0454 -2.0286  0.1333
  447MOL0     H61668   9.702   1.691   7.965 -1.6242  4.8592 -2.7742
  447MOL0     H61669   9.554   1.812   7.841 -0.4044  0.3526 -1.0621
  447MOL0     H61670   7.587   1.779   7.896 -1.8622 -2.4276 -0.3291
  447MOL0     H61671   7.418   1.640   7.832  0.7902 -0.3737  0.1487
  447MOL0     H61672   7.394   1.202   7.577  1.5939 -2.2724  1.9454
  447MOL0     H61673   7.241   1.005   7.558 -1.8642  0.4440 -1.4301
  447MOL0     H61674   6.870   0.941   7.742  0.7200  1.8187  0.7810
  447MOL0     H61675   6.820   1.063   7.621 -3.2225 -0.9558  1.2162
  447MOL0     H61676   6.818   0.769   7.601 -0.7404  0.9811  0.5569
  447MOL0     H61677   6.857   0.867   7.455 -1.6681  0.3085 -0.2688
  447MOL0     H61678   6.636   0.989   7.516  0.6048 -0.2670  0.8283
  447MOL0     H61679   6.626   0.810   7.483  0.6412  0.1518 -0.1177
  447MOL0     H61680   6.622   0.932   7.778 -0.2495  1.6345  0.4480
  447MOL0     H61681   6.622   0.766   7.720 -3.3233 -1.3595  0.2360
  447MOL0     H61682   6.244   0.843   7.574  0.6796 -1.0607  0.3419
  447MOL0     H61683   6.930   1.218   7.751  1.3315  0.1316  3.5931
  447MOL0     H61684   6.986   1.524   7.734  0.5922  0.3910  1.1917
  447MOL0     H61685   6.959   1.402   7.869  1.3913 -1.6597  1.5854
  447MOL0     H61686   7.103   1.501   7.857 -0.9025 -0.9581  0.2873
  448MOL0     O61687   2.057   5.563   1.796  0.3890 -0.2688  0.3539
  448MOL0     C61688   1.939   5.599   1.760 -0.3089 -0.4080 -0.0740
  448MOL0     O61689   1.920   5.711   1.686  0.3621 -0.1012  1.0006
  448MOL0     C61690   2.022   5.812   1.669 -0.7774  0.9627 -0.3442
  448MOL0     C61691   2.046   5.859   1.540  0.1553  0.0294  0.7436
  448MOL0     C61692   2.134   5.970   1.523  0.7968 -0.6206 -0.4661
  448MOL0     C61693   2.182   6.038   1.636 -0.0311 -0.8597 -0.3043
  448MOL0     O61694   2.239   6.172   1.628 -0.7954 -0.0314 -0.5538
  448MOL0     C61695   2.302   6.210   1.506 -0.5829  0.0005  0.0019
  448MOL0     C61696   2.409   6.328   1.541 -0.8810 -0.7230  0.1193
  448MOL0     C61697   2.345   6.463   1.587  0.5456  0.2232  0.1378
  448MOL0     C61698   2.447   6.553   1.643  0.2237 -0.4080  0.3370
  448MOL0     C61699   2.535   6.624   1.551  0.3749 -0.2943 -0.6957
  448MOL0     C61700   2.590   6.753   1.621  0.5436  0.2130 -0.1277
  448MOL0     C61701   2.675   6.837   1.526  0.8841  0.5931  0.0213
  448MOL0     C61702   2.729   6.949   1.610  0.3530  0.4216 -0.4983
  448MOL0     N61703   2.812   7.042   1.538 -0.1932 -0.2136  0.1547
  448MOL0     C61704   2.765   7.126   1.436 -0.5515  0.5167  0.0787
  448MOL0     C61705   2.848   7.229   1.444 -0.6280  0.4809  0.0806
  448MOL0     C61706   2.838   7.342   1.351  0.0745 -0.6957  0.9426
  448MOL0     C61707   2.966   7.382   1.286 -0.4949  0.3229  0.8558
  448MOL0     C61708   2.966   7.494   1.186  0.2982 -0.2417  1.2636
  448MOL0     C61709   3.114   7.530   1.143 -0.1152 -0.3882  0.4298
  448MOL0     O61710   3.102   7.656   1.076  0.3550  0.2559  0.4135
  448MOL0     C61711   3.221   7.724   1.070 -0.4189  0.2950 -0.4271
  448MOL0     C61712   3.345   7.657   1.066  0.4794  0.3850  0.2873
  448MOL0     C61713   3.465   7.738   1.066 -0.2763  0.1491 -0.1858
  448MOL0     C61714   3.596   7.663   1.072 -0.0027 -0.0995 -0.5777
  448MOL0     C61715   3.455   7.879   1.077 -0.2614 -0.6193  0.8931
  448MOL0     C61716   3.571   7.968   1.077  0.0802  0.6095  0.3489
  448MOL0     O61717   3.552   8.098   1.051  0.0359 -0.5612 -0.3867
  448MOL0     C61718   3.661   8.180   1.067  0.0803  0.9192 -0.0451
  448MOL0     C61719   3.639   8.293   1.141 -0.7747 -0.3223 -0.0048
  448MOL0     C61720   3.725   8.397   1.143 -0.9637 -0.3340 -0.0449
  448MOL0     C61721   3.841   8.389   1.068 -0.5028 -0.0620  0.9376
  448MOL0     O61722   3.950   8.479   1.056  0.4041  0.0413 -0.1898
  448MOL0     C61723   3.949   8.592   1.146  0.3634  0.1382  0.5169
  448MOL0     C61724   4.083   8.658   1.116 -0.0486 -0.5687  0.5083
  448MOL0     C61725   4.144   8.737   1.229 -0.1925  0.6186 -0.7349
  448MOL0     C61726   4.303   8.733   1.228 -0.5835 -0.1412  0.1571
  448MOL0     C61727   4.354   8.794   1.358  0.4937 -0.9287  0.6774
  448MOL0     C61728   4.504   8.757   1.365  0.7519 -0.4218 -0.4325
  448MOL0     C61729   4.583   8.829   1.468  0.7323 -0.4139  0.7804
  448MOL0     C61730   4.723   8.761   1.480 -0.0789  0.2355 -0.3359
  448MOL0    Cl61731   4.815   8.853   1.605 -0.3649 -0.2399  0.0990
  448MOL0     C61732   3.873   8.273   0.997  0.1085  0.7654  0.2170
  448MOL0     C61733   3.776   8.171   0.993 -0.3411 -0.9467  0.1330
  448MOL0     O61734   3.675   7.922   1.122 -0.2783 -0.2680 -0.3258
  448MOL0     C61735   3.325   7.937   1.083  0.6115  0.0793 -0.3086
  448MOL0     C61736   3.211   7.862   1.076  0.1950  0.0140 -0.5165
  448MOL0     N61737   2.949   7.200   1.540  0.2327 -1.1609  0.4600
  448MOL0     N61738   2.923   7.089   1.593 -0.7139 -0.2792  0.3127
  448MOL0     C61739   2.153   5.993   1.767  0.3041 -0.4366 -0.6378
  448MOL0     C61740   2.074   5.880   1.779  0.2891 -0.2791 -0.5346
  448MOL0     C61741   1.837   5.496   1.794  0.3532 -0.6278 -0.1719
  448MOL0     C61742   1.867   5.376   1.865 -0.4876  0.0029  0.3707
  448MOL0     C61743   1.773   5.268   1.884 -0.2187 -0.3278  0.3602
  448MOL0     C61744   1.649   5.294   1.842  1.1367 -0.3980  0.0894
  448MOL0     O61745   1.549   5.191   1.856 -0.3419  0.4768  0.2669
  448MOL0     C61746   1.411   5.231   1.854 -0.7752  0.2031  0.2571
  448MOL0     C61747   1.314   5.139   1.931  0.5926  0.1754 -0.3962
  448MOL0     C61748   1.162   5.176   1.907  0.2696  0.1832  0.1484
  448MOL0     C61749   1.070   5.148   2.028  0.4019 -0.5882  0.7185
  448MOL0     C61750   1.076   5.010   2.064 -0.1556  0.5844  0.0533
  448MOL0     C61751   1.108   4.892   2.085  1.1072  0.1764  0.0270
  448MOL0     C61752   1.618   5.415   1.776 -0.5798 -0.4661 -0.4633
  448MOL0     C61753   1.708   5.522   1.767  0.4161 -0.2789 -0.0109
  448MOL0     C61754   1.650   5.647   1.706 -0.2162 -0.5789 -0.1086
  448MOL0     H61755   1.992   5.821   1.454 -0.3829 -0.9250  1.4868
  448MOL0     H61756   2.148   6.015   1.425  4.3842 -0.1137  0.1654
  448MOL0     H61757   2.225   6.233   1.432 -2.0529  0.9354  1.7402
  448MOL0     H61758   2.362   6.126   1.469  0.9599  1.8475 -1.9841
  448MOL0     H61759   2.483   6.294   1.614  0.7715  0.4265 -0.9364
  448MOL0     H61760   2.467   6.353   1.451  1.1977  2.2371  2.1325
  448MOL0     H61761   2.290   6.504   1.502 -1.2079 -0.1575  1.0522
  448MOL0     H61762   2.273   6.450   1.668  0.8260  0.7104  0.4737
  448MOL0     H61763   2.387   6.630   1.692 -0.5133 -0.4585 -0.4745
  448MOL0     H61764   2.501   6.505   1.726  2.0984 -0.3355 -0.7797
  448MOL0     H61765   2.471   6.642   1.464 -0.9981  1.4773  0.6043
  448MOL0     H61766   2.624   6.571   1.518 -0.8848 -1.0523 -3.1860
  448MOL0     H61767   2.494   6.804   1.634  0.7885  0.3839  1.0584
  448MOL0     H61768   2.645   6.735   1.713  2.2720  0.0232 -1.1518
  448MOL0     H61769   2.615   6.882   1.446  2.4346  2.0812 -0.3665
  448MOL0     H61770   2.765   6.793   1.481  1.1027  1.3205 -0.2732
  448MOL0     H61771   2.640   6.991   1.658  2.4373  0.5081  3.7592
  448MOL0     H61772   2.796   6.905   1.684  0.1326 -0.5024 -0.8417
  448MOL0     H61773   2.678   7.126   1.372  0.1271  0.1236 -0.8627
  448MOL0     H61774   2.791   7.423   1.407  0.3413  1.4389 -1.6999
  448MOL0     H61775   2.769   7.320   1.269  0.3124  1.2644  0.1628
  448MOL0     H61776   3.031   7.405   1.371  3.7684 -0.0406 -1.9992
  448MOL0     H61777   3.001   7.284   1.252 -0.5804  0.0856  1.4241
  448MOL0     H61778   2.919   7.464   1.092  2.0723 -0.6084  0.4509
  448MOL0     H61779   2.905   7.573   1.231 -2.7390 -2.8115  2.0213
  448MOL0     H61780   3.171   7.532   1.236 -2.6554  0.5508  2.1052
  448MOL0     H61781   3.150   7.464   1.064 -1.7295 -0.4133 -0.3335
  448MOL0     H61782   3.355   7.550   1.054  1.1897  0.2295  2.0062
  448MOL0     H61783   3.646   7.685   0.977  2.9449 -2.3597  0.2757
  448MOL0     H61784   3.577   7.556   1.068 -0.0516 -0.0612 -3.0109
  448MOL0     H61785   3.656   7.687   1.161 -0.8577 -0.8099  0.2092
  448MOL0     H61786   3.539   8.301   1.183 -0.9245  1.4633 -0.6150
  448MOL0     H61787   3.700   8.486   1.200 -0.9825 -0.8564  0.7674
  448MOL0     H61788   3.863   8.658   1.133  0.5237  0.5032  1.2930
  448MOL0     H61789   3.943   8.561   1.250 -1.9158 -0.1531  0.3436
  448MOL0     H61790   4.160   8.587   1.083 -1.5512 -2.5226  0.9984
  448MOL0     H61791   4.068   8.734   1.039  2.5291 -0.2683  0.2006
  448MOL0     H61792   4.120   8.680   1.319  2.9771  1.1324  0.5818
  448MOL0     H61793   4.104   8.839   1.235 -2.1984 -0.1858  0.2393
  448MOL0     H61794   4.342   8.790   1.143  1.9408  1.1675  2.0726
  448MOL0     H61795   4.328   8.627   1.220  0.2360  0.1658 -2.1046
  448MOL0     H61796   4.341   8.902   1.357  2.4338 -0.6630 -0.4450
  448MOL0     H61797   4.294   8.750   1.438 -1.0716 -0.5894 -0.2799
  448MOL0     H61798   4.546   8.784   1.268 -0.7672 -0.2683 -1.0723
  448MOL0     H61799   4.503   8.648   1.378 -0.4350 -0.2871  0.9796
  448MOL0     H61800   4.522   8.839   1.558 -0.1749  4.0805 -0.0956
  448MOL0     H61801   4.595   8.932   1.434 -1.6601  0.8672  3.4028
  448MOL0     H61802   4.780   8.753   1.387  0.1942  0.9617 -0.2335
  448MOL0     H61803   4.710   8.656   1.506  2.9171 -0.3618 -0.9006
  448MOL0     H61804   3.970   8.265   0.948  0.3891 -0.5409  0.9496
  448MOL0     H61805   3.793   8.083   0.932  0.1833 -0.6127 -0.2007
  448MOL0     H61806   3.327   8.044   1.094  2.1438 -0.1386  2.3170
  448MOL0     H61807   3.110   7.901   1.074  0.0433 -0.2760  0.6864
  448MOL0     H61808   2.177   6.054   1.853 -3.5278 -2.4118  2.1194
  448MOL0     H61809   2.055   5.841   1.878 -2.2886  0.5508 -0.6315
  448MOL0     H61810   1.967   5.359   1.904  1.4324  2.0509 -3.1136
  448MOL0     H61811   1.781   5.171   1.931 -1.6950 -1.2213 -1.1357
  448MOL0     H61812   1.393   5.334   1.888 -1.6221  0.2745 -0.3687
  448MOL0     H61813   1.383   5.225   1.748 -0.0557 -2.2069  0.1394
  448MOL0     H61814   1.343   5.158   2.034 -1.3357  2.2916 -0.1570
  448MOL0     H61815   1.332   5.036   1.900  2.3862  0.0878  0.8054
  448MOL0     H61816   1.159   5.281   1.876  3.4524  0.5543  0.7312
  448MOL0     H61817   1.127   5.114   1.825 -2.5710  1.6110  0.1637
  448MOL0     H61818   0.970   5.186   2.003  0.4297 -0.1130  1.2915
  448MOL0     H61819   1.111   5.214   2.105  2.3914 -0.2296 -0.5519
  448MOL0     H61820   1.124   4.787   2.095 -3.1554 -0.6512 -0.0289
  448MOL0     H61821   1.520   5.437   1.736  1.0133  2.2743 -3.3777
  448MOL0     H61822   1.666   5.733   1.771  1.1695 -0.6664 -0.2947
  448MOL0     H61823   1.691   5.669   1.607  1.1231  0.4727  0.6386
  448MOL0     H61824   1.543   5.629   1.700 -0.5376  0.7957  1.0730
  449MOL0     O61825   2.550   1.323   3.091  0.5213  0.2471 -0.1872
  449MOL0     C61826   2.524   1.422   3.025  0.1779 -0.9209 -0.1468
  449MOL0     O61827   2.617   1.518   2.999 -0.6350 -0.2483 -0.0109
  449MOL0     C61828   2.739   1.485   3.050  0.3294  0.3738  0.2863
  449MOL0     C61829   2.779   1.534   3.180  0.2804  0.9464  0.6809
  449MOL0     C61830   2.914   1.523   3.219  1.1707  0.5015 -0.2833
  449MOL0     C61831   3.010   1.471   3.127 -0.3679 -0.1057  0.6794
  449MOL0     O61832   3.142   1.474   3.168  0.0196  0.0518  0.2898
  449MOL0     C61833   3.236   1.517   3.072  0.0904 -0.4862 -0.4456
  449MOL0     C61834   3.343   1.612   3.131 -0.4045  0.0839 -0.6408
  449MOL0     C61835   3.465   1.554   3.203  0.4266 -0.8093 -0.2192
  449MOL0     C61836   3.567   1.672   3.234  0.2180 -0.6955 -0.7829
  449MOL0     C61837   3.705   1.624   3.284  0.4321 -0.5782 -0.0963
  449MOL0     C61838   3.796   1.733   3.347 -0.0855  0.0226  0.7977
  449MOL0     C61839   3.935   1.665   3.367 -0.3449  0.4172 -1.3998
  449MOL0     C61840   4.022   1.754   3.453 -0.2397  0.0861 -0.1342
  449MOL0     N61841   4.156   1.690   3.467  0.0961 -0.1801 -0.0432
  449MOL0     C61842   4.270   1.731   3.406  0.1235  0.5423 -0.5776
  449MOL0     C61843   4.368   1.642   3.439  0.5930  0.0718  0.6087
  449MOL0     C61844   4.496   1.646   3.365 -0.2613 -0.0065 -0.7689
  449MOL0     C61845   4.574   1.764   3.415  0.1397  0.2425  0.3042
  449MOL0     C61846   4.722   1.767   3.360  0.5529  0.3150 -0.0439
  449MOL0     C61847   4.807   1.867   3.426 -0.2612 -0.1457  0.8651
  449MOL0     O61848   4.762   1.997   3.393  0.1013  0.3044  0.1841
  449MOL0     C61849   4.851   2.093   3.440  0.4469 -0.7464  0.9361
  449MOL0     C61850   4.907   2.094   3.566  0.7791 -0.5615 -0.8692
  449MOL0     C61851   4.992   2.192   3.614 -1.0719 -0.3061  0.3999
  449MOL0     C61852   5.056   2.160   3.745  0.3731 -0.1591 -0.2501
  449MOL0     C61853   5.012   2.309   3.532  0.6043 -0.6675 -0.1231
  449MOL0     C61854   5.103   2.421   3.569 -0.0149  0.3052 -0.2903
  449MOL0     O61855   5.094   2.531   3.500 -0.1552  0.3892  0.6603
  449MOL0     C61856   5.195   2.627   3.510  0.7094  0.0987  0.1926
  449MOL0     C61857   5.162   2.739   3.566  0.4115 -1.2772 -0.1869
  449MOL0     C61858   5.259   2.839   3.596  0.4427  1.0202  0.1699
  449MOL0     C61859   5.389   2.821   3.552 -0.0250  0.1431 -0.3066
  449MOL0     O61860   5.476   2.925   3.580 -0.3875 -0.0542  0.4533
  449MOL0     C61861   5.613   2.898   3.536  0.6197  0.5809 -0.0130
  449MOL0     C61862   5.705   3.017   3.570  0.5164  0.1520 -0.2645
  449MOL0     C61863   5.748   2.994   3.720 -0.9724  0.4507  0.3961
  449MOL0     C61864   5.838   3.109   3.763 -0.8646  0.0566  0.3089
  449MOL0     C61865   5.868   3.075   3.911  0.0922  0.3854  0.3654
  449MOL0     C61866   5.950   3.181   3.965 -1.1981  0.4957  0.3623
  449MOL0     C61867   6.097   3.174   3.905  0.0661 -0.6695  0.2120
  449MOL0     C61868   6.194   3.260   3.984  0.5082  0.2517  0.5400
  449MOL0    Cl61869   6.363   3.211   3.944  0.2539 -0.1451  0.2690
  449MOL0     C61870   5.429   2.697   3.489 -0.7935 -0.3221 -0.0017
  449MOL0     C61871   5.325   2.603   3.469  0.4999 -0.3258 -0.6364
  449MOL0     O61872   5.181   2.404   3.663 -0.2035  0.3790  0.3585
  449MOL0     C61873   4.950   2.318   3.408  0.6298  0.7861 -0.1056
  449MOL0     C61874   4.880   2.206   3.362  0.0530  0.6279 -0.1454
  449MOL0     N61875   4.320   1.542   3.521  0.7703 -0.7102 -0.2221
  449MOL0     N61876   4.194   1.573   3.528  0.1912 -0.0843  0.4349
  449MOL0     C61877   2.969   1.412   3.005  0.6387 -0.2386  0.1114
  449MOL0     C61878   2.835   1.424   2.968  0.0060 -0.7790  0.0369
  449MOL0     C61879   2.395   1.445   2.979 -0.6041 -0.1420  0.7463
  449MOL0     C61880   2.375   1.378   2.861  0.5182  0.3419 -0.1676
  449MOL0     C61881   2.245   1.374   2.807 -0.6540  0.5643  0.4072
  449MOL0     C61882   2.137   1.436   2.868  0.5584  0.2098  0.0208
  449MOL0     O61883   2.008   1.440   2.820 -0.1445  0.8142 -0.4080
  449MOL0     C61884   1.967   1.331   2.740  0.0884  0.1827  0.6062
  449MOL0     C61885   1.813   1.325   2.708 -1.3577 -0.2023  0.2683
  449MOL0     C61886   1.755   1.437   2.617 -0.8522  0.2144 -0.1706
  449MOL0     C61887   1.826   1.436   2.479  0.5101  0.0890  1.2342
  449MOL0     C61888   1.956   1.512   2.475  0.4261  0.0520 -0.3671
  449MOL0     C61889   2.053   1.592   2.463 -0.7771  0.3357 -0.3589
  449MOL0     C61890   2.164   1.514   2.980 -0.3228 -0.3145  0.3324
  449MOL0     C61891   2.293   1.518   3.044 -0.5149 -0.0032  0.3947
  449MOL0     C61892   2.326   1.606   3.163 -0.0218  0.6445  0.2832
  449MOL0     H61893   2.710   1.590   3.243  1.7941  1.6415  1.8031
  449MOL0     H61894   2.922   1.571   3.316 -0.5548 -0.8187  0.5703
  449MOL0     H61895   3.188   1.577   2.995 -0.6884  3.0636  2.5051
  449MOL0     H61896   3.279   1.432   3.019 -3.7146 -0.8359 -3.3689
  449MOL0     H61897   3.368   1.684   3.052 -1.0132  0.4981 -0.4669
  449MOL0     H61898   3.283   1.667   3.204 -0.3944  1.6699 -1.7748
  449MOL0     H61899   3.440   1.491   3.289 -1.6992 -2.0055 -1.6208
  449MOL0     H61900   3.503   1.483   3.128 -0.4775 -0.2348 -1.2481
  449MOL0     H61901   3.570   1.744   3.152 -4.7755  1.9279  0.9324
  449MOL0     H61902   3.524   1.736   3.312 -1.2154 -1.1199 -1.1996
  449MOL0     H61903   3.766   1.587   3.202  0.2682 -0.2275 -0.3771
  449MOL0     H61904   3.684   1.546   3.359  1.0487  0.6370  1.3879
  449MOL0     H61905   3.819   1.813   3.276 -0.5642 -0.7356 -0.2415
  449MOL0     H61906   3.764   1.769   3.445 -1.9093 -0.4997  0.4257
  449MOL0     H61907   3.993   1.628   3.283  0.2322 -0.1792 -0.7521
  449MOL0     H61908   3.921   1.573   3.424 -0.5735  0.2783 -1.6813
  449MOL0     H61909   4.031   1.855   3.412 -1.9670 -0.2941 -1.6310
  449MOL0     H61910   3.971   1.764   3.549 -1.4437 -2.7405 -0.3922
  449MOL0     H61911   4.279   1.807   3.329  0.2021 -0.2586 -1.3674
  449MOL0     H61912   4.485   1.657   3.257  0.7588  1.0024 -0.7912
  449MOL0     H61913   4.529   1.543   3.381 -2.2429 -0.6824 -0.8829
  449MOL0     H61914   4.531   1.859   3.382  0.4458 -0.1780 -1.3650
  449MOL0     H61915   4.566   1.768   3.524 -1.5416  0.0211  0.2190
  449MOL0     H61916   4.777   1.673   3.370  1.0016  0.5924  0.1208
  449MOL0     H61917   4.717   1.805   3.257  0.4654  4.1442  1.2365
  449MOL0     H61918   4.798   1.843   3.533  1.6390  2.3851  1.6853
  449MOL0     H61919   4.908   1.860   3.386 -0.0300 -0.6497  1.5053
  449MOL0     H61920   4.902   2.008   3.632  1.8555 -1.2863 -1.6973
  449MOL0     H61921   5.034   2.237   3.818 -0.5365 -0.1037 -0.5676
  449MOL0     H61922   5.165   2.158   3.745  0.5928  3.8687  1.3786
  449MOL0     H61923   5.010   2.076   3.798 -1.0812  0.6999 -0.0981
  449MOL0     H61924   5.061   2.752   3.602  1.1635 -2.5995  2.7260
  449MOL0     H61925   5.239   2.938   3.637 -0.1074  0.7181  0.6392
  449MOL0     H61926   5.646   2.800   3.570  1.7332  1.1298  0.5470
  449MOL0     H61927   5.609   2.898   3.426 -0.9556 -1.5916 -0.0170
  449MOL0     H61928   5.791   3.028   3.503 -0.2216  2.2533 -0.9404
  449MOL0     H61929   5.641   3.106   3.568  3.6252  2.8137  3.1407
  449MOL0     H61930   5.801   2.898   3.724 -0.7295  0.6146  1.2025
  449MOL0     H61931   5.659   2.982   3.783 -1.1832 -1.1783 -0.1536
  449MOL0     H61932   5.784   3.203   3.748 -0.8309  0.1045  0.4935
  449MOL0     H61933   5.922   3.105   3.693 -0.5561 -1.1358  0.7196
  449MOL0     H61934   5.776   3.059   3.968 -2.2662  0.3573 -3.1835
  449MOL0     H61935   5.929   2.984   3.913  0.4574  0.3728 -3.5693
  449MOL0     H61936   5.966   3.182   4.073  1.1453 -0.3075  0.0946
  449MOL0     H61937   5.903   3.277   3.943 -2.1264 -0.4284 -2.0600
  449MOL0     H61938   6.099   3.215   3.803  0.1850 -0.8800  0.1303
  449MOL0     H61939   6.135   3.072   3.898 -0.8195 -0.9915 -0.0610
  449MOL0     H61940   6.180   3.254   4.092 -3.0959 -2.1909  0.0994
  449MOL0     H61941   6.172   3.359   3.943 -2.7755  0.1005  1.6644
  449MOL0     H61942   5.527   2.681   3.445 -1.2096  1.9050 -1.9588
  449MOL0     H61943   5.361   2.507   3.433  2.3671  0.6826 -1.6398
  449MOL0     H61944   4.954   2.408   3.347 -1.2545 -0.5967 -2.3995
  449MOL0     H61945   4.848   2.194   3.259 -3.5735 -2.3429  1.0933
  449MOL0     H61946   3.048   1.381   2.936 -0.0283 -1.5776 -0.0813
  449MOL0     H61947   2.799   1.388   2.872  2.2892 -1.4190 -0.6372
  449MOL0     H61948   2.448   1.308   2.822 -0.1007  0.0831 -0.8864
  449MOL0     H61949   2.239   1.312   2.718 -1.0817  0.6658  0.3595
  449MOL0     H61950   2.018   1.335   2.643 -2.7467 -2.3177 -1.1639
  449MOL0     H61951   2.000   1.241   2.791 -0.3944  1.1280  2.6900
  449MOL0     H61952   1.767   1.338   2.806  0.3709 -2.4902  1.4745
  449MOL0     H61953   1.797   1.227   2.662  0.0158 -0.1744 -0.3272
  449MOL0     H61954   1.649   1.414   2.606  0.1319 -4.9467 -1.3194
  449MOL0     H61955   1.756   1.535   2.667  1.9060 -0.9184  2.3405
  449MOL0     H61956   1.766   1.492   2.406  2.3139 -0.4175 -0.7363
  449MOL0     H61957   1.825   1.332   2.445  1.0428 -0.0408  1.6137
  449MOL0     H61958   2.144   1.647   2.453 -0.1185 -0.7727 -0.7221
  449MOL0     H61959   2.092   1.577   3.030  0.9304  0.3309  1.3738
  449MOL0     H61960   2.432   1.626   3.182 -0.3886  2.2779  0.7305
  449MOL0     H61961   2.276   1.702   3.148 -0.3556  0.6675  1.5011
  449MOL0     H61962   2.290   1.550   3.250  1.8408 -1.1652 -0.0240
  450MOL0     O61963   4.443   5.665   9.647 -1.2573 -0.2203 -0.1227
  450MOL0     C61964   4.382   5.673   9.752  0.2566  1.0266 -0.0144
  450MOL0     O61965   4.433   5.697   9.880 -0.1113 -0.1209 -0.0493
  450MOL0     C61966   4.567   5.720   9.887 -1.7402 -0.1933 -0.5391
  450MOL0     C61967   4.652   5.615   9.896  0.2019  0.0730  0.1637
  450MOL0     C61968   4.791   5.634   9.913  0.0218  0.1508 -0.0731
  450MOL0     C61969   4.839   5.764   9.937  0.1808 -0.5535  0.5885
  450MOL0     O61970   4.966   5.811   9.953  0.1035  0.7204 -0.3144
  450MOL0     C61971   5.069   5.727   9.910 -0.7196 -1.0209  0.7431
  450MOL0     C61972   5.077   5.697   9.757  1.4074 -0.5927 -0.2886
  450MOL0     C61973   5.201   5.628   9.698 -0.1813  0.1152  0.7164
  450MOL0     C61974   5.334   5.690   9.738 -0.5613 -0.2216  0.4790
  450MOL0     C61975   5.462   5.626   9.686 -0.6731  0.4399 -0.8270
  450MOL0     C61976   5.471   5.639   9.533 -0.9629  0.8320  0.8654
  450MOL0     C61977   5.594   5.560   9.479 -0.5797 -1.0470  0.8797
  450MOL0     C61978   5.736   5.582   9.521  0.3611  0.4478  0.1400
  450MOL0     N61979   5.789   5.702   9.468 -0.4383 -0.6804 -0.4631
  450MOL0     C61980   5.824   5.731   9.339  0.9270 -0.0163 -0.9430
  450MOL0     C61981   5.860   5.860   9.345 -0.3027 -0.0331  0.8016
  450MOL0     C61982   5.903   5.938   9.219 -0.2684 -0.3037 -0.2019
  450MOL0     C61983   6.052   5.929   9.204 -1.1239 -0.5557 -0.1494
  450MOL0     C61984   6.100   6.009   9.089 -0.8731  0.9090  0.3694
  450MOL0     C61985   6.253   5.984   9.062  0.5612 -0.3481  0.6840
  450MOL0     O61986   6.269   5.854   9.005  0.0469 -0.0044  0.1318
  450MOL0     C61987   6.397   5.810   8.987  0.4161 -0.1298 -0.2191
  450MOL0     C61988   6.514   5.886   9.002 -0.2702  0.5922 -0.2529
  450MOL0     C61989   6.646   5.835   8.960  0.4745 -0.7163  0.0564
  450MOL0     C61990   6.765   5.922   8.969 -0.3695 -0.8682  0.3743
  450MOL0     C61991   6.656   5.701   8.919  0.1581  0.5526 -0.3804
  450MOL0     C61992   6.785   5.643   8.864 -0.5805 -0.3310 -0.3243
  450MOL0     O61993   6.765   5.539   8.783 -0.2756  0.2191 -0.9526
  450MOL0     C61994   6.862   5.489   8.709  0.0292  1.1412  0.3399
  450MOL0     C61995   6.875   5.528   8.579 -0.5154  0.3436  1.0999
  450MOL0     C61996   6.975   5.464   8.495 -0.2269 -0.1859  0.4759
  450MOL0     C61997   7.069   5.373   8.543  1.1691  0.4669 -0.5555
  450MOL0     O61998   7.162   5.314   8.460 -0.2102 -0.2417 -0.3112
  450MOL0     C61999   7.286   5.269   8.523 -0.7520  0.7462  0.8359
  450MOL0     C62000   7.352   5.379   8.606 -0.1202  0.1169  0.1582
  450MOL0     C62001   7.425   5.324   8.729 -0.3870 -0.0590 -0.9091
  450MOL0     C62002   7.553   5.252   8.693  0.2459 -1.1225 -0.8776
  450MOL0     C62003   7.655   5.330   8.607 -0.2170  0.1155  0.9023
  450MOL0     C62004   7.795   5.289   8.639 -0.3254  0.5232 -0.3581
  450MOL0     C62005   7.821   5.142   8.629  0.2039 -0.6312  1.0776
  450MOL0     C62006   7.945   5.113   8.546 -0.2782 -0.4856  0.2224
  450MOL0    Cl62007   8.095   5.151   8.633  0.0978  0.1459 -0.0929
  450MOL0     C62008   7.060   5.345   8.676 -0.2734  0.6068 -0.3665
  450MOL0     C62009   6.947   5.392   8.756 -0.2573 -0.6619 -0.0863
  450MOL0     O62010   6.892   5.695   8.894 -0.3355 -0.1722 -0.3008
  450MOL0     C62011   6.540   5.626   8.923 -0.3674  0.7261 -0.1181
  450MOL0     C62012   6.412   5.674   8.953 -0.0535  0.0234 -0.1771
  450MOL0     N62013   5.841   5.909   9.468  0.3731  0.0620  0.0039
  450MOL0     N62014   5.805   5.815   9.544  0.0140  0.2036 -0.3741
  450MOL0     C62015   4.735   5.867   9.959 -0.5131  0.3279 -0.1869
  450MOL0     C62016   4.601   5.844   9.924 -0.8220 -0.0878 -0.4530
  450MOL0     C62017   4.233   5.661   9.741  0.5631  0.0109  0.0456
  450MOL0     C62018   4.167   5.564   9.659 -0.1450 -0.3205  0.1525
  450MOL0     C62019   4.023   5.552   9.659  0.2037 -0.1034  0.4072
  450MOL0     C62020   3.944   5.647   9.719  0.2840  0.1761  0.3253
  450MOL0     O62021   3.801   5.641   9.712 -0.4460  0.8126  0.4698
  450MOL0     C62022   3.734   5.710   9.812 -0.3224 -0.2405  0.0619
  450MOL0     C62023   3.591   5.657   9.832  0.7116 -0.3761 -0.5980
  450MOL0     C62024   3.571   5.509   9.835  0.5307  0.4809  0.9776
  450MOL0     C62025   3.676   5.431   9.916 -0.0109  0.2418 -0.3300
  450MOL0     C62026   3.649   5.442  10.063 -0.3335  0.5754 -0.6913
  450MOL0     C62027   3.632   5.438  10.186  0.5632 -0.2956  0.2870
  450MOL0     C62028   4.010   5.756   9.786 -0.0299 -0.3652 -0.1733
  450MOL0     C62029   4.149   5.759   9.810  0.4381  0.0891  0.4770
  450MOL0     C62030   4.190   5.870   9.900  0.4504 -0.2946  0.1300
  450MOL0     H62031   4.611   5.515   9.888 -1.9964  0.9582 -0.3460
  450MOL0     H62032   4.862   5.552   9.913  1.0032  0.9488 -1.7109
  450MOL0     H62033   5.076   5.631   9.962  0.6395 -1.6002 -0.4123
  450MOL0     H62034   5.160   5.780   9.939 -0.2925 -1.1402 -0.3167
  450MOL0     H62035   5.001   5.620   9.748  0.8317 -0.2927  1.5097
  450MOL0     H62036   5.062   5.793   9.706  3.4473  1.2332  2.2331
  450MOL0     H62037   5.207   5.527   9.740  0.6023  0.0389  0.4322
  450MOL0     H62038   5.182   5.616   9.591  2.1108 -2.5332  0.4723
  450MOL0     H62039   5.327   5.795   9.710 -2.5966  0.1476  2.0917
  450MOL0     H62040   5.325   5.680   9.847  2.1016 -0.2317  0.7630
  450MOL0     H62041   5.459   5.518   9.705 -0.3830  0.4154 -0.9188
  450MOL0     H62042   5.554   5.665   9.731 -1.1361  2.2537 -1.3633
  450MOL0     H62043   5.382   5.592   9.492  0.3146 -2.1601  1.2760
  450MOL0     H62044   5.475   5.745   9.505  1.0212  1.0840  1.9000
  450MOL0     H62045   5.597   5.594   9.375  0.9784 -0.5445  1.0562
  450MOL0     H62046   5.578   5.452   9.484  2.5524 -1.5868  1.1068
  450MOL0     H62047   5.745   5.589   9.629 -0.1381 -1.7908  0.3691
  450MOL0     H62048   5.791   5.491   9.494 -1.5969 -0.6564 -0.3494
  450MOL0     H62049   5.819   5.668   9.251 -1.1241 -1.3198  0.0243
  450MOL0     H62050   5.871   6.042   9.232 -1.7745 -0.6834 -0.6366
  450MOL0     H62051   5.847   5.918   9.127  1.7657 -1.7728 -1.2045
  450MOL0     H62052   6.083   5.976   9.298 -0.0289 -0.3928 -0.5816
  450MOL0     H62053   6.090   5.826   9.201 -2.8292 -1.2338  0.0782
  450MOL0     H62054   6.055   5.976   8.995 -1.7102 -1.1740  1.4238
  450MOL0     H62055   6.077   6.114   9.108 -0.9977  0.4319  3.5470
  450MOL0     H62056   6.296   6.063   9.001  1.5828 -1.0249  0.5032
  450MOL0     H62057   6.312   5.991   9.154  1.2664 -3.0667  0.5381
  450MOL0     H62058   6.510   5.992   9.024  1.6510  0.7206 -0.4076
  450MOL0     H62059   6.806   5.941   8.870 -1.1289  1.2637  0.4186
  450MOL0     H62060   6.828   5.868   9.040  0.4115  2.0949  2.0598
  450MOL0     H62061   6.743   6.023   9.004  0.4877  0.2783 -2.1543
  450MOL0     H62062   6.804   5.591   8.525  0.8085 -0.4762 -1.7839
  450MOL0     H62063   6.987   5.476   8.388 -0.4140 -1.5343  0.2849
  450MOL0     H62064   7.273   5.178   8.583 -0.0222 -0.3415 -0.6005
  450MOL0     H62065   7.357   5.243   8.444  0.1668  1.9399  1.2380
  450MOL0     H62066   7.427   5.425   8.542 -1.8492  1.2096 -1.1799
  450MOL0     H62067   7.287   5.460   8.642  0.0312 -0.1225  0.9949
  450MOL0     H62068   7.361   5.256   8.787  1.2234  0.4163  1.5916
  450MOL0     H62069   7.448   5.410   8.793  0.0180  0.4136 -1.6758
  450MOL0     H62070   7.534   5.154   8.647  0.8631 -0.9957 -1.4231
  450MOL0     H62071   7.598   5.237   8.792  1.2406  2.1040 -0.7144
  450MOL0     H62072   7.636   5.293   8.506 -0.3821  1.8403  0.2785
  450MOL0     H62073   7.644   5.439   8.609 -0.4493  0.2407 -2.3913
  450MOL0     H62074   7.824   5.330   8.736  0.9503  0.5266 -0.7226
  450MOL0     H62075   7.865   5.346   8.576 -1.0504 -1.1849 -2.8670
  450MOL0     H62076   7.746   5.091   8.566  1.9832  0.3536 -2.0938
  450MOL0     H62077   7.836   5.110   8.732 -3.0162 -0.3635  1.7446
  450MOL0     H62078   7.947   5.171   8.453  3.6572  1.0373  1.0747
  450MOL0     H62079   7.937   5.008   8.517  0.3619 -0.4902  0.0473
  450MOL0     H62080   7.119   5.265   8.721 -2.4398 -1.3051 -0.7089
  450MOL0     H62081   6.938   5.355   8.857  1.5757 -0.6146  0.1418
  450MOL0     H62082   6.547   5.522   8.892 -0.0398 -0.4420  3.4521
  450MOL0     H62083   6.331   5.603   8.939 -0.1634  0.3507 -1.2331
  450MOL0     H62084   4.759   5.968   9.988  1.6445 -0.6057  1.6036
  450MOL0     H62085   4.532   5.927   9.935 -1.8979 -0.9324 -0.5954
  450MOL0     H62086   4.233   5.501   9.600  2.4036  1.3793  1.0503
  450MOL0     H62087   3.974   5.477   9.597  1.8870 -0.2138 -0.8609
  450MOL0     H62088   3.785   5.695   9.908 -3.0976 -0.3474  1.6407
  450MOL0     H62089   3.725   5.816   9.786  0.8077  0.1733  1.2189
  450MOL0     H62090   3.529   5.690   9.747 -1.5016  1.6352  1.6485
  450MOL0     H62091   3.549   5.701   9.922 -2.0537 -2.3065 -0.7746
  450MOL0     H62092   3.471   5.492   9.875  0.4959 -0.8981  0.3800
  450MOL0     H62093   3.575   5.467   9.734  1.4493  1.4658  0.5881
  450MOL0     H62094   3.783   5.444   9.897 -0.2001  0.2130 -1.4883
  450MOL0     H62095   3.650   5.325   9.901 -1.0971  0.3923  0.4034
  450MOL0     H62096   3.624   5.458  10.291 -1.7073  1.4643 -0.1452
  450MOL0     H62097   3.956   5.839   9.831  2.2064  1.1884 -0.2144
  450MOL0     H62098   4.284   5.913   9.866 -0.5524  1.2520 -0.8211
  450MOL0     H62099   4.119   5.953   9.900  0.6755 -0.1013  0.2193
  450MOL0     H62100   4.201   5.838  10.004 -1.6712  2.7983  1.4711
  451MOL0     O62101   0.651   1.259   0.952  0.0953  0.2820 -0.3783
  451MOL0     C62102   0.616   1.359   1.006  0.1361 -0.2237  0.6166
  451MOL0     O62103   0.707   1.454   1.052  0.2118 -0.1340 -0.8926
  451MOL0     C62104   0.842   1.434   1.012  0.0726 -0.0411 -0.5008
  451MOL0     C62105   0.924   1.372   1.098  0.8323  1.2088  0.7405
  451MOL0     C62106   1.061   1.370   1.065 -0.2209 -0.3626 -0.1332
  451MOL0     C62107   1.109   1.415   0.934 -0.0022 -0.2068 -0.6377
  451MOL0     O62108   1.246   1.391   0.909  0.2522  0.3958 -0.3816
  451MOL0     C62109   1.292   1.429   0.781 -0.4531  0.8503 -0.3368
  451MOL0     C62110   1.450   1.397   0.775  0.3413  0.6030 -0.1164
  451MOL0     C62111   1.480   1.243   0.784  0.9178 -0.9856 -0.3874
  451MOL0     C62112   1.628   1.219   0.746 -0.0373  0.1645  0.8179
  451MOL0     C62113   1.645   1.070   0.723 -0.9812 -0.0614  0.1604
  451MOL0     C62114   1.783   1.033   0.689  0.2552  0.0331  0.2461
  451MOL0     C62115   1.813   1.056   0.541 -0.5850 -0.7006 -0.8274
  451MOL0     C62116   1.959   1.018   0.514  0.8102  0.2161  0.5314
  451MOL0     N62117   1.988   1.037   0.370  0.6285  0.2004 -0.8725
  451MOL0     C62118   1.942   0.959   0.270 -0.3352 -0.2071  0.0401
  451MOL0     C62119   2.008   1.011   0.164  0.3491  1.1258  0.2783
  451MOL0     C62120   1.983   0.959   0.030  1.1358  0.0557  0.6990
  451MOL0     C62121   2.119   0.978  -0.054 -0.4013  0.2324 -0.4424
  451MOL0     C62122   2.237   0.911   0.013  0.3375 -0.4658 -0.7799
  451MOL0     C62123   2.359   0.895  -0.083  0.1882  0.5877  0.1916
  451MOL0     O62124   2.476   0.861  -0.005 -0.0219  0.4310 -0.2115
  451MOL0     C62125   2.595   0.851  -0.078 -0.4024 -0.0422 -0.2023
  451MOL0     C62126   2.616   0.928  -0.192 -0.2800 -0.7665  0.2827
  451MOL0     C62127   2.739   0.918  -0.264 -1.2245 -1.0949 -0.1450
  451MOL0     C62128   2.757   0.999  -0.392  0.0285  0.6001  0.2178
  451MOL0     C62129   2.852   0.841  -0.220  1.3233 -0.4482  0.4361
  451MOL0     C62130   2.976   0.821  -0.294  0.6217  0.6253  0.0382
  451MOL0     O62131   3.077   0.814  -0.211 -0.3521  0.3130  0.2517
  451MOL0     C62132   3.203   0.799  -0.261 -0.7297  0.7798  0.9786
  451MOL0     C62133   3.254   0.872  -0.370 -0.6828 -1.1741  0.4316
  451MOL0     C62134   3.390   0.852  -0.411  0.2590 -0.6084 -0.7945
  451MOL0     C62135   3.481   0.771  -0.339  0.0808 -0.1345 -0.2454
  451MOL0     O62136   3.616   0.767  -0.372 -0.2748 -0.6959  0.2751
  451MOL0     C62137   3.703   0.680  -0.302  0.5354  0.0735 -0.2668
  451MOL0     C62138   3.834   0.668  -0.370 -0.1708  0.1192  0.5385
  451MOL0     C62139   3.824   0.601  -0.509 -0.1418  0.2266  0.8568
  451MOL0     C62140   3.785   0.453  -0.535  0.1597 -0.4688 -0.3543
  451MOL0     C62141   3.797   0.422  -0.687  0.1819  0.3316  0.1950
  451MOL0     C62142   3.743   0.286  -0.721 -0.3794  0.9226 -0.5401
  451MOL0     C62143   3.761   0.245  -0.867 -1.0934  0.0219 -0.5443
  451MOL0     C62144   3.674   0.120  -0.899  0.3769  0.0138  0.1400
  451MOL0    Cl62145   3.744  -0.021  -0.827  0.3530  0.1104 -0.4113
  451MOL0     C62146   3.426   0.703  -0.231 -0.0948  0.8453  0.7641
  451MOL0     C62147   3.293   0.715  -0.194  0.0858 -0.2552  0.4718
  451MOL0     O62148   2.983   0.808  -0.416 -0.3226  0.1109  0.2742
  451MOL0     C62149   2.830   0.783  -0.092 -0.0932  0.7535  0.0094
  451MOL0     C62150   2.707   0.777  -0.028 -0.4963 -0.1979 -0.3858
  451MOL0     N62151   2.077   1.124   0.198  0.0369 -0.0409 -0.3010
  451MOL0     N62152   2.078   1.125   0.322 -0.0862  0.0732  0.0273
  451MOL0     C62153   1.013   1.477   0.851 -0.8029  0.9137 -0.1068
  451MOL0     C62154   0.881   1.494   0.891  0.1001  0.1734  0.9606
  451MOL0     C62155   0.473   1.371   1.036 -0.0105 -1.0915  0.3628
  451MOL0     C62156   0.444   1.416   1.171  0.0213 -0.8609  0.4482
  451MOL0     C62157   0.304   1.448   1.212 -0.4651  0.2909 -0.2689
  451MOL0     C62158   0.215   1.437   1.111  0.2386  1.2561  0.6775
  451MOL0     O62159   0.092   1.480   1.142  0.7624 -0.0584  0.0891
  451MOL0     C62160   0.064   1.620   1.099 -0.6164 -0.4280  0.0809
  451MOL0     C62161  -0.089   1.646   1.107 -0.4971  0.5454  0.2419
  451MOL0     C62162  -0.145   1.630   1.253 -0.7511 -0.4310  0.6528
  451MOL0     C62163  -0.297   1.647   1.260  0.0522 -1.0083  0.2920
  451MOL0     C62164  -0.361   1.551   1.177  0.6486 -0.5611  0.7995
  451MOL0     C62165  -0.413   1.464   1.116  0.3238 -0.3509 -0.1922
  451MOL0     C62166   0.238   1.383   0.982  0.2138  0.6875 -0.1710
  451MOL0     C62167   0.368   1.345   0.944  0.2818  0.3754  0.5452
  451MOL0     C62168   0.403   1.302   0.806  0.3179  0.8556  0.1025
  451MOL0     H62169   0.877   1.337   1.188 -1.5631 -0.1514 -0.9465
  451MOL0     H62170   1.138   1.341   1.136 -1.1791 -3.4118 -0.2291
  451MOL0     H62171   1.279   1.536   0.764  1.5434  1.2691  0.4817
  451MOL0     H62172   1.237   1.380   0.700 -0.3815  1.6630 -0.8931
  451MOL0     H62173   1.483   1.432   0.677 -2.2681 -1.7526 -1.9832
  451MOL0     H62174   1.506   1.455   0.849 -0.7269  1.6034 -0.0504
  451MOL0     H62175   1.458   1.215   0.888 -0.9681  0.7325 -0.2544
  451MOL0     H62176   1.411   1.184   0.724  0.7285 -1.9498  0.7406
  451MOL0     H62177   1.660   1.274   0.657 -0.2479 -1.3033 -0.2095
  451MOL0     H62178   1.700   1.258   0.818  0.0648  0.3958  0.5911
  451MOL0     H62179   1.583   1.042   0.637  1.1439  0.5563 -1.6777
  451MOL0     H62180   1.616   1.011   0.811  0.0840  2.7661  2.5772
  451MOL0     H62181   1.858   1.081   0.752 -1.0141 -0.6154  2.3734
  451MOL0     H62182   1.791   0.925   0.703  0.2770 -0.1706 -1.1756
  451MOL0     H62183   1.799   1.162   0.518  2.2516  0.8047  3.0826
  451MOL0     H62184   1.753   0.990   0.478  0.5982 -1.4973 -1.1652
  451MOL0     H62185   2.037   1.060   0.578 -0.2939 -1.0180  2.8089
  451MOL0     H62186   1.973   0.913   0.538 -0.7152  0.0462  0.7825
  451MOL0     H62187   1.873   0.875   0.276  0.4681 -1.0285 -1.5882
  451MOL0     H62188   1.904   1.019  -0.014  0.5607 -0.5940  0.8380
  451MOL0     H62189   1.946   0.857   0.017 -1.3765  0.8804  0.8757
  451MOL0     H62190   2.115   0.932  -0.153  0.3046 -3.1319  0.9611
  451MOL0     H62191   2.139   1.085  -0.061 -0.2677  0.3442  1.1335
  451MOL0     H62192   2.264   0.975   0.096  1.5955 -2.5702  0.5128
  451MOL0     H62193   2.207   0.814   0.055 -3.2757  0.4969 -0.7843
  451MOL0     H62194   2.337   0.820  -0.160 -0.4996  1.0530 -0.0642
  451MOL0     H62195   2.355   0.989  -0.137 -0.9462  0.4576  0.0422
  451MOL0     H62196   2.550   1.004  -0.232  2.0126  1.2026  0.0167
  451MOL0     H62197   2.775   0.931  -0.476 -0.9572  1.2256 -0.5356
  451MOL0     H62198   2.840   1.070  -0.387  1.6293 -1.2667  4.2151
  451MOL0     H62199   2.666   1.058  -0.408 -0.0296  0.2761 -0.6815
  451MOL0     H62200   3.183   0.934  -0.424 -0.7199 -0.2420  1.5228
  451MOL0     H62201   3.410   0.900  -0.506 -1.2428 -2.6067 -2.2143
  451MOL0     H62202   3.717   0.708  -0.197 -0.6026  1.8579 -0.5538
  451MOL0     H62203   3.656   0.581  -0.300 -2.8697  1.5847  0.6225
  451MOL0     H62204   3.879   0.768  -0.380 -1.5467  0.6173 -1.0713
  451MOL0     H62205   3.906   0.613  -0.309  0.5942  3.8365  3.3963
  451MOL0     H62206   3.927   0.600  -0.546 -0.0181 -0.7805  1.1967
  451MOL0     H62207   3.772   0.672  -0.575 -1.2408 -0.2494  1.1847
  451MOL0     H62208   3.682   0.450  -0.498  0.3512  0.0365  0.2280
  451MOL0     H62209   3.842   0.385  -0.471 -0.8718 -1.8886 -0.8642
  451MOL0     H62210   3.739   0.495  -0.744 -0.7478 -0.2418  0.4019
  451MOL0     H62211   3.900   0.441  -0.719 -1.0013  2.4046 -2.7249
  451MOL0     H62212   3.635   0.284  -0.704  0.0082 -1.1048  2.1483
  451MOL0     H62213   3.789   0.213  -0.654 -3.8182 -0.0965  0.9029
  451MOL0     H62214   3.866   0.224  -0.890 -0.5249 -2.2567  3.2859
  451MOL0     H62215   3.728   0.329  -0.929  0.3551  0.9804 -0.0714
  451MOL0     H62216   3.674   0.119  -1.008  1.7785  0.0580  0.1267
  451MOL0     H62217   3.574   0.141  -0.860  0.6229 -0.9913  1.4028
  451MOL0     H62218   3.492   0.635  -0.179 -1.3266 -1.3323 -0.3791
  451MOL0     H62219   3.250   0.667  -0.107 -1.9382  1.0441  0.2394
  451MOL0     H62220   2.910   0.730  -0.041 -1.2514 -0.0349  1.0713
  451MOL0     H62221   2.692   0.711   0.056  1.2229  1.4315  1.2925
  451MOL0     H62222   1.056   1.526   0.764  1.6945  0.7988  0.9658
  451MOL0     H62223   0.811   1.538   0.821  0.6487 -1.9853 -1.0573
  451MOL0     H62224   0.522   1.434   1.244  0.9345  0.2029 -0.7390
  451MOL0     H62225   0.276   1.480   1.312 -3.2805 -2.0563 -0.1817
  451MOL0     H62226   0.118   1.691   1.161 -0.7660  1.3263 -1.6886
  451MOL0     H62227   0.104   1.636   0.998  2.0781  1.1117  1.2847
  451MOL0     H62228  -0.138   1.578   1.037  0.3973 -0.3884  0.4953
  451MOL0     H62229  -0.122   1.744   1.071 -3.3814 -0.1590  0.7113
  451MOL0     H62230  -0.117   1.532   1.292 -1.3566 -1.2466 -0.8684
  451MOL0     H62231  -0.102   1.709   1.316 -2.7576 -0.9718  2.8585
  451MOL0     H62232  -0.319   1.746   1.219  0.8244 -0.9008  0.1302
  451MOL0     H62233  -0.334   1.638   1.363  1.1816 -0.1768  0.7963
  451MOL0     H62234  -0.464   1.380   1.074 -0.9576  1.5366 -2.7304
  451MOL0     H62235   0.165   1.375   0.903  0.9515 -1.4333 -0.7199
  451MOL0     H62236   0.326   1.279   0.732  1.1794 -3.6678  0.3203
  451MOL0     H62237   0.485   1.368   0.777  2.1294 -0.2493  2.3509
  451MOL0     H62238   0.458   1.208   0.815 -1.1387 -0.3830 -2.6422
  452MOL0     O62239   6.208   2.695   0.084 -0.3490 -0.6190 -0.4605
  452MOL0     C62240   6.147   2.774   0.009  0.5312 -0.0275  0.5654
  452MOL0     O62241   6.207   2.838  -0.089  0.0405 -0.5225 -0.4724
  452MOL0     C62242   6.339   2.833  -0.131  0.0844  0.2924  0.3922
  452MOL0     C62243   6.414   2.940  -0.184  1.1672 -0.6865  0.2189
  452MOL0     C62244   6.539   2.912  -0.250  0.1389 -0.1503  0.1017
  452MOL0     C62245   6.602   2.790  -0.242  0.1332 -0.6264  0.2483
  452MOL0     O62246   6.728   2.794  -0.280 -0.8958  0.6652  0.0331
  452MOL0     C62247   6.824   2.700  -0.229  0.0650 -0.5974  0.2684
  452MOL0     C62248   6.857   2.726  -0.077  0.3867 -0.2458  0.4312
  452MOL0     C62249   6.948   2.841  -0.051 -0.5012 -1.3926  0.2217
  452MOL0     C62250   6.891   2.979  -0.040 -0.4329 -0.6105  0.3215
  452MOL0     C62251   6.960   3.076  -0.142  0.6547 -0.0551  0.2370
  452MOL0     C62252   6.902   3.221  -0.151  0.0916 -1.1042 -0.4631
  452MOL0     C62253   6.905   3.297  -0.016 -0.1944  0.1049  0.2363
  452MOL0     C62254   6.858   3.441  -0.026  0.0554 -0.6901  0.1899
  452MOL0     N62255   6.839   3.486   0.105 -0.3184 -0.9724 -0.1947
  452MOL0     C62256   6.721   3.483   0.178 -0.3925 -0.1480  0.9925
  452MOL0     C62257   6.743   3.538   0.297 -0.1912 -0.0948  0.3544
  452MOL0     C62258   6.637   3.552   0.404 -0.1176  0.7816  0.4202
  452MOL0     C62259   6.670   3.668   0.508 -0.4711  0.4460 -0.3275
  452MOL0     C62260   6.565   3.688   0.616 -0.0265  0.7081 -0.2821
  452MOL0     C62261   6.556   3.577   0.725  0.5975 -0.2960  0.1943
  452MOL0     O62262   6.478   3.467   0.668 -0.5764  0.1259 -0.6388
  452MOL0     C62263   6.341   3.475   0.668  0.9967  0.3659 -0.3726
  452MOL0     C62264   6.251   3.565   0.739  0.6436  0.2549  1.1498
  452MOL0     C62265   6.109   3.556   0.725 -0.5851  0.7955  0.4305
  452MOL0     C62266   6.030   3.657   0.801  0.8025  0.3183 -0.7581
  452MOL0     C62267   6.049   3.462   0.632 -0.1558  0.3866 -0.8860
  452MOL0     C62268   5.904   3.450   0.605  0.4615  0.1511 -0.1476
  452MOL0     O62269   5.860   3.333   0.550  0.8074 -0.1018 -0.1464
  452MOL0     C62270   5.721   3.325   0.553 -0.6298  0.3601  0.7793
  452MOL0     C62271   5.643   3.379   0.449 -1.1282  0.2655 -0.3757
  452MOL0     C62272   5.510   3.353   0.447 -0.9956 -0.2614 -0.1588
  452MOL0     C62273   5.443   3.286   0.548 -0.0533  0.8138  0.2338
  452MOL0     O62274   5.309   3.259   0.541  0.1032 -0.6345  0.0992
  452MOL0     C62275   5.220   3.350   0.609 -0.4100  0.5437  0.1803
  452MOL0     C62276   5.214   3.335   0.756 -0.4326 -0.0886 -0.7601
  452MOL0     C62277   5.115   3.241   0.813  0.1300  0.3323 -0.0536
  452MOL0     C62278   5.118   3.223   0.970  0.0058 -0.1379 -0.0432
  452MOL0     C62279   5.025   3.114   1.017  0.4837 -0.2759  0.2373
  452MOL0     C62280   4.879   3.150   0.978 -0.1073  0.3052 -0.2278
  452MOL0     C62281   4.776   3.072   1.056 -0.2538 -0.0704 -0.3952
  452MOL0     C62282   4.758   3.119   1.201 -0.0545  0.3154  0.6515
  452MOL0    Cl62283   4.620   3.042   1.272 -0.5057  0.1173  0.0062
  452MOL0     C62284   5.518   3.244   0.659 -0.0917  0.2191 -0.0656
  452MOL0     C62285   5.653   3.265   0.658 -0.2497  0.1180 -0.7634
  452MOL0     O62286   5.833   3.546   0.625  0.4652  0.1404  0.0781
  452MOL0     C62287   6.135   3.367   0.573  0.2164  1.1493 -1.3415
  452MOL0     C62288   6.269   3.367   0.603 -0.0126 -0.2183 -0.5078
  452MOL0     N62289   6.874   3.589   0.299  0.3470 -0.0737 -0.1564
  452MOL0     N62290   6.930   3.560   0.188  0.3104 -0.1946  0.5544
  452MOL0     C62291   6.526   2.680  -0.204  1.0631  0.0737 -0.6207
  452MOL0     C62292   6.396   2.703  -0.147  1.4117  0.1126 -0.3942
  452MOL0     C62293   6.005   2.803   0.029  0.4548 -0.2457  0.0463
  452MOL0     C62294   5.939   2.908  -0.040 -0.4163  0.4658 -0.8938
  452MOL0     C62295   5.806   2.943  -0.025 -0.1331 -1.2443 -0.3754
  452MOL0     C62296   5.722   2.875   0.059 -0.0119 -0.2927  0.1897
  452MOL0     O62297   5.587   2.902   0.078  0.2024  0.7596 -0.2713
  452MOL0     C62298   5.522   3.013   0.013 -0.0568 -0.1672 -0.0798
  452MOL0     C62299   5.383   3.023   0.068  0.2148  0.8924 -0.6871
  452MOL0     C62300   5.287   2.907   0.034  0.1442  0.4488  0.6225
  452MOL0     C62301   5.145   2.950   0.006  0.2137  0.5670 -1.0615
  452MOL0     C62302   5.058   2.831  -0.007 -0.1076  0.0776 -0.7681
  452MOL0     C62303   4.983   2.736  -0.003 -0.0288 -0.0229 -0.3502
  452MOL0     C62304   5.783   2.769   0.133 -0.0799 -0.2819  0.9198
  452MOL0     C62305   5.919   2.730   0.118  0.7219 -0.7760 -0.3652
  452MOL0     C62306   5.953   2.613   0.200 -0.1909 -0.4959  0.5674
  452MOL0     H62307   6.376   3.042  -0.173  2.4420 -0.2300  0.6000
  452MOL0     H62308   6.588   3.000  -0.289  1.0968 -1.2783 -1.3684
  452MOL0     H62309   6.919   2.688  -0.281  1.2353  0.4385  2.0559
  452MOL0     H62310   6.775   2.603  -0.226  1.8204 -1.6336 -1.9609
  452MOL0     H62311   6.769   2.718  -0.013 -0.3013  3.4742  0.1683
  452MOL0     H62312   6.922   2.640  -0.054 -0.4459 -0.5138  1.8943
  452MOL0     H62313   7.019   2.830   0.031  0.4282  0.2780 -0.3120
  452MOL0     H62314   7.012   2.844  -0.139 -3.5632 -1.8759 -2.2167
  452MOL0     H62315   6.783   2.970  -0.048 -0.7206  2.7451 -1.2158
  452MOL0     H62316   6.908   3.027   0.057 -0.5199  0.0960 -0.0118
  452MOL0     H62317   6.960   3.026  -0.239  0.8183 -1.1525  0.7988
  452MOL0     H62318   7.067   3.081  -0.118  0.3837 -1.7043  2.0451
  452MOL0     H62319   6.958   3.270  -0.232  0.1904 -0.2434  0.1145
  452MOL0     H62320   6.801   3.222  -0.194  0.3871 -2.7009 -1.2697
  452MOL0     H62321   7.006   3.296   0.024  0.5172 -4.8377 -1.0414
  452MOL0     H62322   6.840   3.243   0.053 -0.9330 -0.0108 -0.5190
  452MOL0     H62323   6.932   3.506  -0.075 -1.5624  4.3810  3.6705
  452MOL0     H62324   6.762   3.451  -0.076 -0.8318  3.2133  2.3124
  452MOL0     H62325   6.630   3.438   0.141 -0.3845  2.8441 -3.4665
  452MOL0     H62326   6.637   3.456   0.455  2.6966  0.5106  0.0503
  452MOL0     H62327   6.537   3.572   0.365  0.7983  2.6544 -1.1631
  452MOL0     H62328   6.765   3.653   0.561 -0.8133  3.6833  1.4518
  452MOL0     H62329   6.678   3.754   0.442 -0.1714  0.0715 -0.7853
  452MOL0     H62330   6.591   3.781   0.666 -1.8310  0.7382  0.6887
  452MOL0     H62331   6.469   3.706   0.566 -0.5893 -1.4139 -0.0874
  452MOL0     H62332   6.657   3.548   0.756 -0.2644  0.0198  3.7474
  452MOL0     H62333   6.512   3.617   0.816  0.7975 -0.9091  0.5632
  452MOL0     H62334   6.293   3.645   0.800 -0.0311  0.8477  0.8456
  452MOL0     H62335   6.087   3.712   0.877  2.1449  0.3796 -1.7727
  452MOL0     H62336   5.958   3.610   0.868  0.3930  2.3907  0.3599
  452MOL0     H62337   5.978   3.726   0.734  1.8770  0.1958 -1.7443
  452MOL0     H62338   5.699   3.429   0.370  1.9605 -2.3900 -0.0917
  452MOL0     H62339   5.449   3.394   0.368  1.8966  4.5339 -0.2659
  452MOL0     H62340   5.255   3.450   0.582  0.0889  0.0438 -1.1204
  452MOL0     H62341   5.118   3.336   0.572  0.4862 -1.5400 -1.7311
  452MOL0     H62342   5.315   3.317   0.793  0.8562 -1.2932 -4.4242
  452MOL0     H62343   5.182   3.427   0.806 -0.2212 -1.1532  1.4448
  452MOL0     H62344   5.118   3.146   0.759 -0.4569  1.0385 -1.4028
  452MOL0     H62345   5.018   3.286   0.789  0.7277  1.8427  0.2236
  452MOL0     H62346   5.105   3.321   1.016  1.9220  0.2180 -0.1777
  452MOL0     H62347   5.221   3.191   0.989 -1.0094 -1.8997  3.2347
  452MOL0     H62348   5.049   3.020   0.967  1.3506 -0.6075  1.2454
  452MOL0     H62349   5.034   3.097   1.125  2.1503 -0.0090  0.1753
  452MOL0     H62350   4.867   3.142   0.870  2.2856  0.4400 -0.5705
  452MOL0     H62351   4.859   3.251   1.015  2.1270  0.4163  0.8811
  452MOL0     H62352   4.819   2.971   1.057  0.8386  0.3724 -0.7148
  452MOL0     H62353   4.683   3.080   1.001  0.1892 -1.1942 -1.3449
  452MOL0     H62354   4.733   3.225   1.205  0.2814  0.4875 -0.9721
  452MOL0     H62355   4.845   3.106   1.267 -1.0557  1.5265  2.2610
  452MOL0     H62356   5.462   3.188   0.733  0.5602 -0.8478 -0.3702
  452MOL0     H62357   5.703   3.233   0.748 -1.2082  1.6388  0.3580
  452MOL0     H62358   6.092   3.281   0.523 -0.4197  0.8550 -0.3162
  452MOL0     H62359   6.328   3.277   0.588  0.2756 -0.5975  2.3715
  452MOL0     H62360   6.579   2.586  -0.197  0.2974 -0.2380  2.6149
  452MOL0     H62361   6.332   2.621  -0.116 -0.3091  1.4392 -0.2889
  452MOL0     H62362   6.005   2.963  -0.106 -0.1202  1.2487  0.0182
  452MOL0     H62363   5.771   3.028  -0.082 -1.0672 -0.8079  0.7826
  452MOL0     H62364   5.580   3.102   0.039  1.5573 -1.4062  0.7162
  452MOL0     H62365   5.523   3.004  -0.096  1.0033  3.0130 -0.4590
  452MOL0     H62366   5.337   3.118   0.037 -0.4106 -0.0478 -2.8110
  452MOL0     H62367   5.392   3.031   0.177 -0.2214  2.1420 -0.7206
  452MOL0     H62368   5.319   2.864  -0.061 -1.8849  0.6527 -0.2055
  452MOL0     H62369   5.294   2.827   0.108  0.9184 -0.1357 -0.0619
  452MOL0     H62370   5.157   3.015  -0.081  1.6412 -0.6598 -1.8277
  452MOL0     H62371   5.110   3.012   0.089  0.9689  0.7249 -0.8566
  452MOL0     H62372   4.910   2.658  -0.006 -0.7829  0.6467 -0.0047
  452MOL0     H62373   5.724   2.704   0.197  0.3569 -2.9236 -1.1996
  452MOL0     H62374   6.045   2.636   0.254  0.4097  0.0579 -0.6659
  452MOL0     H62375   5.883   2.606   0.285  1.4247  0.3569  2.0262
  452MOL0     H62376   5.949   2.514   0.153 -0.3353 -1.0168  1.6300
  453MOL0     O62377   9.277   7.897   8.423 -0.3789  0.2099  0.0527
  453MOL0     C62378   9.177   7.882   8.490  0.9589 -0.4607 -0.1708
  453MOL0     O62379   9.175   7.893   8.624  0.8030  0.2679  0.3840
  453MOL0     C62380   9.279   7.948   8.684 -0.1383 -0.2513 -0.0770
  453MOL0     C62381   9.410   7.882   8.690  0.1872 -0.3893 -0.1521
  453MOL0     C62382   9.518   7.945   8.751  1.2895  0.6314  0.4346
  453MOL0     C62383   9.509   8.073   8.797  1.1546 -0.7905 -0.7317
  453MOL0     O62384   9.622   8.123   8.862 -0.2436  0.0723  0.4391
  453MOL0     C62385   9.600   8.214   8.976 -0.2958  0.0154  1.3949
  453MOL0     C62386   9.736   8.264   9.018 -0.2457  0.8097 -0.0959
  453MOL0     C62387   9.830   8.170   9.080 -0.1398  0.0052  0.1604
  453MOL0     C62388   9.918   8.237   9.183 -0.6750  0.4704 -0.1021
  453MOL0     C62389   9.856   8.259   9.322 -0.3370  0.2775  0.6476
  453MOL0     C62390   9.964   8.321   9.409  0.4996  0.0034 -1.0364
  453MOL0     C62391   9.940   8.299   9.552 -0.2389  0.0527  0.1328
  453MOL0     C62392   9.995   8.417   9.641  0.1683 -0.1725 -0.4211
  453MOL0     N62393  10.140   8.431   9.644 -0.2431  0.5498  0.0731
  453MOL0     C62394  10.224   8.404   9.754  0.8316 -0.8466  0.0833
  453MOL0     C62395  10.336   8.460   9.709  0.1467  0.7818 -0.2516
  453MOL0     C62396  10.472   8.454   9.763 -0.1583 -0.2838  0.8116
  453MOL0     C62397  10.528   8.306   9.758  0.1036 -0.1465 -0.4971
  453MOL0     C62398  10.678   8.307   9.777  1.2814 -0.2719 -0.9900
  453MOL0     C62399  10.735   8.171   9.769  0.1409  0.5441  0.3185
  453MOL0     O62400  10.854   8.179   9.849  0.4483  0.3089 -0.4140
  453MOL0     C62401  10.967   8.222   9.783 -0.0790 -0.8612 -0.0440
  453MOL0     C62402  10.969   8.265   9.647 -0.1532 -0.1765 -0.2945
  453MOL0     C62403  11.088   8.308   9.590  0.1942 -0.5421  0.3146
  453MOL0     C62404  11.095   8.350   9.446  0.0384 -0.4507 -0.4265
  453MOL0     C62405  11.204   8.307   9.676  0.4571  0.2418 -0.3224
  453MOL0     C62406  11.339   8.356   9.625  0.2355 -0.0618 -0.2230
  453MOL0     O62407  11.362   8.366   9.488 -0.2604  1.1970 -0.5962
  453MOL0     C62408  11.474   8.434   9.445 -1.1112 -0.7344  0.5004
  453MOL0     C62409  11.603   8.425   9.506  0.1437 -0.0239  0.4314
  453MOL0     C62410  11.707   8.494   9.449  0.3583  0.1256  0.2579
  453MOL0     C62411  11.695   8.579   9.342 -0.2663 -0.6692  0.2982
  453MOL0     O62412  11.798   8.664   9.308  0.2496  0.4698 -0.0677
  453MOL0     C62413  11.761   8.791   9.261  0.3532 -0.7516  0.2484
  453MOL0     C62414  11.880   8.888   9.249 -0.8631  0.0500 -0.4282
  453MOL0     C62415  11.983   8.854   9.146  0.7291  0.1457 -0.7039
  453MOL0     C62416  12.073   8.968   9.123  0.1929 -0.8785  0.5594
  453MOL0     C62417  12.173   8.934   9.009 -0.7590  0.0911  0.0431
  453MOL0     C62418  12.285   8.848   9.046 -0.2123 -0.4651  0.0696
  453MOL0     C62419  12.372   8.805   8.932  0.4747 -0.3859  0.1617
  453MOL0     C62420  12.459   8.918   8.892 -0.7293  0.3715 -0.0387
  453MOL0    Cl62421  12.531   8.884   8.734 -0.0972 -0.0547 -0.0962
  453MOL0     C62422  11.573   8.585   9.279 -0.8734  0.1331 -0.2998
  453MOL0     C62423  11.468   8.512   9.332  0.6040 -0.0618  0.2148
  453MOL0     O62424  11.419   8.384   9.718 -0.0634 -0.1332 -0.0010
  453MOL0     C62425  11.198   8.258   9.808 -0.7208 -0.3245  0.2500
  453MOL0     C62426  11.079   8.219   9.859 -0.0286 -0.5098 -0.4332
  453MOL0     N62427  10.319   8.542   9.595  0.4292  0.2520  0.2315
  453MOL0     N62428  10.201   8.515   9.557 -0.1816  0.6602  0.3717
  453MOL0     C62429   9.385   8.145   8.783 -0.5141  0.5882 -0.3160
  453MOL0     C62430   9.271   8.082   8.726 -0.2018 -0.1290 -0.1663
  453MOL0     C62431   9.049   7.863   8.421 -0.0329 -0.9053  0.1562
  453MOL0     C62432   8.934   7.852   8.495  0.5652 -0.0960 -1.3112
  453MOL0     C62433   8.801   7.859   8.442 -0.8371  0.1183 -0.4566
  453MOL0     C62434   8.779   7.871   8.305 -0.8908 -0.2379  0.5034
  453MOL0     O62435   8.650   7.876   8.269  0.6325  0.1613 -0.0328
  453MOL0     C62436   8.623   7.972   8.167 -1.0317 -0.0178  0.1100
  453MOL0     C62437   8.469   7.986   8.156  0.3322 -0.3319  1.1127
  453MOL0     C62438   8.406   8.077   8.277  0.6799 -0.7550 -0.3516
  453MOL0     C62439   8.259   8.106   8.244 -0.7135  0.4113  0.2620
  453MOL0     C62440   8.197   8.166   8.357  0.0698 -0.4298 -0.7588
  453MOL0     C62441   8.139   8.205   8.460  0.0868 -0.2407 -0.4221
  453MOL0     C62442   8.897   7.873   8.218  0.0636 -0.8497 -0.3310
  453MOL0     C62443   9.026   7.867   8.272  0.0589 -0.6100 -0.7261
  453MOL0     C62444   9.135   7.880   8.172 -0.2260  0.0808  0.1123
  453MOL0     H62445   9.415   7.786   8.639 -1.1755 -1.0162  0.8334
  453MOL0     H62446   9.619   7.905   8.755  0.0909 -3.0248 -1.0695
  453MOL0     H62447   9.551   8.158   9.056 -0.5919 -0.7135  0.7124
  453MOL0     H62448   9.542   8.300   8.941  2.3617  0.9967 -0.9888
  453MOL0     H62449   9.790   8.303   8.931  0.3288 -0.9750 -0.5935
  453MOL0     H62450   9.718   8.353   9.079 -2.5266 -0.9608  1.9916
  453MOL0     H62451   9.760   8.100   9.127 -1.6067  1.1707 -0.2155
  453MOL0     H62452   9.893   8.120   9.006  0.1228 -0.7271  0.8687
  453MOL0     H62453   9.993   8.157   9.181 -0.1141  0.9970 -1.7935
  453MOL0     H62454   9.946   8.333   9.139 -0.1042  0.4113  0.1191
  453MOL0     H62455   9.811   8.166   9.358 -1.1610  0.6181  0.5267
  453MOL0     H62456   9.770   8.324   9.306 -0.6041  0.1144  1.3815
  453MOL0     H62457  10.049   8.267   9.367 -0.7590 -1.7612 -1.4199
  453MOL0     H62458   9.968   8.429   9.393  0.0018  0.1442 -0.2366
  453MOL0     H62459   9.993   8.207   9.580  0.3303  0.5032  0.5394
  453MOL0     H62460   9.833   8.290   9.571 -0.1804 -0.6451  0.1861
  453MOL0     H62461   9.946   8.510   9.610 -0.6290 -0.0907  0.9943
  453MOL0     H62462   9.966   8.401   9.745  2.9894 -0.5456  0.3878
  453MOL0     H62463  10.194   8.362   9.850 -3.5093  2.5315  0.5025
  453MOL0     H62464  10.485   8.476   9.869  1.4172 -0.1958  0.6159
  453MOL0     H62465  10.531   8.518   9.697  1.1025 -1.1585  1.0567
  453MOL0     H62466  10.476   8.261   9.843 -0.4190  1.3018 -0.0196
  453MOL0     H62467  10.498   8.259   9.664 -1.4348 -2.2058  0.9456
  453MOL0     H62468  10.722   8.370   9.698  0.0357  0.3377 -1.2152
  453MOL0     H62469  10.691   8.344   9.879 -1.9091  1.4484 -1.0955
  453MOL0     H62470  10.655   8.104   9.802  1.1723 -1.7258 -1.4848
  453MOL0     H62471  10.751   8.145   9.664 -2.0116  0.2661  0.0041
  453MOL0     H62472  10.879   8.272   9.587 -1.0048  1.4988  1.0886
  453MOL0     H62473  11.156   8.281   9.386 -1.5806 -1.1649 -1.3336
  453MOL0     H62474  11.135   8.451   9.441  1.5399 -1.0328 -0.6815
  453MOL0     H62475  10.999   8.358   9.393 -0.4754  1.6856  0.7525
  453MOL0     H62476  11.621   8.361   9.592  3.7383  0.6116  0.3275
  453MOL0     H62477  11.807   8.483   9.489  0.5477 -0.1593 -0.2857
  453MOL0     H62478  11.732   8.782   9.156  1.0606  1.6044 -0.1937
  453MOL0     H62479  11.673   8.841   9.304 -0.1079  0.8137 -2.3402
  453MOL0     H62480  11.834   8.985   9.227  0.3082  0.1320 -2.8009
  453MOL0     H62481  11.931   8.897   9.346  1.2091 -0.8063 -1.3809
  453MOL0     H62482  11.939   8.822   9.051 -1.1896 -3.0309  1.0895
  453MOL0     H62483  12.048   8.770   9.170 -1.4513 -0.7971  2.5295
  453MOL0     H62484  12.127   8.995   9.214 -0.2683  2.5263 -0.0260
  453MOL0     H62485  12.002   9.048   9.099 -0.8479 -2.9216 -4.2145
  453MOL0     H62486  12.120   8.891   8.923  0.7775  0.3734 -1.0918
  453MOL0     H62487  12.215   9.028   8.973 -0.3567  0.8075  2.2752
  453MOL0     H62488  12.250   8.752   9.085  2.4951 -1.8970 -0.7832
  453MOL0     H62489  12.337   8.894   9.130  0.3243 -1.2237  0.1591
  453MOL0     H62490  12.319   8.780   8.839  1.6283 -0.9979 -0.3624
  453MOL0     H62491  12.433   8.719   8.962  1.5760 -0.3370 -1.7250
  453MOL0     H62492  12.536   8.933   8.969  1.2024 -0.8214 -1.6064
  453MOL0     H62493  12.403   9.012   8.887  1.8165  1.9565 -0.7387
  453MOL0     H62494  11.559   8.654   9.196 -0.6400  2.2151  1.2949
  453MOL0     H62495  11.365   8.526   9.301  0.5657  1.9009  1.0577
  453MOL0     H62496  11.281   8.268   9.878  0.2786  1.3107 -1.0911
  453MOL0     H62497  11.068   8.174   9.957  0.7745  1.3442  0.5458
  453MOL0     H62498   9.375   8.242   8.831  0.3443 -0.2953  1.7957
  453MOL0     H62499   9.180   8.134   8.697 -0.7853 -0.7107  0.5958
  453MOL0     H62500   8.936   7.841   8.603  1.9934  0.3518 -1.2638
  453MOL0     H62501   8.717   7.873   8.509  0.0985 -2.0766  1.3016
  453MOL0     H62502   8.676   8.063   8.199  1.2450 -1.7545  1.5816
  453MOL0     H62503   8.660   7.942   8.068  2.0711  2.1933  0.4539
  453MOL0     H62504   8.413   7.895   8.181 -1.3642  0.4608  0.3801
  453MOL0     H62505   8.432   7.997   8.054  0.1657 -1.6012  1.0216
  453MOL0     H62506   8.404   8.041   8.380 -6.3340 -1.3797 -0.1917
  453MOL0     H62507   8.451   8.176   8.277  2.7038 -1.6364  0.1508
  453MOL0     H62508   8.205   8.017   8.209 -0.9441  0.2740  0.9620
  453MOL0     H62509   8.258   8.176   8.160 -3.5819  1.9987  1.4887
  453MOL0     H62510   8.081   8.240   8.544 -2.5722 -4.2611 -0.2911
  453MOL0     H62511   8.878   7.879   8.111 -1.1659  1.5142 -0.0582
  453MOL0     H62512   9.176   7.980   8.159 -0.2220 -0.1844 -2.2542
  453MOL0     H62513   9.213   7.808   8.200  0.8361  0.7888 -0.9328
  453MOL0     H62514   9.102   7.850   8.072 -1.2547  1.2222  0.0897
  454MOL0     O62515   4.118   9.332  10.427  0.3576  0.3454 -0.2311
  454MOL0     C62516   4.118   9.446  10.380  0.4516  0.3530  0.2235
  454MOL0     O62517   4.205   9.548  10.417  0.6437 -0.0802 -0.1949
  454MOL0     C62518   4.328   9.515  10.458 -0.6070 -0.1698 -0.7324
  454MOL0     C62519   4.352   9.502  10.592 -0.3086  0.1061  0.1240
  454MOL0     C62520   4.483   9.469  10.637 -0.0508  0.2510  0.2749
  454MOL0     C62521   4.595   9.464  10.553  0.2970  0.2383 -0.3900
  454MOL0     O62522   4.716   9.436  10.613  0.1134 -0.6216 -0.2467
  454MOL0     C62523   4.818   9.371  10.533 -0.0653 -0.3679 -0.1887
  454MOL0     C62524   4.929   9.327  10.626 -0.5589  0.3596  0.2407
  454MOL0     C62525   5.059   9.311  10.551 -0.5565 -0.5065 -0.1070
  454MOL0     C62526   5.157   9.253  10.659 -0.9141  0.4411  0.3879
  454MOL0     C62527   5.295   9.276  10.594  0.4068 -0.5275 -0.2596
  454MOL0     C62528   5.408   9.225  10.681  0.5194  0.3770  0.8167
  454MOL0     C62529   5.410   9.086  10.736  0.2412  0.2019  0.4596
  454MOL0     C62530   5.552   9.058  10.785  0.0951 -0.3101  0.5801
  454MOL0     N62531   5.647   9.007  10.686 -0.9125 -0.3757 -0.8522
  454MOL0     C62532   5.783   9.016  10.711  0.8004  0.0339 -1.0490
  454MOL0     C62533   5.837   8.924  10.630 -0.7792  0.2003  0.5983
  454MOL0     C62534   5.981   8.894  10.613 -0.1673  1.2853  0.0801
  454MOL0     C62535   5.999   8.741  10.608 -0.0300  0.1849  0.1997
  454MOL0     C62536   6.143   8.707  10.560  0.6120 -1.2372  0.5006
  454MOL0     C62537   6.247   8.750  10.657  0.3681  0.2472  1.0563
  454MOL0     O62538   6.377   8.712  10.616 -0.7339 -0.2317  0.0497
  454MOL0     C62539   6.487   8.768  10.677 -0.1742  0.4041  0.5762
  454MOL0     C62540   6.615   8.716  10.637 -0.0648 -0.2056 -0.4007
  454MOL0     C62541   6.735   8.763  10.691 -0.5851  0.2388 -0.5699
  454MOL0     C62542   6.869   8.718  10.637  0.2303 -0.1897 -0.3093
  454MOL0     C62543   6.727   8.870  10.783  0.5592 -0.2045 -0.4101
  454MOL0     C62544   6.843   8.936  10.844  1.0670 -0.2917  0.1015
  454MOL0     O62545   6.931   8.856  10.901 -0.1045  0.0354 -0.1915
  454MOL0     C62546   7.052   8.909  10.944  0.2956  0.3852  0.0159
  454MOL0     C62547   7.168   8.915  10.855  0.2993  0.2902  0.2650
  454MOL0     C62548   7.291   8.956  10.902 -0.2901  0.2704  0.1992
  454MOL0     C62549   7.298   9.004  11.033  0.5686 -0.6000  0.2271
  454MOL0     O62550   7.424   9.041  11.068 -0.5071  0.2541 -0.5605
  454MOL0     C62551   7.442   9.157  11.155 -0.6418  0.6271 -0.7799
  454MOL0     C62552   7.588   9.188  11.174  0.5531 -0.5704  0.0247
  454MOL0     C62553   7.665   9.218  11.044 -0.5723 -0.3786 -0.2235
  454MOL0     C62554   7.804   9.265  11.087 -0.0619 -0.7587  0.4534
  454MOL0     C62555   7.896   9.267  10.963  0.2247  0.2108 -0.2996
  454MOL0     C62556   8.016   9.367  10.975  0.4300 -0.3403 -0.2729
  454MOL0     C62557   8.132   9.347  10.870  0.6054  0.4432  0.1116
  454MOL0     C62558   8.167   9.468  10.793 -0.8373 -0.7097 -0.0884
  454MOL0    Cl62559   8.227   9.597  10.902 -0.1001 -0.6045  0.0458
  454MOL0     C62560   7.186   8.999  11.122  0.2258  0.0513 -0.4014
  454MOL0     C62561   7.065   8.960  11.073  0.0377  1.1206 -0.6328
  454MOL0     O62562   6.850   9.058  10.834  0.1975  0.0107 -0.1931
  454MOL0     C62563   6.601   8.916  10.822 -0.3990 -0.5816 -0.1258
  454MOL0     C62564   6.479   8.868  10.769  0.8236  0.0767 -0.1568
  454MOL0     N62565   5.738   8.874  10.542 -0.1046 -0.3585 -0.1236
  454MOL0     N62566   5.618   8.917  10.589 -1.2626  0.1039  0.2824
  454MOL0     C62567   4.566   9.486  10.418 -0.1928  1.1954 -0.2288
  454MOL0     C62568   4.435   9.513  10.368 -0.0901 -0.5235 -0.9339
  454MOL0     C62569   4.010   9.477  10.290  0.0619 -1.3837 -0.5151
  454MOL0     C62570   3.954   9.603  10.289  0.2670 -1.2083 -0.2719
  454MOL0     C62571   3.856   9.648  10.196  0.0673 -0.1237  0.0654
  454MOL0     C62572   3.815   9.569  10.090  0.4153  1.0219 -0.9855
  454MOL0     O62573   3.724   9.612   9.989  0.0945 -0.3008 -0.5226
  454MOL0     C62574   3.704   9.536   9.863 -0.3124  0.6619 -0.4991
  454MOL0     C62575   3.597   9.599   9.779  0.9790  0.2802  0.0047
  454MOL0     C62576   3.465   9.609   9.859 -0.2223  0.2275 -0.2491
  454MOL0     C62577   3.340   9.641   9.777 -0.2435  0.4260  0.1861
  454MOL0     C62578   3.341   9.788   9.759  0.9521  0.9128 -0.2577
  454MOL0     C62579   3.331   9.912   9.746  0.4200  0.3305  0.6369
  454MOL0     C62580   3.866   9.439  10.088  0.0558 -0.6009 -0.6318
  454MOL0     C62581   3.965   9.399  10.181 -0.0813  0.0795 -0.2811
  454MOL0     C62582   4.010   9.256  10.162  0.4933  0.3468 -0.0857
  454MOL0     H62583   4.271   9.524  10.661 -0.0605  1.8279 -0.0881
  454MOL0     H62584   4.500   9.455  10.743  0.2216 -2.1829 -0.0446
  454MOL0     H62585   4.856   9.449  10.466 -0.3371 -0.4427 -0.4292
  454MOL0     H62586   4.767   9.291  10.480 -3.8862  2.2470 -0.8490
  454MOL0     H62587   4.938   9.400  10.707 -0.3822  0.8226 -0.1945
  454MOL0     H62588   4.898   9.228  10.661  1.6713 -0.7265 -0.6352
  454MOL0     H62589   5.045   9.255  10.458  0.5661 -0.6020 -0.2438
  454MOL0     H62590   5.092   9.411  10.521  1.8576 -0.6302  1.7653
  454MOL0     H62591   5.149   9.316  10.748 -0.9037  3.0354 -1.3644
  454MOL0     H62592   5.135   9.146  10.672  0.9298  0.0789  0.7757
  454MOL0     H62593   5.306   9.381  10.565 -0.6169 -1.0967 -2.9308
  454MOL0     H62594   5.299   9.224  10.498 -2.4500 -0.3644 -0.5261
  454MOL0     H62595   5.502   9.256  10.634  0.0866 -0.2199 -0.4790
  454MOL0     H62596   5.404   9.282  10.774  0.3835  0.0135  1.0355
  454MOL0     H62597   5.379   9.009  10.665 -0.1327 -0.2242  1.0772
  454MOL0     H62598   5.341   9.077  10.820  0.5054 -0.5594  0.6099
  454MOL0     H62599   5.590   9.149  10.832 -0.6208 -0.2573  1.0682
  454MOL0     H62600   5.535   8.987  10.866 -0.3133 -1.7730 -0.7456
  454MOL0     H62601   5.832   9.080  10.784 -0.1718 -0.9756  0.5321
  454MOL0     H62602   6.038   8.925  10.701 -0.6432 -0.0979  0.8979
  454MOL0     H62603   6.026   8.948  10.529  0.7878  1.3323  0.6050
  454MOL0     H62604   5.977   8.702  10.708 -0.7396  0.2204  0.0570
  454MOL0     H62605   5.929   8.692  10.540  1.3975  1.2316 -2.1343
  454MOL0     H62606   6.151   8.598  10.549  3.5465 -1.3418  2.4962
  454MOL0     H62607   6.155   8.751  10.461 -1.2279 -1.0064  0.3367
  454MOL0     H62608   6.252   8.859  10.661  2.8817  0.2920 -0.6841
  454MOL0     H62609   6.233   8.717  10.760 -1.1491 -0.1818  0.7252
  454MOL0     H62610   6.597   8.652  10.551  0.9727  2.3183 -2.6266
  454MOL0     H62611   6.945   8.794  10.619 -0.6369  0.8430  0.3402
  454MOL0     H62612   6.859   8.662  10.543  0.5785  0.7898 -0.9379
  454MOL0     H62613   6.918   8.651  10.708 -1.6602  0.1957  1.4359
  454MOL0     H62614   7.164   8.908  10.747  0.3272 -2.6921  0.3960
  454MOL0     H62615   7.381   8.967  10.843  0.8335 -0.4683  1.7091
  454MOL0     H62616   7.397   9.247  11.112 -1.6872  1.0030  1.0376
  454MOL0     H62617   7.393   9.125  11.247 -2.2408 -0.5596 -1.9907
  454MOL0     H62618   7.605   9.272  11.241 -2.9462 -0.2301  0.7174
  454MOL0     H62619   7.623   9.092  11.213 -0.0592 -0.0866  1.8961
  454MOL0     H62620   7.616   9.303  10.996 -1.2654  0.1225  1.2938
  454MOL0     H62621   7.682   9.132  10.979  1.4987 -0.0322 -0.1947
  454MOL0     H62622   7.852   9.215  11.172  1.5886 -0.1811 -0.0941
  454MOL0     H62623   7.790   9.372  11.109 -2.3124 -1.5435  3.5982
  454MOL0     H62624   7.938   9.166  10.954  1.3573  0.7391 -1.2704
  454MOL0     H62625   7.838   9.292  10.873 -0.9092 -1.5949 -0.1088
  454MOL0     H62626   8.055   9.355  11.076 -1.6958 -1.3567  0.4933
  454MOL0     H62627   7.976   9.468  10.963  0.3721 -0.4153 -0.7301
  454MOL0     H62628   8.098   9.269  10.802  1.4691 -0.0790  0.2592
  454MOL0     H62629   8.226   9.323  10.921  2.0423  3.3490 -0.8833
  454MOL0     H62630   8.071   9.508  10.758 -0.6594  0.2765  0.5251
  454MOL0     H62631   8.237   9.465  10.709  1.8830  2.1298  1.8500
  454MOL0     H62632   7.192   9.036  11.224  2.5823  1.9806 -1.1644
  454MOL0     H62633   6.977   8.990  11.130  0.5624  0.1203  0.7463
  454MOL0     H62634   6.598   9.000  10.891  2.4589  0.2195 -0.8404
  454MOL0     H62635   6.393   8.918  10.811  1.6570 -0.0326  1.8051
  454MOL0     H62636   4.650   9.482  10.350  2.1613 -1.3867  2.5422
  454MOL0     H62637   4.415   9.525  10.261  0.5233  0.2497 -0.9647
  454MOL0     H62638   3.986   9.677  10.361  0.7986  0.5656 -2.2421
  454MOL0     H62639   3.813   9.747  10.203 -1.0678 -0.5374 -0.7644
  454MOL0     H62640   3.801   9.521   9.816  0.3337 -1.7721  1.4000
  454MOL0     H62641   3.679   9.434   9.893  1.3652  0.9921  2.4026
  454MOL0     H62642   3.579   9.557   9.680 -1.8797 -0.9415  0.9129
  454MOL0     H62643   3.645   9.694   9.757  1.6790 -0.4023 -1.5221
  454MOL0     H62644   3.454   9.510   9.905 -2.5724  0.9362  0.8858
  454MOL0     H62645   3.480   9.679   9.942  2.0313  1.5272 -1.6487
  454MOL0     H62646   3.250   9.613   9.833  0.1456  2.4477  1.9340
  454MOL0     H62647   3.347   9.594   9.679  2.0706  0.1852  0.4175
  454MOL0     H62648   3.350  10.016   9.728 -0.0443  0.1405 -1.1494
  454MOL0     H62649   3.834   9.361  10.019 -4.4876 -1.7017  2.2558
  454MOL0     H62650   3.943   9.197  10.225 -0.3596  1.4040  0.0183
  454MOL0     H62651   4.002   9.211  10.062  4.0332 -1.4225  0.2745
  454MOL0     H62652   4.117   9.253  10.186  0.8540  0.5633 -1.5442
  455MOL0     O62653   4.681   2.224   4.535 -0.0715  0.1199 -0.0441
  455MOL0     C62654   4.599   2.228   4.624 -0.6674 -0.6326 -0.5048
  455MOL0     O62655   4.621   2.274   4.745  0.0760 -0.0186 -1.0802
  455MOL0     C62656   4.747   2.312   4.776  0.4555  0.5938  0.0886
  455MOL0     C62657   4.774   2.445   4.775 -0.0803  0.1293  0.1052
  455MOL0     C62658   4.895   2.491   4.818 -0.4699 -0.2649  0.3154
  455MOL0     C62659   4.997   2.403   4.863 -0.1338  0.9475  0.2590
  455MOL0     O62660   5.112   2.447   4.916 -0.0582 -0.4235  0.4362
  455MOL0     C62661   5.228   2.367   4.918  0.1428  0.5810 -0.4802
  455MOL0     C62662   5.354   2.445   4.952 -0.5780  0.3934  0.4093
  455MOL0     C62663   5.345   2.514   5.085  0.0714  0.7289 -0.1880
  455MOL0     C62664   5.400   2.418   5.195 -0.1389 -0.9414 -0.6882
  455MOL0     C62665   5.414   2.499   5.320  0.1435  0.1929 -0.1371
  455MOL0     C62666   5.504   2.436   5.425  0.1148  0.5685 -0.4938
  455MOL0     C62667   5.527   2.535   5.540 -0.1486  0.8152 -0.8684
  455MOL0     C62668   5.572   2.454   5.665  0.2305  0.2588 -0.3414
  455MOL0     N62669   5.674   2.356   5.637  0.2017  0.1445  0.6612
  455MOL0     C62670   5.699   2.249   5.713  0.3404  0.9696  0.0827
  455MOL0     C62671   5.826   2.218   5.705 -1.0673  0.3952 -0.2813
  455MOL0     C62672   5.890   2.095   5.782  0.9504  0.3411 -0.3569
  455MOL0     C62673   6.009   2.129   5.866  0.4572  0.1544 -0.5180
  455MOL0     C62674   6.139   2.176   5.793 -0.3568  0.4915 -1.0825
  455MOL0     C62675   6.273   2.162   5.876 -0.4671 -0.2534 -0.6506
  455MOL0     O62676   6.311   2.026   5.904 -0.6230 -0.4165 -0.0911
  455MOL0     C62677   6.442   1.982   5.907  0.0529 -0.0783 -0.5858
  455MOL0     C62678   6.498   1.961   6.031 -0.7477  0.2075 -0.6269
  455MOL0     C62679   6.630   1.905   6.038  0.4744  0.4417 -1.4244
  455MOL0     C62680   6.680   1.869   6.177 -0.4409 -0.4704 -0.4407
  455MOL0     C62681   6.696   1.875   5.917  0.6160  0.1887 -0.3534
  455MOL0     C62682   6.834   1.825   5.917 -0.1236 -0.5688 -0.8480
  455MOL0     O62683   6.926   1.907   5.988  0.1195  0.5064  0.8875
  455MOL0     C62684   7.053   1.865   5.992  0.5387  0.1246 -0.1058
  455MOL0     C62685   7.140   1.921   5.901  0.0592  0.2671 -0.5061
  455MOL0     C62686   7.275   1.883   5.899 -0.7060  0.1316 -0.8923
  455MOL0     C62687   7.321   1.790   5.988 -0.6967  0.2922 -0.6839
  455MOL0     O62688   7.458   1.774   5.981 -0.2296 -0.3515  0.3813
  455MOL0     C62689   7.509   1.648   6.038  0.2565  0.2551  0.1587
  455MOL0     C62690   7.665   1.647   6.014  0.5801 -0.2700 -0.6658
  455MOL0     C62691   7.721   1.785   6.068 -0.1233 -0.2205  0.1766
  455MOL0     C62692   7.876   1.797   6.064  0.2179 -0.4270  0.2395
  455MOL0     C62693   7.929   1.789   5.919 -1.0008  0.3165  0.0431
  455MOL0     C62694   8.082   1.807   5.907  0.0456 -0.1328  0.2365
  455MOL0     C62695   8.130   1.807   5.754 -0.1539  0.0708 -0.2411
  455MOL0     C62696   8.274   1.866   5.751 -0.1915  0.8310 -0.1534
  455MOL0    Cl62697   8.321   1.871   5.581  0.3598 -0.0625 -0.2332
  455MOL0     C62698   7.232   1.732   6.085 -0.3678  0.3651 -0.3732
  455MOL0     C62699   7.100   1.775   6.089  0.7596  0.4108  1.0976
  455MOL0     O62700   6.856   1.723   5.855  0.8489  0.4534 -0.5393
  455MOL0     C62701   6.632   1.902   5.800 -0.1958  1.0068  0.2985
  455MOL0     C62702   6.509   1.958   5.792  0.0951 -0.5052  0.1629
  455MOL0     N62703   5.885   2.321   5.628  1.4328  0.1430  0.7888
  455MOL0     N62704   5.793   2.411   5.595 -0.2010 -0.1657 -0.1531
  455MOL0     C62705   4.974   2.266   4.849 -0.2354  0.5807  0.2418
  455MOL0     C62706   4.852   2.217   4.807 -0.3457 -0.8163 -0.1472
  455MOL0     C62707   4.466   2.176   4.603  0.4377 -0.2401 -0.0673
  455MOL0     C62708   4.407   2.109   4.707 -0.4869 -0.4639  0.1192
  455MOL0     C62709   4.278   2.057   4.698  0.8089 -0.6365 -0.2638
  455MOL0     C62710   4.208   2.068   4.582 -0.0152  0.4107  0.0243
  455MOL0     O62711   4.086   2.004   4.559 -0.0772  1.0877  0.0689
  455MOL0     C62712   4.020   1.934   4.668  0.2774 -0.7543  0.0185
  455MOL0     C62713   3.923   1.834   4.603  0.2231 -0.0768  0.2139
  455MOL0     C62714   3.790   1.896   4.588 -0.2715  0.6717 -0.0288
  455MOL0     C62715   3.703   1.782   4.542  0.8991  0.5347 -0.2986
  455MOL0     C62716   3.569   1.830   4.507  0.1917 -0.2025  0.1055
  455MOL0     C62717   3.458   1.873   4.474 -0.9294  0.3395  0.5224
  455MOL0     C62718   4.259   2.149   4.472  0.1413  0.3783 -0.1488
  455MOL0     C62719   4.392   2.201   4.484 -0.3064  0.2214 -0.4179
  455MOL0     C62720   4.443   2.278   4.363 -0.1781 -1.0218  0.3107
  455MOL0     H62721   4.703   2.514   4.730  2.0313  2.1553 -0.3127
  455MOL0     H62722   4.906   2.599   4.824  1.3918 -0.4910  1.8010
  455MOL0     H62723   5.236   2.310   4.826  1.4606 -1.1700  0.6478
  455MOL0     H62724   5.212   2.301   5.004  1.2307  1.4598  0.4255
  455MOL0     H62725   5.437   2.374   4.948 -0.8363  0.0507  1.0602
  455MOL0     H62726   5.358   2.508   4.862 -2.9055 -1.9297 -1.4864
  455MOL0     H62727   5.390   2.614   5.080  0.5197  0.4698 -1.9934
  455MOL0     H62728   5.240   2.540   5.103 -0.4419 -0.5441 -1.2274
  455MOL0     H62729   5.344   2.326   5.216  3.2449 -2.8326  0.9103
  455MOL0     H62730   5.500   2.381   5.167  0.5727 -0.0070  0.5150
  455MOL0     H62731   5.318   2.532   5.360 -0.7130 -2.3393  0.0478
  455MOL0     H62732   5.474   2.588   5.300  1.6281 -0.6506  0.4057
  455MOL0     H62733   5.456   2.351   5.474  0.5893  2.3145  3.3813
  455MOL0     H62734   5.594   2.396   5.377  0.4440  2.8560 -1.9457
  455MOL0     H62735   5.432   2.588   5.554  0.8932  2.2563  1.3271
  455MOL0     H62736   5.603   2.609   5.512  0.7534 -0.3839 -1.6893
  455MOL0     H62737   5.606   2.534   5.732 -2.8877  3.1535 -1.9406
  455MOL0     H62738   5.482   2.417   5.714 -0.6444  0.4822 -1.7217
  455MOL0     H62739   5.629   2.191   5.772  0.4363 -0.5847 -1.2599
  455MOL0     H62740   5.915   2.034   5.694  2.8291 -0.3181  0.5706
  455MOL0     H62741   5.810   2.051   5.841  0.6664 -0.7728 -1.5157
  455MOL0     H62742   5.979   2.212   5.931 -1.3813 -1.6715  1.0908
  455MOL0     H62743   6.039   2.039   5.919  2.5652  0.4035 -1.1902
  455MOL0     H62744   6.144   2.125   5.697  1.4101 -0.4378 -0.5418
  455MOL0     H62745   6.128   2.284   5.777 -1.1138  0.5867 -0.0284
  455MOL0     H62746   6.354   2.220   5.830  0.1396  0.3283  1.0910
  455MOL0     H62747   6.262   2.199   5.978 -2.7027 -4.1570  0.7485
  455MOL0     H62748   6.441   1.989   6.119  1.2325  1.3532  0.3696
  455MOL0     H62749   6.613   1.890   6.261 -0.5908 -3.0359  0.1615
  455MOL0     H62750   6.766   1.936   6.188 -0.9204  0.2702 -1.1224
  455MOL0     H62751   6.708   1.764   6.181  0.2087 -0.3304 -1.1426
  455MOL0     H62752   7.089   1.984   5.829  1.3780  2.2053  0.1900
  455MOL0     H62753   7.334   1.908   5.812  1.8244  0.0150  0.6965
  455MOL0     H62754   7.472   1.641   6.140  0.6002  1.3905  0.3753
  455MOL0     H62755   7.463   1.562   5.989 -0.7816 -0.2505  1.9362
  455MOL0     H62756   7.722   1.573   6.070  0.9729  1.5484  1.4507
  455MOL0     H62757   7.692   1.627   5.909  2.3763 -0.9852 -0.1099
  455MOL0     H62758   7.685   1.796   6.171  0.2971 -1.2774  0.4519
  455MOL0     H62759   7.670   1.867   6.017  1.1174  1.2359  1.1845
  455MOL0     H62760   7.922   1.710   6.113  1.1961 -1.6903 -2.6867
  455MOL0     H62761   7.900   1.888   6.119  0.2512 -1.2072  1.5751
  455MOL0     H62762   7.890   1.701   5.868 -3.2914  1.2089  0.1187
  455MOL0     H62763   7.877   1.870   5.866 -0.0597 -0.6872 -2.5995
  455MOL0     H62764   8.139   1.731   5.963  0.2593 -0.2305 -0.1115
  455MOL0     H62765   8.094   1.910   5.941  0.1551 -0.4395  1.1651
  455MOL0     H62766   8.053   1.868   5.707 -0.6572 -0.0433  0.4362
  455MOL0     H62767   8.128   1.708   5.706  1.8374  0.5552 -1.4791
  455MOL0     H62768   8.341   1.804   5.811  1.3961  0.8293 -1.8538
  455MOL0     H62769   8.268   1.967   5.793  0.7273  0.9336 -0.2446
  455MOL0     H62770   7.267   1.659   6.157 -1.1327  1.7191  1.4453
  455MOL0     H62771   7.030   1.726   6.156  0.6869 -1.3775 -0.2021
  455MOL0     H62772   6.666   1.885   5.699 -1.8711 -4.0082  0.3005
  455MOL0     H62773   6.460   1.981   5.698 -1.1478 -1.4431  0.5545
  455MOL0     H62774   5.049   2.196   4.885 -1.0727 -1.0143 -0.9694
  455MOL0     H62775   4.831   2.111   4.799  3.0649 -1.6756  0.5128
  455MOL0     H62776   4.462   2.109   4.800  4.1914  3.8960 -2.1423
  455MOL0     H62777   4.238   2.014   4.789 -1.4544  1.6982 -0.0356
  455MOL0     H62778   4.087   1.872   4.729 -1.3715 -1.7574  0.8849
  455MOL0     H62779   3.975   2.009   4.734 -0.5242  0.7920 -2.1789
  455MOL0     H62780   3.917   1.742   4.661  0.3043 -0.3036 -0.1348
  455MOL0     H62781   3.964   1.811   4.504  0.8870  1.1993  0.1696
  455MOL0     H62782   3.749   1.926   4.685  1.6909  1.0500  0.7306
  455MOL0     H62783   3.793   1.986   4.526  0.6778  0.3130 -0.5231
  455MOL0     H62784   3.688   1.709   4.623  0.6686 -1.7387 -2.2748
  455MOL0     H62785   3.738   1.740   4.448  0.2137  0.0555 -0.3500
  455MOL0     H62786   3.371   1.930   4.450  0.3198  2.4029  0.7033
  455MOL0     H62787   4.206   2.155   4.378 -0.4141 -1.0787  0.0501
  455MOL0     H62788   4.359   2.291   4.295  0.5084  2.1752 -0.0653
  455MOL0     H62789   4.487   2.373   4.396 -0.6146 -0.3488 -1.0045
  455MOL0     H62790   4.518   2.220   4.309 -0.6041 -0.1584 -1.2613
  456MOL0     O62791   7.930   9.057   4.421 -0.1733 -0.2841  0.1850
  456MOL0     C62792   7.903   9.057   4.544  0.4269  0.4556  0.0482
  456MOL0     O62793   7.989   9.094   4.649 -0.1595 -0.5150 -0.1330
  456MOL0     C62794   8.123   9.131   4.631 -0.3483 -0.5907 -0.6383
  456MOL0     C62795   8.183   9.208   4.732 -0.1762  0.2917  0.3179
  456MOL0     C62796   8.315   9.253   4.731  0.8631 -0.1236 -0.0366
  456MOL0     C62797   8.385   9.229   4.618  1.1172  0.3685  0.0505
  456MOL0     O62798   8.512   9.274   4.611 -0.3682  0.8708 -0.4627
  456MOL0     C62799   8.608   9.219   4.519 -0.2188 -0.0759  0.3917
  456MOL0     C62800   8.753   9.262   4.547 -0.2850  0.2094 -0.5043
  456MOL0     C62801   8.843   9.183   4.460  0.4709 -0.4419 -0.2575
  456MOL0     C62802   8.987   9.248   4.481 -0.0017  0.0299 -0.1690
  456MOL0     C62803   9.085   9.203   4.370 -0.0806  1.0434 -0.2205
  456MOL0     C62804   9.209   9.290   4.368 -0.4605  0.0660 -0.3705
  456MOL0     C62805   9.309   9.249   4.264 -1.0009  0.0160  0.0984
  456MOL0     C62806   9.421   9.346   4.236 -0.5451 -0.3664  0.7497
  456MOL0     N62807   9.509   9.299   4.128 -0.4249 -0.2993  0.1501
  456MOL0     C62808   9.553   9.166   4.129  0.4297  0.2426  0.1175
  456MOL0     C62809   9.582   9.142   4.000 -0.1602  0.9152 -0.4720
  456MOL0     C62810   9.632   9.018   3.936 -0.4342  0.2429 -0.5295
  456MOL0     C62811   9.778   9.012   3.890 -0.0081  0.7736  0.3182
  456MOL0     C62812   9.874   9.023   4.001 -0.2777  0.1532  0.0259
  456MOL0     C62813  10.026   9.044   3.958 -0.0071 -0.1450  0.9017
  456MOL0     O62814  10.071   8.930   3.886 -0.8435  0.7459 -0.2231
  456MOL0     C62815  10.200   8.938   3.847  0.9936 -0.3674  0.0009
  456MOL0     C62816  10.293   9.040   3.870 -1.1048 -0.1450 -0.6954
  456MOL0     C62817  10.427   9.013   3.835  0.0945  0.0256  1.0586
  456MOL0     C62818  10.518   9.126   3.851  0.1494  0.1863 -0.4816
  456MOL0     C62819  10.454   8.904   3.746 -0.4867  0.7948 -0.1422
  456MOL0     C62820  10.588   8.879   3.682 -0.2915 -0.3606  0.4239
  456MOL0     O62821  10.581   8.798   3.570 -0.3388 -0.5105 -0.1273
  456MOL0     C62822  10.697   8.762   3.505 -0.2657 -0.0647 -0.4430
  456MOL0     C62823  10.821   8.739   3.568 -1.1995 -0.2470  0.1461
  456MOL0     C62824  10.933   8.700   3.496 -0.9605 -0.0102  0.6410
  456MOL0     C62825  10.922   8.663   3.363 -0.9451  0.2887  0.8071
  456MOL0     O62826  11.026   8.622   3.279 -0.2336  0.0283 -0.0210
  456MOL0     C62827  11.131   8.549   3.345  0.6001  0.1163 -0.1500
  456MOL0     C62828  11.093   8.403   3.370 -0.3181 -0.1401 -0.7483
  456MOL0     C62829  11.213   8.312   3.416 -0.3616 -0.6585  0.6110
  456MOL0     C62830  11.340   8.337   3.322 -0.2328  0.3704 -1.0868
  456MOL0     C62831  11.423   8.206   3.303  0.4436 -0.5382 -0.5211
  456MOL0     C62832  11.523   8.205   3.422 -0.8492  0.2941 -0.5978
  456MOL0     C62833  11.615   8.075   3.420  0.0005 -0.4156  0.7952
  456MOL0     C62834  11.715   8.081   3.310 -0.0387 -0.3410  0.6201
  456MOL0    Cl62835  11.850   7.982   3.350 -0.5760  0.1780 -0.0356
  456MOL0     C62836  10.799   8.678   3.297  0.0361 -0.0499 -0.3004
  456MOL0     C62837  10.689   8.724   3.366  0.2612  0.2587  0.4166
  456MOL0     O62838  10.693   8.921   3.735 -0.2008 -0.1872 -0.1067
  456MOL0     C62839  10.355   8.817   3.716  0.1549 -1.1467  0.0187
  456MOL0     C62840  10.230   8.826   3.776 -0.2869 -0.3900  0.7233
  456MOL0     N62841   9.563   9.257   3.926 -0.6849 -0.0812 -0.3292
  456MOL0     N62842   9.518   9.348   4.007  0.6246  0.2872  0.2751
  456MOL0     C62843   8.327   9.153   4.511 -0.8546  0.2917 -0.3411
  456MOL0     C62844   8.198   9.112   4.516 -0.3842 -0.5383 -0.3467
  456MOL0     C62845   7.755   9.033   4.568 -0.5700 -0.2393 -0.8452
  456MOL0     C62846   7.721   8.903   4.609 -0.4360 -0.5945  0.0186
  456MOL0     C62847   7.586   8.869   4.620 -0.0166  0.5520  1.0833
  456MOL0     C62848   7.486   8.960   4.591  0.5354  0.0701 -0.1959
  456MOL0     O62849   7.364   8.915   4.628  0.2371  0.2840 -0.8742
  456MOL0     C62850   7.249   9.005   4.609 -1.3519  0.0719  0.3740
  456MOL0     C62851   7.238   9.012   4.453  0.4146 -0.0380 -0.2336
  456MOL0     C62852   7.128   9.103   4.408 -0.5371 -0.1732  0.3562
  456MOL0     C62853   6.993   9.048   4.429  0.0690 -0.1635  0.4243
  456MOL0     C62854   6.885   9.124   4.370 -0.2170  0.1883  0.0564
  456MOL0     C62855   6.796   9.203   4.332  0.3441 -0.1128 -1.0955
  456MOL0     C62856   7.521   9.094   4.569 -0.0405  0.6668 -0.1166
  456MOL0     C62857   7.653   9.127   4.541  0.7942 -0.2852  1.3654
  456MOL0     C62858   7.689   9.276   4.492  0.2067  0.7631  0.2238
  456MOL0     H62859   8.126   9.223   4.823 -1.6089 -0.1830 -0.4753
  456MOL0     H62860   8.357   9.320   4.806 -1.1969 -0.1534  1.2127
  456MOL0     H62861   8.584   9.248   4.417 -0.2253 -1.3730  0.0096
  456MOL0     H62862   8.594   9.111   4.525  1.4012 -0.2563  1.4267
  456MOL0     H62863   8.759   9.370   4.534  1.1824  0.1703 -0.3153
  456MOL0     H62864   8.778   9.243   4.652  2.7377 -2.1080 -1.4824
  456MOL0     H62865   8.838   9.075   4.479 -0.1401 -0.2722  0.6073
  456MOL0     H62866   8.811   9.194   4.356 -1.2770 -0.3321  0.2609
  456MOL0     H62867   8.975   9.356   4.475 -4.7359 -0.3474 -4.6920
  456MOL0     H62868   9.031   9.220   4.577  2.7983  1.0622 -1.0622
  456MOL0     H62869   9.032   9.209   4.275 -3.6728 -0.6042  1.4514
  456MOL0     H62870   9.111   9.099   4.392 -2.5591  0.1189 -1.2939
  456MOL0     H62871   9.186   9.394   4.343  1.4423  0.0901 -2.3832
  456MOL0     H62872   9.258   9.294   4.466  0.1415 -2.7594 -0.4651
  456MOL0     H62873   9.255   9.230   4.170 -0.0068 -1.2646 -0.2429
  456MOL0     H62874   9.357   9.161   4.308  0.4905  1.1432  0.8140
  456MOL0     H62875   9.391   9.449   4.213  2.9393  0.7909  0.7127
  456MOL0     H62876   9.491   9.352   4.320 -1.1634 -3.6314  1.6181
  456MOL0     H62877   9.563   9.086   4.201  0.7367  1.4867  1.5122
  456MOL0     H62878   9.585   8.996   3.839  1.0236  0.4209 -1.3059
  456MOL0     H62879   9.626   8.936   4.008  1.0999  2.5148  2.4061
  456MOL0     H62880   9.799   8.925   3.828  0.0582  1.9960 -1.4668
  456MOL0     H62881   9.787   9.091   3.815 -0.0819 -0.4219 -0.9947
  456MOL0     H62882   9.858   9.107   4.069 -1.0954 -0.1239  0.1845
  456MOL0     H62883   9.875   8.931   4.061  2.7847 -0.7882 -1.2714
  456MOL0     H62884  10.036   9.129   3.889 -1.3247 -1.2237 -0.7089
  456MOL0     H62885  10.085   9.068   4.046  0.6107  1.4579  0.1036
  456MOL0     H62886  10.276   9.136   3.918  0.9465  0.7233 -1.5831
  456MOL0     H62887  10.473   9.222   3.877 -0.3955  0.7148 -3.1424
  456MOL0     H62888  10.572   9.146   3.758 -3.2689 -1.8575 -3.1076
  456MOL0     H62889  10.590   9.088   3.924  0.4109  1.8031  0.1602
  456MOL0     H62890  10.849   8.745   3.673  1.0946 -0.8303 -0.3704
  456MOL0     H62891  11.033   8.710   3.537 -0.4597 -1.6529 -0.1006
  456MOL0     H62892  11.210   8.557   3.268 -0.4182  0.3187 -1.2059
  456MOL0     H62893  11.171   8.596   3.435 -0.7800  1.0382 -0.0008
  456MOL0     H62894  11.012   8.397   3.444 -1.1676 -1.1128 -1.7139
  456MOL0     H62895  11.048   8.367   3.277 -0.6162  0.1049 -0.7011
  456MOL0     H62896  11.169   8.212   3.410 -2.3785  0.2761 -2.1080
  456MOL0     H62897  11.235   8.332   3.521  0.7206  0.2063  0.2482
  456MOL0     H62898  11.401   8.426   3.337  1.2097 -0.5894 -1.0696
  456MOL0     H62899  11.291   8.357   3.226  0.3856  3.0560 -0.9101
  456MOL0     H62900  11.361   8.117   3.318 -3.3212  1.9130 -0.0557
  456MOL0     H62901  11.472   8.211   3.206 -0.6539 -0.1012 -1.0733
  456MOL0     H62902  11.469   8.208   3.517 -1.6300 -0.3567 -1.0069
  456MOL0     H62903  11.593   8.288   3.434  0.7195 -1.2903  2.1657
  456MOL0     H62904  11.552   7.986   3.405  0.5495 -1.0758  2.1745
  456MOL0     H62905  11.677   8.059   3.509  1.1158 -1.4915 -0.1380
  456MOL0     H62906  11.761   8.180   3.310 -1.4151  0.4826 -3.3868
  456MOL0     H62907  11.681   8.069   3.207  1.0938  2.2563 -0.1495
  456MOL0     H62908  10.797   8.654   3.191 -0.7623 -2.0453  0.1205
  456MOL0     H62909  10.596   8.726   3.311 -0.3411 -0.9374  1.3558
  456MOL0     H62910  10.377   8.739   3.643  1.1712 -2.0076  1.2001
  456MOL0     H62911  10.154   8.750   3.765 -0.0545 -0.3249 -1.8476
  456MOL0     H62912   8.383   9.130   4.421  0.4349  2.9917 -0.3511
  456MOL0     H62913   8.159   9.065   4.427 -0.2165  0.5026 -0.9816
  456MOL0     H62914   7.802   8.834   4.629  0.8292  0.2526 -1.8956
  456MOL0     H62915   7.562   8.764   4.636  0.2381 -0.1306 -2.2806
  456MOL0     H62916   7.158   8.955   4.644 -0.7391 -0.4247  1.3198
  456MOL0     H62917   7.260   9.099   4.662 -0.7990 -0.9092  2.0663
  456MOL0     H62918   7.228   8.914   4.407  0.9741  0.8524 -2.3424
  456MOL0     H62919   7.325   9.056   4.403  0.0683 -0.7122 -1.4705
  456MOL0     H62920   7.143   9.198   4.460  1.6646 -0.6364  0.6639
  456MOL0     H62921   7.137   9.127   4.302 -1.3523 -0.5545  0.1912
  456MOL0     H62922   6.959   9.056   4.533 -1.6950 -0.3722 -0.1103
  456MOL0     H62923   6.984   8.942   4.401 -0.4196  0.0119 -0.0957
  456MOL0     H62924   6.710   9.256   4.296 -0.2401  1.4798  2.2757
  456MOL0     H62925   7.449   9.175   4.577 -1.1793 -0.4049  0.9105
  456MOL0     H62926   7.767   9.272   4.415  1.1199 -0.3875  1.1516
  456MOL0     H62927   7.601   9.329   4.455  1.2526  2.5010  0.1235
  456MOL0     H62928   7.735   9.329   4.576  1.7464  0.0624 -0.1352
  457MOL0     O62929   8.342   1.131   5.721 -0.4238  0.8104  0.2644
  457MOL0     C62930   8.357   1.137   5.597  0.1268 -0.4252  0.4464
  457MOL0     O62931   8.470   1.168   5.531  0.2477  0.0827 -0.1010
  457MOL0     C62932   8.585   1.133   5.600 -0.3371  0.8229  0.4449
  457MOL0     C62933   8.599   1.012   5.648  0.4016  0.8314  0.1972
  457MOL0     C62934   8.709   0.978   5.732 -0.3298 -0.2991 -0.2678
  457MOL0     C62935   8.804   1.090   5.765  0.0219 -0.7582 -0.8517
  457MOL0     O62936   8.908   1.067   5.854 -0.0737  0.4427  0.1820
  457MOL0     C62937   9.030   1.138   5.850 -0.0769 -0.5737 -0.0900
  457MOL0     C62938   9.144   1.045   5.915  0.3231 -0.3030 -0.0704
  457MOL0     C62939   9.174   0.937   5.817 -0.2953  0.2408 -0.6280
  457MOL0     C62940   9.300   0.868   5.877 -0.8556  0.1098  0.1439
  457MOL0     C62941   9.353   0.766   5.774 -0.3287  0.2014 -0.6155
  457MOL0     C62942   9.424   0.820   5.652  0.0937 -0.5584 -0.5299
  457MOL0     C62943   9.558   0.889   5.689 -0.9875 -0.0685 -0.7028
  457MOL0     C62944   9.627   0.944   5.567  0.6731 -0.1146  0.7017
  457MOL0     N62945   9.761   1.008   5.596  0.1894 -0.2769 -0.3842
  457MOL0     C62946   9.822   1.026   5.723 -0.5858  0.3208  0.2418
  457MOL0     C62947   9.938   1.079   5.688  0.2600  0.5267 -0.3337
  457MOL0     C62948  10.031   1.148   5.785 -0.5642 -0.8433  0.0078
  457MOL0     C62949  10.180   1.163   5.749  0.0499 -0.5481  0.0522
  457MOL0     C62950  10.252   1.041   5.713 -0.4089 -0.4332  0.9792
  457MOL0     C62951  10.394   1.065   5.660  0.2106 -0.1858  0.2414
  457MOL0     O62952  10.467   0.945   5.664  0.0653 -0.2407 -1.1062
  457MOL0     C62953  10.597   0.951   5.621 -0.3032 -0.1337  0.1083
  457MOL0     C62954  10.660   1.071   5.571 -0.2556  1.1263 -0.0315
  457MOL0     C62955  10.798   1.073   5.555 -0.2638  0.1523  0.2205
  457MOL0     C62956  10.846   1.204   5.494 -0.0816 -1.0115 -1.0601
  457MOL0     C62957  10.878   0.968   5.600 -0.1512  0.2034 -0.5680
  457MOL0     C62958  11.026   0.978   5.585 -0.3488  0.1145 -0.5881
  457MOL0     O62959  11.098   0.889   5.668 -0.0144  0.0460  0.1776
  457MOL0     C62960  11.238   0.890   5.682  0.3219 -0.4755  0.0356
  457MOL0     C62961  11.291   0.880   5.815  0.1050 -0.0961 -0.4281
  457MOL0     C62962  11.428   0.891   5.844  0.0943  0.2311 -0.2878
  457MOL0     C62963  11.517   0.918   5.742 -0.3648  0.2207  0.2330
  457MOL0     O62964  11.648   0.953   5.752 -0.3012 -0.6056  0.8251
  457MOL0     C62965  11.720   0.896   5.862  0.5324  0.2954 -0.3151
  457MOL0     C62966  11.737   0.741   5.865 -0.2414 -1.2055 -0.4904
  457MOL0     C62967  11.831   0.709   5.984  0.0101 -0.2345 -0.7137
  457MOL0     C62968  11.961   0.786   5.986 -0.6185  0.5132 -0.3791
  457MOL0     C62969  12.048   0.730   6.096  0.0945 -0.6619 -0.3259
  457MOL0     C62970  12.180   0.797   6.087 -0.6260  0.6657 -0.5694
  457MOL0     C62971  12.276   0.731   6.191  0.3352 -0.0655  0.4859
  457MOL0     C62972  12.397   0.812   6.232 -0.6794  0.0254 -0.1084
  457MOL0    Cl62973  12.511   0.838   6.104 -0.2097  0.1952  0.0324
  457MOL0     C62974  11.465   0.916   5.612 -0.1898 -0.2829  0.1592
  457MOL0     C62975  11.331   0.908   5.582  0.3476 -0.2309 -0.2777
  457MOL0     O62976  11.080   1.064   5.521 -0.0532  0.4467 -0.1651
  457MOL0     C62977  10.816   0.849   5.653  0.0822  0.1500  0.9224
  457MOL0     C62978  10.679   0.848   5.664 -0.4641  0.2637  0.2702
  457MOL0     N62979   9.953   1.097   5.551 -0.8731 -0.4211 -0.4616
  457MOL0     N62980   9.846   1.052   5.502 -0.4406  0.2626 -0.1556
  457MOL0     C62981   8.785   1.216   5.706  0.1259 -0.4936  0.3444
  457MOL0     C62982   8.678   1.230   5.617 -0.3532  0.0878 -0.0447
  457MOL0     C62983   8.232   1.124   5.510  0.0851  0.1936  0.6080
  457MOL0     C62984   8.249   1.157   5.373  0.9359 -0.2483  1.2059
  457MOL0     C62985   8.142   1.156   5.285 -0.7226  0.3720  0.7753
  457MOL0     C62986   8.014   1.114   5.335 -0.0440 -0.1880  0.9266
  457MOL0     O62987   7.905   1.112   5.247 -0.2460 -0.0141 -0.2126
  457MOL0     C62988   7.794   1.193   5.279  0.0865 -0.9021 -0.1184
  457MOL0     C62989   7.665   1.123   5.230 -0.7009 -0.0738 -1.3986
  457MOL0     C62990   7.646   0.975   5.272  0.8854  0.3495 -0.3238
  457MOL0     C62991   7.614   0.967   5.419  0.1072  0.4542  0.4851
  457MOL0     C62992   7.562   0.834   5.449  0.5993 -0.3765 -0.0442
  457MOL0     C62993   7.482   0.743   5.479  0.8087 -0.4958  0.1580
  457MOL0     C62994   8.007   1.063   5.466  0.2893  0.1626 -0.2786
  457MOL0     C62995   8.103   1.077   5.559 -0.3724 -0.2156 -0.4034
  457MOL0     C62996   8.079   1.034   5.707  0.3762 -0.1670 -0.0193
  457MOL0     H62997   8.521   0.941   5.622  0.2269  1.3797 -0.8451
  457MOL0     H62998   8.726   0.879   5.773  2.1215  0.4706  0.7570
  457MOL0     H62999   9.017   1.230   5.908 -1.0042 -0.2024 -0.8801
  457MOL0     H63000   9.058   1.155   5.746  1.6944  1.3552  0.6031
  457MOL0     H63001   9.232   1.105   5.943 -0.6405  0.1007  2.3484
  457MOL0     H63002   9.101   1.005   6.007  1.5482  1.0434  1.1559
  457MOL0     H63003   9.092   0.864   5.821 -0.9110  0.9760  1.0015
  457MOL0     H63004   9.185   0.982   5.718  1.1938  1.0514 -0.1105
  457MOL0     H63005   9.378   0.938   5.908  2.1009 -2.1145 -1.7269
  457MOL0     H63006   9.276   0.805   5.964 -2.0486  0.1487 -0.1525
  457MOL0     H63007   9.267   0.704   5.750  0.2138 -0.9784  0.3599
  457MOL0     H63008   9.429   0.704   5.823 -0.3360 -1.5012 -2.6225
  457MOL0     H63009   9.445   0.741   5.579  2.5959  0.1723 -0.6682
  457MOL0     H63010   9.358   0.896   5.609  0.5962  0.0745 -0.1859
  457MOL0     H63011   9.619   0.813   5.738  0.2861  3.0296  2.9934
  457MOL0     H63012   9.543   0.957   5.773 -1.1443 -2.4274  1.2948
  457MOL0     H63013   9.648   0.860   5.501  0.1256 -0.4828  0.9885
  457MOL0     H63014   9.569   1.022   5.516  0.7794 -0.5149 -0.0438
  457MOL0     H63015   9.781   1.011   5.823  1.3618 -1.5966  0.8301
  457MOL0     H63016  10.031   1.076   5.868 -0.0284 -2.1398 -1.0670
  457MOL0     H63017   9.992   1.246   5.813  0.9071  0.0995 -1.1050
  457MOL0     H63018  10.170   1.224   5.658 -5.5079 -1.5674 -0.3620
  457MOL0     H63019  10.235   1.220   5.825  0.7196  0.1458 -0.9214
  457MOL0     H63020  10.256   0.979   5.803 -0.8427 -0.5764  0.9033
  457MOL0     H63021  10.201   0.978   5.639  0.3709  2.3469 -2.2062
  457MOL0     H63022  10.389   1.092   5.555 -0.9942 -1.7813 -0.1529
  457MOL0     H63023  10.441   1.143   5.720  1.9604 -1.1043  0.1564
  457MOL0     H63024  10.604   1.158   5.538  1.7082  2.1896 -0.7379
  457MOL0     H63025  10.910   1.257   5.565 -3.7471  0.7966  1.1661
  457MOL0     H63026  10.762   1.274   5.491 -0.2466 -1.2383 -2.0013
  457MOL0     H63027  10.875   1.190   5.389  0.9333  0.1847 -0.9562
  457MOL0     H63028  11.230   0.866   5.903 -1.1825  2.3741 -0.8396
  457MOL0     H63029  11.471   0.897   5.944  3.8782  3.4102 -1.8276
  457MOL0     H63030  11.819   0.937   5.838  0.5527  1.3202  1.2814
  457MOL0     H63031  11.682   0.946   5.952  1.6565 -0.9164  0.8623
  457MOL0     H63032  11.636   0.708   5.889  0.0463 -0.1468  2.5428
  457MOL0     H63033  11.778   0.711   5.767  2.7375  1.7124 -0.3353
  457MOL0     H63034  11.848   0.602   5.996  1.4926  0.1600  1.1191
  457MOL0     H63035  11.778   0.744   6.074  0.4260  0.8213 -0.8642
  457MOL0     H63036  11.941   0.892   6.008 -4.1554 -0.2092  0.5987
  457MOL0     H63037  12.009   0.775   5.889  2.3520  1.1706  0.9177
  457MOL0     H63038  12.005   0.750   6.195 -1.7582  0.6122 -1.3220
  457MOL0     H63039  12.058   0.622   6.083  1.0624 -0.4889 -1.1331
  457MOL0     H63040  12.173   0.904   6.109  1.1106  0.4765  1.1950
  457MOL0     H63041  12.238   0.778   5.996 -0.4315  0.5003 -0.4103
  457MOL0     H63042  12.308   0.636   6.148  2.3941  0.7531  0.1075
  457MOL0     H63043  12.217   0.723   6.284  1.1705  1.5209  1.1888
  457MOL0     H63044  12.450   0.772   6.319  0.0746  1.7458  0.2769
  457MOL0     H63045  12.364   0.911   6.262  0.9963  0.3151  0.9230
  457MOL0     H63046  11.534   0.927   5.529 -0.8854 -2.3205 -0.7692
  457MOL0     H63047  11.295   0.945   5.486 -0.7913 -1.3675 -0.3273
  457MOL0     H63048  10.876   0.765   5.686  1.3482  1.5606  2.3982
  457MOL0     H63049  10.646   0.754   5.708  2.3585 -0.1557  1.7040
  457MOL0     H63050   8.857   1.295   5.720 -1.0002  0.5886  0.1569
  457MOL0     H63051   8.665   1.333   5.584  0.5388 -0.1713 -1.2648
  457MOL0     H63052   8.338   1.194   5.324  0.3916 -1.4474 -0.7852
  457MOL0     H63053   8.170   1.164   5.180  0.3014 -2.0103  0.7994
  457MOL0     H63054   7.789   1.220   5.385  3.5351 -2.1397  0.4797
  457MOL0     H63055   7.798   1.283   5.217  2.2152 -1.6137 -1.0925
  457MOL0     H63056   7.653   1.127   5.122  1.0735 -1.5540 -1.6907
  457MOL0     H63057   7.588   1.190   5.270 -1.3290 -1.6522  0.2056
  457MOL0     H63058   7.557   0.945   5.217  0.9094  0.2000 -0.2820
  457MOL0     H63059   7.731   0.909   5.253  1.1182  0.6685 -0.4005
  457MOL0     H63060   7.536   1.040   5.442 -0.5841  0.3031 -1.2313
  457MOL0     H63061   7.704   0.999   5.472  1.9413 -1.4588 -1.2965
  457MOL0     H63062   7.419   0.664   5.514  0.5685 -0.7519 -0.8172
  457MOL0     H63063   7.913   1.020   5.500 -0.3241  2.8413  1.7820
  457MOL0     H63064   8.134   0.940   5.724 -1.6417 -1.0942  1.7318
  457MOL0     H63065   8.102   1.116   5.775  2.0777 -0.3972 -0.2485
  457MOL0     H63066   7.975   1.009   5.727  0.3912  1.4005  2.4701
  458MOL0     O63067   0.534   0.756   6.544 -0.2843  0.5312 -0.1006
  458MOL0     C63068   0.570   0.646   6.506 -0.4553  0.3750 -0.3253
  458MOL0     O63069   0.700   0.602   6.511  0.2922 -0.3885 -0.5575
  458MOL0     C63070   0.808   0.677   6.572  0.0280  0.6001 -0.0624
  458MOL0     C63071   0.836   0.809   6.551 -0.3040 -0.0306 -0.6843
  458MOL0     C63072   0.955   0.870   6.610  0.0955 -0.2649  0.1521
  458MOL0     C63073   1.046   0.796   6.681 -0.1238  0.1564 -0.2176
  458MOL0     O63074   1.153   0.861   6.733 -1.0802 -0.2397  0.7545
  458MOL0     C63075   1.269   0.780   6.757  0.0472  0.5960  0.8492
  458MOL0     C63076   1.386   0.878   6.772  0.3379  0.9297  0.0470
  458MOL0     C63077   1.518   0.793   6.770  0.3331 -0.2217 -0.9661
  458MOL0     C63078   1.548   0.733   6.910 -0.0916  0.3369  0.1645
  458MOL0     C63079   1.679   0.669   6.923 -0.3689  0.5293  0.5744
  458MOL0     C63080   1.793   0.768   6.893 -0.2375  0.0257 -0.3914
  458MOL0     C63081   1.924   0.729   6.958  1.0426  0.3802  0.5093
  458MOL0     C63082   1.972   0.591   6.904 -0.2406  0.1046  0.2271
  458MOL0     N63083   2.119   0.564   6.908 -0.3071  0.0193  0.8442
  458MOL0     C63084   2.189   0.586   7.024  0.3246  0.6748 -0.6482
  458MOL0     C63085   2.322   0.573   6.992  0.5379 -0.0552  0.2649
  458MOL0     C63086   2.443   0.579   7.091  0.5405  0.5399 -0.3401
  458MOL0     C63087   2.583   0.568   7.028  0.5794  0.4388 -0.1075
  458MOL0     C63088   2.701   0.590   7.128 -0.1672 -0.1519  0.3649
  458MOL0     C63089   2.835   0.590   7.057  0.5368  0.0007  0.0969
  458MOL0     O63090   2.868   0.469   6.988 -0.6110  0.5070  0.1762
  458MOL0     C63091   2.999   0.441   6.980  0.3153 -0.3518 -0.7155
  458MOL0     C63092   3.087   0.541   6.945 -0.0094 -0.0112 -1.0809
  458MOL0     C63093   3.227   0.513   6.955  0.2791  0.3675  0.4978
  458MOL0     C63094   3.310   0.633   6.934  0.3976  0.4184 -0.6162
  458MOL0     C63095   3.273   0.385   6.992  0.1854  0.6160 -0.5685
  458MOL0     C63096   3.421   0.351   7.021  0.1927  0.4259  0.7593
  458MOL0     O63097   3.510   0.403   6.930  0.0188  0.1297 -0.1395
  458MOL0     C63098   3.639   0.414   6.956 -0.2517  0.2435 -0.5916
  458MOL0     C63099   3.731   0.413   6.853  0.4080  0.8516 -0.4076
  458MOL0     C63100   3.874   0.411   6.877  0.4407  0.1617 -0.1689
  458MOL0     C63101   3.917   0.441   7.003 -0.3488 -0.3512 -0.3346
  458MOL0     O63102   4.049   0.429   7.043 -0.0368  0.3478 -0.2528
  458MOL0     C63103   4.123   0.336   6.970 -0.4884  0.2564  0.2068
  458MOL0     C63104   4.228   0.285   7.067  0.4591 -0.1519 -0.4811
  458MOL0     C63105   4.336   0.192   7.001 -0.1017 -0.8761  1.2431
  458MOL0     C63106   4.458   0.164   7.093 -0.1236  0.2980  0.3723
  458MOL0     C63107   4.559   0.057   7.044 -0.5642 -0.4549  0.4272
  458MOL0     C63108   4.690   0.062   7.122 -0.0069  1.2300  0.0497
  458MOL0     C63109   4.794  -0.019   7.049  0.0434  0.4599 -0.4015
  458MOL0     C63110   4.878   0.055   6.945  0.7069  0.1232 -0.2810
  458MOL0    Cl63111   4.810   0.042   6.784  0.4550  0.0564  0.0257
  458MOL0     C63112   3.834   0.460   7.104 -0.4065 -0.1578  1.0109
  458MOL0     C63113   3.697   0.443   7.081  0.4288  0.0531 -0.1634
  458MOL0     O63114   3.445   0.270   7.104  0.0171  0.0232  0.0021
  458MOL0     C63115   3.179   0.281   7.003  0.2673 -0.2977 -0.3498
  458MOL0     C63116   3.042   0.312   6.997  0.3253 -0.7304 -0.3504
  458MOL0     N63117   2.330   0.549   6.850 -0.0651  0.0948  0.4166
  458MOL0     N63118   2.207   0.542   6.803 -0.4992 -0.4138  0.2179
  458MOL0     C63119   1.014   0.663   6.705 -0.3764  0.2959 -0.3875
  458MOL0     C63120   0.898   0.606   6.652  0.2124  0.4800 -0.0575
  458MOL0     C63121   0.473   0.559   6.448  0.3846  0.9720  0.6683
  458MOL0     C63122   0.513   0.499   6.326 -0.1458  0.1055 -0.3340
  458MOL0     C63123   0.423   0.437   6.241 -0.6682 -0.5616  0.3944
  458MOL0     C63124   0.292   0.419   6.281  0.0507 -0.7904  0.1691
  458MOL0     O63125   0.209   0.337   6.215 -0.1565 -1.0875  0.1336
  458MOL0     C63126   0.156   0.398   6.099  0.4480 -0.5589 -0.2570
  458MOL0     C63127   0.036   0.485   6.139 -0.2939 -0.6861 -0.0562
  458MOL0     C63128  -0.098   0.406   6.142 -0.9985 -0.4755 -0.1300
  458MOL0     C63129  -0.098   0.309   6.257 -0.3927  0.6421  0.5265
  458MOL0     C63130  -0.231   0.245   6.277  0.7947 -0.7426  0.4248
  458MOL0     C63131  -0.323   0.174   6.318  0.1570 -0.7734  0.1152
  458MOL0     C63132   0.248   0.476   6.407 -0.6973  0.8136 -0.0965
  458MOL0     C63133   0.338   0.545   6.496  0.4561 -1.1373 -0.4757
  458MOL0     C63134   0.288   0.607   6.633  0.0051  0.4019  0.5789
  458MOL0     H63135   0.765   0.871   6.498  0.9946  2.1578  0.0220
  458MOL0     H63136   0.973   0.975   6.592  1.6565 -0.3926  0.8626
  458MOL0     H63137   1.281   0.709   6.674 -1.1908  1.9483 -0.5566
  458MOL0     H63138   1.255   0.712   6.842 -0.6908 -1.5561 -0.8817
  458MOL0     H63139   1.391   0.937   6.680 -0.9093 -0.3447 -0.8840
  458MOL0     H63140   1.373   0.948   6.855  0.2105  0.9070  0.0468
  458MOL0     H63141   1.518   0.706   6.703 -2.8036 -0.6785 -0.5499
  458MOL0     H63142   1.600   0.855   6.734  0.5425 -0.1127 -0.3061
  458MOL0     H63143   1.540   0.809   6.987  0.6669  1.8753 -1.2044
  458MOL0     H63144   1.470   0.661   6.938  0.7579  0.6876  3.8761
  458MOL0     H63145   1.679   0.585   6.853  1.4634  2.0164 -1.3330
  458MOL0     H63146   1.693   0.629   7.025 -0.2584  0.9272  0.7165
  458MOL0     H63147   1.801   0.804   6.790 -1.0653 -0.8785 -0.7836
  458MOL0     H63148   1.757   0.854   6.950 -1.7799  0.1134 -1.4186
  458MOL0     H63149   1.912   0.738   7.066 -1.7882  1.8877  0.1510
  458MOL0     H63150   2.002   0.801   6.931 -0.8108  1.4244 -2.5919
  458MOL0     H63151   1.927   0.516   6.969  0.2083  1.4604  2.2059
  458MOL0     H63152   1.938   0.576   6.802 -2.8740  3.1215  0.5108
  458MOL0     H63153   2.143   0.592   7.122 -0.8210  0.2593 -1.1443
  458MOL0     H63154   2.428   0.500   7.165  0.7065  1.3289  0.5500
  458MOL0     H63155   2.434   0.669   7.151  2.8715  0.0224  0.8958
  458MOL0     H63156   2.598   0.474   6.975 -2.1441 -0.2383  0.1764
  458MOL0     H63157   2.597   0.642   6.948 -1.5092  0.7378 -0.2377
  458MOL0     H63158   2.691   0.687   7.177 -0.5216 -0.0342  0.0684
  458MOL0     H63159   2.699   0.512   7.204 -0.0001  1.4713  2.1180
  458MOL0     H63160   2.828   0.678   6.993 -0.6906  0.2463  0.5450
  458MOL0     H63161   2.911   0.614   7.133 -1.4892  1.3626  1.7968
  458MOL0     H63162   3.065   0.640   6.907  2.7231  0.9934 -0.2608
  458MOL0     H63163   3.339   0.647   6.829 -1.8227  0.5251 -1.2701
  458MOL0     H63164   3.399   0.618   6.996  0.3179  1.2023 -0.2943
  458MOL0     H63165   3.257   0.715   6.982 -2.0546 -0.1774 -2.1284
  458MOL0     H63166   3.691   0.404   6.753  1.6190 -1.0694 -0.7737
  458MOL0     H63167   3.936   0.398   6.789  1.9710 -1.3535  1.0498
  458MOL0     H63168   4.068   0.254   6.924  1.4144 -0.0424 -1.6632
  458MOL0     H63169   4.175   0.394   6.893 -2.9641  1.4952 -0.6487
  458MOL0     H63170   4.279   0.370   7.112 -0.9640  1.1075 -1.1469
  458MOL0     H63171   4.181   0.220   7.142  0.5462 -0.9119 -1.0795
  458MOL0     H63172   4.378   0.244   6.914  0.6430 -0.9843  1.5301
  458MOL0     H63173   4.285   0.099   6.976 -1.5278 -0.1300  1.2641
  458MOL0     H63174   4.421   0.107   7.179  1.9961 -1.1857  0.3826
  458MOL0     H63175   4.506   0.258   7.117 -0.7331  0.4836  0.9033
  458MOL0     H63176   4.512  -0.042   7.046 -1.2542 -0.1407  0.3660
  458MOL0     H63177   4.586   0.084   6.941  2.0903  0.9403  1.4023
  458MOL0     H63178   4.673   0.022   7.223 -2.5619  2.6367  0.2520
  458MOL0     H63179   4.734   0.161   7.135 -2.4994  2.2836  1.1242
  458MOL0     H63180   4.746  -0.103   6.998  0.7558 -1.2171  1.5800
  458MOL0     H63181   4.858  -0.059   7.128 -0.0697 -0.6489 -0.8544
  458MOL0     H63182   4.980   0.016   6.939  1.5455  2.3167 -1.8118
  458MOL0     H63183   4.882   0.162   6.970 -1.7203  0.1755  0.1375
  458MOL0     H63184   3.884   0.477   7.199  0.7030  1.5783  0.1665
  458MOL0     H63185   3.634   0.451   7.169  0.5347 -0.8526  0.0092
  458MOL0     H63186   3.204   0.177   7.023 -0.1766 -0.9029 -2.7029
  458MOL0     H63187   2.969   0.234   7.014 -0.2589  0.2443  2.0613
  458MOL0     H63188   1.069   0.599   6.774  1.3065  1.1986 -0.8290
  458MOL0     H63189   0.884   0.499   6.649 -1.2001  0.6268  0.2336
  458MOL0     H63190   0.611   0.525   6.288  0.6812  0.0121  1.6359
  458MOL0     H63191   0.456   0.383   6.153  0.1575 -1.5279  1.2717
  458MOL0     H63192   0.231   0.463   6.053  1.7337 -0.4037  1.9040
  458MOL0     H63193   0.115   0.320   6.035 -3.1196  0.0342  1.0674
  458MOL0     H63194   0.025   0.567   6.067  0.1004  1.0826  1.7965
  458MOL0     H63195   0.061   0.538   6.232 -2.4604 -1.2088  0.8739
  458MOL0     H63196  -0.183   0.473   6.158 -2.7177 -1.7925 -2.8870
  458MOL0     H63197  -0.111   0.361   6.043 -0.1711 -1.3979  0.1673
  458MOL0     H63198  -0.084   0.361   6.352 -0.4292  1.4064  0.1263
  458MOL0     H63199  -0.021   0.233   6.239 -2.1988 -1.4163  1.0145
  458MOL0     H63200  -0.413   0.130   6.355 -0.2376  0.1245  0.2477
  458MOL0     H63201   0.148   0.443   6.432 -0.1576 -0.7685  0.0690
  458MOL0     H63202   0.224   0.694   6.616 -1.9576 -1.3748 -1.9228
  458MOL0     H63203   0.235   0.537   6.698  1.2037  1.4404  2.7534
  458MOL0     H63204   0.376   0.638   6.689  0.2053  0.8828  0.0038
  459MOL0     O63205   5.319   9.163   1.171  0.5446 -0.0055 -0.4615
  459MOL0     C63206   5.371   9.179   1.278 -0.4031 -0.7211 -0.3669
  459MOL0     O63207   5.311   9.233   1.390 -0.8409  0.1627  0.3662
  459MOL0     C63208   5.176   9.252   1.383  0.9725  0.0480  0.5577
  459MOL0     C63209   5.079   9.194   1.466 -0.3471 -0.4048  0.4491
  459MOL0     C63210   4.942   9.228   1.460  0.1408  0.0462  0.1507
  459MOL0     C63211   4.887   9.319   1.375 -0.2053  0.4285 -0.0623
  459MOL0     O63212   4.758   9.362   1.385 -0.7175  0.0452  0.0831
  459MOL0     C63213   4.663   9.309   1.473 -0.2987  0.7618 -0.1280
  459MOL0     C63214   4.671   9.373   1.613  0.2064 -0.1161  0.4311
  459MOL0     C63215   4.683   9.263   1.722  0.5557 -0.8525  0.9074
  459MOL0     C63216   4.690   9.333   1.862  0.5902  0.3362 -0.3074
  459MOL0     C63217   4.664   9.238   1.984 -0.0577  0.6462 -0.0956
  459MOL0     C63218   4.776   9.150   2.019  0.1914 -0.0403 -0.3468
  459MOL0     C63219   4.882   9.225   2.094 -0.9748  1.0078  0.1701
  459MOL0     C63220   4.996   9.126   2.134 -0.0708 -0.5450 -0.4427
  459MOL0     N63221   5.099   9.189   2.219  0.6668  0.0104  0.2457
  459MOL0     C63222   5.105   9.182   2.352 -0.4763 -0.6311  0.1012
  459MOL0     C63223   5.199   9.279   2.382 -0.3814 -0.1471  0.1677
  459MOL0     C63224   5.259   9.300   2.518 -0.2145  0.2980  0.8186
  459MOL0     C63225   5.416   9.265   2.514  0.0056 -0.6096  0.1702
  459MOL0     C63226   5.488   9.285   2.652 -0.6552 -0.0662 -0.6430
  459MOL0     C63227   5.637   9.237   2.635  0.5766 -0.3917 -0.1290
  459MOL0     O63228   5.661   9.098   2.606 -0.0935 -0.1779 -0.1213
  459MOL0     C63229   5.786   9.047   2.595 -0.0768 -0.4448 -0.9300
  459MOL0     C63230   5.796   8.910   2.563 -0.2909 -0.4996 -0.2246
  459MOL0     C63231   5.914   8.852   2.532 -0.7582  0.7273 -0.0800
  459MOL0     C63232   5.904   8.696   2.510 -0.2179 -0.3468  0.3676
  459MOL0     C63233   6.029   8.935   2.521 -0.0540 -0.9179  0.3317
  459MOL0     C63234   6.164   8.890   2.494  0.4404  0.2335 -0.0928
  459MOL0     O63235   6.191   8.765   2.544  0.2431  0.1488  0.0061
  459MOL0     C63236   6.322   8.725   2.546  0.0145  0.0122  0.9791
  459MOL0     C63237   6.418   8.744   2.445  0.0892  0.0053 -0.1313
  459MOL0     C63238   6.548   8.693   2.456 -0.5201 -0.6644 -1.4317
  459MOL0     C63239   6.586   8.638   2.583  0.1222 -0.6147  0.7185
  459MOL0     O63240   6.719   8.592   2.601 -0.2319  0.2143 -0.0555
  459MOL0     C63241   6.749   8.532   2.724  0.2478  0.0090  0.2581
  459MOL0     C63242   6.903   8.501   2.741 -0.7068  0.4257  0.1466
  459MOL0     C63243   6.927   8.390   2.844 -0.6441  0.0422 -0.3135
  459MOL0     C63244   6.855   8.260   2.811  0.7444  0.2484  0.1905
  459MOL0     C63245   6.899   8.181   2.692  0.0341  0.3050  0.1551
  459MOL0     C63246   6.863   8.037   2.690  0.0003  0.8882 -0.3051
  459MOL0     C63247   6.719   8.013   2.726  0.2823 -0.8420  1.1083
  459MOL0     C63248   6.660   7.880   2.679  0.5746  0.5897 -0.1072
  459MOL0    Cl63249   6.771   7.750   2.709  0.1033 -0.0627  0.1612
  459MOL0     C63250   6.484   8.612   2.680  0.4928  0.5089 -0.3379
  459MOL0     C63251   6.353   8.656   2.662  0.3822  1.0627  0.3152
  459MOL0     O63252   6.252   8.965   2.446  0.1563  0.2859 -0.6380
  459MOL0     C63253   6.025   9.077   2.545 -0.1799  0.2491  0.5016
  459MOL0     C63254   5.903   9.132   2.603 -0.3995 -0.2629  0.2823
  459MOL0     N63255   5.250   9.337   2.258  0.4193  1.0585 -0.8141
  459MOL0     N63256   5.186   9.287   2.158  0.0291  0.1807 -0.4530
  459MOL0     C63257   4.984   9.389   1.299  0.5898 -0.4125  0.0952
  459MOL0     C63258   5.122   9.359   1.311 -0.4090  0.8347  0.1244
  459MOL0     C63259   5.517   9.136   1.273  0.0023 -0.5891 -0.6133
  459MOL0     C63260   5.560   9.020   1.205 -0.8281 -0.3184 -0.5754
  459MOL0     C63261   5.694   8.995   1.187 -0.1338 -0.6056 -0.9257
  459MOL0     C63262   5.786   9.091   1.227 -0.6051 -0.1826  0.0763
  459MOL0     O63263   5.924   9.068   1.211  0.0657 -0.0913  0.5188
  459MOL0     C63264   5.965   9.090   1.069  0.1728  0.6503 -0.1980
  459MOL0     C63265   6.102   9.025   1.049  0.3538  0.0620  0.1804
  459MOL0     C63266   6.157   9.062   0.906 -0.3042  0.0285 -0.2431
  459MOL0     C63267   6.281   8.973   0.879  0.1117 -0.3479  0.6923
  459MOL0     C63268   6.280   8.913   0.743  0.3151  0.9163 -0.1126
  459MOL0     C63269   6.290   8.861   0.637  0.6425  0.4904 -0.1936
  459MOL0     C63270   5.745   9.211   1.279  0.7218 -0.2619 -1.0264
  459MOL0     C63271   5.607   9.233   1.311  0.1323 -0.4386  0.0118
  459MOL0     C63272   5.584   9.367   1.380 -0.1588 -0.5321  0.3318
  459MOL0     H63273   5.113   9.113   1.530 -0.4201 -0.2238  0.7172
  459MOL0     H63274   4.873   9.177   1.526 -2.2620  1.7923 -0.8274
  459MOL0     H63275   4.653   9.200   1.471 -1.2429  0.8282 -2.6541
  459MOL0     H63276   4.563   9.337   1.440 -1.3471 -0.8643  1.4870
  459MOL0     H63277   4.759   9.438   1.613 -0.2554  0.5509 -0.9446
  459MOL0     H63278   4.583   9.437   1.620 -0.9982 -1.7647  0.8716
  459MOL0     H63279   4.592   9.201   1.726  1.2587 -1.8563  2.2853
  459MOL0     H63280   4.759   9.188   1.698 -0.3943 -0.2574 -5.7732
  459MOL0     H63281   4.788   9.375   1.888  0.7776 -1.0028  1.2669
  459MOL0     H63282   4.613   9.410   1.870 -1.3457 -1.6971  2.0305
  459MOL0     H63283   4.582   9.170   1.958 -0.9663  0.9296  1.8563
  459MOL0     H63284   4.637   9.298   2.071 -0.1993  0.0478  0.2787
  459MOL0     H63285   4.732   9.069   2.078 -0.5552 -1.2194 -2.4444
  459MOL0     H63286   4.817   9.089   1.938  0.8149 -2.7761  1.8419
  459MOL0     H63287   4.837   9.262   2.186  0.9383 -0.9182  2.0058
  459MOL0     H63288   4.933   9.300   2.033  0.5520  0.7017  0.9963
  459MOL0     H63289   4.956   9.046   2.197 -1.3829  0.1233 -0.3741
  459MOL0     H63290   5.037   9.081   2.044  1.1142 -1.4735  0.5395
  459MOL0     H63291   5.054   9.112   2.418  0.8121  0.5000  2.4341
  459MOL0     H63292   5.205   9.239   2.591 -1.6396  0.1000 -0.3683
  459MOL0     H63293   5.256   9.402   2.557  2.9634  0.2818  1.3099
  459MOL0     H63294   5.418   9.160   2.483 -1.9916 -0.5101 -0.4599
  459MOL0     H63295   5.472   9.311   2.432 -1.5454  1.7076  0.3312
  459MOL0     H63296   5.465   9.388   2.677 -0.1160 -0.3464  1.0994
  459MOL0     H63297   5.455   9.215   2.729  3.3138 -0.6953  0.6928
  459MOL0     H63298   5.693   9.290   2.558  0.8455  0.4466  0.6236
  459MOL0     H63299   5.694   9.266   2.724 -0.0311  1.3790 -0.2839
  459MOL0     H63300   5.703   8.857   2.546  0.1680 -0.3696 -4.2146
  459MOL0     H63301   5.798   8.670   2.506  0.0206 -2.9280  4.4905
  459MOL0     H63302   5.947   8.654   2.602 -0.6890  0.2415  0.8713
  459MOL0     H63303   5.958   8.658   2.423 -1.7639 -0.9542 -0.3618
  459MOL0     H63304   6.389   8.800   2.356 -3.4040  2.2740  2.1938
  459MOL0     H63305   6.627   8.702   2.382  2.5413 -3.0215  1.2464
  459MOL0     H63306   6.726   8.588   2.815 -1.5894 -0.8438  0.3690
  459MOL0     H63307   6.690   8.440   2.725  1.0271 -0.5139 -0.4572
  459MOL0     H63308   6.942   8.466   2.645 -0.9085 -0.6891  0.4609
  459MOL0     H63309   6.969   8.585   2.767 -0.0433 -0.3102  0.8906
  459MOL0     H63310   6.887   8.421   2.941  1.6042  2.5563 -0.0892
  459MOL0     H63311   7.034   8.370   2.852 -1.0124 -1.4737  2.7463
  459MOL0     H63312   6.747   8.276   2.815  0.3524 -2.0432 -0.0418
  459MOL0     H63313   6.872   8.188   2.892  2.0222 -1.7300 -1.7181
  459MOL0     H63314   6.841   8.225   2.610 -1.6624 -0.6899  0.7735
  459MOL0     H63315   7.005   8.199   2.668  0.6147 -3.4199 -0.6880
  459MOL0     H63316   6.917   7.983   2.768  1.0171  1.7185 -0.4120
  459MOL0     H63317   6.889   7.981   2.599 -0.2860 -2.5074  1.5458
  459MOL0     H63318   6.660   8.104   2.708  1.3566 -0.1784  0.8487
  459MOL0     H63319   6.725   8.016   2.835  1.4342  0.0700  1.0356
  459MOL0     H63320   6.637   7.900   2.574  0.4023  2.2974  0.2232
  459MOL0     H63321   6.564   7.849   2.723  1.9732 -2.5536  1.0496
  459MOL0     H63322   6.500   8.551   2.769  0.9791 -2.6716 -2.4603
  459MOL0     H63323   6.267   8.630   2.722  0.0132 -1.1742 -1.0351
  459MOL0     H63324   6.110   9.144   2.535  1.0072 -1.4793 -1.9182
  459MOL0     H63325   5.907   9.239   2.623 -1.8969  0.0031 -0.6104
  459MOL0     H63326   4.946   9.471   1.239 -0.2554 -0.1989  0.9057
  459MOL0     H63327   5.194   9.408   1.245 -0.0864 -1.5490 -1.4167
  459MOL0     H63328   5.492   8.946   1.165  1.1341  0.1731 -5.6433
  459MOL0     H63329   5.730   8.905   1.139 -0.5674 -1.5214  0.3867
  459MOL0     H63330   5.886   9.045   1.008 -0.4011  0.2643  0.7970
  459MOL0     H63331   5.956   9.195   1.038 -1.1272  0.7851  0.5410
  459MOL0     H63332   6.099   8.919   1.073 -1.9442  0.2222  0.7923
  459MOL0     H63333   6.176   9.069   1.118  2.6994 -1.8157 -0.9846
  459MOL0     H63334   6.079   9.045   0.831 -1.3224  0.5739  0.6667
  459MOL0     H63335   6.186   9.168   0.904 -2.2461  0.6211  0.8668
  459MOL0     H63336   6.306   8.905   0.961 -1.4884  0.8171  2.2367
  459MOL0     H63337   6.357   9.050   0.869 -0.5545  0.1165 -1.2490
  459MOL0     H63338   6.308   8.820   0.540  0.3948 -0.2792  0.0741
  459MOL0     H63339   5.814   9.292   1.301 -0.7538  0.5995  0.6958
  459MOL0     H63340   5.671   9.431   1.366  1.5077 -2.0758  2.9002
  459MOL0     H63341   5.495   9.424   1.350  1.3940  0.2800 -3.2535
  459MOL0     H63342   5.570   9.349   1.487 -1.4253 -0.0508  0.2660
  460MOL0     O63343   2.211  10.041   4.742  0.7955 -0.0707  0.1262
  460MOL0     C63344   2.199  10.150   4.803 -0.3348  0.3505  0.6157
  460MOL0     O63345   2.287  10.203   4.892 -0.1523 -0.7766  0.2817
  460MOL0     C63346   2.402  10.135   4.925 -0.8282 -0.2338  0.9352
  460MOL0     C63347   2.384  10.017   4.995 -0.1821  0.2348 -0.6591
  460MOL0     C63348   2.497   9.965   5.059 -0.1189  0.4799  0.7207
  460MOL0     C63349   2.627  10.015   5.043  0.7056  0.9190 -0.0526
  460MOL0     O63350   2.746   9.963   5.093  0.3877 -0.8393 -1.0287
  460MOL0     C63351   2.749   9.817   5.113 -0.4049 -0.4037  0.7016
  460MOL0     C63352   2.777   9.738   4.976  0.8116  0.6895 -0.2791
  460MOL0     C63353   2.906   9.787   4.926  0.1141 -0.0538  0.6618
  460MOL0     C63354   3.013   9.723   5.009 -0.8801 -0.5055 -0.2454
  460MOL0     C63355   3.146   9.753   4.949  0.6766 -0.2882 -1.1024
  460MOL0     C63356   3.196   9.650   4.847  0.5280  0.1479 -1.2358
  460MOL0     C63357   3.350   9.670   4.806 -0.1368  0.3945  0.1009
  460MOL0     C63358   3.439   9.647   4.932  0.2869  0.5979 -0.5740
  460MOL0     N63359   3.524   9.527   4.925  0.2403 -0.5262  0.0807
  460MOL0     C63360   3.637   9.515   4.988  0.4055 -0.3583 -0.2880
  460MOL0     C63361   3.693   9.398   4.949  0.8766  0.1346  0.1791
  460MOL0     C63362   3.808   9.327   5.001  0.4773 -0.6556  0.2824
  460MOL0     C63363   3.935   9.409   4.964  0.0769  0.3210  0.2953
  460MOL0     C63364   4.048   9.303   4.930 -0.0141 -0.0492  0.2817
  460MOL0     C63365   4.172   9.383   4.882  0.3785 -0.6628  0.5509
  460MOL0     O63366   4.274   9.291   4.860  0.8643  0.6951 -0.0953
  460MOL0     C63367   4.398   9.326   4.883  0.5697  0.4604  0.4178
  460MOL0     C63368   4.504   9.235   4.871  0.2100  0.5454  0.2279
  460MOL0     C63369   4.634   9.272   4.887 -0.8170  0.7859 -0.6410
  460MOL0     C63370   4.724   9.146   4.900 -0.3135  0.0761 -0.7209
  460MOL0     C63371   4.673   9.400   4.922 -0.5916  0.5067  0.4410
  460MOL0     C63372   4.803   9.435   4.979 -0.0345  0.9165 -0.1519
  460MOL0     O63373   4.813   9.539   5.059 -0.8199 -0.0363  0.3197
  460MOL0     C63374   4.939   9.564   5.107  0.0747  0.3524 -0.9089
  460MOL0     C63375   5.013   9.671   5.060 -0.2817  0.2512  0.6105
  460MOL0     C63376   5.142   9.697   5.110  0.2152  0.2787 -0.7395
  460MOL0     C63377   5.189   9.616   5.213  0.2007  0.0455 -0.9981
  460MOL0     O63378   5.309   9.634   5.286 -0.6672 -0.1629  1.6924
  460MOL0     C63379   5.417   9.714   5.219  0.3930 -0.4553 -0.5368
  460MOL0     C63380   5.557   9.670   5.265  0.0943  0.0693  0.2340
  460MOL0     C63381   5.571   9.696   5.417 -0.5865 -0.0928 -0.3930
  460MOL0     C63382   5.705   9.666   5.476  0.3386  0.0540 -0.2453
  460MOL0     C63383   5.821   9.767   5.427  0.5121  0.9002 -1.3482
  460MOL0     C63384   5.951   9.722   5.494  0.6984 -0.7402 -0.1194
  460MOL0     C63385   6.059   9.793   5.419  0.2578 -0.1139 -0.2327
  460MOL0     C63386   6.201   9.767   5.463  0.5529  0.5053 -0.4845
  460MOL0    Cl63387   6.260   9.594   5.434 -0.2518  0.6482 -0.2279
  460MOL0     C63388   5.109   9.515   5.270  0.4194 -0.5165  1.2249
  460MOL0     C63389   4.995   9.476   5.209  0.6396 -0.3814  0.4446
  460MOL0     O63390   4.897   9.366   4.942 -0.3084  0.4893  0.0890
  460MOL0     C63391   4.572   9.495   4.932 -0.0882 -0.7747  0.9344
  460MOL0     C63392   4.438   9.459   4.910 -0.5480 -0.3552 -0.0176
  460MOL0     N63393   3.618   9.340   4.851  0.4611 -0.0050 -0.0092
  460MOL0     N63394   3.511   9.417   4.846 -0.2357  0.8027  0.9025
  460MOL0     C63395   2.644  10.135   4.968  0.1408  0.1904 -0.7246
  460MOL0     C63396   2.532  10.200   4.907  0.4024 -0.1105 -0.5121
  460MOL0     C63397   2.076  10.231   4.773  0.5851 -0.3957 -0.5430
  460MOL0     C63398   2.027  10.224   4.640 -0.2167 -0.7053 -0.2367
  460MOL0     C63399   1.922  10.301   4.589  0.3313 -0.0850 -0.4265
  460MOL0     C63400   1.860  10.394   4.683 -0.1278  0.3753  0.2651
  460MOL0     O63401   1.758  10.473   4.650  0.9756 -0.5559 -0.5401
  460MOL0     C63402   1.666  10.422   4.545 -0.2073 -0.3994 -0.3515
  460MOL0     C63403   1.532  10.499   4.577 -0.5084 -0.5386  0.8630
  460MOL0     C63404   1.527  10.644   4.525 -0.2763 -0.4460 -0.4819
  460MOL0     C63405   1.397  10.717   4.553 -0.3085 -0.5917 -0.7216
  460MOL0     C63406   1.279  10.667   4.482 -0.1275  0.5022 -0.7361
  460MOL0     C63407   1.176  10.629   4.425  0.1503 -0.1157 -0.6549
  460MOL0     C63408   1.910  10.410   4.810 -0.3943 -0.3627 -0.3476
  460MOL0     C63409   2.021  10.331   4.862  0.2700 -0.5757  0.6714
  460MOL0     C63410   2.070  10.351   5.001 -0.0985  0.2395  0.4664
  460MOL0     H63411   2.294   9.963   5.024  0.7567 -0.9404  0.1552
  460MOL0     H63412   2.472   9.881   5.124 -1.4785 -1.2183 -1.8205
  460MOL0     H63413   2.653   9.783   5.153 -0.1268 -1.9176  0.1713
  460MOL0     H63414   2.818   9.788   5.193 -0.0036  0.6410  0.7505
  460MOL0     H63415   2.783   9.631   4.997 -1.0729  1.2582  4.4372
  460MOL0     H63416   2.698   9.756   4.902 -0.7886 -2.6508  0.4019
  460MOL0     H63417   2.914   9.757   4.822 -1.7641 -0.4873  0.6107
  460MOL0     H63418   2.907   9.896   4.925  0.0048 -0.0023  2.3635
  460MOL0     H63419   3.021   9.767   5.109  3.0816  0.5174 -0.8352
  460MOL0     H63420   2.995   9.615   5.010 -0.6492 -0.5427  0.8025
  460MOL0     H63421   3.210   9.769   5.036 -0.3789 -0.9027 -0.1782
  460MOL0     H63422   3.137   9.853   4.907 -0.0626  0.2679  0.2891
  460MOL0     H63423   3.173   9.549   4.882 -2.3391  0.9915 -0.3667
  460MOL0     H63424   3.132   9.661   4.759 -1.7660  2.0501  0.5084
  460MOL0     H63425   3.360   9.777   4.785  0.8160  0.1137 -0.9672
  460MOL0     H63426   3.379   9.613   4.717 -0.4069  0.5577 -0.0905
  460MOL0     H63427   3.497   9.738   4.953 -0.0288  0.5526  0.5395
  460MOL0     H63428   3.382   9.631   5.024 -0.9274  1.0127 -1.2328
  460MOL0     H63429   3.675   9.589   5.057 -0.1187 -0.0519 -0.3227
  460MOL0     H63430   3.811   9.223   4.966 -0.0366  0.3119 -2.9775
  460MOL0     H63431   3.801   9.316   5.109 -2.7666  0.0638  0.2686
  460MOL0     H63432   3.920   9.464   4.870 -3.2191 -2.1843 -0.8014
  460MOL0     H63433   3.971   9.467   5.050  1.2318 -0.9993  0.7340
  460MOL0     H63434   4.064   9.251   5.025 -0.7348 -0.9721 -0.0940
  460MOL0     H63435   4.015   9.233   4.853  0.5412 -1.1988  1.0638
  460MOL0     H63436   4.156   9.430   4.784  1.6388 -1.0399  0.1472
  460MOL0     H63437   4.188   9.460   4.958  2.3180  0.2570 -0.7098
  460MOL0     H63438   4.466   9.133   4.865 -1.5954  1.0088  2.2620
  460MOL0     H63439   4.797   9.139   4.819  2.7761 -0.5724  1.9040
  460MOL0     H63440   4.661   9.056   4.895 -0.4134  0.1031 -0.0949
  460MOL0     H63441   4.779   9.135   4.994  0.7742 -1.1327 -1.4604
  460MOL0     H63442   4.962   9.736   4.990 -2.2266 -0.4033  1.3428
  460MOL0     H63443   5.210   9.774   5.073  3.6083 -1.9923  0.3549
  460MOL0     H63444   5.415   9.704   5.110  1.0936 -1.8407 -0.4374
  460MOL0     H63445   5.410   9.819   5.250 -0.1516 -0.7996  0.5690
  460MOL0     H63446   5.562   9.563   5.239 -2.1534  0.5308 -2.6129
  460MOL0     H63447   5.641   9.712   5.210 -0.2863  0.2654 -0.1953
  460MOL0     H63448   5.498   9.636   5.473  0.1016 -0.4184  0.1608
  460MOL0     H63449   5.547   9.801   5.432 -3.6090 -0.6350 -0.7932
  460MOL0     H63450   5.735   9.566   5.444 -3.8191 -0.7360 -2.3317
  460MOL0     H63451   5.694   9.655   5.584  1.4483 -3.3753 -0.3791
  460MOL0     H63452   5.831   9.755   5.318  0.4339 -0.3129 -1.2377
  460MOL0     H63453   5.794   9.869   5.454  2.7705  1.3028 -0.4460
  460MOL0     H63454   5.951   9.613   5.487 -0.9818 -0.7449 -0.6307
  460MOL0     H63455   5.953   9.757   5.597  0.1980  0.4053 -0.4751
  460MOL0     H63456   6.040   9.900   5.431 -0.2391  0.0077 -1.9343
  460MOL0     H63457   6.056   9.760   5.315 -2.4168 -1.0273  0.0767
  460MOL0     H63458   6.220   9.807   5.563 -1.2611  1.1093 -0.3386
  460MOL0     H63459   6.264   9.835   5.406 -0.1073  3.5305  2.0746
  460MOL0     H63460   5.155   9.456   5.349  1.2128 -0.8848  0.5174
  460MOL0     H63461   4.938   9.388   5.238 -0.8320  0.3161 -0.1861
  460MOL0     H63462   4.596   9.599   4.949 -0.7954 -0.5365  0.5522
  460MOL0     H63463   4.363   9.537   4.907 -0.4216 -0.2522 -1.7964
  460MOL0     H63464   2.740  10.186   4.969 -0.1837  0.8408  0.9772
  460MOL0     H63465   2.550  10.301   4.872  2.4546  0.2308  1.3389
  460MOL0     H63466   2.086  10.170   4.567 -0.3746 -0.0581 -0.8526
  460MOL0     H63467   1.887  10.305   4.487 -0.9231 -1.5282 -0.0866
  460MOL0     H63468   1.702  10.435   4.442  1.2070 -2.2428 -0.1432
  460MOL0     H63469   1.645  10.315   4.548  2.3780 -0.9551  0.9871
  460MOL0     H63470   1.508  10.502   4.684  1.0548 -1.0117  1.2631
  460MOL0     H63471   1.458  10.433   4.532 -0.0204 -0.0456 -0.7424
  460MOL0     H63472   1.608  10.704   4.567 -1.7851  0.9075  0.5976
  460MOL0     H63473   1.545  10.653   4.417  1.7152 -1.1011 -0.2597
  460MOL0     H63474   1.403  10.823   4.530  0.0914 -1.3021 -4.5528
  460MOL0     H63475   1.378  10.709   4.660 -0.6838 -2.0833 -0.8706
  460MOL0     H63476   1.091  10.599   4.367  1.1147  0.5532 -2.4743
  460MOL0     H63477   1.849  10.474   4.873  1.6727  1.1467  0.2376
  460MOL0     H63478   2.003  10.418   5.054  0.2614 -0.2875  1.6251
  460MOL0     H63479   2.085  10.258   5.058  3.0652 -0.7111 -1.6273
  460MOL0     H63480   2.157  10.416   4.991 -1.2801  1.5262 -2.6512
  461MOL0     O63481  10.792   0.686   4.359 -0.3610  0.5368 -0.2232
  461MOL0     C63482  10.757   0.589   4.427  0.5090  0.0238 -0.1315
  461MOL0     O63483  10.820   0.472   4.435  0.2005 -0.1412  0.3241
  461MOL0     C63484  10.948   0.469   4.390  0.4655 -0.0345 -0.5730
  461MOL0     C63485  10.972   0.408   4.265  0.1977  0.1787 -0.0352
  461MOL0     C63486  11.105   0.404   4.217 -0.4475  0.2636 -0.5211
  461MOL0     C63487  11.212   0.474   4.276  0.0733  0.7501  0.1416
  461MOL0     O63488  11.332   0.467   4.218 -0.0274  0.5627 -0.7109
  461MOL0     C63489  11.424   0.571   4.249  0.2122 -0.1843 -0.1626
  461MOL0     C63490  11.544   0.569   4.157 -0.3688 -0.5007  0.0552
  461MOL0     C63491  11.619   0.439   4.158 -0.3393  0.6171  0.3781
  461MOL0     C63492  11.745   0.459   4.078  0.0447  1.1280 -0.2733
  461MOL0     C63493  11.832   0.325   4.090  0.0599  0.1346 -0.3649
  461MOL0     C63494  11.961   0.348   4.008 -0.4616  0.2386 -0.5969
  461MOL0     C63495  12.078   0.271   4.080 -0.4286  0.5350  0.2122
  461MOL0     C63496  12.139   0.352   4.194  0.2848 -0.5236  0.7585
  461MOL0     N63497  12.277   0.335   4.218  0.4603  0.4955 -0.5158
  461MOL0     C63498  12.318   0.301   4.346  0.3364  0.2808  0.4238
  461MOL0     C63499  12.449   0.262   4.315 -0.3325 -0.3128  0.0088
  461MOL0     C63500  12.544   0.223   4.431 -0.1043 -0.5110  1.0282
  461MOL0     C63501  12.631   0.109   4.374 -0.0840  0.2452  0.5694
  461MOL0     C63502  12.671   0.016   4.485 -0.2638  0.1673  0.1110
  461MOL0     C63503  12.783   0.084   4.569  0.0833  0.0470  0.5259
  461MOL0     O63504  12.899   0.116   4.482  0.2762 -0.1561 -0.1082
  461MOL0     C63505  12.982   0.015   4.442  0.6401 -0.2235 -0.0275
  461MOL0     C63506  12.967  -0.118   4.484 -0.3350 -0.0413  0.2177
  461MOL0     C63507  13.068  -0.209   4.459 -0.4237 -0.1183  0.0792
  461MOL0     C63508  13.049  -0.350   4.514 -0.2623  0.7724 -0.1148
  461MOL0     C63509  13.186  -0.171   4.392  1.1448 -0.2137  0.3187
  461MOL0     C63510  13.310  -0.258   4.370  1.0480  0.4628  0.2039
  461MOL0     O63511  13.400  -0.223   4.272  1.1971 -0.2135 -0.7270
  461MOL0     C63512  13.515  -0.288   4.276 -0.2164 -0.7398 -0.2490
  461MOL0     C63513  13.527  -0.426   4.237 -0.0308 -0.3428 -0.7712
  461MOL0     C63514  13.653  -0.495   4.263 -0.0923  0.2845  0.1581
  461MOL0     C63515  13.762  -0.425   4.322  0.5363  0.2250 -0.0319
  461MOL0     O63516  13.876  -0.478   4.373 -0.8332  0.8205  1.0434
  461MOL0     C63517  13.910  -0.617   4.325 -0.4262 -0.4134  0.2552
  461MOL0     C63518  14.058  -0.657   4.346 -0.4405 -0.4913  0.9498
  461MOL0     C63519  14.156  -0.569   4.267  0.0052  0.5926 -0.1496
  461MOL0     C63520  14.296  -0.572   4.310  0.4496  0.0730 -0.5070
  461MOL0     C63521  14.355  -0.709   4.312 -0.1068 -0.1784  0.0705
  461MOL0     C63522  14.509  -0.702   4.348 -0.4605  0.1804 -0.2034
  461MOL0     C63523  14.556  -0.849   4.380 -0.0885 -0.5660 -0.2735
  461MOL0     C63524  14.693  -0.842   4.439  0.0304 -0.0964  0.3188
  461MOL0    Cl63525  14.683  -0.772   4.608  0.2171  0.6237  0.4083
  461MOL0     C63526  13.753  -0.287   4.353  0.2526 -0.1054  0.1401
  461MOL0     C63527  13.635  -0.217   4.318 -0.2839  0.5821  0.0473
  461MOL0     O63528  13.330  -0.357   4.450 -0.6110 -0.1401  0.2196
  461MOL0     C63529  13.189  -0.038   4.328  0.0556  0.6170  0.0997
  461MOL0     C63530  13.087   0.052   4.364 -0.3823  0.6143  0.3380
  461MOL0     N63531  12.484   0.300   4.185  0.0621  0.3904 -0.0692
  461MOL0     N63532  12.379   0.352   4.133 -0.5987  0.3569  0.6161
  461MOL0     C63533  11.180   0.536   4.399  0.1856  0.0791 -0.2746
  461MOL0     C63534  11.049   0.537   4.454  0.6421 -0.5227  0.2139
  461MOL0     C63535  10.623   0.594   4.500 -0.1025  0.1580 -0.3592
  461MOL0     C63536  10.602   0.487   4.588 -0.3645 -0.1139 -0.2897
  461MOL0     C63537  10.488   0.485   4.660  0.1079 -0.7492 -0.8696
  461MOL0     C63538  10.395   0.591   4.662  0.2496 -0.2315 -0.0948
  461MOL0     O63539  10.280   0.584   4.733  0.0781  0.1219  1.0412
  461MOL0     C63540  10.257   0.453   4.803 -0.1521  0.3726 -0.2897
  461MOL0     C63541  10.132   0.446   4.897 -0.1979  0.1124  0.6212
  461MOL0     C63542   9.999   0.449   4.811 -0.1763  0.9408  0.1051
  461MOL0     C63543   9.972   0.557   4.708 -0.0870  0.9470 -0.2229
  461MOL0     C63544   9.837   0.539   4.655 -0.4139 -0.5075 -0.6154
  461MOL0     C63545   9.731   0.545   4.602 -0.4538  0.8279 -0.1678
  461MOL0     C63546  10.410   0.695   4.570 -1.0124 -0.4828 -0.0867
  461MOL0     C63547  10.526   0.692   4.488  0.8390 -0.0595  0.2887
  461MOL0     C63548  10.544   0.803   4.381 -0.4755  0.1647  0.4031
  461MOL0     H63549  10.895   0.356   4.209  1.0656  1.9970 -3.1299
  461MOL0     H63550  11.118   0.341   4.130 -2.8101  0.7212 -1.2790
  461MOL0     H63551  11.456   0.559   4.352 -1.7276  4.1808  1.1710
  461MOL0     H63552  11.365   0.663   4.246 -1.2795 -0.9819  2.3793
  461MOL0     H63553  11.513   0.592   4.055  0.5852  1.2848  0.1166
  461MOL0     H63554  11.608   0.648   4.200 -0.8879  0.0338 -0.1373
  461MOL0     H63555  11.644   0.411   4.261  1.7913 -0.2571 -0.3208
  461MOL0     H63556  11.559   0.358   4.116  0.3525  0.2787  0.0218
  461MOL0     H63557  11.714   0.465   3.973 -2.0291 -2.4505 -0.0039
  461MOL0     H63558  11.801   0.549   4.107 -0.0718  1.1064  0.0211
  461MOL0     H63559  11.782   0.236   4.049  1.5818 -1.1532  0.4808
  461MOL0     H63560  11.848   0.307   4.197  0.1292 -1.0857 -0.5635
  461MOL0     H63561  11.929   0.310   3.911  0.0549 -0.1498 -0.6198
  461MOL0     H63562  11.985   0.453   3.990  0.3094  0.3563  0.9472
  461MOL0     H63563  12.151   0.261   3.999 -0.8919  1.6903 -0.3671
  461MOL0     H63564  12.042   0.179   4.127 -1.1207  1.9339  2.5767
  461MOL0     H63565  12.136   0.461   4.182  1.7244 -0.5229  0.2299
  461MOL0     H63566  12.083   0.335   4.287 -0.8004  0.3112  0.2834
  461MOL0     H63567  12.255   0.280   4.432 -2.2434 -2.3187 -1.8826
  461MOL0     H63568  12.477   0.193   4.512 -1.6375  2.7834  1.1279
  461MOL0     H63569  12.595   0.316   4.457 -1.5391  1.0806 -1.3830
  461MOL0     H63570  12.571   0.064   4.294 -1.7317  3.0833  0.0847
  461MOL0     H63571  12.718   0.151   4.323  0.6875 -1.0465  0.7853
  461MOL0     H63572  12.589   0.003   4.556 -2.5271  3.5916 -1.5669
  461MOL0     H63573  12.703  -0.080   4.443 -0.4884  0.9259 -1.9165
  461MOL0     H63574  12.743   0.181   4.601 -0.9081  0.3313 -1.4499
  461MOL0     H63575  12.815   0.030   4.658  3.7314  0.6550 -0.2710
  461MOL0     H63576  12.880  -0.151   4.539 -0.2706 -1.8336 -0.6797
  461MOL0     H63577  13.037  -0.421   4.431  1.7216 -0.4534  0.5673
  461MOL0     H63578  12.962  -0.350   4.580 -0.8830 -0.9756 -0.8696
  461MOL0     H63579  13.130  -0.388   4.576  0.8767  1.8440 -0.8892
  461MOL0     H63580  13.446  -0.483   4.193 -0.1878 -1.2711  0.6743
  461MOL0     H63581  13.656  -0.601   4.243 -0.6531  0.7439 -2.8082
  461MOL0     H63582  13.855  -0.697   4.374 -1.9093 -0.6557 -1.6756
  461MOL0     H63583  13.885  -0.642   4.221  0.8667  0.3881 -0.2782
  461MOL0     H63584  14.081  -0.640   4.452  1.6231  1.1333  0.3021
  461MOL0     H63585  14.083  -0.761   4.322  3.3117  0.9738 -2.6113
  461MOL0     H63586  14.124  -0.464   4.266 -0.1421  0.6519 -3.5886
  461MOL0     H63587  14.159  -0.602   4.162  1.9459  0.0001  0.0552
  461MOL0     H63588  14.302  -0.519   4.406  1.1864  2.1399 -1.6248
  461MOL0     H63589  14.353  -0.512   4.238  3.1439 -2.6727 -0.8268
  461MOL0     H63590  14.311  -0.773   4.388  0.0118  0.5812  0.7906
  461MOL0     H63591  14.345  -0.757   4.214 -0.2175  2.4169 -1.2803
  461MOL0     H63592  14.519  -0.635   4.435 -1.8851  1.0578 -0.6779
  461MOL0     H63593  14.572  -0.676   4.263 -1.2726  0.1500 -0.8225
  461MOL0     H63594  14.568  -0.900   4.284  0.0178 -1.1271  0.0324
  461MOL0     H63595  14.488  -0.898   4.450  2.2480 -0.8030  2.0170
  461MOL0     H63596  14.759  -0.786   4.372 -0.5444 -2.0157 -1.9869
  461MOL0     H63597  14.741  -0.940   4.448  2.5517  0.9687 -0.4878
  461MOL0     H63598  13.830  -0.239   4.414  1.9610 -0.5997 -1.5349
  461MOL0     H63599  13.624  -0.118   4.361 -1.9673 -0.6337  2.7117
  461MOL0     H63600  13.270  -0.000   4.266 -0.2789 -0.3509 -0.9555
  461MOL0     H63601  13.095   0.153   4.324 -1.0200  1.1439  1.4962
  461MOL0     H63602  11.257   0.596   4.446  0.0544  0.8458 -1.0025
  461MOL0     H63603  11.025   0.593   4.544  0.9728  2.4157 -1.4028
  461MOL0     H63604  10.674   0.406   4.591  2.0358  1.6128 -3.8982
  461MOL0     H63605  10.466   0.389   4.706  0.0785 -0.5523 -0.4718
  461MOL0     H63606  10.257   0.373   4.730 -0.4883  0.8408 -0.8115
  461MOL0     H63607  10.347   0.432   4.861  0.6727  1.0460 -1.2988
  461MOL0     H63608  10.131   0.528   4.970 -0.0020  1.2354 -0.5944
  461MOL0     H63609  10.154   0.352   4.947  0.1244  0.4565  1.1376
  461MOL0     H63610  10.002   0.351   4.762 -0.7095 -0.4494  2.6865
  461MOL0     H63611   9.909   0.442   4.873  0.6757 -0.6177  1.2634
  461MOL0     H63612  10.033   0.553   4.617 -1.8612 -0.3851 -1.4530
  461MOL0     H63613   9.983   0.656   4.752 -0.9097  1.6215 -1.4804
  461MOL0     H63614   9.634   0.533   4.558  0.4770 -2.1866 -1.7020
  461MOL0     H63615  10.342   0.777   4.550 -2.7641 -1.9282 -0.3057
  461MOL0     H63616  10.557   0.759   4.282  1.3008  0.6637  0.3749
  461MOL0     H63617  10.459   0.871   4.373  1.1038  2.0161 -2.7882
  461MOL0     H63618  10.628   0.866   4.415  0.7093 -1.1776  0.0731
  462MOL0     O63619   7.537   4.585   5.123  0.5511 -0.7076 -0.1083
  462MOL0     C63620   7.534   4.470   5.077  0.5950 -0.0912  0.1200
  462MOL0     O63621   7.422   4.394   5.062 -0.2447  0.5811  1.0534
  462MOL0     C63622   7.301   4.446   5.108  0.2786 -0.1540 -0.5100
  462MOL0     C63623   7.203   4.501   5.013  0.1364 -0.4512 -0.7268
  462MOL0     C63624   7.076   4.539   5.070  0.6469 -0.2821 -1.2891
  462MOL0     C63625   7.043   4.539   5.207 -0.6151  0.5097  0.1960
  462MOL0     O63626   6.928   4.589   5.262 -0.5587 -0.1370  0.5684
  462MOL0     C63627   6.822   4.616   5.170  0.6958  0.4135  1.1003
  462MOL0     C63628   6.689   4.678   5.218 -0.6988 -0.1666  0.3435
  462MOL0     C63629   6.619   4.588   5.324  0.3370  0.3508  0.1449
  462MOL0     C63630   6.475   4.643   5.354 -1.1814  0.8105  0.5309
  462MOL0     C63631   6.402   4.544   5.440  0.0107  0.6611 -0.8222
  462MOL0     C63632   6.288   4.616   5.512  0.2053  0.1230  0.0417
  462MOL0     C63633   6.192   4.523   5.592  0.6186  0.0054 -0.6555
  462MOL0     C63634   6.195   4.518   5.750 -0.1957 -0.4180 -0.0433
  462MOL0     N63635   6.329   4.482   5.803 -0.0079 -0.6961  0.5925
  462MOL0     C63636   6.380   4.356   5.814 -0.0479 -0.2256  0.8778
  462MOL0     C63637   6.501   4.367   5.855 -0.1812  0.2708 -1.2490
  462MOL0     C63638   6.605   4.260   5.885  0.3599  0.1671 -0.1034
  462MOL0     C63639   6.749   4.288   5.851 -0.1425  0.4263 -0.2370
  462MOL0     C63640   6.762   4.293   5.696 -0.0570 -0.2262 -0.2151
  462MOL0     C63641   6.894   4.261   5.636 -0.2193 -0.1794 -0.4611
  462MOL0     O63642   6.999   4.347   5.686  0.7909  0.7339  0.0878
  462MOL0     C63643   7.125   4.316   5.645  0.0069  0.6439 -0.0856
  462MOL0     C63644   7.217   4.411   5.675 -0.2530 -0.2104 -0.2224
  462MOL0     C63645   7.355   4.395   5.642  0.2581 -0.5001 -0.0443
  462MOL0     C63646   7.440   4.508   5.681 -0.9271  0.1817  0.1698
  462MOL0     C63647   7.395   4.277   5.564 -0.9431 -0.0446 -1.0210
  462MOL0     C63648   7.534   4.249   5.513 -0.3550 -0.1274  0.5479
  462MOL0     O63649   7.549   4.142   5.422 -0.9247  0.4958  0.4803
  462MOL0     C63650   7.678   4.099   5.395 -0.2533 -0.3942  0.7445
  462MOL0     C63651   7.738   4.011   5.484  0.1773 -0.3495 -1.0178
  462MOL0     C63652   7.873   3.976   5.471 -0.7434 -0.2010 -0.7063
  462MOL0     C63653   7.936   4.013   5.348  0.3883 -0.5953 -0.7721
  462MOL0     O63654   8.065   3.981   5.315 -0.2402  0.3562 -0.5993
  462MOL0     C63655   8.149   3.917   5.416 -0.1536  0.3738 -0.2758
  462MOL0     C63656   8.297   3.918   5.398  0.6567 -0.1093  1.0692
  462MOL0     C63657   8.329   3.863   5.251  0.0097  0.9934 -0.5120
  462MOL0     C63658   8.476   3.880   5.221 -0.6364 -0.2275  0.4027
  462MOL0     C63659   8.522   3.812   5.096 -0.2098  0.5147 -0.1978
  462MOL0     C63660   8.672   3.849   5.067 -0.4413 -0.5286 -0.1063
  462MOL0     C63661   8.725   3.757   4.964 -0.1981  0.8549 -0.0675
  462MOL0     C63662   8.867   3.793   4.903  0.0037  0.6315  0.6751
  462MOL0    Cl63663   9.003   3.807   5.023 -0.3174 -0.1697  0.0752
  462MOL0     C63664   7.875   4.096   5.258  0.1723 -0.5839  0.1382
  462MOL0     C63665   7.743   4.137   5.275 -0.6177  0.8446  0.2629
  462MOL0     O63666   7.627   4.304   5.570 -0.9738 -0.2944  0.0592
  462MOL0     C63667   7.292   4.188   5.524 -0.9421  0.0921 -0.4175
  462MOL0     C63668   7.155   4.203   5.567 -0.3019 -0.1851  0.0146
  462MOL0     N63669   6.524   4.504   5.873 -0.2067  0.6555 -0.3500
  462MOL0     N63670   6.425   4.572   5.835  0.3557  0.6920  0.3388
  462MOL0     C63671   7.130   4.481   5.292  0.0706  0.0964  0.1521
  462MOL0     C63672   7.257   4.435   5.249 -0.6692  0.5604  0.8003
  462MOL0     C63673   7.657   4.421   5.022 -0.3701 -0.8935 -0.0686
  462MOL0     C63674   7.639   4.313   4.931  0.3880 -0.2890 -0.6515
  462MOL0     C63675   7.754   4.245   4.889 -1.2674 -0.2570 -0.7323
  462MOL0     C63676   7.887   4.285   4.917 -0.3209  0.4659 -0.3616
  462MOL0     O63677   8.000   4.221   4.880  0.0361 -0.1119 -0.1230
  462MOL0     C63678   7.989   4.122   4.778 -0.1700  0.4266 -0.3498
  462MOL0     C63679   7.999   4.181   4.634  0.6417  0.5553 -0.3413
  462MOL0     C63680   7.981   4.065   4.528  0.7334  0.2610  0.1657
  462MOL0     C63681   7.981   4.128   4.381  0.0918 -0.2073 -0.6735
  462MOL0     C63682   8.041   4.039   4.277 -0.1835  0.2901 -0.5001
  462MOL0     C63683   8.092   3.956   4.211  0.8527  0.0573  0.1676
  462MOL0     C63684   7.905   4.388   5.010  0.3233 -0.6621 -0.1480
  462MOL0     C63685   7.795   4.456   5.066 -0.7416 -0.5030  0.5893
  462MOL0     C63686   7.825   4.555   5.169  0.3082 -0.4349  0.0526
  462MOL0     H63687   7.221   4.514   4.907 -0.0536  1.2008 -0.5789
  462MOL0     H63688   7.014   4.590   4.997  2.5926  0.6743 -2.3519
  462MOL0     H63689   6.794   4.524   5.118  2.9521  1.4896 -2.3577
  462MOL0     H63690   6.850   4.689   5.094  0.4937 -1.9180 -1.3641
  462MOL0     H63691   6.709   4.772   5.270 -0.2291 -0.7542  1.2528
  462MOL0     H63692   6.624   4.698   5.133  2.0246  0.4080 -1.7408
  462MOL0     H63693   6.614   4.484   5.289  2.3112 -0.4729  2.0115
  462MOL0     H63694   6.680   4.590   5.415 -2.2702  0.6280  2.0077
  462MOL0     H63695   6.486   4.742   5.399 -2.1550  0.9453  0.4973
  462MOL0     H63696   6.414   4.646   5.263  0.8024 -1.0858 -0.9691
  462MOL0     H63697   6.468   4.500   5.515 -1.5295  2.0630  1.5065
  462MOL0     H63698   6.372   4.463   5.372  2.4674 -0.1175 -1.0565
  462MOL0     H63699   6.332   4.683   5.587 -1.1350 -2.1175  3.0696
  462MOL0     H63700   6.230   4.675   5.441 -1.8872 -1.5595  0.2781
  462MOL0     H63701   6.211   4.421   5.559  0.1385 -0.6432  0.9795
  462MOL0     H63702   6.089   4.548   5.564 -1.2833 -0.5330  4.7043
  462MOL0     H63703   6.156   4.615   5.784 -1.4464 -1.4920  1.8077
  462MOL0     H63704   6.133   4.434   5.784  1.2888 -1.9618 -0.9951
  462MOL0     H63705   6.320   4.267   5.807  0.5824 -0.5396 -0.9460
  462MOL0     H63706   6.578   4.164   5.841  0.0894  1.0352 -1.9319
  462MOL0     H63707   6.615   4.240   5.993 -3.2941 -0.1963  0.2855
  462MOL0     H63708   6.780   4.386   5.890 -3.4090  0.8384  1.7662
  462MOL0     H63709   6.816   4.210   5.887 -1.6341 -1.3140 -1.1031
  462MOL0     H63710   6.690   4.228   5.646 -0.6852 -1.2654  1.9231
  462MOL0     H63711   6.740   4.394   5.661 -0.1635 -0.0902  0.2420
  462MOL0     H63712   6.930   4.160   5.656  0.5126 -0.0994 -1.3179
  462MOL0     H63713   6.871   4.269   5.529  0.1004 -2.1388 -0.6984
  462MOL0     H63714   7.182   4.500   5.726 -4.2980  0.4002 -3.4877
  462MOL0     H63715   7.498   4.552   5.600 -2.3479  4.0793  1.0115
  462MOL0     H63716   7.508   4.475   5.761 -3.0656 -2.0634  1.2104
  462MOL0     H63717   7.398   4.599   5.725  1.0370  0.4057  1.7470
  462MOL0     H63718   7.671   3.981   5.564 -0.5709  3.1607 -0.1521
  462MOL0     H63719   7.913   3.904   5.542 -0.7845 -0.7348 -1.2175
  462MOL0     H63720   8.132   3.971   5.510  1.9354  2.9558 -1.2469
  462MOL0     H63721   8.107   3.816   5.423  0.9625 -0.3780 -3.1517
  462MOL0     H63722   8.332   4.020   5.411 -2.0158  1.0157  0.2552
  462MOL0     H63723   8.334   3.848   5.473 -0.1627 -0.9001  0.7608
  462MOL0     H63724   8.273   3.917   5.173  2.8634 -0.2533 -3.6592
  462MOL0     H63725   8.301   3.757   5.251 -1.1776  1.2893 -0.9062
  462MOL0     H63726   8.531   3.831   5.302  1.7683  1.4309 -0.1257
  462MOL0     H63727   8.509   3.984   5.211 -0.7690 -0.0456  1.7034
  462MOL0     H63728   8.511   3.705   5.114  0.9585  0.6558  1.6243
  462MOL0     H63729   8.462   3.850   5.013  0.1996  1.7674  0.0561
  462MOL0     H63730   8.733   3.843   5.157 -2.4610  0.2601  1.3979
  462MOL0     H63731   8.682   3.949   5.025  3.5852 -0.1789  1.2325
  462MOL0     H63732   8.651   3.737   4.886 -0.2905 -1.4579  0.5371
  462MOL0     H63733   8.747   3.658   5.005 -2.8936  0.1115 -0.2212
  462MOL0     H63734   8.863   3.894   4.862  2.3514  0.0690 -1.1434
  462MOL0     H63735   8.894   3.733   4.816  1.9969  2.3560  0.0323
  462MOL0     H63736   7.931   4.130   5.172 -0.0141 -1.6795 -0.4361
  462MOL0     H63737   7.687   4.187   5.197 -0.0370  0.1765 -0.6022
  462MOL0     H63738   7.309   4.095   5.471 -1.6447 -0.2390 -0.0677
  462MOL0     H63739   7.088   4.121   5.543  0.1877 -0.9562  1.1802
  462MOL0     H63740   7.109   4.465   5.397  1.2508  1.5439  0.6494
  462MOL0     H63741   7.321   4.383   5.319 -1.8400 -1.2578  0.5941
  462MOL0     H63742   7.540   4.284   4.897 -0.2442 -0.6393  1.3568
  462MOL0     H63743   7.739   4.177   4.805 -0.8405  2.4181 -3.1297
  462MOL0     H63744   8.074   4.054   4.783 -1.8223 -1.6959  0.6427
  462MOL0     H63745   7.907   4.051   4.788  0.2675  0.0598  0.7392
  462MOL0     H63746   8.096   4.230   4.624 -0.3843  2.8044 -0.1257
  462MOL0     H63747   7.935   4.270   4.621  0.0139  0.5778  2.2612
  462MOL0     H63748   8.070   4.001   4.528  1.6634  1.3249 -3.6422
  462MOL0     H63749   7.886   4.016   4.553  1.6248 -1.6830 -0.0514
  462MOL0     H63750   8.053   4.209   4.393  2.7799 -2.6809  1.3034
  462MOL0     H63751   7.884   4.163   4.344  0.0720  0.1067 -0.3368
  462MOL0     H63752   8.123   3.872   4.152  0.1830 -0.2753  0.2778
  462MOL0     H63753   8.008   4.389   5.043  1.4847 -1.2648 -3.4110
  462MOL0     H63754   7.930   4.558   5.198 -0.3240  1.8744  2.5128
  462MOL0     H63755   7.803   4.657   5.135 -2.5573 -1.3080 -1.0899
  462MOL0     H63756   7.761   4.535   5.255 -2.0950  0.2707 -1.4530
  463MOL0     O63757   2.474   5.864  10.995 -0.2265  0.3466 -0.7950
  463MOL0     C63758   2.385   5.823  11.072  0.3513  0.1392 -0.4739
  463MOL0     O63759   2.395   5.815  11.204  0.2465 -0.2175  0.3658
  463MOL0     C63760   2.508   5.871  11.267  0.1655 -0.2865 -0.2120
  463MOL0     C63761   2.590   5.793  11.348  0.0801  0.0904  0.0663
  463MOL0     C63762   2.713   5.828  11.407  1.2335 -0.1760 -0.6109
  463MOL0     C63763   2.767   5.947  11.371  0.2921 -0.5014 -0.0522
  463MOL0     O63764   2.887   6.010  11.412 -0.0721  1.1135 -0.2280
  463MOL0     C63765   2.990   5.930  11.478 -1.0825  0.6197  0.4737
  463MOL0     C63766   3.124   6.007  11.485 -0.4255 -0.5486 -0.9621
  463MOL0     C63767   3.183   6.040  11.345 -0.1353 -0.5028  0.4142
  463MOL0     C63768   3.303   6.139  11.370 -0.3927 -0.1325  0.3884
  463MOL0     C63769   3.358   6.203  11.242 -0.3369  0.2787  0.4675
  463MOL0     C63770   3.436   6.102  11.154 -0.7536  0.0608  0.6671
  463MOL0     C63771   3.402   6.128  11.008  0.0509  0.5015 -0.9337
  463MOL0     C63772   3.451   6.263  10.952 -0.6415  0.2728 -0.2891
  463MOL0     N63773   3.592   6.278  10.966  0.2325  0.3218  1.0788
  463MOL0     C63774   3.665   6.395  10.984 -0.5223  0.7219 -0.7148
  463MOL0     C63775   3.794   6.352  10.996  0.5596 -0.0758 -0.6600
  463MOL0     C63776   3.910   6.448  11.010  0.3485  0.2940 -0.3721
  463MOL0     C63777   3.887   6.566  11.103  0.0937  0.0291 -0.1530
  463MOL0     C63778   4.000   6.668  11.090  0.1179 -0.9046 -0.0358
  463MOL0     C63779   4.151   6.628  11.072  0.5558  1.0234 -0.8309
  463MOL0     O63780   4.175   6.544  11.194 -0.2755  0.0657  0.4764
  463MOL0     C63781   4.289   6.477  11.200  0.0552 -0.2041  0.0345
  463MOL0     C63782   4.401   6.491  11.119 -0.3841  1.4052 -0.2790
  463MOL0     C63783   4.515   6.411  11.141  0.0869  0.1562  0.4441
  463MOL0     C63784   4.624   6.433  11.039 -0.8144  0.4363  0.6953
  463MOL0     C63785   4.515   6.311  11.247  0.3787  0.0415  0.2357
  463MOL0     C63786   4.619   6.209  11.263 -0.7197 -0.3380  0.4420
  463MOL0     O63787   4.676   6.161  11.153  0.1596  0.3207  0.2212
  463MOL0     C63788   4.759   6.045  11.168 -0.5466 -0.7251  0.2698
  463MOL0     C63789   4.888   6.061  11.211 -0.3292  1.1709 -0.4885
  463MOL0     C63790   4.975   5.946  11.228 -0.0975  0.1576  0.1586
  463MOL0     C63791   4.929   5.818  11.194 -0.0712 -0.1168  0.3229
  463MOL0     O63792   5.005   5.706  11.194 -0.1621  0.2256  0.1070
  463MOL0     C63793   5.102   5.710  11.080 -0.2710  0.3461 -0.3157
  463MOL0     C63794   5.151   5.571  11.072 -0.7693 -0.0427  0.9653
  463MOL0     C63795   5.042   5.463  11.046 -1.0403  0.1783 -0.0136
  463MOL0     C63796   5.109   5.342  10.971 -0.2107  0.0171  0.4419
  463MOL0     C63797   5.119   5.368  10.818 -0.0299 -0.0940  1.3381
  463MOL0     C63798   5.169   5.243  10.742  0.5958  0.6480 -0.3554
  463MOL0     C63799   5.291   5.278  10.650  0.9770  0.1277 -0.1251
  463MOL0     C63800   5.294   5.191  10.529 -0.7213  0.8737  0.7846
  463MOL0    Cl63801   5.431   5.063  10.549  0.0346  0.2222  0.1296
  463MOL0     C63802   4.791   5.805  11.156  0.2884  0.2521  0.6574
  463MOL0     C63803   4.710   5.921  11.139  0.6670 -0.2848  0.3997
  463MOL0     O63804   4.651   6.174  11.376 -0.0063  0.4247  0.8033
  463MOL0     C63805   4.403   6.303  11.325 -0.1465  0.8942 -0.0399
  463MOL0     C63806   4.289   6.379  11.297  0.2914 -0.1497  0.2500
  463MOL0     N63807   3.791   6.212  10.992 -0.3074 -0.2374  0.5667
  463MOL0     N63808   3.677   6.171  10.957  0.0580  0.0375 -0.1290
  463MOL0     C63809   2.684   6.034  11.297 -0.5310 -0.2825 -0.0901
  463MOL0     C63810   2.565   5.994  11.243  0.4893 -0.5466  0.4354
  463MOL0     C63811   2.253   5.791  11.003  0.1423 -0.0789 -0.4991
  463MOL0     C63812   2.132   5.785  11.083 -0.1725  0.3972  0.5491
  463MOL0     C63813   2.012   5.763  11.019  0.5743  0.2632  0.7665
  463MOL0     C63814   2.001   5.743  10.884 -0.2794 -0.5857  0.3481
  463MOL0     O63815   1.873   5.723  10.846  0.5247  0.5614  0.4080
  463MOL0     C63816   1.853   5.738  10.700  0.1651  0.2415  0.5791
  463MOL0     C63817   1.709   5.767  10.693  0.3945 -0.0208 -0.1970
  463MOL0     C63818   1.650   5.802  10.550  0.8648  0.0343  0.1744
  463MOL0     C63819   1.514   5.875  10.548  0.0589 -0.1864  0.3874
  463MOL0     C63820   1.414   5.780  10.595  0.3718 -0.3434 -0.8771
  463MOL0     C63821   1.330   5.705  10.652 -0.2605  0.1034  1.0858
  463MOL0     C63822   2.122   5.744  10.806  0.4417  1.4166 -0.2127
  463MOL0     C63823   2.246   5.768  10.863  0.0986  0.5339 -0.2887
  463MOL0     C63824   2.362   5.768  10.771 -0.2390  0.6507 -0.2051
  463MOL0     H63825   2.550   5.697  11.378 -0.0552  0.5540  1.4049
  463MOL0     H63826   2.769   5.752  11.462 -0.6722 -1.9676 -1.0003
  463MOL0     H63827   3.014   5.835  11.429 -1.6260  0.2553  0.9013
  463MOL0     H63828   2.960   5.893  11.576 -1.7707  1.1685  0.4780
  463MOL0     H63829   3.114   6.095  11.549 -2.3667  0.8353 -3.0013
  463MOL0     H63830   3.199   5.942  11.532 -0.4606 -0.0482 -0.2000
  463MOL0     H63831   3.221   5.952  11.291 -1.6909 -0.2667 -1.1299
  463MOL0     H63832   3.112   6.086  11.277  1.1764  0.9651 -0.0359
  463MOL0     H63833   3.291   6.222  11.440  2.1476  0.4195  0.2823
  463MOL0     H63834   3.385   6.084  11.418 -1.7839 -0.1698  2.9090
  463MOL0     H63835   3.426   6.287  11.252  1.1689 -0.9147  0.7012
  463MOL0     H63836   3.275   6.239  11.180 -1.0068 -2.6846 -0.5774
  463MOL0     H63837   3.542   6.108  11.179 -0.2359  0.3296 -1.4273
  463MOL0     H63838   3.402   6.002  11.183  1.4800  0.1605  4.2370
  463MOL0     H63839   3.294   6.117  10.995 -0.1210  0.4497  0.3994
  463MOL0     H63840   3.438   6.048  10.942 -1.1887 -1.5002  0.7045
  463MOL0     H63841   3.429   6.270  10.845 -0.1016 -2.3253 -0.6496
  463MOL0     H63842   3.398   6.347  10.997 -0.4557  0.4739 -0.4454
  463MOL0     H63843   3.628   6.497  10.983 -1.8558  0.2884  0.4929
  463MOL0     H63844   3.944   6.482  10.912 -1.2859 -0.1053 -1.1164
  463MOL0     H63845   3.991   6.393  11.059  2.3078  4.5873  1.6708
  463MOL0     H63846   3.786   6.600  11.079 -0.2064  0.9251  2.1566
  463MOL0     H63847   3.871   6.548  11.209  1.6302 -1.4834 -0.1207
  463MOL0     H63848   3.980   6.720  10.997 -0.0234 -3.0686 -1.2821
  463MOL0     H63849   4.002   6.733  11.178  0.6810 -3.8490  2.3087
  463MOL0     H63850   4.162   6.570  10.980  1.0494  1.6623 -1.1857
  463MOL0     H63851   4.224   6.709  11.064  0.3372  1.3763  0.4601
  463MOL0     H63852   4.410   6.568  11.043 -1.6054  2.2912  0.4451
  463MOL0     H63853   4.615   6.353  10.965 -1.8899  2.1833 -1.1449
  463MOL0     H63854   4.726   6.426  11.078  0.3841 -0.7451 -2.3902
  463MOL0     H63855   4.619   6.531  10.991  0.8295  0.7111  1.0353
  463MOL0     H63856   4.921   6.162  11.234 -2.4926  1.8892 -0.3134
  463MOL0     H63857   5.076   5.964  11.262  0.3586  0.5272 -1.3490
  463MOL0     H63858   5.066   5.755  10.987  2.1344  2.5101 -0.3068
  463MOL0     H63859   5.183   5.774  11.116  0.1648  0.6651 -1.7810
  463MOL0     H63860   5.223   5.568  10.990 -2.1493 -1.5400 -0.2705
  463MOL0     H63861   5.196   5.537  11.165  0.1578 -2.2718 -0.1991
  463MOL0     H63862   4.962   5.514  10.992  0.7812  0.0669 -2.9975
  463MOL0     H63863   4.998   5.423  11.138  0.3587 -2.3045 -0.3425
  463MOL0     H63864   5.036   5.261  10.986  1.8459 -2.0106 -0.0338
  463MOL0     H63865   5.207   5.316  11.011 -0.5965 -0.7455  0.9355
  463MOL0     H63866   5.015   5.383  10.786  0.1920 -1.2303 -0.0116
  463MOL0     H63867   5.172   5.461  10.796 -1.5697  0.3096 -0.9966
  463MOL0     H63868   5.085   5.210  10.680 -1.0753  2.9485  0.5604
  463MOL0     H63869   5.187   5.164  10.816  0.2074  0.9797  0.1025
  463MOL0     H63870   5.385   5.269  10.706  1.2989 -1.6476 -0.9202
  463MOL0     H63871   5.280   5.383  10.619  2.4604 -0.0054 -1.1896
  463MOL0     H63872   5.322   5.249  10.441 -1.1331 -0.4089 -0.2304
  463MOL0     H63873   5.202   5.136  10.505 -0.2891  0.1437  0.7570
  463MOL0     H63874   4.751   5.709  11.127  0.8289  0.1199  0.3231
  463MOL0     H63875   4.604   5.910  11.117  0.2583  2.9468  0.3262
  463MOL0     H63876   4.406   6.239  11.413 -2.0600 -0.0393 -0.6028
  463MOL0     H63877   4.195   6.371  11.352 -2.8207  1.9066 -4.1919
  463MOL0     H63878   2.728   6.132  11.281 -1.9749  0.9753  2.7332
  463MOL0     H63879   2.518   6.050  11.163 -1.5817 -1.7932  0.7046
  463MOL0     H63880   2.122   5.807  11.189 -3.5795 -1.0918  0.6431
  463MOL0     H63881   1.923   5.775  11.080  0.8496  0.9491  1.0437
  463MOL0     H63882   1.909   5.821  10.656 -1.2141  0.1153 -1.5337
  463MOL0     H63883   1.879   5.653  10.638 -0.1114  0.6615 -0.1183
  463MOL0     H63884   1.695   5.852  10.760 -2.0285  1.6545 -2.6368
  463MOL0     H63885   1.649   5.689  10.740  3.0098 -0.1018  3.4289
  463MOL0     H63886   1.729   5.857  10.497 -0.4263  3.9664  1.9193
  463MOL0     H63887   1.648   5.706  10.499  1.4024  1.2226 -2.2135
  463MOL0     H63888   1.491   5.901  10.444 -0.5287 -1.1255  0.2742
  463MOL0     H63889   1.506   5.962  10.615 -1.4490  0.1731 -0.2062
  463MOL0     H63890   1.266   5.630  10.693  1.7744 -1.1050  2.1927
  463MOL0     H63891   2.113   5.723  10.700 -1.3489 -1.2145  0.3541
  463MOL0     H63892   2.387   5.869  10.739  0.4673  0.3954 -0.4779
  463MOL0     H63893   2.453   5.725  10.814 -0.0153  3.4216  2.4208
  463MOL0     H63894   2.344   5.714  10.677  0.4847  1.2700 -0.7072
  464MOL0     O63895   9.374   0.188   2.538 -0.5777  0.1282  0.1337
  464MOL0     C63896   9.295   0.212   2.621  0.0898 -0.4128  0.4859
  464MOL0     O63897   9.316   0.267   2.739  0.1066  0.4404  0.2053
  464MOL0     C63898   9.443   0.304   2.800 -0.1328  0.4351 -0.3355
  464MOL0     C63899   9.432   0.348   2.939  1.2191 -0.0236  0.2671
  464MOL0     C63900   9.543   0.391   3.004 -0.7373  0.8180  0.1020
  464MOL0     C63901   9.670   0.374   2.953 -1.3193 -0.0152  0.0781
  464MOL0     O63902   9.777   0.409   3.036 -0.0438 -0.3536  0.4188
  464MOL0     C63903   9.900   0.350   3.008  0.1451  0.3155 -0.4344
  464MOL0     C63904   9.900   0.203   3.024  0.9472  0.0210 -0.2382
  464MOL0     C63905  10.036   0.136   3.028 -0.5805  0.1198 -1.3717
  464MOL0     C63906  10.134   0.190   2.919 -0.4541 -0.3048 -0.0500
  464MOL0     C63907  10.271   0.138   2.931  0.0927 -0.3338 -0.6783
  464MOL0     C63908  10.368   0.177   2.827  0.1345  0.1124  0.1764
  464MOL0     C63909  10.409   0.326   2.860  0.0238 -0.2651  0.2302
  464MOL0     C63910  10.487   0.372   2.736  0.5013  0.1731 -0.2706
  464MOL0     N63911  10.529   0.508   2.757 -1.3822  0.8944  0.2577
  464MOL0     C63912  10.459   0.627   2.733  0.4513  0.3809 -0.0378
  464MOL0     C63913  10.549   0.718   2.780  0.3228 -0.7885 -0.2777
  464MOL0     C63914  10.537   0.867   2.786 -0.4862  0.7629 -0.4647
  464MOL0     C63915  10.652   0.938   2.706  0.0557  0.0762 -0.1394
  464MOL0     C63916  10.663   1.085   2.748 -0.2970  0.4066  0.3511
  464MOL0     C63917  10.723   1.158   2.627  0.4435 -0.8562  0.0970
  464MOL0     O63918  10.701   1.298   2.645 -0.6545  0.2638  0.1128
  464MOL0     C63919  10.797   1.380   2.670  0.1347  0.1737  0.1130
  464MOL0     C63920  10.804   1.502   2.612  0.5345 -0.3945 -0.1153
  464MOL0     C63921  10.910   1.590   2.626  0.4377  0.2420 -1.1665
  464MOL0     C63922  10.902   1.718   2.546 -0.9012  0.0896 -0.1324
  464MOL0     C63923  11.013   1.561   2.723  0.5396  0.5619 -0.6967
  464MOL0     C63924  11.122   1.652   2.765 -0.6192  0.7249 -0.0295
  464MOL0     O63925  11.196   1.614   2.871 -0.0535  0.0288  0.5906
  464MOL0     C63926  11.299   1.700   2.908 -0.0196  0.5196  1.0621
  464MOL0     C63927  11.417   1.705   2.827 -0.1044  0.1795  0.4425
  464MOL0     C63928  11.518   1.790   2.854 -0.2006  0.2900  0.2002
  464MOL0     C63929  11.512   1.872   2.966  0.6503 -0.2394  0.0890
  464MOL0     O63930  11.626   1.939   3.001 -0.5639 -0.2437 -0.3392
  464MOL0     C63931  11.623   2.088   3.000 -0.0168  0.1720  0.1901
  464MOL0     C63932  11.767   2.142   2.972  0.0175 -0.4127  0.5322
  464MOL0     C63933  11.820   2.077   2.832  0.1942  0.4993 -0.5544
  464MOL0     C63934  11.955   2.140   2.782 -0.7688 -0.1750 -0.0352
  464MOL0     C63935  12.066   2.117   2.886 -0.4996 -0.1322 -0.0728
  464MOL0     C63936  12.192   2.202   2.854 -0.3931  0.3089  0.3256
  464MOL0     C63937  12.271   2.140   2.736 -0.5629 -0.0025  0.0386
  464MOL0     C63938  12.356   2.251   2.667 -0.4556  0.0226 -0.3605
  464MOL0    Cl63939  12.478   2.326   2.779  0.1855  0.3076  0.3111
  464MOL0     C63940  11.394   1.869   3.050 -0.4813 -0.4166 -0.7560
  464MOL0     C63941  11.303   1.777   3.016  0.3021  0.8752 -0.6032
  464MOL0     O63942  11.144   1.752   2.690  0.3421 -0.4501  0.0594
  464MOL0     C63943  11.004   1.437   2.788 -0.4463 -0.2385 -0.1081
  464MOL0     C63944  10.904   1.348   2.760 -1.2282  0.2527  0.2951
  464MOL0     N63945  10.673   0.658   2.810  0.4243  1.3463 -0.6342
  464MOL0     N63946  10.663   0.533   2.793 -0.3074 -0.0242 -0.4372
  464MOL0     C63947   9.681   0.328   2.823 -0.0172 -0.5892  0.3191
  464MOL0     C63948   9.572   0.291   2.745  0.0138 -0.3884 -1.0361
  464MOL0     C63949   9.153   0.194   2.588  0.0768 -0.1589 -0.3475
  464MOL0     C63950   9.079   0.076   2.620  0.0226  0.6342  0.3598
  464MOL0     C63951   8.943   0.071   2.591  0.0147 -0.3772 -0.1873
  464MOL0     C63952   8.878   0.185   2.537  0.8144  0.3237  0.2475
  464MOL0     O63953   8.747   0.194   2.532  0.6370  0.0594  0.4820
  464MOL0     C63954   8.697   0.185   2.394  1.1820  0.2501  0.6948
  464MOL0     C63955   8.556   0.225   2.385  0.6319 -0.0261 -0.0250
  464MOL0     C63956   8.476   0.114   2.466  0.0778  0.5393  0.4367
  464MOL0     C63957   8.326   0.135   2.459  0.2583 -0.7355 -0.6667
  464MOL0     C63958   8.249   0.029   2.526  0.5212  0.2048 -0.0900
  464MOL0     C63959   8.176  -0.057   2.572  0.1388 -0.3218 -0.6182
  464MOL0     C63960   8.952   0.298   2.499  0.4020  0.2124 -0.2894
  464MOL0     C63961   9.086   0.304   2.530  0.6756  0.1258 -0.4598
  464MOL0     C63962   9.170   0.435   2.499  0.6078 -0.1016  0.7002
  464MOL0     H63963   9.333   0.353   2.984  1.5076  4.2480  0.8289
  464MOL0     H63964   9.533   0.416   3.109 -1.9553  0.7539  0.0237
  464MOL0     H63965   9.969   0.388   3.084  2.7085 -2.6044 -1.1103
  464MOL0     H63966   9.946   0.376   2.913 -0.0856 -0.5299 -0.7841
  464MOL0     H63967   9.857   0.179   3.122  1.7209 -0.4843 -0.0164
  464MOL0     H63968   9.852   0.154   2.939  1.0918 -2.0944  0.8496
  464MOL0     H63969  10.087   0.138   3.125 -1.1858  0.2199 -1.0532
  464MOL0     H63970  10.018   0.029   3.020  0.0555 -0.2981  1.6610
  464MOL0     H63971  10.100   0.168   2.818 -1.0247  1.8760 -0.3747
  464MOL0     H63972  10.134   0.300   2.918  0.5609 -0.2593  1.4534
  464MOL0     H63973  10.254   0.030   2.923  0.1324 -0.6411  2.2358
  464MOL0     H63974  10.315   0.173   3.025  1.9076  2.3547 -2.3768
  464MOL0     H63975  10.452   0.107   2.840 -0.8955 -1.1522  0.2397
  464MOL0     H63976  10.329   0.165   2.726  2.7139 -0.6564 -0.8144
  464MOL0     H63977  10.475   0.340   2.946 -1.2504  0.0384  1.1922
  464MOL0     H63978  10.321   0.389   2.876  1.7991  2.3530  0.3247
  464MOL0     H63979  10.582   0.321   2.721  0.2385 -1.4805  2.8078
  464MOL0     H63980  10.423   0.378   2.647 -0.3423  0.2709  0.3366
  464MOL0     H63981  10.352   0.642   2.727  0.6775  2.3291  0.0587
  464MOL0     H63982  10.548   0.895   2.891 -0.0847 -0.0753 -0.2755
  464MOL0     H63983  10.436   0.896   2.754 -0.2433 -0.6926 -2.7708
  464MOL0     H63984  10.741   0.881   2.733 -0.3763 -0.9073 -0.7499
  464MOL0     H63985  10.614   0.921   2.605 -0.5976 -0.9073  0.2622
  464MOL0     H63986  10.562   1.118   2.771 -0.0420  0.0188  2.2416
  464MOL0     H63987  10.734   1.099   2.831 -0.1049  3.2287 -0.1645
  464MOL0     H63988  10.828   1.128   2.619  0.2656 -1.5559  0.3588
  464MOL0     H63989  10.678   1.121   2.535  0.4835 -2.1821  0.5975
  464MOL0     H63990  10.722   1.535   2.550  0.6661  1.6289  0.7014
  464MOL0     H63991  10.818   1.703   2.478 -0.5000 -1.4843 -0.3212
  464MOL0     H63992  10.992   1.731   2.485 -0.8981 -0.0775 -0.1638
  464MOL0     H63993  10.895   1.805   2.612  2.9098  0.7174 -0.3111
  464MOL0     H63994  11.409   1.641   2.739  0.5842  2.9670 -1.7869
  464MOL0     H63995  11.599   1.801   2.782 -2.3521  3.4568 -2.0079
  464MOL0     H63996  11.554   2.119   2.922  0.8159  1.1128 -0.1942
  464MOL0     H63997  11.581   2.130   3.091 -0.3571  0.3739 -0.0584
  464MOL0     H63998  11.770   2.250   2.955 -0.5371  0.1195  3.3646
  464MOL0     H63999  11.839   2.128   3.053  1.5619  1.3710 -0.4353
  464MOL0     H64000  11.742   2.100   2.759 -0.7568 -3.7543 -1.1498
  464MOL0     H64001  11.832   1.968   2.830  2.8868  0.7219 -1.5322
  464MOL0     H64002  11.942   2.249   2.780 -1.2352 -0.1935  1.2949
  464MOL0     H64003  11.979   2.106   2.680  1.0606  2.3923 -0.5662
  464MOL0     H64004  12.026   2.150   2.983 -2.9524 -2.0162 -0.3535
  464MOL0     H64005  12.078   2.009   2.895 -2.6849 -0.3589  0.9075
  464MOL0     H64006  12.265   2.204   2.935 -0.0771 -0.5019  0.0647
  464MOL0     H64007  12.152   2.302   2.832 -2.6994 -0.6633 -0.1673
  464MOL0     H64008  12.198   2.098   2.667  0.7137 -0.0309 -1.3356
  464MOL0     H64009  12.332   2.059   2.777 -0.7558 -1.6886 -2.7637
  464MOL0     H64010  12.292   2.334   2.633  1.4427  1.3011 -0.9840
  464MOL0     H64011  12.414   2.216   2.581  0.2362  1.4454 -0.4967
  464MOL0     H64012  11.393   1.931   3.138 -0.9027 -1.4110 -0.0348
  464MOL0     H64013  11.214   1.777   3.078  1.0121  0.6371  0.4373
  464MOL0     H64014  11.080   1.398   2.855  0.7759  1.7051 -0.2878
  464MOL0     H64015  10.908   1.255   2.816  1.6896 -0.1589 -0.4416
  464MOL0     H64016   9.779   0.309   2.780  1.0653  2.6737  0.9950
  464MOL0     H64017   9.584   0.252   2.645  0.4202  2.0724 -2.0399
  464MOL0     H64018   9.127  -0.014   2.657 -0.0825 -0.7461 -2.5944
  464MOL0     H64019   8.878  -0.015   2.600 -1.5773  0.7201 -0.8810
  464MOL0     H64020   8.746   0.255   2.326 -0.3390 -0.9502 -1.7538
  464MOL0     H64021   8.712   0.081   2.366  0.1820 -0.2102  1.7991
  464MOL0     H64022   8.524   0.215   2.281  2.4912 -0.3660 -0.6156
  464MOL0     H64023   8.529   0.327   2.413  0.3982  0.0964 -0.6880
  464MOL0     H64024   8.502   0.016   2.424 -0.3732  0.5438  0.1403
  464MOL0     H64025   8.498   0.119   2.573 -1.0949 -1.3358  0.8233
  464MOL0     H64026   8.288   0.133   2.356  1.0925 -3.1670 -0.9902
  464MOL0     H64027   8.306   0.225   2.518 -0.6843 -0.7901 -0.8873
  464MOL0     H64028   8.116  -0.139   2.604  2.1721 -2.5234 -2.0232
  464MOL0     H64029   8.911   0.379   2.441 -0.7627 -0.7884 -0.8927
  464MOL0     H64030   9.231   0.438   2.409  0.8612  1.4515  0.8863
  464MOL0     H64031   9.095   0.512   2.476 -1.4365 -1.4377  2.4633
  464MOL0     H64032   9.222   0.472   2.588 -0.1175 -2.4404  2.1768
  465MOL0     O64033  10.831   1.722   7.824 -0.6403 -0.9677  0.1986
  465MOL0     C64034  10.831   1.847   7.811  0.5698  0.5573 -0.5392
  465MOL0     O64035  10.890   1.921   7.716  0.1166  0.0863  0.9296
  465MOL0     C64036  10.947   1.864   7.600  0.8025 -0.0429 -0.1394
  465MOL0     C64037  11.056   1.928   7.534  1.0656  0.3664 -0.4639
  465MOL0     C64038  11.108   1.863   7.427  0.4944 -0.5122 -1.1074
  465MOL0     C64039  11.066   1.740   7.379 -0.1121 -1.1113  0.0113
  465MOL0     O64040  11.140   1.682   7.284  0.0871 -0.7281 -0.4854
  465MOL0     C64041  11.097   1.552   7.247 -0.7274  0.4871 -0.6776
  465MOL0     C64042  11.187   1.484   7.142 -0.1561  0.2749 -0.3075
  465MOL0     C64043  11.140   1.529   7.005 -0.3509 -0.0476  0.4715
  465MOL0     C64044  11.232   1.465   6.897  0.3159 -0.6077  0.6464
  465MOL0     C64045  11.350   1.563   6.869  0.5547 -0.0919 -0.3443
  465MOL0     C64046  11.400   1.539   6.729  0.2327 -0.0579 -0.6175
  465MOL0     C64047  11.536   1.595   6.700 -0.0557 -0.6708  0.2581
  465MOL0     C64048  11.652   1.527   6.781  0.7403  0.4256 -0.1350
  465MOL0     N64049  11.782   1.528   6.723 -0.0993 -0.0416 -0.0913
  465MOL0     C64050  11.896   1.539   6.792  0.2073 -0.2167  0.1433
  465MOL0     C64051  11.995   1.545   6.701  0.4402  1.0159 -0.6889
  465MOL0     C64052  12.145   1.565   6.734 -0.4186 -0.0084 -0.2374
  465MOL0     C64053  12.235   1.461   6.659  0.4882  0.0221  0.3391
  465MOL0     C64054  12.379   1.500   6.662 -0.2976  0.1841  0.0129
  465MOL0     C64055  12.453   1.379   6.606  0.2593  0.0055  0.0904
  465MOL0     O64056  12.587   1.402   6.605 -0.1692  0.4745  0.5546
  465MOL0     C64057  12.676   1.312   6.566 -0.4977 -0.1603  0.3919
  465MOL0     C64058  12.647   1.219   6.472  0.1988  0.4963  0.3566
  465MOL0     C64059  12.736   1.124   6.434  0.0945  0.2904 -0.1756
  465MOL0     C64060  12.688   1.017   6.341  0.1835  0.1196  0.3931
  465MOL0     C64061  12.868   1.133   6.482 -0.1350  0.2438  0.6147
  465MOL0     C64062  12.976   1.035   6.455  0.1034 -0.1959  0.7405
  465MOL0     O64063  13.064   1.005   6.557 -0.3713 -0.0416  0.1341
  465MOL0     C64064  13.178   0.932   6.537 -0.3132 -0.7431  0.4790
  465MOL0     C64065  13.174   0.810   6.473 -0.1595  0.0383  0.5579
  465MOL0     C64066  13.288   0.731   6.469 -0.7686  0.4852 -0.8111
  465MOL0     C64067  13.405   0.781   6.519 -0.1497 -0.0267 -0.6392
  465MOL0     O64068  13.500   0.680   6.525 -0.2537 -0.4242  0.0235
  465MOL0     C64069  13.633   0.733   6.551  0.0453  0.2883 -0.6211
  465MOL0     C64070  13.740   0.641   6.521 -0.9578  0.1093 -0.6911
  465MOL0     C64071  13.778   0.608   6.379  0.1589 -0.5961  0.2885
  465MOL0     C64072  13.901   0.692   6.340  0.6659  0.3100  0.7859
  465MOL0     C64073  13.965   0.645   6.208  0.0266  1.4061  0.1035
  465MOL0     C64074  14.059   0.738   6.135  0.6289  0.0271 -0.7514
  465MOL0     C64075  14.097   0.681   6.003 -0.3622  0.5028 -0.0236
  465MOL0     C64076  14.186   0.771   5.928 -0.6121  0.3606  0.3544
  465MOL0    Cl64077  14.096   0.924   5.884  0.2120 -0.1459  0.4906
  465MOL0     C64078  13.411   0.908   6.583 -0.2338 -0.2504 -0.2964
  465MOL0     C64079  13.296   0.982   6.597 -0.5206  1.1934 -0.7181
  465MOL0     O64080  12.989   1.004   6.335  0.3544  0.4507  0.2534
  465MOL0     C64081  12.904   1.245   6.560  0.0026  0.0858 -0.3209
  465MOL0     C64082  12.805   1.332   6.610 -0.3395  0.5629  0.6510
  465MOL0     N64083  11.940   1.514   6.579 -0.2410 -0.5689  0.2810
  465MOL0     N64084  11.817   1.498   6.592  0.9195  0.1280  0.3031
  465MOL0     C64085  10.954   1.678   7.439  0.3350 -0.1733 -0.0527
  465MOL0     C64086  10.892   1.741   7.544 -0.4796 -0.5916  0.4192
  465MOL0     C64087  10.729   1.908   7.903 -0.8846  0.0208 -0.1999
  465MOL0     C64088  10.776   2.010   7.988  0.7164  0.1367 -0.3517
  465MOL0     C64089  10.696   2.067   8.084 -0.7926  0.6505 -0.1795
  465MOL0     C64090  10.564   2.030   8.097 -1.0927 -0.6394 -0.4827
  465MOL0     O64091  10.495   2.092   8.199  0.4992  0.0012  0.5984
  465MOL0     C64092  10.544   2.185   8.300 -0.0466 -0.0540 -0.5114
  465MOL0     C64093  10.557   2.323   8.239 -0.1339 -0.6030 -0.3055
  465MOL0     C64094  10.557   2.424   8.347  0.7329  0.0707  0.2680
  465MOL0     C64095  10.666   2.411   8.453 -0.3244 -0.4860 -0.2190
  465MOL0     C64096  10.797   2.437   8.391 -0.1567  0.0172 -0.4077
  465MOL0     C64097  10.892   2.477   8.334  0.5804  0.2411  0.8703
  465MOL0     C64098  10.508   1.941   8.007 -0.2444  0.2257  0.0269
  465MOL0     C64099  10.593   1.877   7.916 -0.5781  0.3781 -0.5111
  465MOL0     C64100  10.534   1.766   7.840 -0.0743  0.2614  0.0798
  465MOL0     H64101  11.086   2.031   7.554  0.0990  0.5034  0.3251
  465MOL0     H64102  11.193   1.911   7.380  3.2411 -2.7919  1.1915
  465MOL0     H64103  10.995   1.551   7.208 -1.1852 -1.7075  0.4479
  465MOL0     H64104  11.105   1.495   7.340  2.7087  2.5170  0.4498
  465MOL0     H64105  11.287   1.519   7.171  0.2737 -1.6686  0.7228
  465MOL0     H64106  11.184   1.376   7.161 -2.4492  0.3573  0.1125
  465MOL0     H64107  11.033   1.509   6.992 -0.7804  1.2689  1.6807
  465MOL0     H64108  11.148   1.637   6.993  1.2338 -0.4632 -3.3981
  465MOL0     H64109  11.253   1.365   6.936 -1.6615 -0.8425  1.1914
  465MOL0     H64110  11.169   1.457   6.808  1.8758  0.2999 -0.6002
  465MOL0     H64111  11.418   1.552   6.955 -1.8596  0.4796  1.7502
  465MOL0     H64112  11.314   1.666   6.864 -2.6277 -0.9808  1.5441
  465MOL0     H64113  11.404   1.430   6.721  1.2384 -0.0761  0.0273
  465MOL0     H64114  11.326   1.569   6.654 -1.3123 -2.2646 -0.0587
  465MOL0     H64115  11.539   1.704   6.705 -2.6107 -0.5992  1.6195
  465MOL0     H64116  11.550   1.570   6.594  0.5080  3.8633 -0.9694
  465MOL0     H64117  11.652   1.568   6.882  1.2174 -0.8310  0.3944
  465MOL0     H64118  11.625   1.421   6.780 -2.6332  1.1223 -2.5422
  465MOL0     H64119  11.910   1.537   6.900 -1.4386  1.4879  0.4363
  465MOL0     H64120  12.156   1.555   6.842 -2.4414 -1.2210 -0.0890
  465MOL0     H64121  12.174   1.670   6.720  1.0227 -0.2670  0.6011
  465MOL0     H64122  12.217   1.364   6.706 -4.1787 -0.3038 -1.6148
  465MOL0     H64123  12.205   1.449   6.555  2.1884  0.1697 -0.2062
  465MOL0     H64124  12.401   1.584   6.595 -1.0106  0.0553 -0.3935
  465MOL0     H64125  12.417   1.518   6.763  0.5752 -2.9747  0.3553
  465MOL0     H64126  12.436   1.291   6.669 -1.1596  0.3378  0.2050
  465MOL0     H64127  12.418   1.363   6.504 -0.4869  0.0143  0.3367
  465MOL0     H64128  12.545   1.207   6.436  0.0295  1.6037  0.4528
  465MOL0     H64129  12.739   1.027   6.245 -0.0705  1.9356  0.4115
  465MOL0     H64130  12.581   1.016   6.319 -0.6609  1.6231  3.6972
  465MOL0     H64131  12.712   0.916   6.374  1.2820 -0.2384 -1.3576
  465MOL0     H64132  13.089   0.771   6.419  0.2823  1.2184 -1.0701
  465MOL0     H64133  13.294   0.631   6.429 -1.0897  0.3827 -0.6124
  465MOL0     H64134  13.651   0.825   6.493  2.0939 -0.2814 -0.9811
  465MOL0     H64135  13.645   0.754   6.658 -0.3799 -0.8992 -0.3260
  465MOL0     H64136  13.828   0.672   6.579 -1.9764 -0.1780  1.0857
  465MOL0     H64137  13.716   0.540   6.555 -1.1179  0.2820 -0.2775
  465MOL0     H64138  13.696   0.638   6.312 -1.1395 -1.3121  1.4994
  465MOL0     H64139  13.787   0.501   6.358 -2.4952 -0.4580 -2.3338
  465MOL0     H64140  13.972   0.687   6.423  1.4642  0.6169  0.1359
  465MOL0     H64141  13.874   0.797   6.326  1.8056  0.7567  1.7718
  465MOL0     H64142  14.018   0.553   6.236  2.8832  2.6751 -0.7282
  465MOL0     H64143  13.880   0.617   6.145  1.4491 -1.6166 -0.6406
  465MOL0     H64144  14.142   0.753   6.205 -0.4284 -2.2945  1.1134
  465MOL0     H64145  14.009   0.835   6.128 -4.7595 -2.2017  1.4790
  465MOL0     H64146  14.011   0.681   5.935 -0.6664  0.4692  0.3531
  465MOL0     H64147  14.143   0.582   6.011 -0.8210  0.3667  1.1985
  465MOL0     H64148  14.222   0.713   5.842  0.2935 -1.1109  1.6848
  465MOL0     H64149  14.279   0.805   5.974  0.0390 -1.1835  0.2303
  465MOL0     H64150  13.498   0.933   6.642  1.1773 -0.1746 -2.3159
  465MOL0     H64151  13.280   1.082   6.637 -0.3677  0.9187  0.0433
  465MOL0     H64152  13.003   1.254   6.602 -0.7762  0.2988  1.5921
  465MOL0     H64153  12.835   1.411   6.677  0.2365  0.5943  0.3659
  465MOL0     H64154  10.916   1.581   7.409  0.7311 -0.2026 -0.4653
  465MOL0     H64155  10.809   1.684   7.586 -0.5720  1.1670  2.8097
  465MOL0     H64156  10.880   2.041   7.989  0.9186 -0.3138 -2.3955
  465MOL0     H64157  10.740   2.137   8.154  1.2042 -1.0321  0.3508
  465MOL0     H64158  10.468   2.192   8.379 -0.1886 -0.2992 -0.6260
  465MOL0     H64159  10.642   2.158   8.341  0.6762  2.6971 -0.2223
  465MOL0     H64160  10.468   2.341   8.177 -1.5855 -2.8151  0.9918
  465MOL0     H64161  10.645   2.344   8.177 -0.6216 -2.3424 -1.6860
  465MOL0     H64162  10.561   2.526   8.308  1.3216 -0.4714 -1.1657
  465MOL0     H64163  10.461   2.422   8.399  1.3286 -0.8649  1.3954
  465MOL0     H64164  10.667   2.317   8.511 -3.1017  0.7420  2.0435
  465MOL0     H64165  10.653   2.487   8.531  0.3334  0.0099 -0.5871
  465MOL0     H64166  10.975   2.499   8.270 -1.1085 -1.8682 -2.3353
  465MOL0     H64167  10.402   1.927   8.022 -0.6432  1.6203 -1.3034
  465MOL0     H64168  10.585   1.672   7.863 -0.1311  0.6200  1.7505
  465MOL0     H64169  10.429   1.746   7.864  0.8073 -2.4447  2.0998
  465MOL0     H64170  10.537   1.790   7.733  1.4329 -0.4055 -0.0507
  466MOL0     O64171   5.658   1.030  11.103 -0.1853 -0.0477 -0.1608
  466MOL0     C64172   5.731   1.043  11.198  0.7320  0.3819  0.9429
  466MOL0     O64173   5.738   0.953  11.297  0.4511  0.2786  0.2591
  466MOL0     C64174   5.660   0.839  11.286 -0.3862 -0.5140 -0.4830
  466MOL0     C64175   5.709   0.715  11.317  0.5371 -0.9947  0.2996
  466MOL0     C64176   5.623   0.605  11.328  0.7034  0.1615 -0.1563
  466MOL0     C64177   5.485   0.619  11.319  0.2458  0.8271 -0.5305
  466MOL0     O64178   5.410   0.500  11.342 -0.1258  0.8129 -0.0303
  466MOL0     C64179   5.295   0.478  11.257 -0.3040  1.1439  0.0830
  466MOL0     C64180   5.310   0.339  11.199 -0.8620  0.2186 -0.5082
  466MOL0     C64181   5.216   0.300  11.074 -0.2214  0.5885  0.0319
  466MOL0     C64182   5.220   0.149  11.037  0.2165 -0.5484 -0.3941
  466MOL0     C64183   5.123   0.074  11.128  0.6561 -0.3078 -0.4943
  466MOL0     C64184   5.151  -0.081  11.145 -0.0138 -0.5614 -0.1402
  466MOL0     C64185   5.171  -0.153  11.016  0.2019 -0.0036 -0.7421
  466MOL0     C64186   5.172  -0.313  11.030 -0.1166 -0.6387  0.4210
  466MOL0     N64187   5.280  -0.379  10.944  0.1773 -0.1359  0.2092
  466MOL0     C64188   5.417  -0.347  10.951  0.3943 -0.1969 -0.4983
  466MOL0     C64189   5.475  -0.429  10.864 -0.1912  0.6462 -0.3782
  466MOL0     C64190   5.613  -0.451  10.816 -0.5219 -0.4225  0.6391
  466MOL0     C64191   5.658  -0.600  10.791 -0.7353 -0.1264 -0.8350
  466MOL0     C64192   5.813  -0.609  10.810 -0.5674 -0.0166  0.9320
  466MOL0     C64193   5.894  -0.540  10.698 -0.1477  0.0731  0.0047
  466MOL0     O64194   6.029  -0.559  10.749  0.4086 -0.3216  0.2310
  466MOL0     C64195   6.140  -0.524  10.668  0.2316  0.7916 -0.9149
  466MOL0     C64196   6.256  -0.499  10.736 -0.0262  0.3892 -0.4793
  466MOL0     C64197   6.381  -0.488  10.683  0.6818  0.0049  0.8175
  466MOL0     C64198   6.484  -0.460  10.785  0.4429  0.3444 -0.0704
  466MOL0     C64199   6.381  -0.474  10.534 -0.0517  1.0695  0.6274
  466MOL0     C64200   6.507  -0.440  10.459  0.1798 -0.7373 -0.0580
  466MOL0     O64201   6.503  -0.444  10.319  0.3983  0.3424  0.2768
  466MOL0     C64202   6.599  -0.382  10.259  0.0576 -0.7905  0.7797
  466MOL0     C64203   6.568  -0.297  10.146  0.9489  0.0919 -0.5130
  466MOL0     C64204   6.667  -0.232  10.074  0.9422  0.2952  0.1090
  466MOL0     C64205   6.794  -0.235  10.117 -0.0085  0.3675 -0.5597
  466MOL0     O64206   6.897  -0.161  10.058  0.5691 -0.4584  0.2059
  466MOL0     C64207   6.864  -0.065   9.956  0.5670 -0.1055 -0.6209
  466MOL0     C64208   6.987   0.007   9.923  0.0981  0.0377  0.0176
  466MOL0     C64209   7.040   0.086  10.047 -0.5459 -0.0991  0.0263
  466MOL0     C64210   7.158   0.170   9.994 -0.1344  0.5547  0.2217
  466MOL0     C64211   7.126   0.245   9.866  0.1397  0.4442  0.8072
  466MOL0     C64212   7.216   0.374   9.858 -0.0221  0.1134  0.3480
  466MOL0     C64213   7.173   0.443   9.732 -1.3217  0.1215  0.4363
  466MOL0     C64214   7.245   0.579   9.723  0.0198 -0.3352  0.6430
  466MOL0    Cl64215   7.218   0.651   9.563 -0.0075  0.1760  0.3528
  466MOL0     C64216   6.832  -0.337  10.209 -0.5311  0.1157  0.8817
  466MOL0     C64217   6.738  -0.398  10.279  0.0647  0.4256  0.1923
  466MOL0     O64218   6.602  -0.410  10.523 -0.4707  0.0392 -0.5750
  466MOL0     C64219   6.263  -0.496  10.458 -0.0360 -0.2218 -0.8791
  466MOL0     C64220   6.148  -0.524  10.528  0.7757  0.2306 -0.0164
  466MOL0     N64221   5.379  -0.504  10.796 -0.1131 -0.0841  0.2544
  466MOL0     N64222   5.266  -0.468  10.845  0.3409  0.2957  0.4723
  466MOL0     C64223   5.435   0.747  11.297 -0.1906 -0.1255 -0.5183
  466MOL0     C64224   5.517   0.856  11.280 -0.4038  0.2146  0.2318
  466MOL0     C64225   5.814   1.172  11.217  0.7000 -0.1100  0.7253
  466MOL0     C64226   5.890   1.179  11.334  1.2940  0.6724  0.5990
  466MOL0     C64227   5.955   1.299  11.371 -0.5723 -0.4197 -0.6415
  466MOL0     C64228   5.937   1.416  11.299  0.4729  0.5857  0.5568
  466MOL0     O64229   6.003   1.530  11.325  0.2516  0.5936 -0.0582
  466MOL0     C64230   6.093   1.535  11.439  0.1980  0.5576  0.3400
  466MOL0     C64231   6.162   1.670  11.443 -0.1138 -0.3884 -0.1389
  466MOL0     C64232   6.246   1.691  11.322 -0.3711 -0.1629 -0.1509
  466MOL0     C64233   6.306   1.822  11.319 -0.1061 -0.1355  0.3600
  466MOL0     C64234   6.367   1.835  11.184 -0.2942 -0.3287  0.7632
  466MOL0     C64235   6.431   1.849  11.076  0.2896 -0.2287 -1.4616
  466MOL0     C64236   5.872   1.406  11.177 -0.0265  0.3041  0.0351
  466MOL0     C64237   5.810   1.290  11.134 -0.4703  0.1556 -0.1628
  466MOL0     C64238   5.740   1.300  10.998 -0.2470 -0.2055  0.0792
  466MOL0     H64239   5.817   0.704  11.327  0.5011 -2.0498 -0.3146
  466MOL0     H64240   5.670   0.509  11.346 -2.1115 -1.6072 -1.5907
  466MOL0     H64241   5.288   0.547  11.172 -0.4865  2.0834  0.8450
  466MOL0     H64242   5.199   0.490  11.308 -1.4190 -2.3531 -0.9133
  466MOL0     H64243   5.414   0.315  11.175  0.0576  1.6717  1.6484
  466MOL0     H64244   5.286   0.276  11.285  2.8820  1.6955  1.8675
  466MOL0     H64245   5.113   0.329  11.096  0.0738  0.9377  0.9926
  466MOL0     H64246   5.252   0.360  10.990  2.2229 -0.3654  0.3138
  466MOL0     H64247   5.219   0.125  10.930  2.1237 -2.6617 -0.0106
  466MOL0     H64248   5.320   0.108  11.051 -0.1979 -1.3243  0.3406
  466MOL0     H64249   5.024   0.081  11.083 -0.6694 -2.0879  1.8890
  466MOL0     H64250   5.133   0.110  11.231  2.1465  0.0068 -0.7277
  466MOL0     H64251   5.237  -0.099  11.211  0.3703 -1.3110 -0.8225
  466MOL0     H64252   5.068  -0.120  11.204 -0.9659  1.3250 -0.1377
  466MOL0     H64253   5.265  -0.121  10.971 -0.2691 -0.3499 -2.0199
  466MOL0     H64254   5.092  -0.118  10.948  1.5006  1.2523 -1.6557
  466MOL0     H64255   5.204  -0.348  11.129  3.0656  0.4179 -0.1035
  466MOL0     H64256   5.069  -0.341  11.006 -0.8530  1.5685  0.7431
  466MOL0     H64257   5.454  -0.275  11.024 -0.4489  0.7380 -0.9599
  466MOL0     H64258   5.690  -0.398  10.873  1.9540  1.1344 -3.6116
  466MOL0     H64259   5.622  -0.403  10.718  3.3022 -1.5688  0.2629
  466MOL0     H64260   5.615  -0.668  10.865  1.1751 -0.8236 -0.3199
  466MOL0     H64261   5.625  -0.643  10.696  0.3725 -1.1652 -0.7668
  466MOL0     H64262   5.838  -0.558  10.904  0.4807  5.4027 -1.9021
  466MOL0     H64263   5.838  -0.716  10.811 -0.3130 -0.0663 -2.2048
  466MOL0     H64264   5.871  -0.589  10.603  0.1955  1.4176 -0.8135
  466MOL0     H64265   5.877  -0.432  10.686  0.1023 -0.1063 -2.3468
  466MOL0     H64266   6.253  -0.513  10.843  1.5729 -1.3688 -0.6044
  466MOL0     H64267   6.565  -0.535  10.786  0.5502  0.4597 -0.0548
  466MOL0     H64268   6.437  -0.453  10.883 -0.4270 -1.0642 -0.3626
  466MOL0     H64269   6.528  -0.361  10.770  0.8221  0.4282  1.3969
  466MOL0     H64270   6.464  -0.281  10.119  1.0192 -1.0003 -1.5048
  466MOL0     H64271   6.635  -0.176   9.986 -0.1093 -1.1020 -0.4456
  466MOL0     H64272   6.820  -0.112   9.868 -1.7718  3.2073 -1.4456
  466MOL0     H64273   6.793   0.008   9.998 -0.0722 -0.1317 -1.6189
  466MOL0     H64274   7.059  -0.065   9.882 -1.2694 -0.9631 -0.7107
  466MOL0     H64275   6.950   0.070   9.842  1.1134  0.5540 -0.0594
  466MOL0     H64276   7.060   0.016  10.129  0.6494 -3.6125 -2.9654
  466MOL0     H64277   6.968   0.162  10.080  0.2300  1.8281 -2.4588
  466MOL0     H64278   7.241   0.105   9.965 -1.4154 -0.9737 -0.1002
  466MOL0     H64279   7.183   0.242  10.073  0.1041 -0.2072  0.8562
  466MOL0     H64280   7.137   0.193   9.771 -0.4406  4.4665 -1.7325
  466MOL0     H64281   7.023   0.280   9.867 -0.5385 -1.1687 -1.9798
  466MOL0     H64282   7.322   0.350   9.849  0.3712  1.3124  1.3972
  466MOL0     H64283   7.211   0.435   9.949 -1.5319 -0.5477  0.7479
  466MOL0     H64284   7.064   0.455   9.732 -1.6438 -2.3413  0.0150
  466MOL0     H64285   7.188   0.376   9.647  0.1388  1.8142 -0.7366
  466MOL0     H64286   7.352   0.568   9.745 -0.0022  0.2313  1.0681
  466MOL0     H64287   7.200   0.640   9.802  1.0396  0.7304  0.4385
  466MOL0     H64288   6.937  -0.350  10.232 -0.5985 -1.0560  0.5715
  466MOL0     H64289   6.759  -0.472  10.356 -1.3325 -1.7889 -1.4407
  466MOL0     H64290   6.258  -0.504  10.350 -2.4459 -1.1491 -0.7820
  466MOL0     H64291   6.058  -0.556  10.477  1.0263 -0.4035 -0.0623
  466MOL0     H64292   5.327   0.757  11.301 -0.2297 -0.9890  2.7503
  466MOL0     H64293   5.478   0.956  11.266 -0.0146  0.4232  0.6067
  466MOL0     H64294   5.905   1.096  11.402  0.1404 -0.3623 -0.3571
  466MOL0     H64295   6.026   1.297  11.453 -0.1568 -0.6161 -1.0012
  466MOL0     H64296   6.035   1.521  11.532  1.1021  2.6646  1.2827
  466MOL0     H64297   6.165   1.452  11.440 -0.3582 -0.0076 -1.9860
  466MOL0     H64298   6.224   1.689  11.532  0.9392 -2.1885 -0.4430
  466MOL0     H64299   6.086   1.749  11.440  0.7507  0.6780  2.5696
  466MOL0     H64300   6.324   1.617  11.306 -0.9271 -0.5596 -1.1467
  466MOL0     H64301   6.183   1.687  11.232  0.0220  4.5575 -0.8634
  466MOL0     H64302   6.384   1.828  11.395  1.7351 -0.2820 -1.4109
  466MOL0     H64303   6.238   1.908  11.322  1.6684  1.3166  1.2243
  466MOL0     H64304   6.478   1.871  10.982 -1.5243  1.0382 -2.1108
  466MOL0     H64305   5.865   1.490  11.108 -2.6852  2.3334  2.5291
  466MOL0     H64306   5.639   1.259  10.999 -1.3915  2.0061 -4.0157
  466MOL0     H64307   5.710   1.403  10.976  1.0726  0.1569 -0.1275
  466MOL0     H64308   5.798   1.266  10.912  0.6583  3.9956 -1.1678
  467MOL0     O64309   9.163   0.208   5.959 -0.0723 -0.1302 -0.0316
  467MOL0     C64310   9.175   0.234   5.842 -0.1615  0.8019  0.8881
  467MOL0     O64311   9.100   0.190   5.739  0.2371  0.0704  0.1568
  467MOL0     C64312   8.997   0.103   5.763 -0.4129 -0.2310  0.0921
  467MOL0     C64313   8.999  -0.016   5.700 -0.7491 -0.5631  0.0475
  467MOL0     C64314   8.890  -0.100   5.708 -0.0743  0.1758  0.0433
  467MOL0     C64315   8.771  -0.076   5.774 -0.0727 -0.6362 -0.4710
  467MOL0     O64316   8.676  -0.177   5.792  0.5428  0.3587  0.3474
  467MOL0     C64317   8.543  -0.145   5.843  0.3997  0.0491 -0.4460
  467MOL0     C64318   8.537  -0.155   5.997  0.4334 -0.1917 -0.9974
  467MOL0     C64319   8.533  -0.300   6.036 -0.5874  0.6779 -0.1532
  467MOL0     C64320   8.500  -0.314   6.188 -0.2042 -0.4654  0.0311
  467MOL0     C64321   8.535  -0.448   6.251  0.1664 -0.1095  0.2358
  467MOL0     C64322   8.464  -0.573   6.193  0.1033  0.0020  0.6037
  467MOL0     C64323   8.307  -0.548   6.177 -1.1324  0.3568 -0.0392
  467MOL0     C64324   8.230  -0.673   6.135 -0.3451 -1.0430  0.5471
  467MOL0     N64325   8.087  -0.647   6.127 -0.2240  0.8907 -0.4540
  467MOL0     C64326   7.992  -0.734   6.174 -0.5783 -0.2697 -0.5220
  467MOL0     C64327   7.877  -0.676   6.125 -0.7501 -0.1645 -0.4060
  467MOL0     C64328   7.738  -0.721   6.156  0.1729  0.2835 -0.5602
  467MOL0     C64329   7.635  -0.632   6.092  0.2377 -0.3472 -0.2382
  467MOL0     C64330   7.494  -0.688   6.093 -0.1044 -0.2139  0.5562
  467MOL0     C64331   7.446  -0.731   6.228 -0.6819 -0.4705 -0.1331
  467MOL0     O64332   7.464  -0.616   6.317  0.0462  0.9183 -0.6166
  467MOL0     C64333   7.519  -0.641   6.437 -0.1354 -0.6331  0.2914
  467MOL0     C64334   7.511  -0.758   6.501  0.0938 -0.1653 -0.1313
  467MOL0     C64335   7.576  -0.793   6.622 -0.9850 -0.1267  0.3497
  467MOL0     C64336   7.546  -0.928   6.662  0.4087 -0.1720 -0.5685
  467MOL0     C64337   7.655  -0.689   6.682  0.1966  0.2853 -1.1784
  467MOL0     C64338   7.734  -0.715   6.816 -0.2765 -0.5843  0.9085
  467MOL0     O64339   7.800  -0.603   6.861  0.2999 -0.7236  0.5917
  467MOL0     C64340   7.859  -0.602   6.982 -1.0906  0.4088  0.3502
  467MOL0     C64341   7.805  -0.646   7.103  0.3967  0.9710 -0.8495
  467MOL0     C64342   7.877  -0.630   7.221 -0.1957  0.4047 -1.1435
  467MOL0     C64343   7.996  -0.562   7.231  0.0277  0.1227  0.1445
  467MOL0     O64344   8.060  -0.527   7.344 -0.3147  0.0165 -0.0191
  467MOL0     C64345   8.052  -0.604   7.461  0.8643 -0.2533 -0.1016
  467MOL0     C64346   8.149  -0.556   7.576  0.4630 -0.3399  0.5104
  467MOL0     C64347   8.289  -0.583   7.529 -0.0859 -0.2296  0.4306
  467MOL0     C64348   8.383  -0.534   7.644  0.6125  0.0605  0.0918
  467MOL0     C64349   8.526  -0.506   7.585 -0.2140  0.6870 -0.0716
  467MOL0     C64350   8.626  -0.443   7.688 -0.2305  0.4630  0.0043
  467MOL0     C64351   8.638  -0.534   7.817  0.1190 -0.3312  0.1301
  467MOL0     C64352   8.708  -0.472   7.930 -0.0098  0.4600 -0.1922
  467MOL0    Cl64353   8.606  -0.347   8.007 -0.2784  0.3064 -0.0095
  467MOL0     C64354   8.061  -0.524   7.116  0.5753 -0.9403  0.1607
  467MOL0     C64355   7.984  -0.536   6.995 -0.0823  0.5334 -0.0775
  467MOL0     O64356   7.739  -0.823   6.872 -0.6527 -0.1317  0.2818
  467MOL0     C64357   7.670  -0.569   6.614 -0.5181 -0.5417  0.3984
  467MOL0     C64358   7.609  -0.548   6.490  0.1007  0.2551  0.4890
  467MOL0     N64359   7.910  -0.570   6.046  0.1904  0.3234 -0.2601
  467MOL0     N64360   8.038  -0.565   6.029  0.0105  0.2178  0.1154
  467MOL0     C64361   8.774   0.050   5.834  0.2385  0.7477 -0.1032
  467MOL0     C64362   8.888   0.132   5.835 -0.0456 -0.3263  0.1434
  467MOL0     C64363   9.297   0.302   5.807  0.6603  0.8824 -0.4110
  467MOL0     C64364   9.362   0.270   5.690 -0.9413 -0.7219 -0.4416
  467MOL0     C64365   9.480   0.339   5.648 -0.2681  0.4519 -0.1198
  467MOL0     C64366   9.551   0.415   5.734  0.3991  0.5427 -0.8156
  467MOL0     O64367   9.672   0.468   5.686 -0.2479 -0.1049  0.1881
  467MOL0     C64368   9.753   0.519   5.792 -0.6235 -0.2748  0.6878
  467MOL0     C64369   9.893   0.545   5.738 -0.1515  0.1560 -0.1369
  467MOL0     C64370   9.909   0.681   5.670  0.5062 -0.7143 -0.1999
  467MOL0     C64371  10.029   0.701   5.575  0.7340  0.1620 -0.9727
  467MOL0     C64372  10.160   0.670   5.637 -0.0280  0.3942 -0.3228
  467MOL0     C64373  10.261   0.629   5.682 -0.4858 -1.1722 -1.2763
  467MOL0     C64374   9.496   0.442   5.857  0.7352 -0.1971 -0.4232
  467MOL0     C64375   9.367   0.398   5.889  0.2350 -0.0319 -0.5707
  467MOL0     C64376   9.308   0.453   6.013 -1.0620  0.6139 -0.4152
  467MOL0     H64377   9.073  -0.047   5.627 -0.8816 -1.3822  0.2491
  467MOL0     H64378   8.899  -0.203   5.674 -1.3196  0.0417  0.0593
  467MOL0     H64379   8.468  -0.214   5.802  0.5744 -1.1134  1.0977
  467MOL0     H64380   8.506  -0.047   5.810 -0.2026  0.1168  0.3960
  467MOL0     H64381   8.628  -0.108   6.037 -0.0152  1.4705 -1.8302
  467MOL0     H64382   8.457  -0.090   6.034  3.5058  3.4127 -0.0932
  467MOL0     H64383   8.456  -0.353   5.979 -2.5399  1.7260  1.3994
  467MOL0     H64384   8.634  -0.337   6.017  0.2675  2.1848  1.1985
  467MOL0     H64385   8.564  -0.246   6.245 -0.4647 -1.1120  1.1232
  467MOL0     H64386   8.393  -0.295   6.201  0.3238  2.7097  0.5999
  467MOL0     H64387   8.519  -0.456   6.358  1.4519  0.3900  0.4929
  467MOL0     H64388   8.643  -0.462   6.236  0.4451  1.5101  0.5106
  467MOL0     H64389   8.502  -0.577   6.091  0.6790 -0.4307  0.8342
  467MOL0     H64390   8.492  -0.662   6.249 -1.7736 -0.1983  1.3063
  467MOL0     H64391   8.293  -0.473   6.098 -0.6487  0.1980 -0.2793
  467MOL0     H64392   8.278  -0.503   6.272  1.2459  1.8783  0.0362
  467MOL0     H64393   8.262  -0.699   6.033 -0.7371 -1.2569  0.4762
  467MOL0     H64394   8.255  -0.758   6.199  0.3846 -0.8628  0.5179
  467MOL0     H64395   7.986  -0.824   6.233  0.9125 -0.4006 -0.5339
  467MOL0     H64396   7.718  -0.729   6.263  0.3133  2.6263 -0.3117
  467MOL0     H64397   7.736  -0.819   6.108  2.9756 -0.3956  0.5674
  467MOL0     H64398   7.644  -0.527   6.123  3.6422 -0.9025  0.9906
  467MOL0     H64399   7.657  -0.630   5.985 -1.1717 -0.8000 -0.5602
  467MOL0     H64400   7.418  -0.616   6.061 -1.6577 -1.6970  0.7384
  467MOL0     H64401   7.489  -0.779   6.033  0.9220 -0.6741  1.1390
  467MOL0     H64402   7.340  -0.759   6.219 -1.3432  1.6748  0.3627
  467MOL0     H64403   7.501  -0.815   6.271  2.6102  1.5977  0.0194
  467MOL0     H64404   7.436  -0.820   6.451 -0.1131  0.2642 -0.3568
  467MOL0     H64405   7.638  -0.977   6.694 -0.3527 -0.7256  0.8695
  467MOL0     H64406   7.507  -0.983   6.575 -1.4043  0.5723 -0.2749
  467MOL0     H64407   7.471  -0.933   6.741  0.8875  1.7613  0.0455
  467MOL0     H64408   7.721  -0.714   7.101  2.1879 -1.4329 -3.9196
  467MOL0     H64409   7.832  -0.657   7.315 -2.0619  3.6467 -0.9833
  467MOL0     H64410   7.948  -0.617   7.494  0.0462  1.5188 -1.7205
  467MOL0     H64411   8.081  -0.707   7.439  3.3663 -0.2670  2.6718
  467MOL0     H64412   8.138  -0.447   7.583 -3.1637 -0.3940 -2.0231
  467MOL0     H64413   8.134  -0.614   7.667  1.7256  1.2151  1.7736
  467MOL0     H64414   8.296  -0.533   7.433 -1.0043 -1.1080 -0.1147
  467MOL0     H64415   8.303  -0.690   7.508  2.1532  0.3357 -1.2954
  467MOL0     H64416   8.395  -0.616   7.715  1.0140  1.6927  1.9654
  467MOL0     H64417   8.349  -0.446   7.699 -0.6305 -0.6776  0.5540
  467MOL0     H64418   8.560  -0.600   7.540 -1.4746 -0.1562  0.6949
  467MOL0     H64419   8.528  -0.433   7.503 -1.0261  0.7565 -0.0372
  467MOL0     H64420   8.594  -0.342   7.714  3.2908  2.1457 -1.4851
  467MOL0     H64421   8.728  -0.442   7.647  0.6830 -0.0747  2.1059
  467MOL0     H64422   8.670  -0.637   7.798 -0.4079 -0.0333 -3.0234
  467MOL0     H64423   8.534  -0.540   7.852  1.1959 -0.3997  3.6081
  467MOL0     H64424   8.800  -0.423   7.897  0.1833 -0.3976 -0.9810
  467MOL0     H64425   8.744  -0.544   8.005 -2.9483 -0.5437  0.3660
  467MOL0     H64426   8.154  -0.469   7.130  0.1195 -0.2013  0.3259
  467MOL0     H64427   8.030  -0.512   6.899 -2.3410  0.4695 -1.2430
  467MOL0     H64428   7.743  -0.500   6.656  0.0727 -1.4761  0.9535
  467MOL0     H64429   7.625  -0.458   6.431 -1.2798  0.2555  0.0888
  467MOL0     H64430   8.679   0.082   5.875  1.0740  1.4941  1.3605
  467MOL0     H64431   8.886   0.230   5.883 -1.1209 -0.1341 -0.2613
  467MOL0     H64432   9.315   0.196   5.626  1.0367 -1.0136 -1.6216
  467MOL0     H64433   9.511   0.329   5.545  0.3343  2.1597 -0.1457
  467MOL0     H64434   9.711   0.613   5.830 -2.7352 -0.0888 -1.8251
  467MOL0     H64435   9.765   0.439   5.866 -0.5866  0.5539  1.6049
  467MOL0     H64436   9.916   0.468   5.663 -1.0185  0.5381 -0.8158
  467MOL0     H64437   9.969   0.540   5.816 -1.1091  0.8120  0.8628
  467MOL0     H64438   9.821   0.706   5.611 -0.3125 -2.4141  0.2550
  467MOL0     H64439   9.918   0.761   5.744  0.3465  0.8166 -1.7730
  467MOL0     H64440  10.029   0.804   5.540 -0.4562 -0.1562 -1.9993
  467MOL0     H64441  10.016   0.627   5.495  2.2273 -2.2605  0.8820
  467MOL0     H64442  10.358   0.602   5.719 -0.0154  1.0332 -0.7617
  467MOL0     H64443   9.552   0.510   5.920  2.4942 -0.8381 -1.2395
  467MOL0     H64444   9.333   0.378   6.089 -1.1969  1.6965  0.7194
  467MOL0     H64445   9.337   0.556   6.037 -0.2725 -0.2943  3.1185
  467MOL0     H64446   9.199   0.455   6.002 -1.2461 -0.5305  0.8656
  468MOL0     O64447  10.085   7.015   9.551  0.2035  0.1518 -0.1731
  468MOL0     C64448  10.137   6.909   9.509  0.1590 -0.6181  0.4253
  468MOL0     O64449  10.249   6.903   9.435  0.3426  0.5805 -0.2761
  468MOL0     C64450  10.332   7.009   9.451  0.5877 -0.2104  0.5533
  468MOL0     C64451  10.372   7.084   9.340  0.7459  0.4664 -0.1825
  468MOL0     C64452  10.442   7.204   9.347 -0.3157 -0.5303  0.4170
  468MOL0     C64453  10.491   7.249   9.469  0.0321 -0.6304  1.1854
  468MOL0     O64454  10.564   7.373   9.473  0.1329  0.1282 -0.2363
  468MOL0     C64455  10.630   7.405   9.596  0.2959 -0.3650 -0.1251
  468MOL0     C64456  10.695   7.547   9.584  0.5873 -0.2828  0.4956
  468MOL0     C64457  10.578   7.650   9.584 -0.0330 -1.0714 -0.2123
  468MOL0     C64458  10.633   7.798   9.585  0.1367  0.2299 -0.0870
  468MOL0     C64459  10.530   7.918   9.599 -0.5291  0.2667  0.5179
  468MOL0     C64460  10.425   7.912   9.478  0.9881 -0.6216 -0.3919
  468MOL0     C64461  10.326   8.037   9.475 -0.4152  0.3929 -0.0147
  468MOL0     C64462  10.333   8.129   9.353 -0.3024  0.1370  0.3158
  468MOL0     N64463  10.444   8.232   9.373 -0.0204  0.4345 -0.2651
  468MOL0     C64464  10.431   8.365   9.345 -0.1230 -0.0102  0.6752
  468MOL0     C64465  10.556   8.420   9.371 -0.0172 -0.8933 -0.6807
  468MOL0     C64466  10.582   8.565   9.371 -0.2190  0.7598  0.7038
  468MOL0     C64467  10.669   8.614   9.254 -0.0996  1.0773 -1.4315
  468MOL0     C64468  10.654   8.764   9.233 -0.1403 -0.3318  0.4198
  468MOL0     C64469  10.779   8.825   9.159  0.3969  0.8775 -0.2116
  468MOL0     O64470  10.761   8.964   9.174  0.1044  0.3724  0.1866
  468MOL0     C64471  10.854   9.040   9.105 -0.4689  0.3841 -0.3372
  468MOL0     C64472  10.831   9.176   9.101 -0.6437 -0.1390  0.4233
  468MOL0     C64473  10.918   9.265   9.042 -0.5355  0.6567 -0.3459
  468MOL0     C64474  10.864   9.398   9.035  0.2635  0.5525  0.0752
  468MOL0     C64475  11.046   9.215   8.993  0.2073 -0.0506 -0.4956
  468MOL0     C64476  11.149   9.306   8.953  0.2794  0.5570  0.1800
  468MOL0     O64477  11.271   9.253   8.947 -0.6076 -0.3009  0.5869
  468MOL0     C64478  11.375   9.322   8.894 -0.1100  0.2071  0.0681
  468MOL0     C64479  11.448   9.250   8.802  0.5709 -0.1342  0.6539
  468MOL0     C64480  11.558   9.305   8.742  0.7719 -0.0926 -0.3549
  468MOL0     C64481  11.601   9.439   8.767  0.6572 -0.9269 -0.4936
  468MOL0     O64482  11.703   9.503   8.691 -0.2947  0.1154 -0.1618
  468MOL0     C64483  11.760   9.619   8.752 -0.4553  0.1904  0.6209
  468MOL0     C64484  11.881   9.650   8.670  0.3917  0.6067 -0.0714
  468MOL0     C64485  11.960   9.754   8.742 -0.0412 -0.4111 -0.7130
  468MOL0     C64486  12.072   9.814   8.666 -0.8735  0.0769  0.6694
  468MOL0     C64487  12.149   9.913   8.740  0.3567  0.9027  0.1426
  468MOL0     C64488  12.259   9.975   8.652 -0.5863 -0.3583  0.1021
  468MOL0     C64489  12.326  10.102   8.707  0.1309  0.2821 -0.1191
  468MOL0     C64490  12.424  10.153   8.607 -0.4712 -1.1088  0.2204
  468MOL0    Cl64491  12.548  10.034   8.572 -0.0699 -0.0947  0.0239
  468MOL0     C64492  11.515   9.515   8.853  0.1660  0.4023  0.5651
  468MOL0     C64493  11.406   9.460   8.911  0.3602  0.3589  0.2669
  468MOL0     O64494  11.123   9.416   8.909  0.0760  0.2012  0.0584
  468MOL0     C64495  11.070   9.072   8.995  0.5141 -0.7713  0.4363
  468MOL0     C64496  10.970   8.991   9.054  0.1462 -0.1880 -0.3201
  468MOL0     N64497  10.643   8.320   9.416  0.0618 -0.5100  0.7411
  468MOL0     N64498  10.569   8.211   9.420 -0.1286  0.3879  0.5823
  468MOL0     C64499  10.471   7.173   9.579  0.5872  1.0924 -0.2338
  468MOL0     C64500  10.384   7.055   9.570  0.0207 -0.0780 -0.3585
  468MOL0     C64501  10.058   6.787   9.519  0.2364  0.3004  0.1866
  468MOL0     C64502   9.920   6.788   9.522 -0.4879  0.1906  0.3044
  468MOL0     C64503   9.838   6.675   9.520 -0.4109  0.1041  0.4261
  468MOL0     C64504   9.895   6.547   9.514 -0.3125 -0.8030 -0.4042
  468MOL0     O64505   9.813   6.439   9.510 -0.4813 -1.2755 -0.2578
  468MOL0     C64506   9.767   6.391   9.634 -0.8660  0.7154 -0.6381
  468MOL0     C64507   9.765   6.230   9.620  0.5488  0.3188  0.3077
  468MOL0     C64508   9.657   6.175   9.723 -0.3175 -0.0933  0.4470
  468MOL0     C64509   9.683   6.036   9.773  0.2330  0.7308 -0.0125
  468MOL0     C64510   9.667   5.943   9.661  0.0839  1.4038  0.0403
  468MOL0     C64511   9.638   5.863   9.579  0.3050  1.1381 -0.0996
  468MOL0     C64512  10.041   6.550   9.514  0.8955  0.4212  0.4790
  468MOL0     C64513  10.121   6.662   9.516  0.6881  0.6806  0.0378
  468MOL0     C64514  10.268   6.622   9.511  0.2586  0.0013 -0.5684
  468MOL0     H64515  10.350   7.041   9.242  3.4754 -0.0817 -0.6244
  468MOL0     H64516  10.461   7.251   9.251  0.7278 -0.0033  0.8563
  468MOL0     H64517  10.711   7.336   9.621  1.3037  0.1631 -1.7463
  468MOL0     H64518  10.565   7.397   9.684  0.0232  0.4909 -0.2324
  468MOL0     H64519  10.759   7.560   9.672  1.4877  4.1917 -0.5962
  468MOL0     H64520  10.758   7.558   9.495  0.6639  0.4974  0.6397
  468MOL0     H64521  10.511   7.633   9.499 -1.0778  1.2812  0.0580
  468MOL0     H64522  10.507   7.644   9.666 -1.0148  3.0065 -0.5387
  468MOL0     H64523  10.706   7.807   9.665  0.9410 -1.6141 -0.5807
  468MOL0     H64524  10.684   7.815   9.490  3.9606  0.3548  1.8181
  468MOL0     H64525  10.570   8.019   9.612 -1.6998  0.8629 -0.3338
  468MOL0     H64526  10.473   7.908   9.692  0.2197  0.1618  0.9713
  468MOL0     H64527  10.488   7.913   9.388  1.5412 -1.3852 -0.0175
  468MOL0     H64528  10.381   7.814   9.493 -2.4422  0.9690  1.0027
  468MOL0     H64529  10.327   8.098   9.566 -0.2733  2.4482 -1.3240
  468MOL0     H64530  10.223   8.002   9.463 -1.8513  4.3290 -0.7050
  468MOL0     H64531  10.359   8.069   9.265  0.7068  1.4269 -0.3152
  468MOL0     H64532  10.235   8.175   9.341 -0.0014  1.1468  1.5020
  468MOL0     H64533  10.346   8.411   9.295 -2.1977 -2.6222  1.5954
  468MOL0     H64534  10.632   8.584   9.467  0.5379 -1.6970  0.8572
  468MOL0     H64535  10.493   8.628   9.372 -0.0055  1.0652  1.0716
  468MOL0     H64536  10.765   8.573   9.289 -0.8956 -1.6859 -2.2667
  468MOL0     H64537  10.650   8.561   9.161  0.5742  0.7882 -1.4135
  468MOL0     H64538  10.564   8.789   9.175 -0.1624  0.9306  0.9532
  468MOL0     H64539  10.644   8.811   9.331  0.3757  2.9520 -0.9359
  468MOL0     H64540  10.866   8.790   9.215 -0.2421 -2.1711 -0.8867
  468MOL0     H64541  10.786   8.786   9.057 -0.8014  1.4317 -0.5172
  468MOL0     H64542  10.745   9.213   9.155 -2.6591 -0.4069 -2.3898
  468MOL0     H64543  10.925   9.475   9.083 -0.3927  0.1584  1.6120
  468MOL0     H64544  10.760   9.399   9.068  0.4223 -1.1844  0.7609
  468MOL0     H64545  10.850   9.421   8.929 -0.5613 -1.5586 -0.3381
  468MOL0     H64546  11.411   9.152   8.775  2.3654 -0.8074  0.5107
  468MOL0     H64547  11.600   9.239   8.667  0.6035 -0.5428 -0.0510
  468MOL0     H64548  11.689   9.702   8.748 -0.0984  0.4499 -1.0876
  468MOL0     H64549  11.771   9.586   8.856 -1.2550  0.2376  0.7264
  468MOL0     H64550  11.943   9.565   8.640 -0.6924  0.0599 -0.8339
  468MOL0     H64551  11.849   9.694   8.575  2.6403  2.6552  0.0179
  468MOL0     H64552  11.997   9.704   8.832 -1.0830 -1.5535 -0.9120
  468MOL0     H64553  11.896   9.839   8.767 -0.5853 -0.3644 -2.1968
  468MOL0     H64554  12.023   9.863   8.581 -1.0732 -1.2804 -0.0307
  468MOL0     H64555  12.134   9.736   8.620 -1.9431 -0.1074 -0.5095
  468MOL0     H64556  12.075   9.984   8.779 -0.0023 -0.6316  2.4623
  468MOL0     H64557  12.193   9.872   8.832  0.4052  0.4398 -0.0853
  468MOL0     H64558  12.209  10.000   8.558  1.8008  0.4402 -1.0333
  468MOL0     H64559  12.336   9.898   8.639 -0.6646 -0.4221  0.0206
  468MOL0     H64560  12.373  10.068   8.800  0.6385 -0.9990 -0.8137
  468MOL0     H64561  12.248  10.177   8.724 -0.7680 -0.1732 -1.9071
  468MOL0     H64562  12.471  10.240   8.653  1.0885 -1.2377 -1.0186
  468MOL0     H64563  12.376  10.201   8.520  0.0295 -0.1206  0.4769
  468MOL0     H64564  11.539   9.620   8.868  3.7224 -0.2836  0.6884
  468MOL0     H64565  11.342   9.530   8.964 -2.3843 -1.1597 -0.7895
  468MOL0     H64566  11.166   9.030   8.967  1.8884  0.1588  3.2556
  468MOL0     H64567  10.992   8.885   9.056 -1.1969 -0.5195 -1.2985
  468MOL0     H64568  10.514   7.203   9.674 -0.4556  1.6318  0.0922
  468MOL0     H64569  10.358   6.994   9.656  2.6889 -0.9429 -0.0719
  468MOL0     H64570   9.870   6.884   9.513 -0.9587 -0.1339 -0.6552
  468MOL0     H64571   9.731   6.691   9.515 -0.2729  0.8063 -0.5166
  468MOL0     H64572   9.829   6.424   9.717 -0.1479 -0.0218 -0.8632
  468MOL0     H64573   9.664   6.423   9.655 -2.0146 -3.1510  0.4440
  468MOL0     H64574   9.862   6.195   9.657  0.7311 -2.2285 -2.2470
  468MOL0     H64575   9.758   6.190   9.519 -1.2612 -1.6721  1.1244
  468MOL0     H64576   9.677   6.238   9.811  3.2890 -0.3436 -0.0717
  468MOL0     H64577   9.557   6.191   9.682 -0.6933  2.9264  2.1971
  468MOL0     H64578   9.606   6.021   9.849 -0.2761  0.2448 -0.6202
  468MOL0     H64579   9.777   6.019   9.827  0.3552 -0.0688 -0.4637
  468MOL0     H64580   9.604   5.785   9.515 -0.9511  2.3619 -0.9840
  468MOL0     H64581  10.093   6.457   9.493  0.6436  0.1732  0.9305
  468MOL0     H64582  10.280   6.538   9.580 -1.8098  0.8623  0.9335
  468MOL0     H64583  10.299   6.591   9.411  0.2462  0.2495 -0.6476
  468MOL0     H64584  10.336   6.692   9.562 -1.1525  1.4969 -0.6850
  469MOL0     O64585   7.495   3.166   9.459 -0.3851 -0.3824 -0.8257
  469MOL0     C64586   7.578   3.156   9.555  0.0242  0.2890 -1.2743
  469MOL0     O64587   7.681   3.061   9.560 -0.0722 -0.0924 -0.4680
  469MOL0     C64588   7.677   2.976   9.453  0.2381  0.1767 -0.1532
  469MOL0     C64589   7.720   3.016   9.325 -0.0712  0.4089  0.4116
  469MOL0     C64590   7.716   2.929   9.223 -0.3708  0.4835  0.7315
  469MOL0     C64591   7.693   2.788   9.248 -0.3598 -0.0613 -0.0934
  469MOL0     O64592   7.693   2.692   9.148 -0.7796 -0.8155 -0.0823
  469MOL0     C64593   7.712   2.733   9.011 -0.4540  0.2184 -0.3970
  469MOL0     C64594   7.679   2.617   8.927  0.6877  0.7363  0.2273
  469MOL0     C64595   7.527   2.579   8.920  0.2334  0.5990  0.6762
  469MOL0     C64596   7.485   2.486   8.804 -0.2374  0.4669  0.0314
  469MOL0     C64597   7.337   2.444   8.807 -0.8672 -0.4429 -0.2773
  469MOL0     C64598   7.303   2.358   8.929  0.9079  1.0262  0.2662
  469MOL0     C64599   7.184   2.268   8.915  0.7323 -0.2185 -0.3216
  469MOL0     C64600   7.044   2.357   8.910 -1.4783 -0.3885 -0.5787
  469MOL0     N64601   6.922   2.270   8.917 -0.4335 -0.0168  0.0264
  469MOL0     C64602   6.839   2.237   8.809  1.0934  0.9586 -0.4976
  469MOL0     C64603   6.733   2.167   8.858 -0.2689  0.2258 -0.3550
  469MOL0     C64604   6.616   2.117   8.781 -0.4590 -0.3462  0.4099
  469MOL0     C64605   6.652   2.014   8.666  0.3714  0.1695  0.1952
  469MOL0     C64606   6.695   1.877   8.707  0.3744  0.5191  0.2472
  469MOL0     C64607   6.834   1.868   8.763 -0.2760 -0.7581 -0.1603
  469MOL0     O64608   6.922   1.908   8.656  0.9345  0.1781  0.1994
  469MOL0     C64609   7.051   1.912   8.679  0.2640 -0.7706 -0.0408
  469MOL0     C64610   7.121   2.000   8.593 -0.0184 -0.0623 -0.3472
  469MOL0     C64611   7.261   2.020   8.614 -0.6922  0.3669 -0.4867
  469MOL0     C64612   7.340   2.101   8.510  1.3304 -0.1835  0.2671
  469MOL0     C64613   7.324   1.937   8.717  0.9149  0.0336  0.3915
  469MOL0     C64614   7.468   1.935   8.721 -0.7932  0.1333  0.0364
  469MOL0     O64615   7.527   1.941   8.842  0.6363  0.0937 -0.1826
  469MOL0     C64616   7.660   1.959   8.849 -0.5603  0.5027  0.9076
  469MOL0     C64617   7.746   1.853   8.858 -0.1588  0.7905  0.0126
  469MOL0     C64618   7.881   1.872   8.878  0.4925 -0.4118  0.4507
  469MOL0     C64619   7.932   2.006   8.888 -0.0130  0.3938  0.1951
  469MOL0     O64620   8.070   2.016   8.912  0.6533 -0.4528 -0.1915
  469MOL0     C64621   8.143   2.040   8.793 -0.1897 -0.4574 -0.3904
  469MOL0     C64622   8.217   2.174   8.794  0.3977 -0.0628  0.2783
  469MOL0     C64623   8.247   2.214   8.640 -0.1686  0.4043  0.6789
  469MOL0     C64624   8.320   2.345   8.624 -0.0200  0.4032 -0.1867
  469MOL0     C64625   8.347   2.375   8.480 -0.3772 -0.4612  0.0458
  469MOL0     C64626   8.232   2.351   8.388  0.8878  0.0101  0.3645
  469MOL0     C64627   8.268   2.392   8.245 -0.3077 -0.6702 -0.1560
  469MOL0     C64628   8.154   2.361   8.144 -0.3929 -0.1975 -0.3572
  469MOL0    Cl64629   8.015   2.451   8.196 -0.0152  0.2150 -0.5262
  469MOL0     C64630   7.849   2.115   8.869 -0.3624 -0.5243 -0.4048
  469MOL0     C64631   7.709   2.090   8.852  0.1960  0.3203 -0.2033
  469MOL0     O64632   7.532   1.927   8.612  0.2082  0.1189 -1.0930
  469MOL0     C64633   7.247   1.860   8.804 -0.1909  0.2322  0.5650
  469MOL0     C64634   7.111   1.844   8.783 -0.6572 -0.4568  0.0085
  469MOL0     N64635   6.769   2.144   8.990 -0.0963 -0.0489  0.4416
  469MOL0     N64636   6.879   2.212   9.024 -0.7180 -0.2905 -0.2083
  469MOL0     C64637   7.657   2.747   9.377 -0.3001  0.6327 -0.1518
  469MOL0     C64638   7.642   2.842   9.475  0.1289  0.1318 -0.2235
  469MOL0     C64639   7.547   3.236   9.674 -0.7518  0.7611 -0.0328
  469MOL0     C64640   7.432   3.316   9.675  0.6203  0.1609 -0.5601
  469MOL0     C64641   7.394   3.394   9.785 -0.1417  0.0343  0.1245
  469MOL0     C64642   7.468   3.389   9.906 -0.8351 -0.3910 -0.5809
  469MOL0     O64643   7.449   3.470  10.013  0.5187  0.3318 -0.4246
  469MOL0     C64644   7.322   3.544  10.029  0.8022 -0.1291 -0.3211
  469MOL0     C64645   7.269   3.512  10.163 -0.4834 -0.0768 -0.0049
  469MOL0     C64646   7.121   3.524  10.179  0.0401  0.4287  0.0317
  469MOL0     C64647   7.069   3.505  10.318 -0.7075 -0.3475  0.0580
  469MOL0     C64648   7.105   3.370  10.366 -0.6689 -0.2832  0.5404
  469MOL0     C64649   7.137   3.265  10.418 -0.4119 -0.5592 -0.0938
  469MOL0     C64650   7.593   3.318   9.900  0.4884 -0.0491 -0.2995
  469MOL0     C64651   7.636   3.254   9.788 -0.0466  0.9869 -0.1200
  469MOL0     C64652   7.775   3.188   9.794 -0.3981 -0.2629 -0.3964
  469MOL0     H64653   7.759   3.117   9.316  2.3798 -0.1170  3.5593
  469MOL0     H64654   7.744   2.962   9.124 -2.8550  1.5743  0.3306
  469MOL0     H64655   7.819   2.752   8.997 -0.6530  0.4455 -1.7197
  469MOL0     H64656   7.640   2.811   8.986 -2.9337 -1.0758  2.1877
  469MOL0     H64657   7.710   2.643   8.825 -1.7148  1.6903 -0.3409
  469MOL0     H64658   7.738   2.530   8.955 -0.3344 -0.4485 -1.1424
  469MOL0     H64659   7.510   2.526   9.015 -0.6216  0.8223  0.6579
  469MOL0     H64660   7.466   2.670   8.917 -0.1216  0.3543  0.3513
  469MOL0     H64661   7.493   2.542   8.711  2.0856  3.0230  1.6584
  469MOL0     H64662   7.553   2.402   8.819  0.9817  1.4635  0.1844
  469MOL0     H64663   7.312   2.391   8.714 -1.4439 -2.4447  0.9542
  469MOL0     H64664   7.271   2.531   8.806 -0.6963 -0.2685  1.5976
  469MOL0     H64665   7.384   2.286   8.943 -1.1151 -1.6705 -1.0457
  469MOL0     H64666   7.302   2.414   9.023 -0.4308  0.9856  0.3065
  469MOL0     H64667   7.182   2.197   8.998  2.0588 -0.1228 -0.1867
  469MOL0     H64668   7.197   2.217   8.819 -1.2019  1.1152 -1.3445
  469MOL0     H64669   7.044   2.439   8.983 -3.2466 -1.4337  0.6632
  469MOL0     H64670   7.034   2.413   8.816 -1.2520  1.0355  0.2212
  469MOL0     H64671   6.849   2.272   8.706  0.9138 -1.5553 -1.4283
  469MOL0     H64672   6.571   2.206   8.737  0.6227 -0.9302 -2.0430
  469MOL0     H64673   6.551   2.071   8.857  2.2780 -4.7256  0.4574
  469MOL0     H64674   6.557   2.002   8.612  0.4744 -1.8799  0.4036
  469MOL0     H64675   6.718   2.065   8.595 -0.8107 -0.7505 -1.6603
  469MOL0     H64676   6.620   1.840   8.778 -0.7610 -0.7037 -1.5121
  469MOL0     H64677   6.698   1.803   8.627 -0.1270 -0.7480  1.3685
  469MOL0     H64678   6.846   1.932   8.851  0.6967 -2.4856  1.0272
  469MOL0     H64679   6.846   1.768   8.806  1.5087  0.8495  3.5196
  469MOL0     H64680   7.072   2.056   8.514  0.8001  4.5680  2.0421
  469MOL0     H64681   7.396   2.046   8.434 -0.4593 -1.9064  0.1133
  469MOL0     H64682   7.404   2.168   8.568 -0.9327  2.4964 -0.1227
  469MOL0     H64683   7.273   2.154   8.442  0.0806 -2.9835 -0.8187
  469MOL0     H64684   7.707   1.753   8.850  0.1587  0.4662  2.0909
  469MOL0     H64685   7.949   1.792   8.906  3.0529  1.1808 -0.8559
  469MOL0     H64686   8.212   1.955   8.795  1.6410  0.9343  2.6439
  469MOL0     H64687   8.082   2.036   8.702  0.0278 -0.9593 -0.5142
  469MOL0     H64688   8.150   2.249   8.839 -0.6890 -1.0824  0.4305
  469MOL0     H64689   8.308   2.177   8.854  2.5482  0.5616 -2.8372
  469MOL0     H64690   8.152   2.231   8.588  0.6360 -0.4464 -1.1278
  469MOL0     H64691   8.299   2.134   8.586 -1.2965 -0.4514  0.8258
  469MOL0     H64692   8.417   2.345   8.674 -1.6997  0.0759  3.3700
  469MOL0     H64693   8.268   2.427   8.674  0.5936  1.5936 -1.4311
  469MOL0     H64694   8.374   2.481   8.481 -0.1365 -0.5008  1.5504
  469MOL0     H64695   8.438   2.319   8.455  1.1333  2.0904 -0.6307
  469MOL0     H64696   8.160   2.419   8.433 -0.9480 -0.4257 -1.7421
  469MOL0     H64697   8.195   2.249   8.391  1.4983 -0.2164  3.6839
  469MOL0     H64698   8.354   2.334   8.210 -1.4218 -1.8267 -1.1088
  469MOL0     H64699   8.300   2.497   8.238  0.8572 -0.9355  0.8224
  469MOL0     H64700   8.138   2.253   8.142 -1.4993 -0.0905  1.3120
  469MOL0     H64701   8.183   2.398   8.045  0.1807  0.7116  0.1349
  469MOL0     H64702   7.888   2.216   8.872  0.2418 -0.6918 -1.9435
  469MOL0     H64703   7.643   2.174   8.836 -1.5416 -1.3057 -2.0721
  469MOL0     H64704   7.297   1.825   8.893 -0.8322  2.2765  1.7967
  469MOL0     H64705   7.049   1.783   8.848  0.5629  0.0084  1.6913
  469MOL0     H64706   7.649   2.640   9.392  3.6795 -0.1906 -2.4168
  469MOL0     H64707   7.598   2.817   9.571 -1.2073  0.3739 -0.7385
  469MOL0     H64708   7.364   3.334   9.591 -1.5100  0.9219  1.2282
  469MOL0     H64709   7.327   3.479   9.778  0.1941  0.2228 -1.0744
  469MOL0     H64710   7.335   3.652  10.025 -0.8016  0.1816  1.5178
  469MOL0     H64711   7.243   3.513   9.960  1.8319 -1.2692 -1.0357
  469MOL0     H64712   7.314   3.574  10.242 -3.5954 -0.2689  2.0697
  469MOL0     H64713   7.285   3.406  10.184  0.5400 -0.4272 -2.2900
  469MOL0     H64714   7.093   3.627  10.154 -0.3698  0.9458  2.4158
  469MOL0     H64715   7.069   3.448  10.119  1.1687 -1.2374  1.0782
  469MOL0     H64716   6.960   3.509  10.306 -0.4613  0.4442 -2.3776
  469MOL0     H64717   7.101   3.585  10.386 -1.9855  1.1226 -1.0177
  469MOL0     H64718   7.165   3.170  10.460 -1.4333 -1.8638 -2.1823
  469MOL0     H64719   7.648   3.321   9.993 -1.7396 -0.3893  1.1172
  469MOL0     H64720   7.825   3.211   9.889 -2.2019  0.8351  0.3326
  469MOL0     H64721   7.758   3.080   9.793 -0.0568 -0.4480 -4.6555
  469MOL0     H64722   7.839   3.206   9.707 -0.3540  0.8812 -0.1457
  470MOL0     O64723   5.022  10.895   1.736 -0.4169 -0.4945  0.3428
  470MOL0     C64724   5.001  11.009   1.685 -0.1707  0.3426 -0.1125
  470MOL0     O64725   5.090  11.080   1.611  0.4211 -0.0338 -0.0517
  470MOL0     C64726   5.219  11.030   1.580  1.1069 -0.1561 -0.2031
  470MOL0     C64727   5.319  11.124   1.570  0.4079 -0.1307  0.8752
  470MOL0     C64728   5.452  11.091   1.535 -0.7626  0.8244 -0.5732
  470MOL0     C64729   5.478  10.961   1.514 -0.4771  0.8294  0.2368
  470MOL0     O64730   5.611  10.908   1.486  0.1646 -0.2259 -0.1757
  470MOL0     C64731   5.726  10.990   1.479 -0.5898 -0.4034  0.0629
  470MOL0     C64732   5.725  11.069   1.347  0.3513 -0.0090  0.3608
  470MOL0     C64733   5.695  10.966   1.234  0.3873 -0.1739  0.6893
  470MOL0     C64734   5.764  11.005   1.103 -0.3748  0.3629 -0.1687
  470MOL0     C64735   5.728  10.906   0.993 -0.0150 -0.2215 -0.2450
  470MOL0     C64736   5.771  10.959   0.856 -0.1394  0.2747 -0.1532
  470MOL0     C64737   5.919  10.942   0.827  0.4312 -0.3423  1.4991
  470MOL0     C64738   5.950  10.948   0.676  1.1295 -0.3567  0.2195
  470MOL0     N64739   6.094  10.961   0.652  0.4687  0.4876 -0.6428
  470MOL0     C64740   6.174  10.858   0.702 -0.3764 -0.2894 -0.5163
  470MOL0     C64741   6.281  10.847   0.625  0.5895 -0.1166  0.7189
  470MOL0     C64742   6.409  10.762   0.626  1.0525  0.4465 -0.4792
  470MOL0     C64743   6.529  10.845   0.656 -0.2423 -0.1923 -0.5841
  470MOL0     C64744   6.586  10.942   0.557 -0.3601  0.2845  0.1295
  470MOL0     C64745   6.725  11.002   0.595 -0.5838 -0.1955  0.8722
  470MOL0     O64746   6.819  10.893   0.594  0.0191  0.2996 -0.0134
  470MOL0     C64747   6.941  10.932   0.559 -0.1185 -0.7808  0.3018
  470MOL0     C64748   7.013  10.857   0.467  0.5060  0.5732 -0.4002
  470MOL0     C64749   7.140  10.896   0.416 -0.4320  0.9285 -0.2972
  470MOL0     C64750   7.192  10.804   0.318  1.2785 -0.0099  0.1975
  470MOL0     C64751   7.206  11.012   0.464 -0.3945  0.4085  0.0756
  470MOL0     C64752   7.338  11.061   0.429 -0.1938  0.4607  0.2243
  470MOL0     O64753   7.365  11.180   0.475  0.1238 -0.1134  0.6406
  470MOL0     C64754   7.480  11.254   0.445 -0.2895 -0.4338 -0.4121
  470MOL0     C64755   7.520  11.347   0.542  0.2341  0.4205  1.1013
  470MOL0     C64756   7.631  11.429   0.515 -0.0277  0.0419  0.5501
  470MOL0     C64757   7.710  11.418   0.401 -0.2412 -0.6027  0.8331
  470MOL0     O64758   7.826  11.491   0.403  0.2107 -0.5903  0.1112
  470MOL0     C64759   7.872  11.526   0.271 -0.0009 -0.4710 -0.9638
  470MOL0     C64760   8.016  11.585   0.273  0.1167  0.7895 -0.0085
  470MOL0     C64761   8.043  11.691   0.381  0.0557  0.6550  0.6247
  470MOL0     C64762   8.167  11.780   0.371  0.4253  0.4389  0.0997
  470MOL0     C64763   8.190  11.890   0.474 -0.2070  0.3629 -0.0867
  470MOL0     C64764   8.215  11.845   0.621  0.2115 -0.0786  0.0311
  470MOL0     C64765   8.203  11.964   0.722 -0.4221 -0.7690  0.2195
  470MOL0     C64766   8.344  12.032   0.726 -1.0354 -0.0187  0.6337
  470MOL0    Cl64767   8.457  11.927   0.820 -0.0731  0.1671 -0.4102
  470MOL0     C64768   7.664  11.325   0.313 -0.5543  0.3782 -0.7070
  470MOL0     C64769   7.555  11.242   0.328 -0.4967  0.7530  0.4692
  470MOL0     O64770   7.418  10.988   0.363  0.3520 -0.5711 -0.8379
  470MOL0     C64771   7.139  11.074   0.570 -0.5216  0.4882  0.5501
  470MOL0     C64772   7.008  11.044   0.610  0.4683 -0.0871  0.1160
  470MOL0     N64773   6.275  10.959   0.536  0.0164  0.3754 -0.2081
  470MOL0     N64774   6.165  11.020   0.555  0.3615 -0.1419  0.1726
  470MOL0     C64775   5.382  10.861   1.523 -0.2049  0.2223 -0.6852
  470MOL0     C64776   5.260  10.902   1.553  0.0817 -0.6924 -0.6653
  470MOL0     C64777   4.869  11.063   1.721 -0.5641 -0.0892  0.5693
  470MOL0     C64778   4.848  11.196   1.688 -0.2286 -0.4675  0.5412
  470MOL0     C64779   4.727  11.254   1.719  0.3195  0.1416 -0.6349
  470MOL0     C64780   4.623  11.177   1.770  0.0947 -0.7617  0.3958
  470MOL0     O64781   4.511  11.248   1.807  0.1864 -0.3346 -0.3489
  470MOL0     C64782   4.397  11.196   1.868  0.2017 -0.0809 -0.7804
  470MOL0     C64783   4.326  11.098   1.789  0.0569  0.3392 -0.3178
  470MOL0     C64784   4.178  11.084   1.817  0.7176  0.0209 -0.2402
  470MOL0     C64785   4.117  10.965   1.734  0.2018  0.1195 -0.0043
  470MOL0     C64786   4.191  10.836   1.748 -0.6200  0.2490  1.1807
  470MOL0     C64787   4.245  10.731   1.773  0.0185 -0.2171  0.2369
  470MOL0     C64788   4.641  11.046   1.800  1.1791 -0.8442  0.3096
  470MOL0     C64789   4.757  10.985   1.769 -0.2602 -0.3118  0.7232
  470MOL0     C64790   4.772  10.833   1.799 -0.4835  0.1351  0.1638
  470MOL0     H64791   5.282  11.223   1.593 -1.3633 -0.5973  0.1834
  470MOL0     H64792   5.531  11.166   1.535 -1.1624  1.2881  1.3840
  470MOL0     H64793   5.812  10.922   1.472 -0.5848 -0.3084 -1.0908
  470MOL0     H64794   5.744  11.055   1.565  0.2348 -0.4804 -0.0415
  470MOL0     H64795   5.650  11.148   1.349 -0.3791 -0.5972 -1.5760
  470MOL0     H64796   5.819  11.113   1.312 -1.9459  2.8554 -2.8040
  470MOL0     H64797   5.728  10.864   1.255 -1.2813 -0.9889 -0.4780
  470MOL0     H64798   5.587  10.970   1.220  0.6953  2.7368 -1.8376
  470MOL0     H64799   5.737  11.108   1.077 -1.6199 -0.1247 -0.8903
  470MOL0     H64800   5.872  11.008   1.120 -0.1604  2.4384 -1.5088
  470MOL0     H64801   5.620  10.891   0.998  0.0187 -0.2064  0.8554
  470MOL0     H64802   5.779  10.813   1.021  2.4323  1.6810  2.2283
  470MOL0     H64803   5.707  10.901   0.788  2.0514 -1.3650 -0.9243
  470MOL0     H64804   5.744  11.065   0.848  0.2560  0.3719 -0.2363
  470MOL0     H64805   5.945  10.844   0.868 -1.3020 -0.5710  2.1344
  470MOL0     H64806   5.973  11.020   0.883  0.3253  0.4557  0.5172
  470MOL0     H64807   5.912  10.857   0.629  0.1457  1.2386 -2.2349
  470MOL0     H64808   5.900  11.037   0.638  3.3191  1.2665  0.9614
  470MOL0     H64809   6.155  10.790   0.785 -1.3968 -3.1390 -2.9056
  470MOL0     H64810   6.425  10.712   0.531 -0.5257  1.1520 -1.1444
  470MOL0     H64811   6.394  10.690   0.707  1.2688 -0.1029 -0.9226
  470MOL0     H64812   6.508  10.907   0.744  1.9674  1.0721 -0.8817
  470MOL0     H64813   6.608  10.774   0.682  0.0475  0.7005  1.1024
  470MOL0     H64814   6.598  10.885   0.465  3.9180  2.2002 -0.7145
  470MOL0     H64815   6.523  11.031   0.544  0.1681  0.7281  0.5270
  470MOL0     H64816   6.752  11.076   0.519 -0.8305 -0.2247  0.7534
  470MOL0     H64817   6.735  11.053   0.691  3.2685  0.0262  0.4841
  470MOL0     H64818   6.968  10.774   0.414  1.6804  1.2133 -2.5640
  470MOL0     H64819   7.118  10.782   0.240  0.9158 -3.2613  1.2807
  470MOL0     H64820   7.221  10.706   0.356  2.0239  0.3162  0.4688
  470MOL0     H64821   7.267  10.854   0.257  1.3864 -0.0015  0.3380
  470MOL0     H64822   7.475  11.339   0.640 -2.4798 -0.0776 -0.0914
  470MOL0     H64823   7.658  11.503   0.590  0.8614 -0.3029  0.5789
  470MOL0     H64824   7.864  11.437   0.208 -1.1235  0.2431 -1.8832
  470MOL0     H64825   7.806  11.599   0.223 -3.0235 -1.0447  1.9748
  470MOL0     H64826   8.099  11.514   0.282  1.0315  1.7939 -0.2361
  470MOL0     H64827   8.031  11.638   0.179 -1.0576  0.4458 -0.4063
  470MOL0     H64828   8.052  11.636   0.475 -1.0179 -0.7893 -0.0790
  470MOL0     H64829   7.945  11.740   0.372 -0.0894  0.0837 -1.8783
  470MOL0     H64830   8.165  11.833   0.276  2.1909  2.6638  1.2077
  470MOL0     H64831   8.247  11.706   0.380 -2.2708 -2.4420  4.0726
  470MOL0     H64832   8.280  11.941   0.440 -0.9399 -0.2716 -3.3417
  470MOL0     H64833   8.098  11.950   0.471 -2.2462 -2.3760  1.7391
  470MOL0     H64834   8.307  11.786   0.612 -1.6200 -2.8600 -1.9423
  470MOL0     H64835   8.137  11.779   0.660 -2.4394  1.7876 -1.7876
  470MOL0     H64836   8.178  11.929   0.822 -2.2341 -1.7629 -0.5287
  470MOL0     H64837   8.116  12.028   0.705 -0.5926 -0.4256  2.2317
  470MOL0     H64838   8.346  12.133   0.766  1.7777  0.4657 -0.5170
  470MOL0     H64839   8.385  12.039   0.625  1.9231  1.6116  1.8478
  470MOL0     H64840   7.725  11.299   0.227 -1.3081 -3.1553 -0.3285
  470MOL0     H64841   7.545  11.176   0.243 -0.2238  0.2777  0.8060
  470MOL0     H64842   7.185  11.153   0.629  0.9535 -0.2383  0.4038
  470MOL0     H64843   6.966  11.108   0.688  2.2343  2.4837 -0.8828
  470MOL0     H64844   5.399  10.755   1.511 -1.1542  0.1022 -1.0529
  470MOL0     H64845   5.185  10.825   1.550 -0.2459 -0.3467 -1.6294
  470MOL0     H64846   4.919  11.265   1.644 -0.0897  0.8587  2.7139
  470MOL0     H64847   4.702  11.359   1.705  0.8898  0.6799  1.9859
  470MOL0     H64848   4.429  11.150   1.962 -0.3811  0.4163 -0.3282
  470MOL0     H64849   4.334  11.275   1.910 -1.1698  0.2770 -3.3202
  470MOL0     H64850   4.370  11.001   1.814  1.7067  0.4433 -2.5291
  470MOL0     H64851   4.330  11.096   1.680 -0.0774 -3.2357 -0.3622
  470MOL0     H64852   4.173  11.069   1.926  1.0276  2.9180  0.2650
  470MOL0     H64853   4.125  11.179   1.800 -1.1785 -0.5798  1.7173
  470MOL0     H64854   4.095  10.997   1.631 -1.1261 -1.9353 -0.4263
  470MOL0     H64855   4.014  10.958   1.769  0.2048  1.5435  0.3198
  470MOL0     H64856   4.308  10.645   1.785  0.0688 -0.6177 -2.3410
  470MOL0     H64857   4.560  10.987   1.841  2.2029 -1.3532  1.6583
  470MOL0     H64858   4.837  10.819   1.886 -1.0726 -0.1516  0.5615
  470MOL0     H64859   4.676  10.798   1.838  0.0839 -1.6469  0.0167
  470MOL0     H64860   4.816  10.780   1.714  0.5772  3.2225 -1.3707
  471MOL0     O64861   5.619   6.464  10.140  0.1952 -1.0784 -0.0474
  471MOL0     C64862   5.568   6.490  10.249 -0.5122  0.9482 -0.2178
  471MOL0     O64863   5.637   6.506  10.364  0.4218 -0.3912  0.0119
  471MOL0     C64864   5.774   6.488  10.372  0.0710 -0.0236  0.1461
  471MOL0     C64865   5.836   6.363  10.391  0.9385 -0.2370  0.1624
  471MOL0     C64866   5.972   6.353  10.402  0.3495  0.9696  1.0112
  471MOL0     C64867   6.060   6.459  10.398  0.0879  0.6749 -0.0553
  471MOL0     O64868   6.196   6.442  10.423  0.1169 -0.7461 -0.0107
  471MOL0     C64869   6.268   6.554  10.478 -0.2379  0.2072 -0.9918
  471MOL0     C64870   6.401   6.509  10.545 -0.1482 -0.2127  0.7437
  471MOL0     C64871   6.493   6.453  10.432 -0.0843 -0.8717  0.4428
  471MOL0     C64872   6.609   6.381  10.490  0.4743 -0.5513 -0.1722
  471MOL0     C64873   6.707   6.322  10.384  0.1351 -0.4371  0.1015
  471MOL0     C64874   6.782   6.427  10.295  0.2892  0.6282 -0.6136
  471MOL0     C64875   6.884   6.361  10.204 -0.3709 -0.8003 -0.5173
  471MOL0     C64876   7.004   6.291  10.280 -0.3358  0.0853  0.2912
  471MOL0     N64877   7.082   6.382  10.366  0.0206  0.0754 -0.6008
  471MOL0     C64878   7.203   6.431  10.347 -0.1598 -0.3485 -0.6004
  471MOL0     C64879   7.232   6.503  10.455  0.2920  0.1664 -0.3806
  471MOL0     C64880   7.352   6.588  10.476 -0.2710 -0.4190  0.0965
  471MOL0     C64881   7.316   6.731  10.411  0.2966 -0.4978 -0.0432
  471MOL0     C64882   7.420   6.840  10.422 -0.0632  0.4352 -0.6533
  471MOL0     C64883   7.540   6.809  10.343  0.6364 -0.0047 -0.4167
  471MOL0     O64884   7.641   6.891  10.394 -0.1139  0.4669  0.6968
  471MOL0     C64885   7.771   6.879  10.346 -0.2100  0.0319 -0.3443
  471MOL0     C64886   7.867   6.959  10.406  0.0670  0.1528 -0.5305
  471MOL0     C64887   7.990   6.983  10.351  0.0587  0.1331  0.0068
  471MOL0     C64888   8.076   7.099  10.402  0.6240  0.5074 -0.7493
  471MOL0     C64889   8.036   6.899  10.239  0.0202 -0.6367  0.0328
  471MOL0     C64890   8.170   6.895  10.175  0.4018 -0.0799  0.5092
  471MOL0     O64891   8.185   6.837  10.054 -0.1825 -0.3894 -0.9737
  471MOL0     C64892   8.323   6.838  10.008  0.6481  0.2231 -0.2506
  471MOL0     C64893   8.349   6.924   9.906  0.0236  0.5783  0.8717
  471MOL0     C64894   8.476   6.913   9.833 -0.4524 -0.4724 -0.2294
  471MOL0     C64895   8.574   6.820   9.874 -0.6913  0.7877  0.7223
  471MOL0     O64896   8.681   6.803   9.794  0.5043  0.6109 -0.1881
  471MOL0     C64897   8.807   6.809   9.872  0.1514 -0.2378 -0.4041
  471MOL0     C64898   8.933   6.773   9.796  0.3563  0.9993 -0.1671
  471MOL0     C64899   8.958   6.623   9.765 -0.3301 -0.3892  0.9987
  471MOL0     C64900   9.093   6.610   9.681  0.8173  0.2306 -0.2614
  471MOL0     C64901   9.128   6.462   9.659 -0.7662 -0.6821  0.4381
  471MOL0     C64902   9.256   6.423   9.582  0.4860  1.0323  0.1645
  471MOL0     C64903   9.248   6.267   9.568  0.6871  0.1936  0.2474
  471MOL0     C64904   9.302   6.204   9.442  0.9876  0.3008 -0.4261
  471MOL0    Cl64905   9.460   6.267   9.423 -0.5137  0.0386  0.2139
  471MOL0     C64906   8.546   6.739   9.981 -0.2170 -0.7970  0.0340
  471MOL0     C64907   8.426   6.744  10.050  0.8782  0.4955  0.2059
  471MOL0     O64908   8.259   6.961  10.232  0.3975  0.7863  0.2861
  471MOL0     C64909   7.938   6.816  10.187  0.9534 -0.5413  0.2366
  471MOL0     C64910   7.809   6.809  10.226 -0.1308 -0.3524  0.2028
  471MOL0     N64911   7.132   6.494  10.550  0.0490  0.3959  0.2426
  471MOL0     N64912   7.050   6.409  10.498  0.2645 -0.1569  0.1293
  471MOL0     C64913   5.998   6.587  10.393  0.1606 -0.9807 -0.4903
  471MOL0     C64914   5.856   6.603  10.384 -0.5208  0.8758  0.1037
  471MOL0     C64915   5.421   6.511  10.247  1.0345 -0.2244  0.2331
  471MOL0     C64916   5.366   6.598  10.338 -0.2301 -1.0707 -0.2376
  471MOL0     C64917   5.229   6.639  10.340 -0.8923 -0.4741 -0.1143
  471MOL0     C64918   5.146   6.593  10.240 -0.4254  0.0816  0.1007
  471MOL0     O64919   5.018   6.638  10.249 -0.2653  0.0528  0.1358
  471MOL0     C64920   4.919   6.557  10.184 -0.6877 -0.5796  0.2462
  471MOL0     C64921   4.783   6.601  10.216  0.0612  0.4397 -0.3086
  471MOL0     C64922   4.753   6.739  10.150  0.3288 -0.5840 -0.8259
  471MOL0     C64923   4.611   6.787  10.185  0.8330 -0.0803  1.1189
  471MOL0     C64924   4.564   6.887  10.090 -0.8408 -0.1049  0.4092
  471MOL0     C64925   4.537   6.983  10.019 -0.1281 -0.7494  0.1018
  471MOL0     C64926   5.202   6.505  10.147 -0.3538 -0.4008 -0.3383
  471MOL0     C64927   5.337   6.464  10.145  0.4462 -0.3066  0.0672
  471MOL0     C64928   5.381   6.365  10.039 -0.3233  0.0111 -0.0762
  471MOL0     H64929   5.774   6.274  10.402 -1.9918  1.7916  1.0793
  471MOL0     H64930   6.014   6.255  10.419 -1.1743  0.1923  0.4640
  471MOL0     H64931   6.214   6.615  10.551  3.4852  3.7585 -0.8681
  471MOL0     H64932   6.296   6.612  10.390  0.8326 -1.3056 -1.6853
  471MOL0     H64933   6.455   6.586  10.601  0.8767  1.2356 -2.0205
  471MOL0     H64934   6.376   6.433  10.619  2.1507 -0.0468  1.7629
  471MOL0     H64935   6.433   6.389  10.366 -0.3926 -2.3950  2.1274
  471MOL0     H64936   6.544   6.532  10.376  0.4640 -0.5056  1.4330
  471MOL0     H64937   6.665   6.452  10.551 -0.0799 -1.1509  1.0773
  471MOL0     H64938   6.573   6.301  10.556  1.4507  0.0506  1.1237
  471MOL0     H64939   6.647   6.253  10.324 -0.2199  0.2945 -0.4029
  471MOL0     H64940   6.778   6.256  10.435  0.5015 -0.1434 -0.0241
  471MOL0     H64941   6.700   6.462  10.232 -0.5453 -3.0703 -1.8547
  471MOL0     H64942   6.821   6.504  10.362  3.5511 -0.5427 -1.0182
  471MOL0     H64943   6.932   6.439  10.144 -1.3997  0.7470  0.5948
  471MOL0     H64944   6.840   6.286  10.138 -0.9035 -2.5449  1.6976
  471MOL0     H64945   6.965   6.216  10.350 -0.3852  1.1032  1.3864
  471MOL0     H64946   7.069   6.250  10.202 -0.1131  0.7910  0.1038
  471MOL0     H64947   7.274   6.439  10.265  1.7766  0.9919  1.1041
  471MOL0     H64948   7.434   6.548  10.417 -2.3010 -0.4765 -2.9206
  471MOL0     H64949   7.358   6.603  10.584  0.9535  1.2179 -0.1606
  471MOL0     H64950   7.292   6.724  10.304 -1.7946 -0.5777  0.3941
  471MOL0     H64951   7.226   6.767  10.462 -0.2183 -0.8119 -0.7123
  471MOL0     H64952   7.377   6.927  10.372  1.5533  0.2304 -2.4945
  471MOL0     H64953   7.451   6.863  10.524  0.0067 -0.3953 -0.4728
  471MOL0     H64954   7.563   6.704  10.364 -0.4125  0.3404  3.0733
  471MOL0     H64955   7.518   6.829  10.238 -0.5216  0.4463 -0.1047
  471MOL0     H64956   7.843   7.023  10.490 -1.5114  0.6564 -1.3154
  471MOL0     H64957   8.105   7.166  10.320  0.1038  0.7379 -0.7444
  471MOL0     H64958   8.167   7.053  10.441 -0.0957 -1.1925 -1.0120
  471MOL0     H64959   8.013   7.160  10.468 -0.7394 -2.3116  0.7145
  471MOL0     H64960   8.275   7.001   9.884 -1.5224 -0.1891  3.0348
  471MOL0     H64961   8.499   6.974   9.746  0.0362 -0.6759 -0.2442
  471MOL0     H64962   8.819   6.908   9.917  0.6538 -0.5565  0.1856
  471MOL0     H64963   8.799   6.738   9.956 -2.0599 -1.5508 -1.6145
  471MOL0     H64964   8.922   6.826   9.701 -2.0672 -0.6377 -0.8895
  471MOL0     H64965   9.013   6.806   9.863  2.5425  0.9810 -2.6310
  471MOL0     H64966   8.877   6.583   9.704  0.2021  0.5585 -0.3936
  471MOL0     H64967   8.961   6.567   9.859  0.0092 -0.7355  0.7831
  471MOL0     H64968   9.179   6.649   9.737 -0.6751 -0.1557  2.4301
  471MOL0     H64969   9.074   6.665   9.588 -1.1817  1.5248  0.8552
  471MOL0     H64970   9.155   6.412   9.752 -0.4078 -0.1444  0.6294
  471MOL0     H64971   9.045   6.413   9.607 -2.3363  1.8308  0.4342
  471MOL0     H64972   9.343   6.455   9.639 -0.4591  1.4432  1.3981
  471MOL0     H64973   9.250   6.480   9.488 -0.8676 -0.5856 -0.7848
  471MOL0     H64974   9.148   6.230   9.593  0.0524  0.8936 -1.1653
  471MOL0     H64975   9.311   6.234   9.652  1.5802  2.3122  0.4852
  471MOL0     H64976   9.240   6.237   9.358 -2.8515 -1.9514  1.2529
  471MOL0     H64977   9.293   6.096   9.453 -2.5448  0.4309 -0.8008
  471MOL0     H64978   8.614   6.664  10.020 -0.1258  0.2153  1.9556
  471MOL0     H64979   8.399   6.678  10.132 -1.1087  2.4727  1.2346
  471MOL0     H64980   7.962   6.762  10.096 -0.8651 -0.6515 -0.2051
  471MOL0     H64981   7.740   6.739  10.180  2.4221 -1.9910 -1.3613
  471MOL0     H64982   6.061   6.676  10.398 -0.4287 -0.5926  0.5071
  471MOL0     H64983   5.818   6.705  10.381 -1.6631  0.6055  2.8653
  471MOL0     H64984   5.432   6.624  10.420 -2.8072  4.0333  0.6404
  471MOL0     H64985   5.193   6.705  10.418  0.1358  1.5311 -1.2620
  471MOL0     H64986   4.936   6.557  10.075 -3.0416  1.9426 -0.2136
  471MOL0     H64987   4.936   6.451  10.208  1.7683 -0.2845  0.1138
  471MOL0     H64988   4.772   6.597  10.325  0.8225 -2.7817 -0.2469
  471MOL0     H64989   4.710   6.527  10.183  0.7072 -0.9532  1.2708
  471MOL0     H64990   4.823   6.821  10.169 -0.7210  0.7879 -2.5556
  471MOL0     H64991   4.759   6.737  10.041 -0.0050  0.8865 -0.8908
  471MOL0     H64992   4.614   6.832  10.284  1.2540  2.1102  0.1664
  471MOL0     H64993   4.549   6.697  10.178  0.2791  0.4227 -1.7207
  471MOL0     H64994   4.514   7.070   9.960 -0.2349 -2.5140 -2.6610
  471MOL0     H64995   5.143   6.463  10.066 -1.1805 -0.9751  0.5396
  471MOL0     H64996   5.294   6.306  10.011 -0.9647  1.9928 -2.7557
  471MOL0     H64997   5.427   6.399   9.945  1.7052  0.0309  0.8679
  471MOL0     H64998   5.450   6.293  10.083 -1.3903 -2.3052 -2.0027
  472MOL0     O64999   6.365   9.732   6.754 -0.0789  0.4545  0.3079
  472MOL0     C65000   6.393   9.643   6.831  0.6170  0.9046  0.1722
  472MOL0     O65001   6.518   9.588   6.834 -0.0191 -0.9866 -0.3856
  472MOL0     C65002   6.625   9.670   6.800 -0.7868 -0.4590  0.1653
  472MOL0     C65003   6.646   9.742   6.680  0.4316 -0.2610  0.6282
  472MOL0     C65004   6.766   9.819   6.647 -0.3032  0.8817 -1.0212
  472MOL0     C65005   6.878   9.805   6.735 -0.5843  0.1993  0.5032
  472MOL0     O65006   7.000   9.859   6.714  0.2207 -0.2544 -0.5963
  472MOL0     C65007   7.034   9.918   6.589  0.3051  0.5881 -0.6457
  472MOL0     C65008   7.143  10.016   6.619  0.5321  0.1715 -0.0770
  472MOL0     C65009   7.284   9.978   6.645  0.0335  0.1292 -0.0658
  472MOL0     C65010   7.367  10.108   6.662 -0.2125  0.3114  0.3152
  472MOL0     C65011   7.511  10.084   6.692  0.4671  0.7693 -0.7000
  472MOL0     C65012   7.536  10.020   6.837  0.7549 -0.3703  1.3349
  472MOL0     C65013   7.631   9.896   6.839  0.7767  0.6876  0.4468
  472MOL0     C65014   7.779   9.919   6.785  0.1983  0.2802 -0.5373
  472MOL0     N65015   7.857   9.999   6.876  0.5094  0.0188  0.8729
  472MOL0     C65016   7.852  10.129   6.896  0.7664  0.1917  0.6458
  472MOL0     C65017   7.952  10.158   6.978 -0.0754  0.1543  0.1399
  472MOL0     C65018   7.969  10.298   7.011 -0.8844  0.5027  0.0960
  472MOL0     C65019   8.120  10.332   7.014 -0.3492  0.3917 -0.7603
  472MOL0     C65020   8.138  10.482   7.030  0.4120  0.2798 -1.0385
  472MOL0     C65021   8.288  10.495   7.028  0.7325 -0.2674 -0.1396
  472MOL0     O65022   8.326  10.636   7.048  0.0165 -0.2871  0.2918
  472MOL0     C65023   8.456  10.674   7.050  0.0613 -1.5299  0.5011
  472MOL0     C65024   8.483  10.798   7.084  0.0416 -0.8819 -0.4305
  472MOL0     C65025   8.617  10.837   7.116 -0.1002  0.2212 -0.3383
  472MOL0     C65026   8.627  10.950   7.218 -0.5643  0.2813  0.3597
  472MOL0     C65027   8.733  10.757   7.085 -0.1030  0.5744  0.0197
  472MOL0     C65028   8.875  10.800   7.084  0.5268  0.2702 -0.2121
  472MOL0     O65029   8.962  10.698   7.093  0.9810  0.8530 -0.7212
  472MOL0     C65030   9.088  10.722   7.121 -0.4932  0.2816 -0.2812
  472MOL0     C65031   9.143  10.822   7.198 -0.2773  0.0113 -0.6613
  472MOL0     C65032   9.285  10.836   7.212 -0.0996  0.1062  0.0852
  472MOL0     C65033   9.378  10.753   7.160 -0.4935  0.0773  0.2498
  472MOL0     O65034   9.512  10.754   7.188  0.1758  0.6603 -0.5395
  472MOL0     C65035   9.564  10.852   7.278 -0.0759 -0.1748 -0.3739
  472MOL0     C65036   9.711  10.813   7.326 -0.0936 -0.2387  0.1070
  472MOL0     C65037   9.770  10.920   7.424 -0.1992  1.0960  0.2928
  472MOL0     C65038   9.816  11.035   7.336  0.5220  0.4314 -0.5921
  472MOL0     C65039   9.869  11.145   7.425 -0.5121 -0.4389  0.1871
  472MOL0     C65040   9.856  11.290   7.370 -0.4390 -0.3236 -0.9754
  472MOL0     C65041   9.935  11.303   7.241 -0.4080 -0.7141 -0.1516
  472MOL0     C65042   9.939  11.445   7.178 -0.9006  0.3554 -0.9215
  472MOL0    Cl65043  10.008  11.570   7.295 -0.2329 -0.4619 -0.0904
  472MOL0     C65044   9.322  10.649   7.095  0.5828  0.3024  0.1911
  472MOL0     C65045   9.181  10.631   7.066  0.6041  0.7856 -0.9312
  472MOL0     O65046   8.904  10.924   7.069 -0.6886  0.0610  0.0888
  472MOL0     C65047   8.707  10.632   7.022  0.4671  0.7701 -1.0463
  472MOL0     C65048   8.565  10.588   7.016 -0.3566  0.7645 -0.3179
  472MOL0     N65049   8.015  10.048   7.024  0.4731 -0.4060 -0.6149
  472MOL0     N65050   7.954   9.953   6.972  0.0817  0.5413  0.6989
  472MOL0     C65051   6.864   9.728   6.854 -0.0854 -0.4438  0.0115
  472MOL0     C65052   6.749   9.654   6.880  0.0078  0.5447  0.5684
  472MOL0     C65053   6.290   9.596   6.926  0.5163 -0.0817  0.1838
  472MOL0     C65054   6.324   9.587   7.065 -0.5220 -0.2224 -0.5185
  472MOL0     C65055   6.232   9.537   7.161 -0.1399  0.1693 -0.3761
  472MOL0     C65056   6.096   9.522   7.133  0.5169 -0.5386  0.2760
  472MOL0     O65057   5.998   9.482   7.219 -0.3552 -0.2920 -0.1973
  472MOL0     C65058   5.943   9.354   7.189 -0.6198 -0.3727 -0.2952
  472MOL0     C65059   5.866   9.312   7.309  0.3477 -0.7159 -0.0809
  472MOL0     C65060   5.957   9.311   7.431  0.0062  0.4083  0.6244
  472MOL0     C65061   5.868   9.261   7.552  0.0845  0.1650 -0.0022
  472MOL0     C65062   5.946   9.243   7.677 -0.8127 -0.2228 -0.5630
  472MOL0     C65063   6.020   9.212   7.772  0.5286 -0.6242 -0.3290
  472MOL0     C65064   6.061   9.532   6.992 -0.1846  0.2743  0.4411
  472MOL0     C65065   6.161   9.563   6.891 -0.5431 -1.1568 -0.4681
  472MOL0     C65066   6.111   9.562   6.745 -0.0928 -0.7501 -0.5792
  472MOL0     H65067   6.569   9.758   6.604 -0.0505  1.8975  1.5075
  472MOL0     H65068   6.775   9.894   6.569  1.7749  1.6202 -0.1413
  472MOL0     H65069   6.952   9.978   6.549  0.3251  0.4680 -0.8705
  472MOL0     H65070   7.058   9.838   6.519  2.1079 -1.0645  1.6900
  472MOL0     H65071   7.133  10.092   6.541 -0.7791 -0.9518 -1.0373
  472MOL0     H65072   7.120  10.081   6.705  2.3979  0.3350  0.3350
  472MOL0     H65073   7.295   9.919   6.736  0.5722  2.2512  1.3265
  472MOL0     H65074   7.317   9.909   6.567 -0.9310  0.1002 -0.4514
  472MOL0     H65075   7.367  10.158   6.565  1.4260 -0.4452 -0.1066
  472MOL0     H65076   7.324  10.172   6.739 -1.3495 -0.8541  0.6939
  472MOL0     H65077   7.550  10.186   6.692  0.9404  0.5998  0.1490
  472MOL0     H65078   7.568  10.031   6.615  0.6442 -0.5770  0.3222
  472MOL0     H65079   7.577  10.104   6.895  2.0595  0.6907 -0.9795
  472MOL0     H65080   7.441   9.994   6.886 -0.9146  0.7043 -1.1305
  472MOL0     H65081   7.590   9.809   6.788 -0.7330  1.1968  0.7420
  472MOL0     H65082   7.625   9.859   6.942 -0.2752 -2.6311 -0.6792
  472MOL0     H65083   7.821   9.819   6.785 -0.3133  0.0586 -0.8237
  472MOL0     H65084   7.775   9.954   6.681 -1.0999 -0.8811 -0.9091
  472MOL0     H65085   7.788  10.202   6.846 -0.2854 -0.5058  0.9351
  472MOL0     H65086   7.924  10.325   7.106  1.5839 -0.0007  1.4961
  472MOL0     H65087   7.936  10.363   6.929 -0.5219 -0.7928 -1.1190
  472MOL0     H65088   8.175  10.276   7.090 -0.6706 -1.3919 -1.7801
  472MOL0     H65089   8.159  10.303   6.916  0.9507  0.5687 -0.3148
  472MOL0     H65090   8.094  10.546   6.953  1.8893  2.8901  0.1361
  472MOL0     H65091   8.108  10.512   7.130  2.8210 -0.5684  0.0143
  472MOL0     H65092   8.333  10.439   7.110  0.5382 -1.8488 -1.0718
  472MOL0     H65093   8.327  10.459   6.932 -2.3503 -1.1989 -1.1550
  472MOL0     H65094   8.404  10.869   7.109  0.9016  0.6334 -1.7727
  472MOL0     H65095   8.706  10.933   7.291  0.1309  1.7044 -0.0116
  472MOL0     H65096   8.529  10.949   7.266  0.2474  0.4715  2.1068
  472MOL0     H65097   8.649  11.048   7.175  2.0524  2.0157  4.9348
  472MOL0     H65098   9.087  10.906   7.237  1.3126  1.2265 -0.8984
  472MOL0     H65099   9.314  10.923   7.270 -0.8033  2.6279 -3.0809
  472MOL0     H65100   9.567  10.948   7.226 -2.7217 -1.0082 -2.2561
  472MOL0     H65101   9.502  10.857   7.367  0.7594 -0.1706  0.2180
  472MOL0     H65102   9.699  10.720   7.382  1.6681 -0.9957 -0.6886
  472MOL0     H65103   9.786  10.795   7.249  1.3810  2.1494  0.8850
  472MOL0     H65104   9.860  10.875   7.466 -1.5313 -0.6102  1.5002
  472MOL0     H65105   9.710  10.957   7.507  0.1433  1.9903  0.1507
  472MOL0     H65106   9.730  11.082   7.287 -0.3979  1.5269  1.9160
  472MOL0     H65107   9.889  11.001   7.262 -0.4169 -2.0019 -0.4970
  472MOL0     H65108   9.818  11.149   7.522 -0.5900  0.2843  0.1266
  472MOL0     H65109   9.975  11.118   7.429  0.2536  2.0629 -1.2818
  472MOL0     H65110   9.881  11.367   7.444  0.5307  1.1770 -2.7773
  472MOL0     H65111   9.751  11.307   7.346 -0.6012 -0.3516 -0.2967
  472MOL0     H65112   9.892  11.227   7.174 -0.6677 -3.2822  2.7113
  472MOL0     H65113  10.036  11.267   7.265 -0.0587  0.0919 -0.4024
  472MOL0     H65114   9.839  11.475   7.145  0.0305  1.1609 -3.2336
  472MOL0     H65115  10.003  11.446   7.089  0.6174 -0.8543  0.0973
  472MOL0     H65116   9.389  10.576   7.052  0.9480  1.8972 -2.0898
  472MOL0     H65117   9.153  10.541   7.014 -0.1730 -1.1160  2.4640
  472MOL0     H65118   8.786  10.562   6.998  0.9617  1.5523 -1.7867
  472MOL0     H65119   8.530  10.492   6.979 -1.4464  1.1976 -0.4537
  472MOL0     H65120   6.956   9.713   6.911  0.3151  0.7507 -0.2864
  472MOL0     H65121   6.766   9.585   6.962  1.7098 -0.7604 -0.8054
  472MOL0     H65122   6.418   9.624   7.106 -1.9222 -1.0814  4.0114
  472MOL0     H65123   6.278   9.528   7.259  1.9417  1.0232 -1.2075
  472MOL0     H65124   5.867   9.365   7.111 -1.5410  3.4094  0.9032
  472MOL0     H65125   6.025   9.286   7.167  1.5667  2.0487 -0.2096
  472MOL0     H65126   5.812   9.218   7.294 -1.1262 -0.4982  3.0113
  472MOL0     H65127   5.788   9.387   7.326  0.6719 -0.4953  0.4705
  472MOL0     H65128   6.043   9.246   7.412 -0.9949 -1.1335  1.1876
  472MOL0     H65129   6.004   9.404   7.464  1.1108 -0.6784  2.2643
  472MOL0     H65130   5.818   9.168   7.524  1.8254 -0.6095 -0.7071
  472MOL0     H65131   5.784   9.326   7.574 -1.5170 -1.7703 -0.0814
  472MOL0     H65132   6.088   9.167   7.842  2.4522  1.6558 -0.5956
  472MOL0     H65133   5.964   9.510   6.949  0.0858  1.5148 -0.8762
  472MOL0     H65134   6.099   9.668   6.717  1.0290 -0.5995 -0.5447
  472MOL0     H65135   6.181   9.509   6.680  0.2809 -2.2000  0.9483
  472MOL0     H65136   6.011   9.520   6.743 -0.6001  0.0531  2.5780
  473MOL0     O65137   2.406   0.225  10.332 -0.4914  0.0079  0.3262
  473MOL0     C65138   2.435   0.319  10.400  0.6498 -0.1947  0.6304
  473MOL0     O65139   2.355   0.423  10.427 -0.0457  0.4027 -0.1618
  473MOL0     C65140   2.219   0.418  10.394  0.2241  0.3854 -0.8983
  473MOL0     C65141   2.154   0.540  10.416 -0.3036 -0.3714  0.3600
  473MOL0     C65142   2.017   0.559  10.394  0.2728  0.2482  0.0885
  473MOL0     C65143   1.934   0.448  10.366  0.2725  0.1385 -0.4815
  473MOL0     O65144   1.797   0.466  10.349 -0.9837 -0.2703  0.8631
  473MOL0     C65145   1.700   0.361  10.336  0.3833 -0.3808 -0.0332
  473MOL0     C65146   1.555   0.401  10.374 -0.0114  0.0232 -0.2926
  473MOL0     C65147   1.491   0.533  10.309  0.2280 -0.5881  0.2444
  473MOL0     C65148   1.470   0.521  10.152 -0.9806 -0.2727 -0.9435
  473MOL0     C65149   1.396   0.641  10.108 -0.6807 -0.3099 -0.0341
  473MOL0     C65150   1.368   0.632   9.960  0.2323  0.1428  0.7043
  473MOL0     C65151   1.302   0.754   9.887  0.2130 -0.1729 -1.4281
  473MOL0     C65152   1.405   0.867   9.861  0.1507 -0.1854 -0.5498
  473MOL0     N65153   1.503   0.833   9.758  0.7661  0.1147  0.1894
  473MOL0     C65154   1.618   0.898   9.739 -0.4900 -0.2615 -0.2378
  473MOL0     C65155   1.669   0.843   9.626 -0.4647 -0.5727 -0.6835
  473MOL0     C65156   1.787   0.886   9.543  0.5919 -0.6389  0.0014
  473MOL0     C65157   1.909   0.878   9.631  0.7304  0.9121  0.1881
  473MOL0     C65158   2.038   0.896   9.546  0.4503 -0.1486 -0.5529
  473MOL0     C65159   2.159   0.867   9.629 -0.2418 -0.1515 -0.1518
  473MOL0     O65160   2.264   0.872   9.530 -0.5519 -0.0679 -0.3707
  473MOL0     C65161   2.397   0.890   9.581  0.5327 -0.5542  0.8693
  473MOL0     C65162   2.492   0.944   9.490 -0.1030 -0.3665 -0.3446
  473MOL0     C65163   2.623   0.990   9.534  0.3433  0.1401 -0.1039
  473MOL0     C65164   2.702   1.076   9.441  0.5391  0.1408 -0.3835
  473MOL0     C65165   2.677   0.952   9.657  0.3530  1.0841  0.3946
  473MOL0     C65166   2.824   0.941   9.685 -0.0705  0.2360  0.6252
  473MOL0     O65167   2.864   0.959   9.809 -0.1910  0.5183  0.2233
  473MOL0     C65168   2.997   0.942   9.847  0.3162  0.5909  0.2184
  473MOL0     C65169   3.097   1.028   9.803 -0.1417  0.6277  0.5211
  473MOL0     C65170   3.225   1.023   9.843 -0.0409 -0.0838 -0.1525
  473MOL0     C65171   3.263   0.913   9.918  0.6323 -0.1609  0.8940
  473MOL0     O65172   3.390   0.905   9.969  0.2151  0.3898  0.1871
  473MOL0     C65173   3.478   1.015   9.977  0.2991 -0.8565 -0.2271
  473MOL0     C65174   3.615   0.988  10.028 -0.5000  0.4726 -0.6513
  473MOL0     C65175   3.689   0.875   9.970  0.1383 -0.0612 -0.3838
  473MOL0     C65176   3.744   0.898   9.828  0.6319 -0.4864 -0.2035
  473MOL0     C65177   3.809   0.775   9.758  0.0735 -0.6103  0.1091
  473MOL0     C65178   3.902   0.813   9.641 -1.0238 -0.1357  0.6189
  473MOL0     C65179   4.039   0.877   9.669  0.2747 -0.2122 -0.0073
  473MOL0     C65180   4.129   0.866   9.553 -0.6866 -0.1725 -0.4538
  473MOL0    Cl65181   4.251   0.997   9.576  0.1338  0.0836  0.1815
  473MOL0     C65182   3.173   0.816   9.966 -0.3143 -0.3487 -0.6732
  473MOL0     C65183   3.035   0.834   9.931  0.1848  0.3163 -0.6972
  473MOL0     O65184   2.891   0.899   9.591 -0.0583 -0.0691  0.8595
  473MOL0     C65185   2.586   0.891   9.740 -0.0841  0.6494  0.3831
  473MOL0     C65186   2.450   0.861   9.708  0.8285  0.2090 -0.1055
  473MOL0     N65187   1.592   0.738   9.581  0.9218 -0.1469 -1.1278
  473MOL0     N65188   1.492   0.732   9.666  0.0298 -0.2371  0.4177
  473MOL0     C65189   1.993   0.327  10.339 -0.3860  0.8108  0.4394
  473MOL0     C65190   2.135   0.307  10.363  0.1428  0.3253 -0.8368
  473MOL0     C65191   2.578   0.320  10.431  0.8535  0.1883  0.6044
  473MOL0     C65192   2.619   0.429  10.514  1.0403 -0.2607  0.0011
  473MOL0     C65193   2.745   0.439  10.563 -0.1683 -0.6090 -0.6711
  473MOL0     C65194   2.843   0.347  10.534 -0.2796 -0.4734  0.8649
  473MOL0     O65195   2.978   0.357  10.548 -0.3999  0.5290  0.6692
  473MOL0     C65196   3.047   0.478  10.567 -0.3243  0.0889 -0.1084
  473MOL0     C65197   3.203   0.455  10.587 -0.4071 -0.0484  0.3234
  473MOL0     C65198   3.252   0.406  10.452  0.7019  0.2583  0.1195
  473MOL0     C65199   3.401   0.415  10.432 -0.6819 -0.9301  0.5239
  473MOL0     C65200   3.448   0.366  10.304 -0.4220  0.6168  0.0814
  473MOL0     C65201   3.494   0.331  10.199  0.2994 -0.2334 -0.0434
  473MOL0     C65202   2.813   0.247  10.443 -0.2290 -0.7238 -0.2806
  473MOL0     C65203   2.679   0.228  10.389  0.7533 -0.5830 -0.3867
  473MOL0     C65204   2.671   0.115  10.297 -0.2912 -0.3282  0.1231
  473MOL0     H65205   2.219   0.624  10.436 -1.7798  0.5738  1.4511
  473MOL0     H65206   1.980   0.661  10.406 -3.1799 -0.6459 -1.7518
  473MOL0     H65207   1.726   0.275  10.400  1.4724  1.8839  2.7919
  473MOL0     H65208   1.705   0.328  10.232 -2.2233  2.1304 -1.0919
  473MOL0     H65209   1.483   0.319  10.365 -1.4986  1.0869  1.2572
  473MOL0     H65210   1.554   0.415  10.482  0.8871 -4.9838  0.6358
  473MOL0     H65211   1.397   0.552  10.361  0.4519  0.5445  0.2616
  473MOL0     H65212   1.550   0.624  10.324  0.1567 -0.2474 -1.3280
  473MOL0     H65213   1.567   0.513  10.101 -0.0158 -2.3584  1.0199
  473MOL0     H65214   1.405   0.436  10.127 -0.1527 -1.6061  1.1482
  473MOL0     H65215   1.456   0.730  10.130 -0.3003 -0.5859  0.0549
  473MOL0     H65216   1.300   0.658  10.157 -1.3009 -2.2217 -0.4927
  473MOL0     H65217   1.460   0.610   9.906 -0.3982 -0.7334 -0.0555
  473MOL0     H65218   1.302   0.544   9.956 -1.4246  1.3415  0.6978
  473MOL0     H65219   1.214   0.791   9.940  0.1548 -0.1933 -1.5100
  473MOL0     H65220   1.276   0.712   9.790 -0.1283 -1.2566 -0.8867
  473MOL0     H65221   1.350   0.955   9.826 -0.4363 -1.2154 -2.2848
  473MOL0     H65222   1.440   0.883   9.964 -1.6698  0.8186 -0.0445
  473MOL0     H65223   1.640   0.991   9.790 -0.2663 -0.2371 -0.3743
  473MOL0     H65224   1.772   0.987   9.505 -0.1364 -0.9402 -0.5205
  473MOL0     H65225   1.791   0.818   9.457 -0.9050  0.7162 -1.1979
  473MOL0     H65226   1.907   0.947   9.716  1.6131  0.1892  0.8168
  473MOL0     H65227   1.904   0.776   9.668 -1.1769 -0.0820 -2.4670
  473MOL0     H65228   2.028   0.823   9.466  0.5306  0.3240 -0.9936
  473MOL0     H65229   2.049   0.992   9.495 -1.6845 -0.8883 -2.5598
  473MOL0     H65230   2.165   0.936   9.714 -2.4330  0.7916 -0.7157
  473MOL0     H65231   2.155   0.768   9.676  3.1375 -0.3243  0.0402
  473MOL0     H65232   2.447   0.982   9.399  0.6595  1.6523  0.0792
  473MOL0     H65233   2.698   1.030   9.341  0.1113  3.3742 -1.9910
  473MOL0     H65234   2.808   1.088   9.462  0.3265  2.9856 -0.5284
  473MOL0     H65235   2.656   1.176   9.442  0.9998  0.4838 -3.3805
  473MOL0     H65236   3.068   1.111   9.740  0.8188 -0.1902 -1.0716
  473MOL0     H65237   3.297   1.093   9.802 -1.3185  0.2034 -2.0307
  473MOL0     H65238   3.505   1.038   9.873  3.3283  0.7770  0.7930
  473MOL0     H65239   3.441   1.100  10.035  0.1001 -0.3456 -1.0891
  473MOL0     H65240   3.679   1.076  10.014 -0.6007  0.8325  0.9701
  473MOL0     H65241   3.611   0.950  10.131  1.6587 -0.8102 -0.9721
  473MOL0     H65242   3.619   0.791   9.967 -2.5441  1.9205  1.7368
  473MOL0     H65243   3.773   0.843  10.032  0.3209 -2.7284 -1.8870
  473MOL0     H65244   3.815   0.981   9.831  1.9056 -1.5376  2.4578
  473MOL0     H65245   3.664   0.932   9.762 -1.0535 -0.0993  1.9127
  473MOL0     H65246   3.869   0.721   9.831  0.4812  2.3124  2.1379
  473MOL0     H65247   3.723   0.718   9.723 -0.0130  0.1960 -1.0442
  473MOL0     H65248   3.851   0.881   9.572 -2.4234 -1.6579  0.0764
  473MOL0     H65249   3.920   0.716   9.594  0.2983 -0.5447  1.8914
  473MOL0     H65250   4.086   0.833   9.757 -1.4138 -1.9322  0.1062
  473MOL0     H65251   4.014   0.982   9.682  0.6098 -0.3530  2.1111
  473MOL0     H65252   4.076   0.889   9.460 -2.0957  2.0133  0.7813
  473MOL0     H65253   4.175   0.767   9.555 -0.0499  0.1370  1.0350
  473MOL0     H65254   3.204   0.745  10.042 -0.1160  0.6834  0.2271
  473MOL0     H65255   2.958   0.771   9.973  0.1632 -1.7292 -3.5589
  473MOL0     H65256   2.621   0.859   9.837  0.7323  3.5912  1.1634
  473MOL0     H65257   2.392   0.804   9.780  0.7249  2.0205  1.3183
  473MOL0     H65258   1.933   0.245  10.299 -0.1679  0.3267  1.0952
  473MOL0     H65259   2.170   0.208  10.335 -0.1809  0.1583 -0.6616
  473MOL0     H65260   2.540   0.494  10.550  1.9701 -0.0401  1.7684
  473MOL0     H65261   2.770   0.522  10.627 -0.0685 -2.8091  2.3390
  473MOL0     H65262   3.032   0.544  10.481  1.2970  2.2427  1.1398
  473MOL0     H65263   3.018   0.527  10.660 -2.7355 -2.2150  0.4828
  473MOL0     H65264   3.214   0.385  10.671  2.5099 -0.2657 -0.1311
  473MOL0     H65265   3.252   0.549  10.609 -0.7888  0.1106  0.5049
  473MOL0     H65266   3.204   0.310  10.430 -2.5005  1.5562  0.7701
  473MOL0     H65267   3.195   0.471  10.385 -2.2000 -1.0832  1.1001
  473MOL0     H65268   3.451   0.350  10.503 -3.1072 -0.2654  3.0146
  473MOL0     H65269   3.434   0.517  10.456  2.9874 -2.0079  0.5862
  473MOL0     H65270   3.542   0.311  10.106  2.1528 -1.1517  1.0540
  473MOL0     H65271   2.897   0.182  10.421 -0.1859 -0.7702  0.0223
  473MOL0     H65272   2.641   0.027  10.355 -0.9924 -0.0422  0.1957
  473MOL0     H65273   2.610   0.133  10.208 -0.5050  0.9979  0.5317
  473MOL0     H65274   2.770   0.084  10.261  1.0936  0.0076  3.2889
  474MOL0     O65275   1.795   6.965   1.347  0.2074  0.0763  0.0402
  474MOL0     C65276   1.727   6.982   1.247 -0.1984  1.1698 -0.0831
  474MOL0     O65277   1.742   7.081   1.159 -0.0015  0.0212 -0.0247
  474MOL0     C65278   1.839   7.179   1.178  0.0199  0.3476  0.1067
  474MOL0     C65279   1.849   7.264   1.291 -1.0774  1.1355 -0.1656
  474MOL0     C65280   1.945   7.369   1.283  0.4634  0.0624 -0.5285
  474MOL0     C65281   2.030   7.387   1.179 -0.0602 -1.0058  0.9353
  474MOL0     O65282   2.127   7.485   1.202 -0.1950 -0.0608 -0.2603
  474MOL0     C65283   2.200   7.544   1.089 -0.2623  0.0018  0.5262
  474MOL0     C65284   2.328   7.618   1.135 -0.3132 -0.4572 -0.4668
  474MOL0     C65285   2.418   7.659   1.016 -0.1974 -0.3982 -0.0156
  474MOL0     C65286   2.563   7.680   1.047 -0.2313  0.6951 -0.0145
  474MOL0     C65287   2.650   7.702   0.917  0.0408 -0.0030 -1.4300
  474MOL0     C65288   2.782   7.759   0.970  0.1767  0.3969 -0.0242
  474MOL0     C65289   2.863   7.818   0.851 -0.3229 -0.2898  0.5875
  474MOL0     C65290   2.932   7.698   0.788 -0.5786  0.5257  0.9099
  474MOL0     N65291   3.044   7.752   0.692  0.5774  0.0418 -0.0061
  474MOL0     C65292   3.167   7.783   0.738 -0.2107  0.2190  0.0286
  474MOL0     C65293   3.237   7.836   0.634 -0.4211 -0.1591  0.0177
  474MOL0     C65294   3.384   7.873   0.634  0.7536 -0.8836  0.2809
  474MOL0     C65295   3.441   7.938   0.505 -0.0442  1.1190 -0.4586
  474MOL0     C65296   3.568   8.015   0.546  0.9975  1.1359 -0.1386
  474MOL0     C65297   3.672   7.909   0.582  0.4248 -0.2035  0.1470
  474MOL0     O65298   3.808   7.959   0.584  0.0968  0.2252  0.0822
  474MOL0     C65299   3.918   7.873   0.573 -0.3373 -1.2286 -0.5298
  474MOL0     C65300   3.919   7.738   0.559  0.8929  0.8231 -0.0076
  474MOL0     C65301   4.030   7.656   0.581  0.5112 -0.8732 -0.1649
  474MOL0     C65302   4.011   7.511   0.591 -0.3841  0.1894 -0.1030
  474MOL0     C65303   4.153   7.721   0.608 -0.3826  0.7698 -0.0730
  474MOL0     C65304   4.277   7.644   0.644  0.4519 -0.1103 -1.0749
  474MOL0     O65305   4.384   7.645   0.560 -0.6462 -0.0805  1.0118
  474MOL0     C65306   4.477   7.550   0.573  0.2444 -0.2465  0.0687
  474MOL0     C65307   4.458   7.436   0.485 -0.0256  0.1248  0.3698
  474MOL0     C65308   4.540   7.325   0.492  0.4516 -1.2750  0.7964
  474MOL0     C65309   4.642   7.336   0.588 -0.2325  0.3253  0.8034
  474MOL0     O65310   4.731   7.232   0.595  0.3963  0.4483 -0.7941
  474MOL0     C65311   4.857   7.256   0.536 -0.4531  0.9627  0.1602
  474MOL0     C65312   4.924   7.126   0.468  0.1151  0.6367  0.8368
  474MOL0     C65313   5.045   7.170   0.399 -0.6226  1.0349  0.3600
  474MOL0     C65314   5.136   7.054   0.357 -0.1522  0.3426 -0.4389
  474MOL0     C65315   5.248   7.104   0.262 -0.5605 -0.2989  0.1889
  474MOL0     C65316   5.360   7.159   0.344  0.1511  0.6587  0.2440
  474MOL0     C65317   5.463   7.237   0.268  0.7237  0.1198 -0.3860
  474MOL0     C65318   5.595   7.251   0.339 -0.1186 -0.2529 -0.3127
  474MOL0    Cl65319   5.698   7.092   0.353  0.0889 -0.1554 -0.1775
  474MOL0     C65320   4.670   7.454   0.665  0.5188  0.2590 -0.2882
  474MOL0     C65321   4.584   7.562   0.659  0.6213 -0.3337 -0.2632
  474MOL0     O65322   4.264   7.569   0.740 -0.4744  0.1205  0.3774
  474MOL0     C65323   4.157   7.856   0.610  1.0492  0.4260 -0.1047
  474MOL0     C65324   4.042   7.934   0.600  0.1323  0.0632  0.2995
  474MOL0     N65325   3.160   7.818   0.522  0.4495  0.1076 -0.5630
  474MOL0     N65326   3.044   7.767   0.558 -0.1610  0.2779 -0.1548
  474MOL0     C65327   2.017   7.300   1.067 -0.3804 -0.1172  0.7194
  474MOL0     C65328   1.926   7.196   1.071 -0.5412 -1.2234 -0.4377
  474MOL0     C65329   1.626   6.883   1.197 -0.1835  0.0827 -0.7606
  474MOL0     C65330   1.606   6.874   1.061 -0.1699  0.5806 -1.0124
  474MOL0     C65331   1.507   6.806   1.008 -0.7123 -0.0269 -0.3602
  474MOL0     C65332   1.434   6.718   1.089  0.3243  0.9396  0.1438
  474MOL0     O65333   1.340   6.628   1.053 -0.6001  0.3978 -0.1504
  474MOL0     C65334   1.302   6.645   0.916  0.2649 -0.4495  0.5500
  474MOL0     C65335   1.177   6.553   0.883  0.0138 -0.5535  0.8210
  474MOL0     C65336   1.048   6.620   0.932 -0.7239 -1.0580 -0.2830
  474MOL0     C65337   0.930   6.526   0.903  0.5360  0.9982  0.3075
  474MOL0     C65338   0.877   6.572   0.776  0.4888 -0.0857 -0.2556
  474MOL0     C65339   0.858   6.601   0.659 -0.0206 -0.0890  0.6079
  474MOL0     C65340   1.468   6.714   1.225  0.0569  0.7091 -0.5561
  474MOL0     C65341   1.565   6.788   1.284  0.9350  0.2316  0.8466
  474MOL0     C65342   1.569   6.767   1.436 -0.2168 -0.6063  0.5392
  474MOL0     H65343   1.780   7.247   1.373 -0.5936  1.9145  0.4086
  474MOL0     H65344   1.970   7.426   1.372  3.7846 -0.9803 -0.6309
  474MOL0     H65345   2.131   7.613   1.040 -1.5857 -2.6480 -1.6045
  474MOL0     H65346   2.236   7.473   1.013  3.7150  2.2042  0.0673
  474MOL0     H65347   2.300   7.704   1.197 -0.4392 -2.0165  1.7618
  474MOL0     H65348   2.381   7.547   1.198 -2.2781 -1.4719  0.1275
  474MOL0     H65349   2.413   7.590   0.931  0.2414 -0.9857  0.4243
  474MOL0     H65350   2.383   7.757   0.983  1.5120  0.9007  1.7893
  474MOL0     H65351   2.566   7.763   1.119 -1.7790  2.0337 -1.4113
  474MOL0     H65352   2.610   7.603   1.109  1.4419  1.1933 -0.6094
  474MOL0     H65353   2.614   7.783   0.852  1.2074  1.6055 -0.1529
  474MOL0     H65354   2.675   7.607   0.869 -1.7710 -1.4242  0.2949
  474MOL0     H65355   2.766   7.850   1.028 -0.1195  0.4234 -0.1411
  474MOL0     H65356   2.839   7.683   1.023  1.4961 -0.1685 -2.1300
  474MOL0     H65357   2.942   7.884   0.889 -0.2689  0.7648 -1.2543
  474MOL0     H65358   2.806   7.883   0.785  2.1287  2.5043  0.9947
  474MOL0     H65359   2.979   7.624   0.854 -0.2172 -0.2741 -0.2183
  474MOL0     H65360   2.861   7.643   0.727 -0.1047  0.3212  0.5356
  474MOL0     H65361   3.197   7.752   0.837 -2.9792 -3.3615 -0.0706
  474MOL0     H65362   3.448   7.793   0.672  3.2304  2.0331  2.7696
  474MOL0     H65363   3.384   7.950   0.712 -2.5774  1.6994 -1.9460
  474MOL0     H65364   3.468   7.860   0.432  2.9028 -0.0973  1.6899
  474MOL0     H65365   3.367   8.010   0.471 -2.3449 -0.4567  0.9219
  474MOL0     H65366   3.599   8.069   0.456 -0.5124  3.3833  0.5876
  474MOL0     H65367   3.537   8.078   0.630 -2.0243 -2.6279  1.9044
  474MOL0     H65368   3.646   7.872   0.682  1.3173  0.2316  0.5476
  474MOL0     H65369   3.676   7.824   0.513  2.5302 -0.2596  0.2987
  474MOL0     H65370   3.823   7.691   0.541 -0.3387  3.9946 -3.0188
  474MOL0     H65371   4.081   7.463   0.522  0.6458  0.4194  0.7472
  474MOL0     H65372   3.914   7.471   0.560 -0.1899  0.1017 -0.6079
  474MOL0     H65373   4.030   7.477   0.693 -2.1131  1.3734  0.6604
  474MOL0     H65374   4.378   7.445   0.412  0.3983 -0.8664 -0.2353
  474MOL0     H65375   4.518   7.237   0.433 -2.7832  0.6571 -1.1858
  474MOL0     H65376   4.838   7.327   0.455 -0.3371  0.2094 -0.5351
  474MOL0     H65377   4.934   7.289   0.607  0.0574 -0.7026  0.4347
  474MOL0     H65378   4.960   7.063   0.550  1.7598 -1.7273 -1.5415
  474MOL0     H65379   4.857   7.070   0.403  2.2917  0.9499 -1.8597
  474MOL0     H65380   5.109   7.240   0.454  0.5756  0.1437  0.1536
  474MOL0     H65381   5.016   7.229   0.311  0.5289 -0.9604 -1.4686
  474MOL0     H65382   5.081   6.972   0.309  0.3633 -2.3914  3.2010
  474MOL0     H65383   5.164   7.009   0.453 -0.9940  0.6309 -0.0518
  474MOL0     H65384   5.279   7.020   0.199 -1.8433 -0.0799 -0.7796
  474MOL0     H65385   5.211   7.179   0.191 -0.8414  0.8753  1.5365
  474MOL0     H65386   5.405   7.068   0.386  1.9669 -0.5902 -3.8668
  474MOL0     H65387   5.317   7.222   0.422 -4.0881 -1.6351  0.0320
  474MOL0     H65388   5.420   7.337   0.269  1.8054  0.5982 -0.5935
  474MOL0     H65389   5.486   7.202   0.167  1.6427 -1.9705  0.4729
  474MOL0     H65390   5.575   7.291   0.439 -0.8772 -0.7306 -0.2633
  474MOL0     H65391   5.653   7.327   0.286  1.4858  0.0090  1.7092
  474MOL0     H65392   4.767   7.455   0.714  1.8460 -1.9275 -2.6078
  474MOL0     H65393   4.594   7.653   0.717 -4.3759 -0.5818  1.5177
  474MOL0     H65394   4.252   7.907   0.621  1.8009 -0.6566 -1.3244
  474MOL0     H65395   4.062   8.039   0.621  0.9097  0.0444 -0.2831
  474MOL0     H65396   2.089   7.310   0.987  1.0173 -1.0098  1.7929
  474MOL0     H65397   1.924   7.125   0.989  0.4855  0.4450 -1.9948
  474MOL0     H65398   1.662   6.933   0.989 -0.2177  1.4482 -0.3536
  474MOL0     H65399   1.495   6.808   0.900 -1.1656  1.8338 -0.3054
  474MOL0     H65400   1.265   6.746   0.899  0.6445 -0.5220 -0.8306
  474MOL0     H65401   1.384   6.613   0.851 -1.3360 -0.9763 -1.2932
  474MOL0     H65402   1.183   6.452   0.925 -0.4556  0.0284  2.3461
  474MOL0     H65403   1.172   6.542   0.774  0.2229 -0.8945  0.8422
  474MOL0     H65404   1.062   6.629   1.041  0.2120 -0.1794 -0.4631
  474MOL0     H65405   1.027   6.717   0.887  0.8076 -1.6257 -2.3499
  474MOL0     H65406   0.853   6.530   0.981 -0.3166  0.3539 -0.4902
  474MOL0     H65407   0.970   6.425   0.902  2.4001  1.4761  4.3430
  474MOL0     H65408   0.853   6.625   0.555  1.9826 -2.6054 -0.1725
  474MOL0     H65409   1.410   6.644   1.285 -0.2528  3.2084  2.3032
  474MOL0     H65410   1.529   6.669   1.467 -0.8190 -0.6449 -0.3091
  474MOL0     H65411   1.676   6.762   1.457  0.0347 -0.3643 -0.5948
  474MOL0     H65412   1.524   6.848   1.494  2.7507 -0.1752  2.3949
  475MOL0     O65413   6.892   2.448   6.837 -0.0724 -0.0312  0.2302
  475MOL0     C65414   6.854   2.498   6.940 -0.5160  0.4530  0.3835
  475MOL0     O65415   6.946   2.522   7.044  0.8500 -0.1713  1.1068
  475MOL0     C65416   7.078   2.518   7.012  0.5609 -0.1029  0.5657
  475MOL0     C65417   7.149   2.404   7.052 -0.0989  0.4453 -0.5800
  475MOL0     C65418   7.279   2.378   7.018  0.1384 -0.4268 -0.1208
  475MOL0     C65419   7.351   2.466   6.938 -0.6548  0.3773  0.4987
  475MOL0     O65420   7.483   2.446   6.903 -0.4893  0.4349 -0.3262
  475MOL0     C65421   7.571   2.472   7.013  0.2229 -0.4795 -1.2170
  475MOL0     C65422   7.708   2.411   6.986  0.0089 -0.2505  0.7800
  475MOL0     C65423   7.790   2.500   6.882 -0.3777  0.6743 -0.6375
  475MOL0     C65424   7.931   2.438   6.853  0.2965  0.5788 -0.5026
  475MOL0     C65425   7.982   2.503   6.725 -0.4485 -0.0621 -0.0554
  475MOL0     C65426   8.132   2.487   6.683 -0.6722  0.4412 -0.1055
  475MOL0     C65427   8.165   2.559   6.563 -0.2566 -0.1473 -0.1036
  475MOL0     C65428   8.176   2.716   6.577 -0.1631  0.2702 -0.0243
  475MOL0     N65429   8.223   2.781   6.451 -0.5241 -0.1068 -0.5697
  475MOL0     C65430   8.171   2.880   6.377 -0.3704 -1.3106  0.2507
  475MOL0     C65431   8.268   2.912   6.288  0.2635  0.4379  0.5835
  475MOL0     C65432   8.248   3.013   6.177 -0.0037 -0.2503  0.8184
  475MOL0     C65433   8.344   3.133   6.189 -0.3803  0.2301 -0.7696
  475MOL0     C65434   8.481   3.121   6.117  0.2020  0.1613 -0.1399
  475MOL0     C65435   8.591   3.222   6.166 -0.7501 -0.1460  0.5800
  475MOL0     O65436   8.592   3.257   6.309 -0.3101 -0.4569 -0.1258
  475MOL0     C65437   8.675   3.360   6.347 -0.8013 -0.3835  1.1373
  475MOL0     C65438   8.801   3.400   6.296 -0.2699  0.2216  0.1760
  475MOL0     C65439   8.887   3.495   6.356 -0.5932  0.8797  0.4535
  475MOL0     C65440   9.014   3.540   6.285 -0.4319 -0.4116  0.1131
  475MOL0     C65441   8.851   3.535   6.484 -0.0780  0.1605 -0.0655
  475MOL0     C65442   8.926   3.624   6.571  0.1150 -0.0576 -0.2128
  475MOL0     O65443   8.939   3.582   6.699 -0.1463 -0.6973  0.0679
  475MOL0     C65444   9.012   3.659   6.782 -1.3290 -0.3447 -0.0785
  475MOL0     C65445   9.085   3.598   6.877 -0.9187 -0.7874 -0.1855
  475MOL0     C65446   9.165   3.663   6.966 -0.2250  0.1767 -1.0891
  475MOL0     C65447   9.170   3.800   6.971  0.1782 -1.2155  0.2359
  475MOL0     O65448   9.259   3.866   7.055 -0.2772  0.0122  0.7877
  475MOL0     C65449   9.273   4.009   7.041 -0.2467  0.5402  1.4223
  475MOL0     C65450   9.391   4.053   7.131 -0.4126  0.4204 -0.8370
  475MOL0     C65451   9.403   4.205   7.132  0.6646 -0.3601 -0.6864
  475MOL0     C65452   9.477   4.254   7.257 -0.4656  0.1481 -0.0042
  475MOL0     C65453   9.511   4.403   7.254 -0.3614 -1.3900  0.6748
  475MOL0     C65454   9.601   4.442   7.381 -0.2833 -0.1151  0.1606
  475MOL0     C65455   9.641   4.592   7.392  0.4150  0.3464  0.1840
  475MOL0     C65456   9.732   4.604   7.517 -0.3442  0.0548  0.0514
  475MOL0    Cl65457   9.731   4.782   7.546  0.2640 -0.0071  0.0482
  475MOL0     C65458   9.080   3.875   6.884  0.1330  0.6628  0.3302
  475MOL0     C65459   9.015   3.798   6.782  0.2856 -0.1486 -0.4659
  475MOL0     O65460   8.987   3.717   6.515  0.1296  0.1595 -0.1093
  475MOL0     C65461   8.725   3.484   6.537  0.2156  0.4153  0.7522
  475MOL0     C65462   8.632   3.413   6.457  0.0925 -0.5562  0.1438
  475MOL0     N65463   8.371   2.825   6.307 -0.5272  0.0107 -0.3195
  475MOL0     N65464   8.334   2.741   6.392 -1.1809  0.0177  0.4166
  475MOL0     C65465   7.286   2.582   6.899  0.6920 -0.8417  0.6131
  475MOL0     C65466   7.149   2.611   6.935  0.1455 -0.6454 -0.4182
  475MOL0     C65467   6.719   2.550   6.958 -0.0431  0.2631  0.8136
  475MOL0     C65468   6.620   2.490   6.884  0.1824  0.7383  0.2756
  475MOL0     C65469   6.483   2.513   6.903  0.6863 -0.3277 -0.3154
  475MOL0     C65470   6.439   2.617   6.993 -0.5218  0.0734  0.5703
  475MOL0     O65471   6.300   2.628   7.010 -0.1629 -0.5618  0.3696
  475MOL0     C65472   6.247   2.734   7.093  0.0531  0.4055 -0.3114
  475MOL0     C65473   6.120   2.684   7.171 -0.6283 -0.0914 -0.9951
  475MOL0     C65474   6.002   2.665   7.077 -0.3549  0.4006  0.3810
  475MOL0     C65475   5.872   2.626   7.152  0.6752  0.0188 -0.6144
  475MOL0     C65476   5.871   2.491   7.212  0.9150  0.3320 -0.8832
  475MOL0     C65477   5.851   2.378   7.252  0.9537  0.0243  0.6649
  475MOL0     C65478   6.539   2.689   7.058 -0.4297 -1.2040  0.2295
  475MOL0     C65479   6.680   2.653   7.049 -0.0694  0.0123 -0.1433
  475MOL0     C65480   6.780   2.735   7.123  0.7695  0.0562 -0.1460
  475MOL0     H65481   7.110   2.324   7.114  2.0791 -1.2642 -1.2989
  475MOL0     H65482   7.337   2.291   7.048  1.9964  0.4819 -0.9212
  475MOL0     H65483   7.527   2.426   7.102  2.8212  0.2448  0.5416
  475MOL0     H65484   7.567   2.580   7.025 -2.1408 -0.7038  0.8651
  475MOL0     H65485   7.770   2.387   7.073  0.3149 -1.4233  0.2660
  475MOL0     H65486   7.686   2.310   6.948  0.9612 -0.4780  0.8022
  475MOL0     H65487   7.731   2.522   6.793  2.1945  1.0233 -2.3675
  475MOL0     H65488   7.820   2.593   6.932  1.2652 -0.7277  1.1474
  475MOL0     H65489   7.993   2.458   6.941 -1.3165 -0.7945  1.0079
  475MOL0     H65490   7.924   2.329   6.845  2.1168  0.4357 -0.5365
  475MOL0     H65491   7.963   2.609   6.741 -0.6445  0.0089 -0.7518
  475MOL0     H65492   7.925   2.462   6.641  3.3091 -2.2033 -1.8031
  475MOL0     H65493   8.203   2.516   6.760 -2.4733  0.0510  1.8142
  475MOL0     H65494   8.145   2.379   6.666 -2.0360  0.2738 -0.2536
  475MOL0     H65495   8.093   2.532   6.485 -1.5649  1.0872  0.6468
  475MOL0     H65496   8.261   2.517   6.530 -0.5121 -2.6723  2.0012
  475MOL0     H65497   8.086   2.769   6.610 -0.0172  1.1265 -0.9612
  475MOL0     H65498   8.247   2.736   6.658 -0.2239  0.7714 -0.0933
  475MOL0     H65499   8.079   2.937   6.389  0.3485  0.2015 -0.9741
  475MOL0     H65500   8.151   3.060   6.197  2.2844  3.8718  3.9371
  475MOL0     H65501   8.252   2.969   6.077 -0.4600 -0.6218  0.9606
  475MOL0     H65502   8.290   3.214   6.138 -0.4407 -0.0119 -1.0958
  475MOL0     H65503   8.355   3.153   6.296 -0.6512  3.0012 -1.1848
  475MOL0     H65504   8.522   3.020   6.124 -1.5602 -0.5382  0.5293
  475MOL0     H65505   8.467   3.132   6.009  0.9438  1.0442 -0.1561
  475MOL0     H65506   8.688   3.177   6.143 -0.7468  0.9848 -1.9219
  475MOL0     H65507   8.599   3.309   6.101 -0.6261 -1.4920 -1.2814
  475MOL0     H65508   8.830   3.366   6.197 -2.5913 -0.7131 -0.2501
  475MOL0     H65509   9.021   3.647   6.263  1.1294 -1.2464 -4.5415
  475MOL0     H65510   9.029   3.498   6.185  0.6485  1.0912 -0.3829
  475MOL0     H65511   9.102   3.521   6.346  0.5840 -2.5367 -1.8762
  475MOL0     H65512   9.107   3.492   6.883  1.6925 -0.3241 -0.4288
  475MOL0     H65513   9.220   3.614   7.046  0.4586  0.4366 -1.3882
  475MOL0     H65514   9.310   4.020   6.938  1.2760 -0.3087  1.8435
  475MOL0     H65515   9.181   4.066   7.056 -1.9377 -1.6459 -0.0398
  475MOL0     H65516   9.363   4.021   7.231  3.2577  0.2387  0.2536
  475MOL0     H65517   9.487   4.009   7.103  1.3708  1.2976  3.1862
  475MOL0     H65518   9.307   4.258   7.137  1.7560  1.6373  2.6443
  475MOL0     H65519   9.443   4.230   7.034 -0.5504  0.0094 -1.1145
  475MOL0     H65520   9.565   4.191   7.273  0.3513  2.0627  4.1983
  475MOL0     H65521   9.418   4.234   7.347  0.6802  3.3771  1.6132
  475MOL0     H65522   9.577   4.432   7.172 -1.2355 -0.5258  0.2613
  475MOL0     H65523   9.424   4.467   7.241  2.4531  2.6745 -0.1609
  475MOL0     H65524   9.693   4.382   7.379  1.1035  1.9341 -0.5282
  475MOL0     H65525   9.552   4.410   7.474  0.1880  0.7955  0.7340
  475MOL0     H65526   9.551   4.651   7.411 -0.1382 -0.4257  0.0113
  475MOL0     H65527   9.675   4.635   7.297 -1.2054  0.5213 -0.3583
  475MOL0     H65528   9.830   4.561   7.498 -1.4242 -2.2009 -0.8100
  475MOL0     H65529   9.695   4.553   7.606  1.5657 -1.0212  0.2799
  475MOL0     H65530   9.083   3.984   6.883  0.4820  0.6649  0.9402
  475MOL0     H65531   8.960   3.863   6.715  1.1732  2.8467  1.5068
  475MOL0     H65532   8.708   3.514   6.640 -2.3960  0.6186  0.3113
  475MOL0     H65533   8.535   3.389   6.499  1.1531 -0.9687  2.4808
  475MOL0     H65534   7.340   2.648   6.832 -0.4645 -2.2378 -1.8409
  475MOL0     H65535   7.098   2.696   6.891 -0.7659  0.1357  1.9707
  475MOL0     H65536   6.640   2.399   6.828 -0.5363  2.1227 -2.4468
  475MOL0     H65537   6.413   2.454   6.844 -0.8832  2.2034 -1.1557
  475MOL0     H65538   6.316   2.758   7.174 -0.7287 -2.9125  1.5214
  475MOL0     H65539   6.235   2.822   7.029  2.6697  3.5253  2.9792
  475MOL0     H65540   6.104   2.755   7.253  4.0672 -0.6457  0.7109
  475MOL0     H65541   6.151   2.588   7.212  1.7658  1.7665  2.0199
  475MOL0     H65542   5.994   2.759   7.022 -0.1282 -0.5564 -1.3325
  475MOL0     H65543   6.020   2.580   7.011 -1.2284  1.3145 -1.0745
  475MOL0     H65544   5.784   2.631   7.087 -0.9315 -1.1352  1.3239
  475MOL0     H65545   5.871   2.698   7.235  1.7454 -0.0142 -0.5674
  475MOL0     H65546   5.813   2.291   7.300  0.7202 -0.7568 -0.8798
  475MOL0     H65547   6.522   2.764   7.134 -2.7004 -0.3325 -1.0135
  475MOL0     H65548   6.744   2.833   7.152  0.0155 -0.3925  0.4732
  475MOL0     H65549   6.793   2.686   7.220  0.5357  0.8450  0.2878
  475MOL0     H65550   6.874   2.745   7.067  0.1054  0.1996 -1.2547
  476MOL0     O65551   9.068   6.868  10.199  0.8812  0.1198 -0.5150
  476MOL0     C65552   9.019   6.757  10.200  0.5378 -0.8870  0.2402
  476MOL0     O65553   9.076   6.638  10.147 -0.2900 -0.7904  0.0779
  476MOL0     C65554   9.210   6.629  10.109  0.2158 -0.3181 -0.6041
  476MOL0     C65555   9.296   6.554  10.187 -0.2170  0.4142  0.6116
  476MOL0     C65556   9.424   6.535  10.150 -0.3960 -0.2036 -0.1084
  476MOL0     C65557   9.486   6.594  10.040  0.5424 -0.6315 -0.5549
  476MOL0     O65558   9.607   6.549  10.007 -0.1475 -0.5061 -0.3171
  476MOL0     C65559   9.696   6.653   9.960 -0.5074  0.8687 -0.4107
  476MOL0     C65560   9.838   6.612   9.982 -0.1763  1.1677 -0.4783
  476MOL0     C65561   9.930   6.732   9.939  0.1112  0.1615  0.6675
  476MOL0     C65562  10.070   6.691   9.967  0.4076 -0.3987  0.4553
  476MOL0     C65563  10.182   6.781   9.919  0.7270 -0.1990  0.8143
  476MOL0     C65564  10.322   6.726   9.951 -0.1289  0.6954 -0.2819
  476MOL0     C65565  10.438   6.822   9.898  0.0512 -0.8284 -0.3936
  476MOL0     C65566  10.565   6.733   9.870  0.3126  0.1991  1.0458
  476MOL0     N65567  10.686   6.803   9.836  0.8604 -0.4068  0.7128
  476MOL0     C65568  10.780   6.853   9.920  0.4194  0.1029  1.0117
  476MOL0     C65569  10.878   6.893   9.843  0.6496 -0.3777  0.5215
  476MOL0     C65570  11.010   6.957   9.873 -0.3655 -0.0501  0.0077
  476MOL0     C65571  10.989   7.100   9.933  0.0156 -0.4064 -0.3248
  476MOL0     C65572  10.954   7.216   9.843 -0.4488  0.1517 -0.9036
  476MOL0     C65573  11.068   7.263   9.750 -0.8930  0.1595  0.5662
  476MOL0     O65574  11.180   7.298   9.837 -0.2048  0.2305  0.7516
  476MOL0     C65575  11.280   7.380   9.789 -0.6291  0.0711 -0.2915
  476MOL0     C65576  11.402   7.384   9.850 -0.2857 -0.3412 -0.6615
  476MOL0     C65577  11.504   7.467   9.801  0.2595 -0.3508 -0.5050
  476MOL0     C65578  11.638   7.469   9.875  0.3223 -0.7923 -0.9213
  476MOL0     C65579  11.483   7.536   9.678  0.5479 -0.1066  0.3806
  476MOL0     C65580  11.590   7.618   9.617 -0.4417 -0.3580  0.3199
  476MOL0     O65581  11.634   7.584   9.494  0.1026  0.5556 -0.7581
  476MOL0     C65582  11.750   7.640   9.451 -0.1407  0.2328  0.8671
  476MOL0     C65583  11.754   7.691   9.320  0.8666 -0.5707  1.1585
  476MOL0     C65584  11.872   7.734   9.267  0.1172 -0.3806 -0.2997
  476MOL0     C65585  11.991   7.716   9.333 -0.0089  0.6482  0.2577
  476MOL0     O65586  12.110   7.740   9.255  0.2252  0.1397 -0.2169
  476MOL0     C65587  12.212   7.819   9.320 -0.4018  0.1350 -0.6863
  476MOL0     C65588  12.318   7.871   9.231  0.8480  0.0266 -0.2052
  476MOL0     C65589  12.253   7.960   9.123  1.1077 -0.2297 -0.6181
  476MOL0     C65590  12.354   8.025   9.027  0.4486 -1.1508 -0.1362
  476MOL0     C65591  12.287   8.099   8.911 -0.4056  0.4826 -0.4642
  476MOL0     C65592  12.358   8.224   8.865 -0.3309 -0.2435  1.6086
  476MOL0     C65593  12.292   8.273   8.733 -0.4536  0.0176 -0.9158
  476MOL0     C65594  12.334   8.415   8.700 -0.6772 -0.2123  1.5020
  476MOL0    Cl65595  12.250   8.533   8.796  0.1155 -0.0235 -0.1586
  476MOL0     C65596  11.989   7.680   9.467 -0.1258  0.4767  0.5285
  476MOL0     C65597  11.868   7.643   9.523 -0.6100  0.1637 -0.0909
  476MOL0     O65598  11.626   7.714   9.679  0.3379 -0.1985  0.0916
  476MOL0     C65599  11.359   7.532   9.619  0.2714 -0.1881  0.4516
  476MOL0     C65600  11.261   7.449   9.666  0.1396  0.2723 -0.7634
  476MOL0     N65601  10.844   6.875   9.706  0.2742  0.1350 -0.1879
  476MOL0     N65602  10.733   6.804   9.710  0.2904 -0.9305  0.9780
  476MOL0     C65603   9.405   6.680   9.963  0.0971 -1.0154 -0.2196
  476MOL0     C65604   9.270   6.700   9.999 -0.2157  0.9243  0.4571
  476MOL0     C65605   8.886   6.742  10.256  0.5644  0.0410  0.1499
  476MOL0     C65606   8.830   6.609  10.249  0.7096 -0.5636  0.6068
  476MOL0     C65607   8.696   6.589  10.302 -0.8837  0.2741  0.5509
  476MOL0     C65608   8.630   6.675  10.375  0.1741 -0.2807 -1.0359
  476MOL0     O65609   8.497   6.638  10.411  0.1614  0.5193  0.1147
  476MOL0     C65610   8.415   6.726  10.492 -0.1955  0.0681  1.1243
  476MOL0     C65611   8.295   6.645  10.556 -0.1377 -0.1567 -0.0783
  476MOL0     C65612   8.199   6.586  10.454  1.0663 -0.3262 -0.1637
  476MOL0     C65613   8.073   6.540  10.535 -0.0323  0.7785  0.0650
  476MOL0     C65614   8.112   6.421  10.619 -0.0273 -0.7116 -1.0182
  476MOL0     C65615   8.141   6.315  10.663 -0.1038  0.1700  1.0063
  476MOL0     C65616   8.677   6.805  10.383  0.1976  0.3938 -0.5597
  476MOL0     C65617   8.804   6.834  10.326 -0.3038 -0.3443 -0.4496
  476MOL0     C65618   8.843   6.977  10.332  0.9222 -0.7382  0.0410
  476MOL0     H65619   9.265   6.513  10.283 -0.9394  0.8854  0.5873
  476MOL0     H65620   9.491   6.461  10.192  0.0130  0.2981  0.1367
  476MOL0     H65621   9.685   6.752  10.004 -2.2527  0.6223 -0.2003
  476MOL0     H65622   9.682   6.662   9.852 -0.8864  2.8730 -0.2256
  476MOL0     H65623   9.856   6.580  10.085  3.0059 -2.9940 -2.0149
  476MOL0     H65624   9.850   6.522   9.921  1.1318 -0.3528  1.8849
  476MOL0     H65625   9.919   6.747   9.831  0.8041 -0.2466  0.5342
  476MOL0     H65626   9.901   6.821   9.995  1.4416 -0.1944  1.9740
  476MOL0     H65627  10.089   6.672  10.073 -3.8273  0.8956  1.6471
  476MOL0     H65628  10.065   6.596   9.912  0.1833  0.0160 -0.2517
  476MOL0     H65629  10.180   6.884   9.957  2.3426  0.4143 -0.6385
  476MOL0     H65630  10.157   6.792   9.813  1.7286  0.7681  0.6588
  476MOL0     H65631  10.323   6.712  10.060 -2.0100 -1.7448 -0.4778
  476MOL0     H65632  10.342   6.632   9.899  0.6303  1.1467 -0.8260
  476MOL0     H65633  10.455   6.906   9.967 -1.0982  2.7482 -4.0556
  476MOL0     H65634  10.400   6.868   9.806 -2.9713 -1.7366  0.2727
  476MOL0     H65635  10.582   6.659   9.949  0.9625 -0.6674  0.1235
  476MOL0     H65636  10.549   6.676   9.779 -0.0903  1.3591  0.3710
  476MOL0     H65637  10.762   6.857  10.026 -0.3713  1.7029  0.8398
  476MOL0     H65638  11.068   6.962   9.780 -0.4800 -0.6715 -0.1026
  476MOL0     H65639  11.061   6.897   9.949 -1.9706  0.1650  1.3002
  476MOL0     H65640  10.909   7.082  10.006  0.7244 -1.2442  0.2655
  476MOL0     H65641  11.079   7.126   9.989  1.5197 -1.2427 -2.2245
  476MOL0     H65642  10.874   7.182   9.777 -1.1007 -2.0801  0.9327
  476MOL0     H65643  10.913   7.298   9.902 -1.0709  0.0282 -1.1632
  476MOL0     H65644  11.095   7.186   9.677 -0.8900 -0.7752  1.5079
  476MOL0     H65645  11.033   7.339   9.680  3.0547  1.5687 -0.1589
  476MOL0     H65646  11.422   7.311   9.928 -1.7478  0.2341  0.2831
  476MOL0     H65647  11.704   7.541   9.826 -1.3521  2.3175  1.0229
  476MOL0     H65648  11.672   7.367   9.896 -0.0820 -0.6533  0.4975
  476MOL0     H65649  11.607   7.518   9.968  2.7742 -0.7647 -0.0535
  476MOL0     H65650  11.658   7.700   9.270  1.6075  0.0819 -0.2048
  476MOL0     H65651  11.871   7.784   9.170 -0.8523  0.6771  0.2308
  476MOL0     H65652  12.177   7.900   9.385  0.5555 -0.5457  0.7412
  476MOL0     H65653  12.262   7.757   9.395  0.5217  1.6166 -0.0256
  476MOL0     H65654  12.388   7.925   9.295  0.2462  0.6626 -0.0737
  476MOL0     H65655  12.373   7.788   9.183  0.9123 -0.5930  0.9117
  476MOL0     H65656  12.204   8.046   9.169 -0.4982 -0.7427 -1.3077
  476MOL0     H65657  12.175   7.901   9.075  1.0261 -0.6769  0.0563
  476MOL0     H65658  12.425   7.952   8.988 -1.6103 -3.4085  0.1075
  476MOL0     H65659  12.408   8.098   9.088  0.8689 -0.9531 -0.7344
  476MOL0     H65660  12.270   8.029   8.829 -0.2403 -2.6693  2.0224
  476MOL0     H65661  12.188   8.126   8.947  0.2008 -0.5181  2.1755
  476MOL0     H65662  12.465   8.220   8.844 -0.7106 -0.1581 -0.6060
  476MOL0     H65663  12.346   8.298   8.945  3.0747  1.3535  0.8066
  476MOL0     H65664  12.184   8.264   8.748 -0.6809 -1.1168 -2.8646
  476MOL0     H65665  12.311   8.205   8.650 -1.5573 -0.6019 -0.6868
  476MOL0     H65666  12.301   8.439   8.598  2.4370  3.7944  1.2158
  476MOL0     H65667  12.442   8.433   8.697 -0.6238 -0.0473 -3.0806
  476MOL0     H65668  12.083   7.666   9.519  1.1559  3.2641 -0.8347
  476MOL0     H65669  11.861   7.624   9.630  0.9493  0.4903  0.0873
  476MOL0     H65670  11.346   7.592   9.530  0.7697 -1.0774 -0.2513
  476MOL0     H65671  11.176   7.438   9.599  1.2706  2.2814 -2.6376
  476MOL0     H65672   9.441   6.742   9.882 -2.4681  3.5329  1.7485
  476MOL0     H65673   9.218   6.774   9.941  0.8345  1.1909 -0.1764
  476MOL0     H65674   8.879   6.530  10.193  1.0027  0.5958 -0.8352
  476MOL0     H65675   8.652   6.493  10.277 -0.1770  0.2988 -0.8996
  476MOL0     H65676   8.465   6.765  10.581  1.3738  0.0414  0.2826
  476MOL0     H65677   8.376   6.801  10.422 -1.0734  0.1541  1.6846
  476MOL0     H65678   8.247   6.709  10.630  0.9515 -0.3044  0.7850
  476MOL0     H65679   8.339   6.565  10.615 -0.0097 -0.6183 -0.7922
  476MOL0     H65680   8.180   6.656  10.372  0.3065 -1.3406 -0.8872
  476MOL0     H65681   8.249   6.500  10.409  1.3448  0.0582 -0.6008
  476MOL0     H65682   7.997   6.503  10.465  0.9119  0.3109 -0.7257
  476MOL0     H65683   8.021   6.625  10.580  0.1921  1.1587 -0.3954
  476MOL0     H65684   8.182   6.222  10.697 -0.0697 -1.1375 -2.2864
  476MOL0     H65685   8.623   6.885  10.432  2.8870  3.4948 -2.3072
  476MOL0     H65686   8.843   7.025  10.234  1.5831  1.2022  0.9396
  476MOL0     H65687   8.781   7.037  10.399 -0.2741  0.0743 -1.7169
  476MOL0     H65688   8.945   6.987  10.371  0.3325  0.4954  1.3431
  477MOL0     O65689   9.264  10.357   3.121  0.0411 -0.2794  0.2180
  477MOL0     C65690   9.274  10.479   3.116  0.5036 -0.7104 -0.6731
  477MOL0     O65691   9.388  10.554   3.117  0.1805  0.4288 -0.1802
  477MOL0     C65692   9.508  10.493   3.085 -0.2289 -0.4483  0.3230
  477MOL0     C65693   9.580  10.553   2.980  0.3717  0.2126  0.3529
  477MOL0     C65694   9.705  10.500   2.943 -0.7314  0.4458 -0.1732
  477MOL0     C65695   9.764  10.385   3.002 -0.0397  0.5741 -0.1801
  477MOL0     O65696   9.880  10.330   2.957  0.1835 -0.3202 -0.1410
  477MOL0     C65697   9.920  10.208   3.010  0.8414 -0.8022 -0.0606
  477MOL0     C65698  10.056  10.159   2.963  0.0317 -0.5461 -0.9099
  477MOL0     C65699  10.053  10.020   2.907 -0.8068 -0.4494 -0.1732
  477MOL0     C65700  10.192   9.964   2.859 -0.5460 -0.2535 -0.1629
  477MOL0     C65701  10.302   9.972   2.975  0.4391  0.2727  0.5585
  477MOL0     C65702  10.438   9.908   2.935 -0.2849  0.4801  0.5685
  477MOL0     C65703  10.542   9.906   3.047  0.2635  0.7903 -0.1377
  477MOL0     C65704  10.640   9.793   3.048 -0.0268 -0.6789  0.3126
  477MOL0     N65705  10.569   9.658   3.052  0.2851 -0.3858 -0.4325
  477MOL0     C65706  10.603   9.543   2.979 -0.5032 -0.2275  1.1548
  477MOL0     C65707  10.553   9.442   3.054 -0.5495  0.1739 -0.2984
  477MOL0     C65708  10.581   9.292   3.037  0.2634  0.2758  0.7007
  477MOL0     C65709  10.552   9.254   2.892  0.5111  0.7191 -0.2452
  477MOL0     C65710  10.612   9.119   2.852  0.8917  0.0573  0.3918
  477MOL0     C65711  10.767   9.123   2.839  0.0926 -0.1896 -1.5283
  477MOL0     O65712  10.807   9.224   2.748 -0.0781  0.2505 -0.1748
  477MOL0     C65713  10.940   9.244   2.724  0.2008 -0.0536  1.5596
  477MOL0     C65714  11.052   9.183   2.786  0.1448  0.5626  0.1292
  477MOL0     C65715  11.187   9.221   2.767 -0.0949 -0.2620  0.9668
  477MOL0     C65716  11.300   9.170   2.858 -0.2323  0.2664  0.7229
  477MOL0     C65717  11.212   9.322   2.663 -0.1546  0.1520 -0.4625
  477MOL0     C65718  11.347   9.366   2.630  0.6801 -0.9234 -0.4444
  477MOL0     O65719  11.452   9.285   2.646  0.0165  0.3562 -0.1102
  477MOL0     C65720  11.584   9.309   2.611 -0.2392  0.3830  0.2999
  477MOL0     C65721  11.669   9.208   2.647 -0.2816 -0.1589 -0.0573
  477MOL0     C65722  11.808   9.218   2.629 -0.3172 -0.7447  0.0090
  477MOL0     C65723  11.864   9.333   2.585  0.1683 -0.4018 -0.0080
  477MOL0     O65724  11.994   9.325   2.546  0.4873 -0.1379 -0.6567
  477MOL0     C65725  12.055   9.433   2.465 -0.9183 -0.1175  0.0824
  477MOL0     C65726  12.168   9.381   2.380 -0.1022 -0.2747  0.1165
  477MOL0     C65727  12.107   9.310   2.256 -0.2536  0.3115  0.8025
  477MOL0     C65728  12.073   9.407   2.146 -0.0114 -0.3820  0.4555
  477MOL0     C65729  12.004   9.341   2.032 -0.0602 -0.0411 -0.0007
  477MOL0     C65730  11.922   9.437   1.945  0.5947 -0.0487 -0.1644
  477MOL0     C65731  11.783   9.480   2.013  0.1384  0.6968  0.7053
  477MOL0     C65732  11.701   9.537   1.910 -0.4994  0.1119 -0.2050
  477MOL0    Cl65733  11.758   9.701   1.846 -0.1203  0.1301  0.1046
  477MOL0     C65734  11.786   9.446   2.558  0.9288 -0.8398 -0.1483
  477MOL0     C65735  11.648   9.431   2.570  0.7050  0.3004  0.1299
  477MOL0     O65736  11.357   9.478   2.604  0.1576 -0.6799  0.4351
  477MOL0     C65737  11.103   9.375   2.593  0.6622  0.1895  0.5256
  477MOL0     C65738  10.974   9.335   2.627 -0.6632 -0.3162  0.7798
  477MOL0     N65739  10.481   9.495   3.158  0.6448  0.6138 -0.0099
  477MOL0     N65740  10.481   9.621   3.153  0.4132 -0.4522  0.1293
  477MOL0     C65741   9.686  10.327   3.098  0.4438 -0.4253 -0.3289
  477MOL0     C65742   9.562  10.375   3.140  0.1084 -0.7036 -0.6092
  477MOL0     C65743   9.148  10.554   3.115  0.1830  0.6822  0.4974
  477MOL0     C65744   9.157  10.687   3.075 -1.2530  1.5642  0.7248
  477MOL0     C65745   9.048  10.761   3.049 -0.0058  0.7153  0.3031
  477MOL0     C65746   8.917  10.719   3.074  0.5129  0.6371 -0.9597
  477MOL0     O65747   8.825  10.814   3.043 -0.0231  0.7663 -0.2606
  477MOL0     C65748   8.692  10.806   3.097 -0.4070 -0.2359 -0.8105
  477MOL0     C65749   8.606  10.705   3.028  0.2609 -0.3041 -0.0593
  477MOL0     C65750   8.558  10.757   2.888 -0.1100  0.2700 -0.2078
  477MOL0     C65751   8.455  10.662   2.834  0.3889  0.0906  0.0111
  477MOL0     C65752   8.395  10.710   2.709 -0.9250 -0.2597  0.4574
  477MOL0     C65753   8.344  10.750   2.607 -0.3809 -0.4579 -0.5476
  477MOL0     C65754   8.907  10.588   3.130 -0.1911 -0.3680  0.6954
  477MOL0     C65755   9.023  10.503   3.147  1.1522  0.3101  0.2077
  477MOL0     C65756   8.988  10.365   3.189 -0.9003 -0.5719  0.0071
  477MOL0     H65757   9.546  10.642   2.929 -0.1695 -0.3559 -0.3069
  477MOL0     H65758   9.768  10.553   2.873  2.1824 -0.0283  1.8927
  477MOL0     H65759   9.839  10.136   2.997  0.7578 -0.5462 -1.0927
  477MOL0     H65760   9.917  10.218   3.119 -1.7141 -1.4268 -0.0316
  477MOL0     H65761  10.104  10.234   2.900 -1.0836  1.2613  0.3122
  477MOL0     H65762  10.118  10.161   3.053  0.2530  1.6502 -1.0570
  477MOL0     H65763  10.039   9.949   2.990  1.8591  0.0612  0.8108
  477MOL0     H65764   9.988  10.017   2.819 -1.1329 -0.8644  0.0744
  477MOL0     H65765  10.189   9.856   2.845  2.6012 -0.5882  1.0602
  477MOL0     H65766  10.221  10.007   2.763  2.5856  0.6908  1.0868
  477MOL0     H65767  10.263   9.919   3.062  0.3765 -2.1077 -0.8561
  477MOL0     H65768  10.323  10.076   3.004  0.6155 -0.2480  2.4030
  477MOL0     H65769  10.404   9.810   2.899  0.1626  1.0486 -1.5399
  477MOL0     H65770  10.485   9.955   2.848  0.8974 -0.8279  0.4760
  477MOL0     H65771  10.498   9.887   3.145  1.4000  1.0477  0.4383
  477MOL0     H65772  10.580  10.009   3.046 -0.2433  0.9936 -1.6238
  477MOL0     H65773  10.705   9.806   2.961 -0.4556 -1.4321 -0.1377
  477MOL0     H65774  10.705   9.813   3.133 -3.0379 -0.0407  2.6162
  477MOL0     H65775  10.667   9.530   2.892  1.2320  1.2147  2.1476
  477MOL0     H65776  10.520   9.225   3.098 -1.8004  0.0575 -1.4511
  477MOL0     H65777  10.684   9.266   3.064  0.5523 -2.2191 -2.2813
  477MOL0     H65778  10.446   9.253   2.864  0.5508 -0.8997 -0.4010
  477MOL0     H65779  10.599   9.323   2.821  2.0672 -0.3687 -0.3219
  477MOL0     H65780  10.606   9.052   2.939  1.4595 -2.3684 -1.3480
  477MOL0     H65781  10.561   9.075   2.767 -0.7581  1.7792  0.4209
  477MOL0     H65782  10.802   9.159   2.936 -3.3907  2.5170 -1.0823
  477MOL0     H65783  10.801   9.023   2.808  2.9549 -1.1192  3.6065
  477MOL0     H65784  11.030   9.103   2.856 -0.2819  0.8582  0.3344
  477MOL0     H65785  11.383   9.239   2.874 -0.1202  0.1718  0.5590
  477MOL0     H65786  11.331   9.069   2.830  0.1163  0.0925  1.7063
  477MOL0     H65787  11.250   9.164   2.955 -1.7892 -2.2847 -0.1315
  477MOL0     H65788  11.624   9.114   2.676  0.8218 -1.7154 -2.9678
  477MOL0     H65789  11.873   9.134   2.651 -0.8770 -1.1293  0.2071
  477MOL0     H65790  11.988   9.499   2.410  0.4401  0.6807 -0.6720
  477MOL0     H65791  12.110   9.496   2.536 -0.8223  0.1036 -0.1881
  477MOL0     H65792  12.238   9.454   2.336 -0.7315 -0.9709 -2.1864
  477MOL0     H65793  12.237   9.317   2.435  0.0909  0.5146  0.8226
  477MOL0     H65794  12.020   9.250   2.283 -1.5374  2.4049  1.6192
  477MOL0     H65795  12.188   9.249   2.216 -0.0838  1.7156 -1.1294
  477MOL0     H65796  12.161   9.452   2.101 -1.7942 -0.4592 -3.5146
  477MOL0     H65797  12.009   9.483   2.193  0.0270  0.2079 -0.4340
  477MOL0     H65798  12.078   9.291   1.969 -1.5187 -0.4041 -1.5297
  477MOL0     H65799  11.942   9.256   2.063  0.7181 -0.4708  0.4056
  477MOL0     H65800  11.903   9.387   1.850 -1.0913  0.3191 -0.0601
  477MOL0     H65801  11.976   9.529   1.921  1.7263  0.0135  2.2636
  477MOL0     H65802  11.799   9.561   2.085  0.7013  0.5236  0.7850
  477MOL0     H65803  11.731   9.393   2.052 -0.9243  0.6853 -0.6568
  477MOL0     H65804  11.601   9.560   1.947 -0.5891 -2.0051  1.0531
  477MOL0     H65805  11.694   9.470   1.823 -0.3955  2.0148 -1.7625
  477MOL0     H65806  11.836   9.538   2.531  1.0440 -1.1542 -1.0808
  477MOL0     H65807  11.580   9.509   2.537 -1.4434 -2.6412 -3.1156
  477MOL0     H65808  11.122   9.449   2.515 -0.3444  1.7377  1.6792
  477MOL0     H65809  10.894   9.385   2.573  1.0457  0.9849 -0.7111
  477MOL0     H65810   9.718  10.242   3.158  1.6462  0.6780  0.6503
  477MOL0     H65811   9.498  10.332   3.216 -1.3048 -0.1371 -1.4556
  477MOL0     H65812   9.252  10.737   3.057  0.0670 -0.7219  0.9693
  477MOL0     H65813   9.065  10.858   3.003  0.8214 -0.3664 -1.8517
  477MOL0     H65814   8.698  10.778   3.203  1.3963  2.2691 -0.1766
  477MOL0     H65815   8.643  10.901   3.078 -4.0752 -1.4824  1.3093
  477MOL0     H65816   8.517  10.691   3.090  0.5701  3.3819  1.4494
  477MOL0     H65817   8.662  10.611   3.022 -0.9418 -1.0009 -0.8461
  477MOL0     H65818   8.517  10.858   2.896  0.7327  0.6026  0.0344
  477MOL0     H65819   8.648  10.750   2.827 -0.3481 -0.5747 -0.4896
  477MOL0     H65820   8.376  10.662   2.909  1.1727  2.0128  0.8971
  477MOL0     H65821   8.494  10.560   2.832  0.0964 -0.1390  2.5887
  477MOL0     H65822   8.319  10.785   2.509 -0.2806  2.2660  0.3032
  477MOL0     H65823   8.813  10.548   3.166  0.2109  0.3682  2.7026
  477MOL0     H65824   9.029  10.285   3.126  0.8486  0.3370 -0.0733
  477MOL0     H65825   9.030  10.356   3.289  0.5138  1.6663 -0.3264
  477MOL0     H65826   8.881  10.344   3.203 -1.4640  1.5147 -0.7792
  478MOL0     O65827  10.915   5.778   3.539  1.0890  0.3801  0.0612
  478MOL0     C65828  10.898   5.731   3.651  0.4020 -0.2983  0.8088
  478MOL0     O65829  10.955   5.614   3.693  0.2232  0.3334  0.3690
  478MOL0     C65830  11.081   5.577   3.635  1.3804 -0.6529  0.1054
  478MOL0     C65831  11.196   5.585   3.706 -0.0377 -0.1548 -0.1794
  478MOL0     C65832  11.320   5.552   3.656 -0.6722  0.0473  0.4698
  478MOL0     C65833  11.321   5.497   3.526  0.4856 -0.1381  0.5348
  478MOL0     O65834  11.443   5.465   3.479  0.0070 -0.1089 -0.1826
  478MOL0     C65835  11.478   5.329   3.493  0.1219 -0.2908 -0.7082
  478MOL0     C65836  11.628   5.310   3.461  0.0875 -0.3813 -0.5894
  478MOL0     C65837  11.700   5.333   3.594 -0.5228 -0.3648 -0.3459
  478MOL0     C65838  11.848   5.347   3.562 -0.1071  0.0323 -0.4313
  478MOL0     C65839  11.926   5.372   3.705  0.1629  0.4352  0.2261
  478MOL0     C65840  12.082   5.379   3.691  0.2166 -0.2636  0.0937
  478MOL0     C65841  12.123   5.514   3.633  0.4801 -0.5711 -0.3677
  478MOL0     C65842  12.271   5.540   3.611 -0.0567 -0.1017 -0.6515
  478MOL0     N65843  12.360   5.553   3.734  1.0789 -0.4828 -0.0027
  478MOL0     C65844  12.386   5.453   3.827  0.3485 -0.2705  1.0596
  478MOL0     C65845  12.482   5.495   3.914  0.0262 -1.1299 -0.8080
  478MOL0     C65846  12.536   5.397   4.019 -1.6211 -0.3694  0.6034
  478MOL0     C65847  12.661   5.459   4.093 -1.2158  0.8140  0.3856
  478MOL0     C65848  12.705   5.373   4.213 -0.1855  0.6382  0.4043
  478MOL0     C65849  12.809   5.452   4.292 -0.9113  0.1832  0.8027
  478MOL0     O65850  12.932   5.451   4.214  0.2408  0.7790  0.6908
  478MOL0     C65851  13.050   5.482   4.274  0.1442 -0.2407  0.5621
  478MOL0     C65852  13.161   5.482   4.193  0.4550 -0.0304 -0.7362
  478MOL0     C65853  13.285   5.527   4.232 -0.1436 -0.0460  0.2388
  478MOL0     C65854  13.404   5.524   4.132  0.1935 -0.5120  1.4254
  478MOL0     C65855  13.309   5.566   4.363  0.4817  0.7069 -0.2793
  478MOL0     C65856  13.445   5.610   4.421  0.3189  0.4078 -1.2392
  478MOL0     O65857  13.444   5.660   4.548  0.3379  0.1849  0.1075
  478MOL0     C65858  13.564   5.701   4.601 -1.0842 -0.6881 -0.2345
  478MOL0     C65859  13.576   5.824   4.677  0.4184  0.1251 -1.0575
  478MOL0     C65860  13.699   5.853   4.745  0.6472 -0.6314 -0.3860
  478MOL0     C65861  13.807   5.768   4.738  0.1749 -0.4936 -0.1563
  478MOL0     O65862  13.915   5.786   4.815 -0.3893 -0.5749  0.0558
  478MOL0     C65863  13.949   5.905   4.869  0.2811  0.0981  0.3186
  478MOL0     C65864  14.079   5.885   4.941  1.0418 -0.0027  0.7780
  478MOL0     C65865  14.196   5.849   4.864  0.1578  0.3191 -0.3215
  478MOL0     C65866  14.322   5.934   4.903 -0.0394 -0.1817 -0.0694
  478MOL0     C65867  14.444   5.877   4.842 -0.2268 -0.1346  0.4425
  478MOL0     C65868  14.446   5.891   4.689 -0.2673  0.6606  0.5159
  478MOL0     C65869  14.577   5.858   4.614  0.4889 -0.2576 -0.4946
  478MOL0     C65870  14.558   5.827   4.476  1.0461  0.1535  0.7214
  478MOL0    Cl65871  14.491   5.971   4.376 -0.2784 -0.2558  0.3328
  478MOL0     C65872  13.790   5.645   4.682  0.3850 -0.1291  0.2159
  478MOL0     C65873  13.671   5.618   4.607  0.0484 -0.4304  0.7569
  478MOL0     O65874  13.545   5.605   4.351 -0.4526 -0.4815  0.0250
  478MOL0     C65875  13.202   5.549   4.448 -0.1835  0.0709 -0.6829
  478MOL0     C65876  13.076   5.513   4.403  0.8206 -0.1573  0.0650
  478MOL0     N65877  12.516   5.624   3.872 -0.2650 -0.0990 -0.1928
  478MOL0     N65878  12.454   5.652   3.759  0.8156  0.0168 -0.0073
  478MOL0     C65879  11.202   5.487   3.447 -0.1987  0.5546  0.1917
  478MOL0     C65880  11.085   5.533   3.502 -0.7127  0.1720 -0.4115
  478MOL0     C65881  10.798   5.799   3.731 -0.2620  0.9015 -0.2811
  478MOL0     C65882  10.706   5.890   3.676 -1.1961  0.5724 -0.1047
  478MOL0     C65883  10.595   5.943   3.751 -0.5571 -0.0574 -0.2813
  478MOL0     C65884  10.590   5.917   3.884 -0.0067 -0.8818 -0.3726
  478MOL0     O65885  10.498   5.981   3.966 -0.2863  0.8182 -0.2797
  478MOL0     C65886  10.366   6.009   3.900  0.0144 -0.0304 -0.8768
  478MOL0     C65887  10.262   5.974   4.006  0.7040  0.0303  0.0345
  478MOL0     C65888  10.246   5.822   3.998 -0.4594 -0.5565  0.1449
  478MOL0     C65889  10.132   5.769   4.080  0.1592  0.0007  0.7791
  478MOL0     C65890  10.165   5.793   4.221  0.0617  0.2097  0.8378
  478MOL0     C65891  10.189   5.819   4.337  0.4858  0.0987  0.3766
  478MOL0     C65892  10.686   5.838   3.948  0.0860  0.7590 -0.0835
  478MOL0     C65893  10.782   5.768   3.872 -0.8009  0.0141 -0.2458
  478MOL0     C65894  10.878   5.690   3.958  0.3775 -0.0504 -0.1162
  478MOL0     H65895  11.180   5.635   3.801 -0.3160  0.9314 -0.7724
  478MOL0     H65896  11.413   5.560   3.712 -0.7587  0.5207  0.5543
  478MOL0     H65897  11.426   5.280   3.411  1.7949 -0.9627 -1.4166
  478MOL0     H65898  11.438   5.283   3.584 -0.7002  2.9251  0.7025
  478MOL0     H65899  11.636   5.202   3.441 -2.8429 -1.2904  2.1970
  478MOL0     H65900  11.666   5.371   3.379 -1.0319  2.9222  1.1908
  478MOL0     H65901  11.667   5.428   3.638 -0.2499 -1.2365  1.8525
  478MOL0     H65902  11.689   5.253   3.668 -1.5365  0.3948  0.3630
  478MOL0     H65903  11.888   5.252   3.528  0.7640 -0.0705  0.8148
  478MOL0     H65904  11.866   5.425   3.488 -5.2896  3.4579  1.3026
  478MOL0     H65905  11.915   5.302   3.787  2.3142  1.3592  1.3963
  478MOL0     H65906  11.889   5.468   3.742 -3.2483 -0.5482 -0.2722
  478MOL0     H65907  12.119   5.376   3.793  1.2789 -2.5959 -0.3025
  478MOL0     H65908  12.122   5.293   3.637 -0.0357  1.6862 -3.5775
  478MOL0     H65909  12.082   5.601   3.686  0.2217 -0.6577 -0.4242
  478MOL0     H65910  12.057   5.528   3.548 -1.6486  0.1549  1.3170
  478MOL0     H65911  12.313   5.455   3.558 -3.7100 -1.2878 -1.9957
  478MOL0     H65912  12.273   5.626   3.542  1.2275  0.0103 -0.4871
  478MOL0     H65913  12.358   5.349   3.817 -0.1850  0.0741 -1.8399
  478MOL0     H65914  12.565   5.301   3.975 -0.8050 -0.7506  1.9437
  478MOL0     H65915  12.452   5.374   4.085 -2.3300 -1.8333 -0.7379
  478MOL0     H65916  12.750   5.450   4.031 -0.7352 -1.0293  1.2616
  478MOL0     H65917  12.656   5.565   4.120  2.2559  0.7431  1.8181
  478MOL0     H65918  12.620   5.351   4.280  0.0938  1.3728  1.0223
  478MOL0     H65919  12.733   5.277   4.171 -0.6234  0.7568 -0.1688
  478MOL0     H65920  12.769   5.553   4.305 -0.0031  0.2849  3.1419
  478MOL0     H65921  12.831   5.401   4.386 -0.3522  1.5529  1.4336
  478MOL0     H65922  13.154   5.455   4.088  1.2172 -1.1084 -0.5254
  478MOL0     H65923  13.487   5.459   4.160  0.9409  0.3858  1.3674
  478MOL0     H65924  13.443   5.626   4.134  1.3119 -0.9353  2.5034
  478MOL0     H65925  13.370   5.499   4.031  1.0832  3.7465 -0.1640
  478MOL0     H65926  13.490   5.891   4.670  2.4853  3.2395  0.5394
  478MOL0     H65927  13.713   5.947   4.796  1.9075 -1.6621  1.2817
  478MOL0     H65928  13.963   5.981   4.791 -0.1817 -0.0068  0.1314
  478MOL0     H65929  13.874   5.932   4.944  0.1505 -1.5414  0.8146
  478MOL0     H65930  14.098   5.979   4.993 -0.7777  0.9782 -0.2358
  478MOL0     H65931  14.058   5.804   5.011 -2.7934 -0.3128 -0.4978
  478MOL0     H65932  14.171   5.855   4.757 -2.1609  3.6634  0.2686
  478MOL0     H65933  14.223   5.746   4.890  0.0730  0.7966  1.8520
  478MOL0     H65934  14.332   5.930   5.012  1.1060 -2.4756 -0.1965
  478MOL0     H65935  14.297   6.038   4.878  0.3293 -0.5052 -1.9019
  478MOL0     H65936  14.529   5.938   4.872  0.6082  0.1789 -2.2567
  478MOL0     H65937  14.457   5.774   4.876 -1.1527 -0.3336  0.2411
  478MOL0     H65938  14.421   5.991   4.653 -2.3534  0.4744  1.2873
  478MOL0     H65939  14.372   5.822   4.649  0.3684  0.7969 -0.9556
  478MOL0     H65940  14.615   5.761   4.647 -1.1870 -1.4041 -1.7611
  478MOL0     H65941  14.658   5.930   4.626 -0.1160  1.0759 -3.4602
  478MOL0     H65942  14.495   5.738   4.465 -1.0049  1.5588  0.5210
  478MOL0     H65943  14.656   5.797   4.438 -0.0186 -1.1804 -1.1640
  478MOL0     H65944  13.870   5.572   4.687 -0.7576 -1.3138  2.3267
  478MOL0     H65945  13.661   5.522   4.558  2.3893  1.6266 -4.5459
  478MOL0     H65946  13.222   5.560   4.554  0.1778 -1.4874 -0.5546
  478MOL0     H65947  12.997   5.494   4.475  0.4539 -3.6543 -1.0481
  478MOL0     H65948  11.194   5.445   3.348  1.1193 -0.0600  0.3252
  478MOL0     H65949  10.991   5.520   3.449 -1.4981 -0.7485  1.1306
  478MOL0     H65950  10.711   5.925   3.574  0.1045  2.9822  0.7139
  478MOL0     H65951  10.533   6.015   3.699  0.8558 -0.6473 -2.9381
  478MOL0     H65952  10.369   6.111   3.860 -0.4230 -0.5030 -2.1564
  478MOL0     H65953  10.345   5.944   3.815 -0.1583  1.5093 -2.0376
  478MOL0     H65954  10.166   6.020   3.981  0.5820  0.0426  0.5181
  478MOL0     H65955  10.297   6.002   4.106 -1.3969 -1.9589  1.4015
  478MOL0     H65956  10.240   5.779   3.898  0.1372 -2.5244  0.9174
  478MOL0     H65957  10.344   5.783   4.028  0.2367  1.6480  1.0110
  478MOL0     H65958  10.139   5.660   4.075  1.3524  0.1090 -0.3065
  478MOL0     H65959  10.030   5.805   4.062 -0.2247 -0.6465  1.5587
  478MOL0     H65960  10.219   5.849   4.435 -1.6497  0.6222  0.9332
  478MOL0     H65961  10.675   5.831   4.056 -1.2807 -1.9602 -0.3223
  478MOL0     H65962  10.855   5.710   4.063 -2.5983  0.4197 -0.7744
  478MOL0     H65963  10.864   5.582   3.949  1.1617 -0.6061  3.4744
  478MOL0     H65964  10.984   5.709   3.937  0.3019 -0.9165 -1.3794
  479MOL0     O65965   9.411   5.131   4.142 -0.5468  0.1753  0.1730
  479MOL0     C65966   9.377   5.015   4.169  0.5183  0.8068  0.7763
  479MOL0     O65967   9.462   4.916   4.222  0.0775 -1.1195  0.6836
  479MOL0     C65968   9.598   4.925   4.199 -0.0326  0.1312 -0.0546
  479MOL0     C65969   9.664   4.994   4.100 -0.6720  0.0633 -0.2389
  479MOL0     C65970   9.802   4.980   4.080  0.4761 -0.6781 -0.9934
  479MOL0     C65971   9.876   4.903   4.167 -0.5287  0.8924 -0.4503
  479MOL0     O65972  10.018   4.893   4.161  0.2770  0.3157  0.0861
  479MOL0     C65973  10.088   4.965   4.055 -0.5562 -0.1086  0.1359
  479MOL0     C65974  10.240   4.931   4.072 -0.2504  0.8818  0.3573
  479MOL0     C65975  10.325   4.967   3.951 -0.0176  0.8204 -0.2643
  479MOL0     C65976  10.483   4.981   3.979 -0.1652  1.4210 -0.1024
  479MOL0     C65977  10.543   4.841   4.037 -0.1199 -0.1444  0.7285
  479MOL0     C65978  10.658   4.858   4.135  0.3925  0.3850  0.6047
  479MOL0     C65979  10.778   4.923   4.063 -0.2154  0.4136 -0.6375
  479MOL0     C65980  10.888   4.942   4.161 -0.2003  0.0428 -0.9593
  479MOL0     N65981  11.003   4.992   4.092 -0.2813 -0.2461 -0.3542
  479MOL0     C65982  11.034   5.122   4.068  0.6265  0.6309 -0.3453
  479MOL0     C65983  11.112   5.129   3.955  0.4478  0.1936  0.0458
  479MOL0     C65984  11.173   5.249   3.889  0.4149 -0.3569 -0.5882
  479MOL0     C65985  11.329   5.251   3.911 -0.6955  0.0915  0.6772
  479MOL0     C65986  11.362   5.308   4.042  0.5874 -0.3533  0.2470
  479MOL0     C65987  11.510   5.316   4.066  0.7630  0.8674  0.1458
  479MOL0     O65988  11.566   5.389   3.953 -0.3518 -0.4946  0.1113
  479MOL0     C65989  11.683   5.451   3.978 -0.2235  0.2168 -0.5393
  479MOL0     C65990  11.692   5.584   3.957 -0.9715 -0.0230 -0.1523
  479MOL0     C65991  11.807   5.661   3.988 -0.6296 -0.4441 -1.0167
  479MOL0     C65992  11.797   5.811   3.958 -0.1204 -0.3874 -0.0131
  479MOL0     C65993  11.927   5.589   4.024 -0.3825 -0.1519 -0.2909
  479MOL0     C65994  12.058   5.661   4.068  0.4911  0.5491  0.6695
  479MOL0     O65995  12.071   5.792   4.036  0.3571 -0.8738  0.6976
  479MOL0     C65996  12.157   5.861   4.113 -0.3329  0.0163 -0.0938
  479MOL0     C65997  12.100   5.970   4.171 -0.2693  0.2803 -0.0242
  479MOL0     C65998  12.181   6.052   4.244 -0.0096 -0.1240  0.2546
  479MOL0     C65999  12.317   6.020   4.271 -0.0301  0.0728 -0.1626
  479MOL0     O66000  12.377   6.107   4.362 -0.5173  0.3799  0.1208
  479MOL0     C66001  12.513   6.113   4.383  0.4117 -0.1671  0.2317
  479MOL0     C66002  12.597   6.160   4.256 -0.1711  0.2011  0.9212
  479MOL0     C66003  12.745   6.163   4.300  0.2053 -0.5187  0.6623
  479MOL0     C66004  12.807   6.310   4.305  0.3862 -1.0558 -0.9052
  479MOL0     C66005  12.955   6.291   4.303 -0.0322 -0.1904 -1.2475
  479MOL0     C66006  13.046   6.413   4.350 -0.0672  0.1402 -0.8345
  479MOL0     C66007  13.194   6.393   4.300  0.2048 -0.1027 -0.4292
  479MOL0     C66008  13.291   6.461   4.397 -0.1705  0.4380 -0.6863
  479MOL0    Cl66009  13.453   6.446   4.342  0.5961  0.2233  0.2399
  479MOL0     C66010  12.377   5.907   4.203 -0.1998 -0.1813  0.0668
  479MOL0     C66011  12.294   5.834   4.120  0.1236  0.5719 -0.2220
  479MOL0     O66012  12.124   5.598   4.145 -0.5428  1.0813  0.0945
  479MOL0     C66013  11.917   5.447   4.051  0.0989  0.9359 -0.0471
  479MOL0     C66014  11.797   5.381   4.033 -0.0292  0.0327 -0.0017
  479MOL0     N66015  11.135   4.996   3.918  0.4263  0.1420  0.4282
  479MOL0     N66016  11.085   4.922   4.007 -0.5888 -0.0786  0.5377
  479MOL0     C66017   9.813   4.845   4.275 -0.4610  0.1618 -0.3539
  479MOL0     C66018   9.676   4.855   4.290  0.6925  0.2494 -0.0177
  479MOL0     C66019   9.227   4.987   4.143 -0.0593 -0.2420  0.0787
  479MOL0     C66020   9.153   4.895   4.224 -0.6853 -0.3119  0.2054
  479MOL0     C66021   9.018   4.870   4.209  0.3712  0.7459  0.4594
  479MOL0     C66022   8.939   4.928   4.111 -0.9890 -1.2327 -0.3837
  479MOL0     O66023   8.815   4.879   4.104 -0.1671  0.0969 -0.0292
  479MOL0     C66024   8.732   4.919   3.993 -0.7036  0.4834 -0.0928
  479MOL0     C66025   8.599   4.859   4.025 -0.1858  0.2644 -0.9772
  479MOL0     C66026   8.611   4.704   4.051 -0.2257  0.4040  0.1310
  479MOL0     C66027   8.501   4.614   4.003  0.7623 -0.0633  0.0775
  479MOL0     C66028   8.497   4.624   3.857 -0.4203  0.5119  0.1606
  479MOL0     C66029   8.515   4.638   3.737 -0.2530  0.3781 -0.5969
  479MOL0     C66030   9.004   5.024   4.023  0.7904 -0.0055  0.2300
  479MOL0     C66031   9.143   5.059   4.052  0.3857  0.2492  0.2661
  479MOL0     C66032   9.203   5.167   3.963  0.0311 -0.3996  0.8246
  479MOL0     H66033   9.604   5.045   4.025 -0.0053 -0.2598 -1.0179
  479MOL0     H66034   9.849   5.031   3.997 -2.1750  1.4016 -1.3724
  479MOL0     H66035  10.070   5.073   4.059  1.3658  0.2250  0.7879
  479MOL0     H66036  10.064   4.936   3.952 -1.3843  1.1029 -0.0444
  479MOL0     H66037  10.275   4.974   4.166 -0.9642  0.0866  1.0136
  479MOL0     H66038  10.243   4.821   4.079  2.8690  0.8723  0.3527
  479MOL0     H66039  10.302   4.901   3.867  1.2539 -0.1676  0.1418
  479MOL0     H66040  10.292   5.061   3.906  0.5855  0.9789 -0.3874
  479MOL0     H66041  10.530   5.000   3.882  3.7787  1.1234  1.5569
  479MOL0     H66042  10.500   5.063   4.049 -0.3568  0.6184  0.9118
  479MOL0     H66043  10.572   4.783   3.950 -2.3706 -1.0246  0.4854
  479MOL0     H66044  10.460   4.800   4.096 -0.6385  2.1014  1.6541
  479MOL0     H66045  10.620   4.913   4.221  1.1667 -2.5530  3.0021
  479MOL0     H66046  10.682   4.762   4.183  1.5169  0.5177  0.3403
  479MOL0     H66047  10.755   5.021   4.021 -1.4902 -0.3611 -1.7858
  479MOL0     H66048  10.801   4.853   3.982 -2.8206  0.0279 -1.1254
  479MOL0     H66049  10.870   5.020   4.236 -0.2716 -3.2270  2.7612
  479MOL0     H66050  10.897   4.853   4.224 -5.3298 -0.3241 -0.3551
  479MOL0     H66051  11.005   5.201   4.138 -0.7747 -0.3150  0.1862
  479MOL0     H66052  11.141   5.346   3.929  2.5134  0.9975 -1.9541
  479MOL0     H66053  11.157   5.250   3.781 -0.5452  0.5230 -0.4577
  479MOL0     H66054  11.370   5.150   3.902 -0.7005  0.2706 -3.1747
  479MOL0     H66055  11.367   5.306   3.825  0.6867  0.8988  1.7618
  479MOL0     H66056  11.320   5.409   4.041 -1.5672 -1.1874  0.1445
  479MOL0     H66057  11.309   5.253   4.121 -1.1123  1.1999  0.2639
  479MOL0     H66058  11.536   5.361   4.162 -1.0671  0.5544  0.8337
  479MOL0     H66059  11.543   5.211   4.067  0.4583  0.7073 -1.7117
  479MOL0     H66060  11.604   5.637   3.921 -0.8812  0.5747  0.5024
  479MOL0     H66061  11.699   5.834   3.915 -0.2062  0.4692  0.6040
  479MOL0     H66062  11.872   5.845   3.887  2.3736 -0.0950  2.5562
  479MOL0     H66063  11.815   5.860   4.055  0.2169 -2.4249  1.0072
  479MOL0     H66064  11.993   5.991   4.169  0.0296  1.9961  0.4796
  479MOL0     H66065  12.143   6.143   4.289 -0.0638 -0.0696  0.0986
  479MOL0     H66066  12.527   6.197   4.452  0.1200  0.5979 -0.6289
  479MOL0     H66067  12.544   6.015   4.421  1.2962  0.8546  2.3192
  479MOL0     H66068  12.582   6.095   4.170  1.0352 -0.1783  0.9781
  479MOL0     H66069  12.560   6.261   4.237 -0.7709  0.5556  3.5359
  479MOL0     H66070  12.807   6.104   4.232 -0.2463  1.6065 -1.7861
  479MOL0     H66071  12.753   6.116   4.398 -2.6453 -0.2329  1.1236
  479MOL0     H66072  12.781   6.364   4.396 -0.3236 -0.3307 -1.5252
  479MOL0     H66073  12.783   6.381   4.225 -1.7678 -0.2652  0.3496
  479MOL0     H66074  12.983   6.212   4.374 -1.2084 -0.5897 -1.1962
  479MOL0     H66075  12.989   6.271   4.201  0.7028 -2.8596 -0.5735
  479MOL0     H66076  13.044   6.423   4.459  3.3213  1.2335 -0.7575
  479MOL0     H66077  12.990   6.500   4.314 -1.3415  0.3357  1.4208
  479MOL0     H66078  13.203   6.426   4.196 -1.1906 -1.9636 -1.2023
  479MOL0     H66079  13.222   6.288   4.293  2.8781  0.2420  2.7749
  479MOL0     H66080  13.285   6.413   4.495 -0.3887  1.6218 -0.0996
  479MOL0     H66081  13.266   6.567   4.400 -1.0760  0.2628 -1.4827
  479MOL0     H66082  12.480   5.876   4.220 -0.2830  0.3760  1.8031
  479MOL0     H66083  12.328   5.744   4.071 -0.8688 -1.4441  2.5416
  479MOL0     H66084  11.993   5.388   4.101 -0.0986  0.8448  0.1463
  479MOL0     H66085  11.788   5.273   4.044 -4.7944  0.4316  3.7716
  479MOL0     H66086   9.859   4.779   4.348 -0.3242  2.1597  1.4399
  479MOL0     H66087   9.625   4.802   4.371  1.0437  0.2959  0.2389
  479MOL0     H66088   9.217   4.836   4.289 -1.5378 -1.2041  0.2546
  479MOL0     H66089   8.966   4.788   4.257  1.6098 -1.3802 -1.6380
  479MOL0     H66090   8.720   5.027   3.986 -0.1627  0.4574 -2.0340
  479MOL0     H66091   8.770   4.891   3.894 -1.8828  0.1342 -0.4645
  479MOL0     H66092   8.536   4.870   3.936 -0.4062 -1.3936 -1.0683
  479MOL0     H66093   8.556   4.912   4.110 -0.1450  0.5619 -1.1401
  479MOL0     H66094   8.709   4.664   4.024 -0.5545  1.1013 -2.3738
  479MOL0     H66095   8.604   4.699   4.160  0.9451 -0.2590  0.1809
  479MOL0     H66096   8.401   4.646   4.034  0.9386  0.6046 -0.0285
  479MOL0     H66097   8.525   4.514   4.038  0.2904 -0.2600 -0.1444
  479MOL0     H66098   8.534   4.630   3.632  3.9821 -1.3931  0.1152
  479MOL0     H66099   8.944   5.074   3.948 -0.7381 -2.5961 -0.4152
  479MOL0     H66100   9.138   5.175   3.876 -1.3418  0.3412  1.8818
  479MOL0     H66101   9.218   5.266   4.008  0.4141  0.6241 -1.4100
  479MOL0     H66102   9.297   5.134   3.918 -0.6017 -1.4816  0.2453
  480MOL0     O66103   2.268   4.892   0.598  0.0142 -0.4685  0.3181
  480MOL0     C66104   2.157   4.943   0.599  0.8383 -0.2870 -0.5699
  480MOL0     O66105   2.098   5.007   0.713 -0.3490  0.6179  0.3477
  480MOL0     C66106   2.142   4.990   0.845 -0.2742 -0.8404  0.4788
  480MOL0     C66107   2.214   4.885   0.904  0.4735  0.0931  0.1451
  480MOL0     C66108   2.251   4.883   1.043  0.8781 -0.6586 -0.5691
  480MOL0     C66109   2.208   4.993   1.122  0.0542 -0.3092  0.6444
  480MOL0     O66110   2.230   5.007   1.257 -0.3598 -0.3080 -0.2871
  480MOL0     C66111   2.350   4.954   1.319  0.2964  0.3880 -0.3638
  480MOL0     C66112   2.303   4.823   1.370 -0.6030  0.7122  0.1602
  480MOL0     C66113   2.427   4.727   1.396  0.1316  0.2134  0.1456
  480MOL0     C66114   2.508   4.672   1.271  0.2798 -0.1797  0.6090
  480MOL0     C66115   2.640   4.613   1.305 -0.9407  0.3580  0.0027
  480MOL0     C66116   2.630   4.484   1.403 -0.0882  0.0773 -0.0027
  480MOL0     C66117   2.775   4.424   1.423 -1.0033 -0.8454 -0.2559
  480MOL0     C66118   2.787   4.315   1.538 -0.1704  0.4609 -1.0108
  480MOL0     N66119   2.767   4.367   1.673 -0.1609 -0.4616 -1.2148
  480MOL0     C66120   2.861   4.430   1.756 -0.0488 -0.0978  0.1591
  480MOL0     C66121   2.799   4.453   1.871 -0.2011  0.2928 -0.3823
  480MOL0     C66122   2.869   4.499   1.995 -0.1426 -0.2852 -0.4209
  480MOL0     C66123   3.006   4.437   2.030 -0.0439  0.3611  0.4377
  480MOL0     C66124   3.055   4.514   2.159  0.6213  0.1126  0.2821
  480MOL0     C66125   3.167   4.435   2.225 -0.5736  0.2193 -0.0071
  480MOL0     O66126   3.282   4.444   2.138  0.8690 -0.3247  0.0121
  480MOL0     C66127   3.359   4.558   2.128 -0.4447 -0.7352 -0.1130
  480MOL0     C66128   3.350   4.670   2.214 -0.1021  0.1341 -0.1244
  480MOL0     C66129   3.427   4.782   2.187  0.0972  0.3722  0.3761
  480MOL0     C66130   3.417   4.889   2.282  0.0338 -0.0985  0.2298
  480MOL0     C66131   3.517   4.782   2.075 -0.5396  0.1636 -0.5781
  480MOL0     C66132   3.619   4.886   2.051  0.0650 -0.0594 -0.5919
  480MOL0     O66133   3.737   4.840   2.001 -0.5353 -0.7189  0.1251
  480MOL0     C66134   3.830   4.931   1.952  0.3816  0.5129 -0.0884
  480MOL0     C66135   3.903   5.004   2.039 -0.1732 -0.2543 -0.2711
  480MOL0     C66136   4.003   5.089   2.000  0.2997 -0.0122 -0.5084
  480MOL0     C66137   4.035   5.108   1.864  0.2576 -0.4050  0.3568
  480MOL0     O66138   4.132   5.178   1.796 -0.1020  0.3179 -0.1775
  480MOL0     C66139   4.258   5.196   1.859 -0.2773  0.2347 -0.1071
  480MOL0     C66140   4.281   5.320   1.923 -0.5295  0.0169 -0.1462
  480MOL0     C66141   4.408   5.326   2.016 -0.4469  0.3620  0.4866
  480MOL0     C66142   4.460   5.470   2.033  0.5583  0.0190 -0.0087
  480MOL0     C66143   4.573   5.479   2.136  0.1369 -0.6552 -0.1435
  480MOL0     C66144   4.668   5.609   2.125  0.1323 -0.9893 -0.6892
  480MOL0     C66145   4.781   5.614   2.231  0.2382  0.6963 -0.0145
  480MOL0     C66146   4.898   5.703   2.177  0.4917  0.0559  0.3056
  480MOL0    Cl66147   5.041   5.701   2.288 -0.2550 -0.3550  0.1842
  480MOL0     C66148   3.950   5.036   1.776  0.8883  1.4222  0.4057
  480MOL0     C66149   3.846   4.947   1.815  0.5167  0.4079 -0.1267
  480MOL0     O66150   3.601   5.001   2.103  0.2563  0.3137 -0.2370
  480MOL0     C66151   3.518   4.668   1.993  0.0305  0.1601 -0.5078
  480MOL0     C66152   3.441   4.554   2.021 -0.5116  0.1846  0.8528
  480MOL0     N66153   2.671   4.398   1.868 -0.2004  0.3889 -0.1158
  480MOL0     N66154   2.650   4.355   1.745  0.0725  0.2781  0.1425
  480MOL0     C66155   2.126   5.093   1.060  0.3487 -0.1556  0.3616
  480MOL0     C66156   2.106   5.098   0.925  0.2911  0.4699  0.4063
  480MOL0     C66157   2.083   4.951   0.474 -0.4783  0.0632  0.7406
  480MOL0     C66158   1.953   4.912   0.484  0.4712 -0.5428  0.1026
  480MOL0     C66159   1.872   4.921   0.370  0.1076  0.9359 -1.0721
  480MOL0     C66160   1.916   4.982   0.250 -0.6348 -0.2036  0.0520
  480MOL0     O66161   1.843   4.987   0.133  0.3787 -0.1900 -0.1702
  480MOL0     C66162   1.753   5.104   0.131 -0.4654 -0.6350  0.5428
  480MOL0     C66163   1.726   5.134  -0.015 -0.4170 -0.0812 -0.1259
  480MOL0     C66164   1.578   5.166  -0.047 -0.8000 -1.1578 -0.4260
  480MOL0     C66165   1.533   5.145  -0.185 -0.5002 -0.1077  1.2622
  480MOL0     C66166   1.392   5.164  -0.216  0.1665 -0.3317  0.2763
  480MOL0     C66167   1.267   5.166  -0.232 -0.5185  0.0060 -0.0723
  480MOL0     C66168   2.051   5.020   0.249 -0.0144  0.2892  0.1049
  480MOL0     C66169   2.139   5.000   0.354  0.3826  0.1284 -0.2904
  480MOL0     C66170   2.281   5.032   0.332  0.2679 -0.5483  0.4637
  480MOL0     H66171   2.247   4.796   0.853 -0.9566 -0.7957  0.7160
  480MOL0     H66172   2.309   4.802   1.085 -0.6984 -0.5706  1.9810
  480MOL0     H66173   2.388   5.013   1.403 -0.3705  0.6682 -0.2464
  480MOL0     H66174   2.423   4.943   1.239  0.9335  2.3752 -0.1010
  480MOL0     H66175   2.239   4.841   1.457 -0.5248  0.0919  0.3550
  480MOL0     H66176   2.239   4.775   1.296  0.7911 -3.5593  1.4188
  480MOL0     H66177   2.490   4.779   1.468 -1.4577 -0.1304  1.8709
  480MOL0     H66178   2.389   4.645   1.459  0.8572  1.0302  1.7033
  480MOL0     H66179   2.465   4.592   1.210  4.0541  0.2757 -3.1620
  480MOL0     H66180   2.525   4.760   1.208  3.3872 -1.1412 -0.0664
  480MOL0     H66181   2.706   4.686   1.355 -1.0180 -0.1696  0.8952
  480MOL0     H66182   2.705   4.591   1.220 -2.7554 -0.3372 -1.2544
  480MOL0     H66183   2.580   4.502   1.499  2.9039 -1.0502  1.9212
  480MOL0     H66184   2.576   4.401   1.356  1.9386 -1.3945  0.1182
  480MOL0     H66185   2.845   4.506   1.437 -1.4398 -0.6812  1.0756
  480MOL0     H66186   2.812   4.384   1.328 -0.4954 -0.2133 -0.3279
  480MOL0     H66187   2.703   4.246   1.527 -1.3774  1.5746  0.6769
  480MOL0     H66188   2.887   4.269   1.538 -0.3947 -0.0298 -0.4092
  480MOL0     H66189   2.965   4.449   1.731 -0.3308 -1.6333 -2.6777
  480MOL0     H66190   2.807   4.499   2.084 -1.2991  0.7891 -1.1963
  480MOL0     H66191   2.881   4.606   1.974 -1.0730  0.2737  1.6693
  480MOL0     H66192   3.008   4.330   2.053  3.5227 -0.1513 -1.4860
  480MOL0     H66193   3.078   4.453   1.949  1.9119  0.5680  2.1102
  480MOL0     H66194   3.078   4.620   2.144 -4.6238  1.3457 -1.2365
  480MOL0     H66195   2.969   4.513   2.226 -1.4296 -3.2355 -2.0823
  480MOL0     H66196   3.200   4.485   2.317  1.1342  0.9669 -0.9987
  480MOL0     H66197   3.135   4.333   2.252 -0.1765  0.6894  2.4580
  480MOL0     H66198   3.285   4.674   2.301 -3.0998 -0.3868 -2.1559
  480MOL0     H66199   3.350   4.878   2.368  0.6918  1.6002  0.9864
  480MOL0     H66200   3.381   4.978   2.230  0.5685  0.2854  0.5215
  480MOL0     H66201   3.516   4.913   2.322  0.3726  0.7862 -1.0767
  480MOL0     H66202   3.888   4.983   2.145 -0.0638  1.0293  0.0139
  480MOL0     H66203   4.072   5.134   2.071 -1.1288 -0.4366  1.2111
  480MOL0     H66204   4.280   5.110   1.923  1.6909 -0.7417 -1.9785
  480MOL0     H66205   4.335   5.198   1.781 -0.5057 -0.3794 -0.3484
  480MOL0     H66206   4.287   5.402   1.852  1.5195  0.6675  0.7037
  480MOL0     H66207   4.195   5.328   1.991 -0.2958 -1.3197  0.3412
  480MOL0     H66208   4.486   5.264   1.970  1.0432 -0.1664  3.4675
  480MOL0     H66209   4.390   5.271   2.108  1.8266 -0.7741  0.3435
  480MOL0     H66210   4.374   5.527   2.069  1.2158  1.0747 -0.0641
  480MOL0     H66211   4.500   5.494   1.935 -0.8527  0.1662 -0.5728
  480MOL0     H66212   4.547   5.461   2.241  1.8212  1.6226  0.7473
  480MOL0     H66213   4.633   5.391   2.110  0.9255 -1.0363  2.6201
  480MOL0     H66214   4.604   5.698   2.123  0.0234 -1.0490  0.0801
  480MOL0     H66215   4.698   5.615   2.020 -0.9155  2.2656 -0.8927
  480MOL0     H66216   4.806   5.510   2.253 -2.2928 -0.0210 -0.2102
  480MOL0     H66217   4.735   5.648   2.325  1.9158 -1.4689  1.7097
  480MOL0     H66218   4.858   5.804   2.165  1.3592  0.3800  0.1067
  480MOL0     H66219   4.925   5.661   2.080  0.5916 -0.7667  0.6772
  480MOL0     H66220   3.980   5.047   1.672 -0.2357  1.9933  0.1161
  480MOL0     H66221   3.789   4.887   1.744  0.7319  0.3980 -0.2892
  480MOL0     H66222   3.580   4.663   1.904 -1.1763 -1.4364 -1.3123
  480MOL0     H66223   3.436   4.462   1.963 -1.5458  1.1088 -0.5766
  480MOL0     H66224   2.099   5.178   1.122 -1.1030 -0.1446 -0.2543
  480MOL0     H66225   2.036   5.171   0.886  2.2307  1.6985 -0.9820
  480MOL0     H66226   1.911   4.867   0.573  1.7207  0.4289  1.2179
  480MOL0     H66227   1.768   4.891   0.376  1.1015 -2.7119  2.2204
  480MOL0     H66228   1.659   5.080   0.181 -0.3478  0.9633  1.5783
  480MOL0     H66229   1.785   5.194   0.183  0.8667  0.1383 -1.4763
  480MOL0     H66230   1.747   5.044  -0.074 -1.5090 -0.7124  0.4193
  480MOL0     H66231   1.790   5.219  -0.043  2.1821 -1.8795 -0.0327
  480MOL0     H66232   1.504   5.113   0.015 -0.6157  1.6431  2.4485
  480MOL0     H66233   1.557   5.271  -0.024 -0.1991 -0.5440 -2.5212
  480MOL0     H66234   1.557   5.046  -0.224 -3.3786 -1.0757  1.6762
  480MOL0     H66235   1.583   5.221  -0.246 -0.7332 -1.3981 -0.6437
  480MOL0     H66236   1.162   5.156  -0.252 -0.3226 -1.5042 -0.4975
  480MOL0     H66237   2.093   5.061   0.157  2.4115 -0.8107  0.6321
  480MOL0     H66238   2.308   5.104   0.410  1.0830 -0.7342  0.3713
  480MOL0     H66239   2.331   4.935   0.340 -1.0798 -1.4064 -0.9569
  480MOL0     H66240   2.291   5.081   0.234 -0.7260  2.1916  1.6288
  481MOL0     O66241   4.875   7.269   1.940  0.1780 -0.9163 -0.1410
  481MOL0     C66242   4.770   7.242   1.885  0.1521 -0.2372  0.0958
  481MOL0     O66243   4.725   7.290   1.762  0.1398 -0.5834 -0.7552
  481MOL0     C66244   4.817   7.344   1.675 -0.1721  0.2499 -0.6303
  481MOL0     C66245   4.906   7.447   1.703 -0.1515 -0.8076  0.9155
  481MOL0     C66246   4.995   7.488   1.608  0.5013 -0.5759 -0.0311
  481MOL0     C66247   4.988   7.431   1.479 -0.6660  0.8280 -0.8535
  481MOL0     O66248   5.093   7.443   1.388 -0.0274 -0.7294  0.6380
  481MOL0     C66249   5.225   7.409   1.429  0.2126 -0.0543 -1.1715
  481MOL0     C66250   5.336   7.425   1.336  0.9533 -0.6912 -0.1713
  481MOL0     C66251   5.324   7.563   1.260 -0.2487  0.7295 -0.1591
  481MOL0     C66252   5.431   7.604   1.165 -0.1451 -1.1991  0.3512
  481MOL0     C66253   5.413   7.752   1.109  0.0376  0.7625  0.7425
  481MOL0     C66254   5.490   7.782   0.988 -0.5070  0.1104  0.4011
  481MOL0     C66255   5.635   7.739   0.988 -0.4487 -0.2942 -0.0222
  481MOL0     C66256   5.702   7.803   1.112 -0.1078 -0.5015 -0.1354
  481MOL0     N66257   5.843   7.766   1.114  0.1704 -0.3166  0.9269
  481MOL0     C66258   5.946   7.845   1.079 -0.7374 -0.1760 -0.1702
  481MOL0     C66259   6.061   7.770   1.092 -0.0278 -0.1443 -0.0198
  481MOL0     C66260   6.192   7.818   1.064 -0.0795  0.0201 -0.5029
  481MOL0     C66261   6.232   7.920   1.172 -0.8239 -0.6644  0.7147
  481MOL0     C66262   6.362   7.977   1.107 -0.9245  0.8401  0.0057
  481MOL0     C66263   6.418   8.091   1.185 -0.7245  0.2991 -1.1842
  481MOL0     O66264   6.530   8.140   1.112  0.0384 -1.2192 -0.5665
  481MOL0     C66265   6.608   8.246   1.153 -0.3730  0.2503  0.3102
  481MOL0     C66266   6.731   8.238   1.105  0.3261  0.1297  0.0157
  481MOL0     C66267   6.838   8.323   1.136  1.2497  0.1624 -0.6304
  481MOL0     C66268   6.972   8.300   1.062 -0.4927 -0.2796 -0.3422
  481MOL0     C66269   6.814   8.429   1.229 -0.8713 -0.2082  0.8944
  481MOL0     C66270   6.917   8.541   1.261  1.2276  0.3441  0.1679
  481MOL0     O66271   7.052   8.516   1.246 -0.6162 -0.0710  0.2749
  481MOL0     C66272   7.140   8.605   1.298  0.1317 -0.3950  0.0183
  481MOL0     C66273   7.130   8.747   1.281  0.8028  0.1236 -1.1791
  481MOL0     C66274   7.214   8.831   1.345  0.1743 -0.4120  0.2739
  481MOL0     C66275   7.319   8.775   1.408 -0.5121  1.0285  0.9841
  481MOL0     O66276   7.435   8.836   1.443  0.2077 -0.8070 -0.5598
  481MOL0     C66277   7.456   8.976   1.399 -0.0573  0.2623  0.0749
  481MOL0     C66278   7.611   9.008   1.397  0.5614 -0.7820 -0.0467
  481MOL0     C66279   7.622   9.155   1.365  0.2029 -0.5990  0.1431
  481MOL0     C66280   7.763   9.204   1.340  0.3236  0.8887 -0.4088
  481MOL0     C66281   7.772   9.351   1.316 -0.8013  0.0311  0.2777
  481MOL0     C66282   7.907   9.386   1.252 -0.3852  0.2099  0.3309
  481MOL0     C66283   7.924   9.533   1.240 -1.0168  0.7419 -0.3978
  481MOL0     C66284   8.072   9.577   1.212 -0.0646  0.4466  0.4878
  481MOL0    Cl66285   8.186   9.535   1.346 -0.2462  0.1518 -0.3897
  481MOL0     C66286   7.327   8.636   1.440  0.0436 -0.3401  0.4895
  481MOL0     C66287   7.229   8.555   1.388 -0.2845  0.5508 -0.5080
  481MOL0     O66288   6.874   8.638   1.318 -0.0337 -0.5108  0.0856
  481MOL0     C66289   6.681   8.438   1.286  0.0849  0.3455 -1.1226
  481MOL0     C66290   6.583   8.342   1.254  0.8495  0.7593  0.0241
  481MOL0     N66291   6.021   7.648   1.135 -0.4874  0.0583 -0.3750
  481MOL0     N66292   5.895   7.648   1.151  0.8032 -0.1542 -0.4696
  481MOL0     C66293   4.892   7.333   1.450 -0.1723 -0.7691  0.2189
  481MOL0     C66294   4.805   7.296   1.554 -0.3599 -1.2965  0.0079
  481MOL0     C66295   4.674   7.139   1.944  0.2230  0.4124  0.5176
  481MOL0     C66296   4.565   7.100   1.872 -0.4637  0.1997 -0.4910
  481MOL0     C66297   4.464   7.020   1.920  0.2854 -0.3190  1.0691
  481MOL0     C66298   4.471   6.969   2.040 -1.1097  0.1338 -0.0260
  481MOL0     O66299   4.371   6.884   2.070 -0.9972  0.7593 -0.1280
  481MOL0     C66300   4.333   6.895   2.213  0.6009  0.4144  1.1103
  481MOL0     C66301   4.202   6.830   2.251  0.1276 -0.0034 -0.0374
  481MOL0     C66302   4.231   6.733   2.372  0.0661 -0.8037 -0.0330
  481MOL0     C66303   4.109   6.691   2.448  0.0069  0.1626 -0.6456
  481MOL0     C66304   4.031   6.590   2.378  0.0070 -0.0957  0.1023
  481MOL0     C66305   3.954   6.504   2.335 -0.2522 -0.4739  0.8099
  481MOL0     C66306   4.589   6.991   2.120  0.3465  0.1204 -0.4531
  481MOL0     C66307   4.688   7.076   2.077  0.3236  0.8550  0.4071
  481MOL0     C66308   4.813   7.091   2.159 -0.5140  0.2258 -0.1171
  481MOL0     H66309   4.903   7.478   1.807  0.5128  0.5446  0.5630
  481MOL0     H66310   5.072   7.560   1.634  0.8196 -0.4531 -1.2485
  481MOL0     H66311   5.224   7.305   1.461  0.3747  0.4011  0.3994
  481MOL0     H66312   5.257   7.471   1.514 -1.7995  1.3796 -1.3928
  481MOL0     H66313   5.421   7.409   1.403 -0.1877  1.8391  2.1070
  481MOL0     H66314   5.345   7.348   1.260  3.5848 -1.1785  0.5340
  481MOL0     H66315   5.232   7.553   1.202 -0.0937 -2.1672 -0.0712
  481MOL0     H66316   5.313   7.631   1.345  2.5296  0.5881  0.4106
  481MOL0     H66317   5.526   7.599   1.219  0.4025 -1.5462 -0.6103
  481MOL0     H66318   5.426   7.539   1.076  2.3621 -1.2472  0.1838
  481MOL0     H66319   5.431   7.825   1.188  0.2637  0.7897  0.6660
  481MOL0     H66320   5.310   7.765   1.075  0.2499 -1.0755 -0.7687
  481MOL0     H66321   5.432   7.741   0.905 -2.6043 -0.0049  1.8465
  481MOL0     H66322   5.484   7.889   0.968 -1.8021 -0.0847 -0.3600
  481MOL0     H66323   5.681   7.783   0.899 -3.2316  0.2938 -1.3052
  481MOL0     H66324   5.641   7.630   0.992  1.5488 -0.2410  4.7867
  481MOL0     H66325   5.690   7.911   1.111  1.4876 -0.3077 -1.1084
  481MOL0     H66326   5.653   7.754   1.196  2.5271 -3.8686 -0.3005
  481MOL0     H66327   5.937   7.948   1.045  1.5434 -0.0596 -0.5763
  481MOL0     H66328   6.181   7.863   0.965 -3.7542 -1.5112 -0.9407
  481MOL0     H66329   6.257   7.730   1.068 -0.8600 -0.6429 -1.6364
  481MOL0     H66330   6.163   8.003   1.190  1.7032  1.9406 -0.7821
  481MOL0     H66331   6.261   7.871   1.265  0.9266  0.2299  0.6886
  481MOL0     H66332   6.437   7.898   1.102 -2.1747 -0.3126 -1.7061
  481MOL0     H66333   6.349   8.018   1.006 -0.4228  0.2318 -0.3105
  481MOL0     H66334   6.342   8.169   1.200 -2.8939 -2.1132  1.7586
  481MOL0     H66335   6.450   8.059   1.285 -2.5185 -0.0603 -0.6747
  481MOL0     H66336   6.748   8.147   1.049 -2.6742 -0.1298 -0.6492
  481MOL0     H66337   7.051   8.293   1.136 -1.4169 -0.2845  0.6671
  481MOL0     H66338   6.986   8.383   0.993 -2.5207  1.0144  0.7147
  481MOL0     H66339   6.970   8.205   1.006  1.9193  0.4294 -1.7937
  481MOL0     H66340   7.057   8.780   1.208  0.1963 -2.6470 -1.9202
  481MOL0     H66341   7.219   8.939   1.345 -0.6034 -0.3727 -0.5894
  481MOL0     H66342   7.438   8.988   1.292  1.8071 -0.9994 -0.4322
  481MOL0     H66343   7.404   9.042   1.469 -1.8791  1.3632 -2.1996
  481MOL0     H66344   7.652   8.996   1.498  2.1803  1.5917 -0.3463
  481MOL0     H66345   7.663   8.939   1.330 -0.0195 -2.0035  0.7152
  481MOL0     H66346   7.583   9.214   1.448  2.0063  1.1429 -0.1635
  481MOL0     H66347   7.557   9.175   1.279  0.6784 -3.1378 -0.8936
  481MOL0     H66348   7.797   9.150   1.251 -1.4010 -0.8453 -0.0946
  481MOL0     H66349   7.826   9.176   1.424 -1.8544 -1.0894  0.6946
  481MOL0     H66350   7.683   9.379   1.258 -0.9908 -2.9835 -1.0415
  481MOL0     H66351   7.772   9.402   1.412  1.9288  3.0861 -1.1468
  481MOL0     H66352   7.917   9.340   1.153 -0.5912 -0.3494  0.5649
  481MOL0     H66353   7.996   9.348   1.304  0.0227 -0.1348 -0.6016
  481MOL0     H66354   7.885   9.573   1.334 -2.3219  1.4641 -1.2088
  481MOL0     H66355   7.855   9.566   1.161 -2.5178 -2.1387 -0.4394
  481MOL0     H66356   8.060   9.685   1.201 -2.6816  0.2424  0.7875
  481MOL0     H66357   8.098   9.526   1.118 -0.8921  0.1187  0.4327
  481MOL0     H66358   7.410   8.589   1.491  2.0595 -0.7588 -2.8768
  481MOL0     H66359   7.224   8.446   1.393 -1.1408  0.5297 -1.4513
  481MOL0     H66360   6.645   8.516   1.353 -1.1636 -2.7138  2.0471
  481MOL0     H66361   6.482   8.337   1.295  0.3401  1.5938 -1.0651
  481MOL0     H66362   4.880   7.293   1.349 -3.2398 -2.4639  1.1465
  481MOL0     H66363   4.724   7.230   1.524 -0.8589 -0.3041 -0.8932
  481MOL0     H66364   4.561   7.134   1.769 -1.5896 -0.1024 -0.5496
  481MOL0     H66365   4.378   6.985   1.864 -0.6219 -2.1002  3.3993
  481MOL0     H66366   4.408   6.846   2.275  3.4752  2.4346 -0.5225
  481MOL0     H66367   4.331   7.002   2.236  0.1093  0.7595 -0.3882
  481MOL0     H66368   4.169   6.762   2.171 -1.9063  0.6393  0.1981
  481MOL0     H66369   4.129   6.901   2.289 -0.6396 -0.6089 -0.3445
  481MOL0     H66370   4.273   6.646   2.321 -1.0098 -1.2298 -0.2156
  481MOL0     H66371   4.301   6.778   2.442 -2.1496 -0.6784  2.2509
  481MOL0     H66372   4.040   6.774   2.467  0.8367  1.1937 -1.9253
  481MOL0     H66373   4.148   6.653   2.542 -1.1864 -1.4500 -0.7678
  481MOL0     H66374   3.901   6.424   2.288  1.4597 -1.8784  1.1542
  481MOL0     H66375   4.596   6.954   2.221  0.8959  1.7689  0.1399
  481MOL0     H66376   4.820   7.022   2.244  0.5776  0.3434 -0.0860
  481MOL0     H66377   4.898   7.072   2.092  1.0605  1.5825  1.3908
  481MOL0     H66378   4.829   7.190   2.203 -0.7473  0.0182  0.4457
  482MOL0     O66379  10.706   0.180   0.032 -0.2473 -0.0355 -0.4394
  482MOL0     C66380  10.724   0.069  -0.023 -0.2205 -0.3645 -0.9631
  482MOL0     O66381  10.851   0.012  -0.048  0.2888 -0.1509  0.6698
  482MOL0     C66382  10.961   0.064   0.017  0.0470  0.1720 -0.2911
  482MOL0     C66383  11.077  -0.005  -0.010 -0.7787 -0.2076 -0.4862
  482MOL0     C66384  11.201   0.025   0.046 -0.3646 -0.3463 -0.2219
  482MOL0     C66385  11.213   0.125   0.142  0.3068  0.0306  1.8409
  482MOL0     O66386  11.328   0.179   0.203 -0.5231  0.4269 -0.2425
  482MOL0     C66387  11.451   0.165   0.131 -0.4258  0.3484  0.2780
  482MOL0     C66388  11.527   0.027   0.154 -0.1291  1.1303 -0.5038
  482MOL0     C66389  11.630   0.009   0.040  0.4224  0.1675  0.6011
  482MOL0     C66390  11.730  -0.115   0.051 -0.4250  0.1627  0.0223
  482MOL0     C66391  11.809  -0.152  -0.072 -0.0183 -0.6121 -0.0240
  482MOL0     C66392  11.873  -0.036  -0.141  0.2324  0.1749  0.4351
  482MOL0     C66393  11.968  -0.089  -0.245 -0.9241 -0.3519  0.1213
  482MOL0     C66394  12.034   0.015  -0.334  0.7842 -0.9012  0.6319
  482MOL0     N66395  12.114  -0.036  -0.438  0.3584  0.2539  0.6405
  482MOL0     C66396  12.148  -0.165  -0.474 -0.1445  0.1569  0.5775
  482MOL0     C66397  12.220  -0.148  -0.589 -0.1089 -0.1730  0.1301
  482MOL0     C66398  12.286  -0.266  -0.660 -0.0134 -0.3376  0.8985
  482MOL0     C66399  12.443  -0.256  -0.655  0.0883 -0.5673  0.0118
  482MOL0     C66400  12.511  -0.328  -0.774 -0.6469 -0.4680 -0.0299
  482MOL0     C66401  12.656  -0.286  -0.780  0.6916  0.1755  0.1709
  482MOL0     O66402  12.725  -0.304  -0.649  0.3856  0.1487  0.6584
  482MOL0     C66403  12.855  -0.283  -0.649  0.1271 -0.6591  0.2842
  482MOL0     C66404  12.932  -0.219  -0.742 -0.1745 -0.0513  0.4800
  482MOL0     C66405  13.071  -0.200  -0.721 -0.3046 -0.1580 -0.2633
  482MOL0     C66406  13.137  -0.103  -0.816 -0.1031 -0.1008  0.3430
  482MOL0     C66407  13.134  -0.262  -0.608 -0.6511  0.4581 -0.0133
  482MOL0     C66408  13.289  -0.258  -0.573  0.1175 -0.4351  0.6527
  482MOL0     O66409  13.329  -0.348  -0.481  0.1889  0.1467  0.3533
  482MOL0     C66410  13.453  -0.321  -0.424  0.2055  0.4328  0.2978
  482MOL0     C66411  13.463  -0.256  -0.298  0.2535  1.0828  0.7371
  482MOL0     C66412  13.581  -0.237  -0.240 -0.0710 -0.1018 -0.5966
  482MOL0     C66413  13.700  -0.281  -0.295  0.9206  0.5857 -0.0256
  482MOL0     O66414  13.806  -0.266  -0.212 -0.6337 -0.3793  0.2500
  482MOL0     C66415  13.939  -0.288  -0.282 -0.6431  0.0589 -0.1812
  482MOL0     C66416  14.049  -0.267  -0.188 -0.6294  0.5216 -0.3212
  482MOL0     C66417  14.025  -0.361  -0.060 -0.4246 -0.9386 -0.1135
  482MOL0     C66418  14.156  -0.405   0.003  0.5717 -0.5627  0.3742
  482MOL0     C66419  14.122  -0.528   0.074  0.2037  0.6968 -0.1259
  482MOL0     C66420  14.237  -0.596   0.133 -0.3156  0.2027 -0.1541
  482MOL0     C66421  14.316  -0.681   0.026  0.3986  0.0917  0.2085
  482MOL0     C66422  14.402  -0.787   0.096  0.0922  0.3390  0.6523
  482MOL0    Cl66423  14.516  -0.714   0.207 -0.6598 -0.1738 -0.0561
  482MOL0     C66424  13.691  -0.344  -0.425  0.0223  0.4861 -0.5323
  482MOL0     C66425  13.571  -0.364  -0.489  0.5794 -0.7873  0.5714
  482MOL0     O66426  13.361  -0.174  -0.632  0.1258  0.3202 -0.2115
  482MOL0     C66427  13.047  -0.336  -0.523  0.3682  0.1905  0.2124
  482MOL0     C66428  12.912  -0.342  -0.543  0.0409  0.0921  0.3088
  482MOL0     N66429  12.239  -0.015  -0.623  0.3171  0.0063  0.3255
  482MOL0     N66430  12.171   0.048  -0.528 -0.5218 -0.6144  1.4073
  482MOL0     C66431  11.094   0.188   0.175 -0.7929 -0.3566 -0.2676
  482MOL0     C66432  10.972   0.159   0.122  0.1066  0.0489  0.4872
  482MOL0     C66433  10.606  -0.002  -0.064  0.2805  0.8586  0.4912
  482MOL0     C66434  10.624  -0.109  -0.155  0.0121  0.4622 -0.2956
  482MOL0     C66435  10.516  -0.189  -0.202  0.9680  0.5183  0.9154
  482MOL0     C66436  10.386  -0.159  -0.161  0.3760 -0.2561  0.1246
  482MOL0     O66437  10.266  -0.219  -0.203  1.1598  0.0639  0.4679
  482MOL0     C66438  10.265  -0.331  -0.293 -0.7771 -0.2428 -0.1097
  482MOL0     C66439  10.275  -0.456  -0.199 -0.3388  0.5756 -0.8521
  482MOL0     C66440  10.311  -0.585  -0.270 -0.3489 -0.0856  0.0095
  482MOL0     C66441  10.182  -0.647  -0.332  0.3738  0.0829  0.3407
  482MOL0     C66442  10.211  -0.769  -0.410  0.5506  0.6935  0.1091
  482MOL0     C66443  10.221  -0.886  -0.449 -1.0537 -0.2894  0.0462
  482MOL0     C66444  10.369  -0.051  -0.072  0.1988  0.4975 -0.1350
  482MOL0     C66445  10.474   0.023  -0.019  0.1725 -0.3365  0.4505
  482MOL0     C66446  10.432   0.125   0.083  0.6866  0.7633 -0.0574
  482MOL0     H66447  11.073  -0.077  -0.092 -2.0641 -0.4899 -0.2005
  482MOL0     H66448  11.285  -0.030   0.006 -2.0680 -1.2281 -2.9132
  482MOL0     H66449  11.509   0.252   0.163 -1.8775  2.6904 -2.8358
  482MOL0     H66450  11.425   0.177   0.025  0.5698  1.9458  0.1860
  482MOL0     H66451  11.572   0.027   0.253 -1.2243 -0.2982  0.0274
  482MOL0     H66452  11.453  -0.053   0.157  1.4153 -0.4679 -2.4697
  482MOL0     H66453  11.580   0.007  -0.058 -2.4961 -0.3185  1.9956
  482MOL0     H66454  11.694   0.098   0.038  0.1641  0.3451 -0.1577
  482MOL0     H66455  11.805  -0.096   0.128  1.7731 -0.7434 -1.7773
  482MOL0     H66456  11.668  -0.201   0.080  0.4772  0.5152  3.3669
  482MOL0     H66457  11.742  -0.215  -0.130 -2.2607 -2.1215  3.7879
  482MOL0     H66458  11.899  -0.208  -0.042 -1.2532 -2.1024  1.0747
  482MOL0     H66459  11.800   0.030  -0.190 -0.8928 -0.9302  0.5707
  482MOL0     H66460  11.940   0.025  -0.081 -0.3654  2.1223 -0.7911
  482MOL0     H66461  11.913  -0.156  -0.311 -0.5278 -0.1276 -0.4384
  482MOL0     H66462  12.054  -0.137  -0.198  0.5814  2.7628  0.8432
  482MOL0     H66463  11.960   0.072  -0.391  1.7689 -0.6669 -0.4401
  482MOL0     H66464  12.101   0.088  -0.288 -0.5324  1.0206 -0.3774
  482MOL0     H66465  12.113  -0.264  -0.444 -1.5357  0.5119  0.2160
  482MOL0     H66466  12.254  -0.257  -0.764  1.7292  2.2922  0.5064
  482MOL0     H66467  12.246  -0.362  -0.625 -2.0072 -0.4036 -1.3164
  482MOL0     H66468  12.475  -0.152  -0.669 -0.4787 -0.4442 -0.4081
  482MOL0     H66469  12.481  -0.294  -0.560  1.2905  1.0953  0.2283
  482MOL0     H66470  12.508  -0.434  -0.748  1.3885 -0.5418  0.0647
  482MOL0     H66471  12.462  -0.297  -0.867 -2.3260 -1.3104  0.5268
  482MOL0     H66472  12.697  -0.346  -0.862 -0.9020 -0.7275 -0.0081
  482MOL0     H66473  12.659  -0.185  -0.821  1.4403  0.1044  0.0416
  482MOL0     H66474  12.881  -0.168  -0.824 -2.5390  1.8998  2.9998
  482MOL0     H66475  13.059  -0.053  -0.876  0.7489  0.1965 -0.5462
  482MOL0     H66476  13.200  -0.159  -0.885  0.8721  2.0797 -0.6295
  482MOL0     H66477  13.193  -0.029  -0.758 -3.2091  0.7778  2.4999
  482MOL0     H66478  13.370  -0.226  -0.251  0.3160 -0.1665  1.6961
  482MOL0     H66479  13.598  -0.189  -0.144  0.8103  0.3937 -0.9839
  482MOL0     H66480  13.929  -0.385  -0.332  0.3050  0.2749 -0.8070
  482MOL0     H66481  13.953  -0.207  -0.354 -1.6846  2.9262  2.5923
  482MOL0     H66482  14.144  -0.290  -0.237  1.0960  0.5295  2.7372
  482MOL0     H66483  14.051  -0.166  -0.146 -1.3213  1.5446 -2.6142
  482MOL0     H66484  13.968  -0.446  -0.097 -0.8786 -0.7224  0.0864
  482MOL0     H66485  13.964  -0.307   0.013  2.7053 -0.8609  2.7187
  482MOL0     H66486  14.202  -0.336   0.074  2.8578 -0.7317 -0.8622
  482MOL0     H66487  14.231  -0.425  -0.074 -0.3501 -3.9970  0.2116
  482MOL0     H66488  14.044  -0.504   0.147 -0.8145  0.9653 -1.2606
  482MOL0     H66489  14.076  -0.596   0.002  0.1720 -1.1774  1.5978
  482MOL0     H66490  14.195  -0.662   0.210  0.9500 -2.6647 -1.7698
  482MOL0     H66491  14.305  -0.521   0.176  0.0360 -0.0807 -0.2131
  482MOL0     H66492  14.378  -0.617  -0.038  1.8788 -1.6546 -0.1754
  482MOL0     H66493  14.240  -0.724  -0.039  0.5711  0.6857 -0.3985
  482MOL0     H66494  14.456  -0.836   0.014 -3.1494  2.7679 -3.3100
  482MOL0     H66495  14.351  -0.861   0.159 -1.5837  2.1923  1.5803
  482MOL0     H66496  13.778  -0.380  -0.480 -1.3120 -0.3580 -2.1954
  482MOL0     H66497  13.573  -0.421  -0.581  1.4469 -3.2431  2.0009
  482MOL0     H66498  13.079  -0.394  -0.438  0.4055 -2.0346 -1.2553
  482MOL0     H66499  12.858  -0.378  -0.456  2.4576  0.4261  2.0653
  482MOL0     H66500  11.087   0.249   0.264 -0.6420 -3.0780  1.7409
  482MOL0     H66501  10.883   0.208   0.161 -0.3225  0.3518 -0.8155
  482MOL0     H66502  10.725  -0.129  -0.190 -0.3294 -0.1517 -0.9498
  482MOL0     H66503  10.541  -0.270  -0.270 -0.3709  0.1325  0.8548
  482MOL0     H66504  10.168  -0.321  -0.342 -1.9456  0.5249  2.2265
  482MOL0     H66505  10.352  -0.331  -0.359  0.0112 -0.8377  0.9098
  482MOL0     H66506  10.175  -0.467  -0.156 -0.2654 -1.1864 -1.0791
  482MOL0     H66507  10.342  -0.438  -0.114 -0.1547 -3.7530  0.1217
  482MOL0     H66508  10.388  -0.568  -0.345 -0.0656 -0.2586  0.2576
  482MOL0     H66509  10.359  -0.654  -0.199  1.8532  2.6594  1.4143
  482MOL0     H66510  10.130  -0.582  -0.403 -3.3089 -0.9090  1.8756
  482MOL0     H66511  10.115  -0.661  -0.247 -1.2794  0.2107 -0.8956
  482MOL0     H66512  10.222  -0.988  -0.483 -0.1151 -0.5046  0.6829
  482MOL0     H66513  10.266  -0.032  -0.045  0.2902  1.3602 -0.3688
  482MOL0     H66514  10.492   0.101   0.171  1.8553  1.4714 -0.6366
  482MOL0     H66515  10.462   0.230   0.070  1.0283  0.9457  1.9296
  482MOL0     H66516  10.328   0.123   0.116 -0.0904  1.0686 -2.3065
  483MOL0     O66517   4.815   8.063   1.856  0.6943 -0.7964 -0.2664
  483MOL0     C66518   4.772   8.135   1.941 -0.1954 -0.3055 -0.6255
  483MOL0     O66519   4.634   8.151   1.972 -0.9262 -0.1459  0.4008
  483MOL0     C66520   4.550   8.090   1.895  0.3123  0.0189  0.2293
  483MOL0     C66521   4.446   8.028   1.963  0.4380  0.2224 -0.1853
  483MOL0     C66522   4.334   7.972   1.896 -0.1579  0.0977 -0.4790
  483MOL0     C66523   4.325   7.971   1.753 -0.1663 -0.4959 -0.6478
  483MOL0     O66524   4.211   7.928   1.680  0.6946  0.6999 -0.2592
  483MOL0     C66525   4.103   7.865   1.746  0.4433 -0.7335 -0.3282
  483MOL0     C66526   3.988   7.826   1.652 -0.3121  0.7849 -0.1979
  483MOL0     C66527   4.037   7.732   1.539 -0.3530  0.4934  0.0893
  483MOL0     C66528   3.937   7.672   1.449  1.0901  0.0317  0.0679
  483MOL0     C66529   3.982   7.573   1.342  0.0940  0.1057 -0.2034
  483MOL0     C66530   3.888   7.529   1.232  0.1721  0.2566  0.1020
  483MOL0     C66531   3.924   7.408   1.147  0.2873 -0.7327  0.1525
  483MOL0     C66532   4.068   7.384   1.133  0.0419  0.5576 -1.2095
  483MOL0     N66533   4.091   7.277   1.030 -0.1982  0.1519  0.5155
  483MOL0     C66534   4.160   7.300   0.908  0.3390  0.4277  0.2176
  483MOL0     C66535   4.140   7.177   0.850  0.3537  0.9382  0.1698
  483MOL0     C66536   4.211   7.129   0.732  1.1456 -0.5024  0.5424
  483MOL0     C66537   4.307   7.022   0.785  0.4807 -0.3470 -0.8375
  483MOL0     C66538   4.413   7.004   0.671 -0.7173  0.5249 -0.1025
  483MOL0     C66539   4.544   6.948   0.742 -0.5562 -0.8497  0.0438
  483MOL0     O66540   4.619   6.885   0.639 -0.3601 -0.0254  0.2993
  483MOL0     C66541   4.740   6.835   0.663 -0.4904  0.0710 -0.9786
  483MOL0     C66542   4.802   6.762   0.564 -0.0431 -1.1978 -0.6278
  483MOL0     C66543   4.932   6.718   0.565  0.0848 -0.1432 -0.3095
  483MOL0     C66544   4.994   6.679   0.433  0.3558  0.1874 -0.6416
  483MOL0     C66545   5.003   6.716   0.684 -0.0072 -0.3929 -0.1323
  483MOL0     C66546   5.133   6.654   0.705  0.2073 -0.1736 -0.0846
  483MOL0     O66547   5.163   6.526   0.648 -0.4568 -0.3665 -0.1381
  483MOL0     C66548   5.289   6.477   0.627  0.5886  0.1474  0.4055
  483MOL0     C66549   5.302   6.344   0.584  0.2682  0.7626  0.3028
  483MOL0     C66550   5.426   6.304   0.536 -0.4463  0.4014  0.7702
  483MOL0     C66551   5.532   6.395   0.533  0.4178  0.5361  0.7704
  483MOL0     O66552   5.640   6.363   0.455 -0.8822  0.1066 -0.0586
  483MOL0     C66553   5.677   6.236   0.401 -0.1618  0.7084  0.4213
  483MOL0     C66554   5.833   6.239   0.370  0.7618 -0.3754  0.3395
  483MOL0     C66555   5.896   6.125   0.292 -0.1897  0.2283  0.8658
  483MOL0     C66556   6.043   6.158   0.275  0.2056 -0.0451 -0.2289
  483MOL0     C66557   6.105   6.051   0.189  0.3084  0.0440  0.2723
  483MOL0     C66558   6.248   6.084   0.156  0.2458  0.3284  0.1497
  483MOL0     C66559   6.307   5.995   0.044 -0.2581 -0.2364  0.5771
  483MOL0     C66560   6.382   5.869   0.091  0.2250 -0.0275  0.4808
  483MOL0    Cl66561   6.517   5.837  -0.024 -0.3507  0.4551 -0.0387
  483MOL0     C66562   5.522   6.522   0.578  0.1664 -0.6349 -0.4184
  483MOL0     C66563   5.399   6.563   0.625 -0.3926 -0.1886  0.5062
  483MOL0     O66564   5.201   6.710   0.788 -0.2244  0.5607 -0.6214
  483MOL0     C66565   4.943   6.786   0.795 -1.1379 -0.2353  0.7290
  483MOL0     C66566   4.813   6.849   0.783 -1.7014  0.9009 -0.4905
  483MOL0     N66567   4.056   7.091   0.924  0.2938 -0.4702  0.0349
  483MOL0     N66568   4.027   7.157   1.030 -0.2690  0.5229 -0.4778
  483MOL0     C66569   4.425   8.039   1.686 -0.2410  0.2262 -0.0419
  483MOL0     C66570   4.537   8.097   1.753 -0.0967  0.5974  0.6724
  483MOL0     C66571   4.884   8.196   2.021  0.1021 -0.5341  1.1081
  483MOL0     C66572   5.007   8.223   1.947 -0.1717 -0.4522  0.1539
  483MOL0     C66573   5.124   8.272   2.014  0.5546 -1.0715  0.4601
  483MOL0     C66574   5.124   8.293   2.151 -0.0634  0.4920 -0.2894
  483MOL0     O66575   5.237   8.325   2.216 -0.2888 -0.0755  0.2213
  483MOL0     C66576   5.243   8.320   2.361 -0.0003  0.5792 -0.2409
  483MOL0     C66577   5.386   8.371   2.400  0.7188  0.4192 -0.4050
  483MOL0     C66578   5.385   8.376   2.551 -0.2403 -0.3914 -0.4714
  483MOL0     C66579   5.529   8.375   2.614  0.3245 -0.3576  0.7018
  483MOL0     C66580   5.615   8.257   2.590 -0.4926  0.0971 -0.0157
  483MOL0     C66581   5.689   8.165   2.561  0.2567 -0.1971  0.8130
  483MOL0     C66582   5.007   8.258   2.224  0.1576  0.1518  0.0342
  483MOL0     C66583   4.885   8.222   2.156  0.2741  0.5663 -0.7739
  483MOL0     C66584   4.762   8.203   2.247 -0.6467  0.1245 -0.0329
  483MOL0     H66585   4.459   8.024   2.071 -0.0362 -0.7047 -0.1515
  483MOL0     H66586   4.255   7.918   1.948  0.4528 -0.8224 -0.4814
  483MOL0     H66587   4.052   7.927   1.821  1.0142  1.5490 -1.7479
  483MOL0     H66588   4.138   7.773   1.794 -0.9259 -2.0792 -1.7948
  483MOL0     H66589   3.917   7.774   1.717 -0.9408  1.7418 -0.1004
  483MOL0     H66590   3.938   7.916   1.616 -3.8595 -0.5877  0.8385
  483MOL0     H66591   4.104   7.785   1.470 -1.0080 -0.8835 -1.7013
  483MOL0     H66592   4.099   7.657   1.586  1.5180  3.2357  2.3223
  483MOL0     H66593   3.875   7.620   1.522  0.9159 -0.9914 -0.7933
  483MOL0     H66594   3.876   7.753   1.408  2.1868  0.1877 -1.3165
  483MOL0     H66595   4.017   7.486   1.398 -0.5341 -0.7233 -1.0561
  483MOL0     H66596   4.070   7.619   1.296  0.2070  0.3902  0.2919
  483MOL0     H66597   3.789   7.514   1.276 -0.2288  2.1092 -0.0892
  483MOL0     H66598   3.880   7.619   1.170  1.8356 -0.1097 -0.6939
  483MOL0     H66599   3.884   7.417   1.045  1.9274 -2.8394 -0.7433
  483MOL0     H66600   3.881   7.313   1.178  2.8574 -2.5629 -1.5064
  483MOL0     H66601   4.127   7.470   1.099  0.0859  0.5553 -1.1396
  483MOL0     H66602   4.122   7.350   1.222  3.0370  0.6099 -2.8697
  483MOL0     H66603   4.227   7.372   0.863  1.6208 -0.3650  0.8061
  483MOL0     H66604   4.257   7.220   0.693 -1.9371  2.1419  2.5931
  483MOL0     H66605   4.150   7.080   0.655 -0.3384  2.3937 -0.2557
  483MOL0     H66606   4.356   7.051   0.879 -2.0125  0.4539  0.3193
  483MOL0     H66607   4.259   6.926   0.806 -0.0249  0.2333  0.8079
  483MOL0     H66608   4.369   6.931   0.602  0.3002 -0.4817  0.2856
  483MOL0     H66609   4.423   7.098   0.615 -0.1208 -0.5912 -1.9737
  483MOL0     H66610   4.608   7.022   0.791 -2.4868 -0.0311  1.4850
  483MOL0     H66611   4.535   6.868   0.816  4.8783 -1.0485  0.8948
  483MOL0     H66612   4.734   6.724   0.489  1.0118 -1.4081 -1.5031
  483MOL0     H66613   4.988   6.573   0.406 -0.9076  0.2635 -0.7422
  483MOL0     H66614   5.096   6.715   0.446  0.2140 -0.6096  4.7719
  483MOL0     H66615   4.940   6.731   0.353 -1.6970 -1.7731 -0.6180
  483MOL0     H66616   5.214   6.281   0.580  1.5548 -1.2800  1.9882
  483MOL0     H66617   5.421   6.203   0.499 -1.9030  1.4831 -2.3510
  483MOL0     H66618   5.657   6.158   0.474  0.8211 -1.6444 -1.6841
  483MOL0     H66619   5.614   6.212   0.315  1.2918 -1.9984  0.0025
  483MOL0     H66620   5.855   6.333   0.317 -2.4073 -0.3776 -1.2742
  483MOL0     H66621   5.896   6.266   0.454  1.6550  0.5131 -0.5842
  483MOL0     H66622   5.842   6.121   0.197  0.3134 -0.4530  0.6047
  483MOL0     H66623   5.887   6.029   0.343 -0.8230 -1.6548 -2.5032
  483MOL0     H66624   6.099   6.167   0.369 -1.8730 -0.3350  1.1061
  483MOL0     H66625   6.043   6.253   0.222 -0.8045 -0.7321 -1.5157
  483MOL0     H66626   6.091   5.968   0.260  1.0726  0.9083  1.4747
  483MOL0     H66627   6.049   6.032   0.097 -1.1204 -0.4869  1.2119
  483MOL0     H66628   6.315   6.077   0.243 -1.0285 -4.4297  1.0127
  483MOL0     H66629   6.240   6.186   0.117 -0.7586  0.5198  0.8322
  483MOL0     H66630   6.367   6.059  -0.021 -2.4404  2.5162  1.0521
  483MOL0     H66631   6.222   5.953  -0.011 -0.4770 -3.5111  3.0771
  483MOL0     H66632   6.314   5.784   0.082  0.9785 -0.5333 -0.6133
  483MOL0     H66633   6.426   5.886   0.190  0.6910  2.1670 -0.0550
  483MOL0     H66634   5.610   6.585   0.571  0.3963 -0.9066  0.0591
  483MOL0     H66635   5.403   6.669   0.645  1.0871 -0.2644  0.7100
  483MOL0     H66636   5.001   6.784   0.887 -1.2068 -1.0717  0.7598
  483MOL0     H66637   4.781   6.903   0.872  1.8153  1.0217  0.8708
  483MOL0     H66638   4.413   8.060   1.580 -1.0422  5.7270  0.8149
  483MOL0     H66639   4.627   8.142   1.710 -0.8975  0.8571 -0.7886
  483MOL0     H66640   5.020   8.200   1.842  0.7712 -0.6884  0.3148
  483MOL0     H66641   5.219   8.279   1.962 -1.2953  0.6744 -3.0416
  483MOL0     H66642   5.162   8.378   2.407  0.2569  1.6643 -1.1064
  483MOL0     H66643   5.229   8.218   2.397  0.4903  1.5591  3.0862
  483MOL0     H66644   5.403   8.468   2.354  2.5343  0.2709 -0.1055
  483MOL0     H66645   5.459   8.298   2.364  0.9201  0.1263  0.5812
  483MOL0     H66646   5.347   8.471   2.589  3.2572  0.3562  1.6639
  483MOL0     H66647   5.328   8.299   2.603  1.4337 -3.1335 -2.4425
  483MOL0     H66648   5.518   8.385   2.722 -2.2937  4.1787  0.2677
  483MOL0     H66649   5.597   8.454   2.581  0.3407 -0.4992  0.3947
  483MOL0     H66650   5.753   8.081   2.548  1.9187  1.0871  0.2974
  483MOL0     H66651   5.016   8.245   2.332  1.7864  1.1230  0.0473
  483MOL0     H66652   4.732   8.098   2.235  1.5605 -0.7352  1.3937
  483MOL0     H66653   4.806   8.228   2.343  2.0803 -2.3580 -0.4935
  483MOL0     H66654   4.686   8.279   2.223 -0.5566  0.1224 -0.3332
  484MOL0     O66655  10.433   3.552   8.261  0.5314  0.2196  0.3570
  484MOL0     C66656  10.312   3.548   8.209 -0.5478 -0.4311  1.0735
  484MOL0     O66657  10.291   3.543   8.076 -0.4241  0.8734  0.6237
  484MOL0     C66658  10.378   3.490   7.976  0.7527  0.0526 -0.0915
  484MOL0     C66659  10.510   3.466   7.993 -0.1956  0.7596  0.3507
  484MOL0     C66660  10.586   3.422   7.885 -0.6248 -0.1488 -0.5691
  484MOL0     C66661  10.531   3.420   7.751  0.0776  0.2792 -0.6965
  484MOL0     O66662  10.599   3.394   7.633 -0.3071  0.0229 -0.1534
  484MOL0     C66663  10.737   3.356   7.636  0.1583  0.0197 -1.0640
  484MOL0     C66664  10.788   3.338   7.494  0.1925 -0.1418 -0.3000
  484MOL0     C66665  10.793   3.469   7.419 -0.2140 -0.0295  0.2989
  484MOL0     C66666  10.910   3.565   7.450 -0.5341 -0.3123  0.2553
  484MOL0     C66667  11.048   3.512   7.438 -0.4212  0.0737  0.1379
  484MOL0     C66668  11.098   3.480   7.300  0.0908  0.2862 -0.1709
  484MOL0     C66669  11.250   3.448   7.296 -0.0714 -0.0183 -0.0789
  484MOL0     C66670  11.292   3.473   7.156  0.7644 -0.4373  0.5099
  484MOL0     N66671  11.417   3.420   7.126 -0.5628 -0.7358 -0.3817
  484MOL0     C66672  11.467   3.376   7.009 -0.6116  0.1978  0.6060
  484MOL0     C66673  11.600   3.357   7.020  0.0579  0.6712  0.1099
  484MOL0     C66674  11.702   3.319   6.920 -0.1759  0.4219 -0.7318
  484MOL0     C66675  11.840   3.373   6.964  0.5430  0.2663 -0.5300
  484MOL0     C66676  11.846   3.519   7.004  0.0120  0.1488 -0.2101
  484MOL0     C66677  11.990   3.568   7.037 -0.1347 -0.6922 -0.0159
  484MOL0     O66678  12.032   3.491   7.149 -0.3363  0.3770 -0.0066
  484MOL0     C66679  12.123   3.540   7.235 -0.1343 -0.1526  0.0688
  484MOL0     C66680  12.242   3.601   7.198 -0.5512  0.2384  0.4874
  484MOL0     C66681  12.342   3.643   7.294 -0.0217  0.6059  1.3561
  484MOL0     C66682  12.478   3.691   7.240  0.1449  0.0578  0.6801
  484MOL0     C66683  12.312   3.643   7.430 -0.2940  0.0940  0.0139
  484MOL0     C66684  12.406   3.684   7.536  0.2749 -0.0689  0.3775
  484MOL0     O66685  12.411   3.601   7.640 -0.1476 -0.1007 -0.1937
  484MOL0     C66686  12.518   3.600   7.726 -0.3548 -0.7558 -0.5352
  484MOL0     C66687  12.603   3.705   7.759  0.4296 -0.3820  0.8749
  484MOL0     C66688  12.710   3.686   7.856 -0.1813 -0.3845  0.1407
  484MOL0     C66689  12.728   3.571   7.922  0.2737  0.1423  0.2137
  484MOL0     O66690  12.825   3.557   8.014  0.4272  0.2912 -0.1691
  484MOL0     C66691  12.777   3.598   8.142  0.0603 -0.1384  0.5033
  484MOL0     C66692  12.889   3.612   8.248 -0.9414 -0.8582 -0.7074
  484MOL0     C66693  12.972   3.736   8.211 -0.6512  0.2675  0.3470
  484MOL0     C66694  13.098   3.742   8.294 -0.9971 -0.1961 -0.2067
  484MOL0     C66695  13.162   3.874   8.279 -0.7576  0.1135  0.8575
  484MOL0     C66696  13.292   3.877   8.357  0.1108  0.2577 -0.0504
  484MOL0     C66697  13.388   3.996   8.321 -0.4179 -0.0883 -0.1604
  484MOL0     C66698  13.337   4.127   8.370 -0.0815 -0.5167  0.2754
  484MOL0    Cl66699  13.455   4.256   8.330 -0.3545  0.3316 -0.1427
  484MOL0     C66700  12.629   3.470   7.895  0.0095 -0.8276  1.0475
  484MOL0     C66701  12.525   3.489   7.804 -0.1266 -0.4560  0.3298
  484MOL0     O66702  12.479   3.775   7.501 -0.3220 -0.1323 -0.5961
  484MOL0     C66703  12.193   3.576   7.468 -0.9470 -0.2282  0.0396
  484MOL0     C66704  12.109   3.520   7.371 -0.4250 -0.2360 -0.5526
  484MOL0     N66705  11.626   3.385   7.155 -0.6347  0.1722  0.9054
  484MOL0     N66706  11.522   3.428   7.214  0.3617  0.0202 -0.0357
  484MOL0     C66707  10.388   3.432   7.736 -0.5126  0.2155 -0.2774
  484MOL0     C66708  10.316   3.471   7.850 -0.9460 -0.2641  0.4028
  484MOL0     C66709  10.191   3.564   8.284  0.7470  0.9405 -0.8732
  484MOL0     C66710  10.080   3.632   8.235  0.5845 -0.9619  0.4244
  484MOL0     C66711   9.958   3.641   8.301  0.5831 -0.3057 -0.3412
  484MOL0     C66712   9.947   3.595   8.438 -0.0578 -0.2316  0.2668
  484MOL0     O66713   9.829   3.613   8.504  0.5059  0.3243  0.6058
  484MOL0     C66714   9.832   3.613   8.649  0.2402  0.6492  0.4223
  484MOL0     C66715   9.817   3.464   8.688  0.8197  0.2256 -0.1321
  484MOL0     C66716   9.684   3.407   8.697 -0.2134  0.3413 -0.7425
  484MOL0     C66717   9.630   3.398   8.842  0.5608 -0.0713 -0.8581
  484MOL0     C66718   9.506   3.323   8.835 -0.0477 -0.0470 -0.2827
  484MOL0     C66719   9.411   3.251   8.831  0.1179 -0.3313  0.1773
  484MOL0     C66720  10.062   3.537   8.492 -0.0300 -0.6973 -0.7339
  484MOL0     C66721  10.180   3.518   8.418 -0.2341  0.3812  0.6841
  484MOL0     C66722  10.300   3.458   8.491  0.4301  0.2175 -0.3244
  484MOL0     H66723  10.563   3.481   8.086  3.3457  0.3751 -1.4540
  484MOL0     H66724  10.688   3.386   7.899 -0.6008  0.6022  1.3823
  484MOL0     H66725  10.739   3.259   7.685  0.4787  0.9161  0.7756
  484MOL0     H66726  10.789   3.423   7.704 -1.5047 -1.0698  1.4222
  484MOL0     H66727  10.886   3.290   7.506 -1.2020 -2.7660  1.8318
  484MOL0     H66728  10.731   3.277   7.423  1.2134  0.7536 -1.9370
  484MOL0     H66729  10.799   3.453   7.311  1.2460  1.6911  0.0825
  484MOL0     H66730  10.698   3.518   7.443 -1.7563 -2.3685 -0.6412
  484MOL0     H66731  10.898   3.657   7.391  4.7039  1.7527  1.8702
  484MOL0     H66732  10.911   3.600   7.553  1.1349  2.1846 -0.5214
  484MOL0     H66733  11.056   3.419   7.495  0.1142 -0.8521 -1.4030
  484MOL0     H66734  11.121   3.574   7.490  0.1523  0.2875 -0.9093
  484MOL0     H66735  11.052   3.387   7.264  2.1844 -1.7793  2.1065
  484MOL0     H66736  11.065   3.567   7.243 -2.1277 -0.7079 -0.5145
  484MOL0     H66737  11.269   3.346   7.330 -1.6504 -0.1109  0.6096
  484MOL0     H66738  11.310   3.506   7.367 -1.7898 -0.3109  1.7055
  484MOL0     H66739  11.223   3.418   7.091 -0.8792  3.4064 -1.3659
  484MOL0     H66740  11.288   3.580   7.133  1.2017 -0.1948  1.5200
  484MOL0     H66741  11.409   3.372   6.918 -3.2048 -0.2255  2.1726
  484MOL0     H66742  11.669   3.340   6.818  0.4669 -1.3438 -1.3424
  484MOL0     H66743  11.715   3.211   6.932  0.7838  0.5550 -0.4649
  484MOL0     H66744  11.881   3.310   7.043 -1.3465 -1.1179 -0.5898
  484MOL0     H66745  11.908   3.357   6.880  2.3424 -0.0785  0.9217
  484MOL0     H66746  11.794   3.578   6.927 -1.6188 -2.1892 -0.9909
  484MOL0     H66747  11.795   3.531   7.100  1.4232 -1.6124  0.8191
  484MOL0     H66748  12.057   3.556   6.951 -1.4945 -0.9439 -1.0602
  484MOL0     H66749  11.988   3.672   7.070 -1.3967 -0.2536 -1.3859
  484MOL0     H66750  12.266   3.607   7.093  0.2562  3.8515  0.7557
  484MOL0     H66751  12.472   3.800   7.242 -1.8185  0.0782 -1.4207
  484MOL0     H66752  12.493   3.659   7.136  1.5086  1.3234  0.4450
  484MOL0     H66753  12.563   3.661   7.302 -1.7371  1.5398  4.2557
  484MOL0     H66754  12.583   3.801   7.713 -2.6480 -0.9962  0.7310
  484MOL0     H66755  12.781   3.765   7.879 -0.8484  0.1658  0.3498
  484MOL0     H66756  12.716   3.688   8.134 -2.7261 -1.9178  0.2905
  484MOL0     H66757  12.708   3.519   8.175 -1.0612 -0.2261 -1.8399
  484MOL0     H66758  12.842   3.623   8.346 -0.2319  1.5502 -0.5890
  484MOL0     H66759  12.950   3.521   8.246  1.7233  0.7837  0.5119
  484MOL0     H66760  12.911   3.822   8.238  2.8010  2.6956  1.0707
  484MOL0     H66761  12.997   3.742   8.104 -1.8089 -1.2471 -0.0458
  484MOL0     H66762  13.166   3.663   8.262  0.4804  1.6152 -1.7864
  484MOL0     H66763  13.067   3.723   8.397  2.1625  0.7757  1.0413
  484MOL0     H66764  13.183   3.891   8.173  1.1437 -2.6143  0.7070
  484MOL0     H66765  13.100   3.951   8.326  1.3436  2.7424 -0.3635
  484MOL0     H66766  13.350   3.784   8.356  0.6847  0.6176 -0.4327
  484MOL0     H66767  13.259   3.887   8.461 -0.7918 -2.3961 -0.0022
  484MOL0     H66768  13.396   4.008   8.212 -1.3836  0.3020 -0.1948
  484MOL0     H66769  13.489   3.972   8.355  0.6302  3.0038 -0.7737
  484MOL0     H66770  13.325   4.108   8.477 -0.6604 -2.9201 -0.1534
  484MOL0     H66771  13.236   4.141   8.330  1.1382 -0.8080 -3.2427
  484MOL0     H66772  12.643   3.380   7.954  1.4461 -1.0209  0.4497
  484MOL0     H66773  12.449   3.411   7.811  0.9695 -1.3800  3.8460
  484MOL0     H66774  12.167   3.551   7.571  0.5570  0.9959  0.7410
  484MOL0     H66775  12.021   3.471   7.410  0.5840 -2.8142 -1.3180
  484MOL0     H66776  10.338   3.415   7.641 -1.5111 -2.1521  0.6048
  484MOL0     H66777  10.209   3.492   7.847 -0.8476  0.2996  0.6758
  484MOL0     H66778  10.092   3.677   8.137 -3.2215  0.4586  0.4642
  484MOL0     H66779   9.879   3.692   8.247  0.8468 -0.6879 -1.1127
  484MOL0     H66780   9.930   3.640   8.690  1.2436 -1.0776 -0.7063
  484MOL0     H66781   9.767   3.686   8.697 -0.5373 -0.1318  0.5875
  484MOL0     H66782   9.873   3.464   8.782 -1.1382  1.9089  1.1375
  484MOL0     H66783   9.872   3.394   8.625  1.6660 -1.4097  2.2541
  484MOL0     H66784   9.613   3.459   8.632 -2.1983 -1.3416 -0.0308
  484MOL0     H66785   9.690   3.307   8.654 -2.9953  0.5156 -1.7034
  484MOL0     H66786   9.611   3.503   8.868 -0.6829  0.1467 -2.4065
  484MOL0     H66787   9.696   3.359   8.919 -0.1035  0.8826  0.2181
  484MOL0     H66788   9.334   3.181   8.806  1.1314 -2.3262  2.2239
  484MOL0     H66789  10.062   3.506   8.596 -0.2182  0.9448 -0.2095
  484MOL0     H66790  10.377   3.533   8.513  0.7935  0.6527 -2.7867
  484MOL0     H66791  10.264   3.417   8.586 -0.6583  1.0448 -0.3670
  484MOL0     H66792  10.353   3.385   8.429  1.9339  3.1449 -2.7805
  485MOL0     O66793   5.783   8.242   4.816  0.2482 -0.2939 -0.7636
  485MOL0     C66794   5.805   8.166   4.721 -0.1498 -0.8621  0.0972
  485MOL0     O66795   5.926   8.148   4.663  0.6005 -0.3206 -0.0653
  485MOL0     C66796   6.034   8.209   4.715  0.5337 -0.6543  0.1738
  485MOL0     C66797   6.084   8.201   4.844 -0.2603  0.3605 -0.1958
  485MOL0     C66798   6.201   8.265   4.880  0.1102 -0.0561 -0.6420
  485MOL0     C66799   6.259   8.348   4.791  0.5406 -0.6730  0.8158
  485MOL0     O66800   6.381   8.408   4.813 -0.3494  0.1549  0.0323
  485MOL0     C66801   6.423   8.425   4.953 -0.3790  0.5483  0.1519
  485MOL0     C66802   6.547   8.522   4.957 -0.0875  0.7927 -0.2228
  485MOL0     C66803   6.635   8.511   5.089 -0.7072  0.6194  1.4231
  485MOL0     C66804   6.721   8.376   5.102 -0.0717 -0.8064 -0.7632
  485MOL0     C66805   6.828   8.363   4.992  0.2981 -0.1114 -0.4325
  485MOL0     C66806   6.897   8.232   5.000  1.0215  0.0857 -0.9371
  485MOL0     C66807   6.986   8.213   4.879 -0.9374  0.4343  0.4724
  485MOL0     C66808   7.040   8.072   4.845 -0.3628  0.4684  0.2143
  485MOL0     N66809   7.166   8.078   4.772  0.8056 -0.8293  0.0643
  485MOL0     C66810   7.171   8.092   4.630  0.5303  0.7190 -0.3063
  485MOL0     C66811   7.311   8.085   4.606  0.2887 -0.5247 -0.2955
  485MOL0     C66812   7.398   8.110   4.486 -0.1070 -1.0186 -0.6813
  485MOL0     C66813   7.383   8.248   4.436 -0.3468  0.3447  0.3774
  485MOL0     C66814   7.379   8.373   4.530 -0.4109  0.4360  0.5515
  485MOL0     C66815   7.510   8.401   4.614 -0.0244 -0.0560  0.5992
  485MOL0     O66816   7.606   8.430   4.510 -0.4093  0.2124 -0.8474
  485MOL0     C66817   7.723   8.495   4.554  0.2873 -0.1890  0.5743
  485MOL0     C66818   7.818   8.505   4.457 -0.5662  1.4939 -0.4996
  485MOL0     C66819   7.938   8.560   4.484 -0.4445 -0.1319  0.5479
  485MOL0     C66820   8.049   8.544   4.380  0.2684 -0.2581 -0.3138
  485MOL0     C66821   7.967   8.610   4.614 -0.4070 -0.4974  0.1654
  485MOL0     C66822   8.082   8.694   4.651  0.0506 -0.4888  0.1483
  485MOL0     O66823   8.131   8.675   4.774 -0.2835  0.4188  0.1678
  485MOL0     C66824   8.255   8.722   4.796  0.1230 -0.0742 -0.3960
  485MOL0     C66825   8.273   8.858   4.821  0.1319  0.2357  0.0919
  485MOL0     C66826   8.397   8.914   4.862  0.8175 -0.0762 -0.1398
  485MOL0     C66827   8.508   8.822   4.859  0.4774  0.1519  0.2080
  485MOL0     O66828   8.632   8.856   4.890  0.4844  0.7249  0.2144
  485MOL0     C66829   8.654   9.001   4.903  0.0627  0.4910  0.2426
  485MOL0     C66830   8.805   9.027   4.948  0.1232 -0.3239 -0.1256
  485MOL0     C66831   8.822   9.033   5.105  0.1495  0.3305  0.2473
  485MOL0     C66832   8.950   8.964   5.162 -0.3793 -0.0065 -0.7082
  485MOL0     C66833   9.075   9.043   5.152  0.1007 -0.5862  0.5615
  485MOL0     C66834   9.177   9.014   5.266  1.4148 -0.0409 -0.3714
  485MOL0     C66835   9.303   9.087   5.233 -0.5125 -0.3854 -0.0012
  485MOL0     C66836   9.373   9.143   5.354  0.1832  0.1637 -0.6793
  485MOL0    Cl66837   9.512   9.242   5.299  0.1107  0.0588  0.1317
  485MOL0     C66838   8.485   8.685   4.836  0.2595 -0.1192  0.0523
  485MOL0     C66839   8.362   8.632   4.812 -0.5549 -0.0086  1.4085
  485MOL0     O66840   8.107   8.786   4.578 -0.2141  0.1831  0.0528
  485MOL0     C66841   7.876   8.576   4.715  0.9143 -0.2133  0.8767
  485MOL0     C66842   7.748   8.520   4.687 -0.4692 -0.1720  0.1834
  485MOL0     N66843   7.376   8.062   4.731  0.1196 -0.2896  0.7234
  485MOL0     N66844   7.288   8.061   4.832 -0.1137  0.1688  0.0315
  485MOL0     C66845   6.204   8.371   4.668 -0.0615  0.7153 -0.5422
  485MOL0     C66846   6.095   8.302   4.631 -0.8566  0.2863  0.0568
  485MOL0     C66847   5.690   8.086   4.668  0.1453 -0.0457  0.5704
  485MOL0     C66848   5.609   8.023   4.764  0.2521  0.0858  0.2023
  485MOL0     C66849   5.505   7.943   4.717  0.1649  0.3836 -0.3388
  485MOL0     C66850   5.483   7.915   4.580 -0.1431  0.4211  0.2691
  485MOL0     O66851   5.363   7.852   4.550  0.0633 -0.4170  0.1523
  485MOL0     C66852   5.267   7.946   4.504 -0.1035  0.1679 -0.5804
  485MOL0     C66853   5.271   7.967   4.349  0.1903  0.3042  0.0147
  485MOL0     C66854   5.219   7.845   4.276 -0.0667  1.4991 -0.0398
  485MOL0     C66855   5.072   7.816   4.305 -0.1294 -0.6381 -0.1210
  485MOL0     C66856   4.980   7.929   4.311 -0.4243 -0.7367 -0.1897
  485MOL0     C66857   4.923   8.036   4.311 -0.1330  0.4573  0.0046
  485MOL0     C66858   5.573   7.969   4.488  0.1835  1.4062 -1.1647
  485MOL0     C66859   5.668   8.062   4.529  0.2778 -0.3965  0.0471
  485MOL0     C66860   5.742   8.140   4.417  0.1690 -0.2627 -0.4561
  485MOL0     H66861   6.025   8.133   4.905 -0.0986 -0.2920 -0.7493
  485MOL0     H66862   6.237   8.243   4.980 -0.2437 -0.7842 -0.6687
  485MOL0     H66863   6.447   8.331   5.003  1.1646  2.4634  3.3136
  485MOL0     H66864   6.344   8.480   5.004 -0.2948  1.3755 -0.5833
  485MOL0     H66865   6.604   8.498   4.867  0.4797  1.1920  0.0278
  485MOL0     H66866   6.514   8.626   4.943  1.9157  1.4094 -0.6074
  485MOL0     H66867   6.698   8.600   5.100  2.5017 -0.9895 -1.6711
  485MOL0     H66868   6.572   8.494   5.177 -1.6470 -1.8006  0.3664
  485MOL0     H66869   6.766   8.377   5.202 -0.9042  0.7197 -0.3839
  485MOL0     H66870   6.650   8.293   5.092 -1.3960 -0.0648  1.6970
  485MOL0     H66871   6.896   8.448   5.005  0.3296 -0.2441  0.2778
  485MOL0     H66872   6.794   8.380   4.889  4.1261  2.6489 -1.4831
  485MOL0     H66873   6.960   8.224   5.090 -2.1394  1.9657  1.6787
  485MOL0     H66874   6.819   8.155   5.004  1.4307 -0.4653 -2.6747
  485MOL0     H66875   7.060   8.294   4.872 -0.4161 -0.0492  0.3798
  485MOL0     H66876   6.922   8.230   4.791 -2.1762 -0.8156  1.0872
  485MOL0     H66877   7.074   8.026   4.938  1.1624 -3.8284 -2.1930
  485MOL0     H66878   6.977   8.005   4.786  0.7489 -0.7564  0.3848
  485MOL0     H66879   7.089   8.118   4.563 -0.5681 -0.1300  0.6601
  485MOL0     H66880   7.372   8.043   4.404  1.8714 -2.6016 -0.1148
  485MOL0     H66881   7.503   8.082   4.497 -0.3356 -1.8384 -0.4571
  485MOL0     H66882   7.453   8.263   4.354  0.8900  1.2240  1.5530
  485MOL0     H66883   7.289   8.243   4.380  0.6577  2.3972 -1.6357
  485MOL0     H66884   7.360   8.458   4.463  2.4312  0.8915  0.1701
  485MOL0     H66885   7.301   8.357   4.604 -0.2091 -1.2173  0.4467
  485MOL0     H66886   7.485   8.493   4.669 -2.7958  0.8956 -1.9497
  485MOL0     H66887   7.532   8.315   4.678 -0.4412 -1.8134 -1.5155
  485MOL0     H66888   7.811   8.458   4.360 -2.4153  0.5453  0.0544
  485MOL0     H66889   8.150   8.536   4.423 -0.3700 -2.8884  0.8537
  485MOL0     H66890   8.039   8.629   4.311 -1.6365 -0.2216 -0.0223
  485MOL0     H66891   8.041   8.457   4.314  0.6598 -0.5096 -0.0322
  485MOL0     H66892   8.190   8.926   4.806 -0.7381 -1.0123 -1.0772
  485MOL0     H66893   8.397   9.022   4.867 -0.5299 -0.1107  1.2995
  485MOL0     H66894   8.637   9.042   4.803  0.3573 -0.5355 -0.2463
  485MOL0     H66895   8.582   9.046   4.972  0.4940  2.0125 -0.2782
  485MOL0     H66896   8.878   8.950   4.922 -0.6073 -0.7815 -0.8690
  485MOL0     H66897   8.834   9.125   4.910 -0.5795  0.9458  2.3783
  485MOL0     H66898   8.725   8.999   5.142 -0.9307  2.0528 -0.8475
  485MOL0     H66899   8.815   9.140   5.124 -2.5665  0.1544  0.7317
  485MOL0     H66900   8.962   8.867   5.114 -1.4058 -0.3138 -0.3752
  485MOL0     H66901   8.938   8.948   5.269  0.6093  0.2214 -0.5601
  485MOL0     H66902   9.121   9.019   5.056 -0.4762  2.6346 -0.6454
  485MOL0     H66903   9.059   9.152   5.151 -1.0892 -0.7415 -1.2379
  485MOL0     H66904   9.187   8.905   5.275 -1.7052 -0.2257  4.5410
  485MOL0     H66905   9.148   9.053   5.364  0.9631 -0.9483 -0.1302
  485MOL0     H66906   9.274   9.173   5.172 -0.6120 -0.1951  0.3096
  485MOL0     H66907   9.375   9.029   5.175 -0.8723  0.1061 -0.9594
  485MOL0     H66908   9.411   9.065   5.421 -1.4257  1.0105  1.3056
  485MOL0     H66909   9.301   9.198   5.416  0.4012  0.5763 -0.7904
  485MOL0     H66910   8.575   8.623   4.837  1.2106  1.1665 -1.7444
  485MOL0     H66911   8.360   8.526   4.789  0.7969  0.4360 -1.1017
  485MOL0     H66912   7.901   8.602   4.817 -0.9945  0.1638  1.2795
  485MOL0     H66913   7.678   8.519   4.770 -0.5030  1.0641  0.1860
  485MOL0     H66914   6.252   8.438   4.596  0.5316  1.6558  0.6962
  485MOL0     H66915   6.050   8.305   4.532 -2.1099  1.1672  0.6236
  485MOL0     H66916   5.619   8.038   4.871  0.2541 -1.0183  0.3690
  485MOL0     H66917   5.429   7.915   4.789 -0.8741  0.0956 -1.5070
  485MOL0     H66918   5.163   7.913   4.516  0.0091 -0.8862 -2.1302
  485MOL0     H66919   5.272   8.039   4.561 -5.1648  0.7457 -0.5718
  485MOL0     H66920   5.371   7.992   4.312 -0.8028 -0.0554 -3.2185
  485MOL0     H66921   5.213   8.056   4.324 -1.0502  0.3185  2.5982
  485MOL0     H66922   5.220   7.879   4.172  1.9030 -1.8353 -1.2550
  485MOL0     H66923   5.282   7.756   4.286 -1.9579  0.0369 -0.5372
  485MOL0     H66924   5.064   7.763   4.400 -0.5917  1.9627  1.3837
  485MOL0     H66925   5.045   7.748   4.223 -1.2429  1.8449 -1.9577
  485MOL0     H66926   4.870   8.128   4.300 -1.9160 -0.5457 -0.2588
  485MOL0     H66927   5.564   7.937   4.385  0.4273  0.3328 -0.8705
  485MOL0     H66928   5.685   8.120   4.325  0.4029 -2.3291 -0.2094
  485MOL0     H66929   5.730   8.246   4.441 -0.2081  0.4506 -3.3334
  485MOL0     H66930   5.844   8.103   4.407  0.0647 -1.0189  1.0381
  486MOL0     O66931   4.609   4.777   9.481 -0.0432 -0.8212  0.0416
  486MOL0     C66932   4.581   4.895   9.498 -0.4980  0.4228  0.5078
  486MOL0     O66933   4.667   4.997   9.484 -0.0858  0.2943  0.0285
  486MOL0     C66934   4.781   4.981   9.399  0.7720 -0.1384 -0.1363
  486MOL0     C66935   4.771   4.913   9.277 -0.0461  0.6223  0.1756
  486MOL0     C66936   4.886   4.896   9.192 -0.2726  0.4562 -0.5676
  486MOL0     C66937   5.008   4.951   9.229  0.1220  0.0108 -1.0004
  486MOL0     O66938   5.122   4.921   9.154  0.0274 -0.3383  0.3333
  486MOL0     C66939   5.243   4.874   9.221  0.8570  0.0176  0.2331
  486MOL0     C66940   5.361   4.873   9.122  0.1618 -1.5427 -0.2241
  486MOL0     C66941   5.499   4.847   9.183 -0.2756  0.7052 -0.1061
  486MOL0     C66942   5.605   4.852   9.079 -0.5761  0.4056 -0.1484
  486MOL0     C66943   5.566   4.768   8.951 -0.3163  0.2602  0.2137
  486MOL0     C66944   5.683   4.795   8.843 -0.6307  1.5848  0.0160
  486MOL0     C66945   5.651   4.725   8.707  0.1584 -0.1128  0.3507
  486MOL0     C66946   5.660   4.576   8.704 -0.1394  0.0415  0.1019
  486MOL0     N66947   5.801   4.535   8.730  0.8622 -0.1322  0.3975
  486MOL0     C66948   5.897   4.536   8.638 -0.8442 -0.6964  0.1871
  486MOL0     C66949   6.019   4.494   8.693  0.1136 -0.5791 -0.3213
  486MOL0     C66950   6.149   4.471   8.630 -0.6645 -0.4309  0.3007
  486MOL0     C66951   6.267   4.474   8.726  0.0164  0.1717 -0.1957
  486MOL0     C66952   6.294   4.617   8.786  0.3328  0.5227 -0.6723
  486MOL0     C66953   6.419   4.614   8.876  0.3723 -0.8103  0.3120
  486MOL0     O66954   6.542   4.589   8.798  0.2495 -0.4570  0.1033
  486MOL0     C66955   6.653   4.550   8.861  0.0992  0.4149 -0.2371
  486MOL0     C66956   6.740   4.463   8.792 -0.2040 -0.2794  0.2994
  486MOL0     C66957   6.860   4.414   8.840  0.2202 -0.0148 -0.2470
  486MOL0     C66958   6.940   4.324   8.743 -0.5165 -0.4816 -0.1722
  486MOL0     C66959   6.898   4.467   8.964  0.6224  0.1750 -0.2864
  486MOL0     C66960   7.029   4.432   9.018 -0.2517 -0.2866  0.5105
  486MOL0     O66961   7.109   4.535   9.052  1.2003  0.0617  0.5035
  486MOL0     C66962   7.238   4.516   9.078 -0.1869  0.3907  0.8979
  486MOL0     C66963   7.326   4.430   8.998  1.4402 -0.1932  0.5985
  486MOL0     C66964   7.456   4.423   9.030 -0.2859  0.0810  0.3941
  486MOL0     C66965   7.509   4.488   9.149  0.3079  0.4711  0.7170
  486MOL0     O66966   7.640   4.460   9.194 -0.3157  0.3301 -0.0789
  486MOL0     C66967   7.714   4.544   9.283  0.0979 -0.6638  0.2072
  486MOL0     C66968   7.851   4.474   9.300  0.2225  0.3312 -0.2350
  486MOL0     C66969   7.944   4.472   9.187 -0.1249  0.4536 -0.0362
  486MOL0     C66970   8.018   4.605   9.179 -1.1826 -0.8621 -1.1913
  486MOL0     C66971   8.065   4.637   9.035 -1.1567  0.5511  0.6070
  486MOL0     C66972   8.200   4.701   9.022 -0.2754  0.6208  0.4091
  486MOL0     C66973   8.191   4.849   9.071  0.4371  0.3620  0.1062
  486MOL0     C66974   8.321   4.886   9.146  0.0549 -0.5706  0.3430
  486MOL0    Cl66975   8.337   4.772   9.289  0.0216 -0.0227  0.4406
  486MOL0     C66976   7.422   4.560   9.227 -0.2543  0.0596 -0.1905
  486MOL0     C66977   7.288   4.578   9.195  0.4262  0.0658  0.3411
  486MOL0     O66978   7.049   4.313   9.045  0.0069  0.3593  0.0129
  486MOL0     C66979   6.811   4.552   9.037 -0.2466 -0.0412  0.5134
  486MOL0     C66980   6.687   4.594   8.993 -0.2895  0.7617 -0.2617
  486MOL0     N66981   5.983   4.462   8.829 -0.1771 -0.2673  0.4375
  486MOL0     N66982   5.856   4.482   8.840 -0.2713 -0.9623  0.6046
  486MOL0     C66983   5.013   5.031   9.350 -1.2228  0.8290  0.2892
  486MOL0     C66984   4.903   5.049   9.426  0.9210  0.0922 -0.1933
  486MOL0     C66985   4.452   4.930   9.538  0.5804 -0.2936 -0.0305
  486MOL0     C66986   4.382   5.033   9.467  0.2513 -0.3876 -0.3720
  486MOL0     C66987   4.252   5.072   9.504  0.0078  0.4474 -0.4809
  486MOL0     C66988   4.188   5.013   9.616 -0.4691 -0.1776 -0.2086
  486MOL0     O66989   4.067   5.061   9.640 -0.7428 -0.0787  0.1993
  486MOL0     C66990   3.990   5.019   9.752  0.5103 -0.5687 -0.0134
  486MOL0     C66991   3.904   4.897   9.723  0.5748  0.2327 -0.1015
  486MOL0     C66992   3.837   4.828   9.845 -0.2741  1.2745  0.5001
  486MOL0     C66993   3.736   4.901   9.930  1.1789 -0.0911  0.3122
  486MOL0     C66994   3.646   4.991   9.860  0.3699  0.2504  0.3709
  486MOL0     C66995   3.573   5.059   9.793 -0.3763  0.3299 -0.6181
  486MOL0     C66996   4.259   4.915   9.682  0.3262  0.1673  0.2060
  486MOL0     C66997   4.395   4.886   9.655  1.0047  0.2612  0.3930
  486MOL0     C66998   4.467   4.807   9.760  0.0957  0.3471  1.0216
  486MOL0     H66999   4.684   4.853   9.249 -0.1132  0.2557  1.1425
  486MOL0     H67000   4.888   4.833   9.103  0.9009  2.0023 -1.6933
  486MOL0     H67001   5.234   4.771   9.257 -0.5530  0.0519  0.0164
  486MOL0     H67002   5.262   4.934   9.310 -0.0343  0.9451 -0.1851
  486MOL0     H67003   5.338   4.789   9.054 -4.6667 -1.7279  1.2453
  486MOL0     H67004   5.366   4.970   9.073 -0.0200 -0.4693  1.8115
  486MOL0     H67005   5.525   4.923   9.258 -0.6081  1.6873 -0.9565
  486MOL0     H67006   5.494   4.747   9.226 -1.0027  0.5239 -0.5935
  486MOL0     H67007   5.613   4.959   9.056 -1.5447  1.0129  2.0770
  486MOL0     H67008   5.698   4.809   9.116 -2.3456 -3.2166  0.5263
  486MOL0     H67009   5.476   4.813   8.910 -0.3177  1.2834  1.2920
  486MOL0     H67010   5.544   4.662   8.969 -1.5386  0.1860 -1.4701
  486MOL0     H67011   5.696   4.903   8.832  1.5350  1.5913  1.7968
  486MOL0     H67012   5.777   4.769   8.893 -1.0425  0.9694  0.4852
  486MOL0     H67013   5.719   4.766   8.633  0.8403  0.9014  1.5001
  486MOL0     H67014   5.549   4.759   8.684 -0.0270 -1.0257 -0.2366
  486MOL0     H67015   5.589   4.525   8.770 -1.5172 -0.1093 -1.4170
  486MOL0     H67016   5.628   4.543   8.604 -1.3867  0.2372  0.4125
  486MOL0     H67017   5.875   4.550   8.533  0.9671  0.6585 -0.0557
  486MOL0     H67018   6.151   4.542   8.547 -1.6213  1.4449  1.8027
  486MOL0     H67019   6.150   4.368   8.592 -0.6758 -1.5920  3.1744
  486MOL0     H67020   6.240   4.408   8.809 -1.9587 -0.4710 -1.2866
  486MOL0     H67021   6.360   4.434   8.686 -1.0019  0.7503 -3.4151
  486MOL0     H67022   6.297   4.682   8.699 -2.6646  1.8095  0.0770
  486MOL0     H67023   6.204   4.641   8.844  1.2832  1.2109  0.5577
  486MOL0     H67024   6.424   4.710   8.927  2.6993  0.4203 -1.9601
  486MOL0     H67025   6.402   4.535   8.950 -2.3397  0.5376  1.2278
  486MOL0     H67026   6.702   4.423   8.699  0.5182  2.0009 -1.0591
  486MOL0     H67027   7.011   4.381   8.683 -1.6612 -1.3282 -2.4492
  486MOL0     H67028   6.875   4.263   8.680  1.0234 -2.4272  0.0427
  486MOL0     H67029   6.990   4.254   8.810 -2.7791 -0.5822  1.5309
  486MOL0     H67030   7.284   4.390   8.906  1.9776  1.3326 -0.3433
  486MOL0     H67031   7.538   4.380   8.974 -2.2002 -1.5059 -1.3374
  486MOL0     H67032   7.727   4.647   9.248  0.4364 -1.5478 -2.4277
  486MOL0     H67033   7.666   4.559   9.381 -2.1831  0.7052 -1.0089
  486MOL0     H67034   7.910   4.514   9.383  1.5821 -0.8784 -0.5793
  486MOL0     H67035   7.832   4.374   9.341 -1.2736  0.4944 -0.4938
  486MOL0     H67036   7.900   4.442   9.092 -0.5571 -0.2466  0.3702
  486MOL0     H67037   8.022   4.396   9.196 -1.1387 -0.7076 -0.7590
  486MOL0     H67038   8.105   4.591   9.243 -1.5212  0.6709 -0.3457
  486MOL0     H67039   7.963   4.694   9.211 -1.3963 -1.1564 -0.7326
  486MOL0     H67040   8.071   4.538   8.989 -0.1238 -0.3627  2.5920
  486MOL0     H67041   7.990   4.690   8.976 -1.4984 -1.6912 -1.1367
  486MOL0     H67042   8.230   4.689   8.917 -0.7427 -4.5885  0.5924
  486MOL0     H67043   8.267   4.650   9.091 -1.6095  1.5179  2.4420
  486MOL0     H67044   8.103   4.884   9.125  1.3970 -0.1041  2.0755
  486MOL0     H67045   8.186   4.909   8.980 -2.6320 -0.2991 -0.2465
  486MOL0     H67046   8.321   4.993   9.171  1.5665 -0.4703  0.0045
  486MOL0     H67047   8.410   4.866   9.085  0.2656 -0.2581  0.5480
  486MOL0     H67048   7.451   4.596   9.325 -1.0700 -1.4455  0.6498
  486MOL0     H67049   7.223   4.631   9.265  2.7936  0.8986  2.0459
  486MOL0     H67050   6.846   4.578   9.136  1.0353 -1.3160  0.4244
  486MOL0     H67051   6.629   4.660   9.056 -1.4969  0.3128 -0.8716
  486MOL0     H67052   5.108   5.076   9.377  0.2684  0.8072 -4.2034
  486MOL0     H67053   4.907   5.121   9.506  0.5401 -0.5147  0.3812
  486MOL0     H67054   4.427   5.087   9.385 -0.3456  0.1093 -0.3798
  486MOL0     H67055   4.191   5.133   9.437  0.2230 -1.7437 -2.8595
  486MOL0     H67056   4.051   4.992   9.839  1.3235  0.5816 -0.2022
  486MOL0     H67057   3.918   5.093   9.786  1.6716  1.0090 -0.8910
  486MOL0     H67058   3.972   4.827   9.674  1.2902  0.6443  0.2957
  486MOL0     H67059   3.817   4.927   9.664  0.9614 -2.6586 -2.4070
  486MOL0     H67060   3.794   4.733   9.814  1.5248  1.1903 -2.0120
  486MOL0     H67061   3.912   4.797   9.918 -1.1427  1.5396  1.5317
  486MOL0     H67062   3.784   4.958  10.010  0.2037  0.5392  0.4629
  486MOL0     H67063   3.674   4.818   9.964  0.2489 -0.8186 -2.7873
  486MOL0     H67064   3.514   5.125   9.732  1.2570  0.5322 -2.0435
  486MOL0     H67065   4.220   4.887   9.779  1.1999  1.5556  0.9963
  486MOL0     H67066   4.400   4.732   9.804 -0.1566 -0.5382 -0.7902
  486MOL0     H67067   4.557   4.758   9.723 -1.0383 -0.4547 -0.8000
  486MOL0     H67068   4.499   4.869   9.844 -1.4337 -0.7209  2.4601
  487MOL0     O67069   1.413   7.068   0.386 -0.5268 -0.5778 -0.4582
  487MOL0     C67070   1.436   6.970   0.317 -0.0010 -0.0902 -0.9567
  487MOL0     O67071   1.525   6.960   0.226  0.2675 -0.4761 -0.4334
  487MOL0     C67072   1.620   7.053   0.203 -0.0131 -0.1657 -0.1115
  487MOL0     C67073   1.688   7.123   0.307  0.7807 -0.0615  0.0943
  487MOL0     C67074   1.807   7.201   0.273  0.0231 -0.3430 -0.1326
  487MOL0     C67075   1.858   7.210   0.144 -1.1803  1.1121  0.1309
  487MOL0     O67076   1.976   7.286   0.133  0.1303  0.6858  0.1689
  487MOL0     C67077   2.038   7.341   0.018 -0.2645  0.2816  0.1081
  487MOL0     C67078   2.187   7.286   0.017 -0.8697 -0.2254  0.4746
  487MOL0     C67079   2.271   7.350   0.128  0.0668 -0.4891 -0.3338
  487MOL0     C67080   2.403   7.269   0.148  0.4420  1.3901  0.2278
  487MOL0     C67081   2.480   7.325   0.269  0.3364 -0.2708  0.0206
  487MOL0     C67082   2.621   7.271   0.281  0.1725  0.2234 -0.0451
  487MOL0     C67083   2.704   7.306   0.407  1.2098  0.2333 -0.8701
  487MOL0     C67084   2.687   7.202   0.520 -0.6865  0.7214 -0.5897
  487MOL0     N67085   2.778   7.235   0.640  0.7682 -0.2379  0.4468
  487MOL0     C67086   2.912   7.225   0.648 -0.8785  0.1909  0.3026
  487MOL0     C67087   2.939   7.270   0.774 -1.2192 -0.8499 -0.6325
  487MOL0     C67088   3.085   7.275   0.834 -0.3567  0.8956  0.1511
  487MOL0     C67089   3.166   7.352   0.732  0.5775  0.8296 -0.4235
  487MOL0     C67090   3.310   7.369   0.772 -0.0294  0.2780  0.3912
  487MOL0     C67091   3.383   7.452   0.653  0.2524 -0.1744 -0.1448
  487MOL0     O67092   3.527   7.440   0.676 -0.0739 -0.1178 -0.2222
  487MOL0     C67093   3.591   7.333   0.633  0.1021 -0.0209 -0.7224
  487MOL0     C67094   3.557   7.256   0.522  0.0983  0.2301 -0.2182
  487MOL0     C67095   3.622   7.134   0.498 -0.1150  0.4306 -0.0955
  487MOL0     C67096   3.569   7.049   0.386 -0.1466 -0.3858 -0.5510
  487MOL0     C67097   3.714   7.081   0.592  0.1933 -0.2101  0.0350
  487MOL0     C67098   3.777   6.943   0.583 -0.3650 -0.9764 -0.4012
  487MOL0     O67099   3.893   6.925   0.652 -0.5480 -0.0764 -0.1061
  487MOL0     C67100   3.956   6.800   0.663  0.3397 -1.0626 -0.6713
  487MOL0     C67101   4.089   6.789   0.621  0.0970 -0.0341  0.5468
  487MOL0     C67102   4.167   6.674   0.654 -0.0568  0.0051  0.2627
  487MOL0     C67103   4.109   6.576   0.737  0.4363  0.4137 -1.1858
  487MOL0     O67104   4.175   6.466   0.786  0.3709  0.8216  0.3760
  487MOL0     C67105   4.298   6.416   0.744 -0.4042 -0.5453 -0.0957
  487MOL0     C67106   4.418   6.476   0.824 -0.3461 -0.9169  1.0667
  487MOL0     C67107   4.545   6.403   0.783 -0.9749  0.4614 -0.0248
  487MOL0     C67108   4.662   6.485   0.842 -0.0125  0.1079  0.0400
  487MOL0     C67109   4.800   6.453   0.784 -0.1213 -0.2122 -1.0392
  487MOL0     C67110   4.845   6.310   0.819 -0.3915  0.3184  0.6999
  487MOL0     C67111   4.997   6.296   0.797 -0.1605 -0.5028  0.1049
  487MOL0     C67112   5.046   6.161   0.843 -0.4708  0.2886  0.0603
  487MOL0    Cl67113   4.967   6.021   0.758 -0.4909  0.2548  0.5053
  487MOL0     C67114   3.972   6.589   0.784  0.8179  0.4506 -0.6759
  487MOL0     C67115   3.897   6.704   0.738 -0.4558  0.7697  0.8676
  487MOL0     O67116   3.714   6.859   0.514 -0.2960  0.0265  0.8637
  487MOL0     C67117   3.753   7.165   0.696 -0.8302 -0.7401  0.5440
  487MOL0     C67118   3.697   7.299   0.710 -0.2088 -0.0160  0.2818
  487MOL0     N67119   2.824   7.317   0.834 -0.2473 -0.3598 -0.0030
  487MOL0     N67120   2.729   7.295   0.751  0.6240  0.3454 -0.3206
  487MOL0     C67121   1.794   7.138   0.041 -0.8688  0.2017  0.0882
  487MOL0     C67122   1.674   7.062   0.076  0.0204 -0.7228  0.2194
  487MOL0     C67123   1.334   6.869   0.330  0.2752  1.2357  0.4943
  487MOL0     C67124   1.285   6.816   0.207  0.5732  0.2160  0.6266
  487MOL0     C67125   1.178   6.725   0.201  0.8963  0.7906 -0.1881
  487MOL0     C67126   1.118   6.685   0.325  0.5667  0.3764 -0.3370
  487MOL0     O67127   1.020   6.585   0.328  0.3898 -1.1855 -0.4028
  487MOL0     C67128   0.899   6.626   0.270 -0.0430 -0.0932 -0.1160
  487MOL0     C67129   0.870   6.544   0.140  0.3249  0.0566 -0.3612
  487MOL0     C67130   0.886   6.396   0.151 -0.4454  0.7421  0.2919
  487MOL0     C67131   0.787   6.311   0.225 -0.6076  0.5198 -0.0577
  487MOL0     C67132   0.647   6.343   0.175  0.3140 -0.4289 -0.0446
  487MOL0     C67133   0.537   6.388   0.141 -0.7064  0.5071  0.5557
  487MOL0     C67134   1.182   6.717   0.444  1.3997  0.2839 -0.0625
  487MOL0     C67135   1.277   6.818   0.444  0.1854 -0.2211 -0.8831
  487MOL0     C67136   1.346   6.844   0.580  0.8373 -0.2464  0.3080
  487MOL0     H67137   1.669   7.107   0.413 -1.4443  2.2259  0.1326
  487MOL0     H67138   1.860   7.256   0.350 -0.7962 -1.0180  0.9401
  487MOL0     H67139   2.045   7.449   0.034  1.2496  0.0370  1.2748
  487MOL0     H67140   1.986   7.304  -0.071 -0.3150 -2.5159  1.2289
  487MOL0     H67141   2.192   7.177   0.018 -1.5382 -0.3022 -1.2247
  487MOL0     H67142   2.227   7.323  -0.078 -1.8713  0.6054  0.3532
  487MOL0     H67143   2.293   7.453   0.099  0.5449 -1.2717 -3.0343
  487MOL0     H67144   2.218   7.353   0.224 -2.6648 -2.1355 -1.6534
  487MOL0     H67145   2.391   7.161   0.156  0.1339  1.0374 -3.3987
  487MOL0     H67146   2.473   7.269   0.064 -0.7342  0.3773 -0.7860
  487MOL0     H67147   2.410   7.304   0.350 -1.2245  1.7986 -0.7245
  487MOL0     H67148   2.486   7.433   0.255  0.6456 -0.4409 -1.3075
  487MOL0     H67149   2.613   7.163   0.294 -0.7135  0.4010  1.0320
  487MOL0     H67150   2.678   7.295   0.191 -0.9948  1.9537 -0.3698
  487MOL0     H67151   2.684   7.407   0.445  2.6110 -0.1530  1.0094
  487MOL0     H67152   2.811   7.293   0.389  1.1859 -2.0130  0.3088
  487MOL0     H67153   2.585   7.197   0.557 -0.3503  2.9761  0.8724
  487MOL0     H67154   2.713   7.105   0.477 -1.0876  0.6467 -0.6671
  487MOL0     H67155   2.987   7.198   0.574 -0.4429  0.5273  0.6174
  487MOL0     H67156   3.132   7.179   0.856  1.4204  2.2034  2.5299
  487MOL0     H67157   3.076   7.333   0.927 -2.4686 -0.7558  1.0510
  487MOL0     H67158   3.166   7.300   0.636  3.0279  1.1594 -0.6643
  487MOL0     H67159   3.115   7.443   0.699  2.6677  1.3827 -2.3571
  487MOL0     H67160   3.337   7.425   0.862  1.8633 -0.7335  0.5089
  487MOL0     H67161   3.353   7.269   0.778  0.8544  0.5224 -1.1257
  487MOL0     H67162   3.338   7.431   0.556  0.2401 -0.1652 -0.1413
  487MOL0     H67163   3.357   7.556   0.676  1.3930 -0.3655  2.3539
  487MOL0     H67164   3.484   7.299   0.454 -0.6335  1.8562  1.4859
  487MOL0     H67165   3.516   6.963   0.429 -1.6227  0.9386  0.3844
  487MOL0     H67166   3.657   7.015   0.330  2.2716  1.6580  1.6863
  487MOL0     H67167   3.495   7.107   0.331 -0.3418  0.1839  0.2818
  487MOL0     H67168   4.116   6.869   0.551  0.5917 -1.1767 -0.6090
  487MOL0     H67169   4.268   6.658   0.618  0.1139  0.0529  0.7070
  487MOL0     H67170   4.301   6.307   0.744  0.5629 -0.5266  0.4330
  487MOL0     H67171   4.302   6.442   0.637  1.2433 -0.0849  0.0506
  487MOL0     H67172   4.429   6.582   0.799  0.6939 -0.7822  1.9921
  487MOL0     H67173   4.401   6.460   0.931  1.7361 -1.7263  1.3219
  487MOL0     H67174   4.570   6.387   0.677 -1.4991 -1.8994  0.1555
  487MOL0     H67175   4.558   6.304   0.826  1.5638 -0.2661 -2.1622
  487MOL0     H67176   4.670   6.470   0.950  1.4283 -3.0743 -0.3879
  487MOL0     H67177   4.645   6.589   0.814 -0.3520  0.5003  1.6174
  487MOL0     H67178   4.795   6.468   0.675 -0.3531  0.8174 -0.9012
  487MOL0     H67179   4.868   6.529   0.823 -1.3499  0.3812  0.0190
  487MOL0     H67180   4.798   6.259   0.734  2.4730  1.1358 -1.5593
  487MOL0     H67181   4.813   6.270   0.915 -1.8651 -0.9852 -0.2922
  487MOL0     H67182   5.050   6.382   0.839  1.1437 -0.2581 -1.9445
  487MOL0     H67183   5.020   6.303   0.691  1.7487 -0.4125  0.4869
  487MOL0     H67184   5.033   6.139   0.950  0.6669  0.5870  0.2792
  487MOL0     H67185   5.155   6.157   0.832 -0.4900 -0.6025  0.1540
  487MOL0     H67186   3.928   6.517   0.852  0.4099  0.3912 -1.0001
  487MOL0     H67187   3.792   6.723   0.760 -0.6754  2.0837 -1.0809
  487MOL0     H67188   3.835   7.134   0.761  0.4003  1.9675  0.4327
  487MOL0     H67189   3.728   7.366   0.790  0.4470 -0.2581  0.2408
  487MOL0     H67190   1.815   7.159  -0.063 -1.5208  0.7100  0.0532
  487MOL0     H67191   1.616   7.017  -0.004  0.1529 -0.6948  0.1062
  487MOL0     H67192   1.330   6.849   0.114 -0.5063 -1.0682 -0.4006
  487MOL0     H67193   1.131   6.678   0.114 -0.6323  1.9691 -0.0522
  487MOL0     H67194   0.818   6.600   0.338 -0.5112 -1.3249 -1.0960
  487MOL0     H67195   0.906   6.732   0.246  2.0442  0.3450  2.0420
  487MOL0     H67196   0.935   6.584   0.061 -1.5335 -1.7773 -2.9665
  487MOL0     H67197   0.767   6.567   0.112 -0.2899 -1.1829  0.7748
  487MOL0     H67198   0.881   6.361   0.047 -1.8512 -1.3781  1.0091
  487MOL0     H67199   0.987   6.369   0.186  0.4157 -2.0314 -3.5366
  487MOL0     H67200   0.795   6.344   0.329 -0.6573  0.6134 -0.0831
  487MOL0     H67201   0.801   6.204   0.209 -1.6335  0.4306 -0.4440
  487MOL0     H67202   0.442   6.420   0.104 -0.0742  1.5090 -0.2584
  487MOL0     H67203   1.151   6.676   0.540  2.9424  0.3644  0.5117
  487MOL0     H67204   1.377   6.747   0.619  0.6803  0.6532  2.8408
  487MOL0     H67205   1.431   6.913   0.567  0.1908  0.5386  0.1906
  487MOL0     H67206   1.268   6.883   0.646 -0.4398 -0.5064 -0.9990
  488MOL0     O67207   4.406  10.707   2.142 -0.4400  0.2774 -0.6687
  488MOL0     C67208   4.329  10.630   2.095 -0.3346  0.0660 -0.6481
  488MOL0     O67209   4.366  10.505   2.052  0.6632  0.0953  0.1249
  488MOL0     C67210   4.499  10.477   2.051 -0.4242 -0.5149  0.4236
  488MOL0     C67211   4.596  10.530   1.969 -0.4277  0.1270 -0.0901
  488MOL0     C67212   4.724  10.477   1.965  0.5004 -0.7399  0.4381
  488MOL0     C67213   4.755  10.371   2.046 -0.8219 -0.1666 -0.1153
  488MOL0     O67214   4.885  10.334   2.030 -0.4899  0.5502  0.2208
  488MOL0     C67215   4.954  10.249   2.125  0.1961 -1.2213  0.6461
  488MOL0     C67216   5.105  10.276   2.102  0.7545  0.2886 -0.1534
  488MOL0     C67217   5.149  10.198   1.977 -0.8207 -0.7623 -0.2842
  488MOL0     C67218   5.302  10.159   1.994 -0.9778  0.0998 -0.9021
  488MOL0     C67219   5.388  10.282   1.980  0.0224  0.2013 -0.2502
  488MOL0     C67220   5.534  10.238   1.962 -0.1479  0.4324 -0.0961
  488MOL0     C67221   5.609  10.361   1.909 -0.1301  0.1071  0.4115
  488MOL0     C67222   5.759  10.318   1.915 -1.0943 -0.2520 -0.3571
  488MOL0     N67223   5.853  10.416   1.859  0.4482 -0.4672  0.2717
  488MOL0     C67224   5.853  10.453   1.730 -1.0859  0.6289  0.0464
  488MOL0     C67225   5.942  10.563   1.728 -0.1471 -0.4700 -0.1390
  488MOL0     C67226   6.003  10.631   1.603 -0.4696 -0.2260 -0.6309
  488MOL0     C67227   5.941  10.582   1.472 -0.1692 -0.4083 -0.3098
  488MOL0     C67228   5.988  10.675   1.354 -0.3483  0.6352 -0.0076
  488MOL0     C67229   5.953  10.605   1.217 -0.6749 -0.7565 -0.3327
  488MOL0     O67230   5.980  10.681   1.092  0.4624  0.4969  0.0468
  488MOL0     C67231   6.107  10.718   1.080  0.2039 -0.2385  1.8719
  488MOL0     C67232   6.191  10.620   1.045 -0.1338 -1.0112  0.1568
  488MOL0     C67233   6.324  10.643   1.009  0.0419 -0.4578  0.1430
  488MOL0     C67234   6.404  10.513   0.979  0.1178 -0.3855  0.0147
  488MOL0     C67235   6.382  10.774   1.033  0.5291  0.5496  0.2621
  488MOL0     C67236   6.525  10.806   1.022  1.2802 -0.1636  0.7273
  488MOL0     O67237   6.565  10.934   1.051 -0.6686  0.1158 -0.2926
  488MOL0     C67238   6.703  10.954   1.047 -0.3409 -0.2748 -0.1335
  488MOL0     C67239   6.750  11.063   0.976 -1.1103 -0.4149 -0.3308
  488MOL0     C67240   6.893  11.081   0.974 -0.3985  0.7599 -0.3493
  488MOL0     C67241   6.990  10.991   1.043  0.2811 -0.5759 -0.3046
  488MOL0     O67242   7.121  11.020   1.028 -0.3306  0.4128 -0.0802
  488MOL0     C67243   7.166  11.097   1.137 -0.6111 -0.2434  0.2410
  488MOL0     C67244   7.271  11.033   1.230 -0.2336  0.1842  0.3239
  488MOL0     C67245   7.346  11.128   1.329 -0.1784  0.4836  0.4810
  488MOL0     C67246   7.450  11.226   1.256 -0.3997  0.4323  0.3788
  488MOL0     C67247   7.523  11.325   1.347  0.9309 -0.5543  0.2340
  488MOL0     C67248   7.634  11.408   1.278  0.4781  0.0396  0.6114
  488MOL0     C67249   7.764  11.332   1.274 -0.0723 -0.6749  0.0716
  488MOL0     C67250   7.867  11.424   1.207 -0.3096 -0.2723  0.1637
  488MOL0    Cl67251   8.015  11.332   1.187  0.1607  0.0235  0.0753
  488MOL0     C67252   6.925  10.891   1.119  0.4200 -0.9469  0.3728
  488MOL0     C67253   6.785  10.873   1.132  0.1426  0.5840  0.2268
  488MOL0     O67254   6.597  10.713   0.981 -0.2938  0.4135 -0.5901
  488MOL0     C67255   6.286  10.878   1.066 -0.2561 -0.2020 -0.2075
  488MOL0     C67256   6.147  10.852   1.089  0.2468  0.1984  0.8412
  488MOL0     N67257   5.979  10.593   1.854  0.5784  1.0064  0.8872
  488MOL0     N67258   5.924  10.498   1.934 -0.1407  0.1560 -0.0358
  488MOL0     C67259   4.666  10.323   2.138  0.3776 -0.1972  0.7957
  488MOL0     C67260   4.535  10.365   2.127 -0.2764  0.0436  0.0835
  488MOL0     C67261   4.182  10.660   2.093  1.3106  0.4571 -0.2126
  488MOL0     C67262   4.100  10.571   2.018 -0.2869  0.8199  0.0795
  488MOL0     C67263   3.962  10.594   1.994  0.2121 -0.2496 -0.7792
  488MOL0     C67264   3.904  10.708   2.048  0.0227  0.0021  0.6303
  488MOL0     O67265   3.767  10.737   2.034 -0.0815 -0.0583 -0.3165
  488MOL0     C67266   3.690  10.654   1.947  0.0963 -0.5744  0.6824
  488MOL0     C67267   3.717  10.688   1.799 -0.2441 -0.7824 -0.9477
  488MOL0     C67268   3.618  10.628   1.697  0.4659  0.1595 -0.6044
  488MOL0     C67269   3.586  10.482   1.691 -0.2345 -0.1429  0.0806
  488MOL0     C67270   3.703  10.403   1.704 -0.4158 -0.2709  0.3310
  488MOL0     C67271   3.807  10.334   1.712 -0.1769  0.9259  0.2588
  488MOL0     C67272   3.987  10.793   2.126  0.1911  0.7258  0.6825
  488MOL0     C67273   4.122  10.772   2.161 -0.2318 -0.5048 -0.2612
  488MOL0     C67274   4.180  10.885   2.246 -0.5945 -0.5756  0.6434
  488MOL0     H67275   4.569  10.618   1.913 -0.0699 -0.0610 -0.5710
  488MOL0     H67276   4.795  10.522   1.897 -0.3651  0.2595  0.1597
  488MOL0     H67277   4.926  10.145   2.108  2.7168 -1.8120 -0.4823
  488MOL0     H67278   4.937  10.289   2.225  3.5396  3.3447 -0.2414
  488MOL0     H67279   5.129  10.381   2.086  0.9983  0.2216 -0.2284
  488MOL0     H67280   5.159  10.238   2.190 -0.2657 -0.3487  0.2269
  488MOL0     H67281   5.106  10.098   1.968  0.0530 -1.2627  0.9337
  488MOL0     H67282   5.122  10.267   1.895 -1.0521 -0.9568 -0.3718
  488MOL0     H67283   5.324  10.121   2.094 -1.9300 -0.8239 -1.0310
  488MOL0     H67284   5.322  10.086   1.915 -3.0601 -0.5276 -0.9149
  488MOL0     H67285   5.372  10.357   2.058  0.2672  1.2506 -1.1741
  488MOL0     H67286   5.356  10.343   1.894  0.7271  1.3393  0.2764
  488MOL0     H67287   5.569  10.206   2.060 -0.9324  0.2096  0.1153
  488MOL0     H67288   5.546  10.153   1.894  1.1369  2.4999 -2.6490
  488MOL0     H67289   5.587  10.450   1.969  1.2210  0.6658  0.1260
  488MOL0     H67290   5.582  10.382   1.805 -0.3487 -0.1833  0.4098
  488MOL0     H67291   5.772  10.311   2.023 -0.4073  2.0318 -0.2468
  488MOL0     H67292   5.783  10.223   1.865 -2.3785 -1.3006  0.9311
  488MOL0     H67293   5.800  10.404   1.650  1.8880 -1.1013 -1.0254
  488MOL0     H67294   6.112  10.618   1.605 -0.5594 -1.2712  2.5487
  488MOL0     H67295   5.992  10.739   1.618  0.5842 -0.1169 -0.5491
  488MOL0     H67296   5.970  10.476   1.468 -0.9303 -1.0129  4.4989
  488MOL0     H67297   5.833  10.596   1.482  0.2813  3.6465  0.4280
  488MOL0     H67298   5.934  10.768   1.371 -0.2963  0.9950 -1.6266
  488MOL0     H67299   6.098  10.683   1.354 -0.1029 -1.7016  1.8961
  488MOL0     H67300   6.019  10.517   1.219  0.6127  0.1669  2.4232
  488MOL0     H67301   5.846  10.589   1.203 -1.0394  1.3801 -0.2559
  488MOL0     H67302   6.147  10.521   1.041 -0.0280 -1.0276 -1.1848
  488MOL0     H67303   6.467  10.492   1.066 -0.7349  1.3299  1.1064
  488MOL0     H67304   6.469  10.518   0.890  0.4547  2.4750  0.3053
  488MOL0     H67305   6.337  10.433   0.948 -2.3327  1.5277  0.0930
  488MOL0     H67306   6.680  11.136   0.935 -0.0299 -0.0867 -1.6725
  488MOL0     H67307   6.925  11.168   0.917  1.7206  1.2301  1.3858
  488MOL0     H67308   7.213  11.188   1.098 -0.9044  0.8234  2.2385
  488MOL0     H67309   7.086  11.139   1.199 -1.7308  2.0509 -2.5172
  488MOL0     H67310   7.212  10.966   1.293 -2.2980  0.7038 -0.9338
  488MOL0     H67311   7.344  10.977   1.171  1.3513  2.0706  0.3904
  488MOL0     H67312   7.414  11.067   1.389  1.6700  0.3700 -1.6045
  488MOL0     H67313   7.279  11.172   1.403  0.2258 -2.1684  2.5854
  488MOL0     H67314   7.399  11.272   1.170 -0.2648 -0.0693  0.0233
  488MOL0     H67315   7.529  11.168   1.207 -1.3667  0.6061 -1.4863
  488MOL0     H67316   7.444  11.388   1.391  0.0807 -2.4794  1.6002
  488MOL0     H67317   7.561  11.263   1.429 -3.3407 -1.2797  1.9741
  488MOL0     H67318   7.648  11.508   1.319 -1.7113  1.2907 -1.4721
  488MOL0     H67319   7.587  11.433   1.183 -2.4678  1.4117  2.3174
  488MOL0     H67320   7.744  11.243   1.214  0.0925 -0.9280  0.3929
  488MOL0     H67321   7.796  11.305   1.375 -1.2109 -0.7887  0.4116
  488MOL0     H67322   7.891  11.508   1.273  0.2515 -0.2075 -0.1206
  488MOL0     H67323   7.827  11.467   1.115  0.5900  0.9967  0.3388
  488MOL0     H67324   6.990  10.834   1.184  0.3753 -0.9063  0.4542
  488MOL0     H67325   6.752  10.790   1.194 -2.0867 -0.4702 -2.1624
  488MOL0     H67326   6.323  10.976   1.093 -0.4236 -0.4461  1.0125
  488MOL0     H67327   6.083  10.937   1.110 -1.0673 -0.4124 -0.5334
  488MOL0     H67328   4.689  10.240   2.204  0.0716  0.9096  2.3767
  488MOL0     H67329   4.455  10.307   2.173 -0.7224  0.7545  0.2242
  488MOL0     H67330   4.152  10.493   1.963  1.3486  2.5152 -0.8812
  488MOL0     H67331   3.911  10.520   1.933 -0.6327 -0.7515  0.5046
  488MOL0     H67332   3.701  10.547   1.968 -1.8793 -0.6071  1.8004
  488MOL0     H67333   3.582  10.668   1.963  0.2246 -0.0890  1.1443
  488MOL0     H67334   3.819  10.654   1.781  0.6055  0.6083  0.9680
  488MOL0     H67335   3.711  10.795   1.777 -3.0993 -1.0461 -1.9464
  488MOL0     H67336   3.523  10.680   1.710  0.2795  0.3689 -2.5817
  488MOL0     H67337   3.649  10.670   1.601  1.1233  2.7705  0.6303
  488MOL0     H67338   3.544  10.470   1.590  0.1208 -1.8243  0.0994
  488MOL0     H67339   3.505  10.453   1.758 -1.4840  1.3247 -0.7290
  488MOL0     H67340   3.886  10.261   1.711 -0.1809  0.8915  1.1963
  488MOL0     H67341   3.927  10.879   2.155 -0.7833  0.6183 -0.9154
  488MOL0     H67342   4.155  10.981   2.200  1.1796 -0.2701  0.2398
  488MOL0     H67343   4.118  10.900   2.335 -1.0800  0.2851  0.1818
  488MOL0     H67344   4.285  10.879   2.276 -0.1395  0.9499 -0.5532
  489MOL0     O67345   1.318   7.225   5.249 -0.5547  0.2164  0.3263
  489MOL0     C67346   1.341   7.343   5.266 -0.4384  0.6518  0.4579
  489MOL0     O67347   1.245   7.441   5.272  0.2411  0.1548 -0.1696
  489MOL0     C67348   1.109   7.417   5.268 -0.3182  0.0617 -0.5832
  489MOL0     C67349   1.028   7.490   5.362 -0.1169 -0.3288 -0.3686
  489MOL0     C67350   0.890   7.479   5.370 -0.0165  0.7403  0.5549
  489MOL0     C67351   0.828   7.380   5.289  0.1862  0.1373  1.5276
  489MOL0     O67352   0.694   7.358   5.278  0.2677  0.6483  0.4151
  489MOL0     C67353   0.612   7.439   5.363  0.4020  0.2738  0.0702
  489MOL0     C67354   0.461   7.409   5.325  1.1284 -0.1037 -0.6873
  489MOL0     C67355   0.371   7.446   5.444 -0.0810  0.7571  0.0973
  489MOL0     C67356   0.234   7.365   5.440  0.3265  0.1997 -0.9767
  489MOL0     C67357   0.147   7.371   5.561  0.7529  0.4492 -0.2309
  489MOL0     C67358   0.121   7.515   5.604  0.0817 -0.2333  0.0290
  489MOL0     C67359   0.037   7.532   5.740 -0.0531 -0.5098  0.0558
  489MOL0     C67360  -0.108   7.539   5.714 -0.8725  1.1035 -0.2750
  489MOL0     N67361  -0.181   7.528   5.837  0.1166 -0.1997 -0.9320
  489MOL0     C67362  -0.241   7.636   5.901  0.0667 -0.5917 -0.7424
  489MOL0     C67363  -0.344   7.579   5.965  0.0240 -0.7668 -0.1064
  489MOL0     C67364  -0.454   7.652   6.046 -0.3461  0.2875  0.0013
  489MOL0     C67365  -0.395   7.761   6.130  0.3135 -0.3266 -0.5094
  489MOL0     C67366  -0.317   7.708   6.258  0.0950 -0.2286 -0.9780
  489MOL0     C67367  -0.174   7.761   6.276 -0.1879  0.3460 -0.1942
  489MOL0     O67368  -0.081   7.727   6.175 -0.2786  0.2406 -0.7805
  489MOL0     C67369   0.038   7.790   6.199  0.4887 -0.3548 -0.7685
  489MOL0     C67370   0.053   7.926   6.204  0.2826 -0.7981 -0.1050
  489MOL0     C67371   0.169   7.993   6.240 -0.5936 -0.0772  0.1159
  489MOL0     C67372   0.166   8.142   6.210 -0.0409  0.8863  0.0709
  489MOL0     C67373   0.284   7.920   6.268 -0.1609  0.0205 -0.8176
  489MOL0     C67374   0.425   7.973   6.277  0.0508  0.3878 -0.8897
  489MOL0     O67375   0.432   8.096   6.305 -0.4986 -0.4944  0.4210
  489MOL0     C67376   0.553   8.158   6.287  0.0852  0.7702 -0.4345
  489MOL0     C67377   0.567   8.253   6.182 -0.0243  0.9046 -0.1463
  489MOL0     C67378   0.685   8.320   6.175  0.4938  0.4092 -0.0610
  489MOL0     C67379   0.793   8.306   6.272 -0.4766 -0.3830 -1.1745
  489MOL0     O67380   0.906   8.382   6.252 -0.6190 -0.2189  0.1783
  489MOL0     C67381   1.040   8.331   6.250 -0.3371  0.0373  0.7951
  489MOL0     C67382   1.096   8.301   6.391  0.2992 -0.3615  1.1160
  489MOL0     C67383   1.216   8.384   6.427  0.0471 -0.4783  0.5722
  489MOL0     C67384   1.290   8.314   6.545  0.0836  0.2053 -0.1547
  489MOL0     C67385   1.402   8.408   6.604  1.5372  0.1115  0.2459
  489MOL0     C67386   1.473   8.353   6.724 -0.4709 -0.0361  0.3211
  489MOL0     C67387   1.588   8.442   6.779  0.0531  0.3878  0.0446
  489MOL0     C67388   1.691   8.368   6.872 -0.0248 -0.5514  0.3297
  489MOL0    Cl67389   1.788   8.493   6.965 -0.6308  0.0845 -0.3044
  489MOL0     C67390   0.782   8.205   6.368 -0.0324  0.5750  0.4404
  489MOL0     C67391   0.661   8.136   6.373  0.2518  0.3896  0.1045
  489MOL0     O67392   0.519   7.898   6.261  0.3622  0.0817  0.0608
  489MOL0     C67393   0.266   7.782   6.284 -0.3157 -0.5359 -0.6760
  489MOL0     C67394   0.148   7.719   6.249 -0.9444  0.0058  0.0679
  489MOL0     N67395  -0.338   7.437   5.950  0.0385 -0.7765  0.0654
  489MOL0     N67396  -0.234   7.408   5.873 -0.5396 -0.1590  0.0633
  489MOL0     C67397   0.905   7.313   5.195 -0.5969 -0.5604 -0.9332
  489MOL0     C67398   1.042   7.332   5.183 -0.2631 -0.0202  0.3144
  489MOL0     C67399   1.484   7.394   5.271  0.0976 -0.4449  0.4328
  489MOL0     C67400   1.509   7.533   5.247 -0.4275  0.3131  0.2552
  489MOL0     C67401   1.638   7.583   5.240 -0.0041 -0.8717  0.2273
  489MOL0     C67402   1.743   7.509   5.275  0.4778  0.5593 -0.5875
  489MOL0     O67403   1.865   7.571   5.267 -0.1523 -0.4129 -0.1473
  489MOL0     C67404   1.978   7.491   5.292  0.0460  0.2959 -0.4373
  489MOL0     C67405   2.102   7.580   5.272  0.2243  0.1853  0.0079
  489MOL0     C67406   2.229   7.490   5.303  0.5154  0.7314 -0.1143
  489MOL0     C67407   2.357   7.566   5.297 -0.1872 -0.4821 -0.2087
  489MOL0     C67408   2.403   7.625   5.169 -0.1876  0.9249  0.7063
  489MOL0     C67409   2.437   7.671   5.061 -0.2649  0.1955 -0.6343
  489MOL0     C67410   1.726   7.379   5.315  0.3645  0.2149  0.5706
  489MOL0     C67411   1.599   7.317   5.315 -0.5482  0.1237  1.2562
  489MOL0     C67412   1.589   7.169   5.354 -0.1802 -0.4758  0.5449
  489MOL0     H67413   1.081   7.553   5.433  0.0314  0.0814 -0.8376
  489MOL0     H67414   0.834   7.547   5.434 -2.9966 -0.3633 -0.6756
  489MOL0     H67415   0.640   7.544   5.357  2.1503 -0.1902 -0.7600
  489MOL0     H67416   0.628   7.402   5.465  0.6442  0.1902  0.0027
  489MOL0     H67417   0.436   7.465   5.234  1.7379  0.3075 -0.6053
  489MOL0     H67418   0.455   7.301   5.311  0.6642 -0.9803  4.3576
  489MOL0     H67419   0.421   7.433   5.540  1.1878  1.0071 -0.5005
  489MOL0     H67420   0.351   7.552   5.426  2.9917  1.1253 -1.8715
  489MOL0     H67421   0.175   7.413   5.361  1.4668  1.3734 -1.1539
  489MOL0     H67422   0.253   7.263   5.407  3.1262  1.0884 -2.5043
  489MOL0     H67423   0.177   7.311   5.648 -1.9196  0.9382  1.1437
  489MOL0     H67424   0.049   7.333   5.531  0.5431 -1.0471  2.0598
  489MOL0     H67425   0.214   7.563   5.634 -0.5761  0.1754  1.5264
  489MOL0     H67426   0.080   7.573   5.521 -1.1409 -0.8447  0.1776
  489MOL0     H67427   0.076   7.619   5.794  0.8850 -1.6279  1.2380
  489MOL0     H67428   0.052   7.445   5.805  0.7546 -2.0312 -2.0556
  489MOL0     H67429  -0.127   7.635   5.666 -0.2189  0.6529 -1.4729
  489MOL0     H67430  -0.137   7.470   5.634 -1.3224 -0.1057  0.9011
  489MOL0     H67431  -0.198   7.735   5.909 -1.1995 -0.1268  0.7439
  489MOL0     H67432  -0.511   7.584   6.109  0.1230 -0.1796 -0.0767
  489MOL0     H67433  -0.524   7.691   5.971  1.1826  1.6413 -0.7780
  489MOL0     H67434  -0.325   7.817   6.068 -0.3992 -2.4760 -3.5025
  489MOL0     H67435  -0.481   7.822   6.159 -0.8835 -1.9111 -0.5191
  489MOL0     H67436  -0.370   7.733   6.350 -1.6458 -0.1368 -1.9655
  489MOL0     H67437  -0.317   7.599   6.261 -3.0313 -0.3044 -0.1801
  489MOL0     H67438  -0.184   7.868   6.298 -2.3091  0.3403 -0.8688
  489MOL0     H67439  -0.124   7.732   6.369 -0.3216 -0.1631 -0.2792
  489MOL0     H67440  -0.033   7.984   6.173  1.7368  0.6729 -1.6891
  489MOL0     H67441   0.251   8.163   6.144  0.6915  0.7760  0.9605
  489MOL0     H67442   0.191   8.191   6.304  2.7831 -1.7545  0.8401
  489MOL0     H67443   0.072   8.177   6.166 -1.9495 -1.3012  2.1447
  489MOL0     H67444   0.491   8.279   6.109  1.3228  0.2228 -1.8505
  489MOL0     H67445   0.716   8.389   6.097  1.5460 -0.0855 -0.1046
  489MOL0     H67446   1.039   8.241   6.188 -2.3852  1.1324 -0.8613
  489MOL0     H67447   1.098   8.409   6.200 -1.7580  2.4702  2.7406
  489MOL0     H67448   1.024   8.320   6.471  0.9818  2.7338  1.0938
  489MOL0     H67449   1.117   8.193   6.391 -2.8167 -1.0672  1.8615
  489MOL0     H67450   1.189   8.488   6.445  1.0803  0.0232 -0.5894
  489MOL0     H67451   1.283   8.379   6.340  2.4265  1.6525  2.1614
  489MOL0     H67452   1.321   8.214   6.513  0.3698  0.1532  0.2750
  489MOL0     H67453   1.216   8.298   6.624  1.8889 -1.1198  1.3555
  489MOL0     H67454   1.479   8.433   6.531  0.2760 -0.0632 -1.1882
  489MOL0     H67455   1.335   8.492   6.625  0.7822 -0.2414 -0.6937
  489MOL0     H67456   1.499   8.251   6.693 -3.2369  0.3114 -3.9623
  489MOL0     H67457   1.405   8.345   6.809  0.2589 -2.1067  0.7893
  489MOL0     H67458   1.533   8.525   6.824 -1.7038  0.5078 -2.1410
  489MOL0     H67459   1.642   8.491   6.698  0.5108  1.3302  0.9002
  489MOL0     H67460   1.752   8.296   6.818 -0.4047  0.8905 -2.1977
  489MOL0     H67461   1.627   8.309   6.938 -0.3169  0.2191  0.7599
  489MOL0     H67462   0.861   8.175   6.436 -0.3489  2.0932  1.5274
  489MOL0     H67463   0.639   8.064   6.450 -2.9340  2.4294  1.3234
  489MOL0     H67464   0.351   7.723   6.317  0.2139 -0.0287 -1.0836
  489MOL0     H67465   0.152   7.610   6.253 -3.7534 -0.3748 -3.2055
  489MOL0     H67466   0.864   7.241   5.125 -0.7215 -0.5453 -0.8757
  489MOL0     H67467   1.099   7.262   5.122 -1.4548  0.0139 -0.8734
  489MOL0     H67468   1.423   7.599   5.244 -0.4916  0.2060 -0.3177
  489MOL0     H67469   1.654   7.685   5.207 -0.4818  1.0525  5.0883
  489MOL0     H67470   1.982   7.440   5.388  0.6352  2.4616  0.7771
  489MOL0     H67471   1.987   7.414   5.214  1.0435  0.7296 -0.7716
  489MOL0     H67472   2.103   7.666   5.339  0.6031 -0.1117  0.3927
  489MOL0     H67473   2.106   7.608   5.167 -1.6410 -1.3251 -0.5271
  489MOL0     H67474   2.214   7.452   5.405  1.9508  0.1869 -0.0884
  489MOL0     H67475   2.227   7.402   5.238 -1.2757 -1.5004  2.6901
  489MOL0     H67476   2.437   7.495   5.320  1.4818  1.2674 -0.2996
  489MOL0     H67477   2.367   7.642   5.375  1.2228  0.4472 -1.2420
  489MOL0     H67478   2.465   7.692   4.960  2.2528 -2.4985 -0.6330
  489MOL0     H67479   1.816   7.327   5.347 -0.6946 -0.2744  2.9780
  489MOL0     H67480   1.524   7.151   5.440 -0.6625 -2.1073 -0.1191
  489MOL0     H67481   1.555   7.110   5.268  1.4236 -0.7384  0.0634
  489MOL0     H67482   1.687   7.137   5.388  0.4201  1.6992  0.9905
  490MOL0     O67483  11.096   5.523   1.312 -0.0015  0.4981  0.2487
  490MOL0     C67484  11.052   5.613   1.382 -1.2406  0.1367 -0.6076
  490MOL0     O67485  10.924   5.654   1.403  0.1664  1.1972  0.4329
  490MOL0     C67486  10.814   5.568   1.375 -0.6528 -0.2510  0.0099
  490MOL0     C67487  10.683   5.619   1.411 -0.5581 -0.4695 -0.9580
  490MOL0     C67488  10.572   5.532   1.412 -0.8813 -0.8907 -0.7075
  490MOL0     C67489  10.574   5.402   1.371 -0.3724  0.7369 -0.1124
  490MOL0     O67490  10.475   5.304   1.366 -1.0432 -0.3757  0.1302
  490MOL0     C67491  10.371   5.308   1.458  0.7492  0.2280  0.0756
  490MOL0     C67492  10.293   5.175   1.465 -0.0079 -0.2587 -0.5450
  490MOL0     C67493  10.386   5.044   1.484  0.2390  0.3219  0.1343
  490MOL0     C67494  10.471   5.051   1.609 -0.0723 -0.2580 -0.3399
  490MOL0     C67495  10.567   4.934   1.621  0.5343  0.1239 -0.7431
  490MOL0     C67496  10.618   4.913   1.763  0.2618  0.0344  0.3344
  490MOL0     C67497  10.746   4.830   1.766 -0.3275  0.5324  0.2912
  490MOL0     C67498  10.770   4.811   1.909 -0.7989 -0.6336 -0.4321
  490MOL0     N67499  10.817   4.938   1.974  0.7454  0.4406 -0.2356
  490MOL0     C67500  10.935   4.987   1.954  0.1697 -0.3813  0.4060
  490MOL0     C67501  10.931   5.098   2.031 -0.3073 -0.2198 -0.3122
  490MOL0     C67502  11.061   5.174   2.056  0.5208 -0.8918  0.1466
  490MOL0     C67503  11.163   5.086   2.128 -0.1081  0.6572 -0.0806
  490MOL0     C67504  11.164   5.103   2.279  0.0919 -0.1467  0.2588
  490MOL0     C67505  11.260   5.014   2.361  0.7151 -0.9385  1.2836
  490MOL0     O67506  11.390   5.055   2.343  0.3852 -0.4846  0.3786
  490MOL0     C67507  11.494   4.987   2.399 -0.4661 -0.2800  0.2209
  490MOL0     C67508  11.483   4.877   2.494 -0.5648 -0.6343 -0.0436
  490MOL0     C67509  11.599   4.804   2.533  0.0737  0.2878  0.8939
  490MOL0     C67510  11.578   4.680   2.611  0.0798  1.1789  0.1414
  490MOL0     C67511  11.726   4.852   2.499 -0.2637 -0.3842 -0.3729
  490MOL0     C67512  11.855   4.787   2.535 -1.0423  0.0068  0.0517
  490MOL0     O67513  11.953   4.786   2.443  0.8694 -0.2721 -0.3109
  490MOL0     C67514  12.087   4.777   2.461 -0.4245  0.1082 -0.1427
  490MOL0     C67515  12.155   4.784   2.582 -0.3964 -0.8922  0.2573
  490MOL0     C67516  12.291   4.785   2.583 -0.3340 -0.1696  0.3859
  490MOL0     C67517  12.367   4.758   2.469 -1.3858 -1.1841  0.4752
  490MOL0     O67518  12.501   4.752   2.467  0.0400  0.4369 -0.6046
  490MOL0     C67519  12.579   4.762   2.589  0.9633  0.0598  0.4567
  490MOL0     C67520  12.727   4.771   2.555  0.1175  1.2882  0.0281
  490MOL0     C67521  12.808   4.730   2.683 -1.0333 -0.5278 -0.2189
  490MOL0     C67522  12.955   4.718   2.636  0.7759 -0.1194 -0.4629
  490MOL0     C67523  13.044   4.677   2.750  0.6499  0.1411  0.7807
  490MOL0     C67524  13.029   4.531   2.785 -0.1822 -0.3499 -0.5905
  490MOL0     C67525  13.114   4.495   2.905 -0.4645 -0.4292 -0.4267
  490MOL0     C67526  13.148   4.341   2.917 -0.5249 -0.6914  0.8557
  490MOL0    Cl67527  13.226   4.305   2.768 -0.1726 -0.0887 -0.1677
  490MOL0     C67528  12.293   4.752   2.347  0.5308  0.4937 -0.6046
  490MOL0     C67529  12.150   4.757   2.344 -0.5709 -0.0029 -0.0784
  490MOL0     O67530  11.875   4.750   2.658  0.1439  0.3513  0.4856
  490MOL0     C67531  11.734   4.967   2.421  0.1947 -0.2419 -0.0875
  490MOL0     C67532  11.622   5.031   2.366  0.3674  0.5711  0.7354
  490MOL0     N67533  10.811   5.118   2.101 -0.4836  0.0198 -0.5748
  490MOL0     N67534  10.744   5.018   2.067  0.3702 -0.2716 -0.2265
  490MOL0     C67535  10.697   5.354   1.321  0.2175  0.2418 -0.6020
  490MOL0     C67536  10.812   5.435   1.325 -0.1384  0.0138  0.4141
  490MOL0     C67537  11.154   5.708   1.440 -0.5807  0.4147 -0.0610
  490MOL0     C67538  11.100   5.809   1.523 -0.7618  0.7401  0.0893
  490MOL0     C67539  11.177   5.906   1.573 -0.2700 -0.3860 -0.0428
  490MOL0     C67540  11.312   5.916   1.550  0.3123  0.2316  0.4301
  490MOL0     O67541  11.369   6.034   1.595  0.3602  0.7195 -0.7220
  490MOL0     C67542  11.499   6.059   1.547 -0.3556 -0.5186 -0.1194
  490MOL0     C67543  11.605   5.997   1.640  0.0039  0.4659  0.2504
  490MOL0     C67544  11.745   5.984   1.581 -0.4779  0.0221 -0.2597
  490MOL0     C67545  11.806   6.120   1.552  0.3041  0.6147  0.2978
  490MOL0     C67546  11.957   6.108   1.541  0.3269 -0.2495  0.1596
  490MOL0     C67547  12.071   6.090   1.529  0.0134  0.1133 -1.5025
  490MOL0     C67548  11.372   5.811   1.465  0.1510  0.2132 -0.1902
  490MOL0     C67549  11.292   5.711   1.409  0.4177  1.2785 -0.6139
  490MOL0     C67550  11.365   5.613   1.315 -0.1593 -0.0115 -0.2227
  490MOL0     H67551  10.681   5.715   1.462 -3.4726 -1.5519  1.1896
  490MOL0     H67552  10.475   5.571   1.443 -1.0699 -1.9201  0.0857
  490MOL0     H67553  10.305   5.390   1.427 -2.0794 -1.6582  0.7177
  490MOL0     H67554  10.415   5.331   1.555  0.6717  0.6834  0.0041
  490MOL0     H67555  10.230   5.186   1.553  0.6803  1.7049 -0.2529
  490MOL0     H67556  10.228   5.170   1.377  0.0942  0.7567 -0.6829
  490MOL0     H67557  10.321   4.958   1.503  1.1345 -0.7671 -1.5212
  490MOL0     H67558  10.448   5.023   1.396  0.6798  0.7373  0.3374
  490MOL0     H67559  10.529   5.144   1.607 -0.6563  0.0985 -1.1618
  490MOL0     H67560  10.404   5.043   1.695  0.5776  0.7074  0.2775
  490MOL0     H67561  10.662   4.952   1.569  0.0084  5.1387 -0.4757
  490MOL0     H67562  10.514   4.843   1.592 -1.2385  0.6893  0.5789
  490MOL0     H67563  10.639   5.010   1.809  1.1639 -0.1174  0.2588
  490MOL0     H67564  10.537   4.866   1.820  0.1831 -1.2266 -0.7834
  490MOL0     H67565  10.829   4.884   1.719  0.8455 -1.5578 -0.1845
  490MOL0     H67566  10.731   4.729   1.725  0.4360  0.6467 -0.2915
  490MOL0     H67567  10.679   4.779   1.961 -0.2958  0.4868  1.2177
  490MOL0     H67568  10.835   4.726   1.930 -2.3226 -1.6482  0.3840
  490MOL0     H67569  11.016   4.941   1.897  0.8493 -3.9431  3.7814
  490MOL0     H67570  11.040   5.266   2.111 -1.3483 -1.0661 -0.2170
  490MOL0     H67571  11.096   5.211   1.959 -1.1080 -2.5552 -1.1596
  490MOL0     H67572  11.161   4.978   2.112  1.3857  0.4477  0.9025
  490MOL0     H67573  11.264   5.100   2.090 -0.3992 -1.1195 -1.6564
  490MOL0     H67574  11.188   5.206   2.305  1.0305  0.1769 -1.7200
  490MOL0     H67575  11.061   5.087   2.315 -0.3546 -0.0366 -0.9200
  490MOL0     H67576  11.230   5.015   2.466  1.1187  0.4328  1.4057
  490MOL0     H67577  11.239   4.917   2.314 -0.1588  0.3960 -1.2281
  490MOL0     H67578  11.387   4.857   2.539 -0.7302  1.2203  0.5439
  490MOL0     H67579  11.637   4.684   2.703 -1.9097 -1.6149  1.6881
  490MOL0     H67580  11.593   4.588   2.554  1.3104  0.4512  1.5632
  490MOL0     H67581  11.474   4.678   2.645  0.1619  2.7100  0.5426
  490MOL0     H67582  12.112   4.801   2.680 -1.6605 -0.5317 -0.3302
  490MOL0     H67583  12.333   4.785   2.683 -2.9724 -0.0255  1.5765
  490MOL0     H67584  12.548   4.848   2.648  2.5095  0.1349  1.2025
  490MOL0     H67585  12.546   4.685   2.658 -1.4035  0.6387  0.0585
  490MOL0     H67586  12.748   4.704   2.471 -1.4954 -2.5854  2.4366
  490MOL0     H67587  12.772   4.864   2.519  0.4543  1.3739  0.6452
  490MOL0     H67588  12.772   4.636   2.726 -0.1936 -0.0462  1.6937
  490MOL0     H67589  12.803   4.809   2.759  1.5001 -1.1605  0.7203
  490MOL0     H67590  12.989   4.804   2.579 -0.3008  0.3990 -0.3530
  490MOL0     H67591  12.961   4.637   2.562  1.8108 -0.3164 -0.1716
  490MOL0     H67592  13.145   4.698   2.715  0.1717  0.0088 -0.7664
  490MOL0     H67593  13.013   4.729   2.840 -0.0441  2.7697 -0.8614
  490MOL0     H67594  13.041   4.462   2.702  1.6841  0.7020 -1.2394
  490MOL0     H67595  12.925   4.519   2.819  0.4606 -0.4156  1.4606
  490MOL0     H67596  13.072   4.536   2.998  1.1354  0.4849 -0.0641
  490MOL0     H67597  13.209   4.549   2.902  1.3817 -3.4199  0.2252
  490MOL0     H67598  13.056   4.285   2.936 -1.6406  0.6144 -0.5076
  490MOL0     H67599  13.216   4.321   3.000 -0.5937 -0.2621  1.0156
  490MOL0     H67600  12.351   4.747   2.256  0.2006 -2.2358 -0.7505
  490MOL0     H67601  12.097   4.751   2.249 -0.9027  1.5710 -0.0178
  490MOL0     H67602  11.836   4.999   2.400  0.1578 -0.9274 -1.4140
  490MOL0     H67603  11.632   5.117   2.300 -0.7499  0.9617  1.0461
  490MOL0     H67604  10.715   5.247   1.313  0.4058  0.4227 -3.6204
  490MOL0     H67605  10.906   5.390   1.293  1.5265  2.1878  1.8932
  490MOL0     H67606  10.993   5.825   1.523 -0.9219  0.1681 -2.3336
  490MOL0     H67607  11.127   5.990   1.619 -1.2825 -0.1831 -1.4266
  490MOL0     H67608  11.520   6.029   1.444  1.5117  1.0001 -0.2355
  490MOL0     H67609  11.508   6.168   1.546  1.1163 -0.6103  0.9050
  490MOL0     H67610  11.569   5.896   1.663 -0.9376  0.5336 -0.8268
  490MOL0     H67611  11.620   6.049   1.735  3.0129 -1.9447  1.2467
  490MOL0     H67612  11.806   5.926   1.651 -1.5116 -2.7793 -1.5114
  490MOL0     H67613  11.742   5.918   1.494 -1.0169 -0.7231  0.3138
  490MOL0     H67614  11.783   6.190   1.632 -0.1542 -0.2089  0.9021
  490MOL0     H67615  11.762   6.155   1.458  0.9560  0.1629 -0.1832
  490MOL0     H67616  12.176   6.083   1.512  0.3550  2.6474 -0.7975
  490MOL0     H67617  11.474   5.810   1.427  0.4070 -0.2008  0.4841
  490MOL0     H67618  11.301   5.580   1.233 -2.5303 -2.0646  2.2630
  490MOL0     H67619  11.435   5.684   1.270  1.0141 -0.7072  0.4524
  490MOL0     H67620  11.415   5.528   1.363  0.7188  0.3217 -0.5357
  491MOL0     O67621  10.202   8.662   4.813  0.4882  0.3177 -0.2080
  491MOL0     C67622  10.276   8.588   4.755  0.7568  0.5466 -0.5226
  491MOL0     O67623  10.267   8.444   4.747 -0.0091  0.3403 -0.1327
  491MOL0     C67624  10.155   8.392   4.818 -0.2872  0.8280  0.1512
  491MOL0     C67625  10.023   8.386   4.769 -0.2126  0.0071 -0.5569
  491MOL0     C67626   9.914   8.314   4.829 -0.4088  0.3359  0.1750
  491MOL0     C67627   9.936   8.256   4.950  0.0269  0.6285  0.0316
  491MOL0     O67628   9.835   8.198   5.023  0.5350  0.1844 -1.4129
  491MOL0     C67629   9.715   8.160   4.960 -0.2713 -0.5009 -0.1034
  491MOL0     C67630   9.622   8.107   5.070 -0.1489  0.2545  0.2774
  491MOL0     C67631   9.486   8.067   5.016 -0.2436 -0.6492  0.5197
  491MOL0     C67632   9.490   7.979   4.887 -0.1664  0.0183  0.7114
  491MOL0     C67633   9.356   7.930   4.839  0.1075  0.3673  0.5172
  491MOL0     C67634   9.279   7.849   4.943 -0.4094 -0.6244 -0.4333
  491MOL0     C67635   9.140   7.799   4.917  0.0060 -0.2750  0.8307
  491MOL0     C67636   9.038   7.910   4.925 -0.2886 -0.0865 -0.3176
  491MOL0     N67637   8.906   7.845   4.919 -0.6306  0.2990 -0.6098
  491MOL0     C67638   8.839   7.769   5.009  0.1744  0.2445  0.4349
  491MOL0     C67639   8.716   7.746   4.966  0.4959 -0.1374 -0.3017
  491MOL0     C67640   8.609   7.656   5.030 -0.2621  0.3393  0.6632
  491MOL0     C67641   8.639   7.505   5.035  0.2166 -0.0457 -0.3808
  491MOL0     C67642   8.642   7.444   4.894  0.0077 -0.0445  1.2429
  491MOL0     C67643   8.774   7.465   4.808  1.0925  0.1294  1.0200
  491MOL0     O67644   8.884   7.408   4.881 -0.5949  0.5949 -0.1452
  491MOL0     C67645   9.010   7.425   4.833  0.1999  0.4532  0.3206
  491MOL0     C67646   9.046   7.485   4.709  0.3932 -0.1727  0.7271
  491MOL0     C67647   9.180   7.509   4.671  0.1656  0.0990  0.1108
  491MOL0     C67648   9.205   7.577   4.538 -0.0627  0.1347  0.7990
  491MOL0     C67649   9.279   7.456   4.753 -0.1637  0.8116 -0.0898
  491MOL0     C67650   9.427   7.452   4.717  0.3562 -0.7022 -0.3595
  491MOL0     O67651   9.515   7.357   4.773 -0.7098  0.9700  0.8303
  491MOL0     C67652   9.622   7.340   4.688 -0.1037  0.8713 -0.2567
  491MOL0     C67653   9.748   7.331   4.746  0.1748  0.0503 -0.6572
  491MOL0     C67654   9.859   7.293   4.674 -0.8932  0.0796  0.4289
  491MOL0     C67655   9.852   7.278   4.536  0.0034 -0.1305  0.4802
  491MOL0     O67656   9.970   7.234   4.482 -0.0934  0.4939  0.1380
  491MOL0     C67657   9.967   7.169   4.359 -0.3670 -0.0370  1.3533
  491MOL0     C67658   9.917   7.028   4.389 -0.2517 -0.1902  0.1124
  491MOL0     C67659   9.995   6.956   4.502 -1.0758 -0.1777 -1.1330
  491MOL0     C67660  10.003   6.814   4.473  1.3511  0.4677  0.0953
  491MOL0     C67661  10.099   6.735   4.557  0.0606 -0.5335 -0.0722
  491MOL0     C67662  10.118   6.586   4.530  0.3363 -0.1434  0.3379
  491MOL0     C67663  10.194   6.513   4.642 -0.1343  0.0916 -0.1909
  491MOL0     C67664  10.343   6.522   4.643  0.7324 -0.0902  0.4175
  491MOL0    Cl67665  10.422   6.435   4.779 -0.0397  0.1975  0.7307
  491MOL0     C67666   9.721   7.290   4.473 -0.5366 -0.1761  0.7100
  491MOL0     C67667   9.609   7.317   4.552  0.3283  0.4203  0.1878
  491MOL0     O67668   9.467   7.552   4.651 -0.0425 -0.1455 -0.8759
  491MOL0     C67669   9.245   7.396   4.876 -0.0128  0.2541 -0.6335
  491MOL0     C67670   9.112   7.387   4.917  0.1232 -0.4102  0.2175
  491MOL0     N67671   8.705   7.818   4.847 -0.3760 -0.2365  0.0893
  491MOL0     N67672   8.812   7.886   4.824  0.3849  0.3258 -0.5416
  491MOL0     C67673  10.066   8.272   5.012 -0.2849  0.7689 -0.1343
  491MOL0     C67674  10.173   8.326   4.947 -0.7349  0.3489  0.8453
  491MOL0     C67675  10.398   8.639   4.695 -0.6219  0.9955  0.8942
  491MOL0     C67676  10.515   8.564   4.697 -0.6865  0.9865 -0.6683
  491MOL0     C67677  10.643   8.599   4.653  0.5708 -0.5963  0.5989
  491MOL0     C67678  10.657   8.733   4.596  0.4570  0.5623 -0.2727
  491MOL0     O67679  10.778   8.784   4.565  0.0425  0.0475 -0.0273
  491MOL0     C67680  10.799   8.921   4.527 -0.1623 -0.3472  0.6770
  491MOL0     C67681  10.947   8.948   4.502  0.3615  0.4009 -0.0520
  491MOL0     C67682  11.043   9.004   4.618  0.6099 -0.3712  0.5682
  491MOL0     C67683  11.029   8.934   4.749  0.8586  0.3439  0.5944
  491MOL0     C67684  11.045   8.788   4.748  0.4472  0.0749  0.2563
  491MOL0     C67685  11.045   8.666   4.745 -0.1799 -0.0720 -0.1883
  491MOL0     C67686  10.539   8.806   4.578  0.2039 -0.4706  0.2847
  491MOL0     C67687  10.414   8.768   4.625 -0.0265  0.7797  0.4235
  491MOL0     C67688  10.303   8.853   4.593  0.3627  0.1122 -0.0679
  491MOL0     H67689  10.006   8.430   4.671  0.5064  4.8127  1.2105
  491MOL0     H67690   9.819   8.316   4.776  0.8179  0.5671 -2.1552
  491MOL0     H67691   9.737   8.095   4.875  3.7507 -2.3824  2.0930
  491MOL0     H67692   9.667   8.253   4.927  2.9109  1.3216  0.0229
  491MOL0     H67693   9.675   8.022   5.112  0.0684  0.6794  0.8753
  491MOL0     H67694   9.612   8.183   5.148  0.1811 -0.3427  0.9111
  491MOL0     H67695   9.433   8.020   5.100 -0.9652 -3.4851 -1.3806
  491MOL0     H67696   9.433   8.157   4.982  2.2738 -0.4483 -3.4827
  491MOL0     H67697   9.534   8.031   4.802  1.7709 -2.7421 -0.1356
  491MOL0     H67698   9.569   7.904   4.895  1.3939  1.6649  1.4278
  491MOL0     H67699   9.355   7.872   4.746 -0.5631 -0.6763  1.1525
  491MOL0     H67700   9.291   8.016   4.826 -1.7552 -1.0295  0.0778
  491MOL0     H67701   9.339   7.763   4.973  1.8043  1.7679  2.6537
  491MOL0     H67702   9.277   7.909   5.035 -0.0203 -0.5394 -0.4770
  491MOL0     H67703   9.108   7.713   4.976 -0.9952 -1.0101 -0.7262
  491MOL0     H67704   9.140   7.764   4.813  0.7454 -0.4417  0.8825
  491MOL0     H67705   9.055   7.977   5.009 -1.2552  0.8490 -0.8391
  491MOL0     H67706   9.052   7.964   4.830  2.0549 -2.2363 -1.3263
  491MOL0     H67707   8.858   7.730   5.108 -1.3032 -1.5918  0.0521
  491MOL0     H67708   8.510   7.661   4.984 -0.5986  0.3686  1.3772
  491MOL0     H67709   8.587   7.692   5.131 -1.8462 -0.7659  0.7476
  491MOL0     H67710   8.724   7.473   5.095  0.5881  1.1399 -0.2436
  491MOL0     H67711   8.552   7.465   5.089 -0.0812 -0.7490 -1.3405
  491MOL0     H67712   8.617   7.337   4.892 -1.7150  0.3293  1.8300
  491MOL0     H67713   8.564   7.500   4.842  0.2202 -1.1566 -0.3581
  491MOL0     H67714   8.757   7.415   4.712  0.3360  0.5231  0.9487
  491MOL0     H67715   8.788   7.571   4.784 -3.6974  0.6341 -0.4636
  491MOL0     H67716   8.972   7.529   4.643  2.8012  1.5041 -1.0385
  491MOL0     H67717   9.110   7.584   4.484 -1.1030 -0.6889  2.4395
  491MOL0     H67718   9.251   7.498   4.478 -0.5778 -0.2836  0.9483
  491MOL0     H67719   9.272   7.663   4.552  2.1409 -1.5252  1.0475
  491MOL0     H67720   9.755   7.336   4.854 -1.6018 -3.1131 -0.2629
  491MOL0     H67721   9.956   7.299   4.721  0.0740  0.4490 -1.4773
  491MOL0     H67722   9.903   7.218   4.284  2.5264  3.7661  1.0571
  491MOL0     H67723  10.069   7.176   4.321 -1.1970  0.5311 -0.9444
  491MOL0     H67724   9.811   7.033   4.415 -0.3947  2.3950 -0.7158
  491MOL0     H67725   9.929   6.973   4.295  0.4465 -1.1700  0.7498
  491MOL0     H67726   9.952   6.964   4.603  0.5726  1.1074 -0.4853
  491MOL0     H67727  10.096   6.997   4.508 -0.8056 -1.0295  2.0555
  491MOL0     H67728  10.031   6.797   4.368 -2.1745 -1.2242 -0.7343
  491MOL0     H67729   9.900   6.778   4.478  1.4052  0.4672  1.3626
  491MOL0     H67730  10.201   6.775   4.557 -0.8294  2.2438  3.3566
  491MOL0     H67731  10.064   6.746   4.660 -0.3482 -2.6256  0.0667
  491MOL0     H67732  10.176   6.565   4.440 -0.2250 -2.3205  0.4335
  491MOL0     H67733  10.014   6.551   4.523 -0.2523  0.9740  2.4937
  491MOL0     H67734  10.158   6.409   4.638 -2.6245  0.9212 -2.5050
  491MOL0     H67735  10.164   6.556   4.738  1.3695  2.3480 -0.6734
  491MOL0     H67736  10.373   6.627   4.644 -0.7092  0.3599 -0.6516
  491MOL0     H67737  10.383   6.476   4.552 -0.3031  0.6811 -0.4528
  491MOL0     H67738   9.711   7.280   4.366 -0.7601 -0.0919  0.7223
  491MOL0     H67739   9.519   7.332   4.493  0.2399 -1.1708 -0.1441
  491MOL0     H67740   9.308   7.353   4.953  0.2421 -0.4635 -1.2272
  491MOL0     H67741   9.078   7.350   5.013 -0.2730 -0.4831  0.0502
  491MOL0     H67742  10.080   8.225   5.108 -4.2873  1.2250  0.8527
  491MOL0     H67743  10.267   8.314   5.001 -2.0608 -3.2049  2.7165
  491MOL0     H67744  10.509   8.468   4.747  2.1063  1.1754  0.2058
  491MOL0     H67745  10.729   8.532   4.653  2.8688  1.9522 -3.5074
  491MOL0     H67746  10.747   8.950   4.435  1.3156  1.5646  0.3884
  491MOL0     H67747  10.764   8.985   4.609 -0.7279  2.2303 -1.4260
  491MOL0     H67748  10.971   9.015   4.419  2.4646 -1.2562 -0.8730
  491MOL0     H67749  10.991   8.853   4.470  1.7586  0.3938  1.7386
  491MOL0     H67750  11.146   9.001   4.583  0.1737 -0.0410 -0.8163
  491MOL0     H67751  11.008   9.106   4.640 -2.9487 -1.2505 -0.2924
  491MOL0     H67752  10.926   8.948   4.782 -0.9554 -2.1713 -3.2276
  491MOL0     H67753  11.088   8.991   4.821 -1.0425  3.7909 -0.3660
  491MOL0     H67754  11.061   8.561   4.730 -0.2527  0.0667 -1.3000
  491MOL0     H67755  10.543   8.897   4.519  1.0823 -1.1096 -0.6792
  491MOL0     H67756  10.246   8.878   4.684  1.5567  4.3304 -0.2878
  491MOL0     H67757  10.335   8.951   4.558 -1.1477  1.5513  2.2399
  491MOL0     H67758  10.244   8.805   4.515 -0.7510  0.1684  0.7097
  492MOL0     O67759   3.470  11.132   0.133  1.0651  0.4592  0.3549
  492MOL0     C67760   3.430  11.217   0.053 -0.2065 -0.7992  0.7104
  492MOL0     O67761   3.494  11.342   0.042  0.5789  0.3836  0.0435
  492MOL0     C67762   3.611  11.354   0.115  0.4461  0.6671  0.3543
  492MOL0     C67763   3.720  11.261   0.109  0.0785  0.5071 -1.0391
  492MOL0     C67764   3.837  11.290   0.179  0.3747 -0.7068  0.3545
  492MOL0     C67765   3.851  11.410   0.249  0.0901  0.2661  0.0837
  492MOL0     O67766   3.962  11.456   0.313  0.5005  0.2810 -0.3923
  492MOL0     C67767   4.037  11.566   0.257 -0.3773  0.9044  0.2088
  492MOL0     C67768   4.144  11.496   0.166 -0.0581  0.1689 -0.4591
  492MOL0     C67769   4.242  11.596   0.116 -0.5319  0.4613  0.2480
  492MOL0     C67770   4.368  11.528   0.066  0.2379  0.2474  0.6329
  492MOL0     C67771   4.457  11.630  -0.010  0.3978  0.0719  0.0364
  492MOL0     C67772   4.395  11.724  -0.115  1.2406  0.4405 -0.0428
  492MOL0     C67773   4.499  11.831  -0.163  1.0292  0.1606 -0.0833
  492MOL0     C67774   4.569  11.777  -0.295 -0.4354 -0.4148  0.5765
  492MOL0     N67775   4.690  11.859  -0.314  0.2652  0.4940  0.1561
  492MOL0     C67776   4.701  11.986  -0.349  0.2861 -0.1339  0.2391
  492MOL0     C67777   4.831  12.025  -0.340  0.1489  0.2690  0.1300
  492MOL0     C67778   4.899  12.154  -0.356 -0.5523  0.6832  0.1199
  492MOL0     C67779   5.015  12.157  -0.458  0.1390 -0.2564  1.3320
  492MOL0     C67780   5.152  12.107  -0.401  0.0384 -0.3972  0.1909
  492MOL0     C67781   5.255  12.110  -0.512 -0.1104  0.3057  0.2219
  492MOL0     O67782   5.268  12.236  -0.588 -0.2268  0.5505  0.6999
  492MOL0     C67783   5.291  12.355  -0.534  0.3722 -0.5487 -0.0696
  492MOL0     C67784   5.277  12.470  -0.614 -0.5134 -0.4110  0.3437
  492MOL0     C67785   5.296  12.602  -0.573 -0.6071 -1.1577  1.1659
  492MOL0     C67786   5.266  12.701  -0.687  0.2486 -0.4088  0.0305
  492MOL0     C67787   5.339  12.615  -0.441  0.3333 -0.0251 -0.8283
  492MOL0     C67788   5.369  12.742  -0.375  0.7870  0.0319 -0.5286
  492MOL0     O67789   5.369  12.744  -0.242  0.6319  0.9220  0.4092
  492MOL0     C67790   5.386  12.869  -0.177 -0.3217 -0.0937  0.0383
  492MOL0     C67791   5.508  12.948  -0.186  0.2403 -0.2246  0.4509
  492MOL0     C67792   5.520  13.074  -0.123  0.1100  0.1587 -0.7531
  492MOL0     C67793   5.408  13.131  -0.056 -0.6257 -0.1736  0.2140
  492MOL0     O67794   5.426  13.252   0.004 -0.0520  0.0411 -0.2240
  492MOL0     C67795   5.318  13.349  -0.009  0.2699  0.0872  0.0733
  492MOL0     C67796   5.220  13.348   0.115  0.3629  1.0497  1.0992
  492MOL0     C67797   5.291  13.382   0.245 -0.6967  0.6150  0.3409
  492MOL0     C67798   5.336  13.243   0.304 -0.4696  0.6010 -0.7422
  492MOL0     C67799   5.405  13.270   0.442  0.8040 -0.2164 -0.3327
  492MOL0     C67800   5.550  13.299   0.423 -0.7421 -0.4093 -0.0460
  492MOL0     C67801   5.607  13.335   0.567  0.9452 -0.0285  0.5109
  492MOL0     C67802   5.756  13.337   0.566 -0.2827 -0.7129  0.3141
  492MOL0    Cl67803   5.829  13.444   0.453 -0.1853 -0.0814  0.2839
  492MOL0     C67804   5.289  13.054  -0.048  0.0117 -0.0071 -0.1314
  492MOL0     C67805   5.274  12.927  -0.104 -0.0798  0.0327  0.4610
  492MOL0     O67806   5.409  12.838  -0.447 -0.1021  0.6106  0.2729
  492MOL0     C67807   5.354  12.497  -0.360  0.7892 -0.5528  0.1764
  492MOL0     C67808   5.339  12.366  -0.403 -0.0458  1.4491  1.1144
  492MOL0     N67809   4.895  11.909  -0.285 -0.6620  0.1482  0.2166
  492MOL0     N67810   4.810  11.812  -0.274 -0.4887 -0.6721  0.1649
  492MOL0     C67811   3.744  11.493   0.260 -0.8361 -0.4285  0.3709
  492MOL0     C67812   3.626  11.467   0.195  0.5746  0.7927 -0.5252
  492MOL0     C67813   3.314  11.198  -0.044 -0.6207  0.1557  0.2142
  492MOL0     C67814   3.284  11.303  -0.133 -0.0353 -0.5580  0.3759
  492MOL0     C67815   3.193  11.281  -0.235  0.7155  0.0852  0.6605
  492MOL0     C67816   3.125  11.157  -0.247 -0.0955  0.1618  0.7327
  492MOL0     O67817   3.033  11.126  -0.349 -0.3443 -0.4719  0.1268
  492MOL0     C67818   2.988  11.217  -0.442  0.6098  0.4903  0.4580
  492MOL0     C67819   3.096  11.228  -0.546  0.1792 -0.4610  0.2018
  492MOL0     C67820   3.055  11.335  -0.654  0.6537 -0.3119  0.3437
  492MOL0     C67821   3.157  11.348  -0.759  0.3516  0.2816 -0.2935
  492MOL0     C67822   3.272  11.421  -0.712 -0.4706  0.5255 -0.2733
  492MOL0     C67823   3.353  11.493  -0.665  0.8173 -0.4789  0.6788
  492MOL0     C67824   3.142  11.070  -0.144 -0.7342 -0.7356  0.1995
  492MOL0     C67825   3.233  11.089  -0.040 -0.5294  0.1632  1.0505
  492MOL0     C67826   3.251  10.969   0.050  0.1071  0.0313  0.2554
  492MOL0     H67827   3.719  11.175   0.043 -1.5651  0.0477 -0.4656
  492MOL0     H67828   3.926  11.228   0.180 -0.1559 -1.5234 -0.7737
  492MOL0     H67829   4.088  11.613   0.342  1.0408 -1.9325  1.0328
  492MOL0     H67830   3.978  11.638   0.199 -0.2123  0.9338  0.0762
  492MOL0     H67831   4.202  11.421   0.219  0.6660  1.1202  0.1266
  492MOL0     H67832   4.090  11.433   0.095  2.1404  0.7313 -2.7544
  492MOL0     H67833   4.185  11.658   0.047 -0.5390  0.8124  0.5681
  492MOL0     H67834   4.285  11.663   0.192  1.7489 -1.1181  0.4591
  492MOL0     H67835   4.412  11.495   0.160 -0.5310  2.7391  1.9675
  492MOL0     H67836   4.345  11.453  -0.009  0.5049  2.1120 -1.4250
  492MOL0     H67837   4.551  11.585  -0.041  1.3452  1.6213  0.5391
  492MOL0     H67838   4.478  11.704   0.068 -0.8686  0.8245 -0.3047
  492MOL0     H67839   4.357  11.665  -0.200  0.9877 -0.5299  0.7178
  492MOL0     H67840   4.310  11.777  -0.071 -0.1272 -1.5666 -0.1166
  492MOL0     H67841   4.572  11.853  -0.085  0.6643  2.1767 -0.2511
  492MOL0     H67842   4.448  11.925  -0.186 -0.1562 -0.1671  1.0838
  492MOL0     H67843   4.602  11.673  -0.286 -0.6769 -0.7052 -1.3560
  492MOL0     H67844   4.510  11.784  -0.387 -2.4135  2.4928  1.9033
  492MOL0     H67845   4.634  12.060  -0.392  0.7899 -1.1542 -2.4937
  492MOL0     H67846   4.932  12.201  -0.263  3.5673 -0.3899 -0.5913
  492MOL0     H67847   4.819  12.214  -0.400 -0.5576  2.4447  2.3600
  492MOL0     H67848   4.993  12.093  -0.544  1.5535 -0.4038  1.0613
  492MOL0     H67849   5.018  12.261  -0.494 -1.6169 -0.5959  0.0732
  492MOL0     H67850   5.182  12.155  -0.307 -1.5582  1.9888 -0.4258
  492MOL0     H67851   5.140  11.999  -0.387  1.6220 -0.7416 -0.8394
  492MOL0     H67852   5.351  12.074  -0.474 -1.5000 -0.5059  3.3686
  492MOL0     H67853   5.212  12.036  -0.579 -0.2611  0.5992 -0.0063
  492MOL0     H67854   5.241  12.445  -0.714 -0.7332  2.3775 -0.3458
  492MOL0     H67855   5.338  12.712  -0.769  1.5142  0.7750  1.2492
  492MOL0     H67856   5.255  12.803  -0.650  3.2518 -0.2628  0.7496
  492MOL0     H67857   5.171  12.670  -0.732  0.9295  0.4491 -2.1516
  492MOL0     H67858   5.590  12.918  -0.251  0.6721  1.4429  0.1820
  492MOL0     H67859   5.617  13.122  -0.120  0.7152 -0.9059 -2.1240
  492MOL0     H67860   5.358  13.451  -0.016 -0.1354  0.2631  0.2645
  492MOL0     H67861   5.254  13.336  -0.097 -4.1306  3.8139  2.2931
  492MOL0     H67862   5.143  13.423   0.097  0.5478  0.9590 -0.2175
  492MOL0     H67863   5.165  13.253   0.119 -1.2992  2.0306  2.1054
  492MOL0     H67864   5.225  13.430   0.318  0.6039  4.4131 -0.7633
  492MOL0     H67865   5.374  13.451   0.224  0.7857 -0.8397  1.1939
  492MOL0     H67866   5.407  13.191   0.240  0.4464 -1.2470  1.6246
  492MOL0     H67867   5.249  13.181   0.325  0.9423 -1.7342 -1.4344
  492MOL0     H67868   5.354  13.356   0.486 -1.1482 -1.5451  0.0980
  492MOL0     H67869   5.389  13.187   0.511  0.8193  2.0588  2.6401
  492MOL0     H67870   5.568  13.385   0.358  3.4457 -0.5271  0.6412
  492MOL0     H67871   5.602  13.217   0.372  0.0997 -1.3763  2.2161
  492MOL0     H67872   5.576  13.255   0.634  0.7744  0.3476  0.8781
  492MOL0     H67873   5.568  13.430   0.605 -2.8716  0.0935 -3.0681
  492MOL0     H67874   5.793  13.235   0.548  0.7017 -0.3416  0.1748
  492MOL0     H67875   5.787  13.366   0.666 -3.3070 -1.0308  1.4628
  492MOL0     H67876   5.202  13.076   0.013 -0.1412  1.3999 -0.8048
  492MOL0     H67877   5.184  12.867  -0.093  0.0484 -0.0271  1.2405
  492MOL0     H67878   5.395  12.505  -0.260  1.1757 -1.6439  0.1249
  492MOL0     H67879   5.357  12.281  -0.338 -2.4784 -1.1977 -1.3721
  492MOL0     H67880   3.759  11.585   0.316  2.5196 -1.7857  1.9523
  492MOL0     H67881   3.550  11.544   0.199  1.1306  1.2942  2.2540
  492MOL0     H67882   3.337  11.397  -0.124 -3.1287  1.1583  2.5808
  492MOL0     H67883   3.180  11.360  -0.309  0.7926  1.2880  1.8840
  492MOL0     H67884   2.890  11.181  -0.475 -0.7537  1.7548  2.8519
  492MOL0     H67885   2.970  11.318  -0.406 -1.0056  1.5518 -2.9272
  492MOL0     H67886   3.118  11.131  -0.590  2.5418 -0.2654  0.8295
  492MOL0     H67887   3.191  11.264  -0.507  0.2913  0.2814 -0.7039
  492MOL0     H67888   2.964  11.308  -0.708  0.6660  1.9971 -0.9650
  492MOL0     H67889   3.048  11.434  -0.607  0.5023  0.1710 -0.6639
  492MOL0     H67890   3.112  11.410  -0.837  1.1408  2.3673  0.8029
  492MOL0     H67891   3.186  11.250  -0.797 -1.2462 -0.1366 -0.5017
  492MOL0     H67892   3.428  11.556  -0.621 -0.9830  0.0258  3.2099
  492MOL0     H67893   3.094  10.973  -0.151  0.2336 -1.1768 -0.6626
  492MOL0     H67894   3.352  10.928   0.054 -0.8684 -2.5348  0.7324
  492MOL0     H67895   3.233  10.995   0.154 -0.8469 -0.7800  0.3220
  492MOL0     H67896   3.178  10.890   0.027  0.1842 -0.2673  1.0082
  493MOL0     O67897   8.724   9.187   3.966 -0.2672  0.7138  0.1056
  493MOL0     C67898   8.744   9.303   4.002 -0.5232 -0.4126 -0.3237
  493MOL0     O67899   8.843   9.385   3.960  0.0393 -0.3688  0.0762
  493MOL0     C67900   8.934   9.337   3.868 -0.2267 -0.1009  0.4165
  493MOL0     C67901   9.048   9.273   3.921 -0.2406 -0.1535  0.2358
  493MOL0     C67902   9.154   9.236   3.830  0.1960  0.2420  0.6156
  493MOL0     C67903   9.136   9.250   3.691 -0.3086 -0.0854 -0.5079
  493MOL0     O67904   9.227   9.211   3.598 -0.3273 -0.7089  0.0812
  493MOL0     C67905   9.352   9.180   3.637 -1.5659  0.4025  0.3183
  493MOL0     C67906   9.440   9.138   3.520 -0.1450  0.0970  0.6095
  493MOL0     C67907   9.561   9.066   3.577  0.0520 -0.1974  0.1756
  493MOL0     C67908   9.667   9.036   3.479  0.1985 -0.3470 -0.3809
  493MOL0     C67909   9.774   8.941   3.514 -0.9387 -1.0082  0.5053
  493MOL0     C67910   9.853   8.887   3.396 -0.2925 -0.1505  0.0495
  493MOL0     C67911   9.976   8.812   3.433 -0.3530  1.2774 -0.0430
  493MOL0     C67912  10.066   8.780   3.310  0.3336  0.4629 -0.1123
  493MOL0     N67913  10.162   8.668   3.337 -0.0316 -0.9395 -0.3859
  493MOL0     C67914  10.268   8.618   3.263 -0.0249 -0.3333 -0.0760
  493MOL0     C67915  10.302   8.508   3.332 -0.4376  0.1608  0.1349
  493MOL0     C67916  10.415   8.406   3.303  0.2290 -0.7983  0.7814
  493MOL0     C67917  10.413   8.284   3.399  0.6041  0.2750  0.4959
  493MOL0     C67918  10.505   8.167   3.354  0.1751  0.2179  0.2183
  493MOL0     C67919  10.657   8.206   3.365  0.4114 -0.2584 -0.2278
  493MOL0     O67920  10.740   8.133   3.279  0.0717 -0.5097 -0.2439
  493MOL0     C67921  10.825   8.032   3.327 -0.0426  0.0220 -1.0277
  493MOL0     C67922  10.805   7.950   3.440  0.5106  0.1429 -0.2169
  493MOL0     C67923  10.898   7.865   3.494  0.2518  0.2846 -0.1471
  493MOL0     C67924  10.858   7.794   3.618  0.2182 -0.3662 -0.0868
  493MOL0     C67925  11.023   7.860   3.425  0.0017  1.2950  0.3452
  493MOL0     C67926  11.133   7.761   3.466  0.3585  0.3668 -0.8249
  493MOL0     O67927  11.237   7.754   3.378  0.3166 -0.1724 -0.2819
  493MOL0     C67928  11.334   7.657   3.391 -0.5018  0.6966  0.0067
  493MOL0     C67929  11.462   7.683   3.428  0.5019  1.3603 -0.2162
  493MOL0     C67930  11.559   7.583   3.438 -0.1911 -0.7860  0.1202
  493MOL0     C67931  11.531   7.453   3.408 -0.8673  0.2467  0.6638
  493MOL0     O67932  11.629   7.362   3.405  0.0391 -0.1463 -0.0298
  493MOL0     C67933  11.594   7.226   3.361 -0.6238  0.8275 -0.1564
  493MOL0     C67934  11.729   7.150   3.361 -0.2157  1.1824 -0.5143
  493MOL0     C67935  11.847   7.209   3.272 -0.0104  0.5516  0.0063
  493MOL0     C67936  11.976   7.139   3.295  0.1417  0.1618  0.4987
  493MOL0     C67937  12.092   7.196   3.210  0.3578 -0.0400 -0.3146
  493MOL0     C67938  12.220   7.128   3.243  0.4163  0.1196 -0.6639
  493MOL0     C67939  12.340   7.192   3.167 -0.1723 -0.1085  0.3068
  493MOL0     C67940  12.428   7.079   3.106  0.2382  0.6104 -0.4151
  493MOL0    Cl67941  12.486   6.974   3.246 -0.2212 -0.0746 -0.1609
  493MOL0     C67942  11.398   7.421   3.388  0.3100  0.2278 -0.0056
  493MOL0     C67943  11.297   7.517   3.379 -0.4034 -0.4360  0.1442
  493MOL0     O67944  11.121   7.692   3.565  0.2524  0.2778  0.5641
  493MOL0     C67945  11.037   7.931   3.312 -0.5718 -1.1415  0.0596
  493MOL0     C67946  10.943   8.018   3.267 -0.8129  0.2651  0.1079
  493MOL0     N67947  10.213   8.483   3.439  0.8995  0.0425  0.7029
  493MOL0     N67948  10.132   8.584   3.444  0.3819 -0.0834  0.3786
  493MOL0     C67949   9.017   9.303   3.644 -0.5774 -0.3500  0.4446
  493MOL0     C67950   8.916   9.349   3.726  1.0129 -0.3333  0.1494
  493MOL0     C67951   8.653   9.358   4.105  0.3934  0.2142 -0.2478
  493MOL0     C67952   8.524   9.307   4.107  0.1116  0.5212 -1.4355
  493MOL0     C67953   8.423   9.358   4.185  0.4041  0.1315  0.0479
  493MOL0     C67954   8.456   9.458   4.274  0.4618  0.2304 -1.0740
  493MOL0     O67955   8.357   9.518   4.360  0.7755 -0.3914  0.1408
  493MOL0     C67956   8.223   9.475   4.346  0.4627 -0.2510  0.5975
  493MOL0     C67957   8.132   9.565   4.428 -0.5433  0.0761 -0.7387
  493MOL0     C67958   8.183   9.586   4.570 -0.2795  0.1951  0.3704
  493MOL0     C67959   8.070   9.624   4.663 -0.0114 -0.4224 -0.1508
  493MOL0     C67960   7.978   9.730   4.616 -0.4483 -0.0023  0.3195
  493MOL0     C67961   7.911   9.821   4.575 -0.3170 -0.8782  0.1361
  493MOL0     C67962   8.584   9.511   4.284 -0.2643  0.4726 -0.0338
  493MOL0     C67963   8.682   9.467   4.195  0.6139  1.0268  0.5878
  493MOL0     C67964   8.822   9.538   4.193 -0.2454 -0.7224 -0.1352
  493MOL0     H67965   9.056   9.257   4.027 -1.7887  0.0379  0.4145
  493MOL0     H67966   9.245   9.187   3.864  0.9934 -0.1929 -1.9226
  493MOL0     H67967   9.343   9.096   3.707 -1.3984 -0.3498 -0.5452
  493MOL0     H67968   9.391   9.272   3.682 -1.6932  0.6784 -0.1271
  493MOL0     H67969   9.370   9.071   3.470 -0.8150  2.1094 -1.2950
  493MOL0     H67970   9.474   9.220   3.456  2.9604 -1.5830 -0.0990
  493MOL0     H67971   9.610   9.131   3.649  1.0805 -0.3421 -0.3698
  493MOL0     H67972   9.525   8.978   3.631  0.0199  0.4060  1.1524
  493MOL0     H67973   9.620   8.994   3.389 -1.2244 -1.4430  0.8243
  493MOL0     H67974   9.707   9.132   3.445 -2.8173  1.8836  1.7899
  493MOL0     H67975   9.732   8.848   3.553 -0.2468 -2.3498 -1.7471
  493MOL0     H67976   9.846   8.994   3.577 -2.3478 -0.5543  1.7957
  493MOL0     H67977   9.793   8.826   3.326 -1.1183  1.3877 -0.6391
  493MOL0     H67978   9.868   8.970   3.327  0.4368  0.4957  0.9798
  493MOL0     H67979   9.938   8.719   3.477  0.0542  0.5653 -1.1468
  493MOL0     H67980  10.034   8.873   3.502 -1.2698 -1.0423  2.9827
  493MOL0     H67981  10.009   8.748   3.223  3.6447 -1.4408 -1.7767
  493MOL0     H67982  10.130   8.865   3.288  1.3091 -0.4523 -0.9106
  493MOL0     H67983  10.293   8.651   3.162  0.0070  2.6751  0.8105
  493MOL0     H67984  10.515   8.446   3.287 -0.2239  0.3470  0.6954
  493MOL0     H67985  10.390   8.365   3.205 -0.3126  1.3848 -0.0431
  493MOL0     H67986  10.442   8.322   3.497  0.1453  1.8248  0.0621
  493MOL0     H67987  10.315   8.236   3.400  0.9371 -1.1890 -4.8138
  493MOL0     H67988  10.478   8.087   3.424  0.0320 -0.5777 -0.7279
  493MOL0     H67989  10.483   8.139   3.251  2.2350  0.3799 -0.3130
  493MOL0     H67990  10.660   8.315   3.350 -1.3787 -0.2778 -0.9578
  493MOL0     H67991  10.687   8.179   3.467 -0.6682 -1.3012 -0.1684
  493MOL0     H67992  10.713   7.961   3.497  1.4608 -2.4699  2.0060
  493MOL0     H67993  10.932   7.796   3.698  1.0121 -3.4438 -0.5817
  493MOL0     H67994  10.822   7.693   3.593  1.7305 -0.7689 -0.7329
  493MOL0     H67995  10.774   7.844   3.667  0.9606  0.1873  0.6471
  493MOL0     H67996  11.488   7.784   3.456  1.0639  0.2766  3.8753
  493MOL0     H67997  11.659   7.619   3.461 -0.0760 -0.0142 -1.4293
  493MOL0     H67998  11.514   7.173   3.414  1.3183 -3.2547 -0.8690
  493MOL0     H67999  11.566   7.227   3.256  2.5230  1.2131 -1.0854
  493MOL0     H68000  11.755   7.148   3.467 -4.4696 -0.5577  0.7128
  493MOL0     H68001  11.712   7.044   3.339 -0.7772  0.6906  1.9998
  493MOL0     H68002  11.869   7.306   3.316  4.8867 -0.5718  0.6456
  493MOL0     H68003  11.812   7.223   3.169 -1.5429 -3.6467 -0.2457
  493MOL0     H68004  11.959   7.041   3.249  2.0004  0.0485 -0.0458
  493MOL0     H68005  11.978   7.143   3.405 -1.5523 -0.2705  0.5686
  493MOL0     H68006  12.068   7.189   3.104 -0.4786 -0.8367 -0.0908
  493MOL0     H68007  12.090   7.302   3.240 -0.3404 -0.2866  0.5574
  493MOL0     H68008  12.211   7.023   3.215  2.3329  0.3236 -2.3066
  493MOL0     H68009  12.243   7.147   3.348 -0.7935  1.5205 -0.6361
  493MOL0     H68010  12.393   7.258   3.237 -0.7249 -0.0406  0.6622
  493MOL0     H68011  12.306   7.252   3.082 -2.0055 -1.2500  0.1941
  493MOL0     H68012  12.519   7.131   3.071  0.8490 -0.6267 -0.7009
  493MOL0     H68013  12.386   7.018   3.026  3.2289 -2.0952 -0.1041
  493MOL0     H68014  11.364   7.318   3.392  1.4765 -0.1796 -0.2232
  493MOL0     H68015  11.196   7.489   3.349 -0.9509 -0.9535  2.3251
  493MOL0     H68016  11.122   7.909   3.249 -0.1168 -1.4444  0.7640
  493MOL0     H68017  10.984   8.070   3.181  0.7719  0.0015  0.6667
  493MOL0     H68018   9.011   9.324   3.538 -3.8781  2.6782  1.0527
  493MOL0     H68019   8.822   9.391   3.692 -1.7982 -4.3063  2.1129
  493MOL0     H68020   8.507   9.228   4.035  1.6768 -1.1829 -0.0391
  493MOL0     H68021   8.324   9.319   4.162  1.4468 -0.5895 -3.9046
  493MOL0     H68022   8.194   9.482   4.241  2.2381  2.3764  0.1780
  493MOL0     H68023   8.209   9.369   4.366 -1.5532  0.1782  1.6614
  493MOL0     H68024   8.039   9.508   4.426 -0.6087 -0.2394  3.0076
  493MOL0     H68025   8.122   9.659   4.374 -2.6341 -0.5364 -1.5135
  493MOL0     H68026   8.224   9.492   4.609 -0.6266 -0.6238 -1.1575
  493MOL0     H68027   8.262   9.661   4.574  0.8548 -0.8228 -1.5363
  493MOL0     H68028   8.120   9.659   4.754 -0.0377 -0.2331 -0.2110
  493MOL0     H68029   8.002   9.539   4.674  1.1674 -1.7463 -2.2992
  493MOL0     H68030   7.831   9.888   4.551 -0.1953 -0.5855  0.5293
  493MOL0     H68031   8.616   9.587   4.354  0.0691  0.3286 -0.0283
  493MOL0     H68032   8.904   9.472   4.163  0.5981  0.3664 -0.3054
  493MOL0     H68033   8.830   9.631   4.136  0.7707 -0.1458  0.8980
  493MOL0     H68034   8.843   9.557   4.299  2.0711 -1.1344 -0.4653
  494MOL0     O68035   5.400   2.215   3.964  0.6013  0.0606 -0.5157
  494MOL0     C68036   5.378   2.340   3.968  0.5098  0.1594 -0.0169
  494MOL0     O68037   5.462   2.438   3.922 -1.0370 -0.3353 -0.5767
  494MOL0     C68038   5.560   2.401   3.840  0.5014 -0.0410  0.8039
  494MOL0     C68039   5.561   2.450   3.712  0.5137 -0.1877  1.1750
  494MOL0     C68040   5.665   2.421   3.613  1.1109 -0.3278 -0.4851
  494MOL0     C68041   5.770   2.339   3.652  0.0199  0.2807  0.3152
  494MOL0     O68042   5.864   2.323   3.557 -0.4143  0.3635 -0.1951
  494MOL0     C68043   5.924   2.192   3.552 -0.3222  0.0080 -0.1630
  494MOL0     C68044   6.053   2.201   3.459  0.7857  0.6056 -0.1270
  494MOL0     C68045   6.186   2.221   3.524 -0.7341  0.2734  0.4129
  494MOL0     C68046   6.297   2.243   3.415 -0.0607  0.4714 -0.5675
  494MOL0     C68047   6.430   2.294   3.466 -1.1964  0.0212  0.6783
  494MOL0     C68048   6.504   2.184   3.536 -0.7590  0.4547 -0.6083
  494MOL0     C68049   6.621   2.236   3.625 -0.1736  0.0955 -0.7518
  494MOL0     C68050   6.722   2.320   3.547  0.0409  0.7431 -0.6478
  494MOL0     N68051   6.844   2.360   3.625 -0.9902 -0.8416  0.2508
  494MOL0     C68052   6.895   2.318   3.747  0.4673 -0.5998 -0.5301
  494MOL0     C68053   7.001   2.398   3.775 -0.8084  0.3541  0.3351
  494MOL0     C68054   7.110   2.393   3.880  1.0381  0.1204 -0.0421
  494MOL0     C68055   7.134   2.237   3.896 -0.7726 -0.3856  0.2160
  494MOL0     C68056   7.211   2.206   4.033  0.4182 -0.4769 -0.5159
  494MOL0     C68057   7.329   2.292   4.063 -0.6905 -0.4398 -0.3357
  494MOL0     O68058   7.415   2.277   3.948 -0.6698 -0.5157 -0.0324
  494MOL0     C68059   7.546   2.295   3.957  0.1196  0.9092  0.3205
  494MOL0     C68060   7.604   2.404   4.026 -1.0136  0.2443 -0.3677
  494MOL0     C68061   7.746   2.432   4.020  0.0061  0.1910 -0.1298
  494MOL0     C68062   7.800   2.550   4.103 -0.5392  0.0866 -1.0194
  494MOL0     C68063   7.819   2.342   3.947 -0.3943  0.9757 -0.8888
  494MOL0     C68064   7.968   2.350   3.927 -0.4717  0.3741 -0.6286
  494MOL0     O68065   8.037   2.234   3.891  0.4758  0.1482  0.3126
  494MOL0     C68066   8.180   2.229   3.869  0.3530  0.1202  0.2735
  494MOL0     C68067   8.249   2.115   3.913  0.2098  0.0826 -0.3556
  494MOL0     C68068   8.387   2.112   3.899  0.2046 -0.3845 -0.0111
  494MOL0     C68069   8.457   2.223   3.845  0.8149 -0.8208  0.7534
  494MOL0     O68070   8.588   2.199   3.832  0.5580  0.4202 -0.7150
  494MOL0     C68071   8.664   2.315   3.859  0.7466 -0.3909 -0.5520
  494MOL0     C68072   8.803   2.270   3.915 -0.3450 -0.1643  0.0936
  494MOL0     C68073   8.892   2.202   3.800  0.4972  0.0917 -0.6248
  494MOL0     C68074   8.946   2.306   3.706  0.3438  0.6537 -0.6531
  494MOL0     C68075   9.082   2.259   3.648 -0.2395  0.0122  0.4089
  494MOL0     C68076   9.148   2.360   3.546 -0.0644 -0.1992 -0.0467
  494MOL0     C68077   9.298   2.328   3.520 -0.1069 -0.8633  1.3374
  494MOL0     C68078   9.351   2.433   3.411 -0.4745  0.5553 -0.1904
  494MOL0    Cl68079   9.267   2.400   3.258  0.3538  0.2240  0.0309
  494MOL0     C68080   8.384   2.331   3.792 -0.2415  0.1643  0.3731
  494MOL0     C68081   8.241   2.331   3.798  0.0311 -0.3940 -0.1795
  494MOL0     O68082   8.026   2.456   3.959  1.0346  0.2379 -0.5788
  494MOL0     C68083   7.762   2.233   3.886  0.2905  0.2537  0.0058
  494MOL0     C68084   7.622   2.209   3.887  0.0220  0.9238  0.4235
  494MOL0     N68085   7.018   2.483   3.668  0.1320 -0.2345 -0.0039
  494MOL0     N68086   6.924   2.462   3.588 -0.0264 -0.5658  0.2265
  494MOL0     C68087   5.775   2.293   3.791 -0.3193 -0.6969 -0.2602
  494MOL0     C68088   5.673   2.329   3.883 -0.3100 -0.3689  0.5992
  494MOL0     C68089   5.247   2.377   4.012  0.5036 -0.7272 -0.3169
  494MOL0     C68090   5.204   2.504   3.973 -0.4872  0.1169 -0.6427
  494MOL0     C68091   5.072   2.545   4.014 -0.0190  0.1273  0.7158
  494MOL0     C68092   4.991   2.467   4.092  0.5066  0.6622 -0.0761
  494MOL0     O68093   4.868   2.506   4.145 -0.2075 -0.7605 -0.2002
  494MOL0     C68094   4.834   2.647   4.137 -0.0381  0.3846 -0.2047
  494MOL0     C68095   4.687   2.654   4.180  0.3717 -0.0039 -0.2096
  494MOL0     C68096   4.585   2.606   4.077  1.2347  0.1815 -0.6981
  494MOL0     C68097   4.448   2.593   4.139  0.5005  0.6615 -0.2401
  494MOL0     C68098   4.358   2.502   4.068  0.0616 -0.1845 -0.4384
  494MOL0     C68099   4.278   2.427   4.010  0.0858 -0.0284 -0.7689
  494MOL0     C68100   5.028   2.341   4.120  0.2910  0.0464  0.1127
  494MOL0     C68101   5.152   2.296   4.088  0.0022 -0.0208  0.3436
  494MOL0     C68102   5.196   2.162   4.153  0.7148  0.3794  0.1831
  494MOL0     H68103   5.483   2.519   3.682  1.1135 -0.6928 -1.7940
  494MOL0     H68104   5.656   2.474   3.519 -2.0606 -0.0563 -0.1648
  494MOL0     H68105   5.851   2.113   3.532  1.0353 -1.5402  0.7559
  494MOL0     H68106   5.963   2.162   3.650  0.0018 -2.1430 -0.9104
  494MOL0     H68107   6.052   2.114   3.392 -1.9464  0.6660 -0.2974
  494MOL0     H68108   6.036   2.284   3.390  1.9255  0.4294 -0.6417
  494MOL0     H68109   6.183   2.308   3.590 -1.1103 -0.1369  0.9554
  494MOL0     H68110   6.222   2.149   3.598  1.8059  1.1818  0.1343
  494MOL0     H68111   6.309   2.145   3.367  0.0660 -0.7498  1.7585
  494MOL0     H68112   6.259   2.316   3.344 -1.4879  0.8945  0.5964
  494MOL0     H68113   6.412   2.374   3.539 -0.1876  0.5877  0.3215
  494MOL0     H68114   6.493   2.330   3.385 -0.5468  0.1191  1.2157
  494MOL0     H68115   6.435   2.139   3.607  0.9622  3.0015  3.0257
  494MOL0     H68116   6.531   2.108   3.462 -0.8445 -0.2545  0.0829
  494MOL0     H68117   6.668   2.147   3.668 -2.1534 -0.5208  0.2525
  494MOL0     H68118   6.584   2.293   3.710  1.2121 -1.0525  0.6816
  494MOL0     H68119   6.762   2.254   3.469 -2.6266 -1.3332 -0.4175
  494MOL0     H68120   6.672   2.412   3.517 -0.8911  0.2261 -0.7352
  494MOL0     H68121   6.847   2.242   3.807  0.7066  1.0096  1.8642
  494MOL0     H68122   7.079   2.438   3.975 -0.7746  0.9122 -0.9551
  494MOL0     H68123   7.197   2.451   3.851  2.0478  1.0999  4.1685
  494MOL0     H68124   7.038   2.185   3.890 -1.4878  1.0639 -1.7995
  494MOL0     H68125   7.202   2.204   3.818  2.5818 -1.1552  3.1897
  494MOL0     H68126   7.147   2.218   4.122 -0.2815  0.1065 -1.0768
  494MOL0     H68127   7.241   2.101   4.039 -0.6480 -0.7434  0.7545
  494MOL0     H68128   7.300   2.396   4.081  0.4323 -0.5821  3.2012
  494MOL0     H68129   7.383   2.262   4.153 -0.3474 -1.1465 -0.7719
  494MOL0     H68130   7.541   2.468   4.087 -1.2779 -0.3541 -0.0024
  494MOL0     H68131   7.716   2.609   4.139  0.6765  1.5638 -0.4935
  494MOL0     H68132   7.861   2.618   4.043  0.8231  0.2538  0.4892
  494MOL0     H68133   7.854   2.512   4.190  0.3083 -0.8576 -1.9156
  494MOL0     H68134   8.206   2.026   3.956  2.1163 -2.4896 -3.3089
  494MOL0     H68135   8.452   2.032   3.934  1.9017  0.6191 -0.7079
  494MOL0     H68136   8.682   2.362   3.762 -0.0793  2.2488  0.4567
  494MOL0     H68137   8.610   2.390   3.918 -0.9221  1.7103 -4.3794
  494MOL0     H68138   8.852   2.358   3.955 -2.6531  1.1805  0.1614
  494MOL0     H68139   8.788   2.196   3.994 -0.9218 -1.9863 -1.6162
  494MOL0     H68140   8.836   2.131   3.738 -1.8104 -0.0158  1.4246
  494MOL0     H68141   8.977   2.152   3.848  0.0668 -0.7564 -0.7389
  494MOL0     H68142   8.964   2.404   3.753  0.3174  0.3916 -0.0944
  494MOL0     H68143   8.873   2.320   3.626 -1.4196  0.0060  0.8004
  494MOL0     H68144   9.159   2.246   3.724 -0.6055 -0.1301  0.7614
  494MOL0     H68145   9.055   2.162   3.605 -0.6727 -0.4993  1.7552
  494MOL0     H68146   9.132   2.459   3.589 -0.7932  0.0295 -0.7992
  494MOL0     H68147   9.103   2.365   3.446  1.3405  0.2089 -0.6712
  494MOL0     H68148   9.294   2.225   3.482 -1.2790 -0.2815 -0.2313
  494MOL0     H68149   9.347   2.329   3.618  2.8420 -1.5627 -0.0530
  494MOL0     H68150   9.460   2.426   3.405 -0.3353 -1.5296  2.6823
  494MOL0     H68151   9.335   2.537   3.441  0.7782  0.7626 -0.2034
  494MOL0     H68152   8.437   2.397   3.724 -1.5115  0.1025 -0.7215
  494MOL0     H68153   8.170   2.397   3.748 -0.2097 -1.2537 -1.0110
  494MOL0     H68154   7.824   2.155   3.843  3.8464  3.7835 -1.8151
  494MOL0     H68155   7.569   2.124   3.846  1.8982  0.8956 -2.2191
  494MOL0     H68156   5.857   2.250   3.847 -1.7714  1.5921  4.0834
  494MOL0     H68157   5.680   2.309   3.990  1.2719 -1.5298  0.3118
  494MOL0     H68158   5.265   2.577   3.922 -2.5964  2.6356  0.2013
  494MOL0     H68159   5.051   2.646   3.981  6.3910  1.1068 -1.8029
  494MOL0     H68160   4.886   2.725   4.193 -0.0601  2.5616 -3.0372
  494MOL0     H68161   4.835   2.684   4.034 -3.1252  1.8987  0.2028
  494MOL0     H68162   4.668   2.754   4.219  0.4233  1.3642 -3.4170
  494MOL0     H68163   4.681   2.580   4.261  0.0363 -2.4000 -2.2894
  494MOL0     H68164   4.588   2.674   3.991  2.7606 -2.0312 -2.5163
  494MOL0     H68165   4.617   2.509   4.038  0.9580 -0.8372  1.4819
  494MOL0     H68166   4.397   2.689   4.153 -1.6603 -0.2650 -1.2616
  494MOL0     H68167   4.450   2.554   4.242 -3.3662 -1.9354 -0.9078
  494MOL0     H68168   4.222   2.354   3.955 -1.1321  1.6264 -1.8034
  494MOL0     H68169   4.965   2.279   4.184  0.2498  0.0142  0.0408
  494MOL0     H68170   5.146   2.149   4.249 -2.3974  3.3536 -0.8214
  494MOL0     H68171   5.160   2.088   4.081 -0.0083  1.6047 -0.7474
  494MOL0     H68172   5.305   2.155   4.165  1.5670  1.5694 -4.6364
  495MOL0     O68173   8.865   0.507   6.825 -0.0107  0.5259  0.3126
  495MOL0     C68174   8.855   0.389   6.792  0.2401  0.1896 -0.3030
  495MOL0     O68175   8.955   0.302   6.794 -0.3820 -0.0525  0.1149
  495MOL0     C68176   9.078   0.342   6.840  0.1884 -0.1023 -0.1547
  495MOL0     C68177   9.093   0.385   6.969  0.0462  0.6415 -0.3424
  495MOL0     C68178   9.223   0.408   7.017  0.4167  0.0553  0.5283
  495MOL0     C68179   9.341   0.386   6.937  0.5210  0.1812 -0.0049
  495MOL0     O68180   9.475   0.376   6.978  0.0525 -0.0485  0.3633
  495MOL0     C68181   9.502   0.340   7.111  0.4421 -0.2741  0.1660
  495MOL0     C68182   9.523   0.187   7.127 -0.6287 -0.3695 -0.5080
  495MOL0     C68183   9.390   0.115   7.120  0.2127 -0.4137 -0.4350
  495MOL0     C68184   9.416  -0.032   7.145 -0.5172  0.6330 -0.5483
  495MOL0     C68185   9.299  -0.133   7.126  0.2027  0.0491  0.0456
  495MOL0     C68186   9.261  -0.160   6.988 -0.0977  0.5505  0.8169
  495MOL0     C68187   9.155  -0.274   6.985 -0.6567 -0.3076 -0.5077
  495MOL0     C68188   9.058  -0.271   6.869  0.0047 -0.3847 -0.3862
  495MOL0     N68189   8.944  -0.185   6.892  0.0908  0.4901  0.3165
  495MOL0     C68190   8.871  -0.157   7.005 -0.7505  0.1428 -0.2252
  495MOL0     C68191   8.791  -0.050   6.986  0.3420  0.0087  0.5883
  495MOL0     C68192   8.697  -0.007   7.088  0.5548 -0.4419 -0.6444
  495MOL0     C68193   8.630   0.127   7.062  0.3147  0.0070  0.3038
  495MOL0     C68194   8.510   0.151   7.158 -1.1988  0.8539 -0.0205
  495MOL0     C68195   8.452   0.289   7.138  0.3229 -0.2638 -0.3666
  495MOL0     O68196   8.338   0.302   7.219  0.2878  0.1179 -0.0626
  495MOL0     C68197   8.207   0.274   7.175 -1.0313 -0.5626 -1.5824
  495MOL0     C68198   8.098   0.300   7.258 -0.3842 -0.3331 -0.6720
  495MOL0     C68199   7.966   0.275   7.214  0.7799 -0.6574 -0.5700
  495MOL0     C68200   7.845   0.323   7.293 -0.3746  0.1095 -0.0816
  495MOL0     C68201   7.948   0.218   7.087 -0.0768 -0.3674  0.1519
  495MOL0     C68202   7.807   0.187   7.044  0.6939  0.3397 -0.0787
  495MOL0     O68203   7.733   0.116   7.127 -0.3441  0.1043  0.0476
  495MOL0     C68204   7.600   0.080   7.099 -0.2643 -0.4280 -0.6648
  495MOL0     C68205   7.533   0.066   6.979  0.4831 -0.0380  1.1874
  495MOL0     C68206   7.398   0.030   6.969 -1.2437  0.3993  0.3329
  495MOL0     C68207   7.326   0.006   7.085  0.2348 -0.4017 -0.1358
  495MOL0     O68208   7.210  -0.059   7.084  0.1196  0.2872  0.9024
  495MOL0     C68209   7.118  -0.042   6.972 -0.3269  0.4781  0.2997
  495MOL0     C68210   6.993  -0.129   6.998 -0.6469  0.6077 -0.7730
  495MOL0     C68211   6.902  -0.070   7.109  0.2865 -0.8254  1.0671
  495MOL0     C68212   6.791   0.015   7.041 -0.5266  0.4423 -0.1480
  495MOL0     C68213   6.718   0.084   7.150 -0.3733  0.5671 -0.0111
  495MOL0     C68214   6.608   0.172   7.092  0.8209 -0.2167  0.4403
  495MOL0     C68215   6.504   0.106   7.013  0.1842 -0.3161  0.1119
  495MOL0     C68216   6.392   0.209   6.973  0.6196 -0.5613  0.1528
  495MOL0    Cl68217   6.283   0.264   7.115  0.2317  0.2423 -0.2842
  495MOL0     C68218   7.383   0.027   7.206 -0.6481 -0.5413  0.3393
  495MOL0     C68219   7.524   0.058   7.216 -0.1128 -0.0024  0.4011
  495MOL0     O68220   7.781   0.218   6.923  0.4224 -0.7315  0.6318
  495MOL0     C68221   8.056   0.203   7.002  0.3120 -0.4073  0.3210
  495MOL0     C68222   8.182   0.233   7.044  0.2060  0.2062 -0.2760
  495MOL0     N68223   8.806  -0.020   6.852  0.0245  0.1971 -0.0910
  495MOL0     N68224   8.897  -0.096   6.795 -0.1274  0.3821  0.4517
  495MOL0     C68225   9.320   0.369   6.799  0.0109  0.9071 -0.9815
  495MOL0     C68226   9.191   0.361   6.756  0.3326  0.2546 -0.4642
  495MOL0     C68227   8.722   0.350   6.732  0.0398 -0.6417 -0.3296
  495MOL0     C68228   8.723   0.227   6.661  0.9020  0.1278 -0.2124
  495MOL0     C68229   8.605   0.160   6.617 -0.3049  0.6776 -0.0943
  495MOL0     C68230   8.477   0.216   6.645 -0.3253  1.2409 -1.0218
  495MOL0     O68231   8.358   0.155   6.613 -0.2846  0.1660 -0.3744
  495MOL0     C68232   8.350   0.015   6.588  0.8675 -0.3601 -0.7001
  495MOL0     C68233   8.350  -0.026   6.443 -0.2705  0.2001 -0.2972
  495MOL0     C68234   8.240   0.051   6.360 -0.2220 -0.1800 -0.6105
  495MOL0     C68235   8.241   0.023   6.206 -0.3239  0.2411  0.1480
  495MOL0     C68236   8.113   0.068   6.156 -0.7574 -0.4785 -0.5071
  495MOL0     C68237   8.022   0.120   6.099  0.6610 -0.8073  0.0194
  495MOL0     C68238   8.478   0.340   6.694 -0.1365  0.0270  0.0990
  495MOL0     C68239   8.593   0.404   6.749 -1.0582 -0.2321  0.4988
  495MOL0     C68240   8.569   0.535   6.828 -0.3905  0.6944 -0.5786
  495MOL0     H68241   9.012   0.388   7.040 -0.1140  2.3453 -0.5759
  495MOL0     H68242   9.238   0.432   7.122  1.3071  0.7403  0.2548
  495MOL0     H68243   9.425   0.371   7.182 -0.4690  1.0419 -1.3277
  495MOL0     H68244   9.601   0.379   7.135  0.2530 -1.4310  3.2528
  495MOL0     H68245   9.593   0.149   7.052 -0.1036 -0.7229  0.1433
  495MOL0     H68246   9.572   0.175   7.224 -1.1680  4.4104  0.6282
  495MOL0     H68247   9.322   0.137   7.203  3.1701 -1.1985  2.4199
  495MOL0     H68248   9.341   0.136   7.025  0.2921  0.6310 -0.2565
  495MOL0     H68249   9.506  -0.059   7.089  0.5370  1.6382  0.5883
  495MOL0     H68250   9.450  -0.045   7.248  1.4778 -1.8119 -1.4073
  495MOL0     H68251   9.218  -0.097   7.190  1.1790 -1.1733  2.0780
  495MOL0     H68252   9.328  -0.230   7.167 -1.9116 -0.8739 -0.4701
  495MOL0     H68253   9.227  -0.068   6.940  2.8978  0.5399 -1.6321
  495MOL0     H68254   9.354  -0.192   6.941  1.0405  1.8732  2.0521
  495MOL0     H68255   9.100  -0.281   7.079 -0.2277  0.7371 -0.1543
  495MOL0     H68256   9.202  -0.372   6.970  0.3435  0.0488  0.1959
  495MOL0     H68257   9.121  -0.231   6.789  0.6916 -1.7011 -0.5236
  495MOL0     H68258   9.023  -0.371   6.843  2.2090 -0.5807 -2.9920
  495MOL0     H68259   8.873  -0.219   7.094  0.0798  0.9171  0.3037
  495MOL0     H68260   8.745  -0.003   7.186 -0.9310  0.9919  0.0782
  495MOL0     H68261   8.617  -0.081   7.093  0.0847  0.1346  1.0367
  495MOL0     H68262   8.709   0.202   7.063 -0.2384  0.6230  2.0057
  495MOL0     H68263   8.595   0.123   6.958  1.0081  0.9211  0.0208
  495MOL0     H68264   8.434   0.079   7.127 -2.1707  0.9887  1.9326
  495MOL0     H68265   8.537   0.150   7.264 -4.1025  1.4513  0.8157
  495MOL0     H68266   8.520   0.371   7.162  0.3428 -0.8722  1.8390
  495MOL0     H68267   8.427   0.298   7.032 -0.9401 -3.2493 -0.4259
  495MOL0     H68268   8.111   0.351   7.353  1.0419 -2.7942  0.5233
  495MOL0     H68269   7.870   0.410   7.355  0.9695  0.2378 -0.7809
  495MOL0     H68270   7.808   0.245   7.361  1.2828 -0.2247  0.4714
  495MOL0     H68271   7.762   0.356   7.230 -0.1927 -0.3661 -0.5708
  495MOL0     H68272   7.585   0.094   6.888 -2.2771  4.1733  0.6341
  495MOL0     H68273   7.357   0.004   6.872  1.2136  0.4268 -0.7743
  495MOL0     H68274   7.102   0.065   6.956  4.2421  1.7690  2.4082
  495MOL0     H68275   7.164  -0.081   6.881  0.1284  0.7586  0.4058
  495MOL0     H68276   6.926  -0.148   6.913 -2.3013 -1.0753  0.8231
  495MOL0     H68277   7.027  -0.230   7.022 -0.9260  1.1796  2.3896
  495MOL0     H68278   6.963  -0.010   7.177 -1.3417  1.2828  0.7383
  495MOL0     H68279   6.854  -0.146   7.172 -0.4814  0.0926  1.6080
  495MOL0     H68280   6.722  -0.052   6.987 -1.7936 -0.6271  2.6346
  495MOL0     H68281   6.850   0.083   6.979  4.0560 -0.6319  2.5713
  495MOL0     H68282   6.678   0.012   7.223 -2.3768  0.9052 -0.7057
  495MOL0     H68283   6.776   0.157   7.207 -0.4978  0.0711  0.7592
  495MOL0     H68284   6.659   0.241   7.025  0.4806  1.5220  1.9004
  495MOL0     H68285   6.556   0.230   7.169 -0.5112  2.7305 -2.4545
  495MOL0     H68286   6.465   0.019   7.067  0.8386 -0.8090 -0.1960
  495MOL0     H68287   6.543   0.073   6.916  3.2255  0.1811  1.0570
  495MOL0     H68288   6.331   0.168   6.892 -0.9945  1.0013  0.5156
  495MOL0     H68289   6.437   0.300   6.934 -1.4341  1.0252  1.2574
  495MOL0     H68290   7.312   0.019   7.287 -1.7372 -1.5715 -0.6933
  495MOL0     H68291   7.577   0.083   7.307  2.5170  0.1692 -1.0742
  495MOL0     H68292   8.035   0.156   6.907  0.5960 -0.0578  0.0839
  495MOL0     H68293   8.256   0.192   6.976 -0.1223 -2.2168  0.7378
  495MOL0     H68294   9.406   0.349   6.736  0.7054  0.8131 -0.0348
  495MOL0     H68295   9.159   0.352   6.652 -1.9660 -1.0856  0.2888
  495MOL0     H68296   8.818   0.179   6.642  0.8219 -1.3520  2.6727
  495MOL0     H68297   8.605   0.068   6.560  2.9981 -0.9095  2.1530
  495MOL0     H68298   8.437  -0.031   6.637  1.0880  3.0723  2.5064
  495MOL0     H68299   8.264  -0.025   6.641  1.4873 -0.1804  0.4719
  495MOL0     H68300   8.313  -0.127   6.423  4.2630 -1.8212  0.1808
  495MOL0     H68301   8.452  -0.008   6.408 -0.2040  3.7080  1.2241
  495MOL0     H68302   8.146   0.013   6.399  2.3827 -3.3553  3.4532
  495MOL0     H68303   8.243   0.160   6.367 -0.8922  0.0778 -3.3218
  495MOL0     H68304   8.246  -0.086   6.196  0.7786  0.1929  1.0962
  495MOL0     H68305   8.327   0.072   6.159  0.4356  1.3442  2.5674
  495MOL0     H68306   7.956   0.187   6.046 -0.9275 -2.1053  0.2794
  495MOL0     H68307   8.379   0.383   6.701 -2.1621 -4.1669  0.0573
  495MOL0     H68308   8.578   0.523   6.936  3.0693  2.9757 -0.4590
  495MOL0     H68309   8.643   0.613   6.810 -0.0153  0.9022  1.6688
  495MOL0     H68310   8.470   0.576   6.809 -1.5416 -0.9845  1.3650
  496MOL0     O68311   4.906   1.813   5.759 -0.1403  0.1214 -0.2073
  496MOL0     C68312   4.832   1.725   5.791 -0.4166  1.4042  0.3158
  496MOL0     O68313   4.872   1.604   5.839  0.2016 -0.3406 -0.9769
  496MOL0     C68314   4.998   1.589   5.883  0.0109  0.6968 -0.9205
  496MOL0     C68315   5.085   1.500   5.817  0.2429  0.0864 -0.6503
  496MOL0     C68316   5.217   1.479   5.875 -0.6414  0.7561  0.6314
  496MOL0     C68317   5.269   1.549   5.989  0.5589 -0.2209  1.3648
  496MOL0     O68318   5.393   1.521   6.046  0.0824 -0.2350 -0.0813
  496MOL0     C68319   5.441   1.388   6.025  0.1696 -0.0154  0.4443
  496MOL0     C68320   5.567   1.358   6.108  0.4363 -0.7334 -0.5974
  496MOL0     C68321   5.627   1.213   6.090 -0.0440 -0.5505 -0.4057
  496MOL0     C68322   5.761   1.194   6.163 -0.4138 -0.0164 -0.3111
  496MOL0     C68323   5.845   1.084   6.106  0.0753 -0.2551 -1.6850
  496MOL0     C68324   5.774   0.960   6.037 -0.0143 -0.1263  0.3920
  496MOL0     C68325   5.882   0.860   5.989  0.2649  0.1399  0.0330
  496MOL0     C68326   5.831   0.748   5.886  1.6692 -0.1476 -0.2350
  496MOL0     N68327   5.692   0.698   5.907  0.0718  0.1182  0.2217
  496MOL0     C68328   5.673   0.589   5.987  0.4934 -0.1185  0.5148
  496MOL0     C68329   5.541   0.578   6.002 -0.0714 -0.4811  0.6884
  496MOL0     C68330   5.472   0.465   6.071 -0.5614 -0.0837 -0.3124
  496MOL0     C68331   5.535   0.385   6.187 -0.1726 -0.3400  0.6795
  496MOL0     C68332   5.595   0.481   6.292 -0.2050  0.3000 -0.0907
  496MOL0     C68333   5.698   0.400   6.377 -0.2991 -0.7993  0.0296
  496MOL0     O68334   5.811   0.373   6.290 -0.4696 -0.2643 -0.0965
  496MOL0     C68335   5.929   0.329   6.346  0.2027  0.6522 -0.5056
  496MOL0     C68336   6.051   0.334   6.281 -0.9447 -0.1560 -0.7499
  496MOL0     C68337   6.170   0.283   6.334 -0.0514  0.5485  0.0735
  496MOL0     C68338   6.292   0.314   6.238  0.6280  0.1216 -0.3208
  496MOL0     C68339   6.174   0.224   6.462 -0.0391  0.6556  0.3108
  496MOL0     C68340   6.298   0.183   6.537  0.5118 -0.6010  0.5662
  496MOL0     O68341   6.416   0.191   6.474 -0.0868 -0.2803  0.0810
  496MOL0     C68342   6.526   0.197   6.554 -0.0719  0.2602  0.2892
  496MOL0     C68343   6.584   0.320   6.583 -0.5620  0.6637 -0.2245
  496MOL0     C68344   6.706   0.330   6.654  0.2767  0.6194 -0.2628
  496MOL0     C68345   6.779   0.213   6.686 -0.1421  0.0814  0.3383
  496MOL0     O68346   6.906   0.207   6.752 -0.1038  0.6220 -0.9755
  496MOL0     C68347   6.975   0.323   6.791  0.7191 -0.7395 -0.7084
  496MOL0     C68348   7.050   0.397   6.676 -0.6030  0.5440 -0.4255
  496MOL0     C68349   7.168   0.313   6.623 -0.5597 -0.6534  0.7230
  496MOL0     C68350   7.293   0.348   6.705 -0.5433 -0.3981 -0.3761
  496MOL0     C68351   7.409   0.262   6.655 -0.2738  0.4701 -0.2189
  496MOL0     C68352   7.546   0.322   6.696 -0.3105 -0.0615  0.4980
  496MOL0     C68353   7.646   0.306   6.583 -0.7583 -0.1508  0.4797
  496MOL0     C68354   7.788   0.374   6.591 -0.0677 -0.0242  0.2688
  496MOL0    Cl68355   7.929   0.296   6.532 -0.0685 -0.1121 -0.5103
  496MOL0     C68356   6.720   0.089   6.647  0.9902  0.4310 -0.2540
  496MOL0     C68357   6.592   0.079   6.592  0.2283  0.6478 -0.8752
  496MOL0     O68358   6.278   0.155   6.655  0.1240 -0.6618  0.8088
  496MOL0     C68359   6.049   0.207   6.526  0.2949  0.1120  0.4276
  496MOL0     C68360   5.929   0.264   6.474 -0.2082 -0.3950 -0.0053
  496MOL0     N68361   5.487   0.682   5.917  0.5171 -0.3058 -0.7859
  496MOL0     N68362   5.582   0.749   5.862  0.0981 -0.3971  0.2464
  496MOL0     C68363   5.171   1.630   6.051 -0.4780 -0.7858 -1.1884
  496MOL0     C68364   5.039   1.652   6.003  0.0615  1.2509 -0.2548
  496MOL0     C68365   4.686   1.761   5.793  1.1057 -0.7857  0.6205
  496MOL0     C68366   4.604   1.663   5.850 -0.3270  0.5609 -0.2556
  496MOL0     C68367   4.462   1.681   5.846  0.3143  0.2139 -0.8239
  496MOL0     C68368   4.404   1.796   5.792 -0.5891 -0.4152  0.4350
  496MOL0     O68369   4.271   1.806   5.794  0.5629  0.6641 -0.0679
  496MOL0     C68370   4.212   1.878   5.911 -0.0172  0.4113  0.5336
  496MOL0     C68371   4.054   1.873   5.917 -0.3825 -0.7716  0.0270
  496MOL0     C68372   3.992   2.003   5.876 -0.4019  0.1166  0.1521
  496MOL0     C68373   3.838   1.990   5.886 -0.1966 -0.3029  0.5020
  496MOL0     C68374   3.774   2.119   5.858 -0.2282  0.0178  0.3405
  496MOL0     C68375   3.728   2.234   5.840  0.9506  0.8230  0.5705
  496MOL0     C68376   4.489   1.882   5.726  0.0646 -0.9270 -0.4571
  496MOL0     C68377   4.622   1.875   5.719 -0.7870  0.2867  0.2856
  496MOL0     C68378   4.707   1.969   5.633  0.1404 -0.0491  0.0235
  496MOL0     H68379   5.059   1.435   5.733  1.2695  0.5698 -1.3666
  496MOL0     H68380   5.278   1.407   5.822  2.7701  2.3154  2.1281
  496MOL0     H68381   5.476   1.389   5.921  2.9491  4.4085  1.1712
  496MOL0     H68382   5.366   1.311   6.044 -0.2214  0.8505  2.7811
  496MOL0     H68383   5.637   1.440   6.092  0.0221 -0.2107  0.2020
  496MOL0     H68384   5.529   1.375   6.209 -1.4861  0.6002 -1.4891
  496MOL0     H68385   5.553   1.135   6.109 -0.4721  0.0379  0.4202
  496MOL0     H68386   5.638   1.216   5.981 -0.5732 -1.3769 -0.4939
  496MOL0     H68387   5.831   1.279   6.163  1.0355 -1.1636 -1.2864
  496MOL0     H68388   5.740   1.162   6.265  1.5864  0.4005  0.2841
  496MOL0     H68389   5.903   1.038   6.186  1.8805  0.0000 -2.8010
  496MOL0     H68390   5.919   1.122   6.035  0.0440 -1.3719 -2.3465
  496MOL0     H68391   5.718   0.910   6.116 -2.1248 -0.5499 -1.2902
  496MOL0     H68392   5.699   0.993   5.965  0.9314  4.0547  1.0304
  496MOL0     H68393   5.904   0.805   6.081  2.6501  1.8431  0.5755
  496MOL0     H68394   5.976   0.898   5.949 -0.0170  0.3408 -0.4517
  496MOL0     H68395   5.829   0.778   5.781  0.2176 -0.5402 -0.3399
  496MOL0     H68396   5.912   0.674   5.888  2.0959  0.3198  1.0762
  496MOL0     H68397   5.745   0.520   6.029  1.2264  1.5082  2.0380
  496MOL0     H68398   5.434   0.392   5.999  0.3724 -1.5607  0.6487
  496MOL0     H68399   5.389   0.519   6.117  2.5900  3.6521  1.5720
  496MOL0     H68400   5.459   0.321   6.234  0.9908 -3.1477 -1.0283
  496MOL0     H68401   5.607   0.318   6.140 -1.3337 -0.7363 -0.6067
  496MOL0     H68402   5.655   0.562   6.250  0.2468  1.3781  2.4408
  496MOL0     H68403   5.513   0.522   6.351 -1.2089 -2.2271  0.4082
  496MOL0     H68404   5.742   0.468   6.450  1.6762 -0.2530 -1.5762
  496MOL0     H68405   5.652   0.313   6.424  3.4017 -1.6088  2.6117
  496MOL0     H68406   6.041   0.383   6.185  2.4105  1.5136 -0.3702
  496MOL0     H68407   6.267   0.329   6.132  1.2953  0.7413 -0.3969
  496MOL0     H68408   6.360   0.228   6.229  1.1886  0.6437 -1.3659
  496MOL0     H68409   6.346   0.394   6.288 -1.1233  1.0728  0.1239
  496MOL0     H68410   6.531   0.412   6.562 -2.0108  0.8231  3.4084
  496MOL0     H68411   6.744   0.427   6.685  1.6304  0.7795 -2.2346
  496MOL0     H68412   6.917   0.389   6.857  1.3716 -0.7383 -0.1119
  496MOL0     H68413   7.052   0.292   6.863  2.6762  4.0068 -0.4049
  496MOL0     H68414   6.976   0.409   6.597 -2.4521 -2.2502  0.7543
  496MOL0     H68415   7.087   0.495   6.711  3.4748 -0.4979 -1.2385
  496MOL0     H68416   7.194   0.354   6.525  0.1957 -0.6072  0.9338
  496MOL0     H68417   7.144   0.206   6.612  1.2542 -1.1460  1.1832
  496MOL0     H68418   7.280   0.324   6.811 -2.1416 -0.9488 -0.6709
  496MOL0     H68419   7.310   0.455   6.695 -0.1946 -0.5422 -1.5197
  496MOL0     H68420   7.400   0.161   6.696  0.0794  2.0577  4.4638
  496MOL0     H68421   7.410   0.270   6.546 -1.2933  0.6416 -0.2188
  496MOL0     H68422   7.585   0.266   6.781 -0.8923 -1.7153 -0.2807
  496MOL0     H68423   7.540   0.428   6.721 -0.5618  0.8914 -3.0773
  496MOL0     H68424   7.610   0.341   6.486 -1.6081 -0.2926  0.7326
  496MOL0     H68425   7.667   0.199   6.576 -2.8882 -0.5795  0.0446
  496MOL0     H68426   7.800   0.393   6.698  0.4577  1.8930 -0.0906
  496MOL0     H68427   7.790   0.472   6.542  1.0816  0.3373  1.0088
  496MOL0     H68428   6.768   0.001   6.686  1.7106  0.9296 -0.0013
  496MOL0     H68429   6.543  -0.019   6.592  3.0393 -0.9318  1.7429
  496MOL0     H68430   6.040   0.176   6.630  0.7529 -0.5852  0.2724
  496MOL0     H68431   5.842   0.262   6.539 -0.8107 -2.0882 -0.8286
  496MOL0     H68432   5.202   1.694   6.133  0.4543 -0.3281 -1.8826
  496MOL0     H68433   4.964   1.711   6.053 -0.9025 -0.2348  0.1317
  496MOL0     H68434   4.643   1.572   5.894  0.0551  0.7538 -0.1948
  496MOL0     H68435   4.401   1.603   5.892  1.2658 -0.2849 -0.3552
  496MOL0     H68436   4.251   1.828   6.000  4.6277  1.7824 -0.4659
  496MOL0     H68437   4.254   1.979   5.910  0.9448  0.0497  1.7428
  496MOL0     H68438   4.035   1.842   6.020  1.4897  2.7856  1.6313
  496MOL0     H68439   4.024   1.790   5.852  3.5702 -2.9378  0.6304
  496MOL0     H68440   4.023   2.095   5.925  0.3488 -0.4751  0.8018
  496MOL0     H68441   4.016   2.021   5.771 -0.1921  0.3796  0.2463
  496MOL0     H68442   3.800   1.970   5.986 -1.0062 -3.7372 -0.3501
  496MOL0     H68443   3.805   1.917   5.811  2.7945 -0.0662 -1.2331
  496MOL0     H68444   3.699   2.331   5.805  1.8541 -0.0167 -2.8197
  496MOL0     H68445   4.451   1.971   5.677  0.3133 -1.0267 -0.8363
  496MOL0     H68446   4.645   2.023   5.561  1.2819  0.1949 -0.8169
  496MOL0     H68447   4.774   2.027   5.697  0.4941 -2.5422  2.0908
  496MOL0     H68448   4.771   1.907   5.569  0.7407  0.4722  0.1086
  497MOL0     O68449   4.467  10.741   8.075 -0.6229 -0.5774  0.2656
  497MOL0     C68450   4.377  10.684   8.017  0.6184 -0.1687  0.6712
  497MOL0     O68451   4.358  10.695   7.879 -0.2084  0.5073  0.2735
  497MOL0     C68452   4.436  10.782   7.809  0.4325 -0.2346  0.7955
  497MOL0     C68453   4.546  10.746   7.729 -1.1874  1.1567 -0.5163
  497MOL0     C68454   4.624  10.842   7.668 -0.2250 -0.5884 -0.0349
  497MOL0     C68455   4.585  10.980   7.677  0.3430 -0.6519 -0.7174
  497MOL0     O68456   4.649  11.080   7.622 -0.0124 -0.4408  0.2402
  497MOL0     C68457   4.683  11.066   7.487 -0.3764 -0.4599 -0.1715
  497MOL0     C68458   4.790  11.175   7.451 -0.7290 -0.4147 -0.1868
  497MOL0     C68459   4.921  11.160   7.539  0.3362  1.2632  0.9854
  497MOL0     C68460   5.041  11.234   7.483  0.2476 -0.4431 -0.1146
  497MOL0     C68461   5.166  11.201   7.560 -0.8913  0.1270 -0.2539
  497MOL0     C68462   5.297  11.246   7.493  0.1884  0.2155  0.4619
  497MOL0     C68463   5.328  11.392   7.531 -0.5586  0.6761  0.3087
  497MOL0     C68464   5.439  11.452   7.426 -0.8343 -0.1250 -0.2897
  497MOL0     N68465   5.569  11.377   7.426  0.0491  0.0588 -0.4012
  497MOL0     C68466   5.654  11.349   7.533 -0.3056 -1.0568  0.0407
  497MOL0     C68467   5.757  11.270   7.480  0.0462  0.5253  0.3457
  497MOL0     C68468   5.872  11.199   7.535 -0.0305 -0.5827  0.0656
  497MOL0     C68469   5.885  11.056   7.473  0.0222 -0.8916 -0.4074
  497MOL0     C68470   5.977  10.969   7.560  0.0303  0.5527 -0.3079
  497MOL0     C68471   6.121  11.020   7.560  0.4595  0.1700  0.0372
  497MOL0     O68472   6.133  11.114   7.672  0.0970 -0.4632  0.3237
  497MOL0     C68473   6.254  11.132   7.730 -0.7453 -0.7945  0.5614
  497MOL0     C68474   6.259  11.209   7.843  1.0477 -0.1493  0.4334
  497MOL0     C68475   6.375  11.228   7.923  0.0887  0.0505  0.2659
  497MOL0     C68476   6.350  11.260   8.065  0.1602  0.8229 -0.8347
  497MOL0     C68477   6.497  11.177   7.868  0.3629 -0.6290 -0.3103
  497MOL0     C68478   6.632  11.181   7.938  0.0715  0.3695 -0.5287
  497MOL0     O68479   6.728  11.100   7.886  0.0717 -0.7223 -0.1697
  497MOL0     C68480   6.854  11.085   7.942  0.7273  0.5945 -0.4725
  497MOL0     C68481   6.863  11.083   8.081 -0.8527  0.6254 -0.4775
  497MOL0     C68482   6.994  11.070   8.135  0.2953 -0.2201  0.1143
  497MOL0     C68483   7.105  11.062   8.055 -0.0331  0.4670 -0.3289
  497MOL0     O68484   7.235  11.070   8.110 -0.1047 -0.5334  0.0987
  497MOL0     C68485   7.261  11.089   8.251 -0.1555  0.8701  0.6927
  497MOL0     C68486   7.224  11.225   8.299  0.8834 -0.0069  0.2105
  497MOL0     C68487   7.223  11.232   8.446  0.1961 -0.4158  0.5332
  497MOL0     C68488   7.170  11.364   8.499 -0.4140 -0.2253  0.2650
  497MOL0     C68489   7.157  11.361   8.653  0.2027 -0.0981  0.2007
  497MOL0     C68490   7.283  11.394   8.729 -0.7466  0.5962 -0.0736
  497MOL0     C68491   7.359  11.528   8.699 -0.3314 -0.7160  0.0998
  497MOL0     C68492   7.445  11.572   8.821 -0.1200  0.2390 -0.0282
  497MOL0    Cl68493   7.584  11.450   8.846  0.0498 -0.1150 -0.1985
  497MOL0     C68494   7.086  11.063   7.912  0.0434 -0.2005  0.2006
  497MOL0     C68495   6.962  11.081   7.861  0.0437 -0.3518 -0.7652
  497MOL0     O68496   6.647  11.271   8.019  0.5121 -0.5362  0.1634
  497MOL0     C68497   6.500  11.115   7.739 -0.2781  0.4087 -0.2453
  497MOL0     C68498   6.377  11.083   7.682  0.5510 -0.0564 -0.1000
  497MOL0     N68499   5.718  11.240   7.350  0.1894  0.5833  0.0805
  497MOL0     N68500   5.611  11.302   7.329 -0.3111  1.0063  1.4233
  497MOL0     C68501   4.471  11.012   7.754 -0.2265 -0.3708 -0.3258
  497MOL0     C68502   4.393  10.911   7.814  0.6416 -0.4152 -0.3448
  497MOL0     C68503   4.282  10.600   8.095 -0.1860 -0.6785  0.3829
  497MOL0     C68504   4.177  10.541   8.023 -0.5247 -0.4741  0.3204
  497MOL0     C68505   4.105  10.443   8.086  0.0089 -0.5740 -0.3496
  497MOL0     C68506   4.125  10.413   8.225  0.2993 -0.5380 -0.0888
  497MOL0     O68507   4.037  10.327   8.283 -0.4014  0.3827 -0.3486
  497MOL0     C68508   4.005  10.353   8.425 -0.1340 -0.6289  0.2516
  497MOL0     C68509   3.866  10.307   8.452 -0.5228 -0.1439  0.4143
  497MOL0     C68510   3.814  10.316   8.600  0.4604 -0.8272 -1.1769
  497MOL0     C68511   3.695  10.217   8.619 -0.8692 -0.2759 -0.1420
  497MOL0     C68512   3.574  10.270   8.677 -0.0329 -0.3297  0.4587
  497MOL0     C68513   3.465  10.301   8.725 -0.1220  0.4063 -0.1732
  497MOL0     C68514   4.231  10.471   8.292  0.0775 -0.4678  0.2654
  497MOL0     C68515   4.302  10.579   8.234 -0.0735  0.3733 -0.3382
  497MOL0     C68516   4.401  10.648   8.319 -0.4286 -0.0888 -1.4152
  497MOL0     H68517   4.569  10.640   7.725 -0.7535  1.1897  0.6891
  497MOL0     H68518   4.711  10.807   7.614  0.5234 -1.0378  1.3940
  497MOL0     H68519   4.593  11.081   7.427  0.6352 -3.9086 -2.8933
  497MOL0     H68520   4.714  10.967   7.453 -0.2810 -0.5263  0.1103
  497MOL0     H68521   4.803  11.181   7.342  1.0779 -1.0535 -0.0381
  497MOL0     H68522   4.759  11.276   7.478  3.9524  1.7781 -1.9420
  497MOL0     H68523   4.888  11.187   7.639 -1.2240  0.5701  0.6917
  497MOL0     H68524   4.936  11.053   7.556 -2.4146  0.9891  2.2155
  497MOL0     H68525   5.066  11.225   7.377 -2.5035  1.0864 -0.9762
  497MOL0     H68526   5.019  11.340   7.495  0.0686 -0.4224 -0.5864
  497MOL0     H68527   5.175  11.093   7.569  3.7483  0.2735 -0.7365
  497MOL0     H68528   5.146  11.239   7.661 -3.1486  0.8705 -0.9058
  497MOL0     H68529   5.382  11.191   7.536  0.0265  0.0653  0.5931
  497MOL0     H68530   5.294  11.240   7.384 -0.2735  3.4098  0.2035
  497MOL0     H68531   5.352  11.399   7.637  0.0206 -2.8520  0.5195
  497MOL0     H68532   5.241  11.457   7.521 -0.6766  0.6445  1.1081
  497MOL0     H68533   5.405  11.461   7.322 -0.8760 -0.3727 -0.2982
  497MOL0     H68534   5.462  11.553   7.462  0.5762  0.5013 -2.6959
  497MOL0     H68535   5.624  11.368   7.636 -0.1388  0.9653 -0.2385
  497MOL0     H68536   5.846  11.188   7.641 -2.9382 -1.2285 -0.6093
  497MOL0     H68537   5.965  11.248   7.508 -0.0076 -0.6634 -0.0029
  497MOL0     H68538   5.786  11.009   7.472  1.0843 -3.3853 -3.0922
  497MOL0     H68539   5.906  11.071   7.367 -3.9355  1.9211 -1.0365
  497MOL0     H68540   5.945  10.954   7.664  1.5955  2.4153  0.4825
  497MOL0     H68541   5.977  10.870   7.512 -2.5192  0.0345  0.5642
  497MOL0     H68542   6.182  10.931   7.575 -0.0092 -0.5636 -2.0836
  497MOL0     H68543   6.145  11.075   7.468 -0.8401 -0.2680 -0.5822
  497MOL0     H68544   6.158  11.242   7.863 -0.1106 -0.9278 -3.2888
  497MOL0     H68545   6.244  11.281   8.080  0.5331  0.7570  2.5117
  497MOL0     H68546   6.415  11.340   8.102 -0.3967  0.6919  0.4872
  497MOL0     H68547   6.378  11.176   8.129  0.3442  2.0691  0.7935
  497MOL0     H68548   6.776  11.082   8.145 -0.9501 -4.0054 -0.2889
  497MOL0     H68549   7.004  11.056   8.242 -3.9174 -1.4788  0.5294
  497MOL0     H68550   7.193  11.015   8.292 -3.4372  1.8099 -2.4656
  497MOL0     H68551   7.364  11.063   8.275 -0.4659  0.4949  1.6543
  497MOL0     H68552   7.302  11.296   8.272  1.2730 -0.8347 -0.9379
  497MOL0     H68553   7.129  11.250   8.251  1.8045 -1.4956 -2.6084
  497MOL0     H68554   7.329  11.223   8.472  0.3586  1.9708  0.8750
  497MOL0     H68555   7.159  11.158   8.494 -1.2406  0.5869  0.2125
  497MOL0     H68556   7.067  11.375   8.463 -1.4699  0.9061  3.3496
  497MOL0     H68557   7.210  11.458   8.459 -1.4455  0.1242  0.0152
  497MOL0     H68558   7.073  11.429   8.671 -0.5522 -0.3109 -2.1228
  497MOL0     H68559   7.116  11.262   8.678  1.6533 -0.3302  1.7410
  497MOL0     H68560   7.351  11.313   8.702  0.1132  1.1000  0.5338
  497MOL0     H68561   7.265  11.390   8.837  0.0832  0.3882  0.0606
  497MOL0     H68562   7.287  11.609   8.687 -1.1902 -0.8680  3.2211
  497MOL0     H68563   7.425  11.532   8.612 -0.4948  3.1913 -0.0156
  497MOL0     H68564   7.387  11.573   8.914  0.8240  1.6663  0.5803
  497MOL0     H68565   7.483  11.673   8.803 -0.2413  0.2204 -0.3822
  497MOL0     H68566   7.173  11.038   7.853  1.3303 -2.1969  2.7312
  497MOL0     H68567   6.944  11.072   7.754  0.5269 -1.6066 -0.7564
  497MOL0     H68568   6.589  11.079   7.688  1.0775  3.1719 -0.0341
  497MOL0     H68569   6.383  11.036   7.584 -0.1835 -1.6323  0.5780
  497MOL0     H68570   4.433  11.113   7.770  1.6407  0.3109  0.0109
  497MOL0     H68571   4.303  10.935   7.871  0.3260 -1.7161 -0.2815
  497MOL0     H68572   4.158  10.567   7.920 -0.1917 -0.4870  0.2568
  497MOL0     H68573   4.027  10.391   8.032  1.2062 -0.7415 -1.9897
  497MOL0     H68574   4.071  10.288   8.483  0.2606 -3.3627 -2.9605
  497MOL0     H68575   4.010  10.457   8.458 -1.4131 -0.7027  0.7494
  497MOL0     H68576   3.864  10.204   8.416  2.3155  0.1254 -0.7727
  497MOL0     H68577   3.800  10.357   8.380 -0.4101 -0.0622  0.3667
  497MOL0     H68578   3.892  10.294   8.673  0.1790  0.7903 -0.3477
  497MOL0     H68579   3.769  10.415   8.611 -1.7699 -2.0373  2.0634
  497MOL0     H68580   3.731  10.127   8.670  2.5997  0.0546 -1.7300
  497MOL0     H68581   3.672  10.173   8.522 -0.4992 -2.5505  0.7323
  497MOL0     H68582   3.373  10.317   8.777  0.7374  0.3585  1.4471
  497MOL0     H68583   4.257  10.436   8.392 -1.9018 -0.9348  0.6511
  497MOL0     H68584   4.393  10.756   8.311  0.3540  0.2864  1.6725
  497MOL0     H68585   4.380  10.620   8.423 -1.8890  0.2529 -1.6025
  497MOL0     H68586   4.501  10.619   8.284 -1.1793 -4.1833 -0.7769
  498MOL0     O68587   4.303   5.804   4.287 -0.4059  0.1590  0.5628
  498MOL0     C68588   4.299   5.851   4.174  0.5621 -1.1573  0.7000
  498MOL0     O68589   4.385   5.945   4.122  0.5348  0.2436  1.3086
  498MOL0     C68590   4.496   5.970   4.194  0.3403 -0.7097  0.2341
  498MOL0     C68591   4.616   5.947   4.141 -0.0189  0.0186  0.4586
  498MOL0     C68592   4.732   5.961   4.217  0.0006 -0.1889  0.3855
  498MOL0     C68593   4.736   5.998   4.352  0.4779 -0.7668 -0.7288
  498MOL0     O68594   4.852   5.996   4.423 -0.0122  1.2829  0.8029
  498MOL0     C68595   4.860   6.057   4.548  0.8794  0.1755 -0.0181
  498MOL0     C68596   5.007   6.061   4.589 -0.1787 -0.4334 -0.0031
  498MOL0     C68597   5.041   6.091   4.737  0.3725  0.1898 -0.4312
  498MOL0     C68598   5.185   6.061   4.769 -0.2887 -0.5207 -0.4614
  498MOL0     C68599   5.204   6.095   4.916 -0.6296 -0.0428  0.6464
  498MOL0     C68600   5.350   6.092   4.952 -0.6403 -0.4253 -0.4656
  498MOL0     C68601   5.439   5.990   4.881 -0.2945  0.3770 -0.2931
  498MOL0     C68602   5.417   5.844   4.929  0.2879 -0.6888 -0.5094
  498MOL0     N68603   5.465   5.767   4.820  0.3972  0.1006 -0.1440
  498MOL0     C68604   5.599   5.722   4.808  0.9858  0.0540  0.6704
  498MOL0     C68605   5.581   5.635   4.705  0.1285  0.0274  0.4080
  498MOL0     C68606   5.675   5.525   4.659 -0.1865 -0.3666 -0.3652
  498MOL0     C68607   5.825   5.526   4.697  0.7525  0.4968 -0.4773
  498MOL0     C68608   5.890   5.391   4.656  0.0334  0.5373  0.1988
  498MOL0     C68609   6.023   5.372   4.724 -0.3432 -0.7041 -0.3797
  498MOL0     O68610   6.063   5.243   4.685  0.4760  0.0157  0.0043
  498MOL0     C68611   6.168   5.180   4.753  0.2957  1.6870 -0.2912
  498MOL0     C68612   6.183   5.049   4.722 -0.5279 -0.8404 -0.6764
  498MOL0     C68613   6.286   4.973   4.780  0.4364 -0.9812 -0.9705
  498MOL0     C68614   6.300   4.830   4.740  0.2737 -0.2971  0.1419
  498MOL0     C68615   6.378   5.036   4.872  0.3069  0.4284 -0.5534
  498MOL0     C68616   6.499   4.968   4.923 -0.2740 -0.7457 -0.5545
  498MOL0     O68617   6.591   5.053   4.974  0.2884  0.5264 -0.0157
  498MOL0     C68618   6.716   5.006   4.968 -0.4861 -0.1328  0.5289
  498MOL0     C68619   6.775   4.963   4.848  0.4655  1.0559  0.4935
  498MOL0     C68620   6.908   4.908   4.844 -0.2446  0.5600 -0.5399
  498MOL0     C68621   6.977   4.899   4.967 -0.0241 -0.9482  0.6044
  498MOL0     O68622   7.102   4.845   4.971 -0.2097 -0.2106  0.1097
  498MOL0     C68623   7.190   4.868   5.090  0.2437  0.0474  0.0023
  498MOL0     C68624   7.332   4.821   5.056 -0.8790  0.8050 -0.4110
  498MOL0     C68625   7.390   4.902   4.947  0.5898  0.1294  0.0318
  498MOL0     C68626   7.505   4.841   4.874  0.5096 -0.0444 -0.0781
  498MOL0     C68627   7.459   4.721   4.793 -0.4628 -0.1537  0.9417
  498MOL0     C68628   7.577   4.684   4.699 -0.6025 -0.0012 -0.3827
  498MOL0     C68629   7.553   4.566   4.603 -0.4597 -0.4233  0.4763
  498MOL0     C68630   7.683   4.484   4.583 -0.7490  0.5568  0.6293
  498MOL0    Cl68631   7.652   4.342   4.478  0.2595  0.2243  0.0990
  498MOL0     C68632   6.913   4.941   5.091  0.2796 -0.6328  0.0932
  498MOL0     C68633   6.783   5.000   5.086 -0.5503 -0.1626 -1.2591
  498MOL0     O68634   6.510   4.852   4.920  0.5524  0.4502 -0.1736
  498MOL0     C68635   6.356   5.170   4.901  0.4210  0.2365 -0.3896
  498MOL0     C68636   6.248   5.245   4.848 -0.1212 -0.0994  0.0826
  498MOL0     N68637   5.456   5.653   4.644 -0.0317 -0.1882 -0.5232
  498MOL0     N68638   5.383   5.732   4.715  0.0255  0.3911  0.8927
  498MOL0     C68639   4.609   6.029   4.402 -0.5203  0.4522 -1.0895
  498MOL0     C68640   4.493   6.012   4.323 -1.1345  0.1477 -0.1895
  498MOL0     C68641   4.179   5.836   4.088  0.3034 -0.1696 -0.3036
  498MOL0     C68642   4.192   5.864   3.955 -0.3091  0.8734  0.8017
  498MOL0     C68643   4.083   5.865   3.863  0.2738 -0.2725  0.4798
  498MOL0     C68644   3.955   5.840   3.911  0.3898  1.2318  0.2842
  498MOL0     O68645   3.840   5.819   3.839  0.4545  0.2815  0.7602
  498MOL0     C68646   3.856   5.814   3.696 -0.4720 -0.7255  1.1710
  498MOL0     C68647   3.733   5.778   3.629  0.1681 -0.1649  0.1494
  498MOL0     C68648   3.631   5.896   3.621  0.6388 -0.8866 -0.9946
  498MOL0     C68649   3.488   5.857   3.577  0.6792  0.0057 -0.5332
  498MOL0     C68650   3.404   5.983   3.572  0.3607  1.1834 -0.0486
  498MOL0     C68651   3.331   6.080   3.592  0.5454  1.1089  0.0715
  498MOL0     C68652   3.936   5.822   4.055  1.0151 -0.1879 -0.0295
  498MOL0     C68653   4.043   5.819   4.137 -0.7413  0.4720 -0.3301
  498MOL0     C68654   4.022   5.796   4.289  0.1357 -0.0175 -0.1743
  498MOL0     H68655   4.624   5.915   4.037 -1.5048 -1.0656  0.6419
  498MOL0     H68656   4.823   5.923   4.171 -0.6536 -2.3107  0.7011
  498MOL0     H68657   4.806   6.006   4.628 -0.0394 -0.1132 -0.8036
  498MOL0     H68658   4.831   6.163   4.543  0.0784 -0.0845 -1.0417
  498MOL0     H68659   5.059   5.968   4.564  3.0854  1.0200  0.7119
  498MOL0     H68660   5.051   6.139   4.525 -1.5099 -0.1089 -0.5465
  498MOL0     H68661   5.024   6.197   4.755 -1.3515 -0.0756 -0.2649
  498MOL0     H68662   4.969   6.035   4.798 -0.3640  0.0424 -1.4118
  498MOL0     H68663   5.197   5.953   4.751 -2.4564 -1.0805  0.9463
  498MOL0     H68664   5.259   6.115   4.711 -0.8604 -1.4148 -2.0971
  498MOL0     H68665   5.147   6.022   4.974  1.4180 -2.8323 -0.5733
  498MOL0     H68666   5.179   6.199   4.938 -0.1405 -0.0145  1.0880
  498MOL0     H68667   5.401   6.184   4.922  1.7140 -1.4460  0.1959
  498MOL0     H68668   5.365   6.082   5.059  2.6866 -3.3982 -1.0244
  498MOL0     H68669   5.544   6.006   4.908  0.6648 -2.1712 -2.0759
  498MOL0     H68670   5.429   5.990   4.772  1.9226 -0.9049 -0.5747
  498MOL0     H68671   5.467   5.818   5.023 -2.3447  0.5673  1.3995
  498MOL0     H68672   5.308   5.834   4.924  0.2383  0.2455 -1.6814
  498MOL0     H68673   5.679   5.742   4.878  0.0203  2.4432  1.1692
  498MOL0     H68674   5.674   5.520   4.550 -1.6444  2.1470 -0.5480
  498MOL0     H68675   5.631   5.429   4.688  0.4929 -0.9173 -1.1163
  498MOL0     H68676   5.883   5.606   4.652  0.8324  0.8370  0.2168
  498MOL0     H68677   5.831   5.538   4.806 -0.3097  2.0867 -0.5741
  498MOL0     H68678   5.833   5.298   4.658  0.3888  0.3213  0.5761
  498MOL0     H68679   5.912   5.405   4.550 -2.0010  0.4200 -0.2782
  498MOL0     H68680   6.090   5.452   4.690 -0.7467 -0.9611 -1.8591
  498MOL0     H68681   6.009   5.374   4.832  2.1553 -1.3597  0.0186
  498MOL0     H68682   6.117   5.006   4.647 -1.2607  0.3210 -0.7046
  498MOL0     H68683   6.242   4.837   4.647  2.9337  1.4792 -1.5382
  498MOL0     H68684   6.252   4.754   4.803  2.2293 -1.0347  0.8067
  498MOL0     H68685   6.402   4.800   4.715  0.7299  1.3415 -0.0715
  498MOL0     H68686   6.716   4.960   4.757 -2.1241 -3.4141  1.9802
  498MOL0     H68687   6.952   4.873   4.751 -1.5147 -1.6680 -0.3827
  498MOL0     H68688   7.203   4.975   5.113  0.6057 -0.2988  1.5054
  498MOL0     H68689   7.152   4.808   5.172 -0.2908 -1.0487 -1.0152
  498MOL0     H68690   7.393   4.818   5.147  0.2934 -2.1311 -1.1563
  498MOL0     H68691   7.318   4.717   5.025  0.4172  0.8279 -1.1639
  498MOL0     H68692   7.415   5.000   4.989 -0.5258  0.7992 -0.7983
  498MOL0     H68693   7.315   4.923   4.870  2.2654  2.5641 -1.0542
  498MOL0     H68694   7.580   4.816   4.950  0.0387  0.4223  0.5550
  498MOL0     H68695   7.545   4.917   4.806 -0.1885  0.5890  0.2084
  498MOL0     H68696   7.449   4.641   4.866 -0.1148  0.0583  1.2191
  498MOL0     H68697   7.366   4.744   4.739  0.1488  2.9801  1.0303
  498MOL0     H68698   7.674   4.680   4.751 -0.9435 -0.0341  0.2616
  498MOL0     H68699   7.587   4.773   4.635  0.1702 -0.1011 -0.4167
  498MOL0     H68700   7.510   4.598   4.508 -1.2395 -0.6799  0.7368
  498MOL0     H68701   7.483   4.496   4.650 -0.7622  0.9220  2.1459
  498MOL0     H68702   7.713   4.455   4.684  1.6919 -0.2637 -0.2448
  498MOL0     H68703   7.764   4.548   4.546  0.4504 -1.5465 -0.5876
  498MOL0     H68704   6.967   4.917   5.183 -1.0851 -1.9995  0.5842
  498MOL0     H68705   6.744   5.023   5.184  3.7607 -1.1474  0.9076
  498MOL0     H68706   6.416   5.222   4.975 -1.2654  1.5523  0.1235
  498MOL0     H68707   6.226   5.350   4.863 -0.3995 -0.1844  0.2810
  498MOL0     H68708   4.604   6.060   4.506 -2.1177  1.1711 -1.3410
  498MOL0     H68709   4.402   6.027   4.380 -1.7829  0.4064 -1.2663
  498MOL0     H68710   4.284   5.890   3.904 -0.6821  0.5671 -0.0502
  498MOL0     H68711   4.101   5.876   3.757 -2.4715 -0.5132 -0.0885
  498MOL0     H68712   3.890   5.913   3.667 -2.6858  0.4570  2.3461
  498MOL0     H68713   3.936   5.746   3.665 -1.4627 -1.1350 -0.5884
  498MOL0     H68714   3.675   5.702   3.682 -3.1163  0.0634 -2.7518
  498MOL0     H68715   3.755   5.744   3.527 -0.6655  1.4417 -0.6160
  498MOL0     H68716   3.622   5.952   3.715 -1.5568 -0.6251 -1.2962
  498MOL0     H68717   3.669   5.977   3.558  1.4024  1.1470  1.8605
  498MOL0     H68718   3.440   5.778   3.637  0.1566 -1.9505 -3.3512
  498MOL0     H68719   3.508   5.811   3.480  1.9863  0.3865 -0.4558
  498MOL0     H68720   3.274   6.167   3.617 -0.2182  0.3537  1.0293
  498MOL0     H68721   3.837   5.815   4.098  0.3380 -0.3949 -1.5766
  498MOL0     H68722   4.052   5.885   4.344 -1.6528  2.0196 -2.2807
  498MOL0     H68723   3.918   5.778   4.318  0.2004  3.7599  3.1578
  498MOL0     H68724   4.077   5.707   4.321  2.1135  1.0657 -0.4258
  499MOL0     O68725  11.325   4.429   5.603  0.4608  0.9342  0.3009
  499MOL0     C68726  11.307   4.475   5.716 -0.3812  0.8164 -0.4305
  499MOL0     O68727  11.406   4.478   5.814 -0.4998  0.5173 -0.1806
  499MOL0     C68728  11.514   4.401   5.784 -0.5415  0.2945 -1.2332
  499MOL0     C68729  11.626   4.454   5.717  0.0226  0.5355  0.2405
  499MOL0     C68730  11.748   4.379   5.713  0.7597  0.0833  0.1579
  499MOL0     C68731  11.757   4.247   5.770  0.1856 -0.5320  0.2832
  499MOL0     O68732  11.870   4.167   5.772  0.5699  0.6059  0.3393
  499MOL0     C68733  11.979   4.182   5.685 -0.2621 -0.2382 -0.1620
  499MOL0     C68734  12.076   4.074   5.727  0.4066 -0.4351 -0.7337
  499MOL0     C68735  12.130   4.103   5.863 -0.8204 -0.1946 -0.4506
  499MOL0     C68736  12.238   4.008   5.900  0.7204 -0.1631  0.2840
  499MOL0     C68737  12.273   4.022   6.053  0.8420  0.0034 -0.0275
  499MOL0     C68738  12.402   3.943   6.072 -0.3989  0.5957  0.0543
  499MOL0     C68739  12.439   3.934   6.224 -0.2724 -0.1622 -0.5422
  499MOL0     C68740  12.514   4.055   6.267 -0.0678 -0.0470 -0.2444
  499MOL0     N68741  12.630   4.082   6.186  0.1046 -0.7581 -0.5976
  499MOL0     C68742  12.732   4.003   6.140 -0.4531 -0.1977 -0.0934
  499MOL0     C68743  12.827   4.085   6.091 -0.4609  0.1494 -0.1248
  499MOL0     C68744  12.965   4.047   6.037  0.1988  0.5814  0.2518
  499MOL0     C68745  13.076   4.127   6.109 -0.1252  0.1309 -0.1378
  499MOL0     C68746  13.078   4.093   6.257  0.6606  0.4249  0.5987
  499MOL0     C68747  13.194   4.162   6.320  1.1409 -0.5021 -0.2339
  499MOL0     O68748  13.329   4.108   6.295  0.1835 -0.0100  0.2315
  499MOL0     C68749  13.438   4.182   6.340 -0.1519  0.2320  0.5432
  499MOL0     C68750  13.563   4.146   6.295  0.1904  0.2222  0.0344
  499MOL0     C68751  13.677   4.218   6.325  0.3311  0.4794 -0.0208
  499MOL0     C68752  13.799   4.184   6.246  0.1262 -0.1090 -0.3991
  499MOL0     C68753  13.666   4.324   6.416 -0.2992  0.0757 -0.2222
  499MOL0     C68754  13.781   4.403   6.466  0.2792  0.8419  0.1288
  499MOL0     O68755  13.765   4.536   6.488  0.5175  0.2596  0.5501
  499MOL0     C68756  13.857   4.625   6.530  0.2400 -0.0887  0.2907
  499MOL0     C68757  13.985   4.638   6.471 -0.4184 -0.5956  0.1239
  499MOL0     C68758  14.078   4.732   6.523  0.9172  0.3753  0.6237
  499MOL0     C68759  14.045   4.808   6.640  0.3714  0.3914  0.2473
  499MOL0     O68760  14.139   4.883   6.703 -0.5725 -0.1424  0.8639
  499MOL0     C68761  14.236   4.795   6.763  0.2908 -1.4494 -1.0421
  499MOL0     C68762  14.345   4.877   6.846  0.1795  0.3509  0.3719
  499MOL0     C68763  14.403   5.002   6.781 -0.6504  0.1962  0.2169
  499MOL0     C68764  14.514   5.063   6.878  0.0203  0.3816 -0.4325
  499MOL0     C68765  14.647   4.983   6.885  0.0675  0.2430 -0.5795
  499MOL0     C68766  14.755   5.038   6.992  0.6719 -0.1423 -0.4406
  499MOL0     C68767  14.783   5.189   6.981  0.0883 -0.0829 -0.1060
  499MOL0     C68768  14.873   5.226   6.859  0.3239 -0.3112  0.5099
  499MOL0    Cl68769  15.031   5.168   6.907 -0.4078  0.6230  0.0276
  499MOL0     C68770  13.918   4.796   6.695  0.2299 -0.3296  0.0193
  499MOL0     C68771  13.819   4.712   6.633 -0.0831 -0.3758 -0.6005
  499MOL0     O68772  13.887   4.342   6.471  0.3277 -0.7463  0.0880
  499MOL0     C68773  13.541   4.368   6.464  0.2723  0.2871 -0.3260
  499MOL0     C68774  13.426   4.296   6.425  0.5471 -0.1511  0.3961
  499MOL0     N68775  12.783   4.210   6.098  0.4305 -0.8341  0.4810
  499MOL0     N68776  12.663   4.211   6.150  0.4015  0.2662  0.3125
  499MOL0     C68777  11.637   4.192   5.820 -1.2040 -0.0390  0.0705
  499MOL0     C68778  11.519   4.269   5.829 -0.2092 -0.1767 -0.4583
  499MOL0     C68779  11.181   4.546   5.748  0.0494  0.1542  1.1581
  499MOL0     C68780  11.187   4.644   5.847  0.1555 -0.0005  0.8594
  499MOL0     C68781  11.089   4.741   5.860  0.5618  0.0951  0.6728
  499MOL0     C68782  10.964   4.737   5.794 -0.2408 -0.7247 -0.1166
  499MOL0     O68783  10.872   4.835   5.823 -1.1242 -0.3333  0.0274
  499MOL0     C68784  10.746   4.824   5.765  0.1779  0.4906 -0.4561
  499MOL0     C68785  10.633   4.803   5.862  0.8525  1.1313 -0.0098
  499MOL0     C68786  10.644   4.651   5.918  1.0882  0.1682  0.3851
  499MOL0     C68787  10.625   4.530   5.827 -0.0125  0.0860  0.1881
  499MOL0     C68788  10.484   4.517   5.778  0.9953 -0.4785  0.1371
  499MOL0     C68789  10.368   4.501   5.744  0.8922  0.3226 -0.4373
  499MOL0     C68790  10.963   4.640   5.692 -0.0801  0.6234 -1.1664
  499MOL0     C68791  11.065   4.544   5.674 -0.6880  0.4142 -0.3339
  499MOL0     C68792  11.036   4.447   5.570  0.5228 -0.5916 -0.0368
  499MOL0     H68793  11.622   4.553   5.672 -0.8738 -0.2055 -1.4304
  499MOL0     H68794  11.837   4.426   5.672  0.1056  0.6157 -0.7071
  499MOL0     H68795  12.009   4.288   5.687  1.2798 -0.6517  0.0842
  499MOL0     H68796  11.954   4.147   5.585  3.9279  0.2655 -1.5933
  499MOL0     H68797  12.026   3.977   5.726  0.2704 -0.3626 -1.8301
  499MOL0     H68798  12.154   4.061   5.651 -0.4962  0.0140 -1.7662
  499MOL0     H68799  12.172   4.204   5.866 -0.8672 -0.1982  0.9441
  499MOL0     H68800  12.042   4.099   5.928  1.4859  0.2243  2.9494
  499MOL0     H68801  12.211   3.905   5.878 -2.6354  0.3125  1.5123
  499MOL0     H68802  12.330   4.029   5.845 -0.0979 -0.0556 -1.0841
  499MOL0     H68803  12.193   3.974   6.112  0.4774  0.9051  0.2263
  499MOL0     H68804  12.275   4.126   6.085 -0.1389 -0.0850  0.3720
  499MOL0     H68805  12.383   3.845   6.027  0.0012  0.9938 -1.0035
  499MOL0     H68806  12.476   3.993   6.010 -1.3682  0.0043 -1.6615
  499MOL0     H68807  12.507   3.850   6.241 -0.5446 -0.2645  0.0569
  499MOL0     H68808  12.354   3.912   6.290 -0.4528 -0.5746 -0.9095
  499MOL0     H68809  12.455   4.147   6.259 -1.3720 -0.9289 -1.1814
  499MOL0     H68810  12.540   4.048   6.373  1.6765  0.5126 -0.6046
  499MOL0     H68811  12.739   3.895   6.153  1.0377 -0.0541  0.5567
  499MOL0     H68812  12.968   4.072   5.930  0.8773  1.1816  0.3988
  499MOL0     H68813  13.004   3.945   6.035 -0.7689  0.2030  0.1313
  499MOL0     H68814  13.167   4.104   6.052  0.6430  0.4057  0.9521
  499MOL0     H68815  13.054   4.234   6.098  1.3041  0.3662 -1.0661
  499MOL0     H68816  12.988   4.132   6.304  0.2871  0.5814 -0.2342
  499MOL0     H68817  13.088   3.985   6.273  1.6219  0.5158  0.6684
  499MOL0     H68818  13.203   4.265   6.283  3.2834 -0.1707  1.0302
  499MOL0     H68819  13.174   4.179   6.426  1.1566  3.0211 -0.6437
  499MOL0     H68820  13.569   4.075   6.213 -0.2612  3.5478 -3.1323
  499MOL0     H68821  13.768   4.173   6.142 -2.2716  3.2991 -0.2053
  499MOL0     H68822  13.843   4.092   6.286 -2.8811 -1.6607 -0.3880
  499MOL0     H68823  13.876   4.262   6.237  1.4349 -1.2517  0.4921
  499MOL0     H68824  14.019   4.568   6.396  2.0129 -3.0749  3.2443
  499MOL0     H68825  14.175   4.734   6.474  2.3915 -4.2278  2.7617
  499MOL0     H68826  14.180   4.724   6.824 -0.8184 -0.1996 -0.5650
  499MOL0     H68827  14.291   4.736   6.689  1.8772  0.7071 -1.6694
  499MOL0     H68828  14.294   4.897   6.940  1.8268 -0.7369  1.5573
  499MOL0     H68829  14.428   4.810   6.873  0.6366 -0.5047 -2.7568
  499MOL0     H68830  14.323   5.075   6.772  0.4895  1.5329  0.5831
  499MOL0     H68831  14.439   4.984   6.679 -1.3046  0.3721 -0.0450
  499MOL0     H68832  14.471   5.062   6.979  1.1446  0.7499  0.0684
  499MOL0     H68833  14.537   5.165   6.845  0.5717  1.0130  1.7380
  499MOL0     H68834  14.625   4.881   6.918 -0.8096  0.8975  0.9886
  499MOL0     H68835  14.683   4.959   6.785  1.8050 -0.5529  0.1845
  499MOL0     H68836  14.844   4.974   6.990  1.3875  0.7558 -3.6277
  499MOL0     H68837  14.705   5.027   7.089 -0.2283  2.9519 -0.4364
  499MOL0     H68838  14.840   5.217   7.070 -0.6369 -2.2687  1.1373
  499MOL0     H68839  14.689   5.242   6.963 -1.7894 -2.5825  1.6328
  499MOL0     H68840  14.874   5.334   6.845 -0.8108 -0.2096  1.1241
  499MOL0     H68841  14.838   5.184   6.764 -0.3529  2.2986 -0.4726
  499MOL0     H68842  13.894   4.847   6.787 -1.1522 -0.9064  0.0083
  499MOL0     H68843  13.717   4.711   6.671  0.8856  0.1720  2.2305
  499MOL0     H68844  13.533   4.456   6.526  4.4703 -0.4508  1.5487
  499MOL0     H68845  13.330   4.333   6.461  1.2451  0.2714  1.8952
  499MOL0     H68846  11.639   4.089   5.854  3.6322 -1.0605 -2.3516
  499MOL0     H68847  11.432   4.219   5.870  0.4006 -1.6993 -0.9467
  499MOL0     H68848  11.266   4.637   5.921 -0.4804 -1.1143  1.4619
  499MOL0     H68849  11.106   4.827   5.924  1.6537 -0.2345  0.8485
  499MOL0     H68850  10.736   4.926   5.727  2.6940  1.3329  0.9519
  499MOL0     H68851  10.741   4.762   5.675  0.4888  0.0181 -0.1496
  499MOL0     H68852  10.533   4.804   5.820  0.7875 -0.4376  0.0457
  499MOL0     H68853  10.649   4.870   5.946  2.9292  0.4333  0.2233
  499MOL0     H68854  10.740   4.650   5.970  2.1220  3.8676 -1.1191
  499MOL0     H68855  10.572   4.643   6.000  1.7021 -0.8332  0.8361
  499MOL0     H68856  10.674   4.439   5.862 -1.0445 -0.4482  0.2898
  499MOL0     H68857  10.680   4.555   5.736  0.8897  0.8093  0.9065
  499MOL0     H68858  10.264   4.488   5.723  0.7338 -0.3847  0.7199
  499MOL0     H68859  10.881   4.640   5.622 -1.0492 -2.0328 -0.1516
  499MOL0     H68860  11.107   4.364   5.565  1.0743 -0.2412  1.2420
  499MOL0     H68861  10.940   4.405   5.600 -0.2799  0.5328 -0.9506
  499MOL0     H68862  11.029   4.482   5.467  0.5895  1.5028  0.6207
  500MOL0     O68863   3.181   3.837   3.475  0.2659 -0.5589 -0.6921
  500MOL0     C68864   3.096   3.904   3.529 -0.3403  0.2219  0.2992
  500MOL0     O68865   3.115   4.008   3.618  0.2929  0.0717  0.3268
  500MOL0     C68866   3.225   4.091   3.610  0.3136  0.3802 -0.6538
  500MOL0     C68867   3.337   4.084   3.523  0.1428  0.2510  0.2777
  500MOL0     C68868   3.436   4.185   3.524  0.2101  0.0394 -0.1151
  500MOL0     C68869   3.428   4.296   3.608 -0.2515 -0.7428 -0.4145
  500MOL0     O68870   3.529   4.390   3.611 -0.1029 -0.1696 -0.2531
  500MOL0     C68871   3.538   4.486   3.718 -1.2500  0.1039 -0.0801
  500MOL0     C68872   3.661   4.563   3.706 -0.5981 -0.6073 -0.4196
  500MOL0     C68873   3.785   4.489   3.730 -0.1652  0.6164 -0.5528
  500MOL0     C68874   3.897   4.583   3.788 -0.2652  0.0864 -0.5508
  500MOL0     C68875   4.025   4.502   3.807 -0.5145  0.5305  0.4571
  500MOL0     C68876   4.144   4.580   3.859  0.0011  0.3582 -0.2898
  500MOL0     C68877   4.283   4.501   3.869  0.2677  0.1552 -0.8120
  500MOL0     C68878   4.271   4.375   3.958 -0.5230  0.1495  0.2637
  500MOL0     N68879   4.402   4.312   3.979 -0.9897 -0.7030 -0.7765
  500MOL0     C68880   4.427   4.176   3.996 -0.5038 -0.0047 -0.3837
  500MOL0     C68881   4.562   4.175   4.025 -0.1454  0.3110  0.5008
  500MOL0     C68882   4.636   4.056   4.091  0.0695 -0.0970 -0.2601
  500MOL0     C68883   4.766   4.011   4.021 -0.5471  0.8350 -0.1961
  500MOL0     C68884   4.877   4.075   4.099 -0.4219 -0.0145 -0.3151
  500MOL0     C68885   5.015   4.043   4.037 -0.7193  0.1461 -0.4080
  500MOL0     O68886   5.053   3.909   4.050 -0.7732  0.0522 -0.8810
  500MOL0     C68887   5.183   3.878   4.067 -0.2066  0.3866 -0.1062
  500MOL0     C68888   5.205   3.735   4.091 -0.5139  0.2404 -0.4663
  500MOL0     C68889   5.334   3.684   4.128  0.0360  0.3303 -0.0963
  500MOL0     C68890   5.349   3.540   4.147  0.5168 -0.1163 -0.3299
  500MOL0     C68891   5.445   3.775   4.140  0.1022  0.1173 -0.1562
  500MOL0     C68892   5.590   3.744   4.178 -0.9662  0.1834 -0.4691
  500MOL0     O68893   5.618   3.621   4.219 -1.0597  0.4215  0.5467
  500MOL0     C68894   5.746   3.575   4.230 -0.7763 -0.6026  0.0874
  500MOL0     C68895   5.769   3.480   4.330 -0.5177  0.6728 -1.4808
  500MOL0     C68896   5.898   3.429   4.350 -0.0218 -0.1808  0.4621
  500MOL0     C68897   6.000   3.463   4.261  0.2718 -0.5753  0.1005
  500MOL0     O68898   6.128   3.416   4.271  0.0472 -0.2927  0.5717
  500MOL0     C68899   6.205   3.493   4.373 -0.9422 -0.0482 -0.1092
  500MOL0     C68900   6.262   3.392   4.483 -0.4686  0.0264 -0.0210
  500MOL0     C68901   6.358   3.450   4.587 -0.2754 -0.2808  0.0535
  500MOL0     C68902   6.506   3.460   4.536  0.0054 -0.3473  0.2982
  500MOL0     C68903   6.583   3.328   4.574 -0.0670  0.1166 -0.0924
  500MOL0     C68904   6.712   3.297   4.487  0.2651  0.1508  0.2010
  500MOL0     C68905   6.765   3.157   4.523  0.2260  1.2021 -0.2999
  500MOL0     C68906   6.883   3.118   4.442  0.7261  0.5225  0.1021
  500MOL0    Cl68907   6.936   2.948   4.480  0.3045  0.4345 -0.0785
  500MOL0     C68908   5.972   3.548   4.158 -0.2596 -0.2386  0.3334
  500MOL0     C68909   5.845   3.602   4.138  0.3255  0.0892 -1.0803
  500MOL0     O68910   5.677   3.840   4.167  0.8753 -0.0456  0.2493
  500MOL0     C68911   5.415   3.909   4.108 -0.6121 -0.9822 -0.3487
  500MOL0     C68912   5.292   3.959   4.055 -0.2269 -0.4899 -0.3444
  500MOL0     N68913   4.619   4.297   4.004  0.9598 -0.2589 -0.7151
  500MOL0     N68914   4.524   4.382   3.983  0.2262  0.2323  0.3369
  500MOL0     C68915   3.319   4.299   3.694 -0.7295  0.0414 -0.0589
  500MOL0     C68916   3.221   4.200   3.696  0.5976 -0.6766 -0.2164
  500MOL0     C68917   2.951   3.858   3.519 -0.0216 -0.9751  0.4229
  500MOL0     C68918   2.856   3.931   3.592 -0.6068 -0.5951 -0.2816
  500MOL0     C68919   2.727   3.919   3.570  0.0110 -1.0881  0.0914
  500MOL0     C68920   2.674   3.820   3.497  1.1473  1.4551  0.1000
  500MOL0     O68921   2.537   3.828   3.494  0.2808 -0.4775 -0.3073
  500MOL0     C68922   2.471   3.731   3.407  0.2723  0.2061 -0.9612
  500MOL0     C68923   2.450   3.783   3.269 -0.1904 -0.0436  0.4462
  500MOL0     C68924   2.320   3.861   3.269 -0.5271 -0.0295 -0.5581
  500MOL0     C68925   2.278   3.928   3.137 -0.0290  0.4052  0.2557
  500MOL0     C68926   2.190   4.043   3.154 -0.0296 -0.2885  0.3141
  500MOL0     C68927   2.123   4.141   3.157  0.4605  1.1516  0.6666
  500MOL0     C68928   2.760   3.726   3.431 -0.0730  0.1598 -0.1720
  500MOL0     C68929   2.902   3.745   3.436  0.1558  0.9050 -0.7624
  500MOL0     C68930   2.994   3.662   3.351  0.1644 -1.1791  0.4906
  500MOL0     H68931   3.343   4.000   3.455 -0.2651 -0.7149  1.4117
  500MOL0     H68932   3.515   4.184   3.449 -0.5319  1.6692 -0.9720
  500MOL0     H68933   3.542   4.425   3.809 -0.5767  0.0259 -0.1557
  500MOL0     H68934   3.450   4.551   3.716 -0.0361  1.8024 -1.3079
  500MOL0     H68935   3.655   4.597   3.602 -1.0648 -0.6386 -0.4076
  500MOL0     H68936   3.656   4.651   3.772  0.8328  0.7941 -2.0729
  500MOL0     H68937   3.763   4.409   3.802 -0.6816 -0.4171 -1.8112
  500MOL0     H68938   3.827   4.451   3.636 -0.2370  2.1502 -1.2307
  500MOL0     H68939   3.910   4.669   3.722  2.2696  0.2978  0.1496
  500MOL0     H68940   3.860   4.620   3.884  1.2538 -1.4006  0.6731
  500MOL0     H68941   4.053   4.451   3.715  1.8812  0.0680  1.3651
  500MOL0     H68942   4.003   4.420   3.877  0.6965 -1.5358 -1.4673
  500MOL0     H68943   4.157   4.676   3.809  0.5563  1.7010  2.2172
  500MOL0     H68944   4.121   4.610   3.962  0.8531 -0.7465  0.2307
  500MOL0     H68945   4.345   4.578   3.914 -1.7360  2.0638 -1.1221
  500MOL0     H68946   4.321   4.474   3.770  1.9375  0.5674 -0.3032
  500MOL0     H68947   4.212   4.401   4.046 -3.8805 -0.1697 -1.7370
  500MOL0     H68948   4.208   4.296   3.916 -3.1911  0.0738  3.9583
  500MOL0     H68949   4.359   4.092   4.006  0.0296 -0.2264  1.8218
  500MOL0     H68950   4.571   3.968   4.088  0.0990 -0.0924 -1.3453
  500MOL0     H68951   4.644   4.085   4.196 -1.8419  1.5510 -0.5260
  500MOL0     H68952   4.783   3.903   4.030  3.6411  1.4787  1.6961
  500MOL0     H68953   4.764   4.046   3.917  0.4735  0.1656 -0.4533
  500MOL0     H68954   4.861   4.181   4.077  1.9984  0.3610 -0.5407
  500MOL0     H68955   4.894   4.052   4.204 -1.4685  1.9957  0.3300
  500MOL0     H68956   5.019   4.071   3.932  1.2886  0.1401 -0.3705
  500MOL0     H68957   5.084   4.108   4.093  2.5213 -4.6374  1.9190
  500MOL0     H68958   5.126   3.664   4.069  0.0625  0.5979 -4.3601
  500MOL0     H68959   5.442   3.497   4.109  1.2237 -0.2244  1.4366
  500MOL0     H68960   5.273   3.481   4.094  1.6227 -2.4200  0.5275
  500MOL0     H68961   5.337   3.504   4.249 -0.3708 -0.3797 -0.5166
  500MOL0     H68962   5.694   3.449   4.402  1.0516  0.0996 -0.0440
  500MOL0     H68963   5.923   3.356   4.426  1.8068  0.3228  0.3840
  500MOL0     H68964   6.291   3.537   4.322 -1.3901  3.2580  1.7007
  500MOL0     H68965   6.146   3.577   4.412  1.4086  2.2687 -1.1942
  500MOL0     H68966   6.182   3.337   4.533 -0.7916  0.4582 -0.0527
  500MOL0     H68967   6.325   3.316   4.436  1.8148  1.2933  0.8420
  500MOL0     H68968   6.359   3.387   4.677 -1.4871 -1.6165 -0.8260
  500MOL0     H68969   6.335   3.553   4.615  1.5127  0.0018  0.6528
  500MOL0     H68970   6.547   3.552   4.577 -2.9296  0.9560  0.5922
  500MOL0     H68971   6.514   3.469   4.427 -1.0163 -1.2264  0.1223
  500MOL0     H68972   6.606   3.328   4.681  0.9275  0.3468 -0.3055
  500MOL0     H68973   6.513   3.244   4.562  1.8790 -1.6559  0.3069
  500MOL0     H68974   6.788   3.372   4.509 -0.8750  1.7686 -1.0958
  500MOL0     H68975   6.689   3.313   4.381 -0.9565 -0.5804  0.3341
  500MOL0     H68976   6.684   3.084   4.512  1.2117 -0.1765  1.1518
  500MOL0     H68977   6.794   3.146   4.628  0.1520  0.2300 -0.3768
  500MOL0     H68978   6.962   3.193   4.452 -0.7274  2.0399  0.5919
  500MOL0     H68979   6.855   3.111   4.336  0.5665 -1.6840  0.2519
  500MOL0     H68980   6.049   3.581   4.088 -0.1537  0.6786  0.8594
  500MOL0     H68981   5.826   3.666   4.052  0.7784 -0.8013 -1.8703
  500MOL0     H68982   5.502   3.975   4.105 -0.1134 -1.6515 -0.8926
  500MOL0     H68983   5.284   4.067   4.043 -1.0242 -0.6272 -1.1143
  500MOL0     H68984   3.316   4.384   3.761  0.9727 -1.2098  1.6764
  500MOL0     H68985   3.136   4.218   3.761  2.3673  0.2840  1.9905
  500MOL0     H68986   2.882   4.024   3.642  0.6719 -1.4845  0.7690
  500MOL0     H68987   2.655   3.988   3.614  1.5615  0.4133  0.3719
  500MOL0     H68988   2.510   3.628   3.408 -1.5301 -0.5588  1.9027
  500MOL0     H68989   2.371   3.714   3.449  0.5424 -2.3056 -1.1771
  500MOL0     H68990   2.465   3.719   3.181  2.7901  2.3078 -0.9303
  500MOL0     H68991   2.530   3.855   3.252 -0.9723  0.7716  0.1344
  500MOL0     H68992   2.239   3.794   3.301  0.0033  0.6960  2.5931
  500MOL0     H68993   2.324   3.942   3.343 -2.0665  1.8199 -2.3705
  500MOL0     H68994   2.222   3.851   3.082 -0.9899 -0.6029  2.5166
  500MOL0     H68995   2.369   3.957   3.084  1.6308 -1.8784  1.6733
  500MOL0     H68996   2.053   4.221   3.145  0.6039  1.1863  0.0302
  500MOL0     H68997   2.722   3.650   3.364  2.5427 -3.1955  1.8602
  500MOL0     H68998   2.935   3.579   3.309 -0.4779 -1.8081  2.5097
  500MOL0     H68999   3.025   3.722   3.265 -3.3277 -1.3557 -1.0529
  500MOL0     H69000   3.077   3.621   3.410  1.3953  0.0782 -0.3106
  501MOL0     O69001   0.409  10.765   8.340 -0.0225  0.5579 -0.6826
  501MOL0     C69002   0.371  10.877   8.296  0.1886  0.2150 -0.5325
  501MOL0     O69003   0.454  10.966   8.233  0.7175  0.2297  0.2455
  501MOL0     C69004   0.581  10.923   8.220 -0.5474 -0.3714 -0.1843
  501MOL0     C69005   0.683  11.007   8.279 -0.6030 -0.9125 -0.4140
  501MOL0     C69006   0.822  10.982   8.246 -0.2618 -0.0689  0.1261
  501MOL0     C69007   0.856  10.874   8.171 -0.3831  0.0676  0.5724
  501MOL0     O69008   0.995  10.856   8.161  0.2953  0.9308 -0.0715
  501MOL0     C69009   1.037  10.802   8.034 -0.9490 -0.7058  0.5005
  501MOL0     C69010   1.017  10.899   7.920  0.6719 -0.2431 -0.1826
  501MOL0     C69011   1.094  11.024   7.961  0.3412  1.0892 -0.9444
  501MOL0     C69012   1.247  11.011   7.949  0.2018 -0.7268 -0.4630
  501MOL0     C69013   1.324  11.147   7.952  0.8627  0.4832 -0.2003
  501MOL0     C69014   1.478  11.131   7.944  0.4198  0.6990 -0.0844
  501MOL0     C69015   1.549  11.264   7.931 -0.0670 -0.8235  0.6004
  501MOL0     C69016   1.684  11.259   8.006  0.7030 -0.4453  0.0535
  501MOL0     N69017   1.754  11.376   7.963 -0.2570 -0.0084 -0.1130
  501MOL0     C69018   1.852  11.373   7.869 -0.9256  0.1223 -0.3559
  501MOL0     C69019   1.925  11.488   7.884 -0.4242  0.0903 -0.8469
  501MOL0     C69020   2.041  11.524   7.807  0.7470 -1.1714  0.2296
  501MOL0     C69021   2.167  11.455   7.836  0.2338  0.0551 -0.4186
  501MOL0     C69022   2.203  11.351   7.729  0.3210 -0.0119  0.2822
  501MOL0     C69023   2.358  11.329   7.704 -0.0430  0.3202 -0.0660
  501MOL0     O69024   2.424  11.445   7.653  0.2244 -0.2834 -0.6967
  501MOL0     C69025   2.532  11.423   7.578  0.3968 -0.2396 -0.0214
  501MOL0     C69026   2.553  11.515   7.481 -0.2654  0.2199 -0.3768
  501MOL0     C69027   2.662  11.524   7.394  0.1313 -0.2738 -0.0987
  501MOL0     C69028   2.664  11.641   7.290 -0.6439  0.4285  0.2382
  501MOL0     C69029   2.758  11.425   7.407 -0.3718  0.3529 -0.1410
  501MOL0     C69030   2.884  11.420   7.331  0.0344 -0.2123 -0.2089
  501MOL0     O69031   2.980  11.345   7.399  0.0750 -0.0239  0.8799
  501MOL0     C69032   3.099  11.325   7.322  0.1523  0.8409  0.1461
  501MOL0     C69033   3.212  11.388   7.366 -1.0542  0.2426 -0.0339
  501MOL0     C69034   3.335  11.386   7.291 -0.0111 -0.0934 -0.6137
  501MOL0     C69035   3.345  11.308   7.177 -0.5024  0.1595  0.5560
  501MOL0     O69036   3.470  11.297   7.109  0.0558  0.3428  0.6894
  501MOL0     C69037   3.478  11.344   6.969  0.3937  0.9728  0.3333
  501MOL0     C69038   3.594  11.269   6.919 -0.9463 -0.4826  0.0109
  501MOL0     C69039   3.566  11.124   6.887  0.4335  0.2534 -0.6282
  501MOL0     C69040   3.684  11.039   6.928 -0.3535  0.2721 -0.0316
  501MOL0     C69041   3.695  10.995   7.071 -0.0792 -0.0014 -0.0228
  501MOL0     C69042   3.798  10.883   7.088  0.1218 -0.6647  0.1887
  501MOL0     C69043   3.946  10.936   7.076  0.5494 -0.1743 -0.1442
  501MOL0     C69044   4.052  10.830   7.066  0.7888  0.1545 -0.1096
  501MOL0    Cl69045   4.160  10.855   7.203  0.0831  0.2890  0.1036
  501MOL0     C69046   3.234  11.229   7.134  0.6641  0.2173 -0.4083
  501MOL0     C69047   3.111  11.243   7.205  0.1056  0.5153 -0.2981
  501MOL0     O69048   2.902  11.484   7.228  0.1832 -0.5294  0.0444
  501MOL0     C69049   2.731  11.318   7.496 -0.3458 -0.5047 -0.2246
  501MOL0     C69050   2.624  11.315   7.583 -0.0572 -0.2420 -0.2973
  501MOL0     N69051   1.855  11.559   7.988  0.0839 -0.2529  0.3081
  501MOL0     N69052   1.753  11.494   8.035 -1.0167 -0.6510  0.0524
  501MOL0     C69053   0.759  10.796   8.113 -0.4174  0.1792 -0.2851
  501MOL0     C69054   0.622  10.822   8.136  0.4313  0.0827 -0.2686
  501MOL0     C69055   0.225  10.926   8.309 -0.3858  0.1906  0.4416
  501MOL0     C69056   0.187  11.032   8.232 -0.6007 -0.1944 -0.0246
  501MOL0     C69057   0.060  11.089   8.231  0.4055  0.3968 -0.3494
  501MOL0     C69058  -0.036  11.040   8.318 -0.4389  1.3094 -0.2018
  501MOL0     O69059  -0.158  11.102   8.309  0.1543 -0.1536  0.2466
  501MOL0     C69060  -0.249  11.102   8.426  0.0809 -0.3836  0.5824
  501MOL0     C69061  -0.380  11.045   8.383 -0.4441 -0.2130 -0.8311
  501MOL0     C69062  -0.492  11.094   8.481 -0.2143  0.4927  0.3842
  501MOL0     C69063  -0.624  11.072   8.418  0.4324  0.4196  0.3831
  501MOL0     C69064  -0.731  11.106   8.513 -0.0192  0.0665  0.0012
  501MOL0     C69065  -0.820  11.123   8.594 -0.3535  0.4817  0.2695
  501MOL0     C69066  -0.000  10.936   8.408 -0.4274 -0.2834 -0.6284
  501MOL0     C69067   0.133  10.881   8.405  0.0444  0.1884  0.0996
  501MOL0     C69068   0.165  10.758   8.488 -0.0861 -0.7830 -0.5259
  501MOL0     H69069   0.645  11.091   8.337  0.5281 -0.3366 -0.4701
  501MOL0     H69070   0.897  11.046   8.291 -0.8375  1.2563 -0.7487
  501MOL0     H69071   0.993  10.704   8.015 -0.4189 -0.7318 -0.6969
  501MOL0     H69072   1.144  10.780   8.042 -0.6179  1.2406  2.7481
  501MOL0     H69073   1.054  10.843   7.834  3.7785 -3.2445  2.7618
  501MOL0     H69074   0.910  10.917   7.906 -0.7052 -2.6103  4.9275
  501MOL0     H69075   1.052  11.093   7.888 -3.4843 -0.1124 -0.0621
  501MOL0     H69076   1.068  11.061   8.061 -0.3688  0.4574 -0.8924
  501MOL0     H69077   1.289  10.943   8.025  0.6784 -1.2834 -1.2128
  501MOL0     H69078   1.274  10.971   7.851  0.0511 -3.8782  0.6445
  501MOL0     H69079   1.298  11.191   8.049  2.1787  1.8411 -0.4212
  501MOL0     H69080   1.282  11.207   7.871 -2.1889 -0.5827  0.4652
  501MOL0     H69081   1.510  11.087   8.039 -0.5638  0.3517  0.1010
  501MOL0     H69082   1.498  11.066   7.858  1.2692  0.6407  0.1496
  501MOL0     H69083   1.494  11.347   7.976  1.1611  2.0434 -2.7606
  501MOL0     H69084   1.562  11.290   7.826 -0.5085  1.4456  1.0687
  501MOL0     H69085   1.675  11.262   8.115  0.8233  0.3295  0.0452
  501MOL0     H69086   1.730  11.165   7.973  2.6470  0.2066  0.7897
  501MOL0     H69087   1.863  11.282   7.810 -0.0497  0.3538 -0.5606
  501MOL0     H69088   2.056  11.627   7.840  1.7041 -1.0133 -0.6548
  501MOL0     H69089   2.021  11.530   7.700 -1.0369  1.7294  0.6108
  501MOL0     H69090   2.248  11.528   7.838  2.1891 -1.9903  0.4042
  501MOL0     H69091   2.160  11.413   7.937 -1.4421  0.1404 -0.4787
  501MOL0     H69092   2.160  11.252   7.745 -1.3543  0.3394 -1.5537
  501MOL0     H69093   2.170  11.385   7.630 -0.1180 -3.7668 -1.0236
  501MOL0     H69094   2.407  11.298   7.797  0.8843 -1.7424 -1.1841
  501MOL0     H69095   2.373  11.241   7.641 -1.6538  0.2453 -0.3832
  501MOL0     H69096   2.483  11.597   7.467 -0.7710  0.0164  0.8248
  501MOL0     H69097   2.749  11.705   7.314  3.1336 -4.3783  1.3271
  501MOL0     H69098   2.571  11.699   7.292 -0.1465  1.2166  1.3322
  501MOL0     H69099   2.684  11.601   7.190  0.3041 -0.0371  0.5997
  501MOL0     H69100   3.207  11.448   7.456 -1.3192  1.3219 -0.7504
  501MOL0     H69101   3.414  11.447   7.333 -1.3472 -0.1884  2.3168
  501MOL0     H69102   3.387  11.312   6.918  0.3973  2.2345 -0.5080
  501MOL0     H69103   3.496  11.451   6.957 -0.3275  1.7796  4.7160
  501MOL0     H69104   3.613  11.312   6.820 -0.2465  1.2259  0.8523
  501MOL0     H69105   3.684  11.277   6.980 -0.1587  0.8166 -1.2649
  501MOL0     H69106   3.549  11.104   6.781  0.7164 -1.9286 -0.3211
  501MOL0     H69107   3.474  11.088   6.936  0.5470  0.8732  0.0635
  501MOL0     H69108   3.777  11.090   6.901 -0.4264  1.7726  2.2880
  501MOL0     H69109   3.682  10.947   6.869 -1.3983 -1.1807  2.1239
  501MOL0     H69110   3.725  11.080   7.133 -0.0869 -0.4371  0.5951
  501MOL0     H69111   3.592  10.965   7.094 -1.3855  2.5966 -1.9940
  501MOL0     H69112   3.771  10.808   7.013 -1.2406 -1.0325  1.0097
  501MOL0     H69113   3.790  10.837   7.187  2.8165  0.3451  0.9744
  501MOL0     H69114   3.958  11.013   7.152  2.8857 -1.3193  0.7481
  501MOL0     H69115   3.943  10.974   6.974 -0.8395 -3.0258 -1.2926
  501MOL0     H69116   4.110  10.836   6.973  0.6961 -0.0145 -0.1796
  501MOL0     H69117   3.992  10.738   7.065 -4.6719  3.2618  1.1076
  501MOL0     H69118   3.234  11.159   7.050 -0.7908  0.2465 -0.4521
  501MOL0     H69119   3.020  11.202   7.162  0.8539 -2.1663  0.4872
  501MOL0     H69120   2.792  11.228   7.490  1.6871  0.9230 -4.6423
  501MOL0     H69121   2.617  11.237   7.658  2.2594  0.1042  0.3281
  501MOL0     H69122   0.778  10.710   8.050 -1.0469 -0.4189  0.3181
  501MOL0     H69123   0.539  10.770   8.088 -0.6896  1.6923 -0.1423
  501MOL0     H69124   0.247  11.093   8.165 -1.7318  1.7165  0.6095
  501MOL0     H69125   0.030  11.164   8.159  0.5488 -1.8618 -2.9746
  501MOL0     H69126  -0.203  11.055   8.514  0.4023  0.1734  0.7180
  501MOL0     H69127  -0.271  11.207   8.447 -1.5049 -0.2532 -1.5033
  501MOL0     H69128  -0.374  10.936   8.386 -1.8504 -0.2894  0.5813
  501MOL0     H69129  -0.411  11.083   8.285 -1.7746 -2.6994 -1.4732
  501MOL0     H69130  -0.483  11.026   8.566 -0.6843  0.7046  0.6057
  501MOL0     H69131  -0.480  11.202   8.495 -1.7289  0.8391 -0.7151
  501MOL0     H69132  -0.622  10.966   8.389 -1.6124  0.3960  0.2064
  501MOL0     H69133  -0.648  11.140   8.336 -3.0242  2.4091  2.8082
  501MOL0     H69134  -0.900  11.143   8.662  0.1427  0.1981  0.9444
  501MOL0     H69135  -0.078  10.893   8.471  1.4185 -0.8816  1.3937
  501MOL0     H69136   0.257  10.769   8.547 -0.6266  2.0252 -0.0511
  501MOL0     H69137   0.085  10.735   8.559  1.1024  3.2074  2.5355
  501MOL0     H69138   0.184  10.668   8.429  0.6668 -0.8921 -0.1255
  502MOL0     O69139   2.118   4.391   9.088 -0.2399  0.2365  0.3888
  502MOL0     C69140   2.041   4.479   9.061 -0.1532  0.1186  0.3298
  502MOL0     O69141   2.015   4.582   9.141  0.6498 -0.1717 -0.6452
  502MOL0     C69142   2.088   4.590   9.258 -0.1932  1.0363 -0.5372
  502MOL0     C69143   2.200   4.677   9.262 -0.2970  0.4331  0.3909
  502MOL0     C69144   2.274   4.688   9.380  0.4626 -0.2499  1.1421
  502MOL0     C69145   2.237   4.625   9.497  0.4045 -0.2005  0.0839
  502MOL0     O69146   2.321   4.631   9.610  0.4501  0.2579  0.7239
  502MOL0     C69147   2.429   4.722   9.633  0.0834  0.7760 -0.3069
  502MOL0     C69148   2.568   4.685   9.567  0.6113 -0.0687  0.6887
  502MOL0     C69149   2.682   4.787   9.580 -0.8591 -0.1070  1.2055
  502MOL0     C69150   2.737   4.787   9.721 -0.2707 -0.2739  0.6540
  502MOL0     C69151   2.829   4.908   9.752 -0.7379  0.2354  0.4323
  502MOL0     C69152   2.928   4.940   9.645  0.1305  0.5801  0.2157
  502MOL0     C69153   3.026   5.054   9.689  0.5238  0.6898  1.3499
  502MOL0     C69154   3.110   5.092   9.569  0.9749 -0.0352  0.4144
  502MOL0     N69155   3.192   5.212   9.591 -0.2740  0.4072  0.9859
  502MOL0     C69156   3.133   5.331   9.577 -0.4038 -0.3526 -0.1995
  502MOL0     C69157   3.207   5.408   9.660  0.5885  0.6419 -0.1959
  502MOL0     C69158   3.169   5.549   9.695 -0.1312 -0.7007 -0.1084
  502MOL0     C69159   3.021   5.571   9.735 -0.1418  0.0465  1.0130
  502MOL0     C69160   2.984   5.513   9.871  0.1169 -0.4382 -0.8859
  502MOL0     C69161   2.966   5.368   9.879 -0.1464  0.5199 -0.1329
  502MOL0     O69162   2.910   5.350  10.009  0.0247  0.0025 -0.4404
  502MOL0     C69163   2.991   5.328  10.113 -0.5251  0.0793 -0.1880
  502MOL0     C69164   3.124   5.284  10.102  0.3539  0.1397 -0.0422
  502MOL0     C69165   3.199   5.269  10.220  0.5293 -0.0296  0.4308
  502MOL0     C69166   3.346   5.261  10.204  0.2167  0.4143 -0.0017
  502MOL0     C69167   3.139   5.279  10.348  0.4857 -0.7488  0.7705
  502MOL0     C69168   3.210   5.265  10.476  0.4345  0.0116  0.9649
  502MOL0     O69169   3.135   5.313  10.588 -0.5563 -0.3638  0.1997
  502MOL0     C69170   3.204   5.386  10.683  0.2024  0.2086 -0.1299
  502MOL0     C69171   3.350   5.394  10.698 -0.0726 -0.2475 -0.0565
  502MOL0     C69172   3.392   5.473  10.803  0.5132  0.1471 -0.7114
  502MOL0     C69173   3.300   5.544  10.886  0.4972  0.2557  1.0117
  502MOL0     O69174   3.338   5.608  10.999 -0.2562 -0.1474  0.1099
  502MOL0     C69175   3.387   5.520  11.097 -0.1818  0.4019 -1.4048
  502MOL0     C69176   3.412   5.583  11.232  0.5015 -1.1465  0.1361
  502MOL0     C69177   3.527   5.672  11.215  0.0424  0.0096 -0.4591
  502MOL0     C69178   3.588   5.695  11.349  0.4350  0.3242  0.3617
  502MOL0     C69179   3.550   5.829  11.405 -0.4191 -0.0740 -0.8005
  502MOL0     C69180   3.608   5.857  11.540  0.3381  0.0057 -0.0945
  502MOL0     C69181   3.585   5.749  11.645  0.7642  0.3987 -0.0358
  502MOL0     C69182   3.606   5.795  11.791  0.0664  0.3725  0.0959
  502MOL0    Cl69183   3.493   5.936  11.830 -0.2118  0.0520 -0.1356
  502MOL0     C69184   3.163   5.523  10.870  0.0909 -0.6304  0.1750
  502MOL0     C69185   3.113   5.450  10.765 -0.5607  0.5347 -0.1907
  502MOL0     O69186   3.322   5.215  10.476  0.8538 -0.3245 -0.1321
  502MOL0     C69187   2.998   5.290  10.349 -0.1860  0.5138  0.2637
  502MOL0     C69188   2.922   5.315  10.241  0.1790  0.5743 -0.0576
  502MOL0     N69189   3.308   5.337   9.728 -0.0262  0.0183 -0.8601
  502MOL0     N69190   3.299   5.218   9.673  0.0075  0.1200 -0.3201
  502MOL0     C69191   2.128   4.538   9.490 -0.2840 -0.1724 -0.1173
  502MOL0     C69192   2.052   4.529   9.374  0.2866  0.4343 -0.3171
  502MOL0     C69193   1.963   4.467   8.938 -0.2051  0.2361  0.1102
  502MOL0     C69194   1.854   4.563   8.918 -0.3389  0.3952  0.4957
  502MOL0     C69195   1.798   4.560   8.784 -0.1385 -0.4394  0.2079
  502MOL0     C69196   1.840   4.470   8.683  0.1206  0.3105 -0.5050
  502MOL0     O69197   1.798   4.459   8.555 -0.3322  0.6796 -0.1021
  502MOL0     C69198   1.695   4.551   8.517  0.7238 -0.1510 -0.3732
  502MOL0     C69199   1.672   4.551   8.371 -0.4697 -0.7288  0.5551
  502MOL0     C69200   1.595   4.432   8.314  0.1528  0.0919  0.5641
  502MOL0     C69201   1.501   4.471   8.204  0.7602 -0.2358 -0.8538
  502MOL0     C69202   1.375   4.392   8.217  0.2376  0.4684 -0.8332
  502MOL0     C69203   1.284   4.318   8.207 -0.3089  0.3992 -0.5005
  502MOL0     C69204   1.929   4.375   8.715  0.6286  0.2404 -0.0116
  502MOL0     C69205   1.991   4.365   8.838 -0.2924 -0.1619 -0.8448
  502MOL0     C69206   2.073   4.239   8.862 -0.8993  0.4201 -0.0716
  502MOL0     H69207   2.240   4.729   9.175  1.4381  2.2343  2.1564
  502MOL0     H69208   2.354   4.762   9.373 -1.7553  2.1194 -1.0613
  502MOL0     H69209   2.448   4.729   9.740 -0.9836  1.4477 -0.1517
  502MOL0     H69210   2.401   4.823   9.602  0.6642  1.1077  0.2361
  502MOL0     H69211   2.605   4.592   9.612 -2.7405 -0.2708  3.4370
  502MOL0     H69212   2.556   4.673   9.459  2.5074 -0.5586  0.4981
  502MOL0     H69213   2.759   4.764   9.505 -2.0402 -2.4843  0.6175
  502MOL0     H69214   2.628   4.878   9.551 -0.7112 -0.5041 -0.4318
  502MOL0     H69215   2.650   4.796   9.786 -1.4850  2.1118 -1.1274
  502MOL0     H69216   2.788   4.692   9.735 -0.4303 -0.5263 -0.4009
  502MOL0     H69217   2.882   4.887   9.845  0.0674  2.0749  0.4279
  502MOL0     H69218   2.768   4.994   9.778  0.0069  1.2472 -1.0208
  502MOL0     H69219   2.983   4.859   9.595 -2.7680  0.6850 -3.5745
  502MOL0     H69220   2.874   4.982   9.561  1.9741 -0.1962 -1.4454
  502MOL0     H69221   3.094   5.028   9.771  1.6962 -0.8553 -0.0475
  502MOL0     H69222   2.961   5.134   9.725 -0.7047 -0.2498  1.3182
  502MOL0     H69223   3.164   5.006   9.528 -0.3667 -0.6229 -0.1780
  502MOL0     H69224   3.040   5.112   9.487 -0.7621  0.2910  1.9131
  502MOL0     H69225   3.053   5.366   9.513  0.7238  3.3011  0.1535
  502MOL0     H69226   3.198   5.606   9.606  2.0804 -2.1831 -0.3984
  502MOL0     H69227   3.220   5.586   9.784 -1.3656  1.1082 -0.0915
  502MOL0     H69228   3.009   5.680   9.729  1.4809  0.1911 -2.2455
  502MOL0     H69229   2.956   5.532   9.656  1.7585 -1.2636  0.0195
  502MOL0     H69230   3.067   5.540   9.937  1.7770 -0.3615 -2.9038
  502MOL0     H69231   2.888   5.558   9.899  1.1264 -0.3583  3.0309
  502MOL0     H69232   2.893   5.330   9.807 -0.8253 -0.0123  0.8154
  502MOL0     H69233   3.060   5.314   9.865 -1.5077 -2.6280  1.6349
  502MOL0     H69234   3.184   5.271  10.013  1.6275  3.0519  0.2724
  502MOL0     H69235   3.377   5.157  10.218  0.9531  0.7787  1.1667
  502MOL0     H69236   3.396   5.321  10.281  1.4492 -1.5599  0.8065
  502MOL0     H69237   3.379   5.305  10.110 -1.6188  2.8364  0.3901
  502MOL0     H69238   3.426   5.343  10.640 -1.0265  0.5613 -2.1049
  502MOL0     H69239   3.495   5.502  10.817  0.8804  0.7335 -3.8539
  502MOL0     H69240   3.309   5.447  11.120 -3.6264  4.1345  0.0310
  502MOL0     H69241   3.476   5.464  11.066  2.2387  3.3011 -0.1627
  502MOL0     H69242   3.321   5.633  11.267  0.9746 -1.4887  1.9567
  502MOL0     H69243   3.434   5.503  11.304  1.7985  1.2121  2.5415
  502MOL0     H69244   3.490   5.767  11.176 -1.6257  0.3276  1.6738
  502MOL0     H69245   3.607   5.634  11.151  2.0612  1.4434  1.0841
  502MOL0     H69246   3.697   5.692  11.343  0.6852  0.5228  3.2245
  502MOL0     H69247   3.570   5.614  11.421  0.1424 -1.0098 -1.1567
  502MOL0     H69248   3.583   5.910  11.339  1.8308 -0.3124 -0.0431
  502MOL0     H69249   3.442   5.841  11.421 -0.2479 -2.2628  3.3021
  502MOL0     H69250   3.571   5.955  11.571  1.8218  0.8770 -0.9755
  502MOL0     H69251   3.715   5.871  11.523  0.3362 -1.5362 -1.5286
  502MOL0     H69252   3.657   5.667  11.641  4.4070  3.0766  3.2771
  502MOL0     H69253   3.480   5.720  11.630  1.3166 -1.0166 -1.5445
  502MOL0     H69254   3.710   5.830  11.791  1.0881 -2.4280  0.1913
  502MOL0     H69255   3.593   5.718  11.866  3.0021  1.4459  1.9114
  502MOL0     H69256   3.101   5.577  10.942  0.5833 -0.8975  0.8052
  502MOL0     H69257   3.007   5.452  10.744 -0.4184  1.2099 -0.8551
  502MOL0     H69258   2.945   5.268  10.441  0.7759 -2.1363  0.2816
  502MOL0     H69259   2.816   5.334  10.255 -0.2917 -2.4804  1.2718
  502MOL0     H69260   2.077   4.482   9.568 -1.4022 -0.4315 -1.0068
  502MOL0     H69261   1.967   4.461   9.371  1.5959 -1.6732  3.2314
  502MOL0     H69262   1.821   4.644   8.982 -2.9981 -0.1461 -0.0675
  502MOL0     H69263   1.730   4.640   8.757  0.3503 -0.6170 -1.6939
  502MOL0     H69264   1.598   4.525   8.561  1.1128 -1.2775 -0.1288
  502MOL0     H69265   1.727   4.648   8.555 -0.2431 -0.4953  1.4872
  502MOL0     H69266   1.768   4.555   8.319 -0.1230 -2.5228  0.9713
  502MOL0     H69267   1.610   4.640   8.354  1.0655  0.6195  1.8103
  502MOL0     H69268   1.670   4.364   8.274  0.1438  0.1523  0.4438
  502MOL0     H69269   1.553   4.382   8.402  2.6126  1.6594  2.8073
  502MOL0     H69270   1.551   4.448   8.109 -0.5397  1.1548 -1.9171
  502MOL0     H69271   1.481   4.578   8.193 -1.5294 -0.8219 -3.5913
  502MOL0     H69272   1.190   4.267   8.197 -1.8641  2.2807  2.7023
  502MOL0     H69273   1.961   4.313   8.631  1.2975  1.8886 -1.0220
  502MOL0     H69274   2.040   4.160   8.794 -1.4893  1.9441 -1.6449
  502MOL0     H69275   2.178   4.262   8.839 -1.0425  0.3972 -0.7722
  502MOL0     H69276   2.066   4.201   8.964 -1.0978  1.3166  0.2568
  503MOL0     O69277   5.115   0.529   0.231  0.6173 -0.4677  0.3103
  503MOL0     C69278   5.147   0.572   0.341 -0.4214  0.2031 -0.5602
  503MOL0     O69279   5.068   0.579   0.456 -0.8771 -0.4047  0.1208
  503MOL0     C69280   4.942   0.534   0.474 -0.0570 -0.1813 -0.5554
  503MOL0     C69281   4.875   0.591   0.581 -0.3981 -0.0408  0.7065
  503MOL0     C69282   4.740   0.560   0.603 -0.0330  0.1117 -0.1469
  503MOL0     C69283   4.678   0.452   0.542 -0.5772  0.6761 -0.3632
  503MOL0     O69284   4.553   0.412   0.573  0.1818  0.5086 -0.0607
  503MOL0     C69285   4.518   0.270   0.565  0.0545  0.2734  0.0996
  503MOL0     C69286   4.393   0.253   0.661  1.0247  0.0322  0.9544
  503MOL0     C69287   4.262   0.279   0.586 -0.8019  0.7598 -0.0569
  503MOL0     C69288   4.146   0.278   0.690  0.3796 -0.1695  0.1137
  503MOL0     C69289   4.006   0.264   0.634 -0.5421 -0.1204  0.4607
  503MOL0     C69290   3.905   0.222   0.739  0.1033 -0.2643  0.0214
  503MOL0     C69291   3.767   0.223   0.671 -0.7883 -0.1362 -0.1136
  503MOL0     C69292   3.660   0.147   0.742 -0.1622  0.2941 -0.5065
  503MOL0     N69293   3.664   0.003   0.714 -0.8175  0.2247 -0.2352
  503MOL0     C69294   3.611  -0.054   0.601  0.2245  0.6009  0.3079
  503MOL0     C69295   3.652  -0.185   0.608  0.6748  0.1636  0.6264
  503MOL0     C69296   3.626  -0.297   0.512 -0.4650  0.0845 -1.0163
  503MOL0     C69297   3.494  -0.368   0.518  0.1408 -0.1501  0.0047
  503MOL0     C69298   3.491  -0.493   0.437  0.3966 -0.6891  0.4337
  503MOL0     C69299   3.365  -0.567   0.456  0.2348 -0.2155 -0.0857
  503MOL0     O69300   3.354  -0.640   0.581  0.8344 -0.5216 -0.5740
  503MOL0     C69301   3.264  -0.750   0.592  0.4562  0.2789 -0.1066
  503MOL0     C69302   3.138  -0.761   0.531 -0.3641  0.1633 -0.2960
  503MOL0     C69303   3.039  -0.859   0.558 -0.6034 -0.0580  0.4206
  503MOL0     C69304   2.906  -0.837   0.494 -0.1790  0.4679  0.3711
  503MOL0     C69305   3.076  -0.961   0.650  0.3617 -0.3069 -0.1884
  503MOL0     C69306   2.988  -1.071   0.692 -0.0196 -0.2895 -0.1871
  503MOL0     O69307   2.853  -1.048   0.694 -0.0738 -0.5496 -0.1374
  503MOL0     C69308   2.764  -1.115   0.767 -0.9167 -0.0736  0.0296
  503MOL0     C69309   2.639  -1.061   0.773  0.5041 -0.0553 -0.1460
  503MOL0     C69310   2.540  -1.105   0.861  0.5735  0.0340  0.9924
  503MOL0     C69311   2.557  -1.219   0.931 -0.2666  0.5657  0.0827
  503MOL0     O69312   2.440  -1.262   1.003 -0.0928 -0.3736 -0.4070
  503MOL0     C69313   2.458  -1.350   1.120  0.0786 -0.2486  0.3410
  503MOL0     C69314   2.326  -1.366   1.181  0.3739  0.5065  1.0804
  503MOL0     C69315   2.260  -1.233   1.229 -0.3506  0.6573 -0.2809
  503MOL0     C69316   2.108  -1.253   1.233  0.0287 -0.5267  0.1174
  503MOL0     C69317   2.055  -1.309   1.359  0.8178 -0.1094 -0.2013
  503MOL0     C69318   1.910  -1.341   1.338  0.5116  0.3813  0.2591
  503MOL0     C69319   1.815  -1.379   1.454 -1.1870  0.5373 -0.4892
  503MOL0     C69320   1.808  -1.270   1.556  0.0901 -0.7726 -0.3597
  503MOL0    Cl69321   1.728  -1.120   1.496 -0.4078  0.4903  0.3824
  503MOL0     C69322   2.685  -1.280   0.925  0.1306 -0.4948 -0.6034
  503MOL0     C69323   2.791  -1.231   0.840  0.3737 -0.2225  0.2332
  503MOL0     O69324   3.035  -1.182   0.704  0.1774  0.1912 -0.3584
  503MOL0     C69325   3.206  -0.956   0.709 -0.3392 -0.1707  0.0512
  503MOL0     C69326   3.292  -0.855   0.677  0.5510  0.4403  0.2734
  503MOL0     N69327   3.713  -0.207   0.734  0.3733  0.2140 -0.1384
  503MOL0     N69328   3.720  -0.093   0.794 -0.7812  0.1875  0.0671
  503MOL0     C69329   4.753   0.386   0.435  0.6889 -0.8302  0.3413
  503MOL0     C69330   4.886   0.426   0.401  0.5970 -0.3571 -0.3210
  503MOL0     C69331   5.281   0.630   0.356  0.6536  0.0430 -0.1870
  503MOL0     C69332   5.329   0.707   0.248  0.7892  0.4454  0.6478
  503MOL0     C69333   5.456   0.757   0.251  0.4084 -0.1600 -0.8428
  503MOL0     C69334   5.543   0.742   0.366  0.8300  0.6881  1.0019
  503MOL0     O69335   5.669   0.786   0.372  0.1948  0.3768 -0.0595
  503MOL0     C69336   5.725   0.879   0.271 -0.5931  0.8060  0.9893
  503MOL0     C69337   5.829   0.970   0.318  0.0344 -0.4260 -0.6888
  503MOL0     C69338   5.945   0.895   0.389  0.5933  0.3345 -0.1602
  503MOL0     C69339   6.007   0.767   0.308 -0.4457 -0.0462  0.2016
  503MOL0     C69340   6.020   0.797   0.161  0.3685  0.4514  0.1265
  503MOL0     C69341   6.028   0.833   0.045  0.5589 -0.5896 -0.1987
  503MOL0     C69342   5.489   0.674   0.475 -0.0154  0.0905 -0.9120
  503MOL0     C69343   5.359   0.611   0.474  0.1553 -0.3624 -0.1836
  503MOL0     C69344   5.329   0.515   0.585 -0.3151  0.1016 -0.1803
  503MOL0     H69345   4.918   0.669   0.643  0.8559  0.3569 -0.5832
  503MOL0     H69346   4.687   0.616   0.679 -0.4065  0.8594 -0.9459
  503MOL0     H69347   4.603   0.216   0.609 -1.5309  0.7350  4.1473
  503MOL0     H69348   4.501   0.236   0.462 -1.5500  1.5612 -0.0972
  503MOL0     H69349   4.385   0.148   0.693 -0.2058 -0.6447 -1.3054
  503MOL0     H69350   4.404   0.316   0.750  2.2679  2.5270 -0.8496
  503MOL0     H69351   4.259   0.375   0.532 -2.5354  1.2587  0.8558
  503MOL0     H69352   4.248   0.198   0.514 -1.1119  0.6775  0.0965
  503MOL0     H69353   4.166   0.198   0.761  2.2247  0.4274  0.3002
  503MOL0     H69354   4.138   0.372   0.744 -0.2718 -1.5616  2.6162
  503MOL0     H69355   4.004   0.180   0.564  0.9360 -2.6018  3.1648
  503MOL0     H69356   3.974   0.359   0.590  0.1592  0.8913  2.0310
  503MOL0     H69357   3.933   0.123   0.775 -0.2744 -0.7462 -0.9915
  503MOL0     H69358   3.909   0.284   0.830  1.0823 -1.0530  0.5381
  503MOL0     H69359   3.770   0.181   0.570 -1.1802 -0.7002  0.1028
  503MOL0     H69360   3.733   0.327   0.667  1.0456  0.4751 -0.5427
  503MOL0     H69361   3.659   0.162   0.850 -3.1253 -1.0397 -0.2722
  503MOL0     H69362   3.566   0.188   0.705  0.0518 -0.2667 -1.7437
  503MOL0     H69363   3.556  -0.020   0.513  1.1089  1.1843 -0.0325
  503MOL0     H69364   3.706  -0.370   0.524  0.5765  0.7844 -3.0830
  503MOL0     H69365   3.649  -0.271   0.408  1.9538  0.5038 -0.4471
  503MOL0     H69366   3.459  -0.392   0.619  1.5505 -2.9487 -0.0659
  503MOL0     H69367   3.417  -0.298   0.486 -0.5886 -0.5175  0.8964
  503MOL0     H69368   3.491  -0.453   0.335 -0.0989 -0.8952  0.3484
  503MOL0     H69369   3.576  -0.561   0.448 -0.3411 -1.5688  0.7836
  503MOL0     H69370   3.281  -0.497   0.450 -0.4685 -1.0976 -0.9421
  503MOL0     H69371   3.357  -0.635   0.371  1.7861 -1.1634  0.5016
  503MOL0     H69372   3.113  -0.675   0.469  0.0437 -1.4935 -2.9399
  503MOL0     H69373   2.840  -0.809   0.577  0.1307 -0.6063  0.9951
  503MOL0     H69374   2.852  -0.925   0.460 -2.2298  1.4314  0.9832
  503MOL0     H69375   2.901  -0.756   0.421 -0.6518  0.1364  0.0365
  503MOL0     H69376   2.619  -0.975   0.710  1.1285 -1.1955 -1.9846
  503MOL0     H69377   2.440  -1.063   0.868  1.2803  1.8637  0.6058
  503MOL0     H69378   2.502  -1.448   1.097 -3.3164 -1.8721  0.2581
  503MOL0     H69379   2.526  -1.304   1.193  1.6510 -1.8227 -0.0597
  503MOL0     H69380   2.268  -1.416   1.103 -0.3386 -0.5378  2.2360
  503MOL0     H69381   2.323  -1.435   1.266  0.5935  1.4775  1.9045
  503MOL0     H69382   2.278  -1.137   1.180 -1.4310  2.3072  2.3341
  503MOL0     H69383   2.310  -1.220   1.325 -1.9631 -0.1660  0.7234
  503MOL0     H69384   2.082  -1.328   1.159  4.0149 -0.7153 -1.3280
  503MOL0     H69385   2.063  -1.154   1.219  2.5477  0.6225 -0.4264
  503MOL0     H69386   2.107  -1.401   1.386  0.5099  0.0568  1.0509
  503MOL0     H69387   2.066  -1.244   1.446 -4.5169  2.1147 -0.7801
  503MOL0     H69388   1.906  -1.427   1.271  1.2596  1.1509 -0.8169
  503MOL0     H69389   1.868  -1.254   1.288 -1.2394 -1.6695 -2.0713
  503MOL0     H69390   1.849  -1.473   1.498  0.7930  0.8171 -1.3187
  503MOL0     H69391   1.712  -1.392   1.419 -0.7968  1.8109 -2.2515
  503MOL0     H69392   1.911  -1.249   1.586  0.2343 -1.5034 -0.3243
  503MOL0     H69393   1.749  -1.309   1.640 -0.5739  4.2377  1.8693
  503MOL0     H69394   2.700  -1.368   0.987  1.1586 -0.5095 -0.8539
  503MOL0     H69395   2.885  -1.286   0.835  1.6636  1.7667  1.5144
  503MOL0     H69396   3.226  -1.035   0.780 -0.2536 -0.9965 -0.8626
  503MOL0     H69397   3.385  -0.849   0.732 -0.2601 -0.8693  1.8929
  503MOL0     H69398   4.714   0.301   0.380  0.2387 -0.5921  0.2933
  503MOL0     H69399   4.927   0.394   0.305 -0.7778 -0.7692 -0.8000
  503MOL0     H69400   5.275   0.727   0.156  0.5790  3.0177  1.2371
  503MOL0     H69401   5.492   0.814   0.166 -0.8633 -0.6406 -1.7299
  503MOL0     H69402   5.755   0.833   0.177  0.9662  2.5939  0.5485
  503MOL0     H69403   5.640   0.946   0.251 -2.8451 -1.6035  1.9182
  503MOL0     H69404   5.774   1.027   0.393 -2.8413 -1.5347 -1.8280
  503MOL0     H69405   5.859   1.036   0.236 -2.1257  3.3894  1.3142
  503MOL0     H69406   6.033   0.952   0.420  1.8090 -2.0361  1.0788
  503MOL0     H69407   5.917   0.857   0.488  1.5469 -3.2349 -1.0872
  503MOL0     H69408   5.947   0.675   0.314  1.3093 -1.1280  3.2250
  503MOL0     H69409   6.108   0.750   0.346  1.3476  2.2599 -3.0221
  503MOL0     H69410   6.032   0.852  -0.060  2.2203 -0.9837 -0.2374
  503MOL0     H69411   5.552   0.660   0.562  0.1610  1.8142 -0.7429
  503MOL0     H69412   5.285   0.421   0.550  0.0917 -0.9738  2.0126
  503MOL0     H69413   5.421   0.494   0.640 -0.2156  0.0423 -0.3689
  503MOL0     H69414   5.251   0.557   0.650  1.9333  0.4104  2.5210
  504MOL0     O69415   5.701   6.596   1.517 -0.4535 -0.4513 -0.3256
  504MOL0     C69416   5.651   6.536   1.611 -0.5011 -0.6929  0.0278
  504MOL0     O69417   5.722   6.457   1.695 -0.3884 -0.2028 -1.0990
  504MOL0     C69418   5.857   6.481   1.696 -0.3511  0.0016 -0.7487
  504MOL0     C69419   5.907   6.544   1.812 -0.4462  0.1107 -0.7435
  504MOL0     C69420   6.052   6.566   1.819 -0.0410  0.0553  0.3221
  504MOL0     C69421   6.131   6.532   1.706 -0.8360 -0.2871  0.4223
  504MOL0     O69422   6.270   6.534   1.709 -0.0510  0.5519 -0.9531
  504MOL0     C69423   6.338   6.618   1.811 -0.6569 -0.8220 -0.2781
  504MOL0     C69424   6.496   6.629   1.766  0.1192 -0.5721  0.0017
  504MOL0     C69425   6.558   6.752   1.851 -0.2321 -1.0194  0.0758
  504MOL0     C69426   6.690   6.793   1.788  0.4400 -0.1083  1.0584
  504MOL0     C69427   6.777   6.888   1.873 -0.6283 -0.5073  0.2893
  504MOL0     C69428   6.911   6.898   1.792  0.1017 -0.7600  0.3614
  504MOL0     C69429   7.014   6.984   1.866 -1.0989  0.3405  0.2637
  504MOL0     C69430   7.041   6.924   2.006 -0.1180 -0.5366  0.0560
  504MOL0     N69431   7.100   6.788   1.993 -0.5816 -0.4555  0.0854
  504MOL0     C69432   7.217   6.744   1.932  0.8915 -1.3933 -0.3370
  504MOL0     C69433   7.223   6.613   1.952  0.3716  0.4282 -0.4474
  504MOL0     C69434   7.315   6.517   1.899 -0.0354 -0.2240  0.2130
  504MOL0     C69435   7.444   6.537   1.982  0.4625 -1.3314 -0.0989
  504MOL0     C69436   7.550   6.438   1.932  0.1186 -0.1758 -0.1672
  504MOL0     C69437   7.683   6.472   1.996  0.7148  0.7738  0.0121
  504MOL0     O69438   7.729   6.607   1.974  0.1220 -0.0833 -0.8392
  504MOL0     C69439   7.847   6.631   2.042 -0.2099 -0.1419 -0.3607
  504MOL0     C69440   7.845   6.698   2.157  0.1981 -0.4483 -0.1030
  504MOL0     C69441   7.962   6.742   2.220  0.4755  1.3284 -0.5223
  504MOL0     C69442   7.943   6.848   2.336  0.0709  0.1182 -0.7636
  504MOL0     C69443   8.086   6.693   2.176  0.7849 -0.3126 -0.3353
  504MOL0     C69444   8.218   6.742   2.218  0.2667 -0.4844 -0.1180
  504MOL0     O69445   8.321   6.671   2.184  0.0979  0.2100  0.4860
  504MOL0     C69446   8.447   6.713   2.220  0.1171  0.4546  0.2260
  504MOL0     C69447   8.544   6.758   2.128  0.2074  0.0068  0.1287
  504MOL0     C69448   8.674   6.794   2.180  0.1460 -0.7426 -0.0416
  504MOL0     C69449   8.693   6.797   2.320 -0.6260 -0.6326 -0.5168
  504MOL0     O69450   8.806   6.834   2.383 -0.1874 -0.1334 -0.0210
  504MOL0     C69451   8.923   6.769   2.328  0.2542  0.1668 -0.1938
  504MOL0     C69452   9.037   6.833   2.392  0.0850  0.1514  1.2369
  504MOL0     C69453   9.164   6.765   2.342 -0.4314 -0.2169  1.1174
  504MOL0     C69454   9.276   6.857   2.413  0.5514 -0.2916 -0.0683
  504MOL0     C69455   9.425   6.825   2.378  0.1578  0.2928 -0.9148
  504MOL0     C69456   9.464   6.681   2.411 -0.2773 -0.1449 -0.3431
  504MOL0     C69457   9.617   6.686   2.394 -0.2751  0.0396  0.2232
  504MOL0     C69458   9.677   6.558   2.446 -0.6436  0.1754 -0.0585
  504MOL0    Cl69459   9.855   6.547   2.430 -0.2718 -0.1733 -0.0839
  504MOL0     C69460   8.598   6.755   2.407  0.6934 -0.4369 -0.2076
  504MOL0     C69461   8.473   6.706   2.358 -0.6736 -0.0159 -0.0144
  504MOL0     O69462   8.224   6.858   2.272  0.0744  0.0568  0.4422
  504MOL0     C69463   8.081   6.602   2.070  0.9198  1.0556 -0.8289
  504MOL0     C69464   7.964   6.566   1.997  0.0365 -0.3908 -0.0184
  504MOL0     N69465   7.114   6.577   2.030  0.1189 -0.1987 -0.4228
  504MOL0     N69466   7.035   6.678   2.046 -0.7648 -0.5718 -0.4274
  504MOL0     C69467   6.078   6.488   1.588  0.8494  0.0491  0.0532
  504MOL0     C69468   5.950   6.439   1.593  0.2881 -0.1919  0.3018
  504MOL0     C69469   5.503   6.554   1.623 -0.2571 -0.1951 -0.0174
  504MOL0     C69470   5.418   6.497   1.527  0.1555 -0.4507 -0.0057
  504MOL0     C69471   5.282   6.502   1.534  0.5824 -0.0373 -0.8451
  504MOL0     C69472   5.223   6.575   1.639 -0.2485  0.8341 -0.2264
  504MOL0     O69473   5.083   6.584   1.624 -0.4177  0.3466 -0.0713
  504MOL0     C69474   5.016   6.630   1.733 -0.0855  0.0860 -0.8140
  504MOL0     C69475   4.870   6.662   1.684  0.0226 -0.9702 -1.1863
  504MOL0     C69476   4.759   6.681   1.793  0.3824 -0.1300 -0.2593
  504MOL0     C69477   4.788   6.792   1.893 -0.5494 -0.4152  0.0496
  504MOL0     C69478   4.885   6.752   1.993  0.6173 -0.9213  0.3466
  504MOL0     C69479   4.970   6.717   2.068 -0.2404 -1.0134  0.0691
  504MOL0     C69480   5.303   6.637   1.731 -0.6060 -0.2034  0.1114
  504MOL0     C69481   5.442   6.623   1.727  0.0288 -0.2861  0.3522
  504MOL0     C69482   5.521   6.658   1.848  0.0502  0.2730 -0.0915
  504MOL0     H69483   5.846   6.592   1.888 -0.3995  1.7542 -1.6886
  504MOL0     H69484   6.083   6.620   1.909 -0.0391  2.2829 -0.9461
  504MOL0     H69485   6.331   6.584   1.914  0.4644 -0.5913 -0.1134
  504MOL0     H69486   6.294   6.717   1.796  4.4852  2.2008  1.7729
  504MOL0     H69487   6.557   6.539   1.780  4.0160  1.5703 -1.6063
  504MOL0     H69488   6.492   6.654   1.659 -2.3579 -2.3915 -0.4346
  504MOL0     H69489   6.493   6.839   1.842 -2.3658 -2.3210  1.9761
  504MOL0     H69490   6.585   6.722   1.953 -0.9500  1.2982  1.0199
  504MOL0     H69491   6.752   6.704   1.770  3.4167  1.5591  2.3907
  504MOL0     H69492   6.665   6.832   1.689 -2.2997 -2.4521  0.6812
  504MOL0     H69493   6.780   6.849   1.976  0.6381  0.2209  0.5510
  504MOL0     H69494   6.738   6.989   1.865 -0.7138 -0.6913 -3.1028
  504MOL0     H69495   6.941   6.796   1.764  0.0189 -0.4162 -1.0294
  504MOL0     H69496   6.874   6.954   1.707  1.0457  1.6548  1.4576
  504MOL0     H69497   6.981   7.087   1.883  0.1595  0.7992  0.0456
  504MOL0     H69498   7.099   7.008   1.801 -0.5517  0.2865  0.9473
  504MOL0     H69499   7.112   6.994   2.051  1.0764 -1.8075  0.2105
  504MOL0     H69500   6.961   6.922   2.081  0.6627  0.4986  0.9535
  504MOL0     H69501   7.282   6.813   1.879  1.4839 -1.1456  0.6990
  504MOL0     H69502   7.318   6.536   1.792  0.5622  2.1864  0.5963
  504MOL0     H69503   7.278   6.416   1.922 -1.3938  0.3588  0.7048
  504MOL0     H69504   7.488   6.634   1.955  2.6667 -2.4541 -0.8490
  504MOL0     H69505   7.430   6.539   2.090  0.9706  1.4239 -0.0262
  504MOL0     H69506   7.521   6.337   1.965  0.2746  0.0493  0.6794
  504MOL0     H69507   7.557   6.440   1.823 -1.3063  2.4331 -0.2704
  504MOL0     H69508   7.667   6.463   2.104  0.1909  0.9627 -0.0478
  504MOL0     H69509   7.749   6.396   1.953  1.5277  1.1381  0.5937
  504MOL0     H69510   7.749   6.736   2.193  1.4552  0.7961  2.1421
  504MOL0     H69511   8.025   6.842   2.408 -2.0391  1.0414  1.8858
  504MOL0     H69512   7.852   6.827   2.393 -0.0253  2.5864  0.1385
  504MOL0     H69513   7.928   6.953   2.307 -0.0914  0.4497  0.4787
  504MOL0     H69514   8.538   6.759   2.020 -0.2921 -0.1080  0.1525
  504MOL0     H69515   8.750   6.825   2.110 -0.0399 -2.7563 -1.2043
  504MOL0     H69516   8.921   6.665   2.360  0.1663  0.2320  0.0119
  504MOL0     H69517   8.936   6.774   2.219  1.8276 -0.1321 -0.0546
  504MOL0     H69518   9.029   6.941   2.375 -3.7050 -0.1610  0.0155
  504MOL0     H69519   9.030   6.817   2.500  1.7079  0.5650  1.4423
  504MOL0     H69520   9.184   6.773   2.234 -1.2351 -0.7035  0.9222
  504MOL0     H69521   9.174   6.660   2.369  0.1641 -0.8383 -1.2880
  504MOL0     H69522   9.261   6.857   2.521 -0.2497  1.6931 -0.1406
  504MOL0     H69523   9.261   6.960   2.380  1.2344  1.0015  3.2711
  504MOL0     H69524   9.435   6.841   2.271 -3.4630  4.3634 -0.9399
  504MOL0     H69525   9.489   6.903   2.421  1.8589 -1.3477 -0.3482
  504MOL0     H69526   9.417   6.609   2.344  0.6270 -0.7967 -0.2827
  504MOL0     H69527   9.449   6.650   2.515  0.4051  3.3138  0.9208
  504MOL0     H69528   9.664   6.768   2.450  0.0889 -0.4184  0.5924
  504MOL0     H69529   9.643   6.702   2.289 -2.2038  0.2844 -0.2565
  504MOL0     H69530   9.635   6.471   2.395  1.8882  0.7273 -3.4780
  504MOL0     H69531   9.686   6.547   2.555  3.2800 -0.1035 -0.2600
  504MOL0     H69532   8.617   6.759   2.514 -0.1554  2.7870 -0.0614
  504MOL0     H69533   8.400   6.673   2.431 -1.7347  1.3733 -0.3913
  504MOL0     H69534   8.166   6.542   2.041 -1.4007 -2.9349 -0.0691
  504MOL0     H69535   7.969   6.496   1.913  0.2175  0.8058 -1.0270
  504MOL0     H69536   6.134   6.471   1.496 -1.0873 -0.4644 -1.1102
  504MOL0     H69537   5.900   6.399   1.506 -2.2817 -3.0184  2.8301
  504MOL0     H69538   5.461   6.462   1.434  2.2386  1.3629  0.1910
  504MOL0     H69539   5.225   6.450   1.458  1.3975 -2.1392 -0.0828
  504MOL0     H69540   5.010   6.551   1.809 -0.6988 -0.3748 -1.3306
  504MOL0     H69541   5.061   6.722   1.771 -1.1761  1.3305 -2.3520
  504MOL0     H69542   4.840   6.576   1.624  2.6707 -1.9271 -1.2679
  504MOL0     H69543   4.869   6.743   1.611 -1.2460 -0.0435 -0.1815
  504MOL0     H69544   4.674   6.714   1.732  1.6860  0.4587 -1.8359
  504MOL0     H69545   4.727   6.586   1.836 -0.0918 -1.2569 -2.8686
  504MOL0     H69546   4.693   6.821   1.940  0.2046  3.6150 -0.5107
  504MOL0     H69547   4.815   6.884   1.840 -1.1949 -0.3723 -0.2187
  504MOL0     H69548   5.044   6.668   2.128  0.9060  0.1500 -0.3344
  504MOL0     H69549   5.261   6.690   1.815 -1.4445  0.6666 -0.8419
  504MOL0     H69550   5.559   6.570   1.899 -3.6788 -0.4210  1.8917
  504MOL0     H69551   5.609   6.713   1.814  0.9914  1.0758  3.2739
  504MOL0     H69552   5.449   6.711   1.911 -1.6909 -0.4854 -1.3302
  505MOL0     O69553   8.828   0.726   8.834 -0.0926 -0.3650 -0.0818
  505MOL0     C69554   8.759   0.709   8.731  0.2035  0.1744 -0.2708
  505MOL0     O69555   8.809   0.708   8.603  0.3296  0.0696  0.5225
  505MOL0     C69556   8.945   0.703   8.574 -0.0707 -0.1085  0.4919
  505MOL0     C69557   9.039   0.622   8.643  1.1453  0.4399 -0.2528
  505MOL0     C69558   9.172   0.614   8.612  0.3381 -0.0945  0.8098
  505MOL0     C69559   9.236   0.686   8.518 -0.2670 -0.0880  0.3864
  505MOL0     O69560   9.368   0.682   8.516 -0.3838  0.2580  0.6125
  505MOL0     C69561   9.436   0.733   8.401  0.1572  0.2186 -0.4970
  505MOL0     C69562   9.576   0.672   8.407  0.0284  0.9997 -0.0231
  505MOL0     C69563   9.569   0.517   8.371  0.0639 -0.5214  0.0216
  505MOL0     C69564   9.681   0.436   8.433  0.6686 -0.8493 -0.0670
  505MOL0     C69565   9.820   0.488   8.400  0.2891 -0.3379  0.0893
  505MOL0     C69566   9.925   0.396   8.465 -0.4137 -0.9898 -0.0559
  505MOL0     C69567  10.067   0.431   8.413  0.1478 -0.0783  0.7264
  505MOL0     C69568  10.110   0.379   8.280  0.1706  0.6280 -0.6746
  505MOL0     N69569  10.221   0.459   8.229 -0.1259  0.1773  0.2964
  505MOL0     C69570  10.355   0.428   8.237  0.5831  0.0224  0.6293
  505MOL0     C69571  10.416   0.552   8.213 -0.1011  0.5321  0.0657
  505MOL0     C69572  10.565   0.574   8.239  0.5322  0.3469 -0.4654
  505MOL0     C69573  10.633   0.580   8.112 -0.1752  1.0745  0.4380
  505MOL0     C69574  10.777   0.545   8.129 -0.1891  0.4352 -0.6772
  505MOL0     C69575  10.867   0.600   8.016 -0.2024 -0.1749  0.4755
  505MOL0     O69576  11.004   0.571   8.061  0.3388 -0.3045 -0.1941
  505MOL0     C69577  11.104   0.639   7.996  0.4329  1.1145  0.4144
  505MOL0     C69578  11.097   0.711   7.875  1.2291  0.8147 -1.3801
  505MOL0     C69579  11.215   0.764   7.809  0.4859  0.1785  0.3830
  505MOL0     C69580  11.192   0.835   7.682 -0.1024  0.7810  0.7411
  505MOL0     C69581  11.339   0.755   7.879  0.3012 -0.3228 -0.1925
  505MOL0     C69582  11.471   0.816   7.836 -1.0398  0.0228  0.2507
  505MOL0     O69583  11.567   0.837   7.937  0.2887  0.9221  0.4107
  505MOL0     C69584  11.700   0.850   7.895  0.6096 -0.5967  0.2163
  505MOL0     C69585  11.773   0.756   7.819 -0.3437  0.1118 -0.1177
  505MOL0     C69586  11.915   0.776   7.811  0.6895  0.2251  0.5071
  505MOL0     C69587  11.980   0.893   7.849  0.8853  0.3790  0.0635
  505MOL0     O69588  12.115   0.909   7.825 -0.6415  0.3588 -0.1154
  505MOL0     C69589  12.165   1.034   7.788 -0.0871 -0.1549  0.3585
  505MOL0     C69590  12.232   1.116   7.894  0.4800 -0.1998 -0.1088
  505MOL0     C69591  12.310   1.233   7.829 -0.3105  0.1121 -0.6500
  505MOL0     C69592  12.430   1.276   7.907 -0.0178 -0.6327 -0.0925
  505MOL0     C69593  12.512   1.382   7.823 -0.1691 -0.1290 -0.1058
  505MOL0     C69594  12.645   1.417   7.881 -0.3922 -0.4480 -0.0387
  505MOL0     C69595  12.712   1.541   7.822 -0.9848 -0.4614  1.1017
  505MOL0     C69596  12.861   1.552   7.867  0.6282 -0.1452 -0.2037
  505MOL0    Cl69597  12.929   1.700   7.811  0.2649 -0.2530  0.1391
  505MOL0     C69598  11.902   0.983   7.928 -0.0785  0.5976  0.4475
  505MOL0     C69599  11.769   0.955   7.948  0.0820 -0.4362 -0.7299
  505MOL0     O69600  11.496   0.836   7.718  0.7231 -0.5626 -0.4108
  505MOL0     C69601  11.342   0.681   8.002 -0.2515  0.2083 -0.9144
  505MOL0     C69602  11.226   0.638   8.062  0.6614  1.1759  0.5473
  505MOL0     N69603  10.320   0.646   8.175  0.4263  0.1745 -0.0663
  505MOL0     N69604  10.198   0.587   8.187  0.2869 -0.6078  0.4198
  505MOL0     C69605   9.152   0.781   8.455 -0.2684  0.1296 -0.4901
  505MOL0     C69606   9.011   0.786   8.483 -0.1611  1.1344 -0.2737
  505MOL0     C69607   8.612   0.686   8.735  0.5004  0.9008  0.5834
  505MOL0     C69608   8.544   0.706   8.618  0.0153  0.7171  0.0330
  505MOL0     C69609   8.404   0.678   8.610 -0.6044  0.6032 -0.4988
  505MOL0     C69610   8.333   0.651   8.733 -0.3389  0.1200  0.0198
  505MOL0     O69611   8.200   0.637   8.742 -0.1417  0.5804  0.6021
  505MOL0     C69612   8.122   0.722   8.662  0.5198  0.6722 -0.2750
  505MOL0     C69613   7.977   0.691   8.699  0.5058 -0.3852  0.8723
  505MOL0     C69614   7.876   0.757   8.597  0.5243 -0.4175  0.1245
  505MOL0     C69615   7.735   0.739   8.644  0.2954  0.1300 -0.5258
  505MOL0     C69616   7.699   0.595   8.641  0.1331  0.0504 -0.2455
  505MOL0     C69617   7.650   0.484   8.631  0.5437  0.3328  0.1648
  505MOL0     C69618   8.403   0.631   8.853 -0.1511 -0.4494  0.2098
  505MOL0     C69619   8.544   0.645   8.854  0.5664 -0.6858 -0.6146
  505MOL0     C69620   8.618   0.618   8.982  0.5918 -0.3593  0.0901
  505MOL0     H69621   8.992   0.563   8.721  1.0710 -1.2666 -1.5308
  505MOL0     H69622   9.223   0.532   8.662 -1.0624 -0.8837  1.0079
  505MOL0     H69623   9.438   0.841   8.418 -2.6362 -0.0997  3.0860
  505MOL0     H69624   9.391   0.706   8.304 -0.7730 -3.4950  0.7999
  505MOL0     H69625   9.640   0.724   8.336 -1.3050 -0.6687 -2.5891
  505MOL0     H69626   9.615   0.682   8.509 -1.6213  0.4781  0.6900
  505MOL0     H69627   9.475   0.476   8.409  0.0302 -1.0561 -0.6225
  505MOL0     H69628   9.570   0.507   8.262  0.4590 -1.1191  0.0803
  505MOL0     H69629   9.667   0.446   8.541  0.5648 -0.7131 -0.0929
  505MOL0     H69630   9.678   0.331   8.402  1.4859 -1.0850  0.6055
  505MOL0     H69631   9.840   0.591   8.431  1.4615 -0.8995  1.3163
  505MOL0     H69632   9.839   0.482   8.293  1.0102  0.1278  0.1822
  505MOL0     H69633   9.914   0.409   8.573  0.6750  0.5685 -0.0911
  505MOL0     H69634   9.897   0.293   8.446 -0.9745 -1.1072  1.3253
  505MOL0     H69635  10.138   0.390   8.485  2.3867  0.4503 -1.0546
  505MOL0     H69636  10.075   0.540   8.417 -1.1113  0.0556 -0.0177
  505MOL0     H69637  10.128   0.272   8.295 -0.2919  0.8024  1.4956
  505MOL0     H69638  10.024   0.390   8.213 -0.7703  2.4615  0.7361
  505MOL0     H69639  10.405   0.337   8.269 -1.9435 -1.7101 -0.0800
  505MOL0     H69640  10.590   0.488   8.302 -1.6594 -0.7033 -0.9596
  505MOL0     H69641  10.579   0.667   8.296 -0.0077 -1.2717  2.4934
  505MOL0     H69642  10.587   0.528   8.028  1.4521 -0.2617  0.3189
  505MOL0     H69643  10.620   0.683   8.079  0.7790  1.4195  1.1020
  505MOL0     H69644  10.809   0.596   8.220 -0.7012  1.0996 -0.8538
  505MOL0     H69645  10.785   0.436   8.131  1.6606  0.5498  0.9104
  505MOL0     H69646  10.841   0.561   7.917 -1.6615  0.6143  0.5129
  505MOL0     H69647  10.853   0.708   8.002  0.8939  0.0138  0.7122
  505MOL0     H69648  10.998   0.730   7.836  0.4458  0.5213  0.3637
  505MOL0     H69649  11.262   0.919   7.672  2.5418 -1.3593  0.4289
  505MOL0     H69650  11.087   0.867   7.676 -0.1302  0.5697  0.0918
  505MOL0     H69651  11.213   0.769   7.598  0.7258  1.0652  0.7155
  505MOL0     H69652  11.731   0.666   7.776  0.1778 -0.0092 -0.3847
  505MOL0     H69653  11.974   0.695   7.769  0.3813  1.1604 -1.9259
  505MOL0     H69654  12.246   1.024   7.714 -0.5458  2.7304 -0.6623
  505MOL0     H69655  12.085   1.095   7.745 -1.9465 -2.6736  0.0494
  505MOL0     H69656  12.158   1.165   7.959  2.2844  0.5301  1.4878
  505MOL0     H69657  12.302   1.059   7.955 -0.5811  1.1303  2.5311
  505MOL0     H69658  12.240   1.317   7.824  0.9277  1.3836  1.5770
  505MOL0     H69659  12.344   1.210   7.728 -2.9646  3.5344 -2.5560
  505MOL0     H69660  12.493   1.191   7.932  1.7076  0.6870  0.2527
  505MOL0     H69661  12.404   1.319   8.005  1.2709 -1.3341  0.5842
  505MOL0     H69662  12.537   1.339   7.725  0.0335 -1.6343  0.5763
  505MOL0     H69663  12.461   1.475   7.796  2.3033  0.2633 -4.2604
  505MOL0     H69664  12.707   1.328   7.892 -1.1624 -0.8917  0.8304
  505MOL0     H69665  12.624   1.450   7.983 -1.8102  0.4584 -0.5884
  505MOL0     H69666  12.659   1.632   7.850 -0.8320  0.5968 -1.7778
  505MOL0     H69667  12.705   1.541   7.713 -2.4770  3.0438  1.0778
  505MOL0     H69668  12.913   1.467   7.821  1.0163 -0.4799  0.8222
  505MOL0     H69669  12.865   1.536   7.975 -0.2282  0.3274 -0.0926
  505MOL0     H69670  11.947   1.066   7.982 -1.4747 -0.4500  3.4838
  505MOL0     H69671  11.729   1.014   8.030  0.3526  0.5943 -1.3273
  505MOL0     H69672  11.439   0.662   8.047 -0.6928  0.3141  0.1040
  505MOL0     H69673  11.232   0.577   8.152  1.2900 -2.6746 -1.8792
  505MOL0     H69674   9.194   0.867   8.404 -4.2695  3.0445  0.5749
  505MOL0     H69675   8.954   0.857   8.424 -0.1404 -0.9539 -2.9717
  505MOL0     H69676   8.596   0.735   8.527  0.8946 -1.5309 -0.2322
  505MOL0     H69677   8.351   0.680   8.515 -1.6827  0.3989  0.0836
  505MOL0     H69678   8.145   0.825   8.691 -3.3660  1.2453  1.3505
  505MOL0     H69679   8.125   0.698   8.555 -0.2283  0.6404 -0.2943
  505MOL0     H69680   7.964   0.739   8.797  2.4804  1.9824  0.0727
  505MOL0     H69681   7.956   0.584   8.701 -1.2116 -0.0808  1.7764
  505MOL0     H69682   7.906   0.860   8.576  1.6847 -0.7464  0.0550
  505MOL0     H69683   7.890   0.718   8.495  1.1452 -0.9155  0.3925
  505MOL0     H69684   7.666   0.796   8.582 -1.2787 -1.6604 -0.5224
  505MOL0     H69685   7.714   0.774   8.746 -2.1951  0.7611 -1.1882
  505MOL0     H69686   7.638   0.379   8.615  0.7291  0.5234 -1.3973
  505MOL0     H69687   8.347   0.608   8.944 -0.6382  0.5117  0.1640
  505MOL0     H69688   8.634   0.720   9.018 -1.9399  1.4170 -3.2336
  505MOL0     H69689   8.556   0.563   9.054 -2.7367  1.2245 -1.3268
  505MOL0     H69690   8.714   0.566   8.979  0.6357 -0.4226  1.8233
  506MOL0     O69691   5.307   0.321   6.944 -0.8582 -0.2421  0.9724
  506MOL0     C69692   5.263   0.274   6.837  0.1955 -0.2926  0.2123
  506MOL0     O69693   5.330   0.185   6.761  0.5276  0.3172 -0.0803
  506MOL0     C69694   5.450   0.139   6.812  0.7121 -0.2411 -0.5503
  506MOL0     C69695   5.472   0.074   6.942 -0.0063 -0.0626  0.1839
  506MOL0     C69696   5.598   0.024   6.980  0.3148 -0.3244  0.8223
  506MOL0     C69697   5.711   0.048   6.896 -0.1388  0.4612 -0.4317
  506MOL0     O69698   5.848   0.013   6.923  0.8468  0.4385  0.5563
  506MOL0     C69699   5.881   0.002   7.060 -0.8569 -0.1442  0.2940
  506MOL0     C69700   6.044  -0.016   7.080  0.3843 -0.0104  0.7072
  506MOL0     C69701   6.084  -0.149   7.147  0.2790  0.1840  0.7930
  506MOL0     C69702   6.200  -0.134   7.245 -0.2921 -0.3657 -0.1027
  506MOL0     C69703   6.200  -0.033   7.358 -0.1088 -0.3777 -0.6726
  506MOL0     C69704   6.337   0.035   7.376 -0.3872  0.5960 -0.3775
  506MOL0     C69705   6.334   0.137   7.480 -0.1596  0.0388 -0.7271
  506MOL0     C69706   6.366   0.081   7.623 -0.8832 -0.1219  0.0379
  506MOL0     N69707   6.343   0.187   7.727 -0.4937  0.3563  0.3455
  506MOL0     C69708   6.374   0.321   7.710  0.3892  0.1980 -0.4119
  506MOL0     C69709   6.319   0.374   7.818  0.8565  0.1317  0.2587
  506MOL0     C69710   6.320   0.520   7.849  0.2408 -0.8525 -0.0165
  506MOL0     C69711   6.456   0.581   7.863 -0.1245  0.3064 -0.3413
  506MOL0     C69712   6.543   0.513   7.973 -0.5648  0.0260  0.4692
  506MOL0     C69713   6.685   0.570   8.003  0.2920 -0.6153 -1.1264
  506MOL0     O69714   6.760   0.600   7.881 -0.1506  0.6128  0.0948
  506MOL0     C69715   6.889   0.647   7.897  0.5976 -0.8457 -0.8280
  506MOL0     C69716   6.979   0.612   7.795  0.3052 -0.2389 -0.7149
  506MOL0     C69717   7.114   0.663   7.793  0.3958 -0.6003 -1.0239
  506MOL0     C69718   7.198   0.654   7.673  0.7003  0.0144  0.1052
  506MOL0     C69719   7.156   0.744   7.907  0.5322  0.7980  0.6721
  506MOL0     C69720   7.291   0.803   7.920 -0.8089 -0.2614  0.1687
  506MOL0     O69721   7.392   0.747   7.847  0.0530 -0.0016 -0.2909
  506MOL0     C69722   7.508   0.814   7.840 -0.6933  0.4906 -0.0729
  506MOL0     C69723   7.535   0.919   7.755  0.8630 -0.0595  0.8402
  506MOL0     C69724   7.655   0.985   7.750  0.0332 -0.1243 -0.2365
  506MOL0     C69725   7.754   0.930   7.837  0.2195 -0.4119 -0.1929
  506MOL0     O69726   7.877   0.981   7.836  0.1373 -0.5319  0.4185
  506MOL0     C69727   7.970   0.927   7.744 -0.1662 -0.1849 -0.6979
  506MOL0     C69728   8.113   0.959   7.791 -0.5454 -0.6623  0.1179
  506MOL0     C69729   8.218   0.902   7.693  0.5826 -0.3428 -0.8303
  506MOL0     C69730   8.355   0.891   7.759 -0.2752  0.2745  0.1437
  506MOL0     C69731   8.450   0.811   7.674 -0.1081 -0.4845  0.1871
  506MOL0     C69732   8.589   0.812   7.735  0.5409 -0.5756 -0.4805
  506MOL0     C69733   8.690   0.720   7.657  0.6941  0.2365 -0.4680
  506MOL0     C69734   8.834   0.777   7.671  0.3400 -0.1609 -0.0411
  506MOL0    Cl69735   8.944   0.670   7.576 -0.0363 -0.2810 -0.1250
  506MOL0     C69736   7.737   0.821   7.916  0.4459  0.2041  0.0267
  506MOL0     C69737   7.608   0.776   7.926 -0.6740 -0.1058 -0.3717
  506MOL0     O69738   7.309   0.883   8.009 -0.5297  0.3771 -0.2602
  506MOL0     C69739   7.060   0.769   8.011  0.0690  1.0644 -0.3125
  506MOL0     C69740   6.934   0.712   8.015 -0.2523 -0.0869  0.1085
  506MOL0     N69741   6.253   0.289   7.897 -0.1062  0.7306 -0.1064
  506MOL0     N69742   6.270   0.172   7.844 -0.1361  0.3918  0.3897
  506MOL0     C69743   5.692   0.099   6.764 -0.4654 -0.3625  0.2569
  506MOL0     C69744   5.562   0.149   6.721 -0.3128  0.6308  0.0742
  506MOL0     C69745   5.135   0.317   6.782 -0.3676 -0.2815 -0.4264
  506MOL0     C69746   5.103   0.287   6.649  0.7755  1.3977  0.6474
  506MOL0     C69747   4.974   0.304   6.598  0.2409  0.0287  0.0909
  506MOL0     C69748   4.883   0.381   6.669  0.0586  0.1455  0.1399
  506MOL0     O69749   4.756   0.410   6.625  0.6081 -0.2467 -0.3508
  506MOL0     C69750   4.719   0.352   6.499  0.4532 -0.1402  0.9168
  506MOL0     C69751   4.566   0.371   6.476 -1.0362 -0.1522 -0.2997
  506MOL0     C69752   4.528   0.520   6.464  0.2136  0.2475 -0.1155
  506MOL0     C69753   4.397   0.533   6.380  0.7490 -0.0227  0.6437
  506MOL0     C69754   4.330   0.667   6.403 -0.1311  1.0315  0.0365
  506MOL0     C69755   4.261   0.764   6.413  0.3480 -0.0282  0.3577
  506MOL0     C69756   4.923   0.431   6.793  0.3465 -0.1374 -0.2639
  506MOL0     C69757   5.038   0.397   6.851 -0.2104  1.1088  0.2476
  506MOL0     C69758   5.058   0.454   6.988  0.5715  0.2534 -0.7013
  506MOL0     H69759   5.397   0.064   7.020  1.7019 -2.9544  1.6306
  506MOL0     H69760   5.607  -0.029   7.075  0.3949 -2.2446 -0.2064
  506MOL0     H69761   5.830  -0.088   7.096 -0.0803  0.2220  2.4109
  506MOL0     H69762   5.849   0.088   7.118 -0.0799 -1.3494  2.6410
  506MOL0     H69763   6.087  -0.007   6.981 -0.4169 -0.4191  0.3113
  506MOL0     H69764   6.084   0.072   7.132 -1.1890  2.1271 -1.4465
  506MOL0     H69765   6.000  -0.196   7.200 -0.7206 -1.9815 -2.4498
  506MOL0     H69766   6.099  -0.219   7.065 -0.4413 -1.2243  1.8154
  506MOL0     H69767   6.216  -0.236   7.283 -0.5614 -1.0695 -1.7813
  506MOL0     H69768   6.280  -0.103   7.177 -1.8877  0.7359 -1.5644
  506MOL0     H69769   6.171  -0.083   7.451  1.1205  1.2791  0.6602
  506MOL0     H69770   6.126   0.045   7.341  0.3468 -0.3091 -2.5072
  506MOL0     H69771   6.415  -0.034   7.408 -0.7293  0.3456 -0.0750
  506MOL0     H69772   6.370   0.088   7.286  1.4572  0.6059  0.2516
  506MOL0     H69773   6.234   0.179   7.490 -1.2209 -2.1817 -1.4162
  506MOL0     H69774   6.403   0.219   7.459  0.2090  0.0334  0.3499
  506MOL0     H69775   6.287   0.009   7.643 -0.9657 -0.0449 -0.0112
  506MOL0     H69776   6.464   0.033   7.630 -1.0158 -0.3513  0.3289
  506MOL0     H69777   6.429   0.375   7.634 -0.7369  2.2704  0.1731
  506MOL0     H69778   6.275   0.526   7.949  2.7928 -1.1297  1.2308
  506MOL0     H69779   6.263   0.584   7.781  0.1018 -2.5427 -1.5734
  506MOL0     H69780   6.502   0.563   7.765  0.9887  0.2662  0.1787
  506MOL0     H69781   6.447   0.687   7.887 -0.4215  0.0817  0.5952
  506MOL0     H69782   6.479   0.492   8.059  1.4569 -1.1556  1.7706
  506MOL0     H69783   6.564   0.410   7.945 -1.5028 -0.4876  1.5828
  506MOL0     H69784   6.675   0.665   8.056 -0.5669 -1.3364  0.0669
  506MOL0     H69785   6.741   0.498   8.063  0.0517  2.9493  4.0713
  506MOL0     H69786   6.954   0.547   7.711 -2.6157 -3.8209  2.5861
  506MOL0     H69787   7.290   0.606   7.705  0.3815  0.5796  1.9919
  506MOL0     H69788   7.220   0.748   7.621 -1.0603 -0.1604 -1.0544
  506MOL0     H69789   7.150   0.583   7.604 -0.1757  0.0238  0.6792
  506MOL0     H69790   7.462   0.949   7.680 -0.1789 -0.3846  1.7005
  506MOL0     H69791   7.668   1.062   7.675  0.8210  1.3117  1.3223
  506MOL0     H69792   7.961   0.818   7.739 -1.6502 -0.2377  1.3844
  506MOL0     H69793   7.955   0.981   7.650 -1.2717  1.6433  0.4574
  506MOL0     H69794   8.131   1.066   7.799 -1.1219 -0.2539 -2.7727
  506MOL0     H69795   8.127   0.915   7.890 -1.9288  2.4820  1.8711
  506MOL0     H69796   8.223   0.954   7.597  0.3482 -1.3944 -1.4274
  506MOL0     H69797   8.190   0.797   7.683 -2.0137  0.2668 -0.7463
  506MOL0     H69798   8.355   0.834   7.852  2.3424  0.7048  0.5068
  506MOL0     H69799   8.391   0.991   7.784  1.5079 -0.0506 -0.8975
  506MOL0     H69800   8.407   0.711   7.677 -0.6297 -0.2597  0.2941
  506MOL0     H69801   8.453   0.855   7.574 -2.1377  1.6028  0.9582
  506MOL0     H69802   8.587   0.777   7.838 -0.0029 -1.9982 -0.9451
  506MOL0     H69803   8.614   0.918   7.726 -0.0086 -0.6081 -3.4807
  506MOL0     H69804   8.664   0.734   7.552  0.6742  0.1605 -0.4735
  506MOL0     H69805   8.688   0.616   7.692 -1.9778  0.7353  1.2434
  506MOL0     H69806   8.857   0.772   7.778  1.5403  2.7084 -0.0992
  506MOL0     H69807   8.837   0.880   7.636  2.5867 -0.2322 -0.1994
  506MOL0     H69808   7.816   0.782   7.979  1.9442 -2.5817 -3.2506
  506MOL0     H69809   7.587   0.699   8.000  3.5329  1.2334  2.5528
  506MOL0     H69810   7.098   0.840   8.084  0.9454  2.0904 -1.7051
  506MOL0     H69811   6.879   0.719   8.108 -0.4506 -0.8683  0.0536
  506MOL0     H69812   5.782   0.095   6.704 -0.7480  2.5439 -0.5154
  506MOL0     H69813   5.535   0.194   6.626 -3.3831 -0.9318  0.0607
  506MOL0     H69814   5.173   0.232   6.587 -0.5994  1.4844 -1.0640
  506MOL0     H69815   4.975   0.273   6.495 -0.1032  1.8155 -0.4896
  506MOL0     H69816   4.769   0.415   6.425 -2.0398  0.8915 -0.0230
  506MOL0     H69817   4.736   0.246   6.480  0.0893  0.5480 -5.0782
  506MOL0     H69818   4.511   0.328   6.559 -1.6687 -0.3892 -0.8311
  506MOL0     H69819   4.545   0.318   6.382  0.5569 -2.9716  0.8130
  506MOL0     H69820   4.505   0.554   6.565  0.4974 -1.2159  0.4588
  506MOL0     H69821   4.611   0.577   6.419  1.7409  0.0096  2.2442
  506MOL0     H69822   4.327   0.451   6.399  1.9766 -1.3597 -0.3818
  506MOL0     H69823   4.423   0.532   6.274 -1.1731  0.8038  0.1318
  506MOL0     H69824   4.184   0.837   6.432 -0.2300 -0.4060 -0.4673
  506MOL0     H69825   4.853   0.502   6.835  1.7740  1.1910 -0.0650
  506MOL0     H69826   5.073   0.371   7.057 -0.3406  2.0181  1.7668
  506MOL0     H69827   5.143   0.522   6.979  0.5095  0.1214 -2.8040
  506MOL0     H69828   4.966   0.503   7.022  0.4960  0.6727 -1.4826
  507MOL0     O69829   5.379   7.356   3.767  0.1767  0.2345 -0.0398
  507MOL0     C69830   5.420   7.312   3.662 -0.4865 -0.0618  1.0441
  507MOL0     O69831   5.554   7.306   3.634  0.3933 -0.5983 -0.7286
  507MOL0     C69832   5.644   7.378   3.707 -0.5336 -0.1567 -0.0656
  507MOL0     C69833   5.723   7.464   3.635 -0.2509  0.1701  0.2738
  507MOL0     C69834   5.830   7.528   3.693 -0.6773 -0.3595 -0.6535
  507MOL0     C69835   5.842   7.537   3.834  0.2706 -0.4274  0.3532
  507MOL0     O69836   5.942   7.609   3.889 -0.3471 -0.0439  0.2537
  507MOL0     C69837   6.075   7.565   3.867  0.7167  0.2100  0.2159
  507MOL0     C69838   6.162   7.604   3.985  0.0636 -1.0556 -0.3550
  507MOL0     C69839   6.302   7.631   3.936 -0.0848  0.8416 -0.4046
  507MOL0     C69840   6.393   7.682   4.051  0.2854 -0.3641  0.3674
  507MOL0     C69841   6.539   7.678   4.008  0.9251  0.2550 -0.1133
  507MOL0     C69842   6.633   7.683   4.129  0.2741  0.6227 -0.0564
  507MOL0     C69843   6.776   7.714   4.089 -0.5167 -0.1997 -0.2471
  507MOL0     C69844   6.830   7.614   3.981 -0.2721 -0.2651  0.6149
  507MOL0     N69845   6.978   7.617   3.985  0.1535 -1.0560  0.2296
  507MOL0     C69846   7.051   7.692   3.905 -1.3393  0.1648  0.5426
  507MOL0     C69847   7.177   7.640   3.902  0.4374 -0.1829  0.2143
  507MOL0     C69848   7.289   7.690   3.821  0.8654 -0.6804  0.8162
  507MOL0     C69849   7.428   7.656   3.871  0.0075  0.3862 -0.4847
  507MOL0     C69850   7.526   7.767   3.811 -0.6028 -1.0878  0.4624
  507MOL0     C69851   7.671   7.719   3.804 -0.7191 -0.5071  0.3960
  507MOL0     O69852   7.754   7.824   3.746  0.4119 -0.0011 -0.1934
  507MOL0     C69853   7.891   7.812   3.751 -0.1378  0.8783  0.4309
  507MOL0     C69854   7.958   7.701   3.813  0.6725 -0.5788 -0.2053
  507MOL0     C69855   8.100   7.688   3.803 -0.1393 -0.1730 -0.0703
  507MOL0     C69856   8.154   7.574   3.878 -0.7852  0.0605 -0.2633
  507MOL0     C69857   8.175   7.774   3.728 -0.5599 -0.9086  0.5893
  507MOL0     C69858   8.321   7.770   3.715 -0.2659 -0.1047  1.4838
  507MOL0     O69859   8.386   7.650   3.741 -0.1458 -0.1924 -0.7517
  507MOL0     C69860   8.524   7.633   3.765 -0.3288  0.2798 -0.3497
  507MOL0     C69861   8.619   7.739   3.765  0.6800 -0.4070 -0.1794
  507MOL0     C69862   8.748   7.725   3.802  0.2688 -0.2587 -0.1611
  507MOL0     C69863   8.792   7.593   3.841 -0.6777 -0.2399 -0.0859
  507MOL0     O69864   8.916   7.565   3.888 -0.1263  0.3659 -0.2905
  507MOL0     C69865   9.016   7.672   3.880 -0.5161  1.3821  0.3157
  507MOL0     C69866   9.115   7.637   4.000  0.0804  0.0273 -1.0752
  507MOL0     C69867   9.061   7.656   4.139 -1.1055  0.0685 -0.1831
  507MOL0     C69868   8.994   7.792   4.177 -0.2401 -0.3324 -0.3637
  507MOL0     C69869   8.976   7.803   4.327  0.4255  0.8376 -0.2859
  507MOL0     C69870   8.913   7.936   4.372  0.5373  0.3196  0.0206
  507MOL0     C69871   8.901   7.938   4.521  0.2617 -1.4235  0.2092
  507MOL0     C69872   8.852   8.079   4.561  0.9721 -0.1028  0.1875
  507MOL0    Cl69873   8.985   8.204   4.526 -0.2678 -0.2772  0.7585
  507MOL0     C69874   8.705   7.486   3.840  0.5449  0.9889  0.5075
  507MOL0     C69875   8.569   7.500   3.799  1.0505  0.1415 -0.1072
  507MOL0     O69876   8.370   7.871   3.665 -0.7942  0.3377 -0.3476
  507MOL0     C69877   8.099   7.874   3.657  0.1850 -0.0985 -0.1127
  507MOL0     C69878   7.964   7.898   3.669 -0.3158  1.0395  0.2866
  507MOL0     N69879   7.184   7.542   3.994 -0.3848 -0.0313 -0.0949
  507MOL0     N69880   7.067   7.522   4.035  1.3115 -0.7670  0.1606
  507MOL0     C69881   5.759   7.463   3.913  0.5542  0.0365  0.1971
  507MOL0     C69882   5.663   7.376   3.843 -0.0001  0.7030  0.7999
  507MOL0     C69883   5.322   7.263   3.558  0.0788  0.2000 -0.0847
  507MOL0     C69884   5.353   7.135   3.504  0.0519  0.4041 -0.3684
  507MOL0     C69885   5.251   7.083   3.428 -0.2140  0.6861  0.8269
  507MOL0     C69886   5.131   7.144   3.396 -0.0700  0.6223 -0.1149
  507MOL0     O69887   5.047   7.068   3.320 -0.0316 -0.7083 -0.3940
  507MOL0     C69888   4.908   7.102   3.298  0.2015 -0.1884  0.8433
  507MOL0     C69889   4.831   7.076   3.425  0.4028  0.0584 -0.1671
  507MOL0     C69890   4.676   7.104   3.407 -0.2794  0.3947  0.0818
  507MOL0     C69891   4.641   7.237   3.336 -0.0698 -0.3026  0.2629
  507MOL0     C69892   4.686   7.362   3.403  0.5241  0.3126 -0.5173
  507MOL0     C69893   4.735   7.459   3.460  0.3543  0.8294  0.0213
  507MOL0     C69894   5.105   7.270   3.456  0.4689 -0.0348 -0.0852
  507MOL0     C69895   5.199   7.328   3.542  0.0786 -0.2953 -0.0543
  507MOL0     C69896   5.154   7.466   3.606  0.1188 -0.4830  0.6964
  507MOL0     H69897   5.707   7.464   3.527 -1.0044  2.7875  0.3251
  507MOL0     H69898   5.897   7.589   3.633 -1.0899  2.7795  1.8464
  507MOL0     H69899   6.116   7.607   3.774 -1.7215 -0.5153 -1.2731
  507MOL0     H69900   6.079   7.456   3.854  0.6189  0.4587 -2.6415
  507MOL0     H69901   6.141   7.700   4.034  1.8901 -0.5381 -0.4776
  507MOL0     H69902   6.158   7.530   4.064 -0.5004 -2.0206 -1.2661
  507MOL0     H69903   6.346   7.536   3.903 -0.0820  0.6457  0.1580
  507MOL0     H69904   6.305   7.706   3.857 -0.7659  1.5058  0.1958
  507MOL0     H69905   6.358   7.783   4.073  0.3252  0.4916 -3.0128
  507MOL0     H69906   6.384   7.619   4.141  0.1228  1.2632  1.5393
  507MOL0     H69907   6.567   7.758   3.938  1.7971 -0.1960 -0.2968
  507MOL0     H69908   6.562   7.586   3.953 -0.8250 -1.3455  1.7167
  507MOL0     H69909   6.606   7.766   4.197  1.4371  1.1600 -0.2379
  507MOL0     H69910   6.629   7.598   4.198  2.1810  1.2177  0.8595
  507MOL0     H69911   6.835   7.718   4.182  0.3844  2.5499 -0.8353
  507MOL0     H69912   6.776   7.820   4.061 -2.3803  0.0885  0.6965
  507MOL0     H69913   6.798   7.513   4.007 -0.6752 -0.4979 -0.6940
  507MOL0     H69914   6.791   7.640   3.882 -1.0365 -1.0544  0.6911
  507MOL0     H69915   7.008   7.759   3.831  0.0302  1.7772  1.1457
  507MOL0     H69916   7.275   7.798   3.829  3.6669  0.0617 -2.2254
  507MOL0     H69917   7.281   7.655   3.718  1.3761 -1.3055  0.9802
  507MOL0     H69918   7.426   7.660   3.980 -0.6389 -2.1259 -0.3426
  507MOL0     H69919   7.456   7.554   3.845 -0.6047  0.2411 -0.5885
  507MOL0     H69920   7.500   7.788   3.707 -1.2007 -3.4048  0.0684
  507MOL0     H69921   7.510   7.854   3.876 -1.6427 -3.6055  3.9165
  507MOL0     H69922   7.702   7.687   3.904 -0.7469 -1.8662 -0.0158
  507MOL0     H69923   7.681   7.645   3.724 -0.7808  1.1612 -1.2264
  507MOL0     H69924   7.900   7.632   3.874  2.1397 -0.9382  0.8477
  507MOL0     H69925   8.081   7.540   3.953  0.9499 -0.0497  1.4618
  507MOL0     H69926   8.247   7.596   3.930  1.0638 -0.6665 -3.0753
  507MOL0     H69927   8.179   7.490   3.813  2.3240  2.0026 -1.7535
  507MOL0     H69928   8.583   7.837   3.733  0.2269 -0.6707 -0.4919
  507MOL0     H69929   8.806   7.817   3.800 -1.1963  0.6807 -1.1049
  507MOL0     H69930   9.066   7.663   3.784  0.9456 -4.6747  1.2066
  507MOL0     H69931   8.980   7.775   3.891 -0.2858  1.5322 -0.3299
  507MOL0     H69932   9.157   7.536   3.999  1.3511  0.5282 -0.4518
  507MOL0     H69933   9.201   7.704   4.002  0.6697 -0.6959  1.6920
  507MOL0     H69934   9.145   7.656   4.209 -1.0452 -1.8829 -0.1835
  507MOL0     H69935   8.993   7.575   4.169  1.3680 -3.3559 -2.9333
  507MOL0     H69936   8.904   7.807   4.118 -0.6686 -1.2110  0.0330
  507MOL0     H69937   9.068   7.865   4.145  3.9022 -4.3612 -1.1316
  507MOL0     H69938   8.912   7.720   4.357  0.3490 -0.0984 -2.7698
  507MOL0     H69939   9.069   7.783   4.382  1.6216  2.2683 -1.6563
  507MOL0     H69940   8.811   7.942   4.332  0.4743  0.1510  0.1517
  507MOL0     H69941   8.975   8.014   4.328  0.7211 -0.2202 -0.6799
  507MOL0     H69942   9.000   7.928   4.566  0.8280  0.4504 -0.5014
  507MOL0     H69943   8.845   7.852   4.558 -1.6396  0.3133  1.6670
  507MOL0     H69944   8.835   8.078   4.669 -1.2236 -0.0603 -0.1083
  507MOL0     H69945   8.761   8.105   4.506  0.4409  0.7266  1.4225
  507MOL0     H69946   8.742   7.388   3.869  1.5659  1.0343 -0.5733
  507MOL0     H69947   8.511   7.409   3.785  2.0891 -0.0963 -3.8008
  507MOL0     H69948   8.139   7.945   3.585 -1.3334  0.7213 -0.1883
  507MOL0     H69949   7.911   7.985   3.630 -1.5186 -0.3556 -1.3056
  507MOL0     H69950   5.789   7.451   4.017  3.8094 -2.5135 -0.8575
  507MOL0     H69951   5.614   7.303   3.906  1.9485  0.4497  2.1034
  507MOL0     H69952   5.439   7.073   3.526 -0.8525 -0.8662 -0.3250
  507MOL0     H69953   5.276   6.987   3.383 -0.3136  1.6329 -1.3882
  507MOL0     H69954   4.900   7.208   3.273  0.9929 -0.2448  0.3215
  507MOL0     H69955   4.875   7.036   3.217 -1.6551 -0.2493  1.5977
  507MOL0     H69956   4.876   7.133   3.507  0.4133 -0.5588  0.2646
  507MOL0     H69957   4.841   6.969   3.444  0.2700 -0.6452 -3.5124
  507MOL0     H69958   4.641   7.021   3.345  1.6621  0.6080 -1.3906
  507MOL0     H69959   4.632   7.110   3.507  2.1978 -0.9390  1.3312
  507MOL0     H69960   4.534   7.249   3.319  0.4223  0.5721 -2.7868
  507MOL0     H69961   4.690   7.248   3.239  0.7269 -2.8416  0.3067
  507MOL0     H69962   4.797   7.533   3.506  0.3164  1.3715 -0.7779
  507MOL0     H69963   5.012   7.323   3.436  2.0381  2.8655 -0.2113
  507MOL0     H69964   5.246   7.522   3.622 -1.3482  2.3571 -0.1089
  507MOL0     H69965   5.084   7.524   3.544 -5.0336 -3.7454  2.8005
  507MOL0     H69966   5.097   7.450   3.698 -0.0907  2.4234  1.1499
  508MOL0     O69967  10.599   9.011   2.118 -0.7846 -0.1065 -0.3221
  508MOL0     C69968  10.556   8.989   2.004 -0.3352 -0.0579  0.2198
  508MOL0     O69969  10.621   8.915   1.903 -0.2639 -0.2328 -0.3931
  508MOL0     C69970  10.755   8.892   1.914  0.2122 -0.0850 -0.2704
  508MOL0     C69971  10.799   8.770   1.854  0.4743 -0.3397 -0.4407
  508MOL0     C69972  10.932   8.733   1.876  0.4680  0.5478 -1.0771
  508MOL0     C69973  11.022   8.826   1.929 -1.1369 -0.3822  0.8507
  508MOL0     O69974  11.161   8.810   1.947 -0.0164  0.2245  0.7491
  508MOL0     C69975  11.218   8.687   1.908 -0.1108 -0.3488 -0.2618
  508MOL0     C69976  11.372   8.695   1.884  0.3938 -0.4922 -0.1382
  508MOL0     C69977  11.441   8.803   1.967  0.4469  0.1096 -0.6073
  508MOL0     C69978  11.595   8.799   1.922  0.7406  0.3696 -0.4236
  508MOL0     C69979  11.663   8.696   2.014  0.7601 -0.1965 -0.6135
  508MOL0     C69980  11.811   8.688   1.972 -1.0746  0.4424  0.7019
  508MOL0     C69981  11.879   8.586   2.057  0.6049  0.1829 -0.5492
  508MOL0     C69982  12.030   8.564   2.033  0.0731  0.0141 -0.3064
  508MOL0     N69983  12.055   8.499   1.909 -0.2025 -0.5770  0.6527
  508MOL0     C69984  11.988   8.390   1.864 -0.0518  1.0128 -0.0743
  508MOL0     C69985  12.062   8.337   1.765 -0.3542  0.2882 -0.4323
  508MOL0     C69986  12.042   8.207   1.695  0.0399  0.3182  0.2628
  508MOL0     C69987  12.032   8.218   1.546 -0.0757  0.3482 -0.2731
  508MOL0     C69988  11.905   8.297   1.507 -0.0154 -0.3361  0.2834
  508MOL0     C69989  11.900   8.350   1.363  0.1790  0.2529  0.5599
  508MOL0     O69990  12.004   8.453   1.347  0.0917  0.2528  0.4619
  508MOL0     C69991  12.124   8.436   1.274  0.0690  0.1839  0.0351
  508MOL0     C69992  12.166   8.315   1.224 -0.0932  0.1785 -0.3445
  508MOL0     C69993  12.298   8.301   1.162  0.8397  0.5340 -0.6412
  508MOL0     C69994  12.347   8.164   1.136  0.3163  0.5259  0.3357
  508MOL0     C69995  12.370   8.423   1.135  0.5893  0.3829 -0.1262
  508MOL0     C69996  12.497   8.429   1.062 -0.3591 -0.1591 -0.3660
  508MOL0     O69997  12.592   8.523   1.096 -0.0726  0.1079  0.1986
  508MOL0     C69998  12.693   8.535   1.004 -0.1147 -0.8333 -0.0815
  508MOL0     C69999  12.822   8.476   1.023  1.0312 -0.2744  0.1997
  508MOL0     C70000  12.925   8.498   0.928  0.6497 -0.3515  0.0152
  508MOL0     C70001  12.905   8.576   0.813 -0.7849  0.1779  0.0556
  508MOL0     O70002  13.015   8.588   0.729  0.3787 -0.1518 -0.4891
  508MOL0     C70003  13.028   8.716   0.668 -0.6355 -0.9889 -0.9015
  508MOL0     C70004  13.150   8.708   0.573  0.3459  0.7353 -0.4447
  508MOL0     C70005  13.292   8.688   0.636 -0.1686 -0.0820  0.4942
  508MOL0     C70006  13.346   8.831   0.676 -0.1947 -0.1131 -0.4699
  508MOL0     C70007  13.475   8.824   0.767 -0.1184  0.1320 -0.2365
  508MOL0     C70008  13.601   8.769   0.703 -1.4085  0.8601 -0.6726
  508MOL0     C70009  13.730   8.789   0.796  0.7372 -0.6319  0.6034
  508MOL0     C70010  13.837   8.701   0.753 -0.0704  0.8059 -0.3404
  508MOL0    Cl70011  13.910   8.751   0.600 -0.1952  0.4334  0.3026
  508MOL0     C70012  12.781   8.640   0.802 -0.5003  0.1292 -0.2122
  508MOL0     C70013  12.680   8.633   0.897 -0.2614  0.3791  0.3645
  508MOL0     O70014  12.502   8.347   0.973  0.2961 -0.2495  0.3881
  508MOL0     C70015  12.321   8.547   1.188 -0.3929  0.2049  0.8631
  508MOL0     C70016  12.207   8.552   1.258  0.5778  0.1154 -0.0686
  508MOL0     N70017  12.169   8.419   1.747 -0.0151  0.9192  0.2160
  508MOL0     N70018  12.166   8.513   1.830  0.5479 -0.0118 -0.3365
  508MOL0     C70019  10.974   8.946   1.983 -0.4703  0.7759  0.1940
  508MOL0     C70020  10.839   8.978   1.982  0.0916  0.4827 -0.4434
  508MOL0     C70021  10.409   9.020   1.979  0.3702 -0.0501  0.3523
  508MOL0     C70022  10.338   8.924   1.914  0.2267  0.3169 -0.2323
  508MOL0     C70023  10.204   8.950   1.880  0.3769 -0.5638  0.4389
  508MOL0     C70024  10.135   9.072   1.919  0.3716 -0.1687 -0.1791
  508MOL0     O70025  10.007   9.084   1.872  0.1935 -0.3474  0.1294
  508MOL0     C70026   9.947   9.214   1.869 -0.2454  0.4841 -0.3357
  508MOL0     C70027   9.828   9.208   1.774 -1.3211  0.7562 -0.1736
  508MOL0     C70028   9.719   9.113   1.811  0.7649  0.0964  0.6296
  508MOL0     C70029   9.597   9.102   1.723 -0.0295  0.1534  0.7601
  508MOL0     C70030   9.497   9.009   1.785  0.3619 -0.1377 -0.9673
  508MOL0     C70031   9.409   8.942   1.847 -0.9957  0.0332  0.2144
  508MOL0     C70032  10.204   9.161   1.991 -0.3999 -0.2027 -0.4478
  508MOL0     C70033  10.340   9.142   2.019 -0.4974  0.4657  0.0866
  508MOL0     C70034  10.407   9.245   2.091 -1.5572 -0.3488  0.5775
  508MOL0     H70035  10.735   8.700   1.803 -2.3767  1.6004  0.2183
  508MOL0     H70036  10.963   8.633   1.848  2.2059  0.3981  1.0818
  508MOL0     H70037  11.170   8.658   1.814 -2.1521 -1.2426  0.9889
  508MOL0     H70038  11.207   8.616   1.991 -0.5223  0.2917  0.2430
  508MOL0     H70039  11.417   8.597   1.902 -1.6774 -1.5341 -0.2723
  508MOL0     H70040  11.392   8.728   1.782  0.0464  4.0228  1.0399
  508MOL0     H70041  11.404   8.903   1.940 -2.3888 -0.7971 -0.3414
  508MOL0     H70042  11.421   8.786   2.073 -0.0935 -2.0568 -1.0127
  508MOL0     H70043  11.601   8.771   1.817 -4.3909 -1.7980 -0.4157
  508MOL0     H70044  11.645   8.896   1.930 -1.0476  1.4410 -1.6565
  508MOL0     H70045  11.622   8.596   2.002 -4.1243  1.3392  0.9034
  508MOL0     H70046  11.643   8.734   2.115 -0.4196  3.5191 -2.0402
  508MOL0     H70047  11.819   8.662   1.866  1.7850  1.3060  0.6130
  508MOL0     H70048  11.865   8.783   1.980  2.6325 -1.5344  1.5381
  508MOL0     H70049  11.836   8.486   2.046 -1.4192  0.5029  3.0109
  508MOL0     H70050  11.862   8.600   2.164 -4.4618 -1.9190 -0.7973
  508MOL0     H70051  12.083   8.660   2.039 -0.4266  0.4268 -1.9115
  508MOL0     H70052  12.078   8.491   2.098 -0.0839 -1.1259 -1.4396
  508MOL0     H70053  11.891   8.352   1.893  0.0928  0.3560 -0.4186
  508MOL0     H70054  11.955   8.149   1.727  0.0206 -0.9312 -1.8688
  508MOL0     H70055  12.131   8.148   1.718 -0.1049 -0.4936 -1.1241
  508MOL0     H70056  12.119   8.274   1.512  0.6888 -1.9595 -2.4548
  508MOL0     H70057  12.021   8.119   1.500 -0.9106  1.2519 -2.1170
  508MOL0     H70058  11.814   8.239   1.528  0.9608 -1.8240  0.5062
  508MOL0     H70059  11.893   8.384   1.572  0.1925 -0.9081  1.0975
  508MOL0     H70060  11.888   8.272   1.287 -1.9305 -0.1082  1.2003
  508MOL0     H70061  11.806   8.404   1.349 -1.0974 -1.9542  0.1866
  508MOL0     H70062  12.109   8.228   1.255  0.7887 -0.5344 -0.6774
  508MOL0     H70063  12.348   8.142   1.029 -0.9194  2.0608 -0.0396
  508MOL0     H70064  12.299   8.078   1.182 -1.5015 -0.2188 -2.6626
  508MOL0     H70065  12.449   8.156   1.173  0.8420 -4.5769 -1.5031
  508MOL0     H70066  12.830   8.406   1.105 -2.4619 -0.6275  0.4053
  508MOL0     H70067  13.021   8.454   0.954  1.0419  0.9614  0.9007
  508MOL0     H70068  12.941   8.737   0.606 -1.4696 -0.0889  0.5238
  508MOL0     H70069  13.040   8.787   0.750  0.8640 -3.0681  0.8037
  508MOL0     H70070  13.121   8.622   0.513 -2.6985  1.6517 -0.4739
  508MOL0     H70071  13.145   8.790   0.501 -0.4171  0.7838 -0.3397
  508MOL0     H70072  13.356   8.641   0.560 -3.4550 -1.6725 -1.5306
  508MOL0     H70073  13.299   8.615   0.717 -0.7617 -3.0925 -1.9573
  508MOL0     H70074  13.277   8.900   0.726 -0.1498 -1.0375  0.9317
  508MOL0     H70075  13.386   8.881   0.587  1.3522 -1.0186 -0.3186
  508MOL0     H70076  13.502   8.924   0.802 -1.3321  1.5493 -2.9752
  508MOL0     H70077  13.461   8.766   0.858 -0.5050  3.5237  2.0843
  508MOL0     H70078  13.629   8.815   0.608  0.6547  1.7598  0.3133
  508MOL0     H70079  13.602   8.659   0.698  4.4544  0.5310  0.3696
  508MOL0     H70080  13.701   8.765   0.899 -1.7073 -2.7931 -0.4875
  508MOL0     H70081  13.766   8.892   0.792  0.0225 -0.3222  1.7426
  508MOL0     H70082  13.811   8.595   0.755  1.1225  0.5041  0.3997
  508MOL0     H70083  13.923   8.714   0.820  0.7530  1.2726 -1.4485
  508MOL0     H70084  12.764   8.718   0.728 -1.3670 -1.4452 -1.7397
  508MOL0     H70085  12.589   8.689   0.880 -0.6071 -0.5017 -0.8184
  508MOL0     H70086  12.370   8.643   1.172 -1.7914  0.4677 -2.7789
  508MOL0     H70087  12.174   8.645   1.302  0.4972  0.2520 -0.4079
  508MOL0     H70088  11.053   9.007   2.027 -1.8091  0.9148  2.5944
  508MOL0     H70089  10.807   9.074   2.021  0.9390  0.8838 -0.6935
  508MOL0     H70090  10.384   8.828   1.891 -0.4417 -0.4890  1.6217
  508MOL0     H70091  10.156   8.867   1.829  1.4763 -0.7920 -0.2450
  508MOL0     H70092   9.912   9.252   1.966 -0.9452 -0.2123 -0.3106
  508MOL0     H70093  10.012   9.292   1.830 -1.6144  1.4154 -0.8042
  508MOL0     H70094   9.863   9.186   1.673  1.6506  2.0201  0.5028
  508MOL0     H70095   9.788   9.309   1.768  1.2252  1.8088 -0.5597
  508MOL0     H70096   9.773   9.017   1.813 -1.1933 -1.0636 -0.0482
  508MOL0     H70097   9.690   9.141   1.913 -2.7357  3.2645 -1.0271
  508MOL0     H70098   9.617   9.069   1.620  1.1685 -0.0202  1.0368
  508MOL0     H70099   9.554   9.202   1.715  0.3568  0.2229 -0.9065
  508MOL0     H70100   9.333   8.878   1.886 -2.0917 -0.6822 -2.8274
  508MOL0     H70101  10.160   9.257   2.015 -1.0811 -0.3194 -1.1915
  508MOL0     H70102  10.514   9.258   2.073 -2.0090  1.8613 -0.8885
  508MOL0     H70103  10.378   9.346   2.061  1.4744  0.6615  0.6658
  508MOL0     H70104  10.388   9.220   2.195 -0.5038  0.9016  1.0940
  509MOL0     O70105   9.202   9.221   9.148 -1.2245  1.1150 -0.0879
  509MOL0     C70106   9.159   9.160   9.247 -0.3011  0.1639 -0.0724
  509MOL0     O70107   9.197   9.188   9.373  0.3049 -0.0890 -0.1135
  509MOL0     C70108   9.295   9.283   9.393  0.3926  0.7090  0.3739
  509MOL0     C70109   9.309   9.308   9.526 -0.8729  0.2548 -0.4412
  509MOL0     C70110   9.394   9.404   9.568 -0.8687 -0.1138  0.1504
  509MOL0     C70111   9.474   9.480   9.487  0.0486  1.1135  0.7175
  509MOL0     O70112   9.554   9.580   9.528 -0.0668 -0.0881 -0.6709
  509MOL0     C70113   9.687   9.594   9.472  0.7419 -0.0138 -0.9949
  509MOL0     C70114   9.779   9.650   9.590  0.4391  0.8787  0.2488
  509MOL0     C70115   9.766   9.806   9.590  0.4150  0.0570 -1.0279
  509MOL0     C70116   9.848   9.873   9.695 -1.0145 -0.2458 -0.6748
  509MOL0     C70117   9.828  10.030   9.691  0.2735 -0.6919  0.5312
  509MOL0     C70118   9.886  10.093   9.561 -0.4557  0.5233  0.0845
  509MOL0     C70119   9.903  10.237   9.564 -0.0844 -0.6120  0.5287
  509MOL0     C70120   9.955  10.299   9.430 -0.1074  0.9101 -0.1264
  509MOL0     N70121  10.070  10.226   9.380 -0.5177 -0.4607  0.2574
  509MOL0     C70122  10.073  10.124   9.286  0.4937  0.2017 -0.0911
  509MOL0     C70123  10.201  10.093   9.272 -0.7475  0.8244  0.2866
  509MOL0     C70124  10.271   9.979   9.190  0.3485  0.6005 -0.1220
  509MOL0     C70125  10.243   9.841   9.257 -0.1164  0.0911 -0.6665
  509MOL0     C70126  10.318   9.823   9.388  0.1123  0.0051 -0.8290
  509MOL0     C70127  10.373   9.680   9.401 -0.1206  0.2995  0.1627
  509MOL0     O70128  10.465   9.656   9.511 -0.2900 -0.0421  0.1148
  509MOL0     C70129  10.594   9.660   9.482  0.4595 -0.1881 -0.4448
  509MOL0     C70130  10.674   9.605   9.577 -0.9193 -0.7531  0.0421
  509MOL0     C70131  10.814   9.592   9.563 -0.5293  0.0725 -0.0631
  509MOL0     C70132  10.884   9.507   9.674 -0.5743 -0.5918  0.4792
  509MOL0     C70133  10.879   9.641   9.448  0.0252 -0.3116 -0.9296
  509MOL0     C70134  11.027   9.639   9.429 -0.3662  0.5085  0.3918
  509MOL0     O70135  11.107   9.679   9.532  0.0619 -0.0157 -0.6276
  509MOL0     C70136  11.242   9.686   9.524  0.3454  0.3120 -0.2782
  509MOL0     C70137  11.325   9.582   9.473 -0.1357  0.1589 -0.3231
  509MOL0     C70138  11.467   9.597   9.459  0.2075 -0.4878  0.3730
  509MOL0     C70139  11.524   9.715   9.524  0.5385 -0.5904 -0.5767
  509MOL0     O70140  11.656   9.727   9.528  0.1303  0.0357 -0.2744
  509MOL0     C70141  11.729   9.832   9.594 -0.8493 -0.1640 -1.1697
  509MOL0     C70142  11.887   9.812   9.589  0.1110  0.2202  0.0652
  509MOL0     C70143  11.931   9.663   9.620 -0.4319 -0.0107 -0.7509
  509MOL0     C70144  11.909   9.636   9.770  0.2667  0.3261 -0.7321
  509MOL0     C70145  11.958   9.506   9.828  0.0364 -0.2010 -0.4058
  509MOL0     C70146  11.904   9.392   9.751  0.3444 -0.0875 -0.1305
  509MOL0     C70147  11.896   9.266   9.830 -0.2138 -0.6045 -0.2648
  509MOL0     C70148  11.842   9.136   9.772  0.6183  0.7626 -0.7432
  509MOL0    Cl70149  11.945   9.089   9.643 -0.2014  0.0518  0.2144
  509MOL0     C70150  11.438   9.817   9.576  0.3757 -0.0179  0.5555
  509MOL0     C70151  11.301   9.804   9.569 -0.0613  0.7309  0.1046
  509MOL0     O70152  11.063   9.616   9.312 -0.5711 -0.2144 -0.0019
  509MOL0     C70153  10.799   9.705   9.358  0.7005  0.7119  0.1153
  509MOL0     C70154  10.657   9.703   9.367 -0.3034 -0.0139  0.4062
  509MOL0     N70155  10.279  10.167   9.356 -0.2600 -0.6663 -0.4275
  509MOL0     N70156  10.194  10.244   9.425 -0.4973 -0.1021  0.6013
  509MOL0     C70157   9.463   9.451   9.356 -0.0713 -0.4653  0.5131
  509MOL0     C70158   9.381   9.353   9.310 -0.5552 -1.1144 -0.0101
  509MOL0     C70159   9.080   9.044   9.211 -0.2227 -0.8028  0.2304
  509MOL0     C70160   8.958   9.057   9.129  0.0035  0.4102  0.2349
  509MOL0     C70161   8.884   8.942   9.096 -0.1473 -0.3192  0.6009
  509MOL0     C70162   8.918   8.818   9.144  0.4455 -0.0730  0.4427
  509MOL0     O70163   8.858   8.700   9.108 -0.5784 -0.1518 -0.0378
  509MOL0     C70164   8.765   8.706   9.005 -0.6478  0.4980 -0.2758
  509MOL0     C70165   8.641   8.727   9.089 -0.4073 -0.4954 -0.0528
  509MOL0     C70166   8.518   8.684   9.002  0.0758 -0.0353 -0.0123
  509MOL0     C70167   8.390   8.752   9.052 -0.0147  0.7085 -0.1223
  509MOL0     C70168   8.277   8.754   8.954  0.2051 -0.1015 -0.3910
  509MOL0     C70169   8.191   8.735   8.873  0.3236  0.3039  0.2577
  509MOL0     C70170   9.030   8.812   9.223 -0.3904 -0.5187 -0.6988
  509MOL0     C70171   9.112   8.918   9.254 -0.6538  0.3621  0.2997
  509MOL0     C70172   9.224   8.892   9.345  0.4603 -0.5093  0.2880
  509MOL0     H70173   9.262   9.235   9.592 -1.1209 -2.2954 -3.2178
  509MOL0     H70174   9.412   9.417   9.674  1.8994  0.5402 -0.3237
  509MOL0     H70175   9.673   9.661   9.387  2.0255 -0.8564 -1.9079
  509MOL0     H70176   9.732   9.501   9.438  1.0989 -0.0768 -0.3843
  509MOL0     H70177   9.757   9.605   9.687  1.6473 -1.7410 -0.6130
  509MOL0     H70178   9.881   9.619   9.569  0.0004 -0.0815 -0.5525
  509MOL0     H70179   9.791   9.836   9.488  0.2226  0.9115 -0.8346
  509MOL0     H70180   9.659   9.823   9.610  0.9778 -0.5771  3.7357
  509MOL0     H70181   9.801   9.841   9.788 -1.5242  1.5929 -0.2525
  509MOL0     H70182   9.955   9.848   9.692 -1.3452 -1.9827  0.6179
  509MOL0     H70183   9.870  10.083   9.777 -1.6383  1.5515  0.1853
  509MOL0     H70184   9.722  10.055   9.692 -0.2864 -2.8211  0.0626
  509MOL0     H70185   9.975  10.036   9.530  0.1585  0.6874  1.4918
  509MOL0     H70186   9.808  10.069   9.487 -0.2610  0.0693  0.0214
  509MOL0     H70187   9.973  10.259   9.644  1.8214  1.3941 -1.5651
  509MOL0     H70188   9.816  10.298   9.592 -0.5271 -0.3383 -1.2930
  509MOL0     H70189   9.870  10.285   9.364 -0.5484 -2.6690  0.9986
  509MOL0     H70190   9.968  10.406   9.447  0.4258  0.7953  0.2175
  509MOL0     H70191   9.983  10.084   9.240  0.2696  0.6562 -0.0478
  509MOL0     H70192  10.378  10.000   9.187  0.5234 -0.2006  0.1180
  509MOL0     H70193  10.239   9.973   9.086  4.3454  2.2161 -1.6207
  509MOL0     H70194  10.134   9.838   9.265 -0.1284  0.2191 -0.7877
  509MOL0     H70195  10.269   9.756   9.192 -2.3495 -0.6214 -0.7350
  509MOL0     H70196  10.403   9.892   9.392 -0.5026  0.7251  0.6565
  509MOL0     H70197  10.250   9.852   9.469 -1.0302  0.3767 -1.8890
  509MOL0     H70198  10.285   9.616   9.404 -0.7896  1.0693 -1.4945
  509MOL0     H70199  10.421   9.644   9.310 -2.0899 -3.0741  0.3205
  509MOL0     H70200  10.625   9.573   9.669 -0.0769  1.1587  1.2229
  509MOL0     H70201  10.854   9.402   9.665 -2.7220 -0.1477  1.9590
  509MOL0     H70202  10.856   9.551   9.770  0.1246  3.7072 -1.0511
  509MOL0     H70203  10.992   9.513   9.656 -0.4906  0.3732  1.2184
  509MOL0     H70204  11.279   9.488   9.442 -1.3419  0.4599  0.4864
  509MOL0     H70205  11.536   9.524   9.417  1.4576  1.6844 -1.5644
  509MOL0     H70206  11.706   9.931   9.554 -3.3243  0.1565  0.7534
  509MOL0     H70207  11.704   9.846   9.700  0.4168 -0.7007 -0.7784
  509MOL0     H70208  11.924   9.834   9.488 -1.0558  0.4720 -0.3217
  509MOL0     H70209  11.936   9.883   9.656  0.9521 -0.2131 -0.0811
  509MOL0     H70210  12.035   9.665   9.587 -0.5184  0.7844 -0.9987
  509MOL0     H70211  11.885   9.591   9.552 -1.1536 -1.2133  0.9342
  509MOL0     H70212  11.801   9.641   9.790  0.3649  2.8713 -0.5222
  509MOL0     H70213  11.946   9.726   9.820 -1.7993  1.2835 -0.8143
  509MOL0     H70214  12.067   9.492   9.832 -0.3183 -3.6010  2.3554
  509MOL0     H70215  11.928   9.512   9.933  2.2962  0.9463  0.2430
  509MOL0     H70216  11.972   9.379   9.666  0.1196  0.7306 -0.4452
  509MOL0     H70217  11.805   9.414   9.711 -0.4280  0.2195  1.8487
  509MOL0     H70218  11.837   9.290   9.918  3.2246 -1.6198  2.5680
  509MOL0     H70219  11.997   9.242   9.865 -0.4333  2.4024  2.9053
  509MOL0     H70220  11.737   9.125   9.741  0.9140 -4.7910 -0.8596
  509MOL0     H70221  11.846   9.060   9.851 -1.6644 -0.0964 -1.3493
  509MOL0     H70222  11.489   9.906   9.612  4.7518 -2.6996  1.7384
  509MOL0     H70223  11.236   9.883   9.606  0.5437  1.0996  0.3916
  509MOL0     H70224  10.837   9.740   9.262 -1.6205  0.3337 -1.0335
  509MOL0     H70225  10.611   9.755   9.284 -0.5953 -0.0335  0.5532
  509MOL0     H70226   9.520   9.492   9.272 -1.7840  0.5927 -0.1875
  509MOL0     H70227   9.387   9.330   9.204 -0.1936 -1.4448  0.0810
  509MOL0     H70228   8.925   9.154   9.093  0.0065  0.8741  1.4250
  509MOL0     H70229   8.802   8.952   9.025  1.3865 -1.1395 -1.3817
  509MOL0     H70230   8.800   8.762   8.917  1.1477 -0.2553 -0.0851
  509MOL0     H70231   8.756   8.603   8.969  0.5231 -0.3356  1.6748
  509MOL0     H70232   8.627   8.835   9.104  2.5823  0.5034 -3.1945
  509MOL0     H70233   8.648   8.672   9.183  2.7015 -0.3636 -0.0884
  509MOL0     H70234   8.538   8.717   8.900  0.5221  1.9782  0.6734
  509MOL0     H70235   8.509   8.575   9.008 -1.3429  0.0073 -0.9523
  509MOL0     H70236   8.422   8.855   9.071  1.5223 -0.1709  2.5300
  509MOL0     H70237   8.356   8.715   9.149  2.9211  1.1388  1.1847
  509MOL0     H70238   8.114   8.721   8.800  1.1775 -1.5315 -0.3490
  509MOL0     H70239   9.072   8.715   9.246 -0.4068 -0.6687 -1.2896
  509MOL0     H70240   9.217   8.790   9.384 -2.4041  0.1040  1.6606
  509MOL0     H70241   9.316   8.899   9.286  0.1352  2.2535 -0.0267
  509MOL0     H70242   9.226   8.954   9.435 -2.0456 -0.0598  0.1173
  510MOL0     O70243   3.377   7.342   1.834  0.1640  0.5837  0.1860
  510MOL0     C70244   3.366   7.438   1.907  0.1806  0.2990  0.3460
  510MOL0     O70245   3.468   7.494   1.974 -0.6234 -0.3799  0.5991
  510MOL0     C70246   3.589   7.442   1.951 -0.1998  0.6799 -0.1557
  510MOL0     C70247   3.629   7.309   1.991  0.3799  0.3089 -0.4418
  510MOL0     C70248   3.760   7.269   1.986 -0.2394 -0.3255  0.4355
  510MOL0     C70249   3.862   7.348   1.932  0.2512  0.9484  0.7812
  510MOL0     O70250   3.994   7.305   1.922  0.4800  0.7946 -0.0394
  510MOL0     C70251   4.010   7.171   1.868 -0.5096  0.7706  0.6524
  510MOL0     C70252   4.155   7.154   1.832 -0.4808 -0.7954 -0.3509
  510MOL0     C70253   4.226   7.270   1.752 -0.7330 -0.1552 -0.4241
  510MOL0     C70254   4.292   7.381   1.849  0.4744 -0.2683  0.4455
  510MOL0     C70255   4.320   7.504   1.764  0.3486  0.4426  0.2400
  510MOL0     C70256   4.459   7.503   1.703  0.2969 -0.4011 -0.2036
  510MOL0     C70257   4.506   7.635   1.638  0.4585 -0.6736 -1.2626
  510MOL0     C70258   4.409   7.686   1.528  0.2389 -0.6518  0.1298
  510MOL0     N70259   4.404   7.593   1.418 -0.0977 -1.2626 -0.0324
  510MOL0     C70260   4.507   7.580   1.334 -0.2940 -0.5767 -0.6808
  510MOL0     C70261   4.456   7.499   1.245 -0.1371  0.0373  0.1539
  510MOL0     C70262   4.503   7.453   1.113  0.8614  0.6527 -0.1305
  510MOL0     C70263   4.627   7.362   1.123 -0.4089  0.6145  0.7020
  510MOL0     C70264   4.697   7.356   0.985  0.3941  0.3150  0.5640
  510MOL0     C70265   4.778   7.234   0.966 -0.5656 -0.0127 -0.0555
  510MOL0     O70266   4.876   7.209   1.070  0.6563  0.1465  0.1863
  510MOL0     C70267   5.007   7.172   1.032 -0.6084  0.2338  0.2717
  510MOL0     C70268   5.041   7.122   0.904  0.2680 -0.4863 -0.1883
  510MOL0     C70269   5.177   7.089   0.876  0.2820 -0.1495  0.1563
  510MOL0     C70270   5.210   7.043   0.729  0.3788  0.7010 -1.0911
  510MOL0     C70271   5.280   7.099   0.977  0.5233 -0.9178  0.2255
  510MOL0     C70272   5.416   7.050   0.948  0.1219 -0.1437 -0.3387
  510MOL0     O70273   5.423   6.917   0.907  0.1462 -0.6611 -0.3714
  510MOL0     C70274   5.541   6.879   0.849 -0.4748 -0.4371 -0.2638
  510MOL0     C70275   5.622   6.785   0.912  0.1255  0.0556 -0.7829
  510MOL0     C70276   5.747   6.753   0.860 -0.3442  0.4832  0.5180
  510MOL0     C70277   5.783   6.787   0.729  0.4045  0.2835  0.2384
  510MOL0     O70278   5.891   6.744   0.658  0.1713 -0.4000 -0.7561
  510MOL0     C70279   5.948   6.619   0.684  0.2949  0.0506 -0.2228
  510MOL0     C70280   6.075   6.632   0.601 -0.8424  0.4034  0.7072
  510MOL0     C70281   6.136   6.493   0.570  0.2529  0.7129  0.3692
  510MOL0     C70282   6.271   6.515   0.498  0.2102 -0.0222  0.9754
  510MOL0     C70283   6.289   6.401   0.396  0.0355  0.4475 -0.7267
  510MOL0     C70284   6.421   6.404   0.322 -0.0686  0.3008 -0.4222
  510MOL0     C70285   6.430   6.504   0.206  0.2464 -0.7466  0.2605
  510MOL0     C70286   6.574   6.507   0.157 -0.8802  0.8194  0.7087
  510MOL0    Cl70287   6.642   6.342   0.114 -0.1091 -0.2759  0.0558
  510MOL0     C70288   5.689   6.869   0.659  0.6522 -0.1168  0.0974
  510MOL0     C70289   5.580   6.925   0.727 -0.0034 -0.4436 -0.6509
  510MOL0     O70290   5.513   7.121   0.980  0.0518 -0.1543  0.1898
  510MOL0     C70291   5.245   7.140   1.103 -0.1581  0.6250 -0.1400
  510MOL0     C70292   5.102   7.183   1.131 -0.5369 -0.2367 -0.2445
  510MOL0     N70293   4.331   7.456   1.275  0.0098  0.4844 -0.2407
  510MOL0     N70294   4.301   7.512   1.386 -0.2987 -0.2655 -0.1534
  510MOL0     C70295   3.828   7.470   1.878  0.4237  0.4193 -1.3086
  510MOL0     C70296   3.695   7.522   1.890  0.4185  0.4320 -0.4630
  510MOL0     C70297   3.229   7.504   1.917 -0.3503  0.8348 -0.2738
  510MOL0     C70298   3.203   7.571   2.038 -0.2514 -0.2931 -0.4914
  510MOL0     C70299   3.079   7.627   2.070  0.3511  0.2568  0.4252
  510MOL0     C70300   2.972   7.627   1.975 -0.1501  0.0400  0.0384
  510MOL0     O70301   2.843   7.675   2.005  0.5907  0.4788  0.2669
  510MOL0     C70302   2.827   7.805   1.953 -0.9905  0.1193  0.1466
  510MOL0     C70303   2.896   7.924   2.021 -0.3708  0.4920  0.4965
  510MOL0     C70304   2.847   7.954   2.161  0.2894  0.1801 -0.3766
  510MOL0     C70305   2.875   8.095   2.210 -0.7225 -0.3634 -0.4343
  510MOL0     C70306   3.004   8.144   2.187 -0.0051 -0.4028 -1.1051
  510MOL0     C70307   3.112   8.199   2.171 -0.0990 -0.5044 -0.4503
  510MOL0     C70308   2.998   7.553   1.859 -0.0117  0.8030 -0.0302
  510MOL0     C70309   3.124   7.489   1.826 -0.1879 -0.1973 -0.1253
  510MOL0     C70310   3.131   7.414   1.701  0.1089 -0.8932  0.3943
  510MOL0     H70311   3.548   7.248   2.027  1.5296 -0.5023  0.8676
  510MOL0     H70312   3.788   7.171   2.021  3.5399  1.2824  2.4568
  510MOL0     H70313   3.964   7.157   1.769 -3.1430  1.8079  1.6223
  510MOL0     H70314   3.981   7.091   1.937 -0.9875  1.9420  1.8427
  510MOL0     H70315   4.214   7.149   1.924 -0.0874 -0.1076 -0.5575
  510MOL0     H70316   4.167   7.055   1.787 -0.2389 -1.4550  1.1132
  510MOL0     H70317   4.304   7.236   1.683  1.1634 -1.7350  2.2676
  510MOL0     H70318   4.148   7.317   1.691  0.0715  3.7694  1.2420
  510MOL0     H70319   4.222   7.401   1.930  1.3927 -0.4248  1.2921
  510MOL0     H70320   4.382   7.341   1.897  0.0429 -2.3482 -0.3663
  510MOL0     H70321   4.302   7.588   1.832 -0.5620 -0.9074  1.7469
  510MOL0     H70322   4.256   7.508   1.676 -0.6190 -3.7088  0.5594
  510MOL0     H70323   4.536   7.470   1.772  3.9946 -0.1938 -3.8474
  510MOL0     H70324   4.470   7.420   1.632 -1.3277  0.8395 -2.0304
  510MOL0     H70325   4.605   7.621   1.593  1.3956 -0.6681  0.6577
  510MOL0     H70326   4.512   7.708   1.719 -1.1876 -1.2124 -0.6236
  510MOL0     H70327   4.312   7.692   1.579 -0.7306 -2.6247 -1.3310
  510MOL0     H70328   4.426   7.791   1.502 -1.6801 -0.0370  1.1269
  510MOL0     H70329   4.602   7.633   1.338  0.1729 -1.4408  2.5416
  510MOL0     H70330   4.519   7.542   1.051 -1.4788  1.9459  1.0281
  510MOL0     H70331   4.419   7.406   1.062  1.3235 -2.3104  1.6492
  510MOL0     H70332   4.696   7.394   1.202  0.5327  2.1593 -0.6748
  510MOL0     H70333   4.591   7.260   1.142  0.8377 -0.0426 -0.2681
  510MOL0     H70334   4.620   7.359   0.908  0.7564 -1.3879  0.1101
  510MOL0     H70335   4.767   7.440   0.974 -0.4703  1.1214  1.0794
  510MOL0     H70336   4.701   7.157   0.972  0.5522 -1.3828 -1.8476
  510MOL0     H70337   4.811   7.229   0.861  1.3148 -0.8641  0.5359
  510MOL0     H70338   4.968   7.118   0.824 -2.5070 -0.0313  2.1668
  510MOL0     H70339   5.119   7.058   0.670 -0.4547  1.9740  0.4311
  510MOL0     H70340   5.256   6.944   0.735  0.5896  0.8527 -0.0227
  510MOL0     H70341   5.292   7.104   0.688  0.8786  0.3044 -0.6918
  510MOL0     H70342   5.588   6.753   1.011 -0.0509 -1.0139 -1.1694
  510MOL0     H70343   5.809   6.686   0.920 -1.9445 -0.2893  1.3729
  510MOL0     H70344   5.985   6.613   0.786 -1.2873  0.6315  0.4127
  510MOL0     H70345   5.885   6.535   0.653 -0.0836  0.6598 -1.1674
  510MOL0     H70346   6.058   6.670   0.500 -0.9288 -3.5390 -0.9338
  510MOL0     H70347   6.141   6.699   0.657 -0.6757  0.7530  0.1036
  510MOL0     H70348   6.067   6.442   0.502 -1.1812  1.2696  1.3601
  510MOL0     H70349   6.157   6.435   0.661 -0.4413 -1.7481 -0.9378
  510MOL0     H70350   6.357   6.525   0.564  0.1513  1.9544  0.7994
  510MOL0     H70351   6.268   6.614   0.452 -0.2014  0.4816  2.0752
  510MOL0     H70352   6.287   6.301   0.440 -0.7975  0.2007 -1.2944
  510MOL0     H70353   6.209   6.409   0.321  0.3163 -1.7446 -1.3273
  510MOL0     H70354   6.441   6.303   0.284 -0.0936  0.5884 -1.2157
  510MOL0     H70355   6.505   6.415   0.391  0.8304 -1.5371 -1.1713
  510MOL0     H70356   6.400   6.603   0.243  0.0526 -1.1701  1.2550
  510MOL0     H70357   6.354   6.478   0.131  1.6025 -1.1073 -1.0259
  510MOL0     H70358   6.648   6.550   0.225 -0.2241 -1.2524  1.3647
  510MOL0     H70359   6.579   6.571   0.068 -2.2536 -2.4849 -1.9965
  510MOL0     H70360   5.696   6.897   0.554 -0.2616  0.7349  0.2560
  510MOL0     H70361   5.517   6.994   0.671  1.6991  0.1849 -1.8447
  510MOL0     H70362   5.320   7.135   1.181  0.5618  0.5314 -0.8287
  510MOL0     H70363   5.079   7.224   1.229  0.7221  0.3419 -0.1661
  510MOL0     H70364   3.909   7.526   1.833 -1.3267  1.6881 -3.0336
  510MOL0     H70365   3.684   7.627   1.866  0.1177  0.5923  0.3473
  510MOL0     H70366   3.275   7.583   2.118 -2.5562 -0.2605  1.6625
  510MOL0     H70367   3.053   7.682   2.160 -1.9239  0.3008 -0.1938
  510MOL0     H70368   2.853   7.806   1.847 -0.6989 -0.8237  0.1939
  510MOL0     H70369   2.719   7.825   1.952 -1.5369 -1.8841  3.2684
  510MOL0     H70370   2.886   8.009   1.953 -1.8007  0.4926  0.6865
  510MOL0     H70371   3.000   7.890   2.025 -0.9935 -1.4808  0.8410
  510MOL0     H70372   2.741   7.932   2.173  0.1124  1.3500  0.3025
  510MOL0     H70373   2.905   7.891   2.230  1.7858  3.1769  1.2725
  510MOL0     H70374   2.850   8.109   2.315 -0.6029 -1.2033 -0.2819
  510MOL0     H70375   2.811   8.163   2.154 -2.5226 -0.3366  1.5629
  510MOL0     H70376   3.209   8.243   2.162 -0.4732  0.4497 -0.0664
  510MOL0     H70377   2.906   7.549   1.802  0.5437 -0.1088 -0.8871
  510MOL0     H70378   3.226   7.439   1.652 -1.1674  0.2070 -1.6702
  510MOL0     H70379   3.112   7.307   1.707 -2.9917 -0.4067  1.2747
  510MOL0     H70380   3.049   7.445   1.635  0.9978  2.0478  0.5312
  511MOL0     O70381   7.494   0.335   7.424  0.1181 -0.0678 -0.0278
  511MOL0     C70382   7.420   0.436   7.423 -0.3644 -0.2825  0.0178
  511MOL0     O70383   7.461   0.566   7.419  0.4321 -0.8807  0.0210
  511MOL0     C70384   7.593   0.593   7.433  0.5637  0.5460  0.7065
  511MOL0     C70385   7.662   0.643   7.322 -0.0673  0.7661 -0.5705
  511MOL0     C70386   7.805   0.668   7.328  0.4352  0.2504  0.3249
  511MOL0     C70387   7.872   0.658   7.451  0.5129  0.1690  0.4671
  511MOL0     O70388   8.007   0.669   7.468  0.3979  0.6810  0.1509
  511MOL0     C70389   8.100   0.679   7.356  0.3693 -0.0186 -0.2251
  511MOL0     C70390   8.242   0.659   7.404  0.4256  0.2979 -0.0968
  511MOL0     C70391   8.339   0.654   7.293  0.0071 -0.4210 -0.2665
  511MOL0     C70392   8.478   0.642   7.353 -0.2318  0.2764 -0.2793
  511MOL0     C70393   8.584   0.641   7.246 -0.5897  0.6073 -0.2071
  511MOL0     C70394   8.714   0.569   7.297 -0.1984  0.1678 -0.0987
  511MOL0     C70395   8.835   0.581   7.201 -0.3620  0.0449  0.0052
  511MOL0     C70396   8.880   0.720   7.194 -0.5134 -0.3504  0.5159
  511MOL0     N70397   9.018   0.724   7.131  0.9588  0.5336 -0.7514
  511MOL0     C70398   9.059   0.700   7.002  0.5273 -0.2777  0.3018
  511MOL0     C70399   9.192   0.731   6.997  0.1330 -0.3632 -0.3674
  511MOL0     C70400   9.281   0.732   6.872  0.5421 -0.0886  0.0588
  511MOL0     C70401   9.427   0.739   6.893 -0.6021 -0.3065 -0.6563
  511MOL0     C70402   9.525   0.700   6.775  0.9740  0.5543  0.2175
  511MOL0     C70403   9.662   0.734   6.820  0.2389  0.4072  0.2618
  511MOL0     O70404   9.759   0.708   6.724  0.6214  0.6521  0.4989
  511MOL0     C70405   9.834   0.589   6.729  1.2970  0.4080  0.2389
  511MOL0     C70406   9.790   0.466   6.771  1.1209 -0.7080 -0.7822
  511MOL0     C70407   9.883   0.364   6.792  0.5715  0.2245 -0.1629
  511MOL0     C70408   9.815   0.248   6.850 -0.5057  0.2425 -0.4834
  511MOL0     C70409  10.022   0.381   6.764  0.0619  0.3885  0.1972
  511MOL0     C70410  10.131   0.280   6.776 -0.2915  0.3262  0.0764
  511MOL0     O70411  10.263   0.314   6.735 -0.3255 -0.8153 -0.3461
  511MOL0     C70412  10.384   0.243   6.767  0.3017  0.4771 -0.2547
  511MOL0     C70413  10.392   0.138   6.855  0.1935  0.0649  0.7553
  511MOL0     C70414  10.521   0.076   6.876  0.4786 -0.2535  0.3902
  511MOL0     C70415  10.635   0.117   6.803  0.1401 -0.3874 -0.6501
  511MOL0     O70416  10.756   0.075   6.805 -0.3402  0.1545 -0.7169
  511MOL0     C70417  10.796  -0.012   6.909  0.2388  0.2087  0.4258
  511MOL0     C70418  10.908  -0.083   6.845 -0.4317  0.1595  0.4508
  511MOL0     C70419  11.042  -0.014   6.857  0.5800  0.4937  0.5131
  511MOL0     C70420  11.152  -0.075   6.764 -0.3385 -0.5767  0.1602
  511MOL0     C70421  11.289  -0.018   6.779 -0.2839 -0.4421 -0.4788
  511MOL0     C70422  11.288   0.130   6.771 -0.0279  0.4129  0.0945
  511MOL0     C70423  11.432   0.179   6.755 -0.5080  0.4816 -0.0623
  511MOL0     C70424  11.465   0.203   6.603  0.3274  0.9452  0.9054
  511MOL0    Cl70425  11.638   0.216   6.558  0.2952  0.0893  0.0068
  511MOL0     C70426  10.622   0.220   6.720  0.6460  0.1648  0.3090
  511MOL0     C70427  10.498   0.286   6.697 -0.8432 -0.7283  0.4705
  511MOL0     O70428  10.099   0.169   6.818  0.3125  0.0054  1.0259
  511MOL0     C70429  10.054   0.507   6.714  0.2669 -0.9347  0.9580
  511MOL0     C70430   9.958   0.607   6.685 -0.4214  0.1182  0.1025
  511MOL0     N70431   9.222   0.778   7.125 -0.7841  1.2718 -0.3728
  511MOL0     N70432   9.123   0.769   7.202 -0.3759 -0.4982  0.9503
  511MOL0     C70433   7.799   0.614   7.566 -0.0028  0.3349 -0.4094
  511MOL0     C70434   7.656   0.589   7.560  0.2126  0.2866  1.0314
  511MOL0     C70435   7.279   0.415   7.428 -0.2485  0.2543 -0.3113
  511MOL0     C70436   7.193   0.479   7.333 -0.2422 -0.3873 -0.1239
  511MOL0     C70437   7.058   0.464   7.344 -0.4644 -0.0212  0.3974
  511MOL0     C70438   7.001   0.378   7.431 -0.3205  0.4231  0.4318
  511MOL0     O70439   6.866   0.386   7.430  0.3303 -0.1576  0.2026
  511MOL0     C70440   6.781   0.335   7.528  0.4380  0.2077 -0.4519
  511MOL0     C70441   6.713   0.211   7.488 -0.7083 -0.4449  0.1319
  511MOL0     C70442   6.785   0.076   7.505  0.3356 -0.9847 -0.1609
  511MOL0     C70443   6.809   0.032   7.653 -0.0420  0.7080 -0.1144
  511MOL0     C70444   6.951  -0.004   7.677 -0.2934  0.0005  0.1511
  511MOL0     C70445   7.065  -0.036   7.699 -0.0304 -0.0121 -0.4941
  511MOL0     C70446   7.083   0.309   7.526 -0.1036  0.2186 -1.1064
  511MOL0     C70447   7.220   0.314   7.519  0.6162 -0.9520  0.2562
  511MOL0     C70448   7.300   0.220   7.604 -0.2474 -0.2567 -0.3698
  511MOL0     H70449   7.614   0.641   7.224  1.7465 -1.1473 -1.4930
  511MOL0     H70450   7.857   0.698   7.238 -0.7528 -0.4354 -0.6206
  511MOL0     H70451   8.087   0.773   7.301  0.5747  0.4140  0.4495
  511MOL0     H70452   8.083   0.596   7.287 -3.1807  0.9977 -0.7637
  511MOL0     H70453   8.261   0.739   7.476 -2.0489  0.7515  0.1466
  511MOL0     H70454   8.248   0.567   7.463  0.8758  1.9850  2.6611
  511MOL0     H70455   8.323   0.574   7.220 -0.5370 -0.6413  0.0890
  511MOL0     H70456   8.329   0.746   7.234 -0.2770  0.1273  0.6192
  511MOL0     H70457   8.490   0.730   7.418  0.1812 -0.6664  0.9618
  511MOL0     H70458   8.484   0.551   7.413 -1.8185  0.4390  0.1784
  511MOL0     H70459   8.610   0.741   7.210  3.0960  0.6349  2.1266
  511MOL0     H70460   8.545   0.579   7.165  0.0452 -1.4067  0.9677
  511MOL0     H70461   8.737   0.612   7.395 -1.1027 -2.7367  1.5160
  511MOL0     H70462   8.689   0.463   7.307  0.8530 -0.3314 -2.1814
  511MOL0     H70463   8.815   0.547   7.099  2.0063 -0.0638 -0.4989
  511MOL0     H70464   8.913   0.515   7.240 -1.4108 -0.5007  1.2586
  511MOL0     H70465   8.805   0.779   7.140  0.2938 -1.4709 -2.0132
  511MOL0     H70466   8.886   0.757   7.296 -0.9033 -0.3227  0.5296
  511MOL0     H70467   8.994   0.670   6.920  1.4948 -0.2697 -0.4882
  511MOL0     H70468   9.264   0.816   6.804 -0.9419 -1.5624 -1.5206
  511MOL0     H70469   9.257   0.645   6.810  2.4844  0.4088 -1.5087
  511MOL0     H70470   9.450   0.841   6.924  0.7525 -1.0034  0.7980
  511MOL0     H70471   9.445   0.664   6.971  1.0045 -0.3406 -1.0315
  511MOL0     H70472   9.508   0.593   6.761 -1.6444  0.8807  0.4320
  511MOL0     H70473   9.503   0.754   6.683  3.5039 -3.8408 -3.4176
  511MOL0     H70474   9.669   0.842   6.841  1.8092  0.2490  0.7009
  511MOL0     H70475   9.683   0.674   6.909  1.0622 -0.2866 -0.3884
  511MOL0     H70476   9.686   0.450   6.798  0.5859  0.8506 -1.7706
  511MOL0     H70477   9.870   0.157   6.826  2.3102  1.4790  0.7537
  511MOL0     H70478   9.708   0.244   6.831 -0.5832 -0.2165  0.0224
  511MOL0     H70479   9.820   0.258   6.959 -0.2623  1.3016 -0.5785
  511MOL0     H70480  10.308   0.093   6.906 -1.3997  0.9543 -0.9651
  511MOL0     H70481  10.514  -0.006   6.946 -1.1453  0.1502  0.7576
  511MOL0     H70482  10.813   0.041   7.003 -2.7173  0.9720  0.6504
  511MOL0     H70483  10.718  -0.084   6.934 -0.7883  1.2122  0.2005
  511MOL0     H70484  10.913  -0.179   6.898 -0.9376  0.4283  0.9965
  511MOL0     H70485  10.888  -0.107   6.740 -0.1709  0.2446  0.3812
  511MOL0     H70486  11.084  -0.018   6.958 -0.8890 -2.1076  1.1083
  511MOL0     H70487  11.014   0.088   6.829  0.5379  0.4491  0.3924
  511MOL0     H70488  11.132  -0.057   6.658 -1.2887  0.5082  0.5112
  511MOL0     H70489  11.156  -0.183   6.783 -0.5737 -0.6777 -0.3542
  511MOL0     H70490  11.326  -0.045   6.879 -0.1969  0.4271 -0.2640
  511MOL0     H70491  11.344  -0.070   6.700 -1.7466  0.2846 -2.0411
  511MOL0     H70492  11.232   0.175   6.854  3.2149  3.2175  0.9833
  511MOL0     H70493  11.238   0.158   6.678 -3.2380 -1.9543  0.9160
  511MOL0     H70494  11.505   0.105   6.788 -1.5098 -0.2861  0.4620
  511MOL0     H70495  11.448   0.267   6.817 -0.0610 -1.9057  3.4726
  511MOL0     H70496  11.417   0.297   6.576 -0.3385  0.2076 -0.6216
  511MOL0     H70497  11.409   0.131   6.543 -0.8992  1.5192  1.3453
  511MOL0     H70498  10.704   0.242   6.652 -1.1733  0.2233 -2.0098
  511MOL0     H70499  10.485   0.356   6.616 -2.8021 -1.2183  0.3070
  511MOL0     H70500  10.155   0.528   6.678 -0.3097 -0.1780 -0.2791
  511MOL0     H70501   9.990   0.702   6.644  0.3528  0.5757  1.6748
  511MOL0     H70502   7.850   0.605   7.662  0.4049  1.2311 -0.5252
  511MOL0     H70503   7.610   0.573   7.657  0.6727 -1.2458  1.0283
  511MOL0     H70504   7.231   0.553   7.263 -0.3353  1.5660  1.7418
  511MOL0     H70505   6.997   0.530   7.284 -0.4017 -0.8789 -0.6541
  511MOL0     H70506   6.837   0.309   7.619 -0.1890 -1.4145 -0.4993
  511MOL0     H70507   6.704   0.408   7.551  0.7223 -0.0848  1.6419
  511MOL0     H70508   6.685   0.224   7.383 -1.8379  1.4115  0.6107
  511MOL0     H70509   6.626   0.200   7.554 -1.4112 -1.7091 -0.9546
  511MOL0     H70510   6.734  -0.006   7.455  0.6408  0.1874 -2.5358
  511MOL0     H70511   6.879   0.092   7.452  0.5568 -1.6123  0.0417
  511MOL0     H70512   6.750  -0.059   7.668 -1.3492  1.5209 -0.2205
  511MOL0     H70513   6.772   0.103   7.728  1.5832 -0.2274  1.6784
  511MOL0     H70514   7.165  -0.064   7.724 -0.9259 -1.8281  1.3481
  511MOL0     H70515   7.030   0.246   7.597 -0.2839  0.0567 -1.3834
  511MOL0     H70516   7.247   0.200   7.698 -0.4758  0.2248 -0.3936
  511MOL0     H70517   7.306   0.128   7.545 -0.5727  1.4387 -3.2053
  511MOL0     H70518   7.403   0.249   7.625  1.0159 -3.2475 -1.8547
  512MOL0     O70519   2.294   4.608   3.518  0.3520  0.1055  1.1750
  512MOL0     C70520   2.226   4.513   3.480 -0.5059  0.0498  0.1413
  512MOL0     O70521   2.275   4.392   3.457 -0.0265  1.0662  0.3796
  512MOL0     C70522   2.412   4.365   3.440  0.6551  0.1215 -0.9058
  512MOL0     C70523   2.443   4.238   3.396 -0.1500 -0.6832  0.2599
  512MOL0     C70524   2.574   4.190   3.364 -0.1791  0.1221 -0.5125
  512MOL0     C70525   2.683   4.276   3.392  0.6870  0.4025 -0.1118
  512MOL0     O70526   2.814   4.234   3.372  0.0219 -0.4352 -0.2697
  512MOL0     C70527   2.838   4.145   3.266 -0.1398  0.1094  0.5788
  512MOL0     C70528   2.985   4.123   3.243 -0.7406  0.1420  0.2722
  512MOL0     C70529   3.066   4.255   3.233 -0.2557  0.4245  0.0876
  512MOL0     C70530   3.201   4.216   3.176 -0.0991 -0.5788 -0.2629
  512MOL0     C70531   3.274   4.341   3.132  0.0419  0.7235 -0.5138
  512MOL0     C70532   3.365   4.384   3.243  0.0029 -0.2870  0.2457
  512MOL0     C70533   3.434   4.513   3.201 -0.8109 -0.2112  0.2235
  512MOL0     C70534   3.523   4.571   3.316  0.0097 -0.0849  0.4629
  512MOL0     N70535   3.633   4.658   3.265 -0.0185  0.1638 -0.1980
  512MOL0     C70536   3.623   4.785   3.228 -1.1489  0.8388 -0.1588
  512MOL0     C70537   3.745   4.843   3.226  0.5526 -0.2306  0.0308
  512MOL0     C70538   3.762   4.994   3.223 -0.4081  0.2730  0.2647
  512MOL0     C70539   3.915   5.030   3.207 -0.0191  0.1876  0.3120
  512MOL0     C70540   3.934   5.177   3.226  0.5667 -0.7869 -0.8746
  512MOL0     C70541   4.071   5.233   3.180 -0.5625  0.2455 -0.2040
  512MOL0     O70542   4.175   5.135   3.222  0.9816 -0.3625  0.5244
  512MOL0     C70543   4.307   5.177   3.215 -0.5560  0.2672  0.0774
  512MOL0     C70544   4.395   5.074   3.179  0.3618  0.7081  1.3953
  512MOL0     C70545   4.536   5.089   3.169  0.2329 -0.4887  0.5148
  512MOL0     C70546   4.618   4.966   3.142 -0.3694  0.2434 -0.6736
  512MOL0     C70547   4.576   5.228   3.169  0.2967 -0.5267 -1.0941
  512MOL0     C70548   4.718   5.273   3.153 -1.3481 -0.5325 -1.3953
  512MOL0     O70549   4.814   5.188   3.112 -0.1509  0.2833  0.3543
  512MOL0     C70550   4.943   5.218   3.134  0.4201 -0.6080 -1.0999
  512MOL0     C70551   5.004   5.311   3.061 -0.4056  0.1103 -0.5701
  512MOL0     C70552   5.131   5.357   3.079 -0.4246 -0.9667 -0.2896
  512MOL0     C70553   5.207   5.301   3.184 -0.5183 -1.4244 -0.1874
  512MOL0     O70554   5.337   5.343   3.198 -0.7874  0.4698 -0.4769
  512MOL0     C70555   5.416   5.306   3.308  0.1879 -0.1475 -0.2475
  512MOL0     C70556   5.531   5.397   3.331 -0.0743  0.1623 -0.0088
  512MOL0     C70557   5.611   5.380   3.463  0.0889  0.5194  0.0555
  512MOL0     C70558   5.666   5.225   3.487 -0.3458  1.4274  0.1985
  512MOL0     C70559   5.756   5.178   3.367  1.0369  0.1202 -0.0884
  512MOL0     C70560   5.885   5.256   3.359 -0.6743  0.1483 -0.0385
  512MOL0     C70561   5.963   5.211   3.240  0.1160 -0.3906  0.2254
  512MOL0     C70562   6.017   5.072   3.243 -0.1457  0.3895 -0.2338
  512MOL0    Cl70563   6.074   5.010   3.398 -0.4279 -0.4756  0.1689
  512MOL0     C70564   5.141   5.203   3.269 -0.2125 -0.1088 -0.3814
  512MOL0     C70565   5.006   5.166   3.245 -0.4914 -0.5193  0.3833
  512MOL0     O70566   4.740   5.396   3.163  0.0896 -0.1676 -0.4546
  512MOL0     C70567   4.484   5.333   3.201 -0.1674 -0.2595 -0.1545
  512MOL0     C70568   4.350   5.311   3.226 -0.1880 -0.6034  0.0995
  512MOL0     N70569   3.836   4.741   3.238  0.2657  0.1727 -0.1731
  512MOL0     N70570   3.768   4.633   3.267  0.0074 -0.6129 -0.8983
  512MOL0     C70571   2.653   4.401   3.457 -0.6479 -0.5968  0.7616
  512MOL0     C70572   2.521   4.441   3.479  0.4542  1.1570  0.2977
  512MOL0     C70573   2.080   4.531   3.473  0.0519  0.1754 -0.2204
  512MOL0     C70574   2.008   4.405   3.459  0.2937 -0.1845 -0.9257
  512MOL0     C70575   1.867   4.397   3.429 -0.6223 -0.7000 -0.3832
  512MOL0     C70576   1.788   4.525   3.421 -0.5156  0.1821  1.0141
  512MOL0     O70577   1.654   4.531   3.392  0.7515  0.6815  0.6341
  512MOL0     C70578   1.587   4.424   3.323 -0.5010  0.7801 -0.2334
  512MOL0     C70579   1.465   4.475   3.257  0.2716 -0.5385  0.4336
  512MOL0     C70580   1.406   4.355   3.188 -0.5372  0.3142 -0.1453
  512MOL0     C70581   1.284   4.397   3.103  0.3063  0.7812  0.0000
  512MOL0     C70582   1.230   4.282   3.021 -0.2893  0.4856 -0.3044
  512MOL0     C70583   1.175   4.202   2.945 -0.3500  0.6950 -0.3105
  512MOL0     C70584   1.866   4.647   3.449 -0.5721 -0.5563 -0.0737
  512MOL0     C70585   2.005   4.652   3.479 -0.3961  1.0548 -0.0576
  512MOL0     C70586   2.066   4.783   3.513  0.1142  0.0260  0.0532
  512MOL0     H70587   2.374   4.160   3.367  0.3567 -1.8634  2.0805
  512MOL0     H70588   2.585   4.084   3.344  3.2261 -0.0161  1.3033
  512MOL0     H70589   2.799   4.184   3.172  0.9494  0.3269  0.2043
  512MOL0     H70590   2.796   4.045   3.285 -0.5390  0.5921  2.4330
  512MOL0     H70591   3.035   4.050   3.307 -0.4718 -0.2679 -0.3886
  512MOL0     H70592   2.995   4.065   3.151  0.7281  2.0363 -0.8562
  512MOL0     H70593   3.021   4.327   3.164  0.5300  3.2211  2.2659
  512MOL0     H70594   3.072   4.296   3.334 -0.3783 -0.1273  0.3207
  512MOL0     H70595   3.255   4.161   3.253 -1.3111 -0.5135  0.6712
  512MOL0     H70596   3.188   4.151   3.089  0.2622  0.9881 -1.5370
  512MOL0     H70597   3.206   4.423   3.108 -2.2905 -1.5407 -2.2405
  512MOL0     H70598   3.334   4.324   3.042 -0.4234  4.3559 -1.6571
  512MOL0     H70599   3.310   4.407   3.335  1.2497 -0.9883  1.2169
  512MOL0     H70600   3.439   4.309   3.273 -0.5194  0.5269  4.1152
  512MOL0     H70601   3.362   4.586   3.163 -0.7074 -0.2581 -0.0694
  512MOL0     H70602   3.498   4.491   3.115 -2.4488 -2.0249 -0.6211
  512MOL0     H70603   3.461   4.627   3.387  0.5343 -1.7617  2.3533
  512MOL0     H70604   3.574   4.488   3.367 -0.3795 -0.8059 -0.2979
  512MOL0     H70605   3.533   4.844   3.240 -0.5144  1.9503 -0.6973
  512MOL0     H70606   3.725   5.022   3.322  0.6415 -3.9731  2.0922
  512MOL0     H70607   3.708   5.043   3.142 -2.1041 -2.6020 -0.4662
  512MOL0     H70608   3.973   4.980   3.285  1.7920  1.1169 -0.4011
  512MOL0     H70609   3.948   4.990   3.110  2.2568 -1.1648  1.5638
  512MOL0     H70610   3.862   5.240   3.173  0.9871  1.0454  0.6041
  512MOL0     H70611   3.938   5.209   3.331  0.6852  5.9841 -2.4284
  512MOL0     H70612   4.080   5.262   3.075  1.0763 -0.1605 -0.2024
  512MOL0     H70613   4.086   5.328   3.233 -0.1522  0.4777 -0.7315
  512MOL0     H70614   4.362   4.971   3.171  4.3130 -0.5526 -2.4386
  512MOL0     H70615   4.700   4.950   3.213 -0.3631 -1.6195 -1.0487
  512MOL0     H70616   4.648   4.967   3.036  0.7926 -2.1200 -0.4372
  512MOL0     H70617   4.549   4.882   3.146 -0.3262  0.2509  0.8686
  512MOL0     H70618   4.950   5.354   2.977  1.4920  0.4540 -1.6592
  512MOL0     H70619   5.174   5.439   3.022 -1.9475  2.3359  2.8843
  512MOL0     H70620   5.359   5.300   3.402 -1.4311  0.8595 -1.1314
  512MOL0     H70621   5.448   5.202   3.294 -1.3388 -0.3911 -2.2793
  512MOL0     H70622   5.600   5.384   3.247 -1.6000  0.0925 -1.2986
  512MOL0     H70623   5.495   5.500   3.331  1.3315  0.6689 -0.9012
  512MOL0     H70624   5.544   5.405   3.545  1.7153 -0.5799  1.8099
  512MOL0     H70625   5.697   5.447   3.459  2.2168 -2.0945 -0.9154
  512MOL0     H70626   5.595   5.145   3.512  1.9886 -0.0510  2.6240
  512MOL0     H70627   5.718   5.229   3.582  0.7281  0.5504 -0.3279
  512MOL0     H70628   5.777   5.071   3.376 -1.5321 -0.7625 -2.7647
  512MOL0     H70629   5.697   5.186   3.275  4.0618  1.2272 -2.0833
  512MOL0     H70630   5.935   5.249   3.456 -1.6161 -0.0391  0.4439
  512MOL0     H70631   5.875   5.363   3.337  1.2155  0.5059  0.6389
  512MOL0     H70632   6.057   5.268   3.239  0.5632 -1.1218 -0.7300
  512MOL0     H70633   5.908   5.236   3.150 -1.5751  0.7763  1.5247
  512MOL0     H70634   6.100   5.054   3.174  0.0269  1.0973 -0.2247
  512MOL0     H70635   5.927   5.013   3.221  1.0038 -2.0265  1.1258
  512MOL0     H70636   5.190   5.163   3.356 -3.4526  0.5432  1.9400
  512MOL0     H70637   4.948   5.093   3.300 -1.4273  0.7899  1.2060
  512MOL0     H70638   4.506   5.438   3.186 -1.7279  0.1338  0.0757
  512MOL0     H70639   4.297   5.406   3.225  0.8848  0.0320 -1.2836
  512MOL0     H70640   2.732   4.461   3.501  0.2610 -1.9701  1.0875
  512MOL0     H70641   2.507   4.536   3.529 -2.2148  0.8677  0.2493
  512MOL0     H70642   2.060   4.310   3.452 -0.0930 -0.9358  3.3941
  512MOL0     H70643   1.814   4.303   3.422  0.6773 -1.7036  1.9155
  512MOL0     H70644   1.665   4.382   3.260  0.4835 -1.5031  2.3213
  512MOL0     H70645   1.565   4.344   3.395 -0.1787  0.8418 -0.0611
  512MOL0     H70646   1.504   4.553   3.191 -2.3646 -1.5920 -2.5778
  512MOL0     H70647   1.396   4.517   3.331 -0.8011 -2.8636  0.8299
  512MOL0     H70648   1.468   4.297   3.118 -3.6537 -2.7709 -0.5899
  512MOL0     H70649   1.376   4.285   3.267 -0.9144  0.1532 -0.4325
  512MOL0     H70650   1.312   4.477   3.034  1.5664  0.2016 -0.1771
  512MOL0     H70651   1.203   4.423   3.172 -1.1522 -0.8704 -0.9961
  512MOL0     H70652   1.151   4.113   2.891 -1.7279  0.3875  0.7578
  512MOL0     H70653   1.819   4.744   3.463  4.6021  2.5364 -1.2278
  512MOL0     H70654   2.133   4.816   3.433  1.8899 -2.0357  0.5844
  512MOL0     H70655   1.997   4.864   3.537  0.1203  0.6007 -1.6801
  512MOL0     H70656   2.135   4.778   3.598  1.3727 -0.7149 -0.9656
  513MOL0     O70657   3.016   5.821   6.852 -0.0793  0.3973 -0.0724
  513MOL0     C70658   2.965   5.717   6.804  0.0576  0.0936 -0.4729
  513MOL0     O70659   3.012   5.586   6.837 -0.3065 -0.2685  0.8040
  513MOL0     C70660   3.106   5.567   6.932  0.3612 -0.5765  0.0513
  513MOL0     C70661   3.233   5.621   6.906  0.0097 -0.2115 -0.0580
  513MOL0     C70662   3.331   5.617   7.002  1.0030 -0.6300 -0.8718
  513MOL0     C70663   3.309   5.562   7.128 -0.3158 -0.4087  0.0298
  513MOL0     O70664   3.411   5.566   7.218  0.3338 -0.0463 -0.4945
  513MOL0     C70665   3.431   5.455   7.313 -0.7456 -0.0595 -1.0389
  513MOL0     C70666   3.539   5.493   7.412  0.1177  0.0236 -0.3955
  513MOL0     C70667   3.685   5.477   7.355 -0.4254 -1.2050 -0.0854
  513MOL0     C70668   3.791   5.520   7.457  0.0535  0.2073  0.4435
  513MOL0     C70669   3.921   5.447   7.426  0.2175 -0.0906  0.3283
  513MOL0     C70670   4.037   5.513   7.498 -0.0049 -0.5600  0.0899
  513MOL0     C70671   4.165   5.445   7.437  0.2692 -0.0855 -0.3064
  513MOL0     C70672   4.275   5.533   7.497  0.2714  0.1073 -0.5491
  513MOL0     N70673   4.400   5.477   7.441 -0.0380  0.3981 -0.1234
  513MOL0     C70674   4.451   5.511   7.313 -0.1819  0.3209  0.3202
  513MOL0     C70675   4.565   5.437   7.299  0.1148 -0.0291 -0.2228
  513MOL0     C70676   4.658   5.401   7.186  0.8448 -0.0033  0.8587
  513MOL0     C70677   4.686   5.502   7.077  0.5601  0.2265 -0.1943
  513MOL0     C70678   4.680   5.442   6.934  0.3960  0.0934  0.1565
  513MOL0     C70679   4.798   5.347   6.909 -0.5266  0.8009 -0.8176
  513MOL0     O70680   4.925   5.421   6.899 -0.3428  0.1917  0.0285
  513MOL0     C70681   5.039   5.356   6.867 -0.0766  0.5924  1.2642
  513MOL0     C70682   5.050   5.217   6.838  0.2001 -0.2971  0.8467
  513MOL0     C70683   5.169   5.153   6.813  0.7670 -0.5200  0.3927
  513MOL0     C70684   5.168   4.999   6.803  0.1099  0.5358  0.3039
  513MOL0     C70685   5.292   5.231   6.804  0.4072 -0.3838 -0.3745
  513MOL0     C70686   5.419   5.175   6.759 -0.3371  0.1063 -0.8502
  513MOL0     O70687   5.480   5.244   6.657 -0.3993 -0.2386  0.1598
  513MOL0     C70688   5.600   5.201   6.604 -0.1693  0.4791  0.3751
  513MOL0     C70689   5.633   5.065   6.572  0.3144 -0.7055 -0.5345
  513MOL0     C70690   5.761   5.036   6.526  0.3114 -0.0459  0.0933
  513MOL0     C70691   5.855   5.136   6.529  0.9164 -1.2209 -0.6521
  513MOL0     O70692   5.983   5.112   6.492 -0.4378  0.3429 -0.9640
  513MOL0     C70693   5.997   5.049   6.367  0.5940 -0.6406 -0.6787
  513MOL0     C70694   6.139   5.053   6.322  0.4310 -0.0820 -0.3887
  513MOL0     C70695   6.192   5.198   6.327 -0.2851 -0.6421  0.6983
  513MOL0     C70696   6.336   5.185   6.293 -0.1456 -0.1447  0.8948
  513MOL0     C70697   6.417   5.313   6.317 -0.4745  0.7557 -0.0108
  513MOL0     C70698   6.557   5.313   6.253  0.3367  0.0251  0.1091
  513MOL0     C70699   6.610   5.457   6.249 -0.0657  1.0581 -0.0767
  513MOL0     C70700   6.725   5.465   6.148 -0.3474 -0.8708  0.1110
  513MOL0    Cl70701   6.832   5.608   6.182 -0.4257 -0.2573 -0.3489
  513MOL0     C70702   5.821   5.270   6.570 -0.1058  0.8254  0.5928
  513MOL0     C70703   5.695   5.295   6.601  0.1864 -0.3401 -0.4853
  513MOL0     O70704   5.469   5.078   6.827 -0.2420  0.3646  0.5545
  513MOL0     C70705   5.281   5.370   6.846 -0.9687  0.0198 -0.2970
  513MOL0     C70706   5.160   5.431   6.878  0.2837  0.1649  0.3009
  513MOL0     N70707   4.593   5.378   7.424 -0.3430  0.1908 -0.6823
  513MOL0     N70708   4.491   5.397   7.506  0.1620 -0.4549 -0.7312
  513MOL0     C70709   3.176   5.520   7.154 -0.2735 -0.4840  0.1095
  513MOL0     C70710   3.076   5.526   7.060  0.1167 -0.6709 -0.4398
  513MOL0     C70711   2.853   5.729   6.708 -0.8895  0.1219  0.1930
  513MOL0     C70712   2.809   5.612   6.657 -0.2217 -0.1394 -0.9298
  513MOL0     C70713   2.704   5.597   6.579  0.1270 -0.5130  0.1734
  513MOL0     C70714   2.633   5.717   6.542  0.3844 -0.2252  0.3303
  513MOL0     O70715   2.509   5.693   6.475 -0.0253  0.1787  0.2366
  513MOL0     C70716   2.418   5.797   6.460  0.5023 -0.2145  0.8083
  513MOL0     C70717   2.328   5.773   6.341 -0.0778 -0.3033 -0.7793
  513MOL0     C70718   2.212   5.874   6.312 -0.4118 -0.5290  0.0568
  513MOL0     C70719   2.251   6.016   6.347  0.5192  0.1628 -0.0251
  513MOL0     C70720   2.154   6.119   6.296  0.1100  0.0853 -0.3229
  513MOL0     C70721   2.063   6.182   6.234 -0.5300  0.6844  0.0255
  513MOL0     C70722   2.692   5.841   6.582  0.5303  0.3336  0.1596
  513MOL0     C70723   2.801   5.852   6.663  0.6084 -0.7258 -0.2065
  513MOL0     C70724   2.854   5.984   6.699  0.7103  0.0808 -1.0503
  513MOL0     H70725   3.258   5.677   6.816 -0.7111 -2.4744 -1.7659
  513MOL0     H70726   3.430   5.657   6.980  0.9089 -0.6399 -1.3249
  513MOL0     H70727   3.457   5.358   7.270 -2.3998 -1.3504  0.6841
  513MOL0     H70728   3.336   5.446   7.366  0.1309  2.0207  1.0397
  513MOL0     H70729   3.524   5.599   7.437 -1.7203 -0.3582  0.3019
  513MOL0     H70730   3.529   5.422   7.495 -1.1295  1.9904  1.2506
  513MOL0     H70731   3.693   5.370   7.336  1.1945 -1.0444 -0.5076
  513MOL0     H70732   3.717   5.534   7.267 -0.3974 -1.8646 -0.5089
  513MOL0     H70733   3.796   5.629   7.471 -1.2485  0.2817  0.4348
  513MOL0     H70734   3.768   5.485   7.558  2.2330 -0.6309  0.7128
  513MOL0     H70735   3.954   5.471   7.324  4.0346  2.7823  1.9924
  513MOL0     H70736   3.916   5.338   7.434 -0.1874 -0.3253 -2.1165
  513MOL0     H70737   4.041   5.621   7.479  0.5346 -0.8310 -1.4228
  513MOL0     H70738   4.032   5.489   7.605  2.6035  1.3222  0.7549
  513MOL0     H70739   4.165   5.444   7.327  0.8443  1.1170 -0.3350
  513MOL0     H70740   4.183   5.339   7.460  1.0929  0.2826  0.8131
  513MOL0     H70741   4.265   5.636   7.461 -3.3151 -0.5669 -1.8718
  513MOL0     H70742   4.274   5.535   7.606  1.2940  1.3776 -0.5328
  513MOL0     H70743   4.396   5.576   7.246 -0.6607  0.1859  0.5781
  513MOL0     H70744   4.622   5.310   7.138 -4.3459  1.6981  0.8809
  513MOL0     H70745   4.759   5.375   7.220  1.7178  0.1730 -1.4252
  513MOL0     H70746   4.605   5.573   7.094  0.9991  0.6176  0.3259
  513MOL0     H70747   4.784   5.549   7.089  1.6201 -1.7780 -0.5832
  513MOL0     H70748   4.589   5.384   6.923 -0.4738  1.5492 -0.6661
  513MOL0     H70749   4.682   5.521   6.858 -0.8015 -1.5973 -1.6987
  513MOL0     H70750   4.799   5.275   6.992 -1.5312 -1.6433 -2.7861
  513MOL0     H70751   4.777   5.288   6.819  2.4519 -0.0930 -1.0545
  513MOL0     H70752   4.966   5.148   6.832  0.9410 -1.3067  1.8343
  513MOL0     H70753   5.200   4.965   6.902  0.8395  0.2199 -0.0336
  513MOL0     H70754   5.234   4.963   6.724 -0.6861  0.1544 -0.1947
  513MOL0     H70755   5.070   4.957   6.780 -1.4676  2.3959  3.0857
  513MOL0     H70756   5.555   4.989   6.582 -0.1246 -0.0090  2.0120
  513MOL0     H70757   5.786   4.931   6.512 -2.1068 -0.6276 -0.1571
  513MOL0     H70758   5.975   4.943   6.378 -3.3324  0.2352  1.7643
  513MOL0     H70759   5.923   5.089   6.297 -1.5851 -1.3795  1.0833
  513MOL0     H70760   6.198   4.994   6.393  1.8861  2.7571  0.9530
  513MOL0     H70761   6.160   5.015   6.222 -0.2378 -0.6997 -0.2934
  513MOL0     H70762   6.174   5.253   6.420  0.1506  1.7068 -0.5274
  513MOL0     H70763   6.148   5.254   6.245  0.5260 -1.0348 -0.0270
  513MOL0     H70764   6.346   5.150   6.191  0.0038 -1.8397  1.4694
  513MOL0     H70765   6.383   5.107   6.354  0.9630  0.8247  1.3262
  513MOL0     H70766   6.359   5.399   6.282  1.5415  2.3959  0.4527
  513MOL0     H70767   6.431   5.324   6.424  0.6766 -2.9191  0.3693
  513MOL0     H70768   6.549   5.277   6.149  0.2601  1.3697 -0.3653
  513MOL0     H70769   6.628   5.245   6.302  4.3690  1.8390 -2.6344
  513MOL0     H70770   6.638   5.477   6.353 -1.5232 -0.2835  0.6182
  513MOL0     H70771   6.532   5.529   6.224 -4.6910 -3.2057  0.5531
  513MOL0     H70772   6.679   5.482   6.050 -0.5618 -0.0242  0.3480
  513MOL0     H70773   6.784   5.374   6.161  0.9751 -0.1888 -0.8566
  513MOL0     H70774   5.901   5.344   6.568 -0.2437  0.9517 -1.0567
  513MOL0     H70775   5.662   5.396   6.624  1.0989 -0.1154 -0.1486
  513MOL0     H70776   5.363   5.440   6.843 -2.7768  2.3111  0.6765
  513MOL0     H70777   5.149   5.536   6.903  1.1835  0.5698 -0.9047
  513MOL0     H70778   3.162   5.483   7.255 -0.0388  0.3261  0.4469
  513MOL0     H70779   2.977   5.485   7.078 -1.2156  2.0810 -1.0202
  513MOL0     H70780   2.853   5.515   6.681  1.0965  0.9507  1.4049
  513MOL0     H70781   2.666   5.505   6.533 -0.7625 -0.2378  0.3277
  513MOL0     H70782   2.358   5.801   6.551  0.2950  1.5277  0.6283
  513MOL0     H70783   2.467   5.894   6.447  1.5595 -0.5136  2.2456
  513MOL0     H70784   2.291   5.670   6.349  3.5331 -1.6286  1.6431
  513MOL0     H70785   2.396   5.751   6.259  1.5720 -0.0421  0.4696
  513MOL0     H70786   2.191   5.877   6.204  0.4085 -0.6972 -0.1162
  513MOL0     H70787   2.116   5.840   6.352 -1.9165 -1.0104 -3.5647
  513MOL0     H70788   2.353   6.043   6.316  1.3323  1.3174  3.2376
  513MOL0     H70789   2.233   6.034   6.453 -2.6882 -1.2496 -0.2118
  513MOL0     H70790   1.996   6.248   6.182  1.5840  1.8712 -1.3207
  513MOL0     H70791   2.651   5.937   6.552 -0.6852 -0.0868  0.3908
  513MOL0     H70792   2.959   5.995   6.668  1.8347 -2.1989  1.4504
  513MOL0     H70793   2.799   6.067   6.655 -0.7317 -0.4010 -0.2351
  513MOL0     H70794   2.866   6.001   6.807  2.5630  2.2955 -1.5096
  514MOL0     O70795   6.388   3.018   7.076  0.0070  0.2342 -0.2100
  514MOL0     C70796   6.339   3.061   6.971  0.2806  0.3122  0.0916
  514MOL0     O70797   6.412   3.077   6.857 -0.6782 -0.2239  0.2166
  514MOL0     C70798   6.550   3.054   6.857  0.2688 -0.1819  0.9250
  514MOL0     C70799   6.643   3.150   6.892  0.1875 -0.2890 -0.5246
  514MOL0     C70800   6.777   3.135   6.887  0.2440 -0.4831 -0.2769
  514MOL0     C70801   6.827   3.008   6.843 -0.2195 -0.4573 -0.8466
  514MOL0     O70802   6.962   2.968   6.839 -0.1580 -0.4090  0.2560
  514MOL0     C70803   7.060   3.073   6.822 -0.8848  0.3692  0.2909
  514MOL0     C70804   7.213   3.029   6.837 -0.7834 -0.5416  0.2810
  514MOL0     C70805   7.250   2.938   6.718 -0.5131 -0.6398 -0.0744
  514MOL0     C70806   7.401   2.919   6.722  0.0141  0.4011  0.0148
  514MOL0     C70807   7.456   2.850   6.595 -0.3241 -0.1467 -0.5698
  514MOL0     C70808   7.602   2.786   6.629 -0.1788  0.1253 -0.2882
  514MOL0     C70809   7.713   2.891   6.653 -0.0541 -0.5438 -0.1633
  514MOL0     C70810   7.751   2.964   6.529 -0.0312 -1.4826  0.1203
  514MOL0     N70811   7.833   3.085   6.554  0.5920  0.3991 -0.4868
  514MOL0     C70812   7.815   3.182   6.648 -0.7546  0.3380 -0.9142
  514MOL0     C70813   7.919   3.265   6.639  0.4366  0.2479 -0.1381
  514MOL0     C70814   7.930   3.398   6.716 -0.1533  0.1227 -0.4346
  514MOL0     C70815   8.077   3.447   6.717 -0.3265  0.2624  0.0738
  514MOL0     C70816   8.083   3.595   6.771  0.3403 -0.5366 -0.5510
  514MOL0     C70817   8.231   3.612   6.808 -0.5461 -0.4902 -0.4612
  514MOL0     O70818   8.247   3.556   6.944  0.3627  0.3763  0.1335
  514MOL0     C70819   8.352   3.609   7.023 -0.2119  0.1726 -1.0053
  514MOL0     C70820   8.461   3.681   6.964  0.2811  0.2930  0.3371
  514MOL0     C70821   8.573   3.723   7.037 -0.6153  0.7118  0.6461
  514MOL0     C70822   8.686   3.781   6.957 -0.3961 -0.3106 -0.1781
  514MOL0     C70823   8.571   3.698   7.178 -0.8096 -0.0412  0.5498
  514MOL0     C70824   8.680   3.752   7.270  1.3663 -0.1279  0.7463
  514MOL0     O70825   8.764   3.850   7.219 -0.1626 -0.1380  0.0559
  514MOL0     C70826   8.875   3.882   7.294 -0.6108  0.2763  0.5524
  514MOL0     C70827   8.885   3.990   7.375 -0.5983  0.1123  0.8593
  514MOL0     C70828   9.003   4.015   7.444  0.8319 -1.0925 -0.1944
  514MOL0     C70829   9.117   3.941   7.434 -1.1593  0.2522  0.4062
  514MOL0     O70830   9.231   3.965   7.506 -0.3324 -0.7121  0.0731
  514MOL0     C70831   9.344   3.877   7.520  0.1250  0.1586  0.2494
  514MOL0     C70832   9.457   3.926   7.617 -0.0258  0.6582 -0.1489
  514MOL0     C70833   9.530   4.060   7.584 -0.3879 -0.5972 -0.4469
  514MOL0     C70834   9.661   4.060   7.663  0.1125 -0.1452 -0.5487
  514MOL0     C70835   9.737   4.197   7.653 -0.2197  0.4169 -0.0754
  514MOL0     C70836   9.885   4.182   7.695 -0.3312 -0.4163 -0.3832
  514MOL0     C70837   9.934   4.324   7.713 -0.1153  0.4541 -0.0134
  514MOL0     C70838  10.076   4.325   7.762  0.6983 -0.4722  0.3077
  514MOL0    Cl70839  10.104   4.234   7.913  0.4472 -0.1212 -0.2909
  514MOL0     C70840   9.111   3.826   7.343 -0.4952  0.8904  0.1289
  514MOL0     C70841   8.989   3.799   7.278 -0.2985 -0.2278 -0.2944
  514MOL0     O70842   8.707   3.678   7.365  0.0705 -0.4634  0.1672
  514MOL0     C70843   8.471   3.632   7.239  0.5326  0.2805 -0.1515
  514MOL0     C70844   8.358   3.590   7.161 -0.1000  0.7325 -0.7041
  514MOL0     N70845   7.999   3.215   6.538 -0.4437  0.1940 -0.4074
  514MOL0     N70846   7.948   3.108   6.486  0.1091 -0.2324  0.0267
  514MOL0     C70847   6.732   2.907   6.812  0.5052  0.3812 -0.5047
  514MOL0     C70848   6.592   2.931   6.811  0.5270 -0.5751 -0.5415
  514MOL0     C70849   6.192   3.071   6.962  0.2866 -0.6669 -0.6240
  514MOL0     C70850   6.128   3.071   6.839 -0.4050 -0.0341 -0.2089
  514MOL0     C70851   5.993   3.101   6.820 -0.2167  0.1583 -0.1998
  514MOL0     C70852   5.915   3.115   6.934  0.4258  0.5661  0.0227
  514MOL0     O70853   5.780   3.125   6.930  0.3202  0.0644 -0.7127
  514MOL0     C70854   5.704   3.075   6.824 -0.2616  0.6595 -0.0102
  514MOL0     C70855   5.710   2.923   6.808  0.1658  0.2165 -0.1503
  514MOL0     C70856   5.682   2.834   6.937 -0.3215  0.2573  0.2029
  514MOL0     C70857   5.545   2.845   7.005  0.3264  0.0964  0.3654
  514MOL0     C70858   5.539   2.747   7.118 -0.2116 -0.3919 -0.5795
  514MOL0     C70859   5.533   2.650   7.193 -0.9897  0.4331  0.3776
  514MOL0     C70860   5.973   3.102   7.057  0.4174 -0.0614  0.2148
  514MOL0     C70861   6.111   3.091   7.077 -1.1263 -0.5506 -0.2733
  514MOL0     C70862   6.171   3.129   7.216  0.0744 -0.6312 -0.2960
  514MOL0     H70863   6.589   3.239   6.922 -1.1133 -0.9652 -0.7743
  514MOL0     H70864   6.841   3.209   6.933  1.1877 -2.1322  1.2047
  514MOL0     H70865   7.046   3.154   6.895 -2.3665  0.6809 -0.3010
  514MOL0     H70866   7.044   3.130   6.730 -0.1906  0.4727  0.2297
  514MOL0     H70867   7.282   3.113   6.834  1.8136 -2.5456 -2.6279
  514MOL0     H70868   7.220   2.965   6.926  2.4294 -2.0843 -0.9251
  514MOL0     H70869   7.200   2.840   6.721 -0.2047 -0.9197 -2.2433
  514MOL0     H70870   7.220   2.984   6.624 -0.7666 -2.0582 -0.7178
  514MOL0     H70871   7.442   3.020   6.736 -3.3147  1.8204  0.4590
  514MOL0     H70872   7.430   2.867   6.813  1.8543  0.6270 -0.3825
  514MOL0     H70873   7.441   2.910   6.505 -2.8737  0.7386  0.3620
  514MOL0     H70874   7.386   2.769   6.574 -0.1557 -0.0309 -1.6484
  514MOL0     H70875   7.579   2.717   6.711 -2.7984  0.2871 -0.7970
  514MOL0     H70876   7.632   2.716   6.551  1.1202 -1.3171  1.4060
  514MOL0     H70877   7.808   2.853   6.690 -0.0632 -0.5041 -0.0996
  514MOL0     H70878   7.673   2.965   6.723 -1.5115 -0.5333 -0.9602
  514MOL0     H70879   7.814   2.903   6.463  3.0714 -0.6750  2.1299
  514MOL0     H70880   7.652   2.984   6.486 -0.7911 -0.8770  2.0522
  514MOL0     H70881   7.728   3.196   6.711 -0.4995  1.1566 -0.7230
  514MOL0     H70882   7.893   3.392   6.818 -0.8939 -3.4987 -0.7812
  514MOL0     H70883   7.874   3.472   6.659  0.7127  0.4129 -0.9330
  514MOL0     H70884   8.128   3.369   6.774 -1.9811 -1.5117 -0.7744
  514MOL0     H70885   8.105   3.451   6.611  1.3276  1.2014  0.5103
  514MOL0     H70886   8.051   3.667   6.695  4.3203  0.7834 -1.1785
  514MOL0     H70887   8.016   3.608   6.856  0.6883 -0.7570 -0.2387
  514MOL0     H70888   8.288   3.557   6.733 -0.1187  1.1929 -1.4033
  514MOL0     H70889   8.276   3.711   6.805  2.1693 -1.5930  0.8216
  514MOL0     H70890   8.472   3.685   6.856  1.4483 -3.1986  0.2111
  514MOL0     H70891   8.665   3.776   6.849 -0.8318  1.0294 -0.1788
  514MOL0     H70892   8.782   3.737   6.986 -0.2208  1.9425  3.1902
  514MOL0     H70893   8.705   3.888   6.968  3.1064 -0.9388  1.0816
  514MOL0     H70894   8.805   4.062   7.387  1.4282  2.3298  2.0957
  514MOL0     H70895   9.006   4.110   7.496 -2.1738 -0.6016 -0.7323
  514MOL0     H70896   9.304   3.787   7.568 -0.0522 -0.4006 -0.9084
  514MOL0     H70897   9.385   3.845   7.423 -0.9579  1.3633 -0.6448
  514MOL0     H70898   9.417   3.922   7.718 -1.2749 -2.0432 -0.6537
  514MOL0     H70899   9.525   3.841   7.612 -2.2061 -1.1139 -1.5188
  514MOL0     H70900   9.472   4.149   7.613  1.5451  0.4506  0.3881
  514MOL0     H70901   9.553   4.069   7.477  2.3791 -3.6861 -0.2650
  514MOL0     H70902   9.723   3.972   7.645  1.6879  0.4765  1.4428
  514MOL0     H70903   9.636   4.045   7.769 -1.8764 -1.5466 -1.1571
  514MOL0     H70904   9.727   4.221   7.546 -2.4334 -1.3490 -0.3541
  514MOL0     H70905   9.671   4.268   7.705  0.9382  1.1577  0.4119
  514MOL0     H70906   9.948   4.121   7.629  1.1125  2.2634 -1.6346
  514MOL0     H70907   9.887   4.132   7.793  1.4866 -0.0938 -0.2268
  514MOL0     H70908   9.863   4.370   7.782  0.4845  1.4814 -0.0696
  514MOL0     H70909   9.931   4.384   7.622 -1.0862 -0.5027 -0.6444
  514MOL0     H70910  10.104   4.429   7.776  0.9332 -0.2321 -1.6470
  514MOL0     H70911  10.137   4.279   7.683  2.1732  2.1653 -0.1981
  514MOL0     H70912   9.194   3.758   7.329 -1.7396 -0.3813 -1.5453
  514MOL0     H70913   8.989   3.719   7.205 -1.3100 -0.5200  0.0061
  514MOL0     H70914   8.465   3.622   7.347 -0.1632 -1.3819 -0.3132
  514MOL0     H70915   8.266   3.555   7.207  1.0561 -1.0427  0.3744
  514MOL0     H70916   6.769   2.805   6.802  0.3916  0.2139  0.6730
  514MOL0     H70917   6.518   2.854   6.795  0.4907 -0.5092 -0.6916
  514MOL0     H70918   6.183   3.060   6.747 -0.2156 -0.2779 -0.0649
  514MOL0     H70919   5.942   3.110   6.724  0.3866  0.7408 -0.4727
  514MOL0     H70920   5.597   3.094   6.838 -1.6819 -4.2353 -1.9420
  514MOL0     H70921   5.720   3.123   6.727 -1.5387 -1.7918 -1.5377
  514MOL0     H70922   5.808   2.900   6.765 -0.2501 -2.8926  0.3399
  514MOL0     H70923   5.643   2.886   6.730 -2.3152 -0.8724  2.3532
  514MOL0     H70924   5.698   2.730   6.906 -1.9574 -0.0375  0.2368
  514MOL0     H70925   5.762   2.862   7.006  1.7782 -0.8239 -1.6421
  514MOL0     H70926   5.467   2.852   6.929  2.2176  0.8365 -1.5992
  514MOL0     H70927   5.533   2.943   7.051 -2.4989 -0.0736  0.1579
  514MOL0     H70928   5.543   2.564   7.256  0.7094  0.5835  0.3649
  514MOL0     H70929   5.913   3.110   7.147  1.9988 -1.2425  1.4500
  514MOL0     H70930   6.214   3.042   7.267 -1.7295  0.3785  3.3768
  514MOL0     H70931   6.245   3.209   7.207 -0.3161 -0.2163  0.1291
  514MOL0     H70932   6.091   3.163   7.283  1.4144 -3.4021  3.0739
  515MOL0     O70933   6.315   3.793   7.114 -0.3472 -0.7665 -0.0810
  515MOL0     C70934   6.293   3.777   7.235  0.4061  0.4392 -0.1649
  515MOL0     O70935   6.360   3.838   7.336  0.4408 -0.0712 -0.0298
  515MOL0     C70936   6.496   3.840   7.352  0.0134 -0.2365  0.8445
  515MOL0     C70937   6.590   3.776   7.272  0.3119  0.8511  0.4633
  515MOL0     C70938   6.724   3.783   7.293 -0.4389  0.9454 -0.0176
  515MOL0     C70939   6.765   3.859   7.406  0.4426  0.5996  0.3685
  515MOL0     O70940   6.897   3.875   7.437 -0.4868 -0.1490 -0.6806
  515MOL0     C70941   6.989   3.868   7.331  0.2108 -0.5860 -0.0828
  515MOL0     C70942   7.128   3.887   7.384  0.6193  0.0494 -0.2798
  515MOL0     C70943   7.166   4.036   7.420  0.0432 -1.0467 -0.0989
  515MOL0     C70944   7.315   4.058   7.438 -0.4781  0.1904 -0.3673
  515MOL0     C70945   7.384   3.973   7.547 -0.2570  0.1779  0.9550
  515MOL0     C70946   7.322   3.975   7.683 -0.0677  0.8204 -0.2834
  515MOL0     C70947   7.346   3.854   7.767 -0.7225  0.2703  0.5485
  515MOL0     C70948   7.251   3.734   7.737 -0.2687  0.1410  0.3727
  515MOL0     N70949   7.119   3.740   7.802 -0.1032  0.6224 -0.7222
  515MOL0     C70950   7.001   3.787   7.750  0.3278  0.2619  0.0948
  515MOL0     C70951   6.924   3.779   7.861  1.4216  0.0967 -0.4677
  515MOL0     C70952   6.775   3.823   7.847  0.5007 -0.3637 -0.0449
  515MOL0     C70953   6.678   3.715   7.806 -1.2566 -0.3106 -0.3108
  515MOL0     C70954   6.539   3.773   7.791  0.4443 -0.0063 -0.1205
  515MOL0     C70955   6.445   3.687   7.702  0.3071 -0.0972 -0.9905
  515MOL0     O70956   6.388   3.594   7.799  0.2236 -0.5614 -0.4522
  515MOL0     C70957   6.254   3.568   7.795  0.5466 -0.0199 -0.3470
  515MOL0     C70958   6.196   3.501   7.909  0.7570  0.8274  0.3702
  515MOL0     C70959   6.061   3.470   7.928 -0.7953 -0.0924 -0.0625
  515MOL0     C70960   6.017   3.377   8.038  0.1974  0.0715  0.3051
  515MOL0     C70961   5.961   3.509   7.831 -0.2750 -0.3554  0.5787
  515MOL0     C70962   5.819   3.473   7.829 -0.7364 -0.6988  0.0624
  515MOL0     O70963   5.760   3.454   7.956  0.2151  0.1529 -0.3933
  515MOL0     C70964   5.631   3.407   7.976 -1.1842 -0.7141  0.0115
  515MOL0     C70965   5.594   3.358   8.093 -0.4310  0.1983  0.4057
  515MOL0     C70966   5.467   3.303   8.115 -0.4316 -1.0179 -0.5517
  515MOL0     C70967   5.374   3.309   8.012 -0.5619 -0.1745 -0.5382
  515MOL0     O70968   5.252   3.248   8.018 -0.2374 -0.0506  0.3295
  515MOL0     C70969   5.253   3.112   8.054 -0.2438 -0.2400 -0.4800
  515MOL0     C70970   5.141   3.038   7.973 -0.1938 -0.4332 -0.1361
  515MOL0     C70971   5.123   3.088   7.829 -0.3259  0.4010  0.7025
  515MOL0     C70972   5.036   2.994   7.741 -0.5265 -0.4531 -0.0863
  515MOL0     C70973   5.012   3.045   7.598  0.9228 -0.3378  0.0609
  515MOL0     C70974   5.119   2.994   7.504 -0.3125  0.6729  0.0422
  515MOL0     C70975   5.074   2.853   7.467 -1.6066  0.3830 -0.6246
  515MOL0     C70976   5.172   2.802   7.358 -0.6122  0.0596  0.3356
  515MOL0    Cl70977   5.144   2.894   7.213  0.1801  0.1059 -0.0507
  515MOL0     C70978   5.413   3.358   7.888 -0.3728  0.0775 -0.9119
  515MOL0     C70979   5.540   3.414   7.867 -0.0992 -0.5385  0.0829
  515MOL0     O70980   5.770   3.460   7.723  0.2927 -0.5484  0.1485
  515MOL0     C70981   6.017   3.582   7.716 -0.4514  0.6666  0.0172
  515MOL0     C70982   6.160   3.611   7.702  0.0914 -0.2260  0.3369
  515MOL0     N70983   6.982   3.711   7.963  0.3056 -0.5610  0.3550
  515MOL0     N70984   7.105   3.699   7.931 -0.2590 -0.1302  0.9034
  515MOL0     C70985   6.674   3.929   7.479 -0.2398 -0.7863  0.6162
  515MOL0     C70986   6.541   3.922   7.453  0.5754  0.0472  0.3238
  515MOL0     C70987   6.161   3.724   7.266 -0.7505  0.2716  0.8894
  515MOL0     C70988   6.079   3.792   7.356  0.1256 -0.6990 -0.4974
  515MOL0     C70989   5.955   3.748   7.394  0.5534  0.2708 -0.0137
  515MOL0     C70990   5.902   3.635   7.341 -0.0692 -0.4186 -0.2062
  515MOL0     O70991   5.777   3.601   7.383 -0.1132  0.4045  0.5323
  515MOL0     C70992   5.716   3.482   7.357 -0.1565  0.7655 -0.3837
  515MOL0     C70993   5.637   3.481   7.225  0.6539 -0.8938  1.0792
  515MOL0     C70994   5.544   3.603   7.210 -0.2410 -0.0115 -0.1029
  515MOL0     C70995   5.575   3.654   7.078  0.1157 -0.5296  0.1047
  515MOL0     C70996   5.704   3.707   7.052  0.4649 -0.4412  0.0200
  515MOL0     C70997   5.809   3.768   7.024 -0.6301  0.3307  0.9805
  515MOL0     C70998   5.988   3.563   7.251  0.2753  0.4778 -1.4295
  515MOL0     C70999   6.116   3.598   7.211 -0.1565 -0.7691 -0.2415
  515MOL0     C71000   6.192   3.520   7.112  0.3592  0.8093 -0.2077
  515MOL0     H71001   6.558   3.702   7.200  1.6750  0.8175 -0.1401
  515MOL0     H71002   6.786   3.718   7.232 -0.7678  0.6927 -0.0910
  515MOL0     H71003   6.974   3.946   7.255 -1.8145 -1.9354 -1.1596
  515MOL0     H71004   6.980   3.769   7.286 -1.6917 -0.0309 -1.0269
  515MOL0     H71005   7.134   3.826   7.475  0.5271 -0.0481 -0.3394
  515MOL0     H71006   7.193   3.845   7.307 -1.9759  0.9522 -3.1325
  515MOL0     H71007   7.134   4.113   7.349  2.4126  0.8688  0.7411
  515MOL0     H71008   7.118   4.061   7.516  0.4297  0.0722 -0.1756
  515MOL0     H71009   7.367   4.048   7.342 -0.4615  0.5330 -0.3962
  515MOL0     H71010   7.326   4.160   7.475  2.6694  0.3888 -1.4792
  515MOL0     H71011   7.489   4.000   7.555  0.6070 -2.4271 -0.5694
  515MOL0     H71012   7.385   3.872   7.506 -1.9786  0.6296 -0.3296
  515MOL0     H71013   7.371   4.058   7.737  1.6276 -0.7169  0.6621
  515MOL0     H71014   7.215   3.998   7.686 -0.2268  0.0733  2.1645
  515MOL0     H71015   7.336   3.884   7.872  2.2891 -0.3511  1.0921
  515MOL0     H71016   7.451   3.825   7.766 -0.5614  0.6246  2.3548
  515MOL0     H71017   7.236   3.730   7.628  0.9346  1.7959  0.1018
  515MOL0     H71018   7.312   3.647   7.765 -3.2729 -3.0133 -2.0033
  515MOL0     H71019   6.978   3.837   7.657  0.0056  1.9783  1.0567
  515MOL0     H71020   6.763   3.903   7.773  1.3272 -2.3710 -2.5064
  515MOL0     H71021   6.749   3.867   7.944  0.7906  2.6106 -1.2256
  515MOL0     H71022   6.701   3.661   7.714 -0.7430  0.2158 -0.4972
  515MOL0     H71023   6.683   3.629   7.873  3.4086 -1.3337 -1.6149
  515MOL0     H71024   6.511   3.776   7.897 -0.5659 -1.0432 -0.3282
  515MOL0     H71025   6.549   3.871   7.745 -0.1968  0.2670  0.3038
  515MOL0     H71026   6.368   3.753   7.662 -0.5533 -1.5329 -1.7659
  515MOL0     H71027   6.495   3.636   7.619 -1.9553 -0.9580 -1.8842
  515MOL0     H71028   6.266   3.471   7.987  2.4624  2.9307 -0.2629
  515MOL0     H71029   6.110   3.341   8.084  0.4300 -0.3362 -0.4610
  515MOL0     H71030   5.967   3.291   7.994 -1.4079  0.2147  1.7804
  515MOL0     H71031   5.960   3.426   8.118  0.1805  0.4231  0.0821
  515MOL0     H71032   5.674   3.344   8.165  0.9281 -0.2427 -1.1104
  515MOL0     H71033   5.450   3.257   8.211  2.2433  2.7714  2.0390
  515MOL0     H71034   5.344   3.055   8.035  0.1716  0.3373 -0.2792
  515MOL0     H71035   5.227   3.101   8.160 -1.2962 -2.1782 -0.9049
  515MOL0     H71036   5.173   2.933   7.971  0.7530 -0.1599  0.2950
  515MOL0     H71037   5.044   3.056   8.020 -0.2690 -1.3797  0.1007
  515MOL0     H71038   5.225   3.085   7.790 -1.2918 -2.9749 -2.0505
  515MOL0     H71039   5.079   3.188   7.842 -0.9782  0.1335  0.5709
  515MOL0     H71040   4.941   2.975   7.792 -0.3815 -1.9202 -0.3268
  515MOL0     H71041   5.102   2.907   7.740  2.8493  1.8697  1.2471
  515MOL0     H71042   4.911   3.019   7.566  0.2520  2.8564 -0.7421
  515MOL0     H71043   5.021   3.154   7.600  0.8665 -0.3359  2.0122
  515MOL0     H71044   5.218   2.990   7.551 -0.5410  2.3965  0.7337
  515MOL0     H71045   5.137   3.061   7.420 -1.2943 -0.2429 -0.9516
  515MOL0     H71046   4.970   2.857   7.435 -1.9015  1.7172  0.4088
  515MOL0     H71047   5.076   2.781   7.549 -0.0461  0.3459 -0.6726
  515MOL0     H71048   5.148   2.696   7.345 -1.1109  0.1768  0.2873
  515MOL0     H71049   5.275   2.813   7.393 -0.5645 -1.4939  0.7669
  515MOL0     H71050   5.342   3.365   7.805 -0.2796  1.2614 -0.9000
  515MOL0     H71051   5.549   3.460   7.769 -0.5336  0.8087  0.6422
  515MOL0     H71052   5.953   3.617   7.636 -0.2095  0.2495 -0.3662
  515MOL0     H71053   6.192   3.666   7.614 -2.4408  1.1663  0.1980
  515MOL0     H71054   6.711   3.984   7.565  1.6396 -0.4310 -0.3792
  515MOL0     H71055   6.462   3.974   7.506 -1.3275 -1.1033 -1.2316
  515MOL0     H71056   6.120   3.888   7.387 -0.2400 -0.0568 -1.8871
  515MOL0     H71057   5.904   3.810   7.467 -1.7241  1.3108 -2.3300
  515MOL0     H71058   5.798   3.411   7.364 -0.5125  0.2610 -1.2121
  515MOL0     H71059   5.645   3.462   7.438  0.2323 -1.1945 -0.4938
  515MOL0     H71060   5.553   3.413   7.241 -0.9353  0.6816 -0.0757
  515MOL0     H71061   5.699   3.453   7.139 -0.6977 -0.8786  0.0582
  515MOL0     H71062   5.437   3.586   7.220  0.0340 -0.8031  2.0557
  515MOL0     H71063   5.568   3.679   7.285  2.4852 -0.2330 -0.6324
  515MOL0     H71064   5.499   3.733   7.074 -0.5851 -1.2083 -0.3565
  515MOL0     H71065   5.565   3.581   6.998  1.6114 -3.9388  2.8078
  515MOL0     H71066   5.903   3.820   7.017 -0.5734  0.2399  1.0527
  515MOL0     H71067   5.934   3.479   7.208 -0.5762  0.6736 -0.7723
  515MOL0     H71068   6.208   3.578   7.021  0.4470  2.7877  1.0094
  515MOL0     H71069   6.294   3.496   7.143 -0.8973 -2.3907  2.0701
  515MOL0     H71070   6.125   3.435   7.094 -0.5678  1.4421  0.1660
  516MOL0     O71071   1.821   2.427   3.547  0.4623 -0.0737  0.3059
  516MOL0     C71072   1.804   2.496   3.650 -0.1555  0.4117  0.7132
  516MOL0     O71073   1.906   2.568   3.706  0.4135 -0.1709 -0.4834
  516MOL0     C71074   2.042   2.543   3.683  0.6703 -0.2024 -0.1224
  516MOL0     C71075   2.094   2.439   3.612  0.6172  0.3615  0.3518
  516MOL0     C71076   2.227   2.406   3.598 -0.6061  0.8963 -0.5014
  516MOL0     C71077   2.329   2.483   3.666 -0.0028  0.7121  0.4344
  516MOL0     O71078   2.453   2.448   3.642 -0.0021  0.5062 -0.0571
  516MOL0     C71079   2.549   2.540   3.664 -0.1092 -0.0267 -0.6282
  516MOL0     C71080   2.680   2.469   3.645 -0.2896 -0.4248 -0.4562
  516MOL0     C71081   2.791   2.538   3.724 -1.2282 -0.8130 -1.0185
  516MOL0     C71082   2.923   2.471   3.735 -0.1572  0.2304  0.4650
  516MOL0     C71083   3.028   2.555   3.812 -0.0876 -0.5864  0.2051
  516MOL0     C71084   2.992   2.545   3.959 -0.2654  0.2613  0.9079
  516MOL0     C71085   3.072   2.649   4.031 -0.9172 -0.2597  0.4310
  516MOL0     C71086   3.037   2.647   4.183 -0.2055 -0.0540  0.2135
  516MOL0     N71087   3.033   2.519   4.243  0.0537 -0.1707 -0.0969
  516MOL0     C71088   3.148   2.444   4.260  0.7633 -0.4523 -0.5383
  516MOL0     C71089   3.112   2.354   4.351  0.4257  0.0686  0.7011
  516MOL0     C71090   3.200   2.250   4.417  1.0631 -0.0602 -0.1276
  516MOL0     C71091   3.299   2.322   4.514  0.6205 -0.9132 -0.5794
  516MOL0     C71092   3.401   2.209   4.545 -0.2153 -0.0312 -0.6074
  516MOL0     C71093   3.517   2.269   4.627  0.2845  0.0649  0.7433
  516MOL0     O71094   3.588   2.374   4.559  0.5149 -0.0693  0.0714
  516MOL0     C71095   3.708   2.406   4.614  0.1473  0.2045 -0.4645
  516MOL0     C71096   3.737   2.538   4.618 -0.5593  0.4745 -0.2157
  516MOL0     C71097   3.871   2.582   4.648 -0.2299  1.5229 -0.4935
  516MOL0     C71098   3.891   2.730   4.643  0.8807  0.3870 -1.1849
  516MOL0     C71099   3.973   2.484   4.676  0.3429 -0.3091 -0.4842
  516MOL0     C71100   4.115   2.523   4.709 -0.7292  0.3856  0.1502
  516MOL0     O71101   4.188   2.450   4.792  0.7737  0.0117 -0.2179
  516MOL0     C71102   4.305   2.500   4.841 -0.0577 -0.5206 -0.5294
  516MOL0     C71103   4.329   2.633   4.874  0.8140 -0.2228  0.0549
  516MOL0     C71104   4.440   2.678   4.944 -0.4074 -0.2259 -0.1334
  516MOL0     C71105   4.522   2.586   5.006 -0.8588  0.3939  0.1808
  516MOL0     O71106   4.625   2.644   5.077 -0.1525  0.0447 -0.9811
  516MOL0     C71107   4.743   2.569   5.124  0.5358 -0.8802  1.3298
  516MOL0     C71108   4.838   2.675   5.170 -0.1560  0.1782 -0.1909
  516MOL0     C71109   4.950   2.614   5.266 -1.1123 -0.7762 -0.0072
  516MOL0     C71110   4.895   2.625   5.407  0.0065  0.4137  0.0231
  516MOL0     C71111   4.980   2.555   5.505  0.0825 -0.0334  0.4731
  516MOL0     C71112   4.965   2.620   5.642 -0.0079  0.0014  0.7455
  516MOL0     C71113   5.041   2.538   5.739 -0.0003 -1.0045 -0.4861
  516MOL0     C71114   5.197   2.554   5.726  0.6742 -0.2459 -0.1088
  516MOL0    Cl71115   5.271   2.465   5.871  0.1648  0.2437 -0.4134
  516MOL0     C71116   4.504   2.447   4.988 -0.3034 -0.9591  0.3335
  516MOL0     C71117   4.391   2.406   4.904 -0.4175  0.1241 -0.4377
  516MOL0     O71118   4.158   2.616   4.637 -0.5337 -0.5270 -0.7094
  516MOL0     C71119   3.942   2.345   4.658 -0.3903 -0.8995  0.4997
  516MOL0     C71120   3.813   2.302   4.629  0.4165 -0.6525  0.0543
  516MOL0     N71121   2.981   2.379   4.392 -0.0753 -0.1365 -0.0815
  516MOL0     N71122   2.934   2.476   4.330  1.5148 -0.4461 -0.4554
  516MOL0     C71123   2.274   2.593   3.742  0.0417  0.3411  0.6883
  516MOL0     C71124   2.138   2.614   3.760 -0.2273 -0.0743 -0.6109
  516MOL0     C71125   1.664   2.492   3.718 -0.0008  0.4626  0.6217
  516MOL0     C71126   1.648   2.570   3.832 -0.2400 -0.3643  0.5867
  516MOL0     C71127   1.525   2.578   3.907 -0.5578 -0.5192 -0.0404
  516MOL0     C71128   1.414   2.512   3.854  0.3428  0.4047  0.9772
  516MOL0     O71129   1.292   2.504   3.905  0.5638  0.1905  0.0656
  516MOL0     C71130   1.261   2.615   3.991  0.3019  0.7489  0.4330
  516MOL0     C71131   1.110   2.589   4.029  0.4020  0.6751  0.3065
  516MOL0     C71132   1.018   2.666   3.926  0.0650  0.0388 -0.4925
  516MOL0     C71133   0.922   2.767   3.998  0.5651  0.1847 -0.9526
  516MOL0     C71134   1.003   2.877   4.049  0.2888  0.1625  0.6178
  516MOL0     C71135   1.072   2.976   4.085  0.3580  0.5988  0.2519
  516MOL0     C71136   1.426   2.438   3.739  0.2975 -0.1281  0.7271
  516MOL0     C71137   1.547   2.425   3.669 -0.7164 -0.8761 -0.2771
  516MOL0     C71138   1.552   2.337   3.546  0.2308  0.5577  0.3136
  516MOL0     H71139   2.032   2.378   3.546  2.8892 -0.4945 -1.1278
  516MOL0     H71140   2.259   2.336   3.522  0.8811  0.9803  0.0121
  516MOL0     H71141   2.540   2.582   3.765 -3.5976  1.0464 -1.2543
  516MOL0     H71142   2.533   2.622   3.593  0.2178  0.6579  0.0721
  516MOL0     H71143   2.661   2.373   3.694 -0.4124 -0.9636 -1.5297
  516MOL0     H71144   2.698   2.462   3.537  0.8073 -2.0605 -0.2145
  516MOL0     H71145   2.813   2.637   3.684 -1.5225  0.1176  0.9868
  516MOL0     H71146   2.764   2.554   3.829  0.9772 -2.4722 -0.1131
  516MOL0     H71147   2.908   2.374   3.783 -1.4060 -0.3620 -1.0560
  516MOL0     H71148   2.954   2.463   3.630  1.0966  0.6367  0.7877
  516MOL0     H71149   3.035   2.656   3.771  2.7887 -1.0758 -0.7714
  516MOL0     H71150   3.128   2.512   3.798 -0.4927 -1.3261 -0.5115
  516MOL0     H71151   2.888   2.549   3.990  0.0831  0.6184  2.0609
  516MOL0     H71152   3.018   2.440   3.977  0.2893  0.0651 -0.8104
  516MOL0     H71153   3.050   2.746   3.986  3.7927  0.5252 -0.6734
  516MOL0     H71154   3.177   2.625   4.017 -1.0519  0.7244 -3.0662
  516MOL0     H71155   3.109   2.715   4.230  1.7235 -1.3194 -0.7516
  516MOL0     H71156   2.945   2.707   4.187  0.0369  0.2410  2.5911
  516MOL0     H71157   3.239   2.452   4.201  1.2671  2.2068  0.4626
  516MOL0     H71158   3.254   2.202   4.335 -0.2513  2.6328 -2.7766
  516MOL0     H71159   3.124   2.194   4.471  0.9769 -0.6769 -0.8770
  516MOL0     H71160   3.345   2.403   4.456 -2.0208 -0.1051 -1.6776
  516MOL0     H71161   3.249   2.352   4.606 -0.5239 -0.7411 -1.2381
  516MOL0     H71162   3.356   2.123   4.595  3.0418 -0.8474  1.2504
  516MOL0     H71163   3.443   2.157   4.458  1.7709  1.6783 -0.7760
  516MOL0     H71164   3.476   2.309   4.720  1.4705  0.1472  1.2516
  516MOL0     H71165   3.593   2.195   4.653  1.3633  1.0678  0.5628
  516MOL0     H71166   3.660   2.608   4.588 -1.0822  0.6197  1.3778
  516MOL0     H71167   3.796   2.783   4.643 -0.6950 -2.2581 -2.0413
  516MOL0     H71168   3.933   2.740   4.543  0.7263 -0.7596 -1.3827
  516MOL0     H71169   3.959   2.770   4.719 -2.5124  2.8913  0.7967
  516MOL0     H71170   4.257   2.708   4.843  0.0717 -1.0568 -0.2741
  516MOL0     H71171   4.450   2.782   4.973  0.9800 -0.7260  1.3747
  516MOL0     H71172   4.715   2.501   5.204 -1.6316 -2.1528 -0.3948
  516MOL0     H71173   4.790   2.520   5.038  1.3468  1.3755  0.3933
  516MOL0     H71174   4.869   2.734   5.083 -1.6409 -3.4651 -3.5040
  516MOL0     H71175   4.790   2.750   5.234 -0.1840 -0.0082  0.0063
  516MOL0     H71176   5.034   2.683   5.279 -3.1110  2.0903 -1.0815
  516MOL0     H71177   4.971   2.510   5.243 -2.6097 -1.4533  1.4737
  516MOL0     H71178   4.790   2.593   5.402 -0.0950  0.6877  0.3923
  516MOL0     H71179   4.886   2.731   5.432 -2.0264  0.1179  0.7681
  516MOL0     H71180   4.945   2.452   5.503  1.7490 -0.6163 -1.1894
  516MOL0     H71181   5.083   2.556   5.469 -0.2670  2.6698 -0.7190
  516MOL0     H71182   4.857   2.623   5.658 -0.0512 -0.6967  0.6440
  516MOL0     H71183   4.997   2.723   5.659 -4.0387  2.2523 -3.0976
  516MOL0     H71184   5.008   2.434   5.744 -0.9141 -0.6807  0.5004
  516MOL0     H71185   5.009   2.591   5.829  0.7765 -1.0629 -0.1640
  516MOL0     H71186   5.222   2.660   5.737  1.5120 -0.5802  1.4540
  516MOL0     H71187   5.229   2.518   5.628 -2.2971  0.0595 -1.2788
  516MOL0     H71188   4.576   2.379   5.032  0.4896 -1.0346 -0.9998
  516MOL0     H71189   4.385   2.300   4.880  0.4627  0.4900 -2.4490
  516MOL0     H71190   4.018   2.269   4.671  0.7692 -0.0384 -1.0300
  516MOL0     H71191   3.798   2.195   4.626  3.6187 -1.2444  0.7108
  516MOL0     H71192   2.351   2.651   3.791  0.6433  1.5326 -1.5527
  516MOL0     H71193   2.107   2.695   3.825 -1.3937 -0.0246 -1.1939
  516MOL0     H71194   1.724   2.642   3.862  2.3705 -2.2980 -1.0205
  516MOL0     H71195   1.518   2.633   4.000 -1.3403 -0.6180 -0.0339
  516MOL0     H71196   1.319   2.605   4.083  0.6568 -0.8326  0.0737
  516MOL0     H71197   1.285   2.709   3.941  0.1484  0.0050 -1.1345
  516MOL0     H71198   1.099   2.628   4.130  0.3956 -0.7306  0.8593
  516MOL0     H71199   1.086   2.483   4.034 -0.1521  0.8089  0.5595
  516MOL0     H71200   1.082   2.710   3.850  2.4237  0.0933  1.4055
  516MOL0     H71201   0.957   2.593   3.872  1.0212 -1.4176  0.3416
  516MOL0     H71202   0.869   2.719   4.080  0.8047  0.8017 -0.4226
  516MOL0     H71203   0.847   2.807   3.928 -0.9059 -0.0965  0.4180
  516MOL0     H71204   1.124   3.059   4.128  2.2852  0.2016 -1.1995
  516MOL0     H71205   1.341   2.390   3.691 -0.0129  0.2618  0.8797
  516MOL0     H71206   1.640   2.272   3.551 -1.2907 -2.0498 -3.3486
  516MOL0     H71207   1.469   2.267   3.547  0.7601 -0.1381  2.8323
  516MOL0     H71208   1.551   2.404   3.459 -2.5489  1.3779  0.8638
  517MOL0     O71209   7.584   5.224   9.734 -0.0986 -0.0336 -0.0407
  517MOL0     C71210   7.572   5.100   9.726 -1.1411 -0.6778 -0.3557
  517MOL0     O71211   7.454   5.037   9.733 -0.6814  0.6397 -1.1414
  517MOL0     C71212   7.332   5.085   9.689 -0.1158 -0.0663 -0.9702
  517MOL0     C71213   7.317   5.185   9.595  0.1763  0.2680  0.4314
  517MOL0     C71214   7.184   5.222   9.551  0.2995 -0.0448  0.1317
  517MOL0     C71215   7.070   5.157   9.601 -0.0559 -0.1896  0.4232
  517MOL0     O71216   6.949   5.190   9.547  0.6277  0.3632 -0.1362
  517MOL0     C71217   6.829   5.172   9.624  0.5220  0.1472 -0.9878
  517MOL0     C71218   6.743   5.289   9.578  0.4134  0.6928 -0.2242
  517MOL0     C71219   6.603   5.275   9.630 -0.4622 -0.3099  0.2114
  517MOL0     C71220   6.513   5.194   9.544  0.3689  0.0859 -0.8815
  517MOL0     C71221   6.376   5.189   9.610  0.7162  0.2416 -0.7948
  517MOL0     C71222   6.346   5.071   9.699 -0.1115 -0.5890  0.2742
  517MOL0     C71223   6.203   5.095   9.761  0.1842 -0.0594  0.6568
  517MOL0     C71224   6.168   5.012   9.880  0.1481  0.0075  0.1165
  517MOL0     N71225   6.116   4.883   9.832  0.5683 -0.2154  0.4607
  517MOL0     C71226   5.981   4.851   9.793 -0.8658 -0.2433 -0.0532
  517MOL0     C71227   5.983   4.720   9.779  0.2097 -1.3106 -0.1349
  517MOL0     C71228   5.863   4.645   9.723  0.3724 -0.0906 -1.4170
  517MOL0     C71229   5.846   4.641   9.572  0.3038  0.0121 -0.1317
  517MOL0     C71230   5.848   4.777   9.509 -0.6531 -0.1188 -0.6428
  517MOL0     C71231   5.845   4.766   9.362 -0.5727 -0.5040  0.5889
  517MOL0     O71232   5.844   4.906   9.316 -0.1903 -0.0528  0.1886
  517MOL0     C71233   5.958   4.967   9.270 -0.0573  0.8932  0.6059
  517MOL0     C71234   5.985   4.981   9.136  0.1033  0.0773 -0.3449
  517MOL0     C71235   6.107   5.020   9.081  0.6807  0.4428  0.7841
  517MOL0     C71236   6.105   5.047   8.940  0.4808  0.0419  1.1006
  517MOL0     C71237   6.219   5.052   9.163  0.1451  0.6361  0.3561
  517MOL0     C71238   6.360   5.090   9.116 -0.0366  0.0503 -1.0638
  517MOL0     O71239   6.460   5.109   9.219  0.2919 -0.3476  0.0949
  517MOL0     C71240   6.585   5.149   9.182 -0.3462 -0.0492  0.3573
  517MOL0     C71241   6.600   5.259   9.092  0.4294 -0.5670  0.1391
  517MOL0     C71242   6.721   5.310   9.069 -0.1541 -0.8997 -0.7320
  517MOL0     C71243   6.834   5.263   9.143 -0.0042 -0.0115 -0.0890
  517MOL0     O71244   6.956   5.310   9.097 -0.0392  1.7340 -0.0399
  517MOL0     C71245   7.051   5.328   9.203  0.3713 -0.1966  0.4227
  517MOL0     C71246   7.176   5.387   9.134  0.3482 -1.1837  0.3537
  517MOL0     C71247   7.304   5.382   9.219 -0.5989 -0.3043 -0.3105
  517MOL0     C71248   7.435   5.397   9.136  0.6173 -0.5167  0.1314
  517MOL0     C71249   7.558   5.401   9.223  0.3094 -0.5282  0.4683
  517MOL0     C71250   7.692   5.390   9.139  0.4685  1.0907 -0.5920
  517MOL0     C71251   7.718   5.245   9.105  0.1062 -0.1384  0.0984
  517MOL0     C71252   7.852   5.229   9.045 -0.6088  0.3424  0.2349
  517MOL0    Cl71253   7.872   5.056   9.009 -0.1062 -0.2692  0.1215
  517MOL0     C71254   6.816   5.159   9.234  0.1304 -0.7599 -0.5598
  517MOL0     C71255   6.686   5.110   9.257 -0.5611  0.2817 -0.5352
  517MOL0     O71256   6.388   5.097   8.997  0.2176  0.3274 -1.1271
  517MOL0     C71257   6.194   5.037   9.295 -0.5155 -1.2427 -0.9642
  517MOL0     C71258   6.068   5.002   9.350 -0.0810  0.5017 -0.5592
  517MOL0     N71259   6.103   4.661   9.792 -0.8956  0.0373 -0.0902
  517MOL0     N71260   6.188   4.763   9.827  0.1049  0.1949 -0.0665
  517MOL0     C71261   7.100   5.051   9.689 -0.0390 -1.0626 -0.0528
  517MOL0     C71262   7.225   5.012   9.737  0.5764 -0.0247  0.5399
  517MOL0     C71263   7.690   5.014   9.744 -0.3489 -0.6090  0.9647
  517MOL0     C71264   7.776   5.040   9.852 -0.1619 -0.8744  0.0092
  517MOL0     C71265   7.880   4.955   9.891  0.4679  0.9919 -0.0891
  517MOL0     C71266   7.915   4.853   9.804 -0.3469 -0.1076  0.2316
  517MOL0     O71267   8.041   4.797   9.804  0.7356 -0.3175 -0.0771
  517MOL0     C71268   8.149   4.878   9.852  0.6716 -0.3231 -0.5202
  517MOL0     C71269   8.277   4.839   9.777  0.5256 -0.1798  0.5967
  517MOL0     C71270   8.274   4.871   9.621 -0.6066  0.1179 -0.1749
  517MOL0     C71271   8.272   5.017   9.580 -0.2771  0.1116 -0.1523
  517MOL0     C71272   8.354   5.095   9.662 -0.4877 -0.3880  0.0036
  517MOL0     C71273   8.409   5.172   9.743 -0.1013 -0.2730  0.1536
  517MOL0     C71274   7.837   4.830   9.696  0.5504 -0.2003 -0.0331
  517MOL0     C71275   7.719   4.901   9.667  0.2903  0.6872 -0.5331
  517MOL0     C71276   7.636   4.852   9.546 -0.0613  0.0418  0.3749
  517MOL0     H71277   7.401   5.240   9.554  3.6461 -4.4705  0.4623
  517MOL0     H71278   7.163   5.299   9.478 -0.0077  0.6619  0.9420
  517MOL0     H71279   6.831   5.170   9.733  1.5069 -1.2609 -1.0092
  517MOL0     H71280   6.782   5.081   9.587  2.3624 -1.6198  0.8042
  517MOL0     H71281   6.783   5.387   9.606 -0.3189  1.2124 -0.9372
  517MOL0     H71282   6.741   5.289   9.468 -2.4437 -2.3293 -0.3295
  517MOL0     H71283   6.614   5.230   9.729 -0.7252 -2.1910 -0.5767
  517MOL0     H71284   6.565   5.376   9.649  2.8799  1.2198 -0.5262
  517MOL0     H71285   6.493   5.254   9.455 -3.5863  0.6051  0.1388
  517MOL0     H71286   6.554   5.097   9.516 -2.2864 -0.8749 -1.7284
  517MOL0     H71287   6.299   5.188   9.532 -1.7829 -0.6015  1.5499
  517MOL0     H71288   6.353   5.276   9.672 -2.2137 -0.2249 -1.0818
  517MOL0     H71289   6.338   4.983   9.634  0.2711 -0.5974  0.2331
  517MOL0     H71290   6.424   5.052   9.774  0.4562  4.0946  1.1520
  517MOL0     H71291   6.136   5.073   9.677  0.6594 -2.6938  0.8904
  517MOL0     H71292   6.183   5.201   9.777 -2.7532 -0.2112 -1.3288
  517MOL0     H71293   6.260   4.995   9.938  0.3120 -3.5348 -0.9715
  517MOL0     H71294   6.090   5.056   9.943 -1.2831  2.0000 -2.8502
  517MOL0     H71295   5.892   4.912   9.783  0.3917  1.6680 -0.1237
  517MOL0     H71296   5.775   4.687   9.773  1.3056 -0.2075  0.3912
  517MOL0     H71297   5.859   4.543   9.760 -2.2350  0.8284  1.2220
  517MOL0     H71298   5.929   4.582   9.534  1.2463  2.4483 -2.1871
  517MOL0     H71299   5.757   4.584   9.544  0.6627 -0.3735 -0.4869
  517MOL0     H71300   5.763   4.839   9.539 -0.2862 -0.1381  0.5065
  517MOL0     H71301   5.940   4.834   9.530  0.9556 -3.0213  0.9037
  517MOL0     H71302   5.933   4.710   9.330 -0.1608  1.0596 -1.2118
  517MOL0     H71303   5.758   4.717   9.317 -1.3480  2.0072 -0.8409
  517MOL0     H71304   5.906   4.944   9.071  0.5306 -1.8610  0.1876
  517MOL0     H71305   6.128   5.150   8.911 -1.3104  0.8753  2.4672
  517MOL0     H71306   6.009   5.027   8.894  0.6196 -1.3381  1.3801
  517MOL0     H71307   6.183   4.984   8.896 -0.3499  0.1420 -0.5730
  517MOL0     H71308   6.511   5.297   9.044 -0.6711 -3.8693 -0.7335
  517MOL0     H71309   6.724   5.384   8.990  0.2274 -0.1287 -0.0141
  517MOL0     H71310   7.016   5.392   9.285 -0.2263 -0.1574  0.1461
  517MOL0     H71311   7.085   5.233   9.245  1.7232  0.3498  0.6312
  517MOL0     H71312   7.198   5.331   9.043 -1.7816  3.2140 -3.2549
  517MOL0     H71313   7.154   5.492   9.115  1.2913 -0.5653  2.3935
  517MOL0     H71314   7.303   5.281   9.260 -1.2042 -1.8776 -3.7878
  517MOL0     H71315   7.302   5.456   9.299  0.7124  1.8824 -2.1531
  517MOL0     H71316   7.425   5.497   9.094 -0.6898 -1.2620 -1.4374
  517MOL0     H71317   7.438   5.316   9.062 -3.0976 -0.5593 -0.1803
  517MOL0     H71318   7.562   5.499   9.270 -1.0487 -0.3118  0.1596
  517MOL0     H71319   7.558   5.332   9.308  1.1258  1.1289  1.8782
  517MOL0     H71320   7.775   5.433   9.196 -0.9117  3.0756  0.0581
  517MOL0     H71321   7.672   5.442   9.044 -3.2585 -1.1211 -1.2328
  517MOL0     H71322   7.648   5.211   9.028 -1.4827 -2.6914  2.4770
  517MOL0     H71323   7.698   5.179   9.190 -1.1107  1.0779  0.8080
  517MOL0     H71324   7.929   5.249   9.120  0.9566 -1.3900 -0.7999
  517MOL0     H71325   7.866   5.288   8.954 -0.5374 -0.2295 -0.1282
  517MOL0     H71326   6.902   5.115   9.285  2.8154  1.0276 -3.2008
  517MOL0     H71327   6.657   5.032   9.327  0.3562 -0.2230 -0.6963
  517MOL0     H71328   6.268   5.074   9.364 -1.0419 -1.1046 -0.4660
  517MOL0     H71329   6.058   5.015   9.457 -1.4625 -1.6014 -0.3683
  517MOL0     H71330   7.021   4.997   9.740 -0.0025  0.5582  1.8473
  517MOL0     H71331   7.248   4.927   9.799 -0.1090 -1.0565 -0.5880
  517MOL0     H71332   7.741   5.111   9.926  2.8462 -0.9243  1.6595
  517MOL0     H71333   7.934   4.980   9.982  3.3074  0.3014 -1.4573
  517MOL0     H71334   8.129   4.985   9.836  1.2232 -0.3344 -1.3622
  517MOL0     H71335   8.155   4.866   9.961 -1.9621 -1.4524 -0.4271
  517MOL0     H71336   8.300   4.735   9.798 -0.2797  0.1548  3.6221
  517MOL0     H71337   8.366   4.885   9.821  1.3688 -0.8645 -0.3422
  517MOL0     H71338   8.373   4.835   9.591  0.4676  2.5592  0.1662
  517MOL0     H71339   8.202   4.803   9.575 -0.0400  0.7147 -2.0625
  517MOL0     H71340   8.170   5.056   9.583 -0.9674 -1.3902 -1.9196
  517MOL0     H71341   8.310   5.019   9.477  0.7200 -0.9434  0.1698
  517MOL0     H71342   8.463   5.244   9.801 -0.8824  0.9273 -0.5680
  517MOL0     H71343   7.864   4.749   9.629 -1.7618 -1.2781  0.2320
  517MOL0     H71344   7.545   4.912   9.540  1.1974  2.1992  1.5880
  517MOL0     H71345   7.692   4.854   9.452  1.2419 -0.1736  1.1199
  517MOL0     H71346   7.613   4.747   9.564  0.8507 -0.0840  0.8641
  518MOL0     O71347   2.631   3.761   2.385  0.0948  0.3508 -0.3909
  518MOL0     C71348   2.615   3.773   2.507 -0.1625 -0.0351  0.6556
  518MOL0     O71349   2.716   3.778   2.603  0.0915  0.0759 -0.0482
  518MOL0     C71350   2.846   3.810   2.577 -1.2322  0.2930 -0.9717
  518MOL0     C71351   2.890   3.901   2.480 -0.0031  0.0749  0.7092
  518MOL0     C71352   3.032   3.920   2.453  0.2168 -0.2623  0.3136
  518MOL0     C71353   3.126   3.836   2.518 -0.4321 -0.1259 -0.2193
  518MOL0     O71354   3.260   3.832   2.481  0.2692 -1.0399  0.5985
  518MOL0     C71355   3.362   3.802   2.580  0.2371 -0.5858 -0.3134
  518MOL0     C71356   3.497   3.862   2.550 -0.8113 -0.3151  0.1090
  518MOL0     C71357   3.590   3.842   2.669 -0.7359 -0.6531  0.9602
  518MOL0     C71358   3.712   3.758   2.626  0.4149 -0.5921 -0.4714
  518MOL0     C71359   3.680   3.609   2.615  1.0019  0.1102  0.3845
  518MOL0     C71360   3.786   3.533   2.543  0.2140 -0.1736  0.3833
  518MOL0     C71361   3.733   3.447   2.429 -0.4482  0.8773 -0.3915
  518MOL0     C71362   3.842   3.373   2.347  0.8384  0.7927  0.6766
  518MOL0     N71363   3.915   3.269   2.424 -0.6515  0.7209  0.6082
  518MOL0     C71364   4.018   3.286   2.509  0.7979  0.7993 -0.0809
  518MOL0     C71365   4.055   3.159   2.555  0.1256  0.2849 -0.5253
  518MOL0     C71366   4.169   3.127   2.652 -0.0280 -0.0675 -0.3942
  518MOL0     C71367   4.294   3.103   2.574  0.6314  0.0624  0.7089
  518MOL0     C71368   4.395   3.046   2.666 -0.8198  0.2787 -0.6646
  518MOL0     C71369   4.533   3.048   2.593  0.3828 -0.4398 -0.4864
  518MOL0     O71370   4.637   2.997   2.677  0.7019  0.3578 -1.2960
  518MOL0     C71371   4.770   3.015   2.654 -0.1047  0.0415 -0.3497
  518MOL0     C71372   4.814   3.037   2.530  0.3921 -0.3576 -0.0006
  518MOL0     C71373   4.953   3.060   2.489 -0.6209 -0.3169  0.6342
  518MOL0     C71374   4.977   3.098   2.342  0.2249 -0.2094 -0.0879
  518MOL0     C71375   5.047   3.046   2.593 -0.6156 -0.1770 -0.6656
  518MOL0     C71376   5.191   3.076   2.581  0.1329 -0.0378 -0.4581
  518MOL0     O71377   5.271   3.079   2.701  0.4781 -0.3334  0.9772
  518MOL0     C71378   5.403   3.113   2.685  0.6714 -0.3757 -0.0189
  518MOL0     C71379   5.431   3.249   2.689  0.9165 -0.2621  0.3639
  518MOL0     C71380   5.566   3.286   2.664 -0.1794 -0.0625 -1.1936
  518MOL0     C71381   5.666   3.195   2.629  0.7336 -0.0279 -0.6022
  518MOL0     O71382   5.806   3.212   2.621  1.0451 -0.0520 -0.0214
  518MOL0     C71383   5.843   3.350   2.658 -0.3776 -0.1478  0.8561
  518MOL0     C71384   5.999   3.368   2.649 -0.3212 -0.4980  0.1806
  518MOL0     C71385   6.069   3.370   2.782 -0.5216  0.0348  0.3928
  518MOL0     C71386   6.094   3.231   2.829 -0.0713 -0.8636  0.6010
  518MOL0     C71387   6.132   3.217   2.975 -0.4541  0.3269 -0.8041
  518MOL0     C71388   6.167   3.066   3.002 -0.1041  0.1779  0.0436
  518MOL0     C71389   6.299   3.017   2.944  1.1806 -1.3805 -1.0093
  518MOL0     C71390   6.345   2.892   3.024  0.5809 -0.3373  0.1801
  518MOL0    Cl71391   6.375   2.957   3.184 -0.3899  0.2695 -0.1381
  518MOL0     C71392   5.622   3.067   2.602 -0.6522 -0.7624  0.3562
  518MOL0     C71393   5.492   3.025   2.623 -0.4134 -0.3793 -0.2375
  518MOL0     O71394   5.239   3.084   2.467 -0.1481  0.2045 -0.5491
  518MOL0     C71395   5.002   3.014   2.726 -0.2408 -0.0381  0.4579
  518MOL0     C71396   4.865   3.006   2.754  0.0224 -0.3423  0.6159
  518MOL0     N71397   3.958   3.070   2.507  0.0785  0.1090 -0.4985
  518MOL0     N71398   3.882   3.137   2.425  0.4555  0.1530  0.8211
  518MOL0     C71399   3.088   3.749   2.612  0.0463 -0.5124  0.4394
  518MOL0     C71400   2.950   3.738   2.642 -0.4471  0.9174  0.2308
  518MOL0     C71401   2.473   3.779   2.550 -0.1533  0.2478  0.1248
  518MOL0     C71402   2.445   3.770   2.687  0.2623  0.2775  0.4427
  518MOL0     C71403   2.320   3.765   2.729  1.1716 -0.1866 -0.6591
  518MOL0     C71404   2.209   3.795   2.657  0.3759 -0.3456  0.5272
  518MOL0     O71405   2.091   3.822   2.728 -0.7728  0.4884  0.0128
  518MOL0     C71406   1.980   3.872   2.665 -0.6985  0.0017  0.5112
  518MOL0     C71407   1.872   3.907   2.771 -0.5702 -0.3723 -0.1358
  518MOL0     C71408   1.930   3.972   2.901 -0.7322  0.1978 -0.5384
  518MOL0     C71409   1.837   3.955   3.017  0.0675  0.6666  0.0971
  518MOL0     C71410   1.695   3.988   2.986 -0.1795  0.0358 -0.6024
  518MOL0     C71411   1.576   4.011   2.961 -0.5351 -0.2737  0.4512
  518MOL0     C71412   2.237   3.827   2.521  0.2395  0.0586 -0.4045
  518MOL0     C71413   2.363   3.811   2.464 -0.1005 -0.6116 -0.5362
  518MOL0     C71414   2.365   3.840   2.317  0.4482 -0.3629  0.6288
  518MOL0     H71415   2.824   3.965   2.422  1.4140  1.7530  0.8551
  518MOL0     H71416   3.079   3.995   2.389  1.0123 -2.3441 -1.6655
  518MOL0     H71417   3.374   3.694   2.580  1.0415 -0.5234 -1.9710
  518MOL0     H71418   3.317   3.845   2.671 -0.8563 -0.2295 -0.9970
  518MOL0     H71419   3.532   3.806   2.463 -1.7446 -0.6888 -0.0405
  518MOL0     H71420   3.487   3.969   2.532 -0.4080 -0.1332  0.9130
  518MOL0     H71421   3.626   3.943   2.690 -0.6221  0.0066 -2.0231
  518MOL0     H71422   3.550   3.780   2.749 -0.0188 -2.8059 -0.2674
  518MOL0     H71423   3.748   3.790   2.528  3.0351 -1.1825  0.2468
  518MOL0     H71424   3.792   3.761   2.700 -0.1115 -0.1986  0.0877
  518MOL0     H71425   3.599   3.609   2.541  2.5344 -0.8004 -1.3736
  518MOL0     H71426   3.657   3.561   2.710 -1.1972  0.4300  0.0641
  518MOL0     H71427   3.857   3.600   2.494  0.4301 -0.1299  0.7497
  518MOL0     H71428   3.839   3.473   2.618  1.3032 -0.7287 -0.7864
  518MOL0     H71429   3.688   3.517   2.358  0.6318  0.1592 -1.8310
  518MOL0     H71430   3.658   3.374   2.460  1.6974 -1.4905 -0.3919
  518MOL0     H71431   3.795   3.323   2.261  2.3589 -1.8666  1.2671
  518MOL0     H71432   3.910   3.445   2.301 -0.9708  1.8692 -0.4766
  518MOL0     H71433   4.065   3.379   2.539  1.5134  0.3001  0.3652
  518MOL0     H71434   4.137   3.036   2.705 -1.8904  0.6266 -0.2476
  518MOL0     H71435   4.180   3.209   2.724 -0.3474 -0.2955 -0.0781
  518MOL0     H71436   4.280   3.050   2.480 -0.5175  2.4554 -0.5471
  518MOL0     H71437   4.327   3.205   2.553  1.9021 -0.0771  1.8644
  518MOL0     H71438   4.411   3.111   2.753 -0.0285  0.3426 -0.8469
  518MOL0     H71439   4.373   2.947   2.707  2.0794  0.8105  2.7497
  518MOL0     H71440   4.532   3.004   2.493  2.3892 -0.5075 -0.5081
  518MOL0     H71441   4.563   3.149   2.564 -0.4902 -0.1612 -0.4346
  518MOL0     H71442   4.744   3.039   2.447  1.4129 -0.3813 -0.8846
  518MOL0     H71443   5.000   3.015   2.276 -0.4744 -0.5119  0.0348
  518MOL0     H71444   5.046   3.182   2.332 -1.7206  1.6591  1.2188
  518MOL0     H71445   4.883   3.138   2.302  0.2222  0.1737  0.2891
  518MOL0     H71446   5.355   3.324   2.711  2.0727  1.1909 -0.4451
  518MOL0     H71447   5.609   3.386   2.664  1.6438 -0.7523  1.3546
  518MOL0     H71448   5.801   3.418   2.582  0.4251 -1.8149 -1.1936
  518MOL0     H71449   5.817   3.378   2.760  3.2052 -0.4945  2.0073
  518MOL0     H71450   6.041   3.285   2.591 -1.1996 -2.2293  1.9103
  518MOL0     H71451   6.024   3.466   2.607 -1.1913 -0.2054  0.3308
  518MOL0     H71452   6.015   3.435   2.852 -2.9689  0.0500 -1.3548
  518MOL0     H71453   6.170   3.410   2.774 -0.2216 -0.8845 -0.6624
  518MOL0     H71454   6.180   3.205   2.766  1.8153  2.4015  1.5360
  518MOL0     H71455   6.001   3.179   2.809 -1.4379  0.7311  2.4255
  518MOL0     H71456   6.218   3.277   3.006 -0.3786  0.1788 -0.7278
  518MOL0     H71457   6.047   3.247   3.037 -2.2023  0.3706 -3.0890
  518MOL0     H71458   6.089   3.006   2.955 -1.1881  1.5915 -0.0338
  518MOL0     H71459   6.156   3.045   3.109 -0.6161 -0.7270 -0.1787
  518MOL0     H71460   6.377   3.088   2.974 -1.7063  0.8361  1.9969
  518MOL0     H71461   6.284   3.007   2.836 -0.7265  2.0461 -1.2229
  518MOL0     H71462   6.430   2.854   2.967  0.7173  1.5057 -0.9209
  518MOL0     H71463   6.276   2.807   3.032 -0.2737 -0.1376 -3.3683
  518MOL0     H71464   5.699   3.005   2.557  2.5782  2.4248  1.0094
  518MOL0     H71465   5.458   2.924   2.602 -1.1080  0.1964 -2.0163
  518MOL0     H71466   5.070   3.010   2.811  0.8012 -1.3727 -0.4028
  518MOL0     H71467   4.824   3.001   2.854 -3.1813  1.1647 -0.4802
  518MOL0     H71468   3.153   3.680   2.664 -2.0302 -0.9677  2.6292
  518MOL0     H71469   2.917   3.661   2.711 -0.0551  0.2889 -0.2771
  518MOL0     H71470   2.527   3.734   2.748  0.0737 -0.8555  0.0369
  518MOL0     H71471   2.307   3.744   2.834 -0.6081  4.0280  0.1473
  518MOL0     H71472   2.009   3.963   2.611 -0.3800  1.1404  2.5366
  518MOL0     H71473   1.942   3.806   2.586  2.7121  0.2475 -1.5700
  518MOL0     H71474   1.819   3.816   2.802  0.5244 -0.8850  0.3081
  518MOL0     H71475   1.805   3.979   2.723 -1.5432 -2.3005 -1.8208
  518MOL0     H71476   2.024   3.921   2.922 -0.4578  0.7618 -0.3738
  518MOL0     H71477   1.959   4.077   2.884 -0.9065  0.5356  1.0986
  518MOL0     H71478   1.869   4.039   3.081  0.7733  3.0871 -3.1799
  518MOL0     H71479   1.849   3.852   3.052 -2.9057  0.4416  0.7164
  518MOL0     H71480   1.473   4.038   2.944  0.0231  0.7255 -1.7411
  518MOL0     H71481   2.150   3.842   2.457  1.1669 -3.5214 -2.7868
  518MOL0     H71482   2.445   3.909   2.291  0.5576 -1.3028 -1.7307
  518MOL0     H71483   2.382   3.744   2.268 -1.5337 -0.6507  0.3978
  518MOL0     H71484   2.268   3.878   2.282 -0.1040 -1.4620  0.8860
  519MOL0     O71485   7.368  10.352   6.269  0.4211 -0.1850 -0.4018
  519MOL0     C71486   7.341  10.232   6.259 -0.2927 -0.4551  1.0560
  519MOL0     O71487   7.218  10.178   6.235  0.1762 -0.8051  0.4196
  519MOL0     C71488   7.105  10.259   6.200 -1.2718  0.4808  0.4630
  519MOL0     C71489   7.103  10.389   6.138  1.0876 -0.2825  0.2886
  519MOL0     C71490   6.981  10.450   6.108  0.6803 -1.0356 -0.2392
  519MOL0     C71491   6.861  10.388   6.134 -0.1158 -1.8276  0.6014
  519MOL0     O71492   6.748  10.464   6.106  0.5902 -0.0121  1.1796
  519MOL0     C71493   6.628  10.393   6.087 -1.2986 -0.7299 -0.3166
  519MOL0     C71494   6.516  10.489   6.034 -0.7274 -0.5882 -0.3067
  519MOL0     C71495   6.539  10.533   5.889 -0.3984  0.2877  0.0601
  519MOL0     C71496   6.425  10.497   5.796 -0.1299  0.0996  0.8829
  519MOL0     C71497   6.449  10.519   5.648 -0.2544 -0.2545  0.0957
  519MOL0     C71498   6.462  10.668   5.602 -0.1885 -0.5479 -0.6362
  519MOL0     C71499   6.443  10.694   5.455  0.2433 -0.0119  0.8480
  519MOL0     C71500   6.457  10.841   5.413 -0.2278 -0.4703  0.7005
  519MOL0     N71501   6.456  10.856   5.267 -0.3033 -0.4614  0.4814
  519MOL0     C71502   6.349  10.814   5.184 -1.0463 -0.0719 -0.3562
  519MOL0     C71503   6.405  10.794   5.061  0.3356  0.8892 -0.5296
  519MOL0     C71504   6.334  10.719   4.948  0.7103  0.2998 -0.7909
  519MOL0     C71505   6.428  10.628   4.863  0.1804  1.1769  0.1995
  519MOL0     C71506   6.366  10.558   4.750 -0.3657  1.0412  0.1781
  519MOL0     C71507   6.463  10.471   4.666 -0.7963  0.3031  0.8424
  519MOL0     O71508   6.599  10.441   4.724  0.3453 -0.4265  0.3206
  519MOL0     C71509   6.625  10.330   4.807  0.1482 -0.2464 -0.5815
  519MOL0     C71510   6.759  10.307   4.828  0.8703  0.6883  0.1226
  519MOL0     C71511   6.800  10.195   4.903 -0.0605  0.5468 -0.6769
  519MOL0     C71512   6.952  10.167   4.908  0.5947 -0.1408 -0.2533
  519MOL0     C71513   6.710  10.094   4.957 -0.0593 -0.2485 -0.4342
  519MOL0     C71514   6.741   9.978   5.037  0.7134  0.4531 -1.0749
  519MOL0     O71515   6.646   9.886   5.036 -0.8126 -0.2991 -0.2899
  519MOL0     C71516   6.666   9.782   5.127  0.3765 -0.3777 -0.0722
  519MOL0     C71517   6.755   9.675   5.095 -0.7122  0.3291  0.0958
  519MOL0     C71518   6.779   9.568   5.189  0.2150 -0.5163  0.6834
  519MOL0     C71519   6.694   9.555   5.296 -0.0485  0.0920 -0.1095
  519MOL0     O71520   6.702   9.441   5.379  0.2075  0.0026 -0.4681
  519MOL0     C71521   6.717   9.312   5.304 -0.2563 -0.0486 -0.3110
  519MOL0     C71522   6.662   9.195   5.391  0.4499 -0.5441  0.1085
  519MOL0     C71523   6.531   9.212   5.470  0.2092  0.2946 -0.0656
  519MOL0     C71524   6.422   9.265   5.383 -0.3450 -0.2267  0.1656
  519MOL0     C71525   6.286   9.255   5.444  0.0201  0.3743 -0.1188
  519MOL0     C71526   6.230   9.113   5.434 -0.2187 -0.6752 -0.5642
  519MOL0     C71527   6.083   9.101   5.472  1.4953  0.1320  0.0762
  519MOL0     C71528   5.983   9.161   5.373 -0.6493  0.9654  0.6147
  519MOL0    Cl71529   5.826   9.088   5.411  0.1039  0.0267  0.4836
  519MOL0     C71530   6.597   9.656   5.327  0.1364  0.5191 -1.1532
  519MOL0     C71531   6.587   9.764   5.244  0.2809 -0.3548  0.5153
  519MOL0     O71532   6.820   9.992   5.128 -0.8873  0.2572  0.1058
  519MOL0     C71533   6.569  10.122   4.937 -0.4873  0.2984 -0.0866
  519MOL0     C71534   6.532  10.234   4.858  0.7595 -0.1035 -0.2852
  519MOL0     N71535   6.534  10.833   5.066 -1.1467  0.0695 -0.1630
  519MOL0     N71536   6.571  10.868   5.183  0.5571 -0.3891 -0.0399
  519MOL0     C71537   6.867  10.256   6.180  0.3326 -0.2208  0.5512
  519MOL0     C71538   6.980  10.189   6.210 -0.4304  0.1155 -0.3387
  519MOL0     C71539   7.449  10.132   6.273 -0.4522  0.2505  0.2665
  519MOL0     C71540   7.423   9.994   6.275  0.1045 -0.5668  0.1090
  519MOL0     C71541   7.526   9.898   6.286 -0.3357 -0.7172 -0.9962
  519MOL0     C71542   7.660   9.937   6.296 -0.3271 -1.1506  0.3679
  519MOL0     O71543   7.766   9.856   6.302 -0.0276 -0.0467  0.3961
  519MOL0     C71544   7.733   9.721   6.323  0.0303  0.0146  0.5633
  519MOL0     C71545   7.863   9.656   6.377  0.2395 -0.7086  0.0541
  519MOL0     C71546   7.929   9.738   6.486  0.6682  0.1460 -0.0615
  519MOL0     C71547   8.052   9.674   6.544  0.2892  0.2327  0.2105
  519MOL0     C71548   8.064   9.695   6.686 -0.2408 -0.1565 -0.2465
  519MOL0     C71549   8.071   9.694   6.806  0.4600 -0.1187  0.2422
  519MOL0     C71550   7.682  10.067   6.281 -0.3265 -0.6083  0.4114
  519MOL0     C71551   7.587  10.165   6.265 -0.0693 -0.8445  0.4321
  519MOL0     C71552   7.651  10.303   6.243  0.3702  1.0497 -0.3242
  519MOL0     H71553   7.193  10.445   6.114  1.0688 -0.2097  0.3946
  519MOL0     H71554   6.980  10.553   6.073 -2.1944 -1.0492 -0.4437
  519MOL0     H71555   6.601  10.341   6.179  2.2578 -0.2345  1.1673
  519MOL0     H71556   6.647  10.314   6.014 -0.0750  0.2200 -1.0675
  519MOL0     H71557   6.415  10.455   6.060 -0.7732  1.3358  2.6493
  519MOL0     H71558   6.511  10.576   6.101 -4.3907 -2.5500  2.3121
  519MOL0     H71559   6.538  10.643   5.889 -0.0654  0.3527  2.5846
  519MOL0     H71560   6.636  10.506   5.849 -1.1554  1.7158 -3.0234
  519MOL0     H71561   6.388  10.395   5.807 -2.9402  0.7033 -1.7396
  519MOL0     H71562   6.346  10.568   5.823  1.4360  1.1644  2.9660
  519MOL0     H71563   6.366  10.477   5.592 -1.0859  2.7732 -1.1532
  519MOL0     H71564   6.537  10.460   5.622 -1.6087 -1.4840 -1.9126
  519MOL0     H71565   6.390  10.739   5.643  2.1878  2.7428 -1.7187
  519MOL0     H71566   6.562  10.709   5.616  0.1982 -0.6548 -2.7428
  519MOL0     H71567   6.346  10.648   5.435  1.3731 -2.2803  0.1179
  519MOL0     H71568   6.505  10.631   5.389 -1.4831  1.4777 -2.4505
  519MOL0     H71569   6.373  10.907   5.438  0.3192  1.2424 -1.6118
  519MOL0     H71570   6.548  10.891   5.448  1.0983  0.0194 -2.9512
  519MOL0     H71571   6.247  10.790   5.210 -0.8078 -0.7252 -0.0024
  519MOL0     H71572   6.279  10.792   4.888 -0.0194  0.6127  0.2294
  519MOL0     H71573   6.254  10.653   4.982  0.1660  1.5092  0.3599
  519MOL0     H71574   6.514  10.683   4.824 -0.2764 -0.7804 -4.1937
  519MOL0     H71575   6.469  10.550   4.928 -1.2784 -0.7659 -1.0854
  519MOL0     H71576   6.288  10.491   4.787 -1.6952  3.0962  1.2737
  519MOL0     H71577   6.320  10.640   4.695 -0.3415  1.2257  0.4356
  519MOL0     H71578   6.417  10.375   4.642  1.1261 -0.0772 -1.6663
  519MOL0     H71579   6.482  10.525   4.573 -0.5403  1.4331  1.5268
  519MOL0     H71580   6.835  10.371   4.786  1.9006 -0.3195  0.4018
  519MOL0     H71581   7.006  10.209   4.994  2.2570 -2.0465 -0.2975
  519MOL0     H71582   6.998  10.198   4.814  0.4048  2.1359  0.3227
  519MOL0     H71583   6.961  10.059   4.915 -1.0794 -0.2409  0.9781
  519MOL0     H71584   6.819   9.690   5.008 -1.6048  0.2035 -0.5954
  519MOL0     H71585   6.858   9.495   5.175  0.0769 -1.1417  2.8682
  519MOL0     H71586   6.658   9.324   5.213  0.4787  0.6782 -0.7054
  519MOL0     H71587   6.818   9.298   5.263 -0.3812  0.4990 -0.8117
  519MOL0     H71588   6.656   9.116   5.315 -2.6534 -0.4831  0.1621
  519MOL0     H71589   6.736   9.166   5.466 -0.5441  0.3730  1.4796
  519MOL0     H71590   6.545   9.292   5.544 -1.1749  0.5570 -0.0699
  519MOL0     H71591   6.494   9.124   5.523 -1.1947  0.5247 -0.6364
  519MOL0     H71592   6.431   9.204   5.293 -0.6373 -1.2441  0.8105
  519MOL0     H71593   6.441   9.371   5.361 -2.5478  0.2903  0.4685
  519MOL0     H71594   6.291   9.278   5.551 -0.0817 -2.4442  0.5601
  519MOL0     H71595   6.222   9.321   5.385  0.2639  2.0002  1.3347
  519MOL0     H71596   6.287   9.056   5.508 -1.6918 -1.6900 -0.1747
  519MOL0     H71597   6.241   9.078   5.331 -1.6965 -1.1789 -0.5699
  519MOL0     H71598   6.064   9.137   5.574  3.6161  0.3794  0.4247
  519MOL0     H71599   6.071   8.992   5.467  3.1486 -0.0912  0.3870
  519MOL0     H71600   5.997   9.150   5.265 -2.4130  2.5458  0.1717
  519MOL0     H71601   5.983   9.269   5.390 -2.4949  1.3376 -1.3894
  519MOL0     H71602   6.536   9.629   5.412  1.6186  1.7391  0.3799
  519MOL0     H71603   6.530   9.849   5.278 -1.7425  0.4385 -4.0955
  519MOL0     H71604   6.492  10.054   4.971 -0.0715  0.1684  0.6215
  519MOL0     H71605   6.429  10.263   4.840  0.9642  3.7125  3.2155
  519MOL0     H71606   6.774  10.202   6.194  1.0344 -1.3900  0.7640
  519MOL0     H71607   6.969  10.089   6.250  0.3277 -0.0032 -0.4133
  519MOL0     H71608   7.321   9.962   6.259 -0.6955  0.7714  2.0818
  519MOL0     H71609   7.499   9.793   6.284 -1.7694 -0.3845 -0.6395
  519MOL0     H71610   7.648   9.714   6.392 -2.4890 -2.8388 -2.5388
  519MOL0     H71611   7.697   9.670   6.233  1.3413  2.0120 -1.1911
  519MOL0     H71612   7.927   9.647   6.290 -1.5056 -1.2404 -1.2297
  519MOL0     H71613   7.844   9.555   6.417  1.1331 -0.9502 -0.1258
  519MOL0     H71614   7.960   9.835   6.445  3.4532 -0.2643  0.8863
  519MOL0     H71615   7.858   9.760   6.566  1.3730  1.5046  0.2278
  519MOL0     H71616   8.140   9.713   6.491  0.7066 -0.3439  0.4655
  519MOL0     H71617   8.046   9.566   6.526 -0.9610  0.6065 -2.0256
  519MOL0     H71618   8.071   9.694   6.913 -2.2486 -0.8927  0.3233
  519MOL0     H71619   7.785  10.097   6.271 -0.9342  1.1317 -1.3266
  519MOL0     H71620   7.599  10.356   6.162  1.1693  1.1162 -0.8022
  519MOL0     H71621   7.643  10.359   6.336 -1.9463  3.8517 -2.0328
  519MOL0     H71622   7.751  10.294   6.199  0.2222  1.6558 -0.7930
  520MOL0     O71623   4.700   9.125   4.087  0.2345  1.0974  0.2732
  520MOL0     C71624   4.668   9.217   4.022  0.1853 -0.7639  0.1550
  520MOL0     O71625   4.751   9.294   3.943  0.3112 -0.0648  0.0479
  520MOL0     C71626   4.884   9.310   3.979  0.7960  0.7351 -0.0039
  520MOL0     C71627   4.932   9.316   4.112 -0.0184  1.1768  0.4294
  520MOL0     C71628   5.061   9.351   4.134  0.0209  0.3297  0.3162
  520MOL0     C71629   5.152   9.377   4.031 -0.0379 -0.4563 -0.4259
  520MOL0     O71630   5.280   9.411   4.057 -0.4061 -0.5890  0.0234
  520MOL0     C71631   5.387   9.384   3.958 -0.5035 -1.3593 -0.4919
  520MOL0     C71632   5.497   9.344   4.048  0.0350  0.2501  0.1873
  520MOL0     C71633   5.576   9.464   4.098  0.2182  0.5907 -0.0132
  520MOL0     C71634   5.657   9.423   4.229  0.8577  0.8757  0.6950
  520MOL0     C71635   5.717   9.549   4.291 -0.1876  0.0423  0.1558
  520MOL0     C71636   5.835   9.505   4.382  0.1972  0.5898  0.5260
  520MOL0     C71637   5.876   9.625   4.455  0.4896  1.5164 -0.0731
  520MOL0     C71638   5.950   9.589   4.589 -0.3962 -0.0591  0.3716
  520MOL0     N71639   6.093   9.560   4.546 -0.2656  0.2331 -0.6012
  520MOL0     C71640   6.141   9.436   4.528  0.3926 -0.1629 -0.6872
  520MOL0     C71641   6.273   9.442   4.489  0.2095 -0.1944 -0.0387
  520MOL0     C71642   6.368   9.336   4.463  0.9342 -0.0842  0.9265
  520MOL0     C71643   6.310   9.217   4.377  0.0648 -0.9016  0.1959
  520MOL0     C71644   6.257   9.100   4.466  0.0395 -0.4569 -0.0946
  520MOL0     C71645   6.304   8.961   4.437  0.3885  0.0732  0.8659
  520MOL0     O71646   6.273   8.863   4.534  0.0548  0.2576 -0.2928
  520MOL0     C71647   6.142   8.822   4.544  0.5319  0.4563  0.2089
  520MOL0     C71648   6.118   8.735   4.653  0.4806  0.2022  0.1596
  520MOL0     C71649   5.992   8.679   4.681 -0.3836  0.2530 -0.2631
  520MOL0     C71650   5.979   8.583   4.792  0.6603  0.1817  0.2902
  520MOL0     C71651   5.886   8.732   4.610 -0.5218  0.2878  0.4042
  520MOL0     C71652   5.745   8.692   4.638  0.1366 -0.2969 -0.2920
  520MOL0     O71653   5.656   8.713   4.540  0.0691 -0.4033  0.1978
  520MOL0     C71654   5.540   8.629   4.545  0.0569 -0.5392 -0.5137
  520MOL0     C71655   5.563   8.484   4.552  0.8380  0.2914 -0.4553
  520MOL0     C71656   5.457   8.399   4.530  0.5790  1.1128  0.1752
  520MOL0     C71657   5.326   8.442   4.509 -0.4376  0.3255 -0.0231
  520MOL0     O71658   5.228   8.346   4.482 -0.0721 -0.6033 -0.4860
  520MOL0     C71659   5.098   8.380   4.519 -0.4263  0.1406  0.2423
  520MOL0     C71660   5.076   8.309   4.649  1.3275 -0.1453 -0.3846
  520MOL0     C71661   4.930   8.322   4.691 -0.4181  0.4104  0.2210
  520MOL0     C71662   4.915   8.245   4.813  0.3695 -0.9144 -0.7814
  520MOL0     C71663   4.788   8.305   4.886 -0.4983 -0.0258  0.1413
  520MOL0     C71664   4.779   8.242   5.028  0.0912  1.0020  0.0532
  520MOL0     C71665   4.693   8.110   5.037 -0.1261 -0.0778 -0.6770
  520MOL0     C71666   4.540   8.135   5.001 -0.1971  0.2778  0.1964
  520MOL0    Cl71667   4.454   8.216   5.138 -0.2765 -0.0766  0.0742
  520MOL0     C71668   5.302   8.583   4.512 -0.0457  0.5147 -0.4350
  520MOL0     C71669   5.409   8.671   4.521  0.2909  0.2273  0.2340
  520MOL0     O71670   5.716   8.658   4.751 -0.5365  0.0997 -0.3455
  520MOL0     C71671   5.920   8.808   4.496 -0.7551 -0.3329 -0.1316
  520MOL0     C71672   6.044   8.847   4.454 -0.0002 -0.4192  0.2216
  520MOL0     N71673   6.299   9.583   4.482 -0.0639  0.1050  0.2090
  520MOL0     N71674   6.197   9.643   4.525 -0.2668 -0.0775  1.0293
  520MOL0     C71675   5.106   9.372   3.898  0.5787  0.0629  0.0415
  520MOL0     C71676   4.969   9.344   3.873 -0.0468  1.6186  0.2117
  520MOL0     C71677   4.519   9.256   4.011 -0.4748 -0.7602 -0.0100
  520MOL0     C71678   4.487   9.385   3.957  1.3263 -0.3563 -0.5436
  520MOL0     C71679   4.354   9.427   3.966 -0.1701  0.2893 -0.4232
  520MOL0     C71680   4.250   9.350   4.006  0.4308  0.1695 -0.4606
  520MOL0     O71681   4.125   9.408   4.019 -0.1460  0.5232  0.3130
  520MOL0     C71682   4.011   9.324   4.012  0.0707 -0.1586 -0.5602
  520MOL0     C71683   3.903   9.399   3.936 -0.2338 -0.2957  0.1038
  520MOL0     C71684   3.781   9.312   3.961 -0.8093  0.8165  0.6641
  520MOL0     C71685   3.665   9.362   3.873 -0.1407  0.3415 -0.3515
  520MOL0     C71686   3.567   9.258   3.858 -0.4689  0.1509 -0.0448
  520MOL0     C71687   3.476   9.181   3.857  0.4075 -0.1264 -0.1903
  520MOL0     C71688   4.286   9.219   4.047  0.0284 -0.5871  0.7262
  520MOL0     C71689   4.417   9.168   4.054 -0.4446  0.4108 -0.0295
  520MOL0     C71690   4.432   9.027   4.098  0.4090  0.2409  0.7326
  520MOL0     H71691   4.885   9.279   4.203  0.2573  0.6712  0.3692
  520MOL0     H71692   5.081   9.356   4.241 -0.9588  1.9704  0.4593
  520MOL0     H71693   5.419   9.465   3.892 -2.7809 -0.1114 -0.1935
  520MOL0     H71694   5.358   9.297   3.899 -2.2558  0.3779 -2.3820
  520MOL0     H71695   5.460   9.283   4.130 -0.0842  0.0239 -0.0318
  520MOL0     H71696   5.572   9.282   3.997  0.4119  0.3702  0.5843
  520MOL0     H71697   5.654   9.497   4.029  1.0674  2.8501  1.9150
  520MOL0     H71698   5.505   9.543   4.122  2.7324  1.9226  3.9395
  520MOL0     H71699   5.584   9.380   4.298 -0.7913 -0.8004 -1.8890
  520MOL0     H71700   5.724   9.342   4.200  0.0796  0.1386  0.9227
  520MOL0     H71701   5.638   9.599   4.349  0.7084  0.2206  1.2487
  520MOL0     H71702   5.765   9.612   4.216 -1.2439 -0.3053 -0.8384
  520MOL0     H71703   5.810   9.424   4.452 -0.8666  0.7874  0.3895
  520MOL0     H71704   5.920   9.461   4.329 -0.7486 -2.1594  1.1413
  520MOL0     H71705   5.791   9.692   4.473 -0.0445  1.0290 -0.7177
  520MOL0     H71706   5.945   9.687   4.397  0.3978  1.1290 -0.6000
  520MOL0     H71707   5.944   9.674   4.658 -2.3004  1.5510 -1.6393
  520MOL0     H71708   5.902   9.509   4.645 -1.8217  1.0720  0.8246
  520MOL0     H71709   6.077   9.348   4.535  0.7577 -0.3933 -0.1393
  520MOL0     H71710   6.407   9.292   4.556  1.1251 -1.0882  0.3880
  520MOL0     H71711   6.452   9.377   4.407  0.2284  0.3221  0.1442
  520MOL0     H71712   6.241   9.246   4.297 -1.9956 -4.3233  0.5220
  520MOL0     H71713   6.396   9.177   4.321  0.1929  1.9784 -1.8825
  520MOL0     H71714   6.276   9.112   4.573 -0.9258  0.5712 -0.0151
  520MOL0     H71715   6.147   9.104   4.470 -0.0411 -0.9842 -1.3397
  520MOL0     H71716   6.265   8.923   4.342 -3.8098 -0.9014  2.7524
  520MOL0     H71717   6.412   8.956   4.420  0.9199  2.9516  2.6340
  520MOL0     H71718   6.211   8.704   4.700  0.6042  1.6738  0.9299
  520MOL0     H71719   5.922   8.633   4.872 -0.7876  2.7427 -2.1602
  520MOL0     H71720   6.078   8.557   4.829  0.3264 -1.2770  0.2174
  520MOL0     H71721   5.927   8.495   4.754 -2.5571  2.0399 -0.0274
  520MOL0     H71722   5.663   8.444   4.564  0.7126 -0.1721 -0.9420
  520MOL0     H71723   5.477   8.292   4.524 -4.6198 -0.1775  0.9568
  520MOL0     H71724   5.088   8.488   4.530  0.1394  0.3821 -1.3647
  520MOL0     H71725   5.023   8.358   4.443 -1.8056  2.2895  0.8790
  520MOL0     H71726   5.091   8.201   4.634 -0.0236 -0.7177  1.8122
  520MOL0     H71727   5.140   8.348   4.728  1.7376  1.9534 -1.7019
  520MOL0     H71728   4.861   8.274   4.620  0.6080 -0.6163 -0.1083
  520MOL0     H71729   4.904   8.428   4.699 -0.3884  0.3541  1.1262
  520MOL0     H71730   5.001   8.263   4.878  1.6982  1.8468 -3.0566
  520MOL0     H71731   4.905   8.137   4.807  0.7719 -1.0169  0.1548
  520MOL0     H71732   4.794   8.413   4.902  1.8432 -0.4145  2.7173
  520MOL0     H71733   4.700   8.283   4.825  0.2925  0.5777 -1.2692
  520MOL0     H71734   4.724   8.315   5.088  0.0302 -0.1451  1.4592
  520MOL0     H71735   4.879   8.233   5.071 -0.6280  1.1895  1.8777
  520MOL0     H71736   4.703   8.052   5.129 -1.5715 -1.4666 -1.3406
  520MOL0     H71737   4.739   8.045   4.962 -0.5575 -1.7878  0.4740
  520MOL0     H71738   4.488   8.040   4.984  0.6020 -0.3343  1.0566
  520MOL0     H71739   4.520   8.196   4.913 -1.7540 -2.3684 -1.4056
  520MOL0     H71740   5.204   8.622   4.485 -1.1580 -1.9174 -0.2675
  520MOL0     H71741   5.395   8.778   4.509 -0.0646  0.4894  2.5186
  520MOL0     H71742   5.840   8.817   4.424 -0.8810  1.3986  0.2026
  520MOL0     H71743   6.056   8.905   4.363 -2.4044  1.3133  0.9134
  520MOL0     H71744   5.170   9.381   3.811  0.5400 -0.5017 -0.0522
  520MOL0     H71745   4.935   9.355   3.771  0.3686 -1.6956 -0.4216
  520MOL0     H71746   4.559   9.456   3.917  0.3907  1.5219  0.9383
  520MOL0     H71747   4.334   9.524   3.919  2.5266  0.8946 -0.4784
  520MOL0     H71748   4.022   9.244   3.939 -2.3757 -0.4008 -0.7538
  520MOL0     H71749   3.975   9.291   4.110  0.5784  2.7662  0.7144
  520MOL0     H71750   3.938   9.407   3.832  3.1728  0.6202  1.1826
  520MOL0     H71751   3.881   9.492   3.990 -0.5970  0.1153 -0.7370
  520MOL0     H71752   3.804   9.208   3.935  2.9441  1.4049  1.0874
  520MOL0     H71753   3.761   9.307   4.068 -0.3171 -1.8924  0.6936
  520MOL0     H71754   3.690   9.384   3.769  0.5546  0.6182 -0.1340
  520MOL0     H71755   3.616   9.449   3.917 -1.2830 -0.8889  0.9046
  520MOL0     H71756   3.390   9.117   3.855 -1.0409  1.6427  1.9685
  520MOL0     H71757   4.200   9.156   4.065 -0.5025 -0.0992 -0.0427
  520MOL0     H71758   4.515   8.983   4.041 -0.0649  1.3118 -0.8714
  520MOL0     H71759   4.454   9.026   4.205 -3.6001  0.9158  1.7054
  520MOL0     H71760   4.341   8.969   4.081  0.9236 -0.6451  0.9307
  521MOL0     O71761  10.199  10.258   8.253  0.4753 -0.1321 -0.4632
  521MOL0     C71762  10.164  10.329   8.350  0.1377 -0.5645 -0.7536
  521MOL0     O71763  10.238  10.438   8.401 -0.2412  0.3778  0.1971
  521MOL0     C71764  10.362  10.475   8.345  0.2077  0.8618 -0.2304
  521MOL0     C71765  10.386  10.615   8.339  0.1365 -0.6586 -0.1974
  521MOL0     C71766  10.507  10.666   8.286  0.2753  0.7045 -0.7991
  521MOL0     C71767  10.604  10.571   8.233 -0.3532  0.0390 -0.5124
  521MOL0     O71768  10.713  10.620   8.172  0.2568  0.4023  0.0282
  521MOL0     C71769  10.835  10.551   8.160  0.8410  1.3666  0.5228
  521MOL0     C71770  10.947  10.650   8.158 -0.3486  0.2821 -0.8559
  521MOL0     C71771  11.077  10.595   8.097 -0.2260 -0.0813 -1.3166
  521MOL0     C71772  11.196  10.684   8.108  0.7519 -0.6951 -0.2799
  521MOL0     C71773  11.321  10.625   8.044 -0.1870 -0.6798 -0.2459
  521MOL0     C71774  11.430  10.727   8.014 -0.6961  0.1667 -0.0848
  521MOL0     C71775  11.560  10.659   7.975  0.3971  0.0079 -0.5546
  521MOL0     C71776  11.622  10.594   8.094 -0.2488  0.3585  0.4071
  521MOL0     N71777  11.761  10.540   8.069 -0.4995 -0.1262 -0.1180
  521MOL0     C71778  11.838  10.491   8.169 -0.9840  0.1372  0.2453
  521MOL0     C71779  11.959  10.477   8.109  0.2644 -0.5110  0.4058
  521MOL0     C71780  12.089  10.438   8.164  0.8756  0.8690  0.1614
  521MOL0     C71781  12.111  10.487   8.308 -0.0225  0.9442  0.2518
  521MOL0     C71782  12.225  10.420   8.366 -0.0388  0.0526 -0.0646
  521MOL0     C71783  12.366  10.445   8.299  0.4223  0.1120  0.6196
  521MOL0     O71784  12.473  10.417   8.393  0.0168 -0.1112  0.5717
  521MOL0     C71785  12.600  10.416   8.336  0.4773 -0.1171 -0.1230
  521MOL0     C71786  12.696  10.358   8.422  0.0245 -0.9380  0.6492
  521MOL0     C71787  12.834  10.349   8.379  0.0808 -0.2708 -0.3850
  521MOL0     C71788  12.929  10.280   8.473 -0.0314  0.4155  0.2703
  521MOL0     C71789  12.870  10.399   8.248 -0.2015 -0.1267 -0.6406
  521MOL0     C71790  13.008  10.400   8.193  0.2132 -0.1800 -0.2958
  521MOL0     O71791  13.020  10.385   8.062  0.2643  0.2545  0.5967
  521MOL0     C71792  13.150  10.407   8.024  0.4584  0.0531 -0.3990
  521MOL0     C71793  13.165  10.512   7.925  0.2095 -0.3316  0.2006
  521MOL0     C71794  13.286  10.555   7.871 -0.1865  0.5282 -0.4078
  521MOL0     C71795  13.399  10.480   7.909  0.1134 -0.1168  0.1400
  521MOL0     O71796  13.509  10.520   7.849  0.3255 -0.3106 -0.0173
  521MOL0     C71797  13.634  10.468   7.886  0.0773  0.3497  0.0393
  521MOL0     C71798  13.733  10.547   7.794  0.5201  0.2115  0.8450
  521MOL0     C71799  13.876  10.500   7.834  0.1178  0.2029  0.8989
  521MOL0     C71800  13.974  10.614   7.798  0.6146 -0.3092  0.6699
  521MOL0     C71801  14.114  10.572   7.791 -0.3965 -0.0569 -0.4085
  521MOL0     C71802  14.144  10.500   7.657  0.1459 -0.2496  0.3865
  521MOL0     C71803  14.302  10.474   7.638  0.4871 -0.7888  0.5167
  521MOL0     C71804  14.335  10.363   7.527 -0.0541 -0.2439 -0.2625
  521MOL0    Cl71805  14.286  10.211   7.601  0.4932 -0.0551  0.4952
  521MOL0     C71806  13.387  10.375   8.006 -0.0174 -0.0258 -0.6427
  521MOL0     C71807  13.265  10.337   8.059 -0.7998 -0.4576  0.6976
  521MOL0     O71808  13.089  10.432   8.278 -0.0382  0.2443  0.5137
  521MOL0     C71809  12.772  10.453   8.168  0.5579 -0.1388 -0.0940
  521MOL0     C71810  12.636  10.462   8.206 -0.1023 -0.4169 -0.1598
  521MOL0     N71811  11.956  10.527   7.981  0.2545  0.4540 -0.4519
  521MOL0     N71812  11.836  10.565   7.966 -0.1380  0.3096 -0.3388
  521MOL0     C71813  10.574  10.439   8.237 -0.1871 -0.4181 -0.1305
  521MOL0     C71814  10.457  10.383   8.295  0.7853  0.2838  0.0392
  521MOL0     C71815  10.041  10.292   8.419 -0.4120 -0.7411 -0.5836
  521MOL0     C71816   9.988  10.376   8.524  0.6500 -0.2690  0.5638
  521MOL0     C71817   9.880  10.336   8.601 -0.7032  0.0493  0.0625
  521MOL0     C71818   9.812  10.215   8.576  0.3211 -0.5934 -0.7333
  521MOL0     O71819   9.696  10.176   8.646  0.0519 -0.4586 -0.6745
  521MOL0     C71820   9.622  10.263   8.727 -1.0892 -0.8129  0.3302
  521MOL0     C71821   9.536  10.176   8.818  0.7796 -0.0951  0.6211
  521MOL0     C71822   9.440  10.248   8.916 -0.0192  0.0882 -0.3611
  521MOL0     C71823   9.357  10.145   9.004 -0.6929  0.0615 -0.0992
  521MOL0     C71824   9.264  10.065   8.926  0.4418 -0.9000  0.1247
  521MOL0     C71825   9.185   9.995   8.867 -0.7456 -0.1884  0.0743
  521MOL0     C71826   9.860  10.132   8.474  0.1310  0.8189 -0.5480
  521MOL0     C71827   9.965  10.169   8.396 -0.2161 -1.0073  0.4757
  521MOL0     C71828  10.001  10.066   8.294  0.1586 -0.2089 -0.3715
  521MOL0     H71829  10.318  10.678   8.396  2.7967 -0.2325  2.8205
  521MOL0     H71830  10.536  10.769   8.300  0.3117  0.5708  0.1759
  521MOL0     H71831  10.828  10.481   8.077  1.1553  3.0813 -1.0057
  521MOL0     H71832  10.848  10.488   8.248 -1.8555 -0.0824 -0.0142
  521MOL0     H71833  10.922  10.734   8.093  0.1178 -0.5018 -2.0862
  521MOL0     H71834  10.956  10.681   8.263 -3.7537 -1.7138  0.1679
  521MOL0     H71835  11.095  10.493   8.132 -4.0819 -0.7576 -0.8488
  521MOL0     H71836  11.045  10.585   7.993 -0.7109 -0.1461 -1.1614
  521MOL0     H71837  11.170  10.777   8.056 -0.6786  1.0268  3.1727
  521MOL0     H71838  11.218  10.720   8.209  0.5945 -0.1696 -0.4302
  521MOL0     H71839  11.294  10.570   7.953 -0.8409  0.7102 -0.9246
  521MOL0     H71840  11.356  10.556   8.121 -0.7292 -1.0181 -0.2972
  521MOL0     H71841  11.406  10.787   7.926  0.4665 -1.0406 -1.2862
  521MOL0     H71842  11.454  10.789   8.101  0.0043 -0.9889  0.5693
  521MOL0     H71843  11.634  10.726   7.930  1.4980 -0.3644  0.6326
  521MOL0     H71844  11.546  10.582   7.898 -2.2482  0.0869 -0.2326
  521MOL0     H71845  11.632  10.665   8.176 -3.9302 -0.3739  1.6572
  521MOL0     H71846  11.560  10.512   8.128  1.9121 -1.9875 -0.9541
  521MOL0     H71847  11.812  10.479   8.274 -0.0159  2.5503  0.8294
  521MOL0     H71848  12.168  10.479   8.100  0.1413  0.4119 -1.0530
  521MOL0     H71849  12.098  10.329   8.167 -1.1768  0.5464 -2.2850
  521MOL0     H71850  12.130  10.594   8.297  0.4753  0.8746  0.4261
  521MOL0     H71851  12.026  10.474   8.375  0.0592  1.9486  0.5640
  521MOL0     H71852  12.230  10.458   8.469 -0.1309  0.5894 -0.2560
  521MOL0     H71853  12.215  10.311   8.371  0.3794  0.0438  0.9437
  521MOL0     H71854  12.369  10.381   8.210 -4.4367  0.4055  0.0172
  521MOL0     H71855  12.381  10.546   8.261 -1.3772 -0.1813 -1.0235
  521MOL0     H71856  12.661  10.317   8.516  0.4246 -0.0881  1.1786
  521MOL0     H71857  12.999  10.360   8.501  1.3844 -0.1053 -1.6271
  521MOL0     H71858  12.989  10.204   8.422  1.8602  1.2922  1.0643
  521MOL0     H71859  12.879  10.244   8.564  0.2736 -0.8548 -0.0436
  521MOL0     H71860  13.076  10.569   7.899 -0.7133 -2.0262 -0.5271
  521MOL0     H71861  13.284  10.648   7.815 -2.4890  0.2130 -0.9447
  521MOL0     H71862  13.648  10.492   7.992 -1.3541  0.9525  0.1156
  521MOL0     H71863  13.661  10.364   7.868 -2.3574 -0.6703  1.7791
  521MOL0     H71864  13.709  10.521   7.690 -0.9285  3.1421  0.3211
  521MOL0     H71865  13.716  10.653   7.817  0.9540  0.5026 -0.1169
  521MOL0     H71866  13.907  10.407   7.786  0.6158  0.9196 -0.2057
  521MOL0     H71867  13.874  10.472   7.940  1.9346 -0.6944  0.7342
  521MOL0     H71868  13.979  10.680   7.885 -0.5721 -0.2880  0.7448
  521MOL0     H71869  13.949  10.677   7.712 -1.3486  1.2381  2.2588
  521MOL0     H71870  14.175  10.661   7.803  2.4032 -1.8503 -0.4045
  521MOL0     H71871  14.147  10.514   7.878 -0.5989  1.3062  0.6188
  521MOL0     H71872  14.106  10.557   7.572  1.6736  3.3620  1.9377
  521MOL0     H71873  14.100  10.403   7.682 -3.5376  1.3804  0.8482
  521MOL0     H71874  14.348  10.446   7.733  2.8425  2.6321  0.5858
  521MOL0     H71875  14.357  10.566   7.616  1.9850 -1.4452  1.3887
  521MOL0     H71876  14.444  10.356   7.522 -0.1569 -2.4683 -0.0030
  521MOL0     H71877  14.287  10.392   7.433 -0.6370  0.8828  0.3513
  521MOL0     H71878  13.467  10.316   8.048  0.8419  2.0459  0.8140
  521MOL0     H71879  13.262  10.253   8.127 -1.8930 -1.2277 -0.2555
  521MOL0     H71880  12.793  10.481   8.066 -0.7752  3.3564  0.4705
  521MOL0     H71881  12.569  10.518   8.141 -1.0860  1.0815  2.0330
  521MOL0     H71882  10.651  10.368   8.209 -1.9758 -2.3099 -0.4673
  521MOL0     H71883  10.450  10.275   8.282  0.0427  0.4537 -1.0862
  521MOL0     H71884  10.037  10.467   8.557 -0.4155  1.0796 -1.3533
  521MOL0     H71885   9.845  10.396   8.684  2.2542 -1.6151  2.7283
  521MOL0     H71886   9.685  10.331   8.784 -1.3321 -0.5498  0.2858
  521MOL0     H71887   9.553  10.322   8.665 -0.3708 -0.4259 -0.1135
  521MOL0     H71888   9.607  10.115   8.876  1.6985  0.6118  0.2624
  521MOL0     H71889   9.478  10.107   8.755 -0.0094  0.0086  1.2186
  521MOL0     H71890   9.499  10.323   8.971  0.5847 -0.0508 -0.8151
  521MOL0     H71891   9.367  10.297   8.851  0.0374 -1.3705 -1.5553
  521MOL0     H71892   9.294  10.203   9.073 -0.0088  2.2741 -1.2189
  521MOL0     H71893   9.436  10.083   9.048  0.1492  1.1018 -0.0764
  521MOL0     H71894   9.127   9.924   8.812 -0.4341 -1.5024  1.3597
  521MOL0     H71895   9.791  10.049   8.461 -0.8955  1.2288  1.7362
  521MOL0     H71896  10.105  10.036   8.312  0.7849  2.2412  0.3899
  521MOL0     H71897   9.932   9.981   8.290  1.0122 -1.0164  1.0238
  521MOL0     H71898  10.006  10.119   8.199  2.1822  0.3977  0.0275
  522MOL0     O71899   1.553   5.875   5.578  0.2363 -0.0396 -0.0223
  522MOL0     C71900   1.489   5.875   5.685 -0.4910  0.1819  0.4150
  522MOL0     O71901   1.553   5.877   5.808  0.1636  0.4610 -0.6383
  522MOL0     C71902   1.678   5.928   5.824 -0.0096  0.3062  0.0075
  522MOL0     C71903   1.787   5.881   5.751  0.1009 -0.3699  0.3260
  522MOL0     C71904   1.911   5.944   5.763  0.4559  0.2877 -0.3887
  522MOL0     C71905   1.939   6.050   5.854  1.0739  0.3183 -0.3667
  522MOL0     O71906   2.065   6.091   5.893 -0.3539  0.2465  1.0400
  522MOL0     C71907   2.177   5.992   5.874 -0.0509  0.4202 -0.1596
  522MOL0     C71908   2.311   6.062   5.868  0.7572 -0.2467  0.3383
  522MOL0     C71909   2.422   5.956   5.837  0.4794  0.0981  0.1592
  522MOL0     C71910   2.463   5.899   5.975  0.3722  0.2398 -0.3312
  522MOL0     C71911   2.597   5.827   5.976  0.4602  1.0208  0.3640
  522MOL0     C71912   2.624   5.748   6.107 -0.4296  0.3151  0.5908
  522MOL0     C71913   2.763   5.686   6.109 -0.3018 -0.1256  0.2000
  522MOL0     C71914   2.809   5.644   6.246 -0.3780 -0.4407 -0.1724
  522MOL0     N71915   2.934   5.568   6.244 -0.1502  0.4268  0.3731
  522MOL0     C71916   2.982   5.500   6.357  0.0213 -0.1789 -0.1881
  522MOL0     C71917   3.101   5.445   6.317  0.2585 -0.2621  0.1434
  522MOL0     C71918   3.175   5.331   6.386  0.3064  0.1595  0.6246
  522MOL0     C71919   3.331   5.338   6.377 -0.1412 -0.5080  0.7199
  522MOL0     C71920   3.384   5.483   6.429  0.0331  0.3719 -0.0175
  522MOL0     C71921   3.533   5.492   6.382 -0.2871 -0.1125 -0.0528
  522MOL0     O71922   3.601   5.395   6.456 -0.3323  0.1829 -0.1004
  522MOL0     C71923   3.728   5.350   6.417  0.4826  0.4185  0.2962
  522MOL0     C71924   3.787   5.265   6.510  0.2581 -0.9293 -0.0464
  522MOL0     C71925   3.913   5.206   6.490  0.2307 -0.5730  1.0031
  522MOL0     C71926   3.968   5.127   6.606 -0.7092  0.0951  0.2151
  522MOL0     C71927   3.982   5.222   6.365  0.4830  1.1004  0.0215
  522MOL0     C71928   4.096   5.137   6.323 -0.4364 -0.0605 -1.1596
  522MOL0     O71929   4.188   5.175   6.219 -0.0002 -0.3991  0.5493
  522MOL0     C71930   4.296   5.107   6.181 -0.0453 -0.1349 -0.5160
  522MOL0     C71931   4.413   5.141   6.241  0.3796 -0.1086 -0.1474
  522MOL0     C71932   4.528   5.074   6.205  0.2848 -1.3573 -1.4378
  522MOL0     C71933   4.532   4.965   6.126 -0.2732  0.2534  0.1684
  522MOL0     O71934   4.657   4.911   6.102 -0.3277 -0.7411  0.6467
  522MOL0     C71935   4.676   4.831   5.975  0.1102  0.0148  0.1379
  522MOL0     C71936   4.650   4.683   5.991  0.3546  0.9681 -0.1937
  522MOL0     C71937   4.766   4.603   5.926 -0.0644  0.5883 -0.6432
  522MOL0     C71938   4.760   4.454   5.956  0.6613  0.8933  0.3039
  522MOL0     C71939   4.852   4.368   5.872 -0.4511  0.1313 -0.2453
  522MOL0     C71940   4.831   4.217   5.891  0.0036 -0.3257  0.0152
  522MOL0     C71941   4.964   4.135   5.892  0.6617  0.1041 -0.2536
  522MOL0     C71942   4.937   3.993   5.855 -0.7888  1.4992  0.3947
  522MOL0    Cl71943   5.089   3.901   5.783  0.6198  0.4499 -0.5740
  522MOL0     C71944   4.411   4.926   6.066 -0.6128  0.4593  0.8809
  522MOL0     C71945   4.293   4.999   6.088 -0.2938 -0.6128  0.2303
  522MOL0     O71946   4.110   5.032   6.389  0.4602  0.4201 -0.5855
  522MOL0     C71947   3.920   5.305   6.265 -0.7837 -0.6780 -0.1960
  522MOL0     C71948   3.795   5.369   6.293  0.7777  0.2465 -0.2148
  522MOL0     N71949   3.124   5.496   6.187 -0.0550  0.1387  0.4926
  522MOL0     N71950   3.032   5.568   6.148  1.3809  0.1137 -0.0946
  522MOL0     C71951   1.827   6.086   5.924  0.3693  0.0880  0.5940
  522MOL0     C71952   1.701   6.028   5.912  0.6663  0.6138  0.2538
  522MOL0     C71953   1.335   5.877   5.682 -0.1628  0.1740 -0.4869
  522MOL0     C71954   1.277   5.818   5.563  0.2313 -0.0783 -0.7673
  522MOL0     C71955   1.149   5.792   5.556 -0.1677 -0.6005  0.3921
  522MOL0     C71956   1.060   5.825   5.659  0.2565 -0.1923  0.8270
  522MOL0     O71957   0.931   5.782   5.647  0.4184 -0.1697  0.3153
  522MOL0     C71958   0.831   5.829   5.741 -0.2976  0.0969 -0.4734
  522MOL0     C71959   0.685   5.784   5.715  0.4421  0.1802  0.2459
  522MOL0     C71960   0.643   5.869   5.591 -0.9697 -0.0707  1.5166
  522MOL0     C71961   0.519   5.816   5.527  0.9221  0.0659  0.2168
  522MOL0     C71962   0.529   5.682   5.476 -0.0131  0.1744 -0.5539
  522MOL0     C71963   0.527   5.580   5.419  0.8191  0.3532  0.5056
  522MOL0     C71964   1.117   5.891   5.775  0.4017  0.2068  0.2449
  522MOL0     C71965   1.252   5.915   5.785  0.3049 -0.0834 -0.2324
  522MOL0     C71966   1.307   5.985   5.902  0.6729 -0.3230  0.0783
  522MOL0     H71967   1.772   5.792   5.690 -2.5624 -1.3492  2.1959
  522MOL0     H71968   1.989   5.888   5.712 -0.5236 -2.0592  0.5508
  522MOL0     H71969   2.172   5.934   5.781 -3.0343 -1.3630  0.9773
  522MOL0     H71970   2.167   5.924   5.958  0.2727  0.1626 -0.3294
  522MOL0     H71971   2.300   6.127   5.780  0.5040 -2.6847 -1.5310
  522MOL0     H71972   2.337   6.118   5.958 -1.2347  2.2245 -0.4978
  522MOL0     H71973   2.385   5.873   5.776 -2.5212  1.0596  0.4908
  522MOL0     H71974   2.512   5.997   5.791 -0.1154 -0.7251 -1.8451
  522MOL0     H71975   2.471   5.978   6.051  2.7180  0.2291 -0.4909
  522MOL0     H71976   2.390   5.822   6.003  0.4153  0.8769  1.7103
  522MOL0     H71977   2.666   5.911   5.963  0.0230  1.5071  1.1132
  522MOL0     H71978   2.606   5.757   5.892  2.4987 -0.1071  1.4367
  522MOL0     H71979   2.610   5.820   6.187 -2.7925  0.6426 -0.0421
  522MOL0     H71980   2.557   5.661   6.108  0.1199 -0.1388 -0.4652
  522MOL0     H71981   2.838   5.758   6.075  1.7650 -3.0932 -2.0685
  522MOL0     H71982   2.761   5.604   6.037  2.3332  2.0900 -2.6512
  522MOL0     H71983   2.817   5.738   6.301 -0.4934 -1.0811  0.9757
  522MOL0     H71984   2.732   5.580   6.291 -1.3276  0.2271 -0.8262
  522MOL0     H71985   2.920   5.477   6.444 -0.0157 -0.1081 -0.1961
  522MOL0     H71986   3.146   5.238   6.337  4.2500 -0.8493 -0.1299
  522MOL0     H71987   3.151   5.324   6.492 -1.7240 -0.9707  0.1312
  522MOL0     H71988   3.371   5.251   6.429  1.3214  0.0105  0.4936
  522MOL0     H71989   3.360   5.333   6.272  2.1537  0.6472  1.2373
  522MOL0     H71990   3.332   5.563   6.375 -1.9693  0.1399  1.4356
  522MOL0     H71991   3.374   5.492   6.538 -0.2134 -0.6046  0.0469
  522MOL0     H71992   3.542   5.467   6.276 -1.3072  0.0375 -0.1836
  522MOL0     H71993   3.580   5.588   6.406 -1.5734  0.2672  1.0407
  522MOL0     H71994   3.728   5.251   6.601  1.6071 -2.4596  0.6387
  522MOL0     H71995   3.902   5.139   6.692 -1.5877 -2.9333  0.1006
  522MOL0     H71996   4.063   5.175   6.631 -2.1968  3.5543 -0.2160
  522MOL0     H71997   3.975   5.018   6.595 -3.4404 -0.2769  1.3475
  522MOL0     H71998   4.412   5.231   6.301 -1.6900  0.9616 -1.6744
  522MOL0     H71999   4.623   5.116   6.237 -0.8638  1.6367 -1.6534
  522MOL0     H72000   4.609   4.871   5.898  1.3288  1.6392 -0.1155
  522MOL0     H72001   4.776   4.848   5.936  0.5068  0.0059  1.1379
  522MOL0     H72002   4.641   4.663   6.098  2.7497 -1.0941 -0.2931
  522MOL0     H72003   4.555   4.660   5.940 -0.0551  1.2961  0.4134
  522MOL0     H72004   4.863   4.639   5.963 -1.1089  2.5948  0.3045
  522MOL0     H72005   4.779   4.617   5.819  3.4055  2.4083 -0.1381
  522MOL0     H72006   4.663   4.410   5.931  2.0011 -0.6331 -2.6774
  522MOL0     H72007   4.775   4.438   6.063 -1.0641 -0.1650  0.4360
  522MOL0     H72008   4.838   4.398   5.768  1.4242  1.7302 -0.0896
  522MOL0     H72009   4.955   4.392   5.902 -0.8059 -0.3650  1.5119
  522MOL0     H72010   4.761   4.175   5.818  0.0205 -1.3463  0.5661
  522MOL0     H72011   4.777   4.199   5.984 -2.1454 -0.8382 -1.2590
  522MOL0     H72012   5.009   4.141   5.992  1.5542  0.5190 -0.6639
  522MOL0     H72013   5.024   4.185   5.815  2.0723  1.4242  1.5875
  522MOL0     H72014   4.860   3.985   5.778 -0.2755 -1.1209  0.0724
  522MOL0     H72015   4.907   3.947   5.949 -1.0104  1.9972  0.5713
  522MOL0     H72016   4.418   4.834   6.009  2.0952  1.0665  0.0873
  522MOL0     H72017   4.198   4.965   6.050 -0.3815 -1.3572  1.0820
  522MOL0     H72018   3.977   5.320   6.173 -1.4767 -1.4275 -0.7540
  522MOL0     H72019   3.740   5.418   6.213 -2.0562 -1.2180  0.7054
  522MOL0     H72020   1.835   6.163   6.001 -1.5854  0.6061  0.3486
  522MOL0     H72021   1.618   6.055   5.977 -0.7494 -2.8682  0.0872
  522MOL0     H72022   1.346   5.783   5.487  1.3746 -1.5610  0.8923
  522MOL0     H72023   1.121   5.737   5.466 -0.6981  0.3590 -0.0410
  522MOL0     H72024   0.870   5.787   5.835  3.9242 -0.6289 -2.3489
  522MOL0     H72025   0.835   5.937   5.758  3.1247  0.0697 -0.4480
  522MOL0     H72026   0.613   5.812   5.792 -1.2039 -0.9787 -0.8248
  522MOL0     H72027   0.677   5.676   5.707 -0.2212  0.0428  2.1430
  522MOL0     H72028   0.635   5.970   5.632 -0.0944 -0.2264  2.0932
  522MOL0     H72029   0.718   5.870   5.511 -2.1301  0.1431  0.3816
  522MOL0     H72030   0.491   5.886   5.447  1.0343 -2.7914 -2.5119
  522MOL0     H72031   0.444   5.826   5.606  0.2813  0.3160 -0.4102
  522MOL0     H72032   0.518   5.490   5.362  1.1361  0.2414  0.6270
  522MOL0     H72033   1.054   5.911   5.861 -1.6644 -0.7354 -1.0028
  522MOL0     H72034   1.370   6.070   5.874  0.3357  1.3279  3.7801
  522MOL0     H72035   1.229   6.013   5.973  0.7543 -0.2374  0.1328
  522MOL0     H72036   1.368   5.920   5.965  0.1852  0.8942  1.8959
  523MOL0     O72037   7.188  10.727   7.640 -0.5695 -0.7920  0.6010
  523MOL0     C72038   7.216  10.702   7.519 -0.9531 -1.1222  0.2524
  523MOL0     O72039   7.351  10.680   7.483  0.7382 -0.1352  0.6069
  523MOL0     C72040   7.457  10.678   7.569 -0.3303 -0.1944 -0.9102
  523MOL0     C72041   7.460  10.629   7.704  0.2029  0.3564  0.1378
  523MOL0     C72042   7.574  10.644   7.785  0.2846 -0.0820  0.9124
  523MOL0     C72043   7.694  10.696   7.732 -1.0246  0.2818  0.5035
  523MOL0     O72044   7.809  10.706   7.810 -0.8148 -0.4227  0.3191
  523MOL0     C72045   7.884  10.833   7.799  0.1693 -0.5162  0.7483
  523MOL0     C72046   7.976  10.849   7.927  0.0729  0.3875  0.2698
  523MOL0     C72047   8.058  10.726   7.958  0.8390  0.4475 -0.6750
  523MOL0     C72048   8.191  10.772   8.037  0.0034  0.1576 -0.1347
  523MOL0     C72049   8.269  10.657   8.101  0.8736  0.3305  0.5176
  523MOL0     C72050   8.372  10.596   8.013 -0.7411  0.3409 -0.2488
  523MOL0     C72051   8.400  10.452   8.069 -0.6136  0.8063  0.8639
  523MOL0     C72052   8.465  10.465   8.212  0.4770  0.1764  0.5076
  523MOL0     N72053   8.583  10.547   8.218 -0.1382  0.0477 -0.3304
  523MOL0     C72054   8.590  10.679   8.251 -0.4262  0.4505 -0.0230
  523MOL0     C72055   8.721  10.703   8.256 -0.0048  0.8654 -1.0276
  523MOL0     C72056   8.784  10.823   8.315 -0.6023 -0.4091  0.4923
  523MOL0     C72057   8.856  10.796   8.448  0.0538  0.4420  0.3966
  523MOL0     C72058   8.921  10.919   8.511  0.2277 -0.1737  0.4574
  523MOL0     C72059   8.966  10.891   8.654 -0.0147 -0.1402 -0.2570
  523MOL0     O72060   9.068  10.781   8.646 -0.1593  0.2812 -0.1832
  523MOL0     C72061   9.195  10.813   8.648 -0.3982 -0.0384 -0.0367
  523MOL0     C72062   9.293  10.713   8.693  0.1966 -0.1792  0.0635
  523MOL0     C72063   9.428  10.741   8.703  0.1453 -0.0922 -0.3077
  523MOL0     C72064   9.522  10.630   8.734 -0.7731  0.3486  0.4202
  523MOL0     C72065   9.470  10.878   8.688 -0.2764 -0.2240  0.7241
  523MOL0     C72066   9.609  10.924   8.689  0.5735 -0.0087 -0.2685
  523MOL0     O72067   9.698  10.843   8.636  0.0910  0.5046  0.0555
  523MOL0     C72068   9.833  10.855   8.648  0.4418 -0.3287 -0.5142
  523MOL0     C72069   9.900  10.743   8.691  0.3737  0.6294  0.3371
  523MOL0     C72070  10.036  10.747   8.709  0.7476  0.8274  0.3159
  523MOL0     C72071  10.112  10.862   8.678  0.5294  0.5641 -0.6192
  523MOL0     O72072  10.249  10.874   8.699  0.1689 -0.0702 -0.6512
  523MOL0     C72073  10.328  10.754   8.700  0.2593 -0.4827 -0.1442
  523MOL0     C72074  10.479  10.792   8.683 -0.5666  0.7011  0.5552
  523MOL0     C72075  10.595  10.683   8.687 -0.1068  0.8883 -0.0143
  523MOL0     C72076  10.736  10.749   8.673 -0.9520 -0.1995  0.8607
  523MOL0     C72077  10.852  10.639   8.655  1.4264 -0.2819  0.2900
  523MOL0     C72078  10.990  10.714   8.627 -0.2446 -0.5165  0.2106
  523MOL0     C72079  11.119  10.654   8.672 -0.1926 -0.0798  0.0992
  523MOL0     C72080  11.146  10.527   8.587  0.3433 -0.0171 -0.6608
  523MOL0    Cl72081  11.228  10.568   8.426 -0.3657  0.1835  0.1163
  523MOL0     C72082  10.046  10.980   8.636  0.5192  0.5285  0.5422
  523MOL0     C72083   9.905  10.974   8.623  0.4248 -0.4191 -0.2730
  523MOL0     O72084   9.643  11.024   8.761  0.3137  0.4788 -0.1626
  523MOL0     C72085   9.372  10.976   8.655 -0.3371  0.2441  0.3285
  523MOL0     C72086   9.242  10.942   8.630 -0.2313 -0.1485 -0.6223
  523MOL0     N72087   8.798  10.588   8.222 -0.1923  0.2812  0.2572
  523MOL0     N72088   8.705  10.501   8.193 -1.0032  0.4489  0.7009
  523MOL0     C72089   7.689  10.747   7.597  0.8429 -0.6953 -0.1541
  523MOL0     C72090   7.574  10.741   7.524 -0.0182 -0.1515  0.0693
  523MOL0     C72091   7.123  10.676   7.411 -0.0692  0.6289 -0.5161
  523MOL0     C72092   7.160  10.686   7.279 -0.3984  0.5363 -0.0066
  523MOL0     C72093   7.069  10.662   7.178 -0.0243  0.0493  0.3491
  523MOL0     C72094   6.932  10.627   7.203 -0.9757 -0.7261 -0.0749
  523MOL0     O72095   6.832  10.603   7.117 -0.2115  0.1530  0.2001
  523MOL0     C72096   6.864  10.598   6.983 -1.7265  0.1982 -0.6126
  523MOL0     C72097   6.757  10.508   6.911  0.2922 -0.0450  0.4255
  523MOL0     C72098   6.628  10.584   6.878 -0.7701 -0.5597  0.2574
  523MOL0     C72099   6.542  10.491   6.787  0.0838 -0.2410 -0.2511
  523MOL0     C72100   6.467  10.406   6.876 -0.8981 -0.3028  0.1502
  523MOL0     C72101   6.391  10.358   6.958 -0.0613 -1.0754 -0.9361
  523MOL0     C72102   6.892  10.613   7.330 -0.0685 -0.5395 -0.4591
  523MOL0     C72103   6.984  10.640   7.436 -0.3732 -0.5547 -0.0198
  523MOL0     C72104   6.927  10.620   7.571 -0.2359 -0.4020 -0.0845
  523MOL0     H72105   7.365  10.596   7.745 -0.5528  0.5957 -1.3564
  523MOL0     H72106   7.575  10.626   7.893  3.3892  1.1527  1.2008
  523MOL0     H72107   7.823  10.924   7.794 -0.1350 -0.7738 -1.2061
  523MOL0     H72108   7.939  10.844   7.705  1.5298  0.2681  1.5914
  523MOL0     H72109   8.047  10.931   7.914  0.4559  0.4300  2.2999
  523MOL0     H72110   7.924  10.890   8.014  3.6459  3.3672  1.2640
  523MOL0     H72111   7.998  10.666   8.027  1.8672 -1.6477 -1.4993
  523MOL0     H72112   8.086  10.664   7.872  0.8598 -0.9754  0.3288
  523MOL0     H72113   8.253  10.834   7.972 -0.5885  0.3401 -0.5423
  523MOL0     H72114   8.154  10.842   8.113 -1.9482  0.2322 -1.0871
  523MOL0     H72115   8.187  10.587   8.122  1.0202  0.7942  2.9388
  523MOL0     H72116   8.314  10.688   8.196  3.2041 -5.6722  1.8147
  523MOL0     H72117   8.321  10.588   7.917  0.0894  1.0880 -0.7779
  523MOL0     H72118   8.459  10.663   8.004  0.4748 -1.2199 -0.5681
  523MOL0     H72119   8.476  10.392   8.019 -1.1533  1.1988 -0.4746
  523MOL0     H72120   8.308  10.393   8.075  0.8145 -1.5057  0.9056
  523MOL0     H72121   8.391  10.506   8.282  0.8299  1.6336  0.0707
  523MOL0     H72122   8.483  10.365   8.251  1.3171  0.1449  0.0627
  523MOL0     H72123   8.505  10.740   8.279 -2.1822 -1.2488 -1.3227
  523MOL0     H72124   8.705  10.896   8.336  0.3103  0.3517  1.3810
  523MOL0     H72125   8.851  10.868   8.242 -3.1510  1.1364 -1.0407
  523MOL0     H72126   8.789  10.746   8.518 -0.3031 -1.0219 -0.9236
  523MOL0     H72127   8.936  10.723   8.432  1.4607  2.0726 -0.3836
  523MOL0     H72128   9.012  10.959   8.463  1.3827 -2.6265  0.4670
  523MOL0     H72129   8.848  11.001   8.515  1.4774  0.9960  0.2886
  523MOL0     H72130   8.995  10.985   8.702 -0.7676  0.3408 -0.7208
  523MOL0     H72131   8.882  10.849   8.711 -1.9316  2.8692 -0.6613
  523MOL0     H72132   9.268  10.610   8.715 -1.9677  0.2109 -0.3689
  523MOL0     H72133   9.586  10.614   8.647 -2.2272 -0.9687 -0.4664
  523MOL0     H72134   9.474  10.538   8.769  2.2474 -1.0705  1.1933
  523MOL0     H72135   9.580  10.664   8.820  1.4001 -0.6887 -0.5458
  523MOL0     H72136   9.844  10.653   8.711  1.1640  0.6141  2.8139
  523MOL0     H72137  10.083  10.658   8.749 -1.0461  0.3909  1.5584
  523MOL0     H72138  10.312  10.692   8.789  0.4633  0.5879  0.6527
  523MOL0     H72139  10.306  10.701   8.606  0.2189  2.2048 -1.7485
  523MOL0     H72140  10.499  10.849   8.592  1.1598 -0.5530  0.0836
  523MOL0     H72141  10.500  10.865   8.761 -0.9448  1.6333 -0.1958
  523MOL0     H72142  10.579  10.595   8.624  1.6604  1.3976 -1.2517
  523MOL0     H72143  10.599  10.646   8.790  1.5333 -1.2538 -0.7690
  523MOL0     H72144  10.756  10.804   8.765 -1.8047  0.3079  0.7457
  523MOL0     H72145  10.738  10.815   8.586  1.0491  0.7217  1.5497
  523MOL0     H72146  10.847  10.588   8.752 -2.2909 -2.6824 -0.9766
  523MOL0     H72147  10.820  10.569   8.578 -1.2961 -0.7354  1.7095
  523MOL0     H72148  10.978  10.815   8.668  0.3266  0.0743 -1.0283
  523MOL0     H72149  10.983  10.737   8.520 -0.9122  0.7852  0.5124
  523MOL0     H72150  11.106  10.623   8.776 -1.4553  0.4066  0.1136
  523MOL0     H72151  11.194  10.733   8.663  1.2476 -1.3762  0.2878
  523MOL0     H72152  11.050  10.476   8.579 -0.2305  1.1058 -1.1337
  523MOL0     H72153  11.209  10.460   8.647 -0.5851 -2.9809 -2.7397
  523MOL0     H72154  10.105  11.067   8.611  0.7501  0.1377 -0.3333
  523MOL0     H72155   9.844  11.053   8.581  2.2425 -0.3078 -3.0219
  523MOL0     H72156   9.394  11.082   8.647 -0.9766  0.2787 -1.7553
  523MOL0     H72157   9.171  11.019   8.601 -1.1120 -0.4574  0.6338
  523MOL0     H72158   7.774  10.800   7.555  0.7403  0.0078  0.4965
  523MOL0     H72159   7.575  10.772   7.420 -0.4679 -0.2488  0.0336
  523MOL0     H72160   7.260  10.706   7.243  0.8788 -1.1454  2.3050
  523MOL0     H72161   7.122  10.678   7.084 -0.8355  2.8721  0.2882
  523MOL0     H72162   6.863  10.702   6.949 -1.8409  0.9538  1.5821
  523MOL0     H72163   6.962  10.551   6.969 -1.0601  1.2943  0.2377
  523MOL0     H72164   6.738  10.414   6.963 -1.2964 -0.9140 -1.6048
  523MOL0     H72165   6.802  10.475   6.817 -1.5810  1.4999 -1.1043
  523MOL0     H72166   6.581  10.628   6.967 -0.4356 -0.4856  0.3993
  523MOL0     H72167   6.658  10.672   6.821  1.1264 -1.9305 -0.9576
  523MOL0     H72168   6.602  10.425   6.724  1.0855 -0.5645  1.0011
  523MOL0     H72169   6.473  10.547   6.723  0.2537 -2.4131 -2.4870
  523MOL0     H72170   6.320  10.325   7.030 -1.4942  3.9017  0.3086
  523MOL0     H72171   6.789  10.578   7.338 -1.1097  1.4110 -3.7263
  523MOL0     H72172   6.938  10.708   7.634  1.8470 -1.7747  1.6030
  523MOL0     H72173   6.827  10.579   7.555 -0.2968  0.5818 -2.8761
  523MOL0     H72174   6.986  10.544   7.623  1.3509 -0.2209 -1.5361
  524MOL0     O72175   2.269  11.289   8.110 -0.4208 -0.0265  0.0082
  524MOL0     C72176   2.287  11.203   8.199 -0.1113  0.1335  0.2460
  524MOL0     O72177   2.398  11.129   8.218 -0.2254 -0.5661  0.2131
  524MOL0     C72178   2.513  11.160   8.136 -0.2869  0.4104  1.0523
  524MOL0     C72179   2.593  11.051   8.097  0.3317  0.1675  0.5224
  524MOL0     C72180   2.708  11.071   8.028 -0.1512  0.1442 -0.4263
  524MOL0     C72181   2.753  11.203   7.992  0.7812 -0.1558 -0.0054
  524MOL0     O72182   2.866  11.204   7.908 -0.2030  0.5546  0.1168
  524MOL0     C72183   2.919  11.332   7.871 -0.1105  1.4150  0.9053
  524MOL0     C72184   3.041  11.303   7.777 -0.4713 -0.1289 -0.4720
  524MOL0     C72185   3.153  11.218   7.833 -0.3191 -0.9492 -0.1435
  524MOL0     C72186   3.282  11.205   7.746  0.3542 -0.6685 -0.1182
  524MOL0     C72187   3.287  11.064   7.683  0.5544 -0.4944 -0.3847
  524MOL0     C72188   3.428  11.051   7.631  0.1531 -0.1513 -0.3258
  524MOL0     C72189   3.475  11.151   7.519  0.6580  0.0450 -0.3507
  524MOL0     C72190   3.579  11.087   7.431 -0.5018  0.5820 -0.0609
  524MOL0     N72191   3.717  11.074   7.493 -0.8714 -0.0656 -1.1416
  524MOL0     C72192   3.808  10.975   7.479  0.4674  0.2950  0.7863
  524MOL0     C72193   3.906  10.991   7.571  0.5212 -0.7967  0.5419
  524MOL0     C72194   4.033  10.919   7.592  0.7349  0.0409 -0.0437
  524MOL0     C72195   4.146  11.010   7.520 -0.1114  0.1435 -0.4889
  524MOL0     C72196   4.151  11.159   7.566 -0.3283  0.5224  1.0297
  524MOL0     C72197   4.270  11.234   7.507 -0.3644  0.1032 -0.3319
  524MOL0     O72198   4.265  11.364   7.549 -0.0287 -0.4594  0.3172
  524MOL0     C72199   4.373  11.453   7.534  1.0393 -0.7375  1.1363
  524MOL0     C72200   4.347  11.580   7.475 -0.2330 -0.3677 -0.2546
  524MOL0     C72201   4.452  11.675   7.455  0.1555  0.3029  0.4458
  524MOL0     C72202   4.409  11.801   7.383 -0.6996 -0.3652 -0.1336
  524MOL0     C72203   4.589  11.634   7.485  0.1040  0.7140  0.8549
  524MOL0     C72204   4.717  11.721   7.468  0.0043  0.6172 -0.1189
  524MOL0     O72205   4.832  11.643   7.463 -0.6837  0.3826 -1.0463
  524MOL0     C72206   4.953  11.698   7.448  0.3677 -0.3794 -0.1848
  524MOL0     C72207   5.043  11.647   7.364  0.0216  0.4656 -1.0172
  524MOL0     C72208   5.177  11.688   7.349 -0.4964 -0.3994 -0.3757
  524MOL0     C72209   5.221  11.799   7.422 -0.2665 -0.2103 -0.5909
  524MOL0     O72210   5.347  11.850   7.417  0.1991  0.5393 -0.4151
  524MOL0     C72211   5.428  11.828   7.297  0.3305  0.2144 -0.5447
  524MOL0     C72212   5.558  11.900   7.308  0.5061  0.4406  0.5858
  524MOL0     C72213   5.674  11.830   7.377 -0.2600  0.0067 -0.0852
  524MOL0     C72214   5.721  11.697   7.300  0.4980  0.2095 -0.7576
  524MOL0     C72215   5.814  11.618   7.392  0.7293  0.7833  0.0584
  524MOL0     C72216   5.943  11.700   7.438  0.4823 -0.2674 -0.1753
  524MOL0     C72217   6.038  11.753   7.328  0.2146  0.2376  0.0777
  524MOL0     C72218   6.132  11.862   7.370 -0.0187  0.4039  0.8431
  524MOL0    Cl72219   6.039  12.011   7.422 -0.0053 -0.1124  0.2649
  524MOL0     C72220   5.128  11.858   7.513 -1.0062  0.3593 -0.6701
  524MOL0     C72221   4.996  11.816   7.528  0.0915 -0.1796 -0.1033
  524MOL0     O72222   4.713  11.848   7.458  0.6081 -0.8868 -0.5402
  524MOL0     C72223   4.610  11.507   7.553 -0.5448 -0.0358 -0.0154
  524MOL0     C72224   4.505  11.419   7.583  0.1050 -0.6459  0.0474
  524MOL0     N72225   3.860  11.093   7.654 -0.2359  0.1460 -0.3061
  524MOL0     N72226   3.757  11.149   7.600 -0.0529  0.2899  0.5752
  524MOL0     C72227   2.675  11.308   8.024 -0.2562 -0.7786  0.0459
  524MOL0     C72228   2.561  11.296   8.101  0.3545  0.2909  0.5410
  524MOL0     C72229   2.169  11.176   8.286  0.2973  0.2020 -0.9218
  524MOL0     C72230   2.169  11.053   8.363 -0.2600 -0.0312  0.5125
  524MOL0     C72231   2.067  11.029   8.456 -0.5638 -0.1918 -0.2178
  524MOL0     C72232   1.955  11.110   8.464 -0.4973 -0.0773  0.7648
  524MOL0     O72233   1.851  11.077   8.541 -0.5634  0.5354  0.4271
  524MOL0     C72234   1.847  11.179   8.647 -0.4012 -1.2950 -0.2688
  524MOL0     C72235   1.807  11.114   8.778 -0.8707 -0.4415  0.0240
  524MOL0     C72236   1.688  11.014   8.774 -0.0894 -0.3972  0.1417
  524MOL0     C72237   1.569  11.077   8.698  0.2952  0.6755 -0.3395
  524MOL0     C72238   1.441  11.014   8.739 -0.5314  0.3445 -0.5653
  524MOL0     C72239   1.327  10.998   8.772 -0.0700 -0.6654 -0.1902
  524MOL0     C72240   1.947  11.218   8.374  0.7626 -0.1022 -1.3818
  524MOL0     C72241   2.054  11.257   8.288  0.4027  0.5031  0.4783
  524MOL0     C72242   2.037  11.390   8.215 -0.0411  0.1439  0.3536
  524MOL0     H72243   2.558  10.950   8.116 -0.4151 -0.3455 -2.9052
  524MOL0     H72244   2.768  10.989   7.989 -0.9071  0.4966 -2.4703
  524MOL0     H72245   2.941  11.392   7.959 -0.7542 -1.1473  2.9426
  524MOL0     H72246   2.846  11.384   7.808 -0.0367  2.4005  1.6093
  524MOL0     H72247   3.012  11.258   7.682  0.7500 -0.5425 -0.6668
  524MOL0     H72248   3.083  11.402   7.755 -0.2812  0.0527  0.6816
  524MOL0     H72249   3.181  11.267   7.926 -0.3688  2.2305 -1.6557
  524MOL0     H72250   3.117  11.118   7.858 -1.3832 -0.8822 -1.2883
  524MOL0     H72251   3.271  11.278   7.665 -2.9976  0.4406  1.1538
  524MOL0     H72252   3.374  11.222   7.801 -0.0453 -0.8393  0.6129
  524MOL0     H72253   3.212  11.065   7.604  2.3814  0.5257 -2.2221
  524MOL0     H72254   3.272  10.994   7.766 -1.8492 -0.5347 -0.7893
  524MOL0     H72255   3.501  11.060   7.712 -0.7895 -1.8635  0.7659
  524MOL0     H72256   3.430  10.948   7.593 -4.5710  0.3480 -2.6010
  524MOL0     H72257   3.513  11.244   7.563  2.3389 -0.6481 -0.2567
  524MOL0     H72258   3.387  11.181   7.462  0.9112 -0.8444 -1.2412
  524MOL0     H72259   3.556  10.984   7.404  2.7068 -0.3848  0.3978
  524MOL0     H72260   3.586  11.141   7.335 -0.7508  0.2538 -0.2637
  524MOL0     H72261   3.811  10.906   7.394  1.2506  0.1517  0.9225
  524MOL0     H72262   4.019  10.818   7.553  0.0557  0.2609 -0.4020
  524MOL0     H72263   4.052  10.908   7.699  1.4203  0.7915 -0.0772
  524MOL0     H72264   4.243  10.962   7.535  0.2930  0.9519 -0.4590
  524MOL0     H72265   4.129  11.004   7.412 -1.2279 -1.2753 -0.2566
  524MOL0     H72266   4.066  11.211   7.520  1.3712 -0.3606 -3.7044
  524MOL0     H72267   4.158  11.151   7.674  0.2185 -3.0143  0.8675
  524MOL0     H72268   4.360  11.193   7.552 -0.9451 -0.9189 -0.0767
  524MOL0     H72269   4.271  11.228   7.397 -2.5559 -1.3045 -0.3508
  524MOL0     H72270   4.244  11.602   7.451 -1.2067 -1.9478  2.0919
  524MOL0     H72271   4.303  11.808   7.357 -0.9855  1.0754  1.2923
  524MOL0     H72272   4.463  11.807   7.289 -1.6005  0.2123 -0.6284
  524MOL0     H72273   4.435  11.882   7.451  0.2374 -0.0655 -0.8368
  524MOL0     H72274   5.024  11.558   7.306  2.9477 -2.9962  2.7193
  524MOL0     H72275   5.237  11.631   7.279 -1.8879 -2.5377  0.0582
  524MOL0     H72276   5.451  11.722   7.284  2.1244  0.6507 -1.1129
  524MOL0     H72277   5.374  11.860   7.208 -0.7109 -0.4939 -0.2015
  524MOL0     H72278   5.589  11.935   7.209  1.7089  1.0583  1.1564
  524MOL0     H72279   5.534  11.976   7.383 -2.0282  1.6285 -1.2843
  524MOL0     H72280   5.659  11.804   7.482 -1.2519  2.1332  0.3396
  524MOL0     H72281   5.753  11.906   7.377  4.0350 -3.9478  0.9427
  524MOL0     H72282   5.764  11.735   7.207 -1.2233  0.8013 -1.3561
  524MOL0     H72283   5.638  11.631   7.272 -0.6095  1.3790 -0.3141
  524MOL0     H72284   5.757  11.584   7.479  1.7158 -1.1591 -0.0064
  524MOL0     H72285   5.847  11.531   7.334 -0.3725  1.5532 -1.8185
  524MOL0     H72286   6.007  11.633   7.495  0.5036  0.9381  1.2721
  524MOL0     H72287   5.922  11.782   7.508  2.0762  0.1416 -0.1386
  524MOL0     H72288   5.976  11.799   7.251 -1.8670 -0.2667  1.3499
  524MOL0     H72289   6.095  11.670   7.285 -1.6214  0.3135 -2.7977
  524MOL0     H72290   6.194  11.897   7.288 -3.5972  2.1436 -1.3553
  524MOL0     H72291   6.189  11.827   7.457  1.1958 -0.4638 -0.2567
  524MOL0     H72292   5.161  11.939   7.577 -1.8908 -0.5031  0.9569
  524MOL0     H72293   4.926  11.865   7.595  0.8050  1.4994 -0.5370
  524MOL0     H72294   4.712  11.476   7.574  0.5710  0.8243 -3.5289
  524MOL0     H72295   4.533  11.330   7.638  0.9828 -0.0813  0.5391
  524MOL0     H72296   2.704  11.409   7.998 -0.3870 -0.9631 -0.8400
  524MOL0     H72297   2.512  11.388   8.132 -1.8517  0.4454 -2.8141
  524MOL0     H72298   2.244  10.976   8.356 -0.4174 -0.3151  1.7061
  524MOL0     H72299   2.084  10.947   8.525 -1.1039  0.5307  0.8050
  524MOL0     H72300   1.943  11.227   8.667 -1.3518  0.0611  1.2578
  524MOL0     H72301   1.770  11.251   8.614  0.4815 -1.6416 -3.3859
  524MOL0     H72302   1.785  11.204   8.836  1.9149  0.0984  0.3565
  524MOL0     H72303   1.897  11.072   8.823 -1.9729 -2.8637  0.0840
  524MOL0     H72304   1.724  10.926   8.721  2.9630 -0.2696  1.7600
  524MOL0     H72305   1.674  10.974   8.875  1.9310 -3.8365 -0.7532
  524MOL0     H72306   1.578  11.058   8.591 -1.8655  2.0090 -0.8294
  524MOL0     H72307   1.554  11.181   8.727  1.7302  1.2648 -1.6023
  524MOL0     H72308   1.221  10.986   8.765 -0.4088  1.1017  1.2628
  524MOL0     H72309   1.851  11.267   8.384 -0.1971 -2.2185  0.8269
  524MOL0     H72310   2.041  11.370   8.108 -1.3009 -0.9590  0.4935
  524MOL0     H72311   1.934  11.423   8.229  0.4876  1.1733  2.1376
  524MOL0     H72312   2.103  11.470   8.250  0.0946 -0.6440  2.0232
  525MOL0     O72313   6.805  11.204   3.668 -0.0661 -0.4989 -0.6947
  525MOL0     C72314   6.799  11.326   3.678  0.1937 -1.0586  0.0756
  525MOL0     O72315   6.911  11.411   3.703  0.4465 -0.4242 -0.5687
  525MOL0     C72316   7.032  11.352   3.725  0.0678  0.8942  0.6656
  525MOL0     C72317   7.049  11.263   3.835  0.6070  0.6729 -0.1978
  525MOL0     C72318   7.166  11.195   3.858 -0.2204  0.0315  0.3185
  525MOL0     C72319   7.278  11.218   3.767  0.4909 -0.4787  0.6911
  525MOL0     O72320   7.394  11.145   3.765  0.2268  0.0464 -1.0089
  525MOL0     C72321   7.414  11.045   3.864 -0.3487 -0.0373  0.0561
  525MOL0     C72322   7.567  11.006   3.858 -1.1208  0.6205  0.2229
  525MOL0     C72323   7.658  11.134   3.879  0.6137  0.4914 -0.0998
  525MOL0     C72324   7.806  11.097   3.870 -0.4610 -0.3830  0.1470
  525MOL0     C72325   7.885  11.191   3.962 -0.5668  0.3243 -0.1811
  525MOL0     C72326   8.028  11.147   3.944 -1.0619 -0.0131 -0.5051
  525MOL0     C72327   8.117  11.257   4.011  0.1201  0.1385  0.0620
  525MOL0     C72328   8.265  11.234   4.004  0.4227 -0.1357 -0.4882
  525MOL0     N72329   8.327  11.335   4.096  0.1730 -0.1062  0.3990
  525MOL0     C72330   8.314  11.337   4.228  0.5125 -0.6618 -0.7412
  525MOL0     C72331   8.353  11.463   4.269  0.3146  0.0747 -0.3601
  525MOL0     C72332   8.330  11.531   4.397 -0.0934 -0.8186 -0.5949
  525MOL0     C72333   8.237  11.654   4.389 -0.6155 -0.2390 -0.2300
  525MOL0     C72334   8.218  11.722   4.526 -0.3621 -0.3477  0.4122
  525MOL0     C72335   8.317  11.834   4.571  0.2498 -0.0705  0.5284
  525MOL0     O72336   8.451  11.772   4.587  0.1195  0.5049  0.5175
  525MOL0     C72337   8.558  11.856   4.599  0.3996 -0.2733  0.5686
  525MOL0     C72338   8.553  11.991   4.643  0.5299  0.1341  1.0837
  525MOL0     C72339   8.667  12.072   4.644 -0.4283  0.1192  0.3180
  525MOL0     C72340   8.640  12.220   4.673 -0.1028  0.2400  0.3388
  525MOL0     C72341   8.796  12.013   4.617 -1.4420 -0.1738 -0.4390
  525MOL0     C72342   8.920  12.088   4.625  0.1816  0.7514  1.1590
  525MOL0     O72343   9.031  12.024   4.593 -0.0468 -0.3974 -0.0022
  525MOL0     C72344   9.156  12.075   4.626 -0.1192  1.0413 -0.3896
  525MOL0     C72345   9.256  11.980   4.646  0.3072 -0.3292  0.4112
  525MOL0     C72346   9.387  12.012   4.653 -0.4281  0.2374 -0.3288
  525MOL0     C72347   9.429  12.144   4.617 -1.2564  0.4176  0.1921
  525MOL0     O72348   9.567  12.178   4.619 -0.0852  0.3346  0.1414
  525MOL0     C72349   9.614  12.314   4.627  0.1827 -0.0988  0.4604
  525MOL0     C72350   9.760  12.312   4.623  0.2045  0.0847  0.8653
  525MOL0     C72351   9.826  12.441   4.688  0.5797  0.8560 -0.3855
  525MOL0     C72352   9.805  12.577   4.620 -0.6775 -0.0221  0.2768
  525MOL0     C72353   9.882  12.691   4.700  0.5116  0.3107  0.0131
  525MOL0     C72354   9.906  12.809   4.610 -0.8320  0.1931 -0.2950
  525MOL0     C72355  10.013  12.798   4.506 -0.1574 -0.2292 -0.2481
  525MOL0     C72356  10.051  12.928   4.438 -0.1700  0.3888 -0.1545
  525MOL0    Cl72357   9.920  13.013   4.367  0.3714 -0.4984  0.1995
  525MOL0     C72358   9.331  12.239   4.589 -0.5067  0.5851  0.3903
  525MOL0     C72359   9.195  12.206   4.597  0.9049 -0.4371  0.1598
  525MOL0     O72360   8.921  12.203   4.670  0.3247  0.1966  0.1582
  525MOL0     C72361   8.797  11.876   4.578 -0.8167 -0.2425  0.0734
  525MOL0     C72362   8.679  11.803   4.559 -0.0991  0.5041  1.1263
  525MOL0     N72363   8.417  11.519   4.152  0.2263  0.3779 -0.3950
  525MOL0     N72364   8.398  11.445   4.054  0.0154  0.3344  0.0918
  525MOL0     C72365   7.260  11.319   3.674  0.2100 -0.0039  0.2236
  525MOL0     C72366   7.137  11.390   3.652 -0.6910 -0.6185 -0.4428
  525MOL0     C72367   6.662  11.387   3.660  0.5242  0.0530  0.6470
  525MOL0     C72368   6.653  11.533   3.647 -0.1928  0.6959  0.5063
  525MOL0     C72369   6.529  11.600   3.637  0.5970  0.5114  0.3472
  525MOL0     C72370   6.410  11.532   3.629 -0.2728 -0.2504 -0.7919
  525MOL0     O72371   6.306  11.609   3.604  1.1426 -0.6754 -0.0581
  525MOL0     C72372   6.174  11.550   3.606  0.9432  0.3075  0.4562
  525MOL0     C72373   6.071  11.669   3.582 -1.2687 -0.4865 -0.7642
  525MOL0     C72374   6.076  11.742   3.448  0.1859 -0.3570  0.3764
  525MOL0     C72375   5.973  11.852   3.457  0.1607 -0.4334 -0.6426
  525MOL0     C72376   5.965  11.919   3.331 -0.1374  0.3146  0.4135
  525MOL0     C72377   5.970  11.981   3.224  0.2720  0.5429 -0.7549
  525MOL0     C72378   6.411  11.390   3.649  0.0592  0.1302  0.9601
  525MOL0     C72379   6.534  11.317   3.663  0.0498 -0.8200  0.1006
  525MOL0     C72380   6.518  11.173   3.693 -0.6930 -0.1398 -0.3132
  525MOL0     H72381   6.965  11.261   3.903 -0.7442  4.9833 -1.4212
  525MOL0     H72382   7.169  11.113   3.929  0.1885 -1.5401 -1.4448
  525MOL0     H72383   7.341  10.966   3.843 -3.3745  2.2549  1.3554
  525MOL0     H72384   7.394  11.065   3.969 -4.9300 -1.9417 -0.2423
  525MOL0     H72385   7.602  10.942   3.941 -0.1415 -1.2129 -1.5010
  525MOL0     H72386   7.589  10.952   3.765 -0.6244 -0.5000  0.9603
  525MOL0     H72387   7.632  11.217   3.812  1.6433  0.4520 -0.5706
  525MOL0     H72388   7.636  11.168   3.981  0.8261 -3.2968  1.3522
  525MOL0     H72389   7.821  10.993   3.899  0.4879 -0.2148  0.2960
  525MOL0     H72390   7.840  11.103   3.766  0.2533 -2.3129  0.2398
  525MOL0     H72391   7.853  11.180   4.066  3.7289  2.5156  1.6346
  525MOL0     H72392   7.858  11.296   3.943 -2.0601  0.3216  1.5849
  525MOL0     H72393   8.052  11.047   3.979 -1.1010  0.4731  0.9962
  525MOL0     H72394   8.045  11.155   3.836  1.2090  1.5466 -0.0940
  525MOL0     H72395   8.088  11.265   4.116 -0.3225 -0.4594 -0.0039
  525MOL0     H72396   8.094  11.350   3.959  3.3991  1.8582  1.4514
  525MOL0     H72397   8.290  11.132   4.035 -0.0680  0.1102  0.7927
  525MOL0     H72398   8.295  11.246   3.900 -1.8903  1.4021 -1.0424
  525MOL0     H72399   8.256  11.270   4.290  0.3796  0.3215  0.2297
  525MOL0     H72400   8.431  11.556   4.429  0.3679 -1.9519 -1.1020
  525MOL0     H72401   8.273  11.476   4.472  1.2799  3.5687  4.2495
  525MOL0     H72402   8.274  11.727   4.316 -0.9163  2.4000  2.1206
  525MOL0     H72403   8.148  11.618   4.336  0.8447 -2.1811 -1.5065
  525MOL0     H72404   8.125  11.779   4.516  1.7719  3.4799  0.3006
  525MOL0     H72405   8.196  11.649   4.604 -2.2113 -0.3430 -0.0588
  525MOL0     H72406   8.344  11.902   4.490  2.6010 -0.4260  0.9298
  525MOL0     H72407   8.284  11.888   4.660  3.0974  0.5208  1.3444
  525MOL0     H72408   8.455  12.027   4.673  1.1209  1.8153  1.1058
  525MOL0     H72409   8.640  12.234   4.782 -0.2606 -1.9622  0.6731
  525MOL0     H72410   8.542  12.240   4.628  0.7712 -0.3877 -1.9214
  525MOL0     H72411   8.713  12.280   4.619  0.5906 -1.6226 -0.8633
  525MOL0     H72412   9.226  11.882   4.682 -0.7743 -1.4409 -3.0832
  525MOL0     H72413   9.462  11.941   4.687 -0.0849  1.0973  0.7582
  525MOL0     H72414   9.570  12.378   4.550  1.7918  1.9992  1.1971
  525MOL0     H72415   9.585  12.361   4.722  3.4944  0.6365  1.2411
  525MOL0     H72416   9.780  12.216   4.672 -0.5654 -1.0959 -1.0477
  525MOL0     H72417   9.804  12.295   4.525  0.4814  0.5923  0.8944
  525MOL0     H72418   9.934  12.422   4.691  0.3997 -0.1926 -0.4336
  525MOL0     H72419   9.786  12.455   4.789 -4.4040 -2.8472 -1.5005
  525MOL0     H72420   9.698  12.600   4.620 -0.9003 -0.9793 -0.1917
  525MOL0     H72421   9.835  12.572   4.514 -1.1243 -2.9442  0.2099
  525MOL0     H72422   9.821  12.717   4.787  1.4198  2.7377  0.0059
  525MOL0     H72423   9.974  12.651   4.743 -0.8226 -0.8479  1.9133
  525MOL0     H72424   9.933  12.894   4.673  0.0822 -0.0297 -0.3711
  525MOL0     H72425   9.811  12.836   4.564 -2.7230 -1.3724  2.4027
  525MOL0     H72426   9.955  12.749   4.427  1.3821  2.6367 -3.4392
  525MOL0     H72427  10.105  12.744   4.531  0.1922  1.5208  2.7367
  525MOL0     H72428  10.131  12.902   4.368  0.9741  2.5862  0.2725
  525MOL0     H72429  10.111  12.988   4.506  0.5831 -3.1250  2.5998
  525MOL0     H72430   9.369  12.339   4.568  2.8196 -0.8469 -1.0604
  525MOL0     H72431   9.121  12.283   4.576  0.8371 -0.8971 -1.3900
  525MOL0     H72432   8.891  11.828   4.552  0.3041  2.1944 -0.7335
  525MOL0     H72433   8.674  11.698   4.532 -1.3674  0.1801  2.5382
  525MOL0     H72434   7.345  11.349   3.615 -0.9659  3.4486  0.0664
  525MOL0     H72435   7.139  11.466   3.574  1.1311 -0.0853  0.0851
  525MOL0     H72436   6.743  11.590   3.667 -0.3698  0.4067  2.2625
  525MOL0     H72437   6.539  11.708   3.629  1.2800  0.5094  1.0964
  525MOL0     H72438   6.167  11.485   3.518  2.7797 -1.5228  1.5616
  525MOL0     H72439   6.150  11.494   3.696 -0.5674  3.8360  2.4431
  525MOL0     H72440   6.080  11.736   3.668  1.4217 -1.3392 -0.3006
  525MOL0     H72441   5.975  11.618   3.593 -0.1632 -2.2452  1.6209
  525MOL0     H72442   6.178  11.781   3.439 -0.5689  1.6714  0.1752
  525MOL0     H72443   6.061  11.676   3.362  0.3121  0.2325 -0.1078
  525MOL0     H72444   6.011  11.926   3.529 -2.4913  0.4143 -0.0120
  525MOL0     H72445   5.874  11.822   3.492  0.3471 -1.0718 -0.6593
  525MOL0     H72446   5.965  12.048   3.141 -0.7861  1.5047  0.0527
  525MOL0     H72447   6.327  11.322   3.641  1.4679 -1.6505  0.7450
  525MOL0     H72448   6.413  11.141   3.696 -0.7189 -0.9763 -4.4772
  525MOL0     H72449   6.565  11.103   3.623 -2.8370  0.2413 -2.2246
  525MOL0     H72450   6.555  11.157   3.795 -1.0554  2.0140  0.1896
  526MOL0     O72451   4.092   4.846   1.562 -0.3238  0.3035  0.1002
  526MOL0     C72452   4.119   4.734   1.521 -0.4465  0.0842  0.5006
  526MOL0     O72453   4.245   4.668   1.545  0.5158 -0.2693 -0.0739
  526MOL0     C72454   4.351   4.742   1.587  1.2235  0.1648 -0.0042
  526MOL0     C72455   4.345   4.812   1.704 -0.9253 -0.4845  0.1364
  526MOL0     C72456   4.452   4.892   1.741 -0.0814  0.7299  0.4197
  526MOL0     C72457   4.564   4.904   1.653 -0.4110 -0.3746 -0.6614
  526MOL0     O72458   4.680   4.978   1.694  0.7332  0.2408 -0.2260
  526MOL0     C72459   4.720   5.077   1.596  0.0480  0.5607 -0.0576
  526MOL0     C72460   4.827   5.173   1.672  0.6723 -0.3169 -0.1071
  526MOL0     C72461   4.954   5.085   1.705 -0.6289 -0.2885  0.8356
  526MOL0     C72462   5.054   5.081   1.588  0.0450 -0.3628  1.2490
  526MOL0     C72463   5.105   4.936   1.559  0.8224  0.0994 -0.0372
  526MOL0     C72464   5.233   4.940   1.484 -0.3447  0.3437 -0.0727
  526MOL0     C72465   5.318   4.824   1.501 -0.6324 -0.1491 -0.6225
  526MOL0     C72466   5.244   4.710   1.421 -0.0129  0.9238  0.1533
  526MOL0     N72467   5.334   4.592   1.404 -0.6753 -0.2210  0.0884
  526MOL0     C72468   5.417   4.574   1.297 -0.7357  0.4932 -0.4187
  526MOL0     C72469   5.454   4.445   1.299 -0.6811 -0.2787 -0.1421
  526MOL0     C72470   5.541   4.383   1.200  0.0696  0.2968  0.7180
  526MOL0     C72471   5.689   4.387   1.227  0.2577  0.2320 -0.3307
  526MOL0     C72472   5.762   4.522   1.239 -0.0453  0.1861  0.5774
  526MOL0     C72473   5.903   4.498   1.291  0.0146  0.3823  0.4171
  526MOL0     O72474   5.982   4.610   1.295 -0.3439 -0.4390  0.0267
  526MOL0     C72475   6.115   4.589   1.283  0.2125 -0.2435 -0.3328
  526MOL0     C72476   6.190   4.698   1.240 -0.1182  1.1297 -0.1327
  526MOL0     C72477   6.331   4.692   1.228  0.2347 -0.2195  0.7275
  526MOL0     C72478   6.407   4.807   1.168 -0.3781 -0.8825  0.4440
  526MOL0     C72479   6.400   4.570   1.251 -0.3445  0.2491  0.3066
  526MOL0     C72480   6.546   4.538   1.246  0.1161 -0.0224 -0.2385
  526MOL0     O72481   6.593   4.411   1.214 -0.0171  0.4524  0.4734
  526MOL0     C72482   6.726   4.386   1.199 -0.2819  0.6282 -0.2189
  526MOL0     C72483   6.789   4.382   1.074 -0.4725  0.0013  0.6087
  526MOL0     C72484   6.916   4.338   1.052 -0.3540 -0.2404 -0.3086
  526MOL0     C72485   6.995   4.293   1.166  0.1239 -0.1357  0.0717
  526MOL0     O72486   7.119   4.242   1.161 -0.0676  0.0162  0.0726
  526MOL0     C72487   7.145   4.155   1.051  0.0001  0.5727  0.5615
  526MOL0     C72488   7.248   4.217   0.956 -0.3458  0.4603 -0.9085
  526MOL0     C72489   7.300   4.120   0.845  0.2377  0.3806 -0.5449
  526MOL0     C72490   7.363   3.986   0.886  0.0294  0.2757 -0.4851
  526MOL0     C72491   7.499   4.014   0.960 -0.4989  0.6427 -0.5292
  526MOL0     C72492   7.571   3.894   1.027  0.9285 -0.3928  0.7464
  526MOL0     C72493   7.474   3.833   1.130  0.1750 -0.3028 -0.3514
  526MOL0     C72494   7.540   3.712   1.206  0.1625 -0.1548 -0.0729
  526MOL0    Cl72495   7.413   3.664   1.318 -0.5362  0.2269 -0.1350
  526MOL0     C72496   6.939   4.300   1.292  0.0317  0.0107 -0.2141
  526MOL0     C72497   6.802   4.340   1.312 -0.3267  0.0709  0.3603
  526MOL0     O72498   6.624   4.630   1.268 -0.0694 -0.9714 -0.0128
  526MOL0     C72499   6.320   4.456   1.296  0.4026 -0.6805  0.1048
  526MOL0     C72500   6.188   4.471   1.326 -0.1713  0.2175  0.6146
  526MOL0     N72501   5.387   4.390   1.407 -0.2049  0.1523 -0.0055
  526MOL0     N72502   5.309   4.473   1.461 -0.4459  0.4599 -0.5190
  526MOL0     C72503   4.556   4.839   1.533 -0.1853  0.2433 -0.4181
  526MOL0     C72504   4.444   4.760   1.499  0.8799  0.3629  0.0560
  526MOL0     C72505   4.021   4.656   1.436  0.0118 -0.0380 -0.2888
  526MOL0     C72506   4.058   4.522   1.402  1.1255  0.2089  0.1616
  526MOL0     C72507   3.975   4.447   1.325 -0.2827 -0.1171 -0.8251
  526MOL0     C72508   3.844   4.490   1.291  0.0993 -0.0200 -0.5532
  526MOL0     O72509   3.745   4.420   1.226 -0.0304 -0.0343 -0.4023
  526MOL0     C72510   3.764   4.285   1.195  0.2936 -0.1384  0.4482
  526MOL0     C72511   3.655   4.217   1.109 -1.0010  0.9069  0.3601
  526MOL0     C72512   3.515   4.278   1.104  0.0283 -0.3609  0.2014
  526MOL0     C72513   3.411   4.179   1.050  0.2451 -0.8042 -0.4253
  526MOL0     C72514   3.424   4.134   0.910  0.3503  0.0317 -0.3570
  526MOL0     C72515   3.430   4.101   0.795  0.4572  1.6053 -0.0229
  526MOL0     C72516   3.810   4.626   1.323 -0.1824 -0.3991  0.1918
  526MOL0     C72517   3.895   4.706   1.400 -0.2053 -0.6835  0.7669
  526MOL0     C72518   3.838   4.846   1.429 -0.7413  0.7614  0.6327
  526MOL0     H72519   4.275   4.788   1.783  2.1950 -0.2384  3.1902
  526MOL0     H72520   4.450   4.947   1.835 -0.3530 -1.2043  1.5935
  526MOL0     H72521   4.634   5.135   1.562  0.2852  0.5710 -0.6541
  526MOL0     H72522   4.758   5.030   1.505  1.9153  0.1051  0.9153
  526MOL0     H72523   4.850   5.259   1.609  3.7461 -1.5312 -0.8069
  526MOL0     H72524   4.789   5.208   1.769  0.7299 -0.5902  0.0156
  526MOL0     H72525   5.016   5.131   1.783 -0.6624 -0.7633  1.1464
  526MOL0     H72526   4.919   4.989   1.744 -1.5092 -0.5757 -0.5959
  526MOL0     H72527   5.010   5.117   1.494 -2.2538 -0.2538  2.2902
  526MOL0     H72528   5.132   5.154   1.613 -0.2424  0.7911 -0.9866
  526MOL0     H72529   5.033   4.884   1.495  1.2703 -1.1903  0.4724
  526MOL0     H72530   5.107   4.874   1.649  0.8166  0.2827  0.0895
  526MOL0     H72531   5.210   4.963   1.379  0.9862  0.1802 -0.4158
  526MOL0     H72532   5.291   5.028   1.515  2.6291 -1.5642  0.1539
  526MOL0     H72533   5.331   4.787   1.604 -0.0238  0.9221 -0.2982
  526MOL0     H72534   5.417   4.828   1.454  0.3135 -0.5085  1.2120
  526MOL0     H72535   5.165   4.673   1.487  0.9259 -1.2167  0.1687
  526MOL0     H72536   5.198   4.747   1.329 -2.3455 -0.3172  0.7433
  526MOL0     H72537   5.450   4.644   1.221  0.7017  0.6179  0.2720
  526MOL0     H72538   5.524   4.433   1.104 -1.1975  0.3580  0.9681
  526MOL0     H72539   5.519   4.276   1.195  0.3543  0.0893  2.9375
  526MOL0     H72540   5.699   4.336   1.324  0.4492 -0.4709 -0.7171
  526MOL0     H72541   5.749   4.340   1.148  0.9392 -0.1391  0.3886
  526MOL0     H72542   5.772   4.558   1.136  0.2652  1.5827  1.0847
  526MOL0     H72543   5.712   4.594   1.304 -0.2858  0.4522  0.1033
  526MOL0     H72544   5.904   4.457   1.393  3.1687 -1.2883 -0.1642
  526MOL0     H72545   5.947   4.416   1.234  0.3800  1.5323 -1.0198
  526MOL0     H72546   6.134   4.790   1.224 -0.4088  0.8553 -0.7624
  526MOL0     H72547   6.464   4.769   1.083 -1.9932 -1.2905 -0.4986
  526MOL0     H72548   6.472   4.850   1.245 -1.7225  0.6488  0.7742
  526MOL0     H72549   6.342   4.892   1.142  2.5066  1.7662  1.1821
  526MOL0     H72550   6.741   4.407   0.980  1.3128  0.6657 -0.1813
  526MOL0     H72551   6.961   4.334   0.953 -1.6469  0.9397 -0.9852
  526MOL0     H72552   7.196   4.069   1.095  1.4809 -0.9478 -3.6211
  526MOL0     H72553   7.063   4.113   0.992  1.8550 -1.7718 -0.5322
  526MOL0     H72554   7.200   4.298   0.899 -0.9357 -0.9871 -2.5400
  526MOL0     H72555   7.330   4.257   1.016 -0.4911  1.4610 -1.3520
  526MOL0     H72556   7.366   4.176   0.778  2.9732  0.4704  1.9728
  526MOL0     H72557   7.215   4.092   0.783  0.3259 -1.1621  0.0114
  526MOL0     H72558   7.376   3.911   0.808  2.2587 -0.1132  0.1994
  526MOL0     H72559   7.289   3.938   0.950  1.8058 -1.5958  0.2463
  526MOL0     H72560   7.564   4.041   0.876  0.1817 -1.3194 -0.6767
  526MOL0     H72561   7.486   4.100   1.027  2.6417  1.8994 -1.3383
  526MOL0     H72562   7.669   3.927   1.064  1.7419  0.0075 -1.5702
  526MOL0     H72563   7.576   3.821   0.946 -3.0137  0.7197 -0.7240
  526MOL0     H72564   7.380   3.810   1.079 -0.4287  3.5351 -1.2872
  526MOL0     H72565   7.438   3.908   1.202 -1.9473 -0.2634 -1.3709
  526MOL0     H72566   7.613   3.754   1.277 -0.9457 -0.6895  1.4479
  526MOL0     H72567   7.584   3.628   1.151 -2.8567 -1.8984 -0.0393
  526MOL0     H72568   6.994   4.273   1.382 -2.8908 -0.7788  1.4663
  526MOL0     H72569   6.765   4.336   1.413 -0.0004  3.8774  0.7907
  526MOL0     H72570   6.367   4.359   1.304 -1.1593 -1.4265  0.5016
  526MOL0     H72571   6.139   4.388   1.376  0.4064 -0.8416 -0.5252
  526MOL0     H72572   4.641   4.844   1.466  0.8946 -2.7033  0.5801
  526MOL0     H72573   4.435   4.715   1.400 -0.6664  1.4548 -0.3445
  526MOL0     H72574   4.157   4.488   1.431  0.3361 -0.5946  2.1154
  526MOL0     H72575   4.006   4.344   1.309 -1.2530 -1.0491  2.5775
  526MOL0     H72576   3.864   4.267   1.154  0.9519  0.2767  1.8122
  526MOL0     H72577   3.758   4.233   1.291 -0.0966  2.0442  1.6669
  526MOL0     H72578   3.654   4.118   1.155  0.8245 -0.3820 -2.1001
  526MOL0     H72579   3.693   4.200   1.007  0.7376 -1.3486  1.2903
  526MOL0     H72580   3.483   4.315   1.202  0.7236  0.0614  0.2737
  526MOL0     H72581   3.521   4.363   1.035  0.4033 -1.1958 -0.8117
  526MOL0     H72582   3.310   4.220   1.055 -0.4334 -2.5209  1.0627
  526MOL0     H72583   3.415   4.094   1.119  1.8131  0.3411  0.9761
  526MOL0     H72584   3.429   4.084   0.689 -0.8614 -3.4205  0.5481
  526MOL0     H72585   3.712   4.658   1.290  0.3371 -0.9374 -2.0117
  526MOL0     H72586   3.900   4.928   1.390 -0.4920  1.1843  1.8830
  526MOL0     H72587   3.738   4.855   1.385 -0.9976 -1.5925  0.6241
  526MOL0     H72588   3.832   4.872   1.535 -3.6532  2.8740  0.0951
  527MOL0     O72589   8.319   4.218   0.409  0.0732 -0.0053 -0.0797
  527MOL0     C72590   8.231   4.163   0.349 -0.1582  0.6054 -0.1776
  527MOL0     O72591   8.251   4.049   0.266 -0.4962 -0.7535  0.5425
  527MOL0     C72592   8.379   4.025   0.223  0.3399 -0.3957  0.1632
  527MOL0     C72593   8.477   3.981   0.305 -0.3750  0.1422 -0.4623
  527MOL0     C72594   8.609   3.962   0.245  0.0205 -0.2936 -0.7244
  527MOL0     C72595   8.632   3.973   0.109 -0.4342  0.6412  1.3456
  527MOL0     O72596   8.746   3.946   0.038  0.3631 -0.3572 -0.1562
  527MOL0     C72597   8.873   3.958   0.104  0.1300 -0.0172  0.0765
  527MOL0     C72598   8.949   4.073   0.039 -0.5137 -0.9778 -0.4702
  527MOL0     C72599   9.086   4.089   0.119 -0.1611 -0.4394 -0.1539
  527MOL0     C72600   9.160   4.218   0.075 -0.6520 -0.7691  0.4077
  527MOL0     C72601   9.307   4.192   0.079  0.1766 -0.3832  0.0594
  527MOL0     C72602   9.389   4.319   0.076  0.2229  0.0116 -0.4823
  527MOL0     C72603   9.534   4.280   0.068  0.5968  0.2777 -0.1354
  527MOL0     C72604   9.616   4.412   0.061  0.0190  0.9656  0.3871
  527MOL0     N72605   9.764   4.379   0.032 -0.5980 -0.3159 -0.5799
  527MOL0     C72606   9.829   4.319  -0.077 -0.2567 -0.2864  0.3197
  527MOL0     C72607   9.958   4.301  -0.045 -0.3937  0.6841 -0.2901
  527MOL0     C72608  10.064   4.239  -0.126 -0.8591 -0.2301  0.4224
  527MOL0     C72609  10.205   4.254  -0.066 -0.1959  0.5808  0.8515
  527MOL0     C72610  10.290   4.164  -0.159 -0.3544  0.0263 -0.7435
  527MOL0     C72611  10.441   4.168  -0.103 -0.0333 -0.8629 -0.1802
  527MOL0     O72612  10.518   4.077  -0.183 -0.2796 -0.7125 -0.6558
  527MOL0     C72613  10.652   4.069  -0.142  0.8662  0.2565  0.5019
  527MOL0     C72614  10.725   3.967  -0.210 -0.0476  0.3595 -0.6050
  527MOL0     C72615  10.860   3.951  -0.200  0.5226 -0.7753  0.2628
  527MOL0     C72616  10.917   3.839  -0.286  0.4417  0.7727  0.0083
  527MOL0     C72617  10.935   4.050  -0.130 -0.0901  0.8217  0.3163
  527MOL0     C72618  11.085   4.051  -0.125  0.5582 -0.1664 -1.0979
  527MOL0     O72619  11.159   3.980  -0.213  0.0403  0.1724  0.1418
  527MOL0     C72620  11.295   4.002  -0.214 -0.4167  0.2771  0.1278
  527MOL0     C72621  11.385   3.902  -0.170  1.3885 -0.1434 -1.3634
  527MOL0     C72622  11.521   3.939  -0.147  0.4964  0.3115  0.9725
  527MOL0     C72623  11.564   4.074  -0.171 -0.4395  0.1564 -0.6508
  527MOL0     O72624  11.697   4.120  -0.150  0.1298  0.7413  0.3597
  527MOL0     C72625  11.794   4.025  -0.119  1.0574  0.3866  0.3012
  527MOL0     C72626  11.933   4.088  -0.135 -0.4989 -0.0688  0.9914
  527MOL0     C72627  12.053   4.002  -0.092  0.2618 -0.5397  0.8571
  527MOL0     C72628  12.183   4.046  -0.153 -0.8771  0.4424  0.2551
  527MOL0     C72629  12.305   3.999  -0.066  0.4378  0.1899 -0.0616
  527MOL0     C72630  12.441   4.010  -0.136 -0.0791  0.6172  0.1718
  527MOL0     C72631  12.559   3.948  -0.044  0.3319  0.2643  0.4938
  527MOL0     C72632  12.691   4.023  -0.066  0.5559  0.5080  0.3249
  527MOL0    Cl72633  12.836   3.952   0.021 -0.0111  0.5154  0.0411
  527MOL0     C72634  11.475   4.173  -0.220 -0.5120  0.0794  0.3807
  527MOL0     C72635  11.344   4.138  -0.239  0.4119  0.2078 -0.5954
  527MOL0     O72636  11.132   4.127  -0.037 -0.1874  0.2237 -0.0059
  527MOL0     C72637  10.859   4.141  -0.051 -0.5685  0.0768  0.3426
  527MOL0     C72638  10.719   4.163  -0.062 -0.1807 -0.4227 -0.1156
  527MOL0     N72639   9.971   4.349   0.089  0.2527 -0.8694  0.1411
  527MOL0     N72640   9.857   4.392   0.128 -0.1944  1.3861  0.7998
  527MOL0     C72641   8.529   4.029   0.029 -0.2851  0.2342  0.5426
  527MOL0     C72642   8.405   4.047   0.082 -0.3562  0.5573 -0.3448
  527MOL0     C72643   8.092   4.230   0.371 -0.3048  1.1710  0.4199
  527MOL0     C72644   7.985   4.158   0.304 -0.4610  0.1100  0.2272
  527MOL0     C72645   7.854   4.204   0.321  0.6852  1.0004  0.2936
  527MOL0     C72646   7.836   4.320   0.393 -0.3367  0.7959  0.4145
  527MOL0     O72647   7.708   4.360   0.375  0.0337  0.0736  0.0351
  527MOL0     C72648   7.663   4.471   0.455  1.2478 -0.7775  0.0937
  527MOL0     C72649   7.508   4.486   0.459 -1.2242 -0.4473 -0.5488
  527MOL0     C72650   7.448   4.516   0.323  0.4255 -0.0110  0.2927
  527MOL0     C72651   7.422   4.667   0.302 -0.1542  0.3043 -0.1043
  527MOL0     C72652   7.394   4.695   0.160  0.1822 -1.1416  0.1159
  527MOL0     C72653   7.380   4.742   0.052  0.4411  0.7542 -0.0297
  527MOL0     C72654   7.935   4.383   0.466 -0.0810  0.2521 -0.5590
  527MOL0     C72655   8.062   4.338   0.451 -0.3250 -0.7781 -0.0898
  527MOL0     C72656   8.170   4.417   0.529 -0.2165 -0.3850  0.7131
  527MOL0     H72657   8.470   3.971   0.413  3.1528  1.2867  0.0063
  527MOL0     H72658   8.693   3.937   0.309  0.9407 -0.3116 -1.9166
  527MOL0     H72659   8.932   3.866   0.099  3.1295  1.7665  0.3097
  527MOL0     H72660   8.866   3.981   0.211 -4.1338 -0.5220  0.0501
  527MOL0     H72661   8.968   4.043  -0.064  1.8969 -0.6534 -0.1902
  527MOL0     H72662   8.899   4.169   0.043 -0.6850 -1.1011  1.6623
  527MOL0     H72663   9.071   4.089   0.227 -0.8485  2.6089 -0.1621
  527MOL0     H72664   9.153   4.008   0.088 -2.9630 -2.1156 -2.2766
  527MOL0     H72665   9.137   4.235  -0.031 -0.9317 -0.4461  0.5165
  527MOL0     H72666   9.140   4.303   0.141 -0.9624 -1.3080  1.0191
  527MOL0     H72667   9.338   4.130  -0.006  0.0932  1.1695 -1.1467
  527MOL0     H72668   9.335   4.134   0.167 -0.2780 -1.0253 -0.2043
  527MOL0     H72669   9.354   4.368  -0.015 -1.2594 -1.7149 -0.8986
  527MOL0     H72670   9.364   4.381   0.162  0.1122 -0.0384 -0.4780
  527MOL0     H72671   9.546   4.220  -0.023 -2.1910  1.9623 -1.7990
  527MOL0     H72672   9.558   4.227   0.160 -2.4948 -1.2462 -0.0633
  527MOL0     H72673   9.579   4.483  -0.014 -0.3603  2.9914  2.3666
  527MOL0     H72674   9.617   4.452   0.163 -0.5870 -0.7585  1.1069
  527MOL0     H72675   9.777   4.286  -0.166 -0.6109  1.0723 -0.0016
  527MOL0     H72676  10.057   4.270  -0.231 -2.2684 -2.6920 -0.2913
  527MOL0     H72677  10.039   4.132  -0.130 -1.2963 -0.1683  1.3916
  527MOL0     H72678  10.240   4.357  -0.072 -1.5685  1.0027 -0.3630
  527MOL0     H72679  10.204   4.216   0.037 -2.8162  0.2714  0.7687
  527MOL0     H72680  10.252   4.062  -0.167  2.4956 -1.0495 -1.7708
  527MOL0     H72681  10.303   4.206  -0.260  1.1836  0.3965 -0.4199
  527MOL0     H72682  10.465   4.274  -0.118 -1.2704 -0.4423  0.5807
  527MOL0     H72683  10.429   4.137   0.001  1.0515  1.0134  0.5576
  527MOL0     H72684  10.671   3.909  -0.285  0.6840  2.8316 -3.2194
  527MOL0     H72685  10.999   3.784  -0.238 -0.8016 -3.2618 -2.0444
  527MOL0     H72686  10.936   3.865  -0.391 -4.5042 -0.7268 -1.5220
  527MOL0     H72687  10.840   3.763  -0.297  0.5329  0.5956  0.5582
  527MOL0     H72688  11.338   3.807  -0.147  3.3653 -0.5056  1.7072
  527MOL0     H72689  11.584   3.862  -0.105  1.3839  0.1884 -0.5223
  527MOL0     H72690  11.772   3.979  -0.022 -1.6021 -2.4682 -1.4560
  527MOL0     H72691  11.798   3.938  -0.186  2.0391  0.6163  0.0449
  527MOL0     H72692  11.949   4.106  -0.241  2.8629  0.0639  1.4075
  527MOL0     H72693  11.943   4.184  -0.083 -2.4503  0.7621 -0.0381
  527MOL0     H72694  12.032   3.897  -0.113 -2.5127 -0.2463  1.6722
  527MOL0     H72695  12.058   4.008   0.018 -0.6169  1.4700  0.8346
  527MOL0     H72696  12.179   4.155  -0.158  2.8165  0.6943  0.0165
  527MOL0     H72697  12.185   4.005  -0.254 -0.8925 -1.5865  1.0218
  527MOL0     H72698  12.309   4.060   0.025 -1.6426 -0.0478  0.2549
  527MOL0     H72699  12.288   3.894  -0.038 -0.7803 -0.1888 -1.9708
  527MOL0     H72700  12.466   4.108  -0.175  1.3923 -0.7021 -2.4343
  527MOL0     H72701  12.431   3.936  -0.216 -3.0514  2.3153 -1.1789
  527MOL0     H72702  12.573   3.841  -0.063  1.3840  0.4855 -0.0461
  527MOL0     H72703  12.528   3.949   0.061 -1.9555 -1.3602 -0.0808
  527MOL0     H72704  12.670   4.120  -0.021  1.5738  1.3733 -0.9883
  527MOL0     H72705  12.709   4.042  -0.172  2.2293 -1.5250  0.1918
  527MOL0     H72706  11.499   4.277  -0.237 -0.8669  0.4134  1.8103
  527MOL0     H72707  11.266   4.203  -0.277  0.4504 -1.2120 -3.4139
  527MOL0     H72708  10.925   4.188   0.022  2.8619 -2.1092 -1.0640
  527MOL0     H72709  10.658   4.222   0.006 -0.0431 -4.3504  3.8599
  527MOL0     H72710   8.536   4.045  -0.078 -4.4535  2.3964  0.3921
  527MOL0     H72711   8.332   4.089   0.013  0.9796  1.6158 -1.1786
  527MOL0     H72712   8.008   4.068   0.248  0.5903  1.3365 -1.3777
  527MOL0     H72713   7.762   4.155   0.289  1.5053 -1.8140  1.8419
  527MOL0     H72714   7.712   4.480   0.552  0.4765  0.5248  0.3936
  527MOL0     H72715   7.700   4.559   0.400  1.9274 -0.3250  1.2510
  527MOL0     H72716   7.479   4.555   0.539  1.6613  1.7225 -1.1846
  527MOL0     H72717   7.472   4.387   0.488 -1.7135 -0.3644 -0.8634
  527MOL0     H72718   7.513   4.473   0.247  0.5643  2.4469 -1.1098
  527MOL0     H72719   7.353   4.462   0.332 -0.9226  2.0718 -0.5558
  527MOL0     H72720   7.514   4.723   0.321  0.0732 -0.2069  0.3174
  527MOL0     H72721   7.347   4.710   0.369 -1.1185 -3.6264  1.5814
  527MOL0     H72722   7.358   4.791  -0.040  0.0742 -2.0871 -1.5914
  527MOL0     H72723   7.929   4.470   0.531 -0.1956 -0.5428  0.5323
  527MOL0     H72724   8.211   4.343   0.597  0.4505  1.0429  1.9366
  527MOL0     H72725   8.248   4.466   0.468 -1.8910  0.1392 -1.1144
  527MOL0     H72726   8.125   4.498   0.588 -1.0925  1.4424 -2.2043
  528MOL0     O72727   9.256   9.439   8.548 -0.4491 -0.8729  0.2700
  528MOL0     C72728   9.277   9.528   8.468 -0.5595 -0.1133 -0.2645
  528MOL0     O72729   9.230   9.662   8.471 -0.2722 -0.6956 -0.8904
  528MOL0     C72730   9.135   9.699   8.565  0.5738 -0.3484  0.3611
  528MOL0     C72731   9.044   9.795   8.527  0.6568 -0.1866 -0.1275
  528MOL0     C72732   8.928   9.824   8.607 -0.2386  0.8421 -0.0731
  528MOL0     C72733   8.904   9.765   8.735  0.0199  0.4493 -0.3475
  528MOL0     O72734   8.790   9.793   8.808 -0.3524 -0.1458  0.1117
  528MOL0     C72735   8.683   9.859   8.742 -0.1655 -0.5996  0.7678
  528MOL0     C72736   8.568   9.884   8.831  0.0404  0.3675  1.3368
  528MOL0     C72737   8.619   9.943   8.969  0.1775  0.1168 -0.6709
  528MOL0     C72738   8.666  10.082   8.946 -0.0376 -1.2832  0.4338
  528MOL0     C72739   8.680  10.164   9.070  0.6973  0.4228 -0.2391
  528MOL0     C72740   8.782  10.110   9.167 -0.0027 -0.4950 -0.3913
  528MOL0     C72741   8.925  10.148   9.124  0.8553 -0.0518 -0.4930
  528MOL0     C72742   9.020  10.094   9.227  0.8501 -0.0723  0.8310
  528MOL0     N72743   9.022  10.176   9.347  0.2705 -0.3662 -0.6478
  528MOL0     C72744   8.950  10.149   9.457 -0.3988 -1.3246 -0.5256
  528MOL0     C72745   8.988  10.243   9.553 -0.4147  0.0220 -1.1172
  528MOL0     C72746   8.928  10.259   9.687  0.1596  0.3113  0.2864
  528MOL0     C72747   9.024  10.233   9.806  0.4542  0.0812 -0.8650
  528MOL0     C72748   8.965  10.287   9.933  0.3620  0.1524 -0.3041
  528MOL0     C72749   9.054  10.262  10.050  0.7814  0.6442 -0.0372
  528MOL0     O72750   8.976  10.308  10.160 -0.5987 -0.3523 -0.5628
  528MOL0     C72751   9.046  10.373  10.261  0.4610  0.3210 -0.6836
  528MOL0     C72752   9.185  10.356  10.291  0.4599  0.3746 -1.2710
  528MOL0     C72753   9.241  10.424  10.398  0.3795 -0.1490 -0.7545
  528MOL0     C72754   9.382  10.386  10.431 -0.4822  0.4920 -0.1780
  528MOL0     C72755   9.167  10.509  10.484 -0.1502  0.9725 -0.2145
  528MOL0     C72756   9.227  10.570  10.606  1.0108  0.2614  0.3622
  528MOL0     O72757   9.125  10.591  10.707 -0.0303 -0.0721  0.0679
  528MOL0     C72758   9.154  10.645  10.829  0.2819 -0.2250 -0.4219
  528MOL0     C72759   9.036  10.674  10.898  0.0115 -0.2951  0.0773
  528MOL0     C72760   9.042  10.722  11.034 -0.3555  0.3537  0.0885
  528MOL0     C72761   9.163  10.747  11.098 -0.3951 -0.6223 -0.1207
  528MOL0     O72762   9.188  10.803  11.224 -0.0316 -0.0857 -0.5739
  528MOL0     C72763   9.075  10.853  11.290 -0.5945  0.1382 -0.4071
  528MOL0     C72764   9.115  10.922  11.424  0.0070 -0.6726  0.7471
  528MOL0     C72765   9.131  10.820  11.547 -0.5403 -0.3181  0.2760
  528MOL0     C72766   8.982  10.791  11.591 -0.3663  0.0935 -0.7822
  528MOL0     C72767   8.960  10.681  11.695  0.3106  0.8476  1.3766
  528MOL0     C72768   8.828  10.694  11.773 -0.1428  0.7925 -0.4926
  528MOL0     C72769   8.702  10.658  11.676 -1.5339 -0.3281 -0.6700
  528MOL0     C72770   8.575  10.683  11.739  0.6473 -0.5336  1.2113
  528MOL0    Cl72771   8.444  10.604  11.640 -0.1424  0.6005  0.2360
  528MOL0     C72772   9.283  10.717  11.028  0.0023  0.5122  0.5101
  528MOL0     C72773   9.277  10.664  10.894  0.5483  0.1717 -0.3391
  528MOL0     O72774   9.343  10.600  10.607 -0.5923  0.0522 -0.7779
  528MOL0     C72775   9.032  10.518  10.451 -0.6688  0.5228 -0.8154
  528MOL0     C72776   8.970  10.446  10.351  0.7304 -0.0204  0.0267
  528MOL0     N72777   9.079  10.327   9.496  0.0901  0.4943  1.0775
  528MOL0     N72778   9.103  10.282   9.378  0.8217 -0.1193 -0.4389
  528MOL0     C72779   9.007   9.679   8.778 -0.1335 -0.4392 -1.1672
  528MOL0     C72780   9.118   9.650   8.695 -0.4246 -0.5504 -0.0267
  528MOL0     C72781   9.386   9.494   8.369 -0.0255 -0.3200  0.1597
  528MOL0     C72782   9.462   9.603   8.322  0.1334  0.6672 -0.2816
  528MOL0     C72783   9.562   9.586   8.226 -0.3861 -0.1074 -0.5223
  528MOL0     C72784   9.593   9.461   8.184  0.1376  0.0224 -0.6362
  528MOL0     O72785   9.692   9.424   8.105 -0.1586 -1.1567  0.1798
  528MOL0     C72786   9.791   9.525   8.068 -0.1241 -0.2486 -0.9471
  528MOL0     C72787   9.872   9.466   7.949 -0.6022 -0.0848  0.0191
  528MOL0     C72788   9.956   9.578   7.888 -0.3738 -0.5294 -0.8487
  528MOL0     C72789  10.076   9.529   7.805  0.4504  0.1797  0.0330
  528MOL0     C72790  10.152   9.646   7.749 -0.0689  0.8287  0.1486
  528MOL0     C72791  10.209   9.739   7.694 -0.4287  0.2109 -0.0582
  528MOL0     C72792   9.528   9.353   8.238 -0.3116  1.0542 -0.4443
  528MOL0     C72793   9.423   9.365   8.321  0.2121 -0.0203 -0.4175
  528MOL0     C72794   9.346   9.240   8.364 -0.5656 -0.1845 -0.4701
  528MOL0     H72795   9.044   9.845   8.431 -1.1819  1.9081  0.8718
  528MOL0     H72796   8.860   9.901   8.571  0.2343  1.0123 -0.6091
  528MOL0     H72797   8.641   9.802   8.658 -1.7067  0.3864  0.8210
  528MOL0     H72798   8.713   9.961   8.718  1.5618 -0.4454  3.1954
  528MOL0     H72799   8.492   9.948   8.784  1.2097  1.9143  1.4815
  528MOL0     H72800   8.515   9.789   8.841  2.2671 -0.9370  1.4377
  528MOL0     H72801   8.532   9.940   9.035 -0.9813  0.8369 -2.0887
  528MOL0     H72802   8.697   9.879   9.011  0.6260  0.9342 -0.2382
  528MOL0     H72803   8.765  10.083   8.900 -1.6356 -1.4398 -3.4408
  528MOL0     H72804   8.599  10.137   8.879  1.2755  0.1792  0.2664
  528MOL0     H72805   8.583  10.163   9.120 -0.2554 -0.5409 -2.0458
  528MOL0     H72806   8.715  10.265   9.046  2.3975 -0.0139  0.2683
  528MOL0     H72807   8.769  10.181   9.250  1.4902  2.1876 -2.2862
  528MOL0     H72808   8.771  10.006   9.199 -1.9902 -0.6692 -1.4903
  528MOL0     H72809   8.948  10.254   9.111  0.5976  0.2160  1.0234
  528MOL0     H72810   8.941  10.100   9.027  1.1901 -1.4603  0.2385
  528MOL0     H72811   8.997   9.990   9.249 -0.4391 -0.1568 -0.7058
  528MOL0     H72812   9.118  10.088   9.178 -0.5100  1.8089 -2.4592
  528MOL0     H72813   8.874  10.074   9.475  0.5835 -1.9067  1.4424
  528MOL0     H72814   8.846  10.187   9.700 -1.3372  1.8249 -0.3363
  528MOL0     H72815   8.888  10.361   9.693 -1.4585 -0.2359 -0.5678
  528MOL0     H72816   9.051  10.127   9.807 -0.7345 -0.2406  0.9879
  528MOL0     H72817   9.121  10.282   9.791  1.7261 -1.6685  1.0785
  528MOL0     H72818   8.948  10.394   9.919 -0.8531  0.2622  1.6566
  528MOL0     H72819   8.870  10.239   9.958  0.6992 -0.3044  0.1228
  528MOL0     H72820   9.074  10.155  10.064 -0.6323 -0.1201 -3.0722
  528MOL0     H72821   9.147  10.320  10.044  2.5381 -1.6760  2.4626
  528MOL0     H72822   9.254  10.289  10.241 -0.8035 -1.4317 -0.6896
  528MOL0     H72823   9.412  10.291  10.386 -1.4399  0.3566 -0.5553
  528MOL0     H72824   9.400  10.375  10.538  3.3960  1.9750 -0.5125
  528MOL0     H72825   9.456  10.460  10.399 -1.1495  0.9282 -0.7700
  528MOL0     H72826   8.941  10.650  10.852 -0.4228  0.0459  0.7754
  528MOL0     H72827   8.951  10.744  11.090 -2.4177  2.3967 -3.6686
  528MOL0     H72828   9.025  10.927  11.227 -0.0808 -1.4757 -2.8294
  528MOL0     H72829   9.010  10.765  11.303  1.9681 -2.0207 -1.1516
  528MOL0     H72830   9.207  10.981  11.424 -0.9963  0.9723 -0.5487
  528MOL0     H72831   9.037  10.996  11.443 -2.0068 -1.8328 -2.2658
  528MOL0     H72832   9.174  10.865  11.637 -2.9061 -0.6968  1.6739
  528MOL0     H72833   9.178  10.723  11.530 -2.5390 -1.6347  1.8094
  528MOL0     H72834   8.911  10.770  11.510 -0.8430  1.3941 -0.7141
  528MOL0     H72835   8.947  10.888  11.627  3.0026  1.8991 -1.9502
  528MOL0     H72836   8.947  10.588  11.639 -2.1481  0.0696  3.0673
  528MOL0     H72837   9.044  10.676  11.765 -0.5901 -0.2738  2.4160
  528MOL0     H72838   8.826  10.794  11.818  0.2243  0.8768 -0.6600
  528MOL0     H72839   8.836  10.627  11.860  0.1533  0.3209 -0.8808
  528MOL0     H72840   8.719  10.555  11.642 -2.7851 -1.9460  3.1403
  528MOL0     H72841   8.703  10.727  11.591  0.9193  3.0822  1.8293
  528MOL0     H72842   8.564  10.790  11.757 -1.6623 -0.9491  2.7246
  528MOL0     H72843   8.576  10.645  11.842 -2.1967 -0.5021  1.3266
  528MOL0     H72844   9.380  10.721  11.076 -0.2182  0.1677  0.9916
  528MOL0     H72845   9.372  10.643  10.846  1.0357  0.9779  0.2464
  528MOL0     H72846   8.977  10.577  10.524  1.7823  1.0572  0.7145
  528MOL0     H72847   8.862  10.450  10.348  0.7164 -0.3877  0.0120
  528MOL0     H72848   9.001   9.627   8.873 -3.8398 -0.2654 -1.1383
  528MOL0     H72849   9.201   9.588   8.728  0.2167 -0.1910 -0.9160
  528MOL0     H72850   9.449   9.701   8.367  1.6188  0.0676  1.5725
  528MOL0     H72851   9.610   9.676   8.189 -0.7958  0.1073 -0.5463
  528MOL0     H72852   9.753   9.622   8.036  0.2508  0.0127 -0.6006
  528MOL0     H72853   9.854   9.545   8.155  0.9925 -3.3339 -0.9231
  528MOL0     H72854   9.801   9.434   7.872 -2.6189  0.7269  1.4569
  528MOL0     H72855   9.933   9.383   7.985 -2.4639 -2.3516 -1.7980
  528MOL0     H72856   9.893   9.639   7.823  1.3945  0.3813 -1.7999
  528MOL0     H72857   9.992   9.644   7.968 -1.7455  1.6803 -1.9643
  528MOL0     H72858  10.047   9.453   7.733 -1.3076  0.9498 -0.1407
  528MOL0     H72859  10.145   9.481   7.875 -0.2963  1.0513  1.4341
  528MOL0     H72860  10.244   9.817   7.630  0.5414  0.6723  1.0105
  528MOL0     H72861   9.555   9.252   8.208 -0.4496  0.6183  0.8287
  528MOL0     H72862   9.338   9.222   8.472  1.5948  0.8273 -0.0718
  528MOL0     H72863   9.251   9.223   8.313  0.6557 -2.1389 -2.2446
  528MOL0     H72864   9.401   9.155   8.324 -1.2823 -0.0843 -1.6970
  529MOL0     O72865   3.460   1.368  10.495  0.0178  0.6080  0.0917
  529MOL0     C72866   3.430   1.269  10.430  0.6731 -0.2879  0.0256
  529MOL0     O72867   3.503   1.157  10.425 -0.0165  0.7295 -0.7890
  529MOL0     C72868   3.612   1.154  10.515  0.2028 -1.0001 -0.3261
  529MOL0     C72869   3.731   1.211  10.475  0.3600  0.7798  0.1179
  529MOL0     C72870   3.841   1.204  10.553  0.3286 -0.2176 -1.0053
  529MOL0     C72871   3.845   1.148  10.679 -0.1443 -0.1527 -0.7724
  529MOL0     O72872   3.959   1.155  10.763  0.0166 -0.0373  0.2604
  529MOL0     C72873   3.985   1.070  10.872 -0.5455  0.6173  0.6533
  529MOL0     C72874   4.135   1.058  10.898 -0.2482 -0.6042  0.9949
  529MOL0     C72875   4.184   1.209  10.902 -0.1162 -0.2250  0.1749
  529MOL0     C72876   4.341   1.222  10.902  0.5232  0.5879 -0.0902
  529MOL0     C72877   4.382   1.366  10.884  0.0115 -0.3192  0.2685
  529MOL0     C72878   4.527   1.390  10.904  0.0274  0.7761 -0.0953
  529MOL0     C72879   4.562   1.526  10.831  0.1437 -1.0906 -0.5666
  529MOL0     C72880   4.701   1.558  10.879  0.6186 -0.0628  0.3902
  529MOL0     N72881   4.738   1.678  10.804 -0.3771 -0.5906 -0.3758
  529MOL0     C72882   4.764   1.685  10.668 -0.3899 -0.2234 -0.6389
  529MOL0     C72883   4.809   1.813  10.638  0.5297 -0.1990  0.3429
  529MOL0     C72884   4.846   1.860  10.502 -0.1744 -0.4221  0.1114
  529MOL0     C72885   4.782   1.991  10.464 -0.2651 -0.2170  0.6203
  529MOL0     C72886   4.747   1.992  10.318  0.3622  0.2904 -0.0846
  529MOL0     C72887   4.862   2.009  10.225 -0.4004  0.5222 -0.0400
  529MOL0     O72888   4.808   2.023  10.092  0.1322 -0.2792 -0.1637
  529MOL0     C72889   4.890   2.032   9.983  0.4506  0.7625  0.6346
  529MOL0     C72890   5.027   2.041   9.993 -0.3005  0.0735  0.8070
  529MOL0     C72891   5.097   2.074   9.873  0.1917  0.9114  0.4710
  529MOL0     C72892   5.244   2.095   9.891 -0.0747  0.8409  0.2743
  529MOL0     C72893   5.026   2.091   9.752 -0.8379  0.4418 -0.0679
  529MOL0     C72894   5.091   2.145   9.629 -0.5182 -0.2954  0.5409
  529MOL0     O72895   5.005   2.169   9.521  0.6797 -0.0581 -0.9171
  529MOL0     C72896   5.058   2.227   9.408 -0.2041 -1.0444  0.3630
  529MOL0     C72897   5.143   2.333   9.406 -0.3601 -0.6843 -0.2567
  529MOL0     C72898   5.214   2.370   9.293  0.0481  0.7060 -0.2846
  529MOL0     C72899   5.197   2.289   9.176 -0.1591  0.0966  0.4828
  529MOL0     O72900   5.272   2.336   9.066  0.7086 -0.2550 -0.6774
  529MOL0     C72901   5.321   2.231   8.975  0.4943  0.3843 -0.5548
  529MOL0     C72902   5.454   2.280   8.920  0.7375 -0.2536  0.5728
  529MOL0     C72903   5.427   2.404   8.835 -0.7975  0.3880 -0.4915
  529MOL0     C72904   5.523   2.411   8.708 -0.2234  0.2391  0.2492
  529MOL0     C72905   5.481   2.524   8.616 -0.5204  0.1083 -0.4834
  529MOL0     C72906   5.523   2.661   8.675  0.2067 -0.3147 -0.4210
  529MOL0     C72907   5.427   2.768   8.621  0.6336  0.1352  0.4546
  529MOL0     C72908   5.487   2.908   8.634  0.0928 -0.1267 -0.7071
  529MOL0    Cl72909   5.611   2.943   8.519 -0.2660  0.5474 -0.4298
  529MOL0     C72910   5.101   2.180   9.172 -0.5543  0.1374  0.3855
  529MOL0     C72911   5.040   2.158   9.294 -0.9087  0.4137  0.6510
  529MOL0     O72912   5.212   2.175   9.622  0.6137  0.3305 -0.2115
  529MOL0     C72913   4.892   2.056   9.747 -0.4671  0.0146  0.0852
  529MOL0     C72914   4.818   2.033   9.863  0.5307 -0.3613  0.3966
  529MOL0     N72915   4.802   1.883  10.760 -0.1533  0.4772 -0.5760
  529MOL0     N72916   4.775   1.796  10.854  0.5663 -0.4032 -0.4365
  529MOL0     C72917   3.723   1.084  10.721  1.0600  0.3159 -0.6891
  529MOL0     C72918   3.609   1.092  10.643 -0.3675  0.5317  0.5499
  529MOL0     C72919   3.299   1.275  10.357  0.3735  0.4516  0.1433
  529MOL0     C72920   3.269   1.169  10.267 -0.3580 -0.8418 -0.5250
  529MOL0     C72921   3.157   1.187  10.180 -0.5561  1.6583 -0.3567
  529MOL0     C72922   3.063   1.288  10.190  0.1626 -0.4641 -0.6248
  529MOL0     O72923   2.945   1.310  10.120  0.3924 -0.0252 -0.3581
  529MOL0     C72924   2.936   1.249   9.992  1.1583  1.1609 -0.1065
  529MOL0     C72925   2.791   1.264   9.942  0.0466  0.3259  0.0489
  529MOL0     C72926   2.684   1.193  10.026 -0.4049  0.4211  0.0231
  529MOL0     C72927   2.652   1.265  10.157 -0.2403 -0.5805 -0.4221
  529MOL0     C72928   2.551   1.199  10.239  0.4391 -0.0415  0.1033
  529MOL0     C72929   2.486   1.149  10.335  0.0221 -0.6547  0.1397
  529MOL0     C72930   3.084   1.383  10.290  0.1148  0.2069  0.5464
  529MOL0     C72931   3.201   1.375  10.375  0.9400 -0.3773 -0.2836
  529MOL0     C72932   3.201   1.479  10.485 -0.0060  0.4374  0.4894
  529MOL0     H72933   3.746   1.258  10.379 -1.6449 -1.4659 -1.4121
  529MOL0     H72934   3.932   1.253  10.519  0.2807  2.4141  2.1926
  529MOL0     H72935   3.949   0.969  10.850  1.7714 -0.3957  1.1497
  529MOL0     H72936   3.945   1.115  10.963  1.8009  1.1996  1.4619
  529MOL0     H72937   4.170   1.000  10.984  0.8196  0.3704  1.2480
  529MOL0     H72938   4.187   1.005  10.817 -0.0579 -2.2947  2.1650
  529MOL0     H72939   4.153   1.258  10.810  1.9327 -3.2620 -2.3448
  529MOL0     H72940   4.139   1.253  10.991 -1.2825  1.5577 -1.2313
  529MOL0     H72941   4.374   1.184  11.000 -1.0540  3.2273  1.6028
  529MOL0     H72942   4.396   1.166  10.826  1.0197  2.3077 -1.0401
  529MOL0     H72943   4.330   1.431  10.956 -0.0130 -2.4781  2.2933
  529MOL0     H72944   4.354   1.388  10.780  0.4041 -2.0569 -0.2271
  529MOL0     H72945   4.561   1.395  11.008  1.4550 -2.2994 -0.2757
  529MOL0     H72946   4.590   1.311  10.861  0.4303  1.0294  0.0278
  529MOL0     H72947   4.488   1.603  10.855  0.8135  1.1455 -4.6443
  529MOL0     H72948   4.547   1.510  10.724 -4.2932  0.1683 -0.3155
  529MOL0     H72949   4.697   1.581  10.986 -0.8120  0.5166  0.2444
  529MOL0     H72950   4.771   1.476  10.860  1.7463  1.2029 -1.1569
  529MOL0     H72951   4.752   1.603  10.598 -2.0862 -0.2594 -0.3440
  529MOL0     H72952   4.812   1.776  10.441 -5.1908  0.8806  0.7087
  529MOL0     H72953   4.954   1.870  10.487 -0.5140  1.6352 -1.3251
  529MOL0     H72954   4.700   2.023  10.528 -0.1082 -2.0387  1.7988
  529MOL0     H72955   4.853   2.070  10.492 -2.0617  1.3749  0.8767
  529MOL0     H72956   4.693   1.903  10.286  2.2171 -1.4300  1.2904
  529MOL0     H72957   4.674   2.071  10.302 -0.4819 -0.7287 -1.4276
  529MOL0     H72958   4.919   2.101  10.238 -0.1170  0.4283 -0.5721
  529MOL0     H72959   4.921   1.918  10.226  0.2970  0.9757  0.9106
  529MOL0     H72960   5.081   2.025  10.086 -1.1270  0.3172  1.3346
  529MOL0     H72961   5.272   2.200   9.885  2.5340  0.1947  0.0226
  529MOL0     H72962   5.307   2.048   9.816 -1.8634  1.1551 -1.5132
  529MOL0     H72963   5.271   2.058   9.991 -3.3111  2.1916  1.8100
  529MOL0     H72964   5.164   2.388   9.497  1.6127  1.3519 -1.7981
  529MOL0     H72965   5.279   2.456   9.289  0.9498  0.0911  0.5551
  529MOL0     H72966   5.332   2.135   9.027 -0.0624  0.4002 -0.3987
  529MOL0     H72967   5.242   2.215   8.900  0.1162  1.0108 -0.2945
  529MOL0     H72968   5.526   2.305   8.998  0.7824  1.1020  0.1225
  529MOL0     H72969   5.492   2.196   8.861  1.5095 -1.9207  3.2543
  529MOL0     H72970   5.433   2.493   8.897  0.4412 -0.2691  0.3803
  529MOL0     H72971   5.328   2.398   8.787  0.4888 -2.7860 -3.1283
  529MOL0     H72972   5.505   2.318   8.653  2.1499 -0.4838  0.5733
  529MOL0     H72973   5.627   2.423   8.739 -0.3860  0.6786  0.6413
  529MOL0     H72974   5.543   2.512   8.527  0.6189  0.4964  0.2408
  529MOL0     H72975   5.378   2.518   8.579 -0.2042  1.5579 -1.6924
  529MOL0     H72976   5.628   2.686   8.656 -0.3450  1.3224 -1.5511
  529MOL0     H72977   5.514   2.657   8.784  1.9643 -0.6014 -0.2595
  529MOL0     H72978   5.336   2.764   8.681 -1.7898  3.0211 -2.6629
  529MOL0     H72979   5.401   2.740   8.519 -1.6857 -2.5040  1.6146
  529MOL0     H72980   5.518   2.920   8.739 -2.1374 -5.2988  0.8671
  529MOL0     H72981   5.416   2.989   8.616 -1.3668 -0.6522  2.0601
  529MOL0     H72982   5.074   2.131   9.079 -1.4321  1.0093  0.1521
  529MOL0     H72983   4.965   2.079   9.301 -0.9639  0.4645  0.6409
  529MOL0     H72984   4.838   2.049   9.654 -0.1827  2.0589 -0.2687
  529MOL0     H72985   4.712   2.011   9.863  0.6368 -0.9761  1.5967
  529MOL0     H72986   3.730   1.042  10.821 -0.2565  1.5335 -0.0627
  529MOL0     H72987   3.519   1.042  10.678  0.0912 -1.1427 -0.5515
  529MOL0     H72988   3.350   1.098  10.255  1.1443  0.7197 -0.1719
  529MOL0     H72989   3.154   1.115  10.098 -0.0096  0.3607  0.7235
  529MOL0     H72990   3.001   1.305   9.924  1.1028  2.0255  0.5260
  529MOL0     H72991   2.976   1.148   9.997 -2.7835 -0.6254 -1.1969
  529MOL0     H72992   2.789   1.218   9.843 -0.2128 -1.4207  0.8235
  529MOL0     H72993   2.759   1.367   9.924  1.1151  0.3368 -2.0372
  529MOL0     H72994   2.595   1.173   9.966 -0.5159 -0.7800  0.5526
  529MOL0     H72995   2.721   1.100  10.069  0.6887  1.8139  2.3205
  529MOL0     H72996   2.620   1.365  10.128 -2.5283 -1.3962 -0.9921
  529MOL0     H72997   2.736   1.272  10.226 -2.4631  0.6567  2.3833
  529MOL0     H72998   2.426   1.107  10.413 -1.2814  0.5669 -0.1712
  529MOL0     H72999   2.999   1.449  10.303  1.1076  1.6698 -0.1332
  529MOL0     H73000   3.097   1.491  10.515 -1.1789  2.3037 -3.5799
  529MOL0     H73001   3.252   1.448  10.577 -0.0231  1.4549  0.8561
  529MOL0     H73002   3.247   1.573  10.452  1.3424  0.0290  1.0993
  530MOL0     O73003   1.852   8.786   2.921  0.2260  0.8177 -0.4794
  530MOL0     C73004   1.765   8.727   2.860  0.2839  0.2629 -0.8927
  530MOL0     O73005   1.725   8.757   2.734 -0.0961  0.6092 -0.0668
  530MOL0     C73006   1.782   8.876   2.687  0.1001  0.6716  0.0652
  530MOL0     C73007   1.754   8.999   2.746 -0.8256  0.0955 -0.6517
  530MOL0     C73008   1.800   9.114   2.683  0.9806  0.0928  0.2977
  530MOL0     C73009   1.884   9.110   2.571  0.5174 -0.4144 -0.4600
  530MOL0     O73010   1.944   9.219   2.530  0.4575 -0.4193  0.6377
  530MOL0     C73011   1.953   9.338   2.611  0.4989  0.5648 -0.0315
  530MOL0     C73012   2.024   9.459   2.532 -0.7445  0.8468  0.6337
  530MOL0     C73013   2.157   9.411   2.486 -0.1266  0.7711  0.6992
  530MOL0     C73014   2.240   9.514   2.403 -0.4329 -0.5951  0.1168
  530MOL0     C73015   2.379   9.465   2.365 -0.3011 -0.1092 -0.3026
  530MOL0     C73016   2.444   9.583   2.288  0.2975 -0.0908  0.3077
  530MOL0     C73017   2.507   9.690   2.371  0.0148 -0.2781  0.6460
  530MOL0     C73018   2.584   9.803   2.299 -0.4739  0.7866 -0.2430
  530MOL0     N73019   2.712   9.754   2.246 -0.4347 -0.6609  0.6813
  530MOL0     C73020   2.821   9.711   2.313 -0.1756 -0.8621 -0.4818
  530MOL0     C73021   2.924   9.705   2.228 -0.4320 -0.0009  0.7732
  530MOL0     C73022   3.061   9.666   2.278  0.0433  0.4192 -0.4308
  530MOL0     C73023   3.159   9.652   2.169 -0.4100 -0.2991  0.2964
  530MOL0     C73024   3.296   9.596   2.215 -0.0117  0.0022  0.1049
  530MOL0     C73025   3.352   9.678   2.333  0.2610  0.0769 -0.1224
  530MOL0     O73026   3.374   9.819   2.304 -0.8225  0.0279  0.0169
  530MOL0     C73027   3.499   9.851   2.248  0.1478  0.3561  0.3877
  530MOL0     C73028   3.523   9.845   2.105 -0.3575 -0.5123  0.6957
  530MOL0     C73029   3.644   9.885   2.047  0.1248 -0.5106 -0.2383
  530MOL0     C73030   3.651   9.880   1.899  0.3551 -0.1170 -0.1971
  530MOL0     C73031   3.748   9.927   2.133  0.2799 -1.0657  0.2163
  530MOL0     C73032   3.882   9.987   2.084  0.9216 -0.5000 -0.1817
  530MOL0     O73033   3.889  10.030   1.952 -0.1409 -0.0852  0.3778
  530MOL0     C73034   4.004  10.083   1.909  0.4133  0.2456  0.8657
  530MOL0     C73035   4.073  10.181   1.978  0.0654 -0.8013  0.0811
  530MOL0     C73036   4.198  10.231   1.922  0.7886  0.4805 -1.1363
  530MOL0     C73037   4.235  10.187   1.796  0.0811  0.2448 -0.2456
  530MOL0     O73038   4.363  10.200   1.750 -0.5755  0.0749  0.0607
  530MOL0     C73039   4.386  10.300   1.655 -0.4867  0.0179  0.5919
  530MOL0     C73040   4.533  10.337   1.657  0.0116  0.0044  0.2713
  530MOL0     C73041   4.582  10.403   1.529  0.2125 -0.2636  1.0756
  530MOL0     C73042   4.712  10.491   1.538 -0.8796 -0.2190 -0.2194
  530MOL0     C73043   4.840  10.419   1.582 -1.2591  0.5966 -0.6839
  530MOL0     C73044   4.977  10.497   1.549  0.3950 -0.5412 -0.6214
  530MOL0     C73045   5.091  10.396   1.572 -0.3820 -0.4919  0.3117
  530MOL0     C73046   5.221  10.463   1.527 -0.4865 -0.2739 -0.0866
  530MOL0    Cl73047   5.362  10.342   1.543  0.4714  0.6841 -0.1754
  530MOL0     C73048   4.148  10.102   1.723 -0.5358  0.0930  0.3466
  530MOL0     C73049   4.039  10.050   1.780 -0.2857  0.2009  0.4140
  530MOL0     O73050   3.970  10.007   2.169 -0.2191  0.0536  0.9772
  530MOL0     C73051   3.730   9.926   2.267  1.1433 -0.0348 -0.4131
  530MOL0     C73052   3.601   9.894   2.321 -1.2448  0.1692 -0.3974
  530MOL0     N73053   2.886   9.753   2.102 -0.1963 -0.1523 -0.0147
  530MOL0     N73054   2.754   9.783   2.117 -1.1418 -0.5562  0.1969
  530MOL0     C73055   1.916   8.989   2.517 -1.4783  0.7773  0.5720
  530MOL0     C73056   1.868   8.872   2.576  0.3564 -0.6518 -0.7156
  530MOL0     C73057   1.700   8.609   2.925  0.3682 -0.6315 -0.4296
  530MOL0     C73058   1.601   8.540   2.851  1.2409  0.3429  0.5164
  530MOL0     C73059   1.556   8.414   2.896 -0.5418  0.4070  1.2447
  530MOL0     C73060   1.596   8.359   3.017  0.5498 -0.7142  0.5278
  530MOL0     O73061   1.539   8.238   3.057  0.0654 -0.9168 -0.2692
  530MOL0     C73062   1.630   8.142   3.097 -0.2734 -0.3977  0.1773
  530MOL0     C73063   1.572   8.009   3.136  0.2850  1.1359  0.4009
  530MOL0     C73064   1.516   8.009   3.276 -0.8347  0.3239  0.3227
  530MOL0     C73065   1.481   7.861   3.320  0.2853  0.5823 -0.3929
  530MOL0     C73066   1.389   7.870   3.441  0.2526  0.2888  0.7791
  530MOL0     C73067   1.316   7.860   3.534  0.1342  0.8263 -0.0449
  530MOL0     C73068   1.687   8.434   3.094  0.2825  1.1822  0.2055
  530MOL0     C73069   1.742   8.558   3.054  0.7054  0.1383 -1.3306
  530MOL0     C73070   1.850   8.620   3.143 -0.2089 -0.1603 -0.8983
  530MOL0     H73071   1.701   9.015   2.839 -0.9358  0.2717 -0.7439
  530MOL0     H73072   1.790   9.210   2.732  3.2128  0.6997 -0.3165
  530MOL0     H73073   1.995   9.315   2.709  0.2688  2.2107  0.4827
  530MOL0     H73074   1.848   9.369   2.616 -0.0593 -1.3178  0.6954
  530MOL0     H73075   1.971   9.480   2.439 -1.4714  1.0789  1.0880
  530MOL0     H73076   2.030   9.547   2.596  1.0683  0.3523  1.2070
  530MOL0     H73077   2.212   9.381   2.576 -2.7342 -0.4239  2.0311
  530MOL0     H73078   2.154   9.327   2.416 -3.8313  1.1088  0.2190
  530MOL0     H73079   2.172   9.535   2.319 -0.8868  1.5162  0.9415
  530MOL0     H73080   2.240   9.610   2.456 -3.0164  0.5490 -1.7012
  530MOL0     H73081   2.357   9.377   2.303 -0.3944 -0.7702  0.6495
  530MOL0     H73082   2.426   9.427   2.456 -0.0401 -2.5886 -1.3859
  530MOL0     H73083   2.527   9.541   2.230 -1.6325 -2.5435 -0.8810
  530MOL0     H73084   2.368   9.618   2.218  1.5176 -1.7328 -1.9711
  530MOL0     H73085   2.569   9.630   2.439  1.4430 -1.0209 -1.2073
  530MOL0     H73086   2.422   9.736   2.422 -0.9733 -0.2854 -0.9171
  530MOL0     H73087   2.521   9.839   2.218 -2.0762 -2.6347 -0.7206
  530MOL0     H73088   2.615   9.889   2.359 -0.4185 -0.0804  1.0078
  530MOL0     H73089   2.826   9.694   2.420 -0.7853  2.3628  0.1633
  530MOL0     H73090   3.042   9.571   2.328 -0.9991  1.2799  0.8824
  530MOL0     H73091   3.094   9.743   2.348  1.3384 -1.4273  1.0835
  530MOL0     H73092   3.123   9.572   2.105 -1.1209 -1.2917  1.8735
  530MOL0     H73093   3.169   9.736   2.100  1.9008 -2.1957 -1.9144
  530MOL0     H73094   3.289   9.494   2.253 -1.4659 -0.3406 -0.9814
  530MOL0     H73095   3.366   9.603   2.131  1.7631  2.1588  1.6378
  530MOL0     H73096   3.293   9.660   2.424  1.8141 -5.0369  0.1907
  530MOL0     H73097   3.446   9.636   2.369  0.6804  1.5779  0.6427
  530MOL0     H73098   3.437   9.828   2.040  1.0224  1.8588 -2.0363
  530MOL0     H73099   3.559   9.843   1.853  0.4115  0.9219 -1.1777
  530MOL0     H73100   3.732   9.811   1.875  1.0614 -0.4169  2.7120
  530MOL0     H73101   3.668   9.983   1.867 -1.9507  0.8215  1.3509
  530MOL0     H73102   4.043  10.208   2.078 -1.3566 -1.4209 -0.1631
  530MOL0     H73103   4.276  10.279   1.980 -0.4895 -0.1791  1.2371
  530MOL0     H73104   4.369  10.260   1.555 -1.0620  1.4859  0.0775
  530MOL0     H73105   4.315  10.383   1.664  0.0628  0.5566 -0.0000
  530MOL0     H73106   4.539  10.408   1.740 -0.0250 -0.6722  0.8680
  530MOL0     H73107   4.595  10.250   1.680  0.8199  1.0254  2.2298
  530MOL0     H73108   4.506  10.475   1.496 -0.1225 -0.0564  2.2315
  530MOL0     H73109   4.596  10.325   1.454 -1.3261  1.6544 -1.3395
  530MOL0     H73110   4.685  10.562   1.617 -0.0189 -0.3591  0.2148
  530MOL0     H73111   4.729  10.544   1.444 -0.7924  0.3348  0.1100
  530MOL0     H73112   4.837  10.403   1.690  2.9611  3.0692  0.0320
  530MOL0     H73113   4.845  10.324   1.526  1.9142  0.0849  0.2455
  530MOL0     H73114   4.983  10.583   1.616 -0.5277 -0.1439 -1.0360
  530MOL0     H73115   4.969  10.542   1.449 -3.7834 -0.2527 -0.3110
  530MOL0     H73116   5.070  10.300   1.524 -2.0040  0.2104 -0.4576
  530MOL0     H73117   5.102  10.374   1.679  0.8752 -1.1687  0.0711
  530MOL0     H73118   5.242  10.553   1.585  0.2571 -1.0352  0.8689
  530MOL0     H73119   5.194  10.487   1.424 -0.5230 -0.2951 -0.0818
  530MOL0     H73120   4.164  10.076   1.619 -1.2332 -2.3788  0.8105
  530MOL0     H73121   3.975   9.986   1.720 -0.8098  1.7833 -0.7848
  530MOL0     H73122   3.808   9.938   2.341  1.5130  0.5853 -0.8869
  530MOL0     H73123   3.582   9.909   2.427  1.3307 -1.0195  0.3229
  530MOL0     H73124   1.979   8.991   2.429 -0.9604  1.1026  0.9499
  530MOL0     H73125   1.894   8.777   2.529  1.9154 -0.3016 -0.6268
  530MOL0     H73126   1.563   8.566   2.752 -0.5416  0.2588  1.1452
  530MOL0     H73127   1.496   8.356   2.827  0.9287 -0.0859  0.3259
  530MOL0     H73128   1.701   8.125   3.016 -1.4380 -0.0674 -0.9358
  530MOL0     H73129   1.685   8.192   3.177  0.0810 -0.9779  0.3011
  530MOL0     H73130   1.650   7.933   3.130 -0.5652  0.3747 -2.1510
  530MOL0     H73131   1.497   7.975   3.064 -2.0253  3.0749  1.7566
  530MOL0     H73132   1.584   8.066   3.339 -1.4498  2.4821 -0.8881
  530MOL0     H73133   1.419   8.059   3.277  0.0583  2.1252  0.3787
  530MOL0     H73134   1.574   7.816   3.356  0.4347  1.0437 -0.1987
  530MOL0     H73135   1.431   7.802   3.243  0.1940 -1.1302  0.9104
  530MOL0     H73136   1.247   7.833   3.611  1.8944 -1.3165  0.8847
  530MOL0     H73137   1.698   8.390   3.192 -1.9538  1.2011  0.5234
  530MOL0     H73138   1.939   8.653   3.089 -0.2163  1.0674 -0.1946
  530MOL0     H73139   1.808   8.696   3.208  1.9588 -0.3024  0.8022
  530MOL0     H73140   1.885   8.543   3.212 -0.4370  1.1295  0.7057
  531MOL0     O73141   6.356   1.168   8.852 -0.7035 -0.0694 -0.3708
  531MOL0     C73142   6.263   1.203   8.791  1.3715 -0.0031 -0.5881
  531MOL0     O73143   6.268   1.287   8.677 -0.0115 -0.3859 -0.6440
  531MOL0     C73144   6.393   1.325   8.628  0.7389 -0.2176  0.5854
  531MOL0     C73145   6.474   1.423   8.686 -0.3317  0.5719  0.7354
  531MOL0     C73146   6.597   1.463   8.627  0.4476  0.1038 -0.1960
  531MOL0     C73147   6.635   1.408   8.504  0.4543  1.1963 -0.4681
  531MOL0     O73148   6.751   1.420   8.443 -0.2815 -0.0687  0.2798
  531MOL0     C73149   6.868   1.480   8.515  0.1133  0.7131  0.3542
  531MOL0     C73150   6.992   1.482   8.426 -0.0380  0.0236  0.7298
  531MOL0     C73151   7.104   1.582   8.478  1.2034  0.2125  0.4421
  531MOL0     C73152   7.247   1.523   8.453 -0.0400  0.0668  0.5953
  531MOL0     C73153   7.338   1.640   8.432  0.1093  0.2688 -0.4189
  531MOL0     C73154   7.470   1.579   8.382  0.1588 -0.2711  0.4136
  531MOL0     C73155   7.574   1.690   8.364 -0.9419  0.4877  0.7128
  531MOL0     C73156   7.704   1.624   8.308  0.1792 -0.0028 -0.7489
  531MOL0     N73157   7.762   1.521   8.400 -0.2196 -0.5244 -0.3778
  531MOL0     C73158   7.840   1.562   8.507  0.5540 -1.0842  0.3966
  531MOL0     C73159   7.928   1.465   8.518  0.2960  0.5234 -0.2676
  531MOL0     C73160   8.028   1.438   8.623  0.6524  0.5469 -0.2380
  531MOL0     C73161   8.131   1.554   8.620 -0.0683 -0.4451 -0.7286
  531MOL0     C73162   8.192   1.575   8.480 -0.5766  0.4730  0.6824
  531MOL0     C73163   8.264   1.450   8.413 -0.8328 -0.1889 -0.7736
  531MOL0     O73164   8.359   1.397   8.507 -0.0859 -0.0017  0.9025
  531MOL0     C73165   8.495   1.383   8.474  0.1241 -0.9316  0.3939
  531MOL0     C73166   8.554   1.268   8.517 -0.5418  0.3948  0.5640
  531MOL0     C73167   8.690   1.240   8.485  0.2898 -0.5834 -0.4353
  531MOL0     C73168   8.747   1.111   8.539 -0.6335  0.6323 -0.8501
  531MOL0     C73169   8.771   1.332   8.417  0.8000 -0.4349  0.9665
  531MOL0     C73170   8.908   1.306   8.388 -0.7047 -1.0963 -0.2535
  531MOL0     O73171   8.961   1.181   8.398  0.1500  0.6157 -0.3039
  531MOL0     C73172   9.092   1.158   8.399  0.5493 -0.0448 -0.0243
  531MOL0     C73173   9.166   1.173   8.516  0.1367 -0.2259  0.5835
  531MOL0     C73174   9.304   1.148   8.516 -0.0328 -0.0140  0.1187
  531MOL0     C73175   9.376   1.119   8.399  0.7945  0.4869  0.1309
  531MOL0     O73176   9.517   1.099   8.391  0.0766 -0.1998 -0.4186
  531MOL0     C73177   9.592   1.216   8.438 -1.4931 -0.0095  0.3147
  531MOL0     C73178   9.689   1.176   8.559 -0.2834 -0.6854  0.6805
  531MOL0     C73179   9.786   1.065   8.515 -0.3789 -0.4035  0.5174
  531MOL0     C73180   9.862   1.019   8.638 -0.5599 -0.1325  0.3770
  531MOL0     C73181   9.889   0.868   8.623  0.4122 -0.3380  0.0117
  531MOL0     C73182   9.941   0.811   8.750 -0.6432  0.6055 -0.5394
  531MOL0     C73183   9.979   0.664   8.729  0.4011 -0.7027 -0.0077
  531MOL0     C73184  10.029   0.601   8.857 -0.7491 -0.0372  0.2143
  531MOL0    Cl73185  10.065   0.423   8.835 -0.1030 -0.0637 -0.0501
  531MOL0     C73186   9.305   1.113   8.279  0.7021 -0.0605 -0.8262
  531MOL0     C73187   9.165   1.131   8.279  0.1545 -0.0378  0.1641
  531MOL0     O73188   8.975   1.400   8.339 -0.0896  0.2188 -0.1500
  531MOL0     C73189   8.703   1.444   8.367  0.2271  0.3572 -0.3863
  531MOL0     C73190   8.569   1.473   8.402  0.5352  0.4084  0.5258
  531MOL0     N73191   7.888   1.368   8.428  0.7991  0.0745 -0.2837
  531MOL0     N73192   7.799   1.406   8.348 -0.8611 -0.2440  0.7096
  531MOL0     C73193   6.554   1.314   8.444  0.1875  0.0510 -0.1727
  531MOL0     C73194   6.435   1.272   8.503  0.1458  0.1228 -0.0434
  531MOL0     C73195   6.124   1.164   8.834  0.1965 -0.5356 -0.5507
  531MOL0     C73196   6.064   1.255   8.928  0.7538 -0.7505  0.7905
  531MOL0     C73197   5.936   1.227   8.971 -0.2877 -0.2342  0.2570
  531MOL0     C73198   5.867   1.120   8.921  0.0719  0.3988 -0.2903
  531MOL0     O73199   5.739   1.099   8.968 -0.3183  0.5915 -0.4366
  531MOL0     C73200   5.651   0.996   8.912  0.5971  0.4706  0.2372
  531MOL0     C73201   5.511   1.009   8.973  0.8766  0.8757 -0.4506
  531MOL0     C73202   5.405   0.935   8.885 -0.1960  0.4349  0.2441
  531MOL0     C73203   5.273   0.938   8.965 -0.2830  0.4566 -0.3663
  531MOL0     C73204   5.167   0.899   8.874  0.0749  0.9719 -0.5675
  531MOL0     C73205   5.076   0.853   8.810  0.1294  0.8959  0.1299
  531MOL0     C73206   5.921   1.036   8.826 -0.5750  0.6184  0.2909
  531MOL0     C73207   6.051   1.060   8.780 -0.0077 -0.0133  0.8026
  531MOL0     C73208   6.096   0.961   8.673 -0.4253 -0.2922  0.3266
  531MOL0     H73209   6.440   1.479   8.773  0.2595  5.0826 -1.6500
  531MOL0     H73210   6.650   1.537   8.685 -0.3464  0.0041  0.6796
  531MOL0     H73211   6.897   1.427   8.607 -0.2073 -3.6307 -1.8292
  531MOL0     H73212   6.835   1.578   8.550 -1.9478 -0.3564  1.5920
  531MOL0     H73213   7.039   1.383   8.426  2.1057  0.8608 -2.5478
  531MOL0     H73214   6.976   1.508   8.321  2.0357 -0.3209  0.2752
  531MOL0     H73215   7.091   1.676   8.425 -1.8281  0.1134  0.8276
  531MOL0     H73216   7.083   1.606   8.583 -0.7143  0.4049  0.0569
  531MOL0     H73217   7.284   1.460   8.534 -2.2503 -2.3971 -0.1573
  531MOL0     H73218   7.241   1.462   8.362 -1.0865  1.9462 -0.6793
  531MOL0     H73219   7.348   1.696   8.525  4.0832 -0.1675 -0.3880
  531MOL0     H73220   7.304   1.714   8.359 -1.0635 -0.3115 -0.4895
  531MOL0     H73221   7.505   1.498   8.448  0.7929  1.1764  1.9199
  531MOL0     H73222   7.452   1.538   8.282 -1.0898 -0.1779  0.5954
  531MOL0     H73223   7.596   1.731   8.463  0.4077 -3.7277  2.3851
  531MOL0     H73224   7.532   1.759   8.291 -0.1140  0.6649  0.3918
  531MOL0     H73225   7.685   1.589   8.206 -1.8863  1.9216 -1.1015
  531MOL0     H73226   7.785   1.698   8.303  0.7991 -0.5660  0.4551
  531MOL0     H73227   7.835   1.655   8.563 -4.6035 -1.8888  1.7576
  531MOL0     H73228   8.082   1.348   8.591  0.4412  0.4797 -0.4022
  531MOL0     H73229   7.983   1.418   8.721 -0.0290 -0.3595 -0.7277
  531MOL0     H73230   8.083   1.646   8.654  1.5410  0.3771 -0.5989
  531MOL0     H73231   8.209   1.542   8.696 -0.1443 -0.4809 -0.6562
  531MOL0     H73232   8.122   1.627   8.413 -0.1856  2.9322  2.0598
  531MOL0     H73233   8.270   1.649   8.498 -0.4585  0.9259 -1.3751
  531MOL0     H73234   8.192   1.369   8.396 -1.7709  0.2036  0.9613
  531MOL0     H73235   8.303   1.479   8.316  2.0210 -1.3522 -0.0628
  531MOL0     H73236   8.497   1.205   8.584  0.1540 -0.4962  0.3304
  531MOL0     H73237   8.668   1.059   8.595 -0.4353  1.4558  0.2348
  531MOL0     H73238   8.823   1.133   8.614  1.7585 -2.7710 -2.0019
  531MOL0     H73239   8.767   1.037   8.461 -3.8508  0.2887 -1.5182
  531MOL0     H73240   9.122   1.192   8.613 -2.5566  2.1660 -0.9713
  531MOL0     H73241   9.363   1.150   8.607 -2.1667  2.8297  1.5995
  531MOL0     H73242   9.651   1.245   8.350 -3.5201 -0.0875 -1.1409
  531MOL0     H73243   9.520   1.297   8.449 -1.6963  0.1379 -1.6602
  531MOL0     H73244   9.760   1.253   8.591  0.6976  0.0692 -2.8537
  531MOL0     H73245   9.627   1.141   8.642  1.2340  0.9671  2.6293
  531MOL0     H73246   9.855   1.103   8.439 -1.0278  3.8614  1.7931
  531MOL0     H73247   9.721   0.989   8.470 -1.2063  1.3007 -1.3050
  531MOL0     H73248   9.797   1.025   8.726  0.1915  0.6135  0.8967
  531MOL0     H73249   9.946   1.086   8.659 -1.5730  0.9994  0.9830
  531MOL0     H73250   9.803   0.807   8.595 -0.5151  0.0582  1.8833
  531MOL0     H73251   9.961   0.854   8.541 -1.1514 -2.6179 -1.0749
  531MOL0     H73252   9.866   0.818   8.830  0.6413  0.7395  0.6963
  531MOL0     H73253  10.024   0.868   8.795 -0.1193  0.0567 -0.7969
  531MOL0     H73254  10.058   0.648   8.655 -2.3572  1.0754 -3.6514
  531MOL0     H73255   9.890   0.604   8.708 -0.3673  1.1186 -2.4446
  531MOL0     H73256   9.946   0.606   8.927 -0.8853  1.0793 -0.0147
  531MOL0     H73257  10.117   0.654   8.895 -0.5953 -1.9295  2.7362
  531MOL0     H73258   9.363   1.103   8.189  1.8418 -0.3769 -0.0793
  531MOL0     H73259   9.105   1.122   8.189 -0.7839 -1.2829  0.8948
  531MOL0     H73260   8.755   1.519   8.309 -0.2707  0.1539 -1.1054
  531MOL0     H73261   8.512   1.560   8.370 -1.1143 -0.4304  1.0903
  531MOL0     H73262   6.588   1.255   8.360 -0.0182 -1.1202  0.5434
  531MOL0     H73263   6.375   1.189   8.467  1.3680 -0.9045  0.2056
  531MOL0     H73264   6.111   1.347   8.962 -0.1995  1.8912 -4.0263
  531MOL0     H73265   5.890   1.292   9.044 -0.5389  1.8865 -1.6775
  531MOL0     H73266   5.635   1.017   8.806  1.9178 -3.1150 -0.8355
  531MOL0     H73267   5.695   0.895   8.921 -0.3783 -0.0435 -0.6008
  531MOL0     H73268   5.480   1.113   8.965  0.8489  0.7848 -1.5814
  531MOL0     H73269   5.524   0.976   9.077  4.1317 -0.0775 -1.0325
  531MOL0     H73270   5.392   1.002   8.800  0.1697  0.4517  0.2017
  531MOL0     H73271   5.431   0.830   8.867 -1.1462 -0.0924  1.6937
  531MOL0     H73272   5.245   1.041   8.987 -1.5783  0.0977 -0.2091
  531MOL0     H73273   5.272   0.882   9.059 -2.1131 -1.3560 -1.3810
  531MOL0     H73274   5.002   0.792   8.762  1.5930  0.2072 -1.3470
  531MOL0     H73275   5.878   0.941   8.797 -0.0357  0.3063  0.5171
  531MOL0     H73276   6.108   0.861   8.714  1.5221 -0.0676  0.3667
  531MOL0     H73277   6.023   0.956   8.591 -0.5502 -1.0175  0.4760
  531MOL0     H73278   6.193   0.991   8.633 -1.3054  0.0881 -1.6800
  532MOL0     O73279   1.056  11.369   3.097 -0.3767 -0.2009 -0.0239
  532MOL0     C73280   0.939  11.351   3.127 -0.5613 -0.1636  0.2376
  532MOL0     O73281   0.858  11.263   3.073 -0.0709  0.1801 -0.0288
  532MOL0     C73282   0.907  11.193   2.964 -0.4269 -0.0287  0.1782
  532MOL0     C73283   0.832  11.184   2.839  0.3446  0.3156 -0.0958
  532MOL0     C73284   0.879  11.106   2.740  0.7831  0.9472  0.1049
  532MOL0     C73285   0.990  11.023   2.752 -0.6750  0.3837 -0.3259
  532MOL0     O73286   1.024  10.938   2.657 -0.0404  0.5219  0.4058
  532MOL0     C73287   0.917  10.869   2.594 -0.2044  0.3656  0.2746
  532MOL0     C73288   0.967  10.731   2.535 -0.6656 -0.8910  0.4721
  532MOL0     C73289   0.989  10.632   2.645  0.5428 -1.1778 -0.1823
  532MOL0     C73290   1.065  10.509   2.596  0.3429  0.6348  0.1195
  532MOL0     C73291   1.198  10.545   2.511  0.7225  0.3380 -0.0658
  532MOL0     C73292   1.299  10.429   2.502 -0.5145  0.5270  0.1917
  532MOL0     C73293   1.437  10.470   2.433 -0.3683 -0.2245 -0.5444
  532MOL0     C73294   1.505  10.592   2.507  0.1963 -0.4473 -0.3852
  532MOL0     N73295   1.643  10.582   2.494 -0.3236  0.0674 -0.6199
  532MOL0     C73296   1.713  10.657   2.401 -0.0991 -0.5846 -0.3689
  532MOL0     C73297   1.840  10.613   2.410 -0.5978 -0.1972  0.8567
  532MOL0     C73298   1.959  10.653   2.320  0.9441 -0.3433 -0.1086
  532MOL0     C73299   2.090  10.693   2.393  0.1082  0.9646  0.5682
  532MOL0     C73300   2.085  10.819   2.479 -1.4769 -0.1265  0.5889
  532MOL0     C73301   2.185  10.803   2.600  0.2968 -0.7267 -0.3795
  532MOL0     O73302   2.319  10.762   2.568  0.5653 -0.5570 -0.0902
  532MOL0     C73303   2.381  10.696   2.669  0.0642 -0.1592 -0.2704
  532MOL0     C73304   2.495  10.632   2.636 -0.7492  0.6085  1.3142
  532MOL0     C73305   2.574  10.565   2.727  0.3411  0.2983 -0.4259
  532MOL0     C73306   2.698  10.491   2.670 -0.2923  0.0946 -0.1992
  532MOL0     C73307   2.544  10.570   2.866  0.7147 -0.3495 -0.7610
  532MOL0     C73308   2.641  10.530   2.976 -0.9767 -0.0879  0.3621
  532MOL0     O73309   2.722  10.421   2.945 -0.5154 -0.2850  0.0855
  532MOL0     C73310   2.840  10.404   3.014 -0.3507  0.3728 -0.1363
  532MOL0     C73311   2.964  10.428   2.952  0.3285  0.2069 -0.6386
  532MOL0     C73312   3.085  10.418   3.017  0.3993  0.5980  0.3508
  532MOL0     C73313   3.103  10.376   3.145  0.7913  0.7760  0.9871
  532MOL0     O73314   3.222  10.353   3.213 -1.0841 -0.0596 -0.5529
  532MOL0     C73315   3.343  10.413   3.161  0.1758  0.0745 -0.4908
  532MOL0     C73316   3.329  10.565   3.200 -0.4120  0.2830 -0.5938
  532MOL0     C73317   3.429  10.648   3.119  0.2376 -0.4314 -0.1418
  532MOL0     C73318   3.358  10.746   3.029 -0.2404 -0.2608 -0.4404
  532MOL0     C73319   3.443  10.867   3.001 -0.8937  0.1062 -0.4052
  532MOL0     C73320   3.369  10.953   2.898 -0.8600  0.2771 -0.0479
  532MOL0     C73321   3.451  11.064   2.839 -0.0059 -0.5809  0.1054
  532MOL0     C73322   3.379  11.125   2.719  0.3292  0.0478  0.6317
  532MOL0    Cl73323   3.320  10.999   2.603  0.2039  0.4113 -0.3791
  532MOL0     C73324   2.979  10.350   3.208 -0.1540 -0.5857  0.0850
  532MOL0     C73325   2.848  10.375   3.148 -0.9082 -0.1233  0.0282
  532MOL0     O73326   2.646  10.597   3.076  0.2902  0.6941 -0.2068
  532MOL0     C73327   2.425  10.641   2.901 -0.6753 -0.0069  0.3180
  532MOL0     C73328   2.351  10.710   2.807 -0.2466 -0.5931  0.5094
  532MOL0     N73329   1.847  10.512   2.513  0.3232 -0.4909 -0.4753
  532MOL0     N73330   1.728  10.493   2.559  0.1443  0.4997 -0.3085
  532MOL0     C73331   1.058  11.029   2.870  0.0877 -0.2276 -0.4603
  532MOL0     C73332   1.017  11.112   2.977  0.9164 -0.2649 -0.5920
  532MOL0     C73333   0.890  11.425   3.251 -0.4332 -0.2106 -0.0601
  532MOL0     C73334   0.752  11.407   3.292  0.1757 -0.1061 -0.0964
  532MOL0     C73335   0.698  11.485   3.396 -0.0856 -0.4154  0.1409
  532MOL0     C73336   0.774  11.575   3.462 -0.1168 -0.1684  0.1862
  532MOL0     O73337   0.723  11.659   3.558 -0.0658 -0.2307  0.6664
  532MOL0     C73338   0.676  11.778   3.499 -0.0468 -0.5854  0.0065
  532MOL0     C73339   0.575  11.832   3.593  0.3869  0.2694  0.0378
  532MOL0     C73340   0.439  11.760   3.561 -0.8275 -0.1391  0.3921
  532MOL0     C73341   0.324  11.792   3.655 -0.7266  0.1462 -0.4946
  532MOL0     C73342   0.207  11.735   3.593  0.0364  0.5781  0.6172
  532MOL0     C73343   0.106  11.678   3.554  0.2150  0.0312  0.3049
  532MOL0     C73344   0.909  11.588   3.432  0.5653 -0.0076  0.0703
  532MOL0     C73345   0.968  11.520   3.326  0.5660  1.7717 -0.5847
  532MOL0     C73346   1.115  11.533   3.321  0.4701 -0.4172 -0.2009
  532MOL0     H73347   0.735  11.232   2.835  0.7829  1.6440  2.7191
  532MOL0     H73348   0.816  11.116   2.652  0.3068  1.9663  0.5446
  532MOL0     H73349   0.873  10.935   2.519  1.1375  1.7070  0.6418
  532MOL0     H73350   0.835  10.846   2.663 -0.5094  5.2864  1.9632
  532MOL0     H73351   0.883  10.690   2.480 -0.4102 -0.7905  0.0006
  532MOL0     H73352   1.060  10.749   2.480  1.9063 -2.1443  4.0599
  532MOL0     H73353   1.043  10.694   2.717 -0.1105  0.6359 -1.1777
  532MOL0     H73354   0.896  10.605   2.694 -0.4269  0.0372 -1.2906
  532MOL0     H73355   1.097  10.455   2.686 -1.3293 -1.1429 -0.3109
  532MOL0     H73356   1.001  10.435   2.548  0.4754  0.4457  0.2337
  532MOL0     H73357   1.248  10.628   2.561  3.3535 -0.8546 -0.5717
  532MOL0     H73358   1.180  10.589   2.413 -0.4955 -1.7288 -0.8505
  532MOL0     H73359   1.338  10.400   2.600  1.6566  2.1907 -0.1049
  532MOL0     H73360   1.258  10.339   2.454 -0.6070 -0.5218  2.1209
  532MOL0     H73361   1.426  10.477   2.324 -0.5702  0.8028 -0.4668
  532MOL0     H73362   1.499  10.382   2.451 -1.0237 -0.4389  0.8331
  532MOL0     H73363   1.473  10.694   2.485  3.4125  0.7992  0.2543
  532MOL0     H73364   1.474  10.584   2.612  1.8028 -0.3117  0.1272
  532MOL0     H73365   1.677  10.735   2.334  0.2725 -0.9690 -1.0206
  532MOL0     H73366   1.938  10.731   2.247 -1.0176 -1.9137 -1.3469
  532MOL0     H73367   1.980  10.574   2.247  1.5411  0.7649 -1.1549
  532MOL0     H73368   2.117  10.609   2.458  2.0623 -0.2792 -1.6892
  532MOL0     H73369   2.170  10.703   2.318  0.0993  1.8116  0.6599
  532MOL0     H73370   2.108  10.911   2.425 -1.7578  0.2460  1.0895
  532MOL0     H73371   1.985  10.831   2.522 -0.6000  0.8857  2.4599
  532MOL0     H73372   2.193  10.898   2.653  0.3444  0.3527 -2.2003
  532MOL0     H73373   2.124  10.740   2.665 -0.9932 -0.4642 -1.2959
  532MOL0     H73374   2.525  10.634   2.531 -0.4625 -1.3575  1.3145
  532MOL0     H73375   2.719  10.523   2.568  0.5258  0.5291  0.0945
  532MOL0     H73376   2.688  10.383   2.676  2.5294 -0.4818 -3.3536
  532MOL0     H73377   2.793  10.524   2.714  1.6408  0.1189 -3.9848
  532MOL0     H73378   2.955  10.453   2.847  0.5855  1.3529 -0.3956
  532MOL0     H73379   3.174  10.454   2.965  1.4896 -2.5838 -0.1723
  532MOL0     H73380   3.429  10.360   3.205 -0.7358 -2.1589 -1.2201
  532MOL0     H73381   3.358  10.393   3.055 -0.0129 -0.8054 -0.3667
  532MOL0     H73382   3.228  10.587   3.165 -0.0856  0.8684 -1.1999
  532MOL0     H73383   3.330  10.595   3.305 -1.7821 -0.0836 -0.4589
  532MOL0     H73384   3.502  10.592   3.060 -1.0357 -3.0546  0.6277
  532MOL0     H73385   3.473  10.716   3.192 -1.2677 -0.5591  0.9243
  532MOL0     H73386   3.263  10.773   3.077 -0.0815  0.0979 -0.3174
  532MOL0     H73387   3.328  10.700   2.935 -0.1431  1.3311 -1.2948
  532MOL0     H73388   3.466  10.926   3.090 -1.4316 -0.8994  0.4162
  532MOL0     H73389   3.538  10.828   2.964 -1.1238 -0.8587 -0.0020
  532MOL0     H73390   3.276  10.991   2.941 -2.2116 -0.1176 -2.4410
  532MOL0     H73391   3.325  10.884   2.825  0.6239  1.2800 -1.9790
  532MOL0     H73392   3.552  11.030   2.814  0.4361 -0.9966  2.2032
  532MOL0     H73393   3.474  11.140   2.914  0.6497 -0.9440  0.2908
  532MOL0     H73394   3.438  11.192   2.656 -0.3818 -0.6032 -0.7840
  532MOL0     H73395   3.302  11.191   2.759  0.1732  1.9539 -2.4909
  532MOL0     H73396   2.979  10.319   3.312  1.0390  0.8872  0.5575
  532MOL0     H73397   2.759  10.360   3.209  0.0091 -3.1643  0.8264
  532MOL0     H73398   2.403  10.661   3.006  1.3115  1.3260  0.5349
  532MOL0     H73399   2.259  10.754   2.845 -1.9869 -3.5019 -0.0070
  532MOL0     H73400   1.138  10.963   2.901 -1.3324 -0.7668  2.4110
  532MOL0     H73401   1.069  11.122   3.072  0.9723  0.9331 -0.7376
  532MOL0     H73402   0.691  11.334   3.241  0.5971 -1.0190  0.6749
  532MOL0     H73403   0.599  11.447   3.417  0.1961 -1.4226 -0.2823
  532MOL0     H73404   0.762  11.846   3.494  0.4841 -1.1705  1.0124
  532MOL0     H73405   0.637  11.764   3.398 -1.1715 -2.5691  0.6825
  532MOL0     H73406   0.568  11.941   3.580 -1.0542  0.3431  1.2082
  532MOL0     H73407   0.604  11.820   3.698  0.6635  2.5975  0.2865
  532MOL0     H73408   0.410  11.776   3.457  1.1404  1.9657  0.1001
  532MOL0     H73409   0.463  11.654   3.578 -3.2364 -0.7533  0.3515
  532MOL0     H73410   0.311  11.898   3.679  1.2703  0.5814 -1.1669
  532MOL0     H73411   0.355  11.741   3.746  0.3817 -1.2124 -1.5848
  532MOL0     H73412   0.023  11.638   3.499  0.0863  1.4434 -0.5820
  532MOL0     H73413   0.964  11.674   3.469  1.7243 -0.1288 -1.2698
  532MOL0     H73414   1.143  11.582   3.227  0.3327  1.1891  0.5689
  532MOL0     H73415   1.159  11.600   3.396 -2.0999  0.2825  0.7666
  532MOL0     H73416   1.168  11.437   3.326  0.5768 -0.2944  1.5684
  533MOL0     O73417   5.685  10.770   4.462 -0.4529 -0.0731 -0.5928
  533MOL0     C73418   5.567  10.754   4.431 -0.5385 -0.2957 -0.6976
  533MOL0     O73419   5.525  10.669   4.339  0.0135  0.2021 -0.2459
  533MOL0     C73420   5.616  10.586   4.272 -0.7260 -0.2117  0.4346
  533MOL0     C73421   5.658  10.626   4.144  0.6570  0.1509 -0.0850
  533MOL0     C73422   5.756  10.547   4.079 -0.2695  0.4585  0.4086
  533MOL0     C73423   5.818  10.434   4.131 -0.5519 -0.5576 -0.2040
  533MOL0     O73424   5.926  10.377   4.075 -0.0117  0.0718 -0.7661
  533MOL0     C73425   6.030  10.473   4.052  1.0968 -0.3477  0.1725
  533MOL0     C73426   6.165  10.403   4.051  0.1570  0.0342 -0.1963
  533MOL0     C73427   6.179  10.291   3.950  0.6480 -0.5892 -0.3169
  533MOL0     C73428   6.325  10.248   3.928  0.4369  0.9836 -0.4587
  533MOL0     C73429   6.338  10.144   3.807  0.4409  0.5250 -0.6103
  533MOL0     C73430   6.334   9.998   3.853 -0.0025 -0.4254  0.0962
  533MOL0     C73431   6.327   9.894   3.744 -0.2262  0.3395  0.3705
  533MOL0     C73432   6.336   9.753   3.798 -0.4771  0.0244 -1.1393
  533MOL0     N73433   6.368   9.641   3.704  0.3849  0.2113  0.4576
  533MOL0     C73434   6.280   9.569   3.635 -0.0173  0.0700  0.0944
  533MOL0     C73435   6.344   9.474   3.562 -1.2046  0.7419 -0.4416
  533MOL0     C73436   6.291   9.383   3.458 -0.1013 -0.6469 -0.1841
  533MOL0     C73437   6.295   9.232   3.499 -0.2690  0.3818 -0.3756
  533MOL0     C73438   6.274   9.132   3.385 -0.3331  0.3759  1.1702
  533MOL0     C73439   6.396   9.103   3.295 -0.1400  0.1287  0.2198
  533MOL0     O73440   6.441   9.229   3.234 -0.0478  0.5814 -0.4375
  533MOL0     C73441   6.575   9.245   3.213 -0.3541  0.0214 -0.1003
  533MOL0     C73442   6.618   9.378   3.202 -0.1239  0.4566 -0.3589
  533MOL0     C73443   6.754   9.411   3.205  0.5368 -0.1410  0.2529
  533MOL0     C73444   6.774   9.561   3.207 -0.2532 -0.4400 -0.4553
  533MOL0     C73445   6.852   9.310   3.205  0.2358  0.0081  0.3643
  533MOL0     C73446   6.994   9.338   3.206  0.6326  0.1378  0.6945
  533MOL0     O73447   7.077   9.251   3.148  0.7527  0.3001  0.2836
  533MOL0     C73448   7.212   9.273   3.148 -0.3773 -0.3271  0.1647
  533MOL0     C73449   7.291   9.223   3.243 -1.1513 -0.5248 -0.2581
  533MOL0     C73450   7.431   9.262   3.243  0.4873 -0.0014 -0.5979
  533MOL0     C73451   7.479   9.350   3.154  0.0350 -0.3442 -0.1742
  533MOL0     O73452   7.616   9.388   3.162 -0.2462  0.1725 -0.7830
  533MOL0     C73453   7.680   9.460   3.056  0.0203  0.6450 -0.3646
  533MOL0     C73454   7.827   9.431   3.080 -1.0102 -0.9795 -0.1500
  533MOL0     C73455   7.922   9.505   2.984  0.3494  1.3668  0.6533
  533MOL0     C73456   8.077   9.515   3.014  1.1017  0.2186  0.1381
  533MOL0     C73457   8.163   9.589   2.912  0.2324  0.0930  0.6181
  533MOL0     C73458   8.298   9.608   2.968 -0.9379  0.3478 -0.0087
  533MOL0     C73459   8.371   9.683   2.855 -0.1803  1.0268  0.2457
  533MOL0     C73460   8.512   9.707   2.906  0.1002  0.2100  0.0850
  533MOL0    Cl73461   8.603   9.797   2.785 -0.1528  0.5295 -0.1692
  533MOL0     C73462   7.395   9.402   3.061  1.0277 -0.3121 -0.4710
  533MOL0     C73463   7.266   9.359   3.043  0.5752  0.3929 -0.4447
  533MOL0     O73464   7.032   9.430   3.275 -0.1425 -0.1339 -0.1430
  533MOL0     C73465   6.807   9.172   3.206  0.6116  0.3957  0.4331
  533MOL0     C73466   6.666   9.149   3.208 -1.0453 -0.3898 -1.0501
  533MOL0     N73467   6.481   9.490   3.602  0.0826  0.3857 -1.0129
  533MOL0     N73468   6.490   9.589   3.681  0.5070  0.3255  0.4332
  533MOL0     C73469   5.757  10.385   4.245 -1.1385 -0.3215 -0.2457
  533MOL0     C73470   5.663  10.458   4.316  0.0637 -0.7256  0.2358
  533MOL0     C73471   5.466  10.818   4.533 -0.6684 -0.5217  0.3010
  533MOL0     C73472   5.330  10.812   4.506 -0.1424  0.1929  0.3134
  533MOL0     C73473   5.232  10.871   4.572 -0.2377  0.3328 -0.3514
  533MOL0     C73474   5.270  10.963   4.670 -0.0122 -0.1383 -0.5132
  533MOL0     O73475   5.181  11.030   4.738 -0.1727  0.0557 -0.4512
  533MOL0     C73476   5.045  10.993   4.739  0.5559  0.7042  0.2906
  533MOL0     C73477   5.022  10.865   4.821 -0.3799  0.1597  0.1047
  533MOL0     C73478   4.890  10.798   4.794  0.0278  0.6129 -0.1186
  533MOL0     C73479   4.829  10.733   4.920  0.6767 -1.3449 -0.3287
  533MOL0     C73480   4.686  10.705   4.908 -0.3030 -0.3734 -0.4919
  533MOL0     C73481   4.566  10.670   4.901 -0.4382 -0.7726  0.1670
  533MOL0     C73482   5.403  10.989   4.698  0.3351  0.4637  0.2694
  533MOL0     C73483   5.509  10.916   4.630  0.3319 -0.0973 -0.3987
  533MOL0     C73484   5.649  10.949   4.684  0.1901 -0.2248 -0.0190
  533MOL0     H73485   5.612  10.711   4.095  0.2324  1.9985  3.2484
  533MOL0     H73486   5.791  10.586   3.984 -1.6366 -0.1070 -0.3450
  533MOL0     H73487   6.041  10.545   4.134  0.5427 -0.4378  0.3283
  533MOL0     H73488   6.015  10.529   3.960  1.8679  0.1226  0.3200
  533MOL0     H73489   6.242  10.478   4.027  0.6514  0.0506  1.2907
  533MOL0     H73490   6.171  10.372   4.156 -0.5161  1.0627  0.1699
  533MOL0     H73491   6.124  10.204   3.988 -3.2224  2.0009  0.6559
  533MOL0     H73492   6.130  10.323   3.858 -0.0812  1.5734  0.7426
  533MOL0     H73493   6.385  10.338   3.919  1.3585  0.9992  3.6747
  533MOL0     H73494   6.356  10.201   4.022 -1.9359 -2.4490 -1.1544
  533MOL0     H73495   6.444  10.152   3.784  1.2902 -2.0410  1.8423
  533MOL0     H73496   6.268  10.163   3.724  0.2576  1.6516 -0.2045
  533MOL0     H73497   6.416   9.970   3.919 -1.3763 -3.0216  0.8336
  533MOL0     H73498   6.240   9.989   3.909 -2.2271  2.5926 -2.7442
  533MOL0     H73499   6.408   9.904   3.671 -0.5661 -2.5012 -0.5100
  533MOL0     H73500   6.234   9.896   3.685 -0.7810  1.1856  1.2408
  533MOL0     H73501   6.403   9.747   3.885 -1.0956 -1.7080 -0.7308
  533MOL0     H73502   6.234   9.731   3.832  0.4167 -0.1731  1.7211
  533MOL0     H73503   6.174   9.587   3.620  0.2578  0.4652 -1.5773
  533MOL0     H73504   6.354   9.408   3.372 -0.5042  0.5477 -0.1579
  533MOL0     H73505   6.190   9.419   3.436 -0.1977 -1.0238 -0.3453
  533MOL0     H73506   6.390   9.199   3.542 -2.1415  0.6889  4.7188
  533MOL0     H73507   6.231   9.223   3.588 -1.9327  1.1425 -1.4517
  533MOL0     H73508   6.230   9.043   3.431  1.7174 -0.2052  2.1511
  533MOL0     H73509   6.198   9.170   3.317  1.2893  2.2849  0.3248
  533MOL0     H73510   6.478   9.061   3.353  1.3019  4.2251  1.4431
  533MOL0     H73511   6.364   9.039   3.212  0.7941  1.0540 -0.8898
  533MOL0     H73512   6.549   9.461   3.190 -1.0869 -0.4467 -1.3296
  533MOL0     H73513   6.876   9.602   3.208 -0.9676  1.4528  0.3367
  533MOL0     H73514   6.720   9.602   3.293  2.8041  2.9008  0.1232
  533MOL0     H73515   6.725   9.607   3.121  1.2169 -1.1324 -1.7091
  533MOL0     H73516   7.265   9.144   3.313  4.0542 -1.1185  1.4436
  533MOL0     H73517   7.504   9.217   3.309 -0.7450 -1.9559 -0.4735
  533MOL0     H73518   7.661   9.424   2.955  1.0708 -1.5928  0.1705
  533MOL0     H73519   7.647   9.564   3.062 -0.2786  0.5779 -0.7894
  533MOL0     H73520   7.847   9.484   3.173 -1.0908 -0.0815 -0.6328
  533MOL0     H73521   7.847   9.324   3.094 -1.1624 -1.3420 -2.2809
  533MOL0     H73522   7.883   9.604   2.961 -0.1611  0.6849 -1.5813
  533MOL0     H73523   7.901   9.457   2.888 -1.4680  1.2805  1.0521
  533MOL0     H73524   8.117   9.416   3.038 -0.4565 -0.3985  0.3324
  533MOL0     H73525   8.086   9.577   3.104  0.8744  2.4396 -1.2821
  533MOL0     H73526   8.175   9.519   2.829  1.5449 -3.1631  3.2961
  533MOL0     H73527   8.130   9.688   2.882  1.6131  0.7893  1.2721
  533MOL0     H73528   8.346   9.512   2.985 -0.9575 -0.0684 -2.0816
  533MOL0     H73529   8.295   9.679   3.051 -3.3661  1.9694 -1.3748
  533MOL0     H73530   8.313   9.773   2.832  0.6322  1.2968 -0.8412
  533MOL0     H73531   8.390   9.624   2.765 -0.9942 -1.3426  1.5387
  533MOL0     H73532   8.565   9.612   2.919  1.3088  0.6730 -1.2111
  533MOL0     H73533   8.512   9.759   3.002  2.1122 -0.6610  0.6134
  533MOL0     H73534   7.433   9.482   2.998 -2.5045  2.5107  0.5917
  533MOL0     H73535   7.209   9.406   2.964 -0.4872  2.5906  1.4960
  533MOL0     H73536   6.873   9.086   3.210 -1.9444 -1.6506  1.7252
  533MOL0     H73537   6.649   9.042   3.216  2.2148 -0.9094  0.5819
  533MOL0     H73538   5.796  10.288   4.275  0.2051  0.3422  0.2104
  533MOL0     H73539   5.620  10.422   4.409  1.3948  0.4563  1.3753
  533MOL0     H73540   5.305  10.739   4.430 -0.1474  0.6775 -0.1579
  533MOL0     H73541   5.132  10.855   4.532 -1.6235  1.9559  2.1667
  533MOL0     H73542   4.990  11.076   4.785 -0.2398 -0.0862  0.8111
  533MOL0     H73543   5.008  10.983   4.636 -1.6275  1.8950  0.8787
  533MOL0     H73544   5.042  10.881   4.927 -1.9873 -0.9711  0.6141
  533MOL0     H73545   5.089  10.788   4.781 -1.0721 -0.7321  0.6290
  533MOL0     H73546   4.820  10.877   4.766 -0.2739 -0.7383 -3.6673
  533MOL0     H73547   4.888  10.724   4.714  0.9873 -1.9016  2.0030
  533MOL0     H73548   4.835  10.808   5.000 -0.4781 -1.6367  0.0617
  533MOL0     H73549   4.877  10.638   4.944 -0.9203 -2.5971 -1.8532
  533MOL0     H73550   4.466  10.635   4.891 -0.6356 -0.1779 -0.0012
  533MOL0     H73551   5.438  11.055   4.777  3.4880 -0.4141 -0.2402
  533MOL0     H73552   5.655  11.009   4.775 -0.0047 -1.8280  1.1119
  533MOL0     H73553   5.692  10.852   4.711 -0.0674 -0.4261 -0.3266
  533MOL0     H73554   5.707  10.989   4.601  2.9115 -2.4288  0.6689
  534MOL0     O73555   1.835   3.746   7.066 -0.2664 -0.6603 -0.2225
  534MOL0     C73556   1.902   3.686   6.979  0.5578 -1.0444 -0.1883
  534MOL0     O73557   2.035   3.700   6.962 -0.0705  0.6787 -0.0089
  534MOL0     C73558   2.116   3.762   7.057 -0.2490 -0.2283  0.7058
  534MOL0     C73559   2.230   3.827   7.008 -0.3966 -0.0260  0.1808
  534MOL0     C73560   2.327   3.879   7.088  0.1747 -0.5262 -0.7410
  534MOL0     C73561   2.312   3.858   7.230  0.4636  0.0748  0.0726
  534MOL0     O73562   2.407   3.898   7.321  0.5557 -0.1069 -0.4383
  534MOL0     C73563   2.524   3.952   7.277  0.4602  0.4020 -0.1532
  534MOL0     C73564   2.607   4.006   7.397 -0.2746 -1.2176 -0.1863
  534MOL0     C73565   2.755   4.046   7.372  0.4719 -1.2608  0.4939
  534MOL0     C73566   2.846   3.924   7.329 -0.7476 -0.1484  0.7019
  534MOL0     C73567   2.983   3.959   7.299  0.5488  0.1530 -0.2756
  534MOL0     C73568   3.062   3.966   7.437 -0.4604  0.3213  0.0383
  534MOL0     C73569   3.216   3.997   7.411 -0.4951  0.4162 -0.7606
  534MOL0     C73570   3.289   4.028   7.545  0.3787 -0.3361 -0.4190
  534MOL0     N73571   3.438   4.049   7.532 -0.1245  0.2949 -0.0126
  534MOL0     C73572   3.526   3.975   7.453  0.5977 -0.0731 -0.0554
  534MOL0     C73573   3.648   4.011   7.503 -0.6246  0.1489  0.8460
  534MOL0     C73574   3.767   3.937   7.450  0.0225 -0.1524  0.2334
  534MOL0     C73575   3.902   3.997   7.499  0.5384 -0.0704  0.9995
  534MOL0     C73576   4.018   3.892   7.472 -0.0039 -0.4394 -0.1738
  534MOL0     C73577   4.153   3.939   7.521 -0.3571  0.2111 -0.1516
  534MOL0     O73578   4.218   3.822   7.581 -0.0235  0.3282  0.6477
  534MOL0     C73579   4.342   3.840   7.627 -0.5679 -0.5018  0.5371
  534MOL0     C73580   4.412   3.722   7.651 -0.0660 -0.7038  0.5450
  534MOL0     C73581   4.546   3.720   7.700 -0.2424  0.2243  0.5105
  534MOL0     C73582   4.611   3.592   7.737  0.6835  0.7374  1.1962
  534MOL0     C73583   4.605   3.843   7.726 -0.1230  0.0732  0.0161
  534MOL0     C73584   4.732   3.852   7.802 -0.0741  0.2380 -0.1529
  534MOL0     O73585   4.725   3.923   7.924  0.2268  0.7798 -0.4732
  534MOL0     C73586   4.834   3.975   7.988 -0.7987  0.0628 -0.0447
  534MOL0     C73587   4.806   4.104   8.047 -0.2490  0.1285 -0.1305
  534MOL0     C73588   4.913   4.169   8.103 -0.0348 -0.1442 -0.4222
  534MOL0     C73589   5.044   4.117   8.117  0.1013 -0.6501 -0.2684
  534MOL0     O73590   5.137   4.196   8.190 -0.2074  0.0611 -0.1210
  534MOL0     C73591   5.270   4.150   8.196  0.1067 -0.1288 -0.2313
  534MOL0     C73592   5.359   4.251   8.269 -0.0865  0.1848 -0.6939
  534MOL0     C73593   5.505   4.207   8.262  0.1851  0.3913 -0.6861
  534MOL0     C73594   5.606   4.307   8.327 -0.5297  0.0613  0.2110
  534MOL0     C73595   5.738   4.237   8.364 -0.4636 -0.0935  0.3325
  534MOL0     C73596   5.802   4.142   8.259 -0.3641 -0.6541  0.1077
  534MOL0     C73597   5.951   4.115   8.296 -0.5208  0.9957  0.2581
  534MOL0     C73598   6.022   4.085   8.168 -0.0371  0.0510  0.6088
  534MOL0    Cl73599   6.206   4.067   8.166  0.4820 -0.1518  0.0630
  534MOL0     C73600   5.071   4.003   8.044 -0.3448  0.2016 -1.1115
  534MOL0     C73601   4.968   3.926   7.990 -0.3379 -0.2205 -0.1916
  534MOL0     O73602   4.834   3.806   7.751 -0.1013  0.6082  0.2351
  534MOL0     C73603   4.534   3.967   7.691 -0.3132  0.0338 -0.3720
  534MOL0     C73604   4.410   3.961   7.637 -0.0216 -0.2491 -1.0877
  534MOL0     N73605   3.631   4.106   7.603  0.6467  0.1828 -0.0460
  534MOL0     N73606   3.503   4.120   7.622 -1.4042  0.0850  0.4602
  534MOL0     C73607   2.202   3.779   7.283 -0.5953 -0.7722 -0.2097
  534MOL0     C73608   2.105   3.733   7.195  0.0251 -0.4877  0.1777
  534MOL0     C73609   1.816   3.616   6.884 -0.4462  0.1836  0.8832
  534MOL0     C73610   1.690   3.674   6.856 -1.1315 -0.6101  0.5728
  534MOL0     C73611   1.595   3.616   6.773  0.3728 -0.2500  0.0317
  534MOL0     C73612   1.627   3.501   6.701  0.5499  0.2176  0.0922
  534MOL0     O73613   1.539   3.473   6.601 -0.5113  0.0946  0.2001
  534MOL0     C73614   1.587   3.385   6.498  0.2716  0.1069 -0.6685
  534MOL0     C73615   1.482   3.347   6.393  0.3758  0.0087  0.1750
  534MOL0     C73616   1.360   3.258   6.413 -0.3443  0.0119 -0.7860
  534MOL0     C73617   1.247   3.338   6.462 -1.0203 -0.5424  0.2622
  534MOL0     C73618   1.127   3.249   6.456  0.0595 -1.0439  0.2033
  534MOL0     C73619   1.020   3.193   6.436  1.0816 -0.2996  0.0177
  534MOL0     C73620   1.758   3.449   6.713  0.2085 -0.0178 -0.2167
  534MOL0     C73621   1.854   3.504   6.806 -0.0390 -0.4603 -0.8781
  534MOL0     C73622   1.993   3.442   6.799 -0.0244 -0.0099  0.0822
  534MOL0     H73623   2.250   3.845   6.903  1.3980  2.1909  0.8135
  534MOL0     H73624   2.414   3.928   7.046  0.6654  1.4150  2.2176
  534MOL0     H73625   2.504   4.032   7.206 -2.0906 -0.8240 -0.9362
  534MOL0     H73626   2.574   3.870   7.224 -1.0658 -0.5084 -0.2576
  534MOL0     H73627   2.559   4.090   7.448  0.3662  0.1324 -1.7041
  534MOL0     H73628   2.598   3.916   7.458  0.7326 -1.1310  0.1114
  534MOL0     H73629   2.760   4.123   7.293  2.9467 -1.3261  0.5243
  534MOL0     H73630   2.800   4.082   7.465  2.0056 -1.3325 -0.1967
  534MOL0     H73631   2.847   3.846   7.405  1.7435 -0.4049  0.4786
  534MOL0     H73632   2.801   3.887   7.236 -0.9050  0.7979  0.3887
  534MOL0     H73633   3.000   4.055   7.250  2.1506  1.4264  2.5496
  534MOL0     H73634   3.009   3.868   7.243 -3.6599 -2.1472  1.0011
  534MOL0     H73635   3.019   4.044   7.501 -1.7675  1.3087 -1.9326
  534MOL0     H73636   3.046   3.871   7.490 -2.0002 -0.5445 -1.8392
  534MOL0     H73637   3.218   4.095   7.363 -0.6716  1.9037  2.0740
  534MOL0     H73638   3.265   3.911   7.362  0.2621  0.9258 -0.9145
  534MOL0     H73639   3.251   4.121   7.587 -0.4075  1.2490 -4.1928
  534MOL0     H73640   3.273   3.944   7.614 -0.0146  0.6620  0.7271
  534MOL0     H73641   3.502   3.891   7.389 -1.5545  0.0385  0.4993
  534MOL0     H73642   3.772   3.956   7.343 -1.4858  0.1112  0.1966
  534MOL0     H73643   3.754   3.831   7.470 -1.1560  0.1662  1.3157
  534MOL0     H73644   3.917   4.083   7.433 -2.8685  0.1339  0.2766
  534MOL0     H73645   3.892   4.036   7.600  0.2150  1.4432  0.4133
  534MOL0     H73646   3.998   3.804   7.533 -0.9483  1.0322  1.7376
  534MOL0     H73647   4.018   3.862   7.367  0.3759  3.6350 -1.5493
  534MOL0     H73648   4.199   3.981   7.431 -0.0497 -1.3458 -0.7344
  534MOL0     H73649   4.139   4.011   7.603 -2.3581 -1.1275  0.7514
  534MOL0     H73650   4.378   3.621   7.631  0.7941 -0.7834 -0.6166
  534MOL0     H73651   4.630   3.588   7.844  0.1530  1.4905  1.3218
  534MOL0     H73652   4.708   3.584   7.687  1.0236 -1.2491  2.0481
  534MOL0     H73653   4.536   3.516   7.713  1.3607  0.6220 -0.7293
  534MOL0     H73654   4.702   4.132   8.042 -0.0932  0.5759 -3.1537
  534MOL0     H73655   4.893   4.264   8.152 -2.3549 -0.4660 -0.6619
  534MOL0     H73656   5.260   4.056   8.251  0.3942 -0.8962 -1.4574
  534MOL0     H73657   5.309   4.143   8.094  1.2670 -0.3531  0.2122
  534MOL0     H73658   5.337   4.353   8.235  0.5041  0.5561  0.0079
  534MOL0     H73659   5.335   4.261   8.375  3.6311  1.4774  0.1887
  534MOL0     H73660   5.536   4.196   8.158  1.6714 -2.7196 -0.0326
  534MOL0     H73661   5.516   4.111   8.314  1.1967  0.8161 -0.0904
  534MOL0     H73662   5.547   4.344   8.411 -2.2169 -2.3254  0.1708
  534MOL0     H73663   5.624   4.393   8.261 -0.7872  0.7572  1.0355
  534MOL0     H73664   5.816   4.307   8.397 -0.1762 -0.4464  0.4029
  534MOL0     H73665   5.719   4.181   8.456 -0.2117  0.1607  0.5438
  534MOL0     H73666   5.802   4.184   8.158 -1.3298  0.7829  0.6787
  534MOL0     H73667   5.745   4.049   8.248  0.7974 -1.1997 -1.8572
  534MOL0     H73668   5.957   4.030   8.365  1.9877 -0.3337 -1.4330
  534MOL0     H73669   5.999   4.200   8.346  0.2869 -0.0224  1.2734
  534MOL0     H73670   6.001   4.162   8.093 -0.8799  0.0382  0.8224
  534MOL0     H73671   5.981   3.991   8.130  1.5865 -0.9822  1.2801
  534MOL0     H73672   5.170   3.960   8.035  0.1959  1.4983 -1.5021
  534MOL0     H73673   4.996   3.829   7.949 -0.0300  0.0197 -0.5647
  534MOL0     H73674   4.582   4.063   7.700 -2.2045  1.4037 -3.1986
  534MOL0     H73675   4.373   4.057   7.604 -0.5400 -0.2178 -0.4421
  534MOL0     H73676   2.204   3.767   7.391 -0.0479  0.9736  0.0075
  534MOL0     H73677   2.021   3.676   7.236  0.4783  0.3667  2.4757
  534MOL0     H73678   1.662   3.769   6.902  0.3362 -0.2808  0.8153
  534MOL0     H73679   1.503   3.669   6.749 -0.2233 -1.1062  0.3935
  534MOL0     H73680   1.681   3.416   6.452  1.6318  0.6053  2.2328
  534MOL0     H73681   1.625   3.299   6.553 -1.1346  0.5150  1.0277
  534MOL0     H73682   1.530   3.293   6.311 -3.2522 -2.1591 -0.7630
  534MOL0     H73683   1.451   3.440   6.346 -1.7581 -0.6385  0.1822
  534MOL0     H73684   1.324   3.207   6.324  0.0896 -2.1691  0.2267
  534MOL0     H73685   1.390   3.178   6.481 -0.6925  0.0037 -0.6433
  534MOL0     H73686   1.241   3.428   6.401  4.0308 -0.3843 -0.3877
  534MOL0     H73687   1.257   3.369   6.567  1.2242  0.4285 -0.1855
  534MOL0     H73688   0.929   3.138   6.443  1.9887 -1.8982 -0.2007
  534MOL0     H73689   1.800   3.366   6.658 -0.8719 -0.4673 -0.4031
  534MOL0     H73690   2.015   3.455   6.906 -3.2438  1.9834  0.6397
  534MOL0     H73691   1.990   3.337   6.768  1.6390 -0.8673  2.5183
  534MOL0     H73692   2.062   3.494   6.731 -1.1236  0.9847 -0.3135
  535MOL0     O73693   5.968   8.084   1.380 -0.6529  0.0534 -0.4561
  535MOL0     C73694   6.059   8.070   1.463 -0.3666 -0.4274  0.2710
  535MOL0     O73695   6.086   7.963   1.539 -0.0788  0.0241 -0.2045
  535MOL0     C73696   5.991   7.867   1.563  0.6615  0.0410 -0.2869
  535MOL0     C73697   5.940   7.776   1.476 -0.4892 -0.0821  0.7266
  535MOL0     C73698   5.844   7.685   1.508  0.2232 -0.0429  0.4309
  535MOL0     C73699   5.798   7.687   1.642 -0.3823 -0.3208 -0.7817
  535MOL0     O73700   5.706   7.609   1.694  0.3001  0.3664 -0.5327
  535MOL0     C73701   5.675   7.491   1.625  0.2341  0.5642  0.3662
  535MOL0     C73702   5.580   7.413   1.719 -0.6420  0.2770  0.5049
  535MOL0     C73703   5.445   7.481   1.754 -0.3735 -0.0552  0.4259
  535MOL0     C73704   5.371   7.414   1.872 -0.6265  0.4566 -0.4209
  535MOL0     C73705   5.254   7.499   1.925 -0.7208 -0.6259  0.3829
  535MOL0     C73706   5.148   7.416   1.993 -0.0741  0.8447 -0.2943
  535MOL0     C73707   5.193   7.366   2.134  1.0485  0.4671  0.3201
  535MOL0     C73708   5.086   7.412   2.237 -0.0067  0.2001 -0.6663
  535MOL0     N73709   5.140   7.410   2.378  0.5336  0.5110 -0.7582
  535MOL0     C73710   5.177   7.517   2.459 -0.0675  0.0197 -0.1266
  535MOL0     C73711   5.218   7.460   2.572  0.9230 -0.3441 -0.8564
  535MOL0     C73712   5.247   7.537   2.700 -0.5843 -0.0765 -0.1482
  535MOL0     C73713   5.394   7.571   2.701  0.8410  0.4652 -0.1178
  535MOL0     C73714   5.485   7.451   2.728  0.0662  0.2505  0.4091
  535MOL0     C73715   5.628   7.499   2.697  0.6290  0.2501 -0.6016
  535MOL0     O73716   5.706   7.378   2.704 -0.5800  0.1295  0.1989
  535MOL0     C73717   5.836   7.385   2.647 -0.2873 -0.6965  0.2040
  535MOL0     C73718   5.901   7.269   2.602  0.2482 -0.5157 -0.0814
  535MOL0     C73719   6.030   7.265   2.542  0.2484 -0.0009  0.0617
  535MOL0     C73720   6.090   7.134   2.507 -0.1331 -0.4657  0.7563
  535MOL0     C73721   6.103   7.384   2.530 -0.5160  0.3772  0.3378
  535MOL0     C73722   6.233   7.393   2.458  0.1772 -0.0160  0.6849
  535MOL0     O73723   6.285   7.517   2.468  0.3942 -0.6426  0.9371
  535MOL0     C73724   6.405   7.549   2.407  0.1607 -0.5886  0.1123
  535MOL0     C73725   6.417   7.543   2.267  1.6435 -0.2787  0.0806
  535MOL0     C73726   6.538   7.574   2.207 -0.6891 -0.4040 -0.3410
  535MOL0     C73727   6.649   7.598   2.287  0.9639 -0.7731 -0.4972
  535MOL0     O73728   6.765   7.627   2.217 -0.7615  0.7500 -0.2994
  535MOL0     C73729   6.874   7.690   2.288  0.0056 -1.6305  0.1724
  535MOL0     C73730   6.968   7.592   2.365 -0.7766 -0.5896  0.4627
  535MOL0     C73731   7.106   7.653   2.398  0.3023  0.9149  0.6435
  535MOL0     C73732   7.210   7.548   2.437  0.3266 -0.5271  0.7154
  535MOL0     C73733   7.348   7.622   2.468  0.5841  0.0508 -0.1522
  535MOL0     C73734   7.433   7.538   2.556 -0.0864 -0.3485 -0.4601
  535MOL0     C73735   7.569   7.607   2.563  0.2588  0.5398 -0.3687
  535MOL0     C73736   7.666   7.518   2.632 -0.0524 -0.1008  0.0254
  535MOL0    Cl73737   7.602   7.475   2.801  0.0642  0.6629  0.2424
  535MOL0     C73738   6.631   7.611   2.425  0.0624 -0.0702  0.7579
  535MOL0     C73739   6.514   7.577   2.486 -0.0165 -0.3255  0.1681
  535MOL0     O73740   6.274   7.307   2.387 -0.1790  0.6410 -0.5514
  535MOL0     C73741   6.044   7.501   2.577  0.2931  0.0981 -0.2912
  535MOL0     C73742   5.911   7.502   2.630  0.3110 -0.3448  0.2319
  535MOL0     N73743   5.207   7.327   2.549  0.7172 -0.0417 -0.3577
  535MOL0     N73744   5.158   7.292   2.445 -0.1272  0.5693  0.9957
  535MOL0     C73745   5.846   7.777   1.735 -0.2514 -0.9216  0.4278
  535MOL0     C73746   5.949   7.855   1.695  0.7091 -0.3182 -0.1559
  535MOL0     C73747   6.172   8.166   1.478 -0.4941  0.0909 -0.3468
  535MOL0     C73748   6.292   8.129   1.536 -0.7913 -0.1441  0.1287
  535MOL0     C73749   6.410   8.209   1.550 -0.5581 -1.4686  0.7774
  535MOL0     C73750   6.394   8.347   1.529  0.4626  0.7527 -0.4796
  535MOL0     O73751   6.482   8.442   1.562 -0.2860  0.2930  0.7413
  535MOL0     C73752   6.595   8.407   1.645 -0.4374 -0.1988  0.2236
  535MOL0     C73753   6.692   8.518   1.651  0.7345 -0.5233 -0.1364
  535MOL0     C73754   6.825   8.476   1.704 -1.3119 -0.0341 -0.2193
  535MOL0     C73755   6.945   8.570   1.670  0.3969 -0.5364  0.7021
  535MOL0     C73756   7.079   8.529   1.714 -0.7510  0.6675 -0.4187
  535MOL0     C73757   7.183   8.483   1.752  0.6782  0.5626 -0.1508
  535MOL0     C73758   6.271   8.389   1.473  0.0301  0.3759  0.5422
  535MOL0     C73759   6.166   8.300   1.444  0.4461  0.0326  0.1560
  535MOL0     C73760   6.042   8.354   1.378  0.4375 -0.4594  0.4259
  535MOL0     H73761   5.982   7.791   1.377 -2.0005  0.9670  0.2140
  535MOL0     H73762   5.802   7.617   1.435  0.4772 -0.2761  0.5041
  535MOL0     H73763   5.764   7.430   1.605 -0.5094 -0.3801 -0.1419
  535MOL0     H73764   5.621   7.522   1.535 -3.3056 -0.0791  2.1187
  535MOL0     H73765   5.564   7.313   1.680 -1.7144 -0.4675  2.7053
  535MOL0     H73766   5.636   7.403   1.812 -0.0741 -0.9847  0.0512
  535MOL0     H73767   5.461   7.586   1.780 -2.4134  1.0252 -2.1173
  535MOL0     H73768   5.378   7.475   1.667  2.1961 -2.2209 -1.5489
  535MOL0     H73769   5.327   7.320   1.837  0.4109 -0.1475 -0.1490
  535MOL0     H73770   5.446   7.382   1.945 -0.3547 -0.6104 -1.1344
  535MOL0     H73771   5.207   7.544   1.837  3.1681  2.0776 -0.5548
  535MOL0     H73772   5.284   7.582   1.990 -0.9211 -2.3655  2.8270
  535MOL0     H73773   5.064   7.486   2.001 -0.0124  0.8163  0.6419
  535MOL0     H73774   5.127   7.326   1.935 -0.1531  1.0611 -0.6073
  535MOL0     H73775   5.285   7.414   2.169  0.3992  1.9617  0.0503
  535MOL0     H73776   5.204   7.257   2.128 -1.1733  0.1581  0.8126
  535MOL0     H73777   5.068   7.517   2.211  2.3434  0.7381 -0.3633
  535MOL0     H73778   4.996   7.351   2.249  1.0143 -1.3676 -0.7123
  535MOL0     H73779   5.181   7.623   2.438 -1.0793  0.0098 -0.3868
  535MOL0     H73780   5.221   7.479   2.789 -0.5656  0.8311  0.4574
  535MOL0     H73781   5.184   7.626   2.700  1.4655  1.4494  0.9492
  535MOL0     H73782   5.418   7.602   2.599 -0.6960  0.3309 -0.5504
  535MOL0     H73783   5.419   7.658   2.762 -1.4686  0.7881  0.4554
  535MOL0     H73784   5.468   7.412   2.828  1.4942 -0.9563  0.2259
  535MOL0     H73785   5.460   7.384   2.645  1.2688  2.4108 -1.8570
  535MOL0     H73786   5.635   7.546   2.598  0.6054  2.3055  0.3204
  535MOL0     H73787   5.652   7.558   2.785  0.0554  1.0860 -0.9911
  535MOL0     H73788   5.849   7.174   2.612  0.4910 -0.4690  1.8778
  535MOL0     H73789   6.035   7.048   2.548  1.5411 -1.6735  0.5346
  535MOL0     H73790   6.191   7.122   2.547 -0.2100  3.3914  2.6005
  535MOL0     H73791   6.091   7.123   2.399  2.1830  1.1426  0.5627
  535MOL0     H73792   6.328   7.520   2.209  1.8094 -1.0708  0.1292
  535MOL0     H73793   6.549   7.570   2.099 -2.7122 -1.2268 -0.5622
  535MOL0     H73794   6.936   7.731   2.208 -2.9682  1.5437 -0.7347
  535MOL0     H73795   6.840   7.768   2.356  0.9020 -1.7261  0.7484
  535MOL0     H73796   6.921   7.560   2.458  1.5711 -1.2279  1.5150
  535MOL0     H73797   6.987   7.502   2.306  0.6227  0.2930 -0.5029
  535MOL0     H73798   7.106   7.710   2.491  2.4481 -1.9578  2.5681
  535MOL0     H73799   7.140   7.704   2.307 -3.8618  1.8520 -0.6046
  535MOL0     H73800   7.218   7.492   2.343 -0.8657  1.3201 -0.5514
  535MOL0     H73801   7.178   7.481   2.518  0.8041 -1.4296  0.1806
  535MOL0     H73802   7.397   7.643   2.372  0.2339  2.6580  0.1745
  535MOL0     H73803   7.327   7.721   2.509  0.5356  1.5977 -3.5740
  535MOL0     H73804   7.445   7.436   2.519 -1.3475 -0.1324 -1.5306
  535MOL0     H73805   7.394   7.528   2.658  2.0380  0.9603  0.5514
  535MOL0     H73806   7.576   7.696   2.626  1.0788  0.7785 -0.7765
  535MOL0     H73807   7.606   7.623   2.461 -0.2096  2.2328 -0.3040
  535MOL0     H73808   7.759   7.572   2.655 -0.2490  0.9511 -1.5143
  535MOL0     H73809   7.686   7.425   2.578 -0.2429 -1.4763  2.1779
  535MOL0     H73810   6.717   7.632   2.488 -0.4791  0.0842  1.4653
  535MOL0     H73811   6.512   7.598   2.592 -1.6177  2.1351 -0.2708
  535MOL0     H73812   6.100   7.594   2.584  1.7251 -0.6803 -1.2112
  535MOL0     H73813   5.869   7.600   2.650  4.9894  1.4548  2.7052
  535MOL0     H73814   5.801   7.764   1.834 -2.3972  0.7140 -0.2417
  535MOL0     H73815   5.997   7.916   1.770  0.5349 -0.7658  0.3266
  535MOL0     H73816   6.305   8.031   1.582  0.0955  0.8162  2.0160
  535MOL0     H73817   6.491   8.157   1.599  1.9536 -0.0069 -1.5744
  535MOL0     H73818   6.554   8.381   1.743 -0.6082 -1.1490 -0.0866
  535MOL0     H73819   6.644   8.317   1.607  1.2881 -0.2098  2.3250
  535MOL0     H73820   6.645   8.589   1.719 -0.2410  0.7578 -2.0651
  535MOL0     H73821   6.709   8.566   1.554  2.0856  0.8100  0.7256
  535MOL0     H73822   6.816   8.463   1.812 -1.3384 -0.2622 -0.2487
  535MOL0     H73823   6.853   8.378   1.665 -1.0414 -0.6380  1.4126
  535MOL0     H73824   6.924   8.665   1.719  0.6527 -0.2555  0.2742
  535MOL0     H73825   6.951   8.598   1.564 -0.2410 -0.8587  0.5698
  535MOL0     H73826   7.271   8.430   1.785 -0.2036  0.7557  2.7613
  535MOL0     H73827   6.257   8.490   1.437 -0.8894  0.5607  1.3900
  535MOL0     H73828   5.945   8.329   1.421 -0.4596  1.1809 -0.5457
  535MOL0     H73829   6.037   8.463   1.382 -0.0548 -0.4950  0.7913
  535MOL0     H73830   6.032   8.316   1.276  0.2192 -0.7501  0.5543
  536MOL0     O73831   3.687   3.966   3.438  0.3681 -0.6053  0.3314
  536MOL0     C73832   3.770   3.901   3.371  0.0687 -0.0964 -0.2170
  536MOL0     O73833   3.882   3.951   3.315 -0.2818  0.1737  0.0560
  536MOL0     C73834   3.926   4.079   3.337 -0.9261 -0.3485  0.1624
  536MOL0     C73835   3.863   4.198   3.393 -0.9807 -0.1517 -0.5259
  536MOL0     C73836   3.938   4.314   3.410  1.0186 -0.1946 -0.3192
  536MOL0     C73837   4.072   4.333   3.369  0.5548  0.4131  1.2680
  536MOL0     O73838   4.141   4.447   3.383 -0.6459 -0.2374 -0.1089
  536MOL0     C73839   4.086   4.575   3.418 -0.1551 -0.1187 -0.1302
  536MOL0     C73840   4.186   4.689   3.388  0.9647 -0.5713  0.0406
  536MOL0     C73841   4.284   4.713   3.502 -0.0121 -0.1524  0.0096
  536MOL0     C73842   4.422   4.761   3.452 -0.4782 -0.1201 -0.4549
  536MOL0     C73843   4.468   4.882   3.542 -0.1373 -0.8703  0.2770
  536MOL0     C73844   4.481   4.859   3.690 -1.1277 -0.0915 -0.5377
  536MOL0     C73845   4.601   4.761   3.725  0.3804 -0.7588  0.1370
  536MOL0     C73846   4.623   4.755   3.875 -0.3069  0.0646 -0.4053
  536MOL0     N73847   4.752   4.699   3.912 -0.4620  0.7688  0.9437
  536MOL0     C73848   4.790   4.567   3.914 -0.0413  1.3435  0.5078
  536MOL0     C73849   4.917   4.575   3.951  0.8281  0.0045 -0.8617
  536MOL0     C73850   5.001   4.455   3.984 -0.1470  0.1331 -0.8432
  536MOL0     C73851   5.135   4.467   3.911  0.2519 -0.3942 -0.1578
  536MOL0     C73852   5.220   4.339   3.944  0.5068 -0.6016  0.0778
  536MOL0     C73853   5.360   4.376   3.912 -0.4014  0.1795  0.6030
  536MOL0     O73854   5.431   4.247   3.905  0.0496  0.5267 -0.1673
  536MOL0     C73855   5.552   4.247   3.852 -0.5676  0.4079 -0.3593
  536MOL0     C73856   5.614   4.118   3.860 -0.2416 -0.2979  0.6105
  536MOL0     C73857   5.751   4.103   3.826 -0.0756  0.0590 -0.1606
  536MOL0     C73858   5.811   3.970   3.862 -0.1689 -0.9248  0.1536
  536MOL0     C73859   5.824   4.210   3.766  0.3355 -1.1999 -0.4965
  536MOL0     C73860   5.973   4.212   3.741 -0.2971 -0.3345  0.1265
  536MOL0     O73861   6.048   4.106   3.782 -0.0544  0.8302  0.3202
  536MOL0     C73862   6.177   4.096   3.743 -0.3083 -0.2539  0.0472
  536MOL0     C73863   6.272   4.190   3.784 -0.5475  0.6263 -0.2435
  536MOL0     C73864   6.399   4.194   3.722  0.0050 -0.3171  0.1851
  536MOL0     C73865   6.435   4.095   3.626  0.2142  0.2259  0.5091
  536MOL0     O73866   6.563   4.096   3.573 -0.4942  0.2146 -0.6122
  536MOL0     C73867   6.675   4.102   3.663 -1.0183  0.0628  0.1657
  536MOL0     C73868   6.797   4.040   3.576  0.6647  0.3304 -0.0469
  536MOL0     C73869   6.933   4.075   3.630  0.1973  0.1545  0.4946
  536MOL0     C73870   7.040   4.081   3.516 -1.0666 -0.9083 -0.1007
  536MOL0     C73871   7.177   4.105   3.580  0.1728 -1.0456 -0.1112
  536MOL0     C73872   7.274   4.036   3.491 -0.0383 -0.3986  0.3245
  536MOL0     C73873   7.415   4.097   3.506  0.4122 -0.0723  0.3993
  536MOL0     C73874   7.525   4.007   3.445 -0.1671 -1.0060 -0.4711
  536MOL0    Cl73875   7.681   4.085   3.455  0.2286 -0.2574 -0.1588
  536MOL0     C73876   6.339   4.000   3.585 -0.3107 -0.0434  0.2662
  536MOL0     C73877   6.209   4.004   3.643 -0.1148 -0.5088  0.0755
  536MOL0     O73878   6.013   4.311   3.681 -0.7687 -0.4891  0.3481
  536MOL0     C73879   5.750   4.331   3.742  0.4565  0.3825 -0.4007
  536MOL0     C73880   5.616   4.356   3.790  0.1512  0.1237 -0.1156
  536MOL0     N73881   4.951   4.708   3.983  0.0500  0.1461  0.9311
  536MOL0     N73882   4.853   4.778   3.950  0.0560 -0.1819 -0.6293
  536MOL0     C73883   4.136   4.214   3.325  1.1178  0.2842 -0.5855
  536MOL0     C73884   4.065   4.090   3.303  0.0423 -0.2248 -0.3845
  536MOL0     C73885   3.756   3.759   3.379 -0.7066 -0.1626  0.2127
  536MOL0     C73886   3.861   3.679   3.329 -0.2062 -0.1488  0.2889
  536MOL0     C73887   3.864   3.544   3.335  0.2712  0.2295 -0.4511
  536MOL0     C73888   3.757   3.471   3.392 -0.1477  0.5993  0.5153
  536MOL0     O73889   3.769   3.330   3.398  1.0414  0.4803 -0.8598
  536MOL0     C73890   3.851   3.282   3.508 -0.1235 -0.2097  0.0168
  536MOL0     C73891   3.886   3.131   3.546 -0.4083 -0.0962  0.6306
  536MOL0     C73892   3.966   3.119   3.676  1.0257  0.3872  0.2522
  536MOL0     C73893   3.993   2.967   3.708  0.2181 -0.7332 -0.2418
  536MOL0     C73894   4.089   2.949   3.820 -0.3734 -0.2177  0.0171
  536MOL0     C73895   4.168   2.938   3.907 -0.8130 -0.2505 -0.0331
  536MOL0     C73896   3.649   3.544   3.437 -0.1464  0.3630 -0.3872
  536MOL0     C73897   3.650   3.688   3.439  0.5631  0.6303  0.8117
  536MOL0     C73898   3.524   3.741   3.503  0.2884 -0.9549  0.0977
  536MOL0     H73899   3.761   4.196   3.429 -1.1934 -2.0659 -1.0833
  536MOL0     H73900   3.882   4.403   3.439  0.0409 -1.1646  0.8631
  536MOL0     H73901   4.064   4.581   3.525  4.1587  0.4957  0.9000
  536MOL0     H73902   3.997   4.579   3.354 -0.0919 -3.9370 -0.7221
  536MOL0     H73903   4.238   4.660   3.296 -0.3128 -1.5376 -0.4037
  536MOL0     H73904   4.139   4.787   3.377  2.2286 -0.0420 -0.8895
  536MOL0     H73905   4.249   4.787   3.575 -0.1775 -2.1470  2.0682
  536MOL0     H73906   4.298   4.622   3.560  0.4667 -0.0253  0.1016
  536MOL0     H73907   4.496   4.680   3.454  1.1001  1.2708  1.5080
  536MOL0     H73908   4.413   4.802   3.351 -1.2888 -2.2190 -1.2864
  536MOL0     H73909   4.387   4.955   3.539 -2.0468 -2.8968 -1.4202
  536MOL0     H73910   4.559   4.925   3.500 -1.2239  1.6286  0.3300
  536MOL0     H73911   4.512   4.950   3.742  1.9855 -0.4055 -1.5871
  536MOL0     H73912   4.391   4.818   3.737 -1.3388  1.1937  0.2319
  536MOL0     H73913   4.689   4.795   3.669 -2.3025  0.7962 -3.5087
  536MOL0     H73914   4.581   4.664   3.679  0.2531 -0.2251 -0.9618
  536MOL0     H73915   4.606   4.846   3.934  1.2367 -0.7115  1.3792
  536MOL0     H73916   4.540   4.691   3.906 -1.0099  0.9815 -0.3740
  536MOL0     H73917   4.738   4.479   3.879 -1.1309  2.8482 -1.9412
  536MOL0     H73918   4.946   4.367   3.949 -1.6630  1.2299 -1.2949
  536MOL0     H73919   5.006   4.459   4.093 -2.9019 -0.9061 -0.6021
  536MOL0     H73920   5.131   4.485   3.803  1.2891 -1.2022 -0.3518
  536MOL0     H73921   5.188   4.560   3.936 -3.0759  2.4486 -2.6754
  536MOL0     H73922   5.203   4.312   4.049 -0.4960 -0.9701 -0.1666
  536MOL0     H73923   5.183   4.257   3.883 -0.4225 -1.2317  1.4316
  536MOL0     H73924   5.362   4.432   3.819 -0.9571  0.4670  0.7616
  536MOL0     H73925   5.405   4.444   3.986 -0.5642  1.2298 -0.2478
  536MOL0     H73926   5.573   4.030   3.910  3.3871 -1.6042  1.5770
  536MOL0     H73927   5.724   3.905   3.878 -1.8526  1.3367  0.6407
  536MOL0     H73928   5.869   3.970   3.954  0.8429 -0.8409 -0.4684
  536MOL0     H73929   5.877   3.937   3.781  1.7258 -0.2569  1.3658
  536MOL0     H73930   6.251   4.254   3.869  0.4512  0.8899 -0.1765
  536MOL0     H73931   6.468   4.274   3.748 -1.3737 -0.0668  3.5633
  536MOL0     H73932   6.700   4.206   3.686 -0.3414 -0.2810  1.0065
  536MOL0     H73933   6.660   4.042   3.753 -1.1757  1.7684  1.3262
  536MOL0     H73934   6.787   3.931   3.567  1.2450  0.2571  0.1400
  536MOL0     H73935   6.782   4.076   3.473 -1.1726  0.0544  0.0986
  536MOL0     H73936   6.970   3.996   3.696  1.0366  0.1732  0.0716
  536MOL0     H73937   6.929   4.174   3.675 -1.0933 -0.1160  1.0078
  536MOL0     H73938   7.003   4.156   3.445 -0.1110 -0.8929 -0.5986
  536MOL0     H73939   7.053   3.980   3.476  2.3085 -0.1060 -1.4269
  536MOL0     H73940   7.189   4.213   3.599 -1.1499 -0.8537 -0.2773
  536MOL0     H73941   7.196   4.055   3.675  0.9596 -0.5658 -0.0023
  536MOL0     H73942   7.242   4.050   3.387 -0.9904  3.5187  0.9950
  536MOL0     H73943   7.291   3.932   3.521  2.1300  0.4746  2.4335
  536MOL0     H73944   7.434   4.136   3.606  0.7697  2.1220 -0.4621
  536MOL0     H73945   7.415   4.192   3.451  4.1698 -0.4079 -0.4879
  536MOL0     H73946   7.491   3.994   3.342 -3.2744 -0.1253  0.3431
  536MOL0     H73947   7.528   3.906   3.485  0.9544 -1.1213 -0.8049
  536MOL0     H73948   6.363   3.926   3.509 -0.5126  1.6364 -1.5100
  536MOL0     H73949   6.134   3.934   3.607 -1.9205  1.2488  0.2326
  536MOL0     H73950   5.811   4.408   3.696  3.5934  0.7297  3.7296
  536MOL0     H73951   5.578   4.458   3.794  0.9500  0.5891 -2.6509
  536MOL0     H73952   4.240   4.208   3.295  0.2238 -1.8764 -3.7910
  536MOL0     H73953   4.126   4.008   3.269 -0.1069  0.4660 -2.4629
  536MOL0     H73954   3.953   3.721   3.289  0.6538 -1.6529  0.5665
  536MOL0     H73955   3.952   3.496   3.293  0.2736 -1.2406  1.1139
  536MOL0     H73956   3.951   3.326   3.505  0.6071 -1.6548  1.3963
  536MOL0     H73957   3.803   3.320   3.598 -2.7616 -0.2244 -1.2977
  536MOL0     H73958   3.939   3.080   3.464 -1.1240 -1.4397  0.9752
  536MOL0     H73959   3.790   3.080   3.554 -1.9803  2.3698 -0.9519
  536MOL0     H73960   4.061   3.174   3.679 -0.6548  3.4679  0.7455
  536MOL0     H73961   3.900   3.155   3.755  2.3696  1.4190  0.9405
  536MOL0     H73962   4.046   2.922   3.623  3.4754  1.7471  0.2882
  536MOL0     H73963   3.900   2.915   3.735 -2.0041  1.5732 -2.8188
  536MOL0     H73964   4.244   2.924   3.981 -1.3973  0.2365  0.6780
  536MOL0     H73965   3.563   3.493   3.479 -0.6944  1.0481 -0.6672
  536MOL0     H73966   3.489   3.822   3.439  3.8024  1.9142  1.4186
  536MOL0     H73967   3.440   3.674   3.520 -0.9756  0.7631  0.9591
  536MOL0     H73968   3.549   3.784   3.601 -0.8961  2.2359 -0.8719
  537MOL0     O73969   3.663   4.205   0.271 -0.1261 -0.1618  0.0693
  537MOL0     C73970   3.560   4.155   0.325 -0.7184  0.2664 -0.3693
  537MOL0     O73971   3.532   4.148   0.452 -0.6855  0.1808 -0.3664
  537MOL0     C73972   3.617   4.214   0.534  0.1847  0.1045  0.8465
  537MOL0     C73973   3.589   4.336   0.579 -0.5016  0.1697 -0.5514
  537MOL0     C73974   3.675   4.403   0.668 -0.6738 -0.3392  0.7376
  537MOL0     C73975   3.780   4.334   0.721  0.6867 -0.1235 -0.3539
  537MOL0     O73976   3.852   4.401   0.822 -0.3989  0.2573 -0.6635
  537MOL0     C73977   3.960   4.331   0.886 -0.6264  1.0290 -0.3647
  537MOL0     C73978   4.049   4.399   0.982 -0.3445  0.8676  0.3670
  537MOL0     C73979   4.105   4.529   0.923 -0.3222 -0.3961 -0.0861
  537MOL0     C73980   4.218   4.577   1.015  0.5723 -0.6307  0.2994
  537MOL0     C73981   4.317   4.684   0.964 -0.0517 -0.1885  0.0489
  537MOL0     C73982   4.434   4.687   1.068 -0.2921  0.1338  0.1479
  537MOL0     C73983   4.557   4.760   1.028 -0.3023  0.2647  1.1423
  537MOL0     C73984   4.627   4.840   1.133 -0.5625 -0.4630  0.4518
  537MOL0     N73985   4.761   4.889   1.103 -0.0349  0.0802  0.1414
  537MOL0     C73986   4.778   4.987   1.018  0.5312 -0.5487  1.4226
  537MOL0     C73987   4.912   4.992   0.990  0.7484 -0.2577  0.1284
  537MOL0     C73988   4.988   5.076   0.889 -0.4512  0.6117  0.0432
  537MOL0     C73989   5.125   5.017   0.836 -0.7603  0.2282 -0.3169
  537MOL0     C73990   5.249   4.988   0.933 -0.6853  0.3629  0.1698
  537MOL0     C73991   5.371   4.958   0.848  0.3223  0.4186 -0.0615
  537MOL0     O73992   5.461   5.074   0.837  0.7030  0.2910  0.3592
  537MOL0     C73993   5.589   5.066   0.885  0.0334  0.6969 -0.2409
  537MOL0     C73994   5.635   4.993   1.002  0.3108 -1.3294  0.1439
  537MOL0     C73995   5.766   4.996   1.052 -0.0877  0.1401 -0.0327
  537MOL0     C73996   5.822   4.929   1.171  0.1879  0.4327 -0.4089
  537MOL0     C73997   5.857   5.061   0.968  0.5178 -0.1734 -0.1400
  537MOL0     C73998   6.005   5.088   1.004  0.6065  0.1680  0.5709
  537MOL0     O73999   6.052   5.204   0.967 -0.5355 -0.3838 -0.0099
  537MOL0     C74000   6.172   5.259   1.001 -1.1595  0.0056 -0.1561
  537MOL0     C74001   6.255   5.212   1.108  0.0871 -0.3214  0.9956
  537MOL0     C74002   6.374   5.273   1.137  0.2604  0.0572  0.4739
  537MOL0     C74003   6.412   5.388   1.059 -0.6285  0.2985 -0.4945
  537MOL0     O74004   6.539   5.454   1.075 -0.1650 -0.8085  0.0761
  537MOL0     C74005   6.616   5.426   1.190  0.4125  0.0995  0.4689
  537MOL0     C74006   6.754   5.500   1.167 -0.2786  0.4354 -0.3638
  537MOL0     C74007   6.836   5.503   1.292 -0.1493 -0.0001  0.6728
  537MOL0     C74008   6.955   5.604   1.274  0.7550  0.1294 -0.2602
  537MOL0     C74009   7.065   5.600   1.394 -0.3153  0.7215 -0.3164
  537MOL0     C74010   7.020   5.659   1.528 -0.4189  0.5772  0.2523
  537MOL0     C74011   7.127   5.643   1.631 -0.6410  0.1207 -0.2655
  537MOL0     C74012   7.103   5.735   1.753  0.4942  1.5302  0.3738
  537MOL0    Cl74013   7.151   5.899   1.739 -0.3311  0.5044 -0.0158
  537MOL0     C74014   6.336   5.433   0.960 -0.3530 -1.1846  0.6870
  537MOL0     C74015   6.215   5.377   0.931  0.6278 -0.7410 -0.0423
  537MOL0     O74016   6.071   4.990   1.049  0.7607 -0.4107  0.2185
  537MOL0     C74017   5.819   5.128   0.847 -0.5024 -0.2699  0.6734
  537MOL0     C74018   5.681   5.134   0.808  0.1068  0.3833  1.0272
  537MOL0     N74019   4.972   4.886   1.070  0.1197 -0.5289  1.4849
  537MOL0     N74020   4.876   4.824   1.128 -0.1542  1.2500 -0.2310
  537MOL0     C74021   3.817   4.204   0.674 -0.0233 -0.8704  0.2881
  537MOL0     C74022   3.738   4.149   0.574 -0.6501  0.3554  0.0064
  537MOL0     C74023   3.452   4.117   0.229  0.3508  0.1080  0.1218
  537MOL0     C74024   3.329   4.195   0.243 -0.3631  0.0831 -0.8068
  537MOL0     C74025   3.225   4.170   0.152 -0.1142 -0.6304 -0.2568
  537MOL0     C74026   3.244   4.075   0.042 -0.2161  0.0034  0.4798
  537MOL0     O74027   3.130   4.046  -0.042  0.8459  0.0072 -0.6304
  537MOL0     C74028   2.996   4.096  -0.014 -0.9107  0.2542  0.4162
  537MOL0     C74029   2.902   4.067  -0.126 -0.0508  0.3014  0.4490
  537MOL0     C74030   2.854   3.930  -0.138 -0.1934  0.8523  0.5503
  537MOL0     C74031   2.725   3.917  -0.228  0.2852 -0.2075 -0.6135
  537MOL0     C74032   2.762   3.915  -0.370 -0.0485 -0.3712 -0.3493
  537MOL0     C74033   2.764   3.924  -0.489  0.5184  0.0745 -0.7757
  537MOL0     C74034   3.369   4.009   0.030  0.2680  0.6469 -0.5020
  537MOL0     C74035   3.474   4.028   0.124 -0.0087  0.0791  0.0862
  537MOL0     C74036   3.610   3.956   0.111  0.7992 -0.2913 -0.5976
  537MOL0     H74037   3.500   4.394   0.554 -0.1904  1.6715  1.5912
  537MOL0     H74038   3.657   4.505   0.700  1.4648 -0.0110  1.0984
  537MOL0     H74039   4.030   4.274   0.824 -0.8264 -1.6897  1.7118
  537MOL0     H74040   3.912   4.250   0.942  2.9987 -2.0710 -1.3135
  537MOL0     H74041   3.991   4.430   1.070  1.8776  0.5805  2.0072
  537MOL0     H74042   4.119   4.326   1.024 -3.2708 -1.2871  1.9029
  537MOL0     H74043   4.145   4.514   0.822 -0.6358  1.3201 -0.4925
  537MOL0     H74044   4.021   4.599   0.917  0.4654  0.5929  0.1794
  537MOL0     H74045   4.163   4.619   1.100 -3.2560 -0.7985 -1.8684
  537MOL0     H74046   4.273   4.496   1.063 -0.1184 -0.8744  0.7114
  537MOL0     H74047   4.273   4.781   0.942  0.6198 -0.1193 -1.0468
  537MOL0     H74048   4.351   4.647   0.867  0.7426  2.8086 -0.9137
  537MOL0     H74049   4.386   4.712   1.163 -1.3384  2.6818 -0.9733
  537MOL0     H74050   4.475   4.586   1.075  4.0530  1.8286  2.8808
  537MOL0     H74051   4.528   4.829   0.947 -1.5163  1.4095  2.4903
  537MOL0     H74052   4.632   4.698   0.978 -1.8874 -0.8566  0.0443
  537MOL0     H74053   4.565   4.923   1.168 -3.2793 -2.5035  0.7505
  537MOL0     H74054   4.627   4.784   1.227 -2.6256 -1.0423  0.1506
  537MOL0     H74055   4.705   5.048   0.965 -0.8279 -2.0061  1.5449
  537MOL0     H74056   5.011   5.176   0.927  3.1315  0.5922 -1.5905
  537MOL0     H74057   4.919   5.080   0.804 -2.4125 -0.8241  1.4865
  537MOL0     H74058   5.096   4.919   0.797  0.3841  0.8002 -2.8027
  537MOL0     H74059   5.162   5.079   0.754 -0.4994  0.4292 -0.0492
  537MOL0     H74060   5.260   5.080   0.990 -2.2244 -0.2602  1.5773
  537MOL0     H74061   5.236   4.900   0.997  2.8577 -0.6609 -0.3067
  537MOL0     H74062   5.430   4.878   0.893  0.6229  0.5646 -0.1900
  537MOL0     H74063   5.342   4.931   0.747 -1.8580 -1.7308  1.0410
  537MOL0     H74064   5.559   4.944   1.063  1.3345 -1.4601  1.3681
  537MOL0     H74065   5.870   5.008   1.229 -2.9022  1.0199  1.5858
  537MOL0     H74066   5.890   4.849   1.142 -0.4524  0.6210 -2.6469
  537MOL0     H74067   5.743   4.884   1.233 -0.9035 -0.5686 -2.3983
  537MOL0     H74068   6.216   5.130   1.169 -2.7635 -2.5852 -3.3413
  537MOL0     H74069   6.436   5.229   1.214  1.3110  1.0885  0.2604
  537MOL0     H74070   6.558   5.467   1.273 -2.0180 -0.8714 -0.6699
  537MOL0     H74071   6.630   5.319   1.208 -0.9058  0.1022  1.6462
  537MOL0     H74072   6.814   5.442   1.096  2.8796  0.6959  1.8775
  537MOL0     H74073   6.739   5.593   1.111  1.8585  1.1119  0.0862
  537MOL0     H74074   6.888   5.406   1.298  3.5494  1.8329  0.9665
  537MOL0     H74075   6.774   5.533   1.377  1.6484 -1.2557  2.5571
  537MOL0     H74076   6.905   5.701   1.278 -2.3262 -1.3764  2.8300
  537MOL0     H74077   6.998   5.597   1.174 -3.2641  2.7030 -2.4260
  537MOL0     H74078   7.091   5.496   1.415 -1.7987  0.5291  0.7408
  537MOL0     H74079   7.150   5.653   1.349 -0.0440 -0.8834 -1.8009
  537MOL0     H74080   6.919   5.624   1.551 -1.1284  2.3544 -0.0252
  537MOL0     H74081   6.996   5.765   1.517  2.7189  1.5128  1.3111
  537MOL0     H74082   7.222   5.657   1.580 -2.4620 -0.9550 -4.4186
  537MOL0     H74083   7.116   5.539   1.661 -3.5102  0.0574 -1.2186
  537MOL0     H74084   7.143   5.692   1.845 -3.3528 -2.9462  0.3057
  537MOL0     H74085   6.994   5.733   1.761  0.3526  0.0360 -1.3515
  537MOL0     H74086   6.369   5.524   0.910 -0.8383  0.7832  3.6576
  537MOL0     H74087   6.148   5.420   0.857  1.6432  1.2912  0.1518
  537MOL0     H74088   5.886   5.180   0.779 -0.8139  0.8160  1.1724
  537MOL0     H74089   5.646   5.195   0.725  0.5850  0.3488  0.7976
  537MOL0     H74090   3.901   4.152   0.717 -0.7054 -0.2081  2.5686
  537MOL0     H74091   3.764   4.055   0.526  3.4450  0.8270  0.9685
  537MOL0     H74092   3.320   4.273   0.317 -1.9222  1.4273 -2.3270
  537MOL0     H74093   3.128   4.220   0.151 -0.5655 -1.4753 -1.8180
  537MOL0     H74094   2.950   4.060   0.078 -4.0706 -0.5250 -1.3024
  537MOL0     H74095   3.004   4.204  -0.001  0.2160  0.3179 -0.5904
  537MOL0     H74096   2.948   4.092  -0.221 -0.9170  2.5716  0.5686
  537MOL0     H74097   2.816   4.134  -0.112 -0.9856  0.4782 -4.4445
  537MOL0     H74098   2.929   3.863  -0.182 -0.7348 -1.1250  2.4935
  537MOL0     H74099   2.826   3.891  -0.040  4.2117 -1.8755  1.0319
  537MOL0     H74100   2.651   3.996  -0.211 -1.0980 -1.3923 -0.9624
  537MOL0     H74101   2.682   3.820  -0.202  1.8615 -1.3926 -2.2264
  537MOL0     H74102   2.751   3.943  -0.593 -1.7163  0.1495 -0.5396
  537MOL0     H74103   3.390   3.944  -0.055  0.5224 -0.3361  0.2866
  537MOL0     H74104   3.633   3.901   0.203  1.1065  1.9872  0.7643
  537MOL0     H74105   3.612   3.880   0.033  1.6292 -0.8076 -0.0891
  537MOL0     H74106   3.682   4.038   0.104 -1.1056  2.0977  3.7279
  538MOL0     O74107  10.051   4.404   3.802 -0.8987  0.1534 -0.0645
  538MOL0     C74108   9.996   4.471   3.882  0.0866  0.0630  0.5685
  538MOL0     O74109  10.058   4.533   3.988 -0.3199  0.7187 -0.1660
  538MOL0     C74110  10.196   4.516   4.002  0.1409  0.4303 -0.3032
  538MOL0     C74111  10.288   4.582   3.913 -0.8910 -0.1082  0.6309
  538MOL0     C74112  10.427   4.565   3.926  0.4586  0.1822 -1.1753
  538MOL0     C74113  10.472   4.489   4.031 -0.5001 -1.0492 -0.6723
  538MOL0     O74114  10.607   4.482   4.072  0.1025  1.1235  0.2497
  538MOL0     C74115  10.668   4.350   4.049 -0.5209  0.0292 -0.4667
  538MOL0     C74116  10.713   4.337   3.901 -0.8886  0.5878 -0.3940
  538MOL0     C74117  10.855   4.407   3.870  0.1082 -0.2472  0.0406
  538MOL0     C74118  10.855   4.557   3.874 -0.3052  0.9676  0.3509
  538MOL0     C74119  10.953   4.641   3.792  0.0992  0.3627  0.5040
  538MOL0     C74120  11.094   4.619   3.841 -0.0548  0.6277 -0.2068
  538MOL0     C74121  11.201   4.706   3.775  0.2341  0.2219 -0.3655
  538MOL0     C74122  11.320   4.743   3.861  0.3375  0.2940  0.1480
  538MOL0     N74123  11.423   4.644   3.863  0.9820 -0.3719 -0.0756
  538MOL0     C74124  11.544   4.644   3.799  0.3563  0.1346 -0.0008
  538MOL0     C74125  11.625   4.549   3.854 -0.0054 -0.1779  1.0943
  538MOL0     C74126  11.765   4.528   3.817 -0.2093 -0.9003  0.0889
  538MOL0     C74127  11.851   4.601   3.922  0.0064 -0.0159  0.4481
  538MOL0     C74128  11.998   4.575   3.884 -0.1235  0.4014 -0.3567
  538MOL0     C74129  12.088   4.646   3.985 -0.0304  0.0876 -0.5298
  538MOL0     O74130  12.227   4.643   3.931  0.3990 -0.2093 -0.1017
  538MOL0     C74131  12.329   4.658   4.024 -0.3609 -0.2976 -0.1905
  538MOL0     C74132  12.318   4.639   4.165 -0.2665 -0.8173 -0.0723
  538MOL0     C74133  12.432   4.658   4.240 -0.4295 -0.4121 -0.4179
  538MOL0     C74134  12.415   4.655   4.395  0.3517  0.0843 -0.0061
  538MOL0     C74135  12.558   4.668   4.179 -0.0441 -0.2432 -0.5417
  538MOL0     C74136  12.687   4.671   4.253  0.0116 -0.5363 -1.3887
  538MOL0     O74137  12.804   4.678   4.180 -0.5311  0.4143 -0.7131
  538MOL0     C74138  12.912   4.753   4.223 -1.2538 -0.0894 -0.2869
  538MOL0     C74139  13.042   4.701   4.199  0.3363  0.4727 -0.1701
  538MOL0     C74140  13.159   4.770   4.225  0.4271 -0.2185  0.2337
  538MOL0     C74141  13.146   4.895   4.290  0.2177 -0.6064  0.4753
  538MOL0     O74142  13.259   4.953   4.340  0.3437 -0.1102 -0.0297
  538MOL0     C74143  13.260   5.094   4.335  0.4240  0.3913 -0.6175
  538MOL0     C74144  13.411   5.132   4.327 -0.3861  0.2236 -0.7601
  538MOL0     C74145  13.490   5.113   4.459 -0.8533  0.4405  0.4550
  538MOL0     C74146  13.495   5.233   4.547  0.0513  0.0383 -0.2374
  538MOL0     C74147  13.528   5.181   4.695 -1.0829  0.5821 -0.0853
  538MOL0     C74148  13.675   5.141   4.704  0.0183 -0.7579  0.3441
  538MOL0     C74149  13.713   5.088   4.848 -0.1522 -0.0988 -0.0812
  538MOL0     C74150  13.863   5.051   4.878 -0.0328 -0.0870  0.4668
  538MOL0    Cl74151  13.956   5.201   4.850 -0.4262 -0.2162 -0.0120
  538MOL0     C74152  13.021   4.951   4.324 -0.0935 -0.8651  0.4442
  538MOL0     C74153  12.908   4.881   4.296 -0.1786  0.4959  0.3314
  538MOL0     O74154  12.678   4.675   4.374 -0.2831  0.1768 -0.7624
  538MOL0     C74155  12.562   4.692   4.036  0.3150  0.2433 -0.0949
  538MOL0     C74156  12.446   4.682   3.956 -0.3638 -0.2336  0.0438
  538MOL0     N74157  11.541   4.480   3.943  1.0537 -0.3211 -0.8896
  538MOL0     N74158  11.428   4.534   3.951  0.4739  0.5253  0.0609
  538MOL0     C74159  10.388   4.444   4.127  0.1428  0.4041  0.4562
  538MOL0     C74160  10.252   4.439   4.107 -0.5597 -0.2010  0.2826
  538MOL0     C74161   9.856   4.503   3.857 -0.1331 -0.1980  0.3756
  538MOL0     C74162   9.800   4.620   3.922  0.8063 -0.1165 -0.1100
  538MOL0     C74163   9.672   4.682   3.898 -0.3892  0.8775  0.2187
  538MOL0     C74164   9.591   4.620   3.808  1.0504  0.0544  0.3460
  538MOL0     O74165   9.473   4.675   3.760 -0.5584  0.5622 -0.4502
  538MOL0     C74166   9.408   4.774   3.841 -0.5364  0.0798 -0.1407
  538MOL0     C74167   9.273   4.814   3.781  0.4212 -0.3245 -0.1768
  538MOL0     C74168   9.160   4.707   3.764  0.8401  0.1373 -0.5824
  538MOL0     C74169   9.137   4.628   3.885 -0.7469  0.2893  0.0480
  538MOL0     C74170   9.018   4.545   3.872  0.0254 -1.2052 -0.6907
  538MOL0     C74171   8.919   4.481   3.856  0.2118  0.0821  0.1508
  538MOL0     C74172   9.636   4.503   3.740  0.3933  0.8789  0.1874
  538MOL0     C74173   9.769   4.450   3.759 -0.0484 -0.5353 -0.0949
  538MOL0     C74174   9.809   4.336   3.665 -1.0143 -0.0432 -0.2961
  538MOL0     H74175  10.261   4.652   3.835  0.5427 -0.4841 -0.2378
  538MOL0     H74176  10.506   4.612   3.869  1.6128  0.8705  0.8610
  538MOL0     H74177  10.591   4.274   4.063  1.5234 -1.9377  0.7702
  538MOL0     H74178  10.750   4.321   4.115 -1.8440 -2.6028  0.1595
  538MOL0     H74179  10.724   4.229   3.894  0.7774  0.6942  0.1772
  538MOL0     H74180  10.635   4.372   3.833 -0.8514  1.0521 -0.2022
  538MOL0     H74181  10.932   4.376   3.941  0.7963  1.7760  0.2417
  538MOL0     H74182  10.886   4.396   3.766  1.1656  0.2672  0.2886
  538MOL0     H74183  10.756   4.581   3.834 -0.0776  1.1634 -0.0943
  538MOL0     H74184  10.862   4.596   3.976 -0.8081 -0.0523  0.7900
  538MOL0     H74185  10.931   4.747   3.804 -1.5554 -0.1777  2.9413
  538MOL0     H74186  10.938   4.607   3.689  0.5429 -0.1672  0.6065
  538MOL0     H74187  11.104   4.630   3.949 -1.1818  2.6833 -0.2687
  538MOL0     H74188  11.121   4.516   3.813 -1.1103  0.6137 -1.2617
  538MOL0     H74189  11.149   4.795   3.738 -2.1035 -1.3021 -0.9556
  538MOL0     H74190  11.244   4.659   3.685  3.7427 -1.0400  1.7613
  538MOL0     H74191  11.361   4.834   3.816 -2.2428  0.3240 -2.4281
  538MOL0     H74192  11.288   4.755   3.965  1.0211  1.4789  0.2440
  538MOL0     H74193  11.593   4.713   3.731  1.5444 -0.4019  0.2848
  538MOL0     H74194  11.788   4.566   3.717  0.0021  3.7371  1.6489
  538MOL0     H74195  11.780   4.419   3.819 -1.8114 -1.1802 -1.2162
  538MOL0     H74196  11.833   4.709   3.927  0.9317  0.2832 -1.5615
  538MOL0     H74197  11.839   4.563   4.024  0.6335  0.8597  0.8589
  538MOL0     H74198  12.030   4.471   3.873  0.6681  0.7165 -1.2044
  538MOL0     H74199  12.018   4.605   3.780  2.8660 -1.9059 -0.6183
  538MOL0     H74200  12.051   4.748   3.997  1.2448  0.5545 -0.4204
  538MOL0     H74201  12.082   4.590   4.078  0.0015 -1.8183 -1.6128
  538MOL0     H74202  12.223   4.634   4.217 -0.3144 -1.1926 -0.1912
  538MOL0     H74203  12.482   4.577   4.432  0.0423 -1.2425 -2.0802
  538MOL0     H74204  12.312   4.635   4.426  0.4043  0.8710  0.6930
  538MOL0     H74205  12.442   4.750   4.442 -0.0930 -0.0688  0.5741
  538MOL0     H74206  13.049   4.602   4.155  1.1335 -0.0366  1.0456
  538MOL0     H74207  13.251   4.716   4.205 -0.4902 -1.2628 -1.4048
  538MOL0     H74208  13.203   5.142   4.255  1.4896  1.4220 -0.7769
  538MOL0     H74209  13.223   5.150   4.422 -0.9098 -0.1716 -0.7866
  538MOL0     H74210  13.461   5.074   4.249 -0.1968 -1.9169  0.8683
  538MOL0     H74211  13.425   5.236   4.295  2.4049 -0.6660 -2.9186
  538MOL0     H74212  13.594   5.088   4.433 -1.0347 -0.0144  0.1571
  538MOL0     H74213  13.446   5.030   4.515  1.0945 -0.5851  0.5878
  538MOL0     H74214  13.401   5.288   4.557 -0.4526 -1.2048  2.6384
  538MOL0     H74215  13.570   5.307   4.518  0.5183 -1.0529 -2.0192
  538MOL0     H74216  13.522   5.266   4.763  1.0145  1.3125 -0.7348
  538MOL0     H74217  13.464   5.097   4.722 -0.9103 -0.1418 -1.8187
  538MOL0     H74218  13.721   5.234   4.670 -3.2630  1.0366  0.4451
  538MOL0     H74219  13.699   5.057   4.637  0.4915 -1.1973  1.0545
  538MOL0     H74220  13.648   5.000   4.859  1.7564 -1.5788  0.0708
  538MOL0     H74221  13.677   5.160   4.922 -2.1448  1.4862 -2.4546
  538MOL0     H74222  13.906   4.979   4.808  3.0660  2.4721 -0.5207
  538MOL0     H74223  13.857   5.019   4.982 -0.9625  0.6795  0.6682
  538MOL0     H74224  13.003   5.046   4.374 -0.4743  0.5615 -2.1820
  538MOL0     H74225  12.821   4.939   4.324  1.7244  3.6234  0.2349
  538MOL0     H74226  12.653   4.722   3.985 -0.4611  0.7493 -1.2196
  538MOL0     H74227  12.437   4.684   3.848 -0.3387 -2.3890 -0.0418
  538MOL0     H74228  10.443   4.405   4.212 -0.1041 -0.3254  0.2883
  538MOL0     H74229  10.171   4.408   4.173 -1.6762  1.9343  0.0094
  538MOL0     H74230   9.866   4.671   3.992  2.9724  1.9717 -3.3590
  538MOL0     H74231   9.659   4.773   3.956 -0.5893  1.5539 -0.8622
  538MOL0     H74232   9.396   4.744   3.946 -0.0141  1.0589  0.2216
  538MOL0     H74233   9.480   4.855   3.854  1.5374 -1.8958  1.6070
  538MOL0     H74234   9.299   4.849   3.681  0.1639 -2.6730 -1.1267
  538MOL0     H74235   9.228   4.897   3.836 -3.0669 -1.4675 -1.1111
  538MOL0     H74236   9.066   4.755   3.733 -0.1043 -2.5360 -2.2083
  538MOL0     H74237   9.181   4.647   3.675 -0.9624 -1.2293 -0.1372
  538MOL0     H74238   9.122   4.692   3.973 -0.7220  0.0179  0.2522
  538MOL0     H74239   9.223   4.563   3.904  1.5734  2.8530 -1.0934
  538MOL0     H74240   8.832   4.422   3.834  1.6158 -1.7279 -0.8478
  538MOL0     H74241   9.569   4.465   3.664  0.3540 -0.0877  0.6907
  538MOL0     H74242   9.861   4.376   3.577 -1.6344 -0.3793 -0.8281
  538MOL0     H74243   9.874   4.264   3.714 -1.7793 -0.0395  0.7630
  538MOL0     H74244   9.717   4.281   3.640 -1.2279  1.0695 -2.1734
  539MOL0     O74245   7.688   7.220   9.399 -0.1112 -0.9093  0.2421
  539MOL0     C74246   7.672   7.232   9.524  0.5429  0.8636  0.1605
  539MOL0     O74247   7.767   7.251   9.616  0.3928 -0.0423  0.2795
  539MOL0     C74248   7.884   7.208   9.578  1.0356  0.8580 -0.7850
  539MOL0     C74249   7.930   7.081   9.617 -0.5633 -0.6651 -0.6855
  539MOL0     C74250   8.051   7.031   9.593  0.1379 -0.8652  0.6012
  539MOL0     C74251   8.127   7.098   9.490 -0.0131 -0.1160 -0.0320
  539MOL0     O74252   8.244   7.055   9.438  0.2297 -0.0869 -0.4919
  539MOL0     C74253   8.279   6.921   9.462  0.4211  0.5896  0.4229
  539MOL0     C74254   8.404   6.891   9.384 -0.0642 -0.6577 -0.3398
  539MOL0     C74255   8.484   6.767   9.430 -0.1481 -0.9913 -0.1325
  539MOL0     C74256   8.606   6.750   9.337  0.0819  0.2484 -0.4877
  539MOL0     C74257   8.702   6.646   9.402  0.2495  0.6211 -0.1063
  539MOL0     C74258   8.824   6.607   9.324 -0.2524  0.2130  0.4869
  539MOL0     C74259   8.864   6.461   9.371  0.6434 -0.4997 -0.0419
  539MOL0     C74260   8.771   6.359   9.312 -0.0620 -0.2267 -0.2354
  539MOL0     N74261   8.824   6.221   9.317  0.5590  0.6022  0.2754
  539MOL0     C74262   8.764   6.116   9.254  0.4422 -0.3492 -0.0761
  539MOL0     C74263   8.835   6.002   9.281  0.0551 -0.4893  0.0475
  539MOL0     C74264   8.818   5.853   9.244  0.9868 -0.5741  0.0378
  539MOL0     C74265   8.867   5.822   9.108  0.3713  0.0379  1.4146
  539MOL0     C74266   8.878   5.666   9.084  0.0689 -0.8744 -0.2845
  539MOL0     C74267   8.960   5.635   8.957 -0.1014 -0.1937  0.7434
  539MOL0     O74268   8.897   5.698   8.853  0.3966  0.3154  0.0642
  539MOL0     C74269   8.957   5.730   8.730  0.2942 -0.8244 -1.2454
  539MOL0     C74270   8.893   5.828   8.645  0.0169 -0.0928 -0.1446
  539MOL0     C74271   8.962   5.880   8.529  0.4279  0.2664 -0.0882
  539MOL0     C74272   8.880   5.981   8.441 -0.5427  0.2070  0.4867
  539MOL0     C74273   9.088   5.833   8.485 -0.1119 -0.8856  1.0546
  539MOL0     C74274   9.166   5.880   8.364 -0.5611 -0.5178 -0.0675
  539MOL0     O74275   9.272   5.799   8.326 -0.0129 -0.4043  0.1323
  539MOL0     C74276   9.362   5.834   8.230 -0.1867  0.4298 -0.5766
  539MOL0     C74277   9.332   5.872   8.102  0.6357  1.1935 -0.2618
  539MOL0     C74278   9.437   5.906   8.019  0.7607  0.2685 -0.2082
  539MOL0     C74279   9.569   5.915   8.066 -0.1664  0.8707 -0.3681
  539MOL0     O74280   9.658   5.963   7.975  0.1951 -0.3002  0.0624
  539MOL0     C74281   9.785   6.014   8.026 -0.2733  0.5973  0.2573
  539MOL0     C74282   9.833   6.138   7.939  0.3248 -0.4037 -0.8442
  539MOL0     C74283   9.890   6.104   7.799 -0.0765  0.4296 -0.6106
  539MOL0     C74284   9.968   6.223   7.767  0.1910 -0.4758  0.0997
  539MOL0     C74285  10.046   6.209   7.635 -0.5177 -0.0591  0.9620
  539MOL0     C74286  10.152   6.325   7.638  0.2662  0.2303  0.7697
  539MOL0     C74287  10.238   6.314   7.512  0.1365  0.9004  0.3906
  539MOL0     C74288  10.328   6.431   7.501 -0.4335 -0.5552  0.4754
  539MOL0    Cl74289  10.439   6.384   7.380  0.2662 -0.0918 -0.2543
  539MOL0     C74290   9.597   5.874   8.193  0.2493  0.5015 -0.1057
  539MOL0     C74291   9.496   5.835   8.268 -0.7683 -0.0560 -0.6337
  539MOL0     O74292   9.143   5.993   8.317  0.1849  0.4475 -0.0663
  539MOL0     C74293   9.139   5.721   8.555  0.1134  0.0358 -0.2860
  539MOL0     C74294   9.079   5.674   8.678  0.5060 -0.6137 -0.4540
  539MOL0     N74295   8.940   6.050   9.356 -0.5041 -0.3422 -0.4950
  539MOL0     N74296   8.938   6.175   9.380  0.6683 -0.8004 -0.7292
  539MOL0     C74297   8.089   7.224   9.454  0.3978  0.0936 -0.2811
  539MOL0     C74298   7.967   7.278   9.494 -0.0298 -0.3308 -0.5074
  539MOL0     C74299   7.531   7.245   9.573 -0.5194  0.8169 -0.9502
  539MOL0     C74300   7.515   7.268   9.713  0.0125 -0.2409  0.1777
  539MOL0     C74301   7.388   7.297   9.767 -0.7925 -0.3946  0.0568
  539MOL0     C74302   7.273   7.289   9.700 -0.0491  0.2219 -0.4944
  539MOL0     O74303   7.161   7.320   9.773 -0.0201  0.1795  0.6955
  539MOL0     C74304   7.032   7.270   9.734  0.4702  0.3829  0.2761
  539MOL0     C74305   7.017   7.121   9.762  0.1562  0.2258  0.2933
  539MOL0     C74306   6.866   7.074   9.778  1.0940 -1.4809  0.6675
  539MOL0     C74307   6.792   7.140   9.897 -0.6095 -0.3435  1.1298
  539MOL0     C74308   6.659   7.077   9.921 -0.3869  0.1679  0.1697
  539MOL0     C74309   6.547   7.037   9.956  0.0070 -0.3338 -0.0599
  539MOL0     C74310   7.287   7.279   9.563  0.1305  0.1902  0.0112
  539MOL0     C74311   7.408   7.248   9.499  0.6432 -0.3898 -0.9587
  539MOL0     C74312   7.404   7.230   9.356 -0.0757 -0.2350 -0.0479
  539MOL0     H74313   7.865   7.020   9.680 -2.1514  0.4649 -1.1650
  539MOL0     H74314   8.095   6.942   9.638  0.3387 -1.3569 -0.5261
  539MOL0     H74315   8.195   6.861   9.424 -1.0217  1.8514  1.4712
  539MOL0     H74316   8.300   6.905   9.568  1.7435  1.7061  0.3537
  539MOL0     H74317   8.378   6.881   9.279  3.1553  0.7274 -1.3783
  539MOL0     H74318   8.471   6.977   9.393 -0.0919 -0.5375 -1.2644
  539MOL0     H74319   8.527   6.782   9.529 -1.3291  4.0636 -0.1112
  539MOL0     H74320   8.418   6.680   9.427 -0.4843 -0.7499  0.2977
  539MOL0     H74321   8.560   6.698   9.252 -1.7474 -1.9319  1.6845
  539MOL0     H74322   8.660   6.842   9.315  1.3466 -0.6112 -1.0923
  539MOL0     H74323   8.652   6.559   9.444 -1.4831  1.1125 -1.0705
  539MOL0     H74324   8.737   6.696   9.493 -3.9502  1.5644  1.1942
  539MOL0     H74325   8.807   6.609   9.216  1.5076  0.0382  0.1826
  539MOL0     H74326   8.898   6.683   9.350  0.2466 -0.4621  1.0941
  539MOL0     H74327   8.860   6.456   9.480  0.7833  1.5292  0.0810
  539MOL0     H74328   8.961   6.438   9.326  0.7201 -1.0983  0.4120
  539MOL0     H74329   8.679   6.353   9.371  0.8293 -1.3762  1.1012
  539MOL0     H74330   8.730   6.381   9.213 -2.1489  0.3980  0.7106
  539MOL0     H74331   8.669   6.124   9.202  0.0286 -0.5396  0.6371
  539MOL0     H74332   8.715   5.817   9.249 -0.0445  1.7265 -2.4047
  539MOL0     H74333   8.880   5.796   9.315  0.1682 -1.2757  0.2019
  539MOL0     H74334   8.809   5.867   9.027  0.1678 -0.3331  1.3549
  539MOL0     H74335   8.968   5.864   9.100  0.4862 -0.2611  1.2821
  539MOL0     H74336   8.938   5.627   9.167  2.3917 -0.5403 -1.7344
  539MOL0     H74337   8.783   5.614   9.100  1.1205 -2.1899  2.2397
  539MOL0     H74338   9.064   5.668   8.967  0.1896 -1.2765  1.4005
  539MOL0     H74339   8.951   5.526   8.948  0.7591 -0.3790  1.8776
  539MOL0     H74340   8.800   5.870   8.682  0.8834 -0.4569  2.6609
  539MOL0     H74341   8.929   6.076   8.466 -0.2920 -0.5681  3.2327
  539MOL0     H74342   8.774   5.990   8.466 -1.7253  2.9296 -4.2345
  539MOL0     H74343   8.882   5.965   8.333  0.4875  1.3551  0.3041
  539MOL0     H74344   9.233   5.859   8.059  1.0019  0.5150 -0.9275
  539MOL0     H74345   9.411   5.928   7.916  0.4184 -0.7016 -0.3309
  539MOL0     H74346   9.766   6.064   8.122  0.8080 -1.4036  1.5741
  539MOL0     H74347   9.851   5.929   8.046 -0.9022  0.2970  1.1134
  539MOL0     H74348   9.749   6.208   7.939 -0.5261 -1.3386 -3.1551
  539MOL0     H74349   9.913   6.183   8.000 -0.5097 -0.6129  0.4455
  539MOL0     H74350   9.808   6.085   7.729  0.9825  1.7965 -2.3191
  539MOL0     H74351   9.960   6.021   7.810 -0.1241  0.3754 -0.7108
  539MOL0     H74352  10.043   6.248   7.843  2.6954  3.1895 -3.1763
  539MOL0     H74353   9.887   6.296   7.766 -1.6224 -2.2957  2.0312
  539MOL0     H74354  10.093   6.110   7.641  2.8332  1.4764  3.0412
  539MOL0     H74355   9.984   6.221   7.546  2.2268 -0.2519 -1.1200
  539MOL0     H74356  10.221   6.305   7.721  0.0846 -1.9825  0.4496
  539MOL0     H74357  10.106   6.424   7.643 -0.6897  0.0422 -2.4285
  539MOL0     H74358  10.183   6.299   7.419 -0.9797 -1.5181  1.3626
  539MOL0     H74359  10.287   6.217   7.524 -0.5654  0.1172 -2.4732
  539MOL0     H74360  10.383   6.453   7.593 -0.1708 -1.6418  0.5868
  539MOL0     H74361  10.259   6.513   7.477 -0.5652  0.6165  4.2192
  539MOL0     H74362   9.702   5.871   8.221  0.4874  1.8378 -0.8034
  539MOL0     H74363   9.521   5.780   8.358 -0.3210 -0.6706 -1.1281
  539MOL0     H74364   9.232   5.675   8.523 -0.0841 -1.2570  0.9141
  539MOL0     H74365   9.114   5.593   8.741 -1.6115  0.3603  2.1271
  539MOL0     H74366   8.142   7.285   9.381 -1.8888  2.2669 -0.2579
  539MOL0     H74367   7.939   7.375   9.453 -1.4585 -1.0254 -1.2377
  539MOL0     H74368   7.601   7.274   9.778  0.9957 -1.7546 -0.9256
  539MOL0     H74369   7.383   7.321   9.872  0.6762  0.7732 -0.1100
  539MOL0     H74370   6.946   7.313   9.787  0.0286 -0.8526  0.5810
  539MOL0     H74371   7.019   7.275   9.626 -0.0976  1.4240  0.3712
  539MOL0     H74372   7.069   7.100   9.856  0.9378 -0.7344 -0.3268
  539MOL0     H74373   7.062   7.066   9.679 -1.0715  0.1731 -0.3586
  539MOL0     H74374   6.811   7.109   9.690  0.6681  1.2673  1.9277
  539MOL0     H74375   6.864   6.966   9.795  1.2306 -1.5888  0.0510
  539MOL0     H74376   6.783   7.246   9.872  1.6518 -0.4827 -0.5574
  539MOL0     H74377   6.853   7.121   9.986  0.8675 -3.3919 -0.3638
  539MOL0     H74378   6.441   7.021   9.956  0.1099 -1.1514  1.0346
  539MOL0     H74379   7.198   7.273   9.500  0.6314 -2.5048 -0.6068
  539MOL0     H74380   7.476   7.293   9.303 -1.6913  0.6825 -1.1968
  539MOL0     H74381   7.418   7.125   9.330 -1.1297 -0.2413 -0.6085
  539MOL0     H74382   7.314   7.269   9.309  0.9962  1.3936 -0.8479
  540MOL0     O74383   5.772   0.783   8.637  0.3921  0.0776 -0.8261
  540MOL0     C74384   5.726   0.674   8.606  0.4232 -0.8438  0.6452
  540MOL0     O74385   5.799   0.558   8.583  0.1958 -0.0329  0.5345
  540MOL0     C74386   5.934   0.568   8.599  0.5552 -0.2394  0.2598
  540MOL0     C74387   5.991   0.507   8.713  0.0100 -0.1946 -0.1053
  540MOL0     C74388   6.131   0.502   8.729  0.2344 -0.2826 -0.0979
  540MOL0     C74389   6.216   0.578   8.638  0.2551  0.4179 -0.2972
  540MOL0     O74390   6.347   0.600   8.664 -0.0521 -0.2375 -0.3189
  540MOL0     C74391   6.426   0.562   8.775  1.1924  0.1798  0.6278
  540MOL0     C74392   6.585   0.586   8.741 -0.4505 -0.1130  0.0198
  540MOL0     C74393   6.621   0.722   8.680  0.4144 -0.2528 -0.2680
  540MOL0     C74394   6.552   0.847   8.749 -0.5053  0.6242  0.2578
  540MOL0     C74395   6.652   0.963   8.761 -0.1731 -0.7205  0.2574
  540MOL0     C74396   6.698   1.027   8.623 -0.1785 -0.7051  1.0687
  540MOL0     C74397   6.833   0.985   8.578  0.0147 -0.1739 -0.0870
  540MOL0     C74398   6.884   1.070   8.456  0.5085  0.1812 -0.5654
  540MOL0     N74399   7.022   1.047   8.429 -0.4046 -0.0470  0.2307
  540MOL0     C74400   7.119   1.130   8.469 -0.0461 -0.5250  1.3496
  540MOL0     C74401   7.231   1.077   8.409 -0.3078  0.5279 -0.1708
  540MOL0     C74402   7.374   1.118   8.406  1.1054  0.3726 -0.3533
  540MOL0     C74403   7.472   1.008   8.351  0.0305  0.8071 -0.4468
  540MOL0     C74404   7.622   1.061   8.367 -0.5023 -0.8583  0.1165
  540MOL0     C74405   7.718   0.966   8.304  0.2237 -0.2446 -0.1383
  540MOL0     O74406   7.844   1.029   8.331 -0.0296  0.3841  0.2767
  540MOL0     C74407   7.958   0.952   8.323 -0.1202 -0.0437 -0.4646
  540MOL0     C74408   8.071   1.005   8.377 -0.3366 -0.2885  0.5372
  540MOL0     C74409   8.198   0.947   8.360 -0.7920 -0.2161 -0.6692
  540MOL0     C74410   8.314   1.027   8.411 -0.2618  0.1788  1.3046
  540MOL0     C74411   8.210   0.824   8.279  0.0088 -0.4671 -0.1679
  540MOL0     C74412   8.341   0.762   8.242 -0.8758 -0.1310 -0.3033
  540MOL0     O74413   8.348   0.660   8.139 -0.4860 -0.0823 -0.1412
  540MOL0     C74414   8.467   0.607   8.115  0.1543  0.1791 -0.5757
  540MOL0     C74415   8.583   0.677   8.088  0.1202 -0.4879  0.2810
  540MOL0     C74416   8.704   0.624   8.046 -0.9146  0.1057 -0.5275
  540MOL0     C74417   8.709   0.490   8.033  0.1801  0.5464 -0.0380
  540MOL0     O74418   8.821   0.422   7.994  0.4957  0.2370 -0.3366
  540MOL0     C74419   8.945   0.486   7.968  0.0111 -0.6267  0.0265
  540MOL0     C74420   9.052   0.385   7.940  0.1954 -0.1831  0.0121
  540MOL0     C74421   9.043   0.333   7.798 -0.1427  0.1731 -0.3400
  540MOL0     C74422   9.184   0.312   7.746  0.0413 -0.1974  0.2993
  540MOL0     C74423   9.181   0.258   7.606 -0.0777 -0.4783 -0.4396
  540MOL0     C74424   9.130   0.368   7.506  0.1297 -0.5148 -0.1376
  540MOL0     C74425   9.151   0.324   7.358  0.9930  0.2357  0.6113
  540MOL0     C74426   9.069   0.197   7.319  0.4061 -1.1992 -0.0585
  540MOL0    Cl74427   8.890   0.244   7.319 -0.2279  0.1422  0.4128
  540MOL0     C74428   8.594   0.412   8.055 -0.5479 -0.2329 -0.2436
  540MOL0     C74429   8.478   0.470   8.095  0.6703 -0.1554 -0.7126
  540MOL0     O74430   8.438   0.805   8.305 -0.6859  0.0949 -0.3009
  540MOL0     C74431   8.087   0.766   8.228 -0.4093  0.4434  0.0354
  540MOL0     C74432   7.967   0.831   8.249 -0.1220 -0.3993  0.6478
  540MOL0     N74433   7.193   0.960   8.341  0.3114  0.5859 -0.0209
  540MOL0     N74434   7.067   0.936   8.355  0.4909  1.0845 -0.5272
  540MOL0     C74435   6.151   0.644   8.525  0.0389  0.1918 -0.6922
  540MOL0     C74436   6.010   0.636   8.502  0.6846 -0.4966 -0.0799
  540MOL0     C74437   5.582   0.654   8.627  0.8722  0.6954 -0.0781
  540MOL0     C74438   5.551   0.534   8.687  0.7027 -0.2766  0.1834
  540MOL0     C74439   5.414   0.502   8.711 -0.3078  0.1314 -0.2224
  540MOL0     C74440   5.311   0.593   8.669  0.8076 -0.3010  0.1247
  540MOL0     O74441   5.178   0.571   8.694  0.4878  0.5851  0.7517
  540MOL0     C74442   5.138   0.452   8.768  0.4140 -0.1662 -0.7269
  540MOL0     C74443   4.983   0.449   8.780  0.1617  0.0375 -0.6198
  540MOL0     C74444   4.911   0.412   8.654  0.1676  1.2996 -0.1051
  540MOL0     C74445   4.754   0.406   8.657 -0.2884  0.0735 -0.2333
  540MOL0     C74446   4.695   0.535   8.664 -0.6197  0.7738  0.1587
  540MOL0     C74447   4.641   0.641   8.678  0.5297  0.0299  0.0963
  540MOL0     C74448   5.339   0.717   8.616 -0.3961  0.0323 -0.4087
  540MOL0     C74449   5.475   0.744   8.596 -0.3811  0.3855  0.6466
  540MOL0     C74450   5.496   0.875   8.518 -0.5480 -0.8807 -0.6797
  540MOL0     H74451   5.935   0.454   8.789  2.3724 -0.4278  1.5868
  540MOL0     H74452   6.169   0.442   8.811  0.1430 -0.4559 -0.1824
  540MOL0     H74453   6.415   0.455   8.793  1.0269 -0.3812 -2.2119
  540MOL0     H74454   6.398   0.627   8.858  1.3391  0.9765  0.0654
  540MOL0     H74455   6.631   0.555   8.835  0.4375  0.6675 -0.1403
  540MOL0     H74456   6.622   0.509   8.673  0.9784 -0.3398  1.0073
  540MOL0     H74457   6.726   0.748   8.700 -0.3779  2.6457  0.6478
  540MOL0     H74458   6.606   0.716   8.572 -1.3946  1.8201 -0.2057
  540MOL0     H74459   6.462   0.873   8.693 -0.7971 -1.8018 -0.5040
  540MOL0     H74460   6.514   0.818   8.848 -2.3451  0.5124 -0.4451
  540MOL0     H74461   6.735   0.930   8.824 -1.9131  0.5720  3.4942
  540MOL0     H74462   6.593   1.032   8.823 -1.5550 -2.1244  0.5818
  540MOL0     H74463   6.623   1.023   8.543  2.0952 -1.5312 -1.1763
  540MOL0     H74464   6.701   1.133   8.650 -1.7768 -0.3174 -0.1089
  540MOL0     H74465   6.836   0.880   8.548  2.5851  0.4763 -2.6146
  540MOL0     H74466   6.899   0.996   8.664 -0.2308 -1.6756  0.3185
  540MOL0     H74467   6.825   1.042   8.368 -1.0512 -0.2342  0.5827
  540MOL0     H74468   6.872   1.176   8.481 -0.5472  0.1383 -0.8287
  540MOL0     H74469   7.111   1.217   8.533  0.1644  2.2667 -2.1178
  540MOL0     H74470   7.396   1.153   8.507  1.4902  0.5014 -0.4811
  540MOL0     H74471   7.371   1.199   8.332  0.7249 -0.9054 -1.7728
  540MOL0     H74472   7.453   0.912   8.401 -1.4767  0.8759 -0.8368
  540MOL0     H74473   7.448   1.003   8.245 -0.7314  0.5697 -0.2726
  540MOL0     H74474   7.631   1.161   8.323 -0.7010  1.1223  4.0408
  540MOL0     H74475   7.642   1.068   8.475  0.2875 -2.1553  0.0638
  540MOL0     H74476   7.715   0.864   8.345  0.2732 -1.8730 -3.7815
  540MOL0     H74477   7.691   0.947   8.200  1.4458  0.9624 -0.7029
  540MOL0     H74478   8.051   1.086   8.446 -0.0366 -1.6626  2.3270
  540MOL0     H74479   8.378   1.058   8.328 -2.6547  4.5630  0.7778
  540MOL0     H74480   8.368   0.973   8.488 -1.0996  0.5141  2.1545
  540MOL0     H74481   8.286   1.127   8.446  0.6231  0.8877  0.0965
  540MOL0     H74482   8.565   0.784   8.085 -1.2706 -0.7197 -0.3108
  540MOL0     H74483   8.791   0.682   8.018 -0.6016  1.3671  2.6316
  540MOL0     H74484   8.948   0.558   7.885  2.0059 -1.2192 -0.4779
  540MOL0     H74485   8.971   0.540   8.059 -2.7387  0.5045  0.2458
  540MOL0     H74486   9.143   0.439   7.968 -2.2823  3.6188  1.5216
  540MOL0     H74487   9.021   0.313   8.017 -2.2471  1.8115  1.0288
  540MOL0     H74488   8.989   0.410   7.743 -2.4124  2.2219  4.2371
  540MOL0     H74489   8.989   0.238   7.799 -2.7967  1.5830 -0.6499
  540MOL0     H74490   9.239   0.241   7.808 -2.1805 -1.8631  0.4762
  540MOL0     H74491   9.238   0.407   7.734  0.6687 -0.6619 -0.6167
  540MOL0     H74492   9.283   0.231   7.575 -0.3362 -0.4258 -1.3665
  540MOL0     H74493   9.113   0.173   7.606 -1.2232  0.3919 -1.5755
  540MOL0     H74494   9.191   0.457   7.522  1.8955 -1.0716 -2.9947
  540MOL0     H74495   9.026   0.394   7.526  0.3979 -0.2216  0.9266
  540MOL0     H74496   9.253   0.297   7.331  0.3289 -1.3038 -0.5092
  540MOL0     H74497   9.116   0.407   7.296  0.7052 -0.1208  0.2905
  540MOL0     H74498   9.087   0.114   7.388  0.3037  0.5425  2.1729
  540MOL0     H74499   9.093   0.166   7.217  1.8140 -1.1531  0.2376
  540MOL0     H74500   8.606   0.305   8.049  2.0992  0.0374 -0.9977
  540MOL0     H74501   8.392   0.412   8.127  0.7843 -0.3705 -0.7982
  540MOL0     H74502   8.087   0.682   8.158 -0.4878 -0.7238  1.3971
  540MOL0     H74503   7.881   0.791   8.196 -1.1180 -2.5015  3.5808
  540MOL0     H74504   6.212   0.697   8.453 -0.9245 -0.8361 -2.3206
  540MOL0     H74505   5.958   0.680   8.417 -1.3486  1.6807  2.1322
  540MOL0     H74506   5.622   0.455   8.710 -0.5592 -1.6104 -0.3793
  540MOL0     H74507   5.399   0.402   8.750 -2.1366 -0.4537 -2.1872
  540MOL0     H74508   5.178   0.358   8.730  0.3830 -1.9697  3.1853
  540MOL0     H74509   5.172   0.466   8.871 -0.0618  0.1496 -0.6113
  540MOL0     H74510   4.955   0.551   8.807  1.1490 -0.2888  1.9486
  540MOL0     H74511   4.957   0.377   8.858  2.0989 -1.0048 -0.9000
  540MOL0     H74512   4.951   0.462   8.566  1.9357 -1.0288 -0.7119
  540MOL0     H74513   4.930   0.304   8.653 -3.2014  0.5469  1.6368
  540MOL0     H74514   4.707   0.352   8.741  1.1049  0.0280  0.5477
  540MOL0     H74515   4.718   0.360   8.565  1.0576 -0.5176 -0.4896
  540MOL0     H74516   4.575   0.725   8.690 -0.2562 -0.4709 -0.6306
  540MOL0     H74517   5.265   0.789   8.583  1.0475  0.7841 -2.1555
  540MOL0     H74518   5.400   0.928   8.515 -0.4113 -0.6719 -1.5492
  540MOL0     H74519   5.568   0.945   8.561 -2.1246  2.1834 -2.6176
  540MOL0     H74520   5.534   0.857   8.417 -1.0282 -0.7573 -0.8861
  541MOL0     O74521   5.861   2.497   6.519  0.6983  0.1105 -0.0623
  541MOL0     C74522   5.850   2.498   6.641 -0.1341 -0.1980 -0.2073
  541MOL0     O74523   5.959   2.513   6.728 -0.3678  0.0542  0.9562
  541MOL0     C74524   6.077   2.550   6.676  0.2888 -0.6121  0.6940
  541MOL0     C74525   6.124   2.676   6.705  0.6378 -0.3478  0.0885
  541MOL0     C74526   6.240   2.718   6.652 -0.8007 -0.2887 -0.0714
  541MOL0     C74527   6.316   2.645   6.560  0.7869 -0.4614 -0.5717
  541MOL0     O74528   6.433   2.687   6.506  0.0794 -0.5069 -0.0103
  541MOL0     C74529   6.548   2.603   6.508 -0.0832  1.0635  0.2430
  541MOL0     C74530   6.670   2.693   6.484 -0.2429  0.5964  1.1737
  541MOL0     C74531   6.800   2.612   6.481 -0.6142 -0.2857  0.1043
  541MOL0     C74532   6.921   2.706   6.488  0.0450  0.6597  0.7651
  541MOL0     C74533   7.054   2.642   6.462 -0.4042  0.7170  0.3273
  541MOL0     C74534   7.090   2.528   6.574  0.1285  0.0121 -0.2394
  541MOL0     C74535   7.223   2.461   6.543  0.2375  0.4374  0.5611
  541MOL0     C74536   7.215   2.311   6.593  0.1979 -0.0446 -0.5171
  541MOL0     N74537   7.343   2.235   6.579  0.1235 -0.0935  0.9151
  541MOL0     C74538   7.459   2.266   6.636  0.3736  0.0078 -0.0412
  541MOL0     C74539   7.539   2.160   6.615 -0.2956 -0.6027  0.3837
  541MOL0     C74540   7.687   2.143   6.650 -0.3589 -0.1933  0.1494
  541MOL0     C74541   7.779   2.105   6.528  0.6883 -0.4666 -0.2514
  541MOL0     C74542   7.923   2.148   6.561  0.5139  0.4865  0.0075
  541MOL0     C74543   8.024   2.148   6.438 -0.0689 -0.7214  0.3287
  541MOL0     O74544   8.161   2.180   6.473  0.7259  0.6169 -0.3869
  541MOL0     C74545   8.263   2.115   6.404  0.7876  0.0863 -1.2900
  541MOL0     C74546   8.404   2.151   6.439  0.3156 -0.2653  0.4667
  541MOL0     C74547   8.505   2.104   6.359  0.6431  0.2141  0.4051
  541MOL0     C74548   8.646   2.140   6.402 -0.0067 -0.4637 -0.3257
  541MOL0     C74549   8.479   2.006   6.250  0.2180 -0.4108 -0.2464
  541MOL0     C74550   8.585   1.938   6.175 -0.0539 -0.5045  0.8148
  541MOL0     O74551   8.587   1.964   6.043 -0.4690  0.1293  0.5680
  541MOL0     C74552   8.671   1.902   5.953  0.2412 -0.6288  0.0287
  541MOL0     C74553   8.800   1.866   5.991 -1.0815  1.0280  0.3745
  541MOL0     C74554   8.882   1.796   5.901 -0.1564  0.5112 -0.5074
  541MOL0     C74555   8.839   1.779   5.770 -1.0600  0.0559  0.4574
  541MOL0     O74556   8.908   1.721   5.669  0.1228 -0.0482 -0.6842
  541MOL0     C74557   9.012   1.622   5.702 -1.2677  0.0739 -0.2468
  541MOL0     C74558   9.151   1.679   5.690 -0.7417 -0.1596 -0.3916
  541MOL0     C74559   9.185   1.695   5.539 -0.2754 -0.1058 -0.5808
  541MOL0     C74560   9.334   1.685   5.517  0.2448 -0.0525 -0.8238
  541MOL0     C74561   9.342   1.695   5.362  0.2788 -0.4203 -0.6697
  541MOL0     C74562   9.480   1.675   5.301 -0.5102 -0.5960  0.1785
  541MOL0     C74563   9.485   1.700   5.140  0.6443 -0.1040 -0.6487
  541MOL0     C74564   9.621   1.672   5.100 -0.9294 -0.4784  0.4324
  541MOL0    Cl74565   9.664   1.492   5.097 -0.3104  0.0159  0.5527
  541MOL0     C74566   8.712   1.827   5.728  0.1371 -0.4149 -0.7450
  541MOL0     C74567   8.626   1.876   5.824 -0.1517  0.7679 -0.2389
  541MOL0     O74568   8.633   1.841   6.228  0.8444 -0.1423 -0.6597
  541MOL0     C74569   8.349   1.977   6.216 -0.5893  0.6413  0.3183
  541MOL0     C74570   8.249   2.038   6.292 -0.0421  0.3573 -0.4013
  541MOL0     N74571   7.468   2.074   6.550 -0.3338 -0.7725 -0.7943
  541MOL0     N74572   7.349   2.110   6.529  0.9524 -0.9129 -0.3408
  541MOL0     C74573   6.274   2.510   6.538 -0.2024  0.3002 -0.0882
  541MOL0     C74574   6.154   2.461   6.594  0.7079 -0.6350 -0.2875
  541MOL0     C74575   5.716   2.480   6.699 -0.3452  0.2650  0.4588
  541MOL0     C74576   5.693   2.391   6.811  0.8122  0.4940 -0.1820
  541MOL0     C74577   5.561   2.382   6.853  0.5196  0.2145 -0.6949
  541MOL0     C74578   5.450   2.438   6.788  0.5424 -0.0801 -0.4943
  541MOL0     O74579   5.319   2.424   6.830  0.2392 -0.0422  0.3415
  541MOL0     C74580   5.278   2.299   6.882  0.5903 -0.7353  0.3758
  541MOL0     C74581   5.158   2.314   6.982  0.7649 -1.0329  0.0106
  541MOL0     C74582   5.052   2.411   6.925 -0.3150 -0.1710  0.9205
  541MOL0     C74583   4.912   2.366   6.982 -0.9228 -0.2267 -0.0379
  541MOL0     C74584   4.911   2.373   7.127 -0.8203  0.2244  0.2356
  541MOL0     C74585   4.928   2.374   7.253 -0.3886  0.3432 -0.5528
  541MOL0     C74586   5.478   2.517   6.684 -0.1896  0.1458  0.6866
  541MOL0     C74587   5.606   2.545   6.632  0.2460 -0.2537  0.4333
  541MOL0     C74588   5.612   2.641   6.516  0.1603  0.1497  0.3704
  541MOL0     H74589   6.077   2.746   6.774  0.2087  1.1641 -1.6310
  541MOL0     H74590   6.275   2.814   6.690 -3.1570  0.0687  1.4069
  541MOL0     H74591   6.537   2.539   6.420 -1.6683  1.2923  0.2462
  541MOL0     H74592   6.548   2.538   6.596  0.1731 -1.8947 -1.8086
  541MOL0     H74593   6.648   2.736   6.386 -2.8953  2.2736  2.4185
  541MOL0     H74594   6.679   2.779   6.551  1.9338  3.5889 -2.5207
  541MOL0     H74595   6.800   2.536   6.560  3.4075 -1.0183 -0.3406
  541MOL0     H74596   6.802   2.561   6.384  0.1238  0.6993 -0.4150
  541MOL0     H74597   6.902   2.781   6.411  2.7720  1.3964  0.7119
  541MOL0     H74598   6.917   2.753   6.587 -3.6298 -3.0092  2.6959
  541MOL0     H74599   7.129   2.721   6.455 -0.7532  1.0426  0.2439
  541MOL0     H74600   7.049   2.583   6.370  1.2512 -0.5551  0.9874
  541MOL0     H74601   7.090   2.571   6.674  0.2458  1.7988 -0.9686
  541MOL0     H74602   7.016   2.448   6.586 -1.3286  1.4611  0.8945
  541MOL0     H74603   7.302   2.516   6.595 -1.3837  3.7375 -0.1582
  541MOL0     H74604   7.237   2.462   6.434 -0.3100  0.5922  0.4898
  541MOL0     H74605   7.191   2.320   6.700  1.3452  1.2118 -0.3429
  541MOL0     H74606   7.132   2.258   6.546  0.2947  1.1352 -2.0827
  541MOL0     H74607   7.483   2.362   6.680 -1.9045  1.7115 -2.1625
  541MOL0     H74608   7.689   2.070   6.731  0.6794 -0.6367 -0.2589
  541MOL0     H74609   7.720   2.242   6.682 -2.0773  0.3779  0.2657
  541MOL0     H74610   7.782   2.001   6.492 -0.2512 -0.4642 -0.3462
  541MOL0     H74611   7.737   2.157   6.442  1.0515 -0.8684 -0.6742
  541MOL0     H74612   7.929   2.252   6.593 -0.5156  0.2441  1.0490
  541MOL0     H74613   7.958   2.083   6.642  0.6594 -3.1918 -2.7246
  541MOL0     H74614   8.000   2.048   6.400  0.3495 -1.2490  1.4040
  541MOL0     H74615   7.993   2.218   6.359  1.5186 -1.1037 -0.6868
  541MOL0     H74616   8.422   2.226   6.515 -0.8100  1.4743 -0.9012
  541MOL0     H74617   8.659   2.247   6.423  1.6182 -0.9942  1.8195
  541MOL0     H74618   8.728   2.126   6.331  0.1682  0.8433 -0.4142
  541MOL0     H74619   8.676   2.083   6.491  1.0890  2.1353  1.0921
  541MOL0     H74620   8.837   1.879   6.092  1.9065 -1.3343 -0.2833
  541MOL0     H74621   8.983   1.772   5.934 -0.7953 -2.2668 -0.3465
  541MOL0     H74622   8.986   1.591   5.804 -0.9064 -0.9531 -0.4561
  541MOL0     H74623   9.001   1.538   5.633 -0.1813 -0.0168 -0.3214
  541MOL0     H74624   9.162   1.769   5.751 -1.3311 -0.4112  0.0965
  541MOL0     H74625   9.221   1.603   5.726 -0.6355 -0.8940 -2.0466
  541MOL0     H74626   9.155   1.795   5.505  2.1492  0.5082 -1.1621
  541MOL0     H74627   9.124   1.625   5.482 -2.8580  1.4859  0.0899
  541MOL0     H74628   9.383   1.592   5.546  0.8015  0.3924 -0.3209
  541MOL0     H74629   9.387   1.774   5.554 -1.5148 -0.0611  2.0623
  541MOL0     H74630   9.270   1.623   5.320 -3.0938  3.1685 -1.6343
  541MOL0     H74631   9.308   1.795   5.335  0.3552 -0.6603 -1.7002
  541MOL0     H74632   9.512   1.571   5.312 -2.1536 -1.4899 -2.4938
  541MOL0     H74633   9.562   1.728   5.351  0.7440 -1.7465 -0.5744
  541MOL0     H74634   9.446   1.798   5.112  2.7934  1.3643  1.1452
  541MOL0     H74635   9.421   1.629   5.088  0.4330 -1.6433  1.5700
  541MOL0     H74636   9.694   1.723   5.163 -0.6197  0.4045 -0.6182
  541MOL0     H74637   9.623   1.706   4.997 -0.6560 -0.8449  0.3133
  541MOL0     H74638   8.674   1.806   5.629  0.5312 -1.4901 -0.6815
  541MOL0     H74639   8.528   1.901   5.784 -0.5592 -1.2748 -0.5929
  541MOL0     H74640   8.336   1.909   6.133  0.1814 -0.1740  0.8395
  541MOL0     H74641   8.149   2.012   6.258 -0.8652  2.7951 -0.0367
  541MOL0     H74642   6.331   2.439   6.478 -0.0314  0.0452  0.3695
  541MOL0     H74643   6.124   2.359   6.573  1.2607 -1.0389  0.7561
  541MOL0     H74644   5.776   2.338   6.856  1.1228 -0.4329 -1.7556
  541MOL0     H74645   5.553   2.324   6.944 -2.9480 -1.0273 -1.6435
  541MOL0     H74646   5.241   2.237   6.800  2.1549  1.1347 -1.8966
  541MOL0     H74647   5.361   2.242   6.926  0.0819 -1.8836 -0.1217
  541MOL0     H74648   5.200   2.354   7.075 -2.4105 -0.6668  1.4261
  541MOL0     H74649   5.114   2.215   6.997  0.0255 -0.7303 -0.1383
  541MOL0     H74650   5.062   2.519   6.941 -2.4156  0.1937  0.0617
  541MOL0     H74651   5.051   2.410   6.816  0.1058  0.6303  0.8982
  541MOL0     H74652   4.895   2.265   6.943 -1.6661  0.5475 -1.8052
  541MOL0     H74653   4.831   2.423   6.936 -0.5901 -0.4797 -0.9457
  541MOL0     H74654   4.966   2.387   7.353 -1.1628 -0.6151 -0.1191
  541MOL0     H74655   5.394   2.568   6.638  0.2189 -0.5739 -0.9399
  541MOL0     H74656   5.512   2.678   6.487 -0.2663 -1.8880 -0.9098
  541MOL0     H74657   5.693   2.712   6.535  1.1325 -0.7736 -0.2742
  541MOL0     H74658   5.648   2.587   6.429 -0.0433 -1.1654  1.0729
  542MOL0     O74659   9.710  11.269   6.775 -0.5277  0.2437 -0.1098
  542MOL0     C74660   9.677  11.238   6.666 -0.0001  1.0452  0.3096
  542MOL0     O74661   9.763  11.163   6.576  0.4913 -0.6247 -0.3293
  542MOL0     C74662   9.900  11.154   6.594  0.3825  0.5099  1.2444
  542MOL0     C74663   9.965  11.054   6.523 -0.0594 -0.9641  0.2420
  542MOL0     C74664  10.101  11.028   6.532  0.6361  0.4083  0.1988
  542MOL0     C74665  10.183  11.104   6.615  0.4763  0.3097 -0.0527
  542MOL0     O74666  10.311  11.075   6.597  0.4205  0.7645  0.0950
  542MOL0     C74667  10.414  11.162   6.655 -0.3682 -0.4590 -0.4696
  542MOL0     C74668  10.541  11.076   6.652 -0.5753 -0.1288  0.7522
  542MOL0     C74669  10.653  11.142   6.570  0.5237  0.1920 -0.6675
  542MOL0     C74670  10.733  11.035   6.496 -0.4084  0.3224  0.1827
  542MOL0     C74671  10.858  11.093   6.430 -0.0749  0.6228  0.6985
  542MOL0     C74672  10.938  10.982   6.349 -0.2936 -0.0104  0.1821
  542MOL0     C74673  11.080  11.025   6.310 -0.2314 -0.0502 -0.0641
  542MOL0     C74674  11.114  11.183   6.315 -0.8516 -0.1706  0.5657
  542MOL0     N74675  11.251  11.205   6.253  0.4257  0.8999  0.3907
  542MOL0     C74676  11.377  11.225   6.310  0.5293  0.1179 -0.2188
  542MOL0     C74677  11.459  11.269   6.209  1.0195  0.4061  0.4209
  542MOL0     C74678  11.603  11.291   6.241 -0.1942 -0.2912  0.3038
  542MOL0     C74679  11.701  11.240   6.137 -0.1101 -0.7320 -0.6485
  542MOL0     C74680  11.835  11.196   6.194  0.1063  0.4598  0.4527
  542MOL0     C74681  11.936  11.150   6.091  0.3096  0.0289  0.0072
  542MOL0     O74682  12.066  11.179   6.150  0.3718  0.1341  0.6706
  542MOL0     C74683  12.170  11.152   6.068  0.1292  0.1511  0.5349
  542MOL0     C74684  12.255  11.053   6.108  0.1264 -0.5836  0.5026
  542MOL0     C74685  12.374  11.029   6.041  0.1452  0.8918  0.5850
  542MOL0     C74686  12.464  10.925   6.103  0.0895 -0.4719  1.0564
  542MOL0     C74687  12.410  11.122   5.939 -0.1754 -0.1067  0.0434
  542MOL0     C74688  12.533  11.110   5.861 -0.3584 -0.0415 -0.3776
  542MOL0     O74689  12.557  11.214   5.786 -0.3440 -0.4549 -0.0425
  542MOL0     C74690  12.678  11.229   5.719 -0.3528 -0.5227  0.4388
  542MOL0     C74691  12.681  11.316   5.609  0.6155 -0.4064  0.2459
  542MOL0     C74692  12.791  11.324   5.528 -0.3827 -0.5544 -0.1559
  542MOL0     C74693  12.907  11.254   5.558 -0.8752 -0.0531  1.2889
  542MOL0     O74694  13.020  11.269   5.484  0.4310  0.5135 -0.4672
  542MOL0     C74695  13.024  11.328   5.354  0.1052  0.2957 -0.4849
  542MOL0     C74696  13.160  11.311   5.286  0.5687 -0.4837 -0.9173
  542MOL0     C74697  13.194  11.166   5.270 -0.3825 -0.2219  0.4543
  542MOL0     C74698  13.328  11.148   5.207  0.5998  0.0959 -0.1721
  542MOL0     C74699  13.449  11.170   5.287  0.8751  0.1472  0.1958
  542MOL0     C74700  13.570  11.185   5.198  0.2712  0.3597 -0.2961
  542MOL0     C74701  13.706  11.161   5.271  0.3703 -0.0793  0.0927
  542MOL0     C74702  13.727  11.288   5.353  0.1541 -0.5346 -0.4600
  542MOL0    Cl74703  13.845  11.255   5.490 -0.4195 -0.0815 -0.3901
  542MOL0     C74704  12.913  11.170   5.668 -0.2816  0.0019 -0.3201
  542MOL0     C74705  12.796  11.156   5.747  0.6057  0.7247 -0.1678
  542MOL0     O74706  12.591  11.003   5.850 -0.2839 -0.2180 -0.3949
  542MOL0     C74707  12.323  11.220   5.901  0.8763  0.0103  0.2624
  542MOL0     C74708  12.200  11.227   5.956 -0.2336  0.3604 -0.1938
  542MOL0     N74709  11.380  11.268   6.095 -0.3279 -1.0646 -0.0923
  542MOL0     N74710  11.264  11.225   6.127  0.1004 -0.3614  0.3575
  542MOL0     C74711  10.118  11.205   6.690  0.8187 -1.5979 -0.0361
  542MOL0     C74712   9.979  11.230   6.674 -0.5813 -0.1248  0.4576
  542MOL0     C74713   9.544  11.282   6.616 -0.7810 -0.6416  0.1540
  542MOL0     C74714   9.470  11.360   6.709 -0.1745  0.1066 -0.0267
  542MOL0     C74715   9.342  11.409   6.677 -0.2329 -0.2442 -0.6090
  542MOL0     C74716   9.295  11.400   6.547  0.0957  0.1743  0.1882
  542MOL0     O74717   9.172  11.448   6.519  0.5480  0.6543 -0.2003
  542MOL0     C74718   9.082  11.379   6.423 -0.1789 -0.7149 -0.1177
  542MOL0     C74719   9.051  11.473   6.312 -0.4771  0.5326  0.2801
  542MOL0     C74720   8.973  11.591   6.371 -0.0521  0.8413 -0.2060
  542MOL0     C74721   8.950  11.708   6.275 -1.6689  0.3915 -0.9524
  542MOL0     C74722   8.861  11.813   6.324 -0.2187  0.1292  0.4568
  542MOL0     C74723   8.792  11.901   6.364 -0.0858 -0.2820 -0.0574
  542MOL0     C74724   9.372  11.324   6.452 -0.4950 -0.4468  0.2006
  542MOL0     C74725   9.498  11.270   6.483  0.1553  0.0326 -0.0358
  542MOL0     C74726   9.569  11.198   6.371 -0.1804 -0.0561  0.1201
  542MOL0     H74727   9.902  10.990   6.461 -1.7422 -0.3573  1.2647
  542MOL0     H74728  10.154  10.949   6.482  0.8787 -0.6151  1.9697
  542MOL0     H74729  10.379  11.183   6.757 -0.4364 -2.4371 -0.0462
  542MOL0     H74730  10.421  11.255   6.598 -1.0888  1.5302  2.4500
  542MOL0     H74731  10.573  11.052   6.753 -0.1360 -2.2390  0.1618
  542MOL0     H74732  10.520  10.977   6.611 -0.1860 -0.4390  1.2919
  542MOL0     H74733  10.606  11.209   6.497  1.0782  1.4105  0.0622
  542MOL0     H74734  10.713  11.195   6.644 -2.0861  1.3251  0.7583
  542MOL0     H74735  10.754  10.969   6.581 -2.0083 -1.3078 -0.6308
  542MOL0     H74736  10.670  10.978   6.428 -1.1123  2.8732 -1.4524
  542MOL0     H74737  10.929  11.140   6.499  0.1172  0.2238  0.7806
  542MOL0     H74738  10.825  11.168   6.358 -0.2830  0.6330  0.8045
  542MOL0     H74739  10.949  10.896   6.417  0.3059  0.0086  0.1137
  542MOL0     H74740  10.878  10.948   6.264  1.1367  0.1094 -0.9080
  542MOL0     H74741  11.094  10.986   6.208  0.4301  3.3776 -1.4103
  542MOL0     H74742  11.148  10.965   6.371  1.0964  0.6298 -0.8333
  542MOL0     H74743  11.044  11.232   6.247 -2.0006 -3.5100 -0.8585
  542MOL0     H74744  11.115  11.231   6.413  0.5160 -0.5072  0.7454
  542MOL0     H74745  11.408  11.198   6.411  1.5623 -1.1595 -0.8451
  542MOL0     H74746  11.620  11.239   6.337 -2.3686 -3.4439 -0.8667
  542MOL0     H74747  11.621  11.398   6.253  0.6350 -0.5560  1.7012
  542MOL0     H74748  11.662  11.147   6.095 -2.4205 -0.0228 -0.2224
  542MOL0     H74749  11.721  11.320   6.066 -2.7225 -0.2096 -0.8922
  542MOL0     H74750  11.870  11.281   6.254 -0.8066  0.3607  1.1384
  542MOL0     H74751  11.826  11.114   6.266  1.6171 -1.2100 -1.1450
  542MOL0     H74752  11.932  11.043   6.069 -0.9078  0.5339 -2.5497
  542MOL0     H74753  11.934  11.206   5.997  1.3615  1.4637  0.7889
  542MOL0     H74754  12.224  11.005   6.200 -1.4617  0.1379  0.3686
  542MOL0     H74755  12.565  10.965   6.108 -0.1070  0.3801 -0.8361
  542MOL0     H74756  12.460  10.832   6.046 -2.4259 -0.3330  0.8896
  542MOL0     H74757  12.433  10.898   6.205 -1.4983 -1.2455  0.4026
  542MOL0     H74758  12.585  11.353   5.573 -0.1570 -1.7774  0.7793
  542MOL0     H74759  12.795  11.383   5.438  1.6818  0.9049  0.8333
  542MOL0     H74760  12.937  11.296   5.297  0.4760  0.7644 -1.3398
  542MOL0     H74761  13.025  11.436   5.372 -1.3052  0.3766 -0.8114
  542MOL0     H74762  13.162  11.363   5.190 -0.8266 -2.5835 -2.1612
  542MOL0     H74763  13.237  11.346   5.355  0.4874 -0.2528 -0.9452
  542MOL0     H74764  13.115  11.116   5.213 -0.5690  0.3206  0.2334
  542MOL0     H74765  13.201  11.123   5.370 -2.4443 -3.3068 -0.5949
  542MOL0     H74766  13.329  11.223   5.127  0.7876  1.0839  0.7451
  542MOL0     H74767  13.327  11.047   5.165 -2.0808 -0.0037 -0.0289
  542MOL0     H74768  13.443  11.262   5.345  0.5664 -0.5180  1.2595
  542MOL0     H74769  13.464  11.087   5.358  1.9502  0.4599  0.3471
  542MOL0     H74770  13.572  11.281   5.145  2.5499  0.5866  0.1035
  542MOL0     H74771  13.567  11.105   5.124  2.4813 -2.1266  2.0912
  542MOL0     H74772  13.794  11.144   5.208  1.4369 -1.1119  1.7932
  542MOL0     H74773  13.693  11.070   5.330  0.1352  0.7173  1.3164
  542MOL0     H74774  13.634  11.325   5.397 -1.4901 -2.1695 -2.3844
  542MOL0     H74775  13.769  11.362   5.284 -3.2661  5.0259  2.6146
  542MOL0     H74776  13.003  11.113   5.688  1.8038  3.6826  1.8226
  542MOL0     H74777  12.804  11.089   5.832  0.2548  0.8206 -0.0616
  542MOL0     H74778  12.328  11.279   5.810 -1.5250 -0.7390 -0.4326
  542MOL0     H74779  12.139  11.309   5.921  3.5391  3.2768 -0.5778
  542MOL0     H74780  10.175  11.267   6.759 -0.7380 -1.2714  1.0182
  542MOL0     H74781   9.941  11.307   6.740  0.1640  0.1126  0.6247
  542MOL0     H74782   9.510  11.397   6.803 -0.2048  0.0399  0.0119
  542MOL0     H74783   9.290  11.465   6.754  0.7399  2.9683 -2.0964
  542MOL0     H74784   9.126  11.285   6.389  0.2686 -0.2657 -0.8247
  542MOL0     H74785   8.989  11.333   6.459 -0.2788 -0.5781 -0.1957
  542MOL0     H74786   8.986  11.417   6.243  0.4442  0.1385 -0.2878
  542MOL0     H74787   9.146  11.509   6.273  0.1212  1.0816  2.1656
  542MOL0     H74788   8.875  11.561   6.407  0.8859 -0.8975  1.0601
  542MOL0     H74789   9.020  11.627   6.464 -2.2634  1.8590  0.5956
  542MOL0     H74790   8.900  11.675   6.184 -1.3867  0.0761 -0.9942
  542MOL0     H74791   9.046  11.755   6.251 -1.1645  0.2528  0.6588
  542MOL0     H74792   8.729  11.983   6.393  0.5927  1.2503 -2.6014
  542MOL0     H74793   9.318  11.298   6.362  1.0010 -1.1540 -0.5328
  542MOL0     H74794   9.565  11.093   6.399 -0.1742  0.2299  1.2438
  542MOL0     H74795   9.529  11.203   6.269  0.3522  0.4993 -0.0729
  542MOL0     H74796   9.674  11.231   6.368 -0.0570 -0.3510  0.9043
  543MOL0     O74797   6.902   2.793   3.393  0.0522  0.1117 -0.0411
  543MOL0     C74798   6.859   2.708   3.318  1.0547  0.2128 -0.2506
  543MOL0     O74799   6.931   2.644   3.219  0.8190 -0.1187 -0.2434
  543MOL0     C74800   7.064   2.645   3.218 -0.4589  1.1009 -0.8724
  543MOL0     C74801   7.124   2.678   3.099 -0.5178 -0.0118  0.3148
  543MOL0     C74802   7.268   2.673   3.081  0.3730  0.6980 -0.1135
  543MOL0     C74803   7.345   2.629   3.182  0.3499  0.0568 -0.5537
  543MOL0     O74804   7.475   2.601   3.163  0.0518 -0.0256 -0.3389
  543MOL0     C74805   7.572   2.606   3.274 -0.2566  1.3292  0.1859
  543MOL0     C74806   7.711   2.589   3.204 -0.9702 -0.1339 -0.0941
  543MOL0     C74807   7.824   2.644   3.298  0.0372  0.1863  0.4851
  543MOL0     C74808   7.962   2.614   3.233 -0.3513  1.3637  0.0230
  543MOL0     C74809   8.075   2.701   3.303  0.2432 -0.1926  0.5267
  543MOL0     C74810   8.214   2.671   3.247  0.3446 -0.4379 -0.2050
  543MOL0     C74811   8.261   2.541   3.308 -0.7937  0.6177 -0.0708
  543MOL0     C74812   8.402   2.512   3.263 -0.2624  0.2331 -0.6658
  543MOL0     N74813   8.442   2.393   3.342 -0.3392  0.6798  0.3083
  543MOL0     C74814   8.406   2.263   3.311  0.2528  0.8112 -0.3180
  543MOL0     C74815   8.468   2.177   3.397 -0.1975 -0.1034  0.5448
  543MOL0     C74816   8.478   2.027   3.397  0.1856  0.3701 -0.6699
  543MOL0     C74817   8.462   1.978   3.546 -0.8682 -0.5948  0.0206
  543MOL0     C74818   8.443   1.821   3.555  0.6920 -0.1745  0.2867
  543MOL0     C74819   8.451   1.785   3.701  0.3550  0.8159 -0.3379
  543MOL0     O74820   8.584   1.789   3.748  0.1481 -0.0812  0.1332
  543MOL0     C74821   8.620   1.748   3.874  0.1242  0.4581  0.3105
  543MOL0     C74822   8.748   1.779   3.905 -0.0650  0.4759  0.2030
  543MOL0     C74823   8.801   1.756   4.032  0.3208  0.0332 -0.1004
  543MOL0     C74824   8.943   1.789   4.057  0.4742 -0.2446  0.0879
  543MOL0     C74825   8.720   1.697   4.139 -0.0735  0.3141 -0.3055
  543MOL0     C74826   8.774   1.673   4.271  0.1811  0.2614  1.0464
  543MOL0     O74827   8.718   1.740   4.375  0.0503 -0.6454  0.2329
  543MOL0     C74828   8.767   1.712   4.501  0.1631  0.6247  0.0424
  543MOL0     C74829   8.673   1.655   4.590 -0.5154  0.2589 -0.0847
  543MOL0     C74830   8.711   1.632   4.725  0.5863  0.5407  0.6824
  543MOL0     C74831   8.841   1.655   4.772  0.2985  0.0409  0.4093
  543MOL0     O74832   8.883   1.639   4.900 -0.1782  0.5492 -0.1336
  543MOL0     C74833   8.825   1.734   4.988 -0.3387  0.0921  0.6258
  543MOL0     C74834   8.925   1.770   5.101  0.4343 -0.0168  0.0015
  543MOL0     C74835   9.066   1.801   5.056 -0.2047 -0.0052 -0.3303
  543MOL0     C74836   9.066   1.921   4.963 -0.0556  0.4339 -0.7196
  543MOL0     C74837   9.214   1.943   4.913 -0.1720 -0.0138 -0.1748
  543MOL0     C74838   9.233   2.069   4.841 -0.0626 -0.4234  0.0893
  543MOL0     C74839   9.368   2.088   4.772 -0.5270  0.6786 -0.0111
  543MOL0     C74840   9.480   2.098   4.878 -0.5080  0.0324 -0.1939
  543MOL0    Cl74841   9.552   1.928   4.899 -0.1439 -0.2937 -0.1699
  543MOL0     C74842   8.933   1.720   4.688  0.0162 -0.0741  0.4841
  543MOL0     C74843   8.894   1.742   4.550  0.2280 -0.4443  0.2790
  543MOL0     O74844   8.846   1.576   4.280  0.5645  0.4073  0.5099
  543MOL0     C74845   8.584   1.680   4.105 -0.0478 -0.1561 -0.0390
  543MOL0     C74846   8.532   1.702   3.977 -0.0982 -0.8488  0.3112
  543MOL0     N74847   8.545   2.262   3.480 -0.6399  0.1600  0.8194
  543MOL0     N74848   8.524   2.387   3.454 -0.6538  0.1303 -0.2014
  543MOL0     C74849   7.283   2.599   3.301  0.2133  0.3029 -0.2427
  543MOL0     C74850   7.142   2.597   3.320  0.3468 -0.0511 -0.2694
  543MOL0     C74851   6.712   2.683   3.313  0.0409  0.2269  0.6129
  543MOL0     C74852   6.649   2.640   3.195  0.2392 -0.3517  0.4633
  543MOL0     C74853   6.509   2.628   3.183 -0.6997 -0.6140 -0.4511
  543MOL0     C74854   6.428   2.678   3.279  0.0320  0.5359 -0.2649
  543MOL0     O74855   6.295   2.662   3.260  0.2708  0.4350  0.3221
  543MOL0     C74856   6.196   2.705   3.357 -0.5269 -0.1097  0.2356
  543MOL0     C74857   6.187   2.600   3.468 -0.9397 -0.0020 -0.1632
  543MOL0     C74858   6.066   2.625   3.563 -0.2794  0.7649  0.2641
  543MOL0     C74859   6.051   2.760   3.625 -0.5422 -0.8671  0.1000
  543MOL0     C74860   6.179   2.808   3.687  0.6240  0.7709  0.4520
  543MOL0     C74861   6.280   2.839   3.749 -0.1051  0.0946 -0.3093
  543MOL0     C74862   6.489   2.739   3.391 -0.1083  0.2850  0.2908
  543MOL0     C74863   6.627   2.728   3.419  0.3853 -0.0561  0.3140
  543MOL0     C74864   6.664   2.776   3.556 -0.1168  0.0850  0.6766
  543MOL0     H74865   7.073   2.704   3.006 -1.5436 -4.2136 -0.5184
  543MOL0     H74866   7.310   2.698   2.985  1.6724 -0.1911  0.1955
  543MOL0     H74867   7.565   2.535   3.356 -0.4466  3.2606  1.9088
  543MOL0     H74868   7.567   2.704   3.322  1.0390  3.1937 -3.1022
  543MOL0     H74869   7.734   2.483   3.191  0.9812 -0.0320  1.9759
  543MOL0     H74870   7.720   2.633   3.104 -0.8297  1.9118  0.7612
  543MOL0     H74871   7.809   2.747   3.331 -1.0472 -0.5610  2.5621
  543MOL0     H74872   7.825   2.594   3.396 -2.3575 -1.2364 -0.1209
  543MOL0     H74873   7.991   2.508   3.239  1.4276  1.7791 -0.5616
  543MOL0     H74874   7.961   2.638   3.126  2.5956 -0.6978 -0.6257
  543MOL0     H74875   8.065   2.697   3.412 -0.1827  2.5912  0.6723
  543MOL0     H74876   8.045   2.803   3.277  1.0605 -0.2358 -0.7032
  543MOL0     H74877   8.205   2.654   3.139 -1.4734 -0.5816 -0.0616
  543MOL0     H74878   8.285   2.753   3.256  0.2797 -0.5462  1.6392
  543MOL0     H74879   8.195   2.463   3.268 -0.1488 -1.3081  2.3822
  543MOL0     H74880   8.249   2.531   3.416 -2.0119 -0.1442 -0.2484
  543MOL0     H74881   8.398   2.497   3.155 -2.1823  1.4599 -0.8133
  543MOL0     H74882   8.464   2.597   3.295 -1.2084  0.1900  1.5028
  543MOL0     H74883   8.346   2.206   3.241  0.5574  0.8123 -0.5867
  543MOL0     H74884   8.576   1.992   3.363  0.7213 -0.0082  1.1420
  543MOL0     H74885   8.396   1.980   3.342 -1.7992  0.5380  1.9365
  543MOL0     H74886   8.560   1.998   3.592 -0.3722  2.6168 -2.0652
  543MOL0     H74887   8.392   2.038   3.604 -1.1872 -0.0822 -0.8799
  543MOL0     H74888   8.344   1.791   3.518 -0.4026  1.4120  1.7786
  543MOL0     H74889   8.522   1.765   3.504  0.9999  0.4631  0.0471
  543MOL0     H74890   8.390   1.853   3.761  0.8069  0.1574  0.8960
  543MOL0     H74891   8.414   1.685   3.723 -1.5752  1.5560  0.0335
  543MOL0     H74892   8.812   1.828   3.832 -2.2836  0.5559 -1.8278
  543MOL0     H74893   8.942   1.841   4.153  1.4282  0.8645 -0.4781
  543MOL0     H74894   8.980   1.860   3.983  0.9933 -0.8705 -0.2632
  543MOL0     H74895   9.000   1.696   4.059  1.7566  0.5162 -0.1225
  543MOL0     H74896   8.570   1.643   4.558 -0.0606  0.5856 -1.7592
  543MOL0     H74897   8.628   1.604   4.789 -0.6206 -1.7031 -1.6933
  543MOL0     H74898   8.795   1.826   4.937  2.2299  1.5134  1.5171
  543MOL0     H74899   8.740   1.687   5.039 -0.7645 -2.1709 -1.9445
  543MOL0     H74900   8.887   1.860   5.151  0.7597 -0.3217  0.8222
  543MOL0     H74901   8.916   1.685   5.168 -1.6809  0.5610  0.5165
  543MOL0     H74902   9.101   1.713   5.001 -0.0880 -0.9785  1.2224
  543MOL0     H74903   9.139   1.818   5.136  2.2243  1.8363 -2.7471
  543MOL0     H74904   9.041   2.009   5.023 -0.3138 -1.4359  2.1278
  543MOL0     H74905   8.995   1.915   4.880  0.4814  1.7044 -1.2936
  543MOL0     H74906   9.279   1.931   5.000 -1.2083 -1.6063  0.4262
  543MOL0     H74907   9.240   1.866   4.839 -1.1983 -2.2460  1.6616
  543MOL0     H74908   9.209   2.158   4.900  1.2635  1.6929 -2.3583
  543MOL0     H74909   9.153   2.066   4.767 -0.8295  1.9386  0.7238
  543MOL0     H74910   9.358   2.175   4.707  2.4898  0.1892 -1.2719
  543MOL0     H74911   9.382   1.997   4.713 -1.9793 -0.6510  1.5721
  543MOL0     H74912   9.449   2.134   4.977  0.1575 -2.2178  0.8874
  543MOL0     H74913   9.557   2.171   4.851 -0.9415 -0.1827 -2.1459
  543MOL0     H74914   9.035   1.736   4.719  0.0492  0.5868  0.0414
  543MOL0     H74915   8.965   1.790   4.483  0.0363 -1.9410 -1.0531
  543MOL0     H74916   8.522   1.618   4.168  0.1164 -2.1829 -1.7619
  543MOL0     H74917   8.427   1.681   3.958  0.3248 -2.8984 -0.0212
  543MOL0     H74918   7.348   2.563   3.380  0.5058  0.6461 -0.3264
  543MOL0     H74919   7.105   2.550   3.410  0.6354  0.3420  0.0560
  543MOL0     H74920   6.699   2.609   3.105  2.0304  1.8306  0.6075
  543MOL0     H74921   6.462   2.599   3.090  1.6076 -1.6015 -1.3824
  543MOL0     H74922   6.228   2.805   3.388  2.1901 -0.8712  0.1576
  543MOL0     H74923   6.097   2.709   3.311 -0.4775  0.9245  0.2030
  543MOL0     H74924   6.277   2.600   3.531 -1.4507  3.3202  0.7409
  543MOL0     H74925   6.180   2.502   3.420  4.0067 -0.0975 -1.2247
  543MOL0     H74926   5.971   2.604   3.513 -0.5221 -1.9363  1.6790
  543MOL0     H74927   6.084   2.548   3.639  1.1155  0.9093  0.1036
  543MOL0     H74928   5.973   2.752   3.701 -1.0335  2.2503  0.0569
  543MOL0     H74929   6.019   2.843   3.560  0.8880  1.7685  2.5214
  543MOL0     H74930   6.374   2.857   3.797 -0.7627  0.6627  0.8236
  543MOL0     H74931   6.432   2.782   3.472 -0.1410 -1.0955  1.0228
  543MOL0     H74932   6.765   2.745   3.583  1.3710  2.2303 -1.8733
  543MOL0     H74933   6.684   2.884   3.547  0.9547 -0.2487 -1.5327
  543MOL0     H74934   6.607   2.757   3.648 -0.2133  1.7237  0.9982
  544MOL0     O74935   2.250   3.841  10.451  0.1347 -0.6466 -0.4541
  544MOL0     C74936   2.296   3.850  10.561  0.1853  0.1519  0.7236
  544MOL0     O74937   2.231   3.883  10.668 -0.5289  0.4434 -0.3338
  544MOL0     C74938   2.115   3.951  10.652  0.3911  0.3823 -1.0564
  544MOL0     C74939   1.990   3.887  10.638  0.5349  0.1504  0.3807
  544MOL0     C74940   1.869   3.962  10.628 -0.7255  0.1261 -0.2269
  544MOL0     C74941   1.867   4.105  10.634  0.0870 -0.3124  0.0536
  544MOL0     O74942   1.751   4.184  10.627  0.0671 -0.1168  0.8556
  544MOL0     C74943   1.627   4.108  10.619 -0.4892 -0.4258  0.3959
  544MOL0     C74944   1.506   4.195  10.623  0.2524  0.4413  0.1690
  544MOL0     C74945   1.378   4.116  10.580  0.2716  0.2444 -0.0456
  544MOL0     C74946   1.256   4.193  10.597  0.5577  0.2670 -0.0186
  544MOL0     C74947   1.134   4.125  10.527 -0.0981 -0.5041  0.5323
  544MOL0     C74948   1.013   4.205  10.541  0.5090 -0.9063  0.2092
  544MOL0     C74949   0.894   4.150  10.462  0.7183 -1.1959  0.8470
  544MOL0     C74950   0.801   4.265  10.445 -0.4941 -0.5344 -0.0185
  544MOL0     N74951   0.676   4.223  10.395  0.0972  0.2249 -0.4399
  544MOL0     C74952   0.656   4.180  10.270  0.7313 -0.0716 -0.4280
  544MOL0     C74953   0.522   4.136  10.272  0.0258 -0.1545  0.6881
  544MOL0     C74954   0.453   4.069  10.154  0.6562  0.2878  0.3524
  544MOL0     C74955   0.316   4.130  10.136  0.3060 -0.0630 -0.2880
  544MOL0     C74956   0.265   4.063  10.016 -0.8769  0.4085  0.4255
  544MOL0     C74957   0.121   4.097   9.974  0.5235 -0.3501 -1.3110
  544MOL0     O74958   0.092   4.234  10.024  0.5485 -0.3690  0.5510
  544MOL0     C74959  -0.042   4.261  10.016  0.3503 -0.6422  0.5098
  544MOL0     C74960  -0.086   4.331  10.125 -0.5862  0.2176  0.4170
  544MOL0     C74961  -0.218   4.364  10.142  0.3717 -0.5911  0.1431
  544MOL0     C74962  -0.255   4.430  10.270  0.2421 -0.3877 -0.2577
  544MOL0     C74963  -0.309   4.336  10.039  0.7841  0.2265 -0.7596
  544MOL0     C74964  -0.456   4.376  10.044  0.0109  0.1109 -0.2352
  544MOL0     O74965  -0.513   4.432  10.146 -0.1744 -0.3721  0.0991
  544MOL0     C74966  -0.644   4.467  10.143 -0.9813 -0.3101  0.4697
  544MOL0     C74967  -0.673   4.603  10.149 -0.4748 -0.4934  1.5540
  544MOL0     C74968  -0.806   4.643  10.141  0.0370 -0.2330 -0.1837
  544MOL0     C74969  -0.915   4.552  10.122 -0.2759 -0.5208  0.7011
  544MOL0     O74970  -1.039   4.606  10.100  0.5107 -0.2051 -0.0935
  544MOL0     C74971  -1.145   4.523  10.077  0.2136  1.0874 -0.0508
  544MOL0     C74972  -1.268   4.589  10.026  0.2192 -0.7729  0.3508
  544MOL0     C74973  -1.381   4.488   9.995  1.1210 -0.1229  0.1610
  544MOL0     C74974  -1.522   4.531  10.038 -0.0613 -1.0305 -0.6349
  544MOL0     C74975  -1.541   4.572  10.183 -0.7183  0.5297 -0.7687
  544MOL0     C74976  -1.682   4.557  10.229 -1.3140 -0.3294 -0.9237
  544MOL0     C74977  -1.702   4.585  10.378 -0.6068 -0.2706 -0.3584
  544MOL0     C74978  -1.849   4.573  10.427  0.2692  0.6011  0.5029
  544MOL0    Cl74979  -1.949   4.692  10.339  0.1149  0.1803  0.2905
  544MOL0     C74980  -0.887   4.416  10.128 -0.6674  0.5808 -0.9694
  544MOL0     C74981  -0.753   4.380  10.136  0.2089  0.0428 -0.2158
  544MOL0     O74982  -0.519   4.353   9.939  0.6027  0.2614 -0.0110
  544MOL0     C74983  -0.260   4.278   9.914 -0.1273 -0.3906 -0.0856
  544MOL0     C74984  -0.121   4.249   9.906 -1.0389 -0.0099  1.0386
  544MOL0     N74985   0.466   4.164  10.396 -0.7729  0.0974  0.5084
  544MOL0     N74986   0.558   4.223  10.467  1.0222 -0.7211 -0.1142
  544MOL0     C74987   1.996   4.171  10.657  0.1880 -0.2946  0.0014
  544MOL0     C74988   2.113   4.093  10.669  0.4463  1.0057  0.1588
  544MOL0     C74989   2.427   3.784  10.579 -0.0007 -0.2547 -0.5478
  544MOL0     C74990   2.468   3.744  10.709 -0.0561  0.7502 -0.0835
  544MOL0     C74991   2.587   3.672  10.736 -0.4170  0.3911  0.3521
  544MOL0     C74992   2.684   3.658  10.640 -0.0298  0.2603 -0.5964
  544MOL0     O74993   2.813   3.612  10.676 -0.3244  0.0268 -0.2707
  544MOL0     C74994   2.927   3.690  10.646  0.1310 -0.1226 -0.1533
  544MOL0     C74995   3.004   3.621  10.529 -0.0934 -0.2073  0.9407
  544MOL0     C74996   3.083   3.716  10.438  0.6415  0.6033 -0.9335
  544MOL0     C74997   3.147   3.645  10.323 -0.4916 -0.0996  1.0601
  544MOL0     C74998   3.098   3.660  10.187 -0.2439 -0.8789  0.4873
  544MOL0     C74999   3.034   3.678  10.084 -0.3671  0.4397 -0.4248
  544MOL0     C75000   2.652   3.701  10.516 -0.0552 -0.8799 -0.0098
  544MOL0     C75001   2.526   3.765  10.480 -0.0796 -0.1070 -0.0752
  544MOL0     C75002   2.509   3.783  10.332  0.1880  0.3382  0.2321
  544MOL0     H75003   1.980   3.779  10.625 -1.4629  0.0058  2.4645
  544MOL0     H75004   1.778   3.904  10.619  0.4183 -2.4634  2.9432
  544MOL0     H75005   1.624   4.022  10.686  2.1516 -0.6295  0.3844
  544MOL0     H75006   1.624   4.067  10.517 -1.8860 -2.5334  1.2174
  544MOL0     H75007   1.485   4.227  10.726 -2.8692 -0.2939 -0.1190
  544MOL0     H75008   1.510   4.282  10.557 -0.2092  2.2522  2.3714
  544MOL0     H75009   1.389   4.088  10.475  3.5063  0.5959  0.0915
  544MOL0     H75010   1.385   4.028  10.645  2.7854 -0.2267 -0.8370
  544MOL0     H75011   1.224   4.209  10.701 -0.2784  0.5681 -0.3138
  544MOL0     H75012   1.266   4.294  10.558  0.6559 -0.0729 -0.8896
  544MOL0     H75013   1.124   4.023  10.565 -1.6614 -0.9454 -0.9217
  544MOL0     H75014   1.154   4.112  10.420  0.9915  0.0317  0.6536
  544MOL0     H75015   0.985   4.218  10.646 -0.3976  1.0340 -0.2397
  544MOL0     H75016   1.045   4.301  10.499 -0.6196 -0.2036  0.9154
  544MOL0     H75017   0.854   4.068  10.522 -0.0917 -1.6914 -0.3189
  544MOL0     H75018   0.915   4.116  10.360 -1.7643 -0.8990  0.1678
  544MOL0     H75019   0.801   4.317  10.541 -0.3351  3.5243 -1.9602
  544MOL0     H75020   0.847   4.339  10.379 -0.4670 -0.2303  0.3394
  544MOL0     H75021   0.723   4.171  10.185  1.1255 -2.6749  0.0815
  544MOL0     H75022   0.434   3.962  10.166  0.6630  0.2494  0.0195
  544MOL0     H75023   0.512   4.072  10.062  0.5565  0.7235  0.2990
  544MOL0     H75024   0.265   4.107  10.230  1.9378 -0.0731  0.6189
  544MOL0     H75025   0.351   4.231  10.112 -0.6477 -0.0766 -1.9098
  544MOL0     H75026   0.325   4.090   9.928 -2.1351 -0.1753 -0.6365
  544MOL0     H75027   0.277   3.955  10.024 -1.5290  0.2320 -0.8226
  544MOL0     H75028   0.112   4.080   9.866  1.6982 -1.4816 -1.2564
  544MOL0     H75029   0.055   4.026  10.024  0.5449 -1.2365 -2.4950
  544MOL0     H75030  -0.010   4.356  10.198  0.7780 -2.6456  0.1116
  544MOL0     H75031  -0.247   4.538  10.258  2.9908 -0.4091  0.7864
  544MOL0     H75032  -0.181   4.417  10.349  1.3314  1.9956 -0.7963
  544MOL0     H75033  -0.350   4.388  10.306 -0.6362 -0.2076 -2.2291
  544MOL0     H75034  -0.592   4.674  10.142  1.6391 -2.6997  2.3314
  544MOL0     H75035  -0.825   4.750  10.141  0.0084 -0.1754  2.4983
  544MOL0     H75036  -1.117   4.440  10.011 -0.7998 -2.0334  3.1115
  544MOL0     H75037  -1.177   4.478  10.171 -0.6459  0.8591 -0.4472
  544MOL0     H75038  -1.309   4.660  10.098 -1.3690  1.9034 -2.9077
  544MOL0     H75039  -1.248   4.653   9.939  0.3247 -2.9819 -1.3218
  544MOL0     H75040  -1.364   4.391  10.044 -1.4669 -0.8238 -0.1636
  544MOL0     H75041  -1.384   4.474   9.887  1.3766 -1.4903  0.3067
  544MOL0     H75042  -1.590   4.449  10.011  2.7237 -3.6084 -0.3297
  544MOL0     H75043  -1.560   4.620   9.986  0.6556  0.1880  0.8761
  544MOL0     H75044  -1.472   4.516  10.247 -0.6006 -0.0286 -1.3759
  544MOL0     H75045  -1.517   4.677  10.201  0.0396 -0.0090  1.7989
  544MOL0     H75046  -1.705   4.451  10.215  0.5269 -1.4045  2.9467
  544MOL0     H75047  -1.749   4.622  10.171 -1.3255  0.0319 -0.5141
  544MOL0     H75048  -1.669   4.686  10.402  1.6772 -0.9430 -0.4063
  544MOL0     H75049  -1.642   4.520  10.442 -0.3570 -0.4781 -0.7990
  544MOL0     H75050  -1.853   4.603  10.533  1.4854  0.9756  0.4619
  544MOL0     H75051  -1.881   4.470  10.408  0.3030  0.5929  0.4891
  544MOL0     H75052  -0.961   4.336  10.132 -0.1871  0.1772  0.5023
  544MOL0     H75053  -0.726   4.275  10.128 -0.8486 -0.2104 -0.5963
  544MOL0     H75054  -0.333   4.252   9.838 -0.8918 -0.1803  0.5723
  544MOL0     H75055  -0.081   4.203   9.817  0.3758 -0.7784  2.0255
  544MOL0     H75056   2.000   4.277  10.682 -1.0188 -0.0735 -0.6757
  544MOL0     H75057   2.205   4.151  10.671  1.0353  0.3059 -2.6024
  544MOL0     H75058   2.388   3.745  10.782 -1.6915 -0.1022 -1.7566
  544MOL0     H75059   2.612   3.638  10.836  1.3127 -2.3651 -0.9064
  544MOL0     H75060   2.899   3.794  10.625 -0.0856  0.2109  1.6300
  544MOL0     H75061   2.996   3.693  10.730 -0.6260  0.9885  0.4664
  544MOL0     H75062   2.931   3.568  10.467  0.3018  1.2491 -0.8503
  544MOL0     H75063   3.075   3.549  10.570  1.1924  2.0840  2.9760
  544MOL0     H75064   3.025   3.800  10.398 -0.2986  0.5095  0.1812
  544MOL0     H75065   3.154   3.758  10.508  1.3377 -0.0970 -1.2079
  544MOL0     H75066   3.150   3.538  10.346 -0.5555 -0.5703 -0.9424
  544MOL0     H75067   3.248   3.687  10.327 -0.4585 -0.0925  0.2939
  544MOL0     H75068   2.984   3.693   9.990 -0.0188  0.0921 -0.6723
  544MOL0     H75069   2.736   3.693  10.447 -1.1764 -0.8836 -1.4181
  544MOL0     H75070   2.479   3.689  10.284  0.0112  0.4743  0.0775
  544MOL0     H75071   2.449   3.869  10.302 -0.1555 -0.2724 -0.8792
  544MOL0     H75072   2.608   3.805  10.291  0.9749 -1.0556  1.2772
  545MOL0     O75073   0.624   0.597   1.982  0.0733  1.2110  0.0141
  545MOL0     C75074   0.694   0.594   2.084  0.3426 -0.5669  0.4412
  545MOL0     O75075   0.648   0.576   2.211 -0.5579 -0.2717 -0.1080
  545MOL0     C75076   0.514   0.536   2.231  0.1522 -0.0351 -0.5952
  545MOL0     C75077   0.406   0.597   2.165 -0.4181  0.4183 -0.2149
  545MOL0     C75078   0.280   0.550   2.178  0.6363 -0.2820 -0.0833
  545MOL0     C75079   0.241   0.448   2.268 -0.0035  0.2682 -0.3462
  545MOL0     O75080   0.104   0.417   2.275 -0.7442  0.3406 -0.6645
  545MOL0     C75081   0.066   0.373   2.401  0.1698 -0.8899 -1.1082
  545MOL0     C75082  -0.096   0.342   2.405 -0.0158 -0.2858 -0.3073
  545MOL0     C75083  -0.142   0.267   2.531 -0.5851 -0.3129  0.1282
  545MOL0     C75084  -0.296   0.286   2.556 -0.6260  0.3946  0.5683
  545MOL0     C75085  -0.341   0.199   2.676  0.5911  0.1236 -0.0910
  545MOL0     C75086  -0.475   0.231   2.742  0.1963 -0.4590 -0.3337
  545MOL0     C75087  -0.493   0.141   2.863  0.9545 -0.0793 -0.6851
  545MOL0     C75088  -0.625   0.193   2.937 -0.3157  0.4377 -0.0326
  545MOL0     N75089  -0.650   0.123   3.060  0.1489  0.8807 -0.0595
  545MOL0     C75090  -0.572   0.132   3.173 -0.2926 -0.8948 -0.0062
  545MOL0     C75091  -0.634   0.064   3.273  1.2714  0.0090 -0.5223
  545MOL0     C75092  -0.588   0.048   3.413  0.3616  0.0572  0.4062
  545MOL0     C75093  -0.443   0.001   3.429  0.3831  0.6942  0.1157
  545MOL0     C75094  -0.423  -0.130   3.359  0.4049 -0.0432  0.0514
  545MOL0     C75095  -0.311  -0.219   3.404 -0.4946  0.1278  0.4656
  545MOL0     O75096  -0.203  -0.147   3.451  0.5396  0.0321  0.4196
  545MOL0     C75097  -0.095  -0.142   3.365 -0.0118  0.7785 -0.3706
  545MOL0     C75098  -0.026  -0.251   3.296  0.3123  0.4329  0.2482
  545MOL0     C75099   0.093  -0.233   3.218 -0.4613 -0.0310  0.2510
  545MOL0     C75100   0.145  -0.357   3.144  0.0971 -0.0029 -0.1347
  545MOL0     C75101   0.151  -0.109   3.214  0.0186  0.7933 -0.1331
  545MOL0     C75102   0.289  -0.089   3.158 -0.5975 -0.1341 -0.4839
  545MOL0     O75103   0.329   0.045   3.147  0.3498 -0.7641  0.3535
  545MOL0     C75104   0.444   0.080   3.082 -0.1709 -0.2290  0.0928
  545MOL0     C75105   0.525   0.186   3.134  0.9493 -1.0401 -0.0220
  545MOL0     C75106   0.637   0.222   3.062 -0.1081 -0.2083  0.1423
  545MOL0     C75107   0.668   0.163   2.932 -0.9370  0.2428 -0.5629
  545MOL0     O75108   0.780   0.199   2.855  0.2287 -0.0637 -0.5167
  545MOL0     C75109   0.866   0.304   2.902  0.3584  0.0813  0.0210
  545MOL0     C75110   0.996   0.290   2.831 -0.4557  0.0271  0.2343
  545MOL0     C75111   1.102   0.385   2.891 -0.9160 -0.0650  0.6198
  545MOL0     C75112   1.238   0.357   2.838 -0.7113  0.5339  0.1814
  545MOL0     C75113   1.295   0.215   2.880  0.3681  0.1034 -0.3374
  545MOL0     C75114   1.438   0.192   2.835  0.1718  0.5647  0.7085
  545MOL0     C75115   1.460   0.126   2.697  0.2567  0.0850 -0.3249
  545MOL0     C75116   1.600   0.164   2.645 -0.6544  0.0103  0.9167
  545MOL0    Cl75117   1.651   0.053   2.507 -0.0726 -0.0185  0.0620
  545MOL0     C75118   0.580   0.070   2.874  0.3645 -0.3554 -0.3020
  545MOL0     C75119   0.472   0.023   2.950 -0.2461 -0.4396  0.3046
  545MOL0     O75120   0.352  -0.186   3.113 -0.7085  0.1846 -0.1600
  545MOL0     C75121   0.082   0.001   3.273 -0.0617 -0.1763 -0.1301
  545MOL0     C75122  -0.034  -0.022   3.349  0.3775 -0.4908 -0.0775
  545MOL0     N75123  -0.740   0.001   3.213  0.2791 -0.4773 -0.7580
  545MOL0     N75124  -0.759   0.047   3.098 -0.6911 -0.0002  0.2787
  545MOL0     C75125   0.351   0.402   2.344  0.6819  0.1450 -0.8590
  545MOL0     C75126   0.481   0.440   2.324  0.7767  0.8608 -0.2884
  545MOL0     C75127   0.842   0.569   2.073 -0.5707 -0.1128 -0.2208
  545MOL0     C75128   0.887   0.450   2.137 -0.4044 -0.1891  0.2573
  545MOL0     C75129   1.025   0.424   2.145  0.2730 -0.1189 -0.1395
  545MOL0     C75130   1.114   0.520   2.098  0.3927  0.3228  0.0865
  545MOL0     O75131   1.253   0.505   2.097 -0.1015  0.1454  0.8878
  545MOL0     C75132   1.322   0.393   2.154  0.5180  0.3956  0.4492
  545MOL0     C75133   1.343   0.402   2.307 -0.5862  0.2790 -0.5043
  545MOL0     C75134   1.426   0.515   2.356 -0.1028  0.0689  0.4564
  545MOL0     C75135   1.331   0.628   2.390  0.4980  0.6819 -0.4247
  545MOL0     C75136   1.402   0.748   2.429  0.2905  0.2815  0.5482
  545MOL0     C75137   1.467   0.848   2.462 -0.5172 -1.2328 -0.5990
  545MOL0     C75138   1.066   0.635   2.035 -0.5837 -0.4095  0.1534
  545MOL0     C75139   0.930   0.654   2.012 -0.3401  0.1393 -0.6589
  545MOL0     C75140   0.880   0.778   1.943  0.8295  0.1500  0.2504
  545MOL0     H75141   0.426   0.677   2.094 -1.0924 -0.3125 -1.2491
  545MOL0     H75142   0.207   0.606   2.121  2.6129  1.7359 -0.7583
  545MOL0     H75143   0.101   0.446   2.474  3.8665 -3.1185 -0.3848
  545MOL0     H75144   0.113   0.280   2.434 -2.5668 -1.7755  0.6234
  545MOL0     H75145  -0.162   0.429   2.399 -0.8679 -0.8095  0.9976
  545MOL0     H75146  -0.130   0.298   2.311 -1.9819 -1.5454  0.9211
  545MOL0     H75147  -0.108   0.163   2.531  3.2751  0.7748  2.0658
  545MOL0     H75148  -0.095   0.320   2.613  1.3049  2.3431 -2.4671
  545MOL0     H75149  -0.316   0.393   2.558  0.1296  0.5318  1.9123
  545MOL0     H75150  -0.351   0.251   2.468  0.4760  0.9246 -0.3621
  545MOL0     H75151  -0.264   0.200   2.753  0.8337  2.2599 -0.3009
  545MOL0     H75152  -0.354   0.095   2.645  0.6133 -0.9166  3.0321
  545MOL0     H75153  -0.480   0.338   2.765 -0.4931 -0.2897 -1.1974
  545MOL0     H75154  -0.561   0.211   2.676 -0.4363 -2.6280  1.0484
  545MOL0     H75155  -0.406   0.149   2.930  1.8607 -1.0998 -1.6954
  545MOL0     H75156  -0.507   0.037   2.834 -0.0655 -0.5107  1.1845
  545MOL0     H75157  -0.627   0.302   2.949 -1.2558  0.7153 -2.1816
  545MOL0     H75158  -0.711   0.185   2.869 -0.9134  1.7699  0.5158
  545MOL0     H75159  -0.476   0.183   3.177 -0.1974 -1.1411  1.2669
  545MOL0     H75160  -0.645  -0.020   3.476  0.1059 -0.6953 -0.6032
  545MOL0     H75161  -0.602   0.143   3.464 -3.1881 -0.7049  1.0961
  545MOL0     H75162  -0.369   0.071   3.387 -2.6683  2.9214 -2.0175
  545MOL0     H75163  -0.421  -0.021   3.534  1.1889 -1.7777 -0.5001
  545MOL0     H75164  -0.516  -0.187   3.353 -1.8699  3.4258 -0.9784
  545MOL0     H75165  -0.405  -0.096   3.257  2.0010 -0.9843 -0.0062
  545MOL0     H75166  -0.347  -0.283   3.486 -0.2966  1.2964  1.4951
  545MOL0     H75167  -0.283  -0.293   3.328  0.5949  0.1648  0.8057
  545MOL0     H75168  -0.070  -0.346   3.323 -1.8672  1.4215  0.3500
  545MOL0     H75169   0.165  -0.343   3.038  0.0713 -4.4348 -0.9126
  545MOL0     H75170   0.075  -0.441   3.146  0.3269 -0.1963  0.0049
  545MOL0     H75171   0.238  -0.397   3.187 -0.0255 -0.2417 -0.0920
  545MOL0     H75172   0.499   0.233   3.229 -2.0552 -1.4118 -0.5456
  545MOL0     H75173   0.687   0.309   3.104  0.9125  1.3050 -3.7918
  545MOL0     H75174   0.818   0.401   2.884  1.3645  0.7736  0.9327
  545MOL0     H75175   0.885   0.289   3.009  0.4755 -0.4416 -0.0730
  545MOL0     H75176   1.024   0.188   2.858 -0.4362 -0.0059  0.0868
  545MOL0     H75177   0.989   0.302   2.723  1.6153 -0.4119  0.0118
  545MOL0     H75178   1.118   0.362   2.997 -0.3735 -0.3387  0.4855
  545MOL0     H75179   1.072   0.489   2.882 -0.0382  0.4285  2.7242
  545MOL0     H75180   1.302   0.436   2.878 -3.7349  1.1423  4.5719
  545MOL0     H75181   1.242   0.362   2.728  0.8067  0.3123  0.2017
  545MOL0     H75182   1.293   0.203   2.988 -0.2274 -1.3070 -0.4756
  545MOL0     H75183   1.232   0.136   2.838 -0.3846  0.0398  0.8603
  545MOL0     H75184   1.498   0.128   2.901  1.1101 -0.9726 -1.4777
  545MOL0     H75185   1.502   0.281   2.834  3.4597 -1.5439 -1.9108
  545MOL0     H75186   1.385   0.164   2.628  0.7331 -0.3874 -1.1196
  545MOL0     H75187   1.458   0.018   2.716  2.3945 -0.1760 -1.2878
  545MOL0     H75188   1.671   0.169   2.728  0.4411  0.8336 -0.0245
  545MOL0     H75189   1.599   0.266   2.604 -0.3628 -0.9074 -1.5128
  545MOL0     H75190   0.595   0.015   2.782 -1.9796 -0.9040 -0.4284
  545MOL0     H75191   0.402  -0.052   2.914  0.9502 -2.2473  1.5674
  545MOL0     H75192   0.122   0.101   3.265  0.4029 -0.4189 -0.9914
  545MOL0     H75193  -0.071   0.072   3.388  2.1914  0.3996 -0.3772
  545MOL0     H75194   0.334   0.313   2.405  1.2567  0.0666 -0.8036
  545MOL0     H75195   0.554   0.401   2.394 -2.4135 -0.8216  2.4373
  545MOL0     H75196   0.824   0.375   2.185 -1.2318  1.6815  2.2826
  545MOL0     H75197   1.065   0.338   2.198 -0.6757 -0.8780 -0.6227
  545MOL0     H75198   1.269   0.303   2.123 -0.3220  0.3749  1.8765
  545MOL0     H75199   1.422   0.406   2.112  0.3516  2.3508  0.5351
  545MOL0     H75200   1.387   0.306   2.333  1.3271  0.6142 -2.2739
  545MOL0     H75201   1.243   0.398   2.352 -1.6091  2.9821 -2.2365
  545MOL0     H75202   1.472   0.481   2.449 -1.0230 -0.3867  0.7595
  545MOL0     H75203   1.494   0.551   2.278 -0.0138 -1.7015 -0.3296
  545MOL0     H75204   1.264   0.602   2.473 -1.9670 -0.1745 -2.5381
  545MOL0     H75205   1.268   0.648   2.303  0.3356 -1.6963 -0.8949
  545MOL0     H75206   1.523   0.935   2.490 -2.2247 -0.4019  0.3874
  545MOL0     H75207   1.132   0.717   2.006  2.1434 -2.8577 -1.1238
  545MOL0     H75208   0.841   0.857   2.007  0.2775 -1.2063  1.6391
  545MOL0     H75209   0.963   0.817   1.883  0.9727 -0.8817 -0.2505
  545MOL0     H75210   0.803   0.749   1.870 -0.0321  1.4266  0.6286
  546MOL0     O75211   4.733   0.722  10.324 -0.2805  0.3498 -0.3497
  546MOL0     C75212   4.688   0.678  10.218  0.5897  0.4119  0.2676
  546MOL0     O75213   4.753   0.686  10.095  0.2529 -0.0745  0.0669
  546MOL0     C75214   4.893   0.698  10.093 -0.2744  0.0231 -0.4720
  546MOL0     C75215   4.946   0.795  10.013 -0.9264  0.8951 -0.7143
  546MOL0     C75216   5.083   0.803   9.993  0.0644  0.0670  0.4222
  546MOL0     C75217   5.168   0.731  10.069  0.5037  0.9980 -0.5600
  546MOL0     O75218   5.299   0.773  10.067  0.8913  0.1329  0.0685
  546MOL0     C75219   5.390   0.680  10.128 -0.1741 -0.1020 -0.6285
  546MOL0     C75220   5.532   0.730  10.080  0.1357  0.7868  0.1507
  546MOL0     C75221   5.592   0.829  10.168 -0.1709 -0.1531  0.6681
  546MOL0     C75222   5.696   0.903  10.071 -0.2871  0.2404  0.3902
  546MOL0     C75223   5.775   0.998  10.152 -0.0906 -0.6703  0.1194
  546MOL0     C75224   5.872   1.073  10.058  0.5536 -0.1755 -0.4114
  546MOL0     C75225   5.886   1.211  10.118 -0.1291 -0.2698  0.7430
  546MOL0     C75226   5.947   1.306  10.015 -1.0377 -0.4167  0.7867
  546MOL0     N75227   6.076   1.257   9.952  0.4715 -0.5512  0.1851
  546MOL0     C75228   6.081   1.178   9.839 -0.0372 -1.1719  0.2460
  546MOL0     C75229   6.208   1.165   9.796 -0.6954  0.0844 -0.0423
  546MOL0     C75230   6.278   1.092   9.683 -0.0684 -0.5681 -0.4270
  546MOL0     C75231   6.338   0.960   9.729 -0.0608  0.0145 -0.6962
  546MOL0     C75232   6.438   0.967   9.844 -0.1920 -0.1524  0.5679
  546MOL0     C75233   6.567   1.052   9.815 -0.1196 -0.1618 -0.1718
  546MOL0     O75234   6.650   1.006   9.705 -0.7265 -0.0129 -0.4500
  546MOL0     C75235   6.767   1.076   9.680  0.1276 -0.3776 -0.4044
  546MOL0     C75236   6.839   1.036   9.565  0.2413 -0.0097 -0.0446
  546MOL0     C75237   6.960   1.106   9.530 -0.8879  0.1839 -0.0149
  546MOL0     C75238   7.048   1.053   9.418 -0.0391 -1.0256 -0.0769
  546MOL0     C75239   7.001   1.224   9.605  0.0631  0.1851 -0.2387
  546MOL0     C75240   7.122   1.305   9.575  0.2721  0.3573  0.4077
  546MOL0     O75241   7.175   1.371   9.680  0.3407  0.1079  0.1440
  546MOL0     C75242   7.286   1.443   9.667  0.1358  0.1017  1.0021
  546MOL0     C75243   7.410   1.384   9.710 -0.2035  0.3123  0.2062
  546MOL0     C75244   7.527   1.461   9.706  0.3929 -0.1161 -0.2210
  546MOL0     C75245   7.520   1.600   9.684 -1.1205 -0.0624  0.1554
  546MOL0     O75246   7.622   1.690   9.717  0.5941  0.1168  0.9706
  546MOL0     C75247   7.675   1.749   9.596 -0.0287 -0.1617 -0.1481
  546MOL0     C75248   7.824   1.776   9.608  0.6884  0.6424 -0.6978
  546MOL0     C75249   7.862   1.837   9.468  0.6314 -0.1445 -0.1801
  546MOL0     C75250   8.002   1.908   9.466 -0.5015  0.0475 -0.7035
  546MOL0     C75251   7.996   2.019   9.362  0.0693  0.0335 -0.5722
  546MOL0     C75252   8.125   2.082   9.355  0.4505 -0.4133 -0.4105
  546MOL0     C75253   8.121   2.181   9.233 -0.3192 -0.0334 -0.2585
  546MOL0     C75254   8.259   2.203   9.182  0.3044 -0.4533 -0.1227
  546MOL0    Cl75255   8.338   2.066   9.115  0.0205 -0.0435 -0.2615
  546MOL0     C75256   7.409   1.655   9.634  0.3424  0.7101  0.2936
  546MOL0     C75257   7.287   1.577   9.629  0.3267 -0.2516 -0.7742
  546MOL0     O75258   7.163   1.311   9.463 -0.5209 -0.3069  0.8071
  546MOL0     C75259   6.932   1.247   9.724 -0.4431 -0.5821  0.5793
  546MOL0     C75260   6.826   1.174   9.765  1.1101  0.9629 -0.8187
  546MOL0     N75261   6.279   1.238   9.893 -0.7683 -0.5159  0.2840
  546MOL0     N75262   6.205   1.298   9.980  0.1452 -0.4913  0.1422
  546MOL0     C75263   5.118   0.629  10.152  0.0033 -0.5380  0.7524
  546MOL0     C75264   4.982   0.614  10.163  0.3495  0.1285 -0.0856
  546MOL0     C75265   4.552   0.627  10.222 -0.3502  1.0556  0.0528
  546MOL0     C75266   4.476   0.623  10.103  0.4047 -0.1427 -0.6238
  546MOL0     C75267   4.341   0.578  10.101  0.3928 -0.4746 -0.0745
  546MOL0     C75268   4.278   0.530  10.215 -0.2036  0.5487 -0.2497
  546MOL0     O75269   4.150   0.481  10.226  0.2255  0.1538 -0.2709
  546MOL0     C75270   4.068   0.452  10.115 -0.4338 -0.2840  0.1749
  546MOL0     C75271   3.971   0.331  10.142 -0.5551 -0.0871 -0.3632
  546MOL0     C75272   4.059   0.200  10.141 -0.4150 -0.6031 -0.4938
  546MOL0     C75273   3.966   0.082  10.167  0.0353 -0.2912 -0.2571
  546MOL0     C75274   3.871   0.061  10.056  0.9496  0.5530 -0.1132
  546MOL0     C75275   3.792   0.036   9.963  0.1647 -0.4686  0.5028
  546MOL0     C75276   4.350   0.522  10.330  0.1037 -0.4965 -0.6268
  546MOL0     C75277   4.492   0.567  10.336  0.4010  1.7987  0.0006
  546MOL0     C75278   4.570   0.522  10.462  0.6815  0.1681 -0.5835
  546MOL0     H75279   4.879   0.856   9.953  0.7161  2.3812 -1.1087
  546MOL0     H75280   5.123   0.864   9.912  2.9685 -2.7825 -0.5169
  546MOL0     H75281   5.377   0.577  10.094 -1.4848 -0.5926  1.2150
  546MOL0     H75282   5.382   0.696  10.236  0.7228  3.8382 -0.9554
  546MOL0     H75283   5.605   0.650  10.064 -0.8344  0.0615 -0.8304
  546MOL0     H75284   5.507   0.770   9.981 -1.2906  1.0103  0.5822
  546MOL0     H75285   5.520   0.893  10.219  0.5182  0.1316  1.2981
  546MOL0     H75286   5.650   0.779  10.246  0.6635  0.8569  0.7198
  546MOL0     H75287   5.763   0.829  10.028 -0.2980  0.1669  0.4984
  546MOL0     H75288   5.646   0.962   9.993  0.0259 -0.0565 -0.0317
  546MOL0     H75289   5.825   0.942  10.232 -1.2916 -0.8976  0.7334
  546MOL0     H75290   5.700   1.070  10.187  0.7583  3.3900 -5.2409
  546MOL0     H75291   5.966   1.017  10.055  0.0820 -1.1979  1.6551
  546MOL0     H75292   5.827   1.080   9.959 -3.7456  2.1702  1.4361
  546MOL0     H75293   5.945   1.210  10.210  0.4662 -0.1730  0.3708
  546MOL0     H75294   5.787   1.250  10.142 -0.2024  0.7058 -1.0179
  546MOL0     H75295   5.866   1.313   9.942 -0.6105 -1.7080  0.1559
  546MOL0     H75296   5.956   1.407  10.057 -1.0493 -0.5517  1.1213
  546MOL0     H75297   5.987   1.156   9.788 -0.6360  0.4443  0.6032
  546MOL0     H75298   6.351   1.158   9.635 -1.0248 -0.6444 -2.0279
  546MOL0     H75299   6.196   1.065   9.616 -0.3833 -0.8544  0.0704
  546MOL0     H75300   6.264   0.887   9.761  3.7539 -3.6878  0.6520
  546MOL0     H75301   6.389   0.922   9.640 -1.2865  1.2197 -1.9769
  546MOL0     H75302   6.388   1.015   9.929 -1.6884 -2.4247  1.0754
  546MOL0     H75303   6.463   0.869   9.884  0.9251 -0.0574  0.1426
  546MOL0     H75304   6.526   1.148   9.784  1.2669  0.1233 -1.2314
  546MOL0     H75305   6.626   1.069   9.905 -0.6106  1.8477 -0.1890
  546MOL0     H75306   6.819   0.949   9.503  2.4315 -1.1405  0.7097
  546MOL0     H75307   7.046   1.120   9.332 -0.3044 -2.9637 -1.6760
  546MOL0     H75308   7.018   0.948   9.403 -0.2897 -1.5135  3.0125
  546MOL0     H75309   7.155   1.055   9.442 -0.4494  2.3951  2.2296
  546MOL0     H75310   7.410   1.285   9.753  0.0750  0.2859  0.1503
  546MOL0     H75311   7.617   1.409   9.735 -0.3782 -1.3946 -0.0316
  546MOL0     H75312   7.655   1.688   9.507 -2.7076 -0.8914  0.8812
  546MOL0     H75313   7.623   1.845   9.588  0.7191  0.4044  1.3852
  546MOL0     H75314   7.840   1.844   9.692 -0.5801  3.5880 -2.6743
  546MOL0     H75315   7.887   1.687   9.617 -0.5354 -0.5111 -2.7873
  546MOL0     H75316   7.790   1.913   9.434  0.2839 -0.3668  0.0579
  546MOL0     H75317   7.870   1.764   9.387  3.4457  0.5441 -0.6301
  546MOL0     H75318   8.075   1.830   9.442  0.1461 -0.2517  1.8638
  546MOL0     H75319   8.034   1.955   9.560  1.7299  0.0015 -1.3934
  546MOL0     H75320   7.956   1.984   9.266  0.7757 -0.7271 -0.6048
  546MOL0     H75321   7.924   2.091   9.402  1.1520  1.5168 -1.2299
  546MOL0     H75322   8.203   2.006   9.347 -0.8767 -1.6468 -2.6453
  546MOL0     H75323   8.145   2.148   9.440  0.0002  0.5730 -1.0435
  546MOL0     H75324   8.078   2.273   9.272 -0.3409  0.9856 -2.5407
  546MOL0     H75325   8.053   2.136   9.160 -1.6102 -1.5915  1.7665
  546MOL0     H75326   8.326   2.242   9.259  0.7802 -0.1957 -0.6543
  546MOL0     H75327   8.246   2.280   9.106  1.5518 -0.5408 -0.4473
  546MOL0     H75328   7.417   1.761   9.614 -0.0667  0.3857 -1.8811
  546MOL0     H75329   7.194   1.632   9.622 -0.0300 -0.5916  0.8906
  546MOL0     H75330   6.972   1.323   9.790  0.1059 -0.1462 -0.2338
  546MOL0     H75331   6.791   1.190   9.867 -0.1091 -3.1129 -0.3953
  546MOL0     H75332   5.187   0.563  10.204  1.8174  0.4845 -0.2325
  546MOL0     H75333   4.931   0.552  10.236  0.1614  0.2787 -0.0858
  546MOL0     H75334   4.521   0.659  10.010  1.2074  2.2398  0.6058
  546MOL0     H75335   4.294   0.583  10.004  3.7014 -1.2042 -1.8711
  546MOL0     H75336   4.006   0.539  10.091 -1.3306 -0.6679  1.0630
  546MOL0     H75337   4.129   0.430  10.026 -0.0084 -1.1506  0.6675
  546MOL0     H75338   3.900   0.321  10.060 -0.1998 -0.5170 -0.6202
  546MOL0     H75339   3.908   0.336  10.232 -0.3390  1.7922 -0.2628
  546MOL0     H75340   4.114   0.188  10.047 -0.4283  0.0211 -0.5913
  546MOL0     H75341   4.131   0.208  10.223  0.4619  3.0202 -1.4182
  546MOL0     H75342   3.912   0.095  10.261  1.0022  3.2390 -0.0353
  546MOL0     H75343   4.035  -0.001  10.183  0.7006  0.2352 -0.3580
  546MOL0     H75344   3.754   0.035   9.863 -1.4851  3.3364  0.9266
  546MOL0     H75345   4.319   0.485  10.428  0.4383  0.0807 -0.2977
  546MOL0     H75346   4.595   0.615  10.514 -4.8156  1.4135  0.5260
  546MOL0     H75347   4.515   0.469  10.540  2.4170  1.8625  1.9473
  546MOL0     H75348   4.656   0.461  10.431 -0.5741 -0.8121 -2.3290
  547MOL0     O75349   9.965   8.600   7.230  0.2072  0.3911  0.0076
  547MOL0     C75350   9.972   8.507   7.154 -1.5070  0.4674  0.7148
  547MOL0     O75351   9.869   8.457   7.086 -0.0473 -0.3426 -0.0666
  547MOL0     C75352   9.739   8.504   7.102  0.0155 -0.2555 -0.8993
  547MOL0     C75353   9.646   8.494   7.000 -1.5973 -0.6655 -0.2212
  547MOL0     C75354   9.513   8.533   7.015  0.8100  0.1189  0.0599
  547MOL0     C75355   9.459   8.555   7.154 -0.3531 -0.0592  0.7286
  547MOL0     O75356   9.334   8.600   7.185 -1.1045  0.2370  0.0778
  547MOL0     C75357   9.270   8.665   7.075  0.0973 -0.2082  0.3261
  547MOL0     C75358   9.127   8.698   7.118  0.4761  0.9581 -1.0405
  547MOL0     C75359   9.045   8.797   7.027  0.3392 -0.9428  0.0639
  547MOL0     C75360   8.890   8.783   7.047 -0.2879 -0.2776  0.0001
  547MOL0     C75361   8.822   8.919   7.000 -0.2000  0.3717  0.2322
  547MOL0     C75362   8.671   8.879   6.993 -0.8624 -0.1395  0.0654
  547MOL0     C75363   8.592   9.005   6.942 -0.0006  0.8728 -0.2036
  547MOL0     C75364   8.615   9.051   6.801  0.0887  0.3477 -0.7264
  547MOL0     N75365   8.516   9.006   6.700 -0.8772 -0.4309 -0.0216
  547MOL0     C75366   8.380   8.985   6.719 -0.1515 -0.1864  0.0921
  547MOL0     C75367   8.332   8.933   6.607 -0.0375  0.8894 -0.1203
  547MOL0     C75368   8.186   8.897   6.589 -0.5006  0.3709 -0.3888
  547MOL0     C75369   8.175   8.742   6.566 -0.7678 -0.1519  0.3743
  547MOL0     C75370   8.224   8.649   6.681 -0.0826 -0.6064  0.5219
  547MOL0     C75371   8.377   8.614   6.679  0.0471 -1.1387 -0.3579
  547MOL0     O75372   8.411   8.515   6.778 -0.4204  0.1685  0.4908
  547MOL0     C75373   8.550   8.495   6.794  0.1260  0.2689  0.0712
  547MOL0     C75374   8.654   8.570   6.726 -0.0941 -0.5024  0.5099
  547MOL0     C75375   8.793   8.536   6.737 -0.0292  0.3908  0.1970
  547MOL0     C75376   8.890   8.628   6.665  0.3283  1.0535 -0.6246
  547MOL0     C75377   8.833   8.426   6.817 -0.0442  0.9191  0.9266
  547MOL0     C75378   8.975   8.394   6.834  0.3466  1.2503 -0.0405
  547MOL0     O75379   8.995   8.257   6.857 -0.4895  0.2122  0.4468
  547MOL0     C75380   9.123   8.216   6.870 -0.3411  0.2143 -0.1163
  547MOL0     C75381   9.184   8.157   6.752  0.2839 -0.8154 -0.2452
  547MOL0     C75382   9.320   8.124   6.756 -0.2705  0.8837  0.3953
  547MOL0     C75383   9.398   8.143   6.868 -0.2377 -1.1049  0.0530
  547MOL0     O75384   9.535   8.124   6.870  0.6843  0.3597  0.1147
  547MOL0     C75385   9.622   8.179   6.768  0.3523  0.5565 -1.4281
  547MOL0     C75386   9.770   8.149   6.815  0.6449  0.5883  0.3847
  547MOL0     C75387   9.808   7.995   6.804  0.2820  1.1591  1.1613
  547MOL0     C75388   9.952   7.985   6.831 -0.5192  0.3189 -0.5269
  547MOL0     C75389  10.011   7.845   6.814 -0.0889  0.3374  0.5307
  547MOL0     C75390  10.156   7.843   6.868  0.0207  0.2579  1.1896
  547MOL0     C75391  10.243   7.729   6.803  0.4288 -0.4465  0.5078
  547MOL0     C75392  10.393   7.771   6.820  0.2628 -0.3737 -0.1550
  547MOL0    Cl75393  10.433   7.756   6.993  0.0552 -0.7413  0.4759
  547MOL0     C75394   9.338   8.195   6.983 -0.2978  0.2814  0.6907
  547MOL0     C75395   9.203   8.234   6.985  0.4798  0.4273  1.1350
  547MOL0     O75396   9.055   8.491   6.847 -0.5727  0.0463  0.4867
  547MOL0     C75397   8.726   8.356   6.887  0.0661 -0.5154 -0.3278
  547MOL0     C75398   8.592   8.396   6.880  0.1153  0.2947  0.2145
  547MOL0     N75399   8.431   8.917   6.516  0.3471  0.2898  0.2759
  547MOL0     N75400   8.536   8.953   6.578 -0.0752 -0.2273  0.5788
  547MOL0     C75401   9.555   8.562   7.257  0.1805  0.2174 -0.8490
  547MOL0     C75402   9.689   8.529   7.232 -0.1422  0.3290  0.5237
  547MOL0     C75403  10.096   8.448   7.113 -0.8274  1.1795 -0.0068
  547MOL0     C75404  10.104   8.328   7.042  0.0442  0.1987  1.2983
  547MOL0     C75405  10.223   8.269   6.996  0.2281 -0.3945  0.4284
  547MOL0     C75406  10.348   8.320   7.040  0.4609  0.0481 -1.2356
  547MOL0     O75407  10.471   8.277   7.004 -0.1645  0.5068  0.4404
  547MOL0     C75408  10.487   8.131   6.979  0.9299  0.5366  1.5629
  547MOL0     C75409  10.622   8.103   6.923 -0.4897  0.1510  0.2227
  547MOL0     C75410  10.736   8.172   6.999  0.2748 -0.4648 -0.4232
  547MOL0     C75411  10.875   8.141   6.953 -0.4434  0.5730 -0.1268
  547MOL0     C75412  10.916   8.002   6.947 -0.0778  0.4881  0.2848
  547MOL0     C75413  10.958   7.890   6.932  0.7896  0.5638 -0.4666
  547MOL0     C75414  10.345   8.427   7.133 -0.0356 -0.9106  0.4047
  547MOL0     C75415  10.226   8.498   7.159 -0.0846 -0.1134  1.2724
  547MOL0     C75416  10.241   8.628   7.231  0.0673 -0.1373 -0.4937
  547MOL0     H75417   9.697   8.458   6.912 -0.6603 -1.7198  0.7252
  547MOL0     H75418   9.447   8.517   6.931 -1.6836  0.4789  1.8215
  547MOL0     H75419   9.269   8.597   6.989 -0.6232  0.9100 -0.5869
  547MOL0     H75420   9.321   8.752   7.032  0.4851 -0.6107 -0.0403
  547MOL0     H75421   9.066   8.608   7.104 -1.5607  1.6705  2.2902
  547MOL0     H75422   9.124   8.737   7.220 -1.3645  1.0020 -1.0807
  547MOL0     H75423   9.059   8.901   7.058 -2.6506  0.3366 -2.3720
  547MOL0     H75424   9.075   8.786   6.923  1.4050 -2.1605  0.4724
  547MOL0     H75425   8.875   8.695   6.983 -2.5846 -0.6327  0.9223
  547MOL0     H75426   8.853   8.760   7.147  0.4156 -0.0423  0.3218
  547MOL0     H75427   8.860   8.937   6.899  2.3057 -0.3542  0.9661
  547MOL0     H75428   8.850   8.996   7.072 -0.9466  0.9591 -0.0931
  547MOL0     H75429   8.655   8.788   6.934 -0.8495  0.1663 -0.4070
  547MOL0     H75430   8.631   8.860   7.093 -1.0133 -2.7217 -0.4030
  547MOL0     H75431   8.623   9.075   7.020  2.2705 -0.3756  0.0858
  547MOL0     H75432   8.486   8.978   6.944 -0.3855  1.9279 -2.6131
  547MOL0     H75433   8.612   9.160   6.806  1.6341  0.3567  1.6124
  547MOL0     H75434   8.718   9.034   6.769  0.5692  0.6287  0.6036
  547MOL0     H75435   8.323   9.017   6.806 -0.3101 -0.6652  0.1673
  547MOL0     H75436   8.146   8.935   6.494 -2.1090 -2.7866 -1.0912
  547MOL0     H75437   8.122   8.937   6.668  0.2560 -2.8960  2.1106
  547MOL0     H75438   8.074   8.711   6.539 -0.6541 -0.6877  0.5566
  547MOL0     H75439   8.242   8.722   6.482  1.6827  0.1835  2.1323
  547MOL0     H75440   8.188   8.679   6.780 -1.3009  0.5539 -0.2569
  547MOL0     H75441   8.176   8.553   6.660 -0.9711 -0.3010  1.1139
  547MOL0     H75442   8.406   8.583   6.578  1.2877 -1.5998  0.1132
  547MOL0     H75443   8.431   8.706   6.703  0.9433 -1.0434 -2.5651
  547MOL0     H75444   8.628   8.641   6.648 -0.1805  0.4026  1.3386
  547MOL0     H75445   8.967   8.569   6.614 -2.2678 -3.1410 -0.1535
  547MOL0     H75446   8.934   8.690   6.743 -2.7334  2.4874  0.1046
  547MOL0     H75447   8.840   8.682   6.584 -1.4585 -1.3706 -1.2812
  547MOL0     H75448   9.128   8.149   6.659 -0.9302  3.3139 -0.0829
  547MOL0     H75449   9.367   8.071   6.674  0.8922 -0.0098  1.5967
  547MOL0     H75450   9.610   8.127   6.673  0.9160 -0.3294 -1.0213
  547MOL0     H75451   9.615   8.288   6.757 -0.0917  0.3990 -2.8944
  547MOL0     H75452   9.834   8.200   6.743  1.5562  0.7308  1.2902
  547MOL0     H75453   9.778   8.185   6.918  3.5516  1.2052  0.0266
  547MOL0     H75454   9.797   7.971   6.698  2.8570  2.1395  0.6025
  547MOL0     H75455   9.759   7.931   6.878  0.0846 -0.6413 -0.4412
  547MOL0     H75456   9.969   8.031   6.929 -1.2616  1.4517 -0.9002
  547MOL0     H75457  10.008   8.047   6.760  1.2127  1.4360  1.6813
  547MOL0     H75458   9.953   7.782   6.882  0.1980  1.1545  1.5592
  547MOL0     H75459  10.015   7.814   6.709  0.3648  1.8968  0.0530
  547MOL0     H75460  10.153   7.820   6.975  1.5153 -2.3587  0.7665
  547MOL0     H75461  10.207   7.938   6.848  2.9171 -1.5343 -0.9783
  547MOL0     H75462  10.217   7.701   6.700 -0.4627  1.1131  0.2690
  547MOL0     H75463  10.233   7.635   6.859 -0.6204  0.5503  2.0801
  547MOL0     H75464  10.401   7.879   6.806  2.2743 -0.3664  0.7506
  547MOL0     H75465  10.461   7.720   6.751 -0.5847  0.4551 -1.6626
  547MOL0     H75466   9.396   8.204   7.074 -0.7236  3.3335  0.7477
  547MOL0     H75467   9.163   8.282   7.073 -1.5753 -0.9375  1.0096
  547MOL0     H75468   8.750   8.271   6.950  0.8871 -0.9709 -1.2126
  547MOL0     H75469   8.512   8.345   6.932 -2.4911  3.7307 -0.0549
  547MOL0     H75470   9.540   8.570   7.364  1.5210  0.7360 -0.6752
  547MOL0     H75471   9.755   8.519   7.317  0.5432 -0.6053 -0.0980
  547MOL0     H75472  10.011   8.278   7.017 -0.5344  1.4540  0.8675
  547MOL0     H75473  10.223   8.177   6.939  1.6504  0.0241 -0.2950
  547MOL0     H75474  10.469   8.074   7.070  0.1543  0.9973  1.7031
  547MOL0     H75475  10.415   8.104   6.901  2.2628  3.7586 -1.0316
  547MOL0     H75476  10.620   8.135   6.819  0.7871 -1.4151 -0.3309
  547MOL0     H75477  10.642   7.996   6.934  1.4616  0.5734  1.2982
  547MOL0     H75478  10.725   8.280   6.993 -4.4275 -0.4191  2.8799
  547MOL0     H75479  10.722   8.150   7.106  0.8244  1.3435  0.0481
  547MOL0     H75480  10.945   8.184   7.025  0.5825 -1.1743 -0.0176
  547MOL0     H75481  10.897   8.194   6.860 -0.2592  0.5129 -0.1174
  547MOL0     H75482  10.999   7.792   6.924 -0.5312 -0.1818  1.1872
  547MOL0     H75483  10.438   8.460   7.176  1.1769 -1.0651 -1.9201
  547MOL0     H75484  10.193   8.643   7.328  1.7314  0.6167  0.2475
  547MOL0     H75485  10.348   8.643   7.248  0.0467 -0.1783 -0.3274
  547MOL0     H75486  10.199   8.703   7.163  0.3355  1.7042  1.2832
  548MOL0     O75487   5.571   2.735   4.304 -0.3822 -0.5574  0.8990
  548MOL0     C75488   5.572   2.853   4.251 -0.8283  0.2478  0.5679
  548MOL0     O75489   5.669   2.903   4.177  0.5581  0.1926  0.1249
  548MOL0     C75490   5.760   2.814   4.119 -0.2942 -0.0335 -0.3216
  548MOL0     C75491   5.884   2.777   4.181  0.8618  0.1534  0.1404
  548MOL0     C75492   5.979   2.693   4.126 -0.4055  0.3277  0.2292
  548MOL0     C75493   5.956   2.643   3.995  0.5064 -0.1087 -0.7794
  548MOL0     O75494   6.038   2.539   3.941  0.0508  0.0129  0.4026
  548MOL0     C75495   6.183   2.562   3.970 -0.0803 -0.2107  0.6273
  548MOL0     C75496   6.272   2.465   3.900  0.9900 -0.9307  0.0632
  548MOL0     C75497   6.424   2.500   3.910 -0.1485  0.5352 -0.5695
  548MOL0     C75498   6.483   2.460   4.046 -0.2009  0.0170 -0.6594
  548MOL0     C75499   6.627   2.477   4.040  0.1164 -0.1864  0.8918
  548MOL0     C75500   6.705   2.458   4.179  0.2376  0.1408  0.2058
  548MOL0     C75501   6.848   2.467   4.174 -0.3485 -0.1968  0.4159
  548MOL0     C75502   6.905   2.493   4.312  0.4477  1.3895  0.1008
  548MOL0     N75503   7.048   2.527   4.294 -0.6071 -0.0649  0.5699
  548MOL0     C75504   7.095   2.647   4.256  0.5173 -0.3069  0.0879
  548MOL0     C75505   7.231   2.629   4.237  0.5942  1.0865 -0.4952
  548MOL0     C75506   7.326   2.735   4.202  0.0249 -0.2503 -0.1227
  548MOL0     C75507   7.353   2.724   4.049 -0.3246 -0.5538  0.6325
  548MOL0     C75508   7.437   2.838   4.002 -0.9914 -1.1158  0.7716
  548MOL0     C75509   7.535   2.807   3.890 -0.3649  0.5742  0.0082
  548MOL0     O75510   7.474   2.718   3.787  0.4200 -0.7417  0.1738
  548MOL0     C75511   7.556   2.625   3.720  0.7851  0.0212 -0.9217
  548MOL0     C75512   7.494   2.523   3.652  0.5083  0.4773  1.1426
  548MOL0     C75513   7.565   2.427   3.586 -0.6000  0.8539  0.7432
  548MOL0     C75514   7.483   2.323   3.512  1.0399 -0.4487 -0.1873
  548MOL0     C75515   7.711   2.433   3.577 -0.8282 -0.7914 -1.1234
  548MOL0     C75516   7.796   2.327   3.494  1.1534  0.0089 -0.5221
  548MOL0     O75517   7.932   2.332   3.504  0.4466  0.5788 -0.3878
  548MOL0     C75518   8.003   2.224   3.456 -0.4078 -0.9263  0.6776
  548MOL0     C75519   8.037   2.120   3.538  0.0358  0.3531  0.2644
  548MOL0     C75520   8.104   2.008   3.488  0.4828 -0.0375 -0.4227
  548MOL0     C75521   8.109   1.979   3.357  0.1847 -0.4421  0.3511
  548MOL0     O75522   8.158   1.871   3.314 -0.2354 -0.3565 -0.6744
  548MOL0     C75523   8.095   1.827   3.191 -0.4979  0.4423 -1.1029
  548MOL0     C75524   8.137   1.684   3.158  0.5390  0.4902 -0.6321
  548MOL0     C75525   8.260   1.677   3.075  0.6110 -0.1736 -0.1931
  548MOL0     C75526   8.385   1.680   3.164 -0.4151 -0.8292  0.1651
  548MOL0     C75527   8.412   1.556   3.245 -0.3614  0.2128 -0.1188
  548MOL0     C75528   8.569   1.538   3.280  0.6130 -1.2462  0.2742
  548MOL0     C75529   8.593   1.428   3.376  0.2402  0.1397 -0.0563
  548MOL0     C75530   8.748   1.412   3.388 -1.1371  0.3900  0.6230
  548MOL0    Cl75531   8.808   1.491   3.533 -0.2601 -0.3158 -0.1008
  548MOL0     C75532   8.074   2.091   3.272 -0.8194 -0.7226 -0.3142
  548MOL0     C75533   8.030   2.213   3.321 -0.0291 -0.3846 -1.1787
  548MOL0     O75534   7.732   2.241   3.432 -0.3183 -0.1311 -0.0685
  548MOL0     C75535   7.768   2.535   3.652 -0.5454  0.5493 -0.2890
  548MOL0     C75536   7.692   2.630   3.715 -0.5477 -0.7071 -0.5255
  548MOL0     N75537   7.264   2.503   4.284 -0.5036  0.1452  0.1240
  548MOL0     N75538   7.152   2.435   4.303 -0.1953 -0.0265  0.2236
  548MOL0     C75539   5.834   2.685   3.933  0.2233  1.0034  0.2289
  548MOL0     C75540   5.737   2.758   3.993  0.8207  0.8089 -0.0067
  548MOL0     C75541   5.457   2.950   4.274  0.7454  0.2301  0.2356
  548MOL0     C75542   5.332   2.902   4.320 -0.6454 -0.0296  0.8689
  548MOL0     C75543   5.229   2.988   4.358  0.7105  0.6273 -1.0803
  548MOL0     C75544   5.240   3.129   4.351 -0.0225  0.6575  0.4521
  548MOL0     O75545   5.135   3.215   4.376  0.6244  0.4107 -0.3547
  548MOL0     C75546   5.088   3.215   4.513  1.3991 -0.0842  1.2228
  548MOL0     C75547   5.042   3.350   4.566  0.0179  0.2793  0.2957
  548MOL0     C75548   5.159   3.455   4.572  1.2518  0.5476  0.3620
  548MOL0     C75549   5.288   3.411   4.644 -0.8730  0.3990  0.4776
  548MOL0     C75550   5.272   3.405   4.791  0.6832  0.4843 -0.1837
  548MOL0     C75551   5.239   3.409   4.914  0.1009  1.0714  0.3667
  548MOL0     C75552   5.360   3.178   4.300  0.1127 -0.0293  0.0244
  548MOL0     C75553   5.469   3.089   4.264 -0.1992 -0.9041 -0.1304
  548MOL0     C75554   5.591   3.158   4.207  0.1204  0.7434 -0.1100
  548MOL0     H75555   5.899   2.808   4.283 -0.3098 -0.6399  0.5806
  548MOL0     H75556   6.064   2.667   4.188  1.2106 -0.0109 -2.0185
  548MOL0     H75557   6.191   2.552   4.078  0.0957 -1.0287  0.5385
  548MOL0     H75558   6.222   2.662   3.946  1.4249 -0.8398  0.3880
  548MOL0     H75559   6.254   2.367   3.943  2.0799 -0.0769  2.6385
  548MOL0     H75560   6.240   2.464   3.795  0.7195  2.9088 -0.0314
  548MOL0     H75561   6.466   2.436   3.831 -0.0839  0.1279 -0.2119
  548MOL0     H75562   6.437   2.607   3.897  0.9990  0.6708  1.3121
  548MOL0     H75563   6.434   2.520   4.124  1.1836 -0.0030  0.2720
  548MOL0     H75564   6.470   2.357   4.080  3.0723  0.1801  1.6915
  548MOL0     H75565   6.640   2.578   4.001 -1.0962 -0.6714 -0.9221
  548MOL0     H75566   6.659   2.410   3.960  0.7806  1.0849  0.0618
  548MOL0     H75567   6.654   2.542   4.228 -2.7531  0.1679 -2.5191
  548MOL0     H75568   6.676   2.368   4.233 -0.5405  0.9534  1.1814
  548MOL0     H75569   6.864   2.559   4.117  0.2227 -1.8780 -2.4036
  548MOL0     H75570   6.896   2.387   4.116  1.0689  1.4573 -0.8138
  548MOL0     H75571   6.864   2.579   4.365 -2.2551 -0.1164  0.6072
  548MOL0     H75572   6.882   2.404   4.372  2.3207 -0.2616 -1.4677
  548MOL0     H75573   7.050   2.743   4.233 -0.2968 -0.4662  0.9831
  548MOL0     H75574   7.415   2.704   4.259  1.4726 -0.4477 -2.3702
  548MOL0     H75575   7.293   2.833   4.239 -1.8371 -1.2864  1.1011
  548MOL0     H75576   7.401   2.628   4.027 -1.9715 -1.3526  0.3709
  548MOL0     H75577   7.263   2.733   3.988  0.6986 -0.3113 -0.8950
  548MOL0     H75578   7.364   2.915   3.974 -3.3677 -3.1245  1.0761
  548MOL0     H75579   7.502   2.865   4.086  0.5416  1.3288 -1.0656
  548MOL0     H75580   7.570   2.905   3.859 -2.0717  0.8131 -1.2798
  548MOL0     H75581   7.620   2.753   3.934 -0.7625 -1.2969 -1.3783
  548MOL0     H75582   7.388   2.509   3.667  0.6254 -1.3373  0.5339
  548MOL0     H75583   7.473   2.350   3.407  1.5898  0.0376 -0.1171
  548MOL0     H75584   7.385   2.318   3.561  0.5672 -0.3391 -1.0899
  548MOL0     H75585   7.515   2.218   3.520 -2.7562 -1.8790 -1.3454
  548MOL0     H75586   8.010   2.138   3.641 -0.9714  1.8815 -0.2334
  548MOL0     H75587   8.146   1.924   3.543 -0.2743 -1.2793 -1.6656
  548MOL0     H75588   7.987   1.832   3.203 -0.2895 -0.3736  2.1715
  548MOL0     H75589   8.115   1.891   3.105 -2.9013  1.1189 -1.2294
  548MOL0     H75590   8.139   1.612   3.240  0.6572  0.9325 -0.2391
  548MOL0     H75591   8.060   1.643   3.092 -0.8871  3.5165 -1.0355
  548MOL0     H75592   8.259   1.761   3.005  2.4718  2.2381  2.4606
  548MOL0     H75593   8.244   1.583   3.020 -0.3503 -0.8867  1.2316
  548MOL0     H75594   8.376   1.758   3.240  0.8763  2.1082 -2.4832
  548MOL0     H75595   8.469   1.721   3.107  1.7057 -2.4037  2.0157
  548MOL0     H75596   8.342   1.540   3.328  0.9579 -0.8394  0.8365
  548MOL0     H75597   8.391   1.475   3.175  2.1262  1.3434 -2.3565
  548MOL0     H75598   8.620   1.626   3.321  0.8064 -0.1880 -2.0636
  548MOL0     H75599   8.614   1.515   3.183 -1.8335  2.9785 -2.1811
  548MOL0     H75600   8.557   1.331   3.341  2.3935 -0.0425 -1.9627
  548MOL0     H75601   8.545   1.444   3.474 -0.0026  1.0342 -0.3128
  548MOL0     H75602   8.787   1.448   3.292 -0.6403  0.4157  0.8295
  548MOL0     H75603   8.784   1.310   3.398 -0.6439 -0.1983 -4.3286
  548MOL0     H75604   8.085   2.090   3.164  1.0834  1.6739 -0.2079
  548MOL0     H75605   8.007   2.287   3.245  1.5445 -0.4089 -1.6918
  548MOL0     H75606   7.876   2.540   3.645 -0.5946 -0.2810 -2.3565
  548MOL0     H75607   7.756   2.706   3.760 -0.1102 -1.6453  0.4818
  548MOL0     H75608   5.796   2.655   3.835 -2.5484  1.2955  1.1204
  548MOL0     H75609   5.647   2.783   3.937  0.8726  0.8194 -0.0855
  548MOL0     H75610   5.313   2.795   4.324 -1.1955  0.0160 -0.0701
  548MOL0     H75611   5.138   2.938   4.389  1.4388  0.4035  0.8043
  548MOL0     H75612   4.997   3.156   4.528  0.6366  1.5103  3.3896
  548MOL0     H75613   5.169   3.170   4.571  2.2313 -0.2592 -0.0119
  548MOL0     H75614   5.007   3.333   4.669 -2.4748  0.9848 -0.3527
  548MOL0     H75615   4.955   3.394   4.515 -0.7314 -1.6833 -0.2153
  548MOL0     H75616   5.183   3.479   4.467 -1.3282 -0.4953 -0.5365
  548MOL0     H75617   5.113   3.539   4.625 -2.0609 -0.6774 -0.3035
  548MOL0     H75618   5.374   3.473   4.617  2.5584 -4.2389 -0.6382
  548MOL0     H75619   5.318   3.313   4.605 -1.7979  0.9123 -1.6642
  548MOL0     H75620   5.206   3.425   5.015 -2.3858 -3.2737  0.4875
  548MOL0     H75621   5.359   3.286   4.294  1.2225  0.0624  1.1819
  548MOL0     H75622   5.578   3.267   4.203  2.7750  1.1319 -0.2227
  548MOL0     H75623   5.675   3.137   4.274  1.2721 -0.7166 -1.9131
  548MOL0     H75624   5.605   3.126   4.103  1.7418 -0.7823  0.5252
  549MOL0     O75625   0.172  11.209   4.026  0.5751  0.5769 -0.2072
  549MOL0     C75626   0.071  11.157   3.974 -0.5465 -0.0508  0.5023
  549MOL0     O75627   0.077  11.045   3.894 -0.2433  0.7819  0.7440
  549MOL0     C75628   0.191  11.032   3.819 -0.1394  0.7283 -0.3298
  549MOL0     C75629   0.196  11.085   3.688 -0.6895 -0.2969  0.2461
  549MOL0     C75630   0.305  11.065   3.609  0.8750 -1.0044  0.4041
  549MOL0     C75631   0.418  10.991   3.656  0.1491 -0.1373 -0.2239
  549MOL0     O75632   0.529  10.964   3.587  0.2577 -0.3747  0.0971
  549MOL0     C75633   0.547  11.022   3.465 -0.9681 -0.3012  0.0392
  549MOL0     C75634   0.688  10.989   3.412 -0.4973  0.0516  0.2808
  549MOL0     C75635   0.707  11.016   3.262  0.5082  0.3386  0.4514
  549MOL0     C75636   0.654  10.902   3.178  0.3930  0.7875 -0.3935
  549MOL0     C75637   0.669  10.919   3.025  0.4093  0.3442 -0.2473
  549MOL0     C75638   0.651  10.779   2.969  0.3012 -0.2985  0.8984
  549MOL0     C75639   0.505  10.727   2.969 -0.0170 -0.2956  0.1665
  549MOL0     C75640   0.396  10.817   2.903 -0.4007  0.8512 -0.0105
  549MOL0     N75641   0.426  10.851   2.764  0.2974 -0.5832  0.1811
  549MOL0     C75642   0.407  10.753   2.672 -1.4481 -0.5021 -0.2866
  549MOL0     C75643   0.462  10.805   2.561 -0.9858 -0.1267 -0.4378
  549MOL0     C75644   0.459  10.741   2.426  0.6289  1.0379  0.8447
  549MOL0     C75645   0.600  10.710   2.367  0.2633 -0.8262 -0.0820
  549MOL0     C75646   0.591  10.648   2.223 -0.5200 -0.0812 -0.3254
  549MOL0     C75647   0.727  10.651   2.162  1.0163  0.5337 -0.6159
  549MOL0     O75648   0.818  10.587   2.254 -0.4116  0.1322 -0.0310
  549MOL0     C75649   0.949  10.588   2.204 -0.3217 -0.5479  0.8763
  549MOL0     C75650   1.021  10.708   2.188  0.1448  0.0304  1.2348
  549MOL0     C75651   1.154  10.704   2.135  1.0060 -0.1237 -1.0564
  549MOL0     C75652   1.220  10.837   2.142  0.4207  0.0020 -0.1637
  549MOL0     C75653   1.218  10.585   2.098  0.7271 -1.4817  0.2603
  549MOL0     C75654   1.353  10.574   2.048  0.1490 -0.4149 -0.2590
  549MOL0     O75655   1.412  10.456   2.075  0.5616 -0.8675 -0.3445
  549MOL0     C75656   1.538  10.428   2.019  0.4320 -0.7876  0.0746
  549MOL0     C75657   1.657  10.460   2.072  0.1606 -0.5650  0.3016
  549MOL0     C75658   1.785  10.427   2.017  0.4385 -0.6313 -0.6087
  549MOL0     C75659   1.789  10.356   1.900 -0.6816 -0.8568  0.1703
  549MOL0     O75660   1.907  10.327   1.832 -0.3244  0.1018  0.0028
  549MOL0     C75661   1.951  10.446   1.772  0.1099 -0.5177  0.0147
  549MOL0     C75662   2.093  10.415   1.732  0.1102  0.0617  0.3452
  549MOL0     C75663   2.188  10.392   1.854 -0.2997 -0.1029  0.0078
  549MOL0     C75664   2.208  10.517   1.936 -1.0286 -0.6414 -0.0427
  549MOL0     C75665   2.341  10.478   2.010 -0.0162 -0.8178 -0.2278
  549MOL0     C75666   2.387  10.609   2.094 -0.4334  0.6009  0.3142
  549MOL0     C75667   2.511  10.592   2.170  1.1611 -0.2898 -0.0370
  549MOL0     C75668   2.548  10.727   2.241  0.4569  0.3852  0.0063
  549MOL0    Cl75669   2.694  10.717   2.352  0.5500  0.4187  0.0462
  549MOL0     C75670   1.668  10.309   1.839  0.0581  0.1580  0.0435
  549MOL0     C75671   1.542  10.347   1.899 -0.5833  1.3954  0.1982
  549MOL0     O75672   1.401  10.664   1.986 -0.6383 -0.7650  0.2535
  549MOL0     C75673   1.140  10.470   2.109 -0.3149  0.2061 -0.2715
  549MOL0     C75674   1.010  10.472   2.167  0.2800 -0.8812  0.5256
  549MOL0     N75675   0.525  10.928   2.604  0.4373 -0.1085  0.0757
  549MOL0     N75676   0.505  10.951   2.730 -0.6575 -0.1603  0.4307
  549MOL0     C75677   0.414  10.944   3.792 -0.6357 -0.6648  0.3990
  549MOL0     C75678   0.295  10.956   3.872 -0.4979 -0.6904  0.3320
  549MOL0     C75679  -0.065  11.219   4.002  0.3115  0.2183 -0.6135
  549MOL0     C75680  -0.074  11.290   4.124 -0.3725 -0.4128  0.7498
  549MOL0     C75681  -0.204  11.341   4.150  0.2453 -0.0042 -0.2261
  549MOL0     C75682  -0.314  11.338   4.067 -0.0457 -0.4835  0.5095
  549MOL0     O75683  -0.429  11.405   4.104 -0.1779 -0.6855  0.1704
  549MOL0     C75684  -0.548  11.368   4.032 -0.2805  0.5477 -0.3539
  549MOL0     C75685  -0.663  11.452   4.097  0.2166 -0.1457 -0.0011
  549MOL0     C75686  -0.784  11.428   4.006  0.2591  0.1113 -0.4839
  549MOL0     C75687  -0.899  11.347   4.056  0.4838 -0.5506  0.2767
  549MOL0     C75688  -0.880  11.200   4.072  0.4732 -0.2076  0.8168
  549MOL0     C75689  -0.894  11.085   4.094  0.0064 -0.0706  0.8484
  549MOL0     C75690  -0.290  11.276   3.944  0.0984 -0.0363  0.6284
  549MOL0     C75691  -0.177  11.200   3.921  0.3695  0.3532  0.2492
  549MOL0     C75692  -0.183  11.106   3.798 -0.0193 -0.0534  0.1569
  549MOL0     H75693   0.112  11.143   3.652  1.1129  1.1119 -1.9188
  549MOL0     H75694   0.305  11.108   3.509  1.6044  0.0339  0.8327
  549MOL0     H75695   0.538  11.131   3.470  0.1020 -0.2318  0.5693
  549MOL0     H75696   0.478  10.980   3.391 -0.7875 -0.3029 -0.1292
  549MOL0     H75697   0.750  11.053   3.475  1.1976 -0.4480 -0.8186
  549MOL0     H75698   0.711  10.883   3.429  1.8983  0.5589  0.5505
  549MOL0     H75699   0.657  11.109   3.233 -0.2103 -0.2574 -0.2588
  549MOL0     H75700   0.811  11.023   3.230 -0.0709 -5.2551 -4.2234
  549MOL0     H75701   0.704  10.808   3.202 -1.9527 -0.6366 -0.7400
  549MOL0     H75702   0.547  10.892   3.200  0.3439 -0.3570 -1.0238
  549MOL0     H75703   0.769  10.955   3.000 -0.4109  1.1646 -2.7010
  549MOL0     H75704   0.602  10.994   2.982  0.2228  1.6794  2.2561
  549MOL0     H75705   0.672  10.783   2.862  1.1330  3.5501  1.0563
  549MOL0     H75706   0.720  10.701   3.004 -0.5389 -1.0615  0.8783
  549MOL0     H75707   0.469  10.710   3.071 -0.8295 -1.4559 -0.2847
  549MOL0     H75708   0.500  10.634   2.911 -0.7498 -0.0282 -0.2007
  549MOL0     H75709   0.296  10.773   2.901 -1.4204  2.9591 -3.7559
  549MOL0     H75710   0.390  10.895   2.979 -0.1681  1.7912 -0.9404
  549MOL0     H75711   0.367  10.652   2.675 -0.9181 -0.7011  0.3464
  549MOL0     H75712   0.417  10.816   2.358  1.4393 -0.6156 -1.6414
  549MOL0     H75713   0.395  10.652   2.423 -2.3977  3.1112 -0.6932
  549MOL0     H75714   0.666  10.797   2.360  4.3041 -3.2267  2.9609
  549MOL0     H75715   0.647  10.656   2.450  1.8532  2.7258  1.5503
  549MOL0     H75716   0.560  10.543   2.222 -0.8574 -0.0011  0.7867
  549MOL0     H75717   0.521  10.701   2.158 -0.5209 -2.9278 -2.8560
  549MOL0     H75718   0.718  10.592   2.070  0.5659  1.5021 -1.2111
  549MOL0     H75719   0.759  10.754   2.142 -1.0522  1.0701 -1.4541
  549MOL0     H75720   0.963  10.798   2.205 -4.2268 -2.4092  0.7442
  549MOL0     H75721   1.216  10.873   2.038 -0.4475 -2.2910 -0.9823
  549MOL0     H75722   1.323  10.827   2.176 -0.2412  1.7932  2.7278
  549MOL0     H75723   1.183  10.912   2.212  0.4275 -0.9261  0.8524
  549MOL0     H75724   1.662  10.514   2.166  0.9524  0.0406 -0.0812
  549MOL0     H75725   1.866  10.454   2.085  0.6025 -2.1691 -0.1389
  549MOL0     H75726   1.890  10.461   1.682 -0.8708 -3.2451  0.1363
  549MOL0     H75727   1.948  10.537   1.832 -0.6897  0.4365 -1.3901
  549MOL0     H75728   2.088  10.328   1.666  0.4086 -0.9601  1.6256
  549MOL0     H75729   2.148  10.488   1.673  3.1448 -2.8241 -0.7195
  549MOL0     H75730   2.278  10.363   1.798 -1.1116 -0.3241 -1.2087
  549MOL0     H75731   2.162  10.304   1.913  0.7159 -0.3598  0.0985
  549MOL0     H75732   2.121  10.533   2.000  0.3992  1.8490  1.4289
  549MOL0     H75733   2.220  10.603   1.870  2.2625  0.1981  1.4414
  549MOL0     H75734   2.319  10.393   2.076  0.3620 -2.8990 -2.5969
  549MOL0     H75735   2.421  10.461   1.937  0.0414 -0.0426 -0.3500
  549MOL0     H75736   2.312  10.618   2.173 -0.4365 -2.8249  0.8637
  549MOL0     H75737   2.391  10.695   2.026 -3.8997  0.8836  0.3093
  549MOL0     H75738   2.591  10.557   2.105  0.2174  0.3153 -1.5640
  549MOL0     H75739   2.499  10.521   2.252 -1.4416 -0.8931 -0.8513
  549MOL0     H75740   2.461  10.759   2.300  0.0767 -3.3338  1.7654
  549MOL0     H75741   2.565  10.797   2.159 -3.3515 -1.5068 -2.7157
  549MOL0     H75742   1.675  10.254   1.746  2.6845  1.6286 -0.7210
  549MOL0     H75743   1.454  10.318   1.844 -1.0628  0.1979  1.5267
  549MOL0     H75744   1.182  10.372   2.087 -0.0050  0.1838  0.3779
  549MOL0     H75745   0.952  10.382   2.186 -1.2630  0.3904  2.2494
  549MOL0     H75746   0.500  10.893   3.835 -0.3652 -0.5597 -0.0080
  549MOL0     H75747   0.284  10.922   3.975  1.7575 -0.6610  0.6317
  549MOL0     H75748   0.013  11.306   4.186  1.4160  1.6268 -2.0260
  549MOL0     H75749  -0.236  11.387   4.244 -1.5860 -2.0948  0.2580
  549MOL0     H75750  -0.542  11.406   3.929  1.2209  0.0305 -0.4800
  549MOL0     H75751  -0.563  11.260   4.041  2.4369 -0.0472 -1.8456
  549MOL0     H75752  -0.646  11.560   4.097 -0.1318 -0.0551  1.6382
  549MOL0     H75753  -0.686  11.417   4.198  2.3265  1.1138  0.9947
  549MOL0     H75754  -0.827  11.528   3.989  1.1688  0.4454 -0.8876
  549MOL0     H75755  -0.753  11.385   3.910 -1.0367  1.0663 -1.3751
  549MOL0     H75756  -0.980  11.374   3.988  0.9632  1.1981  0.3446
  549MOL0     H75757  -0.928  11.391   4.152  0.3623  0.0233 -0.0216
  549MOL0     H75758  -0.903  10.978   4.096  2.2350 -0.3043  0.1734
  549MOL0     H75759  -0.365  11.287   3.866 -1.6605  2.9906  2.5407
  549MOL0     H75760  -0.142  11.006   3.817  1.0764  0.6038  1.3768
  549MOL0     H75761  -0.287  11.100   3.764 -1.0144  0.6126  2.8627
  549MOL0     H75762  -0.119  11.132   3.713  0.6360 -2.4946 -0.1813
  550MOL0     O75763   1.004  10.160   6.982 -0.0842 -0.4188 -0.8573
  550MOL0     C75764   0.971  10.217   7.085  0.4528 -0.4135  0.9601
  550MOL0     O75765   1.051  10.274   7.170  0.2750 -0.5222  0.0334
  550MOL0     C75766   1.189  10.283   7.154 -0.6443  0.2498 -0.3122
  550MOL0     C75767   1.273  10.172   7.188  0.2974 -0.2598  0.1977
  550MOL0     C75768   1.408  10.199   7.201  0.7446 -0.1516  0.6267
  550MOL0     C75769   1.467  10.322   7.155 -0.2334  0.5455 -0.3339
  550MOL0     O75770   1.603  10.341   7.170 -0.3906  0.1183 -0.4741
  550MOL0     C75771   1.701  10.233   7.180 -0.1464 -0.1092  1.0228
  550MOL0     C75772   1.846  10.278   7.161  0.7442  0.4436 -0.3806
  550MOL0     C75773   1.896  10.281   7.020 -0.3850 -0.3729 -0.1236
  550MOL0     C75774   2.037  10.330   7.017  0.0810  1.4185 -0.3618
  550MOL0     C75775   2.071  10.381   6.882 -0.4244 -0.4537 -0.4366
  550MOL0     C75776   2.214  10.431   6.865  0.3819 -0.6011 -0.4754
  550MOL0     C75777   2.241  10.474   6.723 -0.2187 -0.5346  0.3071
  550MOL0     C75778   2.299  10.361   6.626  0.2573  0.0342  0.3250
  550MOL0     N75779   2.414  10.310   6.690 -0.1002  0.0726  0.5013
  550MOL0     C75780   2.434  10.177   6.721  0.3608  0.1473 -0.1617
  550MOL0     C75781   2.563  10.181   6.772 -1.4216  0.9057 -0.9172
  550MOL0     C75782   2.638  10.065   6.829 -0.5823  0.1271 -0.2841
  550MOL0     C75783   2.576  10.025   6.971 -0.1089  0.0063 -0.6130
  550MOL0     C75784   2.440   9.958   6.968 -0.0948  0.5704 -1.1429
  550MOL0     C75785   2.439   9.832   6.881  0.0851 -0.5037 -0.0443
  550MOL0     O75786   2.431   9.882   6.750  0.1510  0.2618  0.5533
  550MOL0     C75787   2.438   9.787   6.648 -1.2585  0.0944  0.2062
  550MOL0     C75788   2.455   9.848   6.521 -0.5309  0.2497 -0.1394
  550MOL0     C75789   2.464   9.767   6.406 -0.5552  0.4022  0.1549
  550MOL0     C75790   2.480   9.843   6.271 -0.2900 -0.2647 -0.0628
  550MOL0     C75791   2.465   9.627   6.418 -0.4054 -0.6585 -0.3293
  550MOL0     C75792   2.482   9.538   6.305 -0.3993  0.3717  0.1096
  550MOL0     O75793   2.387   9.445   6.286  0.0016  0.2132 -0.3318
  550MOL0     C75794   2.383   9.391   6.158 -0.0150  0.4304  0.0707
  550MOL0     C75795   2.382   9.256   6.140  0.2716 -0.0528  0.1891
  550MOL0     C75796   2.341   9.193   6.021 -0.1825  0.1528 -0.7985
  550MOL0     C75797   2.321   9.263   5.903  1.0450 -0.0795 -0.1006
  550MOL0     O75798   2.290   9.197   5.792  0.0689  0.3406  0.1756
  550MOL0     C75799   2.191   9.252   5.702  0.8092  0.1073 -0.4753
  550MOL0     C75800   2.205   9.176   5.570  0.6611 -0.3265 -0.7976
  550MOL0     C75801   2.096   9.237   5.476  0.3220  0.6229  0.5646
  550MOL0     C75802   2.143   9.296   5.346 -0.6054  0.6915 -0.2573
  550MOL0     C75803   2.038   9.385   5.268  0.5643  0.8407  0.1162
  550MOL0     C75804   2.086   9.398   5.121 -0.9024  0.4961 -0.2000
  550MOL0     C75805   1.975   9.455   5.028  1.0815  0.5057  0.4241
  550MOL0     C75806   1.861   9.359   4.997  0.3007  0.8750  0.2529
  550MOL0    Cl75807   1.770   9.435   4.863  0.2031  0.2206 -0.1687
  550MOL0     C75808   2.329   9.406   5.924 -0.6477  0.1538  0.1606
  550MOL0     C75809   2.350   9.462   6.046 -0.3754 -0.2577  0.4371
  550MOL0     O75810   2.583   9.559   6.230 -0.0473  0.5491 -0.1515
  550MOL0     C75811   2.440   9.575   6.545  1.5257 -0.1066 -0.1040
  550MOL0     C75812   2.431   9.653   6.661 -0.5881 -0.2192  0.4005
  550MOL0     N75813   2.605  10.315   6.774  0.6290  0.0651 -0.1562
  550MOL0     N75814   2.519  10.392   6.723  0.6001  0.5968  0.4565
  550MOL0     C75815   1.377  10.425   7.130 -0.5469 -0.2885 -0.6443
  550MOL0     C75816   1.242  10.408   7.130 -0.4465  0.0372  0.6605
  550MOL0     C75817   0.820  10.227   7.090 -0.1970 -0.0378  0.0741
  550MOL0     C75818   0.740  10.142   7.018  0.7707 -0.6014 -0.4899
  550MOL0     C75819   0.601  10.144   7.026 -0.1419 -0.7287  0.9122
  550MOL0     C75820   0.533  10.226   7.113 -0.0814 -0.0580  0.5480
  550MOL0     O75821   0.391  10.216   7.119 -0.2400  0.3053 -0.5974
  550MOL0     C75822   0.314  10.314   7.186  0.6597  0.1157  0.4356
  550MOL0     C75823   0.173  10.328   7.126 -0.3089  0.6204  0.2603
  550MOL0     C75824   0.165  10.369   6.977 -0.8322 -0.7328 -0.4165
  550MOL0     C75825   0.228  10.503   6.955  0.1078  0.1815 -0.3928
  550MOL0     C75826   0.224  10.528   6.806  0.0107  0.7558  0.2525
  550MOL0     C75827   0.210  10.571   6.695 -0.4155  0.4106 -0.1125
  550MOL0     C75828   0.616  10.309   7.191 -0.4361 -1.0371 -0.0023
  550MOL0     C75829   0.757  10.312   7.181  0.1864  1.0818 -0.5637
  550MOL0     C75830   0.826  10.391   7.292  0.2551  0.0823  0.4259
  550MOL0     H75831   1.229  10.082   7.229  2.8016 -0.4417  2.7707
  550MOL0     H75832   1.470  10.121   7.243  0.2573 -1.0054 -0.2094
  550MOL0     H75833   1.676  10.157   7.105 -0.9062  2.0615 -1.0623
  550MOL0     H75834   1.690  10.186   7.278  2.1434 -3.2684 -0.0724
  550MOL0     H75835   1.854  10.373   7.215 -0.4817 -0.7349  2.0369
  550MOL0     H75836   1.912  10.210   7.216 -0.6252  0.3125  1.2032
  550MOL0     H75837   1.897  10.183   6.971  0.9705  0.9863 -3.0921
  550MOL0     H75838   1.834  10.348   6.960  2.7014  2.9601  0.0631
  550MOL0     H75839   2.065  10.411   7.086 -0.6620  0.3642  1.2266
  550MOL0     H75840   2.106  10.246   7.027 -1.6967 -0.0227  0.3685
  550MOL0     H75841   2.009  10.465   6.847  0.1462 -0.5523 -1.7469
  550MOL0     H75842   2.051  10.294   6.818  1.4494 -1.9698  0.9290
  550MOL0     H75843   2.235  10.518   6.928  1.0239 -0.5463 -0.7541
  550MOL0     H75844   2.286  10.359   6.903  1.6465  0.1426 -1.3858
  550MOL0     H75845   2.315  10.554   6.734  2.1509 -2.3372 -1.5568
  550MOL0     H75846   2.157  10.522   6.671  0.6866  0.7638 -0.0112
  550MOL0     H75847   2.216  10.292   6.607 -0.4958  1.3931 -1.5120
  550MOL0     H75848   2.322  10.418   6.536 -0.9857  2.0620  1.2268
  550MOL0     H75849   2.368  10.093   6.703 -1.2643  0.8254  2.1621
  550MOL0     H75850   2.733  10.116   6.849 -1.9298  2.4965  0.3712
  550MOL0     H75851   2.655   9.973   6.771 -2.0363 -0.9329  0.8850
  550MOL0     H75852   2.646   9.951   7.010  1.7138  2.5606  1.2431
  550MOL0     H75853   2.584  10.109   7.040  0.8104 -0.2979 -0.3447
  550MOL0     H75854   2.416   9.933   7.072  1.7848  2.0015 -0.2964
  550MOL0     H75855   2.365  10.032   6.940 -0.8742  0.3523  0.2646
  550MOL0     H75856   2.533   9.776   6.887  1.0664  1.1154  0.1184
  550MOL0     H75857   2.359   9.760   6.903  3.2483 -4.8052 -1.2991
  550MOL0     H75858   2.456   9.957   6.518  2.8067  0.3772  0.9268
  550MOL0     H75859   2.501   9.948   6.293  1.8330 -0.9626  1.5389
  550MOL0     H75860   2.392   9.826   6.208 -0.9624  0.0106  0.7814
  550MOL0     H75861   2.566   9.817   6.210 -0.6029 -3.7964  0.8017
  550MOL0     H75862   2.400   9.184   6.220  0.0577  0.0584  0.3377
  550MOL0     H75863   2.328   9.086   6.034 -1.5391  0.4576  0.6365
  550MOL0     H75864   2.092   9.246   5.747  1.2409 -1.8721  0.3087
  550MOL0     H75865   2.223   9.353   5.673  2.3231 -1.1591 -3.6877
  550MOL0     H75866   2.305   9.209   5.539  0.4562  1.6245  0.4640
  550MOL0     H75867   2.211   9.068   5.585  2.6895 -0.2933 -1.0402
  550MOL0     H75868   2.040   9.318   5.525 -0.2462  1.2121 -0.9806
  550MOL0     H75869   2.028   9.151   5.472  1.4054 -0.3590  2.1431
  550MOL0     H75870   2.171   9.210   5.284  1.0952  0.0478  1.3089
  550MOL0     H75871   2.231   9.362   5.354 -1.6529  2.6859 -3.2132
  550MOL0     H75872   1.945   9.330   5.251  0.2955  2.4133 -5.6401
  550MOL0     H75873   2.014   9.480   5.316 -2.3766  0.2893 -0.0641
  550MOL0     H75874   2.140   9.309   5.087  0.1689  0.9869  0.1630
  550MOL0     H75875   2.171   9.466   5.129 -0.9942  0.5824  0.0555
  550MOL0     H75876   2.017   9.487   4.932  0.4667  0.4617  0.1346
  550MOL0     H75877   1.937   9.544   5.079  1.7789 -0.8316  3.5562
  550MOL0     H75878   1.795   9.350   5.084 -0.6162  2.4652 -0.2338
  550MOL0     H75879   1.899   9.261   4.969 -0.8326  0.6222 -0.4719
  550MOL0     H75880   2.303   9.465   5.836 -2.0583 -0.7481 -0.0724
  550MOL0     H75881   2.340   9.569   6.057  0.3876 -0.2059  0.6419
  550MOL0     H75882   2.440   9.467   6.558 -1.1761 -0.0433  1.2255
  550MOL0     H75883   2.411   9.606   6.756  1.6699 -0.6597  0.7315
  550MOL0     H75884   1.430  10.514   7.099  0.9424 -1.5379 -1.8861
  550MOL0     H75885   1.173  10.489   7.111  2.2088  2.1164 -0.9624
  550MOL0     H75886   0.778  10.081   6.936  0.5516  1.3618 -2.1178
  550MOL0     H75887   0.544  10.078   6.962 -0.4329  1.5300 -1.3227
  550MOL0     H75888   0.310  10.281   7.290 -2.3230 -0.8735  0.0830
  550MOL0     H75889   0.368  10.410   7.186 -0.6617  0.8796  0.6357
  550MOL0     H75890   0.107  10.392   7.186 -2.4322 -1.7007  0.5269
  550MOL0     H75891   0.129  10.229   7.136  0.9062  0.1352  0.9945
  550MOL0     H75892   0.219  10.296   6.916  3.1735 -0.6318  2.5855
  550MOL0     H75893   0.057  10.369   6.962 -0.8870 -0.0106 -0.0470
  550MOL0     H75894   0.333  10.507   6.986 -0.3667 -1.5326  1.6986
  550MOL0     H75895   0.158  10.571   7.004 -0.6284 -0.7793 -0.0730
  550MOL0     H75896   0.204  10.606   6.594 -0.3448 -1.5377 -0.8307
  550MOL0     H75897   0.578  10.388   7.255  2.2340  2.2771 -2.1823
  550MOL0     H75898   0.898  10.332   7.349 -1.4355 -1.6690  0.8511
  550MOL0     H75899   0.893  10.465   7.248  0.9573  0.5847  2.2653
  550MOL0     H75900   0.750  10.435   7.357  0.1098  0.1113  0.2395
  551MOL0     O75901   0.705   5.528   3.038 -0.4333  0.4880  0.2106
  551MOL0     C75902   0.625   5.478   3.119 -0.0978 -0.5863  0.0038
  551MOL0     O75903   0.657   5.438   3.246 -0.0396  0.4544  0.0405
  551MOL0     C75904   0.795   5.422   3.256  0.4084 -0.1873 -0.3962
  551MOL0     C75905   0.853   5.295   3.228  0.3680  0.0869 -0.2732
  551MOL0     C75906   0.987   5.272   3.211 -0.0170  0.3020 -0.0620
  551MOL0     C75907   1.079   5.374   3.240 -0.0432 -0.4001 -1.1898
  551MOL0     O75908   1.210   5.342   3.235 -0.1721  0.0945  0.0874
  551MOL0     C75909   1.308   5.441   3.239 -0.6624 -0.3315  0.5079
  551MOL0     C75910   1.445   5.375   3.220 -0.5577 -0.6213 -0.6327
  551MOL0     C75911   1.562   5.473   3.235  0.6761  0.3273  0.1202
  551MOL0     C75912   1.584   5.520   3.384  0.1549  0.0567 -0.2420
  551MOL0     C75913   1.739   5.552   3.412 -0.0945  0.6621 -0.0719
  551MOL0     C75914   1.812   5.636   3.308  0.4138  0.4248  0.3572
  551MOL0     C75915   1.959   5.641   3.326 -0.4202 -0.4682 -0.2889
  551MOL0     C75916   2.029   5.733   3.232 -0.4685  0.6634  0.3893
  551MOL0     N75917   2.169   5.754   3.264 -1.0741  0.0831 -0.4761
  551MOL0     C75918   2.203   5.821   3.384  0.7373  0.9730 -0.6155
  551MOL0     C75919   2.334   5.799   3.398  0.3130  1.3291 -0.4821
  551MOL0     C75920   2.423   5.855   3.506 -0.0687  0.4140  1.0489
  551MOL0     C75921   2.484   5.981   3.462 -0.1281 -0.6007  0.2959
  551MOL0     C75922   2.552   6.040   3.583  0.1072 -0.3658 -0.3463
  551MOL0     C75923   2.613   6.174   3.539 -0.5928  0.0307 -0.3187
  551MOL0     O75924   2.670   6.244   3.653 -0.7656  0.1196  0.4044
  551MOL0     C75925   2.728   6.366   3.632 -0.1579 -0.1787 -0.1192
  551MOL0     C75926   2.734   6.424   3.506 -0.4455  0.5945  0.0739
  551MOL0     C75927   2.797   6.542   3.485  0.2810 -0.5262 -0.4573
  551MOL0     C75928   2.780   6.602   3.348 -0.6683 -0.2709  0.1558
  551MOL0     C75929   2.853   6.615   3.583 -0.5605  0.6945 -0.6629
  551MOL0     C75930   2.931   6.737   3.561 -0.8538 -0.0238 -0.3048
  551MOL0     O75931   2.935   6.816   3.674 -0.1606 -0.1173 -0.2108
  551MOL0     C75932   2.941   6.953   3.653 -0.4245  0.3544 -0.5156
  551MOL0     C75933   2.894   7.029   3.544  0.3865  0.1287 -0.1021
  551MOL0     C75934   2.926   7.162   3.529  0.6057  0.3666  0.5934
  551MOL0     C75935   3.008   7.230   3.627  0.4398 -0.3808  0.6760
  551MOL0     O75936   3.019   7.372   3.614  0.1329  0.9318  0.1659
  551MOL0     C75937   3.148   7.419   3.660  0.3928  0.2481  0.1488
  551MOL0     C75938   3.219   7.492   3.544 -0.0330  0.1331  0.3602
  551MOL0     C75939   3.236   7.395   3.420  0.6038 -1.1668 -0.3162
  551MOL0     C75940   3.342   7.294   3.421 -0.7743  0.0556 -0.2457
  551MOL0     C75941   3.377   7.247   3.284  0.2301 -0.0631  0.2031
  551MOL0     C75942   3.276   7.151   3.203 -0.0917 -1.0032 -0.5656
  551MOL0     C75943   3.240   7.030   3.274 -0.2637  0.7122 -0.6943
  551MOL0     C75944   3.180   6.922   3.179 -0.6075 -0.2822  0.0691
  551MOL0    Cl75945   3.089   6.995   3.039  0.3539  0.0316  0.0546
  551MOL0     C75946   3.043   7.157   3.741  0.5662 -0.3166  0.1293
  551MOL0     C75947   3.012   7.018   3.754 -0.2633 -0.0900  0.2198
  551MOL0     O75948   2.986   6.769   3.456 -0.2664 -0.4182  0.4672
  551MOL0     C75949   2.848   6.561   3.715 -0.2118  0.3038 -0.0544
  551MOL0     C75950   2.788   6.432   3.735  0.6617 -0.0633 -0.4538
  551MOL0     N75951   2.379   5.721   3.292  0.3183  0.0861 -0.4372
  551MOL0     N75952   2.284   5.700   3.213  0.1886 -0.0297  0.4394
  551MOL0     C75953   1.023   5.494   3.283 -0.5960  0.7122  0.7231
  551MOL0     C75954   0.884   5.523   3.281 -0.2635  0.0771 -0.2665
  551MOL0     C75955   0.484   5.452   3.082  0.4064 -0.6286 -0.0383
  551MOL0     C75956   0.413   5.543   3.012  0.5919 -0.2073  0.3185
  551MOL0     C75957   0.284   5.534   2.971  0.1772  0.0752  0.9161
  551MOL0     C75958   0.205   5.420   3.001  0.3225 -0.7469 -1.2830
  551MOL0     O75959   0.075   5.403   2.967  0.7184 -0.2892 -0.1985
  551MOL0     C75960   0.007   5.522   2.910 -0.1263 -0.6834  0.9557
  551MOL0     C75961  -0.137   5.494   2.914  0.3001 -0.6837  0.1109
  551MOL0     C75962  -0.207   5.500   3.053  0.1711  0.4699 -0.3548
  551MOL0     C75963  -0.357   5.523   3.044 -0.2687 -0.5963 -0.3170
  551MOL0     C75964  -0.388   5.665   3.010  0.3323 -0.3313  1.2001
  551MOL0     C75965  -0.425   5.779   2.989 -0.5687  0.0186 -0.5132
  551MOL0     C75966   0.277   5.326   3.077 -0.2386 -0.4770 -0.4686
  551MOL0     C75967   0.413   5.332   3.108  0.1583  0.9685 -0.0471
  551MOL0     C75968   0.486   5.204   3.155  0.6758 -0.1587 -0.8826
  551MOL0     H75969   0.794   5.206   3.205 -0.1076 -0.3782  2.3699
  551MOL0     H75970   1.029   5.180   3.173  3.3021  1.7268 -0.2154
  551MOL0     H75971   1.297   5.478   3.341  0.0217 -0.0544  0.4826
  551MOL0     H75972   1.293   5.523   3.168 -0.2519 -1.5663 -1.0751
  551MOL0     H75973   1.453   5.283   3.279 -1.1846 -0.6730 -0.6203
  551MOL0     H75974   1.456   5.342   3.117 -0.5876  0.0822 -0.8643
  551MOL0     H75975   1.648   5.414   3.200  1.2841  2.5451 -2.4661
  551MOL0     H75976   1.546   5.559   3.169  1.7204  0.0585 -0.5040
  551MOL0     H75977   1.526   5.609   3.409  0.6184 -0.1109  1.5844
  551MOL0     H75978   1.547   5.439   3.449  0.1250  0.5103  0.3138
  551MOL0     H75979   1.792   5.457   3.422 -1.8977 -0.4605 -0.6471
  551MOL0     H75980   1.737   5.591   3.514 -0.3735 -0.1124  0.2326
  551MOL0     H75981   1.793   5.593   3.209  1.7569  1.2674 -0.2975
  551MOL0     H75982   1.778   5.739   3.292  0.4700  0.7514  2.2155
  551MOL0     H75983   2.001   5.541   3.316 -0.5270 -0.3865 -1.6155
  551MOL0     H75984   1.977   5.666   3.431 -2.8398 -1.9579  0.5788
  551MOL0     H75985   2.017   5.695   3.130  1.4499 -0.3472  0.4921
  551MOL0     H75986   1.981   5.831   3.223 -0.9482  0.3905 -0.0991
  551MOL0     H75987   2.144   5.886   3.447  2.2020  2.5236 -0.7891
  551MOL0     H75988   2.500   5.780   3.528 -1.6337 -1.4445  0.4463
  551MOL0     H75989   2.366   5.882   3.595  1.4062 -0.0832  2.1911
  551MOL0     H75990   2.562   5.960   3.388 -0.4978  0.9232 -0.5447
  551MOL0     H75991   2.404   6.043   3.423 -1.6716 -0.7607  2.9920
  551MOL0     H75992   2.478   6.064   3.660 -0.5417  0.5837 -1.2284
  551MOL0     H75993   2.631   5.977   3.625  0.1496 -0.0670  0.0253
  551MOL0     H75994   2.688   6.157   3.461  0.1312 -0.8870  0.5445
  551MOL0     H75995   2.537   6.243   3.500 -0.4989  0.5910  0.4793
  551MOL0     H75996   2.679   6.386   3.420 -2.0504 -1.7108  1.9831
  551MOL0     H75997   2.735   6.701   3.354 -0.5777 -0.2599  0.6821
  551MOL0     H75998   2.707   6.546   3.289 -3.0352  2.1276  0.6134
  551MOL0     H75999   2.876   6.596   3.296 -0.2681 -0.4445  0.9066
  551MOL0     H76000   2.830   6.982   3.469 -0.9282 -1.0459  1.6703
  551MOL0     H76001   2.895   7.219   3.442 -1.1815 -2.0952 -0.4950
  551MOL0     H76002   3.130   7.496   3.736  2.4368 -0.9434  1.9331
  551MOL0     H76003   3.219   7.344   3.696  1.3612  0.8495 -0.4536
  551MOL0     H76004   3.166   7.586   3.527  1.2076  0.7194 -0.4596
  551MOL0     H76005   3.317   7.524   3.580 -1.7487  1.1921  4.5891
  551MOL0     H76006   3.246   7.464   3.335 -1.5437 -0.1215  0.2071
  551MOL0     H76007   3.149   7.336   3.390  0.3780  0.2649 -2.7657
  551MOL0     H76008   3.315   7.208   3.482 -1.0837  0.8743  0.8145
  551MOL0     H76009   3.432   7.337   3.467  0.5340  0.2442 -2.8016
  551MOL0     H76010   3.401   7.336   3.225 -0.6920 -0.0849 -0.2329
  551MOL0     H76011   3.473   7.197   3.296  1.0973  0.7699 -2.4823
  551MOL0     H76012   3.326   7.117   3.111 -1.4918  0.4369 -1.9066
  551MOL0     H76013   3.185   7.209   3.186  0.2361 -0.9007 -2.1621
  551MOL0     H76014   3.170   7.070   3.347  0.5005 -0.5564  0.7978
  551MOL0     H76015   3.322   6.993   3.336 -0.6548  0.9601 -0.0169
  551MOL0     H76016   3.104   6.869   3.238 -0.3113  0.4152  1.0990
  551MOL0     H76017   3.257   6.854   3.139 -0.6332  0.7589 -1.8860
  551MOL0     H76018   3.093   7.201   3.827 -0.0078 -2.4106  1.6355
  551MOL0     H76019   3.041   6.966   3.844 -1.3186 -0.5153  0.3171
  551MOL0     H76020   2.896   6.609   3.800 -1.6327 -2.1061  2.2541
  551MOL0     H76021   2.800   6.379   3.829  1.8703  1.1941  0.1329
  551MOL0     H76022   1.078   5.587   3.296 -2.2138  1.5022  2.3029
  551MOL0     H76023   0.858   5.627   3.293  3.7618  1.0967  1.4774
  551MOL0     H76024   0.469   5.630   2.979  2.2578 -1.2743  0.2386
  551MOL0     H76025   0.240   5.620   2.922  0.9941  0.4609  0.8372
  551MOL0     H76026   0.024   5.610   2.973 -0.8906 -0.0892  0.3374
  551MOL0     H76027   0.040   5.536   2.807  0.9118 -1.1232  1.2018
  551MOL0     H76028  -0.162   5.391   2.884 -2.1516 -0.2342  0.3660
  551MOL0     H76029  -0.188   5.562   2.844  1.9302  0.2741 -0.1905
  551MOL0     H76030  -0.187   5.409   3.111  1.6679  0.3533 -1.0090
  551MOL0     H76031  -0.172   5.582   3.116 -0.6733 -0.0154  0.7750
  551MOL0     H76032  -0.393   5.524   3.147  2.3204  3.4198  0.8013
  551MOL0     H76033  -0.403   5.448   2.979 -3.0333  1.1696 -0.5590
  551MOL0     H76034  -0.477   5.873   2.984 -1.1939 -0.0661  2.3265
  551MOL0     H76035   0.235   5.229   3.100 -1.4757 -0.3201 -1.9411
  551MOL0     H76036   0.430   5.110   3.152  1.2049 -0.5105 -0.0507
  551MOL0     H76037   0.578   5.200   3.096  2.9795  0.0088  2.4657
  551MOL0     H76038   0.510   5.219   3.260  2.3472  2.5286 -1.5607
  552MOL0     O76039   3.781   4.531   5.364  0.6428  0.2955  0.1762
  552MOL0     C76040   3.713   4.430   5.349  0.0794  0.9034  0.2946
  552MOL0     O76041   3.727   4.320   5.432  0.0475  0.4588  0.5827
  552MOL0     C76042   3.842   4.315   5.508  0.3813 -0.3474  0.1399
  552MOL0     C76043   3.955   4.244   5.470  0.1537  0.0164  0.9579
  552MOL0     C76044   4.069   4.238   5.545  0.3412 -0.5041 -0.2808
  552MOL0     C76045   4.067   4.300   5.672 -0.2463  0.2112  0.4432
  552MOL0     O76046   4.182   4.276   5.743  0.2190  0.4275 -0.2536
  552MOL0     C76047   4.208   4.375   5.844  0.4127 -0.0893 -1.0648
  552MOL0     C76048   4.338   4.341   5.916 -0.6292  0.6803 -0.2527
  552MOL0     C76049   4.343   4.191   5.971 -0.0310 -0.3411  0.0883
  552MOL0     C76050   4.471   4.167   6.045  0.1089 -0.4513  0.0150
  552MOL0     C76051   4.475   4.028   6.095 -0.5046 -0.0860 -0.2840
  552MOL0     C76052   4.600   3.986   6.163 -0.4805  0.0023  0.0262
  552MOL0     C76053   4.600   3.840   6.219 -1.0925  0.0010  0.7414
  552MOL0     C76054   4.715   3.794   6.312  0.4879  0.8182  0.7185
  552MOL0     N76055   4.836   3.758   6.232  0.3496  0.3862  0.1147
  552MOL0     C76056   4.835   3.649   6.152 -0.0351  0.0665  0.1865
  552MOL0     C76057   4.956   3.654   6.095  0.6474 -0.1157 -0.3429
  552MOL0     C76058   5.017   3.559   5.996  0.1918 -0.3605  0.4378
  552MOL0     C76059   5.083   3.439   6.067 -0.7311  0.6183  0.0902
  552MOL0     C76060   5.039   3.310   5.995 -0.2788 -0.0617  0.0910
  552MOL0     C76061   5.099   3.206   6.085  0.3752  0.0897 -0.0002
  552MOL0     O76062   5.044   3.080   6.052  0.4407  0.5465  0.0717
  552MOL0     C76063   5.098   2.969   6.120 -0.1292 -0.1762 -0.5460
  552MOL0     C76064   5.036   2.842   6.089 -0.0482 -0.7933 -0.6770
  552MOL0     C76065   5.073   2.727   6.155  0.1494 -0.3718 -0.7504
  552MOL0     C76066   4.980   2.606   6.152 -0.2081  0.9520  0.0541
  552MOL0     C76067   5.191   2.722   6.239  0.3251  0.3223 -0.0506
  552MOL0     C76068   5.232   2.596   6.297 -0.7621  0.3762  0.1703
  552MOL0     O76069   5.254   2.487   6.211  0.3380 -0.6809  0.1686
  552MOL0     C76070   5.309   2.370   6.246 -0.3970 -0.6679 -0.8538
  552MOL0     C76071   5.398   2.361   6.347  0.1816 -0.3478  0.3204
  552MOL0     C76072   5.459   2.230   6.366  0.2424 -0.2015  0.5146
  552MOL0     C76073   5.414   2.117   6.285  0.0609  0.8387 -0.1895
  552MOL0     O76074   5.468   1.995   6.321 -0.7550  0.2792 -0.4397
  552MOL0     C76075   5.490   1.907   6.210  0.0596 -0.1025  0.3518
  552MOL0     C76076   5.552   1.785   6.268  0.3036  0.8305  0.2228
  552MOL0     C76077   5.697   1.802   6.321 -0.0748  0.2100 -0.5968
  552MOL0     C76078   5.727   1.714   6.427 -0.5298 -0.1357  0.3306
  552MOL0     C76079   5.871   1.707   6.456  0.0267  0.5344  0.3733
  552MOL0     C76080   5.910   1.673   6.596  0.0310  0.1367 -1.9556
  552MOL0     C76081   6.049   1.633   6.622 -0.6942 -0.1889 -0.0962
  552MOL0     C76082   6.073   1.590   6.761  0.4046 -0.0051 -0.6167
  552MOL0    Cl76083   6.094   1.740   6.858 -0.2017  0.0103  0.4470
  552MOL0     C76084   5.307   2.135   6.194  0.5793  0.2279 -0.3593
  552MOL0     C76085   5.268   2.262   6.170 -0.6698  0.5457  0.3928
  552MOL0     O76086   5.261   2.596   6.418  0.2189 -0.1944  0.6971
  552MOL0     C76087   5.263   2.842   6.260  0.0013 -0.1527  0.5745
  552MOL0     C76088   5.208   2.964   6.208 -1.2110  0.0100 -0.1425
  552MOL0     N76089   5.027   3.766   6.136 -0.0832  0.5709 -0.4584
  552MOL0     N76090   4.947   3.830   6.214 -0.1267  0.0830 -0.0303
  552MOL0     C76091   3.950   4.359   5.718  0.2587  0.1322  0.4089
  552MOL0     C76092   3.829   4.362   5.639 -0.3538 -0.6609 -0.0845
  552MOL0     C76093   3.618   4.427   5.236 -0.1910 -0.2135  0.9047
  552MOL0     C76094   3.520   4.329   5.235  1.0074  0.7441 -0.0472
  552MOL0     C76095   3.426   4.320   5.134 -0.2496  0.4462 -0.1465
  552MOL0     C76096   3.423   4.421   5.034 -0.5231  0.2466 -0.4612
  552MOL0     O76097   3.343   4.413   4.923  0.2922  0.3902 -0.7509
  552MOL0     C76098   3.196   4.400   4.953 -0.1413  0.2917  0.2212
  552MOL0     C76099   3.124   4.524   5.007 -0.0011  1.2546 -0.3435
  552MOL0     C76100   3.111   4.636   4.907 -0.5077 -0.0123 -0.8785
  552MOL0     C76101   3.065   4.761   4.968 -0.2839 -0.6532  0.3152
  552MOL0     C76102   2.919   4.740   5.001 -1.1031  0.2819  0.6090
  552MOL0     C76103   2.813   4.703   5.042  0.0276 -0.3947  0.4464
  552MOL0     C76104   3.532   4.509   5.024  0.4688  0.0625  0.3019
  552MOL0     C76105   3.628   4.521   5.123  0.3627  0.1389 -0.6617
  552MOL0     C76106   3.739   4.620   5.100 -0.4071  0.0824 -0.9280
  552MOL0     H76107   3.944   4.210   5.367  0.8527 -0.4040  1.0114
  552MOL0     H76108   4.151   4.183   5.501 -1.2361 -1.5474 -2.0541
  552MOL0     H76109   4.124   4.379   5.914 -1.6166  0.9299 -3.3813
  552MOL0     H76110   4.215   4.471   5.792  0.0897  0.1321 -0.7017
  552MOL0     H76111   4.412   4.359   5.837 -0.7435 -0.0625 -0.5386
  552MOL0     H76112   4.359   4.409   5.999  0.3122  0.9857 -0.7247
  552MOL0     H76113   4.258   4.183   6.040  0.0323 -1.8472  0.0099
  552MOL0     H76114   4.330   4.121   5.888  2.3002  0.4796 -1.0495
  552MOL0     H76115   4.550   4.187   5.972  0.0888  2.4676  0.6533
  552MOL0     H76116   4.480   4.245   6.122 -0.3698  0.4239 -0.7872
  552MOL0     H76117   4.457   3.968   6.005 -2.1713 -1.2836  0.8043
  552MOL0     H76118   4.388   4.016   6.159 -2.4338 -0.0763 -2.7538
  552MOL0     H76119   4.685   3.997   6.095  0.7632 -0.3466  1.4489
  552MOL0     H76120   4.621   4.050   6.249  1.8713  0.6432 -0.9520
  552MOL0     H76121   4.574   3.768   6.141  0.6056  1.1134 -0.9021
  552MOL0     H76122   4.506   3.827   6.275 -2.2552 -0.8236 -1.3066
  552MOL0     H76123   4.736   3.872   6.385  1.0386  2.1254 -0.7614
  552MOL0     H76124   4.685   3.703   6.364 -1.7281  0.1261 -1.5696
  552MOL0     H76125   4.759   3.573   6.140 -1.4137  1.1661  1.4664
  552MOL0     H76126   5.097   3.607   5.939  0.2037 -1.8126 -0.8369
  552MOL0     H76127   4.938   3.531   5.926  2.8854 -0.2655 -2.9333
  552MOL0     H76128   5.192   3.452   6.077 -0.2746 -2.4217 -0.0608
  552MOL0     H76129   5.045   3.436   6.170 -1.5609  1.6508 -0.1736
  552MOL0     H76130   4.930   3.303   5.990 -0.3797  0.8210  0.7698
  552MOL0     H76131   5.078   3.309   5.893 -1.2365 -1.9884 -0.2981
  552MOL0     H76132   5.208   3.206   6.075  0.3064 -0.2276 -0.8819
  552MOL0     H76133   5.082   3.229   6.190  1.5782  1.2771 -0.0361
  552MOL0     H76134   4.958   2.824   6.016  2.1898 -2.8031 -2.7858
  552MOL0     H76135   4.891   2.629   6.210 -2.2005 -1.1814 -1.9284
  552MOL0     H76136   5.018   2.513   6.196 -1.9192  0.4565  0.5364
  552MOL0     H76137   4.946   2.583   6.050  1.9780  1.7056 -0.9285
  552MOL0     H76138   5.430   2.438   6.417  3.2977 -1.7619  0.6054
  552MOL0     H76139   5.529   2.208   6.446 -0.0510 -3.8766 -0.0784
  552MOL0     H76140   5.396   1.886   6.158 -0.3716  3.4216 -0.5627
  552MOL0     H76141   5.556   1.958   6.140  1.2367  3.2890  3.5747
  552MOL0     H76142   5.488   1.762   6.354  2.5289  0.7943  1.9669
  552MOL0     H76143   5.550   1.698   6.202  0.9707 -0.3751  1.7337
  552MOL0     H76144   5.719   1.904   6.354 -1.5440  0.6806 -0.9733
  552MOL0     H76145   5.758   1.788   6.232  1.0148  2.2395 -0.2250
  552MOL0     H76146   5.679   1.619   6.401 -1.1732  0.8549 -2.3825
  552MOL0     H76147   5.669   1.746   6.514 -2.2347 -0.1551 -0.7481
  552MOL0     H76148   5.913   1.638   6.383 -1.4992  0.7017 -0.7366
  552MOL0     H76149   5.915   1.804   6.429  1.8331 -0.6574 -1.1739
  552MOL0     H76150   5.861   1.581   6.629  1.7634 -0.1513  0.0387
  552MOL0     H76151   5.880   1.755   6.663 -0.1703 -1.6507  0.2768
  552MOL0     H76152   6.138   1.691   6.593 -0.6293 -1.0369 -1.7191
  552MOL0     H76153   6.060   1.540   6.565 -1.1551 -0.7778  0.7609
  552MOL0     H76154   6.162   1.527   6.762 -0.1498 -1.0383 -3.9972
  552MOL0     H76155   5.988   1.530   6.796 -1.3151  2.8157  0.3871
  552MOL0     H76156   5.246   2.070   6.131 -0.0631 -0.8676  1.3266
  552MOL0     H76157   5.200   2.287   6.089 -0.5347  0.0209  0.1173
  552MOL0     H76158   5.343   2.841   6.334 -0.6273 -1.1159  1.2696
  552MOL0     H76159   5.271   3.050   6.225  0.8539 -1.4858  0.2306
  552MOL0     H76160   3.947   4.391   5.821  1.9974 -0.3085  0.6178
  552MOL0     H76161   3.742   4.417   5.673 -0.4720  0.1342 -1.5974
  552MOL0     H76162   3.514   4.260   5.319  0.1575  0.7663 -0.0833
  552MOL0     H76163   3.368   4.229   5.118  1.8302 -1.1866  1.0130
  552MOL0     H76164   3.150   4.373   4.858 -2.3604 -1.8282  1.7580
  552MOL0     H76165   3.188   4.312   5.018  0.9125 -0.0245 -0.0639
  552MOL0     H76166   3.183   4.557   5.093  0.3403 -1.2496  0.4634
  552MOL0     H76167   3.026   4.491   5.044  0.1847  1.5527  0.4411
  552MOL0     H76168   3.214   4.651   4.871 -0.3861  2.9197  0.4568
  552MOL0     H76169   3.051   4.619   4.817  1.5643  0.7699 -2.5041
  552MOL0     H76170   3.082   4.846   4.901  0.9578 -0.3750  0.9416
  552MOL0     H76171   3.125   4.785   5.056 -1.4383 -2.2215  1.5860
  552MOL0     H76172   2.725   4.665   5.089  1.4698 -0.6311  3.1479
  552MOL0     H76173   3.551   4.565   4.933  0.4356 -0.0293  0.2390
  552MOL0     H76174   3.744   4.657   4.997 -0.3551  0.7430 -0.6957
  552MOL0     H76175   3.725   4.712   5.158  1.5731 -1.0161  1.4615
  552MOL0     H76176   3.832   4.572   5.131 -1.3310 -1.5069 -0.4827
  553MOL0     O76177   8.313   0.069   3.092  0.3708 -0.9218  0.2800
  553MOL0     C76178   8.300   0.131   2.984  1.0456 -0.3694  0.2843
  553MOL0     O76179   8.407   0.172   2.904  0.5028 -0.1276 -0.3437
  553MOL0     C76180   8.539   0.176   2.961  0.3930  0.0772 -0.1269
  553MOL0     C76181   8.574   0.247   3.070 -0.5249 -0.6813  0.2043
  553MOL0     C76182   8.711   0.268   3.106  0.5030 -0.7806  0.0226
  553MOL0     C76183   8.817   0.229   3.029 -0.3114  1.0200 -0.3030
  553MOL0     O76184   8.951   0.245   3.062 -0.3437 -0.4687  0.1123
  553MOL0     C76185   8.997   0.353   3.158  0.2512  0.4346 -0.5046
  553MOL0     C76186   9.042   0.286   3.285  0.4392  0.1741 -0.1891
  553MOL0     C76187   9.142   0.173   3.262  0.1117 -0.0287 -0.2850
  553MOL0     C76188   9.284   0.206   3.313  0.9280 -0.2932  0.1872
  553MOL0     C76189   9.380   0.083   3.316 -0.4716  0.4668 -0.4560
  553MOL0     C76190   9.489   0.096   3.423 -0.5819 -0.1531  1.3572
  553MOL0     C76191   9.595  -0.012   3.395 -0.6050  0.1593 -0.7735
  553MOL0     C76192   9.691   0.007   3.281 -0.3451 -0.0208  0.0052
  553MOL0     N76193   9.821  -0.072   3.305  0.4889 -0.6068 -0.6786
  553MOL0     C76194   9.848  -0.199   3.247  0.9146 -0.2893 -0.0943
  553MOL0     C76195   9.983  -0.209   3.269  0.4922  0.1897 -0.7381
  553MOL0     C76196  10.058  -0.335   3.235 -0.3715  1.2441 -0.4777
  553MOL0     C76197  10.161  -0.328   3.120  0.3320  0.2345  0.4319
  553MOL0     C76198  10.272  -0.236   3.176 -0.0093 -1.0858 -0.4871
  553MOL0     C76199  10.401  -0.240   3.095  0.9553 -0.3359 -0.5751
  553MOL0     O76200  10.459  -0.370   3.089 -0.7433 -0.1272  0.0037
  553MOL0     C76201  10.591  -0.382   3.037  0.6355 -0.6340  0.6081
  553MOL0     C76202  10.660  -0.499   3.032 -0.1948 -1.0672 -0.0717
  553MOL0     C76203  10.795  -0.505   2.986 -0.5807 -0.2549  0.6843
  553MOL0     C76204  10.852  -0.645   2.981  0.1295 -0.8976  0.5323
  553MOL0     C76205  10.862  -0.391   2.946 -0.5561  0.1269 -0.4128
  553MOL0     C76206  11.000  -0.383   2.915 -0.1231 -0.5414  0.2294
  553MOL0     O76207  11.077  -0.269   2.957 -0.2850  0.6622  0.1538
  553MOL0     C76208  11.195  -0.225   2.897 -0.5439 -0.3158  0.3433
  553MOL0     C76209  11.219  -0.248   2.759 -0.3626  0.1222 -0.2309
  553MOL0     C76210  11.327  -0.203   2.692 -0.8502  0.2401  0.1317
  553MOL0     C76211  11.423  -0.128   2.761 -0.7239 -0.4796 -0.4513
  553MOL0     O76212  11.545  -0.088   2.707 -0.4838 -0.2438 -0.0459
  553MOL0     C76213  11.599  -0.163   2.595  0.4524  0.6360  0.2206
  553MOL0     C76214  11.749  -0.159   2.571 -0.1285 -1.1614  0.0487
  553MOL0     C76215  11.807  -0.023   2.529  0.1649 -0.4998  0.2557
  553MOL0     C76216  11.951  -0.036   2.475 -0.2406 -1.2104  0.2952
  553MOL0     C76217  12.014   0.103   2.435  0.4509 -0.4407  0.3925
  553MOL0     C76218  12.164   0.084   2.420 -0.2562 -0.2983 -0.3130
  553MOL0     C76219  12.222   0.081   2.562  0.0769  0.3566 -0.0432
  553MOL0     C76220  12.374   0.072   2.561  0.2851  0.7441 -0.5293
  553MOL0    Cl76221  12.463   0.201   2.477  0.1279  0.1910  0.3073
  553MOL0     C76222  11.396  -0.086   2.890 -0.0760  0.0842 -0.0356
  553MOL0     C76223  11.280  -0.131   2.959  0.4160  0.2513  0.4030
  553MOL0     O76224  11.046  -0.482   2.860 -0.2398 -0.4511 -0.1544
  553MOL0     C76225  10.797  -0.273   2.941  0.0808  0.4480 -0.2365
  553MOL0     C76226  10.660  -0.270   2.971 -0.1477  0.0733 -0.2780
  553MOL0     N76227  10.025  -0.096   3.348 -0.5702 -0.1818  0.3003
  553MOL0     N76228   9.923  -0.024   3.375  0.2414  0.1400 -0.2228
  553MOL0     C76229   8.780   0.167   2.910 -0.4993 -0.3950  1.4269
  553MOL0     C76230   8.649   0.146   2.873  0.2471  0.2829 -1.1411
  553MOL0     C76231   8.163   0.161   2.945 -0.3651  0.1036 -0.5759
  553MOL0     C76232   8.148   0.197   2.815 -0.4100  0.5830  0.1620
  553MOL0     C76233   8.028   0.240   2.763  0.2617 -0.6685  0.2420
  553MOL0     C76234   7.921   0.251   2.843 -0.0291  0.0865  0.0238
  553MOL0     O76235   7.812   0.293   2.772 -0.3398  0.3559 -0.7078
  553MOL0     C76236   7.709   0.345   2.844  0.7038 -0.1728  0.2369
  553MOL0     C76237   7.605   0.385   2.743  0.9959  0.8412  0.2823
  553MOL0     C76238   7.572   0.272   2.640  0.4404  0.5329 -0.7293
  553MOL0     C76239   7.477   0.175   2.703  0.1802  1.2504 -0.4218
  553MOL0     C76240   7.550   0.054   2.751 -0.6919 -0.0829  0.2881
  553MOL0     C76241   7.604  -0.043   2.800  0.7689  1.1488  0.9355
  553MOL0     C76242   7.925   0.196   2.974  0.3281  0.1911 -0.6107
  553MOL0     C76243   8.048   0.159   3.030  0.0537  0.1947  0.4212
  553MOL0     C76244   8.044   0.117   3.176 -0.3567 -0.2570 -0.0872
  553MOL0     H76245   8.499   0.284   3.139 -0.2088 -1.4942  0.9997
  553MOL0     H76246   8.724   0.317   3.202  1.1414 -1.3526  0.2342
  553MOL0     H76247   8.921   0.429   3.178 -0.1552 -0.4758  1.7130
  553MOL0     H76248   9.093   0.389   3.121  0.8544 -0.5256  0.1039
  553MOL0     H76249   9.076   0.371   3.345 -2.6346  0.2970  1.5964
  553MOL0     H76250   8.954   0.245   3.336 -0.0411  0.6407 -0.6170
  553MOL0     H76251   9.101   0.087   3.317  2.9297  0.2353  2.5445
  553MOL0     H76252   9.151   0.148   3.156 -3.1824 -2.5323 -0.1261
  553MOL0     H76253   9.313   0.293   3.254  1.0237 -0.8162 -0.5479
  553MOL0     H76254   9.270   0.235   3.418  0.2438 -1.1645  0.3466
  553MOL0     H76255   9.425   0.072   3.217  0.9185 -1.3387  0.3124
  553MOL0     H76256   9.325  -0.010   3.334 -0.2531  1.1200  5.4649
  553MOL0     H76257   9.541   0.192   3.422 -1.3147  0.2543  1.2064
  553MOL0     H76258   9.455   0.062   3.521 -0.4627 -3.1928  0.4633
  553MOL0     H76259   9.556  -0.113   3.381 -2.0685  0.8489 -1.9920
  553MOL0     H76260   9.664  -0.009   3.480 -2.4442  1.4113  0.7397
  553MOL0     H76261   9.643  -0.035   3.192  0.2204 -1.5004  0.3659
  553MOL0     H76262   9.705   0.111   3.252  0.3666  0.6270  2.4498
  553MOL0     H76263   9.779  -0.272   3.206  0.5283  1.3454 -2.5337
  553MOL0     H76264   9.982  -0.411   3.218  0.7442 -0.3752  1.3447
  553MOL0     H76265  10.129  -0.363   3.314  1.6060  0.6273 -2.3806
  553MOL0     H76266  10.204  -0.427   3.107  1.6796  1.0280 -1.6739
  553MOL0     H76267  10.105  -0.286   3.035 -0.6965  1.1557  1.5189
  553MOL0     H76268  10.230  -0.136   3.187 -0.0057 -1.0520 -0.7799
  553MOL0     H76269  10.301  -0.258   3.279 -2.9572  1.1566  0.9703
  553MOL0     H76270  10.367  -0.196   3.000 -2.8313  0.9596  1.1958
  553MOL0     H76271  10.471  -0.171   3.144 -0.9264 -0.2571  2.1981
  553MOL0     H76272  10.613  -0.591   3.066  2.0216 -1.6846  1.5163
  553MOL0     H76273  10.925  -0.656   3.061  3.4312 -0.4450 -2.1785
  553MOL0     H76274  10.903  -0.670   2.887 -1.3470 -1.0157 -0.2728
  553MOL0     H76275  10.780  -0.727   2.986  2.5441 -3.3102 -1.4347
  553MOL0     H76276  11.143  -0.305   2.706 -0.8362 -0.9260  1.5037
  553MOL0     H76277  11.327  -0.227   2.586 -2.2450  0.1974  0.1251
  553MOL0     H76278  11.569  -0.267   2.611  0.5292  0.4890 -0.5474
  553MOL0     H76279  11.555  -0.128   2.501  0.8290 -3.4603 -1.7304
  553MOL0     H76280  11.799  -0.184   2.665  4.1576  1.3026 -1.2884
  553MOL0     H76281  11.785  -0.237   2.503 -0.2058 -1.2737  0.1359
  553MOL0     H76282  11.794   0.036   2.620  0.4061  3.8225 -2.2615
  553MOL0     H76283  11.741   0.030   2.460  3.1167  2.0257 -0.8448
  553MOL0     H76284  11.956  -0.108   2.392 -1.4287 -0.7206 -0.2288
  553MOL0     H76285  12.011  -0.079   2.555  0.7493 -1.1420 -0.3924
  553MOL0     H76286  11.974   0.138   2.339  0.5403 -1.9537 -0.2374
  553MOL0     H76287  11.997   0.181   2.510  0.5317  1.0024 -1.0321
  553MOL0     H76288  12.220   0.161   2.366  1.5007  0.3038  2.1392
  553MOL0     H76289  12.183  -0.011   2.370 -0.8906 -0.7311  0.2410
  553MOL0     H76290  12.184  -0.008   2.614 -4.4189  1.9119 -0.1536
  553MOL0     H76291  12.195   0.169   2.621 -0.1490  1.1067 -1.2373
  553MOL0     H76292  12.398  -0.024   2.515  1.3727  0.9772 -0.4650
  553MOL0     H76293  12.399   0.062   2.667  1.0382 -2.4362 -0.9028
  553MOL0     H76294  11.467  -0.016   2.933 -2.0867  1.1601  1.7721
  553MOL0     H76295  11.263  -0.108   3.064  2.1236 -0.6238  0.8955
  553MOL0     H76296  10.834  -0.175   2.912  1.6937 -0.5087 -1.6294
  553MOL0     H76297  10.615  -0.172   2.960  2.8122  1.6802  0.5805
  553MOL0     H76298   8.859   0.142   2.839 -0.7073  0.3726  0.9122
  553MOL0     H76299   8.630   0.077   2.791 -2.1398  1.7869 -1.9341
  553MOL0     H76300   8.238   0.195   2.754 -0.1210  2.0757  0.4965
  553MOL0     H76301   8.020   0.261   2.657 -0.6834 -0.3060  0.3776
  553MOL0     H76302   7.654   0.269   2.900  0.2576 -0.4380 -0.5327
  553MOL0     H76303   7.737   0.421   2.917  1.4230 -1.3182  1.1692
  553MOL0     H76304   7.619   0.477   2.687 -0.4919  0.3398 -0.9743
  553MOL0     H76305   7.513   0.403   2.799  1.6244  1.1986  1.2377
  553MOL0     H76306   7.526   0.321   2.554  2.9958  0.7821 -2.0509
  553MOL0     H76307   7.658   0.225   2.591  0.3310 -0.1154 -0.3040
  553MOL0     H76308   7.395   0.139   2.640 -0.5887  1.7461  0.2755
  553MOL0     H76309   7.421   0.213   2.788 -3.6393  0.5912 -2.4075
  553MOL0     H76310   7.648  -0.134   2.837 -2.1750 -0.8745 -0.1150
  553MOL0     H76311   7.840   0.192   3.042 -0.7537  1.5655 -1.8142
  553MOL0     H76312   8.133   0.156   3.226  0.0689 -0.6185 -0.5500
  553MOL0     H76313   7.951   0.149   3.224 -0.9849 -0.9714 -0.8003
  553MOL0     H76314   8.057   0.009   3.189 -0.0127  0.0335  2.3538
  554MOL0     O76315  10.806   8.365   0.327  0.2855 -0.5597  0.5232
  554MOL0     C76316  10.806   8.275   0.241 -0.1452 -0.3251 -0.3950
  554MOL0     O76317  10.915   8.241   0.165 -0.4387  0.5040  0.5062
  554MOL0     C76318  11.030   8.298   0.187 -0.0664 -0.1389  0.3910
  554MOL0     C76319  11.097   8.339   0.071  0.0402  0.0410  0.3514
  554MOL0     C76320  11.222   8.407   0.082  0.4875  0.1922  0.0579
  554MOL0     C76321  11.262   8.447   0.203  0.9573 -0.9911  0.0480
  554MOL0     O76322  11.373   8.518   0.231 -0.6056 -0.6787 -0.1344
  554MOL0     C76323  11.435   8.602   0.126 -0.1026  0.3386 -0.0814
  554MOL0     C76324  11.341   8.720   0.078 -0.5509  0.2908 -0.3500
  554MOL0     C76325  11.415   8.805  -0.025 -0.5940  0.3173  0.1056
  554MOL0     C76326  11.520   8.895   0.041 -0.4958  0.6643 -0.0300
  554MOL0     C76327  11.593   8.970  -0.067 -0.0390  0.3510  0.4867
  554MOL0     C76328  11.687   9.075  -0.006 -0.6880 -0.5773  0.5020
  554MOL0     C76329  11.799   9.019   0.087  0.3701 -0.0080 -0.1026
  554MOL0     C76330  11.917   9.115   0.117  0.1870  0.4515  0.1259
  554MOL0     N76331  12.019   9.053   0.213  0.2033  0.1557 -0.0863
  554MOL0     C76332  12.109   8.965   0.172  0.3298  0.2057  0.0945
  554MOL0     C76333  12.195   8.951   0.274 -0.3465 -0.6016 -1.2335
  554MOL0     C76334  12.321   8.861   0.280 -0.2954  0.4524 -0.0227
  554MOL0     C76335  12.450   8.941   0.280 -0.2764 -0.5394 -0.0226
  554MOL0     C76336  12.578   8.853   0.317  0.3017 -0.4902 -0.6056
  554MOL0     C76337  12.581   8.818   0.465 -0.1657 -0.7889  0.2579
  554MOL0     O76338  12.586   8.929   0.549 -0.0914 -0.3360 -0.7283
  554MOL0     C76339  12.705   8.971   0.605  0.6260 -0.7489 -0.3316
  554MOL0     C76340  12.704   8.994   0.740 -0.2159  0.3386 -0.0454
  554MOL0     C76341  12.821   9.030   0.807 -0.0982  0.1319  0.5959
  554MOL0     C76342  12.818   9.053   0.955 -0.0312  0.0464  0.1790
  554MOL0     C76343  12.947   9.045   0.737 -0.9471 -0.3959 -0.6988
  554MOL0     C76344  13.077   9.085   0.806  0.5736 -0.0163  0.6926
  554MOL0     O76345  13.157   9.168   0.740 -0.1241  0.1923 -0.3068
  554MOL0     C76346  13.290   9.191   0.781 -0.3192 -0.6569  0.1566
  554MOL0     C76347  13.338   9.192   0.911 -0.0654  0.5857  0.5852
  554MOL0     C76348  13.480   9.202   0.936  0.3598 -0.4346 -0.1031
  554MOL0     C76349  13.568   9.217   0.829  0.4058  0.0355 -0.0884
  554MOL0     O76350  13.702   9.230   0.850 -0.7346 -0.2935  0.2211
  554MOL0     C76351  13.763   9.196   0.974  0.5889 -0.4966 -0.9513
  554MOL0     C76352  13.916   9.200   0.968  0.0348  0.4423  0.4056
  554MOL0     C76353  13.975   9.102   0.859  0.6024  0.0858 -0.2598
  554MOL0     C76354  14.120   9.137   0.822  0.9011  0.4468 -0.8530
  554MOL0     C76355  14.172   9.027   0.729 -0.0474 -0.2563  0.4606
  554MOL0     C76356  14.317   9.036   0.711 -1.0423  1.2273  0.6128
  554MOL0     C76357  14.360   9.152   0.623 -0.0663 -0.0885 -0.3307
  554MOL0     C76358  14.506   9.168   0.636 -0.4056 -0.2179 -0.6342
  554MOL0    Cl76359  14.540   9.243   0.792  0.4282  0.0440  0.2664
  554MOL0     C76360  13.512   9.233   0.701 -0.5672  0.3344  0.1931
  554MOL0     C76361  13.373   9.223   0.673  1.6539 -0.4620  0.4014
  554MOL0     O76362  13.117   9.011   0.891  1.0799  0.6922  1.0411
  554MOL0     C76363  12.939   9.041   0.597  0.2977  0.9095  1.2378
  554MOL0     C76364  12.822   9.005   0.532 -0.0355  0.9613 -0.0157
  554MOL0     N76365  12.149   9.034   0.381 -0.9067  0.1490  0.1690
  554MOL0     N76366  12.042   9.090   0.348 -0.0498  0.5266  1.0455
  554MOL0     C76367  11.197   8.400   0.318  0.2697 -0.5999  0.0432
  554MOL0     C76368  11.087   8.321   0.309  0.6971  0.2978 -0.5230
  554MOL0     C76369  10.676   8.224   0.196  0.3034 -0.4563  0.5008
  554MOL0     C76370  10.666   8.192   0.053 -0.3375 -0.3743 -0.3348
  554MOL0     C76371  10.541   8.152   0.005 -0.1482  0.7012 -0.2763
  554MOL0     C76372  10.430   8.150   0.081  0.1121 -0.5287 -1.0231
  554MOL0     O76373  10.304   8.122   0.039  0.0006  0.0029  0.6298
  554MOL0     C76374  10.285   8.089  -0.100 -0.3075  0.0910 -1.0467
  554MOL0     C76375  10.131   8.060  -0.123  0.4387 -0.2427  0.0255
  554MOL0     C76376  10.087   8.068  -0.268 -0.3499 -0.3528  0.8494
  554MOL0     C76377   9.947   8.014  -0.297 -0.1793 -0.3076  0.3770
  554MOL0     C76378   9.917   8.007  -0.443 -0.1158 -0.4941  0.0846
  554MOL0     C76379   9.869   8.027  -0.551  0.1291 -0.0569  0.1959
  554MOL0     C76380  10.440   8.177   0.211  0.1132 -0.5634 -0.1619
  554MOL0     C76381  10.557   8.199   0.272 -0.8763 -0.6772 -0.3077
  554MOL0     C76382  10.560   8.207   0.423 -0.4253  0.6481  0.0440
  554MOL0     H76383  11.064   8.312  -0.029 -1.7446 -1.8131  1.3693
  554MOL0     H76384  11.272   8.430  -0.012 -0.5931  2.1125 -0.0998
  554MOL0     H76385  11.469   8.546   0.038 -1.3198 -0.2218 -0.2247
  554MOL0     H76386  11.527   8.649   0.162 -0.5263  1.8990 -0.9478
  554MOL0     H76387  11.251   8.679   0.031 -2.3698  2.9363  0.5611
  554MOL0     H76388  11.311   8.779   0.165  1.0371 -2.9493  2.6689
  554MOL0     H76389  11.465   8.748  -0.104  0.3878 -1.3430  1.8363
  554MOL0     H76390  11.344   8.872  -0.074 -2.2440 -2.0130 -0.8852
  554MOL0     H76391  11.471   8.966   0.108  1.3313  0.5415  1.5394
  554MOL0     H76392  11.588   8.834   0.101  1.6819  1.1379 -1.8614
  554MOL0     H76393  11.529   9.018  -0.142  0.2401 -4.1799 -3.1608
  554MOL0     H76394  11.658   8.902  -0.123 -0.2161  0.0487  0.6463
  554MOL0     H76395  11.739   9.128  -0.087  1.1676 -2.5690  0.3132
  554MOL0     H76396  11.623   9.151   0.039 -1.3526 -0.7444 -0.1348
  554MOL0     H76397  11.851   8.938   0.035  0.6800  1.6750 -2.6030
  554MOL0     H76398  11.739   8.988   0.173  0.0653 -1.2855 -0.7511
  554MOL0     H76399  11.968   9.141   0.024 -1.2202 -0.6300 -0.9974
  554MOL0     H76400  11.877   9.208   0.160  0.8098  0.5262  0.5516
  554MOL0     H76401  12.124   8.929   0.070  0.8417 -1.8292  0.8426
  554MOL0     H76402  12.325   8.797   0.191 -0.9224 -1.3239  1.1692
  554MOL0     H76403  12.322   8.800   0.371 -1.9616 -1.0236 -0.9191
  554MOL0     H76404  12.464   8.998   0.187 -3.3020 -0.4295 -0.5083
  554MOL0     H76405  12.442   9.018   0.357 -1.4415 -0.9396  0.2711
  554MOL0     H76406  12.581   8.767   0.250  2.2640  0.4588 -1.8408
  554MOL0     H76407  12.675   8.902   0.310  0.7871 -1.1188  1.1796
  554MOL0     H76408  12.490   8.771   0.503 -0.7284  1.3990  1.8170
  554MOL0     H76409  12.669   8.755   0.480  0.7093 -0.2991 -2.2802
  554MOL0     H76410  12.620   8.967   0.803  1.0114 -1.9221  0.7373
  554MOL0     H76411  12.750   9.138   0.963  0.6644  0.8512 -1.8963
  554MOL0     H76412  12.909   9.063   1.015  0.4027 -1.3667 -0.2037
  554MOL0     H76413  12.761   8.967   0.991 -1.4147  1.6330  1.9964
  554MOL0     H76414  13.263   9.169   0.986  0.8960 -0.3367  1.2943
  554MOL0     H76415  13.519   9.183   1.036 -2.7955 -3.1896  0.7924
  554MOL0     H76416  13.732   9.275   1.043 -0.5308 -0.6828 -1.2335
  554MOL0     H76417  13.727   9.097   1.005  0.5573  0.2385  1.5815
  554MOL0     H76418  13.952   9.297   0.934  1.6568 -0.0725  0.5626
  554MOL0     H76419  13.962   9.171   1.063  1.2675 -1.5973 -0.7393
  554MOL0     H76420  13.929   9.121   0.761 -0.5285  0.4825  0.3371
  554MOL0     H76421  13.947   8.998   0.878 -2.5590  0.8469 -0.1464
  554MOL0     H76422  14.182   9.147   0.911 -2.0786  0.7751  1.3536
  554MOL0     H76423  14.113   9.239   0.784 -1.9561  1.1445  1.1787
  554MOL0     H76424  14.157   8.931   0.779  1.7723 -1.3017 -0.8552
  554MOL0     H76425  14.112   9.015   0.639  0.2526 -3.5215  0.5646
  554MOL0     H76426  14.346   8.940   0.669 -2.5942  1.1720 -0.3997
  554MOL0     H76427  14.375   9.043   0.804  3.4261 -2.5560 -1.4992
  554MOL0     H76428  14.323   9.249   0.658 -1.9973 -1.3816  1.4662
  554MOL0     H76429  14.339   9.133   0.517  3.2166 -0.7028 -0.9636
  554MOL0     H76430  14.539   9.245   0.566  0.4634 -0.1969 -0.2105
  554MOL0     H76431  14.563   9.074   0.634  4.3463  2.1220  3.2024
  554MOL0     H76432  13.590   9.254   0.629  0.5998  1.4513  1.7273
  554MOL0     H76433  13.321   9.224   0.578  0.9963  1.7919  0.7420
  554MOL0     H76434  13.024   9.070   0.536 -1.2164  1.5716 -0.6572
  554MOL0     H76435  12.818   9.010   0.423 -1.8065 -2.0225 -0.2174
  554MOL0     H76436  11.230   8.422   0.419  0.0744  1.4338 -0.2970
  554MOL0     H76437  11.024   8.282   0.389  1.2391  0.2889 -0.0959
  554MOL0     H76438  10.750   8.197  -0.015  0.0942 -1.3459  0.1129
  554MOL0     H76439  10.531   8.139  -0.102 -0.4691  0.1985 -0.1895
  554MOL0     H76440  10.301   8.184  -0.152 -2.0667  1.2197  0.3540
  554MOL0     H76441  10.357   8.021  -0.146 -0.6030  1.5828 -3.9444
  554MOL0     H76442  10.070   8.129  -0.064  0.4384 -0.7128  0.5854
  554MOL0     H76443  10.113   7.960  -0.082 -2.2863 -0.4595 -1.4071
  554MOL0     H76444  10.099   8.172  -0.301  2.1286 -0.6647  0.5355
  554MOL0     H76445  10.157   8.026  -0.341  1.3137  3.5281 -0.0737
  554MOL0     H76446   9.878   8.080  -0.242  0.4552 -0.5780  1.5370
  554MOL0     H76447   9.941   7.910  -0.263  0.1935  0.1733  2.0242
  554MOL0     H76448   9.826   8.034  -0.649 -0.1548 -1.7819  0.1592
  554MOL0     H76449  10.347   8.162   0.265 -0.4694  2.9005  0.0402
  554MOL0     H76450  10.665   8.200   0.452 -0.8421  0.6715  1.6641
  554MOL0     H76451  10.515   8.295   0.469  0.3883  2.0841 -1.8155
  554MOL0     H76452  10.511   8.125   0.478  1.0905  0.1198  0.6621
  555MOL0     O76453   0.393   6.687   2.244  0.2540 -0.3060  0.4488
  555MOL0     C76454   0.510   6.649   2.208  0.1509 -0.9059  0.8020
  555MOL0     O76455   0.610   6.594   2.281 -0.4984 -0.5498 -0.2436
  555MOL0     C76456   0.572   6.531   2.394  0.2096 -0.6113  0.8435
  555MOL0     C76457   0.477   6.431   2.401 -0.1219  1.3876  0.7535
  555MOL0     C76458   0.451   6.359   2.516  0.3087 -0.2935 -0.0316
  555MOL0     C76459   0.526   6.375   2.624 -0.4164 -0.6742 -0.3757
  555MOL0     O76460   0.517   6.290   2.731  0.1760 -0.3467 -0.2884
  555MOL0     C76461   0.389   6.235   2.769  0.4410 -0.2874  0.7410
  555MOL0     C76462   0.405   6.163   2.902 -0.5061  0.1899 -0.0059
  555MOL0     C76463   0.488   6.044   2.903  0.1173  0.3584 -0.0105
  555MOL0     C76464   0.496   5.970   3.038 -0.2547 -0.4190  0.1115
  555MOL0     C76465   0.365   5.920   3.087  0.6761 -0.2023 -0.1736
  555MOL0     C76466   0.380   5.832   3.209 -0.1315 -0.3048 -0.4242
  555MOL0     C76467   0.421   5.913   3.334 -1.2119 -0.0824  0.5343
  555MOL0     C76468   0.492   5.825   3.438  0.1843  0.1339 -0.0146
  555MOL0     N76469   0.635   5.863   3.456  0.3422  0.1771  0.2495
  555MOL0     C76470   0.702   5.894   3.574  0.4996  0.1177  0.3649
  555MOL0     C76471   0.835   5.904   3.527 -0.4400  0.2986  0.6101
  555MOL0     C76472   0.949   5.966   3.605  0.0269  0.2095  0.5280
  555MOL0     C76473   0.927   5.960   3.762 -0.3458  0.4144 -0.0175
  555MOL0     C76474   1.027   6.031   3.844  0.3933 -0.9522  0.7230
  555MOL0     C76475   1.163   5.959   3.850 -1.4855 -0.4430 -0.1646
  555MOL0     O76476   1.264   6.039   3.906 -0.2440 -1.0290 -0.0597
  555MOL0     C76477   1.331   6.136   3.835 -0.4753 -0.4042  0.5005
  555MOL0     C76478   1.325   6.166   3.698 -0.2217  0.9624  0.0482
  555MOL0     C76479   1.410   6.254   3.634 -0.5884 -0.3722 -0.5513
  555MOL0     C76480   1.396   6.261   3.483 -0.3826  0.2013  0.5762
  555MOL0     C76481   1.497   6.336   3.710 -0.5086  0.8375 -0.7882
  555MOL0     C76482   1.581   6.439   3.662 -0.4617  0.6572 -0.0942
  555MOL0     O76483   1.682   6.495   3.753  0.2826  0.1814 -0.1047
  555MOL0     C76484   1.765   6.593   3.702  0.7862 -0.0820  0.3769
  555MOL0     C76485   1.745   6.730   3.740  0.3552 -0.0230  0.2900
  555MOL0     C76486   1.834   6.830   3.703 -0.2521  0.5379 -0.4407
  555MOL0     C76487   1.939   6.798   3.625  0.6165 -0.0784 -0.1920
  555MOL0     O76488   2.030   6.898   3.609  0.7306 -0.4645 -0.0908
  555MOL0     C76489   2.143   6.870   3.525  0.7096 -0.2726 -0.4715
  555MOL0     C76490   2.223   7.000   3.505 -0.1147  0.2853 -0.7168
  555MOL0     C76491   2.324   6.963   3.388 -0.9961  0.0152 -0.4582
  555MOL0     C76492   2.389   7.097   3.333 -0.6034  0.1291 -0.1206
  555MOL0     C76493   2.481   7.061   3.215  0.2928  0.1611  0.2374
  555MOL0     C76494   2.578   7.175   3.188  0.4329 -0.6675 -0.0775
  555MOL0     C76495   2.655   7.145   3.055  0.4927  0.0062  0.4613
  555MOL0     C76496   2.751   7.253   3.002 -0.5406  0.6431  0.4168
  555MOL0    Cl76497   2.656   7.400   2.966  0.0919  0.0699  0.1365
  555MOL0     C76498   1.956   6.665   3.580  0.2562 -0.9211  0.0708
  555MOL0     C76499   1.862   6.562   3.609 -0.6112 -0.1422 -0.1766
  555MOL0     O76500   1.563   6.483   3.548 -0.1690  0.2910  0.5636
  555MOL0     C76501   1.500   6.317   3.850 -0.1086  0.3868  0.3903
  555MOL0     C76502   1.419   6.217   3.914  0.4156 -0.1410  0.1933
  555MOL0     N76503   0.834   5.889   3.392 -0.3925  0.4073  0.5254
  555MOL0     N76504   0.719   5.858   3.347 -0.2904 -0.1726 -1.0128
  555MOL0     C76505   0.627   6.475   2.625 -0.7772 -0.1410  0.0968
  555MOL0     C76506   0.653   6.543   2.505  0.9756 -0.9075 -0.3414
  555MOL0     C76507   0.546   6.689   2.067 -0.2687  0.2259  0.2576
  555MOL0     C76508   0.674   6.653   2.034  0.4640 -0.1052 -0.0136
  555MOL0     C76509   0.730   6.679   1.911 -0.8799  0.5214  0.6934
  555MOL0     C76510   0.662   6.739   1.808  0.2542  0.2855 -0.5950
  555MOL0     O76511   0.718   6.779   1.687  0.0484  0.6939  0.0511
  555MOL0     C76512   0.769   6.914   1.688 -0.2656  0.1746  0.1064
  555MOL0     C76513   0.908   6.929   1.631 -0.3106 -0.5425 -0.0528
  555MOL0     C76514   1.009   6.816   1.668  0.6944  0.2475  0.1531
  555MOL0     C76515   1.145   6.850   1.605  1.2243 -0.3030  0.0803
  555MOL0     C76516   1.154   6.795   1.470  0.4472  0.8124  0.0181
  555MOL0     C76517   1.187   6.747   1.368 -0.9497 -0.4452  1.0003
  555MOL0     C76518   0.523   6.771   1.835  0.1054  0.6832  0.1459
  555MOL0     C76519   0.469   6.745   1.961 -0.2074 -1.0432 -0.5313
  555MOL0     C76520   0.318   6.769   1.962 -0.1515  0.0553 -0.3015
  555MOL0     H76521   0.434   6.412   2.303  1.0273  1.2862  0.2535
  555MOL0     H76522   0.378   6.280   2.507  1.4757 -1.3140 -0.8948
  555MOL0     H76523   0.344   6.163   2.700 -1.6994 -1.0398  2.8260
  555MOL0     H76524   0.322   6.321   2.774  0.7539 -0.0441  0.8096
  555MOL0     H76525   0.457   6.230   2.972  0.0038 -2.3738  2.2456
  555MOL0     H76526   0.310   6.141   2.951  1.1214  0.2293  3.5425
  555MOL0     H76527   0.439   5.972   2.837  0.7607 -1.0148  0.9616
  555MOL0     H76528   0.590   6.063   2.869  0.6540 -0.2107  1.2163
  555MOL0     H76529   0.563   5.885   3.026 -2.1890 -1.6349 -3.5064
  555MOL0     H76530   0.542   6.033   3.115  3.2550  0.3914 -2.4047
  555MOL0     H76531   0.322   5.858   3.008 -1.1007  0.6637  0.0625
  555MOL0     H76532   0.293   5.999   3.111 -1.7242 -1.9631 -1.2330
  555MOL0     H76533   0.287   5.782   3.238 -0.7538  0.6558 -0.7026
  555MOL0     H76534   0.450   5.755   3.177  0.3412 -0.1970  0.3124
  555MOL0     H76535   0.330   5.952   3.380 -1.5251 -1.1151  0.8217
  555MOL0     H76536   0.479   6.003   3.311 -2.8051  1.4197  2.0453
  555MOL0     H76537   0.440   5.850   3.531 -1.6301  1.8503 -1.4014
  555MOL0     H76538   0.484   5.718   3.418 -0.4259  0.1725  0.0229
  555MOL0     H76539   0.668   5.929   3.670  1.3333 -0.0080  0.7178
  555MOL0     H76540   0.959   6.070   3.572 -1.7065 -0.4524 -2.4320
  555MOL0     H76541   1.045   5.925   3.574 -0.4147 -1.6859  1.5420
  555MOL0     H76542   0.826   5.997   3.781  0.0637  0.4547  2.2898
  555MOL0     H76543   0.925   5.855   3.790 -2.3025 -0.2412 -2.2773
  555MOL0     H76544   1.043   6.130   3.800  2.0820 -1.1031  0.9180
  555MOL0     H76545   0.982   6.051   3.942 -0.2675  0.5233  0.1544
  555MOL0     H76546   1.161   5.876   3.921 -0.6109  1.7122  2.5649
  555MOL0     H76547   1.206   5.920   3.757  1.7722  2.9044 -0.2777
  555MOL0     H76548   1.252   6.102   3.649 -0.4222 -0.0934  1.6665
  555MOL0     H76549   1.356   6.171   3.436 -0.2433 -0.0456  0.9222
  555MOL0     H76550   1.495   6.280   3.440 -0.3639 -0.5803  0.2675
  555MOL0     H76551   1.330   6.344   3.456 -0.8418 -0.0648  0.8609
  555MOL0     H76552   1.664   6.769   3.800  0.2054 -0.6562  0.4997
  555MOL0     H76553   1.836   6.931   3.744  0.9684 -0.4257  2.0802
  555MOL0     H76554   2.205   6.794   3.572  0.5806  1.2497  2.3965
  555MOL0     H76555   2.117   6.835   3.425  3.2805 -1.9480 -0.6434
  555MOL0     H76556   2.154   7.072   3.461 -1.8413 -0.6486  0.3505
  555MOL0     H76557   2.264   7.043   3.596 -2.1820  2.2205 -0.6112
  555MOL0     H76558   2.274   6.907   3.309 -2.2371  3.0206 -1.9822
  555MOL0     H76559   2.404   6.908   3.438  0.1779  2.9785  1.1859
  555MOL0     H76560   2.460   7.133   3.408  1.0351 -1.3571 -0.8789
  555MOL0     H76561   2.315   7.173   3.308 -0.8772 -0.4552 -1.1871
  555MOL0     H76562   2.528   6.964   3.231  0.0237 -0.2603 -1.4042
  555MOL0     H76563   2.419   7.055   3.125 -0.0415 -2.8210  0.5521
  555MOL0     H76564   2.647   7.193   3.271 -1.7663 -0.1273  1.7405
  555MOL0     H76565   2.528   7.271   3.173  0.1430 -0.9511 -0.9953
  555MOL0     H76566   2.586   7.125   2.973 -0.1699 -0.9520  1.2230
  555MOL0     H76567   2.710   7.050   3.065  1.4470  0.6307  1.4694
  555MOL0     H76568   2.805   7.226   2.911  1.4063  4.4758  0.2292
  555MOL0     H76569   2.829   7.270   3.077 -0.8014  0.2207  0.7916
  555MOL0     H76570   2.041   6.653   3.513  2.0592  0.5249  1.9807
  555MOL0     H76571   1.863   6.464   3.561 -1.0305  0.4234 -1.3870
  555MOL0     H76572   1.555   6.380   3.919  3.6338 -1.6674 -0.4387
  555MOL0     H76573   1.414   6.198   4.021 -2.1402 -0.3228  0.1052
  555MOL0     H76574   0.687   6.480   2.715 -1.3186 -2.0385  0.6083
  555MOL0     H76575   0.733   6.616   2.503  2.0764 -1.8394  3.0064
  555MOL0     H76576   0.737   6.595   2.101  1.3644 -0.6043 -1.2612
  555MOL0     H76577   0.836   6.662   1.893 -1.4586 -3.1263 -0.0558
  555MOL0     H76578   0.701   6.986   1.642  0.0579  1.4150  1.5035
  555MOL0     H76579   0.776   6.950   1.791 -1.9531  1.4538 -0.1834
  555MOL0     H76580   0.947   7.027   1.658 -0.8160  0.1623 -1.7459
  555MOL0     H76581   0.906   6.938   1.522 -2.0218 -1.6341 -0.1430
  555MOL0     H76582   1.018   6.808   1.777 -0.9977 -3.6505  0.1763
  555MOL0     H76583   0.971   6.716   1.647 -0.5146  0.4652  1.1774
  555MOL0     H76584   1.216   6.800   1.672  0.6517 -0.6879  0.4136
  555MOL0     H76585   1.163   6.958   1.605  1.0274 -0.2095 -2.7541
  555MOL0     H76586   1.202   6.689   1.279 -4.0234 -1.6990  1.1791
  555MOL0     H76587   0.466   6.817   1.756  0.2593 -2.9353 -2.2742
  555MOL0     H76588   0.269   6.759   2.060 -2.3695  4.1831 -0.7617
  555MOL0     H76589   0.287   6.869   1.933 -2.1630 -0.0895  1.0928
  555MOL0     H76590   0.267   6.708   1.887  1.6783 -0.0425 -1.5157
  556MOL0     O76591   9.619  10.572   8.404 -0.5193 -0.1234 -0.4640
  556MOL0     C76592   9.599  10.606   8.290 -0.2786  0.6780  0.1741
  556MOL0     O76593   9.655  10.711   8.222 -0.9658 -0.1313  0.6398
  556MOL0     C76594   9.792  10.742   8.235  0.4338 -0.3007  0.2255
  556MOL0     C76595   9.881  10.700   8.335  0.1595  0.0710 -0.6609
  556MOL0     C76596  10.015  10.734   8.335  0.2396  0.9840 -0.7202
  556MOL0     C76597  10.062  10.810   8.235  0.1899 -0.0533  0.3879
  556MOL0     O76598  10.190  10.855   8.236  0.4568  0.5405  0.3364
  556MOL0     C76599  10.203  10.993   8.267  0.7355 -0.0870  0.3259
  556MOL0     C76600  10.353  11.024   8.263  0.3643 -0.0180 -0.2145
  556MOL0     C76601  10.399  11.027   8.119  0.6139 -0.4378  0.4128
  556MOL0     C76602  10.551  11.053   8.108  0.8561 -0.2242 -0.3390
  556MOL0     C76603  10.588  11.046   7.963  0.3388  0.0369  0.2186
  556MOL0     C76604  10.549  11.169   7.883  0.3316  0.2299 -0.0621
  556MOL0     C76605  10.613  11.179   7.740  0.0702  0.7229 -0.6355
  556MOL0     C76606  10.728  11.277   7.728 -0.0029  0.2163 -0.6147
  556MOL0     N76607  10.836  11.256   7.821  0.0566  0.0248  0.5462
  556MOL0     C76608  10.941  11.165   7.801 -0.0974  0.9792  0.7004
  556MOL0     C76609  11.003  11.172   7.919 -0.5896 -1.2164  0.4212
  556MOL0     C76610  11.135  11.104   7.958 -0.1276 -0.7859  0.2716
  556MOL0     C76611  11.251  11.159   7.863  0.1275  0.6568 -0.7440
  556MOL0     C76612  11.263  11.090   7.741 -0.5576  0.5738  0.3681
  556MOL0     C76613  11.360  11.165   7.645  0.2665 -0.4103 -0.9479
  556MOL0     O76614  11.363  11.104   7.519  0.4412  0.1649  0.0595
  556MOL0     C76615  11.481  11.040   7.478 -0.7389 -0.5397  0.1713
  556MOL0     C76616  11.467  10.908   7.422  0.2711 -0.1312  0.8066
  556MOL0     C76617  11.574  10.846   7.349 -0.2690 -0.1942 -0.7529
  556MOL0     C76618  11.547  10.700   7.301 -0.7262  0.1679  0.0339
  556MOL0     C76619  11.700  10.909   7.326  1.1916  0.0610  0.1794
  556MOL0     C76620  11.812  10.858   7.246  0.2309  0.3160  0.5015
  556MOL0     O76621  11.927  10.931   7.248  0.1184  0.2843  0.2792
  556MOL0     C76622  12.047  10.886   7.195 -0.4300 -0.1452 -0.3347
  556MOL0     C76623  12.079  10.752   7.155  0.0248 -0.6738 -0.0646
  556MOL0     C76624  12.203  10.716   7.112  0.5220 -0.1454 -0.5140
  556MOL0     C76625  12.303  10.817   7.095  0.0570  1.2175  0.0053
  556MOL0     O76626  12.430  10.778   7.064 -0.5432 -0.9296 -0.0995
  556MOL0     C76627  12.513  10.872   6.997 -0.3717 -0.5827 -0.1609
  556MOL0     C76628  12.649  10.806   6.956 -0.9460 -0.5899  0.0230
  556MOL0     C76629  12.725  10.881   6.850  0.5783  0.0952 -0.0836
  556MOL0     C76630  12.869  10.834   6.840 -0.4598  0.0586 -0.1450
  556MOL0     C76631  12.957  10.906   6.735 -0.2918  0.7285 -0.2541
  556MOL0     C76632  13.096  10.845   6.735  1.7518  0.1148  0.1003
  556MOL0     C76633  13.200  10.938   6.660 -0.0106  0.5687  0.3354
  556MOL0     C76634  13.335  10.880   6.661  0.4990  0.1523  0.7233
  556MOL0    Cl76635  13.353  10.723   6.572 -0.1385 -0.1421  0.2271
  556MOL0     C76636  12.271  10.950   7.120  1.0095 -0.7338 -0.2340
  556MOL0     C76637  12.156  10.983   7.182  0.5610 -0.0571  0.5955
  556MOL0     O76638  11.787  10.766   7.171 -0.4912  0.5797 -0.4313
  556MOL0     C76639  11.713  11.038   7.391 -1.2344  0.1378 -0.0559
  556MOL0     C76640  11.610  11.102   7.467 -0.2679  0.0183  0.2939
  556MOL0     N76641  10.935  11.264   8.003 -0.2794  0.2358  0.5096
  556MOL0     N76642  10.837  11.307   7.940  0.0274 -1.0698 -0.1660
  556MOL0     C76643   9.976  10.853   8.131  0.2677  0.3500 -0.5268
  556MOL0     C76644   9.844  10.817   8.132 -1.6189  0.2697  0.1350
  556MOL0     C76645   9.486  10.548   8.219  0.0972 -0.4772 -0.0818
  556MOL0     C76646   9.504  10.528   8.073  0.4576  0.1089  0.2206
  556MOL0     C76647   9.399  10.473   8.002  0.1167 -0.0349 -0.0244
  556MOL0     C76648   9.272  10.441   8.055  0.2495 -0.9124  0.3669
  556MOL0     O76649   9.169  10.387   7.980  0.4103 -0.1955  0.2384
  556MOL0     C76650   9.036  10.382   8.029  0.0523 -0.3481  0.0212
  556MOL0     C76651   8.938  10.331   7.915 -0.5219 -0.4424  0.3380
  556MOL0     C76652   8.927  10.438   7.802  0.2219  0.6382  0.5437
  556MOL0     C76653   8.796  10.518   7.792  0.2043  0.1964  0.1060
  556MOL0     C76654   8.681  10.430   7.783  0.6239  0.4866 -0.5606
  556MOL0     C76655   8.583  10.355   7.761 -0.3190  0.1539  1.0944
  556MOL0     C76656   9.258  10.464   8.193 -0.2493 -0.6151  0.0743
  556MOL0     C76657   9.358  10.511   8.278 -0.3740 -0.2876 -0.1772
  556MOL0     C76658   9.333  10.505   8.425 -0.3957 -0.2740 -0.2516
  556MOL0     H76659   9.845  10.643   8.420 -0.2551 -2.8742 -2.6536
  556MOL0     H76660  10.080  10.701   8.415 -1.4384  0.7916  0.6283
  556MOL0     H76661  10.164  11.009   8.368 -0.9501  1.6610 -0.5343
  556MOL0     H76662  10.144  11.055   8.199  1.2694  0.1521  0.0724
  556MOL0     H76663  10.380  11.114   8.319  1.3057 -1.5401  1.9339
  556MOL0     H76664  10.399  10.935   8.307  0.6317  0.8746  1.3703
  556MOL0     H76665  10.376  10.927   8.081 -1.0421 -0.2616  0.8891
  556MOL0     H76666  10.341  11.099   8.059  0.7369  1.2619  2.2434
  556MOL0     H76667  10.582  11.153   8.140 -1.0005  0.7885 -1.5271
  556MOL0     H76668  10.599  10.978   8.172 -1.1191 -1.9666 -0.7828
  556MOL0     H76669  10.556  10.949   7.923  0.3444 -0.9541  2.4593
  556MOL0     H76670  10.697  11.039   7.967  0.2446 -1.6506  0.9918
  556MOL0     H76671  10.441  11.170   7.867 -0.1763 -1.7313  2.5757
  556MOL0     H76672  10.571  11.264   7.933 -1.1310  1.0740 -0.9319
  556MOL0     H76673  10.537  11.213   7.670 -0.6924  0.7057  0.1654
  556MOL0     H76674  10.632  11.078   7.704 -0.5752 -0.5603  2.3065
  556MOL0     H76675  10.772  11.271   7.628  0.8923 -0.7371 -0.1803
  556MOL0     H76676  10.683  11.376   7.740 -0.9479  0.0807 -2.6430
  556MOL0     H76677  10.969  11.098   7.720 -2.2118 -0.4328  1.0475
  556MOL0     H76678  11.118  10.996   7.956  1.2296 -1.1137  2.7017
  556MOL0     H76679  11.160  11.137   8.059  2.1358 -0.1317 -0.4506
  556MOL0     H76680  11.228  11.265   7.846 -0.8182  0.6982  0.6489
  556MOL0     H76681  11.343  11.141   7.921 -1.0770  2.7173  2.0420
  556MOL0     H76682  11.303  10.989   7.757  0.3721  0.9744  0.6093
  556MOL0     H76683  11.165  11.089   7.694 -0.2734  0.6408 -0.2354
  556MOL0     H76684  11.335  11.271   7.635 -0.2895 -0.2932  1.2497
  556MOL0     H76685  11.458  11.163   7.694 -1.0575 -2.7739  1.8954
  556MOL0     H76686  11.368  10.873   7.450 -0.5366  0.8307 -0.6655
  556MOL0     H76687  11.476  10.652   7.369 -1.2179  0.5172 -0.2270
  556MOL0     H76688  11.629  10.627   7.304 -2.9614 -2.5655  3.7129
  556MOL0     H76689  11.497  10.693   7.204 -0.5969 -1.5483  0.0541
  556MOL0     H76690  12.000  10.677   7.148 -0.4146 -0.1960 -0.2099
  556MOL0     H76691  12.229  10.613   7.092 -0.9373 -0.6442  0.0903
  556MOL0     H76692  12.465  10.902   6.903  2.7973 -2.5509 -2.6006
  556MOL0     H76693  12.532  10.960   7.060 -3.7523 -0.2045  0.5038
  556MOL0     H76694  12.709  10.780   7.043  2.0290 -2.0952 -2.2928
  556MOL0     H76695  12.630  10.706   6.915 -0.4412 -1.0732  0.9364
  556MOL0     H76696  12.718  10.990   6.863 -1.5548  0.0201 -0.2921
  556MOL0     H76697  12.671  10.853   6.759  1.5190 -2.8108  0.1700
  556MOL0     H76698  12.870  10.729   6.808  0.7916 -0.6870  2.1046
  556MOL0     H76699  12.917  10.851   6.937  1.5749  1.4497 -1.3010
  556MOL0     H76700  12.916  10.890   6.635 -0.3607 -2.0223  0.1533
  556MOL0     H76701  12.960  11.014   6.757  1.6637  1.3650 -3.0845
  556MOL0     H76702  13.091  10.744   6.693  2.4206 -0.6228  1.7121
  556MOL0     H76703  13.131  10.834   6.838 -0.4207 -1.5541  0.7318
  556MOL0     H76704  13.204  11.042   6.695 -1.9314  1.6519 -2.2970
  556MOL0     H76705  13.160  10.946   6.558 -2.3123 -1.7079  0.9725
  556MOL0     H76706  13.352  10.866   6.769 -2.0419  0.2095  1.1783
  556MOL0     H76707  13.409  10.951   6.622  0.2036  1.8884  3.0945
  556MOL0     H76708  12.335  11.035   7.100 -0.5239 -0.0305 -2.5814
  556MOL0     H76709  12.153  11.079   7.232  2.3022  1.2997 -1.6891
  556MOL0     H76710  11.807  11.093   7.396  1.4987 -4.1107  0.5552
  556MOL0     H76711  11.633  11.197   7.513  0.0938 -0.7509  1.7859
  556MOL0     H76712   9.997  10.921   8.048 -0.7310  1.7678  0.3291
  556MOL0     H76713   9.773  10.842   8.053 -1.9114  1.6559  0.8078
  556MOL0     H76714   9.595  10.544   8.017 -0.9139  0.6175 -1.9724
  556MOL0     H76715   9.435  10.442   7.904  2.1692 -0.2978  0.7705
  556MOL0     H76716   9.032  10.311   8.112  0.9003 -0.0344  0.3390
  556MOL0     H76717   9.007  10.479   8.070 -1.5157 -0.6650 -0.2883
  556MOL0     H76718   8.835  10.311   7.949 -0.1601 -0.0402  1.7456
  556MOL0     H76719   8.982  10.239   7.876  2.0681  0.5143  0.8574
  556MOL0     H76720   9.010  10.509   7.814  0.3632  1.0198 -2.0423
  556MOL0     H76721   8.946  10.380   7.711 -2.6683  0.8069 -0.2518
  556MOL0     H76722   8.807  10.584   7.705 -1.9503  0.7551  0.2021
  556MOL0     H76723   8.783  10.577   7.884 -1.6532 -0.2526  0.1778
  556MOL0     H76724   8.512  10.278   7.740  0.8546 -0.2778 -1.8142
  556MOL0     H76725   9.161  10.447   8.240  0.1557  0.9891  1.5748
  556MOL0     H76726   9.366  10.594   8.479 -1.7747 -0.1079  0.3461
  556MOL0     H76727   9.227  10.487   8.445 -0.1740  0.2020  1.5726
  556MOL0     H76728   9.402  10.426   8.459  0.2878  0.8777  1.1424
  557MOL0     O76729   3.973   7.743  10.166  0.4356  0.8876 -0.2997
  557MOL0     C76730   3.926   7.851  10.139  0.6326  0.4734  0.0263
  557MOL0     O76731   3.979   7.943  10.063 -0.6281  0.3918  0.4207
  557MOL0     C76732   4.104   7.915  10.010 -0.6320  0.4369  0.1035
  557MOL0     C76733   4.223   7.904  10.082  0.5175 -0.9356  0.1741
  557MOL0     C76734   4.345   7.873  10.020  0.0942 -0.7921  0.4149
  557MOL0     C76735   4.354   7.865   9.884 -0.0255  0.6959 -0.4016
  557MOL0     O76736   4.475   7.829   9.836 -0.5263 -0.5557  0.4059
  557MOL0     C76737   4.583   7.923   9.856 -0.2025  0.2383  0.1282
  557MOL0     C76738   4.700   7.873   9.766  0.1658 -0.0066  0.8171
  557MOL0     C76739   4.822   7.965   9.788  0.0526 -0.2279 -0.0988
  557MOL0     C76740   4.955   7.925   9.705  0.4173 -0.6715 -0.1187
  557MOL0     C76741   5.087   7.944   9.784  0.7179  0.5939 -0.4255
  557MOL0     C76742   5.118   7.821   9.872 -0.4828 -0.8494 -0.6209
  557MOL0     C76743   5.177   7.710   9.785  0.4285 -0.5508 -0.2145
  557MOL0     C76744   5.247   7.600   9.862 -0.1355 -0.7178 -0.0330
  557MOL0     N76745   5.256   7.486   9.771 -0.2340 -0.3730 -0.1484
  557MOL0     C76746   5.168   7.384   9.762 -0.3374 -0.5261  0.0760
  557MOL0     C76747   5.201   7.324   9.645  0.0293 -0.1087 -0.0326
  557MOL0     C76748   5.136   7.192   9.602 -0.4482  0.1425 -0.6407
  557MOL0     C76749   5.229   7.110   9.509 -0.4091  0.2217  0.3496
  557MOL0     C76750   5.356   7.050   9.572 -0.1411 -0.3189 -0.3610
  557MOL0     C76751   5.350   7.013   9.722  0.1963  0.2743 -0.0198
  557MOL0     O76752   5.469   6.956   9.756  0.1416 -0.1263 -0.6355
  557MOL0     C76753   5.586   7.014   9.763 -0.7326 -0.9641 -0.5397
  557MOL0     C76754   5.611   7.150   9.768 -0.9545  0.5451  0.1172
  557MOL0     C76755   5.742   7.197   9.778  0.8239  0.0770  0.0188
  557MOL0     C76756   5.764   7.351   9.772 -1.1130 -0.2526  0.3056
  557MOL0     C76757   5.844   7.104   9.803 -0.2175 -0.0064  0.1510
  557MOL0     C76758   5.983   7.147   9.832  0.4682 -0.0349  0.0427
  557MOL0     O76759   6.008   7.252   9.916  0.2404 -0.1836  0.1360
  557MOL0     C76760   6.133   7.311   9.902  0.2359 -0.5799 -0.0205
  557MOL0     C76761   6.157   7.391   9.791  0.6864  0.3478  1.0444
  557MOL0     C76762   6.273   7.461   9.761  0.3535  0.0161  0.1626
  557MOL0     C76763   6.372   7.449   9.869 -0.3608 -0.7312 -0.7009
  557MOL0     O76764   6.481   7.531   9.855 -0.0386  0.2423  0.6048
  557MOL0     C76765   6.497   7.633   9.955 -0.1240 -0.3072  0.0923
  557MOL0     C76766   6.649   7.653   9.974  0.2225  1.1163  0.1352
  557MOL0     C76767   6.707   7.543  10.048 -0.4087  0.4555 -0.0025
  557MOL0     C76768   6.852   7.583  10.081  0.0559  0.5088 -0.0343
  557MOL0     C76769   6.933   7.490  10.159  1.1293  0.1598  0.2354
  557MOL0     C76770   7.068   7.556  10.171  0.4165 -0.2745 -0.4877
  557MOL0     C76771   7.159   7.480  10.258  0.2053  0.2998  0.1098
  557MOL0     C76772   7.302   7.490  10.205 -0.0926 -0.8922 -0.0095
  557MOL0    Cl76773   7.410   7.435  10.316  0.1134  0.3264  0.3119
  557MOL0     C76774   6.361   7.355   9.975  0.4063 -0.2289  0.0374
  557MOL0     C76775   6.243   7.286   9.987 -0.1015  0.1462 -0.0510
  557MOL0     O76776   6.066   7.085   9.778 -0.0700 -0.6187 -0.6876
  557MOL0     C76777   5.815   6.964   9.813  0.3984  0.3787  0.5484
  557MOL0     C76778   5.690   6.924   9.790 -0.1460  0.3350 -0.0029
  557MOL0     N76779   5.309   7.390   9.583  0.3146  0.8757 -0.4173
  557MOL0     N76780   5.349   7.486   9.665  0.2215 -0.6341 -0.0582
  557MOL0     C76781   4.240   7.876   9.813  0.4195 -0.2189 -0.5363
  557MOL0     C76782   4.115   7.897   9.874  0.0769  0.0475  1.2342
  557MOL0     C76783   3.805   7.901  10.205 -0.3776  0.5025  0.2480
  557MOL0     C76784   3.763   7.827  10.321 -0.2359 -1.0436 -0.8958
  557MOL0     C76785   3.646   7.862  10.387 -0.4660  1.3141 -0.3286
  557MOL0     C76786   3.562   7.954  10.339  0.8656  0.0938 -0.7504
  557MOL0     O76787   3.443   7.974  10.402  0.5438  0.3770 -0.0245
  557MOL0     C76788   3.334   8.035  10.324  0.6668 -0.3165 -0.0420
  557MOL0     C76789   3.207   8.048  10.408  0.0892  1.4348  0.3288
  557MOL0     C76790   3.101   8.130  10.339  0.3666 -0.7435 -0.1459
  557MOL0     C76791   3.040   8.042  10.225 -0.6632 -0.8313  0.5531
  557MOL0     C76792   2.963   7.926  10.280 -0.4304 -0.3263  0.6915
  557MOL0     C76793   2.909   7.834  10.326  0.3040  0.4707  0.5990
  557MOL0     C76794   3.598   8.025  10.231 -0.3488 -0.3049 -0.3575
  557MOL0     C76795   3.721   8.009  10.163 -0.0836  0.1057  0.5915
  557MOL0     C76796   3.731   8.082  10.029  0.3533  0.2548  0.0866
  557MOL0     H76797   4.228   7.913  10.190  0.0367  0.3082  0.1170
  557MOL0     H76798   4.437   7.858  10.076  0.7141  1.4300  0.1048
  557MOL0     H76799   4.621   7.934   9.958  0.2003 -0.1246  0.0179
  557MOL0     H76800   4.542   8.019   9.822 -2.7728 -0.7695  0.1609
  557MOL0     H76801   4.728   7.769   9.784 -1.1804 -1.0730 -2.5104
  557MOL0     H76802   4.666   7.888   9.663  0.1674  0.5351  0.8914
  557MOL0     H76803   4.785   8.063   9.758  1.0575  0.3803  0.5734
  557MOL0     H76804   4.849   7.953   9.894  2.4387  1.4406 -0.4393
  557MOL0     H76805   4.934   7.823   9.673 -1.4318  0.4515 -2.8276
  557MOL0     H76806   4.958   7.980   9.610  0.4391 -1.3623 -0.5281
  557MOL0     H76807   5.079   8.034   9.845 -0.5570  0.2425 -0.0486
  557MOL0     H76808   5.173   7.963   9.718 -0.9517 -1.0460 -3.2773
  557MOL0     H76809   5.194   7.851   9.946  0.9186 -2.9208 -1.1505
  557MOL0     H76810   5.032   7.796   9.936 -0.6047 -0.7687 -0.7517
  557MOL0     H76811   5.249   7.748   9.713  1.2903 -0.6852  0.5671
  557MOL0     H76812   5.086   7.667   9.741 -1.1405  0.9168  1.4000
  557MOL0     H76813   5.354   7.611   9.879 -0.3558  0.7515  0.5858
  557MOL0     H76814   5.199   7.586   9.960  1.2571  3.0364  1.3795
  557MOL0     H76815   5.085   7.354   9.826  1.4497 -1.7676  1.9276
  557MOL0     H76816   5.038   7.208   9.557 -0.0317  2.8076 -0.7746
  557MOL0     H76817   5.120   7.151   9.702 -1.6170  4.4202  1.1861
  557MOL0     H76818   5.172   7.020   9.484  0.6418 -0.7179  1.2425
  557MOL0     H76819   5.253   7.158   9.414  2.6998  0.8063  1.3294
  557MOL0     H76820   5.370   6.960   9.512 -0.3717 -0.3911 -0.3053
  557MOL0     H76821   5.443   7.116   9.563 -0.0984  0.3742  3.4895
  557MOL0     H76822   5.326   7.102   9.780 -3.9413 -1.0285  0.6017
  557MOL0     H76823   5.263   6.947   9.728 -0.4437  1.2600  2.2835
  557MOL0     H76824   5.527   7.219   9.759 -1.1440  0.1078 -1.8636
  557MOL0     H76825   5.790   7.406   9.862 -1.4379  1.0146 -0.3562
  557MOL0     H76826   5.667   7.386   9.735  0.4114  2.4597 -1.4399
  557MOL0     H76827   5.839   7.376   9.696  1.5942 -1.4344  2.4235
  557MOL0     H76828   6.077   7.404   9.719 -0.5530 -0.7123  2.1728
  557MOL0     H76829   6.292   7.523   9.674  1.1164 -0.2478  0.1296
  557MOL0     H76830   6.452   7.723   9.911  2.7758  0.6002 -1.3468
  557MOL0     H76831   6.453   7.610  10.052  3.6626 -1.5440  1.6833
  557MOL0     H76832   6.700   7.668   9.878  2.1203  0.7368  1.0356
  557MOL0     H76833   6.664   7.744  10.034  0.8807  3.1072 -2.8311
  557MOL0     H76834   6.711   7.447   9.996 -0.9495 -1.8311  3.8142
  557MOL0     H76835   6.650   7.518  10.138 -2.1351 -3.1409 -1.8864
  557MOL0     H76836   6.861   7.677  10.137 -1.5974  2.1922 -2.4139
  557MOL0     H76837   6.903   7.596   9.986  0.2123 -2.6159 -0.4913
  557MOL0     H76838   6.887   7.480  10.258 -1.1376 -0.0554 -0.8006
  557MOL0     H76839   6.938   7.394  10.109  0.7220  0.7180 -0.9074
  557MOL0     H76840   7.062   7.656  10.216  0.3774  0.3256 -1.7617
  557MOL0     H76841   7.119   7.554  10.074  2.3545  1.2334  0.4306
  557MOL0     H76842   7.124   7.376  10.259  0.9627  0.0393 -0.1647
  557MOL0     H76843   7.154   7.510  10.363  2.2809  2.0848 -0.2245
  557MOL0     H76844   7.319   7.596  10.186  0.8061 -1.4655 -2.9521
  557MOL0     H76845   7.304   7.433  10.112 -1.3894  0.6558 -1.0203
  557MOL0     H76846   6.443   7.341  10.044  0.5109 -2.0702 -0.3943
  557MOL0     H76847   6.221   7.209  10.060  1.8851 -1.1539 -0.7688
  557MOL0     H76848   5.893   6.896   9.844  2.0071  1.2042 -1.5134
  557MOL0     H76849   5.660   6.820   9.796 -0.2756  0.3362 -0.5403
  557MOL0     H76850   4.245   7.862   9.705  0.8233  1.8884 -0.8304
  557MOL0     H76851   4.024   7.913   9.818  2.1390  0.5719 -2.2527
  557MOL0     H76852   3.816   7.741  10.361  0.7991  0.4528  1.1544
  557MOL0     H76853   3.618   7.812  10.478  0.4736  2.6727  0.7528
  557MOL0     H76854   3.358   8.139  10.298  1.3366  0.3081  2.7493
  557MOL0     H76855   3.309   7.977  10.234 -3.4723  1.0538  0.0422
  557MOL0     H76856   3.234   8.098  10.501  4.5228  0.1120 -0.0049
  557MOL0     H76857   3.174   7.945  10.423 -1.9462  1.7730 -1.3897
  557MOL0     H76858   3.018   8.157  10.405 -0.7303 -0.5501 -1.5700
  557MOL0     H76859   3.139   8.229  10.312  0.5397  0.0216  2.5575
  557MOL0     H76860   3.111   8.012  10.147 -0.7737 -0.5978  0.3575
  557MOL0     H76861   2.967   8.100  10.168  1.4849 -0.8305 -2.4541
  557MOL0     H76862   2.872   7.746  10.375  1.7168  0.0330  0.9160
  557MOL0     H76863   3.531   8.105  10.200  0.6624  1.3798  1.5689
  557MOL0     H76864   3.759   8.011   9.951 -0.0334 -0.0509  0.2204
  557MOL0     H76865   3.638   8.133  10.006 -0.6073 -1.6763 -0.5731
  557MOL0     H76866   3.806   8.160  10.044 -0.9652  1.5691 -0.0388
  558MOL0     O76867   5.942   9.646   2.041 -0.6158 -0.5579 -0.0112
  558MOL0     C76868   5.997   9.754   2.054  0.3745  0.1883 -0.4820
  558MOL0     O76869   6.126   9.778   2.020 -0.6272 -0.1428 -0.4980
  558MOL0     C76870   6.195   9.681   1.952 -0.0867 -0.0225 -1.4283
  558MOL0     C76871   6.268   9.578   2.020  0.2096  0.2632  0.1017
  558MOL0     C76872   6.346   9.487   1.946  0.0589 -0.9043 -0.0378
  558MOL0     C76873   6.351   9.496   1.807 -0.6072  0.2595  0.0658
  558MOL0     O76874   6.432   9.410   1.732  1.0218  0.7346  1.2278
  558MOL0     C76875   6.382   9.275   1.705  0.5479 -0.4884  0.4649
  558MOL0     C76876   6.437   9.219   1.572  0.3919  0.2482  0.2537
  558MOL0     C76877   6.404   9.302   1.451  0.0789  0.2080 -0.4345
  558MOL0     C76878   6.506   9.279   1.338 -0.5785  0.3458  0.4891
  558MOL0     C76879   6.481   9.368   1.216 -0.6603 -0.7772  0.9405
  558MOL0     C76880   6.355   9.338   1.134  0.2052  0.2849  0.4339
  558MOL0     C76881   6.328   9.443   1.030 -0.5351 -0.3209  0.3157
  558MOL0     C76882   6.424   9.424   0.913 -0.1344  0.5909  0.5355
  558MOL0     N76883   6.538   9.508   0.914  0.0206 -0.2651  0.2827
  558MOL0     C76884   6.661   9.449   0.908 -0.6896 -0.1081 -0.2115
  558MOL0     C76885   6.742   9.555   0.899  0.2801  0.0517 -0.9095
  558MOL0     C76886   6.896   9.549   0.897  0.3848  0.3897  0.8005
  558MOL0     C76887   6.955   9.490   0.769 -0.2933 -0.1369  0.7208
  558MOL0     C76888   6.903   9.568   0.638  0.4079 -1.1085 -0.6661
  558MOL0     C76889   6.990   9.541   0.514 -0.4594  0.4270 -0.0635
  558MOL0     O76890   7.127   9.599   0.522 -0.2859  0.4719  0.5154
  558MOL0     C76891   7.184   9.640   0.405  0.5490 -0.5147 -0.4898
  558MOL0     C76892   7.129   9.644   0.278  0.4610  0.9353  1.1620
  558MOL0     C76893   7.182   9.711   0.168  0.8166  0.9479 -0.2165
  558MOL0     C76894   7.121   9.691   0.032 -0.0240 -0.1112 -0.4509
  558MOL0     C76895   7.308   9.774   0.196  1.1588 -0.7229 -0.3307
  558MOL0     C76896   7.390   9.857   0.090  0.3890 -0.1300 -0.2203
  558MOL0     O76897   7.500   9.916   0.141 -0.0078 -1.0949  0.3492
  558MOL0     C76898   7.606   9.980   0.073  0.4138 -1.2560 -0.1985
  558MOL0     C76899   7.687  10.053   0.149  0.3496 -0.7109 -0.2781
  558MOL0     C76900   7.800  10.121   0.094  0.1065  0.2905  0.4468
  558MOL0     C76901   7.829  10.104  -0.042  0.4669 -0.6202 -0.3962
  558MOL0     O76902   7.932  10.166  -0.104 -0.1815 -0.5608 -0.4030
  558MOL0     C76903   8.017  10.255  -0.031 -0.2466  0.4279 -0.3074
  558MOL0     C76904   8.162  10.275  -0.090 -0.8277  0.1519 -0.7747
  558MOL0     C76905   8.160  10.356  -0.217 -0.5503 -0.2114  1.0506
  558MOL0     C76906   8.253  10.481  -0.205 -0.2805  0.4479 -0.0852
  558MOL0     C76907   8.261  10.565  -0.336 -0.0075 -0.1979 -0.3493
  558MOL0     C76908   8.350  10.685  -0.326 -0.4092 -0.0956  0.4626
  558MOL0     C76909   8.497  10.654  -0.280 -0.4994 -0.3782  0.1935
  558MOL0     C76910   8.595  10.781  -0.292  0.1107 -0.0219 -0.6453
  558MOL0    Cl76911   8.715  10.786  -0.161 -0.6506  0.0149 -0.0883
  558MOL0     C76912   7.749  10.016  -0.123  0.3771 -0.1991 -0.0651
  558MOL0     C76913   7.636   9.968  -0.060  0.4313  0.1899 -0.2472
  558MOL0     O76914   7.350   9.859  -0.024 -0.0338 -0.0125  0.0192
  558MOL0     C76915   7.369   9.758   0.321  0.5982  0.4829  0.2800
  558MOL0     C76916   7.306   9.699   0.426 -0.7807  0.3235 -0.3213
  558MOL0     N76917   6.671   9.676   0.913 -0.1094  0.0049 -0.0104
  558MOL0     N76918   6.545   9.645   0.924  0.5965  0.0822 -0.4839
  558MOL0     C76919   6.269   9.594   1.738  0.4782  0.3499 -0.5225
  558MOL0     C76920   6.198   9.686   1.815  0.3395 -0.0751  0.1290
  558MOL0     C76921   5.921   9.863   2.128 -0.2658  0.7541 -1.2133
  558MOL0     C76922   6.000   9.962   2.185  0.3375  0.7160  0.6587
  558MOL0     C76923   5.946  10.076   2.250 -0.0970  0.0872  0.3084
  558MOL0     C76924   5.805  10.088   2.265  0.8049 -0.0860 -0.4574
  558MOL0     O76925   5.740  10.200   2.309  0.2922  0.0753 -0.2022
  558MOL0     C76926   5.815  10.303   2.385 -0.7369  0.0327  0.0440
  558MOL0     C76927   5.720  10.429   2.394 -0.3025  1.0312  0.0034
  558MOL0     C76928   5.693  10.478   2.255  0.3361 -0.3000  0.2222
  558MOL0     C76929   5.604  10.606   2.248 -0.0012  0.0296  0.3649
  558MOL0     C76930   5.482  10.588   2.330 -0.9672 -0.5478  0.1361
  558MOL0     C76931   5.373  10.580   2.379 -0.2129  0.8119 -0.1393
  558MOL0     C76932   5.727   9.987   2.206 -0.0563 -0.3084  0.5887
  558MOL0     C76933   5.780   9.875   2.140 -0.0271 -0.3391  0.1116
  558MOL0     C76934   5.688   9.797   2.055  0.4300  0.0288 -0.9867
  558MOL0     H76935   6.271   9.581   2.128  0.9831 -0.9479  0.1221
  558MOL0     H76936   6.398   9.406   1.998 -2.2886 -2.4493  0.0151
  558MOL0     H76937   6.273   9.271   1.711  0.4645  2.0206  1.6400
  558MOL0     H76938   6.420   9.214   1.788 -4.0932 -3.7699  0.5588
  558MOL0     H76939   6.541   9.205   1.603  1.7247  1.5058 -3.1639
  558MOL0     H76940   6.402   9.116   1.559  2.9993 -0.9989  2.1509
  558MOL0     H76941   6.305   9.265   1.424  0.2339 -0.5202 -0.0304
  558MOL0     H76942   6.394   9.409   1.471  1.5474  0.4178 -0.6909
  558MOL0     H76943   6.603   9.310   1.379 -0.2955  1.0099 -0.6457
  558MOL0     H76944   6.524   9.176   1.308  2.1583  1.2903 -1.5075
  558MOL0     H76945   6.569   9.353   1.153 -1.5707  2.0727 -1.2567
  558MOL0     H76946   6.487   9.473   1.249  1.1036 -0.2261 -0.9222
  558MOL0     H76947   6.371   9.243   1.082  1.2473  1.1413 -0.8872
  558MOL0     H76948   6.273   9.323   1.205  1.4353  0.2574  1.8748
  558MOL0     H76949   6.323   9.547   1.063  2.5755  0.2855 -0.7893
  558MOL0     H76950   6.230   9.419   0.989 -0.4946  1.8702 -1.2246
  558MOL0     H76951   6.448   9.317   0.913 -1.1948  0.3402 -0.1555
  558MOL0     H76952   6.371   9.447   0.821  1.7613  0.1365 -0.7239
  558MOL0     H76953   6.706   9.353   0.932  2.0480  1.5644  2.0450
  558MOL0     H76954   6.927   9.488   0.982 -3.0206 -2.0626  0.4638
  558MOL0     H76955   6.928   9.653   0.911  1.1880  0.5520 -1.7163
  558MOL0     H76956   7.065   9.487   0.774 -0.1427  0.0842 -1.4556
  558MOL0     H76957   6.917   9.388   0.769  0.0439 -0.2961 -0.9905
  558MOL0     H76958   6.803   9.540   0.604 -0.2418  0.6071 -0.2559
  558MOL0     H76959   6.908   9.672   0.672  2.3928 -1.5388  0.5064
  558MOL0     H76960   7.001   9.432   0.509  2.0604  0.6189  0.0987
  558MOL0     H76961   6.935   9.569   0.424 -0.8369 -1.4601 -0.4604
  558MOL0     H76962   7.033   9.603   0.246  0.5707  2.0594 -0.7037
  558MOL0     H76963   7.040   9.619   0.019  1.4480 -1.4997 -2.5341
  558MOL0     H76964   7.203   9.666  -0.036  1.6215  1.5573  0.8197
  558MOL0     H76965   7.075   9.787   0.009 -0.9430 -0.2103  0.8553
  558MOL0     H76966   7.658  10.070   0.253 -3.1247 -1.8039 -0.9472
  558MOL0     H76967   7.858  10.194   0.149  1.5219 -0.9330  0.6367
  558MOL0     H76968   7.961  10.349  -0.021 -1.4925 -0.2056 -1.1344
  558MOL0     H76969   8.026  10.221   0.072 -4.2792  1.2697  0.4963
  558MOL0     H76970   8.219  10.326  -0.011 -1.8662  0.8878 -0.4764
  558MOL0     H76971   8.210  10.177  -0.092  0.0332  0.5263  0.4991
  558MOL0     H76972   8.060  10.394  -0.237 -0.3546 -0.6481 -0.9487
  558MOL0     H76973   8.190  10.291  -0.300 -0.5436  1.3340 -0.1939
  558MOL0     H76974   8.352  10.446  -0.173 -0.3351 -0.6822 -1.0513
  558MOL0     H76975   8.213  10.547  -0.128  1.1940  0.6725  0.5314
  558MOL0     H76976   8.297  10.503  -0.418 -0.3022 -0.6146 -0.1682
  558MOL0     H76977   8.158  10.598  -0.355  0.1426  1.3011  1.1759
  558MOL0     H76978   8.304  10.762  -0.262 -1.1343  0.6990 -0.9722
  558MOL0     H76979   8.357  10.721  -0.429  1.4556  0.8510  0.8692
  558MOL0     H76980   8.527  10.569  -0.342 -3.0862 -1.5612  0.4396
  558MOL0     H76981   8.501  10.617  -0.177  0.7760  0.1604  0.3507
  558MOL0     H76982   8.530  10.869  -0.291 -0.4806 -0.4279 -2.0619
  558MOL0     H76983   8.641  10.782  -0.391 -1.6074  1.3168 -1.4863
  558MOL0     H76984   7.773   9.973  -0.219 -2.4430  0.5411 -1.1899
  558MOL0     H76985   7.585   9.899  -0.126  0.3372 -0.1516  0.1769
  558MOL0     H76986   7.462   9.812   0.333  1.2769 -0.0972 -1.8933
  558MOL0     H76987   7.352   9.709   0.524 -4.0491  3.3176  1.1265
  558MOL0     H76988   6.263   9.600   1.630 -1.0982 -2.2540 -0.6624
  558MOL0     H76989   6.138   9.758   1.760 -0.0407 -0.1279  0.4682
  558MOL0     H76990   6.108   9.955   2.176  0.3812  0.9243  0.9734
  558MOL0     H76991   6.012  10.157   2.277 -2.0746  2.0511 -0.3951
  558MOL0     H76992   5.835  10.272   2.488 -1.1815 -0.1171  0.0895
  558MOL0     H76993   5.910  10.337   2.345 -0.6431  2.1803  1.8779
  558MOL0     H76994   5.766  10.512   2.448 -0.6042  2.0133 -1.1931
  558MOL0     H76995   5.625  10.396   2.438  0.3271 -0.7601  0.0812
  558MOL0     H76996   5.793  10.504   2.219  0.0753 -0.7069 -0.8431
  558MOL0     H76997   5.653  10.395   2.196  2.0023 -2.4456  1.9492
  558MOL0     H76998   5.570  10.631   2.147 -1.9815  0.9318  1.1936
  558MOL0     H76999   5.668  10.689   2.278  2.5001 -1.0454 -1.6148
  558MOL0     H77000   5.279  10.579   2.430  0.8702  2.6800  2.0749
  558MOL0     H77001   5.621  10.008   2.194 -0.0768 -0.2092  0.9552
  558MOL0     H77002   5.594   9.852   2.049  1.1860  1.2613 -2.2114
  558MOL0     H77003   5.729   9.800   1.953  0.4174 -3.5578 -1.2489
  558MOL0     H77004   5.682   9.694   2.093  1.0624  0.0918 -0.7068
  559MOL0     O77005   9.360   2.308   0.890  0.6253  0.7385 -0.4409
  559MOL0     C77006   9.287   2.293   0.795  0.0439  0.5608 -0.5359
  559MOL0     O77007   9.327   2.232   0.677  0.5757 -0.4493  0.0945
  559MOL0     C77008   9.444   2.172   0.665  0.3998  0.4371  0.9699
  559MOL0     C77009   9.495   2.087   0.757 -0.5737  0.3088  0.7404
  559MOL0     C77010   9.620   2.032   0.735 -0.5463 -0.3986 -0.6917
  559MOL0     C77011   9.700   2.075   0.628  0.1004  0.2732 -0.3479
  559MOL0     O77012   9.824   2.025   0.606  0.2738 -0.2535  0.7190
  559MOL0     C77013   9.832   1.883   0.607  0.1052  0.5599 -0.0116
  559MOL0     C77014   9.760   1.815   0.491  0.3032  0.3272 -0.7789
  559MOL0     C77015   9.776   1.881   0.351  0.1925  0.6275 -0.2982
  559MOL0     C77016   9.690   1.800   0.240  0.0369 -1.0169 -0.8278
  559MOL0     C77017   9.651   1.900   0.133  0.1348  0.0623  0.6607
  559MOL0     C77018   9.554   1.844   0.031  0.2461 -0.5590 -0.1359
  559MOL0     C77019   9.521   1.945  -0.084  0.4423  0.4252 -0.0859
  559MOL0     C77020   9.640   1.987  -0.176  0.2719 -0.4417  0.5927
  559MOL0     N77021   9.675   2.134  -0.153 -0.5368 -0.2663 -0.1105
  559MOL0     C77022   9.678   2.225  -0.261 -1.0339  0.3425  0.5284
  559MOL0     C77023   9.755   2.326  -0.217  0.0878  0.0769 -0.0740
  559MOL0     C77024   9.807   2.439  -0.307  0.3944  0.0052 -0.4293
  559MOL0     C77025   9.912   2.391  -0.409  0.2791 -0.8974  0.2113
  559MOL0     C77026  10.049   2.439  -0.373  0.3542 -0.7192  0.2285
  559MOL0     C77027  10.107   2.350  -0.258 -0.2475 -0.4681  0.2283
  559MOL0     O77028  10.219   2.430  -0.230  0.0301 -0.2739 -0.2777
  559MOL0     C77029  10.315   2.363  -0.163 -0.0304  0.0803 -0.3515
  559MOL0     C77030  10.352   2.410  -0.030 -0.6762  0.1544  0.2141
  559MOL0     C77031  10.457   2.355   0.041 -0.5358 -0.6402  0.8075
  559MOL0     C77032  10.483   2.394   0.185 -0.0766 -0.6439 -0.3158
  559MOL0     C77033  10.531   2.251  -0.022 -0.1499  0.0395 -0.2531
  559MOL0     C77034  10.652   2.192   0.040  0.3721  0.9554 -0.6133
  559MOL0     O77035  10.741   2.145  -0.046 -0.7462 -0.1800 -0.7124
  559MOL0     C77036  10.865   2.126   0.003 -0.0341  0.0973  0.3935
  559MOL0     C77037  10.964   2.225  -0.014 -0.1142  0.0096  0.0134
  559MOL0     C77038  11.102   2.194   0.022  0.0195  0.3373 -0.3531
  559MOL0     C77039  11.145   2.070   0.069 -0.7007  0.5490 -0.0645
  559MOL0     O77040  11.279   2.059   0.101  1.0299 -0.4314 -0.5791
  559MOL0     C77041  11.309   1.944   0.182 -0.6546  0.1389 -0.2762
  559MOL0     C77042  11.434   1.967   0.263  0.3388 -0.2017  0.6358
  559MOL0     C77043  11.548   2.008   0.172 -0.3676 -0.4193 -0.0824
  559MOL0     C77044  11.634   1.879   0.136  0.6457  0.0950 -0.4513
  559MOL0     C77045  11.766   1.923   0.071 -0.1995 -0.0083 -0.8952
  559MOL0     C77046  11.863   1.796   0.050  0.2110 -0.7195 -0.5056
  559MOL0     C77047  11.998   1.861   0.012  0.1560 -0.4500  0.0716
  559MOL0     C77048  12.097   1.774  -0.052 -0.4592 -0.4584 -0.8146
  559MOL0    Cl77049  12.244   1.864  -0.096 -0.1350  0.0025  0.1955
  559MOL0     C77050  11.042   1.973   0.090 -0.1580  0.6064 -0.5086
  559MOL0     C77051  10.907   2.003   0.058  0.7572  0.1131 -0.1924
  559MOL0     O77052  10.661   2.177   0.168 -0.0686 -0.4560 -0.0704
  559MOL0     C77053  10.495   2.205  -0.152  0.4053 -0.8724  0.4061
  559MOL0     C77054  10.378   2.257  -0.218  0.3581  0.3230 -0.0945
  559MOL0     N77055   9.781   2.307  -0.080 -0.5996 -0.2817 -0.0618
  559MOL0     N77056   9.745   2.186  -0.044  0.4494  0.0904 -0.4046
  559MOL0     C77057   9.644   2.163   0.542  0.1589 -0.8882 -0.2300
  559MOL0     C77058   9.509   2.199   0.551 -0.3965  0.6860  0.1481
  559MOL0     C77059   9.140   2.328   0.805 -0.1718  0.0399 -0.1321
  559MOL0     C77060   9.072   2.339   0.690 -0.2116  0.0786  0.3774
  559MOL0     C77061   8.935   2.356   0.685  0.6835  0.0142  0.3593
  559MOL0     C77062   8.853   2.357   0.798 -1.0432  0.3510 -0.7168
  559MOL0     O77063   8.717   2.356   0.778  0.0999 -0.3886  0.2355
  559MOL0     C77064   8.634   2.293   0.880 -0.5020 -0.1486 -0.4043
  559MOL0     C77065   8.486   2.318   0.836 -0.0352  0.3662  0.8070
  559MOL0     C77066   8.428   2.248   0.702  0.3920 -0.7083 -0.2561
  559MOL0     C77067   8.470   2.106   0.688 -0.4460 -0.7391  0.0921
  559MOL0     C77068   8.386   2.043   0.587 -0.2943 -0.0951  0.3863
  559MOL0     C77069   8.292   1.996   0.525 -0.3830  0.1574 -0.3244
  559MOL0     C77070   8.929   2.361   0.917  0.0404 -0.1555  0.0134
  559MOL0     C77071   9.063   2.342   0.927  0.4185  0.7528  0.6195
  559MOL0     C77072   9.119   2.314   1.058 -0.6651  0.3887 -0.7417
  559MOL0     H77073   9.448   2.076   0.854 -0.5939 -1.0989  0.5927
  559MOL0     H77074   9.664   1.962   0.807 -0.5342  0.3763  0.0726
  559MOL0     H77075   9.801   1.842   0.703  0.3362 -1.7295 -0.8404
  559MOL0     H77076   9.938   1.855   0.601  0.8582  3.0045  0.6348
  559MOL0     H77077   9.793   1.710   0.490  1.5951  0.5540  3.2605
  559MOL0     H77078   9.655   1.811   0.520  0.8757  0.2630  1.4258
  559MOL0     H77079   9.726   1.976   0.374 -0.1152 -0.1702  2.8849
  559MOL0     H77080   9.879   1.891   0.316  0.7955 -0.7866  0.9476
  559MOL0     H77081   9.743   1.714   0.198  1.2482 -0.7501  0.0949
  559MOL0     H77082   9.593   1.771   0.280  0.9615 -0.1175  2.3888
  559MOL0     H77083   9.745   1.931   0.087 -0.6361  1.8153  0.1914
  559MOL0     H77084   9.612   1.992   0.176  2.0359  0.6488  1.2293
  559MOL0     H77085   9.593   1.752  -0.014 -3.0057 -2.4686  0.6251
  559MOL0     H77086   9.463   1.814   0.084  0.0458 -1.7368 -1.0944
  559MOL0     H77087   9.467   2.033  -0.048  0.6579  0.1008  1.0606
  559MOL0     H77088   9.447   1.881  -0.134 -1.0935 -0.9836  3.6093
  559MOL0     H77089   9.721   1.915  -0.159  0.8698  0.1079  0.1465
  559MOL0     H77090   9.606   1.979  -0.280 -2.4998 -0.6196  1.4450
  559MOL0     H77091   9.645   2.204  -0.362  0.0015  0.6388  0.1161
  559MOL0     H77092   9.842   2.529  -0.256 -0.0352  0.1538 -0.3870
  559MOL0     H77093   9.715   2.472  -0.357 -1.1926 -5.0738 -1.4850
  559MOL0     H77094   9.904   2.282  -0.414 -1.3409 -0.7743 -0.6347
  559MOL0     H77095   9.893   2.440  -0.505 -0.5687  2.8912  2.1227
  559MOL0     H77096  10.126   2.450  -0.449  0.9932 -1.1907  0.8027
  559MOL0     H77097  10.030   2.542  -0.342 -1.4252 -1.4073  1.6180
  559MOL0     H77098  10.033   2.351  -0.178 -1.2250 -0.8522 -0.6611
  559MOL0     H77099  10.119   2.247  -0.292  0.4132 -0.0264 -0.9451
  559MOL0     H77100  10.300   2.496   0.011 -1.0153  0.4695 -0.8433
  559MOL0     H77101  10.589   2.414   0.201  0.3100 -1.5068 -1.6895
  559MOL0     H77102  10.459   2.306   0.247 -1.4748  0.3663  0.6438
  559MOL0     H77103  10.406   2.465   0.217 -0.4545 -0.5622 -1.3780
  559MOL0     H77104  10.933   2.324  -0.047 -2.3650  0.3975  2.7724
  559MOL0     H77105  11.182   2.267   0.012  2.5389 -2.4394 -2.0236
  559MOL0     H77106  11.229   1.908   0.248  0.3955 -0.7984  0.5353
  559MOL0     H77107  11.320   1.863   0.109 -1.0029 -1.0067  0.8994
  559MOL0     H77108  11.417   2.034   0.347 -0.4816 -2.5391  2.4295
  559MOL0     H77109  11.466   1.878   0.317  4.3681  0.8223  0.2456
  559MOL0     H77110  11.610   2.068   0.239 -0.1403 -0.8165  0.0683
  559MOL0     H77111  11.515   2.059   0.082  1.1403  0.7082 -0.0366
  559MOL0     H77112  11.572   1.817   0.069 -1.1882  2.1212 -0.7568
  559MOL0     H77113  11.667   1.830   0.227  1.3163  0.6828 -0.3711
  559MOL0     H77114  11.752   1.976  -0.024 -1.4499  0.6707 -0.3491
  559MOL0     H77115  11.819   1.994   0.136 -0.2863  3.1363 -3.9513
  559MOL0     H77116  11.818   1.730  -0.024 -1.8148  0.7206 -0.6414
  559MOL0     H77117  11.875   1.741   0.144  0.3906 -1.5328 -1.0041
  559MOL0     H77118  12.045   1.901   0.102  1.5425  1.2548 -1.3368
  559MOL0     H77119  11.967   1.942  -0.056  1.3509 -0.5473 -0.6201
  559MOL0     H77120  12.067   1.726  -0.146 -1.2557 -0.3768 -0.6092
  559MOL0     H77121  12.136   1.699   0.017  2.2318  1.0975 -0.5042
  559MOL0     H77122  11.072   1.876   0.127 -0.6918  1.0667  1.2025
  559MOL0     H77123  10.831   1.930   0.084  0.2734  0.9408  0.7930
  559MOL0     H77124  10.561   2.138  -0.206  0.1018 -0.8717  0.0267
  559MOL0     H77125  10.345   2.215  -0.312 -0.8293 -0.7813  0.7840
  559MOL0     H77126   9.710   2.194   0.462 -0.2408 -2.8050 -1.3795
  559MOL0     H77127   9.467   2.269   0.480  0.1737  1.8381  0.9172
  559MOL0     H77128   9.112   2.327   0.589  2.4660 -1.5584  1.5058
  559MOL0     H77129   8.889   2.356   0.587  2.0370  1.2841 -0.3163
  559MOL0     H77130   8.652   2.186   0.894 -1.4280 -0.3517 -0.7165
  559MOL0     H77131   8.640   2.336   0.980 -2.5415  0.9051 -0.6891
  559MOL0     H77132   8.467   2.425   0.839  2.7270  1.0684  6.4581
  559MOL0     H77133   8.426   2.272   0.915  1.9997 -4.5614 -0.1650
  559MOL0     H77134   8.319   2.257   0.705  0.5460  1.9999  0.7801
  559MOL0     H77135   8.457   2.311   0.618 -0.6060 -0.6088 -0.5370
  559MOL0     H77136   8.450   2.052   0.781 -3.5241 -0.6789 -0.4285
  559MOL0     H77137   8.574   2.113   0.656 -1.0248  0.7956 -1.6158
  559MOL0     H77138   8.203   1.956   0.482  0.2243 -3.8414  1.7419
  559MOL0     H77139   8.880   2.372   1.014  3.6055 -1.1332  2.1378
  559MOL0     H77140   9.194   2.386   1.092  2.8128 -2.9321 -0.6150
  559MOL0     H77141   9.041   2.312   1.135  1.0658  1.6365  1.1416
  559MOL0     H77142   9.167   2.216   1.066  0.1597  0.9816  3.2948
  560MOL0     O77143   8.553   5.257  10.201 -0.2077 -0.0178 -0.6642
  560MOL0     C77144   8.556   5.323  10.091 -0.6228  0.4261 -0.6188
  560MOL0     O77145   8.668   5.383  10.035  0.2009 -0.5366 -0.8049
  560MOL0     C77146   8.801   5.358  10.069 -0.0512 -0.8584  0.6089
  560MOL0     C77147   8.893   5.446  10.002 -0.6020  0.1073  0.3317
  560MOL0     C77148   9.033   5.439  10.020  0.2892 -0.9165 -0.1072
  560MOL0     C77149   9.083   5.336  10.108  0.5833  0.0646 -0.1821
  560MOL0     O77150   9.215   5.308  10.138  0.1405 -0.7434  0.0629
  560MOL0     C77151   9.313   5.379  10.065  0.2522  0.1913  0.2378
  560MOL0     C77152   9.455   5.322  10.079  0.6067 -0.4350 -0.3662
  560MOL0     C77153   9.463   5.181  10.015  0.1447  0.4058  0.2175
  560MOL0     C77154   9.582   5.087  10.056  0.1336  0.7149 -0.1993
  560MOL0     C77155   9.583   4.953   9.988 -0.5641  0.4595  0.2604
  560MOL0     C77156   9.616   4.947   9.834 -0.3516 -0.0565 -0.3987
  560MOL0     C77157   9.744   5.028   9.804  0.3455  0.4009 -0.5350
  560MOL0     C77158   9.811   5.018   9.669 -0.3394  0.6053  0.2051
  560MOL0     N77159   9.933   4.930   9.685  0.2884  0.2692 -0.0523
  560MOL0     C77160   9.921   4.799   9.649 -0.1323  0.3763  0.2139
  560MOL0     C77161  10.043   4.760   9.624 -0.2813  0.0187 -0.3145
  560MOL0     C77162  10.075   4.626   9.559  0.0034  0.5300  0.5076
  560MOL0     C77163  10.225   4.596   9.561  0.1289  0.4147  0.1394
  560MOL0     C77164  10.275   4.541   9.693 -0.5810  0.4975 -0.0374
  560MOL0     C77165  10.416   4.478   9.698  0.5759  0.1833  0.2976
  560MOL0     O77166  10.418   4.338   9.652  0.1763  0.1046  0.1001
  560MOL0     C77167  10.534   4.284   9.615 -1.1093 -0.1838 -0.0855
  560MOL0     C77168  10.524   4.172   9.532 -0.3051 -0.2608  0.6212
  560MOL0     C77169  10.641   4.095   9.501  0.7124  0.1078  0.4854
  560MOL0     C77170  10.613   3.958   9.441 -0.2383 -0.1824  0.2458
  560MOL0     C77171  10.769   4.142   9.529  0.7628  0.1164  0.2724
  560MOL0     C77172  10.893   4.074   9.489 -0.5914  0.7606  0.2123
  560MOL0     O77173  11.008   4.113   9.553 -0.0620 -0.4168  0.4229
  560MOL0     C77174  11.118   4.040   9.551 -0.0527  0.4018  0.2066
  560MOL0     C77175  11.237   4.099   9.503 -0.3415 -0.6323 -0.0433
  560MOL0     C77176  11.361   4.037   9.487  0.3540  0.4270 -0.1635
  560MOL0     C77177  11.369   3.899   9.531 -1.0777 -0.5363  0.7901
  560MOL0     O77178  11.487   3.830   9.521 -0.2514  0.1685  0.2812
  560MOL0     C77179  11.592   3.898   9.582 -0.2878 -0.3809 -0.2217
  560MOL0     C77180  11.709   3.792   9.602 -0.4304  0.0022 -0.2048
  560MOL0     C77181  11.745   3.747   9.746  0.0770  0.3241 -0.5872
  560MOL0     C77182  11.876   3.666   9.763 -0.5456  0.3063 -0.2273
  560MOL0     C77183  11.897   3.610   9.900 -0.1380  1.6526 -0.5953
  560MOL0     C77184  12.040   3.552   9.914  0.1139 -0.2477 -0.7222
  560MOL0     C77185  12.071   3.508  10.055  0.7952  0.7614  0.1835
  560MOL0     C77186  12.212   3.473  10.062 -0.1984  0.0053 -0.6128
  560MOL0    Cl77187  12.259   3.391  10.211  0.1560 -0.2401 -0.1282
  560MOL0     C77188  11.253   3.840   9.581  0.1120 -0.1240 -0.2042
  560MOL0     C77189  11.127   3.910   9.589 -0.2879 -0.1289 -0.4753
  560MOL0     O77190  10.891   3.972   9.421 -0.1235 -0.0447  0.0143
  560MOL0     C77191  10.778   4.263   9.610  0.3105  0.7171 -0.4986
  560MOL0     C77192  10.667   4.334   9.649  0.5466  0.0016  1.0017
  560MOL0     N77193  10.138   4.871   9.642 -0.1900  0.6036 -0.1148
  560MOL0     N77194  10.069   4.973   9.675  0.1379  0.2043 -0.5681
  560MOL0     C77195   8.992   5.246  10.168  1.1627  0.6268  0.1421
  560MOL0     C77196   8.851   5.257  10.147  0.4550 -0.2954  0.1084
  560MOL0     C77197   8.429   5.362  10.032  0.0731 -0.5467  0.4242
  560MOL0     C77198   8.423   5.480   9.965  0.0137  1.1086 -0.2884
  560MOL0     C77199   8.298   5.521   9.901 -0.1813  0.2616  0.3992
  560MOL0     C77200   8.181   5.443   9.901  0.3343 -0.4848  0.0674
  560MOL0     O77201   8.066   5.491   9.835  0.0877 -0.1015  0.7069
  560MOL0     C77202   7.963   5.399   9.787 -0.7430  0.1163 -0.1289
  560MOL0     C77203   7.983   5.312   9.663 -0.4184  0.0812 -0.5320
  560MOL0     C77204   8.006   5.408   9.539  0.1010  0.0148 -0.8110
  560MOL0     C77205   8.113   5.355   9.448 -1.4600  0.1626 -0.3267
  560MOL0     C77206   8.086   5.226   9.394  0.6705  0.1058 -0.6771
  560MOL0     C77207   8.053   5.122   9.349  0.0206 -0.0759  0.4880
  560MOL0     C77208   8.188   5.332   9.981  0.2145 -0.5271 -0.1245
  560MOL0     C77209   8.310   5.290  10.036 -0.6639  0.4835  0.1730
  560MOL0     C77210   8.295   5.153  10.102  0.3226 -0.4177 -0.0364
  560MOL0     H77211   8.849   5.526   9.942  0.7605  0.1207 -0.6970
  560MOL0     H77212   9.105   5.511   9.984  1.9124 -3.1669 -1.6618
  560MOL0     H77213   9.307   5.482  10.100  0.5801 -0.3963  2.1809
  560MOL0     H77214   9.277   5.383   9.962 -0.5762 -1.0337  0.4522
  560MOL0     H77215   9.532   5.388  10.037  1.5106  0.3762  2.3637
  560MOL0     H77216   9.479   5.301  10.184  2.5135 -1.7033 -1.0097
  560MOL0     H77217   9.381   5.114  10.041 -0.3687  0.9124 -0.0492
  560MOL0     H77218   9.457   5.191   9.906 -1.6683  0.8767  0.3318
  560MOL0     H77219   9.682   5.131  10.048  0.0021  1.2295  0.8196
  560MOL0     H77220   9.561   5.073  10.163  0.4191  1.8389  0.0128
  560MOL0     H77221   9.495   4.889  10.002  0.1437 -1.6084 -3.5406
  560MOL0     H77222   9.668   4.899  10.031 -0.4987  0.3551 -0.0016
  560MOL0     H77223   9.643   4.843   9.813  3.3905 -0.2839  4.0816
  560MOL0     H77224   9.528   4.979   9.777 -1.4578 -1.0884  0.6633
  560MOL0     H77225   9.824   5.008   9.875 -0.7270  2.9729  1.5500
  560MOL0     H77226   9.733   5.135   9.822  2.3342  0.7616 -1.2383
  560MOL0     H77227   9.739   4.979   9.596 -1.9083 -2.0928  2.9568
  560MOL0     H77228   9.842   5.113   9.623  2.7053  1.3601  3.3899
  560MOL0     H77229   9.840   4.728   9.652 -0.7205  1.0089 -0.3952
  560MOL0     H77230  10.039   4.629   9.456  1.3442 -1.0172 -0.0580
  560MOL0     H77231  10.025   4.542   9.607  1.2829 -1.5889 -1.6529
  560MOL0     H77232  10.242   4.517   9.488  0.3542  1.5428 -1.0659
  560MOL0     H77233  10.286   4.681   9.528  0.4154  0.3060  0.3854
  560MOL0     H77234  10.282   4.629   9.758  1.5546 -0.5923  1.3306
  560MOL0     H77235  10.202   4.466   9.723 -0.9074  0.4798 -0.8470
  560MOL0     H77236  10.491   4.544   9.653  1.2491 -0.3205  0.6749
  560MOL0     H77237  10.434   4.480   9.806  4.6525 -0.8525 -0.2262
  560MOL0     H77238  10.421   4.139   9.528 -1.0210  1.6134  1.8882
  560MOL0     H77239  10.639   3.945   9.335 -0.8568  1.9885 -0.2208
  560MOL0     H77240  10.508   3.929   9.443 -0.4085  0.2420 -1.0421
  560MOL0     H77241  10.675   3.890   9.500 -1.4201 -2.8545 -1.4311
  560MOL0     H77242  11.237   4.205   9.479  1.2066 -1.2974 -3.5853
  560MOL0     H77243  11.447   4.091   9.447  2.7978 -2.1943  1.2343
  560MOL0     H77244  11.617   3.988   9.525 -3.4403  2.3583  2.3024
  560MOL0     H77245  11.559   3.938   9.678 -3.4453 -0.8619 -1.0051
  560MOL0     H77246  11.681   3.703   9.544  0.0139  0.1621 -0.6773
  560MOL0     H77247  11.804   3.829   9.561  1.4897 -0.2660  3.5641
  560MOL0     H77248  11.666   3.682   9.785  1.1912 -0.5500  0.2899
  560MOL0     H77249  11.749   3.831   9.816 -4.1924 -0.6590  1.1881
  560MOL0     H77250  11.962   3.731   9.742 -0.2303 -0.4845 -1.4493
  560MOL0     H77251  11.877   3.582   9.694 -1.1755 -0.0275  0.1613
  560MOL0     H77252  11.869   3.682   9.978  1.4579  1.5703  0.0918
  560MOL0     H77253  11.824   3.532   9.921  1.2444 -0.3812 -2.8823
  560MOL0     H77254  12.118   3.622   9.881 -1.5811  2.2930  0.2996
  560MOL0     H77255  12.047   3.471   9.841  0.8353  1.0421 -2.1490
  560MOL0     H77256  12.010   3.419  10.072  3.1621 -1.0785 -0.2740
  560MOL0     H77257  12.050   3.586  10.130  2.0590  2.0294 -0.7248
  560MOL0     H77258  12.282   3.556  10.052  1.0940 -0.8532  0.8930
  560MOL0     H77259  12.242   3.398   9.988  0.1896 -1.3171  0.8237
  560MOL0     H77260  11.239   3.735   9.605 -0.4772  0.1662  0.8013
  560MOL0     H77261  11.046   3.848   9.624  0.1986 -0.1657  0.6319
  560MOL0     H77262  10.873   4.313   9.618  1.4282  0.0670 -6.0600
  560MOL0     H77263  10.667   4.431   9.698 -2.2233  0.6125 -0.0095
  560MOL0     H77264   9.026   5.166  10.232 -0.6101 -2.4301 -2.4092
  560MOL0     H77265   8.791   5.193  10.210 -0.5194  0.7452  0.2583
  560MOL0     H77266   8.513   5.540   9.952  0.0848  0.6942 -2.0457
  560MOL0     H77267   8.303   5.614   9.844 -1.0114 -1.0331 -1.8979
  560MOL0     H77268   7.946   5.335   9.874 -0.1875 -0.2014 -0.2515
  560MOL0     H77269   7.874   5.463   9.776 -1.5761 -0.7126  1.3623
  560MOL0     H77270   7.903   5.237   9.657  1.2982 -1.7237 -2.4061
  560MOL0     H77271   8.074   5.257   9.690 -0.3313 -0.0462 -1.0726
  560MOL0     H77272   7.910   5.425   9.490 -0.1118  2.6265  0.3404
  560MOL0     H77273   8.042   5.505   9.576  0.6879 -0.0397 -1.2321
  560MOL0     H77274   8.211   5.356   9.496 -0.6244  1.1645 -1.9685
  560MOL0     H77275   8.124   5.428   9.367  1.8369  0.6690  0.4573
  560MOL0     H77276   8.034   5.024   9.311 -0.4373 -0.1742  0.9584
  560MOL0     H77277   8.097   5.278  10.009  0.7644 -0.4053  2.0414
  560MOL0     H77278   8.301   5.158  10.212 -0.6802 -2.0942  0.1142
  560MOL0     H77279   8.199   5.104  10.088  0.6773 -2.0300  2.5017
  560MOL0     H77280   8.377   5.087  10.071  0.2853 -0.3090 -0.3663
  561MOL0     O77281   3.199   2.827   3.794  0.5720  0.1130 -0.1047
  561MOL0     C77282   3.251   2.886   3.703 -0.2602 -0.1920  0.7008
  561MOL0     O77283   3.182   2.966   3.613 -0.3594 -0.2319 -0.6334
  561MOL0     C77284   3.054   3.002   3.652 -0.9864 -0.0978 -0.2949
  561MOL0     C77285   2.951   2.899   3.649  0.2747 -0.2290 -0.1845
  561MOL0     C77286   2.824   2.935   3.696 -0.3976  0.3579 -0.0282
  561MOL0     C77287   2.794   3.069   3.747  0.5753  0.9734 -0.1529
  561MOL0     O77288   2.666   3.079   3.805  0.0499  0.8436 -0.0728
  561MOL0     C77289   2.645   3.185   3.905  0.3018 -0.0066 -0.5240
  561MOL0     C77290   2.516   3.147   3.985  0.6787 -0.0969  0.2504
  561MOL0     C77291   2.385   3.143   3.909 -0.3257 -1.0190 -0.4632
  561MOL0     C77292   2.269   3.090   4.000 -0.4365  0.6220 -0.4102
  561MOL0     C77293   2.131   3.124   3.957  0.2697  0.2399 -0.5539
  561MOL0     C77294   2.092   3.014   3.857 -0.5626  0.1987 -0.2297
  561MOL0     C77295   1.945   3.029   3.831  0.2266  0.2224  0.2102
  561MOL0     C77296   1.886   2.908   3.753 -0.1315  0.0396 -0.6320
  561MOL0     N77297   1.741   2.904   3.751  0.8288 -0.1725 -0.0861
  561MOL0     C77298   1.655   2.884   3.640  0.2344 -0.2215 -0.0305
  561MOL0     C77299   1.532   2.882   3.692 -0.9484  0.6388  0.4589
  561MOL0     C77300   1.400   2.874   3.621 -0.4245 -0.0456 -0.5026
  561MOL0     C77301   1.399   2.841   3.469 -0.9401 -0.3287  0.2957
  561MOL0     C77302   1.448   2.700   3.452  0.2617 -0.2794  0.6217
  561MOL0     C77303   1.456   2.678   3.303  0.0553 -0.6439 -0.4443
  561MOL0     O77304   1.547   2.766   3.224  0.0040  0.7748 -0.3104
  561MOL0     C77305   1.682   2.768   3.257  0.0845 -0.7586 -0.3253
  561MOL0     C77306   1.742   2.893   3.240  0.5020 -0.3495  0.0010
  561MOL0     C77307   1.881   2.914   3.246  0.3393 -0.4444 -0.2342
  561MOL0     C77308   1.917   3.057   3.199  0.0668 -0.4478  0.2955
  561MOL0     C77309   1.961   2.807   3.302  0.3426  1.2350  0.5653
  561MOL0     C77310   2.105   2.823   3.321  1.0750 -0.1547  0.3245
  561MOL0     O77311   2.184   2.711   3.321 -0.2214 -0.5984  0.1009
  561MOL0     C77312   2.320   2.720   3.333 -0.9060 -0.9847  0.7850
  561MOL0     C77313   2.396   2.637   3.247  0.2939 -0.2056 -1.5387
  561MOL0     C77314   2.533   2.638   3.246 -0.9581 -0.1243  0.0377
  561MOL0     C77315   2.606   2.726   3.331  0.9817  0.3287 -0.4398
  561MOL0     O77316   2.742   2.751   3.331  0.2917 -0.4645 -0.0035
  561MOL0     C77317   2.825   2.705   3.223 -0.1219  0.1466  0.0868
  561MOL0     C77318   2.873   2.566   3.259  0.4599 -0.3213  0.0743
  561MOL0     C77319   2.949   2.561   3.394  0.5036 -0.1349  0.5613
  561MOL0     C77320   3.085   2.618   3.380  0.7396  0.4387 -0.4315
  561MOL0     C77321   3.187   2.537   3.455  0.1156 -0.5580  0.7684
  561MOL0     C77322   3.332   2.561   3.405  0.2902 -0.2903  0.3989
  561MOL0     C77323   3.360   2.481   3.271 -0.0033 -0.0287 -0.6063
  561MOL0     C77324   3.505   2.461   3.238  0.7536  0.4814 -0.2793
  561MOL0    Cl77325   3.526   2.352   3.084 -0.3494 -0.5955  0.3289
  561MOL0     C77326   2.531   2.814   3.418 -0.6514 -0.1773  0.0284
  561MOL0     C77327   2.391   2.810   3.420  1.0846  0.1984  0.0283
  561MOL0     O77328   2.142   2.942   3.332 -0.2042  0.4055 -0.3608
  561MOL0     C77329   1.898   2.687   3.337 -0.4212  0.8121 -0.1182
  561MOL0     C77330   1.757   2.666   3.316 -0.7689  0.2715  0.1933
  561MOL0     N77331   1.537   2.888   3.830 -0.0145  0.1768  0.2283
  561MOL0     N77332   1.662   2.909   3.861  0.4964  0.1001 -0.0727
  561MOL0     C77333   2.902   3.166   3.757  0.2015 -0.5265  0.5424
  561MOL0     C77334   3.028   3.125   3.705  0.5595 -0.2542  0.2569
  561MOL0     C77335   3.390   2.847   3.654 -0.7533 -1.4179 -0.5260
  561MOL0     C77336   3.448   2.920   3.547 -0.0263 -0.8153 -0.3297
  561MOL0     C77337   3.569   2.874   3.489 -0.4182 -0.5844 -0.2776
  561MOL0     C77338   3.634   2.765   3.529 -0.5606 -0.6317 -1.4036
  561MOL0     O77339   3.759   2.718   3.497  0.3111 -0.0574  0.5110
  561MOL0     C77340   3.816   2.784   3.384  0.4070  0.5308  0.8157
  561MOL0     C77341   3.940   2.708   3.342 -0.5710  0.1404 -0.4037
  561MOL0     C77342   3.896   2.574   3.288  0.6361 -0.1548 -0.2701
  561MOL0     C77343   3.992   2.468   3.326 -0.2269  0.4380 -0.0982
  561MOL0     C77344   3.962   2.351   3.240  0.1634 -0.6358  0.1693
  561MOL0     C77345   3.954   2.250   3.179  0.0273 -0.1036 -0.1996
  561MOL0     C77346   3.577   2.694   3.636  1.2669 -0.1925 -0.0504
  561MOL0     C77347   3.456   2.733   3.701  0.2906 -0.0267 -0.5162
  561MOL0     C77348   3.407   2.631   3.802 -0.0257 -0.0562  0.5750
  561MOL0     H77349   2.969   2.798   3.614  0.1363 -0.2971 -0.0597
  561MOL0     H77350   2.744   2.861   3.691 -1.1077  1.1967 -2.2196
  561MOL0     H77351   2.627   3.285   3.863 -2.8466 -0.3875 -0.2712
  561MOL0     H77352   2.717   3.178   3.986 -0.9512 -1.3024  0.5234
  561MOL0     H77353   2.534   3.055   4.040  0.6409 -0.1125  0.2377
  561MOL0     H77354   2.516   3.214   4.071 -2.2339 -3.1508  2.8885
  561MOL0     H77355   2.364   3.244   3.874  2.4129 -1.4641 -3.8693
  561MOL0     H77356   2.402   3.083   3.820  0.9673 -0.0420 -0.9107
  561MOL0     H77357   2.286   2.985   4.025  1.9820  1.2940  1.2060
  561MOL0     H77358   2.281   3.139   4.098  1.1863 -1.6082  0.6092
  561MOL0     H77359   2.118   3.223   3.912  0.0960  0.2182 -0.5529
  561MOL0     H77360   2.071   3.112   4.048 -1.0261 -2.0943 -1.6290
  561MOL0     H77361   2.156   3.023   3.768 -0.7013 -0.6000 -0.4109
  561MOL0     H77362   2.099   2.914   3.901  3.6665 -0.0875 -1.1075
  561MOL0     H77363   1.911   3.116   3.773 -0.1834 -0.3132 -0.3709
  561MOL0     H77364   1.897   3.024   3.929 -1.0885 -1.4518 -0.4778
  561MOL0     H77365   1.920   2.921   3.649  0.9077 -0.7733 -0.4109
  561MOL0     H77366   1.917   2.809   3.786 -1.6018 -1.1368 -2.4932
  561MOL0     H77367   1.685   2.869   3.537 -1.2257 -2.3982 -0.1946
  561MOL0     H77368   1.347   2.970   3.627 -1.9316 -0.9359  1.4091
  561MOL0     H77369   1.338   2.806   3.680  1.0427 -0.4143  0.6703
  561MOL0     H77370   1.298   2.849   3.427  0.3371  0.8256 -2.8093
  561MOL0     H77371   1.466   2.914   3.424 -2.1586  0.1744 -0.7755
  561MOL0     H77372   1.546   2.688   3.499  0.2543 -0.6527  0.5454
  561MOL0     H77373   1.383   2.624   3.497  0.6281 -1.2383 -0.4122
  561MOL0     H77374   1.493   2.577   3.285  2.3295 -0.3873  2.1063
  561MOL0     H77375   1.354   2.697   3.267 -0.4704 -0.6962  0.9855
  561MOL0     H77376   1.676   2.973   3.210  0.6324  0.1119  0.9117
  561MOL0     H77377   1.841   3.106   3.138 -0.2753  4.2354  3.9047
  561MOL0     H77378   2.014   3.064   3.148  0.8133 -0.6053  1.6268
  561MOL0     H77379   1.919   3.115   3.292  2.8236  1.1871 -0.6483
  561MOL0     H77380   2.348   2.563   3.182  0.4910 -0.5524 -1.2927
  561MOL0     H77381   2.594   2.579   3.178 -1.4557 -1.1800  0.4764
  561MOL0     H77382   2.774   2.693   3.127 -2.4542 -0.2943  1.3256
  561MOL0     H77383   2.917   2.762   3.204  0.6345 -1.0987 -0.0845
  561MOL0     H77384   2.788   2.496   3.256 -0.0688  0.2152  1.4480
  561MOL0     H77385   2.946   2.537   3.183 -0.9992 -1.0121 -1.1243
  561MOL0     H77386   2.954   2.453   3.410  1.1043 -0.7507 -2.9991
  561MOL0     H77387   2.891   2.615   3.469  0.1265  0.6653 -0.2921
  561MOL0     H77388   3.073   2.721   3.415  0.8065  0.7281 -1.2289
  561MOL0     H77389   3.121   2.638   3.278 -0.3354  1.0098 -0.7091
  561MOL0     H77390   3.182   2.580   3.555 -0.8069  0.2244  0.4037
  561MOL0     H77391   3.160   2.432   3.461 -1.0993 -0.3725 -0.8829
  561MOL0     H77392   3.402   2.522   3.480 -0.0260 -0.9350  0.3688
  561MOL0     H77393   3.358   2.663   3.377 -4.1531  0.8836 -0.2093
  561MOL0     H77394   3.306   2.541   3.197  1.0860  2.0319  0.1818
  561MOL0     H77395   3.320   2.381   3.290  0.1700  0.2243  1.2812
  561MOL0     H77396   3.553   2.419   3.327  0.3225  1.6478  0.5213
  561MOL0     H77397   3.549   2.559   3.219  2.2870 -0.1143  0.0460
  561MOL0     H77398   2.586   2.884   3.480 -1.7413 -1.6990  2.8858
  561MOL0     H77399   2.332   2.866   3.492  1.0496  2.4052 -1.6478
  561MOL0     H77400   1.946   2.611   3.398 -1.1174  1.3865  1.1898
  561MOL0     H77401   1.719   2.571   3.354  1.2657 -0.5954  0.1713
  561MOL0     H77402   2.884   3.270   3.781 -2.1014 -0.5400 -0.8176
  561MOL0     H77403   3.103   3.202   3.691 -0.0103  0.1597 -0.6679
  561MOL0     H77404   3.401   3.013   3.518  1.5428 -0.1870 -0.9943
  561MOL0     H77405   3.597   2.943   3.410 -0.0769  0.9840  1.1428
  561MOL0     H77406   3.740   2.783   3.306  1.7698  0.8971 -0.5719
  561MOL0     H77407   3.833   2.889   3.411 -1.0180  1.2371 -0.8868
  561MOL0     H77408   4.009   2.693   3.425 -1.1758  3.8751  1.0013
  561MOL0     H77409   3.987   2.765   3.261 -0.1470  0.6691  0.2036
  561MOL0     H77410   3.793   2.546   3.310  0.0922  1.5564 -0.5085
  561MOL0     H77411   3.897   2.589   3.180  0.0571 -0.0138 -0.2597
  561MOL0     H77412   3.971   2.433   3.427  0.5316  2.6786  0.8897
  561MOL0     H77413   4.094   2.502   3.307 -0.6765  1.3208 -1.0421
  561MOL0     H77414   3.949   2.151   3.140 -2.1472  0.1740 -0.7723
  561MOL0     H77415   3.627   2.603   3.668  1.2911 -0.9085 -1.9662
  561MOL0     H77416   3.453   2.532   3.797 -1.0147 -0.7521  3.3979
  561MOL0     H77417   3.421   2.666   3.904 -0.8587  0.0500  0.6637
  561MOL0     H77418   3.302   2.606   3.783  0.7183 -3.9161  0.7314
  562MOL0     O77419   7.257   9.644   6.174 -0.0637 -0.1078  0.1984
  562MOL0     C77420   7.172   9.664   6.258 -0.4830  0.5716 -0.2391
  562MOL0     O77421   7.184   9.641   6.393  1.0080  0.4543  0.3186
  562MOL0     C77422   7.294   9.587   6.458 -0.0962 -0.6154 -0.4999
  562MOL0     C77423   7.292   9.607   6.596  0.1567  0.5754 -0.8644
  562MOL0     C77424   7.400   9.570   6.679  0.3115 -0.1569 -0.2556
  562MOL0     C77425   7.511   9.507   6.634  0.4625 -0.1492  0.6370
  562MOL0     O77426   7.612   9.465   6.721 -0.3376 -0.0613  0.9500
  562MOL0     C77427   7.737   9.403   6.683  0.4272  0.6592 -0.5760
  562MOL0     C77428   7.821   9.358   6.811  0.4374  0.2474  0.3939
  562MOL0     C77429   7.968   9.344   6.778 -0.0490  0.1955  0.0703
  562MOL0     C77430   8.042   9.316   6.907 -0.5132 -0.8689 -0.2794
  562MOL0     C77431   8.193   9.334   6.867  0.0768 -0.1234 -0.9432
  562MOL0     C77432   8.290   9.303   6.986  0.1158 -0.4787 -0.1209
  562MOL0     C77433   8.430   9.361   6.968  0.9130  0.4303 -1.4497
  562MOL0     C77434   8.507   9.351   7.102  0.2886 -1.3672  0.6961
  562MOL0     N77435   8.648   9.358   7.081 -0.2807  0.6985  0.4042
  562MOL0     C77436   8.728   9.286   7.156 -0.1500 -0.6655 -0.2380
  562MOL0     C77437   8.856   9.304   7.103  0.3095  1.0236 -0.2694
  562MOL0     C77438   8.981   9.237   7.159  0.1012 -0.5922  0.3651
  562MOL0     C77439   9.062   9.184   7.042 -0.3545  0.8632  0.1337
  562MOL0     C77440   9.207   9.141   7.089  0.1274 -0.0496  0.0444
  562MOL0     C77441   9.306   9.107   6.974  0.5446  0.6514  0.9473
  562MOL0     O77442   9.405   9.022   7.034  0.5117  0.2990  0.4422
  562MOL0     C77443   9.508   8.985   6.957 -0.2238 -0.1442 -0.0286
  562MOL0     C77444   9.532   9.032   6.825  0.2682 -0.2822  0.4327
  562MOL0     C77445   9.643   8.994   6.749  0.5974  0.8725 -0.1112
  562MOL0     C77446   9.659   9.046   6.603 -0.2243 -0.1639  0.4823
  562MOL0     C77447   9.743   8.912   6.811 -0.4283  0.0882 -0.3419
  562MOL0     C77448   9.863   8.851   6.740  0.6203  0.2470 -0.6466
  562MOL0     O77449   9.973   8.837   6.812  0.0286 -0.4716  0.2483
  562MOL0     C77450  10.090   8.786   6.765  0.0048 -0.0481  0.4612
  562MOL0     C77451  10.126   8.786   6.631 -0.2334 -0.3853  0.2055
  562MOL0     C77452  10.256   8.752   6.588 -1.0600  0.8142 -0.7216
  562MOL0     C77453  10.340   8.683   6.677  0.4828 -0.5584 -0.2492
  562MOL0     O77454  10.454   8.622   6.628 -0.3699 -0.3204 -0.1269
  562MOL0     C77455  10.536   8.554   6.724 -0.9323 -0.2219 -0.5106
  562MOL0     C77456  10.658   8.474   6.668  0.3788 -0.1242  0.4025
  562MOL0     C77457  10.767   8.553   6.586  0.8163 -0.2592 -0.3803
  562MOL0     C77458  10.870   8.461   6.522  0.0361 -0.1986  0.0384
  562MOL0     C77459  10.977   8.534   6.436 -1.5308  0.6596  0.1448
  562MOL0     C77460  11.082   8.611   6.523 -0.1208 -0.1440 -0.4176
  562MOL0     C77461  11.192   8.644   6.426 -0.3706 -0.7636 -0.1807
  562MOL0     C77462  11.302   8.730   6.492  0.6289  0.3767 -0.4810
  562MOL0    Cl77463  11.389   8.637   6.631 -0.4256  0.1341  0.2960
  562MOL0     C77464  10.286   8.666   6.812 -0.5216 -0.1914 -1.4205
  562MOL0     C77465  10.168   8.716   6.854  0.4633 -0.2485  0.7429
  562MOL0     O77466   9.840   8.804   6.625 -0.0265 -0.4201 -0.1939
  562MOL0     C77467   9.725   8.881   6.953 -0.2883 -0.4276  0.2546
  562MOL0     C77468   9.606   8.910   7.021 -0.0013 -0.1014 -0.3833
  562MOL0     N77469   8.837   9.387   6.993  0.7201  0.0043  0.6273
  562MOL0     N77470   8.720   9.425   6.981  0.4658 -0.1633  0.6234
  562MOL0     C77471   7.520   9.494   6.494  0.2691 -0.5583  0.1427
  562MOL0     C77472   7.419   9.541   6.408  0.6612  0.7738  0.2159
  562MOL0     C77473   7.035   9.721   6.221 -0.1188  0.2170  0.1538
  562MOL0     C77474   6.934   9.710   6.319 -1.0180  0.3174 -0.1491
  562MOL0     C77475   6.810   9.766   6.305  0.5875 -0.1888  0.3916
  562MOL0     C77476   6.780   9.832   6.185 -0.1606  0.2846  0.8757
  562MOL0     O77477   6.660   9.894   6.162 -0.0912  0.6414  0.1222
  562MOL0     C77478   6.583   9.814   6.075 -0.1397 -0.7967 -0.3165
  562MOL0     C77479   6.429   9.847   6.064  0.2475  0.4381 -0.2185
  562MOL0     C77480   6.402   9.944   5.945 -0.4047  0.6925 -0.2758
  562MOL0     C77481   6.470  10.079   5.968  0.2766  0.1168  0.5259
  562MOL0     C77482   6.608  10.076   5.921  0.2358  0.1230 -0.0531
  562MOL0     C77483   6.721  10.063   5.877 -0.3723 -0.4321  0.1912
  562MOL0     C77484   6.876   9.836   6.078 -0.0927  0.2466 -0.3975
  562MOL0     C77485   7.008   9.788   6.101  0.6866  0.4945  0.1357
  562MOL0     C77486   7.100   9.775   5.976  0.1902 -0.1210  0.0475
  562MOL0     H77487   7.204   9.646   6.647 -1.0427 -1.9673 -0.8242
  562MOL0     H77488   7.400   9.582   6.787 -2.5862 -0.2618 -0.1543
  562MOL0     H77489   7.791   9.471   6.617  2.6938 -2.2421 -1.9277
  562MOL0     H77490   7.702   9.316   6.628  0.7592 -1.3378  2.1447
  562MOL0     H77491   7.801   9.434   6.886 -2.4641  0.6534 -0.6720
  562MOL0     H77492   7.777   9.268   6.855 -0.0337  0.9717  1.4410
  562MOL0     H77493   7.975   9.259   6.710 -1.9104  0.4950 -0.5509
  562MOL0     H77494   8.005   9.435   6.730 -2.4402  2.3873  2.1278
  562MOL0     H77495   8.025   9.392   6.983  1.4586 -0.3730 -0.2808
  562MOL0     H77496   8.024   9.220   6.956  0.4053 -1.3626 -0.8770
  562MOL0     H77497   8.209   9.435   6.830  0.3987  1.3512  2.8226
  562MOL0     H77498   8.208   9.267   6.782  1.2047 -1.6196  0.3850
  562MOL0     H77499   8.238   9.346   7.072 -2.2881  1.6506 -2.4457
  562MOL0     H77500   8.298   9.194   6.987  0.5861 -0.4545 -0.5815
  562MOL0     H77501   8.438   9.467   6.940  0.7777  1.7357  2.8457
  562MOL0     H77502   8.475   9.304   6.886 -1.2569 -0.1204 -2.3442
  562MOL0     H77503   8.469   9.418   7.180 -2.8348 -1.9155 -0.2117
  562MOL0     H77504   8.486   9.250   7.139 -0.1725 -1.5377 -0.0104
  562MOL0     H77505   8.694   9.228   7.240 -1.4421  0.6711  0.2159
  562MOL0     H77506   8.964   9.161   7.236 -0.0583 -0.4071  0.5142
  562MOL0     H77507   9.039   9.313   7.213  0.6024 -0.0737 -0.8564
  562MOL0     H77508   9.009   9.098   6.999  0.1743 -1.1544  3.1940
  562MOL0     H77509   9.074   9.269   6.973 -0.7229  0.8083  0.0027
  562MOL0     H77510   9.260   9.214   7.150 -3.0657  2.9087 -0.4363
  562MOL0     H77511   9.189   9.052   7.152  0.4001 -0.7178 -0.8002
  562MOL0     H77512   9.250   9.054   6.896 -0.9269  1.0215  1.7091
  562MOL0     H77513   9.352   9.193   6.925  0.3284 -0.2824 -1.0291
  562MOL0     H77514   9.460   9.097   6.776  1.0469  1.5311  1.5545
  562MOL0     H77515   9.633   8.961   6.539  1.8334  0.8300 -1.8342
  562MOL0     H77516   9.757   9.066   6.559 -1.3411 -0.0322 -2.1246
  562MOL0     H77517   9.600   9.138   6.597  0.1569  0.0894  0.5541
  562MOL0     H77518  10.071   8.829   6.549 -0.3290  1.1517  1.0286
  562MOL0     H77519  10.276   8.752   6.481  0.3239 -1.0168 -0.5181
  562MOL0     H77520  10.577   8.617   6.804 -0.7770 -1.7287  0.6497
  562MOL0     H77521  10.476   8.482   6.780  1.6691 -2.3323 -0.2133
  562MOL0     H77522  10.699   8.424   6.757 -0.0516  1.0501  1.2913
  562MOL0     H77523  10.611   8.406   6.597  0.2104  0.3721  0.0293
  562MOL0     H77524  10.821   8.630   6.642  1.4135  1.8259 -3.4931
  562MOL0     H77525  10.707   8.602   6.508 -2.2871 -3.1370 -0.0302
  562MOL0     H77526  10.813   8.396   6.456 -0.5656 -0.2252  0.5689
  562MOL0     H77527  10.912   8.399   6.602  2.9086 -0.1058 -1.2991
  562MOL0     H77528  11.026   8.462   6.370  1.0063  1.0595  1.4861
  562MOL0     H77529  10.925   8.600   6.366 -3.9444  0.6201  1.7855
  562MOL0     H77530  11.120   8.549   6.604  3.0476  3.1301  0.8514
  562MOL0     H77531  11.041   8.700   6.572  0.7806 -0.3739  0.8143
  562MOL0     H77532  11.150   8.691   6.336 -1.4122  5.1280  2.8643
  562MOL0     H77533  11.238   8.555   6.383  2.6851  0.5749  0.0857
  562MOL0     H77534  11.260   8.817   6.544  0.0866 -0.5655  0.6967
  562MOL0     H77535  11.370   8.761   6.412  1.5440 -2.4136 -0.8847
  562MOL0     H77536  10.342   8.611   6.887 -1.6893  0.2256 -0.2021
  562MOL0     H77537  10.127   8.710   6.954 -1.3567 -0.9643 -0.0043
  562MOL0     H77538   9.806   8.824   6.999 -1.6025 -0.7710  2.2687
  562MOL0     H77539   9.591   8.879   7.123  0.8128  0.2671 -0.1458
  562MOL0     H77540   7.595   9.429   6.450 -1.5825 -2.5566 -0.2863
  562MOL0     H77541   7.427   9.539   6.300 -0.4860 -1.7473  0.1026
  562MOL0     H77542   6.962   9.653   6.407 -1.5567  0.5421  0.1733
  562MOL0     H77543   6.726   9.755   6.373  1.4974 -0.2637  1.5437
  562MOL0     H77544   6.623   9.805   5.973 -0.0013 -3.7758 -0.0765
  562MOL0     H77545   6.583   9.710   6.109 -0.2341 -0.1924  1.6646
  562MOL0     H77546   6.392   9.900   6.153  0.7089  1.8641 -0.8489
  562MOL0     H77547   6.373   9.754   6.050  1.0733  0.2951 -3.0927
  562MOL0     H77548   6.443   9.899   5.854  0.5751  0.1090  0.4421
  562MOL0     H77549   6.296   9.963   5.927 -0.8294 -1.1306  0.1746
  562MOL0     H77550   6.460  10.111   6.073 -2.8428  1.7834 -0.1658
  562MOL0     H77551   6.412  10.156   5.917  2.0861  1.2890  0.1179
  562MOL0     H77552   6.811  10.055   5.819  1.0766 -0.1034  2.2911
  562MOL0     H77553   6.863   9.891   5.985 -0.0989 -1.3639 -1.3881
  562MOL0     H77554   7.197   9.825   5.987  0.5433 -0.7827 -0.0637
  562MOL0     H77555   7.123   9.672   5.948  0.6944  0.6488 -2.6153
  562MOL0     H77556   7.036   9.802   5.891 -0.7281  0.6190  0.9465
  563MOL0     O77557   6.817  10.613   1.366  0.0361 -0.1694  0.1913
  563MOL0     C77558   6.768  10.523   1.301  0.5594  0.7294  0.1515
  563MOL0     O77559   6.833  10.434   1.222 -0.1786 -0.0004  0.4936
  563MOL0     C77560   6.970  10.457   1.218  0.0292  0.2153  0.0725
  563MOL0     C77561   7.059  10.414   1.317  0.0675 -0.5871  0.5716
  563MOL0     C77562   7.193  10.467   1.319  0.0845  0.7833 -0.4542
  563MOL0     C77563   7.237  10.545   1.210 -0.6142 -0.3351 -0.2489
  563MOL0     O77564   7.369  10.591   1.202 -0.0072  0.5525  0.4208
  563MOL0     C77565   7.415  10.643   1.082 -0.7168 -0.4855  0.7194
  563MOL0     C77566   7.562  10.678   1.094 -0.4492  0.2342  0.7261
  563MOL0     C77567   7.582  10.792   1.188 -0.1912  0.1122 -0.1447
  563MOL0     C77568   7.722  10.840   1.200  0.0080 -0.3580  0.5603
  563MOL0     C77569   7.742  10.917   1.331 -0.4887 -0.2136  0.2307
  563MOL0     C77570   7.889  10.961   1.352 -0.8586  0.1676 -0.9530
  563MOL0     C77571   7.906  11.024   1.487 -0.1894 -0.0650  0.4793
  563MOL0     C77572   7.901  10.923   1.599 -0.6563  0.4820 -0.0394
  563MOL0     N77573   8.025  10.841   1.601 -1.3023 -0.1331  0.2111
  563MOL0     C77574   8.039  10.706   1.594  0.0327 -0.4713  0.8644
  563MOL0     C77575   8.171  10.683   1.613 -0.2107 -0.2161 -0.0283
  563MOL0     C77576   8.239  10.549   1.604  0.2517  0.0788 -0.2148
  563MOL0     C77577   8.388  10.539   1.653  0.5683 -0.2506  1.0513
  563MOL0     C77578   8.393  10.504   1.799  0.3537 -0.4403  0.2588
  563MOL0     C77579   8.537  10.484   1.840 -0.6436 -0.5703  0.1629
  563MOL0     O77580   8.611  10.603   1.824  0.6079  0.2261  0.1112
  563MOL0     C77581   8.731  10.605   1.766  0.2822 -0.0007  0.5086
  563MOL0     C77582   8.838  10.574   1.857 -0.5090  1.0524  0.3880
  563MOL0     C77583   8.973  10.590   1.815  0.2947  0.1471  0.5135
  563MOL0     C77584   9.087  10.573   1.912 -0.3220  0.1260 -0.2075
  563MOL0     C77585   8.999  10.623   1.673  0.2740  0.1318  0.3633
  563MOL0     C77586   9.129  10.636   1.608  0.0886  0.2604 -0.9888
  563MOL0     O77587   9.224  10.682   1.688 -0.8299  1.0772 -0.6876
  563MOL0     C77588   9.356  10.675   1.660  0.6991 -0.2069 -0.5061
  563MOL0     C77589   9.416  10.703   1.541  0.9880  0.5157  0.7204
  563MOL0     C77590   9.558  10.708   1.524  0.2282  0.2660  1.0118
  563MOL0     C77591   9.646  10.677   1.626  0.4481  0.1389  0.0801
  563MOL0     O77592   9.779  10.670   1.619 -0.0847  0.3418  0.1676
  563MOL0     C77593   9.859  10.717   1.504  0.2472 -0.2278 -0.0914
  563MOL0     C77594  10.005  10.689   1.523 -0.3459  0.7327 -0.0655
  563MOL0     C77595  10.060  10.759   1.651  0.3515  0.2026  0.2496
  563MOL0     C77596  10.214  10.729   1.659  0.4394  0.1146 -0.0641
  563MOL0     C77597  10.273  10.790   1.791 -0.8043  0.5330  0.4703
  563MOL0     C77598  10.413  10.730   1.805 -0.1299  0.8734 -1.1102
  563MOL0     C77599  10.517  10.795   1.710 -0.4578 -0.1066  0.3102
  563MOL0     C77600  10.662  10.748   1.719  0.4319  0.9292 -0.2826
  563MOL0    Cl77601  10.726  10.797   1.878  0.3315  0.3503  0.2580
  563MOL0     C77602   9.586  10.634   1.746  0.5994 -0.3898  0.3080
  563MOL0     C77603   9.444  10.631   1.768 -0.1489  0.2771  0.4542
  563MOL0     O77604   9.144  10.614   1.487  0.2383 -0.2942 -0.4498
  563MOL0     C77605   8.889  10.654   1.583  0.0990  0.1608 -0.6531
  563MOL0     C77606   8.756  10.649   1.639 -0.0386  0.1388  0.2409
  563MOL0     N77607   8.242  10.804   1.624  0.7851  0.0753 -0.8008
  563MOL0     N77608   8.154  10.891   1.621 -0.0395 -0.0711 -0.1572
  563MOL0     C77609   7.152  10.576   1.104  0.1701 -0.7696 -0.2449
  563MOL0     C77610   7.019  10.538   1.114  0.4933  0.4205 -0.5246
  563MOL0     C77611   6.626  10.469   1.332 -0.3638  0.6125  0.7052
  563MOL0     C77612   6.595  10.334   1.325 -0.2455  0.1359  0.0009
  563MOL0     C77613   6.472  10.278   1.340  0.0865  0.6600 -0.2454
  563MOL0     C77614   6.363  10.360   1.368  0.2285 -0.1467 -0.1500
  563MOL0     O77615   6.237  10.316   1.388  0.7026  0.0592 -0.4023
  563MOL0     C77616   6.229  10.219   1.496  0.2612 -0.5082  0.3345
  563MOL0     C77617   6.217  10.300   1.631  0.4059 -0.5145 -0.0500
  563MOL0     C77618   6.269  10.225   1.752 -0.1751  0.4323  0.7429
  563MOL0     C77619   6.170  10.205   1.871 -0.0627  0.3297 -0.5737
  563MOL0     C77620   6.078  10.098   1.839 -0.6851 -1.1079 -0.1433
  563MOL0     C77621   6.000  10.005   1.834 -0.2037  0.4731  0.2640
  563MOL0     C77622   6.384  10.493   1.377 -0.2145 -0.4451 -0.6109
  563MOL0     C77623   6.513  10.549   1.358 -0.1481  0.0338  0.0236
  563MOL0     C77624   6.522  10.699   1.378  0.2953 -0.2785 -0.2061
  563MOL0     H77625   7.015  10.363   1.402 -1.3217 -2.4638 -1.1758
  563MOL0     H77626   7.263  10.449   1.399 -1.7312  2.6095  1.6867
  563MOL0     H77627   7.370  10.734   1.043  0.7478 -0.1754 -0.3438
  563MOL0     H77628   7.404  10.567   1.003 -1.2853 -2.1064  2.2838
  563MOL0     H77629   7.608  10.584   1.128  0.0959 -0.4394 -1.6568
  563MOL0     H77630   7.602  10.712   0.998  2.3339  0.8571  1.9964
  563MOL0     H77631   7.522  10.878   1.157 -0.8085  0.7620  2.5971
  563MOL0     H77632   7.554  10.760   1.288 -2.3245  0.2140 -0.6617
  563MOL0     H77633   7.792  10.755   1.202 -0.1794 -0.5625 -0.7875
  563MOL0     H77634   7.755  10.906   1.119 -2.4525  1.2147  0.7471
  563MOL0     H77635   7.711  10.850   1.412  2.6601 -0.6563  1.1992
  563MOL0     H77636   7.681  11.008   1.326  0.6304  0.5915  0.8698
  563MOL0     H77637   7.956  10.874   1.352 -0.2641  0.6179 -0.1019
  563MOL0     H77638   7.921  11.030   1.274  0.0036 -0.0886 -0.8367
  563MOL0     H77639   7.819  11.088   1.505  0.1439  0.4272  0.3694
  563MOL0     H77640   7.990  11.095   1.487 -1.0206  0.9644 -0.7323
  563MOL0     H77641   7.884  10.971   1.696  1.0781  1.2706 -0.0972
  563MOL0     H77642   7.819  10.854   1.579 -2.4223  3.0972 -2.5089
  563MOL0     H77643   7.963  10.632   1.574  0.2727 -0.7956  1.1290
  563MOL0     H77644   8.235  10.533   1.496 -2.7303  1.0541 -0.3392
  563MOL0     H77645   8.184  10.462   1.640  2.1164 -1.9527 -1.9775
  563MOL0     H77646   8.452  10.475   1.591 -0.1135 -0.7653  0.8613
  563MOL0     H77647   8.423  10.643   1.650 -0.5541  0.1038 -0.5438
  563MOL0     H77648   8.356  10.584   1.863  0.2617  0.7796 -1.2771
  563MOL0     H77649   8.332  10.413   1.807  0.1731 -0.3498 -0.0839
  563MOL0     H77650   8.536  10.452   1.945  1.7482 -0.4100  0.2858
  563MOL0     H77651   8.577  10.410   1.770 -0.6072  1.8889 -2.5781
  563MOL0     H77652   8.821  10.550   1.961 -0.3351 -0.9934 -0.0303
  563MOL0     H77653   9.140  10.665   1.939 -0.7272  0.6702 -1.2186
  563MOL0     H77654   9.156  10.506   1.859 -1.2266 -0.2493 -0.9281
  563MOL0     H77655   9.057  10.527   2.006  0.0850 -2.2615 -1.1866
  563MOL0     H77656   9.371  10.739   1.450  1.2587 -0.9825 -0.0421
  563MOL0     H77657   9.595  10.739   1.427 -0.5073 -0.7587  0.3878
  563MOL0     H77658   9.818  10.665   1.417  0.0808 -2.2870  1.1422
  563MOL0     H77659   9.837  10.824   1.502  0.1708 -0.2496 -0.6122
  563MOL0     H77660  10.011  10.582   1.545 -1.1751  0.6477 -0.2012
  563MOL0     H77661  10.054  10.720   1.431 -1.9277  2.2530 -0.4505
  563MOL0     H77662  10.007  10.725   1.741  0.6598 -1.1886 -0.0659
  563MOL0     H77663  10.028  10.863   1.639 -0.7607 -0.1967 -0.4490
  563MOL0     H77664  10.259  10.781   1.574  0.4401 -3.4329 -2.4670
  563MOL0     H77665  10.230  10.621   1.654 -0.0863 -0.1460  2.4143
  563MOL0     H77666  10.273  10.900   1.786 -3.5187  0.6683  1.3829
  563MOL0     H77667  10.214  10.756   1.876  0.1110  0.4429  1.0805
  563MOL0     H77668  10.409  10.623   1.781 -0.1332  1.5114 -4.4026
  563MOL0     H77669  10.460  10.736   1.903  0.9454  0.4785 -1.5952
  563MOL0     H77670  10.510  10.904   1.713  0.8109  0.1137 -1.9724
  563MOL0     H77671  10.503  10.769   1.604  1.0501  0.2662 -0.0142
  563MOL0     H77672  10.723  10.784   1.636  0.0811  3.2736  0.4228
  563MOL0     H77673  10.663  10.638   1.719 -0.1095  0.9089  0.6509
  563MOL0     H77674   9.646  10.596   1.828 -0.1098 -3.4821 -0.4895
  563MOL0     H77675   9.404  10.600   1.864 -1.7704  0.7483 -0.0320
  563MOL0     H77676   8.905  10.687   1.481  1.2411 -1.7844 -1.1599
  563MOL0     H77677   8.660  10.665   1.591  0.1268 -0.6589 -0.3808
  563MOL0     H77678   7.168  10.630   1.011  1.3931  1.7205  1.2812
  563MOL0     H77679   6.946  10.572   1.041 -1.3422 -0.9832  0.5738
  563MOL0     H77680   6.681  10.271   1.309  1.2441  2.1295 -0.2019
  563MOL0     H77681   6.451  10.172   1.340  0.7104  0.4789  1.7688
  563MOL0     H77682   6.145  10.152   1.477  0.1059 -1.6028  4.0759
  563MOL0     H77683   6.323  10.163   1.500  1.6485  1.6356 -0.3500
  563MOL0     H77684   6.119  10.336   1.663  0.3107 -1.1278  0.3782
  563MOL0     H77685   6.275  10.391   1.618 -0.2478  0.3962  2.7104
  563MOL0     H77686   6.303  10.124   1.725  0.3724  0.7140  0.3742
  563MOL0     H77687   6.355  10.283   1.787  0.9482 -0.6112 -0.2059
  563MOL0     H77688   6.131  10.303   1.896  0.0028 -0.2145  1.9065
  563MOL0     H77689   6.231  10.177   1.957 -2.5936 -1.9874  0.6281
  563MOL0     H77690   5.922   9.934   1.815  2.0320 -1.7213 -1.3573
  563MOL0     H77691   6.295  10.551   1.399  0.7429  0.6910  0.4538
  563MOL0     H77692   6.425  10.734   1.342 -0.4126  0.5315  2.3118
  563MOL0     H77693   6.521  10.723   1.485  1.0828  1.1863 -0.4934
  563MOL0     H77694   6.597  10.755   1.321  0.3795 -0.1848 -0.0040
  564MOL0     O77695   0.357   3.000   3.713  0.7469 -0.0820  0.0009
  564MOL0     C77696   0.458   2.949   3.658  0.4639  0.4435  0.7290
  564MOL0     O77697   0.513   2.995   3.540 -0.1354 -0.6967  0.4359
  564MOL0     C77698   0.467   3.113   3.483  0.4652  0.6374 -0.7786
  564MOL0     C77699   0.329   3.136   3.452 -0.5793  0.3751 -0.3533
  564MOL0     C77700   0.292   3.264   3.407 -0.6617 -0.8414 -0.0706
  564MOL0     C77701   0.381   3.363   3.372 -0.3744 -0.3737 -0.5086
  564MOL0     O77702   0.341   3.479   3.321  0.1276 -0.3629  0.3380
  564MOL0     C77703   0.278   3.479   3.188  1.0416  0.1815 -0.8082
  564MOL0     C77704   0.244   3.629   3.155  0.7785 -0.3473 -0.2514
  564MOL0     C77705   0.214   3.662   3.005  0.3424  0.1477 -0.5562
  564MOL0     C77706   0.081   3.610   2.966  0.5548 -0.0870  0.4696
  564MOL0     C77707   0.028   3.658   2.828  0.2524 -0.3712 -0.1225
  564MOL0     C77708  -0.120   3.600   2.805 -0.1064 -0.5451  0.3331
  564MOL0     C77709  -0.192   3.679   2.690  0.0073 -0.2410  0.3479
  564MOL0     C77710  -0.177   3.619   2.552  0.0161 -0.2578  0.6592
  564MOL0     N77711  -0.044   3.590   2.509  0.0830  0.5030 -0.1522
  564MOL0     C77712   0.035   3.677   2.431  0.0279  0.1986 -0.1623
  564MOL0     C77713   0.155   3.622   2.421  0.3457 -0.6090 -0.5079
  564MOL0     C77714   0.275   3.676   2.350  0.2061 -0.9088  0.2199
  564MOL0     C77715   0.398   3.681   2.446  0.5501 -0.7104  0.5012
  564MOL0     C77716   0.517   3.762   2.389  0.1409  0.4678 -0.0388
  564MOL0     C77717   0.636   3.762   2.490 -0.2991  0.0337  0.2713
  564MOL0     O77718   0.696   3.632   2.506  1.0737 -0.6932 -1.0604
  564MOL0     C77719   0.798   3.588   2.432  0.0366  0.4744 -0.7370
  564MOL0     C77720   0.830   3.463   2.452  0.5050 -0.6806  0.5928
  564MOL0     C77721   0.943   3.402   2.393  1.2588 -0.2919  0.0522
  564MOL0     C77722   0.951   3.255   2.409  0.2913  0.6770 -0.3070
  564MOL0     C77723   1.028   3.484   2.314  0.2916  0.5950  0.2922
  564MOL0     C77724   1.165   3.437   2.266  0.8089 -0.3893  0.1043
  564MOL0     O77725   1.213   3.324   2.324 -0.5598  0.9166  0.8869
  564MOL0     C77726   1.335   3.263   2.283  0.4932  0.0349  0.4451
  564MOL0     C77727   1.455   3.337   2.299  0.7550  0.7890 -0.3478
  564MOL0     C77728   1.576   3.286   2.247 -0.3034 -0.0464  0.3753
  564MOL0     C77729   1.585   3.169   2.171  0.6937 -0.4326 -0.2679
  564MOL0     O77730   1.705   3.131   2.132  0.4985  0.5335 -0.1120
  564MOL0     C77731   1.718   3.025   2.040 -0.1698  0.0231  0.5472
  564MOL0     C77732   1.861   2.975   2.000 -0.4729 -0.7770 -0.0370
  564MOL0     C77733   1.949   3.083   1.935 -0.3281  0.2651 -0.4062
  564MOL0     C77734   2.097   3.057   1.963  0.1167  0.0031  0.7241
  564MOL0     C77735   2.189   3.143   1.876  0.0148  0.1522 -0.1400
  564MOL0     C77736   2.339   3.073   1.879  0.7173 -0.7725 -0.5310
  564MOL0     C77737   2.450   3.147   1.800 -0.5847 -0.0947 -0.4932
  564MOL0     C77738   2.577   3.064   1.788  0.0618 -0.3053  0.0501
  564MOL0    Cl77739   2.546   2.910   1.701 -0.6241 -0.0113  0.2967
  564MOL0     C77740   1.460   3.100   2.152  0.2435 -0.0739  0.9703
  564MOL0     C77741   1.341   3.155   2.194  0.5456  0.3680  0.4241
  564MOL0     O77742   1.209   3.489   2.163  0.7526  0.0836 -0.2820
  564MOL0     C77743   0.987   3.615   2.289 -0.2083 -0.7215 -0.1737
  564MOL0     C77744   0.877   3.671   2.349  0.1852 -0.6935  0.7458
  564MOL0     N77745   0.151   3.505   2.498  0.3822 -0.3385  0.5806
  564MOL0     N77746   0.032   3.485   2.549  0.3012 -0.2712  0.1216
  564MOL0     C77747   0.518   3.338   3.398  0.0046  0.1940 -0.4251
  564MOL0     C77748   0.562   3.212   3.455  0.4827 -0.7478  0.4044
  564MOL0     C77749   0.517   2.820   3.706  0.0119  0.7482 -0.0005
  564MOL0     C77750   0.567   2.728   3.616 -0.0199 -0.2911  0.0753
  564MOL0     C77751   0.637   2.612   3.648 -0.4867 -0.0700  0.5165
  564MOL0     C77752   0.646   2.572   3.783  0.6337  0.2517  0.2307
  564MOL0     O77753   0.718   2.462   3.830 -0.0823  0.3850 -0.7036
  564MOL0     C77754   0.802   2.402   3.736 -0.5815  0.5207  1.1198
  564MOL0     C77755   0.873   2.283   3.791  0.4895 -0.0334 -0.3688
  564MOL0     C77756   0.968   2.226   3.693  0.0951  0.0998  0.8918
  564MOL0     C77757   1.060   2.137   3.773 -0.5139  0.5703 -0.0149
  564MOL0     C77758   1.188   2.098   3.700  0.3227  0.2369 -0.8355
  564MOL0     C77759   1.286   2.064   3.645  0.4527  1.0488  0.0091
  564MOL0     C77760   0.591   2.661   3.881 -0.6635 -0.3920  0.1773
  564MOL0     C77761   0.527   2.788   3.844  0.2749  0.4119  0.5421
  564MOL0     C77762   0.470   2.883   3.948 -0.4699 -0.2263  0.0875
  564MOL0     H77763   0.253   3.059   3.461 -0.5948  0.4061 -0.2069
  564MOL0     H77764   0.187   3.286   3.391 -0.3626 -0.3394 -1.4582
  564MOL0     H77765   0.190   3.414   3.194  1.8340 -0.7872  1.1114
  564MOL0     H77766   0.345   3.429   3.118  3.2247  0.2582  1.1106
  564MOL0     H77767   0.156   3.657   3.214  2.0957  1.5608  0.9098
  564MOL0     H77768   0.324   3.685   3.203  1.1971 -1.8139  0.8517
  564MOL0     H77769   0.221   3.767   2.977  1.1742  0.0238 -0.8448
  564MOL0     H77770   0.291   3.619   2.941  0.2035 -0.7711 -0.1208
  564MOL0     H77771   0.088   3.501   2.962 -1.3280 -0.2214 -2.4483
  564MOL0     H77772   0.005   3.643   3.038  1.2934  1.5403  0.5433
  564MOL0     H77773   0.096   3.617   2.753  0.2719  0.0390 -0.3315
  564MOL0     H77774   0.022   3.767   2.830  0.9815 -0.3260 -0.1667
  564MOL0     H77775  -0.111   3.495   2.774  2.6231  0.4377 -2.7771
  564MOL0     H77776  -0.184   3.601   2.894 -2.5380 -0.8791 -1.3189
  564MOL0     H77777  -0.163   3.785   2.689  0.1581 -0.2842 -1.0450
  564MOL0     H77778  -0.296   3.679   2.723 -0.4565 -0.4483 -1.0315
  564MOL0     H77779  -0.228   3.522   2.546 -4.0505  1.7038  0.0354
  564MOL0     H77780  -0.229   3.676   2.475  1.4586 -2.5027 -2.1994
  564MOL0     H77781   0.010   3.776   2.396  0.3841  0.5136  0.4483
  564MOL0     H77782   0.250   3.773   2.305 -3.1685 -0.0952  3.3385
  564MOL0     H77783   0.297   3.606   2.269  0.3156 -2.1442  1.2852
  564MOL0     H77784   0.358   3.716   2.541 -1.1735 -1.4617  0.0819
  564MOL0     H77785   0.436   3.580   2.465  0.7437 -0.1304  3.6415
  564MOL0     H77786   0.547   3.720   2.292  0.1394  4.1524 -1.7734
  564MOL0     H77787   0.490   3.865   2.366 -0.8591  0.4994  1.1941
  564MOL0     H77788   0.709   3.833   2.449  0.6480 -1.2873 -0.3953
  564MOL0     H77789   0.605   3.801   2.587 -3.4721 -2.3694  0.3661
  564MOL0     H77790   0.759   3.410   2.515 -2.6731  3.6919  1.1493
  564MOL0     H77791   0.980   3.219   2.310 -2.9207  0.8646 -1.4452
  564MOL0     H77792   0.856   3.209   2.437  0.7070 -0.4493 -0.6896
  564MOL0     H77793   1.023   3.235   2.490 -0.2958  0.7211  0.2360
  564MOL0     H77794   1.445   3.429   2.356 -1.2572  0.0745  0.5487
  564MOL0     H77795   1.669   3.340   2.264 -1.2474  1.0243  2.6419
  564MOL0     H77796   1.665   2.936   2.075  2.2050 -1.5140  0.4475
  564MOL0     H77797   1.674   3.056   1.945 -0.6981  0.1803  0.8357
  564MOL0     H77798   1.894   2.936   2.097 -2.8633 -3.5938 -0.2220
  564MOL0     H77799   1.856   2.890   1.932  1.5160  0.0765 -1.3307
  564MOL0     H77800   1.908   3.180   1.965 -1.4901 -0.5277  0.7153
  564MOL0     H77801   1.946   3.079   1.826  3.1379 -0.1851 -0.6003
  564MOL0     H77802   2.101   2.949   1.943  0.7551 -0.0042  0.8705
  564MOL0     H77803   2.131   3.062   2.067  1.0205  0.0782  0.4335
  564MOL0     H77804   2.149   3.129   1.775 -0.7959 -3.5128  0.5396
  564MOL0     H77805   2.197   3.247   1.909  1.1257 -0.2496  0.9371
  564MOL0     H77806   2.327   2.972   1.838 -1.6691 -1.2172  1.0123
  564MOL0     H77807   2.369   3.060   1.984  1.2083  0.5796 -0.4920
  564MOL0     H77808   2.483   3.241   1.845  0.3320 -0.1321 -1.0566
  564MOL0     H77809   2.412   3.172   1.701  1.4213  0.5377 -1.1522
  564MOL0     H77810   2.619   3.036   1.885  2.0249  0.9911 -0.3664
  564MOL0     H77811   2.653   3.116   1.730  0.8637 -1.6381 -0.1381
  564MOL0     H77812   1.451   3.015   2.086  0.6908 -1.0947  2.1853
  564MOL0     H77813   1.248   3.110   2.161  1.4311 -2.1972  1.2161
  564MOL0     H77814   1.054   3.685   2.240 -0.2181  0.9372  2.0280
  564MOL0     H77815   0.861   3.777   2.332 -0.3174 -0.8757  0.0681
  564MOL0     H77816   0.593   3.408   3.364  0.5349 -0.5827 -0.8926
  564MOL0     H77817   0.667   3.188   3.459  0.5949 -0.8514 -1.9124
  564MOL0     H77818   0.573   2.739   3.509  1.4566 -1.5838 -0.0139
  564MOL0     H77819   0.680   2.545   3.574 -0.5541 -0.7935  1.1287
  564MOL0     H77820   0.743   2.370   3.649 -2.1460  1.5900  1.7391
  564MOL0     H77821   0.870   2.476   3.694 -0.4800  0.2820  0.8592
  564MOL0     H77822   0.797   2.206   3.809  0.2599  0.4596  0.8862
  564MOL0     H77823   0.929   2.303   3.883  2.2344 -1.7894 -0.9673
  564MOL0     H77824   0.922   2.160   3.619 -0.1723  0.0428  1.1102
  564MOL0     H77825   1.030   2.307   3.651  0.9906 -0.5216  0.9996
  564MOL0     H77826   1.009   2.042   3.795  0.9576  0.2025  2.1621
  564MOL0     H77827   1.083   2.174   3.873  2.1693 -0.0610 -0.3292
  564MOL0     H77828   1.377   2.044   3.590  1.5541  3.2658  0.9267
  564MOL0     H77829   0.614   2.637   3.984 -2.0313  2.0115  1.1067
  564MOL0     H77830   0.500   2.836   4.042  0.7620 -0.7163 -0.5311
  564MOL0     H77831   0.515   2.982   3.960 -1.6268  0.1842  1.2722
  564MOL0     H77832   0.361   2.879   3.948 -0.4323 -2.2113  0.7730
  565MOL0     O77833   4.541   7.185   7.516 -0.1037  0.4821 -0.3905
  565MOL0     C77834   4.471   7.097   7.476 -0.0647  0.5121 -0.6879
  565MOL0     O77835   4.511   7.000   7.395 -0.1361  0.1943 -0.4041
  565MOL0     C77836   4.620   7.009   7.317 -0.4864  0.0050 -1.0920
  565MOL0     C77837   4.592   6.986   7.177 -0.6772 -0.6813 -0.2524
  565MOL0     C77838   4.693   6.996   7.077  0.6015 -0.5554  0.2177
  565MOL0     C77839   4.826   7.014   7.117  0.3257 -0.4990 -0.0265
  565MOL0     O77840   4.922   7.017   7.024 -0.5263 -0.8949 -0.1958
  565MOL0     C77841   5.062   7.000   7.046 -0.0631 -0.1309 -0.2883
  565MOL0     C77842   5.105   6.851   7.046  0.5425 -0.4003  0.5300
  565MOL0     C77843   5.257   6.860   7.003 -0.0218 -0.0463  0.6552
  565MOL0     C77844   5.315   6.721   6.987  0.0968 -0.1846  1.0367
  565MOL0     C77845   5.463   6.735   6.947 -0.5198  0.3786  0.6668
  565MOL0     C77846   5.523   6.599   6.905 -0.4486  0.0781  0.5353
  565MOL0     C77847   5.655   6.625   6.831 -1.2808 -0.6077 -0.8436
  565MOL0     C77848   5.772   6.602   6.926 -0.9205  0.3034  0.5043
  565MOL0     N77849   5.901   6.595   6.858 -0.8829 -0.3318 -0.4673
  565MOL0     C77850   5.964   6.713   6.812  0.7316  0.5499  0.1336
  565MOL0     C77851   6.081   6.673   6.762  0.3929  0.3994 -0.4026
  565MOL0     C77852   6.192   6.772   6.721 -0.0071  0.1394 -0.0053
  565MOL0     C77853   6.285   6.689   6.635 -1.0445  0.4080  0.0260
  565MOL0     C77854   6.392   6.760   6.557  0.9343  0.3963  0.1150
  565MOL0     C77855   6.491   6.817   6.656 -0.4816 -0.2707 -0.5771
  565MOL0     O77856   6.609   6.865   6.585  0.5161 -0.1817  0.6190
  565MOL0     C77857   6.718   6.782   6.553  0.6432 -0.7066 -0.3011
  565MOL0     C77858   6.728   6.640   6.551  0.7014 -0.5424 -1.0826
  565MOL0     C77859   6.842   6.580   6.496 -0.1969  0.0753  0.9068
  565MOL0     C77860   6.860   6.430   6.511  1.4841 -0.4996 -0.1610
  565MOL0     C77861   6.952   6.660   6.457  0.2247 -0.0946  0.3313
  565MOL0     C77862   7.082   6.615   6.409 -0.1230 -0.3545  0.2680
  565MOL0     O77863   7.182   6.712   6.420 -1.0126 -0.0175  0.1940
  565MOL0     C77864   7.298   6.670   6.362  0.3104  0.0258 -0.1964
  565MOL0     C77865   7.322   6.702   6.228  0.6965 -0.4646  0.5785
  565MOL0     C77866   7.446   6.675   6.167  0.1395 -0.7361  0.4744
  565MOL0     C77867   7.557   6.646   6.244  0.1250  0.8434 -0.3785
  565MOL0     O77868   7.678   6.645   6.185  0.0234  1.2444 -0.6912
  565MOL0     C77869   7.718   6.745   6.102 -0.0799  0.1166 -0.1814
  565MOL0     C77870   7.850   6.807   6.154  0.3881  0.4963 -0.1289
  565MOL0     C77871   7.979   6.715   6.136  0.3830  0.3478  0.1548
  565MOL0     C77872   8.002   6.634   6.271  0.4884  0.0705 -0.7003
  565MOL0     C77873   8.121   6.530   6.265 -0.2610 -0.6664 -0.4498
  565MOL0     C77874   8.264   6.592   6.259  0.0387 -0.5177  0.7873
  565MOL0     C77875   8.365   6.482   6.255 -0.0624  0.3807  0.0451
  565MOL0     C77876   8.390   6.432   6.115  0.3659 -0.0740  0.2435
  565MOL0    Cl77877   8.530   6.312   6.132  0.5471  0.0059  0.1555
  565MOL0     C77878   7.534   6.619   6.381  0.4268 -0.2283  0.2830
  565MOL0     C77879   7.405   6.621   6.444 -0.6086  0.3556 -0.9285
  565MOL0     O77880   7.098   6.499   6.356  0.0912 -0.5977  0.4635
  565MOL0     C77881   6.932   6.801   6.456  0.3457  0.3713 -0.2695
  565MOL0     C77882   6.816   6.867   6.504  0.8746 -0.8025  0.4818
  565MOL0     N77883   6.081   6.533   6.767  0.4481  0.6664 -0.0502
  565MOL0     N77884   5.972   6.485   6.824  0.8575 -0.1077  0.6365
  565MOL0     C77885   4.850   7.037   7.255 -0.3341 -0.6100  0.4792
  565MOL0     C77886   4.755   7.030   7.355 -0.0489 -0.1954  0.3210
  565MOL0     C77887   4.337   7.080   7.535 -0.6210 -0.9884 -0.1906
  565MOL0     C77888   4.289   6.946   7.556  0.3900 -1.4041 -0.2926
  565MOL0     C77889   4.159   6.924   7.599  0.1011  0.2446  0.4700
  565MOL0     C77890   4.071   7.027   7.627  0.8429  0.1227  0.0874
  565MOL0     O77891   3.949   6.983   7.658  0.4594 -0.4306  0.1102
  565MOL0     C77892   3.831   7.067   7.679  0.1968 -0.3916 -0.9269
  565MOL0     C77893   3.706   6.989   7.728  0.3419  0.3017 -0.1461
  565MOL0     C77894   3.583   7.076   7.768  0.6056  0.4517  0.4249
  565MOL0     C77895   3.573   7.101   7.918 -0.2075 -0.6567 -0.0294
  565MOL0     C77896   3.464   7.186   7.948 -0.1335 -0.1055  0.2349
  565MOL0     C77897   3.359   7.247   7.964  0.2970 -0.0547 -0.3166
  565MOL0     C77898   4.116   7.159   7.612 -0.2482 -0.0001 -0.3785
  565MOL0     C77899   4.250   7.184   7.574 -0.1612 -0.2997  0.5191
  565MOL0     C77900   4.287   7.337   7.562  0.4065  0.1032  0.3080
  565MOL0     H77901   4.488   6.968   7.151 -0.7934 -1.9317  0.9530
  565MOL0     H77902   4.678   6.987   6.970  4.9623  2.0068 -0.8721
  565MOL0     H77903   5.101   7.060   7.129 -2.9089  2.0370 -0.3888
  565MOL0     H77904   5.112   7.056   6.967  1.6453 -1.0870  0.0529
  565MOL0     H77905   5.096   6.799   7.142  1.0516  2.9899  2.5630
  565MOL0     H77906   5.047   6.805   6.965 -0.9338  1.1574  0.6548
  565MOL0     H77907   5.260   6.917   6.910  3.7615 -0.3722  0.4209
  565MOL0     H77908   5.313   6.919   7.076  1.4178 -0.5045 -0.0380
  565MOL0     H77909   5.303   6.662   7.078 -0.9696 -0.8840  0.4606
  565MOL0     H77910   5.259   6.670   6.908 -0.6947  0.7495  0.9786
  565MOL0     H77911   5.521   6.770   7.033  0.2594  1.9856 -0.4630
  565MOL0     H77912   5.479   6.809   6.868 -1.5085  1.5963  1.5661
  565MOL0     H77913   5.536   6.521   6.982 -0.6085 -0.1581  0.3247
  565MOL0     H77914   5.450   6.555   6.837 -4.4457  3.4895  2.2075
  565MOL0     H77915   5.657   6.731   6.801 -5.0005  0.4637  1.9142
  565MOL0     H77916   5.667   6.558   6.745 -1.9726  0.3007 -1.6805
  565MOL0     H77917   5.773   6.682   7.001 -1.1652  0.3321  0.4792
  565MOL0     H77918   5.762   6.504   6.974 -2.1183  0.6323  0.9645
  565MOL0     H77919   5.942   6.817   6.830  3.7641  1.0580  1.5775
  565MOL0     H77920   6.240   6.815   6.810 -1.0598  0.1219  0.5864
  565MOL0     H77921   6.145   6.850   6.660 -0.7163 -0.7459 -0.6094
  565MOL0     H77922   6.346   6.617   6.690  0.2666  1.3843 -0.1007
  565MOL0     H77923   6.222   6.629   6.568  0.5405 -0.2849 -0.9020
  565MOL0     H77924   6.430   6.687   6.484 -3.4912  0.2917 -2.4144
  565MOL0     H77925   6.339   6.831   6.492 -5.0589 -2.2733  1.4244
  565MOL0     H77926   6.449   6.900   6.714  0.6806 -0.5832  0.7750
  565MOL0     H77927   6.518   6.741   6.731 -0.9107  0.3235  0.2016
  565MOL0     H77928   6.653   6.574   6.595  0.4067  1.1575  1.1741
  565MOL0     H77929   6.846   6.386   6.412 -0.5020 -1.1390  0.3578
  565MOL0     H77930   6.781   6.389   6.575 -0.4904  1.3295 -1.2734
  565MOL0     H77931   6.962   6.409   6.543  1.5410 -0.2091 -0.1446
  565MOL0     H77932   7.246   6.748   6.166  0.6320  0.1162  1.0739
  565MOL0     H77933   7.458   6.711   6.065 -0.3081 -1.8655  0.0070
  565MOL0     H77934   7.725   6.710   5.999  1.3255  2.9960 -1.1829
  565MOL0     H77935   7.641   6.823   6.098  0.2587  0.6709  2.3163
  565MOL0     H77936   7.871   6.897   6.095  2.1172 -0.5312 -1.1591
  565MOL0     H77937   7.835   6.835   6.259  0.7582  2.4025 -0.5500
  565MOL0     H77938   8.065   6.778   6.110  0.1559  0.1949 -1.0246
  565MOL0     H77939   7.969   6.640   6.057  3.2188  0.2758 -0.2358
  565MOL0     H77940   7.906   6.590   6.297  0.5438 -1.0134 -2.1576
  565MOL0     H77941   8.015   6.707   6.352 -3.6522 -0.6146  0.8104
  565MOL0     H77942   8.120   6.462   6.351 -0.5767 -0.7616 -0.5286
  565MOL0     H77943   8.120   6.458   6.183 -1.0128 -0.3655 -0.7106
  565MOL0     H77944   8.282   6.650   6.350  0.3411 -2.1246  1.7759
  565MOL0     H77945   8.286   6.658   6.174  1.5667 -0.1024  1.4724
  565MOL0     H77946   8.334   6.394   6.312  3.5283 -0.4683  0.9482
  565MOL0     H77947   8.453   6.521   6.308 -0.8684  1.1243  0.8767
  565MOL0     H77948   8.411   6.512   6.044  1.2106 -1.1936 -0.7895
  565MOL0     H77949   8.295   6.385   6.086  0.1538  0.5491 -0.0966
  565MOL0     H77950   7.624   6.611   6.442  2.0567 -0.6468 -2.0207
  565MOL0     H77951   7.389   6.597   6.548 -0.5891 -1.8465 -1.3840
  565MOL0     H77952   7.002   6.878   6.426 -0.8011  1.4119 -0.3937
  565MOL0     H77953   6.810   6.975   6.518 -1.3163 -0.8884  0.5082
  565MOL0     H77954   4.949   7.068   7.286  0.1824 -0.3137 -1.3617
  565MOL0     H77955   4.777   7.068   7.455 -0.8503  0.6279  0.1956
  565MOL0     H77956   4.353   6.871   7.511  1.6669 -1.3060  1.2493
  565MOL0     H77957   4.125   6.822   7.612  2.7448 -0.7974 -0.1680
  565MOL0     H77958   3.853   7.130   7.766  0.9169 -2.4669  0.4905
  565MOL0     H77959   3.813   7.121   7.586  2.1702  0.1375 -1.0574
  565MOL0     H77960   3.736   6.910   7.798  1.3681 -0.8426 -1.7873
  565MOL0     H77961   3.683   6.926   7.642  1.2380 -0.6227  0.2674
  565MOL0     H77962   3.594   7.173   7.719  0.7244 -0.5629 -1.6781
  565MOL0     H77963   3.493   7.027   7.729  0.9680  0.5183 -0.5257
  565MOL0     H77964   3.665   7.153   7.947 -1.6408  1.5152  0.8718
  565MOL0     H77965   3.560   7.013   7.981 -3.9620  0.1946  0.6400
  565MOL0     H77966   3.264   7.295   7.969 -0.6160 -1.8040  0.0104
  565MOL0     H77967   4.048   7.243   7.628 -1.0166 -0.5244 -0.8452
  565MOL0     H77968   4.352   7.354   7.475  0.3487  0.9274  0.4159
  565MOL0     H77969   4.200   7.398   7.534 -1.8240 -3.0369 -0.0359
  565MOL0     H77970   4.334   7.370   7.655  2.1039 -0.7161 -0.2186
  566MOL0     O77971   3.309  10.817   9.103  0.5436 -0.4932  0.4961
  566MOL0     C77972   3.351  10.722   9.041  1.1478  0.6888 -0.2865
  566MOL0     O77973   3.268  10.634   8.979 -0.0340  0.9266 -0.5810
  566MOL0     C77974   3.127  10.634   8.997 -0.5801 -1.0736  0.1521
  566MOL0     C77975   3.060  10.518   9.033  0.4418  0.6557 -1.2749
  566MOL0     C77976   2.924  10.516   9.049  0.4881  0.1588 -0.4524
  566MOL0     C77977   2.844  10.631   9.018  0.1075  0.3434 -0.9662
  566MOL0     O77978   2.713  10.604   9.025  0.7575 -0.2671  0.0788
  566MOL0     C77979   2.625  10.714   9.072 -0.6881  0.0189  0.3020
  566MOL0     C77980   2.488  10.654   9.112  0.1735  0.0132 -0.5889
  566MOL0     C77981   2.409  10.779   9.154 -0.0804  0.3925  0.2633
  566MOL0     C77982   2.391  10.777   9.302 -0.7345  0.9169 -0.3664
  566MOL0     C77983   2.339  10.917   9.343  0.0917 -0.5638  0.4364
  566MOL0     C77984   2.263  10.924   9.474  0.0721 -1.4081 -0.7851
  566MOL0     C77985   2.204  11.070   9.497  0.0868  0.5628 -0.6221
  566MOL0     C77986   2.196  11.130   9.635 -0.5728  0.1753  0.5577
  566MOL0     N77987   2.327  11.139   9.706 -0.1096 -0.3624  0.0500
  566MOL0     C77988   2.398  11.038   9.771 -0.5194  0.3584  0.0281
  566MOL0     C77989   2.509  11.104   9.820  0.1010  0.6564 -0.5555
  566MOL0     C77990   2.618  11.037   9.906  0.3829  0.3426  0.4139
  566MOL0     C77991   2.660  11.119  10.029 -0.5901  0.1059 -0.7129
  566MOL0     C77992   2.755  11.035  10.124 -0.1005 -0.7401 -0.1429
  566MOL0     C77993   2.900  11.041  10.078 -0.2725 -0.5188 -0.1762
  566MOL0     O77994   2.968  10.944  10.161 -0.7301  0.2157  0.9092
  566MOL0     C77995   3.099  10.916  10.124  0.0629 -0.2833  0.5826
  566MOL0     C77996   3.166  10.987  10.022 -0.7117  0.4333  0.2050
  566MOL0     C77997   3.300  10.956   9.993 -0.4376  0.5593  0.9010
  566MOL0     C77998   3.370  11.043   9.888  0.3148  0.0553  0.3536
  566MOL0     C77999   3.362  10.840  10.055 -0.0481 -1.6684 -0.4279
  566MOL0     C78000   3.496  10.794  10.023 -0.4293  0.1205  0.3329
  566MOL0     O78001   3.558  10.725  10.124 -0.3836  0.2051  0.3146
  566MOL0     C78002   3.688  10.698  10.121 -1.2875  0.3170 -0.8438
  566MOL0     C78003   3.790  10.764  10.050  0.3481 -0.4964 -0.3820
  566MOL0     C78004   3.923  10.717  10.047  0.0363  1.3941  0.7623
  566MOL0     C78005   3.957  10.594  10.118  0.3597 -0.2357 -0.3368
  566MOL0     O78006   4.084  10.551  10.092  0.0078  0.7571  0.2174
  566MOL0     C78007   4.130  10.469  10.192 -0.0168  0.0987 -0.4368
  566MOL0     C78008   4.278  10.434  10.187  0.0081 -0.7001  0.3047
  566MOL0     C78009   4.313  10.365  10.053 -0.5063  0.9285  0.2022
  566MOL0     C78010   4.458  10.362  10.023 -0.0566 -0.1233  0.3858
  566MOL0     C78011   4.502  10.260   9.915  0.3092  0.4403 -0.1882
  566MOL0     C78012   4.645  10.215   9.936 -0.0828 -0.1711 -0.2346
  566MOL0     C78013   4.744  10.338   9.925 -0.3620  0.0401 -0.4070
  566MOL0     C78014   4.887  10.302   9.914 -0.5242  0.1017 -0.3735
  566MOL0    Cl78015   4.930  10.260  10.091  0.1957 -0.0743  0.2549
  566MOL0     C78016   3.848  10.529  10.182 -0.1077  0.6215 -0.5588
  566MOL0     C78017   3.719  10.582  10.190 -0.1797 -1.0055  0.1988
  566MOL0     O78018   3.530  10.793   9.904  0.0880  0.1994 -0.6438
  566MOL0     C78019   3.296  10.777  10.159 -0.0434  0.3016  0.1700
  566MOL0     C78020   3.162  10.817  10.191 -0.8786  0.2980  0.2229
  566MOL0     N78021   2.505  11.231   9.773  0.8399  1.3798  0.3007
  566MOL0     N78022   2.403  11.246   9.700 -0.4253  0.4429  0.1294
  566MOL0     C78023   2.908  10.747   8.986 -0.3127 -0.0169  0.3442
  566MOL0     C78024   3.046  10.747   8.983  0.0424 -0.0010  0.6030
  566MOL0     C78025   3.492  10.713   9.029 -0.7415 -0.0937 -0.0309
  566MOL0     C78026   3.536  10.601   8.953  0.3149  0.4332 -0.2123
  566MOL0     C78027   3.672  10.571   8.937 -0.3737 -0.4735 -0.4311
  566MOL0     C78028   3.770  10.655   8.995  0.5464 -0.0327  0.0897
  566MOL0     O78029   3.904  10.624   8.974  0.4895 -0.1346  0.5110
  566MOL0     C78030   3.995  10.730   8.933  0.9367 -0.0100  0.8820
  566MOL0     C78031   4.052  10.695   8.792  0.8535  0.1518  0.6567
  566MOL0     C78032   4.117  10.556   8.804 -1.0687 -0.8525 -0.7777
  566MOL0     C78033   4.227  10.549   8.697  0.3526  0.1476 -0.0631
  566MOL0     C78034   4.351  10.621   8.742 -0.8972  0.2293  0.1265
  566MOL0     C78035   4.457  10.674   8.782  0.6585  0.5011 -1.1875
  566MOL0     C78036   3.735  10.768   9.073  0.5112 -0.4065 -0.0125
  566MOL0     C78037   3.590  10.802   9.081  0.0516 -0.5658 -0.5591
  566MOL0     C78038   3.565  10.926   9.168 -0.2100  0.0689 -0.1452
  566MOL0     H78039   3.120  10.433   9.062 -1.9598  0.2136  3.4014
  566MOL0     H78040   2.873  10.427   9.085  2.1423 -0.2451  1.0267
  566MOL0     H78041   2.613  10.795   9.000 -1.0531 -0.6835 -0.4486
  566MOL0     H78042   2.670  10.752   9.164 -0.9194 -1.3566  1.0125
  566MOL0     H78043   2.427  10.611   9.032  0.9810 -0.7417 -0.8228
  566MOL0     H78044   2.496  10.579   9.191  3.4627  0.5261 -0.2788
  566MOL0     H78045   2.457  10.872   9.122 -0.1006  0.7819  1.3461
  566MOL0     H78046   2.311  10.765   9.108  0.6225 -1.3342 -0.8544
  566MOL0     H78047   2.318  10.702   9.334  0.3563  0.0455  0.1391
  566MOL0     H78048   2.486  10.759   9.354 -0.2200  0.6120 -1.4021
  566MOL0     H78049   2.279  10.962   9.264 -0.3653  1.1414  1.7074
  566MOL0     H78050   2.430  10.977   9.352  1.4605 -2.2920 -1.0771
  566MOL0     H78051   2.180  10.854   9.465 -1.0835 -0.3683  1.0421
  566MOL0     H78052   2.327  10.884   9.554 -1.0069 -3.0053 -0.6664
  566MOL0     H78053   2.100  11.060   9.465 -0.5541  3.3518  0.3236
  566MOL0     H78054   2.255  11.140   9.429 -1.5245  2.9295  0.4872
  566MOL0     H78055   2.139  11.224   9.634  0.5634  0.8730  0.1705
  566MOL0     H78056   2.134  11.068   9.701  1.6091 -0.4858  2.1209
  566MOL0     H78057   2.365  10.943   9.810  0.5304  0.8987  2.4260
  566MOL0     H78058   2.706  11.015   9.845 -0.5702 -1.1678 -0.4879
  566MOL0     H78059   2.570  10.941   9.929 -2.3316  1.2188 -1.1826
  566MOL0     H78060   2.719  11.205   9.994  2.2263 -0.7537  1.5718
  566MOL0     H78061   2.577  11.141  10.097 -0.3680 -2.1948  0.3841
  566MOL0     H78062   2.741  11.074  10.225 -1.6968 -0.7211 -0.3401
  566MOL0     H78063   2.714  10.934  10.128 -1.4915 -0.2065 -0.5097
  566MOL0     H78064   2.891  11.009   9.974  0.4030  1.0533 -0.7541
  566MOL0     H78065   2.948  11.139  10.081  0.6322 -0.9247 -0.8156
  566MOL0     H78066   3.119  11.067   9.965  2.2396  2.4143  0.3590
  566MOL0     H78067   3.303  11.128   9.870  0.8831  0.2563 -0.8538
  566MOL0     H78068   3.368  10.984   9.796 -0.1588  0.3901  0.1456
  566MOL0     H78069   3.468  11.080   9.918  1.3337 -1.7121 -0.6334
  566MOL0     H78070   3.766  10.845   9.982  1.4727 -0.0927 -0.3242
  566MOL0     H78071   4.004  10.766   9.995  1.0300  0.7812  1.6906
  566MOL0     H78072   4.105  10.500  10.294 -0.9217  0.0557 -0.6347
  566MOL0     H78073   4.081  10.372  10.179  1.0519 -0.6839  1.1018
  566MOL0     H78074   4.338  10.526  10.185 -1.2850  0.2185  1.5220
  566MOL0     H78075   4.295  10.376  10.278 -0.8581  1.1398  1.7096
  566MOL0     H78076   4.262  10.401   9.963  0.1671 -0.7673 -0.9078
  566MOL0     H78077   4.278  10.261  10.056  1.7375  0.1464  1.2840
  566MOL0     H78078   4.503  10.338  10.120 -0.2856  0.7977  0.7427
  566MOL0     H78079   4.496  10.460   9.993 -1.9742  0.5715  0.0331
  566MOL0     H78080   4.440  10.172   9.936 -1.2940  2.1950  3.3240
  566MOL0     H78081   4.490  10.284   9.809  0.4442 -3.3302 -1.2085
  566MOL0     H78082   4.667  10.137   9.861 -1.1709 -1.1300  0.4081
  566MOL0     H78083   4.662  10.169  10.034  0.2701 -0.0219 -0.2233
  566MOL0     H78084   4.726  10.405  10.010  0.9132  0.0407 -0.1223
  566MOL0     H78085   4.731  10.396   9.833  0.2077  2.7546  1.1136
  566MOL0     H78086   4.942  10.388   9.876  2.2306 -0.8384  1.1939
  566MOL0     H78087   4.907  10.216   9.850  4.0377  0.3263  0.4685
  566MOL0     H78088   3.876  10.432  10.222 -1.7228 -1.3036 -3.6393
  566MOL0     H78089   3.638  10.532  10.241 -1.7653  0.3398 -0.9131
  566MOL0     H78090   3.353  10.698  10.206  1.7355  1.1971 -0.3774
  566MOL0     H78091   3.108  10.757  10.264  0.5507  0.8422  1.8053
  566MOL0     H78092   2.840  10.828   8.961 -0.8603 -0.0616  1.6140
  566MOL0     H78093   3.081  10.845   8.954 -6.1249  2.2548 -0.8711
  566MOL0     H78094   3.470  10.526   8.911 -0.7812  0.1178  1.9289
  566MOL0     H78095   3.711  10.486   8.881 -2.6594 -0.6736 -1.8375
  566MOL0     H78096   3.937  10.822   8.923 -1.7547 -1.4579  2.2234
  566MOL0     H78097   4.070  10.755   9.008 -0.6279  1.9135  1.9064
  566MOL0     H78098   4.127  10.768   8.760 -0.2611  0.7699 -0.6775
  566MOL0     H78099   3.975  10.690   8.714  1.0115 -0.9227  0.5531
  566MOL0     H78100   4.163  10.542   8.903 -2.8769 -1.9187 -0.0456
  566MOL0     H78101   4.054  10.467   8.796  2.0354 -3.3014 -0.0571
  566MOL0     H78102   4.195  10.581   8.597  0.4940  1.2348  0.2229
  566MOL0     H78103   4.250  10.443   8.690 -1.1455 -0.3722  1.9755
  566MOL0     H78104   4.559  10.703   8.797  0.6670 -0.4731  0.8645
  566MOL0     H78105   3.813  10.833   9.112 -0.6489  1.8259 -1.2385
  566MOL0     H78106   3.483  10.979   9.118 -1.8337 -2.4585 -0.3321
  566MOL0     H78107   3.541  10.906   9.272 -0.5669  1.6544  0.1022
  566MOL0     H78108   3.662  10.977   9.159  1.1613 -2.2172  0.7233
  567MOL0     O78109   9.162   7.576   7.635  0.2855 -1.1148  0.6507
  567MOL0     C78110   9.075   7.616   7.715 -0.1242 -0.3838 -0.5165
  567MOL0     O78111   9.103   7.684   7.834 -0.2175  0.1305  0.1058
  567MOL0     C78112   9.233   7.689   7.884  0.4340 -0.8563 -0.1057
  567MOL0     C78113   9.292   7.579   7.958  0.5611 -0.5159 -0.5903
  567MOL0     C78114   9.415   7.585   8.015 -0.6628 -0.2072 -0.3487
  567MOL0     C78115   9.483   7.705   7.999 -0.3904 -0.5903 -0.0999
  567MOL0     O78116   9.615   7.710   8.046  0.2441 -0.7531  0.0585
  567MOL0     C78117   9.635   7.796   8.164 -0.3175  1.0783 -0.6539
  567MOL0     C78118   9.779   7.790   8.211 -0.1209  0.6037  0.2863
  567MOL0     C78119   9.812   7.904   8.312  0.1295 -0.4894 -0.6850
  567MOL0     C78120   9.955   7.902   8.344 -0.1201 -0.0933 -0.8474
  567MOL0     C78121  10.001   8.000   8.456  0.0540 -0.4155 -0.0721
  567MOL0     C78122   9.935   7.966   8.590  0.1309  0.4935 -0.9912
  567MOL0     C78123   9.950   8.068   8.701 -0.7916 -0.2662  0.0274
  567MOL0     C78124  10.087   8.071   8.771 -0.5756  0.4217 -0.3994
  567MOL0     N78125  10.118   8.193   8.849  0.7400 -0.4798 -0.2399
  567MOL0     C78126  10.079   8.323   8.829  0.5532 -0.1217  0.0322
  567MOL0     C78127  10.161   8.396   8.907 -1.3388  0.1963  0.4354
  567MOL0     C78128  10.164   8.549   8.917  0.3833  0.2521 -0.5075
  567MOL0     C78129  10.237   8.599   8.798  0.1991  0.0184  1.1109
  567MOL0     C78130  10.386   8.558   8.808  0.4041 -0.1191 -0.7732
  567MOL0     C78131  10.462   8.624   8.931 -0.4087  0.5792 -0.0634
  567MOL0     O78132  10.456   8.763   8.944 -0.5852  0.0640 -0.0670
  567MOL0     C78133  10.549   8.845   8.878  0.5032 -0.8290  0.9616
  567MOL0     C78134  10.657   8.806   8.806  0.4337 -0.1120  0.2450
  567MOL0     C78135  10.756   8.897   8.752  0.5330  0.6258 -0.1887
  567MOL0     C78136  10.864   8.820   8.672  1.0531  0.2729 -0.0112
  567MOL0     C78137  10.724   9.036   8.758 -0.9350  0.2537  0.8404
  567MOL0     C78138  10.811   9.134   8.701  0.0103 -0.4380  0.3889
  567MOL0     O78139  10.932   9.094   8.653  0.2416  0.0435  0.0686
  567MOL0     C78140  11.000   9.184   8.576  0.1950 -0.6244 -0.3702
  567MOL0     C78141  10.952   9.227   8.450  0.4818 -0.4403  0.1665
  567MOL0     C78142  11.018   9.322   8.375  0.0650  0.7100  0.7725
  567MOL0     C78143  11.133   9.388   8.429  0.6358  0.3864  0.4105
  567MOL0     O78144  11.202   9.476   8.347 -0.9968  0.3374  0.2111
  567MOL0     C78145  11.307   9.558   8.416 -0.2205 -0.1877  0.5791
  567MOL0     C78146  11.339   9.655   8.305 -0.3522  0.3426  0.4383
  567MOL0     C78147  11.446   9.751   8.363  1.0628  0.0899  0.0782
  567MOL0     C78148  11.382   9.863   8.450 -0.4240 -0.6189  0.5390
  567MOL0     C78149  11.287   9.956   8.376 -0.1501 -0.4559  0.1047
  567MOL0     C78150  11.235  10.071   8.458 -0.1538  0.1792  0.5406
  567MOL0     C78151  11.337  10.182   8.495  0.0642  0.7887  0.4202
  567MOL0     C78152  11.393  10.262   8.372 -0.2274 -0.4048 -0.1118
  567MOL0    Cl78153  11.513  10.378   8.436 -0.0644 -0.2471 -0.7777
  567MOL0     C78154  11.182   9.347   8.549 -0.6183  0.4399 -0.3218
  567MOL0     C78155  11.115   9.244   8.618 -0.6599  0.4622  0.1530
  567MOL0     O78156  10.769   9.249   8.699  0.2978  0.4294 -0.3147
  567MOL0     C78157  10.613   9.078   8.818 -0.7702  0.1167  0.6116
  567MOL0     C78158  10.536   8.987   8.882  0.2009 -0.0873  0.0843
  567MOL0     N78159  10.245   8.315   8.978  0.3103  0.5180 -0.2339
  567MOL0     N78160  10.212   8.193   8.950  0.5296 -0.5209  0.4195
  567MOL0     C78161   9.427   7.818   7.931  0.1192 -0.3893  0.0073
  567MOL0     C78162   9.293   7.810   7.881 -1.1517  0.5898  0.0677
  567MOL0     C78163   8.930   7.634   7.684 -0.7685 -0.1471  0.4057
  567MOL0     C78164   8.851   7.725   7.758 -0.0802 -1.2251  0.1316
  567MOL0     C78165   8.712   7.735   7.729  1.0518 -0.1543 -0.6578
  567MOL0     C78166   8.649   7.660   7.628  0.1687 -0.5491 -0.6678
  567MOL0     O78167   8.526   7.700   7.602  0.2040 -0.1878 -0.2168
  567MOL0     C78168   8.424   7.611   7.572 -1.3128 -0.0600  0.1525
  567MOL0     C78169   8.293   7.685   7.560 -0.0813  0.6179  0.1793
  567MOL0     C78170   8.266   7.788   7.437 -0.2317 -0.0684  0.6145
  567MOL0     C78171   8.137   7.862   7.445 -0.3417  0.5969 -0.2479
  567MOL0     C78172   8.011   7.781   7.460 -0.2011  0.0858 -0.5439
  567MOL0     C78173   7.907   7.713   7.459 -0.7876  0.0478  1.0203
  567MOL0     C78174   8.726   7.575   7.550 -1.1758 -0.3846 -0.4960
  567MOL0     C78175   8.868   7.551   7.586  0.1765 -0.5739  0.2134
  567MOL0     C78176   8.948   7.439   7.516  0.6717  0.1711  0.0390
  567MOL0     H78177   9.245   7.482   7.969 -2.3658  0.6444 -1.7115
  567MOL0     H78178   9.465   7.499   8.058  0.1189  0.5259  0.2512
  567MOL0     H78179   9.575   7.738   8.235  0.1045 -1.0343 -1.9322
  567MOL0     H78180   9.599   7.899   8.159  0.3589  1.6274  3.0159
  567MOL0     H78181   9.805   7.694   8.255  1.2076 -1.2805 -4.0601
  567MOL0     H78182   9.846   7.799   8.125  0.8829 -2.4389  0.6370
  567MOL0     H78183   9.792   8.004   8.272  2.5835 -0.0733 -1.0053
  567MOL0     H78184   9.750   7.894   8.402 -0.8195  0.4069 -1.2140
  567MOL0     H78185   9.996   7.805   8.374  1.1708  0.9333  0.9505
  567MOL0     H78186  10.009   7.937   8.256 -0.0471  0.0818 -0.7352
  567MOL0     H78187   9.967   8.099   8.423  3.5616  1.4979  1.4585
  567MOL0     H78188  10.110   7.998   8.463  0.5466 -1.9294 -4.7609
  567MOL0     H78189   9.826   7.957   8.588  0.2135 -1.7037  1.0577
  567MOL0     H78190   9.966   7.870   8.631  0.1395  1.3534  1.1079
  567MOL0     H78191   9.872   8.053   8.777  0.2586 -1.2837  0.9368
  567MOL0     H78192   9.940   8.166   8.653 -0.2706 -2.6160 -5.5845
  567MOL0     H78193  10.076   7.988   8.841 -1.8613  1.2142  0.3656
  567MOL0     H78194  10.164   8.043   8.697 -2.0895 -1.7112 -1.2662
  567MOL0     H78195  10.002   8.365   8.766  0.3225 -1.5470 -0.6789
  567MOL0     H78196  10.212   8.579   9.010  1.8734  0.8163 -1.4241
  567MOL0     H78197  10.062   8.589   8.924 -0.8793 -2.7798 -0.1737
  567MOL0     H78198  10.190   8.568   8.704  0.5203 -0.2884  1.0485
  567MOL0     H78199  10.242   8.708   8.788  2.3958 -0.1551 -0.4953
  567MOL0     H78200  10.407   8.450   8.808  0.7229 -0.0703 -1.7669
  567MOL0     H78201  10.435   8.591   8.717  1.9751  0.0486  0.0946
  567MOL0     H78202  10.416   8.580   9.020  2.2971  1.2858  1.8313
  567MOL0     H78203  10.563   8.582   8.922 -1.5226 -2.6356  0.8992
  567MOL0     H78204  10.683   8.701   8.801 -0.5626 -0.4081  1.0666
  567MOL0     H78205  10.868   8.712   8.688  2.4770  0.1532 -0.9345
  567MOL0     H78206  10.962   8.858   8.705  2.0426 -1.1713 -1.1364
  567MOL0     H78207  10.850   8.843   8.566 -0.0589  0.1859  0.1055
  567MOL0     H78208  10.850   9.201   8.424  1.0996 -4.0844  0.8727
  567MOL0     H78209  10.980   9.348   8.277 -0.3844 -1.3612  0.3385
  567MOL0     H78210  11.274   9.605   8.509  1.5200  0.9538  0.6683
  567MOL0     H78211  11.399   9.500   8.430 -0.5686 -1.5841 -2.1494
  567MOL0     H78212  11.379   9.598   8.220 -1.3904 -0.6815  0.6077
  567MOL0     H78213  11.251   9.707   8.266  0.1504  1.9020  1.2959
  567MOL0     H78214  11.498   9.795   8.278  0.3135 -0.3408 -0.6205
  567MOL0     H78215  11.525   9.698   8.418 -0.3040  0.7365  2.8485
  567MOL0     H78216  11.463   9.933   8.470 -2.4193  1.8874  0.4956
  567MOL0     H78217  11.350   9.818   8.545  0.9380 -0.6174  1.0159
  567MOL0     H78218  11.344   9.991   8.290 -1.4731  0.4554 -0.4403
  567MOL0     H78219  11.205   9.893   8.340 -0.3165  0.3558 -0.9735
  567MOL0     H78220  11.189  10.037   8.551 -1.7091 -1.1834 -0.6590
  567MOL0     H78221  11.160  10.121   8.395 -0.1012  1.7366  1.6640
  567MOL0     H78222  11.421  10.133   8.544 -0.3859 -2.6652 -1.8782
  567MOL0     H78223  11.291  10.248   8.568  0.5250  0.1707  1.2843
  567MOL0     H78224  11.321  10.322   8.315  0.8436  1.6079  0.5394
  567MOL0     H78225  11.459  10.200   8.310 -1.3326 -0.1909 -1.5637
  567MOL0     H78226  11.267   9.396   8.596  0.2856 -1.4183  0.0574
  567MOL0     H78227  11.153   9.198   8.708  0.6135 -1.3225 -1.2197
  567MOL0     H78228  10.599   9.183   8.838 -1.0793  0.3601 -0.7854
  567MOL0     H78229  10.452   9.031   8.933 -0.2071 -0.3490 -0.3512
  567MOL0     H78230   9.491   7.905   7.930 -1.0645  0.5056 -0.0852
  567MOL0     H78231   9.253   7.896   7.829  0.8075  2.7753  1.9800
  567MOL0     H78232   8.884   7.791   7.838 -2.7026 -1.8502  1.8912
  567MOL0     H78233   8.647   7.802   7.783  2.0575  1.0442 -0.8929
  567MOL0     H78234   8.440   7.565   7.474 -2.9843 -1.4354  0.4744
  567MOL0     H78235   8.424   7.539   7.655  0.1171 -0.0355  0.1888
  567MOL0     H78236   8.283   7.738   7.655 -2.1813 -0.4194  0.5937
  567MOL0     H78237   8.224   7.601   7.570  0.8826 -0.2107 -0.0005
  567MOL0     H78238   8.356   7.850   7.430  0.3269 -0.9977 -1.2708
  567MOL0     H78239   8.270   7.721   7.350 -0.2637  0.1855  0.4177
  567MOL0     H78240   8.119   7.921   7.354 -0.5766 -1.3928 -1.5579
  567MOL0     H78241   8.148   7.938   7.523 -0.6341 -0.4510  0.8380
  567MOL0     H78242   7.816   7.657   7.447 -0.0503 -1.8680  3.4626
  567MOL0     H78243   8.685   7.519   7.467  0.4559 -1.6182 -0.5111
  567MOL0     H78244   8.884   7.368   7.463 -1.1541 -0.0717  2.3756
  567MOL0     H78245   9.018   7.481   7.443 -0.0993  2.4433  0.5216
  567MOL0     H78246   9.003   7.381   7.591  2.1548  1.2386 -0.1638
  568MOL0     O78247   0.523   7.239   6.711 -0.2097 -0.2240 -0.3810
  568MOL0     C78248   0.456   7.162   6.778  0.3290  0.3509 -0.0493
  568MOL0     O78249   0.486   7.107   6.902 -0.1377  0.0321 -0.3583
  568MOL0     C78250   0.606   7.138   6.971 -0.2394 -0.8081  0.2732
  568MOL0     C78251   0.660   7.028   7.039  0.3802 -0.5804  0.2680
  568MOL0     C78252   0.780   7.041   7.111 -0.7179 -0.6459 -0.3019
  568MOL0     C78253   0.841   7.173   7.118  0.0643  0.2264  0.6656
  568MOL0     O78254   0.940   7.205   7.203 -1.3177 -0.5240 -0.4961
  568MOL0     C78255   0.992   7.103   7.288  0.2383  0.2604  1.1073
  568MOL0     C78256   1.084   7.149   7.402 -0.2413  0.4770 -1.1110
  568MOL0     C78257   1.018   7.248   7.499 -0.7353  0.4246 -0.4235
  568MOL0     C78258   1.090   7.282   7.635 -0.7964  0.3543  0.1603
  568MOL0     C78259   1.214   7.364   7.610 -0.4506  0.3401 -0.6409
  568MOL0     C78260   1.206   7.492   7.528  0.6097 -0.2379 -0.3034
  568MOL0     C78261   1.116   7.603   7.600  0.6805  0.4338  0.7717
  568MOL0     C78262   1.054   7.708   7.502  0.3829 -0.0524  0.7450
  568MOL0     N78263   0.947   7.660   7.415  0.2004 -0.3641 -0.0899
  568MOL0     C78264   0.830   7.597   7.450  0.0048  0.4863 -0.1096
  568MOL0     C78265   0.773   7.577   7.327 -0.4296 -0.0384  0.2537
  568MOL0     C78266   0.642   7.498   7.309 -0.2013 -0.2583  0.7125
  568MOL0     C78267   0.647   7.355   7.361 -0.5000  0.3957 -0.0720
  568MOL0     C78268   0.603   7.328   7.504  0.9492  0.0050  0.1918
  568MOL0     C78269   0.453   7.350   7.526 -0.3278 -0.7519  0.1837
  568MOL0     O78270   0.421   7.309   7.659 -0.4111 -0.9281 -0.0404
  568MOL0     C78271   0.284   7.299   7.676 -0.1087  0.4961 -0.2627
  568MOL0     C78272   0.190   7.371   7.602  0.2402 -0.3641 -0.5892
  568MOL0     C78273   0.053   7.370   7.637 -0.5940  0.0069  0.5227
  568MOL0     C78274  -0.036   7.464   7.563  0.0483 -0.3665 -0.3945
  568MOL0     C78275   0.009   7.276   7.733  0.2278 -0.8588 -0.3490
  568MOL0     C78276  -0.124   7.257   7.775 -0.2895  0.5898 -0.2311
  568MOL0     O78277  -0.147   7.130   7.821  0.6980  0.4033  0.0914
  568MOL0     C78278  -0.266   7.100   7.892 -0.0678 -0.5921 -0.1964
  568MOL0     C78279  -0.325   7.177   7.998 -0.0047 -1.2686  0.1187
  568MOL0     C78280  -0.431   7.136   8.062  0.0212  0.0600 -0.4261
  568MOL0     C78281  -0.488   7.008   8.039  0.2438 -0.3572 -0.6061
  568MOL0     O78282  -0.594   6.967   8.112 -0.0139  0.7620  0.0732
  568MOL0     C78283  -0.685   6.881   8.039  0.1907 -0.2465 -0.0150
  568MOL0     C78284  -0.825   6.891   8.114  0.0049 -0.3993  0.2742
  568MOL0     C78285  -0.929   6.810   8.049  0.4296 -0.1009  0.0526
  568MOL0     C78286  -0.936   6.667   8.098 -0.6861 -0.3910  0.6455
  568MOL0     C78287  -1.085   6.623   8.092  0.7258 -0.4727  0.9188
  568MOL0     C78288  -1.154   6.627   7.959 -0.0263 -0.2068 -0.6206
  568MOL0     C78289  -1.283   6.546   7.950  0.0640 -0.3887 -0.1529
  568MOL0     C78290  -1.404   6.643   7.982 -0.0454  0.3681 -0.5117
  568MOL0    Cl78291  -1.558   6.544   7.962 -0.3087 -0.1113  0.4654
  568MOL0     C78292  -0.434   6.927   7.939 -0.8350 -0.5298  0.6881
  568MOL0     C78293  -0.319   6.974   7.868  0.1039 -0.1543  0.2668
  568MOL0     O78294  -0.214   7.343   7.753  0.0705  0.1902 -0.0435
  568MOL0     C78295   0.107   7.200   7.804 -0.1963 -0.7225 -0.2937
  568MOL0     C78296   0.242   7.222   7.778 -0.4626  0.3017  0.5525
  568MOL0     N78297   0.846   7.624   7.224 -0.1334  0.5269  0.4924
  568MOL0     N78298   0.953   7.665   7.280 -0.2700 -0.8731  0.8391
  568MOL0     C78299   0.780   7.285   7.060  0.0786 -0.2725  0.6469
  568MOL0     C78300   0.668   7.265   6.977 -0.0607  0.0823  0.5382
  568MOL0     C78301   0.334   7.111   6.711 -0.3199 -0.9102 -0.2107
  568MOL0     C78302   0.242   7.063   6.804 -0.1812 -0.1618 -0.2884
  568MOL0     C78303   0.119   7.014   6.759  0.6210 -0.4158  0.1765
  568MOL0     C78304   0.081   7.024   6.627  0.7027  0.4283  0.4456
  568MOL0     O78305  -0.039   6.968   6.597  0.3383 -0.5633 -0.3858
  568MOL0     C78306  -0.101   6.993   6.471  0.7351 -0.4679  0.6058
  568MOL0     C78307  -0.249   6.999   6.481 -0.2254  0.9953 -0.2324
  568MOL0     C78308  -0.298   7.124   6.548 -0.1071 -0.5963  0.6977
  568MOL0     C78309  -0.287   7.259   6.471 -0.0578 -0.4518  0.2847
  568MOL0     C78310  -0.357   7.267   6.336  0.2064  0.2113 -0.0558
  568MOL0     C78311  -0.410   7.249   6.232  0.7398  0.6979 -0.3138
  568MOL0     C78312   0.174   7.067   6.529  0.3896 -0.2708 -0.2217
  568MOL0     C78313   0.304   7.104   6.567  0.0509  0.5187  0.5227
  568MOL0     C78314   0.417   7.109   6.459  0.6646  0.3577 -0.0164
  568MOL0     H78315   0.617   6.930   7.022 -0.7849  0.1384 -1.2109
  568MOL0     H78316   0.819   6.957   7.168 -1.6650  0.9680  3.0348
  568MOL0     H78317   1.058   7.045   7.223 -0.2761  2.2278 -1.3065
  568MOL0     H78318   0.910   7.048   7.335  0.7790 -1.2568  0.3213
  568MOL0     H78319   1.104   7.061   7.464 -5.0402 -0.5896 -0.6750
  568MOL0     H78320   1.183   7.185   7.373  0.1898  1.6053  1.4814
  568MOL0     H78321   0.985   7.337   7.445 -0.6757  1.5260  1.2871
  568MOL0     H78322   0.931   7.188   7.528  0.5077 -1.0898  0.3142
  568MOL0     H78323   1.019   7.333   7.701  0.2780 -0.3354  1.9191
  568MOL0     H78324   1.101   7.190   7.694  0.6461  0.9278  0.8408
  568MOL0     H78325   1.271   7.294   7.548  1.0643 -0.2958  1.3666
  568MOL0     H78326   1.266   7.385   7.704 -3.7306 -1.1248  1.6999
  568MOL0     H78327   1.307   7.534   7.521  0.0378  1.5891  1.2195
  568MOL0     H78328   1.154   7.472   7.434 -3.8006  1.3192  1.4942
  568MOL0     H78329   1.179   7.656   7.673  0.9422  0.9523  0.1712
  568MOL0     H78330   1.028   7.561   7.650  0.9946  0.5111  1.4070
  568MOL0     H78331   1.001   7.792   7.548 -2.1696 -0.0261 -1.9530
  568MOL0     H78332   1.129   7.762   7.443 -1.3607  0.9395 -0.6476
  568MOL0     H78333   0.797   7.570   7.550 -0.5110  2.3039  0.2571
  568MOL0     H78334   0.618   7.499   7.202 -0.8309 -0.9908  0.8314
  568MOL0     H78335   0.561   7.545   7.366 -1.1799  0.3248 -1.0639
  568MOL0     H78336   0.576   7.299   7.300  0.9635  0.9781 -2.4344
  568MOL0     H78337   0.748   7.315   7.348 -0.0080  0.4139  2.9456
  568MOL0     H78338   0.625   7.222   7.521  0.2917 -0.1116  0.3462
  568MOL0     H78339   0.658   7.390   7.575  0.6992 -2.4706  2.6922
  568MOL0     H78340   0.425   7.456   7.519  0.1409 -0.6667 -0.6746
  568MOL0     H78341   0.392   7.295   7.454  0.0266  1.1620 -1.7177
  568MOL0     H78342   0.215   7.434   7.518 -0.5220 -1.2860 -1.5350
  568MOL0     H78343  -0.130   7.415   7.538  0.6041 -0.6681 -2.0203
  568MOL0     H78344   0.016   7.498   7.473  0.2784  0.1336 -0.0799
  568MOL0     H78345  -0.061   7.546   7.631  0.1400 -0.3325 -0.4014
  568MOL0     H78346  -0.276   7.272   8.019 -0.2040 -0.8181 -1.3349
  568MOL0     H78347  -0.474   7.202   8.137 -0.1891  0.0388 -0.5249
  568MOL0     H78348  -0.713   6.925   7.943 -1.0614  0.7385  0.7718
  568MOL0     H78349  -0.654   6.777   8.029  0.6526  0.0208 -1.6858
  568MOL0     H78350  -0.814   6.862   8.219 -0.2534  2.7183  1.2687
  568MOL0     H78351  -0.850   6.998   8.113  0.3676 -0.2872 -1.6175
  568MOL0     H78352  -0.932   6.806   7.940  0.5969  2.3750 -0.1046
  568MOL0     H78353  -1.017   6.856   8.096  1.3055 -0.4519  2.1623
  568MOL0     H78354  -0.907   6.656   8.203  0.0384 -2.2492  0.2873
  568MOL0     H78355  -0.870   6.603   8.038  0.7597  1.1243  0.5420
  568MOL0     H78356  -1.095   6.519   8.124 -1.6460 -0.6993 -0.2932
  568MOL0     H78357  -1.140   6.681   8.166  0.7602 -0.0315  0.6025
  568MOL0     H78358  -1.089   6.580   7.884 -0.5229 -1.1423 -0.4849
  568MOL0     H78359  -1.163   6.732   7.929 -0.3454 -0.2008 -0.5068
  568MOL0     H78360  -1.287   6.460   8.017  0.3909  0.7215  1.3599
  568MOL0     H78361  -1.292   6.510   7.847  0.0121 -0.2931 -0.1812
  568MOL0     H78362  -1.397   6.736   7.926 -0.7919  1.0843  0.5552
  568MOL0     H78363  -1.414   6.670   8.087  3.0980  2.9960 -0.7170
  568MOL0     H78364  -0.475   6.828   7.918 -1.1759 -0.7351  2.1980
  568MOL0     H78365  -0.280   6.914   7.787 -1.7772  0.1903 -0.9625
  568MOL0     H78366   0.084   7.135   7.888 -0.5144 -4.4664 -3.0122
  568MOL0     H78367   0.317   7.176   7.842  0.1481  0.5705  0.0486
  568MOL0     H78368   0.814   7.388   7.060  0.9719 -0.4938 -1.9361
  568MOL0     H78369   0.623   7.345   6.920  2.1081  0.2553 -1.0478
  568MOL0     H78370   0.262   7.056   6.911 -2.0049  0.0383  0.1089
  568MOL0     H78371   0.051   6.967   6.829  0.8329 -1.6064 -0.3849
  568MOL0     H78372  -0.072   7.088   6.425 -2.6202  0.5290  0.2472
  568MOL0     H78373  -0.080   6.909   6.404 -0.8402 -1.3435  1.1519
  568MOL0     H78374  -0.280   6.916   6.545  0.5977  0.9688  0.1479
  568MOL0     H78375  -0.287   7.009   6.379 -2.0453  1.7995  0.4776
  568MOL0     H78376  -0.404   7.124   6.576 -0.1815 -1.8962  0.4478
  568MOL0     H78377  -0.242   7.138   6.641 -0.6722  1.3461  0.7945
  568MOL0     H78378  -0.180   7.274   6.453 -0.0854 -0.3370  0.2176
  568MOL0     H78379  -0.312   7.342   6.537  3.0400  1.6868 -0.9988
  568MOL0     H78380  -0.470   7.241   6.144 -1.1158 -0.3142  0.9800
  568MOL0     H78381   0.141   7.059   6.426 -2.7344  0.5232  0.6171
  568MOL0     H78382   0.379   7.059   6.370  3.2170 -3.2685  0.7439
  568MOL0     H78383   0.434   7.216   6.443  0.4430  0.7758  2.1836
  568MOL0     H78384   0.506   7.056   6.493  0.8095  2.3171  3.1625
  569MOL0     O78385   6.803   2.855   8.695 -0.4434  1.1794 -0.3285
  569MOL0     C78386   6.724   2.767   8.741 -1.0167  1.1677  0.5621
  569MOL0     O78387   6.756   2.678   8.838  0.3916  0.5161  0.2052
  569MOL0     C78388   6.868   2.685   8.917  0.4412 -0.6502 -1.3558
  569MOL0     C78389   6.836   2.664   9.054 -1.0784  0.1224  0.1143
  569MOL0     C78390   6.936   2.667   9.154 -1.3459  0.2342  0.1850
  569MOL0     C78391   7.070   2.691   9.112 -0.2212 -0.7968 -0.8513
  569MOL0     O78392   7.153   2.694   9.218  0.4209  0.1518 -0.1815
  569MOL0     C78393   7.273   2.781   9.212 -0.5116  0.7671 -0.1971
  569MOL0     C78394   7.329   2.819   9.352 -0.2909  0.5125  0.4173
  569MOL0     C78395   7.226   2.847   9.467 -0.1926 -0.3983 -0.6894
  569MOL0     C78396   7.150   2.979   9.440  0.1585  0.7654  0.1208
  569MOL0     C78397   7.003   2.968   9.494  0.5970  0.1411 -0.1783
  569MOL0     C78398   6.928   3.098   9.479  0.1205  0.0265  0.3490
  569MOL0     C78399   6.792   3.084   9.551  0.2867  0.1110 -0.2136
  569MOL0     C78400   6.711   3.210   9.520  0.5162 -0.3190 -0.0722
  569MOL0     N78401   6.564   3.187   9.539  0.7107 -0.5841  0.7913
  569MOL0     C78402   6.482   3.176   9.438  0.6000 -0.1594  0.4835
  569MOL0     C78403   6.355   3.145   9.480 -0.6540  0.1571 -0.8873
  569MOL0     C78404   6.235   3.165   9.394 -0.5552 -0.7905  0.5597
  569MOL0     C78405   6.151   3.282   9.440  0.3567 -1.0139  0.0910
  569MOL0     C78406   6.211   3.426   9.424 -0.3530  0.1875  0.4392
  569MOL0     C78407   6.244   3.465   9.278 -0.0438 -0.7144  0.3520
  569MOL0     O78408   6.346   3.394   9.203 -0.5808  0.7044 -0.6173
  569MOL0     C78409   6.479   3.435   9.206  0.0135 -1.6882  0.6388
  569MOL0     C78410   6.531   3.526   9.297  0.0952  0.2344  0.3391
  569MOL0     C78411   6.661   3.570   9.294  0.1251 -0.3801  0.2045
  569MOL0     C78412   6.726   3.645   9.406 -0.8449  0.0926  0.0829
  569MOL0     C78413   6.739   3.539   9.177 -0.0332 -0.2267 -0.7263
  569MOL0     C78414   6.882   3.580   9.158  0.6144  0.1815 -0.4170
  569MOL0     O78415   6.980   3.501   9.211  0.4652  0.7731  0.0926
  569MOL0     C78416   7.109   3.523   9.201 -0.0334  0.8917  0.3579
  569MOL0     C78417   7.168   3.596   9.091 -0.4297  0.0243 -0.3337
  569MOL0     C78418   7.308   3.620   9.101 -0.3074 -0.5016  0.6396
  569MOL0     C78419   7.384   3.572   9.204 -0.6357  0.8360  0.3359
  569MOL0     O78420   7.517   3.593   9.209  0.0539 -0.0833  0.6201
  569MOL0     C78421   7.556   3.694   9.304  0.9896 -0.4255 -0.2582
  569MOL0     C78422   7.675   3.766   9.247 -1.3409 -0.2918 -0.3161
  569MOL0     C78423   7.810   3.687   9.236 -0.4507  0.7430 -0.0687
  569MOL0     C78424   7.906   3.718   9.120 -0.6481 -0.3659  0.4525
  569MOL0     C78425   8.020   3.618   9.135 -0.1660  0.0296 -0.3936
  569MOL0     C78426   8.129   3.639   9.032  0.7561 -0.2891  0.2629
  569MOL0     C78427   8.262   3.563   9.054 -0.6530  0.1805  0.2364
  569MOL0     C78428   8.254   3.415   9.030 -0.7274 -0.7277  1.0366
  569MOL0    Cl78429   8.412   3.359   9.096 -0.5261  0.0825  0.1008
  569MOL0     C78430   7.323   3.480   9.292 -0.3745 -0.2582 -0.4027
  569MOL0     C78431   7.188   3.461   9.298  0.1871 -0.4369  0.3135
  569MOL0     O78432   6.894   3.691   9.103 -0.5956  0.1844 -0.5455
  569MOL0     C78433   6.688   3.447   9.082  0.0641  0.3027 -0.4836
  569MOL0     C78434   6.561   3.385   9.103  0.7877  0.3730  0.3118
  569MOL0     N78435   6.366   3.138   9.618  0.6143  0.3574 -0.3730
  569MOL0     N78436   6.491   3.163   9.652  0.4199 -0.3340  0.1219
  569MOL0     C78437   7.102   2.708   8.981 -0.2702  0.4676  0.9180
  569MOL0     C78438   7.005   2.718   8.879  0.7290 -0.3327  0.3064
  569MOL0     C78439   6.604   2.748   8.665  0.0203  0.0103  0.3125
  569MOL0     C78440   6.481   2.732   8.739  0.0102 -0.3130  0.5524
  569MOL0     C78441   6.360   2.725   8.676  0.8455  0.9631  0.4767
  569MOL0     C78442   6.353   2.721   8.537 -0.0651 -0.8747 -0.2104
  569MOL0     O78443   6.219   2.703   8.497 -0.8232 -0.2426  0.5667
  569MOL0     C78444   6.171   2.787   8.390 -0.9577  0.4392 -1.0462
  569MOL0     C78445   6.023   2.805   8.393 -0.3290  0.8501  0.1415
  569MOL0     C78446   5.949   2.665   8.364  0.7943 -0.5121  0.3008
  569MOL0     C78447   5.865   2.604   8.467 -0.1335 -0.0035 -0.3272
  569MOL0     C78448   5.852   2.460   8.456 -0.2975  0.1324 -0.0983
  569MOL0     C78449   5.814   2.350   8.460 -0.0363  0.5075  0.2503
  569MOL0     C78450   6.470   2.741   8.461  0.1138  0.3457 -0.2068
  569MOL0     C78451   6.596   2.751   8.520  0.1642  0.0901 -0.4474
  569MOL0     C78452   6.713   2.744   8.427 -0.0723  0.0477  1.2502
  569MOL0     H78453   6.733   2.638   9.078 -0.6302  0.4652  2.6130
  569MOL0     H78454   6.911   2.647   9.257  0.8725 -2.1580  0.3550
  569MOL0     H78455   7.241   2.878   9.171  1.6240  1.6247  0.0518
  569MOL0     H78456   7.346   2.735   9.145 -0.2707  0.1522  0.4810
  569MOL0     H78457   7.398   2.739   9.378  0.3868  0.7886 -0.4747
  569MOL0     H78458   7.401   2.901   9.341  1.2337 -1.0624 -2.1669
  569MOL0     H78459   7.160   2.761   9.481 -0.9040  0.6114  3.3517
  569MOL0     H78460   7.289   2.847   9.556 -1.4395 -0.1500  0.2234
  569MOL0     H78461   7.206   3.049   9.503  1.4510  0.8654 -1.0778
  569MOL0     H78462   7.152   3.005   9.333  0.7610  2.3657  0.4846
  569MOL0     H78463   7.008   2.947   9.601 -3.9043  0.2622  0.2290
  569MOL0     H78464   6.961   2.878   9.450  1.7382  0.3769 -1.8562
  569MOL0     H78465   6.985   3.181   9.522 -0.5174 -0.8491  3.0136
  569MOL0     H78466   6.918   3.118   9.371  2.2207  0.0334  0.1217
  569MOL0     H78467   6.794   3.071   9.660 -2.9934  1.4191  0.1227
  569MOL0     H78468   6.738   2.999   9.510 -0.0282  0.0228  0.3745
  569MOL0     H78469   6.741   3.288   9.590  0.2110  0.2296 -0.5421
  569MOL0     H78470   6.720   3.234   9.413  0.6633  1.0488  0.2220
  569MOL0     H78471   6.512   3.205   9.337  4.7894 -3.3700  0.4918
  569MOL0     H78472   6.170   3.077   9.387  0.3834 -1.4335 -0.4744
  569MOL0     H78473   6.282   3.185   9.297  0.6740 -0.7957  1.1489
  569MOL0     H78474   6.057   3.280   9.385  0.5768  1.6753 -0.4950
  569MOL0     H78475   6.121   3.258   9.542  0.0362 -1.2412 -0.0547
  569MOL0     H78476   6.142   3.498   9.468  1.0440  1.6730  0.3075
  569MOL0     H78477   6.308   3.423   9.473  0.0007 -0.0377 -0.2558
  569MOL0     H78478   6.151   3.473   9.222  0.1213  0.6076  0.2502
  569MOL0     H78479   6.271   3.571   9.280 -0.5785 -0.5834  0.9371
  569MOL0     H78480   6.471   3.560   9.380 -0.5989  0.0902 -0.0903
  569MOL0     H78481   6.726   3.575   9.490  0.2810 -1.8169 -1.4306
  569MOL0     H78482   6.679   3.744   9.418 -0.1891  0.5290 -0.8379
  569MOL0     H78483   6.832   3.666   9.389 -0.9427  0.8301  0.3259
  569MOL0     H78484   7.107   3.628   9.007 -0.2249  1.7027  0.1221
  569MOL0     H78485   7.364   3.666   9.020 -0.4870 -3.1430 -1.0842
  569MOL0     H78486   7.479   3.771   9.312 -0.1852 -1.7008  1.9659
  569MOL0     H78487   7.584   3.655   9.403  0.4161 -0.0579  0.0569
  569MOL0     H78488   7.644   3.788   9.144 -0.8053  0.1083 -0.3930
  569MOL0     H78489   7.696   3.858   9.303 -1.9346 -0.7035  0.6106
  569MOL0     H78490   7.787   3.580   9.232  0.4462  0.5411 -0.0333
  569MOL0     H78491   7.864   3.704   9.330 -0.8594 -0.3150  0.3756
  569MOL0     H78492   7.941   3.822   9.121  0.3153 -0.6308  2.9998
  569MOL0     H78493   7.867   3.704   9.019  2.5397 -0.1316 -0.9268
  569MOL0     H78494   8.068   3.640   9.231  2.9072 -1.0243 -1.5613
  569MOL0     H78495   7.984   3.515   9.142  0.3577 -0.1092  0.3660
  569MOL0     H78496   8.158   3.744   9.022  0.2479 -0.3339 -2.5705
  569MOL0     H78497   8.088   3.605   8.936  1.6410 -0.3127 -0.1200
  569MOL0     H78498   8.282   3.585   9.159 -1.9842  1.1752  0.3076
  569MOL0     H78499   8.342   3.605   8.992 -0.3812 -1.8994 -0.9230
  569MOL0     H78500   8.250   3.389   8.924  3.1673  2.4602 -0.1786
  569MOL0     H78501   8.174   3.363   9.083 -3.5033 -2.2650 -4.0079
  569MOL0     H78502   7.386   3.420   9.357 -1.4778 -1.7117 -0.6537
  569MOL0     H78503   7.141   3.387   9.363  2.5463 -0.1594  2.5229
  569MOL0     H78504   6.754   3.425   8.999  0.4808 -1.3229  0.2382
  569MOL0     H78505   6.517   3.309   9.038 -0.9154  0.1365  1.6636
  569MOL0     H78506   7.203   2.725   8.947 -0.0282 -0.1954  1.2728
  569MOL0     H78507   7.027   2.746   8.777  0.6862 -0.8553  0.1528
  569MOL0     H78508   6.483   2.735   8.847 -0.7004  0.6224  0.5484
  569MOL0     H78509   6.274   2.705   8.739  2.3350 -0.3907  2.1855
  569MOL0     H78510   6.223   2.883   8.391 -1.5837  0.8367 -2.6077
  569MOL0     H78511   6.204   2.736   8.299 -0.0969 -1.6250  0.3713
  569MOL0     H78512   5.987   2.881   8.325  1.6521 -0.6706 -2.8162
  569MOL0     H78513   6.000   2.839   8.495  0.5870  1.8819  0.0228
  569MOL0     H78514   5.878   2.679   8.283 -0.4326  1.9257  1.6668
  569MOL0     H78515   6.014   2.586   8.325  0.9832  0.7035 -2.0315
  569MOL0     H78516   5.767   2.651   8.460 -1.1884 -1.8290  1.4183
  569MOL0     H78517   5.914   2.628   8.562  1.3269 -0.0841 -1.0232
  569MOL0     H78518   5.776   2.250   8.462  0.1750  0.4148  2.2171
  569MOL0     H78519   6.466   2.742   8.353  0.7665 -0.6363 -0.2533
  569MOL0     H78520   6.812   2.760   8.470  0.0192 -1.2334  1.5393
  569MOL0     H78521   6.716   2.648   8.375  2.0638  0.0318  1.3127
  569MOL0     H78522   6.713   2.821   8.349  0.6014 -0.5909  0.6088
  570MOL0     O78523   7.074   8.284   2.314  0.3517 -0.3285 -0.0092
  570MOL0     C78524   7.001   8.187   2.314  0.1359  0.0369 -0.2081
  570MOL0     O78525   7.048   8.056   2.305  0.1126 -0.2551  0.8054
  570MOL0     C78526   7.180   8.026   2.343 -0.5523  0.1324  0.0557
  570MOL0     C78527   7.221   8.075   2.470 -0.2380 -0.1066  1.0026
  570MOL0     C78528   7.359   8.059   2.517  0.5348 -0.6557  0.1860
  570MOL0     C78529   7.448   7.984   2.438 -0.4611 -0.0155  0.5613
  570MOL0     O78530   7.576   7.953   2.479 -0.3296 -0.4688  0.1388
  570MOL0     C78531   7.643   8.049   2.557 -0.7774 -0.1237 -0.0142
  570MOL0     C78532   7.694   8.172   2.469  0.0024 -0.3496  0.0244
  570MOL0     C78533   7.810   8.112   2.378 -0.1396  0.7963 -1.2619
  570MOL0     C78534   7.851   8.224   2.279  0.0819  0.9667 -0.5385
  570MOL0     C78535   7.948   8.168   2.176 -0.5937  0.0745  0.0143
  570MOL0     C78536   8.002   8.276   2.083 -0.3294  0.5626  0.1370
  570MOL0     C78537   8.094   8.217   1.983 -0.0302 -0.8448  0.0283
  570MOL0     C78538   8.115   8.324   1.875  0.3500  0.1351 -0.1692
  570MOL0     N78539   8.210   8.421   1.922  0.1999  0.2419 -0.7029
  570MOL0     C78540   8.342   8.406   1.932 -0.3074 -0.4242  0.5869
  570MOL0     C78541   8.382   8.521   2.002  0.3712  0.9652  0.2906
  570MOL0     C78542   8.530   8.554   2.030  0.9954  0.5395 -0.8227
  570MOL0     C78543   8.574   8.475   2.156  0.0581  0.5618  0.6830
  570MOL0     C78544   8.711   8.512   2.199 -0.9279 -0.1391  0.4695
  570MOL0     C78545   8.786   8.405   2.272  0.2281 -0.5281  0.4359
  570MOL0     O78546   8.918   8.452   2.290  0.0647 -0.4146 -0.1121
  570MOL0     C78547   9.024   8.368   2.324  0.2681  0.2546  0.1006
  570MOL0     C78548   9.161   8.408   2.310  0.6399 -0.5462  1.1029
  570MOL0     C78549   9.267   8.323   2.341  0.2916 -0.1900 -0.4633
  570MOL0     C78550   9.409   8.360   2.322  0.3313 -0.8675  0.4424
  570MOL0     C78551   9.233   8.193   2.380 -0.0376 -0.3649 -1.8128
  570MOL0     C78552   9.332   8.091   2.409 -0.8180 -0.7920 -0.5705
  570MOL0     O78553   9.436   8.126   2.491  0.0153 -0.5565 -0.3292
  570MOL0     C78554   9.525   8.036   2.545  0.5355 -0.0378 -0.0663
  570MOL0     C78555   9.538   8.009   2.685  0.1608 -0.3128 -0.0151
  570MOL0     C78556   9.630   7.914   2.727 -0.0753 -0.1290  0.0633
  570MOL0     C78557   9.724   7.868   2.631  0.3016  0.1456  0.4536
  570MOL0     O78558   9.825   7.780   2.669  0.1637  0.2214 -0.3507
  570MOL0     C78559   9.925   7.849   2.740 -0.1045 -0.0944  0.3177
  570MOL0     C78560   9.997   7.962   2.666  0.5042  0.2610  0.0982
  570MOL0     C78561  10.080   7.930   2.537  0.0231  0.0347  0.0290
  570MOL0     C78562  10.181   8.044   2.514 -0.6303 -0.6487  0.1613
  570MOL0     C78563  10.324   8.017   2.567 -0.1481 -0.0670  0.2492
  570MOL0     C78564  10.404   7.922   2.470 -0.2381  0.2620  0.2216
  570MOL0     C78565  10.544   7.897   2.524  0.5587 -0.0507 -0.3622
  570MOL0     C78566  10.596   7.765   2.475  0.0392  0.7627  0.1340
  570MOL0    Cl78567  10.766   7.753   2.489 -0.5906 -0.0064  0.3245
  570MOL0     C78568   9.712   7.901   2.498  1.0315  0.3497 -0.5866
  570MOL0     C78569   9.609   7.979   2.454 -0.2840 -0.4692  0.4660
  570MOL0     O78570   9.317   7.979   2.366  0.2953  1.1584  0.2072
  570MOL0     C78571   9.100   8.150   2.405 -0.4213  1.5170 -0.3928
  570MOL0     C78572   8.997   8.237   2.379 -0.1150 -1.0827  0.3667
  570MOL0     N78573   8.275   8.591   2.026  0.4003  0.0933  0.2225
  570MOL0     N78574   8.170   8.533   1.982 -0.6663 -0.1539 -0.2908
  570MOL0     C78575   7.403   7.933   2.319  0.1838  0.4209  0.6567
  570MOL0     C78576   7.271   7.954   2.273 -0.4257  0.0084  0.0232
  570MOL0     C78577   6.856   8.214   2.335 -0.0803 -0.3565  0.2173
  570MOL0     C78578   6.772   8.096   2.332  0.1618 -0.2627  0.0010
  570MOL0     C78579   6.633   8.114   2.330 -0.1584  0.1994 -0.4264
  570MOL0     C78580   6.573   8.233   2.326  0.2907 -0.2107  0.7189
  570MOL0     O78581   6.439   8.232   2.330 -0.7830 -0.2750 -0.2801
  570MOL0     C78582   6.356   8.344   2.373  0.5620 -0.4121 -0.7711
  570MOL0     C78583   6.204   8.315   2.370 -0.2870  0.3506 -0.9704
  570MOL0     C78584   6.127   8.395   2.486 -0.4049 -0.3225 -0.1411
  570MOL0     C78585   5.981   8.352   2.521  0.0594  0.3388 -0.5886
  570MOL0     C78586   5.905   8.365   2.394 -0.5840  0.1393  0.6756
  570MOL0     C78587   5.842   8.360   2.292  0.5024  0.6081  0.2453
  570MOL0     C78588   6.653   8.350   2.318  0.3085 -0.1317 -0.2625
  570MOL0     C78589   6.794   8.340   2.329 -0.1025 -0.2472  0.0768
  570MOL0     C78590   6.863   8.476   2.329  0.3535  0.8311 -0.6420
  570MOL0     H78591   7.154   8.135   2.532 -3.6238  0.1952 -2.5434
  570MOL0     H78592   7.370   8.098   2.617 -1.5434  0.5469  0.0013
  570MOL0     H78593   7.737   8.009   2.596 -1.2650 -0.6945  0.6067
  570MOL0     H78594   7.590   8.070   2.651  1.7526  3.1027  0.8632
  570MOL0     H78595   7.613   8.217   2.411 -1.0660  1.6532  2.8343
  570MOL0     H78596   7.729   8.260   2.524  0.2836 -0.4128 -0.0556
  570MOL0     H78597   7.893   8.068   2.435  0.5550  1.9140 -1.3861
  570MOL0     H78598   7.760   8.032   2.322  0.6292 -1.6878  1.3486
  570MOL0     H78599   7.763   8.260   2.225  0.2849  3.8166  0.8426
  570MOL0     H78600   7.907   8.302   2.330  0.9132  0.5938 -0.8595
  570MOL0     H78601   7.896   8.092   2.116  1.9520 -1.0606 -0.8709
  570MOL0     H78602   8.027   8.114   2.228 -2.6311 -1.8405  1.3113
  570MOL0     H78603   7.916   8.317   2.030 -0.3806 -1.7037 -1.7156
  570MOL0     H78604   8.053   8.364   2.122 -0.5198  0.6904  0.0989
  570MOL0     H78605   8.041   8.137   1.929 -0.7148  0.6359 -1.5915
  570MOL0     H78606   8.192   8.184   2.018  1.7364 -1.6530 -4.8347
  570MOL0     H78607   8.174   8.274   1.798  2.6044 -0.5472  1.8762
  570MOL0     H78608   8.016   8.357   1.844 -0.2762 -1.5039 -0.0237
  570MOL0     H78609   8.404   8.323   1.901 -2.1122 -2.1425  1.3928
  570MOL0     H78610   8.527   8.660   2.060 -3.1715  0.6857 -1.1211
  570MOL0     H78611   8.600   8.531   1.949  0.6797  1.2390 -1.3085
  570MOL0     H78612   8.502   8.482   2.238  0.3807  1.2016  0.9189
  570MOL0     H78613   8.581   8.373   2.118 -0.4568  0.5420  0.6351
  570MOL0     H78614   8.778   8.539   2.116  1.4229 -0.3802  2.1927
  570MOL0     H78615   8.710   8.598   2.267  0.2451 -1.7304  2.6212
  570MOL0     H78616   8.730   8.383   2.363  0.8678  0.1158  0.9952
  570MOL0     H78617   8.800   8.318   2.207 -1.0644 -0.3608 -0.0877
  570MOL0     H78618   9.178   8.501   2.257 -2.3747 -0.7096 -0.3262
  570MOL0     H78619   9.419   8.453   2.265  1.7545 -1.0158  0.4028
  570MOL0     H78620   9.458   8.286   2.258  1.1319  1.1723 -1.4694
  570MOL0     H78621   9.468   8.372   2.413  1.5723 -1.4230 -0.2526
  570MOL0     H78622   9.472   8.066   2.750 -0.7000  1.5348 -2.3776
  570MOL0     H78623   9.635   7.872   2.827 -1.3372 -1.9502 -0.5764
  570MOL0     H78624   9.880   7.902   2.824  2.4654 -0.9795  2.3859
  570MOL0     H78625   9.995   7.777   2.785 -1.7728  0.0617  3.3942
  570MOL0     H78626   9.925   8.042   2.645 -0.8580 -1.4835 -2.3664
  570MOL0     H78627  10.067   7.996   2.742  0.6313 -2.0813  1.1285
  570MOL0     H78628  10.016   7.914   2.450 -1.4739 -0.1282  1.1169
  570MOL0     H78629  10.134   7.836   2.553  2.8898  1.3842 -0.8919
  570MOL0     H78630  10.139   8.127   2.571 -2.9855 -0.9396 -1.0436
  570MOL0     H78631  10.173   8.075   2.409 -3.4828  2.7674  1.1988
  570MOL0     H78632  10.376   8.111   2.585 -1.6666  0.6037  1.3125
  570MOL0     H78633  10.329   7.973   2.667 -0.4444  1.7926  1.1257
  570MOL0     H78634  10.419   7.974   2.375  2.2578  1.2760  1.0930
  570MOL0     H78635  10.340   7.836   2.448 -0.0496  0.6394 -2.1232
  570MOL0     H78636  10.547   7.895   2.634  2.0305  0.1976 -0.3820
  570MOL0     H78637  10.601   7.980   2.480 -0.7548  1.4968  0.7217
  570MOL0     H78638  10.579   7.749   2.368  3.2572 -1.5650 -0.1389
  570MOL0     H78639  10.555   7.686   2.538 -0.5165  1.2921  0.4550
  570MOL0     H78640   9.774   7.853   2.423  0.2238  1.2563 -1.8712
  570MOL0     H78641   9.605   8.009   2.350  1.0940 -1.4575  0.0993
  570MOL0     H78642   9.076   8.048   2.431 -1.5719  0.5685 -4.3931
  570MOL0     H78643   8.896   8.197   2.379 -1.2240  1.4571 -0.9239
  570MOL0     H78644   7.474   7.874   2.263 -1.3531 -1.4114  0.5176
  570MOL0     H78645   7.235   7.925   2.175 -2.2957  0.7003  0.4654
  570MOL0     H78646   6.819   7.999   2.350 -0.6179 -0.4108  1.3921
  570MOL0     H78647   6.566   8.032   2.352 -0.0473 -0.2850 -1.7797
  570MOL0     H78648   6.377   8.369   2.478 -2.7009 -1.8391  0.3390
  570MOL0     H78649   6.382   8.428   2.307  0.4412 -0.1567 -0.4942
  570MOL0     H78650   6.181   8.209   2.383 -3.2707  1.0923  0.8216
  570MOL0     H78651   6.168   8.351   2.273  1.4287  2.0895 -1.0362
  570MOL0     H78652   6.186   8.374   2.576  0.5970  0.9587 -0.4562
  570MOL0     H78653   6.144   8.503   2.476 -0.1699 -0.1246  2.0030
  570MOL0     H78654   5.942   8.425   2.592  2.2538 -0.4371  1.5549
  570MOL0     H78655   5.994   8.251   2.562 -0.4546 -0.1511 -1.5851
  570MOL0     H78656   5.783   8.366   2.203 -0.5120 -0.3989  0.8265
  570MOL0     H78657   6.608   8.448   2.308  0.7316  0.3453  2.0425
  570MOL0     H78658   6.813   8.566   2.292 -1.0846 -0.8445 -3.0881
  570MOL0     H78659   6.903   8.476   2.431 -2.5944  0.8199  0.6219
  570MOL0     H78660   6.944   8.465   2.257  0.8321 -1.2105  0.1542
  571MOL0     O78661   7.300   7.547   4.595  0.0577 -0.1582 -0.0872
  571MOL0     C78662   7.253   7.657   4.572  1.2203 -0.2072 -0.7059
  571MOL0     O78663   7.315   7.776   4.571  0.7649  0.0705  0.3357
  571MOL0     C78664   7.440   7.775   4.531 -0.3244  0.7894  0.1174
  571MOL0     C78665   7.461   7.715   4.406  0.3271  0.3131 -0.1983
  571MOL0     C78666   7.596   7.701   4.362 -0.1982  0.5289  0.7004
  571MOL0     C78667   7.705   7.731   4.438  0.5887  0.0077 -0.7016
  571MOL0     O78668   7.827   7.699   4.387  0.0838  0.1733  0.2960
  571MOL0     C78669   7.916   7.650   4.490 -1.2155 -0.1057  0.4711
  571MOL0     C78670   8.034   7.573   4.424 -0.2776 -0.4151 -0.2663
  571MOL0     C78671   8.131   7.670   4.363  0.0319 -0.9805  0.2676
  571MOL0     C78672   8.107   7.695   4.209  0.0210  0.4207 -0.2639
  571MOL0     C78673   8.200   7.813   4.161 -0.3907  0.3292  0.6017
  571MOL0     C78674   8.350   7.773   4.166  0.1703 -0.0117 -0.6857
  571MOL0     C78675   8.427   7.893   4.105  0.2271  0.3679 -1.2371
  571MOL0     C78676   8.583   7.874   4.118  0.0932  0.3239  0.0560
  571MOL0     N78677   8.652   8.001   4.076  0.0885 -0.1949  0.5920
  571MOL0     C78678   8.636   8.122   4.138  0.1198  0.7241  0.2526
  571MOL0     C78679   8.710   8.212   4.060  0.4065  1.2135  0.1307
  571MOL0     C78680   8.709   8.364   4.080  0.2499  0.1271 -0.4670
  571MOL0     C78681   8.797   8.415   4.179  0.2207  0.5195  0.4418
  571MOL0     C78682   8.953   8.383   4.164  0.2793  0.0860 -0.6967
  571MOL0     C78683   9.003   8.453   4.035 -0.1484  0.6355 -0.1663
  571MOL0     O78684   9.143   8.454   4.024 -0.5969 -0.1638 -0.6957
  571MOL0     C78685   9.207   8.352   3.961  0.4638 -0.2693 -0.2415
  571MOL0     C78686   9.150   8.232   3.914 -0.6172 -0.1545  0.2192
  571MOL0     C78687   9.223   8.136   3.849  0.4976 -0.5819 -0.2444
  571MOL0     C78688   9.154   8.008   3.818  0.4273 -0.4284 -0.1725
  571MOL0     C78689   9.361   8.162   3.830 -0.1695  0.0749  0.5620
  571MOL0     C78690   9.458   8.061   3.776 -0.2196 -0.0523 -0.7278
  571MOL0     O78691   9.582   8.113   3.738  0.0074  0.4184  0.5716
  571MOL0     C78692   9.687   8.024   3.723  0.3131  0.1258 -1.0798
  571MOL0     C78693   9.694   7.935   3.619 -0.1026 -0.1997 -0.1710
  571MOL0     C78694   9.812   7.865   3.585  1.0487 -0.0459 -0.4730
  571MOL0     C78695   9.920   7.886   3.667  0.1164 -0.6136 -0.8111
  571MOL0     O78696  10.040   7.830   3.639 -0.6045  0.1929 -0.5005
  571MOL0     C78697  10.063   7.792   3.504  0.0825  0.0345 -0.3531
  571MOL0     C78698  10.217   7.820   3.481  0.0766  0.5463  0.5627
  571MOL0     C78699  10.268   7.709   3.385  0.0296  0.1186  0.6264
  571MOL0     C78700  10.422   7.730   3.365 -0.0910 -0.8640  0.1157
  571MOL0     C78701  10.506   7.603   3.342  0.4788 -0.0434  0.0982
  571MOL0     C78702  10.648   7.642   3.354  1.1330 -0.7044  0.0548
  571MOL0     C78703  10.735   7.531   3.314 -0.4954  1.2866  0.3137
  571MOL0     C78704  10.876   7.550   3.350 -1.2783  1.3131 -0.7021
  571MOL0    Cl78705  10.950   7.384   3.317 -0.1675  0.0251  0.2943
  571MOL0     C78706   9.909   7.971   3.780 -0.2917  0.4907 -0.5779
  571MOL0     C78707   9.793   8.044   3.807  0.2489 -0.1740  0.4725
  571MOL0     O78708   9.428   7.940   3.759  0.4493 -0.2373  0.0422
  571MOL0     C78709   9.419   8.280   3.877  0.3515 -1.3059 -0.9764
  571MOL0     C78710   9.337   8.375   3.944  0.4560 -0.7203  0.1338
  571MOL0     N78711   8.772   8.134   3.969  0.6682 -0.2618  0.4831
  571MOL0     N78712   8.746   8.011   3.979  0.1694  0.3447 -0.9329
  571MOL0     C78713   7.680   7.781   4.568  0.7664  0.6061 -0.0819
  571MOL0     C78714   7.552   7.812   4.612 -0.1717 -0.4307 -0.3221
  571MOL0     C78715   7.106   7.676   4.573 -0.7333 -0.0381  0.3561
  571MOL0     C78716   7.039   7.738   4.680  0.3352 -0.3801 -0.2012
  571MOL0     C78717   6.903   7.746   4.696  0.0739  0.0647 -0.7603
  571MOL0     C78718   6.825   7.699   4.599  0.9905  0.5716  0.2764
  571MOL0     O78719   6.688   7.707   4.598 -0.9923 -0.1767 -0.2517
  571MOL0     C78720   6.609   7.705   4.711  0.8802  1.0917 -0.3451
  571MOL0     C78721   6.456   7.677   4.699  0.2291 -0.0500 -0.1787
  571MOL0     C78722   6.373   7.813   4.660  0.5498  0.6697 -0.7521
  571MOL0     C78723   6.360   7.910   4.780  0.6937  0.1094  0.6316
  571MOL0     C78724   6.458   8.014   4.778  0.3027 -0.6351  0.4915
  571MOL0     C78725   6.538   8.108   4.774  0.2914 -0.0408  0.0129
  571MOL0     C78726   6.884   7.633   4.489 -0.4048  0.0229  0.7920
  571MOL0     C78727   7.018   7.616   4.477 -0.4375  0.6465 -0.2024
  571MOL0     C78728   7.067   7.534   4.361 -0.2466 -0.8367 -0.7429
  571MOL0     H78729   7.391   7.684   4.329 -0.0098  1.5427 -0.4084
  571MOL0     H78730   7.634   7.668   4.266 -1.5960 -2.1442  0.9652
  571MOL0     H78731   7.874   7.575   4.558  0.3851 -1.6721 -0.2212
  571MOL0     H78732   7.962   7.734   4.544  1.3566 -1.4366  0.4872
  571MOL0     H78733   8.083   7.511   4.499  2.7000  2.5983  0.4965
  571MOL0     H78734   7.999   7.510   4.341 -0.0864  0.2420 -0.8568
  571MOL0     H78735   8.136   7.766   4.415  0.5250  0.3574 -2.1069
  571MOL0     H78736   8.232   7.629   4.369 -0.1885 -1.8451 -1.3329
  571MOL0     H78737   8.123   7.602   4.152  1.2973  0.1656  0.4656
  571MOL0     H78738   8.001   7.716   4.194 -0.0814 -0.4182 -0.8241
  571MOL0     H78739   8.169   7.895   4.226 -2.6497 -0.2347  0.3164
  571MOL0     H78740   8.177   7.844   4.059  2.1015  0.7306  0.1071
  571MOL0     H78741   8.385   7.760   4.269 -1.0628  0.2027 -0.2257
  571MOL0     H78742   8.369   7.675   4.121 -1.3360 -1.9392  2.4861
  571MOL0     H78743   8.392   7.981   4.158 -2.2243 -2.0447  1.4895
  571MOL0     H78744   8.408   7.908   3.998  1.5715  1.4334 -1.3504
  571MOL0     H78745   8.609   7.852   4.222 -1.3836  0.3928  0.4635
  571MOL0     H78746   8.610   7.793   4.050  0.8698 -0.3797  1.1728
  571MOL0     H78747   8.576   8.138   4.227 -0.6538 -0.0093 -0.1291
  571MOL0     H78748   8.609   8.401   4.103 -0.7598 -2.1808 -0.8057
  571MOL0     H78749   8.736   8.404   3.982 -1.4485 -2.3257 -2.0452
  571MOL0     H78750   8.784   8.524   4.174  0.5686  0.6212  1.5579
  571MOL0     H78751   8.761   8.389   4.279  1.6699  1.8971  1.3838
  571MOL0     H78752   9.015   8.419   4.247 -2.3963 -0.9798  1.9327
  571MOL0     H78753   8.962   8.274   4.175 -0.6177  0.1368  0.9289
  571MOL0     H78754   8.957   8.407   3.947 -4.2836  4.8104 -0.5144
  571MOL0     H78755   8.988   8.560   4.049 -1.8905  0.6977 -2.1170
  571MOL0     H78756   9.045   8.212   3.934 -0.3493  0.1401  2.1275
  571MOL0     H78757   9.169   7.935   3.898 -2.0280 -0.2879  0.4969
  571MOL0     H78758   9.187   7.961   3.725 -0.5539  0.0209 -0.7660
  571MOL0     H78759   9.045   8.021   3.810 -0.0334 -3.4110  0.0123
  571MOL0     H78760   9.605   7.933   3.556 -1.4183  1.0118  1.5488
  571MOL0     H78761   9.810   7.790   3.507  0.4065 -0.9085  0.3480
  571MOL0     H78762  10.028   7.691   3.482  0.9064 -0.0168 -1.5383
  571MOL0     H78763  10.017   7.857   3.429  1.8442  0.4731 -1.1167
  571MOL0     H78764  10.223   7.915   3.428  0.6785  0.1149 -0.1663
  571MOL0     H78765  10.264   7.824   3.580  0.1481 -0.7768  0.6030
  571MOL0     H78766  10.211   7.713   3.292 -1.8479 -1.6833  1.6264
  571MOL0     H78767  10.251   7.610   3.429 -2.4375 -0.6690 -1.8451
  571MOL0     H78768  10.452   7.769   3.463 -1.1898 -1.0030  0.5229
  571MOL0     H78769  10.436   7.808   3.290  0.2399 -1.6381 -0.6411
  571MOL0     H78770  10.474   7.536   3.422  0.4706  0.0197  0.1473
  571MOL0     H78771  10.481   7.559   3.245 -1.5427 -1.0165  0.9909
  571MOL0     H78772  10.665   7.684   3.454 -4.6908  0.7030  0.8091
  571MOL0     H78773  10.665   7.722   3.281 -2.0416  1.9291  1.9108
  571MOL0     H78774  10.741   7.514   3.206 -1.5548 -3.1012  0.7518
  571MOL0     H78775  10.692   7.438   3.352 -2.3610  2.1657  0.4278
  571MOL0     H78776  10.882   7.568   3.458  2.8998 -2.3505 -0.0603
  571MOL0     H78777  10.917   7.632   3.290 -0.8973 -0.3573 -2.8582
  571MOL0     H78778  10.001   7.972   3.836  0.3000  1.0788 -1.5233
  571MOL0     H78779   9.784   8.108   3.895  0.5159 -0.1000  0.4480
  571MOL0     H78780   9.525   8.301   3.868  0.7558 -3.6130 -2.2706
  571MOL0     H78781   9.388   8.466   3.973  0.4900 -0.7143  0.0547
  571MOL0     H78782   7.760   7.813   4.635 -0.7227  0.1920  1.9993
  571MOL0     H78783   7.521   7.851   4.709 -0.6169 -0.2328 -0.5376
  571MOL0     H78784   7.098   7.770   4.765 -0.2196  3.0224 -0.9707
  571MOL0     H78785   6.869   7.790   4.789  3.4636  0.1405  0.5949
  571MOL0     H78786   6.640   7.620   4.773  2.4718 -0.9101 -3.6475
  571MOL0     H78787   6.627   7.798   4.767 -1.3708  1.0151  0.6270
  571MOL0     H78788   6.425   7.642   4.798  1.2096  0.6538  0.3935
  571MOL0     H78789   6.432   7.603   4.622  0.3851  0.8092 -1.0830
  571MOL0     H78790   6.400   7.870   4.570 -2.5705  1.0600 -1.5400
  571MOL0     H78791   6.273   7.771   4.646  0.8243 -0.4949  0.5490
  571MOL0     H78792   6.384   7.853   4.870 -1.8324  0.0597  1.3598
  571MOL0     H78793   6.257   7.948   4.776  0.3363 -0.7219  1.6433
  571MOL0     H78794   6.601   8.195   4.772 -1.5140  1.4716  2.5134
  571MOL0     H78795   6.813   7.589   4.420  0.0698 -1.0607  0.9887
  571MOL0     H78796   6.980   7.498   4.305 -0.4631 -0.0633 -0.9100
  571MOL0     H78797   7.123   7.593   4.287  3.7467 -0.1408  2.4488
  571MOL0     H78798   7.132   7.455   4.400  0.3649 -0.2713 -0.5980
  572MOL0     O78799   1.754   5.034   2.472  0.0673 -0.4604  0.1963
  572MOL0     C78800   1.727   5.043   2.354 -0.2650  0.1130  0.3457
  572MOL0     O78801   1.759   5.146   2.268 -0.4046  0.2721 -0.4678
  572MOL0     C78802   1.818   5.258   2.323 -1.0009 -0.0265 -0.3105
  572MOL0     C78803   1.955   5.256   2.360  0.4241 -0.2449 -0.2408
  572MOL0     C78804   2.001   5.369   2.430 -0.2429 -0.0144 -0.4126
  572MOL0     C78805   1.913   5.480   2.450 -0.1768 -0.0241  0.3300
  572MOL0     O78806   1.952   5.578   2.535  0.1665 -0.5627 -0.4691
  572MOL0     C78807   1.997   5.701   2.459  0.8763  1.1636 -0.5741
  572MOL0     C78808   2.137   5.740   2.505 -0.4110 -0.0332 -0.1597
  572MOL0     C78809   2.145   5.785   2.656  0.6465 -0.3547  0.7509
  572MOL0     C78810   2.290   5.800   2.699 -0.4112  0.1223 -0.0393
  572MOL0     C78811   2.291   5.893   2.821 -1.1418  0.4742 -0.7218
  572MOL0     C78812   2.434   5.931   2.875 -0.7182  0.5040  0.9686
  572MOL0     C78813   2.412   6.023   3.002 -0.6175  0.1566  0.7780
  572MOL0     C78814   2.545   6.083   3.068  0.4058  0.1797 -0.1732
  572MOL0     N78815   2.514   6.195   3.159 -0.6435  0.3304  0.2172
  572MOL0     C78816   2.387   6.222   3.200 -0.0875 -0.0014 -0.0423
  572MOL0     C78817   2.383   6.346   3.255 -0.7529  0.1740 -0.1691
  572MOL0     C78818   2.262   6.410   3.320 -0.0767 -0.6424 -0.9513
  572MOL0     C78819   2.291   6.433   3.469 -0.0413  0.3080 -0.0539
  572MOL0     C78820   2.365   6.574   3.487  0.3865  1.0833  0.6261
  572MOL0     C78821   2.416   6.590   3.631  0.0493  0.2650  0.2258
  572MOL0     O78822   2.485   6.715   3.636  0.6690  0.0513  0.0774
  572MOL0     C78823   2.533   6.756   3.758 -0.5444  0.1228  0.4548
  572MOL0     C78824   2.523   6.680   3.876  0.8822 -0.4328 -0.1811
  572MOL0     C78825   2.583   6.725   3.993  0.4533 -0.4412  0.0451
  572MOL0     C78826   2.581   6.622   4.102  0.0058 -0.2702  0.1511
  572MOL0     C78827   2.646   6.855   3.994  0.8083  1.3602 -0.8026
  572MOL0     C78828   2.716   6.900   4.118 -0.9308  0.7168 -0.1889
  572MOL0     O78829   2.812   6.994   4.088  0.1419  0.2358 -0.2453
  572MOL0     C78830   2.912   6.998   4.178 -1.3029  0.5263  0.1178
  572MOL0     C78831   2.888   7.044   4.312 -1.0626  0.7907 -0.6590
  572MOL0     C78832   2.986   7.043   4.410  0.0801  0.6442  0.0655
  572MOL0     C78833   3.108   6.986   4.388 -0.1852 -0.1700 -0.6688
  572MOL0     O78834   3.204   7.010   4.480 -0.4957  0.1974 -0.6544
  572MOL0     C78835   3.344   6.962   4.466 -0.3661 -0.1810  1.0698
  572MOL0     C78836   3.411   7.055   4.356  0.4433  0.5605 -0.2696
  572MOL0     C78837   3.559   7.014   4.348 -0.6865  0.6755 -0.1911
  572MOL0     C78838   3.629   7.098   4.249  0.4335  1.0655 -0.3066
  572MOL0     C78839   3.768   7.038   4.202 -0.4156 -0.0822 -0.4460
  572MOL0     C78840   3.759   6.915   4.115  0.2301 -0.2812  0.0691
  572MOL0     C78841   3.898   6.869   4.068  0.1218  0.1997 -0.6886
  572MOL0     C78842   3.893   6.755   3.974 -0.3282  0.9432  0.8791
  572MOL0    Cl78843   3.785   6.786   3.833 -0.0630 -0.3206 -0.3104
  572MOL0     C78844   3.127   6.927   4.262 -0.7524  0.7457 -0.2615
  572MOL0     C78845   3.035   6.928   4.157 -0.3069 -0.4115 -0.1160
  572MOL0     O78846   2.669   6.876   4.226  0.0606  0.4801 -0.4268
  572MOL0     C78847   2.653   6.928   3.872  0.1021  0.2526 -0.5734
  572MOL0     C78848   2.601   6.878   3.757 -0.4407 -0.4104 -0.0762
  572MOL0     N78849   2.511   6.392   3.251 -0.9307  0.3385  0.1522
  572MOL0     N78850   2.590   6.305   3.188  0.4112  0.7870  0.3880
  572MOL0     C78851   1.783   5.481   2.397 -0.0055  0.5316  0.9071
  572MOL0     C78852   1.745   5.368   2.327  0.1417 -0.9846  0.0059
  572MOL0     C78853   1.655   4.934   2.289 -0.3592  0.7373  0.1887
  572MOL0     C78854   1.544   4.972   2.218  0.2519  0.0821 -0.8659
  572MOL0     C78855   1.473   4.882   2.144  0.2152  0.4671 -0.3287
  572MOL0     C78856   1.515   4.745   2.142  0.1674 -0.2400 -0.0879
  572MOL0     O78857   1.439   4.662   2.048 -0.4576 -0.1541 -0.6452
  572MOL0     C78858   1.486   4.527   2.025  0.3713 -1.1151 -0.5573
  572MOL0     C78859   1.381   4.461   1.932 -0.0394 -0.3838 -0.0426
  572MOL0     C78860   1.238   4.439   1.991  1.0755  0.0108 -1.1270
  572MOL0     C78861   1.217   4.425   2.143  0.5330  0.5045  0.9490
  572MOL0     C78862   1.080   4.407   2.168 -0.2343 -0.4626  0.0199
  572MOL0     C78863   0.964   4.413   2.184 -0.1982 -0.4828  0.8148
  572MOL0     C78864   1.627   4.709   2.217 -0.3451  0.1132  0.2831
  572MOL0     C78865   1.702   4.800   2.292  0.5226 -0.4991 -0.2553
  572MOL0     C78866   1.829   4.760   2.365 -0.0421 -0.7409 -0.6244
  572MOL0     H78867   2.010   5.164   2.343  2.0503  0.5279  0.5707
  572MOL0     H78868   2.101   5.368   2.471  0.9284  0.7558 -3.0392
  572MOL0     H78869   1.923   5.780   2.472 -0.7566 -0.2489 -0.7621
  572MOL0     H78870   2.005   5.682   2.351  1.5321 -0.5275 -0.2590
  572MOL0     H78871   2.195   5.648   2.492 -1.5348 -0.8052  0.1871
  572MOL0     H78872   2.180   5.815   2.437  1.8287 -0.7013  0.4317
  572MOL0     H78873   2.094   5.880   2.673 -0.8792 -0.4724 -2.4563
  572MOL0     H78874   2.099   5.709   2.720  1.0327 -0.6998  0.6209
  572MOL0     H78875   2.325   5.701   2.728  0.3848  0.1908 -0.7355
  572MOL0     H78876   2.346   5.844   2.616  2.3382 -0.2883  1.5005
  572MOL0     H78877   2.240   5.846   2.906 -1.5475  0.4434 -0.9804
  572MOL0     H78878   2.231   5.981   2.796 -4.4910 -1.0223  1.2505
  572MOL0     H78879   2.497   5.843   2.893  0.6265  0.4977 -2.8321
  572MOL0     H78880   2.481   5.982   2.790 -0.7899 -1.6064 -0.4138
  572MOL0     H78881   2.363   5.961   3.078 -0.4862  0.7997  1.4011
  572MOL0     H78882   2.350   6.104   2.961 -2.8690 -1.9665 -0.3200
  572MOL0     H78883   2.593   6.007   3.130 -1.3767 -2.0461 -1.3646
  572MOL0     H78884   2.615   6.110   2.988  0.0534  0.7779 -0.2890
  572MOL0     H78885   2.297   6.162   3.188  0.7610 -1.3086 -0.0863
  572MOL0     H78886   2.175   6.345   3.305 -3.3877  3.5062 -1.7337
  572MOL0     H78887   2.227   6.503   3.274 -3.7135  0.1729  2.8106
  572MOL0     H78888   2.193   6.451   3.515  0.6959 -0.8328  2.1037
  572MOL0     H78889   2.342   6.354   3.525  0.5000  0.0450 -0.8977
  572MOL0     H78890   2.452   6.565   3.421 -0.3534  3.8884 -0.8716
  572MOL0     H78891   2.309   6.655   3.440 -1.9130  0.3070  1.8637
  572MOL0     H78892   2.336   6.586   3.705  0.3677  0.1074  0.5639
  572MOL0     H78893   2.492   6.512   3.647 -0.4770 -0.2979  0.0183
  572MOL0     H78894   2.465   6.589   3.869  0.1308  0.0250  0.0324
  572MOL0     H78895   2.664   6.634   4.172  0.8887  0.2588 -0.9619
  572MOL0     H78896   2.606   6.528   4.051  0.7921  1.6227 -3.2666
  572MOL0     H78897   2.493   6.633   4.165  1.4516  1.1310  2.0387
  572MOL0     H78898   2.795   7.097   4.330 -0.0573  2.3769  0.1508
  572MOL0     H78899   2.944   7.089   4.499  0.2552 -1.5509  1.3799
  572MOL0     H78900   3.408   6.957   4.555  1.6448 -3.6269 -0.4058
  572MOL0     H78901   3.345   6.859   4.432  2.1502 -0.0780  0.6769
  572MOL0     H78902   3.364   7.034   4.260  0.0414 -0.7184  0.1731
  572MOL0     H78903   3.404   7.161   4.380  2.1863  1.1277 -2.0151
  572MOL0     H78904   3.561   6.912   4.308 -0.2016  0.8475 -0.6231
  572MOL0     H78905   3.616   7.009   4.442  1.0062 -0.9336 -1.2123
  572MOL0     H78906   3.636   7.195   4.299 -0.4500  0.0399  1.9359
  572MOL0     H78907   3.576   7.110   4.154  0.7208 -3.0864 -1.1899
  572MOL0     H78908   3.815   7.122   4.149 -2.0711  1.3467  0.2696
  572MOL0     H78909   3.824   7.015   4.292 -1.1820 -0.8373 -0.1546
  572MOL0     H78910   3.705   6.948   4.026  0.8512  0.2928 -0.1008
  572MOL0     H78911   3.711   6.831   4.167  1.4524 -0.5174  0.8495
  572MOL0     H78912   3.960   6.845   4.155  1.1453 -1.1816 -1.7470
  572MOL0     H78913   3.944   6.953   4.016 -0.7493  0.9958 -0.1875
  572MOL0     H78914   3.847   6.663   4.011  3.0536 -1.6691 -0.9031
  572MOL0     H78915   3.991   6.720   3.943  0.0444  0.5297  2.4418
  572MOL0     H78916   3.221   6.873   4.250 -0.6561  1.1124 -1.2034
  572MOL0     H78917   3.054   6.873   4.065  2.7787 -1.3731  0.9501
  572MOL0     H78918   2.713   7.018   3.872 -0.7791  0.8738  0.5923
  572MOL0     H78919   2.613   6.931   3.664 -0.9744  1.0870  0.6781
  572MOL0     H78920   1.713   5.563   2.404  0.7204  1.3034 -0.4291
  572MOL0     H78921   1.641   5.360   2.300  0.5497  1.2794 -2.7479
  572MOL0     H78922   1.516   5.077   2.221  0.3990  0.1124 -0.4058
  572MOL0     H78923   1.393   4.913   2.078  1.9914  1.5796 -2.0626
  572MOL0     H78924   1.586   4.515   1.981  0.7153 -3.0672  0.6155
  572MOL0     H78925   1.495   4.469   2.117 -2.1318 -0.7234 -0.0030
  572MOL0     H78926   1.423   4.362   1.911  0.4826  0.5515 -4.2429
  572MOL0     H78927   1.373   4.518   1.839 -3.9230  1.6324  1.3030
  572MOL0     H78928   1.177   4.528   1.972 -1.2781 -1.3824 -0.4677
  572MOL0     H78929   1.190   4.361   1.932  0.5214  0.5292 -1.3771
  572MOL0     H78930   1.261   4.510   2.197  2.1610  2.0302 -2.4249
  572MOL0     H78931   1.278   4.338   2.167  0.5182 -1.1409 -3.8546
  572MOL0     H78932   0.860   4.429   2.199 -0.7969 -2.5601 -0.6412
  572MOL0     H78933   1.674   4.613   2.199  0.8232  0.6795  0.2378
  572MOL0     H78934   1.807   4.748   2.471 -0.7716 -1.3654 -0.8342
  572MOL0     H78935   1.883   4.671   2.329  1.5007  0.2293 -0.7892
  572MOL0     H78936   1.896   4.845   2.348 -0.2989  0.1194  2.2585
  573MOL0     O78937   7.470   6.026   8.507 -0.4643  0.1635 -0.6804
  573MOL0     C78938   7.390   5.939   8.548 -0.5540  0.6161  0.6502
  573MOL0     O78939   7.428   5.802   8.577 -0.5434  0.3951  0.2486
  573MOL0     C78940   7.564   5.769   8.564  0.2289 -0.2379 -0.0177
  573MOL0     C78941   7.626   5.785   8.445 -0.0255 -0.4524  0.4912
  573MOL0     C78942   7.751   5.727   8.421  0.1365 -0.0251 -0.1038
  573MOL0     C78943   7.823   5.666   8.529 -0.3025  0.0130 -0.0797
  573MOL0     O78944   7.951   5.625   8.535  0.4617  0.6417  0.7399
  573MOL0     C78945   8.003   5.568   8.417  0.2470  0.4628  0.0058
  573MOL0     C78946   8.160   5.564   8.414  0.4810 -0.2697  0.3327
  573MOL0     C78947   8.233   5.481   8.306  0.1587 -0.1116  0.3368
  573MOL0     C78948   8.382   5.487   8.314  0.2572 -0.1710 -0.0382
  573MOL0     C78949   8.463   5.382   8.240  0.1760  0.3826  0.6849
  573MOL0     C78950   8.433   5.238   8.291  0.4506 -0.1865  0.9338
  573MOL0     C78951   8.445   5.231   8.452 -0.1329 -0.3423  0.3500
  573MOL0     C78952   8.429   5.078   8.499  0.3885  0.1872 -0.3403
  573MOL0     N78953   8.455   5.046   8.642  0.2303  0.4870 -0.5618
  573MOL0     C78954   8.541   4.945   8.677 -0.0798 -0.0711  0.1336
  573MOL0     C78955   8.534   4.945   8.814 -0.6166 -0.1110  0.5830
  573MOL0     C78956   8.612   4.854   8.901 -0.1761 -0.1460  0.2172
  573MOL0     C78957   8.552   4.715   8.885 -0.2243  0.2634  1.0245
  573MOL0     C78958   8.593   4.627   9.001 -0.0010  0.0262  0.4029
  573MOL0     C78959   8.738   4.588   9.005  0.2779 -0.2134 -0.8879
  573MOL0     O78960   8.790   4.541   8.885  0.0612 -0.5240 -1.2214
  573MOL0     C78961   8.917   4.478   8.888  0.4585 -0.2429 -0.2543
  573MOL0     C78962   8.958   4.430   8.763  0.0279 -0.0764  0.0565
  573MOL0     C78963   9.081   4.377   8.737 -0.1210 -0.3024 -0.5425
  573MOL0     C78964   9.097   4.305   8.604  0.0644  0.4322 -0.8569
  573MOL0     C78965   9.187   4.389   8.832  0.5391  0.2461  0.3078
  573MOL0     C78966   9.321   4.337   8.817 -0.8183  0.0866  0.8365
  573MOL0     O78967   9.408   4.379   8.908  0.0825 -0.9122 -0.5325
  573MOL0     C78968   9.540   4.355   8.898 -0.2548 -0.4331 -1.6097
  573MOL0     C78969   9.587   4.221   8.914  0.0699 -0.2301  0.4369
  573MOL0     C78970   9.727   4.206   8.891 -0.4869  0.8599  0.2044
  573MOL0     C78971   9.815   4.308   8.859  0.1952 -0.6062  0.5673
  573MOL0     O78972   9.951   4.286   8.832  0.0383  0.2367  0.3010
  573MOL0     C78973  10.043   4.264   8.937 -0.1611 -0.3217 -0.7179
  573MOL0     C78974  10.148   4.164   8.892  0.2118 -0.3654 -0.3642
  573MOL0     C78975  10.257   4.235   8.808  0.6527  0.5139 -1.1014
  573MOL0     C78976  10.347   4.132   8.741 -0.3745 -0.2088  0.3691
  573MOL0     C78977  10.472   4.201   8.689 -0.0258  0.2461 -0.0275
  573MOL0     C78978  10.564   4.098   8.620 -0.0721 -0.1828 -0.1827
  573MOL0     C78979  10.677   4.057   8.715  0.0283 -0.6785  0.1447
  573MOL0     C78980  10.781   3.964   8.665  0.0222 -0.2748  0.3547
  573MOL0    Cl78981  10.881   4.025   8.534 -0.6782  0.3646  0.0823
  573MOL0     C78982   9.757   4.442   8.848 -0.5354 -0.3951  0.4889
  573MOL0     C78983   9.625   4.462   8.880 -0.0498 -0.1593  0.4388
  573MOL0     O78984   9.341   4.260   8.725  0.5776 -0.6630  0.8378
  573MOL0     C78985   9.149   4.426   8.966 -0.0536  0.0880  0.1313
  573MOL0     C78986   9.019   4.477   8.993 -0.1056  0.7352 -0.9812
  573MOL0     N78987   8.447   5.047   8.850  0.3858 -0.0296  0.2976
  573MOL0     N78988   8.403   5.110   8.750  0.1287 -0.2074 -0.3689
  573MOL0     C78989   7.767   5.664   8.660 -0.8167  0.2999  0.4419
  573MOL0     C78990   7.638   5.711   8.668 -0.0026  0.3822  0.7874
  573MOL0     C78991   7.247   5.960   8.554 -0.3493 -0.9295  0.4910
  573MOL0     C78992   7.169   5.863   8.504  0.2772  0.8972  0.0781
  573MOL0     C78993   7.027   5.876   8.509 -0.0675 -0.5228  0.7601
  573MOL0     C78994   6.973   5.985   8.578  0.3622 -0.2001 -0.3826
  573MOL0     O78995   6.838   5.993   8.612 -0.9918  0.7639 -0.6137
  573MOL0     C78996   6.776   6.102   8.543  0.6656  0.3169 -0.3608
  573MOL0     C78997   6.662   6.153   8.635  0.1271 -0.7238 -0.2953
  573MOL0     C78998   6.712   6.231   8.761  0.6364  0.4143 -0.1182
  573MOL0     C78999   6.599   6.250   8.865 -0.4431 -0.0710  0.1048
  573MOL0     C79000   6.480   6.304   8.795 -0.3091 -0.1573  0.2713
  573MOL0     C79001   6.389   6.362   8.739  0.8554  0.0002 -0.4355
  573MOL0     C79002   7.052   6.083   8.622 -0.4293  0.5717 -1.3969
  573MOL0     C79003   7.192   6.078   8.603  0.2121 -0.3466  0.4568
  573MOL0     C79004   7.268   6.191   8.670 -0.3497 -0.6938  0.0960
  573MOL0     H79005   7.583   5.830   8.356  0.5971  1.2188  0.9996
  573MOL0     H79006   7.793   5.733   8.321  0.6201 -0.1177  0.0903
  573MOL0     H79007   7.976   5.626   8.329  0.3139  2.1975  1.0648
  573MOL0     H79008   7.969   5.465   8.405  1.9970 -0.1874  0.3314
  573MOL0     H79009   8.206   5.663   8.427  0.7818 -0.5313  1.3859
  573MOL0     H79010   8.185   5.513   8.508 -0.0800 -1.3127 -0.0694
  573MOL0     H79011   8.206   5.376   8.318 -0.6706 -0.3773 -2.9276
  573MOL0     H79012   8.217   5.500   8.199  2.4787 -1.1139 -0.2605
  573MOL0     H79013   8.401   5.587   8.274 -0.0862  0.5298  1.4999
  573MOL0     H79014   8.415   5.493   8.418  1.9478  0.1454 -0.5483
  573MOL0     H79015   8.570   5.407   8.249  0.6350 -1.4586  0.8458
  573MOL0     H79016   8.439   5.382   8.134  1.2355 -2.6132  0.3392
  573MOL0     H79017   8.332   5.217   8.253  1.6757 -2.4043 -1.3746
  573MOL0     H79018   8.496   5.160   8.247 -2.5019 -0.1102 -4.3214
  573MOL0     H79019   8.375   5.288   8.514 -3.6906 -2.5596 -1.3408
  573MOL0     H79020   8.544   5.268   8.482 -0.4417  1.3536 -0.6004
  573MOL0     H79021   8.329   5.042   8.471  0.3868  1.2286 -1.7587
  573MOL0     H79022   8.500   5.023   8.437  1.0115 -0.2853  0.7720
  573MOL0     H79023   8.592   4.873   8.615  1.3369  0.9046  0.1296
  573MOL0     H79024   8.604   4.889   9.004 -2.1888 -3.4505  1.3269
  573MOL0     H79025   8.715   4.862   8.864 -0.6904 -1.2804 -1.6172
  573MOL0     H79026   8.443   4.715   8.893 -0.6738 -0.7749 -2.7544
  573MOL0     H79027   8.576   4.679   8.784 -2.9790  0.9560  0.0166
  573MOL0     H79028   8.566   4.678   9.094 -2.7636  2.3877 -1.5294
  573MOL0     H79029   8.529   4.538   9.002  0.7417 -0.5115  0.6731
  573MOL0     H79030   8.797   4.675   9.036  2.8896 -2.5800  1.3196
  573MOL0     H79031   8.769   4.524   9.088 -1.6241 -0.7441 -0.5400
  573MOL0     H79032   8.879   4.427   8.688 -0.6463 -0.2628  0.7629
  573MOL0     H79033   9.109   4.198   8.621 -1.5743  0.3579  0.0190
  573MOL0     H79034   9.185   4.341   8.550  0.4407  0.8409  0.0112
  573MOL0     H79035   9.009   4.321   8.540  0.1845  1.1434 -0.8552
  573MOL0     H79036   9.528   4.136   8.946 -0.4044 -0.0721 -0.0098
  573MOL0     H79037   9.771   4.108   8.901 -1.1372  0.6941  1.7715
  573MOL0     H79038  10.092   4.354   8.976 -2.8394  1.1608 -0.5395
  573MOL0     H79039   9.992   4.229   9.027 -2.1394  2.6081 -0.5594
  573MOL0     H79040  10.187   4.114   8.981 -1.1108  1.3528  1.2504
  573MOL0     H79041  10.098   4.083   8.838  0.0760 -1.3811  1.1935
  573MOL0     H79042  10.310   4.301   8.878 -0.0903  1.7927 -1.7369
  573MOL0     H79043  10.212   4.302   8.735  0.1168 -0.2461 -1.4828
  573MOL0     H79044  10.289   4.091   8.658 -2.3538 -0.4195  1.7943
  573MOL0     H79045  10.371   4.053   8.812  1.5320  0.8957  1.0138
  573MOL0     H79046  10.434   4.280   8.623  0.9236  0.9004  0.1945
  573MOL0     H79047  10.518   4.257   8.771 -2.3630 -0.7309  2.0832
  573MOL0     H79048  10.613   4.141   8.532 -0.2360  1.5726  0.5452
  573MOL0     H79049  10.502   4.012   8.592 -1.1377  0.9510 -1.4282
  573MOL0     H79050  10.650   4.004   8.807  1.0997 -0.0804  0.8317
  573MOL0     H79051  10.727   4.151   8.741 -0.5639 -0.7612  1.7110
  573MOL0     H79052  10.737   3.870   8.632  3.2897 -1.7419 -0.2497
  573MOL0     H79053  10.836   3.933   8.755  0.8092 -2.5508 -0.8248
  573MOL0     H79054   9.823   4.523   8.820 -1.3015  0.5579  1.3437
  573MOL0     H79055   9.585   4.563   8.874  3.1015  1.3276  1.6770
  573MOL0     H79056   9.212   4.426   9.055  1.1154  0.9718 -0.6679
  573MOL0     H79057   8.993   4.506   9.095  2.0641  0.9706 -0.4450
  573MOL0     H79058   7.823   5.623   8.743  1.5336  3.4696  0.6217
  573MOL0     H79059   7.602   5.720   8.769  2.5903  3.2119  1.6272
  573MOL0     H79060   7.210   5.776   8.455 -2.0321  0.3486 -1.0241
  573MOL0     H79061   6.960   5.799   8.473 -0.9368  1.3052 -1.8207
  573MOL0     H79062   6.845   6.182   8.513 -0.5626  1.9159  0.8859
  573MOL0     H79063   6.732   6.060   8.452  1.7234  0.3925 -0.9253
  573MOL0     H79064   6.598   6.068   8.661  0.7903 -1.3543 -0.7185
  573MOL0     H79065   6.586   6.211   8.581 -0.0894 -1.2172 -0.5228
  573MOL0     H79066   6.790   6.167   8.803  1.2549  2.8525  2.8364
  573MOL0     H79067   6.765   6.323   8.732 -0.0418  2.1733  3.6519
  573MOL0     H79068   6.625   6.319   8.946  0.8893 -1.5105  0.9488
  573MOL0     H79069   6.574   6.156   8.914  1.7578 -1.3999 -1.1575
  573MOL0     H79070   6.305   6.397   8.683  1.8017 -1.8230 -3.1795
  573MOL0     H79071   7.009   6.169   8.673 -0.7164 -0.8694  0.9358
  573MOL0     H79072   7.343   6.148   8.738 -1.3324  0.6698  2.1284
  573MOL0     H79073   7.298   6.255   8.587 -6.3288 -0.7918 -2.6180
  573MOL0     H79074   7.212   6.266   8.726 -2.1891 -2.5213  0.8504
  574MOL0     O79075   4.598  10.298   2.440  0.5692 -0.1266 -0.3483
  574MOL0     C79076   4.524  10.391   2.470  0.1783  0.1792  0.0296
  574MOL0     O79077   4.556  10.507   2.530 -0.0418 -0.3899 -0.2953
  574MOL0     C79078   4.688  10.526   2.553 -0.2848  0.5119  0.4696
  574MOL0     C79079   4.723  10.570   2.680 -0.0003 -0.2352  0.1759
  574MOL0     C79080   4.856  10.567   2.724  1.2373 -0.3177 -0.2235
  574MOL0     C79081   4.959  10.542   2.629  0.2857  0.0631 -0.0751
  574MOL0     O79082   5.091  10.549   2.658  0.5170 -0.7310 -0.3352
  574MOL0     C79083   5.128  10.571   2.790 -0.5255 -0.7087  0.5999
  574MOL0     C79084   5.283  10.535   2.786 -0.4683 -0.0905 -0.0529
  574MOL0     C79085   5.373  10.657   2.745  0.8210 -0.3106 -0.1461
  574MOL0     C79086   5.526  10.637   2.781  0.8453 -0.0081 -0.3468
  574MOL0     C79087   5.613  10.723   2.686  0.4970  0.0669 -0.0181
  574MOL0     C79088   5.767  10.685   2.704 -0.1554 -0.1726 -0.5948
  574MOL0     C79089   5.865  10.747   2.612 -0.6616  0.0362  0.0652
  574MOL0     C79090   6.011  10.704   2.609  0.7980 -0.3244  0.2635
  574MOL0     N79091   6.030  10.593   2.514 -0.2266  0.4145 -0.0072
  574MOL0     C79092   6.039  10.610   2.375  0.5958 -0.6789 -0.5249
  574MOL0     C79093   6.115  10.511   2.328 -0.3439  0.4892 -0.3782
  574MOL0     C79094   6.145  10.473   2.178 -0.2123  0.0324  0.9574
  574MOL0     C79095   6.289  10.512   2.138  0.3621 -0.1574 -0.0548
  574MOL0     C79096   6.398  10.462   2.225 -0.0197 -0.5205 -0.0196
  574MOL0     C79097   6.381  10.311   2.252  0.0618  0.8584  0.4156
  574MOL0     O79098   6.442  10.241   2.140  0.0249  0.3749 -0.4360
  574MOL0     C79099   6.577  10.208   2.137 -0.4258 -0.3088 -0.1638
  574MOL0     C79100   6.668  10.253   2.227  0.0064  0.0471 -0.8292
  574MOL0     C79101   6.807  10.239   2.217 -0.3388 -1.0340  0.3191
  574MOL0     C79102   6.894  10.316   2.310 -0.4892 -0.5608  0.1231
  574MOL0     C79103   6.856  10.157   2.113 -0.7071 -0.1041  0.2491
  574MOL0     C79104   7.004  10.132   2.109  0.2428  0.2671 -0.5684
  574MOL0     O79105   7.072  10.132   2.228 -0.3381 -1.0034  0.8062
  574MOL0     C79106   7.205  10.133   2.242 -0.0746 -0.6702 -0.3225
  574MOL0     C79107   7.247  10.107   2.364 -0.1674 -0.2256  0.3787
  574MOL0     C79108   7.387  10.107   2.401 -0.7768  0.4012  0.1655
  574MOL0     C79109   7.479  10.140   2.307  0.1092 -0.0220  0.0242
  574MOL0     O79110   7.612  10.156   2.333 -0.1609  0.5198  0.6246
  574MOL0     C79111   7.663  10.182   2.465  0.0571  0.2509  0.0394
  574MOL0     C79112   7.811  10.193   2.478  0.7743  0.6147  0.2561
  574MOL0     C79113   7.867  10.056   2.436 -0.4412 -0.1868 -1.2399
  574MOL0     C79114   8.017  10.063   2.477  0.3088 -0.6830  0.1796
  574MOL0     C79115   8.110   9.952   2.424  0.4872  1.1020 -0.2311
  574MOL0     C79116   8.254   9.950   2.472 -0.1855 -0.6657 -0.1598
  574MOL0     C79117   8.327  10.078   2.465 -0.7729  0.4110 -0.6241
  574MOL0     C79118   8.469  10.068   2.518  0.3135 -0.0386  1.0523
  574MOL0    Cl79119   8.532  10.233   2.540 -0.0804  0.1365  0.2503
  574MOL0     C79120   7.431  10.159   2.176 -0.8432 -1.0231 -0.4708
  574MOL0     C79121   7.296  10.152   2.138 -0.0210 -0.2046 -0.3221
  574MOL0     O79122   7.041  10.089   2.000  0.5012 -0.1675  0.5584
  574MOL0     C79123   6.761  10.088   2.027 -0.2279 -0.0611 -0.8259
  574MOL0     C79124   6.624  10.133   2.029  0.1275  1.0873 -0.7267
  574MOL0     N79125   6.144  10.426   2.436 -0.1905 -0.9087 -0.1291
  574MOL0     N79126   6.088  10.476   2.546  1.0170  0.2861 -0.3001
  574MOL0     C79127   4.925  10.511   2.498  0.5827  0.7191 -0.2815
  574MOL0     C79128   4.792  10.510   2.456 -0.2798  0.8123  0.0227
  574MOL0     C79129   4.376  10.374   2.443  0.3343 -0.1742  0.8507
  574MOL0     C79130   4.325  10.245   2.413  0.0061 -0.1009 -0.6615
  574MOL0     C79131   4.192  10.227   2.385  0.3073 -0.0355  1.4656
  574MOL0     C79132   4.104  10.328   2.374  0.9611 -0.1176  0.0508
  574MOL0     O79133   3.978  10.297   2.347  0.9488 -0.2588 -0.3497
  574MOL0     C79134   3.867  10.381   2.353  0.0027 -0.3970  0.4159
  574MOL0     C79135   3.758  10.310   2.276 -0.4429  0.3698 -1.0163
  574MOL0     C79136   3.631  10.392   2.281  0.2647 -1.4251  0.2391
  574MOL0     C79137   3.519  10.331   2.188 -0.5812  0.0617  0.3750
  574MOL0     C79138   3.435  10.439   2.138  0.0495 -0.4556 -0.1845
  574MOL0     C79139   3.357  10.525   2.093  0.1198  0.4974  0.0960
  574MOL0     C79140   4.149  10.459   2.399  0.1467  0.2262  0.0876
  574MOL0     C79141   4.286  10.481   2.428  1.1084  1.2517 -0.4267
  574MOL0     C79142   4.317  10.626   2.448  0.2418 -0.0687 -0.0461
  574MOL0     H79143   4.651  10.595   2.757 -0.6616 -1.3832 -0.0350
  574MOL0     H79144   4.888  10.595   2.824 -0.8309 -0.8915  0.6434
  574MOL0     H79145   5.081  10.492   2.850 -0.0782 -1.6042 -0.2108
  574MOL0     H79146   5.102  10.668   2.832 -0.9447 -1.0101  1.0623
  574MOL0     H79147   5.318  10.499   2.883  3.1794 -2.0265 -1.8865
  574MOL0     H79148   5.315  10.465   2.709 -2.9048  1.5292 -2.7497
  574MOL0     H79149   5.361  10.677   2.638  1.1349 -2.9770 -0.7292
  574MOL0     H79150   5.334  10.743   2.802 -1.9834 -1.7857  0.3212
  574MOL0     H79151   5.547  10.670   2.883 -0.3865 -2.3068  0.7155
  574MOL0     H79152   5.552  10.531   2.787  0.8363  0.0456  0.6742
  574MOL0     H79153   5.594  10.830   2.697 -1.0052  0.1285 -2.4717
  574MOL0     H79154   5.569  10.694   2.590 -1.9292 -0.8908  1.2999
  574MOL0     H79155   5.808  10.702   2.804  0.5167  1.6395 -1.1365
  574MOL0     H79156   5.759  10.578   2.686 -2.7215  0.3035 -3.0189
  574MOL0     H79157   5.868  10.851   2.646  0.7524 -0.0555  0.2879
  574MOL0     H79158   5.832  10.745   2.508 -0.4468  2.2346 -0.1016
  574MOL0     H79159   6.076  10.785   2.575  0.7788 -0.7213 -0.7788
  574MOL0     H79160   6.040  10.660   2.705  1.2835 -2.8566 -0.9456
  574MOL0     H79161   6.009  10.697   2.318 -0.4821 -0.0330  0.9516
  574MOL0     H79162   6.078  10.538   2.120  1.4666 -0.0602 -1.1852
  574MOL0     H79163   6.128  10.369   2.149 -0.6824  0.5094 -0.5421
  574MOL0     H79164   6.311  10.473   2.038  0.7451  0.4107 -0.1987
  574MOL0     H79165   6.296  10.621   2.146 -1.2558 -0.0802  0.4680
  574MOL0     H79166   6.498  10.473   2.181  0.5046 -4.8482 -0.3503
  574MOL0     H79167   6.386  10.514   2.320 -1.6596 -0.5675 -0.1663
  574MOL0     H79168   6.430  10.277   2.344  4.3549  0.1498 -1.8448
  574MOL0     H79169   6.275  10.288   2.266 -0.1858  2.1596  0.7869
  574MOL0     H79170   6.621  10.305   2.309 -0.8340 -1.3154 -0.4032
  574MOL0     H79171   6.982  10.364   2.267 -2.1169  2.6577  0.1008
  574MOL0     H79172   6.917  10.261   2.402 -2.1863  4.3371  3.9346
  574MOL0     H79173   6.836  10.400   2.347 -0.2470 -0.3895  0.1153
  574MOL0     H79174   7.175  10.077   2.440 -0.2036 -2.3202 -0.4134
  574MOL0     H79175   7.425  10.089   2.501  2.0532 -0.2145 -0.9280
  574MOL0     H79176   7.606  10.268   2.501 -1.6899 -0.0984 -1.6809
  574MOL0     H79177   7.650  10.100   2.537  0.0303  0.1814 -0.0437
  574MOL0     H79178   7.836  10.282   2.420 -1.3893  1.4399  0.5416
  574MOL0     H79179   7.823  10.206   2.585 -2.1303 -4.7495  1.5882
  574MOL0     H79180   7.861  10.059   2.326 -1.1593  1.1869 -1.1826
  574MOL0     H79181   7.814   9.970   2.479 -0.2263 -0.2227 -1.0451
  574MOL0     H79182   8.038  10.062   2.585  2.3152 -1.1329 -0.1688
  574MOL0     H79183   8.053  10.159   2.440 -1.1435  0.3319  1.3172
  574MOL0     H79184   8.065   9.854   2.442  1.6502  0.5100 -0.4711
  574MOL0     H79185   8.124   9.950   2.316  0.6509  0.9196 -0.2067
  574MOL0     H79186   8.297   9.877   2.402 -3.7627 -2.0241 -1.1505
  574MOL0     H79187   8.260   9.902   2.570 -0.4308  0.0286  0.1975
  574MOL0     H79188   8.271  10.151   2.525  1.1213 -0.5138  2.4634
  574MOL0     H79189   8.323  10.102   2.358  0.8879  1.0261 -0.5859
  574MOL0     H79190   8.521  10.012   2.440  0.7318  1.2868  0.3398
  574MOL0     H79191   8.467  10.003   2.606  0.3441 -1.4769  0.0239
  574MOL0     H79192   7.504  10.187   2.101 -0.6826  2.0039  0.6901
  574MOL0     H79193   7.264  10.159   2.034  0.8298  1.6955 -0.4954
  574MOL0     H79194   6.800  10.021   1.951  0.1566 -0.4942 -0.2605
  574MOL0     H79195   6.554  10.098   1.954  2.7149 -2.1911 -1.8845
  574MOL0     H79196   5.002  10.493   2.423  0.2136  2.4475 -1.1241
  574MOL0     H79197   4.761  10.470   2.360 -0.4844 -0.6038  0.6591
  574MOL0     H79198   4.396  10.163   2.404  0.3854  0.2437 -0.8535
  574MOL0     H79199   4.160  10.124   2.374 -0.8270  0.4288  0.1168
  574MOL0     H79200   3.843  10.392   2.459 -0.3037  2.1225  0.1668
  574MOL0     H79201   3.877  10.484   2.316 -1.9138  1.3654  4.1514
  574MOL0     H79202   3.746  10.215   2.328  3.7109  0.4371  0.3936
  574MOL0     H79203   3.798  10.298   2.175 -0.5979  2.4986 -1.3847
  574MOL0     H79204   3.577  10.412   2.374 -4.2165  0.7241 -2.4439
  574MOL0     H79205   3.656  10.489   2.238 -1.7651 -0.6088  0.7675
  574MOL0     H79206   3.464  10.256   2.246  0.0420  1.9941  3.6664
  574MOL0     H79207   3.553  10.288   2.093  3.2068  3.2487  0.0322
  574MOL0     H79208   3.297  10.606   2.058 -0.9936 -0.8432 -1.2549
  574MOL0     H79209   4.085  10.544   2.378  0.1926 -0.4250 -3.1204
  574MOL0     H79210   4.336  10.651   2.553  1.7061 -0.9588 -0.0606
  574MOL0     H79211   4.408  10.655   2.394 -0.2381 -0.1565 -0.9132
  574MOL0     H79212   4.246  10.698   2.407 -0.7505 -0.9876  0.0171
  575MOL0     O79213  10.678   2.575   3.504 -0.2559 -0.6049 -1.1182
  575MOL0     C79214  10.619   2.546   3.606  0.6320 -0.2807  0.0963
  575MOL0     O79215  10.635   2.602   3.732  0.1877 -0.1270  0.1555
  575MOL0     C79216  10.751   2.672   3.755 -0.1811  0.4475 -0.1351
  575MOL0     C79217  10.874   2.634   3.691  0.1130  0.9928  0.0380
  575MOL0     C79218  10.988   2.705   3.698 -0.6916 -0.3555 -0.1938
  575MOL0     C79219  10.986   2.826   3.779  0.5566  0.0212 -0.4194
  575MOL0     O79220  11.106   2.891   3.805  0.4290 -0.2305 -0.4023
  575MOL0     C79221  11.168   2.958   3.703  0.7286 -0.5232 -0.7956
  575MOL0     C79222  11.305   3.013   3.745 -1.0934  0.1344 -0.2800
  575MOL0     C79223  11.395   2.908   3.818  0.1897  0.3057  0.7550
  575MOL0     C79224  11.455   2.804   3.716 -0.0001 -0.3409  0.3035
  575MOL0     C79225  11.528   2.687   3.793  0.7678  0.3041  0.3661
  575MOL0     C79226  11.579   2.585   3.698  0.3572 -0.8463 -0.4397
  575MOL0     C79227  11.619   2.462   3.775 -0.4246  0.0393 -0.1665
  575MOL0     C79228  11.672   2.345   3.681 -0.4157  0.3470  1.0809
  575MOL0     N79229  11.707   2.225   3.753  0.4645 -0.3296 -0.1070
  575MOL0     C79230  11.828   2.206   3.818  0.1304 -0.1666  0.5630
  575MOL0     C79231  11.840   2.074   3.833  0.3825  0.4472 -0.0783
  575MOL0     C79232  11.953   1.993   3.901  0.2936 -0.5073  0.1050
  575MOL0     C79233  11.911   1.883   4.002 -0.5327  0.1231 -0.0526
  575MOL0     C79234  12.013   1.772   4.032 -0.2820 -0.7229  0.4686
  575MOL0     C79235  12.136   1.820   4.099  0.3315 -0.1355 -0.1266
  575MOL0     O79236  12.219   1.709   4.139  0.8617  0.3374  0.4919
  575MOL0     C79237  12.350   1.711   4.101  0.2855 -0.0718 -0.5694
  575MOL0     C79238  12.418   1.584   4.104  0.1964 -1.0679 -1.0015
  575MOL0     C79239  12.550   1.587   4.066 -0.0598  0.1380  0.6994
  575MOL0     C79240  12.615   1.448   4.063  0.9034 -1.2320  0.4421
  575MOL0     C79241  12.623   1.709   4.030 -0.3001 -0.4052 -0.5211
  575MOL0     C79242  12.765   1.721   3.982 -0.0015 -0.3415 -0.4065
  575MOL0     O79243  12.815   1.856   3.989 -0.1571  0.3266  0.6017
  575MOL0     C79244  12.951   1.874   3.958  0.1256  0.6896 -0.2903
  575MOL0     C79245  13.049   1.776   3.944  0.1325  0.5445  0.3271
  575MOL0     C79246  13.176   1.799   3.896 -0.8648 -0.0767 -0.4817
  575MOL0     C79247  13.211   1.933   3.864  0.8187 -0.9128 -0.0633
  575MOL0     O79248  13.338   1.951   3.810 -0.0800 -0.2523 -0.5885
  575MOL0     C79249  13.374   2.095   3.783 -0.2404  0.5298  0.3650
  575MOL0     C79250  13.529   2.084   3.780 -0.0844  0.8697  0.4166
  575MOL0     C79251  13.589   2.065   3.925  0.3182 -1.2029  0.3919
  575MOL0     C79252  13.682   2.180   3.962 -0.1181 -0.6316 -0.4936
  575MOL0     C79253  13.718   2.174   4.110  0.1753  0.0997  0.4264
  575MOL0     C79254  13.771   2.315   4.152  0.6894  0.0481 -0.4404
  575MOL0     C79255  13.919   2.327   4.113 -0.4049  0.3467 -0.3717
  575MOL0     C79256  14.019   2.285   4.219 -0.2854  0.0974  0.3965
  575MOL0    Cl79257  14.013   2.111   4.252 -0.0750  0.1351  0.2300
  575MOL0     C79258  13.119   2.040   3.883  0.9864  0.7414 -1.3282
  575MOL0     C79259  12.991   2.003   3.938 -0.2365  0.4246 -0.1285
  575MOL0     O79260  12.813   1.626   3.918 -0.0556 -0.1530  0.0365
  575MOL0     C79261  12.550   1.828   4.054 -0.2082  0.3286 -0.4913
  575MOL0     C79262  12.419   1.827   4.078  0.4344 -0.5681  0.2420
  575MOL0     N79263  11.730   2.006   3.771  0.2720  1.2447  0.3405
  575MOL0     N79264  11.653   2.104   3.721 -0.4650 -0.9826 -0.1583
  575MOL0     C79265  10.865   2.870   3.836 -0.6016  0.2331  0.0326
  575MOL0     C79266  10.747   2.795   3.813  0.0870  0.4404 -0.4497
  575MOL0     C79267  10.527   2.439   3.579  0.5965 -0.7370  0.1839
  575MOL0     C79268  10.403   2.467   3.515  0.1944 -0.2042 -0.1661
  575MOL0     C79269  10.314   2.365   3.490 -0.3648  0.8741 -0.8302
  575MOL0     C79270  10.341   2.239   3.529  0.4915  0.3927 -0.3805
  575MOL0     O79271  10.251   2.134   3.508 -0.1844 -0.4206 -0.1305
  575MOL0     C79272  10.168   2.153   3.387  0.1607  0.1672 -0.1749
  575MOL0     C79273  10.025   2.194   3.433  0.1086 -0.8628 -0.1601
  575MOL0     C79274   9.946   2.216   3.299 -0.3514  0.1085  0.0708
  575MOL0     C79275   9.803   2.271   3.303 -0.3341 -1.0052  0.0293
  575MOL0     C79276   9.710   2.190   3.374 -0.2957  0.3931 -0.8267
  575MOL0     C79277   9.630   2.115   3.431 -1.0238  1.0300 -0.7692
  575MOL0     C79278  10.459   2.209   3.595 -0.2188  0.1625 -0.9821
  575MOL0     C79279  10.553   2.306   3.628  0.6065  0.4064 -1.1828
  575MOL0     C79280  10.678   2.268   3.697 -0.2746 -0.0082  0.5824
  575MOL0     H79281  10.874   2.545   3.629 -0.2511  1.7391 -1.0647
  575MOL0     H79282  11.084   2.682   3.652  0.7207 -0.3917  2.5254
  575MOL0     H79283  11.113   3.043   3.660  2.0978  0.2392 -1.0969
  575MOL0     H79284  11.181   2.888   3.620 -0.7109  1.9513 -3.3072
  575MOL0     H79285  11.346   3.057   3.654 -1.7328  2.0691  0.3177
  575MOL0     H79286  11.284   3.092   3.818 -0.1198 -0.0913  0.2513
  575MOL0     H79287  11.474   2.961   3.871 -0.0287 -0.7455  2.1661
  575MOL0     H79288  11.331   2.863   3.894  2.9651 -0.0692  3.0120
  575MOL0     H79289  11.372   2.757   3.663 -0.2399 -0.2330  0.5784
  575MOL0     H79290  11.513   2.861   3.644 -2.0721  0.1579 -1.0530
  575MOL0     H79291  11.452   2.651   3.863  0.6153 -1.2563 -0.5521
  575MOL0     H79292  11.617   2.727   3.841  0.6144 -0.8647  1.6665
  575MOL0     H79293  11.509   2.567   3.616 -2.0411 -0.0102  1.3130
  575MOL0     H79294  11.675   2.615   3.656 -0.2186  0.2766 -1.0174
  575MOL0     H79295  11.534   2.427   3.833 -0.1545  0.9552  0.8319
  575MOL0     H79296  11.691   2.490   3.853 -1.2467  1.3789  0.1545
  575MOL0     H79297  11.592   2.313   3.613 -0.1315 -2.5522  1.9937
  575MOL0     H79298  11.764   2.382   3.635 -0.9785  0.8535  0.3304
  575MOL0     H79299  11.892   2.288   3.851 -0.7100  1.0255 -0.6271
  575MOL0     H79300  12.036   2.055   3.935  0.4088 -1.2770  1.2717
  575MOL0     H79301  12.002   1.937   3.821 -1.2744 -2.0729  0.1772
  575MOL0     H79302  11.863   1.921   4.093  1.8517  0.5440  1.1189
  575MOL0     H79303  11.830   1.830   3.951  1.1048 -0.4666 -2.2235
  575MOL0     H79304  11.951   1.703   4.090 -2.1988  0.2377 -0.3466
  575MOL0     H79305  12.045   1.722   3.940 -1.0097 -1.7662  0.7608
  575MOL0     H79306  12.179   1.882   4.019  0.5246  0.7671  0.6547
  575MOL0     H79307  12.122   1.893   4.179  0.9326  0.4124 -0.5150
  575MOL0     H79308  12.358   1.500   4.138 -2.5572  1.5029  1.1346
  575MOL0     H79309  12.716   1.460   4.104  1.2605 -0.6402 -0.5905
  575MOL0     H79310  12.617   1.422   3.957  0.1733  1.2315 -0.2402
  575MOL0     H79311  12.564   1.379   4.131 -0.6660  1.1219  1.7714
  575MOL0     H79312  13.030   1.669   3.954  2.2635 -0.3392 -3.3994
  575MOL0     H79313  13.257   1.731   3.872 -2.0731 -1.5468 -0.5374
  575MOL0     H79314  13.338   2.132   3.687 -0.0563  0.9650  0.4618
  575MOL0     H79315  13.349   2.162   3.866 -1.0548  3.4003 -2.0229
  575MOL0     H79316  13.552   1.999   3.714 -3.9844 -0.0917  0.0106
  575MOL0     H79317  13.572   2.171   3.729  1.4209  1.4365  2.5345
  575MOL0     H79318  13.651   1.975   3.932  4.1110  1.2012  0.4239
  575MOL0     H79319  13.511   2.055   4.001 -2.2286  2.8331 -1.3815
  575MOL0     H79320  13.623   2.270   3.942 -1.5337 -1.6613 -1.1471
  575MOL0     H79321  13.774   2.180   3.904  2.3493  2.8787  2.8650
  575MOL0     H79322  13.625   2.161   4.167 -0.3405  3.2923  0.4732
  575MOL0     H79323  13.793   2.097   4.129 -0.6440 -0.2209  2.6357
  575MOL0     H79324  13.756   2.323   4.260 -1.6085  0.1653 -0.7216
  575MOL0     H79325  13.710   2.390   4.101 -1.2369  0.1750  1.8728
  575MOL0     H79326  13.923   2.430   4.076 -0.9372  0.9838  1.2413
  575MOL0     H79327  13.949   2.270   4.025 -1.8341  0.5257 -0.9967
  575MOL0     H79328  13.989   2.337   4.311  1.1648 -0.2180  1.0752
  575MOL0     H79329  14.116   2.324   4.189  0.4184 -1.6888  0.2543
  575MOL0     H79330  13.150   2.144   3.883 -0.3968  1.1833 -0.6371
  575MOL0     H79331  12.920   2.081   3.961 -1.3801 -0.1723 -1.4422
  575MOL0     H79332  12.587   1.929   4.041 -0.7452  0.4230 -1.3096
  575MOL0     H79333  12.364   1.917   4.102 -3.2077 -2.8098  1.2368
  575MOL0     H79334  10.874   2.961   3.895  3.9511  0.2363 -0.2999
  575MOL0     H79335  10.655   2.838   3.852 -1.4601 -0.1981 -3.1673
  575MOL0     H79336  10.376   2.564   3.473  0.6363  0.5197  1.1370
  575MOL0     H79337  10.220   2.390   3.442 -1.9403 -1.5003  0.8023
  575MOL0     H79338  10.216   2.211   3.308 -0.8128  0.5891 -0.4831
  575MOL0     H79339  10.135   2.060   3.339 -3.0415 -0.2530  2.4336
  575MOL0     H79340  10.023   2.284   3.495  4.0456 -1.0618  0.5415
  575MOL0     H79341   9.978   2.122   3.502  1.7796 -1.0272  0.8822
  575MOL0     H79342  10.001   2.287   3.237 -0.1446 -0.2325 -0.1385
  575MOL0     H79343   9.941   2.121   3.245  1.8624  0.6494 -1.2177
  575MOL0     H79344   9.769   2.281   3.199  1.3170  0.8676 -0.3923
  575MOL0     H79345   9.802   2.370   3.350 -1.8042 -1.5535  1.2225
  575MOL0     H79346   9.554   2.057   3.479 -1.2346  1.1184 -0.9918
  575MOL0     H79347  10.474   2.110   3.637 -1.4442  0.6314  0.6446
  575MOL0     H79348  10.680   2.160   3.717 -0.3769 -0.0237  0.5050
  575MOL0     H79349  10.768   2.286   3.637 -0.4102  0.8419  0.6184
  575MOL0     H79350  10.694   2.319   3.793  1.9448  0.1690  0.1790
  576MOL0     O79351   9.238   9.642   4.157  0.5482 -0.3166 -0.5089
  576MOL0     C79352   9.194   9.753   4.114  0.7679  0.6865 -0.4229
  576MOL0     O79353   9.215   9.808   3.996  0.0461  0.1828  0.5834
  576MOL0     C79354   9.316   9.759   3.913  0.1664  0.4574  0.9138
  576MOL0     C79355   9.406   9.841   3.849  0.1078 -0.0271  1.1973
  576MOL0     C79356   9.508   9.794   3.764 -0.2172  0.0295  0.6869
  576MOL0     C79357   9.526   9.658   3.744  0.2282 -1.2890  0.5369
  576MOL0     O79358   9.634   9.623   3.673 -0.0590 -0.3274  0.2469
  576MOL0     C79359   9.687   9.491   3.700  0.5845  0.3528 -0.3404
  576MOL0     C79360   9.815   9.479   3.619 -0.2429 -0.3007 -0.9712
  576MOL0     C79361   9.888   9.352   3.658 -0.2223  1.2125 -0.2274
  576MOL0     C79362   9.989   9.329   3.549 -0.7054 -0.0650 -0.5413
  576MOL0     C79363  10.104   9.233   3.586 -0.0736 -1.1243  0.5176
  576MOL0     C79364  10.193   9.229   3.458  0.4787  0.4883  0.0967
  576MOL0     C79365  10.286   9.113   3.477  0.1538  0.4112 -0.4939
  576MOL0     C79366  10.392   9.093   3.365  0.5670 -0.5229  0.0148
  576MOL0     N79367  10.336   9.065   3.234 -0.2146 -0.3488  0.6324
  576MOL0     C79368  10.286   9.157   3.152 -1.0215 -0.1602  0.4212
  576MOL0     C79369  10.235   9.080   3.046  0.3892 -0.7950 -0.2022
  576MOL0     C79370  10.164   9.148   2.927 -0.2782 -0.4973 -0.0265
  576MOL0     C79371  10.070   9.054   2.848  0.0526 -0.0239 -0.1067
  576MOL0     C79372   9.930   9.043   2.903  1.0754 -0.1617  0.5886
  576MOL0     C79373   9.916   9.003   3.046 -0.1171 -1.1122 -0.5249
  576MOL0     O79374   9.773   9.004   3.078  0.0857  0.1310  1.0898
  576MOL0     C79375   9.708   9.122   3.110  1.3421 -0.4278  0.4656
  576MOL0     C79376   9.758   9.256   3.140  0.1706  0.1377  0.0636
  576MOL0     C79377   9.671   9.359   3.168 -0.2156  0.2666  0.2156
  576MOL0     C79378   9.733   9.491   3.195  0.9559  1.5127  0.1527
  576MOL0     C79379   9.528   9.333   3.181  0.1445  0.7455  0.0717
  576MOL0     C79380   9.432   9.448   3.207  0.3910 -0.2353 -0.4446
  576MOL0     O79381   9.307   9.402   3.247  0.2539  0.4950  0.1643
  576MOL0     C79382   9.239   9.480   3.341  1.6714 -0.7879  0.3685
  576MOL0     C79383   9.102   9.483   3.324  0.0766 -0.3649 -0.1893
  576MOL0     C79384   9.016   9.555   3.407  0.2313  0.5410  0.4883
  576MOL0     C79385   9.065   9.622   3.522  0.2243  0.1294  0.2279
  576MOL0     O79386   8.970   9.685   3.600 -0.6602  0.5050  0.6664
  576MOL0     C79387   9.008   9.739   3.728 -0.0880 -0.1008 -0.2440
  576MOL0     C79388   8.875   9.811   3.777 -0.6381 -0.9208  0.5730
  576MOL0     C79389   8.778   9.718   3.837  0.0968  0.7804  0.0079
  576MOL0     C79390   8.639   9.783   3.843 -0.3062 -0.1139 -0.2851
  576MOL0     C79391   8.523   9.698   3.903  1.1173 -0.5645 -0.1191
  576MOL0     C79392   8.381   9.748   3.880 -0.7247  0.7353  0.5083
  576MOL0     C79393   8.271   9.679   3.941  0.5746 -0.0755 -0.4156
  576MOL0     C79394   8.239   9.741   4.079  0.3901 -0.5049 -0.1586
  576MOL0    Cl79395   8.123   9.884   4.069 -0.0696 -0.0049 -0.2860
  576MOL0     C79396   9.205   9.631   3.539  0.3894 -0.0585  0.9841
  576MOL0     C79397   9.291   9.569   3.440 -0.4547  0.4435  0.3370
  576MOL0     O79398   9.459   9.562   3.192 -0.5890  0.4190  0.2217
  576MOL0     C79399   9.482   9.206   3.163  0.1307  0.6196  0.2429
  576MOL0     C79400   9.575   9.108   3.122  0.5018 -0.0409 -0.1068
  576MOL0     N79401  10.258   8.948   3.070 -0.2674  0.4703 -0.1953
  576MOL0     N79402  10.329   8.943   3.179  0.4990 -0.3966  0.1177
  576MOL0     C79403   9.430   9.575   3.804 -0.3854 -0.4541  0.1344
  576MOL0     C79404   9.326   9.623   3.885  0.1143 -0.1214 -0.8531
  576MOL0     C79405   9.079   9.798   4.207 -0.8193 -0.6516  0.1319
  576MOL0     C79406   8.959   9.849   4.156 -0.0873 -0.0888  0.4331
  576MOL0     C79407   8.860   9.900   4.249 -0.3729  0.1057 -0.5899
  576MOL0     C79408   8.876   9.886   4.385  0.2750 -0.2213 -0.3827
  576MOL0     O79409   8.784   9.925   4.481 -0.6262  0.3024 -0.3430
  576MOL0     C79410   8.672  10.003   4.449  0.1807 -0.4031 -0.7562
  576MOL0     C79411   8.551   9.913   4.408 -0.2975  0.8066 -0.6859
  576MOL0     C79412   8.537   9.794   4.509  0.0593  0.1614 -0.2619
  576MOL0     C79413   8.494   9.822   4.654  0.5806 -0.5279 -0.5359
  576MOL0     C79414   8.366   9.886   4.656  0.5655 -0.6518  0.0269
  576MOL0     C79415   8.246   9.922   4.669  0.9772 -0.1147 -0.1578
  576MOL0     C79416   8.991   9.823   4.431 -0.8884 -0.0831  0.0591
  576MOL0     C79417   9.095   9.780   4.347  0.6887  1.0141 -0.7816
  576MOL0     C79418   9.227   9.736   4.412 -0.2293  0.0769 -0.8307
  576MOL0     H79419   9.401   9.945   3.878 -1.8218  0.6276 -1.1277
  576MOL0     H79420   9.579   9.857   3.712  0.7798 -1.4390  0.2080
  576MOL0     H79421   9.610   9.420   3.668 -0.9939  1.4774  0.7966
  576MOL0     H79422   9.719   9.481   3.804  1.5330 -1.8460 -0.7780
  576MOL0     H79423   9.785   9.483   3.514 -0.5408  0.4773 -0.8576
  576MOL0     H79424   9.888   9.560   3.626 -2.1593  1.6232 -2.3345
  576MOL0     H79425   9.947   9.362   3.749 -1.4041  0.5729  0.6489
  576MOL0     H79426   9.817   9.269   3.670 -0.8735  1.0670 -3.9906
  576MOL0     H79427   9.944   9.305   3.453  0.9528  0.6093 -1.5332
  576MOL0     H79428  10.042   9.422   3.528 -0.7007 -0.0286 -0.3717
  576MOL0     H79429  10.061   9.134   3.601 -2.2011 -0.2916  0.2767
  576MOL0     H79430  10.155   9.262   3.678 -2.2076 -0.9345  1.7029
  576MOL0     H79431  10.130   9.212   3.370  0.9052 -0.2710 -0.0742
  576MOL0     H79432  10.252   9.318   3.440  2.6392 -0.7475  0.6981
  576MOL0     H79433  10.219   9.028   3.493 -1.7839  2.0350  0.4026
  576MOL0     H79434  10.345   9.133   3.567 -0.7116 -1.9740  0.7097
  576MOL0     H79435  10.440   9.191   3.355 -0.6247  0.2617  1.5785
  576MOL0     H79436  10.460   9.012   3.392 -1.3421 -2.9984 -2.0785
  576MOL0     H79437  10.288   9.263   3.174  0.2320 -0.1527  0.3373
  576MOL0     H79438  10.242   9.181   2.858  1.6836  0.5755  2.5242
  576MOL0     H79439  10.110   9.236   2.962 -1.8758 -0.5789 -2.0450
  576MOL0     H79440  10.056   9.094   2.747 -1.1189 -0.5212 -0.1589
  576MOL0     H79441  10.115   8.955   2.839  1.7423  0.5110  1.7381
  576MOL0     H79442   9.871   9.132   2.877 -2.0163 -2.1429  0.3868
  576MOL0     H79443   9.870   8.966   2.854  1.2350  0.5212 -0.7488
  576MOL0     H79444   9.960   8.903   3.060  0.3665 -0.7289  0.8476
  576MOL0     H79445   9.976   9.070   3.109 -0.9006  1.3683 -2.2605
  576MOL0     H79446   9.865   9.261   3.126  0.7131  0.2841  3.4344
  576MOL0     H79447   9.674   9.536   3.275 -2.0880  0.1360 -1.1555
  576MOL0     H79448   9.733   9.549   3.103 -2.4640  0.0399 -0.9461
  576MOL0     H79449   9.837   9.478   3.226  1.3921 -1.2629 -2.0055
  576MOL0     H79450   9.060   9.418   3.248  0.7993 -2.4746  1.1264
  576MOL0     H79451   8.911   9.543   3.382  0.3253  1.3181 -0.3392
  576MOL0     H79452   9.043   9.668   3.803  1.8367  0.1173 -0.8902
  576MOL0     H79453   9.096   9.803   3.712 -0.0271 -0.4308 -1.2251
  576MOL0     H79454   8.902   9.896   3.841  3.3332 -0.8362 -0.8816
  576MOL0     H79455   8.837   9.858   3.686  0.1407  1.0695  1.1980
  576MOL0     H79456   8.806   9.681   3.935  0.2293 -0.4439 -0.4708
  576MOL0     H79457   8.775   9.629   3.772  2.7343 -1.4430  2.6727
  576MOL0     H79458   8.608   9.812   3.742 -1.5858  0.2127  0.1825
  576MOL0     H79459   8.657   9.871   3.906  0.9792 -0.7835  0.3043
  576MOL0     H79460   8.534   9.600   3.857  2.3522 -1.1144  1.2862
  576MOL0     H79461   8.532   9.682   4.011 -2.0463 -0.7060  0.2171
  576MOL0     H79462   8.363   9.755   3.772 -3.5559 -0.6827  0.7868
  576MOL0     H79463   8.393   9.849   3.920 -0.5051 -0.6720  4.3409
  576MOL0     H79464   8.300   9.575   3.959 -2.4964 -1.7555 -3.8457
  576MOL0     H79465   8.184   9.663   3.877 -0.1804  1.9855  0.0070
  576MOL0     H79466   8.330   9.780   4.124  0.7621 -1.2614 -0.2394
  576MOL0     H79467   8.179   9.672   4.139 -0.5000  1.0263  0.7764
  576MOL0     H79468   9.261   9.693   3.609  0.8105  1.1942 -0.4069
  576MOL0     H79469   9.398   9.576   3.455 -0.2175  0.7577 -1.2664
  576MOL0     H79470   9.379   9.177   3.181  0.1024  1.1993  1.0355
  576MOL0     H79471   9.546   9.006   3.096 -0.4073  0.2191 -0.1608
  576MOL0     H79472   9.443   9.469   3.787  2.6749 -0.0984 -0.2358
  576MOL0     H79473   9.264   9.541   3.921  0.5946  1.1851  3.5225
  576MOL0     H79474   8.950   9.861   4.049  2.4538 -2.1904 -0.1001
  576MOL0     H79475   8.770   9.942   4.206 -1.2383 -0.7389  0.3231
  576MOL0     H79476   8.644  10.050   4.544 -0.9924 -1.2010 -0.6869
  576MOL0     H79477   8.696  10.083   4.378  1.1452  1.4192  1.4959
  576MOL0     H79478   8.562   9.857   4.315 -0.4223 -0.2668 -0.0684
  576MOL0     H79479   8.459   9.972   4.404  0.7618  2.5594 -0.4078
  576MOL0     H79480   8.461   9.724   4.472  1.3544 -1.5394  0.1367
  576MOL0     H79481   8.638   9.750   4.512  1.4981  3.0868 -1.3568
  576MOL0     H79482   8.565   9.876   4.717 -1.7764  0.4296  1.4720
  576MOL0     H79483   8.496   9.719   4.692  1.0985 -0.1115  0.6076
  576MOL0     H79484   8.148   9.944   4.707  1.7516  1.4955  1.0127
  576MOL0     H79485   9.004   9.810   4.538  0.3855 -2.0274 -0.2665
  576MOL0     H79486   9.240   9.757   4.519 -2.0024  0.0462 -0.5774
  576MOL0     H79487   9.228   9.627   4.415 -0.0231  0.0913  1.5087
  576MOL0     H79488   9.315   9.780   4.365  2.4729 -2.9869  0.9259
  577MOL0     O79489   9.356   5.930  10.167 -0.0481 -0.8949  0.1916
  577MOL0     C79490   9.411   6.042  10.174 -0.3254 -0.9452  0.2939
  577MOL0     O79491   9.351   6.164  10.160 -0.1094  0.1059 -0.2269
  577MOL0     C79492   9.214   6.164  10.132 -0.6239  1.2695  0.0423
  577MOL0     C79493   9.119   6.140  10.234  0.1621  0.3324 -0.1493
  577MOL0     C79494   8.979   6.169  10.209  0.5672 -0.1206 -0.0597
  577MOL0     C79495   8.946   6.222  10.086 -0.0595 -0.5945  0.2207
  577MOL0     O79496   8.822   6.267  10.060 -0.2944  0.1789  0.7691
  577MOL0     C79497   8.718   6.221  10.143 -0.7330 -0.7681  0.5039
  577MOL0     C79498   8.600   6.283  10.074  0.3642  0.1046  0.2055
  577MOL0     C79499   8.469   6.274  10.158  0.7823  0.1180 -0.5728
  577MOL0     C79500   8.354   6.317  10.063  0.7123  0.3072  0.6296
  577MOL0     C79501   8.221   6.277  10.117 -0.4108 -0.2735  0.1255
  577MOL0     C79502   8.107   6.376  10.078  0.3393  0.7500  0.5819
  577MOL0     C79503   7.965   6.306  10.094 -0.0788  0.4203 -0.0721
  577MOL0     C79504   7.856   6.408  10.056 -0.5615 -0.0655 -1.1545
  577MOL0     N79505   7.725   6.371  10.100  0.1146  0.1993  0.8723
  577MOL0     C79506   7.666   6.242  10.087 -0.2144 -0.6129  0.1521
  577MOL0     C79507   7.552   6.249  10.163 -0.2141 -0.7074 -0.3850
  577MOL0     C79508   7.450   6.143  10.193  1.2049 -0.3195 -0.4168
  577MOL0     C79509   7.489   6.037  10.295 -0.5075 -0.5931  0.1478
  577MOL0     C79510   7.623   5.970  10.270 -0.0439  0.0542 -0.2133
  577MOL0     C79511   7.659   5.861  10.375  0.0379 -0.4705  0.3946
  577MOL0     O79512   7.788   5.808  10.343 -0.5077 -0.1380  0.9305
  577MOL0     C79513   7.893   5.874  10.391  0.6169 -0.4434 -0.5711
  577MOL0     C79514   7.918   5.872  10.530 -0.4552  0.7538 -0.4200
  577MOL0     C79515   8.034   5.923  10.584  0.2979 -0.6019 -0.6536
  577MOL0     C79516   8.047   5.914  10.741 -0.5750  0.5628 -0.0262
  577MOL0     C79517   8.137   5.982  10.502  1.1002  0.5984 -0.3475
  577MOL0     C79518   8.271   6.031  10.544 -0.1067 -0.1515 -0.8810
  577MOL0     O79519   8.339   6.098  10.447 -0.1832  0.6292 -0.0356
  577MOL0     C79520   8.465   6.133  10.482  0.1246 -0.0557  0.3113
  577MOL0     C79521   8.573   6.043  10.443  0.1472 -0.6056  0.4129
  577MOL0     C79522   8.705   6.079  10.481  0.0972  0.3903 -0.0481
  577MOL0     C79523   8.731   6.206  10.539  0.0180  1.2089  0.1895
  577MOL0     O79524   8.865   6.234  10.569  0.1108 -0.5537 -0.5069
  577MOL0     C79525   8.888   6.366  10.613  0.1795  0.4731  0.4096
  577MOL0     C79526   9.026   6.381  10.669  0.3234 -0.0769 -0.2855
  577MOL0     C79527   9.126   6.324  10.569 -0.7207 -0.6677  0.0456
  577MOL0     C79528   9.269   6.377  10.596  0.1411 -0.3133  0.3748
  577MOL0     C79529   9.387   6.308  10.506  0.2539 -0.5020  0.3779
  577MOL0     C79530   9.522   6.372  10.544 -0.0311 -0.7538  0.0832
  577MOL0     C79531   9.649   6.326  10.455  1.0354  0.6626 -0.3606
  577MOL0     C79532   9.735   6.440  10.427 -0.7167 -0.0239 -0.0441
  577MOL0    Cl79533   9.876   6.381  10.334  0.5949  0.2103  0.7952
  577MOL0     C79534   8.627   6.299  10.564  0.2024  0.4177  0.1750
  577MOL0     C79535   8.499   6.258  10.538 -0.0548 -0.6750  0.4870
  577MOL0     O79536   8.320   5.993  10.657  0.4106 -0.7880  1.0777
  577MOL0     C79537   8.104   5.985  10.361 -0.2238 -0.4930 -0.1110
  577MOL0     C79538   7.985   5.934  10.305  0.3279 -0.0626  0.0888
  577MOL0     N79539   7.547   6.373  10.220  0.3994 -0.0127 -0.1930
  577MOL0     N79540   7.649   6.445  10.182 -0.7293  0.6775 -0.1173
  577MOL0     C79541   9.042   6.243   9.989  0.1880 -0.0077  0.0588
  577MOL0     C79542   9.178   6.211  10.010  0.2576  0.4576 -0.0326
  577MOL0     C79543   9.568   6.054  10.179  1.3025  0.6417 -0.4278
  577MOL0     C79544   9.624   6.155  10.101 -0.3338  0.4622 -0.9367
  577MOL0     C79545   9.759   6.152  10.075  0.1812  0.0950  0.3797
  577MOL0     C79546   9.853   6.057  10.118  0.3258  0.3920  0.3041
  577MOL0     O79547   9.985   6.053  10.071  0.1225 -0.3778 -0.9448
  577MOL0     C79548  10.057   5.939  10.118  0.3270 -0.3472  0.4790
  577MOL0     C79549  10.202   5.945  10.068 -0.2718 -0.0405  0.5919
  577MOL0     C79550  10.297   5.829  10.119 -0.0207  0.0281 -0.9967
  577MOL0     C79551  10.233   5.688  10.094  0.4793  0.2806 -0.6564
  577MOL0     C79552  10.153   5.648  10.223  0.6408 -0.4403  1.0375
  577MOL0     C79553  10.096   5.601  10.322 -0.1426  0.5462  0.7383
  577MOL0     C79554   9.794   5.963  10.212 -0.6028 -0.2499 -0.3687
  577MOL0     C79555   9.653   5.955  10.233  0.8426 -0.6358  0.0275
  577MOL0     C79556   9.596   5.846  10.329  0.0664 -1.0182 -0.0875
  577MOL0     H79557   9.150   6.131  10.338 -0.5628  2.0931  0.2621
  577MOL0     H79558   8.910   6.155  10.291  2.9482  1.0471  2.2987
  577MOL0     H79559   8.724   6.265  10.243  0.0818 -3.5855  1.8085
  577MOL0     H79560   8.712   6.112  10.152  0.9571 -0.8739  0.7718
  577MOL0     H79561   8.629   6.385  10.046  1.7509  0.1864  1.7691
  577MOL0     H79562   8.582   6.229   9.981 -1.5362  1.1706 -0.0952
  577MOL0     H79563   8.452   6.169  10.181 -1.2384  0.8720  1.7225
  577MOL0     H79564   8.467   6.339  10.245 -1.8336 -0.4070 -0.1660
  577MOL0     H79565   8.364   6.426  10.071 -0.9488  0.3771  3.3336
  577MOL0     H79566   8.384   6.292   9.961  5.9357  1.3577  1.5833
  577MOL0     H79567   8.238   6.279  10.225 -1.5776  1.4660  0.3142
  577MOL0     H79568   8.193   6.174  10.091 -0.4655 -0.0499 -0.7422
  577MOL0     H79569   8.108   6.461  10.147 -3.0380  0.9211  0.6134
  577MOL0     H79570   8.129   6.411   9.977  0.1596  0.8325  0.5695
  577MOL0     H79571   7.954   6.272  10.197  3.0910 -0.7691  0.0028
  577MOL0     H79572   7.965   6.222  10.023  0.1834  1.1309 -0.9381
  577MOL0     H79573   7.888   6.498  10.110  3.9143 -2.6057  0.9506
  577MOL0     H79574   7.853   6.428   9.949  4.1044 -0.7231 -1.6373
  577MOL0     H79575   7.691   6.151  10.033 -1.6236 -1.0808  0.2354
  577MOL0     H79576   7.416   6.087  10.106  0.6080  2.6843 -2.2666
  577MOL0     H79577   7.359   6.188  10.234  0.1847 -0.9570 -1.9115
  577MOL0     H79578   7.501   6.099  10.385  4.1618  0.7424 -1.1412
  577MOL0     H79579   7.405   5.967  10.301 -1.1798 -0.2072 -2.9263
  577MOL0     H79580   7.622   5.933  10.167 -3.0217  0.8471 -0.5617
  577MOL0     H79581   7.706   6.040  10.279  1.6670 -1.8458 -0.3223
  577MOL0     H79582   7.663   5.914  10.470 -0.4355  1.0142 -0.3743
  577MOL0     H79583   7.585   5.781  10.387 -0.6289  0.2411  1.1519
  577MOL0     H79584   7.850   5.808  10.585  0.9907 -1.3841 -1.0071
  577MOL0     H79585   8.095   6.008  10.768  0.9115 -0.4390  0.9316
  577MOL0     H79586   8.115   5.832  10.766 -0.0070  1.9987  3.7699
  577MOL0     H79587   7.952   5.898  10.793 -0.0763  0.0149  0.7312
  577MOL0     H79588   8.543   5.950  10.396 -1.8190  1.1322 -2.0222
  577MOL0     H79589   8.794   6.019  10.464  1.0412  2.0012 -1.0899
  577MOL0     H79590   8.863   6.432  10.530  0.4082  1.6902  1.2803
  577MOL0     H79591   8.828   6.403  10.698  1.4478  0.6177  1.2620
  577MOL0     H79592   9.037   6.487  10.694 -1.7266 -0.3155  1.9947
  577MOL0     H79593   9.035   6.323  10.761 -2.9315 -0.7269 -0.2746
  577MOL0     H79594   9.113   6.360  10.467  2.4024  1.7691  0.3597
  577MOL0     H79595   9.120   6.215  10.575 -2.2674 -0.5321  3.0903
  577MOL0     H79596   9.295   6.346  10.697  0.2483  2.8319  1.4340
  577MOL0     H79597   9.265   6.487  10.599 -0.0183 -0.3278  3.1095
  577MOL0     H79598   9.406   6.200  10.515  2.7546 -0.2945 -1.4394
  577MOL0     H79599   9.353   6.312  10.402 -1.6117  0.6797  0.9873
  577MOL0     H79600   9.539   6.351  10.650  2.3833  1.1407  0.1575
  577MOL0     H79601   9.508   6.480  10.534  1.0637 -0.5942  0.2179
  577MOL0     H79602   9.617   6.292  10.356  0.7213 -0.2642  0.0545
  577MOL0     H79603   9.705   6.248  10.507 -0.9987  0.9617  2.5641
  577MOL0     H79604   9.771   6.491  10.516 -3.1419  2.4807 -0.3495
  577MOL0     H79605   9.685   6.521  10.373  0.5129  2.2271  2.0181
  577MOL0     H79606   8.632   6.403  10.591 -1.9572  0.6416 -0.1130
  577MOL0     H79607   8.428   6.338  10.548  0.4953 -0.3672  2.2515
  577MOL0     H79608   8.162   6.040  10.288 -2.4216  0.8168 -0.9635
  577MOL0     H79609   7.961   5.919  10.200 -0.2801  0.7159  0.1142
  577MOL0     H79610   9.020   6.296   9.896 -0.5805 -0.3645  0.0277
  577MOL0     H79611   9.249   6.220   9.928  1.8134  0.9317  1.3306
  577MOL0     H79612   9.562   6.221  10.041 -1.8403  0.0304  0.1017
  577MOL0     H79613   9.808   6.225  10.012 -0.5566 -0.6114 -1.0654
  577MOL0     H79614  10.062   5.923  10.226 -2.2009 -0.2951  0.6666
  577MOL0     H79615   9.999   5.860  10.070 -3.8292  1.3969  2.0935
  577MOL0     H79616  10.246   6.042  10.095  1.8951 -0.7899 -0.0704
  577MOL0     H79617  10.200   5.946   9.959  2.4406  0.6074  0.4604
  577MOL0     H79618  10.395   5.832  10.070  0.2942  3.1475 -0.3599
  577MOL0     H79619  10.316   5.836  10.226 -0.2508  2.1731 -1.0527
  577MOL0     H79620  10.309   5.609  10.097  2.0249  1.7084 -0.7126
  577MOL0     H79621  10.172   5.689  10.004 -3.2477  0.1814  1.6380
  577MOL0     H79622  10.030   5.558  10.394 -0.6335  0.4707  0.2525
  577MOL0     H79623   9.861   5.893  10.261  0.4464  2.1817  1.9073
  577MOL0     H79624   9.521   5.888  10.396 -0.0764 -1.6513  0.1542
  577MOL0     H79625   9.542   5.771  10.270 -0.0462  0.2573 -1.6742
  577MOL0     H79626   9.680   5.797  10.380  0.3621 -0.2260  0.2025
  578MOL0     O79627   1.037   9.523   7.430 -0.3822  0.2211 -0.5298
  578MOL0     C79628   1.021   9.471   7.536 -1.0138  0.5320 -0.9882
  578MOL0     O79629   1.112   9.401   7.611 -0.3339  0.2565  0.7842
  578MOL0     C79630   1.232   9.368   7.556 -0.2745 -0.0600 -0.8237
  578MOL0     C79631   1.320   9.451   7.487  0.8378 -0.3039  0.5285
  578MOL0     C79632   1.444   9.406   7.448 -0.9091  0.4979  0.8611
  578MOL0     C79633   1.486   9.275   7.476  0.3891  0.0659 -0.5674
  578MOL0     O79634   1.617   9.249   7.443  0.2880 -0.5038  0.0457
  578MOL0     C79635   1.655   9.121   7.485  0.3568  0.7833 -0.1618
  578MOL0     C79636   1.808   9.095   7.471  0.0409  0.7000  0.3615
  578MOL0     C79637   1.897   9.175   7.570  0.4022 -0.4671 -0.6902
  578MOL0     C79638   2.022   9.227   7.506 -0.3297 -0.0786  0.2727
  578MOL0     C79639   2.110   9.321   7.596  0.2009  0.6364  0.2393
  578MOL0     C79640   2.038   9.443   7.655 -0.2174  0.4681 -0.0604
  578MOL0     C79641   1.939   9.525   7.562  0.5398  0.2398  0.1737
  578MOL0     C79642   1.868   9.643   7.617 -0.8563 -1.0533 -0.3103
  578MOL0     N79643   1.775   9.608   7.721  0.2822 -0.5489 -0.8186
  578MOL0     C79644   1.662   9.528   7.704  0.5972  0.1449  0.1333
  578MOL0     C79645   1.607   9.528   7.821  0.2283 -0.9983 -0.4156
  578MOL0     C79646   1.488   9.457   7.856  0.4402  0.1663  0.1957
  578MOL0     C79647   1.365   9.543   7.867  0.4617 -0.4489  1.0182
  578MOL0     C79648   1.246   9.486   7.928  1.3304 -0.4079 -0.6397
  578MOL0     C79649   1.137   9.589   7.921  0.6978  0.2978  0.0565
  578MOL0     O79650   1.014   9.538   7.975 -0.1350 -0.4940  0.4911
  578MOL0     C79651   0.895   9.605   7.941  0.5177  0.1088  0.2879
  578MOL0     C79652   0.895   9.732   7.887  0.3577 -0.4083  0.5695
  578MOL0     C79653   0.775   9.799   7.864  0.4510  0.2947 -0.4094
  578MOL0     C79654   0.795   9.930   7.802  0.0012 -0.6317  0.2188
  578MOL0     C79655   0.649   9.732   7.885 -0.5899  0.1393  0.3680
  578MOL0     C79656   0.521   9.788   7.840 -1.1176 -0.5639  0.3501
  578MOL0     O79657   0.405   9.739   7.893  0.5717  0.2561  0.2023
  578MOL0     C79658   0.278   9.789   7.867  0.0042 -0.7791 -0.1717
  578MOL0     C79659   0.236   9.811   7.734  0.6354  0.8082  0.6372
  578MOL0     C79660   0.106   9.835   7.704 -0.2574 -0.2154  0.0774
  578MOL0     C79661   0.014   9.847   7.801  0.1906  0.6366 -0.1144
  578MOL0     O79662  -0.115   9.883   7.769 -0.7379 -0.6964  0.0673
  578MOL0     C79663  -0.237   9.854   7.838  0.4571  0.5056 -0.0490
  578MOL0     C79664  -0.254   9.694   7.857  0.5316 -0.6376  0.0587
  578MOL0     C79665  -0.358   9.682   7.970  0.3659  0.2333  0.1880
  578MOL0     C79666  -0.503   9.713   7.919 -0.2038  0.2267 -0.7025
  578MOL0     C79667  -0.608   9.649   8.014  0.0667 -0.5965 -0.1253
  578MOL0     C79668  -0.752   9.657   7.965  0.5403  0.0323 -0.4283
  578MOL0     C79669  -0.845   9.737   8.056 -0.1435  0.3085  0.0770
  578MOL0     C79670  -0.984   9.754   8.011  0.3573 -0.3940  0.7510
  578MOL0    Cl79671  -1.074   9.869   8.118 -0.4268  0.4288 -0.0281
  578MOL0     C79672   0.050   9.820   7.936 -0.2381 -0.3060  0.3096
  578MOL0     C79673   0.185   9.796   7.963  0.4555 -0.6321 -0.0657
  578MOL0     O79674   0.524   9.883   7.758 -0.2478  0.3656  0.0342
  578MOL0     C79675   0.655   9.606   7.951  0.1608 -0.1560 -0.1745
  578MOL0     C79676   0.781   9.547   7.981  0.2742  0.1120 -0.3301
  578MOL0     N79677   1.676   9.607   7.914  0.4522 -0.6542 -0.0094
  578MOL0     N79678   1.776   9.657   7.845  0.7891 -0.5626  0.0764
  578MOL0     C79679   1.392   9.187   7.534 -0.1918  0.1676 -0.1617
  578MOL0     C79680   1.275   9.237   7.583  0.3756 -0.2893  0.1197
  578MOL0     C79681   0.876   9.468   7.577 -0.2034 -0.6178  0.3776
  578MOL0     C79682   0.799   9.589   7.582 -0.4755  0.6222 -0.6619
  578MOL0     C79683   0.670   9.587   7.621  0.6180 -0.1962 -0.5924
  578MOL0     C79684   0.608   9.467   7.663  0.2270 -1.4392  0.2620
  578MOL0     O79685   0.479   9.485   7.706 -0.2254  0.5548 -0.0891
  578MOL0     C79686   0.424   9.379   7.777  0.7224  0.3176  0.2315
  578MOL0     C79687   0.299   9.407   7.865 -0.6319  0.1076 -0.1971
  578MOL0     C79688   0.175   9.402   7.785  0.1176 -0.0994  0.1809
  578MOL0     C79689   0.064   9.476   7.860  0.9434  0.2530 -0.3339
  578MOL0     C79690  -0.030   9.391   7.943 -0.0249 -0.2783 -0.7364
  578MOL0     C79691  -0.106   9.320   8.013 -0.4142 -0.3679 -0.5262
  578MOL0     C79692   0.676   9.343   7.659 -0.3776 -0.3837 -0.2786
  578MOL0     C79693   0.817   9.344   7.622  0.4537 -0.1835 -0.1871
  578MOL0     C79694   0.893   9.214   7.635  0.3391  0.5349 -0.6579
  578MOL0     H79695   1.283   9.550   7.460 -0.5394 -0.6980  0.8554
  578MOL0     H79696   1.508   9.481   7.403 -2.6368  1.4446 -0.1314
  578MOL0     H79697   1.605   9.048   7.420 -2.9329  0.4709  2.4524
  578MOL0     H79698   1.636   9.115   7.592 -1.9551  1.2910 -0.4906
  578MOL0     H79699   1.833   8.990   7.487  0.6475  1.0321  1.7632
  578MOL0     H79700   1.842   9.105   7.368 -1.3152  0.3531 -0.1431
  578MOL0     H79701   1.841   9.258   7.615  0.3896 -0.6677 -0.3351
  578MOL0     H79702   1.929   9.110   7.652 -2.0798 -0.6056  0.2438
  578MOL0     H79703   2.082   9.143   7.469 -0.3075  0.9886 -2.3106
  578MOL0     H79704   1.988   9.285   7.419  0.4202 -0.9588 -0.6297
  578MOL0     H79705   2.205   9.342   7.546  3.7646 -2.7832  4.7293
  578MOL0     H79706   2.142   9.253   7.675 -1.2391  0.0970  0.3869
  578MOL0     H79707   1.976   9.398   7.733 -1.8651  0.5996 -1.2474
  578MOL0     H79708   2.107   9.522   7.689 -1.1108  1.1760  0.1555
  578MOL0     H79709   1.859   9.463   7.520  0.2659 -0.3006  1.4539
  578MOL0     H79710   2.007   9.569   7.489  0.8643 -1.9332 -0.9124
  578MOL0     H79711   1.943   9.711   7.658  0.4285 -2.2321 -0.6413
  578MOL0     H79712   1.830   9.691   7.526  0.0504  2.9937  1.2224
  578MOL0     H79713   1.626   9.473   7.618  1.5486  1.5676 -1.2264
  578MOL0     H79714   1.505   9.404   7.950  0.3393  0.8864  0.6302
  578MOL0     H79715   1.461   9.381   7.783 -2.6423  0.2593  1.1024
  578MOL0     H79716   1.395   9.634   7.920 -0.7564  0.7616 -0.2854
  578MOL0     H79717   1.337   9.576   7.766  2.0312 -0.1308  0.6520
  578MOL0     H79718   1.214   9.405   7.862  0.3173 -2.0536  1.7299
  578MOL0     H79719   1.270   9.454   8.029  1.9528  0.4468 -0.4946
  578MOL0     H79720   1.158   9.688   7.964  2.4707 -0.0557  0.0886
  578MOL0     H79721   1.130   9.622   7.817 -1.4153 -0.0472  0.0427
  578MOL0     H79722   0.989   9.782   7.867  1.4604 -0.9660  3.7735
  578MOL0     H79723   0.889   9.976   7.832  1.8147 -3.9240 -0.0402
  578MOL0     H79724   0.714   9.994   7.840  1.4560 -0.3021  2.9410
  578MOL0     H79725   0.791   9.935   7.692  1.7849  0.6706  0.1832
  578MOL0     H79726   0.301   9.794   7.648 -2.2851 -1.0563 -1.3913
  578MOL0     H79727   0.074   9.846   7.601  1.0400 -0.7983 -0.4212
  578MOL0     H79728  -0.235   9.907   7.934 -1.0229 -0.0529  0.3060
  578MOL0     H79729  -0.312   9.888   7.767 -0.1285 -1.1750 -0.2709
  578MOL0     H79730  -0.284   9.639   7.767  0.4152  0.3096 -0.4902
  578MOL0     H79731  -0.165   9.647   7.899  0.8820  0.1683  0.2223
  578MOL0     H79732  -0.327   9.746   8.053  3.3813  0.3482 -0.8849
  578MOL0     H79733  -0.363   9.576   8.000 -0.3084 -0.6180 -2.6615
  578MOL0     H79734  -0.521   9.662   7.824 -0.5989 -1.0068  0.0100
  578MOL0     H79735  -0.517   9.822   7.916 -1.7491  0.0320 -2.2056
  578MOL0     H79736  -0.579   9.545   8.030  0.6536 -0.3430  0.5085
  578MOL0     H79737  -0.594   9.702   8.108 -0.6739 -0.4932 -0.0686
  578MOL0     H79738  -0.796   9.557   7.970  2.9997 -1.3017 -2.9897
  578MOL0     H79739  -0.765   9.696   7.864 -1.3690 -0.4753 -0.4064
  578MOL0     H79740  -0.806   9.838   8.075 -1.2525  0.1128  4.4674
  578MOL0     H79741  -0.841   9.681   8.150  0.1580 -0.4458 -0.3744
  578MOL0     H79742  -1.037   9.658   8.008 -0.0907 -0.1548 -1.6249
  578MOL0     H79743  -0.978   9.806   7.914 -1.9236 -0.2342  0.6393
  578MOL0     H79744  -0.015   9.823   8.022  0.0751 -1.4441  0.5980
  578MOL0     H79745   0.212   9.778   8.067  1.8221 -0.1890 -0.3247
  578MOL0     H79746   0.566   9.551   7.983  0.6014 -0.2435  0.9496
  578MOL0     H79747   0.793   9.450   8.028 -1.5774 -1.5732 -3.0220
  578MOL0     H79748   1.406   9.079   7.536 -2.4096 -0.2222  3.5180
  578MOL0     H79749   1.200   9.173   7.628  0.2733 -0.9736 -0.9965
  578MOL0     H79750   0.842   9.682   7.547 -0.4224  0.1494 -1.9073
  578MOL0     H79751   0.610   9.678   7.614  1.2613  0.0919 -2.9473
  578MOL0     H79752   0.384   9.312   7.700  0.5416 -1.3744  1.7385
  578MOL0     H79753   0.497   9.324   7.837 -0.3189 -0.7846  0.5280
  578MOL0     H79754   0.317   9.508   7.902 -0.8454  0.3576 -0.7650
  578MOL0     H79755   0.286   9.343   7.952 -0.5462  1.8590  1.1686
  578MOL0     H79756   0.195   9.458   7.693  1.1918  0.1288  0.5410
  578MOL0     H79757   0.143   9.305   7.746 -1.8202  0.7388 -0.4192
  578MOL0     H79758   0.007   9.517   7.775  1.1362  0.7583 -0.2251
  578MOL0     H79759   0.105   9.561   7.916 -0.4834  1.6391 -1.3061
  578MOL0     H79760  -0.152   9.265   8.093  3.6786  1.0231  3.2382
  578MOL0     H79761   0.634   9.249   7.694  1.9081 -0.6969  1.9617
  578MOL0     H79762   0.916   9.168   7.538 -1.1535 -2.4788  0.3125
  578MOL0     H79763   0.972   9.210   7.710 -0.5705  1.0586  0.3637
  578MOL0     H79764   0.828   9.135   7.673  1.5927 -1.0311 -1.6539
  579MOL0     O79765   0.858   5.803   5.055  0.0164 -0.2902 -0.2799
  579MOL0     C79766   0.866   5.912   5.114 -0.2008  0.4450 -0.2300
  579MOL0     O79767   0.981   5.977   5.152 -0.1794  0.1519  0.1758
  579MOL0     C79768   1.101   5.908   5.161  0.2463 -0.1064 -0.1786
  579MOL0     C79769   1.115   5.771   5.184 -0.0396  0.2024  0.6439
  579MOL0     C79770   1.244   5.712   5.206 -0.0689 -0.1572  0.7971
  579MOL0     C79771   1.360   5.793   5.195 -0.3766  0.0236 -0.0962
  579MOL0     O79772   1.473   5.717   5.206  0.0998 -0.1009  0.7864
  579MOL0     C79773   1.593   5.787   5.254  0.3522  0.0554  0.2563
  579MOL0     C79774   1.674   5.683   5.339  0.4446 -0.7381  0.4016
  579MOL0     C79775   1.781   5.750   5.415  0.0302 -0.4541 -0.4222
  579MOL0     C79776   1.885   5.797   5.313  0.1196  0.2718 -0.6653
  579MOL0     C79777   2.017   5.846   5.376  0.8439  0.1753 -0.0089
  579MOL0     C79778   2.094   5.741   5.469  0.2397  0.3857  0.0275
  579MOL0     C79779   2.240   5.781   5.488 -0.7504 -0.3857 -0.2083
  579MOL0     C79780   2.326   5.758   5.367 -0.2709  0.6593 -0.1522
  579MOL0     N79781   2.464   5.745   5.417  0.8624 -0.4476  0.4174
  579MOL0     C79782   2.528   5.841   5.493 -0.2036  0.2082  0.2231
  579MOL0     C79783   2.629   5.773   5.562  0.3208  0.2660  0.5987
  579MOL0     C79784   2.737   5.835   5.639 -1.2197  0.2642  0.0466
  579MOL0     C79785   2.859   5.739   5.646 -0.5785  1.7253 -0.9780
  579MOL0     C79786   2.975   5.820   5.693 -0.7790 -0.6848  0.2593
  579MOL0     C79787   3.075   5.745   5.772 -1.4175  1.3937  0.9301
  579MOL0     O79788   3.178   5.833   5.820 -0.0251 -0.3942 -0.5126
  579MOL0     C79789   3.292   5.762   5.843 -0.2760  1.2906 -0.6573
  579MOL0     C79790   3.305   5.650   5.931  0.8546 -0.1773 -0.6635
  579MOL0     C79791   3.432   5.590   5.945  0.2448  0.9449  0.0227
  579MOL0     C79792   3.433   5.447   6.005  0.7664 -1.1281  0.1915
  579MOL0     C79793   3.549   5.632   5.875  0.0764  0.1220  0.0212
  579MOL0     C79794   3.683   5.573   5.869 -0.1086  1.0896  0.2656
  579MOL0     O79795   3.775   5.596   5.768  0.8152  0.1846 -0.5100
  579MOL0     C79796   3.894   5.527   5.758 -0.4157  0.8051  0.6857
  579MOL0     C79797   3.909   5.383   5.774 -0.1986 -0.8937  0.9705
  579MOL0     C79798   4.031   5.315   5.779 -0.7324 -0.5016  0.0188
  579MOL0     C79799   4.155   5.393   5.764  0.0900 -0.0746  0.9476
  579MOL0     O79800   4.286   5.353   5.773  0.1399  0.2874  0.3943
  579MOL0     C79801   4.321   5.217   5.794 -0.7763  0.3770 -0.2948
  579MOL0     C79802   4.470   5.207   5.784 -0.0093  0.6901 -0.0586
  579MOL0     C79803   4.537   5.259   5.648  0.8006  0.1774 -0.2271
  579MOL0     C79804   4.683   5.232   5.657  0.5082  0.4945 -0.5419
  579MOL0     C79805   4.755   5.360   5.591 -0.3391  0.5675  0.4265
  579MOL0     C79806   4.875   5.329   5.505 -0.5963 -0.4886  0.4773
  579MOL0     C79807   4.991   5.265   5.597  0.2993  0.4012  0.5353
  579MOL0     C79808   5.111   5.226   5.509 -1.1204  0.5082 -0.3086
  579MOL0    Cl79809   5.171   5.378   5.431 -0.3886  0.2713  0.6536
  579MOL0     C79810   4.134   5.527   5.729  0.4444 -0.0776 -0.3779
  579MOL0     C79811   4.007   5.599   5.730 -0.3323 -0.5448  0.2377
  579MOL0     O79812   3.710   5.517   5.971  0.2020 -0.4988  0.1777
  579MOL0     C79813   3.532   5.743   5.788 -0.5151 -0.4162  0.4691
  579MOL0     C79814   3.409   5.803   5.775 -0.0050 -0.1199 -0.9522
  579MOL0     N79815   2.611   5.641   5.536 -0.5272 -0.5605 -0.1020
  579MOL0     N79816   2.518   5.623   5.445  0.7512  0.8256 -0.4049
  579MOL0     C79817   1.343   5.937   5.185 -0.4961 -0.6566  0.0407
  579MOL0     C79818   1.220   5.986   5.158 -0.0316 -0.6733  0.0692
  579MOL0     C79819   0.743   5.988   5.154 -0.3250  0.2660  0.3612
  579MOL0     C79820   0.773   6.125   5.202  0.5256 -0.1357 -0.4389
  579MOL0     C79821   0.669   6.212   5.229  0.4714  0.5061 -0.7815
  579MOL0     C79822   0.540   6.171   5.220  0.6404 -0.5504 -0.3196
  579MOL0     O79823   0.450   6.262   5.257 -0.1309 -0.0946 -0.3276
  579MOL0     C79824   0.318   6.252   5.211  0.1329  0.1935 -0.1102
  579MOL0     C79825   0.246   6.164   5.318 -0.6853  0.3480  0.0368
  579MOL0     C79826   0.128   6.086   5.262  0.4181 -0.2973  0.7101
  579MOL0     C79827   0.083   5.981   5.366 -0.0453 -0.2838 -0.7731
  579MOL0     C79828   0.017   6.052   5.478  0.1067 -0.1087 -0.1930
  579MOL0     C79829  -0.037   6.120   5.561  0.7800 -0.1581  0.7673
  579MOL0     C79830   0.511   6.038   5.187 -0.6176  0.5986 -1.4356
  579MOL0     C79831   0.610   5.947   5.152  0.4209 -1.1025  0.4474
  579MOL0     C79832   0.575   5.800   5.133 -0.6800 -0.0463 -0.5241
  579MOL0     H79833   1.033   5.700   5.190 -2.8622  3.3515  3.2232
  579MOL0     H79834   1.245   5.608   5.234 -3.0007 -0.5359 -0.1620
  579MOL0     H79835   1.548   5.862   5.320 -2.3411 -2.4321  1.4165
  579MOL0     H79836   1.654   5.834   5.176 -0.3225  0.2370 -0.1787
  579MOL0     H79837   1.607   5.630   5.408 -0.4456  0.0387  0.1465
  579MOL0     H79838   1.716   5.609   5.270 -0.8328 -1.7452  0.6607
  579MOL0     H79839   1.745   5.839   5.467  1.3840 -0.6232  0.8712
  579MOL0     H79840   1.837   5.691   5.488  3.5652  2.5891 -0.3379
  579MOL0     H79841   1.908   5.714   5.245 -4.7434 -1.3259 -0.7326
  579MOL0     H79842   1.849   5.874   5.244  1.0741  0.5638 -0.8640
  579MOL0     H79843   1.994   5.939   5.429 -0.2694  0.3233 -0.7222
  579MOL0     H79844   2.076   5.880   5.290  2.1134 -1.1872  0.2925
  579MOL0     H79845   2.043   5.744   5.565 -0.0261  2.7870 -0.1212
  579MOL0     H79846   2.091   5.643   5.420 -0.6572  1.6620 -2.6660
  579MOL0     H79847   2.279   5.717   5.568 -1.9913 -3.9765 -2.2324
  579MOL0     H79848   2.251   5.887   5.513  0.8599  0.3353 -3.4556
  579MOL0     H79849   2.299   5.662   5.323  1.7510  0.5063 -1.1641
  579MOL0     H79850   2.319   5.840   5.294  1.9127 -2.5776 -4.4348
  579MOL0     H79851   2.501   5.946   5.488 -2.4562 -0.2677  1.4113
  579MOL0     H79852   2.710   5.855   5.743  1.1703 -0.7432  0.9234
  579MOL0     H79853   2.760   5.929   5.590 -1.5083  0.1588 -0.2996
  579MOL0     H79854   2.835   5.653   5.709  1.5988  1.4870 -0.4033
  579MOL0     H79855   2.876   5.696   5.548  0.0864 -3.2315  1.0496
  579MOL0     H79856   3.025   5.874   5.611 -1.1848  0.1587  0.5537
  579MOL0     H79857   2.941   5.903   5.756 -1.1096 -0.6534  0.0445
  579MOL0     H79858   3.028   5.694   5.856  0.3462  1.0964  1.7894
  579MOL0     H79859   3.111   5.666   5.705 -2.9019  1.3034  0.2028
  579MOL0     H79860   3.218   5.605   5.977 -0.0108  0.0544 -2.0241
  579MOL0     H79861   3.336   5.434   6.054  0.5292  1.8560  0.7424
  579MOL0     H79862   3.507   5.423   6.082  0.3094 -1.2910  0.5885
  579MOL0     H79863   3.437   5.378   5.921  2.5927 -1.2962  0.3845
  579MOL0     H79864   3.810   5.339   5.779 -0.4870 -0.1853  2.2370
  579MOL0     H79865   4.032   5.208   5.800  1.7378 -0.4591  0.4613
  579MOL0     H79866   4.289   5.186   5.894 -2.5626 -0.8930 -1.2118
  579MOL0     H79867   4.271   5.157   5.718 -0.2760 -1.3088  0.6533
  579MOL0     H79868   4.508   5.251   5.877 -0.0560 -3.2313  2.0509
  579MOL0     H79869   4.497   5.101   5.790 -1.7330  0.1993 -0.5169
  579MOL0     H79870   4.515   5.366   5.650 -0.7613  0.0114  4.4862
  579MOL0     H79871   4.505   5.211   5.555  3.4692 -1.1270 -0.5462
  579MOL0     H79872   4.703   5.134   5.613  1.2419  1.0765 -1.5443
  579MOL0     H79873   4.717   5.243   5.760  1.2834  2.4820 -0.9531
  579MOL0     H79874   4.686   5.412   5.524  0.0677  0.8402  0.2118
  579MOL0     H79875   4.798   5.419   5.673  0.0178 -1.3869  1.7196
  579MOL0     H79876   4.918   5.420   5.462  0.2649 -0.9298  0.3853
  579MOL0     H79877   4.847   5.257   5.428  0.7966 -1.1945  0.6171
  579MOL0     H79878   4.949   5.176   5.643  2.9400 -0.7518  0.8578
  579MOL0     H79879   5.025   5.345   5.664  0.4729  0.7630  0.0245
  579MOL0     H79880   5.075   5.161   5.429 -1.8561  1.7725 -1.0333
  579MOL0     H79881   5.187   5.180   5.573 -0.2695  0.5200 -1.2857
  579MOL0     H79882   4.228   5.578   5.708  0.6195 -1.2653 -2.8782
  579MOL0     H79883   4.002   5.701   5.694  0.6475 -0.8779 -0.8902
  579MOL0     H79884   3.622   5.774   5.737  0.7362 -1.5479  1.8923
  579MOL0     H79885   3.400   5.889   5.710 -0.4983  2.2556  2.0252
  579MOL0     H79886   1.429   6.004   5.180  0.6752 -2.0592  0.7081
  579MOL0     H79887   1.202   6.093   5.154 -0.9762 -0.6858  2.4988
  579MOL0     H79888   0.874   6.164   5.207  0.6129 -0.5289  1.6832
  579MOL0     H79889   0.683   6.310   5.274  1.1569  0.1406 -0.1744
  579MOL0     H79890   0.272   6.351   5.207  1.0565  0.6180 -0.5570
  579MOL0     H79891   0.302   6.199   5.117 -2.2203  1.2705 -0.3970
  579MOL0     H79892   0.205   6.223   5.401 -2.7324 -1.4630  0.4065
  579MOL0     H79893   0.318   6.101   5.372  0.5872  2.4606  0.9501
  579MOL0     H79894   0.045   6.155   5.246 -0.3660 -1.0481  1.3802
  579MOL0     H79895   0.164   6.037   5.171 -1.2402  0.4064 -0.3675
  579MOL0     H79896   0.171   5.925   5.397 -0.8340 -0.1689  1.9785
  579MOL0     H79897   0.010   5.911   5.324 -0.7258 -1.4721  2.0964
  579MOL0     H79898  -0.083   6.175   5.641 -0.5689  0.5515 -0.4426
  579MOL0     H79899   0.412   5.996   5.198  0.4004 -1.7928 -0.7237
  579MOL0     H79900   0.478   5.774   5.176  0.7806 -1.1048  2.4130
  579MOL0     H79901   0.589   5.782   5.026  2.6899 -2.2761  0.1300
  579MOL0     H79902   0.650   5.734   5.178 -0.4171 -1.4437 -2.8131
  580MOL0     O79903   7.745   8.470   5.052 -0.2604 -0.3120 -0.0796
  580MOL0     C79904   7.696   8.576   5.075 -0.4719  0.1922 -0.5813
  580MOL0     O79905   7.752   8.682   5.155 -0.0523  0.8807 -0.3059
  580MOL0     C79906   7.884   8.659   5.192 -0.2724 -0.4185 -0.3499
  580MOL0     C79907   7.913   8.609   5.315  0.2733  0.6318 -0.6530
  580MOL0     C79908   8.045   8.577   5.355  0.1090 -0.3204 -0.6306
  580MOL0     C79909   8.153   8.616   5.273  0.9462  0.9426 -0.8093
  580MOL0     O79910   8.272   8.589   5.321 -0.1771  0.3325 -0.1019
  580MOL0     C79911   8.377   8.613   5.240 -0.9039  0.4496  0.2217
  580MOL0     C79912   8.494   8.576   5.327  0.1593  0.8072  0.5458
  580MOL0     C79913   8.630   8.620   5.263  0.0591 -0.1889 -0.3379
  580MOL0     C79914   8.742   8.565   5.338 -0.3618  0.7129 -0.7107
  580MOL0     C79915   8.871   8.607   5.275  0.2545  0.1651 -0.0123
  580MOL0     C79916   8.998   8.553   5.341 -0.0862 -0.3383  0.7350
  580MOL0     C79917   9.126   8.599   5.279 -1.1895 -0.0204 -0.1163
  580MOL0     C79918   9.246   8.581   5.376  0.5171  0.4020  0.2723
  580MOL0     N79919   9.374   8.629   5.315  0.1055  0.0915 -0.4775
  580MOL0     C79920   9.445   8.552   5.228 -0.5012 -0.1505  0.0257
  580MOL0     C79921   9.565   8.624   5.209 -0.0968  0.0952  0.8112
  580MOL0     C79922   9.695   8.573   5.143  0.4980 -0.3581 -0.2004
  580MOL0     C79923   9.821   8.662   5.162 -0.7354 -0.3083  0.1007
  580MOL0     C79924   9.949   8.583   5.106  0.0034 -0.5377  0.0198
  580MOL0     C79925  10.080   8.662   5.108  0.3770  0.7294  0.4036
  580MOL0     O79926  10.098   8.687   5.250 -1.0708 -0.9915 -0.0377
  580MOL0     C79927  10.231   8.685   5.293  0.3221  0.3811  1.1472
  580MOL0     C79928  10.264   8.653   5.424 -0.1532  0.3513  0.0178
  580MOL0     C79929  10.394   8.645   5.463  0.0158  0.5339  0.7148
  580MOL0     C79930  10.407   8.626   5.613 -1.0687  0.0692 -0.1409
  580MOL0     C79931  10.497   8.663   5.368  0.0676  0.3909  0.6878
  580MOL0     C79932  10.643   8.638   5.409  0.0163  0.3561 -0.1812
  580MOL0     O79933  10.679   8.606   5.538 -0.0796 -0.4461 -0.1369
  580MOL0     C79934  10.802   8.565   5.584 -1.2351  0.3719  0.4644
  580MOL0     C79935  10.901   8.521   5.490  0.5781 -0.4017  0.7216
  580MOL0     C79936  11.024   8.480   5.528 -0.4081 -0.2828 -0.8664
  580MOL0     C79937  11.059   8.477   5.663 -0.1522  0.3291  0.5012
  580MOL0     O79938  11.188   8.445   5.689 -0.3969 -0.1138  0.1544
  580MOL0     C79939  11.233   8.484   5.823  0.8250  0.7469 -0.1571
  580MOL0     C79940  11.378   8.491   5.819  0.2956  0.6803  0.5461
  580MOL0     C79941  11.426   8.528   5.971  0.0094 -0.4925  0.3247
  580MOL0     C79942  11.582   8.505   5.980 -0.6272  0.2845 -0.0626
  580MOL0     C79943  11.617   8.493   6.130 -0.4567 -0.1787 -0.3584
  580MOL0     C79944  11.663   8.630   6.176  1.7467  0.0063  0.5811
  580MOL0     C79945  11.684   8.627   6.322  0.4244 -0.4321  0.2068
  580MOL0     C79946  11.713   8.774   6.373  0.9782 -0.2525  1.3971
  580MOL0    Cl79947  11.879   8.823   6.322 -0.0695 -0.1663  0.3263
  580MOL0     C79948  10.960   8.516   5.756  0.4140  0.3118  0.2152
  580MOL0     C79949  10.835   8.560   5.720  0.3023  0.7291  0.0807
  580MOL0     O79950  10.718   8.686   5.326 -0.5304  1.3001 -0.5969
  580MOL0     C79951  10.465   8.693   5.230 -0.4622  0.1853  0.1339
  580MOL0     C79952  10.334   8.707   5.201  0.3957  0.0931  0.1619
  580MOL0     N79953   9.551   8.740   5.274 -0.6503 -0.5173 -0.2645
  580MOL0     N79954   9.437   8.751   5.341 -0.4030  0.0138  0.4809
  580MOL0     C79955   8.129   8.678   5.147  0.3066 -0.5199 -0.5351
  580MOL0     C79956   7.991   8.702   5.104 -0.5279  0.3366  0.0208
  580MOL0     C79957   7.550   8.580   5.020 -0.0485  1.0916  0.4797
  580MOL0     C79958   7.462   8.468   5.030 -0.9755 -0.1110 -0.1595
  580MOL0     C79959   7.342   8.471   4.967  0.4248  0.5626 -0.5241
  580MOL0     C79960   7.292   8.582   4.899  0.5762 -0.4730 -0.2165
  580MOL0     O79961   7.172   8.574   4.833 -0.1342  0.0249 -0.1806
  580MOL0     C79962   7.132   8.691   4.773  0.2615 -0.1658 -0.1072
  580MOL0     C79963   6.996   8.663   4.689  0.4040  0.8259  1.0126
  580MOL0     C79964   7.006   8.528   4.616  0.7986  0.3643 -0.5425
  580MOL0     C79965   6.903   8.507   4.501 -0.3293  0.0950 -0.4162
  580MOL0     C79966   6.771   8.478   4.566  0.1007  0.0424 -0.2843
  580MOL0     C79967   6.667   8.460   4.615  0.3146  0.5856 -0.3046
  580MOL0     C79968   7.385   8.694   4.895  0.2580  0.0165  0.1767
  580MOL0     C79969   7.510   8.694   4.958  0.3190  0.0914  0.1437
  580MOL0     C79970   7.589   8.824   4.950 -0.4907  0.1239 -0.1475
  580MOL0     H79971   7.829   8.584   5.379  0.8819 -0.5639 -0.2876
  580MOL0     H79972   8.080   8.511   5.433  1.0665  0.0199 -0.7561
  580MOL0     H79973   8.384   8.717   5.210  3.8272 -0.1437 -1.4429
  580MOL0     H79974   8.369   8.538   5.161  0.8418  1.2267 -0.7322
  580MOL0     H79975   8.481   8.632   5.420 -0.1527  0.4215  0.7419
  580MOL0     H79976   8.500   8.469   5.350 -2.3436  0.9544  2.3553
  580MOL0     H79977   8.632   8.584   5.160 -1.8436  0.7188 -0.7538
  580MOL0     H79978   8.641   8.729   5.273  1.5026 -0.5050  2.6280
  580MOL0     H79979   8.752   8.609   5.438  2.0961  2.0483 -1.4506
  580MOL0     H79980   8.738   8.458   5.358 -0.3129  1.0459  1.2574
  580MOL0     H79981   8.869   8.716   5.266 -0.5515  0.0320 -2.0768
  580MOL0     H79982   8.865   8.569   5.172  3.7822 -0.7194 -0.0380
  580MOL0     H79983   9.003   8.598   5.441 -0.1024  2.5411 -0.4595
  580MOL0     H79984   9.007   8.444   5.336  2.5176 -0.1168 -2.7009
  580MOL0     H79985   9.113   8.705   5.256 -0.6712  0.6784  2.5627
  580MOL0     H79986   9.148   8.549   5.184  0.5946 -0.1279  0.3131
  580MOL0     H79987   9.221   8.631   5.469 -0.9265 -1.5705  1.0182
  580MOL0     H79988   9.249   8.473   5.397 -1.9384  0.1828 -0.1793
  580MOL0     H79989   9.414   8.454   5.194  0.7672 -0.7510  0.5344
  580MOL0     H79990   9.673   8.571   5.036  1.0693  0.7686 -0.3466
  580MOL0     H79991   9.716   8.468   5.168  0.9421 -0.5574 -1.3711
  580MOL0     H79992   9.817   8.763   5.120 -0.8822 -0.7385 -0.9484
  580MOL0     H79993   9.835   8.682   5.268  1.0751  3.3340 -0.6746
  580MOL0     H79994   9.948   8.499   5.175 -4.3843 -3.3135 -2.8969
  580MOL0     H79995   9.922   8.545   5.007  0.3136 -1.6952  0.3707
  580MOL0     H79996  10.147   8.596   5.051 -0.3683  2.2102 -2.3739
  580MOL0     H79997  10.087   8.751   5.045  1.4410 -1.4329 -2.7937
  580MOL0     H79998  10.179   8.631   5.488  1.8835 -1.3463  2.2822
  580MOL0     H79999  10.321   8.657   5.672 -1.4787  0.4910 -0.9417
  580MOL0     H80000  10.492   8.677   5.660 -1.2396  0.0004  0.2465
  580MOL0     H80001  10.428   8.521   5.634 -1.1997  0.4279  2.0557
  580MOL0     H80002  10.879   8.529   5.384  2.5608 -0.6606  0.2561
  580MOL0     H80003  11.099   8.455   5.453  0.9070  0.3182  0.2094
  580MOL0     H80004  11.198   8.579   5.863 -0.8090 -0.8822  2.6204
  580MOL0     H80005  11.192   8.405   5.887  1.7683 -0.1036 -0.5783
  580MOL0     H80006  11.433   8.404   5.781  2.8898  2.4608 -0.0538
  580MOL0     H80007  11.408   8.572   5.752 -1.6971 -0.3087 -1.6728
  580MOL0     H80008  11.370   8.463   6.038 -3.6064  2.6518  0.7291
  580MOL0     H80009  11.401   8.625   6.015 -0.7920 -1.3017  1.7366
  580MOL0     H80010  11.636   8.586   5.930 -1.0211 -0.6112 -2.0354
  580MOL0     H80011  11.616   8.416   5.926 -1.2397  1.3973 -2.4257
  580MOL0     H80012  11.527   8.471   6.188 -1.5895  2.0549 -1.1590
  580MOL0     H80013  11.696   8.416   6.131 -1.7315 -1.5648  1.9275
  580MOL0     H80014  11.596   8.709   6.141  1.1426 -0.4476  0.6961
  580MOL0     H80015  11.757   8.658   6.129  1.3256  1.2571  0.4564
  580MOL0     H80016  11.760   8.552   6.344 -0.7253 -2.5094 -2.3160
  580MOL0     H80017  11.592   8.600   6.375  0.1317 -2.0537 -1.0643
  580MOL0     H80018  11.702   8.769   6.481 -1.9752 -2.4651  1.1310
  580MOL0     H80019  11.637   8.843   6.337  0.3886 -1.2803  0.6093
  580MOL0     H80020  10.983   8.508   5.862 -1.2383  3.4094  0.9499
  580MOL0     H80021  10.759   8.594   5.790  1.1757  1.6231  0.6310
  580MOL0     H80022  10.537   8.710   5.150 -1.6000 -1.2156 -1.2367
  580MOL0     H80023  10.315   8.745   5.101 -1.0623  0.5454  0.5930
  580MOL0     H80024   8.203   8.716   5.078  0.4384  0.8091  0.3007
  580MOL0     H80025   7.981   8.763   5.015  2.9835  1.7459  0.4344
  580MOL0     H80026   7.495   8.384   5.090 -0.9989  0.3501  0.5219
  580MOL0     H80027   7.286   8.378   4.973 -0.7569  1.3221  0.8810
  580MOL0     H80028   7.109   8.769   4.847 -1.3278  0.7905 -1.5366
  580MOL0     H80029   7.208   8.733   4.706  2.0328 -1.7449  0.8184
  580MOL0     H80030   6.960   8.744   4.625 -3.2965 -2.9804 -2.3776
  580MOL0     H80031   6.910   8.645   4.754  0.2122 -0.3491  0.4771
  580MOL0     H80032   7.097   8.515   4.558 -0.5277 -1.5161 -2.3245
  580MOL0     H80033   7.004   8.445   4.687  3.6300  0.4452 -0.2695
  580MOL0     H80034   6.919   8.416   4.442  2.4026  1.9093 -2.7659
  580MOL0     H80035   6.905   8.593   4.432  3.3130  0.0340 -0.5974
  580MOL0     H80036   6.569   8.449   4.657  0.4232  0.5796 -0.0485
  580MOL0     H80037   7.358   8.780   4.835  0.6842 -0.7704 -1.1915
  580MOL0     H80038   7.687   8.804   4.905 -0.5642 -0.7721  0.0810
  580MOL0     H80039   7.526   8.894   4.894  2.8429  2.3570 -1.4185
  580MOL0     H80040   7.609   8.876   5.044  1.0089  0.3482 -0.5625
  581MOL0     O80041   0.224   7.393   6.144  0.7870 -0.4573 -0.2577
  581MOL0     C80042   0.274   7.281   6.136 -0.2416  0.4864  0.6537
  581MOL0     O80043   0.410   7.256   6.126 -0.9827  0.0979  0.3341
  581MOL0     C80044   0.509   7.342   6.181  0.3543  0.5829 -0.7159
  581MOL0     C80045   0.496   7.458   6.256  0.3358  0.4994  0.1927
  581MOL0     C80046   0.604   7.538   6.293 -0.5121 -0.5138 -0.1822
  581MOL0     C80047   0.728   7.500   6.248 -0.7909  0.4420 -0.1602
  581MOL0     O80048   0.836   7.579   6.276 -0.1375 -0.2476 -0.5883
  581MOL0     C80049   0.950   7.527   6.345  0.2785  0.2833  1.1434
  581MOL0     C80050   0.914   7.501   6.495 -0.6928  0.5587  0.2578
  581MOL0     C80051   1.036   7.462   6.581 -0.3448 -0.2578 -0.7214
  581MOL0     C80052   1.016   7.447   6.723 -0.5500  0.0710 -0.5848
  581MOL0     C80053   1.142   7.415   6.798 -0.3406 -0.4716  0.2576
  581MOL0     C80054   1.135   7.442   6.949 -0.7928  0.0019 -0.6056
  581MOL0     C80055   1.274   7.408   7.011 -0.5486 -0.3958  0.7690
  581MOL0     C80056   1.252   7.386   7.159  0.8299 -0.2370  0.3931
  581MOL0     N80057   1.379   7.372   7.239 -0.3892  0.6302 -0.6290
  581MOL0     C80058   1.473   7.470   7.278  0.5501 -0.4232  0.7560
  581MOL0     C80059   1.573   7.400   7.339  0.5488  0.0430 -0.4465
  581MOL0     C80060   1.702   7.449   7.383 -0.1560 -0.1116 -0.2502
  581MOL0     C80061   1.711   7.468   7.535 -0.3295 -0.4594 -0.0741
  581MOL0     C80062   1.823   7.562   7.582  0.0897 -0.1509 -0.1061
  581MOL0     C80063   1.965   7.501   7.572  0.4061 -0.6379  0.1693
  581MOL0     O80064   2.042   7.584   7.648 -0.5181  0.4045 -0.4933
  581MOL0     C80065   2.177   7.561   7.652 -0.0648 -0.5007  0.2992
  581MOL0     C80066   2.253   7.573   7.535  1.0692  0.3751  0.5450
  581MOL0     C80067   2.390   7.564   7.535 -0.2026  0.1587  0.2965
  581MOL0     C80068   2.460   7.571   7.403  0.3918 -0.9500  0.2444
  581MOL0     C80069   2.458   7.543   7.659 -0.3490 -0.6268 -0.0074
  581MOL0     C80070   2.611   7.532   7.671  1.1576 -1.1606  0.0712
  581MOL0     O80071   2.653   7.464   7.784  0.1024 -0.0285  0.3072
  581MOL0     C80072   2.782   7.493   7.825 -0.2377 -0.6869 -0.7362
  581MOL0     C80073   2.813   7.615   7.883 -0.0297 -0.3562 -0.0971
  581MOL0     C80074   2.941   7.637   7.943 -0.0575 -0.1946 -0.4744
  581MOL0     C80075   3.039   7.541   7.926 -0.1005  0.0537 -0.8430
  581MOL0     O80076   3.160   7.553   7.985  0.6135  0.1106  0.6888
  581MOL0     C80077   3.176   7.629   8.106 -0.3685 -0.2152  1.3179
  581MOL0     C80078   3.319   7.633   8.152 -0.6249  0.4603  0.3783
  581MOL0     C80079   3.415   7.718   8.058 -0.3838  0.5105  0.6002
  581MOL0     C80080   3.562   7.724   8.119  0.3054 -0.2024  0.0429
  581MOL0     C80081   3.667   7.771   8.023 -0.0595 -0.7069  0.3068
  581MOL0     C80082   3.818   7.784   8.070 -0.3820  0.0275 -0.1229
  581MOL0     C80083   3.814   7.828   8.218 -0.3137  0.3371 -0.0651
  581MOL0     C80084   3.953   7.876   8.274  0.3330  0.5564 -0.6423
  581MOL0    Cl80085   4.046   7.727   8.308 -0.1356 -0.2510 -0.1325
  581MOL0     C80086   3.009   7.424   7.853 -0.2875 -0.5201 -0.6435
  581MOL0     C80087   2.880   7.404   7.803  0.3384  0.2593  1.0657
  581MOL0     O80088   2.684   7.583   7.585  0.2715 -0.1638 -0.7338
  581MOL0     C80089   2.379   7.530   7.778 -0.3154 -0.0203 -0.3657
  581MOL0     C80090   2.239   7.536   7.772  0.0149 -0.7642  0.1180
  581MOL0     N80091   1.533   7.265   7.342 -0.2815  0.0922 -0.1526
  581MOL0     N80092   1.424   7.251   7.283  0.1822  0.9780 -0.7282
  581MOL0     C80093   0.745   7.380   6.181 -0.5020 -0.5717 -0.0055
  581MOL0     C80094   0.634   7.306   6.146 -0.5924  0.3759 -0.4730
  581MOL0     C80095   0.173   7.167   6.132  0.1925 -0.9481 -0.1289
  581MOL0     C80096   0.234   7.041   6.115 -0.0955  0.6349  0.7618
  581MOL0     C80097   0.160   6.927   6.118  0.4763  1.1109 -0.4546
  581MOL0     C80098   0.017   6.933   6.135  0.2634 -0.6570 -0.9867
  581MOL0     O80099  -0.057   6.822   6.134 -0.1771 -1.1321  0.6508
  581MOL0     C80100  -0.188   6.823   6.066  0.4483 -0.4143  0.0222
  581MOL0     C80101  -0.242   6.688   6.047  0.0739  1.1906 -0.4431
  581MOL0     C80102  -0.285   6.624   6.174  0.3190  0.3163  0.1542
  581MOL0     C80103  -0.431   6.587   6.182  0.0941  0.3151  0.1592
  581MOL0     C80104  -0.465   6.474   6.097  0.3710  0.9502 -0.0989
  581MOL0     C80105  -0.491   6.374   6.032  0.4185 -0.2590  0.0492
  581MOL0     C80106  -0.043   7.060   6.150  0.1934 -0.2408  1.1085
  581MOL0     C80107   0.034   7.178   6.140  0.1839  0.7176  0.4146
  581MOL0     C80108  -0.036   7.307   6.140  0.2779 -0.1129  0.3299
  581MOL0     H80109   0.393   7.481   6.283 -0.2198 -1.7602  0.2008
  581MOL0     H80110   0.597   7.631   6.349  0.9096  0.1786 -1.0891
  581MOL0     H80111   1.020   7.610   6.335  0.6638  0.1092  2.2600
  581MOL0     H80112   0.986   7.443   6.284  0.5088  1.9898 -1.2005
  581MOL0     H80113   0.870   7.595   6.530 -0.7964 -0.0500  1.8427
  581MOL0     H80114   0.840   7.420   6.496 -0.5932  0.4254  2.6307
  581MOL0     H80115   1.063   7.366   6.537 -1.3702 -2.0113  2.2069
  581MOL0     H80116   1.103   7.548   6.567 -1.6785  1.0930  0.8276
  581MOL0     H80117   0.976   7.540   6.764 -0.5908  0.2999 -1.1332
  581MOL0     H80118   0.954   7.359   6.744  0.3392 -0.4642 -0.1594
  581MOL0     H80119   1.217   7.487   6.763  0.9066 -0.8664  1.9830
  581MOL0     H80120   1.180   7.314   6.781 -0.9349 -0.7477  0.5452
  581MOL0     H80121   1.113   7.547   6.974  1.9640 -0.1479  3.3922
  581MOL0     H80122   1.054   7.401   7.009 -0.2662  0.6936  0.6281
  581MOL0     H80123   1.345   7.490   6.996  0.4799 -1.1296  1.4511
  581MOL0     H80124   1.305   7.312   6.970 -2.0150 -0.8180  0.6253
  581MOL0     H80125   1.196   7.471   7.199 -0.8072 -0.4638 -1.3217
  581MOL0     H80126   1.195   7.293   7.165  2.1160 -1.4403 -3.3556
  581MOL0     H80127   1.470   7.577   7.259  0.4369 -0.4800  0.4345
  581MOL0     H80128   1.712   7.545   7.330 -1.3145 -0.8859 -1.9660
  581MOL0     H80129   1.792   7.392   7.361  0.8029  1.1985  0.1405
  581MOL0     H80130   1.617   7.512   7.568 -0.3306  0.7995 -1.6142
  581MOL0     H80131   1.721   7.367   7.575 -0.9654 -0.3049  0.4881
  581MOL0     H80132   1.813   7.652   7.521 -1.6665 -1.4348 -1.8236
  581MOL0     H80133   1.805   7.587   7.687 -2.0504 -0.9254 -0.2288
  581MOL0     H80134   1.963   7.401   7.617 -2.2764  0.7105  3.3875
  581MOL0     H80135   2.003   7.498   7.469 -1.1998  1.5230 -0.5413
  581MOL0     H80136   2.207   7.576   7.437  3.1087  0.6972 -0.4428
  581MOL0     H80137   2.518   7.664   7.406  1.0653 -1.0398 -3.6942
  581MOL0     H80138   2.396   7.590   7.316 -0.2861  2.6988  1.3821
  581MOL0     H80139   2.539   7.497   7.384  3.0842  1.4519  1.3415
  581MOL0     H80140   2.744   7.698   7.895  0.1442 -0.3848  1.1869
  581MOL0     H80141   2.974   7.728   7.992  0.9816  0.6033 -2.5374
  581MOL0     H80142   3.159   7.734   8.081  1.7448  0.4813  2.5467
  581MOL0     H80143   3.102   7.593   8.179  0.1563 -0.1483  1.8948
  581MOL0     H80144   3.327   7.680   8.250 -1.7602 -0.2280  0.8237
  581MOL0     H80145   3.363   7.533   8.163 -0.0700  0.5581 -0.7448
  581MOL0     H80146   3.380   7.821   8.043 -1.9217 -0.1074 -0.3827
  581MOL0     H80147   3.416   7.667   7.961  1.1505  0.1217  0.8019
  581MOL0     H80148   3.587   7.628   8.164 -1.1232  0.2600  1.9597
  581MOL0     H80149   3.557   7.788   8.208 -0.9658 -1.9333  1.2702
  581MOL0     H80150   3.654   7.714   7.931  0.3276 -0.6148  0.1930
  581MOL0     H80151   3.640   7.874   7.997 -0.0967 -0.6420  0.5959
  581MOL0     H80152   3.875   7.862   8.019 -1.6367  2.6947  2.2346
  581MOL0     H80153   3.878   7.693   8.062 -1.7071 -0.8197 -0.7923
  581MOL0     H80154   3.777   7.741   8.272 -1.0022 -0.0955 -1.2109
  581MOL0     H80155   3.745   7.912   8.232 -0.8378  0.4699 -2.8900
  581MOL0     H80156   3.948   7.919   8.374 -1.8736  2.2008 -1.3902
  581MOL0     H80157   4.009   7.942   8.207  0.3005  0.4505 -0.7734
  581MOL0     H80158   3.083   7.348   7.828  0.4510 -0.6106  1.5884
  581MOL0     H80159   2.873   7.317   7.740  1.1867  1.2744 -0.4851
  581MOL0     H80160   2.423   7.525   7.877 -1.0768  2.2110  0.1513
  581MOL0     H80161   2.172   7.537   7.858  0.0623  1.9483  0.2274
  581MOL0     H80162   0.845   7.345   6.159  0.1609 -0.1221  2.0728
  581MOL0     H80163   0.654   7.216   6.087  2.4256  0.6937 -0.0826
  581MOL0     H80164   0.340   7.031   6.093 -0.6769  2.0603 -3.6920
  581MOL0     H80165   0.206   6.830   6.098 -2.4477 -0.5810  0.3785
  581MOL0     H80166  -0.253   6.891   6.121 -2.1189 -1.0173 -2.0867
  581MOL0     H80167  -0.182   6.848   5.960 -0.7421 -3.8953 -0.9855
  581MOL0     H80168  -0.168   6.624   5.998  0.6131  1.0198  0.5754
  581MOL0     H80169  -0.319   6.692   5.969 -3.3145 -1.1248  2.4674
  581MOL0     H80170  -0.237   6.526   6.166 -1.3911 -0.3995 -4.6064
  581MOL0     H80171  -0.252   6.685   6.258  0.5267 -0.5978  0.7442
  581MOL0     H80172  -0.492   6.675   6.160  1.1290  1.9935  3.3132
  581MOL0     H80173  -0.458   6.569   6.287  0.6462  0.7348  0.3816
  581MOL0     H80174  -0.518   6.289   5.973 -2.8666 -1.4095  2.8366
  581MOL0     H80175  -0.151   7.068   6.156  0.1591 -0.0863  0.3598
  581MOL0     H80176  -0.030   7.361   6.235 -0.2215 -0.5406  0.6113
  581MOL0     H80177   0.004   7.377   6.066 -2.3290  0.2634 -0.8530
  581MOL0     H80178  -0.141   7.280   6.121  0.1758 -0.8715  1.8514
  582MOL0     O80179   3.571   2.381   9.761  0.3352  0.1174 -0.1835
  582MOL0     C80180   3.593   2.321   9.864 -0.6583  0.7875  0.1939
  582MOL0     O80181   3.717   2.305   9.920 -0.7769 -0.2168 -0.3155
  582MOL0     C80182   3.837   2.316   9.852 -0.1292  0.1729  0.4753
  582MOL0     C80183   3.952   2.342   9.920 -0.7195 -0.4849 -0.5621
  582MOL0     C80184   4.072   2.358   9.849  0.3980  0.7417 -0.2103
  582MOL0     C80185   4.082   2.332   9.715  0.7176 -0.3356  0.5792
  582MOL0     O80186   4.203   2.351   9.638  0.8436  0.3558  0.1830
  582MOL0     C80187   4.328   2.348   9.712 -0.8220  0.1762 -0.4476
  582MOL0     C80188   4.433   2.362   9.596 -0.0059 -0.0329 -0.0540
  582MOL0     C80189   4.572   2.364   9.660 -0.0548  0.9472  0.2311
  582MOL0     C80190   4.662   2.451   9.580 -0.6006  0.3523  0.3218
  582MOL0     C80191   4.811   2.441   9.616  0.0025  0.1197  0.3047
  582MOL0     C80192   4.850   2.520   9.742  0.2656  0.1653 -0.0500
  582MOL0     C80193   4.992   2.494   9.779 -0.3919  0.2827 -0.1328
  582MOL0     C80194   5.050   2.595   9.891  0.8595 -0.0334  0.2053
  582MOL0     N80195   5.175   2.542   9.944 -0.8000  0.4878 -0.4007
  582MOL0     C80196   5.288   2.553   9.876 -0.6339 -0.0784 -0.2837
  582MOL0     C80197   5.379   2.472   9.936 -0.2829  0.2693 -0.5533
  582MOL0     C80198   5.520   2.456   9.895 -0.8464  0.8107 -0.2005
  582MOL0     C80199   5.528   2.363   9.772 -0.0673  0.2627 -0.0053
  582MOL0     C80200   5.677   2.350   9.733  0.4063  0.0958  0.2109
  582MOL0     C80201   5.720   2.473   9.659 -1.0287  1.0747 -0.9330
  582MOL0     O80202   5.653   2.466   9.536 -0.3532 -0.1377 -0.1783
  582MOL0     C80203   5.671   2.567   9.446  0.3208  0.3379  0.3264
  582MOL0     C80204   5.564   2.601   9.360 -1.4889 -0.0450 -0.4909
  582MOL0     C80205   5.585   2.699   9.262 -0.4828  0.3903 -0.2321
  582MOL0     C80206   5.475   2.722   9.167 -0.9602  0.3482 -0.4608
  582MOL0     C80207   5.708   2.779   9.254 -0.3964  0.7383 -0.2321
  582MOL0     C80208   5.744   2.879   9.148 -0.6701 -0.8732 -0.9734
  582MOL0     O80209   5.878   2.907   9.127 -0.1416  0.2227  0.2765
  582MOL0     C80210   5.911   3.018   9.054  0.0555 -0.2624  0.0334
  582MOL0     C80211   5.872   3.044   8.920  0.8517 -0.4854 -0.0938
  582MOL0     C80212   5.918   3.156   8.846  0.5832 -0.1750 -0.4113
  582MOL0     C80213   6.010   3.249   8.904 -0.1077 -0.0588  0.3218
  582MOL0     O80214   6.048   3.364   8.838  0.4093  0.2888 -0.2858
  582MOL0     C80215   6.121   3.475   8.907  0.9984 -0.6653 -0.2491
  582MOL0     C80216   6.265   3.483   8.849  0.2516 -0.5632 -0.0028
  582MOL0     C80217   6.298   3.621   8.787  0.9608  1.1492  0.0074
  582MOL0     C80218   6.453   3.620   8.762 -0.2222  0.0744 -0.3973
  582MOL0     C80219   6.493   3.761   8.701 -0.8242  0.6893 -0.4325
  582MOL0     C80220   6.650   3.766   8.667  0.0858  0.1120 -0.1752
  582MOL0     C80221   6.740   3.815   8.787 -0.5307  0.2422  0.4136
  582MOL0     C80222   6.890   3.793   8.759  0.5615  0.1917  0.3716
  582MOL0    Cl80223   6.950   3.926   8.655 -0.1728 -0.0668  0.1991
  582MOL0     C80224   6.047   3.217   9.037 -0.0653 -0.4689  0.0057
  582MOL0     C80225   6.002   3.107   9.110  0.2673 -0.2366 -0.2108
  582MOL0     O80226   5.653   2.913   9.076  0.5934 -0.3884  0.5526
  582MOL0     C80227   5.816   2.740   9.339  0.0949  1.1499 -0.6238
  582MOL0     C80228   5.793   2.629   9.435 -1.3176 -0.1794 -0.3522
  582MOL0     N80229   5.318   2.407  10.039 -0.7415  0.7757 -0.6759
  582MOL0     N80230   5.191   2.443  10.042 -0.3182 -0.4576  0.2041
  582MOL0     C80231   3.971   2.293   9.641  0.6145 -0.7301 -0.5396
  582MOL0     C80232   3.848   2.289   9.714  0.2310  0.1099  1.2697
  582MOL0     C80233   3.480   2.282   9.952 -0.3111  0.1953  0.3276
  582MOL0     C80234   3.506   2.262  10.095 -0.2174  0.6201 -0.0943
  582MOL0     C80235   3.406   2.265  10.183 -0.3547  0.7623  0.6127
  582MOL0     C80236   3.274   2.268  10.148  0.3137  0.3963  0.7141
  582MOL0     O80237   3.175   2.280  10.246 -0.1133 -0.3573  0.3264
  582MOL0     C80238   3.046   2.215  10.222  0.2211 -0.6706 -0.3507
  582MOL0     C80239   2.944   2.264  10.333 -0.6335 -0.2554 -0.4278
  582MOL0     C80240   2.981   2.410  10.379  0.9492  0.5745  0.0327
  582MOL0     C80241   2.944   2.509  10.262 -0.2085  0.6314 -0.2366
  582MOL0     C80242   3.004   2.638  10.299 -0.0794 -0.8671  0.4742
  582MOL0     C80243   3.054   2.746  10.333  0.6437  0.3029  0.3777
  582MOL0     C80244   3.241   2.266  10.004  0.6119  0.1060 -0.5818
  582MOL0     C80245   3.344   2.267   9.912 -0.1439 -0.5671 -0.1174
  582MOL0     C80246   3.307   2.257   9.769  0.3936 -0.6811  0.6209
  582MOL0     H80247   3.948   2.369  10.025 -1.6415  1.2366 -1.0008
  582MOL0     H80248   4.147   2.415   9.902  0.8049 -0.0732  0.1238
  582MOL0     H80249   4.349   2.251   9.759 -0.4442  0.8587  0.8524
  582MOL0     H80250   4.331   2.425   9.790 -1.1804  1.7938 -1.9546
  582MOL0     H80251   4.423   2.279   9.525  0.1966  1.6309 -2.1364
  582MOL0     H80252   4.412   2.455   9.543  1.3886  0.3965  0.1080
  582MOL0     H80253   4.554   2.409   9.758  0.6277  2.5486 -0.3538
  582MOL0     H80254   4.620   2.266   9.658  0.7283  1.3241  0.2867
  582MOL0     H80255   4.636   2.422   9.478 -0.2313 -1.1983  0.6468
  582MOL0     H80256   4.628   2.555   9.588 -0.1281  0.5467 -0.1610
  582MOL0     H80257   4.867   2.463   9.524 -0.0882  2.0630  0.6573
  582MOL0     H80258   4.832   2.336   9.636  1.3294 -0.5016 -3.4119
  582MOL0     H80259   4.834   2.628   9.741 -1.1473 -0.0134  0.5101
  582MOL0     H80260   4.787   2.471   9.817  2.3326 -2.4467  0.1452
  582MOL0     H80261   5.053   2.487   9.689 -0.8020 -0.8478 -0.3376
  582MOL0     H80262   4.994   2.393   9.820  0.4634 -0.8895 -2.8827
  582MOL0     H80263   5.068   2.695   9.850  0.9321  1.5219  3.7315
  582MOL0     H80264   4.990   2.605   9.982  1.1829 -0.7955  0.5048
  582MOL0     H80265   5.305   2.608   9.784 -0.8413 -0.7139 -0.7159
  582MOL0     H80266   5.581   2.416   9.977 -2.3645 -1.4066 -0.0829
  582MOL0     H80267   5.569   2.553   9.877  3.1472 -1.1800 -1.2981
  582MOL0     H80268   5.501   2.260   9.798 -0.7112  0.5128  0.3385
  582MOL0     H80269   5.464   2.406   9.694  0.4694  0.4603 -0.3377
  582MOL0     H80270   5.730   2.340   9.828 -1.0536 -0.9079  0.9522
  582MOL0     H80271   5.688   2.267   9.662  1.2343 -0.5430  1.0681
  582MOL0     H80272   5.698   2.561   9.719 -1.1692  0.3085  0.1740
  582MOL0     H80273   5.827   2.469   9.635 -1.3464 -2.0513 -2.3603
  582MOL0     H80274   5.468   2.551   9.365 -2.0552  1.0899  0.7880
  582MOL0     H80275   5.505   2.721   9.062 -0.5256 -0.8625 -0.3439
  582MOL0     H80276   5.421   2.812   9.197 -0.6170  0.1813  0.7002
  582MOL0     H80277   5.401   2.642   9.174 -1.5387  0.8409 -0.8838
  582MOL0     H80278   5.795   2.988   8.868  2.4593 -2.5069 -0.4118
  582MOL0     H80279   5.885   3.189   8.748 -2.7477 -0.2348  0.5637
  582MOL0     H80280   6.076   3.572   8.882 -0.3687 -0.9552  0.9911
  582MOL0     H80281   6.122   3.470   9.016 -1.5212 -3.8061 -0.2283
  582MOL0     H80282   6.335   3.476   8.934 -4.8218  0.2684  4.8384
  582MOL0     H80283   6.279   3.396   8.785  2.0917 -0.8292  0.6979
  582MOL0     H80284   6.275   3.693   8.865 -1.1192 -0.3893  0.9046
  582MOL0     H80285   6.243   3.633   8.693  0.1952 -0.8874  0.1398
  582MOL0     H80286   6.471   3.552   8.678 -0.3720  0.7045 -0.9408
  582MOL0     H80287   6.519   3.586   8.843  0.3145  2.5731  0.2857
  582MOL0     H80288   6.443   3.761   8.603 -2.3382  0.4269  0.3063
  582MOL0     H80289   6.461   3.848   8.758  2.9602  2.8338 -1.2447
  582MOL0     H80290   6.655   3.843   8.589  2.7387  1.9547  1.6207
  582MOL0     H80291   6.667   3.669   8.621 -2.7813 -0.3002 -0.5723
  582MOL0     H80292   6.713   3.756   8.875 -0.5845 -0.1625  0.1266
  582MOL0     H80293   6.728   3.921   8.814  0.0995  1.1840 -2.6808
  582MOL0     H80294   6.904   3.691   8.722 -2.8362 -0.3787  0.3910
  582MOL0     H80295   6.939   3.797   8.857 -0.6299  1.2680  0.9555
  582MOL0     H80296   6.108   3.283   9.098 -1.9648 -0.8330  2.4978
  582MOL0     H80297   6.046   3.098   9.209  0.3780  0.7076 -0.1632
  582MOL0     H80298   5.912   2.791   9.331  1.5156 -0.5143  3.2646
  582MOL0     H80299   5.877   2.585   9.487 -1.2677 -0.5617 -0.7482
  582MOL0     H80300   3.986   2.290   9.534 -2.1941 -4.4744 -1.0269
  582MOL0     H80301   3.761   2.273   9.651  1.2787  3.6760 -1.3395
  582MOL0     H80302   3.606   2.257  10.135 -0.5825  4.2170  1.6170
  582MOL0     H80303   3.429   2.260  10.289  2.5011  0.2456  0.0366
  582MOL0     H80304   3.005   2.249  10.127 -0.7253 -0.4457  0.1236
  582MOL0     H80305   3.039   2.107  10.214 -0.2250 -0.6407 -0.4123
  582MOL0     H80306   2.965   2.201  10.420 -0.2709  1.6410  0.9027
  582MOL0     H80307   2.839   2.251  10.305 -0.2134 -0.7728 -1.8760
  582MOL0     H80308   2.909   2.435  10.457 -0.0842 -0.0315 -0.7062
  582MOL0     H80309   3.084   2.424  10.414  3.0787 -2.0350 -4.2794
  582MOL0     H80310   2.835   2.516  10.252 -0.3919  3.0706  2.5097
  582MOL0     H80311   2.989   2.488  10.164  0.4514  1.3348 -0.0973
  582MOL0     H80312   3.100   2.836  10.368 -0.6799  0.7847  0.9603
  582MOL0     H80313   3.138   2.260   9.972 -0.2391 -2.1681  2.1379
  582MOL0     H80314   3.385   2.221   9.702 -0.2126  2.1416 -1.8234
  582MOL0     H80315   3.217   2.195   9.759 -0.3943  0.6071 -0.6763
  582MOL0     H80316   3.283   2.351   9.718  1.9513 -0.5938  0.0066
  583MOL0     O80317   0.267   9.934   4.062 -0.0880 -0.1503  0.7763
  583MOL0     C80318   0.250   9.972   4.175  0.2128 -0.0445  0.3337
  583MOL0     O80319   0.346  10.001   4.266  0.3683  0.8361  0.3839
  583MOL0     C80320   0.480   9.972   4.237 -0.3116  0.4424  0.0067
  583MOL0     C80321   0.556   9.903   4.331  0.3414  0.7001 -0.1278
  583MOL0     C80322   0.695   9.892   4.322 -0.2027 -0.5712  0.0507
  583MOL0     C80323   0.759   9.940   4.204 -0.9908 -0.3400  0.8630
  583MOL0     O80324   0.890   9.926   4.199  0.1854  0.1617 -0.3640
  583MOL0     C80325   0.961  10.038   4.150  0.0150  0.0392  0.1216
  583MOL0     C80326   1.108  10.009   4.179 -0.2724 -0.0935 -0.0606
  583MOL0     C80327   1.157   9.876   4.108 -0.5246 -0.3316  0.0963
  583MOL0     C80328   1.270   9.895   4.010  0.2976  0.2762  0.4078
  583MOL0     C80329   1.408   9.929   4.057 -0.1501 -0.7738 -1.1117
  583MOL0     C80330   1.440   9.846   4.185  0.0985  0.5905 -0.0440
  583MOL0     C80331   1.586   9.844   4.231 -0.3674  0.0554  1.2216
  583MOL0     C80332   1.660   9.739   4.141  0.8886  0.3653  0.4517
  583MOL0     N80333   1.800   9.727   4.189 -0.5305 -0.1472 -0.7502
  583MOL0     C80334   1.906   9.812   4.163 -0.1959  0.3202 -0.4564
  583MOL0     C80335   2.004   9.782   4.254  0.3035  0.0107 -0.2333
  583MOL0     C80336   2.139   9.841   4.262 -0.8508 -0.7055  0.3690
  583MOL0     C80337   2.152   9.983   4.319  0.1883  0.9496  1.4381
  583MOL0     C80338   2.286  10.012   4.382 -0.0102 -0.6603  0.7596
  583MOL0     C80339   2.406  10.011   4.295  0.3746  0.8541  0.6236
  583MOL0     O80340   2.473   9.881   4.320  0.8325  0.0906 -0.1651
  583MOL0     C80341   2.529   9.819   4.216 -1.0829 -0.1492 -1.0949
  583MOL0     C80342   2.575   9.689   4.232 -0.0885  0.3976  0.8241
  583MOL0     C80343   2.666   9.618   4.142 -0.1006  0.1961 -0.5015
  583MOL0     C80344   2.716   9.487   4.194 -1.0112  0.3758 -0.5445
  583MOL0     C80345   2.712   9.693   4.034 -0.5457 -1.2833 -0.2240
  583MOL0     C80346   2.806   9.635   3.937  0.0015 -0.1053 -0.7555
  583MOL0     O80347   2.927   9.698   3.926 -0.4170 -0.1975  0.0739
  583MOL0     C80348   3.027   9.648   3.856  0.5021 -0.1798 -0.2075
  583MOL0     C80349   3.055   9.664   3.720 -0.1782  1.2332  1.4142
  583MOL0     C80350   3.161   9.600   3.660  0.2470  0.8567  0.6569
  583MOL0     C80351   3.242   9.521   3.735  0.9423  0.1446 -0.2982
  583MOL0     O80352   3.359   9.477   3.685  0.0842 -0.2436 -0.2866
  583MOL0     C80353   3.342   9.394   3.573  0.4868  0.2182 -0.4709
  583MOL0     C80354   3.482   9.366   3.508 -0.2138  0.2906 -0.3398
  583MOL0     C80355   3.494   9.252   3.411  0.4827 -0.0828 -0.1692
  583MOL0     C80356   3.500   9.128   3.493 -0.4353 -0.3989  0.3891
  583MOL0     C80357   3.537   9.001   3.433 -0.3691  0.0783  0.7461
  583MOL0     C80358   3.453   8.979   3.309 -0.3889 -0.0316 -0.0940
  583MOL0     C80359   3.308   8.937   3.346 -0.3222 -0.4294 -0.3349
  583MOL0     C80360   3.240   8.841   3.246 -0.2675 -0.2722 -0.3726
  583MOL0    Cl80361   3.330   8.682   3.253  0.1194  0.2106 -0.1362
  583MOL0     C80362   3.225   9.506   3.876  0.4996  0.3803  0.4512
  583MOL0     C80363   3.116   9.569   3.936 -0.6242  0.8633  0.4082
  583MOL0     O80364   2.775   9.531   3.881 -0.2665 -0.4555  0.1406
  583MOL0     C80365   2.655   9.820   4.011 -0.3675  0.0449 -0.0187
  583MOL0     C80366   2.576   9.881   4.102  0.2270 -0.2517 -0.7741
  583MOL0     N80367   1.958   9.677   4.327 -0.3389  0.0412 -0.2849
  583MOL0     N80368   1.841   9.641   4.285 -0.1864 -0.4034  0.2449
  583MOL0     C80369   0.679   9.986   4.098 -0.5079  0.0964 -0.6621
  583MOL0     C80370   0.540  10.005   4.116 -0.0946  0.3296  0.9354
  583MOL0     C80371   0.117  10.011   4.211 -0.0671 -0.6503 -0.2295
  583MOL0     C80372   0.060   9.968   4.331 -0.7517  0.1838  0.2216
  583MOL0     C80373  -0.075   9.988   4.355 -0.1246  1.1119 -0.5761
  583MOL0     C80374  -0.152  10.061   4.276 -0.0977 -0.2145 -0.0182
  583MOL0     O80375  -0.281  10.072   4.322 -0.6782  0.5934 -0.0627
  583MOL0     C80376  -0.379  10.153   4.252 -0.0698 -0.4615  0.0682
  583MOL0     C80377  -0.492  10.161   4.349  0.5374  0.4258 -0.4381
  583MOL0     C80378  -0.569  10.033   4.339 -0.0207 -0.2173 -0.9473
  583MOL0     C80379  -0.699  10.030   4.426  0.2578 -0.2460  0.3461
  583MOL0     C80380  -0.792  10.138   4.404 -0.2594 -0.1229  0.4251
  583MOL0     C80381  -0.861  10.230   4.388  0.8043 -0.1797 -0.1045
  583MOL0     C80382  -0.099  10.117   4.161 -0.3225  0.6313 -0.0409
  583MOL0     C80383   0.034  10.087   4.123 -0.3884 -0.3190 -0.7353
  583MOL0     C80384   0.078  10.136   3.995  0.1007  0.6738 -0.2035
  583MOL0     H80385   0.515   9.868   4.425  3.5545 -0.5439  0.9350
  583MOL0     H80386   0.750   9.840   4.400  0.1553 -0.0517  0.1504
  583MOL0     H80387   0.923  10.131   4.191 -0.1073  0.2079 -0.3655
  583MOL0     H80388   0.949  10.041   4.041  0.5659 -2.0974 -0.0573
  583MOL0     H80389   1.176  10.087   4.145  2.0364 -2.7454 -1.9990
  583MOL0     H80390   1.118   9.990   4.287  1.3227  0.1187 -0.1442
  583MOL0     H80391   1.186   9.796   4.177  1.2252  2.7827  3.3335
  583MOL0     H80392   1.072   9.845   4.046 -0.6753 -0.9306  0.5894
  583MOL0     H80393   1.277   9.805   3.948  2.0222  0.3792  0.4117
  583MOL0     H80394   1.249   9.970   3.934  0.8030 -2.5821 -2.7794
  583MOL0     H80395   1.415  10.036   4.080  2.4263 -1.1604  0.2516
  583MOL0     H80396   1.479   9.910   3.976  1.1590 -0.3331 -0.0965
  583MOL0     H80397   1.380   9.885   4.268  0.3783  0.2711  0.3143
  583MOL0     H80398   1.404   9.743   4.174  1.6393 -0.0954  1.0552
  583MOL0     H80399   1.606   9.819   4.336  1.9007 -2.3589  0.3122
  583MOL0     H80400   1.622   9.947   4.217 -1.4284  0.2267 -0.5593
  583MOL0     H80401   1.627   9.635   4.149  2.0850  0.0626  2.3178
  583MOL0     H80402   1.657   9.773   4.038 -3.7234 -1.3841 -0.1852
  583MOL0     H80403   1.910   9.887   4.084 -1.5507 -0.4744 -1.3148
  583MOL0     H80404   2.181   9.836   4.162 -3.7919  4.1494 -1.4768
  583MOL0     H80405   2.206   9.788   4.330 -0.8445 -1.8999 -0.5323
  583MOL0     H80406   2.140  10.062   4.244 -0.2221  0.1746  0.6666
  583MOL0     H80407   2.078  10.013   4.393  0.1705 -1.0689  2.3164
  583MOL0     H80408   2.280  10.116   4.414 -0.2092 -0.8873  1.4879
  583MOL0     H80409   2.298   9.962   4.479 -0.5149  0.9158  1.6750
  583MOL0     H80410   2.370  10.017   4.192 -0.1004 -0.6034  0.6789
  583MOL0     H80411   2.466  10.098   4.321  1.5731  0.3606 -0.3885
  583MOL0     H80412   2.545   9.641   4.325  0.7372 -0.1808  0.8073
  583MOL0     H80413   2.656   9.443   4.274  1.1383  0.0095  0.9321
  583MOL0     H80414   2.818   9.492   4.233 -1.3766 -1.9013  0.8528
  583MOL0     H80415   2.721   9.405   4.122 -0.0577  0.3521 -0.4646
  583MOL0     H80416   2.994   9.720   3.648  0.9435 -1.5462 -1.9663
  583MOL0     H80417   3.179   9.618   3.554 -1.1740 -1.4088 -0.0421
  583MOL0     H80418   3.298   9.298   3.603 -1.2643  0.4434 -2.1352
  583MOL0     H80419   3.275   9.431   3.494  0.8533  2.5463  0.2352
  583MOL0     H80420   3.526   9.456   3.464  2.0330 -0.9469 -0.7565
  583MOL0     H80421   3.552   9.355   3.592  0.2386  1.7190 -0.4996
  583MOL0     H80422   3.579   9.265   3.344  1.3717  1.2851  1.1681
  583MOL0     H80423   3.403   9.259   3.351  0.4483 -2.7338 -0.5597
  583MOL0     H80424   3.411   9.124   3.557 -2.1981  1.0033 -1.8018
  583MOL0     H80425   3.581   9.137   3.565 -0.2342 -1.3085  0.2973
  583MOL0     H80426   3.642   9.001   3.401 -0.1882 -0.8339  1.3143
  583MOL0     H80427   3.514   8.919   3.501  0.7281  0.5331  1.7108
  583MOL0     H80428   3.506   8.901   3.255  1.6221  0.7127  0.6883
  583MOL0     H80429   3.452   9.063   3.239 -3.0963 -0.2683 -0.4494
  583MOL0     H80430   3.247   9.027   3.349 -2.3873 -1.7024 -1.4106
  583MOL0     H80431   3.300   8.888   3.444  3.3422 -0.0350  0.3002
  583MOL0     H80432   3.234   8.896   3.151 -0.3929  1.2733  0.5009
  583MOL0     H80433   3.137   8.826   3.277 -0.0356 -0.0876  0.4920
  583MOL0     H80434   3.300   9.458   3.938  0.9161  1.9657  1.2149
  583MOL0     H80435   3.099   9.559   4.043 -2.4174  1.1341  0.1805
  583MOL0     H80436   2.689   9.872   3.922 -1.3393 -2.1857 -1.7981
  583MOL0     H80437   2.547   9.983   4.078  2.1783  0.4824 -0.2330
  583MOL0     H80438   0.726  10.020   4.007  1.1494  3.3560  1.2069
  583MOL0     H80439   0.480  10.055   4.041  1.7025 -0.5444 -1.1760
  583MOL0     H80440   0.112   9.902   4.401 -0.1783 -0.9061 -1.1709
  583MOL0     H80441  -0.125   9.947   4.442 -0.3055  1.5935 -0.4489
  583MOL0     H80442  -0.348  10.257   4.246  0.7581 -0.6372  1.0428
  583MOL0     H80443  -0.414  10.111   4.157  2.8428 -0.6785 -0.9867
  583MOL0     H80444  -0.552  10.250   4.329 -0.1775 -0.1927 -1.0867
  583MOL0     H80445  -0.440  10.165   4.446  0.9582  1.3100 -0.6894
  583MOL0     H80446  -0.586  10.001   4.236  0.4916  2.8939 -2.1315
  583MOL0     H80447  -0.497   9.962   4.380  0.1027  0.4087 -0.0404
  583MOL0     H80448  -0.676  10.028   4.533  2.2285  2.2071  0.0646
  583MOL0     H80449  -0.736   9.932   4.395  2.3284 -0.2633 -2.5181
  583MOL0     H80450  -0.926  10.316   4.386 -0.5448 -1.1044  1.3823
  583MOL0     H80451  -0.172  10.163   4.096  1.7318  1.2134 -2.0548
  583MOL0     H80452   0.183  10.165   4.000  0.7104 -1.4266  0.5251
  583MOL0     H80453   0.069  10.057   3.920  0.9816 -0.4646  0.8450
  583MOL0     H80454   0.013  10.216   3.960 -2.6081 -1.0400  0.5946
  584MOL0     O80455   1.870   2.541   8.456 -0.0597  0.1963  0.3507
  584MOL0     C80456   1.841   2.421   8.429 -0.7280  0.0322 -0.2765
  584MOL0     O80457   1.926   2.317   8.422  0.2938  0.2496  0.1767
  584MOL0     C80458   2.054   2.350   8.463 -0.0955 -0.3595 -0.9579
  584MOL0     C80459   2.095   2.369   8.597  0.2294  0.1536  0.0068
  584MOL0     C80460   2.230   2.387   8.623  0.2758  0.0641 -0.2402
  584MOL0     C80461   2.328   2.358   8.526 -0.4052  0.1263 -0.0488
  584MOL0     O80462   2.468   2.363   8.539 -0.0865  0.0228 -0.0974
  584MOL0     C80463   2.520   2.429   8.659  1.0953  0.5517  0.8640
  584MOL0     C80464   2.665   2.473   8.652  0.2762 -0.2130  0.2368
  584MOL0     C80465   2.697   2.581   8.763  0.2689  0.6645  0.1884
  584MOL0     C80466   2.849   2.604   8.764  0.0003 -1.3398  0.2506
  584MOL0     C80467   2.904   2.681   8.891 -0.5126 -0.1649 -0.4001
  584MOL0     C80468   3.060   2.696   8.880 -0.0292 -0.1289  0.6031
  584MOL0     C80469   3.134   2.793   8.971 -0.1746 -0.3950 -1.6064
  584MOL0     C80470   3.118   2.772   9.124  0.3614  0.5702  0.1379
  584MOL0     N80471   3.153   2.898   9.199  0.5915 -0.3985 -0.0239
  584MOL0     C80472   3.250   2.909   9.291 -0.0332  0.0975  0.1988
  584MOL0     C80473   3.221   3.027   9.354  0.4365 -0.4527  0.4224
  584MOL0     C80474   3.306   3.083   9.463 -0.7046 -0.1815 -0.4395
  584MOL0     C80475   3.285   3.007   9.584 -0.4119 -0.1206 -0.4536
  584MOL0     C80476   3.290   3.104   9.703 -0.9327  0.2830 -0.8529
  584MOL0     C80477   3.434   3.127   9.740  0.5082  0.1948 -0.7455
  584MOL0     O80478   3.497   3.005   9.769  0.4366 -0.6483  0.3391
  584MOL0     C80479   3.614   3.005   9.844 -0.0877  0.0599 -0.0001
  584MOL0     C80480   3.679   2.879   9.853 -0.0826  0.3671 -0.4292
  584MOL0     C80481   3.800   2.852   9.916  0.5842 -0.7968  0.3162
  584MOL0     C80482   3.860   2.717   9.900 -0.3715 -0.4690 -0.3411
  584MOL0     C80483   3.857   2.954   9.992  0.6938 -0.0253  0.1015
  584MOL0     C80484   3.997   2.954  10.056 -0.3223  0.4406 -0.0086
  584MOL0     O80485   4.044   3.072  10.110  0.3167  0.2846 -0.0457
  584MOL0     C80486   4.152   3.055  10.195  1.1869 -0.4618  0.1064
  584MOL0     C80487   4.285   3.068  10.152  0.0721  0.1176  1.0729
  584MOL0     C80488   4.392   3.052  10.238  0.3592  0.3642 -0.4841
  584MOL0     C80489   4.369   3.022  10.381 -0.6249 -0.7401  0.5587
  584MOL0     O80490   4.479   3.002  10.466 -0.1674 -0.3095 -0.0467
  584MOL0     C80491   4.580   3.100  10.469 -0.6502  0.3959  0.8287
  584MOL0     C80492   4.544   3.242  10.517  0.9738  0.1042 -0.2775
  584MOL0     C80493   4.493   3.255  10.661  0.2619 -0.4078 -0.2495
  584MOL0     C80494   4.349   3.217  10.686  0.1232 -0.1170  1.1864
  584MOL0     C80495   4.239   3.305  10.627  0.3277 -0.0268  0.1109
  584MOL0     C80496   4.108   3.264  10.689  0.1322  0.3191 -0.2907
  584MOL0     C80497   3.991   3.358  10.674  0.1319 -0.7208 -0.1291
  584MOL0     C80498   3.868   3.294  10.739  0.2927 -0.0333 -0.1214
  584MOL0    Cl80499   3.803   3.172  10.615 -0.4529  0.2954  0.0218
  584MOL0     C80500   4.238   3.020  10.416 -0.3449 -0.0769  0.5168
  584MOL0     C80501   4.135   3.044  10.328 -0.6435  0.5189  0.4708
  584MOL0     O80502   4.065   2.852  10.037 -0.8147  0.3768  0.0788
  584MOL0     C80503   3.790   3.085   9.996  0.0605  0.5061  0.5189
  584MOL0     C80504   3.672   3.105   9.925  0.4621 -0.3546  0.0038
  584MOL0     N80505   3.097   3.081   9.313 -0.8949  0.8237  0.0451
  584MOL0     N80506   3.058   2.991   9.220 -0.9981  0.2197  0.0059
  584MOL0     C80507   2.280   2.344   8.398 -0.6446 -0.1146 -0.0902
  584MOL0     C80508   2.147   2.352   8.359  0.2722 -0.5485 -0.4604
  584MOL0     C80509   1.698   2.392   8.384 -0.4702  0.1731  0.1917
  584MOL0     C80510   1.684   2.292   8.291  0.3191  0.0836 -0.0252
  584MOL0     C80511   1.562   2.258   8.240 -0.2228 -0.2830 -0.0428
  584MOL0     C80512   1.441   2.326   8.286 -0.7033  0.2095 -0.1871
  584MOL0     O80513   1.313   2.299   8.243 -0.9355 -0.1876 -0.3682
  584MOL0     C80514   1.294   2.172   8.168  0.3522 -0.3002  0.4021
  584MOL0     C80515   1.138   2.140   8.176 -0.4787  0.0119 -0.0057
  584MOL0     C80516   1.050   2.252   8.118  0.1989  0.5687  0.4142
  584MOL0     C80517   0.905   2.219   8.113 -0.7517 -0.4407  0.7540
  584MOL0     C80518   0.845   2.195   8.242 -0.3135 -0.3598 -0.0984
  584MOL0     C80519   0.793   2.171   8.348 -0.6138 -0.3570 -0.2197
  584MOL0     C80520   1.454   2.430   8.375  0.1335 -0.8026  0.4064
  584MOL0     C80521   1.582   2.454   8.436 -0.2421 -0.8116 -0.2056
  584MOL0     C80522   1.586   2.557   8.547 -0.0118 -0.0579  0.2787
  584MOL0     H80523   2.028   2.368   8.683  1.9427 -0.0241  1.4112
  584MOL0     H80524   2.257   2.399   8.727 -0.9719  2.8130 -0.1436
  584MOL0     H80525   2.495   2.360   8.740 -0.8310 -0.1725 -0.2869
  584MOL0     H80526   2.462   2.519   8.682 -0.8630 -0.4616  0.1310
  584MOL0     H80527   2.718   2.378   8.665 -3.0359 -1.9175  2.9355
  584MOL0     H80528   2.670   2.516   8.551 -0.5713  0.7344  0.5822
  584MOL0     H80529   2.641   2.673   8.743 -3.2818 -0.5224  3.4470
  584MOL0     H80530   2.666   2.536   8.858  1.5159 -2.9312 -0.9411
  584MOL0     H80531   2.914   2.520   8.740  3.5055  0.4421  2.6761
  584MOL0     H80532   2.858   2.675   8.680  0.5660  0.4438  1.7544
  584MOL0     H80533   2.871   2.638   8.986 -1.5073  0.4047 -0.4766
  584MOL0     H80534   2.859   2.780   8.885 -0.4949 -0.2130 -1.5313
  584MOL0     H80535   3.117   2.604   8.891  0.4400  0.3329  2.3281
  584MOL0     H80536   3.081   2.733   8.779 -1.7361 -1.3187 -0.2430
  584MOL0     H80537   3.100   2.895   8.952 -0.6651 -0.8556 -3.4813
  584MOL0     H80538   3.240   2.793   8.944 -0.0721  0.8736 -1.2630
  584MOL0     H80539   3.012   2.755   9.146  0.1438 -0.3558 -1.4480
  584MOL0     H80540   3.175   2.680   9.140 -0.2255  0.2191  0.2443
  584MOL0     H80541   3.342   2.851   9.291  0.4317  0.7704 -1.2390
  584MOL0     H80542   3.278   3.188   9.474 -0.6531 -0.2617  0.6280
  584MOL0     H80543   3.412   3.065   9.445 -0.4254 -0.8773  1.5591
  584MOL0     H80544   3.191   2.953   9.575  0.3055 -1.6594  0.7263
  584MOL0     H80545   3.357   2.927   9.601 -0.8470 -0.2938  0.6605
  584MOL0     H80546   3.239   3.199   9.686  0.9046  1.3774 -0.3942
  584MOL0     H80547   3.242   3.059   9.791  0.6917 -0.5024 -0.3369
  584MOL0     H80548   3.488   3.182   9.663  1.2602 -1.7691 -1.6929
  584MOL0     H80549   3.439   3.185   9.833  0.5725  1.7635 -1.6914
  584MOL0     H80550   3.625   2.801   9.799  0.6641  1.4667 -2.9307
  584MOL0     H80551   3.863   2.659   9.993  1.3780  0.7151  0.3807
  584MOL0     H80552   3.952   2.717   9.842 -1.6452 -0.2229 -2.4485
  584MOL0     H80553   3.797   2.649   9.841  0.0040 -1.0857 -0.0408
  584MOL0     H80554   4.306   3.101  10.050  1.8018 -1.5404  0.8259
  584MOL0     H80555   4.492   3.075  10.205  0.6083  1.1532  0.7574
  584MOL0     H80556   4.665   3.060  10.524 -0.1158 -2.3958 -1.7937
  584MOL0     H80557   4.618   3.117  10.368 -0.1369  0.8236  1.0904
  584MOL0     H80558   4.633   3.304  10.501  0.5397  0.5015 -1.2438
  584MOL0     H80559   4.453   3.277  10.469  0.7148  3.5154  2.3492
  584MOL0     H80560   4.494   3.362  10.681 -1.0783 -0.5233  0.5041
  584MOL0     H80561   4.556   3.196  10.729  1.1009  0.0840 -0.5793
  584MOL0     H80562   4.348   3.247  10.792  2.9557  1.3049  0.8959
  584MOL0     H80563   4.337   3.110  10.667  0.5455 -0.2688  1.7220
  584MOL0     H80564   4.251   3.410  10.654 -2.7609  0.0538  1.6093
  584MOL0     H80565   4.247   3.297  10.518  0.0034 -3.2199  0.2281
  584MOL0     H80566   4.119   3.249  10.797 -0.5822  0.1365 -0.2413
  584MOL0     H80567   4.096   3.166  10.643  1.7798  0.1704 -0.4875
  584MOL0     H80568   3.973   3.384  10.569  0.3649 -1.9773 -0.4950
  584MOL0     H80569   4.008   3.451  10.729  1.0581  1.5557 -3.8557
  584MOL0     H80570   3.799   3.377  10.758 -0.5751 -0.0929 -2.5598
  584MOL0     H80571   3.884   3.241  10.833 -0.2535  0.5796  0.3288
  584MOL0     H80572   4.201   2.992  10.514  0.6321  2.0501  1.5732
  584MOL0     H80573   4.031   3.042  10.360 -0.2258 -2.9748  2.0389
  584MOL0     H80574   3.825   3.173  10.050  1.5033 -0.5010  1.2773
  584MOL0     H80575   3.627   3.204   9.922  2.1707  0.4246 -1.8085
  584MOL0     H80576   2.345   2.325   8.313 -3.2123  0.2699 -2.3089
  584MOL0     H80577   2.111   2.345   8.258  0.7285  0.4671 -0.7071
  584MOL0     H80578   1.766   2.238   8.244 -2.0199 -2.3300 -1.6062
  584MOL0     H80579   1.562   2.173   8.173  2.1318  1.4877 -2.4834
  584MOL0     H80580   1.336   2.188   8.069  0.6213  0.8257  0.6760
  584MOL0     H80581   1.347   2.095   8.223 -0.7722 -0.3109  1.5237
  584MOL0     H80582   1.115   2.132   8.282 -3.0419 -3.7690 -0.6807
  584MOL0     H80583   1.127   2.043   8.127  5.0449 -1.3284  0.6990
  584MOL0     H80584   1.048   2.331   8.193 -2.3711 -0.8171  1.9372
  584MOL0     H80585   1.091   2.289   8.024  1.3193  1.7813  1.3364
  584MOL0     H80586   0.902   2.142   8.035  2.1705  2.2847 -2.4188
  584MOL0     H80587   0.858   2.308   8.071 -0.3976  0.5469  2.3456
  584MOL0     H80588   0.759   2.142   8.446  1.6532  0.7196  0.9545
  584MOL0     H80589   1.369   2.491   8.404 -1.1530 -1.4049 -1.8750
  584MOL0     H80590   1.483   2.587   8.570 -0.4161 -0.0268 -1.4273
  584MOL0     H80591   1.644   2.513   8.629 -1.9163  0.9534  2.2716
  584MOL0     H80592   1.630   2.653   8.516 -1.5086  0.7804  0.6245
  585MOL0     O80593  10.128  10.267   4.330  0.0064 -0.4619 -0.4510
  585MOL0     C80594  10.041  10.246   4.244  0.4835 -0.3774 -0.1690
  585MOL0     O80595  10.011  10.125   4.193  0.6256 -0.3458  0.7301
  585MOL0     C80596  10.078  10.017   4.249 -1.2002 -1.0622 -0.7035
  585MOL0     C80597  10.182   9.948   4.182 -0.5051 -0.4081 -0.2603
  585MOL0     C80598  10.252   9.842   4.246  0.6853 -1.0020  0.3420
  585MOL0     C80599  10.210   9.797   4.370 -0.0513 -0.4135 -0.3109
  585MOL0     O80600  10.292   9.699   4.435 -0.3454  0.0769  0.3032
  585MOL0     C80601  10.428   9.743   4.472 -0.6233 -0.1670 -0.4868
  585MOL0     C80602  10.475   9.650   4.585 -0.6311  0.1037  0.7772
  585MOL0     C80603  10.624   9.646   4.610  0.1447  0.4496 -0.6019
  585MOL0     C80604  10.716   9.630   4.488  0.0015  0.1264 -0.5430
  585MOL0     C80605  10.860   9.639   4.541 -0.8983  0.2409  0.3765
  585MOL0     C80606  10.893   9.763   4.622  0.5304  1.2836 -0.6651
  585MOL0     C80607  11.039   9.808   4.618  0.3456 -0.7114 -0.1296
  585MOL0     C80608  11.133   9.704   4.674 -0.4707  0.1629 -0.5252
  585MOL0     N80609  11.264   9.756   4.713  0.1925 -0.1844  0.5266
  585MOL0     C80610  11.295   9.886   4.757 -0.1344 -0.4521  0.5853
  585MOL0     C80611  11.431   9.904   4.727  0.2582 -0.2220 -0.0693
  585MOL0     C80612  11.518  10.028   4.741 -0.2060 -0.3651 -0.7690
  585MOL0     C80613  11.620  10.066   4.629 -0.0805 -0.2806 -1.4132
  585MOL0     C80614  11.676  10.207   4.651 -0.3887  0.8447  0.6579
  585MOL0     C80615  11.785  10.220   4.551 -0.7021  0.5554  0.2040
  585MOL0     O80616  11.906  10.170   4.612 -0.1796 -0.7856  0.1338
  585MOL0     C80617  12.031  10.193   4.549  0.3417  0.4342  0.3828
  585MOL0     C80618  12.048  10.250   4.424 -0.5421 -0.0252  0.6082
  585MOL0     C80619  12.172  10.287   4.366  0.5791  0.8832  0.1836
  585MOL0     C80620  12.156  10.359   4.230  0.4305 -0.7779  0.1721
  585MOL0     C80621  12.289  10.255   4.437 -0.1423  0.2843  0.1950
  585MOL0     C80622  12.432  10.287   4.389  1.5945 -0.1556 -0.6330
  585MOL0     O80623  12.547  10.247   4.460  0.5841  0.0306  0.4648
  585MOL0     C80624  12.670  10.250   4.400  0.0884  0.4913 -0.3910
  585MOL0     C80625  12.724  10.345   4.317 -0.2930  0.5248 -1.0308
  585MOL0     C80626  12.859  10.330   4.266  0.1928  0.5556  0.4464
  585MOL0     C80627  12.937  10.226   4.305 -0.0087 -0.4795 -0.4070
  585MOL0     O80628  13.066  10.203   4.276 -0.2958  0.3813 -0.1416
  585MOL0     C80629  13.127  10.262   4.161 -0.2658  0.2163  0.4960
  585MOL0     C80630  13.228  10.169   4.107  0.1319  0.6780  0.5538
  585MOL0     C80631  13.336  10.229   4.026 -0.4792 -0.2989  0.8900
  585MOL0     C80632  13.411  10.128   3.943  0.0141 -0.7099 -0.3403
  585MOL0     C80633  13.547  10.190   3.896 -0.0681 -0.8037 -0.7171
  585MOL0     C80634  13.610  10.111   3.786 -0.6475  0.2771 -0.3059
  585MOL0     C80635  13.652   9.971   3.826  0.8062  0.2285  0.5391
  585MOL0     C80636  13.728   9.908   3.715  0.4342 -0.6468  0.0929
  585MOL0    Cl80637  13.885   9.975   3.694 -0.2790  0.1557  0.1817
  585MOL0     C80638  12.884  10.132   4.393 -0.0283 -0.1214  0.8572
  585MOL0     C80639  12.751  10.136   4.427 -0.3394 -0.7705  0.3246
  585MOL0     O80640  12.437  10.337   4.276 -0.1421 -0.2447  0.3002
  585MOL0     C80641  12.267  10.202   4.564 -0.4020  0.2240 -0.8997
  585MOL0     C80642  12.143  10.153   4.611  0.5406  0.9428  0.0140
  585MOL0     N80643  11.470   9.782   4.668  0.1723 -0.6158 -0.4129
  585MOL0     N80644  11.373   9.698   4.657 -0.2320 -0.8818 -0.4781
  585MOL0     C80645  10.100   9.847   4.425  1.0521 -1.3844 -0.5079
  585MOL0     C80646  10.034   9.958   4.370  0.0909 -0.5977 -0.2749
  585MOL0     C80647   9.968  10.361   4.184 -0.8031  0.4847 -0.5960
  585MOL0     C80648   9.840  10.341   4.123 -0.8706  0.7101  0.7878
  585MOL0     C80649   9.753  10.450   4.086 -0.3036 -0.2258  0.1203
  585MOL0     C80650   9.801  10.580   4.101  0.0089  0.6464 -0.0228
  585MOL0     O80651   9.707  10.675   4.061 -0.1226 -0.5079  0.4506
  585MOL0     C80652   9.729  10.808   4.080 -0.1635 -0.7653 -0.3341
  585MOL0     C80653   9.605  10.897   4.048 -1.3219  0.7219 -0.1281
  585MOL0     C80654   9.489  10.870   4.139  0.5619  0.6651  0.3080
  585MOL0     C80655   9.356  10.952   4.123  0.1726  0.6545 -0.3208
  585MOL0     C80656   9.273  10.923   4.234 -0.1655 -0.3565  0.5354
  585MOL0     C80657   9.211  10.898   4.338 -0.2385 -0.0133 -0.5410
  585MOL0     C80658   9.929  10.607   4.160  0.0439 -0.1209 -0.0015
  585MOL0     C80659  10.007  10.497   4.206 -0.0420  0.0135  0.2507
  585MOL0     C80660  10.131  10.538   4.280 -0.1439  0.2445 -0.3282
  585MOL0     H80661  10.218   9.978   4.085 -2.1884  2.8168 -0.0316
  585MOL0     H80662  10.324   9.783   4.190 -0.6318 -0.5877 -1.9037
  585MOL0     H80663  10.433   9.847   4.506  2.2794  0.1231 -1.5688
  585MOL0     H80664  10.495   9.737   4.386  1.5533  2.1113  0.9143
  585MOL0     H80665  10.427   9.689   4.675 -2.8464  0.0713 -0.3286
  585MOL0     H80666  10.439   9.549   4.562 -1.7272  0.7306 -0.4374
  585MOL0     H80667  10.642   9.740   4.663  1.2282  1.3096 -2.3926
  585MOL0     H80668  10.652   9.560   4.671 -0.2437  0.0459 -0.9780
  585MOL0     H80669  10.704   9.534   4.437  0.2070 -0.5978  0.7341
  585MOL0     H80670  10.690   9.703   4.411 -1.0602  0.8011  0.4229
  585MOL0     H80671  10.919   9.645   4.449 -3.2677 -0.9242 -1.3232
  585MOL0     H80672  10.883   9.544   4.590 -0.3170 -0.5617 -1.3832
  585MOL0     H80673  10.827   9.842   4.585 -1.1844  0.1894 -0.0333
  585MOL0     H80674  10.860   9.731   4.721  0.8619 -0.0812 -0.9680
  585MOL0     H80675  11.036   9.892   4.687 -1.9725 -0.4465 -0.4597
  585MOL0     H80676  11.078   9.844   4.522  3.1602 -0.5085  1.0264
  585MOL0     H80677  11.088   9.678   4.770  1.7041 -2.4297 -0.0604
  585MOL0     H80678  11.141   9.619   4.605  1.0108 -0.3236  0.2042
  585MOL0     H80679  11.227   9.964   4.790 -0.9216 -1.1393  0.6397
  585MOL0     H80680  11.575  10.015   4.833 -0.1376 -3.4642 -1.1511
  585MOL0     H80681  11.452  10.114   4.752  0.8677  0.2853  1.0186
  585MOL0     H80682  11.699   9.991   4.622  1.1424  0.5356  1.8975
  585MOL0     H80683  11.572  10.065   4.530  3.1892 -0.8426 -3.1381
  585MOL0     H80684  11.606  10.289   4.629 -0.0684  0.5284 -1.7536
  585MOL0     H80685  11.706  10.215   4.756 -2.9819 -2.0204  1.7853
  585MOL0     H80686  11.768  10.147   4.471  0.8330  0.3024  0.0865
  585MOL0     H80687  11.793  10.324   4.518  0.3373  0.8036  1.1952
  585MOL0     H80688  11.958  10.289   4.379 -0.9567 -0.9307  0.6266
  585MOL0     H80689  12.229  10.439   4.211 -0.4586  0.0692  0.2776
  585MOL0     H80690  12.064  10.415   4.210  1.9410  2.0811  0.5949
  585MOL0     H80691  12.161  10.282   4.152 -0.2413  0.6369 -1.3421
  585MOL0     H80692  12.672  10.437   4.291 -1.2233  1.0799  2.3402
  585MOL0     H80693  12.888  10.419   4.210 -0.1668  0.1483 -0.4106
  585MOL0     H80694  13.055  10.287   4.083 -0.9846 -1.8806  0.4500
  585MOL0     H80695  13.183  10.351   4.194  1.4247 -0.5249 -0.2560
  585MOL0     H80696  13.276  10.120   4.193 -0.7711  0.3974  0.9113
  585MOL0     H80697  13.166  10.103   4.045 -0.1547  1.7541 -0.3203
  585MOL0     H80698  13.410  10.272   4.096 -1.6546  1.8329  0.9197
  585MOL0     H80699  13.303  10.312   3.964 -0.6651 -1.4435 -0.5836
  585MOL0     H80700  13.348  10.088   3.862  0.4764 -1.4919 -0.3297
  585MOL0     H80701  13.432  10.041   4.006  0.3707 -0.5609 -0.2508
  585MOL0     H80702  13.515  10.290   3.865 -1.1973 -0.3866  1.6129
  585MOL0     H80703  13.612  10.207   3.982 -1.0627 -0.8033  0.0488
  585MOL0     H80704  13.703  10.163   3.758  1.4846 -1.8029  2.3020
  585MOL0     H80705  13.539  10.109   3.703 -2.3417  0.5273  1.0908
  585MOL0     H80706  13.567   9.904   3.824  0.9656  0.0446 -0.2649
  585MOL0     H80707  13.707   9.964   3.920  0.2844 -4.7759  0.7078
  585MOL0     H80708  13.671   9.920   3.622  2.9690  0.3735 -1.4378
  585MOL0     H80709  13.739   9.800   3.723 -0.4607 -0.8562 -1.2188
  585MOL0     H80710  12.954  10.056   4.424  1.9015  1.1818 -0.1046
  585MOL0     H80711  12.719  10.054   4.490  0.3369 -2.6925 -1.6939
  585MOL0     H80712  12.358  10.181   4.618 -0.5341 -0.0667 -0.7861
  585MOL0     H80713  12.135  10.107   4.710 -0.9226  0.2765 -0.3791
  585MOL0     H80714  10.074   9.797   4.517  1.8064  0.3292  0.6820
  585MOL0     H80715   9.943   9.990   4.418  0.8389  0.6836  0.3539
  585MOL0     H80716   9.805  10.241   4.101  1.7100 -0.7588  2.8422
  585MOL0     H80717   9.660  10.433   4.034  0.3493 -2.6369 -0.3781
  585MOL0     H80718   9.765  10.831   4.181  0.4543  2.2369 -1.1160
  585MOL0     H80719   9.810  10.841   4.014 -0.8021 -1.7289 -1.6366
  585MOL0     H80720   9.585  10.873   3.944  2.4740 -2.4152 -0.3843
  585MOL0     H80721   9.641  11.000   4.055 -3.5743  1.4953  0.6956
  585MOL0     H80722   9.465  10.767   4.112 -0.2577  0.7200  0.8013
  585MOL0     H80723   9.521  10.873   4.244  1.3377 -0.2929  0.1143
  585MOL0     H80724   9.315  10.923   4.026 -0.8320  0.4832  0.1461
  585MOL0     H80725   9.378  11.059   4.120 -2.0186  1.1533 -0.4460
  585MOL0     H80726   9.161  10.886   4.431 -0.0381  1.9187 -0.1499
  585MOL0     H80727   9.949  10.713   4.173 -2.4834  0.1336  3.4997
  585MOL0     H80728  10.214  10.474   4.249  0.4925  1.0106 -0.2581
  585MOL0     H80729  10.155  10.643   4.262 -1.8157  0.3625 -2.1633
  585MOL0     H80730  10.128  10.524   4.388  3.2600  0.0563 -0.1296
  586MOL0     O80731   7.391   7.420   7.598 -0.1137  0.2470  0.0350
  586MOL0     C80732   7.386   7.298   7.626 -0.1197  1.2417 -1.1285
  586MOL0     O80733   7.488   7.208   7.607  0.1543 -0.8752  0.1132
  586MOL0     C80734   7.592   7.249   7.526  0.0429  0.0061 -0.4856
  586MOL0     C80735   7.602   7.210   7.393  0.0898  0.0034  0.0952
  586MOL0     C80736   7.722   7.236   7.319 -0.4942  0.6435  0.6252
  586MOL0     C80737   7.825   7.312   7.381  0.2322 -0.2854  0.1706
  586MOL0     O80738   7.926   7.370   7.307  0.4515  0.6713  1.0803
  586MOL0     C80739   8.058   7.385   7.361  0.2532 -0.2452 -0.3158
  586MOL0     C80740   8.158   7.417   7.243 -0.2893 -0.3784 -0.3673
  586MOL0     C80741   8.301   7.369   7.273  0.7965  0.6690 -0.6299
  586MOL0     C80742   8.390   7.407   7.152  0.6466  0.1602 -0.6207
  586MOL0     C80743   8.539   7.372   7.181  0.1556 -0.2568 -0.2687
  586MOL0     C80744   8.630   7.434   7.072  0.2922  0.6219  0.8018
  586MOL0     C80745   8.781   7.433   7.097  0.4482  0.3304 -0.1602
  586MOL0     C80746   8.849   7.299   7.124 -0.0193  0.2627  0.9273
  586MOL0     N80747   8.997   7.306   7.117 -0.1651  0.3087 -0.5654
  586MOL0     C80748   9.058   7.345   7.003 -0.2337 -0.4960  0.1770
  586MOL0     C80749   9.193   7.328   7.024  0.6263  0.0795 -0.0960
  586MOL0     C80750   9.298   7.371   6.929  0.4113 -0.2183  0.3313
  586MOL0     C80751   9.396   7.256   6.915  0.5886  0.7442 -0.9440
  586MOL0     C80752   9.500   7.284   6.815 -0.5877 -0.5415 -0.2879
  586MOL0     C80753   9.456   7.276   6.667  0.3833  0.3839 -0.2018
  586MOL0     O80754   9.395   7.145   6.636  0.1185 -0.0539 -0.0971
  586MOL0     C80755   9.475   7.028   6.628 -1.0136 -0.0901 -1.0348
  586MOL0     C80756   9.615   7.029   6.634  1.3544 -0.6960  0.0117
  586MOL0     C80757   9.692   6.917   6.634  0.1753  0.0791  0.4720
  586MOL0     C80758   9.837   6.928   6.642 -0.1325  0.8843 -0.2005
  586MOL0     C80759   9.620   6.785   6.634  0.4287  0.4868  0.4745
  586MOL0     C80760   9.688   6.648   6.636 -0.2258 -0.3672  0.3278
  586MOL0     O80761   9.609   6.539   6.622  0.1935 -0.0981 -0.4380
  586MOL0     C80762   9.658   6.409   6.626  0.2436  0.2866 -0.3500
  586MOL0     C80763   9.607   6.317   6.533 -0.0725  0.3189  0.3830
  586MOL0     C80764   9.665   6.190   6.527  0.5711 -0.3845 -0.5201
  586MOL0     C80765   9.761   6.147   6.613  0.2587 -0.8588  0.7239
  586MOL0     O80766   9.804   6.022   6.590  0.4822 -0.1805 -0.3715
  586MOL0     C80767   9.898   5.955   6.674 -0.0653 -0.0704 -0.5145
  586MOL0     C80768   9.817   5.897   6.787  0.2292  0.0219 -0.3338
  586MOL0     C80769   9.900   5.810   6.888  0.0416 -0.5614  0.4024
  586MOL0     C80770  10.010   5.903   6.957 -0.2129  0.2646  0.3137
  586MOL0     C80771  10.099   5.822   7.053 -0.4104 -0.7385  1.1599
  586MOL0     C80772  10.033   5.776   7.181  0.3773  0.3749  0.3475
  586MOL0     C80773  10.126   5.726   7.281 -0.2782  0.2099 -0.2748
  586MOL0     C80774  10.232   5.825   7.333 -0.1898  0.7526  0.0702
  586MOL0    Cl80775  10.171   5.990   7.359 -0.0854 -0.1537  0.1612
  586MOL0     C80776   9.800   6.239   6.713 -0.3164 -0.5149 -0.5490
  586MOL0     C80777   9.749   6.368   6.722 -0.2145  0.4317 -0.0096
  586MOL0     O80778   9.811   6.645   6.640  0.3677  0.4339 -0.3580
  586MOL0     C80779   9.481   6.785   6.619 -0.0535  0.2299 -0.5144
  586MOL0     C80780   9.410   6.905   6.621  0.1349  0.2425 -0.9483
  586MOL0     N80781   9.204   7.273   7.150 -0.1956 -0.4774  0.3353
  586MOL0     N80782   9.088   7.273   7.207 -0.2596 -0.5221 -0.0762
  586MOL0     C80783   7.817   7.340   7.520 -1.1610 -0.5462  0.0298
  586MOL0     C80784   7.706   7.311   7.591  0.3335  0.6026  0.1518
  586MOL0     C80785   7.249   7.254   7.673 -0.6488 -0.2948  0.2776
  586MOL0     C80786   7.223   7.114   7.658 -0.3814 -0.9475 -0.9931
  586MOL0     C80787   7.102   7.062   7.683  1.2208 -0.4582 -0.5536
  586MOL0     C80788   6.991   7.137   7.715 -0.1870  0.2053 -0.0525
  586MOL0     O80789   6.861   7.099   7.732  0.3812  0.0732  0.2206
  586MOL0     C80790   6.838   6.956   7.711 -0.0890 -0.0472 -0.3590
  586MOL0     C80791   6.700   6.909   7.758 -0.3510 -0.0463 -0.2122
  586MOL0     C80792   6.580   6.963   7.686  0.7485  0.8533  0.6968
  586MOL0     C80793   6.449   6.874   7.700  0.2448 -0.5783  0.7765
  586MOL0     C80794   6.324   6.963   7.677 -0.4876  0.2715  1.0404
  586MOL0     C80795   6.222   7.028   7.688  0.7220  0.4772  0.0201
  586MOL0     C80796   7.020   7.278   7.746  0.4382  0.5411  0.7497
  586MOL0     C80797   7.147   7.336   7.732  0.0359  0.1966  0.0706
  586MOL0     C80798   7.164   7.476   7.765 -0.5443  0.0675  0.1884
  586MOL0     H80799   7.513   7.163   7.353  0.1545 -1.6770  1.7934
  586MOL0     H80800   7.717   7.217   7.212  1.9631  1.5998  0.2805
  586MOL0     H80801   8.091   7.297   7.418  1.6739 -0.0300 -0.7694
  586MOL0     H80802   8.060   7.470   7.429 -4.2961  0.8360 -1.2197
  586MOL0     H80803   8.126   7.355   7.159 -1.4134  2.3322 -2.0655
  586MOL0     H80804   8.162   7.522   7.211  2.2827 -0.4532 -0.4853
  586MOL0     H80805   8.340   7.420   7.362 -0.4063  0.1016  0.2420
  586MOL0     H80806   8.311   7.262   7.289  0.7519  0.6937 -0.4336
  586MOL0     H80807   8.355   7.359   7.060 -1.6578  0.0639  0.2446
  586MOL0     H80808   8.378   7.516   7.145 -0.5502  0.4562  3.3989
  586MOL0     H80809   8.562   7.265   7.183 -0.2279 -0.3438 -0.5101
  586MOL0     H80810   8.572   7.410   7.278 -0.3985 -0.3039 -0.0591
  586MOL0     H80811   8.605   7.386   6.977  0.4385 -5.3202  3.3254
  586MOL0     H80812   8.602   7.540   7.071  0.3056  0.6279  0.9844
  586MOL0     H80813   8.805   7.498   7.181  1.0287 -0.5249  0.3503
  586MOL0     H80814   8.829   7.478   7.009  0.2146 -2.3533 -1.7701
  586MOL0     H80815   8.816   7.256   7.219 -0.9089 -3.4809 -0.8946
  586MOL0     H80816   8.820   7.230   7.044  1.2967  1.2316 -0.4696
  586MOL0     H80817   9.015   7.387   6.912  1.9931 -0.3414 -0.8825
  586MOL0     H80818   9.334   7.470   6.960 -1.4349  0.8427 -0.7450
  586MOL0     H80819   9.259   7.396   6.830  2.6875  0.2540 -0.5059
  586MOL0     H80820   9.449   7.240   7.010  1.8163 -0.1253 -1.7460
  586MOL0     H80821   9.334   7.169   6.893 -0.3860  0.8717  1.0146
  586MOL0     H80822   9.544   7.382   6.834 -0.9085 -0.5605  0.6119
  586MOL0     H80823   9.581   7.214   6.840  0.1377  0.6278  0.7808
  586MOL0     H80824   9.376   7.347   6.643 -1.5127 -2.1039 -1.7698
  586MOL0     H80825   9.539   7.302   6.602  1.2682  0.8734  1.0820
  586MOL0     H80826   9.661   7.128   6.639 -1.5753  0.7325  0.4503
  586MOL0     H80827   9.888   6.861   6.572  1.2634 -0.1955  1.7147
  586MOL0     H80828   9.872   6.912   6.745 -0.2995 -0.0918 -0.2793
  586MOL0     H80829   9.874   7.023   6.605 -1.9758  0.2145 -4.3981
  586MOL0     H80830   9.524   6.342   6.468  1.2110  1.0405 -1.0257
  586MOL0     H80831   9.637   6.114   6.454 -1.5532  0.8896 -1.1455
  586MOL0     H80832   9.940   5.869   6.622 -0.7781 -1.1663  0.6703
  586MOL0     H80833   9.982   6.021   6.698 -1.4981  1.1956  1.2756
  586MOL0     H80834   9.775   5.980   6.845 -2.6840 -1.6777  0.1415
  586MOL0     H80835   9.727   5.841   6.761  0.1987 -1.3316  2.3709
  586MOL0     H80836   9.944   5.720   6.845 -1.0151 -2.2100  2.5792
  586MOL0     H80837   9.834   5.775   6.967 -1.0137  1.1373  0.3266
  586MOL0     H80838   9.962   5.990   7.003  0.6556  0.6322  0.5476
  586MOL0     H80839  10.068   5.937   6.870 -2.2599 -1.4019 -1.8494
  586MOL0     H80840  10.138   5.733   7.002  0.2902 -0.8872  1.9488
  586MOL0     H80841  10.180   5.886   7.088 -2.1131  0.8009  2.4255
  586MOL0     H80842   9.979   5.689   7.142  1.2074  0.7656 -1.8528
  586MOL0     H80843   9.967   5.855   7.217 -1.5745 -0.9675 -0.1301
  586MOL0     H80844  10.185   5.641   7.247  2.5172  0.9854  2.1799
  586MOL0     H80845  10.069   5.700   7.371 -0.1356  2.8869  0.6909
  586MOL0     H80846  10.310   5.836   7.256  0.4590  0.6834  0.7064
  586MOL0     H80847  10.264   5.787   7.430  1.0181 -0.5892 -0.8200
  586MOL0     H80848   9.875   6.206   6.784 -0.7522 -0.7749 -0.2052
  586MOL0     H80849   9.774   6.429   6.809 -2.3531  0.3072  0.7534
  586MOL0     H80850   9.418   6.700   6.595  0.2146 -0.1177 -0.0079
  586MOL0     H80851   9.303   6.885   6.621  0.6614 -3.1179 -0.6448
  586MOL0     H80852   7.892   7.390   7.581 -1.1764 -1.8714  1.1965
  586MOL0     H80853   7.698   7.335   7.697  1.0906  0.5683  0.2226
  586MOL0     H80854   7.311   7.054   7.637  0.1420 -0.1790 -1.0165
  586MOL0     H80855   7.088   6.954   7.677  1.7264 -0.4405 -2.4693
  586MOL0     H80856   6.840   6.942   7.602  1.7613  1.8971 -0.6435
  586MOL0     H80857   6.917   6.891   7.750 -1.5924 -1.2038  0.8846
  586MOL0     H80858   6.698   6.933   7.864  4.7305  1.7157 -0.2786
  586MOL0     H80859   6.701   6.800   7.750  0.5386 -0.0881  0.3891
  586MOL0     H80860   6.559   7.067   7.713  0.7231  0.5228  2.0242
  586MOL0     H80861   6.600   6.954   7.579  0.1134  0.3094  0.6211
  586MOL0     H80862   6.435   6.829   7.799  2.0886  2.6868  2.7146
  586MOL0     H80863   6.442   6.792   7.628 -0.5669 -0.7291  1.0214
  586MOL0     H80864   6.128   7.080   7.691  1.0899  1.1941 -0.5057
  586MOL0     H80865   6.929   7.329   7.775 -2.0787 -1.5150 -2.6438
  586MOL0     H80866   7.150   7.540   7.678 -4.2295 -2.8486 -1.6826
  586MOL0     H80867   7.081   7.497   7.833  0.0703 -3.5320  2.3536
  586MOL0     H80868   7.255   7.502   7.819  0.1389 -0.1185 -0.8442
  587MOL0     O80869   3.263   0.474   5.672  0.4722  0.2111 -0.5715
  587MOL0     C80870   3.362   0.398   5.648  0.7867  0.3029  0.6934
  587MOL0     O80871   3.486   0.441   5.628 -1.1291  0.3166  0.3868
  587MOL0     C80872   3.575   0.381   5.543  0.1973  0.4865  0.8238
  587MOL0     C80873   3.710   0.404   5.559  0.4666  0.3895  0.2114
  587MOL0     C80874   3.800   0.381   5.459  0.5720 -0.0083 -0.3888
  587MOL0     C80875   3.755   0.329   5.337  0.1350 -0.3292  0.4459
  587MOL0     O80876   3.841   0.301   5.233  0.8983  0.7426  0.3760
  587MOL0     C80877   3.934   0.405   5.200 -0.0225  1.0268 -0.2585
  587MOL0     C80878   4.032   0.365   5.089 -0.6324 -0.1962 -0.3191
  587MOL0     C80879   4.121   0.471   5.046  0.2067  0.6469 -0.3159
  587MOL0     C80880   4.263   0.463   5.123 -0.6813 -0.7166 -0.8499
  587MOL0     C80881   4.372   0.516   5.026 -0.4550 -0.2122 -0.0457
  587MOL0     C80882   4.516   0.507   5.088 -0.0618 -1.0366  0.1953
  587MOL0     C80883   4.608   0.605   5.007  0.5402  0.7873 -0.3168
  587MOL0     C80884   4.751   0.596   5.066  0.1411 -0.5566 -0.2147
  587MOL0     N80885   4.822   0.485   5.016 -0.8329  0.3416  0.6477
  587MOL0     C80886   4.891   0.472   4.896 -0.2187  1.0770  0.0443
  587MOL0     C80887   4.990   0.380   4.925  0.6013  0.1927  0.7283
  587MOL0     C80888   5.089   0.322   4.822 -0.5034  0.0740  0.2475
  587MOL0     C80889   5.232   0.305   4.865  0.1255 -0.6000 -1.0365
  587MOL0     C80890   5.283   0.435   4.928 -0.5719 -0.2386 -0.5188
  587MOL0     C80891   5.418   0.419   5.004  0.1912 -0.0616  0.0948
  587MOL0     O80892   5.521   0.383   4.916 -0.7268  0.0467 -0.1925
  587MOL0     C80893   5.648   0.436   4.924  0.5667 -0.4043  0.6663
  587MOL0     C80894   5.689   0.560   4.974  0.2948  0.6131  0.1286
  587MOL0     C80895   5.822   0.605   4.977  0.3983 -0.5450 -0.3362
  587MOL0     C80896   5.851   0.727   5.053  0.1355  0.6080  0.3650
  587MOL0     C80897   5.921   0.525   4.930 -0.1022  0.5433 -0.1735
  587MOL0     C80898   6.062   0.554   4.925 -0.3694  0.2399  0.2649
  587MOL0     O80899   6.148   0.444   4.914 -0.1402 -0.1435 -0.8150
  587MOL0     C80900   6.276   0.481   4.914 -0.3672 -0.3246  0.5091
  587MOL0     C80901   6.333   0.483   5.043  0.4893  0.0063  0.8434
  587MOL0     C80902   6.465   0.515   5.048  0.1411  0.7497 -0.6233
  587MOL0     C80903   6.542   0.534   4.937 -0.1672  0.7533 -0.3871
  587MOL0     O80904   6.679   0.547   4.938 -0.3300  0.0349 -0.3882
  587MOL0     C80905   6.747   0.470   5.038  0.7866 -0.3795 -0.4872
  587MOL0     C80906   6.896   0.489   5.023 -0.5781 -0.0354 -0.8685
  587MOL0     C80907   6.955   0.629   5.054  0.7517 -0.1747  0.0238
  587MOL0     C80908   7.105   0.640   5.048  0.3926  0.5986  0.2539
  587MOL0     C80909   7.162   0.770   5.101  0.1622  0.1687  0.0096
  587MOL0     C80910   7.165   0.774   5.256 -0.2037 -0.3512  0.5001
  587MOL0     C80911   7.243   0.898   5.302  0.5535 -0.6758  0.3667
  587MOL0     C80912   7.171   1.026   5.270 -0.1862  0.6055  0.2554
  587MOL0    Cl80913   7.310   1.152   5.303  0.2918 -0.3017  0.2299
  587MOL0     C80914   6.484   0.541   4.815  0.0252 -1.0697 -0.3238
  587MOL0     C80915   6.348   0.524   4.797 -0.6882  0.2068  0.7612
  587MOL0     O80916   6.100   0.672   4.922 -0.0497  0.0346 -0.2224
  587MOL0     C80917   5.881   0.400   4.875  0.4104  0.4533  0.1318
  587MOL0     C80918   5.750   0.358   4.874  0.9713  0.7188  0.9670
  587MOL0     N80919   4.975   0.338   5.050 -0.5238  0.1953  0.7813
  587MOL0     N80920   4.886   0.403   5.109  0.4999 -0.5386  0.3448
  587MOL0     C80921   3.621   0.289   5.320  0.5399  0.3403  0.2865
  587MOL0     C80922   3.537   0.323   5.420  0.8530 -0.0022  0.4686
  587MOL0     C80923   3.331   0.250   5.658  0.6543  0.3754 -0.9449
  587MOL0     C80924   3.432   0.169   5.703 -0.1671  0.2829  0.3871
  587MOL0     C80925   3.402   0.038   5.722 -0.0089  0.6528 -0.1655
  587MOL0     C80926   3.288  -0.018   5.695  0.5353  0.8947  0.6246
  587MOL0     O80927   3.280  -0.157   5.727 -0.1110 -0.9159  0.0260
  587MOL0     C80928   3.155  -0.194   5.778 -0.8376 -0.5884 -0.0898
  587MOL0     C80929   3.180  -0.340   5.839  0.4933  0.4912 -0.7045
  587MOL0     C80930   3.060  -0.392   5.926 -0.6141  0.1166 -0.7932
  587MOL0     C80931   3.083  -0.531   5.975  0.1044  0.4114  0.1341
  587MOL0     C80932   2.981  -0.575   6.070  0.8070  0.4117 -0.0735
  587MOL0     C80933   2.905  -0.623   6.155  0.5735  0.9318  0.4642
  587MOL0     C80934   3.180   0.059   5.645  1.2265  0.6642  0.0506
  587MOL0     C80935   3.201   0.194   5.626 -0.4397 -0.0099 -0.1306
  587MOL0     C80936   3.085   0.278   5.574 -0.3518  1.3418  0.1351
  587MOL0     H80937   3.749   0.435   5.655  0.5833 -1.4490  0.7934
  587MOL0     H80938   3.908   0.398   5.465  0.9608 -0.6729 -3.5855
  587MOL0     H80939   3.999   0.432   5.284  1.0821  0.1674 -0.8196
  587MOL0     H80940   3.871   0.490   5.172  0.0577  1.0074 -0.5030
  587MOL0     H80941   4.095   0.282   5.123  0.1201  0.2483 -0.5930
  587MOL0     H80942   3.978   0.327   5.002 -2.3852  2.9814 -0.7542
  587MOL0     H80943   4.149   0.452   4.942  3.9737 -0.4720  0.7393
  587MOL0     H80944   4.088   0.575   5.052 -2.0750  0.0914 -1.9744
  587MOL0     H80945   4.252   0.530   5.209 -1.2664 -0.0180 -1.4579
  587MOL0     H80946   4.288   0.365   5.165  1.9646  1.1940  2.4882
  587MOL0     H80947   4.344   0.619   5.004  1.0133  0.5793  1.5677
  587MOL0     H80948   4.378   0.473   4.926  0.1279 -0.8721  0.2581
  587MOL0     H80949   4.515   0.524   5.196  1.6887 -3.7080  0.7117
  587MOL0     H80950   4.561   0.408   5.081  3.2367  0.1348  2.4588
  587MOL0     H80951   4.560   0.704   5.013 -0.5197  0.1935  2.1011
  587MOL0     H80952   4.598   0.560   4.908  1.4312 -1.6457  0.6309
  587MOL0     H80953   4.811   0.687   5.065 -1.4210  0.6131  2.2094
  587MOL0     H80954   4.734   0.586   5.173  0.8608  0.9209  0.0583
  587MOL0     H80955   4.875   0.522   4.802 -1.9311  1.1046  0.3240
  587MOL0     H80956   5.083   0.386   4.733  0.4897 -1.5229 -1.0189
  587MOL0     H80957   5.057   0.224   4.785 -0.0474  0.6752 -1.8867
  587MOL0     H80958   5.235   0.235   4.950 -0.5750 -1.6922 -1.8870
  587MOL0     H80959   5.294   0.265   4.784 -0.5497 -0.2186 -1.7520
  587MOL0     H80960   5.292   0.517   4.856  1.9303  0.0666  0.0350
  587MOL0     H80961   5.212   0.465   5.006 -0.8907 -1.3380 -0.3731
  587MOL0     H80962   5.447   0.507   5.062  2.8032 -0.4012 -0.5878
  587MOL0     H80963   5.409   0.339   5.079  4.5087 -1.0470 -0.2141
  587MOL0     H80964   5.620   0.640   4.997  2.9121  3.8607 -2.3341
  587MOL0     H80965   5.767   0.743   5.121  0.0193  0.7945  0.1774
  587MOL0     H80966   5.857   0.818   4.992  0.4702 -0.5093 -1.3132
  587MOL0     H80967   5.944   0.705   5.107  1.6801 -0.7825 -2.6086
  587MOL0     H80968   6.272   0.464   5.130  1.9734 -0.1137  1.9043
  587MOL0     H80969   6.520   0.509   5.141  3.3392 -1.1792 -2.4295
  587MOL0     H80970   6.718   0.501   5.139  0.3478  1.4550 -1.1461
  587MOL0     H80971   6.725   0.363   5.027  0.0552 -0.2335 -0.4394
  587MOL0     H80972   6.939   0.411   5.086 -0.3175  0.4469 -0.4517
  587MOL0     H80973   6.920   0.465   4.919  0.3833  2.4181 -1.2866
  587MOL0     H80974   6.915   0.651   5.153 -1.6999  2.6835 -1.4344
  587MOL0     H80975   6.904   0.703   4.990  0.9680 -1.2520 -1.4572
  587MOL0     H80976   7.154   0.623   4.951  2.0869  3.2889  0.5000
  587MOL0     H80977   7.150   0.555   5.100 -1.3513 -1.3593 -1.2890
  587MOL0     H80978   7.259   0.773   5.051 -0.1352  0.9516 -0.5528
  587MOL0     H80979   7.096   0.849   5.063 -2.6250 -1.9803  0.0794
  587MOL0     H80980   7.202   0.679   5.294  2.0318 -0.1863 -1.0559
  587MOL0     H80981   7.058   0.787   5.277  0.1502  2.4327  1.0750
  587MOL0     H80982   7.335   0.905   5.242  0.4401  1.9719  0.3757
  587MOL0     H80983   7.253   0.892   5.410 -1.8954 -1.0420  0.6340
  587MOL0     H80984   7.092   1.045   5.343 -0.0888  1.0483  0.2491
  587MOL0     H80985   7.136   1.022   5.167  1.9486 -2.1916 -0.4792
  587MOL0     H80986   6.552   0.561   4.733  0.1898 -1.8124 -0.3720
  587MOL0     H80987   6.295   0.530   4.702  0.4093 -1.9977 -0.0635
  587MOL0     H80988   5.945   0.321   4.837  0.1211 -0.6791  1.9111
  587MOL0     H80989   5.729   0.265   4.822  1.3583  0.8434  0.5816
  587MOL0     H80990   3.588   0.242   5.227  1.2339  1.0645 -0.3401
  587MOL0     H80991   3.430   0.311   5.407  1.0673 -1.9600  0.1856
  587MOL0     H80992   3.534   0.201   5.723  0.1965  0.6869 -1.8369
  587MOL0     H80993   3.485  -0.024   5.755 -0.1292  0.6002  0.0429
  587MOL0     H80994   3.137  -0.122   5.858 -1.3856 -0.8807  0.0519
  587MOL0     H80995   3.073  -0.199   5.706 -0.5540  0.9115 -0.5533
  587MOL0     H80996   3.275  -0.350   5.892  0.1105  0.7950  0.0362
  587MOL0     H80997   3.182  -0.417   5.761  0.8775  1.1832 -1.3862
  587MOL0     H80998   3.049  -0.334   6.018 -1.3159  0.4783 -1.0940
  587MOL0     H80999   2.965  -0.389   5.871  0.8447 -0.7960 -3.5382
  587MOL0     H81000   3.177  -0.546   6.029  0.7970 -0.4026 -1.2192
  587MOL0     H81001   3.078  -0.597   5.888  2.6059 -1.1084  1.0472
  587MOL0     H81002   2.847  -0.677   6.227  0.5367  1.5993  0.9416
  587MOL0     H81003   3.090   0.010   5.609  2.2942 -1.4043 -0.0021
  587MOL0     H81004   3.013   0.218   5.517 -0.3600  2.4500 -1.0591
  587MOL0     H81005   3.025   0.321   5.655 -1.7792  0.9678 -0.6746
  587MOL0     H81006   3.128   0.359   5.516  0.9073  0.2286 -0.5348
  588MOL0     O81007   9.855  11.000   0.051 -0.0119 -0.2653  0.0899
  588MOL0     C81008   9.738  10.965   0.059  0.2248  0.4021  0.4598
  588MOL0     O81009   9.677  10.936   0.176 -0.2880 -0.4283 -0.0667
  588MOL0     C81010   9.752  10.912   0.284  0.6362  0.0276  0.0515
  588MOL0     C81011   9.744  10.786   0.336  0.8222  0.1967 -0.1462
  588MOL0     C81012   9.823  10.755   0.448  0.1188  0.2549  0.9246
  588MOL0     C81013   9.898  10.860   0.514 -0.9703  0.3850 -0.1415
  588MOL0     O81014   9.995  10.822   0.610  0.5145 -0.2951  0.3238
  588MOL0     C81015  10.041  10.929   0.703 -0.2352 -0.1280  0.1176
  588MOL0     C81016  10.165  10.888   0.785 -0.1609  0.0711 -0.3204
  588MOL0     C81017  10.220  10.982   0.898 -0.2234 -0.4212 -0.1404
  588MOL0     C81018  10.333  11.069   0.856  0.5944 -0.4528 -0.3571
  588MOL0     C81019  10.346  11.198   0.939 -1.3638  0.1473  0.6448
  588MOL0     C81020  10.495  11.241   0.913  0.3299 -0.2242  0.3493
  588MOL0     C81021  10.527  11.384   0.969  0.4625  0.5858  0.1180
  588MOL0     C81022  10.667  11.446   0.960  0.3371 -0.0018  0.8352
  588MOL0     N81023  10.777  11.361   1.007  0.5244  0.2796  0.1838
  588MOL0     C81024  10.869  11.301   0.929  0.2349 -0.4558  0.0302
  588MOL0     C81025  10.942  11.215   1.000  0.6084  0.8560 -0.0195
  588MOL0     C81026  11.050  11.133   0.940  0.2054  0.0246  0.1750
  588MOL0     C81027  11.185  11.172   1.001 -0.4119 -1.3683 -0.3227
  588MOL0     C81028  11.296  11.087   0.940 -0.4949 -0.6675  0.0492
  588MOL0     C81029  11.440  11.135   0.973  0.7488  0.2387 -0.3398
  588MOL0     O81030  11.529  11.053   0.901 -0.0566 -0.5717 -0.1797
  588MOL0     C81031  11.662  11.069   0.907  0.3407 -0.2222 -0.5803
  588MOL0     C81032  11.726  11.160   0.987  0.0088  0.2082 -0.4638
  588MOL0     C81033  11.867  11.164   0.987 -0.4080  0.2519 -0.0171
  588MOL0     C81034  11.943  11.270   1.064 -0.1162 -0.1509  0.1222
  588MOL0     C81035  11.938  11.062   0.921  0.2165  0.1934  0.0710
  588MOL0     C81036  12.081  11.055   0.919 -1.0652  0.2060  0.3504
  588MOL0     O81037  12.143  11.061   0.797  0.2188  0.0607  0.2444
  588MOL0     C81038  12.275  11.024   0.783  0.6547  0.2762 -0.8341
  588MOL0     C81039  12.335  11.069   0.662  0.8306  0.1055  0.5666
  588MOL0     C81040  12.456  11.021   0.625 -0.9438  0.3384 -0.1063
  588MOL0     C81041  12.513  10.922   0.706  0.4880 -0.0326 -0.0178
  588MOL0     O81042  12.618  10.867   0.650 -0.3184  0.4344 -0.0342
  588MOL0     C81043  12.635  10.722   0.659 -0.2770  0.7246  1.2484
  588MOL0     C81044  12.765  10.687   0.579  1.2368 -0.6106 -0.1117
  588MOL0     C81045  12.877  10.767   0.634  0.6650  0.2606  0.3630
  588MOL0     C81046  13.003  10.699   0.587 -0.1610 -0.9488 -0.3886
  588MOL0     C81047  13.117  10.777   0.645  0.1533 -0.3506 -0.1803
  588MOL0     C81048  13.251  10.725   0.605  0.1732  0.3452 -0.7107
  588MOL0     C81049  13.368  10.802   0.672  0.2270 -0.8512  0.7495
  588MOL0     C81050  13.492  10.721   0.656 -0.3888  0.1097 -0.5557
  588MOL0    Cl81051  13.638  10.805   0.717  0.4679  0.2895 -0.0039
  588MOL0     C81052  12.459  10.871   0.822 -0.3070  0.1803  0.5104
  588MOL0     C81053  12.342  10.931   0.864 -0.3177  0.3028  0.1164
  588MOL0     O81054  12.138  11.054   1.029  0.3140  0.1131  0.8421
  588MOL0     C81055  11.876  10.956   0.852 -0.1932  0.3661 -0.5211
  588MOL0     C81056  11.736  10.962   0.845  0.0376 -0.7679 -0.0622
  588MOL0     N81057  10.896  11.222   1.130  0.5079 -0.1303  0.2376
  588MOL0     N81058  10.800  11.307   1.136 -0.2315 -1.3499  0.3048
  588MOL0     C81059   9.901  10.986   0.460 -0.5566  0.8886  1.0354
  588MOL0     C81060   9.840  11.005   0.337  0.2738  0.4172  0.0232
  588MOL0     C81061   9.657  10.975  -0.061  1.0164  0.0380  0.3373
  588MOL0     C81062   9.514  10.973  -0.056  0.4243 -0.2477 -0.0376
  588MOL0     C81063   9.436  10.998  -0.166  1.0108 -0.5814  0.0789
  588MOL0     C81064   9.494  11.030  -0.289 -0.2877  0.5273  0.4185
  588MOL0     O81065   9.427  11.054  -0.401 -0.2905  0.2971 -0.2625
  588MOL0     C81066   9.293  11.094  -0.399 -0.0808  0.2699  0.4894
  588MOL0     C81067   9.256  11.122  -0.540  0.0116 -0.2892  0.0983
  588MOL0     C81068   9.274  11.023  -0.656  0.1323  0.4466  0.2628
  588MOL0     C81069   9.223  11.063  -0.790  0.7838 -0.4041 -0.1182
  588MOL0     C81070   9.300  11.175  -0.845 -0.7144 -0.9993  0.4229
  588MOL0     C81071   9.347  11.267  -0.909 -0.0432  0.2388  0.8626
  588MOL0     C81072   9.631  11.034  -0.299 -0.6159 -0.3161 -0.0943
  588MOL0     C81073   9.713  10.989  -0.191  0.5056  0.2769  0.5390
  588MOL0     C81074   9.860  10.976  -0.236  0.1124  0.7412 -0.4285
  588MOL0     H81075   9.676  10.717   0.286  0.9237  0.7917 -1.1233
  588MOL0     H81076   9.819  10.652   0.482 -0.0804  0.6036  1.9860
  588MOL0     H81077   9.954  10.953   0.766  0.1739 -2.7609  1.8738
  588MOL0     H81078  10.070  11.023   0.657 -3.0160  1.7467  1.8909
  588MOL0     H81079  10.139  10.790   0.826 -0.4318 -0.1817 -1.0656
  588MOL0     H81080  10.245  10.868   0.712 -1.4802  0.7073 -1.9981
  588MOL0     H81081  10.137  11.043   0.936  0.5792 -0.1154  1.1846
  588MOL0     H81082  10.253  10.925   0.985 -1.4951  1.4923  1.6951
  588MOL0     H81083  10.430  11.018   0.860 -0.2742 -2.1989 -0.6613
  588MOL0     H81084  10.315  11.104   0.753  1.6377  1.6658  0.1094
  588MOL0     H81085  10.324  11.180   1.044 -2.4698  0.5298  0.4921
  588MOL0     H81086  10.291  11.283   0.897 -0.0039  0.5155 -0.4772
  588MOL0     H81087  10.559  11.166   0.960  1.5053 -0.2759 -1.2255
  588MOL0     H81088  10.527  11.243   0.808  2.9787  0.6888  1.0772
  588MOL0     H81089  10.516  11.369   1.077 -0.6415  0.6469  0.0230
  588MOL0     H81090  10.446  11.450   0.937 -0.5672 -1.5238 -1.9745
  588MOL0     H81091  10.685  11.479   0.857  0.3848 -1.3569  0.3794
  588MOL0     H81092  10.656  11.529   1.030 -1.1375  0.5763 -0.0382
  588MOL0     H81093  10.881  11.299   0.821 -1.4522  1.8918 -0.2655
  588MOL0     H81094  11.045  11.158   0.834 -1.5581 -0.5633  0.0729
  588MOL0     H81095  11.024  11.027   0.948 -1.2906  0.4601  1.8223
  588MOL0     H81096  11.197  11.280   0.993 -2.6656 -0.9535  0.9961
  588MOL0     H81097  11.181  11.176   1.110 -2.0549 -1.9869 -0.3358
  588MOL0     H81098  11.290  10.984   0.975 -1.6164 -0.1476  1.4694
  588MOL0     H81099  11.292  11.072   0.832  0.0278 -2.5912  0.2586
  588MOL0     H81100  11.449  11.240   0.943 -0.4619  0.4548  0.0032
  588MOL0     H81101  11.455  11.124   1.081 -0.6561  0.3494 -0.1113
  588MOL0     H81102  11.659  11.224   1.043 -0.3081  0.1822 -0.8027
  588MOL0     H81103  11.869  11.333   1.114 -0.7303  1.8315 -3.0261
  588MOL0     H81104  11.995  11.331   0.989 -1.7861 -0.1642 -1.1021
  588MOL0     H81105  12.002  11.228   1.147  0.7011 -0.5880 -0.6593
  588MOL0     H81106  12.275  11.137   0.603 -3.4013 -3.5121  0.2156
  588MOL0     H81107  12.505  11.050   0.533  3.0096 -0.9458  1.3530
  588MOL0     H81108  12.642  10.695   0.765 -2.0648 -0.7096  1.0613
  588MOL0     H81109  12.543  10.675   0.623 -0.1897 -1.3183  3.4528
  588MOL0     H81110  12.766  10.578   0.581  0.1801 -0.6184  0.5746
  588MOL0     H81111  12.743  10.717   0.476  2.7918 -3.6859 -1.4779
  588MOL0     H81112  12.870  10.775   0.743 -0.1685  3.2965  0.1828
  588MOL0     H81113  12.887  10.866   0.589  0.9535 -0.4764 -1.2598
  588MOL0     H81114  13.023  10.697   0.479  2.9342 -2.0721  0.1071
  588MOL0     H81115  13.006  10.595   0.620  3.0510 -0.6697  0.5201
  588MOL0     H81116  13.112  10.885   0.626 -2.1481 -0.4344 -0.2968
  588MOL0     H81117  13.111  10.774   0.754 -0.4260  1.4011 -0.1277
  588MOL0     H81118  13.260  10.728   0.496 -2.1750 -2.1909 -1.0791
  588MOL0     H81119  13.262  10.618   0.627 -2.1294 -0.3220 -2.4605
  588MOL0     H81120  13.356  10.821   0.779  2.3664  3.6221  0.4083
  588MOL0     H81121  13.373  10.903   0.631 -0.9694 -1.6341 -1.5305
  588MOL0     H81122  13.514  10.687   0.554 -2.4403 -0.2972 -0.9024
  588MOL0     H81123  13.478  10.636   0.723 -1.6461  0.2442 -0.6194
  588MOL0     H81124  12.515  10.796   0.877  0.6950  0.6653  0.1627
  588MOL0     H81125  12.300  10.897   0.958  1.0746  1.9116  1.3790
  588MOL0     H81126  11.939  10.879   0.808  0.5502  1.0825 -0.7253
  588MOL0     H81127  11.689  10.885   0.785  3.3245 -1.9063 -1.3739
  588MOL0     H81128   9.969  11.066   0.488  1.3285  0.5948 -2.1840
  588MOL0     H81129   9.845  11.102   0.288  1.4802  0.2883 -0.1429
  588MOL0     H81130   9.462  10.943   0.034 -2.9445  0.1623 -1.6885
  588MOL0     H81131   9.328  11.006  -0.162  1.1168  0.4697  2.8622
  588MOL0     H81132   9.232  11.010  -0.366 -0.1782  0.1198 -0.0716
  588MOL0     H81133   9.286  11.177  -0.328  1.6143 -0.2452  1.3225
  588MOL0     H81134   9.309  11.214  -0.566 -0.7972  0.7618  1.9804
  588MOL0     H81135   9.151  11.153  -0.536  0.7435  2.5519 -0.4954
  588MOL0     H81136   9.381  11.004  -0.661  0.3984  1.8601  0.1206
  588MOL0     H81137   9.224  10.931  -0.625 -1.0769  1.7261  2.3484
  588MOL0     H81138   9.115  11.079  -0.780  0.1438 -0.8897 -4.4916
  588MOL0     H81139   9.240  10.983  -0.862 -0.8654 -0.6546 -0.2624
  588MOL0     H81140   9.397  11.343  -0.966  0.0716 -0.0778  0.5402
  588MOL0     H81141   9.675  11.060  -0.395  0.1496 -5.4232 -1.4287
  588MOL0     H81142   9.911  10.903  -0.173 -1.4956  1.7761  2.2008
  588MOL0     H81143   9.873  10.938  -0.338 -1.6310  0.5686 -0.6141
  588MOL0     H81144   9.908  11.075  -0.236  0.0576  0.8117 -2.1702
  589MOL0     O81145   2.562   2.553   0.936 -0.6021 -0.9001  0.5127
  589MOL0     C81146   2.503   2.655   0.953  0.1640 -0.0811  0.4067
  589MOL0     O81147   2.546   2.779   0.918 -0.1565 -0.4877 -0.2237
  589MOL0     C81148   2.668   2.804   0.867  0.2717  1.3837  0.4764
  589MOL0     C81149   2.769   2.810   0.955 -0.3118 -1.0079  0.5228
  589MOL0     C81150   2.902   2.838   0.904  0.0099  1.0832  0.6368
  589MOL0     C81151   2.925   2.850   0.766 -0.4596 -0.8589 -0.3199
  589MOL0     O81152   3.046   2.884   0.706 -0.4547  0.4191 -0.5669
  589MOL0     C81153   3.168   2.845   0.776 -0.7894  0.5752 -0.2484
  589MOL0     C81154   3.300   2.897   0.710  0.6608  0.4560  0.1171
  589MOL0     C81155   3.420   2.842   0.787  0.6522 -0.8974  0.7169
  589MOL0     C81156   3.537   2.928   0.779 -0.1610  0.2941 -0.3041
  589MOL0     C81157   3.650   2.882   0.868  0.0204 -0.0255  0.2286
  589MOL0     C81158   3.784   2.969   0.840  0.6900  0.3596 -0.5027
  589MOL0     C81159   3.783   3.122   0.868  0.3844 -0.6386 -0.5136
  589MOL0     C81160   3.765   3.156   1.020 -0.1947  0.7111  0.1787
  589MOL0     N81161   3.711   3.290   1.027  0.7495  1.0127  0.0855
  589MOL0     C81162   3.776   3.405   1.026  0.0856 -0.5040 -0.2199
  589MOL0     C81163   3.682   3.502   1.034 -1.0613  0.7987 -0.0536
  589MOL0     C81164   3.712   3.648   1.058 -0.5322 -0.0579  0.1529
  589MOL0     C81165   3.654   3.684   1.195 -0.1584 -0.0682  0.4774
  589MOL0     C81166   3.666   3.836   1.220 -0.1745  0.3451  1.2672
  589MOL0     C81167   3.610   3.850   1.359  0.4775 -0.5413  1.0464
  589MOL0     O81168   3.593   3.986   1.410  0.0416 -0.1022 -0.3031
  589MOL0     C81169   3.686   4.023   1.512  0.5281 -0.0182 -0.3856
  589MOL0     C81170   3.629   4.049   1.637  0.3862  1.0668  0.2496
  589MOL0     C81171   3.710   4.092   1.742 -0.4349 -0.5641  0.5872
  589MOL0     C81172   3.639   4.129   1.864  0.2952  0.2325 -0.4811
  589MOL0     C81173   3.853   4.106   1.732 -0.3405 -0.2286 -0.7938
  589MOL0     C81174   3.943   4.144   1.848  0.7034 -0.1896  0.2737
  589MOL0     O81175   3.927   4.097   1.967 -0.7053  0.6366 -0.6084
  589MOL0     C81176   4.024   4.139   2.049  0.1797 -0.6798 -0.6483
  589MOL0     C81177   4.129   4.059   2.084  0.2761 -0.2227  0.3655
  589MOL0     C81178   4.233   4.106   2.171 -0.3350 -0.5108 -0.6098
  589MOL0     C81179   4.225   4.233   2.227 -0.0182  0.6100  0.4662
  589MOL0     O81180   4.333   4.260   2.309 -1.2180  0.2363  0.7704
  589MOL0     C81181   4.303   4.348   2.415 -1.3147  0.0180 -0.1656
  589MOL0     C81182   4.422   4.338   2.517  1.5473 -0.2796 -0.5006
  589MOL0     C81183   4.549   4.376   2.435  0.6409 -0.2545 -0.2816
  589MOL0     C81184   4.679   4.359   2.523 -0.2050  0.3587  0.3878
  589MOL0     C81185   4.805   4.428   2.464  0.0254 -0.0031  0.2575
  589MOL0     C81186   4.872   4.367   2.338 -0.3399  0.7020 -0.0824
  589MOL0     C81187   5.018   4.421   2.318  0.2992  0.5572 -0.5781
  589MOL0     C81188   5.010   4.556   2.254 -0.4769 -0.0500  0.4242
  589MOL0    Cl81189   5.180   4.618   2.207 -0.0525  0.4264  0.0368
  589MOL0     C81190   4.112   4.308   2.206  0.1098 -0.2095 -0.5037
  589MOL0     C81191   4.003   4.261   2.128  0.8593  0.4367  0.1219
  589MOL0     O81192   4.028   4.231   1.811  0.5721 -0.3155  0.0348
  589MOL0     C81193   3.904   4.077   1.602 -0.3181  0.1917 -0.6963
  589MOL0     C81194   3.826   4.038   1.491  0.4831  0.1907 -0.7093
  589MOL0     N81195   3.563   3.432   1.046 -0.9691  0.0333 -0.0515
  589MOL0     N81196   3.581   3.309   1.048  0.1048  1.0344  0.4141
  589MOL0     C81197   2.813   2.836   0.685  0.2355 -0.3733  0.8125
  589MOL0     C81198   2.684   2.816   0.727 -0.3976  0.0354 -0.0023
  589MOL0     C81199   2.355   2.649   1.006 -0.2108  0.3290  0.0387
  589MOL0     C81200   2.292   2.768   1.035 -0.4588 -0.8485 -0.5448
  589MOL0     C81201   2.161   2.778   1.087 -0.4692 -0.2609  0.2711
  589MOL0     C81202   2.078   2.666   1.083 -0.3084 -0.1690 -1.1443
  589MOL0     O81203   1.941   2.662   1.110  0.0470 -0.1675  0.1121
  589MOL0     C81204   1.895   2.747   1.208  0.1343  0.8790  0.0806
  589MOL0     C81205   1.755   2.699   1.249 -0.7431 -0.2681  0.1102
  589MOL0     C81206   1.656   2.702   1.135 -0.0909  0.3012  0.5459
  589MOL0     C81207   1.508   2.659   1.179  0.2132  0.7119 -0.0246
  589MOL0     C81208   1.441   2.747   1.276  1.7909  0.0208  0.0745
  589MOL0     C81209   1.386   2.812   1.366 -0.1749 -0.0754  0.4155
  589MOL0     C81210   2.141   2.545   1.058 -0.2786  0.0954 -0.0764
  589MOL0     C81211   2.280   2.531   1.030  0.8186  0.8245  0.7055
  589MOL0     C81212   2.329   2.392   1.008  1.0648 -0.3866 -0.0817
  589MOL0     H81213   2.755   2.787   1.060  0.1912 -1.9176  0.3982
  589MOL0     H81214   2.983   2.858   0.975  2.0216  2.1880 -1.8075
  589MOL0     H81215   3.178   2.736   0.773  2.2705  0.7528  0.4541
  589MOL0     H81216   3.168   2.873   0.881 -2.4679 -1.8929  0.5091
  589MOL0     H81217   3.304   2.858   0.607  0.8730 -3.0134  1.2931
  589MOL0     H81218   3.306   3.006   0.714  1.7374  0.3766  2.5083
  589MOL0     H81219   3.393   2.826   0.892  1.8047 -2.5024  0.8199
  589MOL0     H81220   3.447   2.743   0.749  0.4252 -1.3495  1.6913
  589MOL0     H81221   3.574   2.918   0.676 -0.9843 -0.4206 -0.5402
  589MOL0     H81222   3.515   3.032   0.807 -1.0255  0.0506 -0.0326
  589MOL0     H81223   3.679   2.777   0.853  0.6200 -0.0880  1.6445
  589MOL0     H81224   3.603   2.892   0.966 -1.8309 -3.1253 -0.1910
  589MOL0     H81225   3.871   2.928   0.893  0.5052 -1.0496 -1.2293
  589MOL0     H81226   3.812   2.936   0.739 -2.0063 -1.6491 -0.7214
  589MOL0     H81227   3.707   3.176   0.811 -1.3964 -1.0774  1.2775
  589MOL0     H81228   3.872   3.168   0.826 -1.6836  1.4365 -2.9536
  589MOL0     H81229   3.698   3.084   1.067  1.4052 -1.1757 -0.2976
  589MOL0     H81230   3.863   3.145   1.066  1.0796  0.1743 -2.4695
  589MOL0     H81231   3.881   3.431   1.023  0.0261 -0.1113  0.7708
  589MOL0     H81232   3.694   3.715   0.974 -0.6362 -0.0691  0.1667
  589MOL0     H81233   3.821   3.648   1.070 -0.5270  0.7541  0.1362
  589MOL0     H81234   3.553   3.646   1.210 -1.1062  2.2513  0.4908
  589MOL0     H81235   3.715   3.631   1.268  2.9167  0.0576 -1.7885
  589MOL0     H81236   3.768   3.875   1.211  0.4330 -1.3883  0.1669
  589MOL0     H81237   3.600   3.888   1.150 -2.7320 -3.1971  0.7878
  589MOL0     H81238   3.507   3.812   1.356  0.4841 -0.7023 -2.9263
  589MOL0     H81239   3.664   3.792   1.434 -1.8030 -1.0614  2.3733
  589MOL0     H81240   3.521   4.045   1.647  0.3984  2.3470  1.1311
  589MOL0     H81241   3.532   4.112   1.849  0.5113 -0.4826 -1.3497
  589MOL0     H81242   3.658   4.233   1.891  1.8546 -0.2089  0.2132
  589MOL0     H81243   3.671   4.069   1.949  0.1357 -0.8046 -1.1262
  589MOL0     H81244   4.134   3.970   2.023 -1.0306  0.6275 -1.0560
  589MOL0     H81245   4.305   4.029   2.196 -0.9949 -0.9485 -0.0537
  589MOL0     H81246   4.283   4.450   2.384 -0.1059  0.7015  1.1860
  589MOL0     H81247   4.219   4.303   2.469 -1.4166 -1.6110 -1.5940
  589MOL0     H81248   4.412   4.386   2.614 -1.7816 -3.4125  0.9251
  589MOL0     H81249   4.436   4.232   2.537  1.8563 -0.0609  0.5032
  589MOL0     H81250   4.545   4.481   2.402 -0.6822 -0.4331 -0.7597
  589MOL0     H81251   4.560   4.316   2.344 -0.3167 -0.3899 -0.3122
  589MOL0     H81252   4.696   4.252   2.540 -2.6023 -0.2722 -0.7235
  589MOL0     H81253   4.672   4.412   2.618  0.5959  1.4542 -0.1453
  589MOL0     H81254   4.798   4.536   2.451  1.6318 -0.1632 -2.5860
  589MOL0     H81255   4.876   4.433   2.547 -1.2602  2.2851  1.3041
  589MOL0     H81256   4.802   4.375   2.254 -0.4273 -1.7889 -0.3171
  589MOL0     H81257   4.886   4.260   2.355  0.3074  0.3901 -2.2047
  589MOL0     H81258   5.062   4.349   2.248  0.0835 -0.3444  0.1947
  589MOL0     H81259   5.073   4.428   2.412 -2.3212  4.0576  0.9208
  589MOL0     H81260   4.963   4.635   2.313  2.5221  2.1067  0.1417
  589MOL0     H81261   4.957   4.549   2.159  1.8021  2.6854 -1.2388
  589MOL0     H81262   4.094   4.402   2.257  1.0724 -0.3193  0.0579
  589MOL0     H81263   3.906   4.308   2.113  0.0316 -1.0017  0.7853
  589MOL0     H81264   4.010   4.083   1.582  0.0085  1.5861  1.1559
  589MOL0     H81265   3.865   4.004   1.396  0.8480 -0.2595 -0.4026
  589MOL0     H81266   2.815   2.858   0.579 -1.0851  1.2757  1.0816
  589MOL0     H81267   2.604   2.796   0.656 -1.2029  0.6112  0.7063
  589MOL0     H81268   2.348   2.857   1.011 -1.1557 -0.0964  0.5494
  589MOL0     H81269   2.114   2.875   1.094  1.3050  0.5949  0.9895
  589MOL0     H81270   1.957   2.732   1.297 -1.8915 -1.1304  1.2616
  589MOL0     H81271   1.879   2.846   1.164 -1.0524 -0.0884 -1.8121
  589MOL0     H81272   1.720   2.748   1.340 -0.1244 -1.8082  1.2387
  589MOL0     H81273   1.760   2.595   1.282  1.7957 -0.0513  0.6095
  589MOL0     H81274   1.646   2.804   1.094  1.7322  0.5896  0.7316
  589MOL0     H81275   1.686   2.637   1.053 -0.2908  2.4816 -1.3880
  589MOL0     H81276   1.518   2.560   1.226  1.1272  1.2748  1.0064
  589MOL0     H81277   1.441   2.646   1.093 -2.9256  0.2712  2.3062
  589MOL0     H81278   1.329   2.870   1.436  0.9385  0.6818  0.7220
  589MOL0     H81279   2.084   2.453   1.066  1.2312 -0.6923  2.7260
  589MOL0     H81280   2.249   2.325   1.038 -1.0608  1.0677 -2.0958
  589MOL0     H81281   2.342   2.388   0.899  0.0957 -2.3027 -0.1706
  589MOL0     H81282   2.422   2.363   1.057  0.8717  0.4544  0.8236
  590MOL0     O81283   8.965   5.372   5.298 -0.0260 -0.4503  1.1732
  590MOL0     C81284   8.994   5.366   5.415 -0.2740 -0.2451  0.3439
  590MOL0     O81285   9.111   5.415   5.471  0.3486 -0.0286  0.6435
  590MOL0     C81286   9.204   5.496   5.409 -1.0483  0.5801  0.0838
  590MOL0     C81287   9.341   5.493   5.462  1.1516  0.2713 -0.1591
  590MOL0     C81288   9.439   5.574   5.414  0.2121 -0.2688  0.6038
  590MOL0     C81289   9.416   5.651   5.299 -0.3704 -0.7859 -0.7337
  590MOL0     O81290   9.507   5.722   5.229 -1.0355  0.1227  0.2241
  590MOL0     C81291   9.646   5.679   5.233  0.2875 -0.0199  0.6069
  590MOL0     C81292   9.728   5.752   5.340 -0.8522 -0.8317  0.3020
  590MOL0     C81293   9.870   5.693   5.357  0.7830 -0.7069 -0.2308
  590MOL0     C81294   9.923   5.715   5.499 -0.2358 -0.0868 -1.1051
  590MOL0     C81295   9.949   5.866   5.531 -0.4165 -0.7928 -1.5718
  590MOL0     C81296   9.989   5.892   5.679 -0.3171 -0.6454  0.7935
  590MOL0     C81297  10.031   6.036   5.686 -0.1492 -0.5201 -0.1939
  590MOL0     C81298  10.078   6.090   5.824  0.1021 -0.3980  0.4492
  590MOL0     N81299  10.197   6.016   5.871  0.0028  0.8915 -1.0697
  590MOL0     C81300  10.322   6.036   5.829  0.3612  0.2816  0.0908
  590MOL0     C81301  10.403   5.972   5.915  0.3934 -0.4856  0.3254
  590MOL0     C81302  10.544   5.950   5.891 -0.4184  0.4689 -0.4659
  590MOL0     C81303  10.618   5.963   6.024 -0.0676 -0.2867 -0.4303
  590MOL0     C81304  10.761   5.917   5.995  0.0130  0.2571  0.1947
  590MOL0     C81305  10.835   5.918   6.134  0.7358  0.5110  0.7338
  590MOL0     O81306  10.864   6.049   6.173  0.1477 -0.3206 -0.5006
  590MOL0     C81307  10.942   6.057   6.289 -0.3105  0.1374 -0.1337
  590MOL0     C81308  11.034   6.163   6.295 -0.0499 -0.4668 -0.7651
  590MOL0     C81309  11.131   6.169   6.395 -0.3792  0.2390  0.5601
  590MOL0     C81310  11.237   6.281   6.374 -0.1853  0.1722  0.0643
  590MOL0     C81311  11.129   6.060   6.488  0.1930 -0.8641 -0.5207
  590MOL0     C81312  11.216   6.056   6.610  0.7544  0.1723 -0.0663
  590MOL0     O81313  11.266   6.175   6.656 -0.2187 -0.3978 -0.1626
  590MOL0     C81314  11.368   6.182   6.755  0.6745 -0.2935 -0.4414
  590MOL0     C81315  11.417   6.313   6.789 -0.7298 -0.4656  0.3214
  590MOL0     C81316  11.485   6.332   6.909 -0.2726 -0.1553 -0.0129
  590MOL0     C81317  11.544   6.225   6.983 -0.5399  0.6761  0.0984
  590MOL0     O81318  11.626   6.245   7.092  0.1450 -0.8689  0.0435
  590MOL0     C81319  11.659   6.386   7.122  0.2398  0.4466  1.3546
  590MOL0     C81320  11.743   6.393   7.242  0.4610 -0.7606 -0.2107
  590MOL0     C81321  11.867   6.304   7.234 -0.0308 -0.7411 -0.7378
  590MOL0     C81322  11.972   6.351   7.329 -0.7334 -1.0648 -0.2680
  590MOL0     C81323  11.943   6.374   7.474 -0.2562  0.8691 -0.6607
  590MOL0     C81324  11.870   6.253   7.539 -0.3367 -0.3520  0.7099
  590MOL0     C81325  11.839   6.283   7.687 -0.0332  0.4966  0.4283
  590MOL0     C81326  11.956   6.287   7.786  0.4607 -0.2784  0.6129
  590MOL0    Cl81327  11.891   6.336   7.944  0.2830  0.2339 -0.3293
  590MOL0     C81328  11.502   6.095   6.941  0.1176  0.7058 -0.0555
  590MOL0     C81329  11.420   6.080   6.829 -0.4037  0.5646 -0.2760
  590MOL0     O81330  11.234   5.947   6.653  0.5351  0.1497  0.5090
  590MOL0     C81331  11.033   5.963   6.483 -0.2274  0.9876 -0.7038
  590MOL0     C81332  10.936   5.954   6.388  0.0432  0.0831 -0.1763
  590MOL0     N81333  10.325   5.930   6.024 -0.0030  0.0480  0.4660
  590MOL0     N81334  10.204   5.956   5.993  0.2804 -0.2994 -0.9144
  590MOL0     C81335   9.286   5.644   5.231  0.4433 -0.5005 -0.4305
  590MOL0     C81336   9.182   5.564   5.289  0.0475  0.7578  0.3292
  590MOL0     C81337   8.896   5.294   5.511 -0.9064 -0.9230  0.3684
  590MOL0     C81338   8.933   5.296   5.648 -0.2024  0.0962  0.0941
  590MOL0     C81339   8.851   5.238   5.749 -0.7218  0.6901 -0.0859
  590MOL0     C81340   8.730   5.186   5.710 -0.4231  0.8241 -0.3138
  590MOL0     O81341   8.647   5.113   5.794  0.2217 -0.1037 -0.0362
  590MOL0     C81342   8.650   5.117   5.936  0.3984  0.4653  0.2200
  590MOL0     C81343   8.523   5.057   5.998 -0.1967 -0.2536 -0.4963
  590MOL0     C81344   8.395   5.124   5.943 -0.3080 -0.3560 -0.2147
  590MOL0     C81345   8.267   5.054   5.982 -0.6316 -0.5294  0.1458
  590MOL0     C81346   8.219   5.090   6.119 -0.3161  0.1958 -0.9689
  590MOL0     C81347   8.180   5.119   6.226  0.1382  0.7041  0.0069
  590MOL0     C81348   8.695   5.188   5.570  0.3546 -0.3015  0.4843
  590MOL0     C81349   8.771   5.246   5.470  0.0778  0.7131 -0.2084
  590MOL0     C81350   8.712   5.247   5.335 -0.4290  0.4156  0.1406
  590MOL0     H81351   9.366   5.429   5.546 -0.4444 -1.4930 -0.9609
  590MOL0     H81352   9.532   5.579   5.470  0.6804 -2.2493  0.0701
  590MOL0     H81353   9.699   5.708   5.142  0.8022  2.2238  1.5752
  590MOL0     H81354   9.656   5.573   5.259 -0.7058 -0.5496 -1.0132
  590MOL0     H81355   9.748   5.857   5.319  0.5379 -0.1766  4.0499
  590MOL0     H81356   9.673   5.755   5.434 -0.2442  0.1108  0.6364
  590MOL0     H81357   9.861   5.585   5.341  0.5795 -0.6841 -0.2723
  590MOL0     H81358   9.935   5.742   5.285 -1.1407 -0.8459 -2.1664
  590MOL0     H81359   9.866   5.672   5.582 -0.7205  0.9517 -0.8758
  590MOL0     H81360  10.018   5.662   5.506  0.3418  1.0909  3.2080
  590MOL0     H81361   9.863   5.929   5.504 -1.0269 -1.6691 -1.6934
  590MOL0     H81362  10.034   5.892   5.466  0.6497 -1.3921 -0.4538
  590MOL0     H81363   9.902   5.870   5.741 -1.2432 -1.2988 -0.6904
  590MOL0     H81364  10.080   5.838   5.708  0.8838  1.1702  0.5478
  590MOL0     H81365   9.947   6.101   5.658  0.2572 -0.8365 -2.3795
  590MOL0     H81366  10.096   6.061   5.602  1.3672  1.7662  1.5626
  590MOL0     H81367  10.087   6.199   5.825  2.4423 -0.5337 -0.5256
  590MOL0     H81368  10.001   6.073   5.901  0.8254 -2.7815  0.7456
  590MOL0     H81369  10.354   6.089   5.739 -2.1213  1.1474 -0.3499
  590MOL0     H81370  10.596   6.020   5.825  1.5009 -1.1557 -0.7625
  590MOL0     H81371  10.562   5.856   5.839  0.5403 -0.7535  1.9491
  590MOL0     H81372  10.617   6.067   6.057 -2.9462  0.2438 -1.8462
  590MOL0     H81373  10.583   5.901   6.107 -1.8538  1.0030 -0.1666
  590MOL0     H81374  10.753   5.810   5.974  0.6518  0.0807  0.7807
  590MOL0     H81375  10.820   5.976   5.924  2.0789 -0.1251  1.4998
  590MOL0     H81376  10.762   5.878   6.204  0.1522 -2.5453 -1.4514
  590MOL0     H81377  10.922   5.852   6.140 -0.3417 -1.0209  0.0090
  590MOL0     H81378  11.028   6.247   6.227  2.2714 -1.2250 -2.0180
  590MOL0     H81379  11.224   6.368   6.438  1.1022  1.0917 -0.8728
  590MOL0     H81380  11.241   6.322   6.273  2.0974 -1.4804 -0.6119
  590MOL0     H81381  11.337   6.236   6.380 -0.6858 -1.4458 -2.1734
  590MOL0     H81382  11.383   6.402   6.737 -1.1673  0.9366  2.7996
  590MOL0     H81383  11.486   6.437   6.935  1.1796  0.0851 -0.9259
  590MOL0     H81384  11.697   6.432   7.030 -1.5521 -0.8682 -0.1253
  590MOL0     H81385  11.569   6.444   7.143 -0.1861 -0.5385  2.2838
  590MOL0     H81386  11.772   6.498   7.257 -0.7971  0.0676 -2.8834
  590MOL0     H81387  11.681   6.362   7.327  1.2014 -2.5445 -0.2901
  590MOL0     H81388  11.907   6.290   7.133 -0.4105 -1.2967 -0.8132
  590MOL0     H81389  11.838   6.204   7.268 -1.8509  0.3810  1.1889
  590MOL0     H81390  12.020   6.443   7.294  0.5973 -1.6931 -0.1900
  590MOL0     H81391  12.056   6.282   7.315  0.4490  0.3698 -0.4597
  590MOL0     H81392  12.040   6.385   7.523 -1.1633  0.7009  1.2567
  590MOL0     H81393  11.894   6.471   7.487  0.9268  1.3912  0.0197
  590MOL0     H81394  11.923   6.158   7.532 -3.1501 -2.2507  2.9198
  590MOL0     H81395  11.770   6.241   7.496 -1.0191  1.5964  1.6111
  590MOL0     H81396  11.775   6.202   7.724 -1.2439  0.6993 -1.0983
  590MOL0     H81397  11.775   6.371   7.695 -1.0046 -0.2703  1.5159
  590MOL0     H81398  12.026   6.360   7.744 -0.0187  0.7510  1.5400
  590MOL0     H81399  12.011   6.193   7.797  1.6276 -0.2883 -3.7077
  590MOL0     H81400  11.545   6.007   6.989 -2.2456 -0.8442 -0.5967
  590MOL0     H81401  11.406   5.975   6.804  0.1377  0.2659  0.6413
  590MOL0     H81402  11.026   5.886   6.559  1.7809  2.0654  0.6582
  590MOL0     H81403  10.866   5.871   6.396 -0.8961  0.9534  1.1208
  590MOL0     H81404   9.275   5.698   5.138  1.9820  0.2443 -0.2248
  590MOL0     H81405   9.077   5.564   5.261 -0.4147 -2.3895  1.6225
  590MOL0     H81406   9.023   5.345   5.684 -0.0548  1.0626 -1.4819
  590MOL0     H81407   8.879   5.224   5.853 -1.9450 -1.6644  0.0116
  590MOL0     H81408   8.738   5.060   5.968 -0.7911 -2.1423 -0.8739
  590MOL0     H81409   8.670   5.218   5.972  1.7094  1.0284 -1.9295
  590MOL0     H81410   8.529   5.074   6.106 -1.3060  2.5750 -0.8001
  590MOL0     H81411   8.517   4.949   5.980  0.3730 -0.6651  1.5136
  590MOL0     H81412   8.399   5.225   5.985 -0.8137 -0.2466 -0.4281
  590MOL0     H81413   8.409   5.122   5.834 -0.6583 -0.2029 -0.2638
  590MOL0     H81414   8.278   4.945   5.985 -1.5714 -0.7797 -2.5232
  590MOL0     H81415   8.190   5.083   5.911  0.5580  1.3298 -0.4705
  590MOL0     H81416   8.149   5.139   6.326  0.4824  2.4828 -0.2118
  590MOL0     H81417   8.596   5.149   5.547  0.0799 -2.1233  4.1523
  590MOL0     H81418   8.621   5.189   5.324  1.1209 -1.8782 -1.4116
  590MOL0     H81419   8.701   5.349   5.295 -0.3483  0.1749 -0.5009
  590MOL0     H81420   8.785   5.191   5.276 -1.2592  0.4824 -0.9884
  591MOL0     O81421   8.249   9.714   6.206 -0.0650  0.0430  0.1266
  591MOL0     C81422   8.220   9.647   6.101 -0.2148 -0.5386  0.7946
  591MOL0     O81423   8.293   9.542   6.047 -0.4088 -0.4981  0.4825
  591MOL0     C81424   8.429   9.542   6.073  0.6278 -0.4087 -0.0808
  591MOL0     C81425   8.513   9.640   6.128  0.5826 -0.1620  0.3573
  591MOL0     C81426   8.650   9.614   6.154 -0.3684 -0.0904 -0.4721
  591MOL0     C81427   8.704   9.491   6.112  0.7527  0.3269  0.1607
  591MOL0     O81428   8.835   9.473   6.138 -0.4833 -0.2813 -0.0157
  591MOL0     C81429   8.912   9.383   6.053 -0.2333 -0.1460  1.0847
  591MOL0     C81430   9.056   9.398   6.104  0.7716  0.6480 -0.4836
  591MOL0     C81431   9.133   9.332   5.990  0.0418 -0.0990  0.3950
  591MOL0     C81432   9.284   9.324   6.020 -0.2662  0.1184 -0.1460
  591MOL0     C81433   9.371   9.265   5.901 -0.0637  0.2275  0.3873
  591MOL0     C81434   9.509   9.328   5.903  0.3975  0.3088 -0.1318
  591MOL0     C81435   9.581   9.293   5.782 -0.4199 -0.5823  0.3985
  591MOL0     C81436   9.620   9.149   5.754  0.1272  0.9569  1.3173
  591MOL0     N81437   9.748   9.135   5.664  0.0384 -0.1277  0.1789
  591MOL0     C81438   9.756   9.050   5.555  0.4747 -0.2191 -0.5309
  591MOL0     C81439   9.879   9.065   5.508  0.3006 -0.1578  0.3437
  591MOL0     C81440   9.920   8.997   5.384 -0.1462 -0.1971  0.2402
  591MOL0     C81441   9.947   9.079   5.254  0.1782 -0.0470 -0.0696
  591MOL0     C81442   9.811   9.139   5.205  0.1204 -0.5615  0.9861
  591MOL0     C81443   9.800   9.157   5.057 -0.7073  0.2185 -0.1087
  591MOL0     O81444   9.813   9.034   4.981  0.1888  0.0070 -0.3777
  591MOL0     C81445   9.714   8.950   4.950 -0.2328 -0.4751 -0.7413
  591MOL0     C81446   9.750   8.850   4.863  0.1202  0.6674  0.4395
  591MOL0     C81447   9.672   8.745   4.815  0.7343  0.4613 -0.0602
  591MOL0     C81448   9.736   8.647   4.712  0.4669  0.0188 -0.3047
  591MOL0     C81449   9.533   8.750   4.860 -0.5733 -0.2161 -0.4350
  591MOL0     C81450   9.442   8.641   4.844  0.6315  0.4020  0.3887
  591MOL0     O81451   9.346   8.625   4.934  0.4760 -0.3988 -0.3577
  591MOL0     C81452   9.245   8.535   4.917  0.0310 -0.8171 -0.1261
  591MOL0     C81453   9.118   8.585   4.914 -1.0163  0.2990 -0.9283
  591MOL0     C81454   9.013   8.503   4.891  0.1344 -0.0283  0.4766
  591MOL0     C81455   9.026   8.368   4.871 -0.2702  0.6672 -0.4924
  591MOL0     O81456   8.925   8.282   4.846  0.4347 -0.2238 -0.1216
  591MOL0     C81457   8.792   8.317   4.890 -0.1074  0.1928 -0.1257
  591MOL0     C81458   8.700   8.192   4.890  0.2690  0.1571 -0.4010
  591MOL0     C81459   8.577   8.210   4.979  0.3142  0.1997  0.5568
  591MOL0     C81460   8.487   8.081   4.966  0.1754 -0.4635 -1.0467
  591MOL0     C81461   8.387   8.064   5.074 -0.2309 -0.5639  0.2185
  591MOL0     C81462   8.297   7.943   5.047 -0.0330  0.2007  0.2231
  591MOL0     C81463   8.163   7.971   4.982  0.4608 -0.1318 -0.9272
  591MOL0     C81464   8.097   7.845   4.925 -0.4086 -0.0701  0.0607
  591MOL0    Cl81465   8.191   7.752   4.810 -0.2372  0.5085  0.4099
  591MOL0     C81466   9.164   8.315   4.875 -0.1864  0.0159  0.3244
  591MOL0     C81467   9.269   8.401   4.901  0.0156 -0.4676  0.8869
  591MOL0     O81468   9.463   8.570   4.750 -0.0400  0.3248  0.4557
  591MOL0     C81469   9.496   8.851   4.956  0.0565  0.0612 -1.1692
  591MOL0     C81470   9.586   8.953   4.999  0.4535  0.3709  0.1499
  591MOL0     N81471   9.945   9.162   5.579  0.6535 -0.5354  0.0445
  591MOL0     N81472   9.865   9.208   5.668  0.1523  0.3434  0.4735
  591MOL0     C81473   8.620   9.397   6.055 -0.2310 -0.4071  0.6749
  591MOL0     C81474   8.488   9.421   6.039  0.5837  1.0466  0.8164
  591MOL0     C81475   8.088   9.674   6.027 -0.5047  0.4517 -0.1632
  591MOL0     C81476   8.051   9.570   5.930  1.3956  0.0850  0.6017
  591MOL0     C81477   7.928   9.578   5.863 -0.4151  0.2396 -0.9926
  591MOL0     C81478   7.856   9.690   5.886 -0.0470 -0.0740  1.1868
  591MOL0     O81479   7.740   9.706   5.811  0.7792  0.1181 -0.8261
  591MOL0     C81480   7.611   9.676   5.867 -0.4102 -0.9010 -0.4203
  591MOL0     C81481   7.513   9.689   5.751  0.0506 -0.4285 -0.1996
  591MOL0     C81482   7.482   9.837   5.708  0.3191 -0.1195  0.2408
  591MOL0     C81483   7.403   9.839   5.574  0.8607  0.0987  0.5814
  591MOL0     C81484   7.279   9.752   5.574 -0.4091  0.1321 -0.0526
  591MOL0     C81485   7.168   9.691   5.576 -0.6845 -0.2725 -1.0220
  591MOL0     C81486   7.893   9.792   5.968  0.6260 -0.1143  0.6028
  591MOL0     C81487   8.010   9.794   6.030  0.5242  0.3349 -0.9864
  591MOL0     C81488   8.046   9.919   6.116 -0.3139  0.1241  0.2425
  591MOL0     H81489   8.469   9.732   6.162 -0.4719 -0.6470  0.3362
  591MOL0     H81490   8.715   9.684   6.205  0.3736 -0.0783 -1.4074
  591MOL0     H81491   8.907   9.418   5.949  1.6067 -2.8813 -0.0434
  591MOL0     H81492   8.868   9.283   6.054 -1.1181  0.1982 -0.0224
  591MOL0     H81493   9.088   9.501   6.122  1.9367 -0.1111  2.2876
  591MOL0     H81494   9.069   9.338   6.194  1.2713  1.6290  0.1170
  591MOL0     H81495   9.098   9.231   5.970 -1.1113 -0.3133  3.0207
  591MOL0     H81496   9.109   9.393   5.903  0.0859  1.0602  1.1677
  591MOL0     H81497   9.318   9.424   6.050  0.4851 -0.6625  1.7888
  591MOL0     H81498   9.293   9.270   6.114 -1.0845  1.2964  0.6368
  591MOL0     H81499   9.324   9.280   5.803 -0.9388  1.6049  0.9864
  591MOL0     H81500   9.380   9.158   5.921  0.2274  0.3990  1.2081
  591MOL0     H81501   9.498   9.436   5.917 -2.1104  0.3972 -1.9998
  591MOL0     H81502   9.557   9.293   5.995 -0.0677  1.5387  0.6070
  591MOL0     H81503   9.669   9.356   5.773  0.3705 -1.5130  1.3634
  591MOL0     H81504   9.520   9.331   5.700  0.9830  1.1844  0.1222
  591MOL0     H81505   9.634   9.092   5.846 -0.2489  1.7899  1.9010
  591MOL0     H81506   9.543   9.103   5.691  3.7439  1.6022 -4.2381
  591MOL0     H81507   9.674   9.000   5.504  1.5338 -2.9542  0.2423
  591MOL0     H81508   9.844   8.924   5.355 -0.1313  0.3081 -1.1317
  591MOL0     H81509  10.014   8.946   5.406 -0.8945 -1.3937  0.7451
  591MOL0     H81510  10.027   9.152   5.274  0.8354 -1.2998  2.2366
  591MOL0     H81511   9.984   9.015   5.173 -2.0191  1.7742 -2.6840
  591MOL0     H81512   9.724   9.080   5.235 -1.3510  1.1007  0.1933
  591MOL0     H81513   9.786   9.231   5.258  0.3990  0.5709 -0.7569
  591MOL0     H81514   9.706   9.201   5.023 -1.4952 -2.0414 -1.0203
  591MOL0     H81515   9.878   9.227   5.026 -1.1790  0.8290  0.0633
  591MOL0     H81516   9.857   8.855   4.846  0.3180 -0.1042  1.3434
  591MOL0     H81517   9.749   8.707   4.621 -1.5363  0.6724 -0.2120
  591MOL0     H81518   9.682   8.557   4.679  2.5401 -1.1446 -0.6870
  591MOL0     H81519   9.835   8.607   4.734  1.1502  1.0260 -1.4449
  591MOL0     H81520   9.115   8.693   4.914 -1.4775  0.2980 -1.8728
  591MOL0     H81521   8.924   8.565   4.896  1.5769  2.5501 -2.2792
  591MOL0     H81522   8.797   8.343   4.996 -2.8556 -2.2355  0.7493
  591MOL0     H81523   8.748   8.397   4.830  2.0222  0.5928 -1.2560
  591MOL0     H81524   8.654   8.184   4.791  0.0520  1.0257 -0.3825
  591MOL0     H81525   8.744   8.099   4.927 -0.9199 -1.2944 -2.4132
  591MOL0     H81526   8.527   8.302   4.947 -0.0214 -0.3311 -0.4792
  591MOL0     H81527   8.601   8.230   5.084  0.4581 -0.4758  0.6563
  591MOL0     H81528   8.550   7.993   4.979 -1.3505 -1.3211  1.0812
  591MOL0     H81529   8.445   8.080   4.865  0.3524  0.7106 -1.1534
  591MOL0     H81530   8.437   8.047   5.171 -0.4071  0.3959  0.4872
  591MOL0     H81531   8.332   8.158   5.081  1.1001  0.5097 -2.4463
  591MOL0     H81532   8.270   7.896   5.142  0.3883 -0.0463  0.2235
  591MOL0     H81533   8.353   7.866   4.992  2.8668  4.2064 -3.0301
  591MOL0     H81534   8.184   8.047   4.906  1.6437 -0.4494 -0.9302
  591MOL0     H81535   8.096   8.017   5.056  0.4384 -1.6933  0.0768
  591MOL0     H81536   8.004   7.870   4.873  0.2907 -0.3550 -1.3537
  591MOL0     H81537   8.077   7.782   5.013  0.2356 -2.0552 -1.1510
  591MOL0     H81538   9.192   8.211   4.872  1.6191  0.4391  1.1826
  591MOL0     H81539   9.369   8.360   4.907 -0.2178 -1.3587 -0.6731
  591MOL0     H81540   9.400   8.853   5.006  0.4097 -0.2634 -0.4544
  591MOL0     H81541   9.558   9.030   5.069 -2.7323 -0.3375 -0.1941
  591MOL0     H81542   8.656   9.297   6.033  0.6920 -0.2887  1.5549
  591MOL0     H81543   8.423   9.340   6.009  0.6907  1.3716 -0.3531
  591MOL0     H81544   8.125   9.494   5.906  2.0353  1.2493 -1.3908
  591MOL0     H81545   7.881   9.495   5.811 -3.0449  0.1403  1.2733
  591MOL0     H81546   7.611   9.576   5.911  0.7602 -0.6235  0.2579
  591MOL0     H81547   7.584   9.738   5.953  0.6315  0.1467 -0.8215
  591MOL0     H81548   7.419   9.653   5.793 -0.7353 -1.4431 -2.6432
  591MOL0     H81549   7.543   9.619   5.673 -0.3695 -2.1522  1.1200
  591MOL0     H81550   7.432   9.887   5.791 -1.2914 -0.2518 -0.5983
  591MOL0     H81551   7.576   9.888   5.684 -2.0070  3.3436 -2.6277
  591MOL0     H81552   7.464   9.796   5.494 -3.1084 -0.7144 -2.3436
  591MOL0     H81553   7.370   9.938   5.543 -0.0713  0.3684  2.2902
  591MOL0     H81554   7.070   9.649   5.573 -0.1639 -1.9626  2.0474
  591MOL0     H81555   7.841   9.886   5.985  1.5345  0.1210  2.3104
  591MOL0     H81556   7.981  10.006   6.105 -0.3997  0.1617  0.9768
  591MOL0     H81557   8.049   9.896   6.223  4.7418  1.0622  0.5463
  591MOL0     H81558   8.145   9.955   6.084  0.4812 -3.4562 -1.8528
  592MOL0     O81559   8.241   6.098   0.284 -0.1222  0.3405  0.0264
  592MOL0     C81560   8.227   6.213   0.264  0.3049  0.1579  0.5544
  592MOL0     O81561   8.304   6.313   0.307  0.0346 -0.2039  0.8200
  592MOL0     C81562   8.430   6.267   0.348  0.7086 -0.1478 -0.0558
  592MOL0     C81563   8.496   6.335   0.452 -0.2049 -0.0632 -0.2543
  592MOL0     C81564   8.625   6.312   0.493  0.7839  0.3511 -0.3001
  592MOL0     C81565   8.705   6.228   0.417 -0.1095  0.3734 -0.1074
  592MOL0     O81566   8.834   6.214   0.459  0.1263  0.0175 -0.1426
  592MOL0     C81567   8.918   6.136   0.385 -0.1804  0.9270 -0.6509
  592MOL0     C81568   9.045   6.124   0.461  0.3851  0.3136 -0.2024
  592MOL0     C81569   9.155   6.050   0.403 -0.5612  0.5357  0.1985
  592MOL0     C81570   9.285   6.071   0.490  0.0162  0.0750  0.6099
  592MOL0     C81571   9.345   6.205   0.474  0.2673  0.2306  0.0468
  592MOL0     C81572   9.448   6.239   0.581 -0.5932 -0.7912 -0.5653
  592MOL0     C81573   9.567   6.158   0.563  0.2721  0.1567  0.8227
  592MOL0     C81574   9.690   6.198   0.648 -0.7570 -0.3622 -0.4141
  592MOL0     N81575   9.764   6.319   0.595 -0.1771  0.3432 -0.2426
  592MOL0     C81576   9.862   6.313   0.500  0.9085 -0.6304  0.2460
  592MOL0     C81577   9.930   6.430   0.516 -0.0019  0.0368  0.2194
  592MOL0     C81578  10.051   6.474   0.436  0.3363  0.7824 -1.1704
  592MOL0     C81579  10.171   6.411   0.508 -0.2615  0.2442  1.2117
  592MOL0     C81580  10.300   6.457   0.441 -0.5423 -0.8919 -1.0875
  592MOL0     C81581  10.413   6.403   0.516  0.4458 -0.1521 -0.4583
  592MOL0     O81582  10.407   6.258   0.497 -0.0687  0.5266 -0.2467
  592MOL0     C81583  10.512   6.189   0.548  0.2976 -0.2612 -0.2759
  592MOL0     C81584  10.506   6.159   0.684 -0.3756  0.0643  0.2376
  592MOL0     C81585  10.608   6.093   0.746 -0.3398 -0.3801 -0.2323
  592MOL0     C81586  10.588   6.067   0.888  0.0457  0.5474 -0.3448
  592MOL0     C81587  10.717   6.047   0.668 -0.2489 -0.0850 -0.4626
  592MOL0     C81588  10.832   5.970   0.722  0.6673  0.6052  0.4652
  592MOL0     O81589  10.942   5.969   0.635  0.1431 -0.4049  0.1340
  592MOL0     C81590  11.064   5.919   0.678 -0.1599 -0.7476  0.5785
  592MOL0     C81591  11.127   5.957   0.793 -0.4771 -0.5030  0.2887
  592MOL0     C81592  11.265   5.931   0.823  0.1482  0.0782 -0.9526
  592MOL0     C81593  11.340   5.846   0.736  0.4125 -0.3439  0.0143
  592MOL0     O81594  11.469   5.800   0.767 -0.0896 -0.1789  0.3403
  592MOL0     C81595  11.555   5.890   0.841  0.5081  0.1764  0.0191
  592MOL0     C81596  11.706   5.870   0.823 -0.5814 -0.7655  0.2633
  592MOL0     C81597  11.763   5.947   0.699  0.3018  0.1673 -0.0776
  592MOL0     C81598  11.915   5.931   0.685  0.4337 -0.7218 -0.5233
  592MOL0     C81599  11.974   6.005   0.556 -0.7374 -0.3258  0.0838
  592MOL0     C81600  11.909   6.137   0.515 -0.3635  0.5413  0.3308
  592MOL0     C81601  11.949   6.249   0.606 -0.4596 -0.2478  0.0669
  592MOL0     C81602  11.892   6.388   0.578 -0.1293  0.4209 -0.3810
  592MOL0    Cl81603  11.724   6.391   0.539  0.1445  0.0874  0.2503
  592MOL0     C81604  11.266   5.799   0.625  0.2279  0.6277 -0.4075
  592MOL0     C81605  11.136   5.830   0.595  0.6538 -0.4192 -0.7453
  592MOL0     O81606  10.822   5.899   0.824  0.0783  0.3092  0.0065
  592MOL0     C81607  10.725   6.074   0.530  0.2096 -0.0115 -0.3502
  592MOL0     C81608  10.621   6.154   0.475  0.5304 -0.2609  0.0020
  592MOL0     N81609   9.874   6.505   0.619  0.3684 -1.0050 -0.1709
  592MOL0     N81610   9.765   6.445   0.658 -0.2134 -0.2999 -0.3765
  592MOL0     C81611   8.645   6.173   0.307  0.6769  0.1992  0.1121
  592MOL0     C81612   8.506   6.184   0.272  0.5878  0.0347  0.0106
  592MOL0     C81613   8.110   6.251   0.176  0.6883 -0.6606  0.2689
  592MOL0     C81614   8.131   6.353   0.086 -0.6762 -0.3549 -0.5378
  592MOL0     C81615   8.028   6.408   0.004  0.8032  0.4726 -0.0569
  592MOL0     C81616   7.895   6.363   0.022 -0.1311  0.5718  0.2149
  592MOL0     O81617   7.795   6.415  -0.073  0.3819  0.4312  0.1382
  592MOL0     C81618   7.671   6.340  -0.080  0.6605  0.0779  0.9651
  592MOL0     C81619   7.582   6.419  -0.181  1.0019  0.6751 -0.0008
  592MOL0     C81620   7.451   6.342  -0.207  0.4854  0.2926 -0.4318
  592MOL0     C81621   7.343   6.400  -0.107  0.2158 -0.0821  0.7076
  592MOL0     C81622   7.358   6.366   0.036 -0.4551  0.0010  0.4666
  592MOL0     C81623   7.369   6.360   0.154 -0.5834 -0.5627 -0.3410
  592MOL0     C81624   7.875   6.253   0.107 -0.5195 -0.6355 -0.7235
  592MOL0     C81625   7.978   6.202   0.188 -0.2800  0.5018 -0.4053
  592MOL0     C81626   7.944   6.101   0.291  0.4100  0.6469 -0.4591
  592MOL0     H81627   8.441   6.422   0.485 -0.9059 -0.7883  0.5582
  592MOL0     H81628   8.661   6.361   0.583  0.1696  0.8358 -0.3104
  592MOL0     H81629   8.938   6.168   0.283  1.2699  0.5203 -0.5133
  592MOL0     H81630   8.870   6.040   0.367 -1.2310  1.4346 -0.6171
  592MOL0     H81631   9.066   6.227   0.492 -3.2725  0.1378  3.6916
  592MOL0     H81632   9.027   6.072   0.556 -0.2270  1.8941  0.5953
  592MOL0     H81633   9.136   5.943   0.412  3.6429 -0.4033  0.0220
  592MOL0     H81634   9.171   6.080   0.299  4.1858  1.4729  0.9287
  592MOL0     H81635   9.259   6.058   0.595 -1.9513  1.6058  0.3786
  592MOL0     H81636   9.354   5.992   0.460 -1.4403 -0.8663 -0.3863
  592MOL0     H81637   9.261   6.275   0.485  1.1115  1.4271 -0.8203
  592MOL0     H81638   9.370   6.215   0.368 -0.0040  0.7975  0.0319
  592MOL0     H81639   9.482   6.343   0.577  3.4875 -1.9581 -1.5131
  592MOL0     H81640   9.412   6.222   0.682 -0.9475 -0.0962 -0.5702
  592MOL0     H81641   9.607   6.150   0.462  0.6083 -0.5122  1.0047
  592MOL0     H81642   9.532   6.060   0.596 -0.2996  0.8371  2.2958
  592MOL0     H81643   9.659   6.228   0.748  2.4330  4.4823 -0.5685
  592MOL0     H81644   9.769   6.122   0.657 -0.3768  0.0142 -0.5515
  592MOL0     H81645   9.894   6.224   0.447 -0.1790 -0.7801 -0.1788
  592MOL0     H81646  10.062   6.583   0.439  0.5876  0.8249 -2.5534
  592MOL0     H81647  10.051   6.439   0.332  0.7376 -2.4749 -0.1721
  592MOL0     H81648  10.177   6.446   0.611  2.4197  0.3646  1.0969
  592MOL0     H81649  10.169   6.302   0.500  2.7473  0.2083 -0.8899
  592MOL0     H81650  10.302   6.419   0.339  1.1889  0.0636 -1.4515
  592MOL0     H81651  10.304   6.566   0.438 -0.0837 -0.9185 -1.4959
  592MOL0     H81652  10.509   6.432   0.472  0.1527  0.0933 -0.9384
  592MOL0     H81653  10.414   6.431   0.622 -0.7054  0.2789 -0.5587
  592MOL0     H81654  10.416   6.189   0.736 -1.0354 -1.3513 -0.0433
  592MOL0     H81655  10.672   6.103   0.948  0.1714 -1.7086  0.9617
  592MOL0     H81656  10.581   5.959   0.902  0.0692  0.7591  1.4639
  592MOL0     H81657  10.495   6.114   0.921  1.1159  3.1142 -0.7621
  592MOL0     H81658  11.075   6.028   0.857 -0.2495 -0.3799  0.3371
  592MOL0     H81659  11.305   5.966   0.917  0.0490  0.5066 -1.0671
  592MOL0     H81660  11.525   5.993   0.818 -0.3347 -0.1931 -0.5722
  592MOL0     H81661  11.536   5.869   0.947 -0.5119 -3.4086 -0.7562
  592MOL0     H81662  11.752   5.908   0.915 -0.4819  2.7217 -1.0739
  592MOL0     H81663  11.716   5.762   0.809  0.5528 -0.7661  0.9444
  592MOL0     H81664  11.731   6.047   0.728 -3.4087 -0.2895 -1.9239
  592MOL0     H81665  11.704   5.906   0.616 -3.1026  0.1879  2.1499
  592MOL0     H81666  11.941   5.825   0.677  3.0892 -0.0295 -2.5454
  592MOL0     H81667  11.964   5.971   0.774 -0.6744 -1.8929  0.6613
  592MOL0     H81668  12.082   6.014   0.568 -0.8414  0.5453  0.3941
  592MOL0     H81669  11.964   5.935   0.472  2.1979 -0.1328 -0.5134
  592MOL0     H81670  11.801   6.125   0.506 -0.7754  1.3376  3.2213
  592MOL0     H81671  11.945   6.163   0.415  0.6125  1.4370  0.8880
  592MOL0     H81672  12.058   6.255   0.619 -0.6406 -0.7084  2.2692
  592MOL0     H81673  11.906   6.219   0.702 -2.9872 -2.8936 -1.7424
  592MOL0     H81674  11.953   6.439   0.502  2.1580  3.2700  3.0265
  592MOL0     H81675  11.890   6.449   0.669  5.2262 -1.3329  1.3415
  592MOL0     H81676  11.323   5.734   0.559 -1.1878  0.0747 -1.1201
  592MOL0     H81677  11.094   5.793   0.501  5.0339 -0.5068 -2.9312
  592MOL0     H81678  10.805   6.033   0.469  0.3162  1.5103 -1.2847
  592MOL0     H81679  10.618   6.190   0.373  1.7355 -2.6992 -0.9659
  592MOL0     H81680   8.703   6.123   0.229 -1.9448 -0.8769 -1.2812
  592MOL0     H81681   8.472   6.152   0.174  1.0096 -0.4966  0.0351
  592MOL0     H81682   8.226   6.404   0.080 -2.0744  2.3611 -1.4220
  592MOL0     H81683   8.040   6.492  -0.065 -0.1070  2.4293  2.0244
  592MOL0     H81684   7.690   6.234  -0.097 -1.3139 -0.5731  2.4380
  592MOL0     H81685   7.617   6.339   0.015 -3.0880 -0.4142 -1.0048
  592MOL0     H81686   7.630   6.421  -0.279 -2.1538  1.1363 -1.6716
  592MOL0     H81687   7.562   6.520  -0.144  1.2956  0.5303  0.5591
  592MOL0     H81688   7.417   6.365  -0.308 -0.5036 -1.1016 -0.4492
  592MOL0     H81689   7.467   6.234  -0.204 -0.2644  0.1827  2.1817
  592MOL0     H81690   7.244   6.370  -0.143  0.1914  0.9912 -0.1678
  592MOL0     H81691   7.355   6.508  -0.101  0.4390 -0.0703  0.1039
  592MOL0     H81692   7.402   6.364   0.256 -2.4693  1.7475  0.2706
  592MOL0     H81693   7.779   6.207   0.127 -0.0006 -1.3807  0.1610
  592MOL0     H81694   7.837   6.082   0.298  0.2690 -1.1092 -4.5863
  592MOL0     H81695   7.998   6.006   0.285 -1.6103 -0.7234  1.5834
  592MOL0     H81696   7.978   6.138   0.388  1.4466 -0.2458 -0.4564
  593MOL0     O81697   8.669   6.563  10.846 -0.1647  0.1429 -0.1003
  593MOL0     C81698   8.643   6.540  10.967 -0.1017  1.2203  0.7367
  593MOL0     O81699   8.738   6.526  11.068  0.5308  0.3879 -0.5156
  593MOL0     C81700   8.867   6.527  11.029  0.2652 -0.2901 -0.3666
  593MOL0     C81701   8.924   6.641  10.980 -0.2293 -0.0199 -0.2335
  593MOL0     C81702   9.060   6.644  10.958  0.1882  0.2070 -0.1365
  593MOL0     C81703   9.145   6.538  10.987  0.2689 -0.6279 -0.1539
  593MOL0     O81704   9.280   6.555  10.965  0.4340 -0.4704  0.7418
  593MOL0     C81705   9.368   6.450  10.977 -0.2850 -0.4287  0.3722
  593MOL0     C81706   9.500   6.492  10.912  0.6688  0.0039 -0.7029
  593MOL0     C81707   9.610   6.378  10.924 -0.8781 -0.3043  0.0024
  593MOL0     C81708   9.743   6.436  10.884  0.8167  0.0410 -1.2455
  593MOL0     C81709   9.861   6.339  10.922 -0.5771  0.7434  0.1370
  593MOL0     C81710  10.004   6.394  10.877 -0.6232  0.1907 -0.5592
  593MOL0     C81711  10.108   6.280  10.871  0.8879  0.2597 -0.1240
  593MOL0     C81712  10.178   6.269  11.010 -0.4612  0.1815 -0.4933
  593MOL0     N81713  10.299   6.175  11.011 -0.7174 -0.9563  0.4192
  593MOL0     C81714  10.427   6.210  10.994 -0.1769 -0.1970  0.6743
  593MOL0     C81715  10.498   6.089  10.982  0.4015  0.3055 -1.0470
  593MOL0     C81716  10.649   6.079  10.974 -0.0267  1.0817 -0.2060
  593MOL0     C81717  10.715   6.046  11.119 -0.3559 -0.1892 -1.1360
  593MOL0     C81718  10.732   6.173  11.203 -0.3852  0.0081 -0.2560
  593MOL0     C81719  10.826   6.275  11.141 -0.2942 -0.8415 -0.4535
  593MOL0     O81720  10.962   6.238  11.165  0.0588  0.5298  0.5095
  593MOL0     C81721  11.059   6.310  11.101  0.2426 -0.4996 -0.7250
  593MOL0     C81722  11.073   6.300  10.961  0.4206  0.1405 -0.1150
  593MOL0     C81723  11.145   6.379  10.878 -0.4655 -0.0882 -0.5681
  593MOL0     C81724  11.145   6.352  10.733  0.3267  0.4214  0.0414
  593MOL0     C81725  11.227   6.477  10.944  0.2821  0.4142  0.2712
  593MOL0     C81726  11.330   6.555  10.876 -0.4111  0.5821  0.3868
  593MOL0     O81727  11.463   6.501  10.894  1.3189  0.5298  0.2671
  593MOL0     C81728  11.568   6.581  10.848 -0.1382  0.3064  0.5827
  593MOL0     C81729  11.684   6.610  10.924 -0.6841 -0.0209  0.2873
  593MOL0     C81730  11.793   6.678  10.879  1.1708  0.4429  0.2348
  593MOL0     C81731  11.794   6.719  10.739  1.1944  0.0990 -0.2615
  593MOL0     O81732  11.901   6.784  10.690  0.2846  0.1150  0.9784
  593MOL0     C81733  11.985   6.708  10.591  0.2797  0.0603 -0.0857
  593MOL0     C81734  12.060   6.600  10.669 -0.2686  0.9264 -0.8668
  593MOL0     C81735  12.197   6.566  10.611  0.1606 -0.3013 -0.6486
  593MOL0     C81736  12.299   6.670  10.669  0.1135 -0.5640 -0.1653
  593MOL0     C81737  12.430   6.653  10.596 -0.3811 -0.2361  0.4835
  593MOL0     C81738  12.554   6.716  10.676  0.5788 -0.2359 -0.9821
  593MOL0     C81739  12.692   6.670  10.642  0.8150 -0.4096 -0.1630
  593MOL0     C81740  12.793   6.689  10.755 -0.1368 -0.1788 -0.1006
  593MOL0    Cl81741  12.954   6.644  10.678  0.2571  0.3924  0.0511
  593MOL0     C81742  11.685   6.691  10.664  1.4079 -0.4864 -0.0450
  593MOL0     C81743  11.581   6.618  10.715 -0.3017 -0.7942  0.4924
  593MOL0     O81744  11.296   6.642  10.800 -0.4759  0.2576 -0.1711
  593MOL0     C81745  11.207   6.499  11.088 -0.4652 -0.6806 -0.0990
  593MOL0     C81746  11.121   6.415  11.160  0.7559  0.0189 -0.4337
  593MOL0     N81747  10.405   5.985  11.001  0.3499 -0.1971  0.0682
  593MOL0     N81748  10.287   6.039  11.002  0.0311 -0.1766  1.1199
  593MOL0     C81749   9.083   6.415  11.032  0.7377 -0.4181  0.4064
  593MOL0     C81750   8.947   6.412  11.042 -0.4282 -0.8149 -0.1822
  593MOL0     C81751   8.499   6.526  11.004 -0.1437 -0.4652 -0.4364
  593MOL0     C81752   8.395   6.567  10.916 -0.7088  0.3450  0.3147
  593MOL0     C81753   8.260   6.550  10.935 -0.1409  0.0921 -0.3104
  593MOL0     C81754   8.224   6.489  11.053 -0.2194  0.1576  0.0289
  593MOL0     O81755   8.097   6.467  11.074 -0.0331  0.6037 -1.3361
  593MOL0     C81756   8.072   6.317  11.063 -0.0720  0.1918  0.2938
  593MOL0     C81757   7.937   6.291  11.001  0.3757  0.4685  0.2105
  593MOL0     C81758   7.882   6.148  11.044 -0.7003  0.0918  0.6959
  593MOL0     C81759   7.740   6.117  10.993  0.2097 -1.0842  0.0117
  593MOL0     C81760   7.682   5.996  11.053 -0.8346  0.0718 -0.1675
  593MOL0     C81761   7.643   5.892  11.107  0.1223  0.3297 -0.5095
  593MOL0     C81762   8.321   6.459  11.149 -0.7144  0.1863 -0.0188
  593MOL0     C81763   8.453   6.467  11.123 -0.9594  0.3669  0.2596
  593MOL0     C81764   8.545   6.401  11.220 -0.3226 -0.4521 -0.0620
  593MOL0     H81765   8.858   6.724  10.955  2.6418  2.0622 -1.4095
  593MOL0     H81766   9.112   6.733  10.923  0.2934  0.8099  1.4695
  593MOL0     H81767   9.329   6.362  10.925  0.4347  0.4446 -1.7489
  593MOL0     H81768   9.384   6.418  11.080  1.9470  0.0632  0.2217
  593MOL0     H81769   9.489   6.514  10.805 -2.5376 -1.4396 -0.7885
  593MOL0     H81770   9.527   6.589  10.956  1.0424 -1.2732  2.0633
  593MOL0     H81771   9.627   6.337  11.024  2.8389 -0.5445 -0.5578
  593MOL0     H81772   9.600   6.292  10.857  2.0230  0.4079 -1.5384
  593MOL0     H81773   9.730   6.440  10.775 -1.9730 -2.5661 -1.1463
  593MOL0     H81774   9.762   6.527  10.941  0.9143  0.1620 -1.4701
  593MOL0     H81775   9.853   6.241  10.874  4.3574 -0.4807  1.3080
  593MOL0     H81776   9.859   6.322  11.031 -2.1825 -1.7120 -0.1821
  593MOL0     H81777   9.996   6.417  10.770  4.1460 -0.6731 -1.3380
  593MOL0     H81778  10.038   6.483  10.930 -0.7920  1.0167 -1.7915
  593MOL0     H81779  10.186   6.303  10.798  0.1000  0.4694 -0.9295
  593MOL0     H81780  10.064   6.182  10.847 -0.9725  0.6137  1.5735
  593MOL0     H81781  10.216   6.365  11.046  0.3965  1.1490 -3.7228
  593MOL0     H81782  10.102   6.223  11.075 -0.1011 -1.8439 -1.4134
  593MOL0     H81783  10.463   6.313  10.995 -1.5850  0.3897 -1.5363
  593MOL0     H81784  10.688   6.170  10.928 -0.4169  0.9903 -0.7289
  593MOL0     H81785  10.670   5.998  10.903  1.5542  2.5486 -1.4911
  593MOL0     H81786  10.651   5.967  11.158 -1.3799 -0.7558 -3.7378
  593MOL0     H81787  10.816   6.007  11.107  0.3040  1.1817 -0.3745
  593MOL0     H81788  10.634   6.218  11.218 -0.5491  0.1991 -1.7335
  593MOL0     H81789  10.771   6.149  11.302  1.1072 -0.5279 -0.9297
  593MOL0     H81790  10.809   6.296  11.035  0.4244  1.9942 -0.1068
  593MOL0     H81791  10.803   6.375  11.180  0.8882 -1.0342  0.7972
  593MOL0     H81792  11.003   6.221  10.937 -2.7930  2.8208 -0.1995
  593MOL0     H81793  11.222   6.278  10.712  2.2279  1.9895  1.1935
  593MOL0     H81794  11.166   6.447  10.683 -2.1090  0.9558 -0.1145
  593MOL0     H81795  11.047   6.326  10.691  0.8645 -1.7781  0.0600
  593MOL0     H81796  11.668   6.595  11.030 -2.3893 -2.9675 -0.2593
  593MOL0     H81797  11.875   6.703  10.944  0.0149 -0.7292  2.2377
  593MOL0     H81798  11.929   6.668  10.506  1.3505  1.5234 -1.5381
  593MOL0     H81799  12.060   6.774  10.548 -0.1970  0.0658 -0.9257
  593MOL0     H81800  12.074   6.651  10.765 -0.5963  0.0037 -0.3217
  593MOL0     H81801  12.001   6.508  10.664  0.4354  0.5290 -2.4292
  593MOL0     H81802  12.189   6.583  10.503  0.1190  1.1717 -0.4396
  593MOL0     H81803  12.226   6.462  10.629 -2.1416 -0.8756  0.1551
  593MOL0     H81804  12.320   6.662  10.776 -0.1746  2.3040  0.1665
  593MOL0     H81805  12.257   6.770  10.659 -1.5466 -1.0224  1.6296
  593MOL0     H81806  12.444   6.544  10.600 -1.2336 -0.4111 -0.7286
  593MOL0     H81807  12.426   6.672  10.488 -0.8325 -1.6017  0.2447
  593MOL0     H81808  12.543   6.694  10.783  2.3803  0.2459 -0.6747
  593MOL0     H81809  12.541   6.824  10.673  0.1036 -0.2516 -0.0374
  593MOL0     H81810  12.718   6.726  10.552 -1.0200  1.4211  0.3616
  593MOL0     H81811  12.696   6.563  10.619  0.6269 -0.1713 -1.3967
  593MOL0     H81812  12.778   6.625  10.842  0.8977  1.7892  1.6216
  593MOL0     H81813  12.787   6.790  10.797 -0.2096 -0.5493  0.8122
  593MOL0     H81814  11.682   6.718  10.559 -1.3923  2.3886  0.6065
  593MOL0     H81815  11.496   6.603  10.650  0.0513  0.7100 -0.3417
  593MOL0     H81816  11.259   6.576  11.143 -1.9875  0.9892 -0.8750
  593MOL0     H81817  11.111   6.431  11.267 -0.8514 -1.3740 -0.3349
  593MOL0     H81818   9.146   6.329  11.049 -1.0837 -1.7944  0.4423
  593MOL0     H81819   8.904   6.316  11.069  1.3594 -2.0368 -1.5011
  593MOL0     H81820   8.423   6.611  10.821 -1.5860  0.9502  0.3247
  593MOL0     H81821   8.189   6.591  10.865 -0.0951 -0.0248 -0.4249
  593MOL0     H81822   8.150   6.274  11.000  0.3965 -1.0248  1.6604
  593MOL0     H81823   8.083   6.265  11.159 -2.1961 -1.1493 -0.1342
  593MOL0     H81824   7.953   6.290  10.893 -0.9376  1.1677 -0.0014
  593MOL0     H81825   7.865   6.369  11.028 -1.6052 -1.0877 -0.3694
  593MOL0     H81826   7.951   6.069  11.015  0.2269  1.5468 -1.3728
  593MOL0     H81827   7.882   6.142  11.153 -0.0071  0.8996  0.7511
  593MOL0     H81828   7.742   6.104  10.885 -1.7694  0.8700 -0.3326
  593MOL0     H81829   7.677   6.203  11.019  3.3817  2.0567 -1.7998
  593MOL0     H81830   7.615   5.805  11.163 -5.3868  3.0918  1.8268
  593MOL0     H81831   8.279   6.449  11.248  0.2994 -3.8886  0.2100
  593MOL0     H81832   8.486   6.332  11.281  0.9061 -1.1202  0.4085
  593MOL0     H81833   8.615   6.333  11.171 -2.4048 -2.5439 -0.2919
  593MOL0     H81834   8.603   6.470  11.282 -0.7132  1.9906 -2.2339
  594MOL0     O81835   6.136   1.552   0.476  0.1603 -0.0679 -0.1900
  594MOL0     C81836   6.041   1.633   0.463 -0.0620 -0.4704 -0.7447
  594MOL0     O81837   6.049   1.765   0.506  0.3906  0.5945 -0.0593
  594MOL0     C81838   6.141   1.801   0.601 -0.1297 -0.1670 -0.3601
  594MOL0     C81839   6.279   1.767   0.594 -0.0576  0.3601  0.9430
  594MOL0     C81840   6.366   1.821   0.683 -0.7503  0.3655  0.1565
  594MOL0     C81841   6.321   1.887   0.795  0.9069 -0.3373  0.7489
  594MOL0     O81842   6.423   1.910   0.881  0.4057 -0.3614  0.0089
  594MOL0     C81843   6.398   1.982   1.003 -0.1741 -1.1238  0.4165
  594MOL0     C81844   6.517   2.066   1.046 -0.1332 -0.8906  0.4259
  594MOL0     C81845   6.640   1.976   1.059 -0.8885  0.2265 -1.0757
  594MOL0     C81846   6.752   2.068   1.090  0.4178  0.7074 -0.5837
  594MOL0     C81847   6.872   1.990   1.136 -0.7336 -0.1425 -0.9925
  594MOL0     C81848   6.879   1.982   1.291  0.2940  0.1134 -0.5466
  594MOL0     C81849   6.914   2.119   1.353 -0.8765  0.5337  0.3088
  594MOL0     C81850   7.062   2.127   1.422 -0.1951  0.1302  0.0995
  594MOL0     N81851   7.159   2.099   1.317  0.4255 -0.5732 -0.2264
  594MOL0     C81852   7.175   2.179   1.201  0.1819  0.1780  0.0567
  594MOL0     C81853   7.250   2.095   1.122  0.2193 -0.3880  0.6841
  594MOL0     C81854   7.296   2.136   0.989  0.6002  0.0923  0.1832
  594MOL0     C81855   7.430   2.214   0.995  0.8108  0.5262  0.3068
  594MOL0     C81856   7.542   2.104   1.003  0.6648 -0.1374 -0.5969
  594MOL0     C81857   7.682   2.164   1.006  0.3882 -0.3591  1.3193
  594MOL0     O81858   7.696   2.254   1.123 -0.3536 -0.2822  0.3504
  594MOL0     C81859   7.823   2.300   1.141  0.4262 -0.7791 -0.1358
  594MOL0     C81860   7.929   2.280   1.047  0.7109  0.5895 -0.2531
  594MOL0     C81861   8.052   2.342   1.076  0.1351 -0.4841  0.1224
  594MOL0     C81862   8.153   2.352   0.968  0.4362 -0.2139  0.5153
  594MOL0     C81863   8.074   2.408   1.205 -0.8240 -0.2259 -0.2799
  594MOL0     C81864   8.202   2.483   1.243  0.3196  0.1855 -0.4518
  594MOL0     O81865   8.213   2.512   1.372 -0.2039  0.6047 -0.0380
  594MOL0     C81866   8.290   2.610   1.420  0.0052  0.3076  0.0364
  594MOL0     C81867   8.369   2.583   1.530 -0.6563  0.2811 -0.0393
  594MOL0     C81868   8.462   2.666   1.586 -0.2165  0.2462 -0.2765
  594MOL0     C81869   8.460   2.799   1.541 -0.5310  0.5380 -0.8450
  594MOL0     O81870   8.533   2.906   1.598  0.4876 -0.2467  0.7825
  594MOL0     C81871   8.635   2.876   1.701 -0.1236  0.0279 -0.2297
  594MOL0     C81872   8.718   2.998   1.714  0.2575  0.0837 -0.1157
  594MOL0     C81873   8.852   2.969   1.760 -0.6938  0.0613  0.6741
  594MOL0     C81874   8.920   3.102   1.770  0.3822 -0.8248 -0.6017
  594MOL0     C81875   9.073   3.095   1.773 -0.4607  0.7661  0.3755
  594MOL0     C81876   9.143   3.224   1.794 -0.3008 -0.5639 -0.5904
  594MOL0     C81877   9.102   3.309   1.914 -0.0389 -0.4143  0.0004
  594MOL0     C81878   9.169   3.440   1.927  0.1432 -0.3617 -0.3496
  594MOL0    Cl81879   9.113   3.558   1.805 -0.4228  0.4009  0.1900
  594MOL0     C81880   8.374   2.835   1.440  0.1510 -0.4116 -0.7655
  594MOL0     C81881   8.292   2.739   1.366  0.4551 -0.4576  0.9547
  594MOL0     O81882   8.292   2.501   1.161 -0.2434 -0.1228 -0.5380
  594MOL0     C81883   7.976   2.405   1.299 -0.3185  0.2456 -0.9178
  594MOL0     C81884   7.847   2.357   1.268  0.7126  0.6151  0.1629
  594MOL0     N81885   7.280   1.983   1.187 -0.1293  0.2709  0.6947
  594MOL0     N81886   7.230   1.987   1.302  0.5169  0.2579 -0.5409
  594MOL0     C81887   6.187   1.925   0.807  0.1903 -0.5186  0.9310
  594MOL0     C81888   6.098   1.879   0.708 -0.5403  0.0527  0.1296
  594MOL0     C81889   5.912   1.572   0.419  0.1325 -0.6989  0.4124
  594MOL0     C81890   5.878   1.443   0.457 -0.0682  0.3644  0.0367
  594MOL0     C81891   5.760   1.387   0.421  0.8446  0.0962  0.7977
  594MOL0     C81892   5.679   1.443   0.323  0.7298  0.1530 -0.8626
  594MOL0     O81893   5.563   1.381   0.284 -0.1267  0.5185  0.1572
  594MOL0     C81894   5.522   1.395   0.148 -0.1937  0.1642 -0.9910
  594MOL0     C81895   5.436   1.273   0.109 -0.1871 -0.5276 -0.3695
  594MOL0     C81896   5.313   1.256   0.205 -0.2717  0.0407  0.3624
  594MOL0     C81897   5.220   1.149   0.142  0.3775  0.0163 -0.1179
  594MOL0     C81898   5.173   1.164   0.005 -0.5473  0.3321 -0.3471
  594MOL0     C81899   5.126   1.162  -0.107  0.6702  0.6526 -0.2078
  594MOL0     C81900   5.715   1.571   0.276  0.3121  0.2446 -0.4920
  594MOL0     C81901   5.829   1.641   0.321  0.3962  0.2139  0.4163
  594MOL0     C81902   5.856   1.774   0.252  0.5048 -0.1241  0.1890
  594MOL0     H81903   6.307   1.712   0.505 -0.5655 -1.9208  2.1400
  594MOL0     H81904   6.474   1.816   0.678 -0.7762 -0.5582  0.3110
  594MOL0     H81905   6.372   1.915   1.086  1.6184 -2.0331  0.3006
  594MOL0     H81906   6.311   2.047   0.994  0.5617 -0.2566 -0.6608
  594MOL0     H81907   6.529   2.150   0.977  2.3962 -1.9657 -0.5800
  594MOL0     H81908   6.500   2.105   1.146 -2.8532 -2.2081  0.5904
  594MOL0     H81909   6.631   1.891   1.127 -0.4021  1.1731  0.2106
  594MOL0     H81910   6.664   1.937   0.959  0.2752 -0.7533 -0.4405
  594MOL0     H81911   6.779   2.119   0.997  3.6843 -1.4759 -1.0180
  594MOL0     H81912   6.737   2.153   1.157 -0.9014  0.8315 -1.0000
  594MOL0     H81913   6.961   2.042   1.098  0.3864 -1.4744 -0.2785
  594MOL0     H81914   6.876   1.891   1.089  1.5393 -1.0557  0.9081
  594MOL0     H81915   6.781   1.951   1.327 -0.0386  1.9163  0.2541
  594MOL0     H81916   6.948   1.905   1.326  0.7828 -0.7597 -3.2425
  594MOL0     H81917   6.833   2.143   1.423 -3.4851  1.2372 -2.7356
  594MOL0     H81918   6.907   2.201   1.281  1.2072  1.4600  1.0708
  594MOL0     H81919   7.078   2.226   1.466 -0.8164  0.3725 -0.2168
  594MOL0     H81920   7.062   2.060   1.508 -3.5551  2.7600  2.4421
  594MOL0     H81921   7.138   2.275   1.168  1.8598  1.1278  0.8086
  594MOL0     H81922   7.216   2.204   0.959  0.1791  0.1459  1.3788
  594MOL0     H81923   7.296   2.049   0.923  0.4255  1.1055 -1.2083
  594MOL0     H81924   7.433   2.273   0.903 -0.5189  1.9282  1.1271
  594MOL0     H81925   7.428   2.276   1.085 -1.8062 -0.8839  1.3435
  594MOL0     H81926   7.530   2.063   1.104  0.2718  1.4006  0.0242
  594MOL0     H81927   7.542   2.031   0.922  0.1685  0.5467 -1.2264
  594MOL0     H81928   7.751   2.079   1.006 -1.9531 -2.5347 -2.1439
  594MOL0     H81929   7.705   2.220   0.915 -1.4907 -1.3638  0.1322
  594MOL0     H81930   7.927   2.232   0.950  0.2315  1.4389 -0.6710
  594MOL0     H81931   8.249   2.320   1.010  2.3438  2.2041 -1.6207
  594MOL0     H81932   8.153   2.455   0.929 -0.3042 -1.7116 -3.9813
  594MOL0     H81933   8.118   2.291   0.885 -1.5055 -0.6404  1.5849
  594MOL0     H81934   8.366   2.483   1.573  1.5956 -0.2540 -1.0042
  594MOL0     H81935   8.515   2.620   1.669 -2.0802  0.6916  1.2378
  594MOL0     H81936   8.596   2.848   1.799  0.8490  1.1145  0.4928
  594MOL0     H81937   8.695   2.789   1.672  0.7288  0.4851  0.1491
  594MOL0     H81938   8.726   3.051   1.619  0.0425  2.1692  0.9791
  594MOL0     H81939   8.671   3.065   1.787  2.7470  0.6593  1.0685
  594MOL0     H81940   8.902   2.913   1.680  0.7183  0.1404  1.4809
  594MOL0     H81941   8.859   2.915   1.855  3.1662 -0.4618  0.2566
  594MOL0     H81942   8.880   3.143   1.863  1.0756  1.4865 -1.2430
  594MOL0     H81943   8.893   3.170   1.689 -0.5978  1.5296  1.5563
  594MOL0     H81944   9.102   3.034   1.860  0.4654 -0.3753 -0.7006
  594MOL0     H81945   9.111   3.039   1.687 -1.1271  0.0785  0.5170
  594MOL0     H81946   9.135   3.287   1.705  0.5930 -0.4056 -0.5689
  594MOL0     H81947   9.247   3.190   1.806  0.1255  1.2659  1.7797
  594MOL0     H81948   9.132   3.257   2.006  1.4743  3.0731  1.6653
  594MOL0     H81949   8.994   3.320   1.931  0.1080 -0.7899  1.2982
  594MOL0     H81950   9.278   3.441   1.931  0.0884  0.0354  2.1638
  594MOL0     H81951   9.149   3.485   2.024 -0.7466  1.3647 -1.2743
  594MOL0     H81952   8.381   2.937   1.404 -2.0977  0.2685  0.4864
  594MOL0     H81953   8.228   2.766   1.283 -0.8930  0.6077  2.2886
  594MOL0     H81954   7.995   2.441   1.400  0.6122 -1.7541 -0.3449
  594MOL0     H81955   7.772   2.361   1.346  0.7157 -1.7898  0.3485
  594MOL0     H81956   6.152   1.976   0.896  0.0325  0.9084  0.0948
  594MOL0     H81957   5.992   1.900   0.718 -0.6070 -0.9329  2.0652
  594MOL0     H81958   5.946   1.387   0.521 -1.0723  0.1385  0.9272
  594MOL0     H81959   5.738   1.288   0.458  1.8096 -0.1716  0.6827
  594MOL0     H81960   5.461   1.483   0.124  0.5478  0.2114 -2.8710
  594MOL0     H81961   5.608   1.402   0.080  1.9273  0.3003  1.5599
  594MOL0     H81962   5.497   1.183   0.114  4.1373  2.1970  2.3619
  594MOL0     H81963   5.411   1.277   0.003  1.5834  0.9173 -0.7796
  594MOL0     H81964   5.340   1.232   0.308 -1.1562 -2.1776  0.1341
  594MOL0     H81965   5.259   1.351   0.208  1.1676  0.9247 -0.5745
  594MOL0     H81966   5.126   1.152   0.197 -0.7945  0.9993 -2.0665
  594MOL0     H81967   5.260   1.052   0.175 -0.9646 -0.1169  1.1955
  594MOL0     H81968   5.099   1.186  -0.208 -1.4462 -1.9802 -0.3994
  594MOL0     H81969   5.652   1.621   0.204 -0.8565 -1.4547 -0.7241
  594MOL0     H81970   5.801   1.859   0.293  0.6656  0.7446 -1.3445
  594MOL0     H81971   5.962   1.799   0.244 -0.2710  3.5392 -0.2194
  594MOL0     H81972   5.830   1.765   0.146  3.7642  1.9817 -0.9207
  595MOL0     O81973   8.027   1.973  10.558 -0.6502  0.4648  0.1961
  595MOL0     C81974   8.116   2.056  10.556  0.7089 -0.1895  0.2879
  595MOL0     O81975   8.189   2.098  10.671  0.2532  0.4208  1.0929
  595MOL0     C81976   8.186   2.012  10.776  0.9037  0.3553  0.9204
  595MOL0     C81977   8.076   1.987  10.854  0.3549 -0.1365 -0.1536
  595MOL0     C81978   8.089   1.907  10.971 -0.5397  0.1142  0.4004
  595MOL0     C81979   8.215   1.867  11.015  0.4500  0.1375  0.3899
  595MOL0     O81980   8.249   1.804  11.136  0.1063 -0.7468 -0.7135
  595MOL0     C81981   8.144   1.781  11.224 -0.0434  0.5085 -0.3637
  595MOL0     C81982   8.066   1.662  11.178 -0.1375  0.7281  0.4657
  595MOL0     C81983   7.991   1.589  11.284 -0.4481  0.4067 -0.1445
  595MOL0     C81984   7.930   1.461  11.241  0.0439 -0.2214 -0.5148
  595MOL0     C81985   7.862   1.385  11.364 -0.0303  0.3615  0.1696
  595MOL0     C81986   7.969   1.336  11.473  0.4382 -1.1302  0.5022
  595MOL0     C81987   7.913   1.244  11.576 -0.6392 -0.3782 -0.2663
  595MOL0     C81988   7.806   1.311  11.669  0.0873  0.0461 -0.5378
  595MOL0     N81989   7.859   1.442  11.724  0.5367 -0.3132 -0.8476
  595MOL0     C81990   7.825   1.574  11.686  0.0770  1.0116 -0.2498
  595MOL0     C81991   7.899   1.665  11.747 -0.4260 -0.2410 -0.6271
  595MOL0     C81992   7.899   1.812  11.738 -0.8695 -0.2973 -0.6509
  595MOL0     C81993   7.969   1.847  11.607 -0.1846  0.2062  0.0698
  595MOL0     C81994   7.984   1.999  11.600 -1.2036 -0.0708 -0.2052
  595MOL0     C81995   8.042   2.071  11.486  0.5349 -0.1806  0.3638
  595MOL0     O81996   8.171   2.016  11.456 -0.5351 -0.5206 -0.3791
  595MOL0     C81997   8.272   2.109  11.425  0.4647  0.8547  0.4555
  595MOL0     C81998   8.255   2.168  11.302  1.0926 -0.6302 -0.2194
  595MOL0     C81999   8.335   2.278  11.266  0.4160  0.4003 -0.5732
  595MOL0     C82000   8.316   2.329  11.123 -0.5610 -1.2659 -0.8214
  595MOL0     C82001   8.435   2.326  11.350  0.2841 -0.2242 -0.4566
  595MOL0     C82002   8.513   2.450  11.330  0.3960 -0.4518 -0.5426
  595MOL0     O82003   8.623   2.471  11.415 -0.2098 -0.3487 -0.4509
  595MOL0     C82004   8.733   2.547  11.403 -0.3162 -0.3802 -0.1097
  595MOL0     C82005   8.760   2.613  11.278  0.1469  0.1514 -1.0017
  595MOL0     C82006   8.876   2.690  11.272 -1.0996 -0.5310  0.5827
  595MOL0     C82007   8.964   2.693  11.378 -0.9481 -1.1185 -0.2323
  595MOL0     O82008   9.059   2.787  11.362 -0.2672 -0.0909 -0.0700
  595MOL0     C82009   9.164   2.796  11.463  0.6733 -0.3783 -0.5064
  595MOL0     C82010   9.246   2.910  11.418 -0.6773  0.1795 -0.5102
  595MOL0     C82011   9.333   2.959  11.536  0.3899 -0.3463 -1.1864
  595MOL0     C82012   9.446   2.864  11.581  0.5100 -0.3917  0.1518
  595MOL0     C82013   9.550   2.845  11.470  0.3519  0.4397 -0.3064
  595MOL0     C82014   9.661   2.750  11.518 -0.0273  0.3591  0.2305
  595MOL0     C82015   9.777   2.741  11.408  0.7665  0.4377 -0.0239
  595MOL0     C82016   9.880   2.629  11.408 -0.3750  0.6094 -0.0783
  595MOL0    Cl82017  10.011   2.660  11.518  0.2023  0.3892 -0.2839
  595MOL0     C82018   8.948   2.615  11.494  0.2403  0.4466 -0.3218
  595MOL0     C82019   8.832   2.544  11.505 -0.0086 -0.1365  0.4827
  595MOL0     O82020   8.479   2.531  11.247 -0.2968 -0.5025  0.3940
  595MOL0     C82021   8.465   2.247  11.466 -0.1942 -0.9152  0.2292
  595MOL0     C82022   8.379   2.143  11.504  0.8656  0.0112  0.2085
  595MOL0     N82023   7.992   1.589  11.816 -0.0170 -0.1054  0.6279
  595MOL0     N82024   7.963   1.460  11.805 -1.0976  0.4511  0.2584
  595MOL0     C82025   8.318   1.889  10.933 -0.1390  0.0594  0.7190
  595MOL0     C82026   8.308   1.954  10.808  0.1308  0.3092 -0.3129
  595MOL0     C82027   8.149   2.118  10.428  0.3507  0.1242  0.0875
  595MOL0     C82028   8.280   2.156  10.409 -1.5667  0.1413  0.0925
  595MOL0     C82029   8.336   2.205  10.291  0.4726 -0.1923 -0.2793
  595MOL0     C82030   8.257   2.234  10.176 -0.2337 -0.4660 -0.1950
  595MOL0     O82031   8.299   2.307  10.066  0.1604  0.5513 -0.2748
  595MOL0     C82032   8.242   2.275   9.937  0.1633 -0.1944 -0.4240
  595MOL0     C82033   8.318   2.360   9.837  0.5438  0.0772 -0.5903
  595MOL0     C82034   8.221   2.358   9.713  0.1506  0.3347 -0.3299
  595MOL0     C82035   8.286   2.411   9.581  0.8501 -0.0635  0.2742
  595MOL0     C82036   8.188   2.445   9.474 -0.6117  0.0221 -0.1182
  595MOL0     C82037   8.105   2.490   9.401  0.4643  0.0301 -0.1005
  595MOL0     C82038   8.120   2.205  10.197 -0.4616 -0.4285  0.2457
  595MOL0     C82039   8.069   2.149  10.315 -0.5684 -0.2702  0.5725
  595MOL0     C82040   7.921   2.104  10.326 -0.9955 -0.6819 -0.1797
  595MOL0     H82041   7.975   2.025  10.839 -1.2681 -2.9688  2.4868
  595MOL0     H82042   8.007   1.886  11.039 -0.5482 -0.1569  0.3081
  595MOL0     H82043   8.072   1.863  11.240 -1.7072 -0.6550 -1.5401
  595MOL0     H82044   8.184   1.761  11.324 -0.1191  0.2350 -0.3862
  595MOL0     H82045   8.003   1.691  11.093 -0.4229 -1.8905 -0.2973
  595MOL0     H82046   8.139   1.589  11.142 -3.8930 -1.2725 -4.1678
  595MOL0     H82047   8.053   1.562  11.370  2.2933 -2.0303 -2.6573
  595MOL0     H82048   7.904   1.639  11.325 -1.3420 -0.3143 -1.1126
  595MOL0     H82049   7.851   1.474  11.166 -2.3015 -4.3591  0.9203
  595MOL0     H82050   8.004   1.394  11.195  1.5825 -0.1294  1.6688
  595MOL0     H82051   7.800   1.299  11.336 -0.3008  0.9771 -1.2376
  595MOL0     H82052   7.801   1.464  11.408  3.9305  3.6309  0.3603
  595MOL0     H82053   8.043   1.277  11.417 -1.9592 -1.0726 -3.0388
  595MOL0     H82054   8.028   1.411  11.525  0.5448 -1.6691  1.1737
  595MOL0     H82055   8.002   1.220  11.636  1.1657  0.8334 -2.3236
  595MOL0     H82056   7.867   1.158  11.525 -1.1034  1.2347 -2.7213
  595MOL0     H82057   7.713   1.325  11.613 -1.1124 -1.2690  1.0407
  595MOL0     H82058   7.786   1.245  11.753 -3.1180 -1.3734 -2.2230
  595MOL0     H82059   7.744   1.597  11.618  0.6260 -0.9302 -1.6324
  595MOL0     H82060   7.955   1.853  11.822 -1.6693 -1.9532  0.7671
  595MOL0     H82061   7.794   1.845  11.741 -0.5263  0.7626  0.4509
  595MOL0     H82062   8.069   1.803  11.603 -0.0943  0.4039  0.1301
  595MOL0     H82063   7.914   1.810  11.521 -2.7431  2.6807  0.4846
  595MOL0     H82064   7.883   2.040  11.614 -1.5595 -0.6050 -1.1468
  595MOL0     H82065   8.038   2.033  11.689  0.9557 -0.9117 -1.1384
  595MOL0     H82066   7.985   2.055  11.394  2.0120  1.7114 -0.9580
  595MOL0     H82067   8.055   2.174  11.520  2.6605  0.1773 -1.3468
  595MOL0     H82068   8.167   2.148  11.242  0.0183  1.7756  0.4612
  595MOL0     H82069   8.414   2.326  11.073 -0.8892  2.1541 -1.9325
  595MOL0     H82070   8.278   2.431  11.140  2.1732 -0.5585  2.0731
  595MOL0     H82071   8.248   2.270  11.062 -1.4939  0.0813 -1.1428
  595MOL0     H82072   8.690   2.629  11.196 -2.1933 -0.0459  0.8459
  595MOL0     H82073   8.887   2.766  11.195  0.1722 -0.9764  0.3017
  595MOL0     H82074   9.129   2.814  11.566  4.2457 -0.2599  0.8301
  595MOL0     H82075   9.223   2.705  11.476  1.8523  0.5112  0.6757
  595MOL0     H82076   9.309   2.880  11.334 -2.1281 -1.0721 -1.1813
  595MOL0     H82077   9.193   2.997  11.378 -1.2490 -0.3270 -0.8725
  595MOL0     H82078   9.265   2.980  11.619  0.2151 -0.3631 -1.3243
  595MOL0     H82079   9.386   3.053  11.521  2.4275 -0.9332  1.4996
  595MOL0     H82080   9.403   2.767  11.605  0.1512 -0.8836 -2.2664
  595MOL0     H82081   9.494   2.914  11.666  0.2339  0.9192 -0.4389
  595MOL0     H82082   9.507   2.812  11.375  0.4272  0.9722 -0.5314
  595MOL0     H82083   9.602   2.941  11.463 -0.3052  0.9252  1.1032
  595MOL0     H82084   9.621   2.650  11.536  2.3274 -0.1954  3.4366
  595MOL0     H82085   9.703   2.788  11.612 -1.5121 -0.7737  1.3994
  595MOL0     H82086   9.842   2.828  11.418  1.0822  0.1933  0.0629
  595MOL0     H82087   9.728   2.743  11.310  1.8101 -0.5694 -0.5957
  595MOL0     H82088   9.910   2.637  11.304 -2.2206 -1.8476 -0.8872
  595MOL0     H82089   9.830   2.534  11.428  3.2728 -0.8634  3.4396
  595MOL0     H82090   9.014   2.622  11.580 -1.1991 -0.0830  0.8695
  595MOL0     H82091   8.800   2.496  11.597 -1.1712 -0.6086 -0.1497
  595MOL0     H82092   8.534   2.295  11.535 -1.9980  1.0598  0.8008
  595MOL0     H82093   8.381   2.105  11.606 -0.5343 -3.3662 -0.8840
  595MOL0     H82094   8.420   1.859  10.950  0.3208  0.7717 -0.6366
  595MOL0     H82095   8.398   1.960  10.747  0.3147 -1.0354 -0.2207
  595MOL0     H82096   8.354   2.134  10.486 -1.2703 -0.9560 -0.4854
  595MOL0     H82097   8.442   2.221  10.275  0.5661 -0.1524  0.3753
  595MOL0     H82098   8.249   2.168   9.918  0.7973 -0.1140 -0.6634
  595MOL0     H82099   8.135   2.299   9.938  0.3450  0.8698  2.3741
  595MOL0     H82100   8.410   2.311   9.804  1.6378 -0.5036  2.9394
  595MOL0     H82101   8.335   2.462   9.873  2.3194  1.1576 -4.0603
  595MOL0     H82102   8.192   2.254   9.695  2.0575 -0.3434  0.3326
  595MOL0     H82103   8.129   2.416   9.731 -1.8418 -2.1317 -1.8462
  595MOL0     H82104   8.357   2.340   9.537  0.0329  1.1979 -3.5467
  595MOL0     H82105   8.341   2.501   9.609 -0.0741  0.2363  1.1940
  595MOL0     H82106   8.020   2.526   9.346 -1.5222  0.3254  2.9441
  595MOL0     H82107   8.049   2.222  10.117  0.1202  0.9302 -0.0149
  595MOL0     H82108   7.877   2.144  10.418  1.8021  3.6483 -0.4354
  595MOL0     H82109   7.861   2.131  10.239 -1.9900 -0.4296  0.5671
  595MOL0     H82110   7.914   1.996  10.342  2.1492 -1.3232 -2.2725
  596MOL0     O82111  10.472   7.825   7.408 -0.4466 -0.0166  0.1506
  596MOL0     C82112  10.380   7.774   7.468 -1.0491 -0.7252 -0.2507
  596MOL0     O82113  10.402   7.702   7.583  0.3733  0.2421 -0.3157
  596MOL0     C82114  10.524   7.708   7.645  0.0509 -0.2488  0.4461
  596MOL0     C82115  10.612   7.602   7.647 -0.7503  0.6730 -0.7701
  596MOL0     C82116  10.742   7.606   7.690  0.2901  0.1394  0.5517
  596MOL0     C82117  10.790   7.727   7.740  0.0548  0.2683 -0.4021
  596MOL0     O82118  10.908   7.756   7.800  0.5132  0.1033 -0.0279
  596MOL0     C82119  11.016   7.659   7.814 -0.5944  0.5959 -0.4811
  596MOL0     C82120  11.123   7.732   7.904 -0.1004 -0.5093 -0.8620
  596MOL0     C82121  11.190   7.834   7.814 -0.2240 -0.0607 -0.1655
  596MOL0     C82122  11.265   7.922   7.909  0.7520  0.5229 -0.5959
  596MOL0     C82123  11.366   8.027   7.858 -0.0849  0.3901  0.0773
  596MOL0     C82124  11.299   8.101   7.749  0.5193  0.4340 -0.1348
  596MOL0     C82125  11.387   8.211   7.694 -0.0551 -0.1241  0.6072
  596MOL0     C82126  11.318   8.294   7.584 -0.5499  0.5096 -0.6524
  596MOL0     N82127  11.282   8.219   7.465 -0.0889  0.2704 -1.2873
  596MOL0     C82128  11.366   8.174   7.365 -0.7351 -0.5097 -0.4565
  596MOL0     C82129  11.283   8.164   7.257 -0.6504  0.0750  0.3702
  596MOL0     C82130  11.317   8.119   7.108  0.2267 -0.5719 -0.6868
  596MOL0     C82131  11.392   8.231   7.026 -1.1707  0.6679  0.0147
  596MOL0     C82132  11.323   8.363   7.020 -0.4593 -0.5878 -0.6652
  596MOL0     C82133  11.208   8.374   6.926 -0.6580 -0.6666  0.1304
  596MOL0     O82134  11.177   8.515   6.916  0.2539  0.8972 -0.1016
  596MOL0     C82135  11.047   8.554   6.966  0.6945  0.7027 -0.9113
  596MOL0     C82136  10.994   8.498   7.077  0.0113  0.7672 -0.4839
  596MOL0     C82137  10.879   8.539   7.141  0.0007 -0.5905  0.1283
  596MOL0     C82138  10.833   8.474   7.266  0.2363  0.7048 -0.2064
  596MOL0     C82139  10.808   8.650   7.080 -0.9975 -0.0844  0.1244
  596MOL0     C82140  10.698   8.714   7.149 -0.7779 -0.2132 -0.2043
  596MOL0     O82141  10.730   8.765   7.271 -0.1844 -0.4837 -0.0147
  596MOL0     C82142  10.614   8.798   7.336  0.0018 -0.5673  0.2089
  596MOL0     C82143  10.555   8.929   7.323  0.0767  0.3532 -0.0571
  596MOL0     C82144  10.446   8.973   7.394 -0.0381 -0.0469  0.0785
  596MOL0     C82145  10.392   8.878   7.485  1.4273  0.0441  0.1419
  596MOL0     O82146  10.301   8.930   7.573  0.6508  0.5865  0.2122
  596MOL0     C82147  10.224   8.846   7.661  0.7384  0.2894 -0.4965
  596MOL0     C82148  10.297   8.815   7.786  0.2490 -0.1562 -1.1813
  596MOL0     C82149  10.212   8.727   7.877 -0.3490 -0.8639 -0.7889
  596MOL0     C82150  10.285   8.703   8.014 -0.2178 -0.3119 -0.4246
  596MOL0     C82151  10.214   8.615   8.108 -0.4634  0.3598 -1.1771
  596MOL0     C82152  10.228   8.640   8.258 -0.3774  1.7087  0.1463
  596MOL0     C82153  10.117   8.598   8.339 -0.6352 -0.0519  0.2718
  596MOL0     C82154  10.083   8.451   8.335 -0.2133  0.4822 -0.0927
  596MOL0    Cl82155  10.230   8.360   8.398  0.4063 -0.4135 -0.0053
  596MOL0     C82156  10.436   8.744   7.485 -0.3603 -0.3458 -0.0459
  596MOL0     C82157  10.542   8.702   7.409  0.1955  0.3609  1.1919
  596MOL0     O82158  10.589   8.732   7.088 -0.0796 -0.3792  0.4378
  596MOL0     C82159  10.859   8.718   6.969 -0.5487 -0.4172 -0.7494
  596MOL0     C82160  10.980   8.673   6.915  0.1813  0.6081  0.4179
  596MOL0     N82161  11.157   8.185   7.306 -0.2207  0.2794  0.7085
  596MOL0     N82162  11.153   8.211   7.430  0.0174 -0.6473  1.0589
  596MOL0     C82163  10.701   7.838   7.739  0.9400  0.1115 -0.9944
  596MOL0     C82164  10.568   7.828   7.698 -0.5003 -0.3222 -0.3304
  596MOL0     C82165  10.240   7.784   7.419  0.2512 -0.0096 -0.5478
  596MOL0     C82166  10.141   7.697   7.460 -0.4627  0.1715  0.0491
  596MOL0     C82167  10.011   7.694   7.406  0.1340  0.2345  0.5315
  596MOL0     C82168   9.976   7.792   7.312 -0.0767  1.5021  0.2871
  596MOL0     O82169   9.848   7.800   7.262 -0.4665 -0.1577 -0.2209
  596MOL0     C82170   9.762   7.682   7.260  0.5565 -0.5094 -0.6705
  596MOL0     C82171   9.638   7.729   7.181 -0.0795 -0.2312 -0.1760
  596MOL0     C82172   9.554   7.831   7.275  0.0642 -0.2036 -0.3405
  596MOL0     C82173   9.411   7.845   7.218  0.5147  0.2618  0.4058
  596MOL0     C82174   9.336   7.712   7.238  0.0462 -0.4221  0.5318
  596MOL0     C82175   9.287   7.597   7.246  0.1133 -0.1489 -0.6465
  596MOL0     C82176  10.065   7.888   7.271 -1.0827  0.1302 -0.8311
  596MOL0     C82177  10.197   7.877   7.316 -1.2676 -0.2717  0.2853
  596MOL0     C82178  10.297   7.982   7.273 -0.8028  0.6776  0.1255
  596MOL0     H82179  10.588   7.517   7.584 -0.7200  1.4702 -1.8920
  596MOL0     H82180  10.806   7.518   7.690 -2.4769 -2.0026  0.3371
  596MOL0     H82181  11.066   7.621   7.724 -0.6174  1.0596 -0.6904
  596MOL0     H82182  10.981   7.571   7.868  2.9499 -0.5961  0.1299
  596MOL0     H82183  11.082   7.793   7.985  1.8802 -1.5045  0.9734
  596MOL0     H82184  11.193   7.660   7.948 -0.8026 -0.8587 -0.2991
  596MOL0     H82185  11.257   7.796   7.736  0.4799  0.1711  0.3137
  596MOL0     H82186  11.125   7.905   7.763 -0.4953  0.1186  0.4218
  596MOL0     H82187  11.182   7.967   7.964  0.9362 -0.9748  1.0231
  596MOL0     H82188  11.324   7.865   7.982  2.1621  1.2444 -1.1285
  596MOL0     H82189  11.456   7.977   7.819 -0.7702  0.3350 -1.4899
  596MOL0     H82190  11.383   8.095   7.942  1.8457 -1.5205  1.3515
  596MOL0     H82191  11.273   8.034   7.666 -1.2752  0.7130  0.1679
  596MOL0     H82192  11.204   8.137   7.791  0.3672 -0.5042  0.3418
  596MOL0     H82193  11.479   8.162   7.660 -0.2481 -0.1758  0.1526
  596MOL0     H82194  11.411   8.283   7.773 -0.3772 -0.7326  1.2640
  596MOL0     H82195  11.226   8.333   7.628  0.5614 -0.4592  2.7907
  596MOL0     H82196  11.394   8.369   7.558  1.3191 -0.5730  1.3765
  596MOL0     H82197  11.474   8.164   7.365 -0.6854 -0.0225 -0.6194
  596MOL0     H82198  11.222   8.086   7.064  0.0859  1.7289 -2.2975
  596MOL0     H82199  11.382   8.031   7.098 -1.1919 -1.6027 -1.2519
  596MOL0     H82200  11.494   8.236   7.066 -0.8341 -2.1778 -0.2728
  596MOL0     H82201  11.399   8.187   6.926 -2.6312  0.9080 -0.2191
  596MOL0     H82202  11.292   8.399   7.118 -0.3471  1.0425 -1.1933
  596MOL0     H82203  11.397   8.438   6.988 -0.0251 -0.5257  0.4418
  596MOL0     H82204  11.230   8.342   6.824  1.2409 -1.6528  0.7902
  596MOL0     H82205  11.122   8.319   6.966 -0.5248  1.6304  4.0257
  596MOL0     H82206  11.053   8.419   7.123  1.4625  0.8860 -2.0353
  596MOL0     H82207  10.809   8.548   7.343 -1.4490 -0.6094  0.6105
  596MOL0     H82208  10.910   8.414   7.317  0.7116  1.1124 -0.4366
  596MOL0     H82209  10.752   8.407   7.235  2.1113 -2.5415  1.3621
  596MOL0     H82210  10.610   9.003   7.265  2.1391  3.7240  5.4034
  596MOL0     H82211  10.429   9.080   7.401  0.1644 -0.1245  3.9365
  596MOL0     H82212  10.140   8.900   7.706  1.3216 -0.6683  1.8540
  596MOL0     H82213  10.194   8.760   7.601  0.9883 -0.5928  0.6221
  596MOL0     H82214  10.389   8.763   7.760 -1.0011 -1.1003 -4.1239
  596MOL0     H82215  10.312   8.905   7.846 -1.7864 -1.0506  0.8248
  596MOL0     H82216  10.190   8.634   7.825 -0.9972 -0.4976 -1.1856
  596MOL0     H82217  10.116   8.774   7.903  0.2681  0.6779 -1.1617
  596MOL0     H82218  10.297   8.800   8.062 -0.5014 -0.7943  0.6720
  596MOL0     H82219  10.384   8.657   8.005  1.0681  1.9740  1.2679
  596MOL0     H82220  10.109   8.628   8.082 -0.7035 -1.5793 -1.3391
  596MOL0     H82221  10.242   8.511   8.090 -0.9468 -0.3095  1.4468
  596MOL0     H82222  10.233   8.749   8.265  0.8834  1.7560 -1.1447
  596MOL0     H82223  10.320   8.597   8.298 -0.8998  0.0645 -0.3383
  596MOL0     H82224  10.026   8.648   8.304  0.6609  1.1252 -1.6021
  596MOL0     H82225  10.134   8.635   8.440  1.0701  1.9325 -0.6782
  596MOL0     H82226  10.057   8.415   8.235  1.1350 -0.7834 -0.0122
  596MOL0     H82227  10.000   8.446   8.406  0.0941 -1.2330  0.1701
  596MOL0     H82228  10.381   8.674   7.547 -1.5905  2.4007  2.2202
  596MOL0     H82229  10.580   8.600   7.410 -1.2280 -0.2007  0.0078
  596MOL0     H82230  10.799   8.800   6.931 -0.9327 -0.1533  0.3830
  596MOL0     H82231  11.017   8.734   6.833  0.5296 -1.7555 -1.2801
  596MOL0     H82232  10.740   7.934   7.770  0.1411 -0.8565  3.6768
  596MOL0     H82233  10.514   7.922   7.700  0.3988  0.2252 -1.0212
  596MOL0     H82234  10.186   7.622   7.524  1.7525  2.5106  1.4105
  596MOL0     H82235   9.937   7.621   7.438 -0.4811 -0.7912 -2.9131
  596MOL0     H82236   9.812   7.604   7.202  0.1611  0.9326 -3.0706
  596MOL0     H82237   9.719   7.644   7.353 -1.2498 -2.8026 -2.3162
  596MOL0     H82238   9.585   7.641   7.144  3.0184 -3.5706  2.6199
  596MOL0     H82239   9.666   7.784   7.091  0.4044 -1.7245 -0.9600
  596MOL0     H82240   9.547   7.785   7.374 -1.1167  1.4646  0.3913
  596MOL0     H82241   9.606   7.927   7.284  0.3904 -0.5595  2.5058
  596MOL0     H82242   9.416   7.867   7.111 -2.9849  0.4194  0.1740
  596MOL0     H82243   9.349   7.919   7.269 -0.2452 -1.8408  2.7311
  596MOL0     H82244   9.232   7.507   7.262 -1.5429  0.9381 -0.0083
  596MOL0     H82245  10.021   7.965   7.208 -0.7620 -0.0495 -1.2893
  596MOL0     H82246  10.350   8.038   7.351  1.0843 -1.3055  0.3586
  596MOL0     H82247  10.367   7.937   7.203 -1.1061  4.9591 -3.3151
  596MOL0     H82248  10.253   8.061   7.211 -2.6839  0.1138  0.6665
  597MOL0     O82249   9.072   3.183   5.043  0.0348 -0.0274  0.3515
  597MOL0     C82250   8.999   3.139   5.124 -0.5560  0.8346 -0.9664
  597MOL0     O82251   8.867   3.132   5.110 -0.5268 -0.0135 -0.1046
  597MOL0     C82252   8.823   3.178   4.987  0.5924  0.8953  0.5854
  597MOL0     C82253   8.813   3.090   4.880 -0.5869 -0.7571  0.5466
  597MOL0     C82254   8.771   3.149   4.757  0.1238  0.5844  0.3824
  597MOL0     C82255   8.747   3.287   4.747 -0.2392 -0.0855 -0.1632
  597MOL0     O82256   8.693   3.342   4.631  0.2480 -0.1343  0.2532
  597MOL0     C82257   8.565   3.290   4.591  0.4397 -0.3257  0.3255
  597MOL0     C82258   8.506   3.391   4.492  0.4166 -0.8389 -1.1822
  597MOL0     C82259   8.482   3.523   4.569  0.2974 -0.1815  0.4788
  597MOL0     C82260   8.430   3.623   4.471  0.3036  0.0007  0.0904
  597MOL0     C82261   8.399   3.764   4.526  0.6700 -0.1595  0.0966
  597MOL0     C82262   8.472   3.793   4.654  0.4406  0.1791  0.7896
  597MOL0     C82263   8.465   3.947   4.693 -0.3736  0.0122 -0.2159
  597MOL0     C82264   8.556   4.045   4.606  0.0128 -0.2767 -0.5904
  597MOL0     N82265   8.694   4.030   4.623 -0.4883  0.6448  0.2304
  597MOL0     C82266   8.768   3.943   4.540  0.1537  0.2940 -0.7096
  597MOL0     C82267   8.895   3.980   4.562  0.2894 -0.3328  0.1623
  597MOL0     C82268   9.011   3.931   4.470  1.2372 -0.3602 -0.0474
  597MOL0     C82269   9.142   4.006   4.491  0.1554  0.8672 -0.2482
  597MOL0     C82270   9.250   3.924   4.421 -1.0877  0.6239  0.7030
  597MOL0     C82271   9.391   3.997   4.412 -0.3835  0.6840  0.1195
  597MOL0     O82272   9.455   3.986   4.538 -0.0114  0.4345 -0.5724
  597MOL0     C82273   9.591   3.998   4.554  0.4707  0.4854  0.4273
  597MOL0     C82274   9.696   3.997   4.459  0.2901 -0.4960  0.1133
  597MOL0     C82275   9.824   4.010   4.479  0.1474 -0.1194 -0.6024
  597MOL0     C82276   9.914   3.990   4.361  0.0311  0.5239  1.1618
  597MOL0     C82277   9.869   4.031   4.617 -0.0186  0.4787  0.9258
  597MOL0     C82278  10.011   4.044   4.657  0.4550 -0.4665 -0.0761
  597MOL0     O82279  10.106   4.065   4.557  0.0514 -0.3106 -0.7566
  597MOL0     C82280  10.240   4.046   4.559  0.1097 -0.7367  0.0426
  597MOL0     C82281  10.309   4.009   4.678 -0.5943  0.2866  0.0367
  597MOL0     C82282  10.448   3.983   4.666  0.4325 -0.5577 -0.8758
  597MOL0     C82283  10.521   3.996   4.544 -0.4544  0.0861  0.7463
  597MOL0     O82284  10.657   3.964   4.526  0.3437 -0.3350  0.1375
  597MOL0     C82285  10.748   3.977   4.632  0.1806 -0.9583 -0.6884
  597MOL0     C82286  10.894   3.936   4.609 -0.0010 -0.4186 -0.4135
  597MOL0     C82287  10.979   3.974   4.732  0.3086 -0.1240  0.0878
  597MOL0     C82288  11.127   3.952   4.698 -0.1513 -0.7568  0.5324
  597MOL0     C82289  11.220   3.989   4.820  0.1881 -0.5052 -0.4724
  597MOL0     C82290  11.365   3.965   4.790  0.0646  0.2977 -1.3203
  597MOL0     C82291  11.435   3.989   4.926  1.5003  0.0090 -0.4248
  597MOL0     C82292  11.583   4.001   4.922 -0.3675  0.2466 -0.3193
  597MOL0    Cl82293  11.664   4.009   5.082  0.6792 -0.3536  0.2054
  597MOL0     C82294  10.453   4.042   4.434  0.8393 -0.3399  0.1836
  597MOL0     C82295  10.312   4.067   4.440  0.1756 -0.5019  0.2991
  597MOL0     O82296  10.031   4.048   4.777 -0.0438 -0.2442 -0.5851
  597MOL0     C82297   9.765   4.036   4.715 -0.1632 -0.2413  0.0303
  597MOL0     C82298   9.632   4.026   4.684 -0.0614  0.8689 -0.2820
  597MOL0     N82299   8.894   4.077   4.660 -0.6567  0.0118 -0.1172
  597MOL0     N82300   8.774   4.108   4.694 -0.5544  0.5297 -0.5013
  597MOL0     C82301   8.758   3.370   4.855 -0.0664 -0.2338  0.5591
  597MOL0     C82302   8.792   3.316   4.977  0.6671 -0.1089 -0.1592
  597MOL0     C82303   9.073   3.088   5.249  0.7525 -0.1199 -0.1872
  597MOL0     C82304   9.211   3.097   5.250  0.3957  0.1103 -0.2323
  597MOL0     C82305   9.291   3.066   5.359  0.1080 -1.6132 -0.5557
  597MOL0     C82306   9.234   3.021   5.475  0.3156  0.4780  0.4017
  597MOL0     O82307   9.318   2.981   5.573 -0.2667  0.4751  0.3689
  597MOL0     C82308   9.318   3.056   5.693 -0.5120  0.0086 -0.0940
  597MOL0     C82309   9.433   3.152   5.686  0.2779 -0.1380  0.2180
  597MOL0     C82310   9.485   3.207   5.825  0.2846 -0.0219  0.1621
  597MOL0     C82311   9.582   3.328   5.822 -0.9804  0.0375 -0.3456
  597MOL0     C82312   9.679   3.309   5.716  0.0758  0.1295  0.4245
  597MOL0     C82313   9.753   3.275   5.624  0.9703  0.7118 -0.1693
  597MOL0     C82314   9.095   3.007   5.471  0.6244  0.6157  0.1852
  597MOL0     C82315   9.009   3.041   5.359  0.0093  0.8891 -1.0670
  597MOL0     C82316   8.856   3.031   5.377 -0.3245 -0.2771 -0.0287
  597MOL0     H82317   8.833   2.985   4.894 -1.4656 -1.2782 -1.5966
  597MOL0     H82318   8.740   3.085   4.675  0.8115  0.3067  0.3348
  597MOL0     H82319   8.495   3.273   4.673  0.0288  0.4020  0.1420
  597MOL0     H82320   8.588   3.196   4.540 -2.6337 -1.1771  0.2747
  597MOL0     H82321   8.567   3.403   4.402  1.0136  0.9452 -0.5757
  597MOL0     H82322   8.412   3.344   4.459  1.6601 -3.4045 -1.3333
  597MOL0     H82323   8.405   3.510   4.645 -0.5517  0.4567 -0.2416
  597MOL0     H82324   8.576   3.561   4.611  0.4409  0.3475 -0.2876
  597MOL0     H82325   8.506   3.638   4.393 -0.5394 -2.1474 -1.2439
  597MOL0     H82326   8.338   3.586   4.425  0.6376 -2.3353  1.1574
  597MOL0     H82327   8.291   3.779   4.537  0.8198  0.1959  1.1442
  597MOL0     H82328   8.421   3.838   4.449  1.5160 -0.0554  0.4324
  597MOL0     H82329   8.422   3.728   4.725 -3.0470  0.3416 -1.3077
  597MOL0     H82330   8.577   3.766   4.640 -0.1144 -1.1274 -1.3403
  597MOL0     H82331   8.495   3.964   4.797  1.1917  3.4102 -1.0646
  597MOL0     H82332   8.359   3.972   4.685 -0.2569  0.7226  0.3689
  597MOL0     H82333   8.532   4.033   4.500  1.5712 -3.0527 -0.7050
  597MOL0     H82334   8.526   4.145   4.641 -1.8961 -1.5849  1.7921
  597MOL0     H82335   8.724   3.883   4.462 -2.2166  3.0881 -1.7141
  597MOL0     H82336   8.972   3.940   4.368 -0.2601 -3.1701  0.1793
  597MOL0     H82337   9.018   3.825   4.494 -2.2074 -0.7687 -0.3545
  597MOL0     H82338   9.138   4.102   4.438  0.4585  0.5394 -0.8745
  597MOL0     H82339   9.151   4.016   4.600 -3.0902 -1.2621  0.3552
  597MOL0     H82340   9.274   3.830   4.471  2.5673 -0.2829 -2.2944
  597MOL0     H82341   9.215   3.904   4.320 -1.4412 -2.2466  1.3034
  597MOL0     H82342   9.445   3.944   4.333  0.4053 -1.8050  2.1745
  597MOL0     H82343   9.380   4.104   4.395 -5.0865  0.8663  2.7061
  597MOL0     H82344   9.671   3.983   4.354 -0.8155 -0.7552  0.3999
  597MOL0     H82345   9.854   3.970   4.271 -0.4107 -0.5905  1.6793
  597MOL0     H82346   9.972   3.901   4.385  0.8431  1.7514  4.1456
  597MOL0     H82347   9.985   4.070   4.339  1.5776 -0.4079  2.5735
  597MOL0     H82348  10.259   3.993   4.773 -0.6447  1.2135  0.1755
  597MOL0     H82349  10.496   3.927   4.746 -1.6715 -0.7949  0.2849
  597MOL0     H82350  10.747   4.081   4.666 -1.2464 -0.7382 -1.3089
  597MOL0     H82351  10.713   3.911   4.712  1.6499 -1.8927 -0.7900
  597MOL0     H82352  10.901   3.827   4.601 -0.2784 -0.3017 -3.2536
  597MOL0     H82353  10.939   3.973   4.517  2.8020 -1.7878  0.2792
  597MOL0     H82354  10.965   3.912   4.821  1.0442  2.4114  2.0791
  597MOL0     H82355  10.964   4.078   4.760 -1.0556 -0.1864 -0.3380
  597MOL0     H82356  11.140   4.019   4.613 -1.6838  2.9332  2.9314
  597MOL0     H82357  11.147   3.849   4.667  1.0102 -0.5803  0.6330
  597MOL0     H82358  11.210   4.093   4.850 -1.2274 -0.3538 -1.3605
  597MOL0     H82359  11.192   3.921   4.901  0.3667  1.4351  1.3050
  597MOL0     H82360  11.385   4.055   4.731 -1.9564  5.0101  4.2251
  597MOL0     H82361  11.367   3.871   4.735 -0.5051  1.2499 -3.0543
  597MOL0     H82362  11.412   3.899   4.985 -1.3117  1.2245  0.4826
  597MOL0     H82363  11.392   4.073   4.981  1.2155 -0.1127 -0.4622
  597MOL0     H82364  11.608   4.084   4.856 -1.6953  0.3226 -0.7579
  597MOL0     H82365  11.610   3.906   4.874 -2.3309 -2.1697  2.9804
  597MOL0     H82366  10.501   4.061   4.339 -0.9022  1.3937 -0.4050
  597MOL0     H82367  10.254   4.117   4.362 -3.9647 -1.6782  2.3691
  597MOL0     H82368   9.788   4.062   4.817  0.6104  2.1210 -0.6962
  597MOL0     H82369   9.553   4.026   4.758 -0.7976 -2.3553 -0.9207
  597MOL0     H82370   8.731   3.474   4.848 -1.4348 -0.2355  3.8932
  597MOL0     H82371   8.793   3.373   5.069  1.5452 -3.4364  2.0520
  597MOL0     H82372   9.259   3.139   5.162  0.6532 -1.3825 -0.8373
  597MOL0     H82373   9.393   3.098   5.342 -0.1015 -0.7223 -0.1479
  597MOL0     H82374   9.225   3.109   5.714 -0.6610  0.1311 -1.0247
  597MOL0     H82375   9.337   2.985   5.774  1.7370 -0.2625 -0.7719
  597MOL0     H82376   9.409   3.246   5.635  1.2370 -0.5050 -0.9538
  597MOL0     H82377   9.520   3.114   5.633  0.9359  0.5628  0.7643
  597MOL0     H82378   9.403   3.224   5.895  0.1484  0.4870 -0.1116
  597MOL0     H82379   9.545   3.125   5.864  0.0298  0.0798  0.7800
  597MOL0     H82380   9.632   3.333   5.919 -0.0147  0.1708 -0.8381
  597MOL0     H82381   9.527   3.421   5.808  1.4709  1.8290  1.0695
  597MOL0     H82382   9.810   3.246   5.538  0.6884 -1.7958  0.4058
  597MOL0     H82383   9.054   2.958   5.559  1.0918  1.1430  0.7066
  597MOL0     H82384   8.821   3.134   5.361 -2.2100 -1.0602 -1.3139
  597MOL0     H82385   8.819   2.963   5.300 -0.6674 -0.9357  0.7054
  597MOL0     H82386   8.827   2.998   5.477 -0.7398  0.9038  0.2632
  598MOL0     O82387   0.413   0.830  10.796  0.3142 -0.1742 -0.1350
  598MOL0     C82388   0.400   0.859  10.678  0.4876 -0.3638 -1.1559
  598MOL0     O82389   0.498   0.872  10.591 -0.0997 -0.3223 -0.4712
  598MOL0     C82390   0.626   0.870  10.630 -0.1542 -0.6614  0.8531
  598MOL0     C82391   0.692   0.748  10.624 -0.1934  0.0578  0.0179
  598MOL0     C82392   0.823   0.733  10.657 -0.7103  0.0342  0.0333
  598MOL0     C82393   0.898   0.849  10.707 -0.5949 -0.0227 -0.1334
  598MOL0     O82394   1.029   0.824  10.749  0.3023 -0.7127 -0.1095
  598MOL0     C82395   1.134   0.927  10.752 -0.1100 -0.7235  0.2635
  598MOL0     C82396   1.268   0.852  10.774  0.1094  0.2679  0.2524
  598MOL0     C82397   1.283   0.741  10.670  0.2618 -0.2420  0.4148
  598MOL0     C82398   1.410   0.674  10.670  0.7643 -0.0531 -0.6002
  598MOL0     C82399   1.529   0.757  10.618 -0.4849 -0.0306 -0.5269
  598MOL0     C82400   1.667   0.682  10.653  1.8054 -0.0831 -0.2758
  598MOL0     C82401   1.799   0.753  10.611  0.3343  0.6117  1.1536
  598MOL0     C82402   1.807   0.890  10.680  0.0375  0.3374  0.4981
  598MOL0     N82403   1.946   0.944  10.667  0.4910 -0.1769 -0.1482
  598MOL0     C82404   2.046   0.944  10.765  0.3133  0.4583 -0.1287
  598MOL0     C82405   2.157   0.983  10.702 -0.8013  0.1804  0.1939
  598MOL0     C82406   2.291   1.006  10.778  0.1483 -0.1131  0.4371
  598MOL0     C82407   2.373   0.882  10.814  0.2680  0.1522  0.8554
  598MOL0     C82408   2.397   0.794  10.695  0.1590 -0.2500  0.4381
  598MOL0     C82409   2.518   0.843  10.605  0.3197 -0.5178 -0.3478
  598MOL0     O82410   2.636   0.802  10.675 -0.7527 -0.1016  0.3525
  598MOL0     C82411   2.755   0.820  10.614 -0.3588  0.2637  0.4109
  598MOL0     C82412   2.775   0.882  10.494 -0.1963 -0.7138  0.4916
  598MOL0     C82413   2.899   0.896  10.425 -0.0440  0.1806  0.2116
  598MOL0     C82414   2.896   0.972  10.293 -0.3004  1.4395  0.5267
  598MOL0     C82415   3.007   0.833  10.485  0.0083  0.6085  0.9890
  598MOL0     C82416   3.146   0.833  10.421  0.7662 -0.0171  0.2322
  598MOL0     O82417   3.247   0.814  10.512 -0.7280  0.9365 -0.0180
  598MOL0     C82418   3.377   0.784  10.468  0.3227  0.4671 -0.9499
  598MOL0     C82419   3.458   0.755  10.580  0.0922  0.2725  0.3846
  598MOL0     C82420   3.591   0.739  10.562 -1.2335  0.2620 -0.1854
  598MOL0     C82421   3.655   0.744  10.436  0.5182  1.3884 -0.3152
  598MOL0     O82422   3.794   0.733  10.406  0.9105  0.2234  0.4671
  598MOL0     C82423   3.890   0.740  10.514  0.4394 -0.5764  1.1976
  598MOL0     C82424   4.028   0.729  10.465  0.4178 -0.4549  0.5470
  598MOL0     C82425   4.064   0.860  10.394  0.4376 -0.0326  0.5230
  598MOL0     C82426   4.183   0.838  10.300  0.3800  0.9437  0.7390
  598MOL0     C82427   4.242   0.964  10.243 -0.5137  0.6132  0.8825
  598MOL0     C82428   4.322   0.935  10.117  0.4279  0.4808  0.5311
  598MOL0     C82429   4.386   1.066  10.060  0.3130 -0.1595 -0.2314
  598MOL0     C82430   4.531   1.097  10.126  0.2048  0.6100 -0.5566
  598MOL0    Cl82431   4.636   0.976  10.057 -0.4207  0.5345  0.1256
  598MOL0     C82432   3.567   0.751  10.327 -0.0947 -0.7058 -0.1096
  598MOL0     C82433   3.427   0.772  10.335  0.9807 -0.2047 -0.1427
  598MOL0     O82434   3.161   0.851  10.303 -1.3817 -0.8752  0.1386
  598MOL0     C82435   2.985   0.782  10.614  0.4425  0.8462 -0.7780
  598MOL0     C82436   2.863   0.767  10.677 -0.1864 -0.6149 -0.5316
  598MOL0     N82437   2.133   1.014  10.570 -0.6574 -0.4780  0.0907
  598MOL0     N82438   2.001   1.007  10.555  0.0080  0.0965  0.3334
  598MOL0     C82439   0.836   0.974  10.707  0.0686 -0.0545  0.6145
  598MOL0     C82440   0.698   0.988  10.664 -1.1177  0.3675 -0.7342
  598MOL0     C82441   0.260   0.842  10.621  0.4464 -0.8297  0.6119
  598MOL0     C82442   0.248   0.859  10.481 -0.4413  0.2598  0.1003
  598MOL0     C82443   0.129   0.846  10.408  0.7645 -0.6490  0.0036
  598MOL0     C82444   0.017   0.817  10.483 -0.4715  0.0456 -0.6611
  598MOL0     O82445  -0.107   0.806  10.417  0.8699 -0.6350  0.0374
  598MOL0     C82446  -0.193   0.692  10.430 -0.3158 -1.2890 -0.7630
  598MOL0     C82447  -0.322   0.697  10.359  0.1115  0.6075  0.0741
  598MOL0     C82448  -0.404   0.829  10.387  0.3281 -0.1841 -0.3477
  598MOL0     C82449  -0.503   0.875  10.282 -0.0780  0.0863 -0.4733
  598MOL0     C82450  -0.608   0.945  10.350  0.1472 -0.4655 -0.4684
  598MOL0     C82451  -0.710   1.003  10.384  0.3266  0.5759 -0.6049
  598MOL0     C82452   0.034   0.787  10.623  0.0314 -0.2590 -0.6719
  598MOL0     C82453   0.150   0.792  10.695  0.4751 -0.1109 -0.2302
  598MOL0     C82454   0.153   0.764  10.849  0.0595  0.6259 -0.3692
  598MOL0     H82455   0.641   0.655  10.599 -0.0288  0.1336 -0.6090
  598MOL0     H82456   0.874   0.637  10.655  0.0023  0.4150 -1.2583
  598MOL0     H82457   1.117   1.004  10.828  1.1753 -1.5531  1.4564
  598MOL0     H82458   1.146   0.966  10.651  1.9179 -1.2348  0.2600
  598MOL0     H82459   1.347   0.926  10.756  0.1499  1.5595  4.6426
  598MOL0     H82460   1.274   0.814  10.877  1.7136  2.0030  0.8691
  598MOL0     H82461   1.208   0.662  10.682  0.3230 -0.1962  1.1696
  598MOL0     H82462   1.271   0.785  10.571  2.6940  0.2463  0.2726
  598MOL0     H82463   1.439   0.646  10.772 -0.3267  2.9259  0.6431
  598MOL0     H82464   1.406   0.581  10.614  0.1457 -0.4916  0.1552
  598MOL0     H82465   1.527   0.854  10.669 -2.2982 -1.1171  1.6327
  598MOL0     H82466   1.519   0.774  10.511  1.2983  1.8762 -0.4607
  598MOL0     H82467   1.675   0.669  10.762  1.0323 -0.0428 -0.2089
  598MOL0     H82468   1.676   0.582  10.608  1.7735 -0.7113  1.0531
  598MOL0     H82469   1.807   0.762  10.502  0.2310  0.7090  1.1547
  598MOL0     H82470   1.886   0.697  10.649 -1.2306 -0.5618  3.2261
  598MOL0     H82471   1.727   0.955  10.642  1.6860  2.3220  0.2604
  598MOL0     H82472   1.794   0.877  10.788  3.4686  2.3652  1.3015
  598MOL0     H82473   2.039   0.904  10.866 -0.2037  0.1012 -0.3041
  598MOL0     H82474   2.274   1.068  10.867 -0.3200 -1.0023  0.9802
  598MOL0     H82475   2.343   1.076  10.711 -2.1914 -1.3157 -2.9383
  598MOL0     H82476   2.468   0.899  10.866  0.1838  1.1024  0.7243
  598MOL0     H82477   2.311   0.817  10.877 -1.5068 -1.1594 -2.0532
  598MOL0     H82478   2.434   0.694  10.721  3.1076  0.3675 -1.0173
  598MOL0     H82479   2.310   0.783  10.630 -0.3795 -0.6286  1.2060
  598MOL0     H82480   2.511   0.804  10.503 -2.8396 -1.1323  0.0005
  598MOL0     H82481   2.522   0.951  10.590  3.9005 -0.2903  1.1404
  598MOL0     H82482   2.690   0.929  10.445  1.6870  2.0803 -0.4038
  598MOL0     H82483   2.936   0.900  10.220  0.4791  1.4689  0.9239
  598MOL0     H82484   2.967   1.053  10.309  0.9573  0.5481 -0.3164
  598MOL0     H82485   2.802   1.007  10.249 -0.3259 -1.0445 -1.7256
  598MOL0     H82486   3.426   0.765  10.684  0.4712 -2.3670  0.8228
  598MOL0     H82487   3.653   0.720  10.649  0.2743 -0.6319 -1.4074
  598MOL0     H82488   3.878   0.841  10.554 -0.1213  1.4805 -3.4796
  598MOL0     H82489   3.872   0.665  10.592  1.6182 -2.1178  0.0636
  598MOL0     H82490   4.091   0.705  10.551 -1.6205  0.5911  2.4575
  598MOL0     H82491   4.043   0.651  10.391  0.5378  0.0037  0.0776
  598MOL0     H82492   4.086   0.940  10.464  2.6226  0.1777 -0.3287
  598MOL0     H82493   3.976   0.886  10.334  1.0622  1.3813  0.1688
  598MOL0     H82494   4.137   0.789  10.213 -1.1901  1.5232  1.2058
  598MOL0     H82495   4.256   0.774  10.348 -0.3667 -0.9223 -0.4861
  598MOL0     H82496   4.157   1.029  10.220 -1.1943  0.0968  1.8645
  598MOL0     H82497   4.294   1.030  10.314 -3.3799  2.3462  1.5355
  598MOL0     H82498   4.264   0.881  10.042 -0.2840 -0.8886  2.0218
  598MOL0     H82499   4.402   0.864  10.141  0.2456  0.0526 -0.1123
  598MOL0     H82500   4.315   1.146  10.083 -0.1831 -1.0639  1.5802
  598MOL0     H82501   4.391   1.071   9.951  1.4900  1.7518 -0.1388
  598MOL0     H82502   4.522   1.085  10.234 -0.8916 -2.6981 -0.9015
  598MOL0     H82503   4.556   1.203  10.112 -0.7218  1.0927  1.1121
  598MOL0     H82504   3.610   0.736  10.228  3.6445 -2.1352  1.5345
  598MOL0     H82505   3.374   0.781  10.241  0.3916  1.0635  0.2933
  598MOL0     H82506   3.071   0.750  10.672 -0.7553  0.8002  1.0386
  598MOL0     H82507   2.863   0.714  10.772 -3.4290  1.4842  0.8543
  598MOL0     H82508   0.894   1.060  10.740  0.8797  0.5617 -2.1819
  598MOL0     H82509   0.650   1.084  10.679  1.8749  1.8127  0.5418
  598MOL0     H82510   0.328   0.882  10.410  0.4347  0.8118  1.2415
  598MOL0     H82511   0.111   0.858  10.302 -2.1229  0.2907  0.4945
  598MOL0     H82512  -0.143   0.601  10.398 -0.4886 -2.2071  1.4107
  598MOL0     H82513  -0.223   0.665  10.532 -0.4618 -0.0728 -0.4562
  598MOL0     H82514  -0.382   0.612  10.392  0.4347 -0.2369 -1.4102
  598MOL0     H82515  -0.307   0.681  10.252  0.5745  0.3485  0.1762
  598MOL0     H82516  -0.458   0.828  10.482 -0.6118  0.5759 -0.8592
  598MOL0     H82517  -0.330   0.906  10.410  1.9961 -1.4291 -1.2608
  598MOL0     H82518  -0.535   0.797  10.212  2.6396 -0.6263 -1.0708
  598MOL0     H82519  -0.451   0.948  10.219 -0.3902  2.9941  2.3494
  598MOL0     H82520  -0.793   1.058  10.424  0.4143 -0.3440  0.9559
  598MOL0     H82521  -0.049   0.743  10.677  1.0462  0.0352  1.2309
  598MOL0     H82522   0.228   0.687  10.869  0.7055  0.6092 -2.6081
  598MOL0     H82523   0.186   0.852  10.905 -1.0404  0.3293  0.7689
  598MOL0     H82524   0.054   0.737  10.886  0.4982  0.3280  0.6343
  599MOL0     O82525   2.460   6.719   8.142  1.0546  0.5899 -0.0570
  599MOL0     C82526   2.474   6.841   8.156 -0.6855  0.0945 -0.5599
  599MOL0     O82527   2.463   6.902   8.279  0.0728 -0.0751 -0.3394
  599MOL0     C82528   2.460   6.841   8.402 -0.5402 -0.0160  0.4344
  599MOL0     C82529   2.420   6.932   8.498  0.2209  0.8667 -0.5672
  599MOL0     C82530   2.400   6.894   8.626 -0.0677 -0.1695 -0.5354
  599MOL0     C82531   2.439   6.767   8.667  0.4263  0.0460 -0.1525
  599MOL0     O82532   2.441   6.726   8.800  0.4703  0.0281 -0.0037
  599MOL0     C82533   2.464   6.819   8.908  0.4160  0.3776  0.3208
  599MOL0     C82534   2.401   6.723   9.021 -1.2298 -0.0752  0.7013
  599MOL0     C82535   2.245   6.745   9.038  0.0810 -0.1764  0.5566
  599MOL0     C82536   2.211   6.671   9.164  0.5345  0.3190  0.3381
  599MOL0     C82537   2.063   6.646   9.176  0.3202 -0.5162 -0.7412
  599MOL0     C82538   2.054   6.543   9.292  0.6568 -0.1183  0.2567
  599MOL0     C82539   1.919   6.470   9.300 -0.1954 -0.7254  1.0081
  599MOL0     C82540   1.900   6.386   9.419  0.2591  0.0022 -0.5807
  599MOL0     N82541   2.008   6.291   9.453  0.0343 -0.1746 -0.2735
  599MOL0     C82542   2.076   6.209   9.369 -0.5701  0.0440 -0.1885
  599MOL0     C82543   2.161   6.141   9.449  0.0430 -0.3376 -0.0370
  599MOL0     C82544   2.266   6.043   9.413  0.7502 -0.1795 -0.6024
  599MOL0     C82545   2.390   6.119   9.372  0.2156 -0.0585 -0.4916
  599MOL0     C82546   2.487   6.009   9.323 -0.3330 -0.1493  0.3572
  599MOL0     C82547   2.629   6.023   9.381 -0.5373 -0.1865 -0.6398
  599MOL0     O82548   2.697   6.141   9.329 -0.2970 -0.0726 -0.0026
  599MOL0     C82549   2.828   6.161   9.351  0.5062 -0.2878  0.0321
  599MOL0     C82550   2.877   6.275   9.285 -0.9351 -1.5451 -0.1373
  599MOL0     C82551   3.012   6.309   9.281  0.2201 -0.1483 -0.6770
  599MOL0     C82552   3.057   6.431   9.215 -0.2566 -0.6691 -0.7423
  599MOL0     C82553   3.102   6.217   9.343  0.3759 -0.2924  0.4731
  599MOL0     C82554   3.248   6.229   9.339  0.1010 -0.1683 -0.7387
  599MOL0     O82555   3.326   6.123   9.291  0.4942  0.1893 -0.5439
  599MOL0     C82556   3.459   6.161   9.272 -0.4429  0.2039 -0.9741
  599MOL0     C82557   3.495   6.258   9.179  0.2806  0.0304 -0.5814
  599MOL0     C82558   3.624   6.290   9.151  0.3646  0.6431  0.1123
  599MOL0     C82559   3.730   6.220   9.202 -0.1375  0.3133 -0.1341
  599MOL0     O82560   3.844   6.250   9.144 -0.0111  0.1413 -0.2921
  599MOL0     C82561   3.958   6.174   9.198  0.6914 -0.3905  0.1342
  599MOL0     C82562   4.084   6.214   9.113  0.3040 -0.2823 -0.1168
  599MOL0     C82563   4.212   6.173   9.186  0.2439  0.5709 -0.2886
  599MOL0     C82564   4.336   6.234   9.114 -0.2782 -0.8365  0.1131
  599MOL0     C82565   4.454   6.212   9.205  0.2727 -0.5962  0.4931
  599MOL0     C82566   4.580   6.240   9.114  0.4025 -0.3043  0.0794
  599MOL0     C82567   4.603   6.139   8.993 -0.1847  0.4679  0.1314
  599MOL0     C82568   4.722   6.047   9.018  0.1241 -0.7766 -0.0982
  599MOL0    Cl82569   4.710   5.943   9.154  0.1032  0.5851  0.4705
  599MOL0     C82570   3.701   6.128   9.302  0.2470 -0.0506 -0.0914
  599MOL0     C82571   3.568   6.087   9.330  0.0173 -0.3270  0.7469
  599MOL0     O82572   3.291   6.336   9.384  0.2412  0.2023 -0.1632
  599MOL0     C82573   3.053   6.106   9.410 -0.3977  0.7412 -0.3638
  599MOL0     C82574   2.913   6.078   9.413  0.7707 -0.6705  0.0006
  599MOL0     N82575   2.127   6.171   9.580 -0.4642  0.0280 -0.0362
  599MOL0     N82576   2.041   6.262   9.585 -0.2175 -0.4917  0.2051
  599MOL0     C82577   2.480   6.673   8.563  0.1347  0.2281 -0.4638
  599MOL0     C82578   2.498   6.708   8.432 -0.4935 -0.8462 -0.7262
  599MOL0     C82579   2.516   6.925   8.045 -0.3354 -0.6635 -0.9994
  599MOL0     C82580   2.469   7.062   8.038  0.5235  0.8981 -0.1094
  599MOL0     C82581   2.499   7.140   7.922 -0.4691 -0.6719 -0.3657
  599MOL0     C82582   2.577   7.087   7.819  0.5410  0.3441 -0.9452
  599MOL0     O82583   2.590   7.175   7.712  0.3694 -0.0891 -0.2449
  599MOL0     C82584   2.636   7.127   7.588  0.6179  0.0845 -0.3652
  599MOL0     C82585   2.562   7.204   7.482 -0.7159  0.5538 -0.5200
  599MOL0     C82586   2.405   7.198   7.502 -0.7758 -0.0405 -0.3312
  599MOL0     C82587   2.328   7.201   7.363 -0.7595  0.0519  0.4664
  599MOL0     C82588   2.363   7.072   7.295 -1.6139 -0.3581  0.3423
  599MOL0     C82589   2.403   6.968   7.247 -0.6497  0.3117 -0.9420
  599MOL0     C82590   2.632   6.956   7.833 -0.4591 -0.3081  0.5761
  599MOL0     C82591   2.597   6.872   7.941 -0.5794  1.0099  0.5616
  599MOL0     C82592   2.652   6.730   7.931 -0.0255  0.2798  0.1509
  599MOL0     H82593   2.406   7.037   8.474  2.5568  0.8600 -2.3679
  599MOL0     H82594   2.360   6.965   8.697 -1.6201 -1.3603 -0.1581
  599MOL0     H82595   2.406   6.912   8.898  0.6489  0.5395  0.4662
  599MOL0     H82596   2.571   6.834   8.924  0.8439 -1.3396 -0.7597
  599MOL0     H82597   2.422   6.618   8.997 -1.4593  0.5414 -2.7783
  599MOL0     H82598   2.439   6.747   9.121 -0.4826 -0.1894  0.4527
  599MOL0     H82599   2.229   6.853   9.046 -0.6599 -0.3327  1.3301
  599MOL0     H82600   2.192   6.707   8.950 -1.1843  3.4613 -0.4506
  599MOL0     H82601   2.267   6.577   9.170 -0.0806 -0.0580  0.2256
  599MOL0     H82602   2.246   6.729   9.250  0.2755 -1.0688  1.4019
  599MOL0     H82603   2.029   6.598   9.084  1.9868 -4.0246  0.2947
  599MOL0     H82604   2.019   6.746   9.182  1.5207 -0.0037  0.2041
  599MOL0     H82605   2.134   6.468   9.282  1.8825  1.3403 -1.6057
  599MOL0     H82606   2.068   6.593   9.389 -0.6799 -1.0325  0.9567
  599MOL0     H82607   1.904   6.408   9.211  0.9195 -0.5730  0.6909
  599MOL0     H82608   1.837   6.542   9.302 -0.4377 -0.9300 -0.6085
  599MOL0     H82609   1.890   6.457   9.502  3.9143  0.2445 -0.1540
  599MOL0     H82610   1.805   6.333   9.405  0.5946 -0.3659 -1.5916
  599MOL0     H82611   2.062   6.198   9.262 -1.4825 -1.5263  0.0517
  599MOL0     H82612   2.226   5.990   9.326  0.3857 -0.5807 -0.1947
  599MOL0     H82613   2.282   5.971   9.494 -0.3269 -2.4336 -2.2583
  599MOL0     H82614   2.370   6.189   9.290  1.8425  0.7846 -0.2006
  599MOL0     H82615   2.435   6.178   9.452 -2.1474  2.1697 -0.6777
  599MOL0     H82616   2.444   5.910   9.337  2.1177 -1.0970  1.7966
  599MOL0     H82617   2.493   6.019   9.214  1.2548  1.1126  0.5155
  599MOL0     H82618   2.631   6.028   9.491 -0.1987  0.3150 -0.6646
  599MOL0     H82619   2.692   5.940   9.348 -1.5733 -0.2330 -2.6511
  599MOL0     H82620   2.807   6.330   9.224 -0.7922 -2.6420 -1.3364
  599MOL0     H82621   2.989   6.458   9.134 -1.0987 -0.2363  0.0989
  599MOL0     H82622   3.158   6.416   9.174 -0.3492  2.4190 -2.3753
  599MOL0     H82623   3.070   6.513   9.286  0.3723 -0.8982 -0.5850
  599MOL0     H82624   3.417   6.314   9.130  0.5043  1.2649  0.4169
  599MOL0     H82625   3.625   6.373   9.081 -1.3716  0.2783 -0.3861
  599MOL0     H82626   3.969   6.194   9.305 -0.8974 -1.7839  0.6022
  599MOL0     H82627   3.944   6.066   9.187 -0.2358 -0.2138 -0.5031
  599MOL0     H82628   4.072   6.159   9.019 -2.2818 -1.1811  0.6582
  599MOL0     H82629   4.078   6.321   9.092 -0.7056  0.8631  4.8537
  599MOL0     H82630   4.219   6.064   9.193  0.0686  0.6005  0.5901
  599MOL0     H82631   4.212   6.212   9.289  1.6721  0.6242 -0.2948
  599MOL0     H82632   4.327   6.342   9.102 -5.4581 -1.1422 -1.0956
  599MOL0     H82633   4.356   6.181   9.021 -1.9165  1.1409 -1.4573
  599MOL0     H82634   4.441   6.283   9.288 -0.1457  0.3513 -0.3584
  599MOL0     H82635   4.457   6.109   9.242  1.3097 -0.2465  1.4523
  599MOL0     H82636   4.663   6.228   9.184 -0.7548 -0.8949  1.3894
  599MOL0     H82637   4.570   6.336   9.061 -0.2192 -1.5952 -2.2832
  599MOL0     H82638   4.620   6.182   8.893  2.3813 -3.3569 -1.3215
  599MOL0     H82639   4.526   6.062   8.983  0.9204 -0.4595 -2.1771
  599MOL0     H82640   4.808   6.112   9.037 -1.4956  1.6657 -0.6135
  599MOL0     H82641   4.745   5.991   8.927 -0.1817 -1.9168  0.5067
  599MOL0     H82642   3.786   6.084   9.354 -0.6533  0.4015  1.8339
  599MOL0     H82643   3.551   6.006   9.401  0.3579 -0.1912  0.9909
  599MOL0     H82644   3.132   6.047   9.457 -0.0415  1.7564  0.3437
  599MOL0     H82645   2.876   5.997   9.476 -0.4561 -0.0921  0.0744
  599MOL0     H82646   2.505   6.578   8.607 -0.4800  0.7530  1.0881
  599MOL0     H82647   2.534   6.640   8.357 -0.6693 -0.6057 -1.0332
  599MOL0     H82648   2.407   7.098   8.120  1.2483  1.1393  0.3324
  599MOL0     H82649   2.460   7.240   7.905 -2.5443 -0.9850  1.9164
  599MOL0     H82650   2.743   7.140   7.569  0.0925  2.8671 -1.9646
  599MOL0     H82651   2.602   7.024   7.585  2.0223 -0.3742 -1.4391
  599MOL0     H82652   2.593   7.156   7.389 -0.6124 -3.8712  1.5343
  599MOL0     H82653   2.610   7.302   7.474 -0.5311  0.4099 -1.1940
  599MOL0     H82654   2.368   7.101   7.539  0.4412 -1.3795 -2.4120
  599MOL0     H82655   2.367   7.277   7.568 -2.5838 -1.7627  0.7966
  599MOL0     H82656   2.369   7.283   7.303  1.2915 -2.1300 -1.3596
  599MOL0     H82657   2.219   7.195   7.369 -0.9037  2.2428  0.9609
  599MOL0     H82658   2.443   6.872   7.221  3.0618  0.2077  3.8788
  599MOL0     H82659   2.696   6.915   7.755 -1.0434  1.1772 -0.7473
  599MOL0     H82660   2.591   6.662   7.870  2.4584 -0.0563 -2.1699
  599MOL0     H82661   2.749   6.744   7.883  0.0405  2.8860  0.8809
  599MOL0     H82662   2.669   6.686   8.030  1.5190  1.2050  0.3247
  600MOL0     O82663   7.831   2.985   7.697 -0.1166  0.3419  0.1501
  600MOL0     C82664   7.746   2.902   7.650  0.3751 -0.4739  0.2806
  600MOL0     O82665   7.757   2.761   7.662 -0.2339  0.1663 -0.3747
  600MOL0     C82666   7.885   2.719   7.681 -1.1983  0.3119 -0.2468
  600MOL0     C82667   7.935   2.688   7.810  0.5346  0.2527 -0.2555
  600MOL0     C82668   8.064   2.648   7.831 -0.4206 -0.1885 -0.3086
  600MOL0     C82669   8.155   2.653   7.726 -0.0280 -0.6554  0.3361
  600MOL0     O82670   8.285   2.625   7.754  0.5472 -0.0158  0.2260
  600MOL0     C82671   8.373   2.729   7.710  1.0113  0.5998 -0.3563
  600MOL0     C82672   8.520   2.711   7.758  0.0212 -0.1924  0.3193
  600MOL0     C82673   8.533   2.668   7.906  0.3805 -0.5008 -0.1367
  600MOL0     C82674   8.675   2.686   7.954  0.3590  0.3630 -0.4397
  600MOL0     C82675   8.712   2.641   8.094  0.1616  0.4982  0.0847
  600MOL0     C82676   8.647   2.710   8.209 -0.2731  0.3579  0.5937
  600MOL0     C82677   8.682   2.641   8.340 -0.5162 -0.0466  0.4328
  600MOL0     C82678   8.689   2.741   8.458  0.7231 -0.0894 -0.4390
  600MOL0     N82679   8.704   2.669   8.590 -0.5977  0.2018  0.8271
  600MOL0     C82680   8.607   2.598   8.652  0.2750  0.5656 -1.4335
  600MOL0     C82681   8.657   2.543   8.764 -0.7248  0.2345  0.8535
  600MOL0     C82682   8.592   2.457   8.874  0.3765 -0.0811 -0.1652
  600MOL0     C82683   8.639   2.524   9.007 -0.0880 -0.4815 -0.5060
  600MOL0     C82684   8.549   2.470   9.123 -0.3166 -0.8185  0.0101
  600MOL0     C82685   8.597   2.539   9.250 -0.1674  1.1446  0.0897
  600MOL0     O82686   8.728   2.487   9.281  0.5060  0.3695 -0.8923
  600MOL0     C82687   8.744   2.365   9.325 -0.4664  0.1863 -0.9678
  600MOL0     C82688   8.645   2.270   9.371 -0.0595 -0.1378 -0.2610
  600MOL0     C82689   8.671   2.144   9.423  0.4898 -0.2313  0.0542
  600MOL0     C82690   8.555   2.065   9.464  0.9716  0.0058  0.6418
  600MOL0     C82691   8.803   2.093   9.411 -0.0204  0.0731 -0.3136
  600MOL0     C82692   8.850   1.961   9.449  0.3057  0.7086 -0.4247
  600MOL0     O82693   8.981   1.936   9.429 -0.0401 -0.4866  0.1313
  600MOL0     C82694   9.025   1.804   9.447  0.7486 -0.6730 -0.7023
  600MOL0     C82695   8.986   1.709   9.351  0.3446  0.2822 -0.3100
  600MOL0     C82696   9.035   1.579   9.355  0.2784  0.3182 -0.4816
  600MOL0     C82697   9.127   1.544   9.449  0.2374  0.3130 -0.1588
  600MOL0     O82698   9.185   1.422   9.472  0.5312  0.0694 -0.2840
  600MOL0     C82699   9.197   1.345   9.342  0.0338 -0.3194 -0.0195
  600MOL0     C82700   9.294   1.233   9.364 -0.1093  0.9674  0.4270
  600MOL0     C82701   9.426   1.282   9.407 -0.3137 -0.1764 -0.5240
  600MOL0     C82702   9.527   1.183   9.455 -0.4709 -0.1282 -0.4587
  600MOL0     C82703   9.569   1.081   9.348 -0.2981  0.3610 -0.0480
  600MOL0     C82704   9.690   1.004   9.404  0.1949 -0.9571 -0.6199
  600MOL0     C82705   9.705   0.880   9.323  0.4224 -0.2472 -0.6657
  600MOL0     C82706   9.828   0.803   9.359  0.2478  0.3187 -0.1838
  600MOL0    Cl82707   9.845   0.669   9.249 -0.2481 -0.4166  0.4974
  600MOL0     C82708   9.166   1.641   9.543 -0.3317  0.7905 -0.3808
  600MOL0     C82709   9.121   1.774   9.539  0.1264  0.4226 -0.3534
  600MOL0     O82710   8.774   1.884   9.510 -0.0382  0.4100 -0.2023
  600MOL0     C82711   8.897   2.183   9.364  0.1469 -0.3097  0.4826
  600MOL0     C82712   8.875   2.315   9.328  0.6096  0.1731  0.5169
  600MOL0     N82713   8.795   2.567   8.760 -0.1674 -0.2500  0.5351
  600MOL0     N82714   8.818   2.644   8.656 -0.5421  0.0558  0.5469
  600MOL0     C82715   8.111   2.693   7.592  1.2476 -0.3923  0.2930
  600MOL0     C82716   7.978   2.718   7.575  0.8688  0.5690 -0.3692
  600MOL0     C82717   7.622   2.963   7.606  0.9907 -0.5120 -0.3040
  600MOL0     C82718   7.504   2.895   7.612  0.0904  0.0619  0.1773
  600MOL0     C82719   7.382   2.942   7.556 -0.1975 -0.4357 -0.2852
  600MOL0     C82720   7.375   3.072   7.506  0.1737  0.5428  0.1786
  600MOL0     O82721   7.264   3.135   7.454 -0.1499 -0.0437  0.3097
  600MOL0     C82722   7.146   3.063   7.454  0.3592  0.2086  0.6708
  600MOL0     C82723   7.042   3.113   7.353  0.8205  0.5805 -0.4510
  600MOL0     C82724   6.934   3.006   7.322  0.2257 -0.1325 -1.0489
  600MOL0     C82725   6.828   3.004   7.439  0.0322 -0.0064 -0.3652
  600MOL0     C82726   6.693   2.980   7.391 -0.2749 -0.4746 -0.2913
  600MOL0     C82727   6.572   2.981   7.360  0.1630  0.1640 -0.4210
  600MOL0     C82728   7.498   3.144   7.500  1.4278 -0.1007  0.5984
  600MOL0     C82729   7.619   3.089   7.538 -1.0978  0.8034 -0.1577
  600MOL0     C82730   7.743   3.170   7.506  0.5817  0.3795  0.1347
  600MOL0     H82731   7.857   2.697   7.885  0.9416 -0.1610  0.2225
  600MOL0     H82732   8.096   2.600   7.923  0.1168 -1.8595 -1.3251
  600MOL0     H82733   8.331   2.820   7.753  0.5509  0.8050 -1.2256
  600MOL0     H82734   8.364   2.739   7.602 -0.0807 -2.0345 -0.6011
  600MOL0     H82735   8.553   2.636   7.686  2.2129  1.6289 -0.7273
  600MOL0     H82736   8.587   2.794   7.731  1.7970 -1.1292  1.6467
  600MOL0     H82737   8.472   2.734   7.969  1.2141 -2.1993  2.6323
  600MOL0     H82738   8.507   2.563   7.920 -0.1404 -0.3957 -0.3105
  600MOL0     H82739   8.743   2.636   7.885 -0.8155  0.7140 -1.8969
  600MOL0     H82740   8.701   2.793   7.950 -0.7449  0.6615 -0.0763
  600MOL0     H82741   8.820   2.636   8.108 -0.0239 -0.9690  1.4130
  600MOL0     H82742   8.688   2.537   8.120 -1.6115  1.0091  0.6274
  600MOL0     H82743   8.686   2.812   8.210  0.5161  0.0749 -0.0314
  600MOL0     H82744   8.538   2.715   8.207 -0.5206 -2.6725  0.8635
  600MOL0     H82745   8.761   2.567   8.330 -2.8002 -2.4961 -0.7365
  600MOL0     H82746   8.602   2.570   8.364 -0.0553 -0.4056  0.9133
  600MOL0     H82747   8.781   2.801   8.452  0.8829 -0.3154 -0.2649
  600MOL0     H82748   8.605   2.811   8.463  0.1858 -0.7047 -0.8127
  600MOL0     H82749   8.508   2.597   8.606 -0.4151  1.3371 -0.0190
  600MOL0     H82750   8.631   2.355   8.879  0.3249 -0.0775  0.4201
  600MOL0     H82751   8.483   2.456   8.860  0.6202 -0.5799 -2.3560
  600MOL0     H82752   8.744   2.509   9.036  0.1309  2.7354  0.8458
  600MOL0     H82753   8.631   2.633   9.001 -1.8510 -0.5005  0.6592
  600MOL0     H82754   8.449   2.508   9.101  0.5758  0.1554 -2.7498
  600MOL0     H82755   8.550   2.360   9.125  3.8864 -0.9326 -0.1341
  600MOL0     H82756   8.595   2.648   9.237 -1.8982  0.9790 -1.3438
  600MOL0     H82757   8.533   2.522   9.336  3.3044 -2.9284  2.2303
  600MOL0     H82758   8.541   2.300   9.363  0.0780 -0.1511 -2.9140
  600MOL0     H82759   8.524   2.003   9.379 -3.2453  2.1647  0.3462
  600MOL0     H82760   8.469   2.126   9.493 -0.1738 -0.0452 -2.2768
  600MOL0     H82761   8.569   1.997   9.548  1.1022  1.7227  2.0636
  600MOL0     H82762   8.919   1.736   9.269  0.7107  0.9320 -0.4050
  600MOL0     H82763   9.000   1.505   9.284 -1.2639 -1.5323  2.0495
  600MOL0     H82764   9.101   1.298   9.320  0.9585 -2.9670  1.2200
  600MOL0     H82765   9.239   1.403   9.259  1.6602  0.8827  1.5658
  600MOL0     H82766   9.257   1.148   9.423  3.4245 -1.0280  0.0232
  600MOL0     H82767   9.309   1.188   9.265 -2.0930 -1.1281  0.9829
  600MOL0     H82768   9.399   1.348   9.491 -0.8977  0.1855 -0.9867
  600MOL0     H82769   9.468   1.346   9.330 -0.1406  0.9915  0.5094
  600MOL0     H82770   9.493   1.125   9.541 -1.1136 -1.8814 -1.8399
  600MOL0     H82771   9.607   1.245   9.498 -0.2099 -0.6542 -0.1747
  600MOL0     H82772   9.483   1.014   9.338  0.3561 -0.3205 -1.2557
  600MOL0     H82773   9.591   1.121   9.249 -1.9081 -0.5907 -0.8415
  600MOL0     H82774   9.674   0.978   9.509 -1.1142 -4.7231 -1.6123
  600MOL0     H82775   9.779   1.067   9.395 -1.5880  1.8851 -0.0510
  600MOL0     H82776   9.702   0.900   9.216  1.6277  0.4777 -0.5834
  600MOL0     H82777   9.615   0.820   9.341  0.8875 -0.8328 -0.2819
  600MOL0     H82778   9.821   0.764   9.461 -4.5166 -0.0107 -0.4077
  600MOL0     H82779   9.914   0.868   9.344 -1.4336  2.1846 -2.4130
  600MOL0     H82780   9.245   1.606   9.608 -1.4513  0.2927  0.7612
  600MOL0     H82781   9.156   1.857   9.600 -0.5991  0.1595  0.4532
  600MOL0     H82782   8.999   2.149   9.349  1.6971  3.1148  2.1766
  600MOL0     H82783   8.965   2.371   9.302  1.1222 -1.2690 -0.9754
  600MOL0     H82784   8.180   2.688   7.509  0.1503  1.8163 -0.8224
  600MOL0     H82785   7.956   2.765   7.480 -1.8350  0.1592 -0.0385
  600MOL0     H82786   7.498   2.808   7.677 -0.1327  0.4326  0.6540
  600MOL0     H82787   7.293   2.880   7.565 -0.3918 -0.0552  0.5153
  600MOL0     H82788   7.169   2.970   7.400 -2.2086  1.5072 -3.0943
  600MOL0     H82789   7.109   3.049   7.555 -0.1568  2.4986  0.8523
  600MOL0     H82790   7.093   3.135   7.258 -0.7735 -0.2576 -1.5463
  600MOL0     H82791   6.998   3.206   7.388  0.8400  0.3103  0.3023
  600MOL0     H82792   6.878   3.043   7.236 -0.3859  3.2661  0.6595
  600MOL0     H82793   6.963   2.901   7.308 -0.6177 -0.3938 -0.8917
  600MOL0     H82794   6.829   3.100   7.491 -2.0936 -0.1187 -0.0345
  600MOL0     H82795   6.847   2.931   7.519  1.8112 -1.1934 -1.7693
  600MOL0     H82796   6.471   3.009   7.335  0.7182  1.0266 -1.8159
  600MOL0     H82797   7.486   3.246   7.466  1.7545 -0.8115 -1.8408
  600MOL0     H82798   7.817   3.097   7.471 -0.2956 -0.8419  0.7679
  600MOL0     H82799   7.723   3.255   7.440 -0.8828 -0.0287  0.0282
  600MOL0     H82800   7.773   3.214   7.601  1.2960 -1.1657  0.6612
  601MOL0     O82801   4.845   3.182   6.752 -0.5536  0.0999 -0.1271
  601MOL0     C82802   4.881   3.163   6.867  0.5798 -0.2712  1.2704
  601MOL0     O82803   4.991   3.085   6.894 -0.1882  0.1303  0.0272
  601MOL0     C82804   5.100   3.073   6.811  0.1822 -0.1985 -0.2378
  601MOL0     C82805   5.122   3.150   6.695 -0.6417  0.2241 -0.3841
  601MOL0     C82806   5.230   3.125   6.613 -0.3548 -0.1504  0.3727
  601MOL0     C82807   5.323   3.023   6.640  0.4842 -0.4787  0.4963
  601MOL0     O82808   5.434   2.991   6.560 -0.2948  1.0540  0.4084
  601MOL0     C82809   5.476   3.079   6.463  0.0241  0.1282  0.5600
  601MOL0     C82810   5.589   3.031   6.370 -0.1943 -0.3471 -0.6174
  601MOL0     C82811   5.724   3.037   6.450  0.2782 -0.5745  0.5721
  601MOL0     C82812   5.847   3.021   6.363  0.5204 -0.3728  0.3940
  601MOL0     C82813   5.979   3.032   6.444 -0.2867 -0.0083  0.5760
  601MOL0     C82814   6.093   3.057   6.343  0.2475 -0.9616  1.1761
  601MOL0     C82815   6.130   2.928   6.280  0.6278  0.1356 -0.1792
  601MOL0     C82816   6.230   2.937   6.166  0.9350 -0.0551  1.0888
  601MOL0     N82817   6.365   2.988   6.204 -1.1018 -0.3811  0.3052
  601MOL0     C82818   6.448   2.962   6.313 -0.5360  0.2057 -0.2478
  601MOL0     C82819   6.547   3.054   6.303 -0.1074 -0.3328 -0.5545
  601MOL0     C82820   6.665   3.065   6.387  0.3095  0.6785 -0.2979
  601MOL0     C82821   6.724   3.199   6.405  0.0246 -1.2871  0.4875
  601MOL0     C82822   6.787   3.202   6.538 -0.2963 -0.6585  0.1351
  601MOL0     C82823   6.866   3.327   6.550 -0.5818 -0.0473 -0.6114
  601MOL0     O82824   6.970   3.319   6.448  0.6817  0.5213 -0.0079
  601MOL0     C82825   7.106   3.351   6.482 -0.1893 -0.2150 -0.0638
  601MOL0     C82826   7.214   3.270   6.469  0.7515  1.1418 -0.1030
  601MOL0     C82827   7.348   3.305   6.517 -0.3594  0.4409  0.4606
  601MOL0     C82828   7.461   3.212   6.487  0.0566 -0.0015 -0.5069
  601MOL0     C82829   7.358   3.426   6.585  0.8239  0.3396 -0.1463
  601MOL0     C82830   7.480   3.477   6.650 -0.8332 -0.0733 -0.6713
  601MOL0     O82831   7.480   3.616   6.661 -0.3379 -0.2887 -0.0568
  601MOL0     C82832   7.591   3.688   6.704 -0.4452  0.1090  1.1424
  601MOL0     C82833   7.675   3.742   6.596 -1.0753  0.2719  0.3980
  601MOL0     C82834   7.788   3.815   6.638 -0.3934  0.7261  0.4284
  601MOL0     C82835   7.810   3.842   6.775 -0.4685 -0.5982 -0.7934
  601MOL0     O82836   7.910   3.928   6.810  0.4731  0.3489  0.2340
  601MOL0     C82837   7.878   4.069   6.811 -0.5272 -0.5089 -0.0743
  601MOL0     C82838   8.014   4.145   6.844  0.7386  0.4661  0.3604
  601MOL0     C82839   8.031   4.257   6.741 -0.0527  0.2326 -0.2846
  601MOL0     C82840   8.170   4.336   6.769 -0.6825  0.0117 -0.3732
  601MOL0     C82841   8.177   4.457   6.671 -0.0670  0.1920 -0.6026
  601MOL0     C82842   8.310   4.531   6.693  0.4850  0.5054 -0.3215
  601MOL0     C82843   8.344   4.575   6.833 -0.5104 -0.0215  0.2651
  601MOL0     C82844   8.452   4.682   6.836 -0.4941  0.3879 -0.0260
  601MOL0    Cl82845   8.611   4.613   6.793 -0.3040 -0.1778  0.1160
  601MOL0     C82846   7.726   3.790   6.877 -0.9969 -0.7952 -0.0005
  601MOL0     C82847   7.618   3.716   6.836  0.1528 -0.3477  0.4163
  601MOL0     O82848   7.571   3.403   6.697  0.1758  0.2331 -0.3626
  601MOL0     C82849   7.244   3.509   6.595 -0.7139 -0.1166  0.5815
  601MOL0     C82850   7.123   3.479   6.539 -0.0694  0.0848  1.2451
  601MOL0     N82851   6.513   3.144   6.203  0.3767  0.3557  0.5938
  601MOL0     N82852   6.406   3.105   6.155  0.4636  0.5854  0.8562
  601MOL0     C82853   5.297   2.941   6.747 -0.1803 -0.2960  0.0378
  601MOL0     C82854   5.194   2.971   6.837 -0.2148  0.2564  0.3382
  601MOL0     C82855   4.790   3.186   6.986  0.8546  0.2609  1.2814
  601MOL0     C82856   4.833   3.165   7.117  0.5021 -0.5581 -0.0928
  601MOL0     C82857   4.751   3.171   7.230  0.4659 -0.1430  0.8509
  601MOL0     C82858   4.624   3.216   7.220  0.5790  0.3404  0.6393
  601MOL0     O82859   4.541   3.234   7.316  0.2498 -0.0412 -0.5066
  601MOL0     C82860   4.583   3.225   7.449 -0.2206  0.0075  0.1061
  601MOL0     C82861   4.463   3.265   7.538 -0.4295  0.0531 -0.2801
  601MOL0     C82862   4.349   3.158   7.517 -0.1857  0.3349  0.3195
  601MOL0     C82863   4.218   3.185   7.600  0.7988  0.3263  0.0541
  601MOL0     C82864   4.135   3.295   7.535 -0.4189  1.0451  0.1133
  601MOL0     C82865   4.066   3.376   7.481 -0.1696 -0.1170  0.2594
  601MOL0     C82866   4.576   3.250   7.092 -0.1394 -0.7533 -1.3862
  601MOL0     C82867   4.654   3.235   6.979 -0.7584  0.1921  0.0543
  601MOL0     C82868   4.575   3.265   6.852  0.0828  0.2010 -0.2824
  601MOL0     H82869   5.060   3.237   6.679  0.1984  1.2065  1.4029
  601MOL0     H82870   5.249   3.193   6.530  2.5222 -0.8505  0.3516
  601MOL0     H82871   5.496   3.181   6.499  2.9702 -0.2736  0.3531
  601MOL0     H82872   5.391   3.096   6.396  0.6572 -0.2894 -0.3772
  601MOL0     H82873   5.571   2.927   6.340  3.8315 -0.8974 -1.6964
  601MOL0     H82874   5.596   3.090   6.278  1.4270  0.3348 -0.1063
  601MOL0     H82875   5.719   3.132   6.505 -4.8497 -1.7248  2.7037
  601MOL0     H82876   5.732   2.961   6.528  2.6241 -0.1560  0.8090
  601MOL0     H82877   5.842   2.928   6.305 -2.3791 -1.1317  1.6525
  601MOL0     H82878   5.837   3.107   6.296 -1.4574  1.9524  3.3580
  601MOL0     H82879   5.989   2.943   6.506 -0.2707 -1.7442 -1.7769
  601MOL0     H82880   5.987   3.121   6.507  2.4458  0.0077  0.3548
  601MOL0     H82881   6.058   3.136   6.275 -0.4781 -1.4620  0.9623
  601MOL0     H82882   6.184   3.101   6.385 -1.5875  4.1845  0.4772
  601MOL0     H82883   6.041   2.891   6.228 -0.0794  5.2234 -3.2502
  601MOL0     H82884   6.162   2.861   6.360 -3.9460 -2.4656 -0.1172
  601MOL0     H82885   6.245   2.839   6.121  1.0358 -0.3892  1.8379
  601MOL0     H82886   6.191   3.007   6.091 -3.0618 -2.0871  1.0187
  601MOL0     H82887   6.439   2.875   6.378 -1.9703  0.8028  0.3836
  601MOL0     H82888   6.742   2.998   6.347  2.3059  2.1762  0.7982
  601MOL0     H82889   6.635   3.017   6.481 -0.8119 -2.6988 -2.2139
  601MOL0     H82890   6.796   3.218   6.325  0.0244  0.4201  0.8499
  601MOL0     H82891   6.645   3.272   6.390 -1.7119 -3.0367  0.7353
  601MOL0     H82892   6.701   3.205   6.605 -1.5013 -0.6689 -1.3603
  601MOL0     H82893   6.850   3.113   6.551 -1.4900 -2.0833 -2.9438
  601MOL0     H82894   6.798   3.413   6.546 -2.8188 -1.5306  1.7119
  601MOL0     H82895   6.911   3.333   6.650 -3.0893 -2.1256  0.7753
  601MOL0     H82896   7.214   3.184   6.403  1.3430  0.6196  0.5669
  601MOL0     H82897   7.522   3.197   6.577 -0.7467 -0.3848 -0.0171
  601MOL0     H82898   7.518   3.268   6.412  0.2309 -0.6293 -0.8493
  601MOL0     H82899   7.419   3.119   6.450 -2.2639  1.9097 -3.0465
  601MOL0     H82900   7.653   3.731   6.491 -1.9538  2.4734  0.3130
  601MOL0     H82901   7.859   3.845   6.561 -1.0729 -0.3088 -0.6390
  601MOL0     H82902   7.850   4.088   6.707 -2.7751 -1.3247  0.3096
  601MOL0     H82903   7.794   4.109   6.870  1.3393  3.4688  0.2316
  601MOL0     H82904   8.009   4.184   6.946  2.1296 -2.2802  1.6041
  601MOL0     H82905   8.095   4.073   6.830 -1.4426 -2.1317  0.2807
  601MOL0     H82906   7.953   4.331   6.762  1.1871  0.7165  3.3079
  601MOL0     H82907   8.033   4.210   6.642  2.1538 -0.8965  0.2147
  601MOL0     H82908   8.256   4.274   6.743 -0.6491  0.2247 -0.7861
  601MOL0     H82909   8.166   4.375   6.871 -1.1190  1.5383 -0.9316
  601MOL0     H82910   8.169   4.435   6.564 -0.8923 -1.0048 -0.3174
  601MOL0     H82911   8.096   4.527   6.692  1.2177  1.2605  1.0197
  601MOL0     H82912   8.323   4.608   6.617 -0.1967  2.1854  1.1957
  601MOL0     H82913   8.387   4.461   6.660 -0.0618  1.1193 -3.2362
  601MOL0     H82914   8.379   4.490   6.893  1.9117  1.1203  0.6129
  601MOL0     H82915   8.258   4.621   6.883 -1.0472 -0.5236 -0.1798
  601MOL0     H82916   8.459   4.715   6.940  2.6137  0.2742 -0.0977
  601MOL0     H82917   8.425   4.769   6.775 -2.2879 -0.3454 -0.3321
  601MOL0     H82918   7.757   3.794   6.981 -1.5931  0.7896  0.1494
  601MOL0     H82919   7.558   3.673   6.915 -1.3918  0.3005 -0.3586
  601MOL0     H82920   7.253   3.605   6.644 -4.1807  0.1380  1.0189
  601MOL0     H82921   7.042   3.551   6.530 -0.6435 -0.5109  1.5719
  601MOL0     H82922   5.352   2.849   6.761  0.8965  0.0697 -1.5664
  601MOL0     H82923   5.182   2.905   6.922  2.6638 -1.5955 -0.5532
  601MOL0     H82924   4.938   3.139   7.125  0.3070 -1.1086  0.8753
  601MOL0     H82925   4.804   3.160   7.325 -1.2361  0.3706  1.8976
  601MOL0     H82926   4.605   3.119   7.464  0.2119  0.2041  0.9015
  601MOL0     H82927   4.673   3.284   7.470 -0.5968  0.1907  1.2216
  601MOL0     H82928   4.441   3.371   7.520  0.2585  0.6044  1.7262
  601MOL0     H82929   4.487   3.255   7.645  1.8128 -3.4508 -0.9801
  601MOL0     H82930   4.322   3.151   7.411 -0.0990 -1.5662  0.4025
  601MOL0     H82931   4.387   3.061   7.548  0.5015  0.4194 -0.2297
  601MOL0     H82932   4.240   3.218   7.702 -0.0350  0.5125  0.1793
  601MOL0     H82933   4.169   3.088   7.608  3.2260 -0.8115  3.2396
  601MOL0     H82934   3.997   3.434   7.423  0.0457  0.7652  0.8623
  601MOL0     H82935   4.478   3.294   7.078 -0.2890 -0.1954  1.0534
  601MOL0     H82936   4.533   3.172   6.815  0.7987 -0.5306  0.6973
  601MOL0     H82937   4.492   3.334   6.870 -0.6008 -0.4506 -0.8709
  601MOL0     H82938   4.637   3.304   6.770  1.2057  1.8566  1.2618
  602MOL0     O82939   0.188   5.218  10.035 -0.2935  0.1275  0.4654
  602MOL0     C82940   0.100   5.189  10.123  0.0594 -0.0397  0.0478
  602MOL0     O82941   0.123   5.083  10.206  0.7310 -0.2051  0.4080
  602MOL0     C82942   0.245   5.048  10.225 -0.3364 -0.1948  0.1821
  602MOL0     C82943   0.317   5.117  10.328  0.3736 -0.5252 -0.2761
  602MOL0     C82944   0.451   5.082  10.355  0.3115 -0.4003 -0.4502
  602MOL0     C82945   0.510   4.984  10.277 -0.0893  0.6580 -0.4208
  602MOL0     O82946   0.634   4.940  10.310 -0.1431  0.6095 -0.2005
  602MOL0     C82947   0.737   4.940  10.207  0.0774  1.4240  0.6562
  602MOL0     C82948   0.863   4.988  10.266  0.3218 -0.1715  0.0164
  602MOL0     C82949   0.974   4.994  10.160  0.8423 -0.4401  0.2144
  602MOL0     C82950   1.095   5.046  10.219  0.5631  0.2195 -0.0543
  602MOL0     C82951   1.216   5.060  10.136 -0.9268 -0.1635  0.7146
  602MOL0     C82952   1.279   4.921  10.101  0.2499 -0.4646 -0.1062
  602MOL0     C82953   1.401   4.936  10.009  0.1591 -0.6228 -0.0783
  602MOL0     C82954   1.511   5.007  10.087  0.5907  0.4450  0.6791
  602MOL0     N82955   1.641   4.998  10.018 -0.1721 -0.0246 -0.2464
  602MOL0     C82956   1.762   5.014  10.075  0.9106  0.5462  0.1501
  602MOL0     C82957   1.857   5.020   9.979  0.4506  0.6083 -0.1369
  602MOL0     C82958   2.006   5.043  10.000  0.1174  0.2813  0.0846
  602MOL0     C82959   2.046   5.167  10.078 -0.1473 -0.2594 -0.5768
  602MOL0     C82960   2.199   5.178  10.084  0.0525  0.5445  0.1110
  602MOL0     C82961   2.223   5.333  10.101 -0.4806 -0.4966 -0.3352
  602MOL0     O82962   2.365   5.365  10.085  0.8875 -0.2600 -0.0283
  602MOL0     C82963   2.457   5.292  10.149 -0.7344  0.8744 -1.3058
  602MOL0     C82964   2.463   5.247  10.281  0.1917  1.1024 -0.1541
  602MOL0     C82965   2.568   5.164  10.323  0.2562  0.1362 -0.2945
  602MOL0     C82966   2.557   5.121  10.471 -0.0582 -0.1105  0.4065
  602MOL0     C82967   2.673   5.124  10.234  1.0699  0.7766 -0.6214
  602MOL0     C82968   2.783   5.030  10.282  0.0171 -0.5242 -0.0611
  602MOL0     O82969   2.852   4.968  10.182  0.2727  0.6847 -0.4039
  602MOL0     C82970   2.977   4.920  10.213  0.8308  0.0996  0.0482
  602MOL0     C82971   3.011   4.827  10.318 -0.1334 -0.0696  0.7432
  602MOL0     C82972   3.148   4.809  10.347 -0.0998  0.3524 -0.4518
  602MOL0     C82973   3.248   4.876  10.271 -0.1555  0.5349  0.1427
  602MOL0     O82974   3.383   4.873  10.289 -0.2569  1.3086  0.0777
  602MOL0     C82975   3.430   4.844  10.421  0.1405  0.3925  0.6351
  602MOL0     C82976   3.579   4.845  10.389 -0.2054  0.6012  0.4004
  602MOL0     C82977   3.627   4.990  10.351  0.5682 -0.2113 -0.4722
  602MOL0     C82978   3.778   4.966  10.344  0.6289  0.3478  0.1487
  602MOL0     C82979   3.850   5.094  10.287  0.8585 -0.4343 -0.2596
  602MOL0     C82980   3.991   5.057  10.257  0.4281  0.0750 -0.5932
  602MOL0     C82981   4.064   5.017  10.382  0.0145 -0.3200  0.4899
  602MOL0     C82982   4.219   5.013  10.361 -0.3481 -0.5443 -0.6927
  602MOL0    Cl82983   4.285   4.925  10.221 -0.1745 -0.0087 -0.0790
  602MOL0     C82984   3.199   4.954  10.158 -0.4952  0.6153 -0.0386
  602MOL0     C82985   3.068   4.977  10.135 -0.0390  0.0284 -0.5114
  602MOL0     O82986   2.810   5.026  10.404  0.8119 -0.0342 -0.6364
  602MOL0     C82987   2.652   5.162  10.104  0.3822  0.5279 -0.3113
  602MOL0     C82988   2.549   5.243  10.059 -0.3031  0.2211 -0.3077
  602MOL0     N82989   1.781   4.989   9.865  0.4045  0.2968  0.3282
  602MOL0     N82990   1.653   4.989   9.888 -0.4558 -0.1219  0.0306
  602MOL0     C82991   0.446   4.916  10.174  0.0277  0.1839 -0.1786
  602MOL0     C82992   0.312   4.953  10.140  0.1055 -0.3102 -0.7224
  602MOL0     C82993  -0.023   5.269  10.141  0.3014  0.5888  0.0598
  602MOL0     C82994  -0.124   5.210  10.222  0.3727  0.2448 -0.3876
  602MOL0     C82995  -0.244   5.274  10.243  0.3503  1.1020 -0.0900
  602MOL0     C82996  -0.270   5.402  10.184 -0.1439  0.6729 -0.0528
  602MOL0     O82997  -0.393   5.459  10.198 -0.1736 -0.1401  0.0790
  602MOL0     C82998  -0.448   5.520  10.086  0.0434  0.2892  1.0584
  602MOL0     C82999  -0.594   5.504  10.092  0.0539 -0.2937 -0.6486
  602MOL0     C83000  -0.669   5.552  10.219  0.0789 -0.4317 -0.3170
  602MOL0     C83001  -0.815   5.585  10.191 -0.2991  0.1943  0.3159
  602MOL0     C83002  -0.893   5.600  10.315 -0.0093  0.4345 -0.8204
  602MOL0     C83003  -0.947   5.597  10.422  0.0505  0.3141 -0.2434
  602MOL0     C83004  -0.165   5.463  10.105 -0.2982  0.7436 -0.3864
  602MOL0     C83005  -0.036   5.401  10.091 -0.2085  0.5728 -0.6066
  602MOL0     C83006   0.074   5.479  10.020 -0.4887 -0.0464 -0.3846
  602MOL0     H83007   0.274   5.194  10.391  0.9146 -2.4548  2.6873
  602MOL0     H83008   0.498   5.136  10.436 -1.9909  1.1966 -0.0908
  602MOL0     H83009   0.723   5.012  10.125  0.1400 -0.6287 -1.2428
  602MOL0     H83010   0.742   4.844  10.155  3.4457  1.5751  0.4742
  602MOL0     H83011   0.848   5.090  10.303 -2.3412 -0.3594 -0.3630
  602MOL0     H83012   0.887   4.915  10.344 -0.8810 -0.0448  0.5292
  602MOL0     H83013   0.983   4.893  10.119 -3.9153 -1.9407  2.1802
  602MOL0     H83014   0.952   5.061  10.077  3.4186  1.2434  0.7749
  602MOL0     H83015   1.068   5.139  10.269 -1.0577 -0.8793  1.2403
  602MOL0     H83016   1.118   4.973  10.297  1.1425  0.1911 -0.2471
  602MOL0     H83017   1.289   5.121  10.189  0.2088 -0.7328 -0.1233
  602MOL0     H83018   1.197   5.107  10.039  0.7847 -2.1753 -0.7107
  602MOL0     H83019   1.315   4.871  10.192  2.9194  1.5129  0.0768
  602MOL0     H83020   1.201   4.857  10.059 -1.9376  0.1358  2.6881
  602MOL0     H83021   1.377   4.988   9.916 -0.9829  1.9754  1.5519
  602MOL0     H83022   1.438   4.837   9.979 -2.4927 -1.3180 -1.3093
  602MOL0     H83023   1.478   5.111  10.102 -0.1186  0.5387 -1.2578
  602MOL0     H83024   1.529   4.960  10.184 -0.8510 -0.5046  0.5059
  602MOL0     H83025   1.772   5.018  10.183 -0.5888 -2.5766  0.5162
  602MOL0     H83026   2.040   5.046   9.896 -1.5260 -3.6771 -0.7538
  602MOL0     H83027   2.044   4.950  10.044  1.0386  0.5573 -0.1108
  602MOL0     H83028   2.005   5.253  10.024  2.8770  1.1423 -0.8216
  602MOL0     H83029   2.004   5.163  10.179 -0.6538 -1.5227 -0.8169
  602MOL0     H83030   2.247   5.120  10.164 -1.1593  0.6775  0.9556
  602MOL0     H83031   2.253   5.153   9.992  0.6588 -0.7352  0.7843
  602MOL0     H83032   2.166   5.403  10.039 -2.7940 -2.8478 -1.0670
  602MOL0     H83033   2.185   5.350  10.202 -0.2285  0.9180 -0.4678
  602MOL0     H83034   2.392   5.279  10.356  1.3296 -0.7798  1.8401
  602MOL0     H83035   2.590   5.018  10.489 -0.1587 -0.8710 -3.0600
  602MOL0     H83036   2.450   5.108  10.492  0.1132 -4.1220 -0.4262
  602MOL0     H83037   2.609   5.198  10.527  0.3168  1.9141 -2.5021
  602MOL0     H83038   2.933   4.791  10.383 -0.3101  1.7683  1.6157
  602MOL0     H83039   3.167   4.747  10.434  0.9449  0.7752 -0.3647
  602MOL0     H83040   3.387   4.928  10.476  0.8524  2.0066 -1.1783
  602MOL0     H83041   3.401   4.744  10.454 -1.3666 -0.0873 -1.8960
  602MOL0     H83042   3.641   4.817  10.474  2.8008 -0.0853 -1.8620
  602MOL0     H83043   3.598   4.786  10.299  0.4597  1.2759  0.0866
  602MOL0     H83044   3.611   5.056  10.437 -0.4363 -0.9403 -0.0853
  602MOL0     H83045   3.561   5.031  10.275 -2.8752  0.1657  2.4560
  602MOL0     H83046   3.810   4.885  10.278  0.1545  2.0385 -2.2701
  602MOL0     H83047   3.812   4.953  10.447  3.0264  0.2003 -0.6155
  602MOL0     H83048   3.805   5.136  10.196  0.1169  2.6260  1.3850
  602MOL0     H83049   3.862   5.172  10.363 -3.8685  0.5924 -0.2490
  602MOL0     H83050   4.036   5.152  10.225  2.5232  0.0231  1.8949
  602MOL0     H83051   3.993   4.980  10.179 -0.6204 -0.3455 -0.2291
  602MOL0     H83052   4.031   4.918  10.416 -3.2901  1.3899  2.7371
  602MOL0     H83053   4.055   5.089  10.464 -0.3646  0.8325 -0.5398
  602MOL0     H83054   4.255   4.967  10.453  2.0189  2.1411 -0.1223
  602MOL0     H83055   4.256   5.116  10.355 -1.4402 -0.1538 -1.1861
  602MOL0     H83056   3.269   4.999  10.089  0.5113  0.6781  0.9885
  602MOL0     H83057   3.039   5.041  10.052  1.2721  2.1910  0.6113
  602MOL0     H83058   2.731   5.138  10.033 -0.7053 -0.1538 -1.3205
  602MOL0     H83059   2.545   5.273   9.954 -1.9760 -3.2902 -1.3872
  602MOL0     H83060   0.495   4.828  10.132 -0.4732 -0.1748 -0.0262
  602MOL0     H83061   0.256   4.907  10.059  0.1108  0.8570 -1.4197
  602MOL0     H83062  -0.107   5.114  10.269  1.2120 -0.0266 -1.2217
  602MOL0     H83063  -0.329   5.234  10.297  1.7473  0.2374  1.5623
  602MOL0     H83064  -0.422   5.626  10.091 -1.7039  0.8284 -0.4089
  602MOL0     H83065  -0.410   5.481   9.991 -1.7261  0.1865  0.3680
  602MOL0     H83066  -0.619   5.401  10.068 -0.0675  0.3917 -3.8305
  602MOL0     H83067  -0.637   5.566  10.013  1.5039  0.2264 -1.0607
  602MOL0     H83068  -0.684   5.469  10.290 -0.9805  0.3077  0.3494
  602MOL0     H83069  -0.621   5.638  10.265  1.2592 -1.2796  0.0954
  602MOL0     H83070  -0.864   5.507  10.134 -1.0301 -1.3540  2.8877
  602MOL0     H83071  -0.809   5.682  10.141 -0.1937  0.8537  1.5634
  602MOL0     H83072  -0.999   5.598  10.515 -0.7679  2.5589 -0.6544
  602MOL0     H83073  -0.190   5.565  10.077 -1.1090  0.0653 -2.2206
  602MOL0     H83074   0.164   5.491  10.082 -0.2351  1.8792 -1.0450
  602MOL0     H83075   0.088   5.431   9.923 -0.7671 -1.3281  0.1863
  602MOL0     H83076   0.038   5.582  10.006  1.4385  1.1840  2.5757
  603MOL0     O83077   3.173   7.232   7.099 -0.4923 -0.0217 -0.5717
  603MOL0     C83078   3.104   7.272   7.012 -0.5222 -0.2085 -0.0101
  603MOL0     O83079   3.152   7.286   6.879 -0.6899  0.0183  0.3046
  603MOL0     C83080   3.286   7.262   6.855 -0.0791 -0.9323 -0.9720
  603MOL0     C83081   3.354   7.363   6.784  0.1077 -0.0020  0.5054
  603MOL0     C83082   3.493   7.348   6.747  0.5568  0.6240  0.1615
  603MOL0     C83083   3.564   7.221   6.784  0.5900 -0.3814  0.1855
  603MOL0     O83084   3.688   7.199   6.746 -0.1554 -0.4488 -0.9334
  603MOL0     C83085   3.778   7.314   6.757  0.0808  0.8626  0.6980
  603MOL0     C83086   3.926   7.263   6.734 -0.0978  0.2493  0.1423
  603MOL0     C83087   3.969   7.250   6.583 -0.9860  0.3221 -0.4311
  603MOL0     C83088   4.109   7.178   6.571 -0.3478 -0.0395  0.9520
  603MOL0     C83089   4.218   7.253   6.637  0.3892 -0.2236  0.0503
  603MOL0     C83090   4.350   7.183   6.604  0.0599 -0.8407  0.4510
  603MOL0     C83091   4.461   7.237   6.688  0.0307  0.0704 -0.8552
  603MOL0     C83092   4.583   7.144   6.683 -0.3274  0.0845  0.0489
  603MOL0     N83093   4.710   7.209   6.705  0.0904 -0.4305 -0.4667
  603MOL0     C83094   4.765   7.245   6.827  0.2921  1.5069  0.0134
  603MOL0     C83095   4.868   7.331   6.811 -0.6891 -0.3088  1.0159
  603MOL0     C83096   4.979   7.351   6.920  0.0102 -0.1231 -0.1669
  603MOL0     C83097   5.107   7.390   6.847  0.1479 -0.8661  0.3253
  603MOL0     C83098   5.191   7.274   6.796 -0.4678  0.4023  0.2751
  603MOL0     C83099   5.295   7.334   6.697  0.6570  0.3799  0.0584
  603MOL0     O83100   5.422   7.364   6.755  0.0422  0.6865 -0.1441
  603MOL0     C83101   5.519   7.442   6.696  0.0639 -0.0183 -0.4529
  603MOL0     C83102   5.519   7.488   6.570  0.6029 -0.6099 -0.0948
  603MOL0     C83103   5.634   7.553   6.520  0.7054 -0.4152  0.2997
  603MOL0     C83104   5.630   7.610   6.384 -0.0938  0.4392 -0.1489
  603MOL0     C83105   5.750   7.563   6.602  0.0544 -0.3354  0.0299
  603MOL0     C83106   5.876   7.622   6.568  0.7291 -0.4910  0.7891
  603MOL0     O83107   5.989   7.591   6.639 -0.3683 -0.3098 -0.4540
  603MOL0     C83108   6.101   7.675   6.652 -0.5826  0.2005 -0.3036
  603MOL0     C83109   6.204   7.616   6.718  0.1110  0.5391 -0.4461
  603MOL0     C83110   6.324   7.681   6.740  0.9304  0.0912  0.5473
  603MOL0     C83111   6.349   7.802   6.681  0.1259 -1.0949 -0.4235
  603MOL0     O83112   6.467   7.850   6.717  0.2763  0.5142 -0.0338
  603MOL0     C83113   6.495   7.990   6.701 -0.6952 -0.4287  0.4838
  603MOL0     C83114   6.643   8.022   6.735  0.3262  0.2225 -0.8338
  603MOL0     C83115   6.705   7.969   6.867  0.6362 -0.3492  0.6621
  603MOL0     C83116   6.621   8.006   6.991  1.1202  0.1640 -0.9406
  603MOL0     C83117   6.687   7.974   7.125 -0.1662  0.6781  0.0751
  603MOL0     C83118   6.711   7.823   7.142  0.0529  0.0015  0.7520
  603MOL0     C83119   6.806   7.798   7.265  0.7910  0.7770 -0.2785
  603MOL0     C83120   6.941   7.860   7.263 -0.3901  0.2632  0.5882
  603MOL0    Cl83121   7.033   7.800   7.404 -0.3147  1.2197  0.0298
  603MOL0     C83122   6.242   7.870   6.614  0.1390  0.8066  0.5063
  603MOL0     C83123   6.123   7.803   6.599  0.4824  0.3134  0.0355
  603MOL0     O83124   5.878   7.710   6.477 -0.4919 -0.0149 -0.1615
  603MOL0     C83125   5.738   7.514   6.733 -0.2798  0.6297  0.2394
  603MOL0     C83126   5.629   7.446   6.779  0.5090  0.5914  0.5153
  603MOL0     N83127   4.863   7.360   6.669 -0.0063 -0.1240 -0.8264
  603MOL0     N83128   4.782   7.286   6.610 -0.4356 -0.0350  0.4748
  603MOL0     C83129   3.489   7.130   6.864 -0.3407  0.2179  1.6610
  603MOL0     C83130   3.354   7.151   6.895  0.9456  0.2257 -0.5955
  603MOL0     C83131   2.964   7.307   7.035 -0.4231  0.3884  0.6024
  603MOL0     C83132   2.865   7.286   6.935  0.4353 -0.4512 -0.3362
  603MOL0     C83133   2.722   7.311   6.958 -0.3975  0.3465  0.0613
  603MOL0     C83134   2.677   7.335   7.086 -0.3397 -0.0794  0.3908
  603MOL0     O83135   2.550   7.367   7.117  0.0397 -0.4566  0.3833
  603MOL0     C83136   2.443   7.351   7.025  0.8550 -0.8900  0.9678
  603MOL0     C83137   2.330   7.460   7.040  0.1730 -0.6189  0.0350
  603MOL0     C83138   2.216   7.431   6.957  0.5528 -0.8112  0.6570
  603MOL0     C83139   2.102   7.540   6.955  0.9199 -0.4020 -0.8479
  603MOL0     C83140   2.055   7.567   7.093 -0.4244  1.2170  0.2629
  603MOL0     C83141   2.026   7.581   7.212 -0.3762  0.4794  0.1365
  603MOL0     C83142   2.773   7.347   7.187  0.8151 -0.2672 -0.0247
  603MOL0     C83143   2.912   7.342   7.166 -1.2778 -0.5611  0.1952
  603MOL0     C83144   2.982   7.366   7.293 -0.4575 -0.4913 -0.8962
  603MOL0     H83145   3.297   7.446   6.743 -1.9865 -1.0301  1.1842
  603MOL0     H83146   3.540   7.433   6.699  4.0639  0.6524  3.1357
  603MOL0     H83147   3.772   7.366   6.853 -4.3900 -1.7707  2.0926
  603MOL0     H83148   3.763   7.390   6.680  1.1539 -0.2853 -0.6997
  603MOL0     H83149   3.994   7.330   6.786  1.8463  0.9151 -2.9691
  603MOL0     H83150   3.936   7.163   6.776 -1.9656 -0.5035 -1.0345
  603MOL0     H83151   3.889   7.199   6.530 -2.0886 -0.5542  1.9405
  603MOL0     H83152   3.972   7.352   6.542 -1.1645  0.1910 -0.7717
  603MOL0     H83153   4.110   7.081   6.621  4.0179 -0.7063 -0.0398
  603MOL0     H83154   4.123   7.156   6.465  0.5734 -1.6220  1.3665
  603MOL0     H83155   4.203   7.250   6.746 -2.6133  0.0585 -0.2673
  603MOL0     H83156   4.233   7.352   6.593  5.6413 -0.1213  1.4147
  603MOL0     H83157   4.339   7.078   6.632 -0.6811 -0.9289 -0.1260
  603MOL0     H83158   4.376   7.207   6.501  2.0429 -0.4163  1.0180
  603MOL0     H83159   4.428   7.249   6.792 -0.2280  0.9606 -1.0371
  603MOL0     H83160   4.498   7.330   6.645 -0.5409 -0.1731 -1.9195
  603MOL0     H83161   4.570   7.062   6.755  1.4013  0.1073  0.4186
  603MOL0     H83162   4.573   7.082   6.594  0.6406  1.0093 -0.7265
  603MOL0     H83163   4.745   7.196   6.922  1.0493  2.5936  0.7534
  603MOL0     H83164   5.002   7.257   6.971 -1.5776 -1.3682 -1.6335
  603MOL0     H83165   4.944   7.422   6.996  1.4356 -0.8961  1.2718
  603MOL0     H83166   5.080   7.453   6.762  3.2647  0.0091 -0.1308
  603MOL0     H83167   5.169   7.441   6.921 -2.1125  0.6064  1.3198
  603MOL0     H83168   5.239   7.228   6.883  0.4192  1.6657  0.4738
  603MOL0     H83169   5.133   7.202   6.737  0.9446  0.7007 -1.5571
  603MOL0     H83170   5.307   7.268   6.611 -2.3806  0.9872 -0.9878
  603MOL0     H83171   5.269   7.433   6.656  0.9754  0.4973  0.1429
  603MOL0     H83172   5.432   7.465   6.509 -0.4187 -1.7708  1.7175
  603MOL0     H83173   5.533   7.603   6.334 -0.6627 -1.3995  1.1054
  603MOL0     H83174   5.704   7.554   6.326  1.4323  1.3480  0.8598
  603MOL0     H83175   5.656   7.715   6.401  1.0076  0.1854 -0.1469
  603MOL0     H83176   6.187   7.514   6.750  0.3234  0.9049  0.9007
  603MOL0     H83177   6.405   7.631   6.792  1.3470  0.1188 -0.0630
  603MOL0     H83178   6.487   8.028   6.599 -0.7843  0.5880  0.8649
  603MOL0     H83179   6.435   8.057   6.763 -1.3773 -0.2671 -0.3314
  603MOL0     H83180   6.709   7.986   6.656  1.5988 -1.3253  0.8446
  603MOL0     H83181   6.652   8.131   6.733 -0.0349  0.2544 -0.8638
  603MOL0     H83182   6.805   8.011   6.873  0.1673  0.5497  2.8130
  603MOL0     H83183   6.709   7.862   6.843 -1.6736 -0.1842 -0.7745
  603MOL0     H83184   6.529   7.946   6.982 -0.1565  2.0726 -1.1591
  603MOL0     H83185   6.597   8.113   6.986 -0.8475 -0.0183  2.2223
  603MOL0     H83186   6.783   8.026   7.131  0.3644 -0.2321 -0.2138
  603MOL0     H83187   6.617   8.004   7.203 -1.4728 -0.9350 -0.4209
  603MOL0     H83188   6.757   7.780   7.053  0.4366 -1.9243  1.8198
  603MOL0     H83189   6.616   7.771   7.156 -0.0499 -0.2759 -0.8419
  603MOL0     H83190   6.824   7.691   7.257  0.7735  0.6417  1.3193
  603MOL0     H83191   6.757   7.822   7.359  3.0730  1.4354  0.8258
  603MOL0     H83192   6.938   7.969   7.261 -0.3543  0.4123  3.6287
  603MOL0     H83193   6.991   7.826   7.172 -1.0714  2.2184 -0.5725
  603MOL0     H83194   6.239   7.971   6.576 -3.5861  0.2992 -0.9069
  603MOL0     H83195   6.050   7.863   6.547  0.9067  1.2875  0.5414
  603MOL0     H83196   5.827   7.514   6.796  0.0136  1.7801 -0.1617
  603MOL0     H83197   5.626   7.398   6.876  1.7414 -0.7482 -0.0901
  603MOL0     H83198   3.538   7.046   6.913  2.8795  0.3031 -1.0457
  603MOL0     H83199   3.296   7.081   6.955 -0.9241  2.1286 -0.0455
  603MOL0     H83200   2.895   7.249   6.838 -2.0444 -0.3671 -1.2238
  603MOL0     H83201   2.662   7.292   6.870  0.5257 -2.1224 -0.1228
  603MOL0     H83202   2.478   7.353   6.922  1.3956 -2.7120  1.0870
  603MOL0     H83203   2.387   7.258   7.041  0.2242 -0.5914  0.5307
  603MOL0     H83204   2.367   7.560   7.016 -2.7515  0.1674 -1.7787
  603MOL0     H83205   2.299   7.453   7.145  0.9256 -1.1195  0.2272
  603MOL0     H83206   2.240   7.423   6.850  0.0687  0.6788  0.4119
  603MOL0     H83207   2.161   7.340   6.979  0.1820 -0.9509 -0.7063
  603MOL0     H83208   2.014   7.511   6.897 -2.4572  0.4122  3.3250
  603MOL0     H83209   2.136   7.634   6.911  1.7164  0.3716  1.3064
  603MOL0     H83210   2.004   7.616   7.311 -2.5511 -2.4118  0.8012
  603MOL0     H83211   2.733   7.349   7.288  1.6341 -0.2325  0.3010
  603MOL0     H83212   2.991   7.276   7.354 -3.4559  0.6352  1.4832
  603MOL0     H83213   3.081   7.409   7.278  0.6145 -0.2323  4.7775
  603MOL0     H83214   2.920   7.435   7.352  1.0137  0.0121  0.1168
  604MOL0     O83215   0.241   2.101   4.744  0.1434  0.0686 -0.3744
  604MOL0     C83216   0.196   2.177   4.659 -0.0555 -0.0526  0.1857
  604MOL0     O83217   0.259   2.288   4.611 -0.1404 -0.0182  0.5989
  604MOL0     C83218   0.391   2.315   4.645 -0.7964 -0.2699  0.3637
  604MOL0     C83219   0.484   2.324   4.545  0.6366  0.0850  0.1880
  604MOL0     C83220   0.622   2.332   4.569  0.6462  0.6526 -0.4640
  604MOL0     C83221   0.666   2.352   4.700 -0.3061  0.3048 -0.3636
  604MOL0     O83222   0.805   2.337   4.716  0.9155 -0.5292  0.0169
  604MOL0     C83223   0.847   2.355   4.849 -0.8128 -0.1160  0.0816
  604MOL0     C83224   0.995   2.348   4.865  0.1991 -0.1270  0.5488
  604MOL0     C83225   1.071   2.443   4.776  0.3681 -0.4649  0.0492
  604MOL0     C83226   1.203   2.488   4.838 -0.0577  0.2702 -0.3476
  604MOL0     C83227   1.292   2.542   4.732 -0.4140 -0.7888 -0.1498
  604MOL0     C83228   1.421   2.596   4.798  0.1902 -0.2593  0.3483
  604MOL0     C83229   1.521   2.643   4.689 -0.0441  1.2821 -0.3376
  604MOL0     C83230   1.641   2.705   4.765 -0.1074  0.0237  0.1180
  604MOL0     N83231   1.772   2.685   4.697 -0.3265  0.0597 -0.2123
  604MOL0     C83232   1.845   2.576   4.698 -0.4534 -0.3073  0.0334
  604MOL0     C83233   1.955   2.601   4.625 -0.4878 -0.1923  0.6674
  604MOL0     C83234   2.083   2.517   4.595 -0.0150  0.2137 -0.3996
  604MOL0     C83235   2.062   2.361   4.613  0.1017  0.0515 -0.1137
  604MOL0     C83236   2.173   2.272   4.544 -0.5564  0.7785 -0.2837
  604MOL0     C83237   2.312   2.297   4.596  0.6999  0.0430  0.0215
  604MOL0     O83238   2.395   2.204   4.539 -0.3758 -0.4477  0.3847
  604MOL0     C83239   2.528   2.203   4.591  0.3821  0.2351 -0.2836
  604MOL0     C83240   2.578   2.085   4.640  0.0613 -0.2423  0.1555
  604MOL0     C83241   2.709   2.071   4.688  0.0112 -0.0225 -0.2728
  604MOL0     C83242   2.738   1.934   4.747 -0.0366  0.4156  0.0459
  604MOL0     C83243   2.796   2.181   4.682 -0.0139  0.3467 -1.3446
  604MOL0     C83244   2.927   2.180   4.750 -1.2215  0.4395  0.0499
  604MOL0     O83245   2.979   2.296   4.806 -0.3886 -0.1610  0.0680
  604MOL0     C83246   3.056   2.277   4.909 -0.3103 -0.0071 -0.7162
  604MOL0     C83247   3.197   2.251   4.897 -0.0133  0.4051 -0.2907
  604MOL0     C83248   3.273   2.244   5.013  0.1766 -0.4534  0.5664
  604MOL0     C83249   3.221   2.264   5.138  0.5380  0.3078  0.5023
  604MOL0     O83250   3.303   2.235   5.247  0.4001  0.7376 -0.1933
  604MOL0     C83251   3.387   2.347   5.279  0.4034  0.5481 -0.4063
  604MOL0     C83252   3.471   2.314   5.401 -0.2698 -0.0019  0.1106
  604MOL0     C83253   3.586   2.222   5.367 -1.0749 -0.1135 -0.5150
  604MOL0     C83254   3.704   2.224   5.472  0.6522 -0.0027 -0.0856
  604MOL0     C83255   3.801   2.110   5.446  0.4275  1.0677 -0.5594
  604MOL0     C83256   3.948   2.135   5.477 -0.0099 -0.6798 -0.6354
  604MOL0     C83257   4.031   2.014   5.443  0.9967  0.0012 -0.0938
  604MOL0     C83258   4.184   2.052   5.461 -0.1460 -0.9566 -0.8496
  604MOL0    Cl83259   4.223   2.111   5.631 -0.0972  0.0229 -0.2305
  604MOL0     C83260   3.085   2.292   5.152 -0.5547 -0.8762 -0.3802
  604MOL0     C83261   3.011   2.314   5.034 -0.1697 -0.2785 -0.3283
  604MOL0     O83262   2.987   2.076   4.742 -0.6009  0.0574 -0.3910
  604MOL0     C83263   2.744   2.306   4.638  0.5974 -0.0708  0.1330
  604MOL0     C83264   2.612   2.311   4.591 -0.9457 -0.9847 -0.0631
  604MOL0     N83265   1.953   2.737   4.590 -0.1446  0.0222 -0.3203
  604MOL0     N83266   1.846   2.789   4.636  0.3693  0.9000  0.6644
  604MOL0     C83267   0.571   2.355   4.807 -0.4727  0.2128  0.2775
  604MOL0     C83268   0.438   2.323   4.774  0.4692 -0.4685  0.0743
  604MOL0     C83269   0.067   2.158   4.582  0.3049  0.2321 -0.6097
  604MOL0     C83270   0.046   2.239   4.468 -0.1623 -0.6504  0.6274
  604MOL0     C83271  -0.069   2.232   4.397 -0.2905 -0.5429 -0.0391
  604MOL0     C83272  -0.161   2.129   4.422 -0.7874  0.3529 -0.4466
  604MOL0     O83273  -0.258   2.107   4.331 -0.0046 -0.2786 -0.2207
  604MOL0     C83274  -0.387   2.048   4.362 -0.9925 -0.7598  0.3112
  604MOL0     C83275  -0.395   1.914   4.290  0.0816 -0.4621  0.3002
  604MOL0     C83276  -0.441   1.930   4.143 -1.4135 -0.4146 -0.1932
  604MOL0     C83277  -0.521   1.804   4.094 -0.1391 -0.0572  0.5104
  604MOL0     C83278  -0.610   1.860   3.992  0.1517  0.3248 -0.2928
  604MOL0     C83279  -0.690   1.906   3.911  0.0816 -0.3632  0.5359
  604MOL0     C83280  -0.141   2.050   4.532 -0.4632 -0.2910  0.3569
  604MOL0     C83281  -0.031   2.061   4.618  0.2515  0.4824 -0.4071
  604MOL0     C83282  -0.018   1.966   4.730 -0.1286 -0.2421 -0.4875
  604MOL0     H83283   0.443   2.307   4.446 -2.1147  2.0997  0.8670
  604MOL0     H83284   0.682   2.306   4.483  0.1578 -2.7871  0.0555
  604MOL0     H83285   0.801   2.277   4.911 -0.2911  0.1084  0.7591
  604MOL0     H83286   0.813   2.451   4.888 -2.5077  0.0900 -1.7150
  604MOL0     H83287   1.024   2.371   4.968 -1.5865 -2.3315  1.6634
  604MOL0     H83288   1.018   2.241   4.859  0.5579 -0.1631  2.1439
  604MOL0     H83289   1.097   2.391   4.683 -0.3996 -1.6269  0.4557
  604MOL0     H83290   1.018   2.535   4.749 -1.8708 -1.8304 -0.4319
  604MOL0     H83291   1.191   2.557   4.921 -2.2025 -2.2059  1.5632
  604MOL0     H83292   1.252   2.397   4.872 -4.2863 -1.3644  2.0703
  604MOL0     H83293   1.245   2.620   4.671 -0.7211 -2.0809 -1.6061
  604MOL0     H83294   1.324   2.467   4.659  4.1129  1.1935 -0.5475
  604MOL0     H83295   1.396   2.675   4.870  0.1554  0.8117 -0.8115
  604MOL0     H83296   1.469   2.514   4.851 -3.2891 -2.0374  1.0196
  604MOL0     H83297   1.475   2.715   4.621  2.3836  3.0740 -0.2051
  604MOL0     H83298   1.562   2.562   4.629  2.1761  0.8487  1.5969
  604MOL0     H83299   1.618   2.811   4.783  1.5800  0.7952 -1.8509
  604MOL0     H83300   1.649   2.664   4.866 -0.8400  0.3815  0.3304
  604MOL0     H83301   1.812   2.485   4.748 -2.8422 -0.8420 -2.3314
  604MOL0     H83302   2.158   2.538   4.672  0.3118 -3.5600  0.5259
  604MOL0     H83303   2.121   2.545   4.497 -1.4757  1.2254 -0.7120
  604MOL0     H83304   2.046   2.343   4.720 -2.2846 -0.5190 -0.5124
  604MOL0     H83305   1.966   2.334   4.568  0.2032 -0.5219  0.0075
  604MOL0     H83306   2.143   2.169   4.563 -1.0184  0.9530 -0.0611
  604MOL0     H83307   2.167   2.288   4.436 -0.3556  2.4518 -0.0728
  604MOL0     H83308   2.330   2.403   4.574 -2.1419  0.4304 -0.8615
  604MOL0     H83309   2.313   2.283   4.704 -1.0760 -0.7652 -0.0277
  604MOL0     H83310   2.503   2.009   4.658 -1.6577  1.7712  2.0674
  604MOL0     H83311   2.791   1.941   4.842 -0.7241 -1.0589  0.5588
  604MOL0     H83312   2.803   1.881   4.676 -2.9618 -1.7170 -1.2648
  604MOL0     H83313   2.646   1.876   4.760 -0.6045  1.1028 -0.7613
  604MOL0     H83314   3.236   2.233   4.798 -1.2461 -1.2945 -0.5204
  604MOL0     H83315   3.378   2.215   5.010 -0.0935 -1.5351 -2.7544
  604MOL0     H83316   3.443   2.380   5.191 -1.1223  0.4072 -1.4556
  604MOL0     H83317   3.322   2.434   5.294 -2.0680 -1.1823 -0.5938
  604MOL0     H83318   3.500   2.410   5.444 -1.1987  0.2269  0.2419
  604MOL0     H83319   3.406   2.256   5.467 -1.4014 -0.4783 -1.3635
  604MOL0     H83320   3.638   2.245   5.274 -0.5546 -0.3124 -0.2809
  604MOL0     H83321   3.537   2.126   5.350 -2.2831  0.6915 -1.7527
  604MOL0     H83322   3.667   2.227   5.575  1.4102  0.7675  0.1780
  604MOL0     H83323   3.759   2.318   5.461  1.2570 -0.4705 -1.1092
  604MOL0     H83324   3.769   2.028   5.511  0.4417  3.1326  2.2614
  604MOL0     H83325   3.798   2.076   5.342  0.8190  1.8102 -0.8212
  604MOL0     H83326   3.954   2.159   5.583 -1.1054 -2.3774 -0.1553
  604MOL0     H83327   3.984   2.223   5.423  0.6459  0.5126  1.6050
  604MOL0     H83328   4.003   1.984   5.341 -0.2368 -0.5370  0.3839
  604MOL0     H83329   4.007   1.935   5.515 -0.6605 -0.5881 -1.2134
  604MOL0     H83330   4.211   2.138   5.400 -0.0070  1.0485  1.8766
  604MOL0     H83331   4.250   1.971   5.428 -0.6892 -0.4153 -3.5275
  604MOL0     H83332   3.037   2.300   5.249 -1.4126 -1.6829 -0.7118
  604MOL0     H83333   2.906   2.337   5.050  0.6057  2.9327  0.9533
  604MOL0     H83334   2.812   2.389   4.624  1.6202 -0.9718 -0.3565
  604MOL0     H83335   2.591   2.411   4.556 -0.2557 -0.9188 -0.3101
  604MOL0     H83336   0.592   2.371   4.912 -0.9496  2.5026  0.0758
  604MOL0     H83337   0.368   2.312   4.855  0.3594  0.0743  0.0520
  604MOL0     H83338   0.118   2.312   4.433 -0.0628 -0.4194  1.2932
  604MOL0     H83339  -0.061   2.297   4.311 -1.4486  0.6498  0.7279
  604MOL0     H83340  -0.396   2.035   4.470  0.7840 -1.7881  0.3787
  604MOL0     H83341  -0.458   2.126   4.333  1.6673  1.3101 -1.0874
  604MOL0     H83342  -0.471   1.859   4.347  1.9560 -0.5910  2.8791
  604MOL0     H83343  -0.298   1.862   4.290  1.3653  1.8084  0.2633
  604MOL0     H83344  -0.497   2.022   4.126  1.7817  1.7432  0.1076
  604MOL0     H83345  -0.358   1.940   4.072 -0.4285  0.8563  1.0757
  604MOL0     H83346  -0.573   1.756   4.177  0.7845 -0.8519  0.6424
  604MOL0     H83347  -0.448   1.745   4.038  1.2081  0.5643  1.5393
  604MOL0     H83348  -0.763   1.952   3.849  0.9266  1.2281  0.6817
  604MOL0     H83349  -0.217   1.973   4.546 -3.2578  2.4510  1.6613
  604MOL0     H83350  -0.094   1.889   4.713 -0.1639 -0.9065  2.2036
  604MOL0     H83351   0.071   1.903   4.743 -0.8296 -0.8790  1.6631
  604MOL0     H83352  -0.047   2.008   4.827 -1.9952  1.2820 -1.6266
  605MOL0     O83353   5.695   1.040   7.604  0.0865  0.1628  0.0773
  605MOL0     C83354   5.626   1.144   7.626  0.0927 -0.1427 -0.3739
  605MOL0     O83355   5.671   1.257   7.662  0.1010 -0.0449  0.1797
  605MOL0     C83356   5.806   1.274   7.680  0.2758 -0.3434  0.4147
  605MOL0     C83357   5.857   1.288   7.812  0.2462  0.1073 -0.4636
  605MOL0     C83358   5.996   1.299   7.834  0.1291  0.5646  0.0891
  605MOL0     C83359   6.084   1.308   7.719 -0.1798 -0.3919  0.1299
  605MOL0     O83360   6.217   1.303   7.755 -0.0951 -0.3021 -0.2250
  605MOL0     C83361   6.323   1.357   7.668 -0.4097  0.7043 -0.8042
  605MOL0     C83362   6.450   1.297   7.730 -0.1919  0.9939  0.3488
  605MOL0     C83363   6.578   1.372   7.693 -0.3831 -0.2563  0.0866
  605MOL0     C83364   6.597   1.351   7.541 -0.5468  0.1713  0.1444
  605MOL0     C83365   6.744   1.374   7.488 -0.0143 -0.0562  0.6777
  605MOL0     C83366   6.737   1.424   7.338 -0.1565  0.4360  0.3539
  605MOL0     C83367   6.881   1.447   7.274  0.0993 -0.5975  1.0324
  605MOL0     C83368   6.951   1.571   7.324 -0.1867 -0.1569  0.4913
  605MOL0     N83369   7.091   1.573   7.273 -0.0894 -0.5554 -0.6555
  605MOL0     C83370   7.183   1.480   7.315 -0.4022  0.1722  1.2447
  605MOL0     C83371   7.294   1.517   7.248 -0.4818 -0.1523 -0.2789
  605MOL0     C83372   7.417   1.432   7.239  0.4477 -0.3499  0.1187
  605MOL0     C83373   7.541   1.505   7.281 -0.6593  0.0823 -0.0952
  605MOL0     C83374   7.668   1.410   7.274  0.1274 -0.4101  0.7063
  605MOL0     C83375   7.803   1.479   7.284  0.7293 -0.1772  0.0787
  605MOL0     O83376   7.792   1.598   7.207  0.0433  0.2312  0.5436
  605MOL0     C83377   7.898   1.684   7.202  0.1007 -0.4919  0.3267
  605MOL0     C83378   7.900   1.790   7.106  0.0921 -0.7602 -0.1856
  605MOL0     C83379   7.993   1.896   7.117  0.8794  0.2821  0.2017
  605MOL0     C83380   7.969   2.019   7.038  0.2107 -0.3211 -0.5154
  605MOL0     C83381   8.115   1.874   7.198 -0.4815 -0.4646  0.4018
  605MOL0     C83382   8.236   1.965   7.194 -0.3297 -0.2772 -0.7603
  605MOL0     O83383   8.323   1.973   7.304 -0.4972  0.3068 -0.2885
  605MOL0     C83384   8.450   2.020   7.302  0.1954  1.0536 -0.1953
  605MOL0     C83385   8.533   2.048   7.192  0.1818 -0.6657 -0.1402
  605MOL0     C83386   8.668   2.075   7.205 -0.1301 -0.0376 -0.0468
  605MOL0     C83387   8.726   2.095   7.333 -0.6667 -0.4789  0.3871
  605MOL0     O83388   8.856   2.145   7.355 -0.2013 -0.3241 -1.1817
  605MOL0     C83389   8.962   2.120   7.260  0.1905  0.7000  0.5256
  605MOL0     C83390   9.106   2.143   7.310 -0.2362 -0.0053 -0.5963
  605MOL0     C83391   9.216   2.112   7.217  0.4889 -0.0209  0.4508
  605MOL0     C83392   9.345   2.158   7.266 -0.8585  0.3862 -0.6964
  605MOL0     C83393   9.466   2.100   7.191  0.7389  0.5543  0.1111
  605MOL0     C83394   9.595   2.166   7.220 -0.2104  0.2854 -0.1214
  605MOL0     C83395   9.639   2.136   7.369 -1.1450 -0.7694 -0.2851
  605MOL0     C83396   9.772   2.207   7.387  0.1861 -0.6048  0.3407
  605MOL0    Cl83397   9.886   2.106   7.299  0.1537  0.4100 -0.4108
  605MOL0     C83398   8.648   2.073   7.445  1.2613 -0.5298  0.5540
  605MOL0     C83399   8.515   2.029   7.427 -0.2636 -0.7933 -0.8355
  605MOL0     O83400   8.250   2.035   7.093  0.4641  0.3315 -0.1903
  605MOL0     C83401   8.119   1.769   7.282  0.6368  0.8410 -0.4213
  605MOL0     C83402   8.006   1.685   7.292 -0.8036  0.3047 -0.0890
  605MOL0     N83403   7.269   1.633   7.173  0.5471  0.1009 -0.1200
  605MOL0     N83404   7.148   1.663   7.189 -0.0571  0.1131  0.5970
  605MOL0     C83405   6.026   1.307   7.588 -0.1034  1.0342 -1.1775
  605MOL0     C83406   5.889   1.285   7.571 -0.6157 -0.0165  0.7937
  605MOL0     C83407   5.482   1.135   7.596  0.4879  0.4611 -0.1650
  605MOL0     C83408   5.418   1.262   7.588  1.2279  0.7671  0.2380
  605MOL0     C83409   5.283   1.262   7.556 -0.2062 -0.2510  0.2159
  605MOL0     C83410   5.204   1.152   7.535  0.0787 -0.3355  0.5554
  605MOL0     O83411   5.071   1.145   7.508 -0.3489  0.2528  0.0870
  605MOL0     C83412   4.995   1.262   7.492 -0.2532 -0.0494 -0.2360
  605MOL0     C83413   4.848   1.217   7.492  1.0732 -0.1681 -0.0338
  605MOL0     C83414   4.786   1.157   7.623 -0.5497  0.3372 -0.0700
  605MOL0     C83415   4.692   1.040   7.623 -0.8928 -0.7410  0.1901
  605MOL0     C83416   4.760   0.923   7.567  0.5671 -0.3157 -0.6989
  605MOL0     C83417   4.826   0.838   7.521  0.2471  1.3206 -0.7527
  605MOL0     C83418   5.265   1.028   7.538  0.2723 -0.1626 -0.3178
  605MOL0     C83419   5.401   1.011   7.570 -0.4877 -1.2150  0.3792
  605MOL0     C83420   5.466   0.877   7.582 -0.5104  0.3053  0.1191
  605MOL0     H83421   5.786   1.292   7.894  0.0641  2.9955 -0.6485
  605MOL0     H83422   6.026   1.300   7.938 -1.8365  1.5209  0.7006
  605MOL0     H83423   6.322   1.466   7.663  1.2844  0.7712 -0.2132
  605MOL0     H83424   6.311   1.327   7.563 -0.4618  2.0866 -1.2134
  605MOL0     H83425   6.455   1.301   7.839  1.7123  1.4204  0.2712
  605MOL0     H83426   6.456   1.191   7.703  1.2992  1.2936 -0.6377
  605MOL0     H83427   6.591   1.477   7.719  4.6962 -0.9692  1.4965
  605MOL0     H83428   6.661   1.319   7.742 -0.4393 -0.4819 -0.0626
  605MOL0     H83429   6.559   1.253   7.511  0.1045  0.9473 -3.7298
  605MOL0     H83430   6.531   1.422   7.491  0.5269  1.3989  0.4027
  605MOL0     H83431   6.803   1.282   7.494  2.1518  1.3240  1.8193
  605MOL0     H83432   6.792   1.450   7.550  2.1597 -0.0292 -0.9067
  605MOL0     H83433   6.681   1.350   7.280  0.9847 -0.4922  0.3960
  605MOL0     H83434   6.690   1.523   7.332 -0.3250  0.3388  0.0521
  605MOL0     H83435   6.874   1.453   7.165  0.2123  1.0125  1.0934
  605MOL0     H83436   6.942   1.360   7.300  0.2328 -0.6653  0.5047
  605MOL0     H83437   6.907   1.664   7.285  0.6653 -0.4771 -1.3494
  605MOL0     H83438   6.944   1.576   7.433 -0.5205 -3.1361  0.6793
  605MOL0     H83439   7.163   1.398   7.384 -2.6007 -1.8305 -1.5333
  605MOL0     H83440   7.432   1.406   7.134 -0.3700  0.5275 -0.2304
  605MOL0     H83441   7.407   1.336   7.291  1.6447 -0.7966 -0.4231
  605MOL0     H83442   7.556   1.588   7.212  1.6755  1.0200  1.4313
  605MOL0     H83443   7.529   1.539   7.384  0.7917 -1.2275  0.5490
  605MOL0     H83444   7.668   1.320   7.336  0.2059 -0.2331  0.9655
  605MOL0     H83445   7.681   1.357   7.179  1.3274 -0.8413  1.0945
  605MOL0     H83446   7.833   1.507   7.386  1.9671 -0.4809 -0.1905
  605MOL0     H83447   7.874   1.412   7.236 -1.8402 -1.5172 -2.1286
  605MOL0     H83448   7.822   1.797   7.031 -0.0233  1.4153  0.0696
  605MOL0     H83449   7.995   2.102   7.103 -0.4387 -2.2941  2.4728
  605MOL0     H83450   7.862   2.032   7.020 -0.0936 -0.3651  1.1492
  605MOL0     H83451   8.025   2.022   6.944  0.0030  0.6601 -0.6206
  605MOL0     H83452   8.502   2.048   7.088  1.7393 -1.9846 -0.6567
  605MOL0     H83453   8.727   2.105   7.119  4.6731 -2.0604  2.1230
  605MOL0     H83454   8.956   2.018   7.221  0.8625  1.4363 -1.7263
  605MOL0     H83455   8.943   2.186   7.174 -3.1426  0.8606  1.2674
  605MOL0     H83456   9.114   2.248   7.340  2.7844 -0.5383  0.8541
  605MOL0     H83457   9.123   2.082   7.399  0.7749  0.0189 -0.7627
  605MOL0     H83458   9.195   2.172   7.128 -0.6761 -0.4671  0.4068
  605MOL0     H83459   9.217   2.007   7.185 -1.3557  1.0874 -3.9981
  605MOL0     H83460   9.353   2.121   7.368  3.6775  2.6382 -0.0175
  605MOL0     H83461   9.353   2.266   7.270  3.2909  0.2613 -1.6701
  605MOL0     H83462   9.481   1.993   7.206 -3.2294 -0.2453 -0.5867
  605MOL0     H83463   9.447   2.109   7.084  0.8727 -0.2758  0.0118
  605MOL0     H83464   9.592   2.271   7.192  1.2850  0.1561 -0.8467
  605MOL0     H83465   9.674   2.118   7.161 -0.6971 -0.3195 -0.2946
  605MOL0     H83466   9.667   2.033   7.390 -1.5175 -1.1807 -1.6771
  605MOL0     H83467   9.572   2.183   7.441 -0.1026 -2.1381  1.6646
  605MOL0     H83468   9.802   2.198   7.492  0.1012  0.7085  0.4859
  605MOL0     H83469   9.764   2.314   7.369 -0.9790 -0.4987  1.3159
  605MOL0     H83470   8.683   2.096   7.546 -1.0501 -0.4502  1.3822
  605MOL0     H83471   8.453   2.012   7.515 -1.3804 -0.5424 -1.5541
  605MOL0     H83472   8.184   1.760   7.368 -1.0695 -0.7801  0.7771
  605MOL0     H83473   8.007   1.617   7.377  0.7269 -1.7974 -1.6791
  605MOL0     H83474   6.101   1.313   7.511 -0.9717 -2.0269 -2.3804
  605MOL0     H83475   5.854   1.270   7.470 -1.1127 -2.0261  1.2319
  605MOL0     H83476   5.469   1.357   7.598 -1.1417  1.9912  1.4865
  605MOL0     H83477   5.238   1.361   7.555  0.0903 -0.1145 -0.8231
  605MOL0     H83478   5.018   1.337   7.568  2.2188  0.4257 -1.3583
  605MOL0     H83479   5.014   1.309   7.395 -0.4213  0.9900  0.2261
  605MOL0     H83480   4.828   1.148   7.410 -1.8601  0.4559  0.0625
  605MOL0     H83481   4.788   1.306   7.470 -2.7117 -2.5180  0.0541
  605MOL0     H83482   4.869   1.130   7.689 -0.7564  1.0534  0.4993
  605MOL0     H83483   4.733   1.239   7.674  1.0449 -0.5063  3.2264
  605MOL0     H83484   4.601   1.057   7.565 -0.3916  1.1453 -0.1029
  605MOL0     H83485   4.672   1.025   7.730  3.0770  1.2287  1.4387
  605MOL0     H83486   4.879   0.750   7.492 -0.5647 -0.0756  1.6721
  605MOL0     H83487   5.204   0.939   7.523  2.0550 -1.3545 -0.8820
  605MOL0     H83488   5.393   0.796   7.590 -1.5150  1.3754  3.5261
  605MOL0     H83489   5.529   0.871   7.493 -0.2173 -0.0319  0.3486
  605MOL0     H83490   5.522   0.858   7.673 -1.2209  0.4153  0.5873
  606MOL0     O83491  10.875   9.489   3.099  0.3923 -0.2673  0.0251
  606MOL0     C83492  10.974   9.467   3.163  0.2717  0.1200  0.6308
  606MOL0     O83493  10.970   9.422   3.293 -0.0242  0.2179  0.1922
  606MOL0     C83494  10.858   9.415   3.375  0.1164 -0.1766  0.3962
  606MOL0     C83495  10.842   9.315   3.461 -0.7409  0.0707 -0.3161
  606MOL0     C83496  10.745   9.308   3.562  0.5153  1.0609  0.3351
  606MOL0     C83497  10.640   9.405   3.557 -0.8887  1.3131 -0.3163
  606MOL0     O83498  10.530   9.389   3.638  0.1520  0.1066 -0.1318
  606MOL0     C83499  10.498   9.512   3.700  0.2897  0.2956  0.3785
  606MOL0     C83500  10.351   9.483   3.733  0.5325  0.3105  0.1070
  606MOL0     C83501  10.289   9.600   3.812 -1.3520  0.3607 -0.2706
  606MOL0     C83502  10.136   9.597   3.800  0.1085  0.6457 -0.2392
  606MOL0     C83503  10.087   9.732   3.843  0.4439 -0.3365  0.5299
  606MOL0     C83504   9.929   9.735   3.847 -0.0843  0.0989  0.3329
  606MOL0     C83505   9.876   9.833   3.944  0.0545  0.0063 -0.5537
  606MOL0     C83506   9.903   9.977   3.912  0.4333  0.0993 -0.0721
  606MOL0     N83507   9.818  10.027   3.802 -0.6030  0.1239 -0.8276
  606MOL0     C83508   9.711  10.116   3.820  0.2019  1.0743  0.5119
  606MOL0     C83509   9.665  10.142   3.694 -0.1572 -0.0359  0.9862
  606MOL0     C83510   9.540  10.220   3.650 -0.3626  0.2870 -0.1957
  606MOL0     C83511   9.453  10.114   3.573  0.2840 -0.5527 -0.6939
  606MOL0     C83512   9.314  10.177   3.528 -0.1736  0.5552  0.1078
  606MOL0     C83513   9.224  10.237   3.639 -1.0759  0.3188 -0.2574
  606MOL0     O83514   9.195  10.136   3.739  0.5731  0.1708 -0.1668
  606MOL0     C83515   9.098  10.154   3.826 -0.2469 -0.1970  0.3252
  606MOL0     C83516   8.969  10.167   3.780  0.9890 -0.2343  0.7328
  606MOL0     C83517   8.864  10.187   3.875 -0.2269  1.3343  0.3673
  606MOL0     C83518   8.720  10.201   3.817 -0.2326 -0.9667  0.5426
  606MOL0     C83519   8.894  10.195   4.014 -0.0046  0.5630  0.7954
  606MOL0     C83520   8.793  10.220   4.130  0.6262 -0.2771 -0.1771
  606MOL0     O83521   8.659  10.191   4.105 -0.0568 -0.1055 -0.4198
  606MOL0     C83522   8.548  10.214   4.188 -0.3649  0.1266  0.4773
  606MOL0     C83523   8.550  10.296   4.306 -0.2178 -0.4050 -0.8835
  606MOL0     C83524   8.431  10.314   4.380  0.0185 -0.0119  0.7110
  606MOL0     C83525   8.307  10.265   4.334 -0.0658 -0.3781  0.5119
  606MOL0     O83526   8.196  10.310   4.405  0.7123  0.7603  0.2337
  606MOL0     C83527   8.127  10.192   4.460 -0.4487  0.0632 -0.3811
  606MOL0     C83528   8.036  10.230   4.583 -0.5443 -0.0104 -0.0719
  606MOL0     C83529   7.975  10.368   4.556  0.4222  0.3699  0.5529
  606MOL0     C83530   7.861  10.390   4.661  0.1900 -0.0754  0.4379
  606MOL0     C83531   7.796  10.522   4.614  0.1530  0.9963  0.0756
  606MOL0     C83532   7.694  10.580   4.716 -0.2190  0.4992 -0.7461
  606MOL0     C83533   7.634  10.702   4.661 -0.2448 -0.8008 -0.3741
  606MOL0     C83534   7.527  10.756   4.757 -0.9326  0.4654 -0.0582
  606MOL0    Cl83535   7.478  10.910   4.693 -0.0048 -0.2233  0.1338
  606MOL0     C83536   8.306  10.195   4.217 -0.8603  0.2421  0.1655
  606MOL0     C83537   8.417  10.165   4.144 -1.5948 -0.2648  0.0568
  606MOL0     O83538   8.832  10.264   4.236 -0.4156 -0.2146  0.0174
  606MOL0     C83539   9.028  10.178   4.046  0.8160  0.8372 -0.4810
  606MOL0     C83540   9.130  10.156   3.958  0.2544 -0.1608 -0.5343
  606MOL0     N83541   9.751  10.078   3.608  0.7312 -0.1606 -0.6288
  606MOL0     N83542   9.831  10.006   3.672 -0.3140 -0.5199  0.2657
  606MOL0     C83543  10.644   9.505   3.451  0.0116  0.0217  0.5887
  606MOL0     C83544  10.755   9.511   3.369 -0.4018 -0.0075  1.0516
  606MOL0     C83545  11.109   9.495   3.115  0.3032 -0.8625  0.3089
  606MOL0     C83546  11.219   9.479   3.199  0.1529 -0.0342 -0.1156
  606MOL0     C83547  11.351   9.498   3.159 -0.0108 -0.2015  0.2696
  606MOL0     C83548  11.381   9.541   3.029  0.8831  0.8741 -0.2460
  606MOL0     O83549  11.516   9.553   3.000 -0.1206  0.0683  0.2356
  606MOL0     C83550  11.570   9.601   2.874  0.4470  0.3551  0.2472
  606MOL0     C83551  11.605   9.749   2.899  0.2263 -0.7309 -0.2800
  606MOL0     C83552  11.705   9.818   2.808  0.3061  0.7863  0.3462
  606MOL0     C83553  11.719   9.967   2.830 -0.6941 -0.2289 -0.5596
  606MOL0     C83554  11.608  10.048   2.787  0.7826  0.3288  0.6339
  606MOL0     C83555  11.529  10.112   2.731  0.9463 -0.1291  0.3193
  606MOL0     C83556  11.278   9.574   2.944  0.5339 -0.3825  0.3638
  606MOL0     C83557  11.140   9.555   2.986  0.4616  0.5972  0.5772
  606MOL0     C83558  11.035   9.590   2.887  0.1709 -0.0001 -0.5841
  606MOL0     H83559  10.923   9.242   3.464  1.8380  2.6655 -1.6208
  606MOL0     H83560  10.751   9.223   3.629 -2.0130 -1.0335 -1.8550
  606MOL0     H83561  10.500   9.604   3.641  3.1114  0.5900  0.7587
  606MOL0     H83562  10.559   9.524   3.790  0.9775  0.5111 -0.1097
  606MOL0     H83563  10.303   9.476   3.635  1.9235 -2.1327 -0.4791
  606MOL0     H83564  10.325   9.388   3.781 -0.5579  0.8373  0.5886
  606MOL0     H83565  10.325   9.584   3.913  0.0347  1.8663 -0.4809
  606MOL0     H83566  10.329   9.699   3.786 -0.7229  0.3158  0.5052
  606MOL0     H83567  10.101   9.572   3.699 -0.3784 -2.4276  0.5595
  606MOL0     H83568  10.099   9.519   3.869  0.1999  0.4871 -0.3688
  606MOL0     H83569  10.126   9.818   3.788  2.7326 -0.7676  1.3700
  606MOL0     H83570  10.133   9.742   3.942  3.3047 -1.2596 -0.6008
  606MOL0     H83571   9.881   9.762   3.753  2.1148  3.5982  0.0067
  606MOL0     H83572   9.900   9.634   3.876  1.8694 -0.5437  0.2023
  606MOL0     H83573   9.924   9.805   4.039 -1.1119  0.2263  0.1205
  606MOL0     H83574   9.770   9.806   3.938 -0.1447  0.7149 -0.3613
  606MOL0     H83575   9.882  10.025   4.008  3.2297  2.2215 -0.3795
  606MOL0     H83576  10.008   9.985   3.882 -0.1903  0.6505 -2.3205
  606MOL0     H83577   9.662  10.151   3.910 -0.4615  0.6379  0.3299
  606MOL0     H83578   9.569  10.290   3.572 -0.6330 -0.0387 -0.5966
  606MOL0     H83579   9.495  10.277   3.732  0.7679  0.3624  0.4010
  606MOL0     H83580   9.513  10.082   3.488 -1.9632 -2.0761 -1.8227
  606MOL0     H83581   9.434  10.035   3.646  1.5236  0.6911  1.0577
  606MOL0     H83582   9.333  10.254   3.452 -1.5476  0.5943 -0.2142
  606MOL0     H83583   9.240  10.112   3.481  0.9668 -0.2396 -0.6451
  606MOL0     H83584   9.267  10.331   3.674 -0.4807 -0.0003 -0.0993
  606MOL0     H83585   9.128  10.269   3.598 -0.6217  2.0405 -0.0249
  606MOL0     H83586   8.945  10.170   3.674  1.5742 -2.1777  0.5168
  606MOL0     H83587   8.697  10.307   3.830  2.0081 -0.6294  2.6612
  606MOL0     H83588   8.643  10.154   3.880 -0.1095  2.1095  3.2486
  606MOL0     H83589   8.712  10.184   3.709 -0.6465  3.1797 -0.2379
  606MOL0     H83590   8.644  10.320   4.353  0.0617 -1.5424 -0.8210
  606MOL0     H83591   8.431  10.358   4.480  0.3441  0.8077  0.3621
  606MOL0     H83592   8.051  10.163   4.387 -2.5603 -2.2441  2.4952
  606MOL0     H83593   8.198  10.116   4.495  0.9592  2.0460  1.3665
  606MOL0     H83594   7.964  10.147   4.584 -1.1996  0.5484  1.1255
  606MOL0     H83595   8.095  10.222   4.675 -0.9460 -1.4775  0.0873
  606MOL0     H83596   7.941  10.366   4.452  0.8741 -0.7096  0.4054
  606MOL0     H83597   8.052  10.446   4.558  1.2908 -0.3691 -1.5835
  606MOL0     H83598   7.904  10.412   4.759 -1.9734 -0.3325  1.4946
  606MOL0     H83599   7.790  10.307   4.666  0.0767  0.0228  0.4323
  606MOL0     H83600   7.864  10.596   4.570  1.0815 -0.1220 -0.4402
  606MOL0     H83601   7.737  10.500   4.524 -1.4855  4.7155  0.0378
  606MOL0     H83602   7.738  10.595   4.815 -1.1713 -0.3350 -0.1739
  606MOL0     H83603   7.621  10.500   4.737 -0.3054  1.0009  0.9883
  606MOL0     H83604   7.595  10.700   4.559 -4.0249  1.2739  0.8351
  606MOL0     H83605   7.719  10.771   4.659  1.4943 -2.8235 -0.3370
  606MOL0     H83606   7.570  10.770   4.856  2.8473  0.1779 -1.5064
  606MOL0     H83607   7.442  10.687   4.750 -0.9490  0.3671  0.9384
  606MOL0     H83608   8.214  10.166   4.167 -0.3017  2.4257 -2.3371
  606MOL0     H83609   8.409  10.117   4.047  0.6797 -1.1663  0.2498
  606MOL0     H83610   9.049  10.178   4.153  3.6818 -1.0478 -0.9085
  606MOL0     H83611   9.234  10.143   3.988 -0.1640 -0.2562  0.9607
  606MOL0     H83612  10.568   9.580   3.432 -3.9950 -3.1040  2.8916
  606MOL0     H83613  10.771   9.588   3.294  1.3049 -1.3039  0.0175
  606MOL0     H83614  11.213   9.445   3.302 -1.3660 -1.1717 -0.5480
  606MOL0     H83615  11.437   9.487   3.224 -0.3318  0.7504  0.8682
  606MOL0     H83616  11.646   9.540   2.825  0.4864  1.1635 -0.7413
  606MOL0     H83617  11.497   9.601   2.792  1.0621 -2.8614 -0.4178
  606MOL0     H83618  11.641   9.759   3.002 -3.7520  1.2932  1.0954
  606MOL0     H83619  11.508   9.798   2.900  0.8771  0.6302 -1.4194
  606MOL0     H83620  11.798   9.761   2.816  0.0428  0.0718 -1.3360
  606MOL0     H83621  11.669   9.806   2.706 -0.6756 -0.5587  0.8217
  606MOL0     H83622  11.807   9.994   2.770  0.2983 -0.3985  0.7548
  606MOL0     H83623  11.733   9.973   2.939 -2.5143  0.3271 -0.3300
  606MOL0     H83624  11.466  10.183   2.681  1.5002  0.4062  0.3643
  606MOL0     H83625  11.296   9.623   2.849  2.2331  1.8962  1.7627
  606MOL0     H83626  10.968   9.664   2.931  2.1710  0.3423  2.1353
  606MOL0     H83627  11.068   9.629   2.790 -3.4157 -3.3610 -3.4682
  606MOL0     H83628  10.973   9.503   2.863  2.9161 -2.4152  0.5012
  607MOL0     O83629   0.546   1.742   0.490 -0.1664 -0.5908 -0.5107
  607MOL0     C83630   0.484   1.636   0.502  0.0382 -0.6129 -0.2154
  607MOL0     O83631   0.538   1.515   0.480 -0.7659 -0.0572  0.7100
  607MOL0     C83632   0.671   1.504   0.457 -0.3721  0.5247  0.2335
  607MOL0     C83633   0.739   1.556   0.341  0.1898  0.1595 -0.0116
  607MOL0     C83634   0.872   1.542   0.334  0.1538 -0.9213 -0.3243
  607MOL0     C83635   0.949   1.470   0.429  0.0159 -0.1225  1.2748
  607MOL0     O83636   1.089   1.454   0.415  0.5636 -0.4979  0.3722
  607MOL0     C83637   1.164   1.539   0.337  0.6706 -0.7488 -0.0915
  607MOL0     C83638   1.312   1.509   0.353  0.3754  0.9709  0.1697
  607MOL0     C83639   1.386   1.646   0.326  0.1484 -0.5178  0.4081
  607MOL0     C83640   1.541   1.634   0.316  0.5956 -0.2007  0.3764
  607MOL0     C83641   1.594   1.620   0.458 -0.5842  1.0752  0.0881
  607MOL0     C83642   1.741   1.575   0.444  0.2274  0.1496 -0.5274
  607MOL0     C83643   1.813   1.577   0.576 -0.9781  0.2701  0.2290
  607MOL0     C83644   1.970   1.574   0.559  0.4362  0.9186  0.2180
  607MOL0     N83645   2.022   1.544   0.693 -0.5105  0.5281  0.4792
  607MOL0     C83646   2.091   1.628   0.778 -0.0745 -0.7541  0.7571
  607MOL0     C83647   2.128   1.540   0.875 -0.3282 -0.2141 -0.1941
  607MOL0     C83648   2.228   1.577   0.973 -0.0679  0.6023  0.2352
  607MOL0     C83649   2.279   1.467   1.075  0.0845 -0.4397  0.0973
  607MOL0     C83650   2.390   1.518   1.165 -0.0453  0.4989  0.4953
  607MOL0     C83651   2.392   1.444   1.298 -0.0164 -0.7706  0.2804
  607MOL0     O83652   2.503   1.492   1.382  0.5226  0.4108  0.4982
  607MOL0     C83653   2.629   1.449   1.376 -0.1221 -0.9914 -0.2788
  607MOL0     C83654   2.676   1.343   1.303  0.2387  0.6446 -0.7235
  607MOL0     C83655   2.808   1.301   1.311 -0.4207  0.2181  0.3594
  607MOL0     C83656   2.844   1.174   1.224 -1.4612  0.6260  0.2624
  607MOL0     C83657   2.896   1.364   1.405  0.8563 -0.1264 -0.6730
  607MOL0     C83658   3.033   1.324   1.433 -0.2016  0.8094 -0.6526
  607MOL0     O83659   3.068   1.319   1.558 -0.1287 -0.1902 -0.4150
  607MOL0     C83660   3.195   1.307   1.601  0.6574  0.5951 -0.1795
  607MOL0     C83661   3.272   1.195   1.586 -0.4103  0.3596  0.2137
  607MOL0     C83662   3.403   1.182   1.638  0.9888 -0.5433  0.0628
  607MOL0     C83663   3.454   1.274   1.718 -0.1093 -0.5010 -0.1818
  607MOL0     O83664   3.583   1.241   1.766  0.2252 -0.4902 -0.7231
  607MOL0     C83665   3.649   1.344   1.842  0.0086 -0.2579  0.3174
  607MOL0     C83666   3.784   1.290   1.891  0.1881  0.0728 -0.1385
  607MOL0     C83667   3.891   1.250   1.784  0.0709 -0.1516  0.0367
  607MOL0     C83668   4.018   1.220   1.860 -0.9979  0.8541 -0.9153
  607MOL0     C83669   4.136   1.172   1.763 -0.4389 -0.5719 -0.5580
  607MOL0     C83670   4.246   1.114   1.852  0.6442 -0.6549  2.2050
  607MOL0     C83671   4.354   1.043   1.770 -1.0457  0.3935 -1.0164
  607MOL0     C83672   4.414   1.136   1.659  0.0377 -0.6698 -0.2357
  607MOL0    Cl83673   4.498   1.279   1.736  0.4043 -0.2748  0.4441
  607MOL0     C83674   3.380   1.388   1.742  0.1315 -0.5536  0.1282
  607MOL0     C83675   3.252   1.404   1.684  0.4018  0.4956  0.3442
  607MOL0     O83676   3.111   1.313   1.335 -0.0442  0.2021 -0.4820
  607MOL0     C83677   2.842   1.476   1.479  0.2566  0.0045  1.4678
  607MOL0     C83678   2.713   1.516   1.470 -0.0361  0.2075 -0.7696
  607MOL0     N83679   2.093   1.415   0.849 -0.0178 -1.1007 -0.4189
  607MOL0     N83680   2.025   1.414   0.736  0.0425  0.3570 -0.3623
  607MOL0     C83681   0.880   1.409   0.530  0.0816  1.0800 -0.4820
  607MOL0     C83682   0.741   1.425   0.546  0.2411  0.2929 -0.0464
  607MOL0     C83683   0.345   1.642   0.535  0.2440  0.1435  0.5809
  607MOL0     C83684   0.277   1.521   0.547  0.6980  0.6314 -0.0903
  607MOL0     C83685   0.140   1.507   0.540 -0.0480  0.0583 -0.8650
  607MOL0     C83686   0.060   1.619   0.548  0.8691  0.9179 -0.0145
  607MOL0     O83687  -0.075   1.627   0.555 -0.2423  0.1190 -0.8593
  607MOL0     C83688  -0.141   1.505   0.589 -0.0644 -0.2289  0.6582
  607MOL0     C83689  -0.286   1.526   0.634  0.6111  0.0382  1.1849
  607MOL0     C83690  -0.375   1.562   0.515  0.3197  0.6831  0.1371
  607MOL0     C83691  -0.386   1.715   0.485 -0.2148  0.1079  0.2126
  607MOL0     C83692  -0.487   1.739   0.381  0.0658  1.1836 -1.0209
  607MOL0     C83693  -0.574   1.767   0.304  0.0133 -0.0373 -0.3730
  607MOL0     C83694   0.126   1.744   0.558  1.0256  0.4299  0.5296
  607MOL0     C83695   0.260   1.759   0.549  0.0559 -0.2866  0.7237
  607MOL0     C83696   0.307   1.901   0.532 -0.9264 -0.5967  0.6243
  607MOL0     H83697   0.685   1.619   0.271  1.6681  1.0105 -0.4161
  607MOL0     H83698   0.912   1.594   0.247 -4.9199  1.7863 -1.4250
  607MOL0     H83699   1.140   1.641   0.366  1.1102 -0.7553  0.3052
  607MOL0     H83700   1.133   1.526   0.233  0.3922  1.6334 -0.3691
  607MOL0     H83701   1.334   1.476   0.455  1.9899  0.1957 -0.3911
  607MOL0     H83702   1.342   1.437   0.276 -0.3746  0.7168  0.1059
  607MOL0     H83703   1.355   1.678   0.226  0.9827  0.1949  0.3640
  607MOL0     H83704   1.360   1.717   0.404 -0.2320 -2.7875  2.4663
  607MOL0     H83705   1.582   1.562   0.245 -0.1726 -0.0272 -0.2550
  607MOL0     H83706   1.580   1.728   0.274 -0.5248  0.4933  0.8395
  607MOL0     H83707   1.531   1.546   0.507  1.6691 -0.0901  1.3833
  607MOL0     H83708   1.585   1.711   0.520 -4.0647  2.3462 -2.0219
  607MOL0     H83709   1.747   1.478   0.393  1.4690 -1.4251  2.3321
  607MOL0     H83710   1.799   1.645   0.382  2.6108 -1.2138  0.0321
  607MOL0     H83711   1.775   1.482   0.612 -0.8952 -0.5130 -1.6138
  607MOL0     H83712   1.786   1.657   0.646  0.3837  1.3418 -0.4087
  607MOL0     H83713   2.005   1.497   0.490  0.7542  0.7056  0.6129
  607MOL0     H83714   2.004   1.674   0.532 -0.8166  1.6276  1.1114
  607MOL0     H83715   2.110   1.735   0.766 -1.1524 -0.7178 -1.1889
  607MOL0     H83716   2.187   1.660   1.031  2.1113 -0.1614  3.0426
  607MOL0     H83717   2.314   1.611   0.915  1.1839 -0.8794  1.1720
  607MOL0     H83718   2.192   1.440   1.135 -0.2332 -0.4681 -0.3758
  607MOL0     H83719   2.312   1.379   1.020 -0.9221 -1.8863  1.7139
  607MOL0     H83720   2.482   1.504   1.107 -0.1201 -0.2606  0.5546
  607MOL0     H83721   2.373   1.621   1.196 -0.2493  0.0802  1.8325
  607MOL0     H83722   2.298   1.458   1.352  0.9398  0.4748  1.7295
  607MOL0     H83723   2.406   1.337   1.283 -3.2202 -1.2593  0.1436
  607MOL0     H83724   2.607   1.288   1.240  0.2920  1.1762 -1.2595
  607MOL0     H83725   2.756   1.126   1.179 -0.9441 -0.5220  0.4281
  607MOL0     H83726   2.886   1.098   1.292  0.5470  1.8701  0.4938
  607MOL0     H83727   2.926   1.205   1.159  0.3878  1.3360  2.7848
  607MOL0     H83728   3.239   1.111   1.526 -3.0998  0.9303  0.7530
  607MOL0     H83729   3.455   1.093   1.605  3.2048  1.7283 -3.1815
  607MOL0     H83730   3.660   1.435   1.782 -0.1840 -0.5427 -0.1497
  607MOL0     H83731   3.590   1.372   1.930 -4.5793 -3.1797 -1.4740
  607MOL0     H83732   3.833   1.349   1.969  0.8344 -2.3921  1.4286
  607MOL0     H83733   3.765   1.199   1.948  4.5755 -0.5312  0.7424
  607MOL0     H83734   3.910   1.337   1.721 -2.1506  3.0365  3.3634
  607MOL0     H83735   3.853   1.159   1.735  1.1157  0.0893 -1.2827
  607MOL0     H83736   3.993   1.140   1.931 -0.4518  1.0387 -0.5106
  607MOL0     H83737   4.060   1.306   1.912  2.7027 -1.4800  0.3592
  607MOL0     H83738   4.103   1.092   1.695  0.9027 -1.9650  0.3624
  607MOL0     H83739   4.159   1.257   1.699  3.2613 -1.1198 -0.1694
  607MOL0     H83740   4.212   1.042   1.927  3.9990 -3.2209  1.5070
  607MOL0     H83741   4.296   1.196   1.904 -0.0854  0.1055  1.7408
  607MOL0     H83742   4.316   0.947   1.733  1.1769 -2.2239  2.8228
  607MOL0     H83743   4.440   1.018   1.832 -0.4910 -1.0491 -2.2828
  607MOL0     H83744   4.338   1.172   1.588  2.5681  2.9223 -1.4198
  607MOL0     H83745   4.485   1.085   1.593  1.5808  1.7169 -0.5332
  607MOL0     H83746   3.413   1.476   1.796  0.2406 -0.1218 -0.6203
  607MOL0     H83747   3.196   1.493   1.713  0.0254  0.5140 -0.4347
  607MOL0     H83748   2.923   1.522   1.534  1.4136  1.0383 -0.9252
  607MOL0     H83749   2.679   1.595   1.535 -0.7413 -0.7396  0.0506
  607MOL0     H83750   0.930   1.361   0.613 -2.3423  2.6859  2.1126
  607MOL0     H83751   0.693   1.389   0.637  0.3706 -2.9417 -1.1146
  607MOL0     H83752   0.334   1.429   0.543 -0.2670 -0.1432  2.4306
  607MOL0     H83753   0.102   1.405   0.543  3.6700 -1.4799  0.9927
  607MOL0     H83754  -0.131   1.442   0.500  3.5167 -0.1084  0.8448
  607MOL0     H83755  -0.099   1.452   0.675 -1.3465 -1.8030  0.3547
  607MOL0     H83756  -0.290   1.602   0.712  2.8051  2.4213 -0.8340
  607MOL0     H83757  -0.321   1.433   0.680  0.1874  0.5287  1.8579
  607MOL0     H83758  -0.346   1.508   0.424  1.1947 -0.9559  1.3566
  607MOL0     H83759  -0.474   1.525   0.542  0.4648 -1.7094 -2.1925
  607MOL0     H83760  -0.286   1.750   0.458 -0.8920  1.9879 -0.0123
  607MOL0     H83761  -0.422   1.764   0.576  0.8834 -0.1892  0.8219
  607MOL0     H83762  -0.641   1.807   0.231 -0.2781  0.3372  0.0966
  607MOL0     H83763   0.065   1.834   0.565  0.5047  0.1183  0.0645
  607MOL0     H83764   0.396   1.923   0.590  0.0764  1.7464 -1.6084
  607MOL0     H83765   0.330   1.915   0.426 -0.2551 -1.3861  0.6584
  607MOL0     H83766   0.228   1.968   0.567  0.6740  1.2691  0.8058
  608MOL0     O83767   3.090   4.480   6.762 -0.2500 -0.1715  0.1188
  608MOL0     C83768   3.042   4.509   6.867  0.3375 -0.7811  0.7749
  608MOL0     O83769   3.097   4.569   6.976 -0.4735 -0.3398 -0.7010
  608MOL0     C83770   3.230   4.581   7.004 -0.7620  0.1170  0.9605
  608MOL0     C83771   3.343   4.520   6.934  0.0699  0.0124 -0.0870
  608MOL0     C83772   3.478   4.557   6.964 -0.0997  0.8638  0.3289
  608MOL0     C83773   3.508   4.649   7.065 -0.1289 -0.2162  0.1294
  608MOL0     O83774   3.633   4.707   7.083  0.4722  0.0847  0.1397
  608MOL0     C83775   3.725   4.700   6.974  0.4042 -0.1805 -0.9868
  608MOL0     C83776   3.851   4.792   6.990  0.4433  0.4422  0.1945
  608MOL0     C83777   3.950   4.775   6.868  0.5659  0.1476 -0.9571
  608MOL0     C83778   4.058   4.882   6.881 -0.2687  0.8154 -0.6853
  608MOL0     C83779   4.169   4.860   6.776 -0.3369 -0.9523 -0.4604
  608MOL0     C83780   4.290   4.953   6.803  0.4507  0.0270  0.5484
  608MOL0     C83781   4.417   4.925   6.716 -0.0340 -0.2516 -0.2450
  608MOL0     C83782   4.520   5.044   6.718 -0.3063  0.2396  0.0827
  608MOL0     N83783   4.648   4.997   6.656  0.2002 -0.8963 -0.1306
  608MOL0     C83784   4.651   4.960   6.525  0.8207 -1.1869 -0.9153
  608MOL0     C83785   4.769   4.888   6.511  0.4409 -0.5486  0.1419
  608MOL0     C83786   4.822   4.850   6.368 -0.0298 -0.2969  1.0531
  608MOL0     C83787   4.970   4.832   6.353 -0.3160  0.4076  0.2761
  608MOL0     C83788   5.013   4.829   6.207  0.3863 -0.2311 -0.1614
  608MOL0     C83789   5.161   4.809   6.181  0.2064  0.1426  0.1329
  608MOL0     O83790   5.238   4.903   6.254 -0.4722  0.2953  0.3471
  608MOL0     C83791   5.350   4.937   6.193 -1.0622 -0.6777  0.0219
  608MOL0     C83792   5.403   5.061   6.240  0.6538 -0.1436  0.1663
  608MOL0     C83793   5.526   5.112   6.192  0.7778  0.3858 -0.3104
  608MOL0     C83794   5.567   5.249   6.254 -0.4908 -0.4523  0.4111
  608MOL0     C83795   5.595   5.040   6.091 -0.1957  0.0652  0.5347
  608MOL0     C83796   5.719   5.098   6.031 -0.6579 -0.3786  0.4252
  608MOL0     O83797   5.773   5.021   5.928  0.3951 -0.1503 -0.4961
  608MOL0     C83798   5.905   5.035   5.886 -0.0883 -0.6662  0.0056
  608MOL0     C83799   6.016   5.057   5.974 -1.0469  1.2256  0.9431
  608MOL0     C83800   6.144   5.045   5.927 -0.2743  0.6060 -0.5285
  608MOL0     C83801   6.169   5.015   5.796  1.2601 -0.0702 -0.2240
  608MOL0     O83802   6.295   4.999   5.763  0.0116 -0.5341  0.1788
  608MOL0     C83803   6.336   5.013   5.627  0.6163 -0.0541  0.1774
  608MOL0     C83804   6.489   4.988   5.608  0.4365 -0.4190  0.2287
  608MOL0     C83805   6.543   4.883   5.704 -0.0713 -0.0846 -0.2400
  608MOL0     C83806   6.690   4.868   5.677  0.6174  0.3587 -0.3670
  608MOL0     C83807   6.751   4.757   5.768 -0.1706  0.4506 -0.7982
  608MOL0     C83808   6.904   4.743   5.768 -0.1946 -0.1148  0.0942
  608MOL0     C83809   6.965   4.715   5.629 -0.1322  0.1857  0.3152
  608MOL0     C83810   6.965   4.829   5.523 -0.4597 -0.7886  0.4525
  608MOL0    Cl83811   7.121   4.833   5.445  0.4367  0.1370  0.1945
  608MOL0     C83812   6.066   5.000   5.704  0.3800  0.5267  0.0319
  608MOL0     C83813   5.924   5.010   5.749 -0.9534 -0.0784 -0.1319
  608MOL0     O83814   5.759   5.210   6.048  0.0182  0.1032  0.4085
  608MOL0     C83815   5.540   4.918   6.048  0.1562 -0.1411  0.6547
  608MOL0     C83816   5.418   4.866   6.094 -1.0907 -0.9967 -0.0506
  608MOL0     N83817   4.831   4.884   6.640  0.6069  0.3763  0.4541
  608MOL0     N83818   4.758   4.949   6.722 -0.0496 -0.3456 -0.1302
  608MOL0     C83819   3.400   4.718   7.123 -0.8403 -0.3031  0.5107
  608MOL0     C83820   3.261   4.682   7.099 -0.3857 -0.2002 -0.1649
  608MOL0     C83821   2.900   4.488   6.892  0.3061 -0.0181  0.1290
  608MOL0     C83822   2.843   4.525   7.014  0.8582  0.5824  0.4441
  608MOL0     C83823   2.710   4.506   7.039  0.9836  0.4006  0.3395
  608MOL0     C83824   2.624   4.449   6.939 -0.7088  0.0049 -0.6181
  608MOL0     O83825   2.494   4.424   6.970 -0.3969  0.1206  0.1092
  608MOL0     C83826   2.403   4.511   6.893  0.3566 -0.4209 -0.8369
  608MOL0     C83827   2.276   4.518   6.968 -0.1821  0.1582  0.1583
  608MOL0     C83828   2.213   4.390   7.014  0.1633  0.1877  0.0843
  608MOL0     C83829   2.208   4.288   6.902  0.4777  0.0654 -0.5210
  608MOL0     C83830   2.099   4.325   6.809  0.5445  0.3893 -0.1131
  608MOL0     C83831   2.014   4.379   6.743 -0.5364  0.5968 -0.6219
  608MOL0     C83832   2.684   4.411   6.820 -0.0321 -0.0380  0.1372
  608MOL0     C83833   2.817   4.422   6.792  0.1490  0.0050 -0.6802
  608MOL0     C83834   2.858   4.380   6.656 -0.2758 -0.7858  0.3424
  608MOL0     H83835   3.333   4.446   6.856 -2.0554  0.4154 -0.2525
  608MOL0     H83836   3.557   4.508   6.908 -0.3377 -0.4977  1.1394
  608MOL0     H83837   3.673   4.737   6.885  0.6078 -0.6353 -1.2982
  608MOL0     H83838   3.752   4.594   6.979 -1.9626 -0.7977  2.3986
  608MOL0     H83839   3.815   4.893   7.010  3.3480  1.8895 -1.2530
  608MOL0     H83840   3.897   4.752   7.081  0.2573 -2.0121 -0.7202
  608MOL0     H83841   3.980   4.670   6.865 -2.5291 -0.7987 -1.2494
  608MOL0     H83842   3.903   4.790   6.770 -0.7023  2.2326 -0.0853
  608MOL0     H83843   4.025   4.986   6.884  1.4612  1.4490  3.5498
  608MOL0     H83844   4.100   4.890   6.982 -1.4868 -1.0856  0.0470
  608MOL0     H83845   4.126   4.878   6.677 -2.9474  0.5964  0.8342
  608MOL0     H83846   4.200   4.755   6.776  0.1633 -0.8494 -2.3906
  608MOL0     H83847   4.255   5.054   6.780 -1.8733 -0.7202  0.5019
  608MOL0     H83848   4.307   4.955   6.911  1.6005  1.9409  0.3751
  608MOL0     H83849   4.399   4.900   6.611  0.2860 -2.1473  0.1216
  608MOL0     H83850   4.475   4.842   6.757  2.3150  1.5701  0.3504
  608MOL0     H83851   4.488   5.132   6.662  3.6053  1.9747  0.2750
  608MOL0     H83852   4.539   5.069   6.822  2.4645  4.1515 -1.1562
  608MOL0     H83853   4.585   4.998   6.448  2.3813  0.5548 -1.4804
  608MOL0     H83854   4.787   4.919   6.290  1.6834 -1.5584 -0.9422
  608MOL0     H83855   4.771   4.754   6.352  0.2943 -0.0338 -2.4865
  608MOL0     H83856   5.029   4.905   6.409 -0.2097  0.9563 -0.5268
  608MOL0     H83857   5.003   4.735   6.393 -2.1019  0.2350  1.4193
  608MOL0     H83858   4.956   4.748   6.161 -2.1296  0.8003  0.9580
  608MOL0     H83859   4.998   4.932   6.174  0.7587 -0.1438 -0.0620
  608MOL0     H83860   5.194   4.710   6.214 -1.6668 -0.9766 -1.1210
  608MOL0     H83861   5.170   4.825   6.073  1.3568 -1.5133 -0.0451
  608MOL0     H83862   5.354   5.108   6.324  0.6211  0.4941 -0.2021
  608MOL0     H83863   5.664   5.242   6.305 -0.8364  3.0253  1.8565
  608MOL0     H83864   5.501   5.274   6.338  0.5398 -0.9404  1.3858
  608MOL0     H83865   5.564   5.332   6.182  1.1309 -1.2610 -0.6333
  608MOL0     H83866   5.999   5.069   6.081  0.8273 -1.7776  1.7175
  608MOL0     H83867   6.232   5.061   5.987 -0.9338 -0.8427  0.9201
  608MOL0     H83868   6.290   4.938   5.562  0.5411 -0.5250  0.7658
  608MOL0     H83869   6.313   5.116   5.597  1.7618  0.8776  2.2723
  608MOL0     H83870   6.520   4.955   5.508  4.5684  0.3697  1.0462
  608MOL0     H83871   6.544   5.082   5.614  1.0232 -0.7719  0.5695
  608MOL0     H83872   6.486   4.791   5.692 -0.9993  0.4485 -0.0525
  608MOL0     H83873   6.527   4.921   5.806  0.4568  0.6569 -0.4182
  608MOL0     H83874   6.740   4.962   5.701 -1.4440  1.1567  1.0267
  608MOL0     H83875   6.709   4.842   5.573  0.6003  1.1845 -0.5766
  608MOL0     H83876   6.731   4.780   5.873  0.3050  1.4685 -0.9154
  608MOL0     H83877   6.695   4.667   5.739  1.8914 -1.6373  1.3443
  608MOL0     H83878   6.918   4.654   5.830 -0.8145 -0.3734 -0.1319
  608MOL0     H83879   6.949   4.832   5.814 -0.8484  0.6593 -0.7175
  608MOL0     H83880   6.913   4.629   5.585  1.4684 -0.1224 -1.0926
  608MOL0     H83881   7.069   4.685   5.645  0.2068  0.4753 -1.1204
  608MOL0     H83882   6.950   4.929   5.565 -2.2947 -1.2734  1.0452
  608MOL0     H83883   6.891   4.810   5.444  1.0747 -0.9567 -0.9964
  608MOL0     H83884   6.085   4.965   5.603  1.1196 -0.6498  0.5684
  608MOL0     H83885   5.847   4.981   5.679  0.6359 -3.0226 -0.8225
  608MOL0     H83886   5.577   4.875   5.956  0.4087  0.7229  0.3369
  608MOL0     H83887   5.386   4.770   6.055  0.5665 -2.1505  1.3043
  608MOL0     H83888   3.407   4.804   7.189 -1.9930 -0.2544  0.5896
  608MOL0     H83889   3.176   4.735   7.142  0.1257  0.8285 -0.3830
  608MOL0     H83890   2.892   4.573   7.097 -0.1554  0.9377  0.8519
  608MOL0     H83891   2.661   4.526   7.134  1.2353  1.7943  0.1967
  608MOL0     H83892   2.441   4.613   6.901 -0.2535 -0.2576  0.2789
  608MOL0     H83893   2.390   4.474   6.791  1.2312 -2.3473 -0.3063
  608MOL0     H83894   2.205   4.570   6.904 -1.4322  0.5294  1.7657
  608MOL0     H83895   2.293   4.583   7.055  0.8058  2.3598 -1.5916
  608MOL0     H83896   2.274   4.357   7.098 -2.3491  1.1205  2.4157
  608MOL0     H83897   2.114   4.398   7.060  1.5487  0.0844  3.3324
  608MOL0     H83898   2.186   4.190   6.947 -1.1483  0.5504 -0.1810
  608MOL0     H83899   2.302   4.279   6.848  0.6810 -1.8550  0.0756
  608MOL0     H83900   1.937   4.420   6.681 -0.7626  1.1747  0.0256
  608MOL0     H83901   2.616   4.375   6.743  0.7880 -0.8580 -0.2120
  608MOL0     H83902   2.875   4.472   6.599 -1.7180  0.3452  1.6403
  608MOL0     H83903   2.947   4.318   6.655 -0.7045 -1.4541 -1.9553
  608MOL0     H83904   2.779   4.328   6.600  0.2859 -1.0236 -0.2433
  609MOL0     O83905   1.839  10.362  11.300 -0.6293 -0.5771  0.9608
  609MOL0     C83906   1.753  10.406  11.375 -0.1359 -0.4645 -1.0382
  609MOL0     O83907   1.784  10.468  11.498  1.1916 -1.0068 -0.2756
  609MOL0     C83908   1.910  10.485  11.531  0.3121  0.8021  0.1030
  609MOL0     C83909   1.996  10.378  11.554 -0.3102  0.2976 -0.0298
  609MOL0     C83910   2.125  10.399  11.610 -0.2194  0.3246 -0.6359
  609MOL0     C83911   2.181  10.520  11.625  0.8701  0.2356  0.5278
  609MOL0     O83912   2.310  10.539  11.661  0.4806  0.8548  0.3940
  609MOL0     C83913   2.353  10.675  11.656  0.2395  0.9228  0.3042
  609MOL0     C83914   2.491  10.694  11.725  0.4427  0.4584  0.1241
  609MOL0     C83915   2.478  10.725  11.871 -0.1722 -0.1145 -0.6713
  609MOL0     C83916   2.607  10.705  11.954 -0.3173 -0.0141  0.4467
  609MOL0     C83917   2.598  10.777  12.089 -0.8075 -0.6492 -0.7088
  609MOL0     C83918   2.729  10.779  12.168  0.2194  0.5803  0.0755
  609MOL0     C83919   2.822  10.890  12.119 -0.3446  0.2189  0.4985
  609MOL0     C83920   2.955  10.873  12.197  0.2029  0.9087 -0.6923
  609MOL0     N83921   3.048  10.979  12.161  0.4534  0.5360  0.4011
  609MOL0     C83922   3.047  11.105  12.219 -0.5029  0.8091  0.9199
  609MOL0     C83923   3.138  11.176  12.149  0.1099  0.5568 -0.1178
  609MOL0     C83924   3.175  11.318  12.158  0.1294 -0.6374  0.1621
  609MOL0     C83925   3.300  11.344  12.242 -0.1641  0.3487  0.1504
  609MOL0     C83926   3.276  11.318  12.398 -0.5579 -0.5391  0.3692
  609MOL0     C83927   3.392  11.361  12.488  0.3398 -0.9900 -1.1163
  609MOL0     O83928   3.506  11.276  12.460 -0.3557 -0.7707  0.1709
  609MOL0     C83929   3.606  11.261  12.549 -0.1019 -0.6956  0.0820
  609MOL0     C83930   3.724  11.217  12.488 -0.8561  0.6118 -0.6984
  609MOL0     C83931   3.841  11.205  12.562 -0.4159  0.7064  0.4820
  609MOL0     C83932   3.970  11.150  12.484 -0.2336 -0.0523 -0.3794
  609MOL0     C83933   3.838  11.245  12.697  0.2130 -0.2221 -0.0088
  609MOL0     C83934   3.961  11.243  12.772 -0.4132  0.0952  0.1235
  609MOL0     O83935   4.053  11.335  12.735  0.5280  0.2049 -0.4945
  609MOL0     C83936   4.191  11.333  12.775  0.2686 -0.8807  0.4420
  609MOL0     C83937   4.242  11.456  12.811  0.9399 -0.1613 -0.4917
  609MOL0     C83938   4.380  11.470  12.843 -0.2771  0.1697 -0.4642
  609MOL0     C83939   4.462  11.353  12.841 -0.6518 -0.1319 -0.4177
  609MOL0     O83940   4.602  11.363  12.866  0.5921  0.4340 -0.8783
  609MOL0     C83941   4.673  11.453  12.783 -1.3817 -0.2189  0.0399
  609MOL0     C83942   4.816  11.402  12.759 -0.2486 -0.0698  0.6299
  609MOL0     C83943   4.808  11.253  12.707  0.4018 -0.4889 -0.0746
  609MOL0     C83944   4.929  11.229  12.608  0.2769  0.1291  0.0372
  609MOL0     C83945   5.073  11.236  12.677  0.8858  0.4642 -0.0074
  609MOL0     C83946   5.170  11.224  12.563 -0.3058 -0.5579 -0.6765
  609MOL0     C83947   5.320  11.213  12.605  0.3179 -0.4372  0.3251
  609MOL0     C83948   5.406  11.248  12.482 -0.8086 -0.7289 -0.3478
  609MOL0    Cl83949   5.431  11.090  12.398  0.1897 -0.3909  0.7157
  609MOL0     C83950   4.401  11.227  12.821 -0.0939  0.5100  0.0209
  609MOL0     C83951   4.267  11.217  12.789 -1.0427  0.1313 -0.2955
  609MOL0     O83952   3.965  11.170  12.870  0.1752  0.0681 -0.2354
  609MOL0     C83953   3.722  11.284  12.758 -0.8929 -0.1077 -0.3959
  609MOL0     C83954   3.609  11.298  12.687  0.2031 -0.4732  0.1299
  609MOL0     N83955   3.193  11.090  12.059  0.2425 -0.2597 -0.2898
  609MOL0     N83956   3.155  10.971  12.073 -0.2052  0.7740 -0.3285
  609MOL0     C83957   2.087  10.622  11.595  0.6127  0.2898 -0.0561
  609MOL0     C83958   1.954  10.610  11.558 -0.3913 -0.1290  0.1590
  609MOL0     C83959   1.609  10.420  11.324  0.1884 -0.4063  1.0958
  609MOL0     C83960   1.526  10.511  11.384  0.0690  0.1303 -0.6702
  609MOL0     C83961   1.390  10.517  11.357 -0.5983 -0.0436  0.8027
  609MOL0     C83962   1.336  10.445  11.251 -0.6207 -0.1761  0.1242
  609MOL0     O83963   1.205  10.469  11.216 -0.2558 -0.4927 -0.2716
  609MOL0     C83964   1.140  10.387  11.119 -0.1653  0.4496  0.2358
  609MOL0     C83965   0.988  10.419  11.117  0.1088 -0.4305 -0.4211
  609MOL0     C83966   0.920  10.348  11.243 -0.4553 -1.0848 -0.5642
  609MOL0     C83967   0.775  10.412  11.269 -0.8845  0.4862  0.1546
  609MOL0     C83968   0.783  10.556  11.292 -0.0057 -0.1095 -0.6834
  609MOL0     C83969   0.780  10.672  11.319  0.2451 -0.3538  0.1186
  609MOL0     C83970   1.422  10.357  11.179 -0.5965  0.6922 -0.1417
  609MOL0     C83971   1.558  10.343  11.215  0.7388  0.0497  0.1955
  609MOL0     C83972   1.637  10.248  11.130  0.5762  0.5049 -0.9389
  609MOL0     H83973   1.954  10.280  11.535  1.3929  0.0263 -2.8697
  609MOL0     H83974   2.191  10.315  11.629 -2.5902 -2.6126 -3.9711
  609MOL0     H83975   2.281  10.737  11.709  0.3852  0.2202  1.3566
  609MOL0     H83976   2.363  10.712  11.553  2.1884 -2.3072 -0.8307
  609MOL0     H83977   2.552  10.603  11.720  1.5791  1.2235 -0.5861
  609MOL0     H83978   2.551  10.773  11.678 -1.9606  1.9789 -0.5413
  609MOL0     H83979   2.437  10.826  11.883 -4.3525 -1.2837 -3.1048
  609MOL0     H83980   2.403  10.656  11.911 -0.0523  0.5236  0.7251
  609MOL0     H83981   2.627  10.599  11.972 -2.0706 -0.1937  1.6537
  609MOL0     H83982   2.689  10.745  11.895  0.0824 -0.6481  0.5624
  609MOL0     H83983   2.517  10.728  12.145 -1.1461  0.0776 -0.5498
  609MOL0     H83984   2.560  10.878  12.072  0.4439  1.0124  4.5818
  609MOL0     H83985   2.696  10.796  12.271 -0.9010  0.5436 -0.2652
  609MOL0     H83986   2.775  10.680  12.162 -1.1897 -0.3700  3.0431
  609MOL0     H83987   2.793  10.993  12.140  2.0784  1.4103 -1.4574
  609MOL0     H83988   2.849  10.879  12.013  1.5606  1.7104  0.7768
  609MOL0     H83989   2.941  10.881  12.306 -1.2565  0.4969 -0.8188
  609MOL0     H83990   2.999  10.774  12.178  0.8848  0.9667  0.4567
  609MOL0     H83991   2.981  11.142  12.297 -1.2547  0.5184  0.4422
  609MOL0     H83992   3.091  11.369  12.206 -0.0778 -3.1528  2.7514
  609MOL0     H83993   3.196  11.361  12.060 -3.6139  2.3680  0.4640
  609MOL0     H83994   3.377  11.280  12.199 -2.0099 -0.7847 -1.6799
  609MOL0     H83995   3.340  11.446  12.243 -0.4111  0.4568  1.4375
  609MOL0     H83996   3.191  11.381  12.426 -0.7426 -1.6904  2.6130
  609MOL0     H83997   3.248  11.215  12.420  3.5286 -1.7886  0.4649
  609MOL0     H83998   3.412  11.465  12.463 -1.4646 -0.5199 -0.7430
  609MOL0     H83999   3.357  11.347  12.591  1.1857 -2.5630 -1.0063
  609MOL0     H84000   3.729  11.179  12.386 -3.3116 -1.9261 -0.0064
  609MOL0     H84001   4.039  11.090  12.544  2.4614  1.1035 -2.1249
  609MOL0     H84002   4.034  11.233  12.452 -1.7230  2.1587  1.9585
  609MOL0     H84003   3.931  11.088  12.403 -2.1333 -1.2574  1.3708
  609MOL0     H84004   4.175  11.541  12.807 -0.5229 -1.2607 -0.3026
  609MOL0     H84005   4.424  11.565  12.870  0.8841 -0.9054  1.6666
  609MOL0     H84006   4.613  11.468  12.693  0.4539  0.8110 -1.0923
  609MOL0     H84007   4.682  11.551  12.831 -3.0826  0.0202 -0.0831
  609MOL0     H84008   4.861  11.464  12.682  0.3811 -2.5191 -1.1177
  609MOL0     H84009   4.893  11.394  12.836  1.6181  2.7461 -0.7809
  609MOL0     H84010   4.714  11.221  12.661  0.9820  0.8388 -2.3689
  609MOL0     H84011   4.822  11.180  12.787 -0.1951 -0.5655 -0.0387
  609MOL0     H84012   4.919  11.306  12.530  1.8786 -2.2901 -2.7631
  609MOL0     H84013   4.916  11.132  12.560  2.5581 -1.2474  2.0020
  609MOL0     H84014   5.103  11.331  12.723  1.4920 -0.0957  0.7834
  609MOL0     H84015   5.089  11.162  12.756  2.5972  0.8442  0.0421
  609MOL0     H84016   5.153  11.311  12.499  2.6591 -0.4161 -1.4148
  609MOL0     H84017   5.141  11.131  12.514 -5.0885  0.6672 -0.7422
  609MOL0     H84018   5.345  11.115  12.646  0.1057 -0.7140 -0.1904
  609MOL0     H84019   5.333  11.283  12.688 -4.1592 -0.8449  1.6557
  609MOL0     H84020   5.506  11.285  12.507 -0.5949 -0.9435 -0.8668
  609MOL0     H84021   5.359  11.326  12.422 -1.8823  0.4188  1.8463
  609MOL0     H84022   4.456  11.136  12.800 -2.6081 -0.7195 -1.8671
  609MOL0     H84023   4.234  11.115  12.769  1.1461 -0.1957 -2.7372
  609MOL0     H84024   3.738  11.313  12.862  0.7124 -0.7759 -0.4290
  609MOL0     H84025   3.525  11.350  12.732  0.2422 -0.9746  0.8084
  609MOL0     H84026   2.115  10.727  11.602 -1.7429  1.1085 -1.7514
  609MOL0     H84027   1.897  10.702  11.547  0.9724  0.6585 -0.5932
  609MOL0     H84028   1.577  10.570  11.459  2.0033 -1.0113 -1.0058
  609MOL0     H84029   1.332  10.597  11.403 -3.9170 -1.9815  0.3357
  609MOL0     H84030   1.187  10.420  11.025  3.6689  0.6573  2.0509
  609MOL0     H84031   1.164  10.282  11.131  0.9805  0.9197  2.5554
  609MOL0     H84032   0.939  10.381  11.027 -3.6354 -0.6703  1.5137
  609MOL0     H84033   0.974  10.527  11.119  0.6594 -0.3148 -1.8500
  609MOL0     H84034   0.922  10.239  11.237 -0.7961 -1.1102 -0.2853
  609MOL0     H84035   0.984  10.379  11.326  0.6838  0.7492 -2.0358
  609MOL0     H84036   0.727  10.355  11.350 -4.3797 -2.1773 -3.3729
  609MOL0     H84037   0.720  10.398  11.175  1.4421 -0.6436 -1.1097
  609MOL0     H84038   0.771  10.775  11.347 -0.8678 -0.5146  0.4094
  609MOL0     H84039   1.389  10.305  11.089  1.6768 -1.8703  0.3589
  609MOL0     H84040   1.719  10.201  11.186  1.5481  0.3181 -2.4531
  609MOL0     H84041   1.572  10.180  11.074  1.0084  1.0043 -2.0735
  609MOL0     H84042   1.685  10.309  11.053 -1.5633  2.7330 -0.6463
  610MOL0     O84043   6.742   7.344   9.624  0.7303 -0.0308 -0.1805
  610MOL0     C84044   6.695   7.378   9.515  0.0371 -0.0895 -0.2549
  610MOL0     O84045   6.747   7.477   9.440 -0.0596  0.3448  0.2284
  610MOL0     C84046   6.874   7.529   9.462 -0.0826  0.1058 -0.3401
  610MOL0     C84047   6.932   7.559   9.588  0.3298 -0.2803 -0.5776
  610MOL0     C84048   7.071   7.593   9.600  0.0463 -0.2809  0.3011
  610MOL0     C84049   7.143   7.609   9.484  0.5427  0.4964 -0.0092
  610MOL0     O84050   7.276   7.637   9.502 -0.6885 -0.3580 -0.5991
  610MOL0     C84051   7.364   7.626   9.387  0.3245 -0.4317  0.3551
  610MOL0     C84052   7.503   7.652   9.420  0.5440 -0.6114 -0.4730
  610MOL0     C84053   7.520   7.794   9.482  0.2257 -0.1178 -0.7728
  610MOL0     C84054   7.666   7.812   9.520 -0.5238  0.0770  0.4215
  610MOL0     C84055   7.761   7.836   9.412  0.0373  0.1908 -0.2993
  610MOL0     C84056   7.908   7.843   9.475 -0.4988 -0.2131 -0.2994
  610MOL0     C84057   8.024   7.891   9.383  0.5810 -0.2902  0.5257
  610MOL0     C84058   8.084   7.784   9.286  0.6558 -0.4370  0.2258
  610MOL0     N84059   8.204   7.842   9.210 -0.0125  0.1340  0.4501
  610MOL0     C84060   8.323   7.876   9.264 -0.4704  0.0090  0.3176
  610MOL0     C84061   8.413   7.903   9.167  0.5835 -0.4871 -0.8044
  610MOL0     C84062   8.552   7.945   9.194  0.7217  0.6155  0.0941
  610MOL0     C84063   8.643   7.821   9.221 -0.6211  0.4465 -0.2170
  610MOL0     C84064   8.625   7.742   9.348  0.1218 -0.7128 -0.8811
  610MOL0     C84065   8.743   7.650   9.357 -0.5689  0.1636 -0.2001
  610MOL0     O84066   8.861   7.716   9.400 -1.1658  0.2737 -0.5005
  610MOL0     C84067   8.984   7.653   9.400 -0.1873  0.1813  0.1803
  610MOL0     C84068   9.013   7.520   9.364  0.2380 -0.8397 -0.1820
  610MOL0     C84069   9.145   7.467   9.374  0.2147 -0.1816  0.0833
  610MOL0     C84070   9.170   7.332   9.312  0.5206  0.3606  0.6416
  610MOL0     C84071   9.246   7.557   9.421 -0.9269 -0.2397  0.1485
  610MOL0     C84072   9.386   7.510   9.435  0.2435  1.0858  0.5561
  610MOL0     O84073   9.493   7.598   9.404 -0.5988 -0.9220 -0.1553
  610MOL0     C84074   9.614   7.567   9.460  0.4078  1.0091  0.3514
  610MOL0     C84075   9.637   7.589   9.588 -0.5494 -0.0604  0.0199
  610MOL0     C84076   9.756   7.542   9.646  0.3089  0.3420 -0.1776
  610MOL0     C84077   9.864   7.501   9.567  1.1555  0.0028  0.4069
  610MOL0     O84078   9.969   7.453   9.642  0.0164  0.4240  0.4109
  610MOL0     C84079  10.101   7.465   9.597 -0.0258 -0.3929 -0.2584
  610MOL0     C84080  10.149   7.613   9.585  0.1185 -0.2283 -0.5169
  610MOL0     C84081  10.136   7.701   9.710  0.2533 -0.1444 -0.4298
  610MOL0     C84082  10.186   7.631   9.838  0.0165 -0.3619 -0.4750
  610MOL0     C84083  10.174   7.708   9.967  0.8436 -0.5642  0.0206
  610MOL0     C84084  10.025   7.746   9.998  0.3350  0.7730  0.1766
  610MOL0     C84085  10.000   7.794  10.144  0.0588 -0.5002 -0.1199
  610MOL0     C84086   9.847   7.843  10.141  0.7584 -0.1631  0.2143
  610MOL0    Cl84087   9.804   7.893  10.305 -0.4411  0.3987  0.1393
  610MOL0     C84088   9.842   7.495   9.429 -0.3990 -0.7970  0.3933
  610MOL0     C84089   9.719   7.532   9.376 -0.0336  0.4908 -0.1721
  610MOL0     O84090   9.387   7.409   9.507  0.2405 -0.1745 -0.3796
  610MOL0     C84091   9.216   7.687   9.452 -0.0648  0.2079  0.6514
  610MOL0     C84092   9.091   7.725   9.444  0.1198 -0.0772 -0.1345
  610MOL0     N84093   8.347   7.873   9.054 -0.3507 -0.2769  0.3567
  610MOL0     N84094   8.219   7.850   9.078  0.0692  0.1918 -0.3159
  610MOL0     C84095   7.081   7.592   9.356  0.6846  0.1007 -0.5576
  610MOL0     C84096   6.947   7.551   9.344  0.2433 -0.0466 -0.0499
  610MOL0     C84097   6.571   7.315   9.483  0.3087  0.2980  0.3724
  610MOL0     C84098   6.496   7.258   9.584 -0.4014  0.1173  0.9626
  610MOL0     C84099   6.373   7.202   9.548  0.0506 -0.5998 -0.7257
  610MOL0     C84100   6.331   7.202   9.420 -0.4757 -0.8587  0.8688
  610MOL0     O84101   6.224   7.136   9.367 -0.5798  0.5797 -0.1242
  610MOL0     C84102   6.149   7.059   9.461  0.7080 -0.2330  0.1899
  610MOL0     C84103   6.040   6.989   9.384  0.1636  0.1201  0.2193
  610MOL0     C84104   5.923   6.944   9.477  0.4374 -0.1685 -0.4578
  610MOL0     C84105   5.804   6.903   9.399  0.3180 -0.9353 -0.3337
  610MOL0     C84106   5.815   6.772   9.350  0.5866  0.3050  0.0036
  610MOL0     C84107   5.829   6.660   9.303  0.2459 -0.9460 -0.4092
  610MOL0     C84108   6.400   7.264   9.317  0.7453 -0.8775 -0.1262
  610MOL0     C84109   6.528   7.316   9.341  0.2046  0.2191 -0.7225
  610MOL0     C84110   6.615   7.359   9.223  0.0590 -0.2070  0.3166
  610MOL0     H84111   6.873   7.543   9.678 -2.0515 -2.2009 -2.3482
  610MOL0     H84112   7.136   7.599   9.687  1.8124  4.1972 -1.0329
  610MOL0     H84113   7.333   7.697   9.310  0.9740 -1.6757 -1.1006
  610MOL0     H84114   7.343   7.527   9.345 -0.7615 -0.4683  0.9416
  610MOL0     H84115   7.531   7.565   9.480 -1.5675 -2.7320 -2.3996
  610MOL0     H84116   7.557   7.648   9.325  2.2774 -1.4549  0.4960
  610MOL0     H84117   7.492   7.875   9.414 -1.3470 -1.2948 -1.5855
  610MOL0     H84118   7.466   7.804   9.576 -0.0278  0.8501 -1.0141
  610MOL0     H84119   7.678   7.887   9.598 -1.2231  1.0666 -0.3828
  610MOL0     H84120   7.704   7.719   9.564 -0.9573  0.3510  1.3973
  610MOL0     H84121   7.736   7.910   9.336 -0.2112  1.9629  1.4361
  610MOL0     H84122   7.762   7.748   9.347  0.2944  0.2958 -0.4367
  610MOL0     H84123   7.912   7.920   9.552  0.7308 -0.6596  0.1062
  610MOL0     H84124   7.938   7.746   9.517 -3.0562 -0.7566  0.4137
  610MOL0     H84125   8.107   7.923   9.447 -0.4508  1.0834  1.2467
  610MOL0     H84126   7.977   7.976   9.331 -0.7759 -0.0941  2.0024
  610MOL0     H84127   8.094   7.689   9.340  0.0897 -1.1159 -0.8287
  610MOL0     H84128   8.010   7.747   9.214  0.8108  3.1952 -2.0287
  610MOL0     H84129   8.335   7.872   9.372  1.3284  1.5288  0.2165
  610MOL0     H84130   8.553   7.997   9.290  0.2984 -1.1516  1.0903
  610MOL0     H84131   8.595   8.014   9.120  1.8863 -1.0083 -0.8102
  610MOL0     H84132   8.626   7.748   9.141  0.9066 -4.1770  3.2551
  610MOL0     H84133   8.746   7.857   9.219 -1.2958  2.8832  2.5607
  610MOL0     H84134   8.629   7.803   9.439  0.3388 -4.0121  1.5038
  610MOL0     H84135   8.543   7.670   9.352  0.2050 -0.7433  0.9922
  610MOL0     H84136   8.714   7.570   9.426 -1.0096  0.1621 -0.3795
  610MOL0     H84137   8.761   7.602   9.261 -0.8276 -0.0912 -0.1252
  610MOL0     H84138   8.931   7.458   9.330 -1.3510  1.4121 -0.7050
  610MOL0     H84139   9.072   7.283   9.306 -0.9495  3.2209 -0.9721
  610MOL0     H84140   9.241   7.271   9.367  2.6454  0.9646 -1.2802
  610MOL0     H84141   9.214   7.350   9.214 -0.2770  0.4818  0.2991
  610MOL0     H84142   9.562   7.635   9.652 -1.2205  3.4513 -2.9229
  610MOL0     H84143   9.767   7.543   9.754  0.0126 -0.4073 -0.1385
  610MOL0     H84144  10.154   7.409   9.675 -1.9806 -0.5477  1.0326
  610MOL0     H84145  10.119   7.417   9.501 -2.4611 -1.4373 -0.2705
  610MOL0     H84146  10.253   7.619   9.551  1.4650 -0.1257  3.1660
  610MOL0     H84147  10.102   7.666   9.502  2.2894  1.3962 -0.8168
  610MOL0     H84148  10.027   7.711   9.716  0.1631 -0.7029 -1.0158
  610MOL0     H84149  10.186   7.798   9.699 -0.6559  0.3677 -0.1973
  610MOL0     H84150  10.292   7.606   9.830  0.5892  0.4029  3.2149
  610MOL0     H84151  10.131   7.539   9.859  1.5663 -0.9974  0.9955
  610MOL0     H84152  10.217   7.655  10.053 -0.1124  1.9370  2.1854
  610MOL0     H84153  10.227   7.803   9.954 -0.8233  0.4048 -0.0468
  610MOL0     H84154   9.958   7.660   9.992 -1.0293  1.5736  2.8337
  610MOL0     H84155   9.988   7.823   9.929  0.1227  1.7147  1.3089
  610MOL0     H84156  10.067   7.879  10.161  2.3959 -1.8788 -1.8109
  610MOL0     H84157  10.012   7.719  10.222 -2.2919  0.2888  1.1120
  610MOL0     H84158   9.768   7.776  10.109 -1.0146  0.5825  2.7391
  610MOL0     H84159   9.836   7.929  10.075  1.0445 -0.0274  0.3376
  610MOL0     H84160   9.928   7.476   9.366 -0.8265 -1.9466  0.1337
  610MOL0     H84161   9.699   7.519   9.271 -0.8628 -1.6254  0.1980
  610MOL0     H84162   9.293   7.756   9.483 -3.6274  3.9715  2.1105
  610MOL0     H84163   9.078   7.831   9.460  2.1367  0.4602 -1.5658
  610MOL0     H84164   7.134   7.599   9.261  0.4922 -0.2894 -0.6939
  610MOL0     H84165   6.898   7.520   9.252 -1.1234  0.8698  0.3339
  610MOL0     H84166   6.529   7.235   9.685  0.2110  0.3527  0.8181
  610MOL0     H84167   6.316   7.155   9.627  0.8843 -1.0267 -0.3667
  610MOL0     H84168   6.210   6.993   9.523  0.2173 -0.1480  0.7710
  610MOL0     H84169   6.106   7.131   9.532 -0.4995  1.0238 -1.6848
  610MOL0     H84170   6.089   6.901   9.340  2.0985  0.1163  2.2441
  610MOL0     H84171   5.999   7.061   9.312 -0.7154 -0.4706  0.1127
  610MOL0     H84172   5.966   6.873   9.548  2.4585  0.7118 -0.7321
  610MOL0     H84173   5.894   7.032   9.536  0.6577 -0.3850 -0.0203
  610MOL0     H84174   5.799   6.968   9.312  1.9730 -1.8006 -1.1306
  610MOL0     H84175   5.714   6.908   9.462 -0.2565  0.4982 -1.2286
  610MOL0     H84176   5.842   6.558   9.273  0.2550 -1.0532 -0.0475
  610MOL0     H84177   6.364   7.256   9.215 -2.5488  0.2850  0.8319
  610MOL0     H84178   6.631   7.467   9.220  4.6794 -0.6762  0.1613
  610MOL0     H84179   6.715   7.317   9.234  0.2524 -0.9574 -3.1811
  610MOL0     H84180   6.573   7.329   9.127 -1.8489  1.5399  0.5358
  611MOL0     O84181   7.863   3.256   1.310  0.4465  0.4867  0.0385
  611MOL0     C84182   7.786   3.350   1.303 -0.0573 -0.0997 -0.3101
  611MOL0     O84183   7.782   3.430   1.198 -0.1752 -0.0566 -0.0693
  611MOL0     C84184   7.895   3.464   1.122 -0.9833  0.0552 -1.2195
  611MOL0     C84185   7.893   3.474   0.981  0.7226  0.4905 -0.2501
  611MOL0     C84186   8.006   3.517   0.909  0.3753 -0.3710  0.9454
  611MOL0     C84187   8.129   3.536   0.967 -0.1683 -0.7015  0.1414
  611MOL0     O84188   8.232   3.569   0.878 -0.5399 -0.2277  0.3965
  611MOL0     C84189   8.369   3.570   0.923  0.3811 -0.2100  0.0597
  611MOL0     C84190   8.410   3.422   0.941  0.8540 -0.0133 -0.4356
  611MOL0     C84191   8.520   3.387   1.044  0.3599 -0.3037  0.5039
  611MOL0     C84192   8.521   3.237   1.081 -0.5668 -0.5634  0.0709
  611MOL0     C84193   8.653   3.214   1.156  0.5262 -0.3339 -0.4268
  611MOL0     C84194   8.667   3.069   1.201  0.1077  0.7825  0.3865
  611MOL0     C84195   8.802   3.052   1.272 -0.0877  0.4130  0.1997
  611MOL0     C84196   8.851   2.912   1.276  0.5626  0.2293 -0.4203
  611MOL0     N84197   8.986   2.911   1.333  0.0592 -0.2811  1.2056
  611MOL0     C84198   9.092   2.984   1.296 -0.6204  0.1656 -0.4007
  611MOL0     C84199   9.202   2.936   1.362  0.1099  0.1157 -0.5086
  611MOL0     C84200   9.333   3.000   1.352  0.7863  0.7593  0.2442
  611MOL0     C84201   9.451   2.908   1.390  0.5905  0.7698 -0.1218
  611MOL0     C84202   9.451   2.789   1.290 -0.1489  0.1430 -0.7941
  611MOL0     C84203   9.588   2.729   1.300  0.0685  1.7274 -0.0479
  611MOL0     O84204   9.598   2.649   1.176  0.4472 -0.0169 -0.0601
  611MOL0     C84205   9.714   2.586   1.154  0.4906  0.6406 -0.4860
  611MOL0     C84206   9.743   2.522   1.035  0.3567  0.3925 -0.5964
  611MOL0     C84207   9.859   2.450   1.006 -0.1214 -0.0779 -0.0178
  611MOL0     C84208   9.870   2.385   0.870 -0.5422 -0.3155 -0.3654
  611MOL0     C84209   9.972   2.462   1.093 -0.4462  0.0551  0.8937
  611MOL0     C84210  10.106   2.412   1.064  0.2081 -0.9246 -0.0830
  611MOL0     O84211  10.212   2.462   1.138  0.8290  0.0462  0.3760
  611MOL0     C84212  10.331   2.397   1.116  0.4299 -0.8586 -0.2262
  611MOL0     C84213  10.339   2.263   1.139 -1.2697  0.0045 -0.2423
  611MOL0     C84214  10.456   2.198   1.095  0.0988  0.5968  0.4024
  611MOL0     C84215  10.577   2.264   1.059  0.0326  0.3865 -0.4646
  611MOL0     O84216  10.684   2.195   1.007  0.0688  0.2254  0.5176
  611MOL0     C84217  10.808   2.185   1.084  0.1395  0.3065 -0.0103
  611MOL0     C84218  10.926   2.154   0.998 -0.2574  0.6319 -0.7260
  611MOL0     C84219  10.993   2.280   0.948  0.0011 -0.2977  0.8599
  611MOL0     C84220  11.085   2.265   0.827 -0.7043  0.2637  0.2539
  611MOL0     C84221  11.120   2.398   0.757  0.1115 -0.1005 -0.7661
  611MOL0     C84222  11.010   2.461   0.671 -0.7290 -0.3629  0.3057
  611MOL0     C84223  11.073   2.582   0.601 -0.6683 -0.4997 -0.0151
  611MOL0     C84224  10.990   2.632   0.480 -0.0041  0.2150  0.3571
  611MOL0    Cl84225  10.829   2.684   0.532 -0.0110 -0.3127 -0.0212
  611MOL0     C84226  10.572   2.400   1.050  0.8730 -0.3332  0.1524
  611MOL0     C84227  10.441   2.468   1.070 -0.3695  0.5346  0.2570
  611MOL0     O84228  10.121   2.337   0.968  0.5299  0.0325 -0.3251
  611MOL0     C84229   9.942   2.528   1.210  0.0807 -0.6986  0.2303
  611MOL0     C84230   9.819   2.584   1.244 -0.1374  1.0725 -0.4032
  611MOL0     N84231   9.152   2.828   1.443 -0.5636 -0.4060  0.1943
  611MOL0     N84232   9.022   2.822   1.429 -0.8625 -0.2603  0.4448
  611MOL0     C84233   8.141   3.524   1.113  0.6724 -0.7280 -0.0058
  611MOL0     C84234   8.017   3.501   1.185 -0.4596 -0.1669  0.2059
  611MOL0     C84235   7.658   3.333   1.383  0.3507 -0.2347  0.4540
  611MOL0     C84236   7.536   3.348   1.312 -0.6726 -0.5161  0.8390
  611MOL0     C84237   7.414   3.331   1.374 -0.3840 -0.0013  0.4785
  611MOL0     C84238   7.404   3.302   1.515 -0.0388 -0.7125 -0.3215
  611MOL0     O84239   7.279   3.294   1.575  0.3236  0.3264 -0.7403
  611MOL0     C84240   7.264   3.196   1.677 -0.5200 -0.7682  1.1438
  611MOL0     C84241   7.115   3.174   1.695  0.7238 -0.0283 -0.3489
  611MOL0     C84242   7.092   3.034   1.752  0.3476  1.3424  0.1540
  611MOL0     C84243   6.951   2.994   1.703  0.2547 -0.5790 -0.7669
  611MOL0     C84244   6.943   2.860   1.753 -0.2800 -0.3362 -0.3076
  611MOL0     C84245   6.959   2.743   1.779  0.0144 -0.1144  0.5608
  611MOL0     C84246   7.530   3.300   1.582  0.3088  0.4461 -0.6493
  611MOL0     C84247   7.657   3.306   1.524 -0.7867  0.3721 -0.2971
  611MOL0     C84248   7.789   3.275   1.592 -0.3236  0.1504 -0.2806
  611MOL0     H84249   7.799   3.439   0.939 -0.0273  0.6631  1.2421
  611MOL0     H84250   7.995   3.518   0.801  0.2825 -1.6940  0.9232
  611MOL0     H84251   8.365   3.630   1.014 -0.9189 -0.3904  0.1496
  611MOL0     H84252   8.432   3.616   0.847 -1.1731 -0.7071 -1.6209
  611MOL0     H84253   8.329   3.355   0.970 -0.4000  0.6257 -2.2872
  611MOL0     H84254   8.441   3.382   0.844  0.1357  1.2697 -1.2205
  611MOL0     H84255   8.613   3.412   0.992 -0.0342  0.7985  0.2988
  611MOL0     H84256   8.517   3.452   1.132 -1.9325 -0.3910  0.5405
  611MOL0     H84257   8.431   3.210   1.137 -0.0866 -0.2232  1.0264
  611MOL0     H84258   8.525   3.178   0.989 -1.2099  1.5897 -1.3992
  611MOL0     H84259   8.658   3.281   1.243  0.4927  0.3649 -0.9509
  611MOL0     H84260   8.735   3.234   1.087 -1.0744 -3.4695 -3.5304
  611MOL0     H84261   8.584   3.060   1.272 -0.8606  3.0674 -0.3491
  611MOL0     H84262   8.650   2.997   1.121 -0.7688  0.4941  0.8110
  611MOL0     H84263   8.791   3.102   1.369  0.3842  2.2966 -0.6722
  611MOL0     H84264   8.878   3.114   1.222 -0.5206 -0.4138 -1.5835
  611MOL0     H84265   8.793   2.845   1.340  2.2198 -1.3549 -0.4926
  611MOL0     H84266   8.854   2.871   1.175  3.1793 -3.3381  0.8665
  611MOL0     H84267   9.104   3.069   1.230  2.8512 -0.4136 -0.6640
  611MOL0     H84268   9.318   3.075   1.431 -2.9169  0.1088  0.3067
  611MOL0     H84269   9.345   3.051   1.256 -2.1977 -0.2422 -0.7704
  611MOL0     H84270   9.551   2.953   1.382  2.2279 -2.5893 -0.3134
  611MOL0     H84271   9.428   2.863   1.487 -2.3581  0.2510 -0.9771
  611MOL0     H84272   9.384   2.705   1.310  0.6878 -0.7734 -1.7080
  611MOL0     H84273   9.429   2.829   1.190 -0.0129  1.5768 -0.2684
  611MOL0     H84274   9.673   2.796   1.317  1.7568 -0.0993 -0.8601
  611MOL0     H84275   9.583   2.665   1.389  0.1823  1.4407 -0.2432
  611MOL0     H84276   9.660   2.525   0.966 -0.9728 -3.1055  0.6076
  611MOL0     H84277   9.780   2.404   0.811 -1.8496  1.2244  1.9801
  611MOL0     H84278   9.892   2.278   0.870  0.6569 -0.1085  1.0668
  611MOL0     H84279   9.956   2.430   0.820 -1.4510  2.6175  0.5139
  611MOL0     H84280  10.250   2.207   1.164 -0.9207  0.1433  1.4241
  611MOL0     H84281  10.446   2.090   1.090  2.3227  0.3693 -0.0740
  611MOL0     H84282  10.822   2.283   1.130  0.6670  0.4301 -0.4224
  611MOL0     H84283  10.786   2.107   1.158  0.2171  0.6340  0.3654
  611MOL0     H84284  11.005   2.106   1.055 -1.5776  1.5880  2.0697
  611MOL0     H84285  10.899   2.090   0.913  0.8110 -0.1137 -0.5304
  611MOL0     H84286  11.062   2.324   1.021 -0.2742  2.0503 -0.2078
  611MOL0     H84287  10.922   2.356   0.913  2.3022  0.5783 -2.4409
  611MOL0     H84288  11.052   2.190   0.755  0.1129  1.3421 -1.2932
  611MOL0     H84289  11.179   2.223   0.866  0.4429  0.7987 -1.8245
  611MOL0     H84290  11.148   2.465   0.839  0.8568 -0.5457 -0.6396
  611MOL0     H84291  11.211   2.381   0.698 -0.7318 -2.8652 -1.4204
  611MOL0     H84292  10.919   2.489   0.726 -1.3646  0.0665 -0.9263
  611MOL0     H84293  10.974   2.387   0.599  3.7606 -0.9444 -1.6660
  611MOL0     H84294  11.174   2.567   0.562 -0.0410  2.5467  0.2066
  611MOL0     H84295  11.083   2.662   0.675 -0.8026 -0.0696 -0.4590
  611MOL0     H84296  10.976   2.554   0.405  0.1452  1.3093 -0.8602
  611MOL0     H84297  11.046   2.719   0.441  0.8626 -0.7833 -0.7076
  611MOL0     H84298  10.660   2.451   1.011  1.9666 -2.5184 -0.4198
  611MOL0     H84299  10.446   2.576   1.071 -1.0742  0.5682  1.4613
  611MOL0     H84300  10.021   2.545   1.282 -0.6485  0.9843  0.6830
  611MOL0     H84301   9.817   2.644   1.335  1.3946  0.4990  0.0399
  611MOL0     H84302   8.230   3.542   1.172  1.6941 -1.5598 -1.2382
  611MOL0     H84303   8.020   3.499   1.294 -0.8841  2.2919  0.3252
  611MOL0     H84304   7.543   3.343   1.204 -1.9889 -1.1167  0.7601
  611MOL0     H84305   7.321   3.330   1.318 -0.0661 -2.8764 -0.1282
  611MOL0     H84306   7.318   3.106   1.647 -0.8805 -0.2770 -1.1702
  611MOL0     H84307   7.315   3.231   1.768  1.6673  1.4058 -0.7847
  611MOL0     H84308   7.067   3.190   1.598 -0.2781  1.8172  0.3996
  611MOL0     H84309   7.081   3.250   1.766 -1.4868  0.1593 -1.5093
  611MOL0     H84310   7.161   2.960   1.708  0.2295  0.2229  1.7341
  611MOL0     H84311   7.100   3.036   1.861  1.2878  1.5617  0.0944
  611MOL0     H84312   6.934   2.993   1.595  0.5056  2.2195 -0.9032
  611MOL0     H84313   6.869   3.054   1.743  0.6807  1.1860 -2.3930
  611MOL0     H84314   6.975   2.641   1.804 -1.2223 -0.9571 -1.7718
  611MOL0     H84315   7.527   3.294   1.691 -1.2254 -1.6250 -0.7577
  611MOL0     H84316   7.845   3.364   1.622  4.5039 -1.3925 -3.3808
  611MOL0     H84317   7.775   3.203   1.673 -1.4446 -1.6080 -1.9475
  611MOL0     H84318   7.859   3.217   1.532 -0.2214  0.1830 -0.1951
  612MOL0     O84319  10.272   3.554   5.027 -0.1406 -0.3076 -0.4465
  612MOL0     C84320  10.259   3.602   4.915  0.0269  1.0878 -0.1088
  612MOL0     O84321  10.344   3.691   4.858 -0.3090 -0.1049 -0.0408
  612MOL0     C84322  10.462   3.729   4.921  0.6266  0.7815  0.5732
  612MOL0     C84323  10.464   3.844   4.990 -1.0716 -0.2420 -1.1240
  612MOL0     C84324  10.588   3.890   5.050  0.5289  0.3759 -0.1280
  612MOL0     C84325  10.705   3.815   5.045  0.4087  0.1948 -1.0486
  612MOL0     O84326  10.824   3.840   5.118 -0.3977 -0.3853  0.3639
  612MOL0     C84327  10.810   3.916   5.237 -0.3621  0.9055  0.4646
  612MOL0     C84328  10.922   3.889   5.338 -0.7101  0.5114 -0.4218
  612MOL0     C84329  11.064   3.895   5.279  0.5913  0.1245 -0.4180
  612MOL0     C84330  11.156   3.967   5.377 -0.1322  0.0763  0.1115
  612MOL0     C84331  11.296   3.995   5.323  0.0585 -0.3801  0.2741
  612MOL0     C84332  11.374   4.112   5.406  0.3818  0.6367 -0.2399
  612MOL0     C84333  11.508   4.149   5.342  0.6718  0.0191  0.0805
  612MOL0     C84334  11.578   4.263   5.415  0.4165 -0.7126 -0.0181
  612MOL0     N84335  11.708   4.299   5.354  0.0377  0.2919 -0.2606
  612MOL0     C84336  11.807   4.207   5.320  0.1918  0.2523 -0.0666
  612MOL0     C84337  11.921   4.283   5.300  0.5694 -0.4420 -0.2220
  612MOL0     C84338  12.063   4.238   5.269 -1.0897  0.2866 -1.0448
  612MOL0     C84339  12.162   4.302   5.375  0.6358  0.0752 -0.3567
  612MOL0     C84340  12.296   4.357   5.330  0.7011 -0.3081 -0.3848
  612MOL0     C84341  12.393   4.390   5.443 -0.1999 -0.0856 -0.8133
  612MOL0     O84342  12.505   4.461   5.388 -0.4257 -0.6304  0.3798
  612MOL0     C84343  12.616   4.477   5.467  0.6390  0.6084  0.3845
  612MOL0     C84344  12.607   4.487   5.608 -0.2173  0.3350 -0.3234
  612MOL0     C84345  12.718   4.510   5.692 -0.2656 -0.1241 -0.5136
  612MOL0     C84346  12.701   4.521   5.842 -0.9133 -0.3358 -0.5171
  612MOL0     C84347  12.845   4.506   5.636 -0.0309  0.3569 -0.3261
  612MOL0     C84348  12.975   4.515   5.717 -0.7620 -0.2337  0.1360
  612MOL0     O84349  12.980   4.463   5.839 -0.3094 -0.0382  0.6175
  612MOL0     C84350  13.095   4.475   5.909  0.0651 -0.3566 -0.0238
  612MOL0     C84351  13.219   4.408   5.874  0.2791 -1.0613 -0.6009
  612MOL0     C84352  13.330   4.439   5.954  0.5766  0.8878  0.5905
  612MOL0     C84353  13.323   4.512   6.071 -0.3681  0.1660  0.4395
  612MOL0     O84354  13.433   4.525   6.154  0.9471  0.9440 -0.0367
  612MOL0     C84355  13.462   4.665   6.184  0.0725  0.3726  0.1010
  612MOL0     C84356  13.607   4.680   6.235  0.0443  0.0510 -0.5492
  612MOL0     C84357  13.711   4.581   6.176 -0.0275  0.6562 -0.2340
  612MOL0     C84358  13.715   4.570   6.029  0.3141 -0.7181  0.4762
  612MOL0     C84359  13.832   4.482   5.980  0.5052  0.1647 -0.5941
  612MOL0     C84360  13.854   4.508   5.834  0.2553 -0.4406 -0.3556
  612MOL0     C84361  13.950   4.393   5.787 -0.0320 -0.1883  0.3112
  612MOL0     C84362  13.965   4.405   5.627  0.3035  0.5753 -0.4582
  612MOL0    Cl84363  14.112   4.306   5.594  0.1556 -0.1771 -0.0426
  612MOL0     C84364  13.200   4.574   6.101  0.4029 -0.0117 -0.1111
  612MOL0     C84365  13.090   4.558   6.021 -0.0519 -0.8367 -0.8006
  612MOL0     O84366  13.063   4.566   5.659 -0.2173 -0.0613  0.2688
  612MOL0     C84367  12.851   4.507   5.493  0.2429  0.0383 -0.8187
  612MOL0     C84368  12.740   4.493   5.408  0.2087  0.3762 -0.1369
  612MOL0     N84369  11.881   4.415   5.310 -1.0906 -0.0172 -0.0737
  612MOL0     N84370  11.757   4.424   5.342 -0.4190 -0.8663  0.0692
  612MOL0     C84371  10.695   3.693   4.980 -0.9520 -0.3584 -0.9233
  612MOL0     C84372  10.573   3.650   4.911 -0.2013 -0.1748 -0.3883
  612MOL0     C84373  10.130   3.576   4.838 -0.6275 -0.5534 -0.4493
  612MOL0     C84374  10.084   3.677   4.752 -0.3528 -0.9704 -0.6153
  612MOL0     C84375   9.964   3.675   4.681 -0.0194 -0.4119  0.4207
  612MOL0     C84376   9.886   3.566   4.701  0.3850  0.6041 -0.0449
  612MOL0     O84377   9.762   3.550   4.634 -0.9678  0.1018  0.2665
  612MOL0     C84378   9.717   3.651   4.545 -0.1692  0.1443  0.8176
  612MOL0     C84379   9.607   3.599   4.458 -0.3474 -0.2574 -0.2200
  612MOL0     C84380   9.487   3.565   4.540  0.0140  0.3838  0.7266
  612MOL0     C84381   9.383   3.491   4.457  0.3209 -1.0306 -0.3628
  612MOL0     C84382   9.300   3.573   4.369  0.8910  0.0143  0.4395
  612MOL0     C84383   9.220   3.622   4.292  0.1784  0.0822 -0.3974
  612MOL0     C84384   9.922   3.469   4.794  0.0019  0.2072  0.0860
  612MOL0     C84385  10.046   3.472   4.864 -0.0199  0.2399  0.7975
  612MOL0     C84386  10.083   3.364   4.966  0.1497 -0.1744 -0.1177
  612MOL0     H84387  10.370   3.892   5.014  1.2720  3.7807  1.0135
  612MOL0     H84388  10.585   3.989   5.094  0.5758  0.1857  0.3076
  612MOL0     H84389  10.712   3.896   5.283 -1.3094  0.9333 -1.4562
  612MOL0     H84390  10.804   4.021   5.209  0.1512  0.6869 -0.4683
  612MOL0     H84391  10.915   3.968   5.413 -0.1827 -1.2063  1.5235
  612MOL0     H84392  10.915   3.798   5.399  0.4203  0.2416 -0.6850
  612MOL0     H84393  11.096   3.796   5.246  0.2225  1.2041 -4.4867
  612MOL0     H84394  11.077   3.954   5.188 -0.6511  0.4519 -0.4121
  612MOL0     H84395  11.109   4.057   5.418 -1.7742 -0.3438 -0.7793
  612MOL0     H84396  11.172   3.902   5.464  1.7159  1.3251  0.7806
  612MOL0     H84397  11.298   4.029   5.219  0.2526 -1.5120 -0.1062
  612MOL0     H84398  11.359   3.905   5.323 -0.3469 -0.7513 -2.1897
  612MOL0     H84399  11.297   4.188   5.422 -2.1571 -1.6294 -0.9864
  612MOL0     H84400  11.403   4.076   5.505 -0.0493  2.3894  0.5655
  612MOL0     H84401  11.483   4.170   5.238 -2.2988 -1.5464  0.3789
  612MOL0     H84402  11.571   4.061   5.359 -0.7175 -0.6209  2.3847
  612MOL0     H84403  11.509   4.346   5.433  0.9992 -0.3483  0.6010
  612MOL0     H84404  11.614   4.238   5.516  1.3639 -1.4551 -0.5230
  612MOL0     H84405  11.799   4.099   5.319  2.2394 -0.0079  2.3362
  612MOL0     H84406  12.086   4.271   5.167 -1.9392  0.9547 -1.0322
  612MOL0     H84407  12.070   4.129   5.267  3.8159  0.3177  0.5645
  612MOL0     H84408  12.115   4.378   5.438  0.8414 -0.5923  0.6187
  612MOL0     H84409  12.187   4.211   5.430  0.2098  0.9913  1.4240
  612MOL0     H84410  12.348   4.294   5.258  0.1313 -1.7088  0.3779
  612MOL0     H84411  12.278   4.457   5.288 -1.0170 -0.9987 -1.3579
  612MOL0     H84412  12.341   4.451   5.517  0.1019 -1.8485  0.9255
  612MOL0     H84413  12.440   4.302   5.488  1.0605  0.9013 -0.1363
  612MOL0     H84414  12.507   4.496   5.649 -0.3190  0.9143 -0.6838
  612MOL0     H84415  12.774   4.594   5.876  0.1824 -2.0482  1.0256
  612MOL0     H84416  12.713   4.434   5.908  1.4416  1.4740  1.6108
  612MOL0     H84417  12.606   4.569   5.870  0.1971  1.2178  0.7753
  612MOL0     H84418  13.227   4.350   5.783 -1.4393 -1.9670 -0.2169
  612MOL0     H84419  13.427   4.393   5.936 -0.9928 -3.1368  1.4095
  612MOL0     H84420  13.439   4.718   6.091  0.0374 -1.6900 -1.1287
  612MOL0     H84421  13.400   4.695   6.269  1.6056  0.6825  1.1417
  612MOL0     H84422  13.639   4.784   6.249 -1.3697  0.0971  3.6406
  612MOL0     H84423  13.602   4.642   6.337  3.0472 -0.2704 -0.4284
  612MOL0     H84424  13.691   4.482   6.219  1.8848  0.2932 -0.0768
  612MOL0     H84425  13.808   4.602   6.221  1.2936 -1.7532 -1.7413
  612MOL0     H84426  13.725   4.674   5.995 -1.8370 -1.9331 -4.7357
  612MOL0     H84427  13.614   4.537   6.006 -1.1059  3.3617 -0.0007
  612MOL0     H84428  13.925   4.508   6.030  0.9480 -0.5650 -1.0229
  612MOL0     H84429  13.801   4.380   6.006  0.3365  0.5124  0.6614
  612MOL0     H84430  13.905   4.604   5.821  1.9673 -1.2762 -0.0999
  612MOL0     H84431  13.760   4.500   5.780  1.0061 -1.3749 -1.5974
  612MOL0     H84432  13.923   4.292   5.820  0.7548  1.0795  5.9358
  612MOL0     H84433  14.049   4.405   5.831  0.3953  0.7357 -0.8611
  612MOL0     H84434  13.984   4.511   5.604  0.0662  0.9868  1.0925
  612MOL0     H84435  13.878   4.374   5.568  1.0114 -0.6895 -0.8590
  612MOL0     H84436  13.193   4.636   6.190  2.5019 -0.4159  0.3735
  612MOL0     H84437  13.000   4.613   6.047  1.8663  1.8393  0.6502
  612MOL0     H84438  12.948   4.497   5.445  0.3383  2.7102 -1.3060
  612MOL0     H84439  12.751   4.479   5.301  4.8186 -0.0877  0.2109
  612MOL0     H84440  10.789   3.638   4.979  0.6725  2.2457 -1.7980
  612MOL0     H84441  10.557   3.567   4.843  1.7378 -0.2713 -0.7929
  612MOL0     H84442  10.154   3.758   4.736  1.3733 -1.9879  1.2682
  612MOL0     H84443   9.947   3.754   4.608  4.7761  0.0039 -0.5554
  612MOL0     H84444   9.675   3.739   4.595  0.6191  1.9427 -1.5226
  612MOL0     H84445   9.796   3.682   4.477  2.3879 -1.3558  2.9083
  612MOL0     H84446   9.647   3.511   4.408  1.8783  0.0945  0.7908
  612MOL0     H84447   9.576   3.661   4.374 -2.5159 -0.0495  0.6741
  612MOL0     H84448   9.521   3.507   4.627  1.2071  0.4604  0.3310
  612MOL0     H84449   9.439   3.654   4.581 -2.4625  0.2571 -1.6386
  612MOL0     H84450   9.311   3.446   4.526  0.1905  1.2409  1.0861
  612MOL0     H84451   9.421   3.410   4.394 -0.9182 -0.3480 -2.0563
  612MOL0     H84452   9.143   3.661   4.229 -0.3989  1.4419  1.0829
  612MOL0     H84453   9.845   3.394   4.807  1.0245 -0.6282  1.5255
  612MOL0     H84454  10.178   3.320   4.936  0.0666  0.6219 -1.6211
  612MOL0     H84455  10.104   3.394   5.069  5.0551 -1.0623 -0.6437
  612MOL0     H84456  10.003   3.289   4.976 -0.1984  0.3668  1.4989
  613MOL0     O84457   2.903   0.185   5.829  0.6655  0.6189 -0.1551
  613MOL0     C84458   2.812   0.217   5.908  0.1698 -0.9062 -0.1477
  613MOL0     O84459   2.834   0.285   6.035  0.2125 -0.0191  0.1108
  613MOL0     C84460   2.944   0.374   6.046  0.6592  0.0312  0.2809
  613MOL0     C84461   2.996   0.465   5.951  0.7589 -0.0444 -0.2283
  613MOL0     C84462   3.107   0.548   5.985 -0.0973  0.1698 -0.7267
  613MOL0     C84463   3.164   0.546   6.111  0.2578 -0.0431  0.1785
  613MOL0     O84464   3.274   0.625   6.123  0.1638  1.1514 -0.1530
  613MOL0     C84465   3.253   0.722   6.218  0.7539 -0.8260 -0.0007
  613MOL0     C84466   3.386   0.767   6.287  0.1970  0.6760 -0.0391
  613MOL0     C84467   3.473   0.664   6.360  0.1796  0.5510  0.0900
  613MOL0     C84468   3.621   0.712   6.374  0.1915  0.2530  0.9660
  613MOL0     C84469   3.705   0.621   6.449 -0.0835 -0.3029 -0.1614
  613MOL0     C84470   3.848   0.629   6.400 -0.8701 -0.4612  0.1543
  613MOL0     C84471   3.926   0.519   6.465  0.0909 -0.6089  0.2044
  613MOL0     C84472   3.925   0.381   6.397  0.4046  0.3074 -0.2541
  613MOL0     N84473   3.801   0.301   6.413  0.0415 -0.9404 -0.3660
  613MOL0     C84474   3.770   0.234   6.528 -0.3295 -0.7757 -0.5150
  613MOL0     C84475   3.651   0.184   6.497  0.7559 -0.0668  1.3988
  613MOL0     C84476   3.561   0.095   6.577 -0.5490  0.6358  0.4578
  613MOL0     C84477   3.481   0.175   6.674  0.2724 -1.4961  0.0363
  613MOL0     C84478   3.417   0.318   6.627 -0.5159  0.4938  0.2569
  613MOL0     C84479   3.319   0.302   6.512 -0.6320  0.2361  0.5094
  613MOL0     O84480   3.211   0.214   6.552 -0.2411 -0.4335 -0.4878
  613MOL0     C84481   3.145   0.149   6.451  0.1395 -0.3927  0.4779
  613MOL0     C84482   3.188   0.136   6.316  0.1811  0.0766 -0.2838
  613MOL0     C84483   3.111   0.063   6.224  1.1162  0.3309  0.0973
  613MOL0     C84484   3.169   0.051   6.081 -0.7522  0.6991  0.1399
  613MOL0     C84485   2.984   0.019   6.250  0.2629  0.2619 -0.1143
  613MOL0     C84486   2.887  -0.051   6.157 -0.1793 -0.7298 -0.4251
  613MOL0     O84487   2.757  -0.069   6.192 -0.0550  0.0829  0.2319
  613MOL0     C84488   2.677  -0.146   6.112  0.0565  0.2606  0.0944
  613MOL0     C84489   2.558  -0.103   6.060  0.0589  0.3148  0.5842
  613MOL0     C84490   2.472  -0.193   5.993 -0.3328  0.1729  0.0563
  613MOL0     C84491   2.501  -0.327   5.973  0.5709  0.8906  0.6912
  613MOL0     O84492   2.430  -0.422   5.903  0.5456  0.5063 -0.1434
  613MOL0     C84493   2.292  -0.393   5.866  0.0315  0.1534 -0.4615
  613MOL0     C84494   2.232  -0.515   5.798  0.9474  0.5209 -0.1471
  613MOL0     C84495   2.277  -0.519   5.652  0.2609  0.2321  0.1021
  613MOL0     C84496   2.365  -0.640   5.620 -0.8405 -0.7208  0.3273
  613MOL0     C84497   2.416  -0.661   5.477  0.3213 -0.7585  0.6382
  613MOL0     C84498   2.479  -0.802   5.455  0.3042  0.2746  0.1788
  613MOL0     C84499   2.565  -0.803   5.323 -0.1396  1.1267 -0.0231
  613MOL0     C84500   2.633  -0.949   5.306  0.1250 -0.3646 -0.3659
  613MOL0    Cl84501   2.703  -0.965   5.149  0.1373  0.3562 -0.7565
  613MOL0     C84502   2.630  -0.368   6.011  0.0048  0.6700  0.9466
  613MOL0     C84503   2.717  -0.278   6.078  0.8248  0.9273  0.1185
  613MOL0     O84504   2.943  -0.104   6.062  0.6245  0.6230  0.1954
  613MOL0     C84505   2.939   0.038   6.383  0.2865 -0.8328 -0.2627
  613MOL0     C84506   3.019   0.096   6.483 -0.8181 -0.3688  0.1939
  613MOL0     N84507   3.610   0.224   6.364  0.1142  0.0313 -0.0697
  613MOL0     N84508   3.712   0.294   6.311  0.3189  0.3875  0.5464
  613MOL0     C84509   3.117   0.449   6.203  0.0796  0.2498 -0.3347
  613MOL0     C84510   3.005   0.374   6.170 -0.2265  0.9606 -0.6186
  613MOL0     C84511   2.668   0.202   5.874  0.2676  0.5247 -0.5522
  613MOL0     C84512   2.581   0.310   5.913 -0.5123 -0.2294 -0.3702
  613MOL0     C84513   2.452   0.320   5.864 -0.1180 -0.3397 -0.7151
  613MOL0     C84514   2.398   0.220   5.785 -0.1255  0.7021  0.8658
  613MOL0     O84515   2.260   0.214   5.754  0.2223  0.1095  0.0819
  613MOL0     C84516   2.223   0.192   5.617 -0.8391 -0.7683  0.2523
  613MOL0     C84517   2.241   0.315   5.530 -0.8093  0.4617 -0.6052
  613MOL0     C84518   2.211   0.280   5.381 -0.7459  0.7460 -0.3136
  613MOL0     C84519   2.066   0.246   5.355  0.5493 -0.2613  0.6692
  613MOL0     C84520   2.062   0.209   5.210  0.8015 -0.5179 -0.0800
  613MOL0     C84521   2.064   0.188   5.088  0.2398 -0.2941 -0.3905
  613MOL0     C84522   2.478   0.111   5.759  0.3778 -0.6338 -0.0436
  613MOL0     C84523   2.611   0.101   5.799 -0.2761 -0.3142  0.0677
  613MOL0     C84524   2.683  -0.021   5.748 -0.7385  0.0204  0.4481
  613MOL0     H84525   2.947   0.482   5.856  2.5432  2.0598 -0.8318
  613MOL0     H84526   3.135   0.620   5.909  2.1424 -2.8736 -3.0716
  613MOL0     H84527   3.178   0.681   6.286 -0.9878 -0.9994 -1.9119
  613MOL0     H84528   3.213   0.808   6.164  0.6913 -3.0099 -3.7852
  613MOL0     H84529   3.449   0.804   6.206 -0.1040  0.1190 -0.5384
  613MOL0     H84530   3.360   0.845   6.359 -1.1815  0.4730 -0.2844
  613MOL0     H84531   3.440   0.638   6.461 -0.6472 -0.5802 -0.4594
  613MOL0     H84532   3.470   0.568   6.307  1.3272 -0.0239  1.0258
  613MOL0     H84533   3.656   0.723   6.271 -2.2822 -0.2568  0.0066
  613MOL0     H84534   3.623   0.809   6.423  2.6938 -0.1267  1.7353
  613MOL0     H84535   3.667   0.520   6.432  0.2315 -0.2123 -1.5454
  613MOL0     H84536   3.698   0.640   6.556 -3.5099 -3.5828  0.4001
  613MOL0     H84537   3.858   0.620   6.292 -1.0313 -1.5951  0.2181
  613MOL0     H84538   3.887   0.727   6.430 -0.1234 -0.5292 -0.5611
  613MOL0     H84539   3.886   0.506   6.566  0.8446  2.0624  0.9383
  613MOL0     H84540   4.033   0.535   6.484 -0.1829 -1.4394  2.8148
  613MOL0     H84541   3.947   0.397   6.291  0.5036 -0.1316 -0.2994
  613MOL0     H84542   4.011   0.320   6.426  1.8641  1.4266 -1.9881
  613MOL0     H84543   3.826   0.235   6.621 -0.4141  1.1429 -0.4496
  613MOL0     H84544   3.624   0.030   6.638  0.2833  2.3403  1.5178
  613MOL0     H84545   3.488   0.049   6.510 -2.2648  3.4763  0.1677
  613MOL0     H84546   3.404   0.111   6.717  1.3438 -1.7469  1.6900
  613MOL0     H84547   3.551   0.199   6.755  2.1406  2.3370 -2.3971
  613MOL0     H84548   3.354   0.355   6.709 -1.5409 -0.8690  0.1089
  613MOL0     H84549   3.501   0.386   6.610  0.0634 -0.6994 -2.0424
  613MOL0     H84550   3.270   0.398   6.492 -2.2207 -1.1672 -3.0018
  613MOL0     H84551   3.377   0.273   6.424 -4.2929 -3.0074 -1.1359
  613MOL0     H84552   3.284   0.164   6.276  1.0024 -0.7414  1.0226
  613MOL0     H84553   3.251   0.121   6.065 -0.4228  0.6980  1.6468
  613MOL0     H84554   3.089   0.094   6.019  0.3184  0.8572 -1.1740
  613MOL0     H84555   3.190  -0.052   6.051 -2.2371  0.4693 -0.1863
  613MOL0     H84556   2.520  -0.003   6.080 -1.7744 -0.6352  2.1251
  613MOL0     H84557   2.379  -0.157   5.951  0.6961 -0.4348 -2.9861
  613MOL0     H84558   2.229  -0.374   5.953 -1.8891 -0.5081 -1.6212
  613MOL0     H84559   2.291  -0.309   5.795  2.5346  0.4779 -0.2043
  613MOL0     H84560   2.258  -0.605   5.854  1.0203  0.6163 -0.0261
  613MOL0     H84561   2.123  -0.506   5.803  0.4930 -3.6853  2.3202
  613MOL0     H84562   2.342  -0.438   5.614  0.2810 -0.1019 -0.5907
  613MOL0     H84563   2.184  -0.521   5.595 -0.5508 -2.0059  1.3968
  613MOL0     H84564   2.308  -0.732   5.641 -2.3227 -0.7359 -3.1738
  613MOL0     H84565   2.448  -0.640   5.691 -2.1260 -0.6980  1.9009
  613MOL0     H84566   2.332  -0.656   5.407  0.9609  2.0372 -0.0326
  613MOL0     H84567   2.479  -0.576   5.452 -2.2225  0.2919 -3.0769
  613MOL0     H84568   2.399  -0.875   5.441  1.5641 -1.0057 -0.5754
  613MOL0     H84569   2.532  -0.829   5.547  2.1986  0.0901 -0.9056
  613MOL0     H84570   2.641  -0.725   5.313  0.7122  0.0184 -3.8149
  613MOL0     H84571   2.492  -0.783   5.244 -1.6059  0.1622  1.0320
  613MOL0     H84572   2.559  -1.028   5.319 -1.8919  1.2457 -1.3717
  613MOL0     H84573   2.715  -0.967   5.375 -0.1955 -2.6271 -0.4863
  613MOL0     H84574   2.659  -0.470   5.992 -2.6335  0.1393 -0.7753
  613MOL0     H84575   2.805  -0.321   6.125 -0.3353  0.6630  2.1860
  613MOL0     H84576   2.843  -0.003   6.413  0.1111 -1.2503 -1.3307
  613MOL0     H84577   2.976   0.119   6.580  1.1544 -1.5636  1.4291
  613MOL0     H84578   3.166   0.435   6.299 -0.9281  0.6085  0.2376
  613MOL0     H84579   2.978   0.291   6.235  0.3073  1.4813  0.2769
  613MOL0     H84580   2.617   0.389   5.977 -0.0438 -1.1384  0.5243
  613MOL0     H84581   2.392   0.409   5.879 -0.8944 -0.8517 -0.7304
  613MOL0     H84582   2.292   0.119   5.575  0.3072 -1.1683  2.6208
  613MOL0     H84583   2.127   0.139   5.619 -0.0135 -2.3250  0.3201
  613MOL0     H84584   2.340   0.358   5.544  0.2521 -2.0636 -0.0194
  613MOL0     H84585   2.165   0.386   5.566 -1.6883  0.6677 -2.7117
  613MOL0     H84586   2.219   0.376   5.329 -0.4025  0.6183 -0.4993
  613MOL0     H84587   2.288   0.212   5.342  0.0391  0.9415  0.8319
  613MOL0     H84588   2.018   0.340   5.380  2.1644  1.0714 -0.9675
  613MOL0     H84589   2.030   0.167   5.422  2.1994 -0.3572  1.5096
  613MOL0     H84590   2.080   0.171   4.984 -2.2269 -2.1218 -0.5490
  613MOL0     H84591   2.429   0.039   5.694 -2.8315  1.7507 -0.5131
  613MOL0     H84592   2.731  -0.015   5.650  1.5331 -0.7950  1.4481
  613MOL0     H84593   2.752  -0.045   5.829  0.3024  6.4232  2.0105
  613MOL0     H84594   2.601  -0.093   5.739 -0.9240  0.3056 -0.2284
  614MOL0     O84595   3.037   4.882   4.146 -0.0556 -0.4253 -0.1690
  614MOL0     C84596   2.993   4.989   4.183 -0.3859 -0.7703 -0.4127
  614MOL0     O84597   3.069   5.093   4.225 -0.1470 -0.1593 -0.5744
  614MOL0     C84598   3.201   5.080   4.195  0.2385  0.9938  0.0485
  614MOL0     C84599   3.292   5.003   4.274  0.4976 -0.7572 -0.0131
  614MOL0     C84600   3.436   5.006   4.252 -0.3320 -0.0710  0.1349
  614MOL0     C84601   3.484   5.065   4.131  0.8812  0.4322  0.1976
  614MOL0     O84602   3.613   5.054   4.096 -0.5528 -0.7324 -0.3230
  614MOL0     C84603   3.710   5.138   4.171 -0.3423  0.3991  0.3760
  614MOL0     C84604   3.806   5.220   4.079 -0.4828 -0.1938 -0.2501
  614MOL0     C84605   3.938   5.258   4.143 -0.1077 -1.2020 -0.0889
  614MOL0     C84606   4.037   5.316   4.044  0.7716  0.0872 -0.2811
  614MOL0     C84607   4.162   5.349   4.113 -0.1180  0.3584 -0.0863
  614MOL0     C84608   4.242   5.431   4.016  0.1931  0.1694 -0.0372
  614MOL0     C84609   4.371   5.480   4.094  0.8093  0.5396 -0.1417
  614MOL0     C84610   4.470   5.560   4.004 -0.4665 -0.1065  0.5321
  614MOL0     N84611   4.606   5.542   4.069  0.0236  0.7866  0.4472
  614MOL0     C84612   4.630   5.603   4.193  0.3982  0.0898  0.2144
  614MOL0     C84613   4.762   5.561   4.209 -0.1355 -0.0578  0.3463
  614MOL0     C84614   4.869   5.601   4.308  0.6752 -0.0657 -0.1129
  614MOL0     C84615   5.003   5.524   4.306 -0.2021  0.1672  0.7500
  614MOL0     C84616   5.110   5.622   4.361 -0.2904 -0.0002  0.3124
  614MOL0     C84617   5.255   5.584   4.341  0.1766 -0.2206 -0.0184
  614MOL0     O84618   5.265   5.467   4.415  0.0301  0.2816  0.4260
  614MOL0     C84619   5.376   5.398   4.397  0.4952 -0.2152  0.6032
  614MOL0     C84620   5.365   5.269   4.437  1.1857 -0.6779  0.1808
  614MOL0     C84621   5.464   5.178   4.416  0.6049  0.2299  0.3798
  614MOL0     C84622   5.425   5.032   4.457 -0.7101 -0.5815 -0.4358
  614MOL0     C84623   5.586   5.217   4.355 -0.1450  0.5400  0.5371
  614MOL0     C84624   5.692   5.118   4.329 -0.7690 -0.2459 -0.0335
  614MOL0     O84625   5.801   5.161   4.255 -0.3558  0.6081 -0.2185
  614MOL0     C84626   5.908   5.068   4.241  0.3571 -0.4696  0.1198
  614MOL0     C84627   5.911   4.960   4.145  0.5566  0.1403 -0.4816
  614MOL0     C84628   6.027   4.881   4.136  0.2597 -0.3367  0.2471
  614MOL0     C84629   6.134   4.902   4.219  0.4003 -0.0636 -0.6844
  614MOL0     O84630   6.232   4.808   4.206 -0.1650 -0.2423  0.2507
  614MOL0     C84631   6.305   4.763   4.322 -0.1327  0.6094 -0.2566
  614MOL0     C84632   6.456   4.760   4.300 -0.6367  1.0310  0.3440
  614MOL0     C84633   6.512   4.635   4.357 -0.3479 -0.6735  0.2183
  614MOL0     C84634   6.666   4.632   4.327 -0.2994 -0.0483 -0.5185
  614MOL0     C84635   6.726   4.501   4.365 -0.5478 -0.4055 -0.6377
  614MOL0     C84636   6.884   4.520   4.357  0.8864 -0.5806 -0.3729
  614MOL0     C84637   6.941   4.377   4.346 -0.0317  0.0750 -0.0442
  614MOL0     C84638   7.094   4.373   4.366 -0.2396  0.4626  1.0503
  614MOL0    Cl84639   7.168   4.223   4.288  0.3198  0.0747 -0.3484
  614MOL0     C84640   6.123   4.996   4.317 -0.5626 -0.7925 -0.1139
  614MOL0     C84641   6.014   5.090   4.325  0.3890 -0.2916 -0.3343
  614MOL0     O84642   5.682   5.004   4.363  0.1229 -0.1190  0.2292
  614MOL0     C84643   5.606   5.348   4.324 -0.8409  0.2249  0.8012
  614MOL0     C84644   5.500   5.437   4.345  0.9634  0.4105  0.6926
  614MOL0     N84645   4.794   5.468   4.114  0.1642  0.3079  0.2644
  614MOL0     N84646   4.706   5.460   4.022 -0.5976  0.4264 -0.1008
  614MOL0     C84647   3.391   5.135   4.058 -0.7847 -0.8101  0.2056
  614MOL0     C84648   3.261   5.152   4.093  0.4643 -0.1012  0.8193
  614MOL0     C84649   2.845   5.012   4.180  0.0287 -0.1061  0.0487
  614MOL0     C84650   2.793   5.135   4.230 -0.7954  0.3179  0.1319
  614MOL0     C84651   2.659   5.162   4.239 -0.2676 -0.5097  0.5452
  614MOL0     C84652   2.567   5.074   4.200  1.1677  0.3057 -0.3488
  614MOL0     O84653   2.427   5.093   4.212  0.1341 -0.3588  0.1932
  614MOL0     C84654   2.379   5.226   4.179  0.5437 -0.0110  0.0053
  614MOL0     C84655   2.437   5.289   4.044  0.0105  0.5523 -0.7645
  614MOL0     C84656   2.370   5.239   3.914  0.1674  0.2045 -0.6309
  614MOL0     C84657   2.408   5.099   3.874  0.1235  0.6564  0.1187
  614MOL0     C84658   2.357   5.073   3.742  0.4830 -0.1999  0.8722
  614MOL0     C84659   2.326   5.031   3.635 -0.7034 -0.5533  0.7735
  614MOL0     C84660   2.612   4.952   4.140  0.3776 -0.2864 -0.7361
  614MOL0     C84661   2.747   4.918   4.128  0.2699 -0.4249  0.1237
  614MOL0     C84662   2.783   4.787   4.071  0.4272 -0.0269  0.3278
  614MOL0     H84663   3.251   4.961   4.366 -1.2990  1.5998  0.3253
  614MOL0     H84664   3.501   4.954   4.322  0.3961 -0.3791 -0.7558
  614MOL0     H84665   3.773   5.078   4.236  0.0553 -0.6092 -0.9003
  614MOL0     H84666   3.651   5.205   4.235 -0.4160  0.2010  0.5166
  614MOL0     H84667   3.826   5.158   3.992  0.2377 -0.0750 -0.1750
  614MOL0     H84668   3.746   5.310   4.061  0.8424  0.6495 -0.5473
  614MOL0     H84669   3.934   5.320   4.233  2.4844 -1.0082 -0.0366
  614MOL0     H84670   3.987   5.173   4.192  3.0450  1.1316  1.1941
  614MOL0     H84671   4.051   5.248   3.959  3.6964 -1.4993  1.3018
  614MOL0     H84672   3.991   5.406   4.002  5.1980  1.0760 -3.6927
  614MOL0     H84673   4.221   5.258   4.128  0.3999  0.2730 -2.3097
  614MOL0     H84674   4.141   5.410   4.201 -0.9032  2.8816 -1.9203
  614MOL0     H84675   4.269   5.376   3.925  1.0515 -1.0080  0.8911
  614MOL0     H84676   4.182   5.518   3.990 -0.7877 -0.9053 -1.5299
  614MOL0     H84677   4.417   5.389   4.131  0.7631  0.7524  0.4399
  614MOL0     H84678   4.342   5.543   4.178 -2.4517  1.2631 -1.6458
  614MOL0     H84679   4.474   5.530   3.899  2.4515  1.0417  0.2264
  614MOL0     H84680   4.431   5.661   4.018  1.9126  0.7277  1.7477
  614MOL0     H84681   4.571   5.680   4.243 -0.8819  0.8931 -2.3564
  614MOL0     H84682   4.823   5.589   4.406  0.5193  0.8158 -0.0697
  614MOL0     H84683   4.885   5.708   4.291 -2.3127  0.6038  0.6431
  614MOL0     H84684   4.994   5.433   4.367 -0.5756  0.2758  0.8603
  614MOL0     H84685   5.033   5.496   4.204  0.1474 -0.6840  1.0705
  614MOL0     H84686   5.104   5.723   4.320 -0.9495 -0.1782 -0.0570
  614MOL0     H84687   5.095   5.639   4.468  0.2084 -2.0789  0.7635
  614MOL0     H84688   5.276   5.565   4.235 -3.8675 -0.6528 -0.9197
  614MOL0     H84689   5.321   5.665   4.375  1.3730 -1.6343  1.1168
  614MOL0     H84690   5.270   5.241   4.480  0.5914  1.6354  0.4963
  614MOL0     H84691   5.447   4.977   4.366  1.3296  0.8716 -0.9048
  614MOL0     H84692   5.322   5.011   4.486 -0.9806 -0.7323 -1.4651
  614MOL0     H84693   5.488   4.990   4.536 -0.8347  0.4748  0.2435
  614MOL0     H84694   5.823   4.950   4.082  1.9444  1.4857 -2.7715
  614MOL0     H84695   6.041   4.812   4.053 -1.7046 -2.9547  1.9363
  614MOL0     H84696   6.281   4.829   4.407 -0.0793  2.7119 -1.7827
  614MOL0     H84697   6.268   4.665   4.353  0.5325  0.4602  0.0848
  614MOL0     H84698   6.482   4.755   4.194  1.8166 -0.4632  0.9391
  614MOL0     H84699   6.512   4.845   4.341  2.5351 -1.0923  0.8057
  614MOL0     H84700   6.462   4.547   4.316  0.9852 -0.8944 -1.0162
  614MOL0     H84701   6.505   4.632   4.466  3.9180 -3.5027  0.6562
  614MOL0     H84702   6.710   4.708   4.392 -0.2808 -1.0372  0.6541
  614MOL0     H84703   6.690   4.649   4.221 -1.0292 -1.7157 -0.9950
  614MOL0     H84704   6.691   4.484   4.468  0.7582  1.8398  0.2488
  614MOL0     H84705   6.696   4.420   4.298  1.7790 -0.5913 -1.5652
  614MOL0     H84706   6.928   4.563   4.448 -1.6536  0.5412  0.4350
  614MOL0     H84707   6.913   4.571   4.265 -0.2642 -0.0633 -0.4658
  614MOL0     H84708   6.920   4.338   4.246 -1.0900 -3.4017  1.3980
  614MOL0     H84709   6.879   4.320   4.415 -1.0821  2.6533  1.2975
  614MOL0     H84710   7.117   4.375   4.473 -0.4213 -1.2737  1.1476
  614MOL0     H84711   7.133   4.458   4.309 -1.0413 -0.9500 -1.8331
  614MOL0     H84712   6.206   5.017   4.383 -0.7391 -1.3190  0.2873
  614MOL0     H84713   6.008   5.164   4.404  1.8935 -0.3452 -0.1497
  614MOL0     H84714   5.701   5.382   4.283 -0.9774  1.0248  1.1418
  614MOL0     H84715   5.510   5.544   4.329 -1.5153  0.3748 -2.0691
  614MOL0     H84716   3.434   5.200   3.982  0.1332 -1.8337 -0.1715
  614MOL0     H84717   3.207   5.225   4.033  1.2366 -1.4394 -1.6754
  614MOL0     H84718   2.853   5.212   4.278 -0.5754  0.7331 -0.7885
  614MOL0     H84719   2.611   5.250   4.281  0.2292 -0.6729  1.4837
  614MOL0     H84720   2.271   5.216   4.170  0.7514 -0.5365 -2.8319
  614MOL0     H84721   2.399   5.296   4.261 -2.8621  2.2023 -0.8425
  614MOL0     H84722   2.540   5.259   4.026 -0.0743 -0.0576 -0.2571
  614MOL0     H84723   2.427   5.398   4.038  1.4052  0.8003  0.8289
  614MOL0     H84724   2.264   5.238   3.940  0.8137 -1.8454  2.4271
  614MOL0     H84725   2.398   5.311   3.836 -2.0561  1.3982 -0.4149
  614MOL0     H84726   2.359   5.031   3.944  0.0502  0.4636 -0.1227
  614MOL0     H84727   2.517   5.093   3.875  0.1388  0.9196  0.2775
  614MOL0     H84728   2.273   5.002   3.546  0.7865 -2.2657  0.3727
  614MOL0     H84729   2.537   4.874   4.127  1.2934 -1.0968 -1.3108
  614MOL0     H84730   2.855   4.800   3.990 -0.1111  0.5666 -0.0682
  614MOL0     H84731   2.827   4.731   4.154  0.5224 -0.2736  0.1152
  614MOL0     H84732   2.699   4.729   4.032  1.7956 -1.8973 -0.0208
  615MOL0     O84733   6.923   4.396   4.703 -0.0307  0.0077  0.1005
  615MOL0     C84734   6.879   4.327   4.791 -0.3202  0.7400 -0.4309
  615MOL0     O84735   6.938   4.215   4.850  0.1367  0.4561 -0.1994
  615MOL0     C84736   7.070   4.174   4.824 -0.4997  0.7000  1.1835
  615MOL0     C84737   7.112   4.053   4.866  0.2487  1.1335 -0.3460
  615MOL0     C84738   7.235   4.003   4.835  0.0707  0.2451  0.0867
  615MOL0     C84739   7.341   4.078   4.778 -0.7188 -0.4587 -0.4648
  615MOL0     O84740   7.475   4.051   4.763 -0.0484 -0.1361  0.2215
  615MOL0     C84741   7.532   3.932   4.823  0.4526 -0.7414 -0.8773
  615MOL0     C84742   7.533   3.813   4.724 -0.2967 -0.3955 -0.0082
  615MOL0     C84743   7.610   3.850   4.604 -0.3660 -0.1292 -0.0682
  615MOL0     C84744   7.618   3.725   4.513 -0.7263 -0.4442 -0.1715
  615MOL0     C84745   7.705   3.759   4.396 -0.4354 -0.9541  0.1503
  615MOL0     C84746   7.674   3.670   4.275  0.6916 -0.7722  0.1971
  615MOL0     C84747   7.766   3.702   4.156 -0.1093 -0.3517 -1.7156
  615MOL0     C84748   7.777   3.584   4.069 -0.3530  0.3789  0.2700
  615MOL0     N84749   7.838   3.610   3.936  0.6320  0.0338 -0.1351
  615MOL0     C84750   7.964   3.660   3.918 -0.0532  1.1676 -0.6781
  615MOL0     C84751   7.976   3.693   3.792  0.2549  0.5530 -0.0995
  615MOL0     C84752   8.091   3.769   3.730  0.7390 -0.7874 -0.0250
  615MOL0     C84753   8.169   3.692   3.625 -0.5381  0.7062  0.2445
  615MOL0     C84754   8.276   3.770   3.561  0.3781  0.8617 -1.3405
  615MOL0     C84755   8.325   3.701   3.437 -0.0053 -0.2133 -0.0254
  615MOL0     O84756   8.430   3.779   3.384  0.1583 -0.2449 -0.0192
  615MOL0     C84757   8.551   3.765   3.436  0.6075  0.3403  0.0578
  615MOL0     C84758   8.648   3.850   3.383 -0.1826 -0.2028 -0.4140
  615MOL0     C84759   8.782   3.836   3.415  0.2013  0.7097 -0.0124
  615MOL0     C84760   8.873   3.919   3.326  0.0310 -0.7650  0.2781
  615MOL0     C84761   8.826   3.744   3.512 -0.7662 -0.2015 -0.0904
  615MOL0     C84762   8.974   3.716   3.545  1.0991  0.5880 -0.2715
  615MOL0     O84763   8.999   3.653   3.664 -0.4568 -0.2034  0.0770
  615MOL0     C84764   9.130   3.655   3.704  0.6177  0.7250  0.2210
  615MOL0     C84765   9.173   3.773   3.760 -0.1804  0.2639  0.4122
  615MOL0     C84766   9.300   3.786   3.805 -0.2263  0.2257 -0.0935
  615MOL0     C84767   9.396   3.687   3.785  0.1465  0.4593 -0.6351
  615MOL0     O84768   9.521   3.706   3.835  0.6759  0.0690  0.5883
  615MOL0     C84769   9.558   3.609   3.934 -0.1064 -0.3536  0.7860
  615MOL0     C84770   9.677   3.668   3.989 -0.8905 -0.3066 -0.7635
  615MOL0     C84771   9.757   3.560   4.055 -0.3459 -0.3782  0.1815
  615MOL0     C84772   9.883   3.623   4.121 -0.3758  0.0296  0.4718
  615MOL0     C84773   9.952   3.521   4.214  0.3480 -0.3064 -0.3485
  615MOL0     C84774  10.075   3.582   4.271  0.1952 -1.0339  0.8148
  615MOL0     C84775  10.144   3.506   4.376 -0.0638 -0.5102  0.5526
  615MOL0     C84776  10.253   3.590   4.440 -1.3753  0.5464  0.1078
  615MOL0    Cl84777  10.328   3.497   4.568  0.0525  0.4632 -0.2153
  615MOL0     C84778   9.356   3.568   3.713 -0.1684 -0.5848  0.0217
  615MOL0     C84779   9.228   3.553   3.676  0.0654  0.3276  0.5673
  615MOL0     O84780   9.056   3.749   3.463 -0.7998 -0.0664 -0.3909
  615MOL0     C84781   8.728   3.665   3.576  0.1554  0.6844 -0.5019
  615MOL0     C84782   8.591   3.674   3.542 -0.3686 -0.4640  0.0727
  615MOL0     N84783   7.861   3.639   3.725 -0.8449  0.3770 -0.0418
  615MOL0     N84784   7.779   3.589   3.813  0.2496 -0.7100  0.2466
  615MOL0     C84785   7.303   4.207   4.750 -0.8328  0.0204  0.5539
  615MOL0     C84786   7.172   4.253   4.775  1.0283 -0.1599 -1.0889
  615MOL0     C84787   6.740   4.360   4.848 -0.6129  0.6896 -0.4449
  615MOL0     C84788   6.672   4.246   4.905  0.1975 -1.0041  0.0328
  615MOL0     C84789   6.544   4.275   4.961  0.1127 -0.4360 -0.0553
  615MOL0     C84790   6.492   4.403   4.953 -0.0164  0.5227 -1.1834
  615MOL0     O84791   6.365   4.413   5.015 -0.1833 -0.0699  0.1713
  615MOL0     C84792   6.292   4.539   4.997 -1.2289  0.1914  0.2464
  615MOL0     C84793   6.170   4.506   5.071  0.4214 -0.3917  0.0919
  615MOL0     C84794   6.061   4.618   5.023  0.8307 -0.2407  0.2170
  615MOL0     C84795   5.917   4.567   5.021 -0.4793  0.1921 -0.1436
  615MOL0     C84796   5.871   4.542   5.160 -0.3601 -0.2472 -0.6765
  615MOL0     C84797   5.831   4.537   5.276  0.4899 -0.2480  0.0797
  615MOL0     C84798   6.562   4.507   4.884  0.0418  0.3150 -0.4166
  615MOL0     C84799   6.689   4.485   4.838  0.4011 -0.3326  0.1100
  615MOL0     C84800   6.756   4.611   4.785  0.5643  0.5852 -0.3956
  615MOL0     H84801   7.038   3.993   4.917  1.3448 -0.3608 -0.4469
  615MOL0     H84802   7.259   3.908   4.883  0.5600 -0.3980 -1.3714
  615MOL0     H84803   7.481   3.898   4.914 -0.7475 -0.9743 -1.6147
  615MOL0     H84804   7.637   3.948   4.849  0.0811  1.0960 -0.3398
  615MOL0     H84805   7.578   3.733   4.783 -1.4609 -1.5170 -0.5810
  615MOL0     H84806   7.430   3.793   4.693 -0.1790  0.0758 -0.7259
  615MOL0     H84807   7.551   3.921   4.545  0.8791  1.5663  0.6582
  615MOL0     H84808   7.708   3.891   4.628 -0.2704 -0.9331  0.9851
  615MOL0     H84809   7.655   3.643   4.575  0.2987  0.5861  0.6126
  615MOL0     H84810   7.521   3.705   4.467 -0.7052  0.1349 -0.4821
  615MOL0     H84811   7.806   3.746   4.436 -0.7436  0.3942  1.4921
  615MOL0     H84812   7.695   3.866   4.374 -2.4038 -0.6939  1.9548
  615MOL0     H84813   7.690   3.565   4.301  0.0717 -1.4653 -2.0590
  615MOL0     H84814   7.569   3.674   4.242  1.0649 -0.9484 -1.0333
  615MOL0     H84815   7.866   3.727   4.194  0.6855 -2.0569 -2.5955
  615MOL0     H84816   7.727   3.788   4.101  1.6285  1.1652 -0.6871
  615MOL0     H84817   7.831   3.506   4.122 -3.3150 -2.4527 -0.5837
  615MOL0     H84818   7.682   3.534   4.052  0.6275 -1.9299  1.2778
  615MOL0     H84819   8.036   3.679   3.996 -2.9855  1.7965  2.0783
  615MOL0     H84820   8.162   3.809   3.804  2.6221 -0.3093 -1.9663
  615MOL0     H84821   8.054   3.856   3.674  2.7641  0.0337 -0.2179
  615MOL0     H84822   8.219   3.607   3.673 -0.4339 -0.2885 -1.5040
  615MOL0     H84823   8.103   3.655   3.546  0.7756 -2.2174  0.3701
  615MOL0     H84824   8.246   3.874   3.548 -2.3516  0.5324  1.2922
  615MOL0     H84825   8.358   3.782   3.633  0.4632 -0.7836 -1.1226
  615MOL0     H84826   8.335   3.593   3.451  1.4592 -0.4364 -2.2141
  615MOL0     H84827   8.256   3.695   3.352  1.2686 -0.9290 -1.0459
  615MOL0     H84828   8.618   3.923   3.309 -0.6192  0.9139  0.8164
  615MOL0     H84829   8.818   3.983   3.256 -1.7255  1.4982  3.4542
  615MOL0     H84830   8.939   3.852   3.270 -2.1868 -0.7687 -2.5475
  615MOL0     H84831   8.936   3.990   3.381 -0.8121  1.8165 -1.8758
  615MOL0     H84832   9.094   3.848   3.768  3.1608  4.0836  0.8007
  615MOL0     H84833   9.346   3.879   3.835 -0.7550  0.6106 -0.4678
  615MOL0     H84834   9.490   3.585   4.017  0.2372  0.6559  1.3882
  615MOL0     H84835   9.578   3.519   3.876 -2.1534  1.8952 -3.9368
  615MOL0     H84836   9.746   3.712   3.917  0.6824  1.3542  1.6101
  615MOL0     H84837   9.663   3.743   4.067  1.1717 -2.1155  1.5291
  615MOL0     H84838   9.786   3.480   3.985  1.1251  0.1618  0.1532
  615MOL0     H84839   9.693   3.515   4.133  1.5965 -0.7498  1.6364
  615MOL0     H84840   9.856   3.720   4.164 -2.1690  0.9202 -2.3702
  615MOL0     H84841   9.953   3.644   4.039  0.3521 -0.8634  0.8567
  615MOL0     H84842   9.880   3.498   4.293 -1.6459 -0.1138 -2.0291
  615MOL0     H84843   9.985   3.430   4.162  0.6794  0.2800 -1.1774
  615MOL0     H84844  10.053   3.676   4.323  1.4043 -0.0207 -0.4222
  615MOL0     H84845  10.134   3.603   4.181  0.1544  1.2529  1.2541
  615MOL0     H84846  10.190   3.422   4.322  1.4314  1.4435 -1.3685
  615MOL0     H84847  10.080   3.465   4.455 -0.8737 -1.7586 -0.6829
  615MOL0     H84848  10.212   3.682   4.484 -0.7102  0.0233  1.9083
  615MOL0     H84849  10.323   3.609   4.358 -2.0424 -0.6643 -0.7605
  615MOL0     H84850   9.426   3.492   3.680 -0.2909  0.4100 -2.7867
  615MOL0     H84851   9.198   3.461   3.627 -1.1291  0.3116  1.2933
  615MOL0     H84852   8.747   3.597   3.658 -0.5760  0.5912 -0.4036
  615MOL0     H84853   8.516   3.615   3.594 -1.1407  1.3701  1.1088
  615MOL0     H84854   7.375   4.282   4.717 -0.5927 -0.1818  0.6134
  615MOL0     H84855   7.139   4.355   4.763 -0.5401 -0.4037  0.6237
  615MOL0     H84856   6.717   4.148   4.917  2.0024 -0.4441 -1.5762
  615MOL0     H84857   6.495   4.194   5.015 -0.7107  0.0967  0.0223
  615MOL0     H84858   6.344   4.626   5.037  2.1603 -0.6273 -1.9484
  615MOL0     H84859   6.280   4.554   4.889  1.0623 -3.1982 -0.6499
  615MOL0     H84860   6.186   4.510   5.179 -0.4464  0.2729  0.2138
  615MOL0     H84861   6.135   4.404   5.055 -0.5017  0.0356 -0.7419
  615MOL0     H84862   6.071   4.698   5.096 -0.6966 -0.3912  0.6249
  615MOL0     H84863   6.091   4.667   4.929  0.4719  1.0405  0.7428
  615MOL0     H84864   5.904   4.479   4.958 -0.3202 -0.3682  0.5826
  615MOL0     H84865   5.862   4.652   4.979 -0.0605  1.5263  1.8657
  615MOL0     H84866   5.789   4.537   5.374  0.3163 -1.9858  0.0263
  615MOL0     H84867   6.516   4.601   4.854 -0.3307 -0.4303 -2.3031
  615MOL0     H84868   6.853   4.609   4.837 -0.6907  0.6441  2.0811
  615MOL0     H84869   6.757   4.594   4.677 -2.2608 -1.2108 -0.2451
  615MOL0     H84870   6.700   4.702   4.806 -2.5526 -1.2556 -0.1203
  616MOL0     O84871   8.123   5.625   7.903  0.5225 -0.4107 -0.0459
  616MOL0     C84872   8.229   5.664   7.941  0.1385  0.0770  0.1505
  616MOL0     O84873   8.348   5.605   7.920 -0.2022 -0.8068  0.1082
  616MOL0     C84874   8.367   5.520   7.822  0.3487  0.3490 -0.2587
  616MOL0     C84875   8.366   5.378   7.835  0.0860 -0.1137  1.0781
  616MOL0     C84876   8.372   5.292   7.726 -0.0081 -0.1980 -0.5085
  616MOL0     C84877   8.381   5.343   7.598  0.4407  0.1508 -0.1047
  616MOL0     O84878   8.392   5.247   7.491 -0.0291 -0.0231 -0.3370
  616MOL0     C84879   8.377   5.292   7.359 -0.1173  0.2236  0.1535
  616MOL0     C84880   8.354   5.170   7.262  1.1697  0.3998  0.0581
  616MOL0     C84881   8.207   5.133   7.252 -0.1530  0.4254 -0.1132
  616MOL0     C84882   8.192   4.992   7.189  0.3325  0.5440 -0.0292
  616MOL0     C84883   8.048   4.971   7.125 -0.4717  0.0490 -0.7589
  616MOL0     C84884   8.060   4.883   7.005 -0.0889 -0.0434  0.0540
  616MOL0     C84885   7.922   4.853   6.950  0.2244  0.4718  0.6491
  616MOL0     C84886   7.935   4.788   6.811 -0.3523  0.4074  0.3814
  616MOL0     N84887   7.959   4.894   6.707 -0.7505 -0.0262 -0.5568
  616MOL0     C84888   7.857   4.948   6.623  0.0125 -0.0160  0.7709
  616MOL0     C84889   7.921   5.030   6.536  0.1571  0.2577 -0.1155
  616MOL0     C84890   7.853   5.106   6.433 -0.0253  0.2117  0.2166
  616MOL0     C84891   7.752   5.204   6.485  0.0916  0.5887  0.1656
  616MOL0     C84892   7.807   5.328   6.550  0.2229 -1.0304  0.6466
  616MOL0     C84893   7.919   5.403   6.466 -0.1158 -0.7968  0.3791
  616MOL0     O84894   8.048   5.354   6.497  0.0727 -0.3579 -0.3142
  616MOL0     C84895   8.160   5.387   6.431 -0.0902  0.7461  0.7396
  616MOL0     C84896   8.278   5.315   6.462  0.0144 -0.0982 -0.5773
  616MOL0     C84897   8.391   5.342   6.383 -0.1667  0.0364  0.4300
  616MOL0     C84898   8.513   5.242   6.406  0.0056  0.2245 -1.2898
  616MOL0     C84899   8.405   5.446   6.293  0.0495 -0.4130 -0.6387
  616MOL0     C84900   8.528   5.488   6.216 -0.0521 -0.2540  0.3855
  616MOL0     O84901   8.515   5.594   6.123 -0.7238  0.8389  0.1412
  616MOL0     C84902   8.625   5.613   6.044 -0.5273  0.0669 -0.6360
  616MOL0     C84903   8.624   5.591   5.912 -0.1665  0.6920  0.2027
  616MOL0     C84904   8.738   5.612   5.839  0.3572  0.3803 -0.3100
  616MOL0     C84905   8.847   5.677   5.896 -0.4144 -0.4266 -0.2478
  616MOL0     O84906   8.970   5.688   5.834 -0.2316 -0.2232 -0.0520
  616MOL0     C84907   8.966   5.737   5.699  0.3003  0.5367  0.1303
  616MOL0     C84908   9.104   5.801   5.669  0.8530 -0.0040  0.6688
  616MOL0     C84909   9.114   5.939   5.745  0.2572  0.1910  0.3651
  616MOL0     C84910   9.028   6.045   5.679  0.2730  0.2360  1.3366
  616MOL0     C84911   9.099   6.142   5.597 -0.5646  0.4818 -0.0364
  616MOL0     C84912   9.017   6.260   5.539 -0.1879  0.3142 -0.5233
  616MOL0     C84913   8.904   6.204   5.439  0.3731 -0.6134  0.0816
  616MOL0     C84914   8.847   6.327   5.360 -1.0300  0.8308  0.0665
  616MOL0    Cl84915   8.736   6.263   5.240 -0.2407  0.1755 -0.1944
  616MOL0     C84916   8.847   5.698   6.030 -0.1714 -0.1225  0.5394
  616MOL0     C84917   8.742   5.670   6.104 -0.1891  0.7508  1.0604
  616MOL0     O84918   8.637   5.421   6.231 -0.0375 -0.2639 -0.3476
  616MOL0     C84919   8.285   5.523   6.269 -0.3122 -0.7072 -0.0284
  616MOL0     C84920   8.167   5.492   6.343  0.2493  0.4335 -0.1731
  616MOL0     N84921   8.056   5.020   6.565 -0.5315  0.1706  0.0754
  616MOL0     N84922   8.074   4.936   6.661  0.7476  0.1334  0.6040
  616MOL0     C84923   8.391   5.483   7.582 -0.3175 -0.6294  0.3257
  616MOL0     C84924   8.386   5.565   7.691 -0.4935 -1.2893  0.4487
  616MOL0     C84925   8.231   5.785   8.018 -1.1685 -0.8001  0.1866
  616MOL0     C84926   8.364   5.829   8.058 -0.4534 -0.9308  0.6684
  616MOL0     C84927   8.381   5.938   8.143 -0.7968  0.2592  0.8213
  616MOL0     C84928   8.273   6.018   8.187  0.1448  0.4231 -0.2081
  616MOL0     O84929   8.284   6.138   8.244  0.1594 -0.2853 -0.1636
  616MOL0     C84930   8.417   6.181   8.285  1.0294 -0.5480 -0.1588
  616MOL0     C84931   8.500   6.269   8.188  1.1610  0.2404 -0.1622
  616MOL0     C84932   8.642   6.279   8.243 -0.3358  0.7482 -0.3143
  616MOL0     C84933   8.712   6.395   8.173  0.4278 -0.0834 -0.4728
  616MOL0     C84934   8.844   6.414   8.242 -0.2570 -0.1406  0.4330
  616MOL0     C84935   8.944   6.413   8.311 -0.4441  0.1374  0.5946
  616MOL0     C84936   8.149   5.986   8.132  0.4961 -0.0830  0.4175
  616MOL0     C84937   8.124   5.877   8.041  1.0785  0.2082  0.1511
  616MOL0     C84938   7.993   5.863   7.982 -0.6880 -0.1911  0.1160
  616MOL0     H84939   8.348   5.325   7.928  1.7405 -3.7101 -0.4843
  616MOL0     H84940   8.382   5.185   7.743  5.0198  0.3822  1.9871
  616MOL0     H84941   8.469   5.342   7.327 -0.2038  0.2782 -0.0151
  616MOL0     H84942   8.297   5.367   7.349 -1.0773 -0.9596 -1.7126
  616MOL0     H84943   8.387   5.208   7.165 -1.1327  0.9469 -0.5738
  616MOL0     H84944   8.414   5.081   7.285 -2.1112 -1.6802  1.3055
  616MOL0     H84945   8.159   5.142   7.350  0.4769  0.6946  0.1731
  616MOL0     H84946   8.162   5.207   7.184 -4.0913 -1.3470  0.2812
  616MOL0     H84947   8.260   4.988   7.104 -0.4790 -0.3980 -0.6649
  616MOL0     H84948   8.211   4.910   7.260 -0.8815  0.9891  0.8547
  616MOL0     H84949   7.992   5.057   7.088 -1.1074 -0.7887 -1.7958
  616MOL0     H84950   7.984   4.918   7.196  0.1942  1.2766  0.7999
  616MOL0     H84951   8.107   4.941   6.926  0.2572 -0.9602 -0.4242
  616MOL0     H84952   8.112   4.788   7.018 -1.8205 -0.7871  2.2773
  616MOL0     H84953   7.869   4.948   6.947  2.2094  1.6039 -0.2435
  616MOL0     H84954   7.867   4.784   7.015 -0.9981  1.0091  0.2204
  616MOL0     H84955   8.008   4.707   6.810 -0.0312  0.5857 -3.2425
  616MOL0     H84956   7.844   4.741   6.772  1.1231 -1.2346 -1.2522
  616MOL0     H84957   7.750   4.933   6.626 -0.1325 -0.6315 -2.7379
  616MOL0     H84958   7.801   5.031   6.373 -0.7830  1.3836 -0.6331
  616MOL0     H84959   7.922   5.152   6.362  2.8369 -0.7789  2.1865
  616MOL0     H84960   7.704   5.236   6.392 -0.1048 -0.3633 -0.0823
  616MOL0     H84961   7.674   5.160   6.547 -0.6737  0.5533 -0.7902
  616MOL0     H84962   7.723   5.398   6.556  0.4592 -0.8512  2.3064
  616MOL0     H84963   7.847   5.300   6.648  0.8866 -0.4795  0.5443
  616MOL0     H84964   7.894   5.409   6.359  2.2505 -3.0168 -0.4122
  616MOL0     H84965   7.922   5.508   6.498 -1.6152 -0.6433  0.1019
  616MOL0     H84966   8.260   5.235   6.534 -0.1528 -1.9039 -2.5255
  616MOL0     H84967   8.589   5.297   6.463 -0.0239 -3.2982  2.6564
  616MOL0     H84968   8.554   5.202   6.313 -2.6369  2.9855 -3.8982
  616MOL0     H84969   8.478   5.154   6.461 -4.3049  2.0413 -0.7139
  616MOL0     H84970   8.538   5.545   5.866 -0.6751  2.3181 -0.5536
  616MOL0     H84971   8.748   5.584   5.735 -0.6671  0.2843 -0.3859
  616MOL0     H84972   8.955   5.654   5.629 -2.1684  1.0892 -0.2430
  616MOL0     H84973   8.880   5.804   5.687  0.1336  0.6322  1.6945
  616MOL0     H84974   9.179   5.723   5.679  0.8131 -0.4619 -1.8935
  616MOL0     H84975   9.112   5.837   5.566  1.3276  1.0150  1.0534
  616MOL0     H84976   9.220   5.962   5.730 -0.0510  1.4681 -0.0433
  616MOL0     H84977   9.097   5.932   5.852  0.2213  1.2164  0.4438
  616MOL0     H84978   8.982   6.104   5.759 -2.3288 -0.0038  0.1499
  616MOL0     H84979   8.948   6.007   5.614  1.0294  1.1764 -0.1823
  616MOL0     H84980   9.190   6.173   5.649  0.1611  2.6450 -2.3978
  616MOL0     H84981   9.140   6.086   5.512  0.3471  2.9433 -1.3019
  616MOL0     H84982   9.086   6.328   5.488  0.5701  0.6049  0.8442
  616MOL0     H84983   8.962   6.315   5.616  0.3586  0.9272 -0.5594
  616MOL0     H84984   8.816   6.168   5.492 -2.2874  3.5037 -1.0605
  616MOL0     H84985   8.948   6.137   5.364  0.8159  0.8753 -1.0462
  616MOL0     H84986   8.931   6.375   5.309  0.9191 -1.6225  0.7647
  616MOL0     H84987   8.796   6.396   5.428 -0.4896  2.5589 -1.1960
  616MOL0     H84988   8.928   5.747   6.084 -0.5283  0.0708  0.9062
  616MOL0     H84989   8.733   5.675   6.212 -1.3062  0.0406  1.0167
  616MOL0     H84990   8.271   5.594   6.188 -0.9519  0.0976  0.7678
  616MOL0     H84991   8.080   5.554   6.327 -1.2258 -0.8441  2.3762
  616MOL0     H84992   8.409   5.517   7.481  0.3937  0.5520  0.8292
  616MOL0     H84993   8.388   5.672   7.673 -1.2861 -0.6842  3.3212
  616MOL0     H84994   8.457   5.789   8.018 -0.6221 -1.0105  0.3444
  616MOL0     H84995   8.486   5.961   8.162 -0.3439 -1.7911  1.0696
  616MOL0     H84996   8.403   6.248   8.370  1.6286 -1.4383  0.6685
  616MOL0     H84997   8.467   6.095   8.332 -1.0404 -1.1525  1.0849
  616MOL0     H84998   8.451   6.366   8.176  2.4587  0.8554 -0.6805
  616MOL0     H84999   8.501   6.221   8.090 -0.6885 -1.8957  0.7657
  616MOL0     H85000   8.634   6.292   8.352  2.9919 -0.6742  0.2476
  616MOL0     H85001   8.699   6.188   8.225  1.3234  2.1190 -2.5451
  616MOL0     H85002   8.654   6.488   8.176  0.4290 -0.0084 -1.9479
  616MOL0     H85003   8.731   6.372   8.068 -0.1845 -0.8123 -0.4322
  616MOL0     H85004   9.021   6.410   8.386 -0.4040  3.0845  0.7664
  616MOL0     H85005   8.070   6.059   8.139  0.7770  0.4120 -1.2212
  616MOL0     H85006   7.998   5.872   7.873  0.4469  2.6578  0.3176
  616MOL0     H85007   7.954   5.764   8.009  2.9994 -2.5040 -2.2571
  616MOL0     H85008   7.921   5.941   8.009 -0.5144  1.3292 -3.3147
  617MOL0     O85009   3.210   9.519   5.220  0.0113  0.5267  0.0371
  617MOL0     C85010   3.176   9.597   5.305  0.4541  0.3085 -0.8419
  617MOL0     O85011   3.240   9.716   5.334 -0.8949 -0.0359 -1.0273
  617MOL0     C85012   3.374   9.732   5.323 -0.8388  0.2349 -0.3714
  617MOL0     C85013   3.430   9.857   5.284 -1.2156 -0.0568 -0.4991
  617MOL0     C85014   3.572   9.874   5.275  0.7093  1.0874 -0.4555
  617MOL0     C85015   3.664   9.764   5.293  0.6115 -0.0734  0.3072
  617MOL0     O85016   3.805   9.770   5.297 -0.6432 -0.1709  0.3034
  617MOL0     C85017   3.883   9.860   5.216 -0.0381 -0.3776 -0.9137
  617MOL0     C85018   4.023   9.793   5.194  1.0774 -0.3622  0.2691
  617MOL0     C85019   4.121   9.876   5.112  0.5140  0.7626 -0.3583
  617MOL0     C85020   4.225   9.781   5.062 -0.6080  0.6669 -0.2910
  617MOL0     C85021   4.341   9.842   4.972  1.0335  0.3469  0.2202
  617MOL0     C85022   4.452   9.904   5.056  0.4882  0.6387  0.3389
  617MOL0     C85023   4.554   9.972   4.964  0.1031  0.1979 -0.5664
  617MOL0     C85024   4.662   9.883   4.910 -0.5241  0.0584 -0.7054
  617MOL0     N85025   4.757   9.960   4.826 -0.9646  0.1190 -0.6350
  617MOL0     C85026   4.758   9.967   4.690 -0.0421  0.1053 -0.9895
  617MOL0     C85027   4.889   9.991   4.655  0.3818  0.0811  0.5766
  617MOL0     C85028   4.927  10.002   4.508 -0.3161 -0.3001 -0.3609
  617MOL0     C85029   4.826  10.113   4.450 -0.6264  0.5386 -1.0964
  617MOL0     C85030   4.842  10.122   4.303 -0.0731 -0.4246 -0.4020
  617MOL0     C85031   4.732  10.210   4.232 -0.3322  0.0433  0.1916
  617MOL0     O85032   4.608  10.133   4.257  0.5045 -0.5591  0.5442
  617MOL0     C85033   4.508  10.126   4.171  0.2552 -0.0635  0.2113
  617MOL0     C85034   4.523  10.127   4.030  0.8662  0.3291 -0.0431
  617MOL0     C85035   4.415  10.131   3.935  0.3435  0.1328 -0.1471
  617MOL0     C85036   4.447  10.121   3.785  0.6313  0.7042 -0.0727
  617MOL0     C85037   4.287  10.136   3.993  0.2811 -0.6654  0.0557
  617MOL0     C85038   4.167  10.150   3.911  0.5402 -0.5822 -0.4711
  617MOL0     O85039   4.064  10.070   3.954  0.0888 -0.0100  0.4678
  617MOL0     C85040   3.939  10.090   3.895 -0.5013  0.2250  0.9240
  617MOL0     C85041   3.868  10.203   3.926  0.1207  0.3965  0.6858
  617MOL0     C85042   3.762  10.245   3.850 -0.5905  0.1418  0.6390
  617MOL0     C85043   3.721  10.164   3.736 -1.2333 -0.8832 -1.0178
  617MOL0     O85044   3.631  10.196   3.637 -0.1664 -0.1161 -0.9968
  617MOL0     C85045   3.524  10.278   3.689  0.4322 -0.1801 -0.5897
  617MOL0     C85046   3.522  10.425   3.652  0.4131 -0.3903  0.6197
  617MOL0     C85047   3.559  10.429   3.500  0.1348  0.1921 -0.3744
  617MOL0     C85048   3.707  10.456   3.472  0.3001  0.8315 -0.0804
  617MOL0     C85049   3.756  10.435   3.324  0.2161 -0.0053 -0.2371
  617MOL0     C85050   3.912  10.418   3.307 -0.8721 -0.1664  0.6720
  617MOL0     C85051   3.956  10.431   3.155  0.4769  0.3931 -0.5466
  617MOL0     C85052   4.099  10.378   3.137 -0.3999  0.1891 -0.8533
  617MOL0    Cl85053   4.223  10.426   3.262  0.2238 -0.6096 -0.2170
  617MOL0     C85054   3.798  10.048   3.722 -0.3363  0.0482  1.2624
  617MOL0     C85055   3.896  10.003   3.800 -0.1534 -0.0912 -1.1252
  617MOL0     O85056   4.168  10.234   3.814 -0.5726  0.6589 -0.2179
  617MOL0     C85057   4.275  10.131   4.131  0.0046 -0.8064  0.4504
  617MOL0     C85058   4.382  10.127   4.227 -0.4429 -0.7819  0.6847
  617MOL0     N85059   4.964   9.987   4.766 -0.0187 -0.4965  0.7258
  617MOL0     N85060   4.885   9.981   4.868 -1.1501 -0.5455  0.0533
  617MOL0     C85061   3.606   9.636   5.317 -0.0974 -0.4320 -0.0073
  617MOL0     C85062   3.470   9.626   5.333  0.4288  0.0233 -0.0646
  617MOL0     C85063   3.037   9.568   5.357 -0.2277  0.4855  0.1618
  617MOL0     C85064   2.968   9.448   5.327  0.1724  0.1515 -0.9115
  617MOL0     C85065   2.840   9.420   5.371 -0.6112  0.0041  0.5162
  617MOL0     C85066   2.771   9.503   5.455  0.1323 -0.6469  0.4473
  617MOL0     O85067   2.637   9.477   5.481 -0.0135  0.2735 -0.3397
  617MOL0     C85068   2.531   9.573   5.493  0.0516  0.1536 -0.1537
  617MOL0     C85069   2.513   9.675   5.375  0.6739 -0.3535  0.2574
  617MOL0     C85070   2.450   9.612   5.251  0.0448  0.2661 -0.0028
  617MOL0     C85071   2.533   9.493   5.198  1.0165 -0.4551 -0.1090
  617MOL0     C85072   2.481   9.435   5.077 -0.1157  0.4142 -0.4612
  617MOL0     C85073   2.457   9.380   4.968 -0.4389  0.4000  0.0859
  617MOL0     C85074   2.831   9.628   5.498  0.2230  0.4663  0.4579
  617MOL0     C85075   2.962   9.660   5.446 -0.3079 -0.4284 -0.2883
  617MOL0     C85076   3.013   9.801   5.473  0.0039  0.7098 -0.1771
  617MOL0     H85077   3.364   9.933   5.245 -1.3844 -0.0564 -0.2144
  617MOL0     H85078   3.624   9.962   5.239 -0.6577  2.0096 -0.2306
  617MOL0     H85079   3.888   9.958   5.265 -0.1299 -0.2721 -1.1148
  617MOL0     H85080   3.841   9.869   5.116  2.1921 -0.4288 -1.9230
  617MOL0     H85081   4.067   9.771   5.292 -2.3215 -0.1915  1.9440
  617MOL0     H85082   3.990   9.703   5.142 -0.5885 -1.2932  2.7370
  617MOL0     H85083   4.079   9.929   5.026  1.2101  1.1754 -0.4444
  617MOL0     H85084   4.164   9.956   5.173  0.6819  0.7734 -0.4937
  617MOL0     H85085   4.263   9.730   5.151 -2.3511 -3.1705 -1.5362
  617MOL0     H85086   4.169   9.707   5.005 -0.9552  1.5407 -1.1143
  617MOL0     H85087   4.294   9.917   4.909  1.3553 -0.8461 -1.4962
  617MOL0     H85088   4.381   9.755   4.918  0.6111  0.2644  0.0398
  617MOL0     H85089   4.399   9.980   5.115  2.0082  2.0698 -0.0735
  617MOL0     H85090   4.497   9.832   5.124 -2.2653 -1.6970 -0.1287
  617MOL0     H85091   4.594  10.050   5.030  0.7288 -0.4919 -0.1054
  617MOL0     H85092   4.509  10.018   4.876 -2.4970  0.0969  0.6311
  617MOL0     H85093   4.713   9.844   4.998 -0.1518 -0.8731 -1.3178
  617MOL0     H85094   4.629   9.789   4.865  1.0335 -1.1346  0.4966
  617MOL0     H85095   4.669   9.958   4.629 -0.1381 -0.0612 -0.8262
  617MOL0     H85096   4.902   9.908   4.459  0.9691 -0.6373 -0.4194
  617MOL0     H85097   5.032  10.024   4.487 -0.5194 -0.3503 -1.4577
  617MOL0     H85098   4.724  10.083   4.478  1.0486 -3.1972  1.9789
  617MOL0     H85099   4.835  10.211   4.499 -1.6721  0.5194 -0.8216
  617MOL0     H85100   4.939  10.160   4.271  0.1657 -0.1800  0.5662
  617MOL0     H85101   4.831  10.025   4.254 -1.8533 -0.0283 -0.8716
  617MOL0     H85102   4.731  10.316   4.258  2.5324  0.0551  0.5710
  617MOL0     H85103   4.753  10.207   4.124 -0.0674  0.0454  0.2432
  617MOL0     H85104   4.619  10.129   3.981  1.5857  1.0877  1.3511
  617MOL0     H85105   4.438  10.219   3.738 -0.5856 -0.4034 -2.2871
  617MOL0     H85106   4.375  10.052   3.740  1.0583  0.4475 -0.3816
  617MOL0     H85107   4.544  10.080   3.753  1.0158  1.2728  0.3334
  617MOL0     H85108   3.910  10.274   3.997 -0.9355  2.1075 -0.3064
  617MOL0     H85109   3.711  10.340   3.857  2.0996  1.8838 -1.2447
  617MOL0     H85110   3.440  10.231   3.637  0.2703 -2.6998  1.7255
  617MOL0     H85111   3.504  10.266   3.796 -0.2392 -1.5075 -0.8359
  617MOL0     H85112   3.426  10.474   3.670  0.5434  0.0098  0.2327
  617MOL0     H85113   3.596  10.477   3.714  0.6535  1.7279 -1.3228
  617MOL0     H85114   3.505  10.510   3.451  1.4006  0.8002 -0.7885
  617MOL0     H85115   3.514  10.345   3.445 -0.4429  0.7919 -0.8360
  617MOL0     H85116   3.768  10.401   3.544 -0.4594 -2.3800 -1.7349
  617MOL0     H85117   3.728  10.561   3.498 -0.8302  0.2679  3.7798
  617MOL0     H85118   3.714  10.344   3.281 -0.1162 -0.0439  0.1750
  617MOL0     H85119   3.714  10.519   3.268 -0.1425  0.7950  1.1931
  617MOL0     H85120   3.946  10.328   3.360  0.7973  0.3282  0.4853
  617MOL0     H85121   3.963  10.505   3.351  2.0523 -1.7835  0.7581
  617MOL0     H85122   3.947  10.534   3.119 -1.4851  0.5421  0.2669
  617MOL0     H85123   3.879  10.379   3.096 -1.1225  1.0407  0.8835
  617MOL0     H85124   4.136  10.400   3.036 -0.1416  2.1780 -0.3598
  617MOL0     H85125   4.090  10.270   3.146  2.7045 -0.1565 -0.9737
  617MOL0     H85126   3.758   9.989   3.640 -1.3989  1.8925  0.3833
  617MOL0     H85127   3.944   9.908   3.780 -0.2535 -0.3762 -0.0812
  617MOL0     H85128   4.173  10.140   4.166 -1.0091 -2.5193 -1.7792
  617MOL0     H85129   4.375  10.137   4.335 -1.3945 -3.1464  0.8954
  617MOL0     H85130   3.672   9.554   5.345  1.5780  1.1275  0.8024
  617MOL0     H85131   3.430   9.527   5.353  1.0891 -0.4964 -1.2096
  617MOL0     H85132   3.019   9.380   5.259  0.6906 -0.2576 -0.1157
  617MOL0     H85133   2.783   9.343   5.320 -1.0142  0.8236 -0.2691
  617MOL0     H85134   2.441   9.510   5.500  0.8248 -0.8227  1.8776
  617MOL0     H85135   2.543   9.627   5.587  0.1935 -1.0310  0.5356
  617MOL0     H85136   2.612   9.720   5.363  1.4217 -0.9908  3.0658
  617MOL0     H85137   2.443   9.750   5.412  0.3425 -0.9328  0.8283
  617MOL0     H85138   2.353   9.571   5.278  0.6535 -1.1507  0.1164
  617MOL0     H85139   2.443   9.693   5.178  1.5659 -0.0481 -0.5476
  617MOL0     H85140   2.526   9.419   5.278 -0.3032  0.0950  0.3190
  617MOL0     H85141   2.627   9.537   5.164  0.6918 -0.1563 -0.6399
  617MOL0     H85142   2.432   9.334   4.874  1.2382 -0.3496 -0.0327
  617MOL0     H85143   2.785   9.706   5.559  0.8384  0.8153  0.4830
  617MOL0     H85144   3.108   9.787   5.525 -0.6398  1.7076  1.3134
  617MOL0     H85145   3.033   9.849   5.376 -2.1975  1.9249 -0.0982
  617MOL0     H85146   2.956   9.850   5.552  2.4143 -1.9154  3.4851
  618MOL0     O85147   4.956   7.163   5.715  0.5939  0.2895  0.7661
  618MOL0     C85148   4.976   7.095   5.815  0.8393  0.1550 -0.2971
  618MOL0     O85149   5.094   7.073   5.877 -0.4948 -0.2087 -0.4918
  618MOL0     C85150   5.199   7.149   5.832 -0.1924  0.5750 -0.5535
  618MOL0     C85151   5.256   7.130   5.707 -0.5376  0.1537  0.0875
  618MOL0     C85152   5.370   7.199   5.679  0.0016 -0.4285  0.4747
  618MOL0     C85153   5.437   7.289   5.769 -0.1991 -0.6622  0.0970
  618MOL0     O85154   5.548   7.352   5.717  1.0991  0.1958 -0.0009
  618MOL0     C85155   5.649   7.382   5.811 -0.2181  0.0849 -0.2921
  618MOL0     C85156   5.779   7.416   5.744 -0.3114 -0.1300  0.1828
  618MOL0     C85157   5.907   7.380   5.824 -0.4043 -0.2617 -0.0483
  618MOL0     C85158   6.037   7.399   5.751  0.2412 -0.1737 -0.0982
  618MOL0     C85159   6.150   7.414   5.847  0.0139  0.5244 -0.3322
  618MOL0     C85160   6.293   7.422   5.790 -0.0764  0.5510  0.5687
  618MOL0     C85161   6.397   7.432   5.897  0.2479  0.1315 -0.8418
  618MOL0     C85162   6.538   7.437   5.843  0.4508  0.7283  0.9228
  618MOL0     N85163   6.630   7.436   5.958  0.2075 -0.0938 -0.4936
  618MOL0     C85164   6.677   7.327   6.023 -0.5168  0.3301  0.7093
  618MOL0     C85165   6.791   7.355   6.097  0.3165 -0.0503 -0.1780
  618MOL0     C85166   6.867   7.269   6.189  0.5173 -0.1758 -0.5072
  618MOL0     C85167   6.983   7.200   6.122 -0.7905  0.6432 -0.1803
  618MOL0     C85168   7.057   7.120   6.227  0.0241  0.2705  0.0673
  618MOL0     C85169   7.180   7.047   6.177  0.5489 -0.1792  0.7237
  618MOL0     O85170   7.278   7.139   6.118 -0.4147 -0.6215  0.5257
  618MOL0     C85171   7.388   7.089   6.056  0.3907  0.1612 -0.0747
  618MOL0     C85172   7.365   6.993   5.961  0.4453 -0.0391  0.9608
  618MOL0     C85173   7.470   6.938   5.887  0.4667 -0.0036 -0.2591
  618MOL0     C85174   7.434   6.834   5.789 -0.0274  0.3978  0.1412
  618MOL0     C85175   7.598   6.990   5.899 -0.5796 -0.6384  0.2238
  618MOL0     C85176   7.718   6.942   5.816  0.5009  0.1897  0.4333
  618MOL0     O85177   7.821   7.032   5.794  0.2368 -0.2490 -0.2415
  618MOL0     C85178   7.936   6.983   5.730  0.5472  0.3965  0.1906
  618MOL0     C85179   8.020   6.875   5.774  0.1823 -0.0231  0.4008
  618MOL0     C85180   8.128   6.831   5.700  0.3821  0.1833 -0.3504
  618MOL0     C85181   8.159   6.897   5.577 -0.4883 -0.0371 -0.7113
  618MOL0     O85182   8.266   6.849   5.502 -0.4609 -0.2333  0.1132
  618MOL0     C85183   8.237   6.759   5.390 -0.5846 -0.1483  0.3359
  618MOL0     C85184   8.206   6.617   5.428 -0.2530  0.1292  0.3222
  618MOL0     C85185   8.130   6.521   5.326 -0.0492 -0.5183 -0.0310
  618MOL0     C85186   8.216   6.470   5.205  0.4525  0.7111  0.0601
  618MOL0     C85187   8.158   6.337   5.162  0.0030 -0.4286  0.5388
  618MOL0     C85188   8.187   6.216   5.245  0.2125  0.2060  0.1145
  618MOL0     C85189   8.340   6.198   5.260  0.9481 -0.2611  1.0190
  618MOL0     C85190   8.389   6.052   5.284  0.9452 -0.5872 -0.3856
  618MOL0    Cl85191   8.314   5.964   5.436 -0.2065 -0.1429  0.0798
  618MOL0     C85192   8.084   7.011   5.540  0.8622  0.1532  0.1805
  618MOL0     C85193   7.976   7.053   5.613  0.0334 -0.2817  0.3554
  618MOL0     O85194   7.712   6.829   5.769 -0.3121  0.2744 -0.0089
  618MOL0     C85195   7.616   7.089   5.998 -0.3901 -0.3788 -0.2514
  618MOL0     C85196   7.510   7.142   6.071 -0.4874  0.8774  0.2727
  618MOL0     N85197   6.822   7.488   6.062  0.3399  0.0952  0.0019
  618MOL0     N85198   6.725   7.532   5.978  0.2166  0.8784  0.1497
  618MOL0     C85199   5.387   7.304   5.895 -0.6719 -0.2809  0.7810
  618MOL0     C85200   5.266   7.233   5.926 -0.3657 -0.2788 -0.1637
  618MOL0     C85201   4.859   7.016   5.864  0.5115  0.5455  0.4988
  618MOL0     C85202   4.875   6.896   5.947  0.4510  0.6525 -0.0031
  618MOL0     C85203   4.770   6.816   5.976  0.1905 -0.0917 -0.4354
  618MOL0     C85204   4.642   6.831   5.917 -0.0853 -0.2303 -0.2222
  618MOL0     O85205   4.531   6.762   5.943 -0.3620 -0.5850  0.0632
  618MOL0     C85206   4.553   6.635   6.011 -0.0374  0.4490 -0.3456
  618MOL0     C85207   4.423   6.573   6.052  0.1499 -0.6891  0.6211
  618MOL0     C85208   4.436   6.450   6.143  0.0627  0.1832  0.6211
  618MOL0     C85209   4.309   6.407   6.218 -0.2779 -0.0716 -0.2709
  618MOL0     C85210   4.314   6.466   6.349  0.2116  0.5719 -0.3806
  618MOL0     C85211   4.314   6.511   6.460  0.5669 -0.1518 -0.0880
  618MOL0     C85212   4.618   6.952   5.844  0.4177 -0.0486 -0.6256
  618MOL0     C85213   4.723   7.041   5.817  0.8088  0.4712 -0.4472
  618MOL0     C85214   4.658   7.168   5.760 -0.6211 -0.4402 -0.1152
  618MOL0     H85215   5.208   7.058   5.642  1.4072 -0.6015 -0.6004
  618MOL0     H85216   5.407   7.182   5.578 -1.2473  0.7615 -0.2167
  618MOL0     H85217   5.677   7.300   5.878  3.8480  1.9929  0.6721
  618MOL0     H85218   5.623   7.464   5.879 -0.7439 -1.6454  1.6990
  618MOL0     H85219   5.781   7.366   5.647  1.2808 -1.8534  1.0344
  618MOL0     H85220   5.772   7.522   5.720 -0.1743  0.0880  1.0720
  618MOL0     H85221   5.908   7.439   5.916 -2.0108  0.8465 -0.6886
  618MOL0     H85222   5.906   7.275   5.856  1.0600  0.1477  1.4691
  618MOL0     H85223   6.061   7.323   5.677  0.7679 -0.9529  0.8432
  618MOL0     H85224   6.037   7.494   5.696  0.8521 -0.6349 -0.9046
  618MOL0     H85225   6.148   7.335   5.923 -2.1038  1.5314  0.7397
  618MOL0     H85226   6.132   7.504   5.907 -1.0396 -0.4674  0.9092
  618MOL0     H85227   6.299   7.330   5.730 -1.5441  2.3221 -2.5433
  618MOL0     H85228   6.305   7.507   5.722  0.2948  0.7140  0.8282
  618MOL0     H85229   6.378   7.350   5.967 -0.8368 -0.3091 -1.6384
  618MOL0     H85230   6.372   7.520   5.957 -1.0834 -0.6588 -0.1753
  618MOL0     H85231   6.557   7.354   5.774  1.3934  1.5505  0.1442
  618MOL0     H85232   6.553   7.535   5.797  2.8779 -0.6466 -1.5418
  618MOL0     H85233   6.626   7.232   6.022 -1.3252  0.6412 -2.9968
  618MOL0     H85234   6.802   7.203   6.248  0.1881  0.9641  0.4369
  618MOL0     H85235   6.917   7.326   6.267 -0.7574 -2.2991  2.0052
  618MOL0     H85236   6.943   7.132   6.046 -3.9539  1.5646  0.5224
  618MOL0     H85237   7.049   7.269   6.067  1.0942  0.1216  1.3074
  618MOL0     H85238   7.101   7.184   6.304 -0.9927  0.5797  0.4034
  618MOL0     H85239   6.994   7.048   6.280  2.3568 -0.2341  2.3688
  618MOL0     H85240   7.225   6.987   6.256  0.6183 -2.3969 -0.9274
  618MOL0     H85241   7.142   6.979   6.100  0.0024  1.2022 -0.2829
  618MOL0     H85242   7.265   6.952   5.950  0.2832  0.6897 -0.5459
  618MOL0     H85243   7.327   6.828   5.766 -0.3410  2.0653  1.0252
  618MOL0     H85244   7.470   6.733   5.811  3.2985  1.3272 -0.4655
  618MOL0     H85245   7.468   6.870   5.691 -4.3140  0.2595 -1.6469
  618MOL0     H85246   7.992   6.817   5.862  1.1636  0.9593  1.3991
  618MOL0     H85247   8.187   6.749   5.738  0.2919  1.2533  2.3083
  618MOL0     H85248   8.157   6.807   5.333 -0.3839  1.7420  1.5613
  618MOL0     H85249   8.327   6.750   5.328 -0.0172 -1.6770  1.3285
  618MOL0     H85250   8.298   6.558   5.439 -0.1048  0.5429  1.4909
  618MOL0     H85251   8.163   6.624   5.528  3.9486 -1.9291  2.5378
  618MOL0     H85252   8.041   6.571   5.286  1.2017  1.2595 -0.7091
  618MOL0     H85253   8.106   6.439   5.395 -1.4223 -1.9707 -2.0976
  618MOL0     H85254   8.323   6.469   5.229  0.8351 -0.8099 -1.4613
  618MOL0     H85255   8.197   6.549   5.131  0.5398  0.8410  0.1754
  618MOL0     H85256   8.051   6.358   5.159 -0.2394 -0.7080  3.7028
  618MOL0     H85257   8.183   6.313   5.058 -1.7810 -3.3117  0.6671
  618MOL0     H85258   8.150   6.123   5.202  3.3720 -0.2812 -1.9643
  618MOL0     H85259   8.143   6.228   5.344  1.8926  2.2049  0.7000
  618MOL0     H85260   8.382   6.262   5.337  1.1719  3.5152 -1.9382
  618MOL0     H85261   8.377   6.227   5.161  0.7769 -0.2943  0.9460
  618MOL0     H85262   8.498   6.046   5.293  0.9546  0.9264  1.1255
  618MOL0     H85263   8.350   5.998   5.197 -2.1782  0.0288  0.5361
  618MOL0     H85264   8.111   7.065   5.450  0.3707  1.2835  0.7014
  618MOL0     H85265   7.913   7.131   5.573  0.6828  0.4877  0.7961
  618MOL0     H85266   7.714   7.130   6.020  0.6067 -3.2280  1.1091
  618MOL0     H85267   7.525   7.223   6.142 -2.3236  0.8032  0.7966
  618MOL0     H85268   5.424   7.381   5.962 -1.5397  1.2453 -0.4295
  618MOL0     H85269   5.224   7.251   6.024  1.1518  0.7962  0.3259
  618MOL0     H85270   4.965   6.883   6.006  0.1574  1.5532  0.6709
  618MOL0     H85271   4.788   6.731   6.041 -0.1660  0.4236  0.3451
  618MOL0     H85272   4.613   6.566   5.950 -0.7311 -0.1644 -0.3473
  618MOL0     H85273   4.609   6.642   6.105  0.9292 -0.6750 -0.8146
  618MOL0     H85274   4.371   6.551   5.958  2.4957  1.8375 -1.4252
  618MOL0     H85275   4.376   6.652   6.111  0.0793 -0.4172  0.1983
  618MOL0     H85276   4.461   6.368   6.075 -1.7872  0.5766 -0.5822
  618MOL0     H85277   4.521   6.468   6.209 -0.4322  2.1409  0.7717
  618MOL0     H85278   4.295   6.299   6.218  4.1759 -0.8335 -1.1728
  618MOL0     H85279   4.220   6.451   6.173 -1.8980 -2.1446  0.7061
  618MOL0     H85280   4.303   6.562   6.554 -0.3232  1.5319 -1.0649
  618MOL0     H85281   4.519   6.977   5.809  0.0180 -0.6920  0.0070
  618MOL0     H85282   4.667   7.166   5.651 -0.2171  1.9347 -0.1763
  618MOL0     H85283   4.554   7.184   5.792 -0.1477 -0.1609  1.3623
  618MOL0     H85284   4.707   7.259   5.795  0.0768 -0.5830 -0.6991
  619MOL0     O85285   8.688   9.445   3.451  0.1435 -0.1613  0.2844
  619MOL0     C85286   8.572   9.464   3.400  0.1127  0.8954 -0.6837
  619MOL0     O85287   8.549   9.475   3.264 -0.0235 -1.0174 -0.6243
  619MOL0     C85288   8.662   9.501   3.186  0.7137 -0.7223 -0.6396
  619MOL0     C85289   8.709   9.632   3.173  0.0490 -0.5339  0.7058
  619MOL0     C85290   8.794   9.674   3.067  0.3075  0.0964  0.3987
  619MOL0     C85291   8.856   9.568   2.992 -0.4139  0.9550  0.2384
  619MOL0     O85292   8.925   9.597   2.875 -0.4684  0.1267  0.3339
  619MOL0     C85293   9.009   9.710   2.888  0.6189  0.0877  0.7728
  619MOL0     C85294   9.130   9.691   2.797 -0.0807 -0.3031 -0.1153
  619MOL0     C85295   9.214   9.559   2.820 -0.0896  0.2132  1.0271
  619MOL0     C85296   9.321   9.537   2.716  0.0762  0.7010 -0.4210
  619MOL0     C85297   9.403   9.413   2.765 -0.0303 -0.5280  0.0522
  619MOL0     C85298   9.522   9.387   2.674  0.1486  0.7201  0.1474
  619MOL0     C85299   9.624   9.279   2.742 -1.4575 -0.1211  0.6956
  619MOL0     C85300   9.631   9.150   2.656 -0.1141 -0.4798 -0.3124
  619MOL0     N85301   9.697   9.162   2.527 -0.4412  0.0314  0.2121
  619MOL0     C85302   9.831   9.179   2.512 -0.0990  0.1733 -0.7815
  619MOL0     C85303   9.845   9.192   2.378 -0.4459 -0.2252 -0.8525
  619MOL0     C85304   9.980   9.199   2.309 -0.9167 -0.2949 -0.0154
  619MOL0     C85305  10.097   9.104   2.348  0.9957 -0.7734 -0.0872
  619MOL0     C85306  10.083   8.959   2.306 -0.1760 -0.1416  0.9060
  619MOL0     C85307  10.220   8.882   2.330 -0.1355 -0.9705  0.4946
  619MOL0     O85308  10.223   8.840   2.463 -0.2779 -0.3694 -0.7019
  619MOL0     C85309  10.339   8.800   2.522 -0.0756  0.1897  0.6664
  619MOL0     C85310  10.340   8.764   2.656  0.3672 -0.4139 -0.0466
  619MOL0     C85311  10.464   8.732   2.729  1.2263  0.8788  0.6068
  619MOL0     C85312  10.448   8.702   2.877 -0.1100  0.7534  0.5458
  619MOL0     C85313  10.583   8.747   2.657 -0.2233  0.4200  0.2247
  619MOL0     C85314  10.723   8.755   2.726 -0.4496 -0.4573 -0.2250
  619MOL0     O85315  10.837   8.762   2.648  0.9138  0.3061 -0.1807
  619MOL0     C85316  10.959   8.745   2.704  0.0372  0.5159 -0.3228
  619MOL0     C85317  11.044   8.641   2.658  0.6094  1.0769  0.8781
  619MOL0     C85318  11.166   8.607   2.720  0.0164  0.5298 -0.1911
  619MOL0     C85319  11.212   8.694   2.814 -0.3240  0.4122  0.1264
  619MOL0     O85320  11.336   8.680   2.865  0.2842  0.1843  0.1667
  619MOL0     C85321  11.335   8.593   2.983 -0.2633 -0.3898  0.2253
  619MOL0     C85322  11.474   8.553   3.032  0.5360  0.0687 -1.3394
  619MOL0     C85323  11.556   8.469   2.934 -0.0039  0.2409 -0.0665
  619MOL0     C85324  11.681   8.413   3.012  0.5662  0.5367 -1.0403
  619MOL0     C85325  11.756   8.308   2.922  0.0653 -0.0816 -0.3354
  619MOL0     C85326  11.883   8.258   2.995  0.0328 -0.3488 -0.2132
  619MOL0     C85327  11.961   8.157   2.912 -0.0407 -0.3397 -0.7582
  619MOL0     C85328  12.081   8.111   2.997  0.0197  0.2516 -0.8731
  619MOL0    Cl85329  12.159   7.959   2.931 -0.0874 -0.4985  0.0681
  619MOL0     C85330  11.135   8.798   2.869  0.2477 -0.4602  0.7151
  619MOL0     C85331  11.005   8.820   2.817 -0.0016  0.8766 -0.1877
  619MOL0     O85332  10.722   8.753   2.846  0.2417 -0.1833 -0.9281
  619MOL0     C85333  10.578   8.780   2.519  0.3807  0.0774 -0.5707
  619MOL0     C85334  10.458   8.801   2.461  0.3760  0.1979 -0.0800
  619MOL0     N85335   9.720   9.201   2.325  0.1807  0.2421  0.4707
  619MOL0     N85336   9.626   9.185   2.419  0.1710  0.5839  0.3895
  619MOL0     C85337   8.824   9.431   3.028  0.2056 -0.8640  0.2919
  619MOL0     C85338   8.734   9.403   3.130 -0.5276  0.4407  0.7914
  619MOL0     C85339   8.462   9.453   3.501  0.9105  0.3727  0.3742
  619MOL0     C85340   8.493   9.411   3.628 -0.6812  0.3024 -0.3855
  619MOL0     C85341   8.395   9.379   3.719 -0.2375 -0.4533 -0.6746
  619MOL0     C85342   8.254   9.396   3.690  0.1975  0.3010 -0.4966
  619MOL0     O85343   8.168   9.370   3.798 -1.1471 -1.2045  0.9545
  619MOL0     C85344   8.038   9.324   3.769  0.4770  0.2966 -0.1635
  619MOL0     C85345   7.963   9.304   3.901  0.4731 -0.2474  0.2825
  619MOL0     C85346   7.939   9.433   3.969  0.7461  0.0807 -0.9610
  619MOL0     C85347   7.888   9.415   4.114 -0.8194 -0.5021  1.0324
  619MOL0     C85348   7.745   9.388   4.109  0.0602  0.2275 -0.2406
  619MOL0     C85349   7.623   9.379   4.130  0.4556 -0.6798  0.4656
  619MOL0     C85350   8.221   9.430   3.556 -0.0572 -0.4776 -0.0700
  619MOL0     C85351   8.323   9.464   3.463 -0.7869 -0.2889  0.2026
  619MOL0     C85352   8.272   9.497   3.319 -0.9493 -0.0070 -1.0496
  619MOL0     H85353   8.660   9.705   3.237  0.8453  0.9650 -0.3255
  619MOL0     H85354   8.818   9.780   3.059 -1.2846  0.6658  2.2765
  619MOL0     H85355   9.045   9.716   2.991  1.9998  1.3769  0.2537
  619MOL0     H85356   8.946   9.796   2.861 -1.2694 -0.9845  1.5681
  619MOL0     H85357   9.099   9.701   2.692  1.2768  0.9776 -0.4367
  619MOL0     H85358   9.191   9.781   2.811  0.2535 -0.6359  0.6312
  619MOL0     H85359   9.259   9.552   2.920  0.8126  0.5626  0.6567
  619MOL0     H85360   9.146   9.474   2.813  3.1771 -2.6773  1.2939
  619MOL0     H85361   9.270   9.516   2.622 -1.3418  0.1181  0.4362
  619MOL0     H85362   9.382   9.628   2.717  0.1303  0.6801 -1.3002
  619MOL0     H85363   9.338   9.324   2.770 -0.0882 -0.5368 -0.7904
  619MOL0     H85364   9.436   9.436   2.866 -0.5799 -1.9960  0.6014
  619MOL0     H85365   9.475   9.349   2.583  0.2060  1.0712 -0.0322
  619MOL0     H85366   9.584   9.475   2.652 -0.7463  1.5455  0.8623
  619MOL0     H85367   9.593   9.255   2.844  0.9152 -0.3706  1.4168
  619MOL0     H85368   9.722   9.326   2.750 -1.4019 -0.5763  3.6358
  619MOL0     H85369   9.686   9.074   2.713  0.5008  0.9855  1.0987
  619MOL0     H85370   9.529   9.116   2.637 -0.5811  0.7750 -0.1333
  619MOL0     H85371   9.899   9.168   2.595 -2.9263  1.8158  1.9565
  619MOL0     H85372  10.013   9.302   2.326  0.4803 -1.1212  2.8130
  619MOL0     H85373   9.952   9.184   2.204 -0.6128  0.4001 -0.2038
  619MOL0     H85374  10.189   9.145   2.308  0.5670  2.6522  2.0577
  619MOL0     H85375  10.113   9.109   2.456 -0.0779 -0.2199  0.0625
  619MOL0     H85376  10.006   8.908   2.364 -1.2785  1.2800  0.7276
  619MOL0     H85377  10.071   8.958   2.197  1.4174 -2.3930  0.6820
  619MOL0     H85378  10.233   8.792   2.270 -2.1012 -1.0062  0.0417
  619MOL0     H85379  10.306   8.941   2.297 -0.2530  0.0417  1.8849
  619MOL0     H85380  10.243   8.763   2.705 -0.3376 -3.4143 -1.2472
  619MOL0     H85381  10.345   8.668   2.886  0.4981 -3.3161 -3.7228
  619MOL0     H85382  10.489   8.783   2.938 -1.4619  1.3925  0.6458
  619MOL0     H85383  10.504   8.612   2.902  1.6341  1.7305  0.3317
  619MOL0     H85384  11.004   8.567   2.590  0.3531  0.2025  1.9649
  619MOL0     H85385  11.227   8.525   2.684  1.2450  2.2949 -2.3829
  619MOL0     H85386  11.295   8.651   3.067  0.0835 -2.3105  1.8006
  619MOL0     H85387  11.281   8.498   2.981 -0.2424 -0.4021  0.2542
  619MOL0     H85388  11.522   8.649   3.051  0.7754 -0.0701 -1.2258
  619MOL0     H85389  11.467   8.485   3.117 -1.8940 -0.7354 -2.0914
  619MOL0     H85390  11.600   8.538   2.861 -0.2873  0.3658 -0.1201
  619MOL0     H85391  11.497   8.395   2.879  1.4838 -0.8051 -0.3225
  619MOL0     H85392  11.644   8.355   3.097 -0.9876  1.2998 -1.1614
  619MOL0     H85393  11.758   8.480   3.051  1.3602  0.7223 -2.8253
  619MOL0     H85394  11.691   8.226   2.890  1.6825 -1.4066 -0.3500
  619MOL0     H85395  11.793   8.356   2.830  2.5473 -1.8472 -0.3564
  619MOL0     H85396  11.845   8.206   3.084 -1.6313 -2.4730 -2.0500
  619MOL0     H85397  11.951   8.342   3.009  0.7215 -0.8706 -0.4212
  619MOL0     H85398  11.991   8.195   2.814 -1.5106  0.1348 -1.0520
  619MOL0     H85399  11.900   8.067   2.904 -0.2834 -0.2944  0.4553
  619MOL0     H85400  12.041   8.075   3.093  0.1415  1.7520 -0.2258
  619MOL0     H85401  12.147   8.196   3.018  1.4839 -1.0430 -0.0068
  619MOL0     H85402  11.169   8.862   2.950 -1.0544  0.3664  0.6378
  619MOL0     H85403  10.944   8.900   2.858  1.0570  2.4249 -1.4875
  619MOL0     H85404  10.668   8.801   2.462  1.1765 -0.9606  0.2714
  619MOL0     H85405  10.458   8.810   2.353 -4.3735 -1.1409 -0.4303
  619MOL0     H85406   8.859   9.358   2.956 -0.9157 -1.0477 -0.0759
  619MOL0     H85407   8.711   9.300   3.156 -0.0037  0.4987  1.5240
  619MOL0     H85408   8.592   9.383   3.662 -0.7733  0.9149  0.4180
  619MOL0     H85409   8.432   9.344   3.815 -0.5689 -1.1249 -0.7906
  619MOL0     H85410   7.976   9.392   3.709 -0.6372 -0.1078  0.5168
  619MOL0     H85411   8.037   9.232   3.711 -0.8855 -0.1891  0.5949
  619MOL0     H85412   8.037   9.244   3.955 -0.0469  0.1548  1.4982
  619MOL0     H85413   7.872   9.246   3.880  1.7449 -1.7553 -1.3251
  619MOL0     H85414   8.030   9.493   3.963 -1.3553  3.4520 -3.7737
  619MOL0     H85415   7.867   9.494   3.913 -0.3107  0.3094  0.5786
  619MOL0     H85416   7.917   9.501   4.176 -1.8383  0.8481 -0.3251
  619MOL0     H85417   7.948   9.330   4.149 -1.2348 -2.6571 -2.8907
  619MOL0     H85418   7.517   9.366   4.137  0.5028 -0.8775  0.8484
  619MOL0     H85419   8.119   9.441   3.519 -0.5975 -0.9166  1.2219
  619MOL0     H85420   8.163   9.494   3.304 -0.8318  0.0207 -2.0196
  619MOL0     H85421   8.308   9.596   3.289  0.2783  0.1151  0.6950
  619MOL0     H85422   8.321   9.425   3.253 -0.1841  0.1879 -0.6992
  620MOL0     O85423   4.602   9.836   9.640  0.4101 -0.3040  0.3687
  620MOL0     C85424   4.524   9.739   9.646 -0.1442 -1.2099 -0.0423
  620MOL0     O85425   4.552   9.605   9.653  0.0595 -0.9478 -0.3601
  620MOL0     C85426   4.680   9.556   9.668  0.5783  0.1911  0.1176
  620MOL0     C85427   4.709   9.446   9.741 -0.6758  0.5994 -0.6481
  620MOL0     C85428   4.832   9.376   9.729  0.2227  0.0030 -0.3962
  620MOL0     C85429   4.938   9.436   9.661  0.2435  0.8575 -0.8183
  620MOL0     O85430   5.068   9.374   9.676  0.1046  0.6043 -0.1459
  620MOL0     C85431   5.187   9.456   9.703  1.0476  0.0892 -0.5596
  620MOL0     C85432   5.219   9.460   9.856 -0.5608 -0.6416 -0.1211
  620MOL0     C85433   5.278   9.332   9.900 -0.0938 -0.0906 -0.1437
  620MOL0     C85434   5.321   9.333  10.051  0.3511 -0.9343 -0.2536
  620MOL0     C85435   5.395   9.206  10.094 -0.6487 -0.3133 -0.0988
  620MOL0     C85436   5.480   9.215  10.225 -0.2482 -0.0833  0.3372
  620MOL0     C85437   5.562   9.090  10.251 -0.7833 -0.2664 -1.1515
  620MOL0     C85438   5.694   9.070  10.167  0.0840  0.1890  0.0866
  620MOL0     N85439   5.802   9.161  10.207 -0.4309 -0.3835  0.0984
  620MOL0     C85440   5.850   9.179  10.333 -0.8592  0.6144  0.0557
  620MOL0     C85441   5.967   9.244  10.330 -0.2740  0.4270  0.9001
  620MOL0     C85442   6.075   9.273  10.436 -0.4017  0.0724 -0.0822
  620MOL0     C85443   6.198   9.183  10.402 -1.4225  0.2932 -1.3869
  620MOL0     C85444   6.292   9.160  10.520  0.9898  0.9103 -0.0882
  620MOL0     C85445   6.402   9.061  10.485  0.1743  0.5892 -0.2020
  620MOL0     O85446   6.465   9.096  10.360  0.0795  0.7922 -0.6497
  620MOL0     C85447   6.586   9.150  10.354 -0.3997 -0.8689 -0.0909
  620MOL0     C85448   6.605   9.273  10.294  0.1823  0.3457 -0.4246
  620MOL0     C85449   6.728   9.337  10.281  0.3541  0.0784 -0.1250
  620MOL0     C85450   6.736   9.470  10.206 -0.4908  0.5694 -0.7400
  620MOL0     C85451   6.841   9.285  10.350  0.3294 -0.3714  0.6957
  620MOL0     C85452   6.976   9.347  10.358 -0.6096 -0.1562 -1.1345
  620MOL0     O85453   6.996   9.478  10.355  0.4810  0.0597  0.3854
  620MOL0     C85454   7.114   9.536  10.391 -0.2493 -0.8657 -0.2519
  620MOL0     C85455   7.226   9.507  10.314 -0.4883  0.0620 -0.0094
  620MOL0     C85456   7.335   9.583  10.338 -0.2340  0.2698 -0.6248
  620MOL0     C85457   7.340   9.681  10.445 -0.3337  0.6387  0.7061
  620MOL0     O85458   7.466   9.734  10.469  0.7521 -0.3102 -0.0907
  620MOL0     C85459   7.472   9.850  10.551 -0.4522  0.3204  0.0837
  620MOL0     C85460   7.493   9.808  10.695 -0.1768 -0.2370  0.0718
  620MOL0     C85461   7.511   9.933  10.783 -0.2580 -0.3190 -0.7539
  620MOL0     C85462   7.528   9.891  10.928 -0.8893  1.1215  0.2296
  620MOL0     C85463   7.655   9.803  10.944  0.0483  0.2930 -1.0256
  620MOL0     C85464   7.787   9.870  10.883  0.1176 -0.5807 -0.4043
  620MOL0     C85465   7.912   9.781  10.906 -0.3220 -0.0208  0.1410
  620MOL0     C85466   8.037   9.855  10.859 -0.8173 -0.7670  0.1453
  620MOL0    Cl85467   8.080   9.996  10.966  0.0871  0.0241 -0.3607
  620MOL0     C85468   7.219   9.712  10.512 -1.5596 -0.8425 -0.0581
  620MOL0     C85469   7.105   9.634  10.497  0.7557 -0.4216 -0.1290
  620MOL0     O85470   7.064   9.269  10.382 -0.4225  0.0137  0.0761
  620MOL0     C85471   6.825   9.164  10.424 -0.7666  0.4340 -0.2434
  620MOL0     C85472   6.700   9.101  10.432  0.4125  0.5184  0.7727
  620MOL0     N85473   5.983   9.269  10.196  0.0162  0.7238 -0.3139
  620MOL0     N85474   5.883   9.226  10.126  0.4450 -0.5351  0.2637
  620MOL0     C85475   4.912   9.544   9.579 -0.4473  1.0012 -0.0994
  620MOL0     C85476   4.786   9.596   9.584 -0.6524 -1.2889 -0.2691
  620MOL0     C85477   4.380   9.771   9.640 -0.1787 -0.6334  0.7973
  620MOL0     C85478   4.338   9.896   9.682 -0.2428 -0.3089  1.0030
  620MOL0     C85479   4.208   9.940   9.670 -0.6135  0.4649 -0.4613
  620MOL0     C85480   4.107   9.855   9.622  0.3537 -0.1943  0.5351
  620MOL0     O85481   3.976   9.893   9.610  0.3178  0.4560  0.2875
  620MOL0     C85482   3.892   9.861   9.727 -0.4450  0.1667  0.1400
  620MOL0     C85483   3.870   9.978   9.827  0.3057  0.0015 -0.8873
  620MOL0     C85484   3.811   9.941   9.957 -0.9269 -0.2082  0.8311
  620MOL0     C85485   3.808  10.058  10.058  0.6295  0.5238  0.2421
  620MOL0     C85486   3.939  10.075  10.121 -0.4279 -0.3823  0.0345
  620MOL0     C85487   4.047  10.083  10.180 -1.0241  0.8629  0.7295
  620MOL0     C85488   4.154   9.731   9.574  0.2203  0.5184  0.0470
  620MOL0     C85489   4.288   9.682   9.576 -0.8123 -0.0045 -0.2573
  620MOL0     C85490   4.320   9.549   9.512 -0.4038  1.5543  0.8333
  620MOL0     H85491   4.629   9.399   9.797 -0.5669  1.0710 -0.0870
  620MOL0     H85492   4.852   9.295   9.799 -0.1390  0.1062 -0.1713
  620MOL0     H85493   5.153   9.555   9.670 -1.1430 -0.3971  0.1124
  620MOL0     H85494   5.271   9.426   9.640 -0.7107  0.5060 -3.2691
  620MOL0     H85495   5.303   9.527   9.878 -0.8792 -0.3949  0.3525
  620MOL0     H85496   5.135   9.480   9.922  0.8704  0.9421  1.3370
  620MOL0     H85497   5.208   9.250   9.883  0.6149 -0.7538  0.0428
  620MOL0     H85498   5.360   9.313   9.829 -1.4863  3.4136 -2.9917
  620MOL0     H85499   5.380   9.424  10.062 -0.0748 -0.8124  1.1554
  620MOL0     H85500   5.236   9.344  10.119  2.0591  0.9749  1.6878
  620MOL0     H85501   5.461   9.181  10.010  0.9774  1.0802  0.6938
  620MOL0     H85502   5.317   9.130  10.103 -2.1933  1.3728  1.4902
  620MOL0     H85503   5.549   9.300  10.217  0.6371 -0.6331  1.7519
  620MOL0     H85504   5.418   9.235  10.312 -1.5480  0.8138 -0.7437
  620MOL0     H85505   5.497   9.006  10.224 -2.4692  0.7370 -0.3701
  620MOL0     H85506   5.596   9.082  10.354  2.3371  0.0299 -2.0555
  620MOL0     H85507   5.729   8.968  10.186  0.1223  0.4244  1.3491
  620MOL0     H85508   5.667   9.082  10.062  0.5303  2.3689  0.1851
  620MOL0     H85509   5.802   9.145  10.425 -2.8517 -0.7530 -1.3792
  620MOL0     H85510   6.042   9.248  10.537  1.7943 -0.8520  0.4588
  620MOL0     H85511   6.098   9.380  10.441  0.9543 -0.2182  0.3755
  620MOL0     H85512   6.163   9.090  10.355  1.8592 -2.2695  0.7509
  620MOL0     H85513   6.251   9.238  10.324 -1.4115  0.9757 -0.8989
  620MOL0     H85514   6.329   9.255  10.559  1.1806  0.8217 -0.0512
  620MOL0     H85515   6.234   9.115  10.600 -0.4331 -2.3893 -2.7436
  620MOL0     H85516   6.469   9.064  10.572 -0.9532  3.2895  0.6752
  620MOL0     H85517   6.366   8.958  10.485 -0.4748  0.7572  1.9459
  620MOL0     H85518   6.512   9.319  10.261 -0.1712 -0.0652 -0.0227
  620MOL0     H85519   6.694   9.541  10.277  0.6807  0.5630 -0.0179
  620MOL0     H85520   6.674   9.457  10.117  1.3310  1.3097 -2.1926
  620MOL0     H85521   6.833   9.517  10.190  0.4726 -1.2241 -0.4809
  620MOL0     H85522   7.216   9.431  10.237  2.2688  0.3699 -0.7628
  620MOL0     H85523   7.425   9.568  10.280 -0.3662 -0.6132 -0.6165
  620MOL0     H85524   7.560   9.903  10.514  0.9999 -1.0131  1.4773
  620MOL0     H85525   7.382   9.912  10.543 -0.2634  0.8188  1.5801
  620MOL0     H85526   7.414   9.744  10.736  1.9091 -1.5645  2.2525
  620MOL0     H85527   7.579   9.740  10.701 -1.7156 -2.4823 -1.4367
  620MOL0     H85528   7.424   9.998  10.771  0.3725  0.5363 -0.8439
  620MOL0     H85529   7.593   9.994  10.743  0.9870 -1.7032 -0.4232
  620MOL0     H85530   7.445   9.828  10.962  3.4083 -4.3117  2.2984
  620MOL0     H85531   7.534   9.978  10.994 -1.3069  1.8789 -0.7157
  620MOL0     H85532   7.672   9.774  11.048 -2.2536  0.1979 -0.6344
  620MOL0     H85533   7.639   9.700  10.912  0.5361 -1.3110  3.3222
  620MOL0     H85534   7.810   9.965  10.934 -0.1305 -1.0362  0.5871
  620MOL0     H85535   7.782   9.896  10.777  0.5207  0.2699 -0.2235
  620MOL0     H85536   7.888   9.692  10.847  1.5443  1.0252 -2.4083
  620MOL0     H85537   7.909   9.760  11.014 -4.3465 -1.3324 -0.0756
  620MOL0     H85538   8.032   9.892  10.756 -0.8523  0.6297  0.6281
  620MOL0     H85539   8.131   9.800  10.847  0.0118  0.5234  0.4570
  620MOL0     H85540   7.215   9.803  10.571 -0.5679 -0.7766 -0.0773
  620MOL0     H85541   7.012   9.674  10.534  0.1817 -1.8781  0.0651
  620MOL0     H85542   6.903   9.112  10.480 -1.4965 -1.5204 -0.9647
  620MOL0     H85543   6.683   9.010  10.490 -1.6127 -1.2428 -2.3113
  620MOL0     H85544   4.993   9.587   9.521 -1.3222 -0.5677 -2.6840
  620MOL0     H85545   4.781   9.690   9.531  2.9130  0.0470  1.4401
  620MOL0     H85546   4.406   9.957   9.740  2.5969 -0.4515 -1.9091
  620MOL0     H85547   4.174  10.039   9.701 -3.6635 -1.1609  1.9271
  620MOL0     H85548   3.797   9.821   9.690 -0.4559  1.0091 -0.7797
  620MOL0     H85549   3.944   9.780   9.780  1.6502  0.9688 -0.5990
  620MOL0     H85550   3.796  10.040   9.776 -1.5049 -1.5220 -0.2635
  620MOL0     H85551   3.964  10.032   9.842  1.7170 -2.1460 -1.5025
  620MOL0     H85552   3.716   9.901   9.921  0.0975 -0.5871 -1.6641
  620MOL0     H85553   3.867   9.858  10.000  0.9971  1.4880  1.8157
  620MOL0     H85554   3.731  10.049  10.135 -1.0031 -3.1136 -1.5906
  620MOL0     H85555   3.778  10.149  10.006  0.6685  1.1182  1.2187
  620MOL0     H85556   4.136  10.090  10.240 -2.0045  0.6764  2.2558
  620MOL0     H85557   4.082   9.674   9.515 -0.0025  0.5808  0.2555
  620MOL0     H85558   4.321   9.476   9.594  1.6853  0.2014 -0.3132
  620MOL0     H85559   4.239   9.516   9.447  2.1390  1.7368 -2.7104
  620MOL0     H85560   4.407   9.537   9.447 -0.6721  0.3297  0.6720
  621MOL0     O85561   5.424   5.723   0.199  0.2703  0.3900 -0.5413
  621MOL0     C85562   5.434   5.840   0.228  0.5221  0.3359  0.3530
  621MOL0     O85563   5.554   5.901   0.257  0.0116 -0.5443 -0.5271
  621MOL0     C85564   5.661   5.817   0.245 -0.1237  0.4738  1.0161
  621MOL0     C85565   5.746   5.842   0.132  0.8178  0.5489 -0.1067
  621MOL0     C85566   5.868   5.775   0.116  0.4703 -0.0235  0.0460
  621MOL0     C85567   5.896   5.673   0.207 -1.2528  0.1240  0.7263
  621MOL0     O85568   6.013   5.586   0.191  0.3893 -0.2394  0.3302
  621MOL0     C85569   6.076   5.584   0.062 -0.1948  0.6554 -0.9033
  621MOL0     C85570   6.198   5.492   0.068  0.1693  0.0874 -0.1940
  621MOL0     C85571   6.156   5.346   0.044  0.1997 -0.0834  0.1596
  621MOL0     C85572   6.144   5.304  -0.111  0.2231 -0.0576 -0.6224
  621MOL0     C85573   6.092   5.156  -0.136  0.4890  0.5303  0.4266
  621MOL0     C85574   6.124   5.109  -0.283 -0.1956 -0.2246  0.3061
  621MOL0     C85575   6.065   4.967  -0.313  0.7159 -0.2498 -0.8082
  621MOL0     C85576   6.129   4.922  -0.443  0.3894  0.3179 -0.8142
  621MOL0     N85577   6.274   4.909  -0.433  0.1691 -0.5401 -0.0328
  621MOL0     C85578   6.354   4.839  -0.341 -0.5322  0.4885  1.4170
  621MOL0     C85579   6.483   4.836  -0.391  0.0056  0.0767  0.9134
  621MOL0     C85580   6.616   4.785  -0.325  1.1500  0.5888 -0.0349
  621MOL0     C85581   6.719   4.749  -0.442 -0.3581 -0.1707 -0.6062
  621MOL0     C85582   6.792   4.619  -0.425  0.1469  0.1556 -0.1739
  621MOL0     C85583   6.884   4.586  -0.550  0.3828 -0.2456  0.2586
  621MOL0     O85584   7.010   4.667  -0.548 -0.2725 -0.2473  0.3267
  621MOL0     C85585   7.120   4.634  -0.471  0.0179  0.3602 -0.5252
  621MOL0     C85586   7.224   4.730  -0.464  0.6300  0.4045  0.0427
  621MOL0     C85587   7.349   4.699  -0.398 -0.2039 -0.4630  0.4213
  621MOL0     C85588   7.463   4.794  -0.417  0.4800 -0.3948  0.4882
  621MOL0     C85589   7.354   4.579  -0.326  0.6081 -0.3404  0.3302
  621MOL0     C85590   7.471   4.528  -0.254  0.5320  1.0699  1.1603
  621MOL0     O85591   7.558   4.616  -0.190  0.0931  0.3685 -0.2289
  621MOL0     C85592   7.666   4.555  -0.144 -0.0024  0.4938  0.2917
  621MOL0     C85593   7.656   4.476  -0.031 -0.4720 -0.0532 -0.5171
  621MOL0     C85594   7.770   4.422   0.022 -0.0633  0.6736  0.0728
  621MOL0     C85595   7.898   4.449  -0.029 -0.5788  0.1824  0.6156
  621MOL0     O85596   8.004   4.398   0.044 -0.0502  0.0491 -0.6779
  621MOL0     C85597   8.126   4.450  -0.006  0.3530 -0.1397  0.7788
  621MOL0     C85598   8.237   4.380   0.068 -0.5967 -0.6664 -0.1368
  621MOL0     C85599   8.375   4.455   0.075  0.7458  0.5958 -0.0926
  621MOL0     C85600   8.411   4.508  -0.059  0.1787  0.0051  0.0614
  621MOL0     C85601   8.562   4.542  -0.069  0.3567 -0.6168 -0.6321
  621MOL0     C85602   8.641   4.420  -0.033 -0.6480  0.0930 -0.8819
  621MOL0     C85603   8.790   4.443  -0.080 -0.2516 -0.0051 -0.1167
  621MOL0     C85604   8.868   4.544   0.009 -0.1718  0.1239  0.3669
  621MOL0    Cl85605   9.047   4.531  -0.040 -0.1915  0.0468 -0.1013
  621MOL0     C85606   7.902   4.528  -0.145 -0.6558  0.9625 -0.2153
  621MOL0     C85607   7.785   4.583  -0.201  0.1713  0.3777  0.2045
  621MOL0     O85608   7.490   4.406  -0.256  0.3618  0.2507 -0.1914
  621MOL0     C85609   7.239   4.491  -0.323  0.7895 -0.2513  0.1721
  621MOL0     C85610   7.132   4.522  -0.400 -0.5459 -0.5235 -0.9105
  621MOL0     N85611   6.474   4.903  -0.511 -0.4915 -0.1395  0.1661
  621MOL0     N85612   6.353   4.959  -0.536  0.2017 -0.0313  0.3564
  621MOL0     C85613   5.811   5.649   0.314 -0.0821  0.6893 -0.0548
  621MOL0     C85614   5.695   5.713   0.329  0.4210 -0.1637  0.1648
  621MOL0     C85615   5.303   5.919   0.246  0.0062  0.1835 -0.6429
  621MOL0     C85616   5.319   6.056   0.281 -0.4782  0.2061 -0.0479
  621MOL0     C85617   5.208   6.139   0.309  0.2205  0.2960 -0.2927
  621MOL0     C85618   5.081   6.085   0.305 -0.8334  0.1099  0.4535
  621MOL0     O85619   4.981   6.170   0.337  0.4200 -0.0711  0.2793
  621MOL0     C85620   4.847   6.127   0.350  0.6707 -0.1248  0.3996
  621MOL0     C85621   4.765   6.242   0.415  0.5872  0.1624  0.0004
  621MOL0     C85622   4.611   6.206   0.407  0.1919  0.2644  0.4388
  621MOL0     C85623   4.532   6.311   0.324  0.0252  0.1907  0.0949
  621MOL0     C85624   4.525   6.448   0.379  0.9388 -0.3748  1.0042
  621MOL0     C85625   4.531   6.550   0.447 -0.0109 -0.2423 -0.2186
  621MOL0     C85626   5.065   5.953   0.261 -0.1698 -0.5438  0.0893
  621MOL0     C85627   5.176   5.866   0.243  0.3976  0.1400  1.1212
  621MOL0     C85628   5.141   5.731   0.186 -1.0455 -0.2470 -0.5331
  621MOL0     H85629   5.714   5.928   0.074 -0.6121 -1.4046 -2.4399
  621MOL0     H85630   5.934   5.804   0.035  1.0353  2.1081  1.1828
  621MOL0     H85631   6.109   5.686   0.041 -0.2233  0.7732 -0.3943
  621MOL0     H85632   6.004   5.553  -0.015  1.4706 -4.0178 -0.9037
  621MOL0     H85633   6.271   5.529  -0.004  1.3163 -0.2200  0.7850
  621MOL0     H85634   6.241   5.493   0.168  1.6980 -1.8088 -0.7531
  621MOL0     H85635   6.242   5.293   0.086  0.5685  1.7564  1.8697
  621MOL0     H85636   6.067   5.323   0.103  0.8209 -3.3022  0.0256
  621MOL0     H85637   6.075   5.371  -0.163 -2.4370 -1.8916  0.3236
  621MOL0     H85638   6.241   5.320  -0.159  0.6669 -0.4467  0.1337
  621MOL0     H85639   5.985   5.160  -0.116  0.0680 -2.0158 -0.9767
  621MOL0     H85640   6.127   5.079  -0.066 -2.0719 -1.0790  0.0283
  621MOL0     H85641   6.081   5.188  -0.346 -0.3645  1.0878  1.9672
  621MOL0     H85642   6.231   5.106  -0.304 -0.5898 -2.2603 -1.8517
  621MOL0     H85643   5.957   4.980  -0.321  0.6809 -0.0604 -0.1039
  621MOL0     H85644   6.110   4.899  -0.240  1.0203  0.4305 -0.3514
  621MOL0     H85645   6.092   4.822  -0.465 -2.5393  1.0387  0.3722
  621MOL0     H85646   6.106   4.982  -0.532 -0.6255  0.7958 -0.2468
  621MOL0     H85647   6.331   4.782  -0.252  3.0052 -0.6116  1.7604
  621MOL0     H85648   6.595   4.701  -0.259  0.5018  3.4604  3.7100
  621MOL0     H85649   6.661   4.867  -0.269 -0.1555  2.9516 -2.2126
  621MOL0     H85650   6.663   4.732  -0.534  1.9279 -1.1342 -1.9163
  621MOL0     H85651   6.785   4.836  -0.451 -0.5930  0.3343  1.8977
  621MOL0     H85652   6.863   4.643  -0.346  0.1466  1.1190 -0.4545
  621MOL0     H85653   6.730   4.535  -0.394 -0.5167  0.7816  0.2260
  621MOL0     H85654   6.910   4.479  -0.550 -0.1445 -0.4561  3.0446
  621MOL0     H85655   6.817   4.613  -0.632 -2.8801 -1.4548  2.3043
  621MOL0     H85656   7.202   4.827  -0.507 -3.2902 -1.0946 -1.8273
  621MOL0     H85657   7.561   4.745  -0.413  0.4181 -0.5656  0.0162
  621MOL0     H85658   7.457   4.870  -0.339 -0.5244 -0.2227  0.2581
  621MOL0     H85659   7.443   4.831  -0.518  2.6283 -2.2131 -0.7024
  621MOL0     H85660   7.559   4.453   0.012 -0.1291 -0.0608  0.2774
  621MOL0     H85661   7.767   4.359   0.110 -4.4980 -2.1135 -1.7117
  621MOL0     H85662   8.137   4.429  -0.113  1.5127 -2.3295  1.2691
  621MOL0     H85663   8.133   4.557   0.012  1.1961 -0.1553  0.5905
  621MOL0     H85664   8.206   4.354   0.169  0.5843 -1.2292  0.0966
  621MOL0     H85665   8.256   4.285   0.017  1.6967  0.5896 -1.8299
  621MOL0     H85666   8.434   4.369   0.107 -1.5944 -1.4718 -1.0291
  621MOL0     H85667   8.375   4.532   0.153  0.0465 -0.4909  1.0270
  621MOL0     H85668   8.358   4.602  -0.074  0.2591  0.1692  0.7647
  621MOL0     H85669   8.376   4.431  -0.128 -0.7073 -1.0925  1.6604
  621MOL0     H85670   8.583   4.588  -0.166 -0.6390 -0.6907 -0.8878
  621MOL0     H85671   8.582   4.617   0.009 -1.2431 -1.6693  0.8419
  621MOL0     H85672   8.592   4.335  -0.082  0.1842 -0.6315 -0.4874
  621MOL0     H85673   8.626   4.404   0.074 -1.3650  0.1211 -0.9697
  621MOL0     H85674   8.788   4.480  -0.183  1.7512  2.5197  0.6421
  621MOL0     H85675   8.832   4.342  -0.085 -1.8984 -1.0343  3.7653
  621MOL0     H85676   8.867   4.510   0.113  0.7892  1.1682  0.7352
  621MOL0     H85677   8.835   4.647   0.022  0.6580  0.3171  0.9838
  621MOL0     H85678   7.998   4.547  -0.193 -0.1778 -0.7459  0.0314
  621MOL0     H85679   7.774   4.652  -0.284 -0.6124  1.8592  1.4950
  621MOL0     H85680   7.248   4.391  -0.283  0.3022 -0.8332 -1.0917
  621MOL0     H85681   7.046   4.456  -0.408 -1.4866  0.8570 -2.8844
  621MOL0     H85682   5.842   5.573   0.385 -2.1560  0.8985  1.1501
  621MOL0     H85683   5.629   5.687   0.412 -2.1915  1.4115 -1.2762
  621MOL0     H85684   5.419   6.095   0.295  0.8686 -2.5852 -1.0733
  621MOL0     H85685   5.223   6.245   0.323 -0.5250  0.3341  0.2416
  621MOL0     H85686   4.800   6.100   0.255  2.7778 -0.6837 -0.5350
  621MOL0     H85687   4.845   6.033   0.407  0.9757 -0.0907  0.4686
  621MOL0     H85688   4.788   6.340   0.372 -1.8011  0.3952 -0.8870
  621MOL0     H85689   4.781   6.241   0.524 -1.0712 -1.7047  0.2973
  621MOL0     H85690   4.603   6.113   0.349  4.3363  0.4919 -0.8392
  621MOL0     H85691   4.561   6.189   0.503 -2.2995 -1.6789 -1.0560
  621MOL0     H85692   4.433   6.265   0.317  0.1395 -0.8172  3.3299
  621MOL0     H85693   4.579   6.326   0.227  0.4091 -0.5251  0.1645
  621MOL0     H85694   4.525   6.637   0.509 -0.0340  0.3612 -1.0446
  621MOL0     H85695   4.963   5.916   0.252 -0.8012  0.8115  1.3438
  621MOL0     H85696   5.175   5.725   0.082 -0.7253  2.3081 -0.6299
  621MOL0     H85697   5.181   5.651   0.250  0.4781  1.0514  0.2257
  621MOL0     H85698   5.034   5.711   0.185 -1.4602  1.6907  0.8304
  622MOL0     O85699   5.268   8.781   5.742  0.0101  0.4181 -0.0772
  622MOL0     C85700   5.215   8.773   5.850 -0.3780  0.2958 -0.2939
  622MOL0     O85701   5.274   8.726   5.965  0.0749 -0.9140 -0.0752
  622MOL0     C85702   5.404   8.681   5.958 -0.5899 -0.0306  0.5438
  622MOL0     C85703   5.422   8.543   5.947  0.0619 -0.2418 -0.3490
  622MOL0     C85704   5.545   8.479   5.936 -0.6661 -0.0538  0.3268
  622MOL0     C85705   5.661   8.553   5.942 -0.7158 -0.1566  0.9614
  622MOL0     O85706   5.786   8.503   5.963 -0.5140 -0.0272 -0.2588
  622MOL0     C85707   5.803   8.364   5.983  0.2111  0.0642  0.2100
  622MOL0     C85708   5.959   8.329   5.974  0.3757 -0.8329  0.0279
  622MOL0     C85709   6.044   8.411   6.075  1.2176  0.3518  1.0423
  622MOL0     C85710   6.155   8.320   6.130  0.3846  0.2331 -0.4895
  622MOL0     C85711   6.286   8.399   6.151 -0.0507 -0.1333  0.0781
  622MOL0     C85712   6.258   8.506   6.257 -0.4756 -0.1549 -0.6690
  622MOL0     C85713   6.395   8.561   6.305 -0.0805  0.2337 -1.3741
  622MOL0     C85714   6.364   8.689   6.385 -0.1166  0.4751  0.4096
  622MOL0     N85715   6.484   8.777   6.404 -0.2034  0.8288  0.1064
  622MOL0     C85716   6.505   8.856   6.512  0.6081 -0.5237  0.1154
  622MOL0     C85717   6.630   8.893   6.491 -1.3975  0.7860 -0.3169
  622MOL0     C85718   6.716   8.987   6.579  0.6644  0.4611 -0.4298
  622MOL0     C85719   6.749   8.925   6.712  0.4026  0.8330 -0.5801
  622MOL0     C85720   6.883   8.957   6.768 -0.0632  0.3645  0.5154
  622MOL0     C85721   6.882   9.103   6.819 -1.2216  0.7071  0.5545
  622MOL0     O85722   7.016   9.165   6.800 -0.4151  0.1609  0.1574
  622MOL0     C85723   7.123   9.124   6.869 -0.5833 -0.4270  0.5906
  622MOL0     C85724   7.246   9.173   6.826 -0.3935 -0.3968  0.2174
  622MOL0     C85725   7.364   9.147   6.896  0.0477 -0.0118 -0.4756
  622MOL0     C85726   7.499   9.197   6.848  0.7153 -0.1588 -0.8138
  622MOL0     C85727   7.359   9.062   7.015 -0.5282 -0.4198 -0.4964
  622MOL0     C85728   7.479   9.013   7.088 -0.7684  0.0068  0.8692
  622MOL0     O85729   7.587   9.094   7.105  0.4473 -0.5744  0.0351
  622MOL0     C85730   7.674   9.074   7.208  0.0930 -0.5575 -0.3000
  622MOL0     C85731   7.805   9.096   7.172  0.4672  0.5422  0.1410
  622MOL0     C85732   7.904   9.076   7.268 -0.0008  1.2944  0.4467
  622MOL0     C85733   7.876   9.019   7.397 -0.0121 -0.0609 -0.3864
  622MOL0     O85734   7.997   8.990   7.479  0.1275  0.3546 -0.3947
  622MOL0     C85735   7.976   8.981   7.621 -0.0713  0.2580  0.1992
  622MOL0     C85736   8.111   8.974   7.694 -0.6176  0.3120  0.9236
  622MOL0     C85737   8.199   9.099   7.671  0.1134 -0.4717 -0.1229
  622MOL0     C85738   8.317   9.114   7.780  0.3635 -0.3288 -0.0188
  622MOL0     C85739   8.444   9.186   7.736  0.4153 -0.6457  0.8156
  622MOL0     C85740   8.531   9.217   7.853  0.3503  0.1890 -0.3309
  622MOL0     C85741   8.651   9.302   7.825  0.3682  0.4440 -0.1329
  622MOL0     C85742   8.634   9.443   7.873 -0.5852 -0.1039 -0.8553
  622MOL0    Cl85743   8.776   9.530   7.823  0.1576  0.3042 -0.0820
  622MOL0     C85744   7.745   8.998   7.429 -0.0702  0.0282  0.2475
  622MOL0     C85745   7.643   9.024   7.338 -0.4403  0.3240 -0.0498
  622MOL0     O85746   7.475   8.897   7.115 -0.3065  0.6158 -0.6377
  622MOL0     C85747   7.232   9.028   7.057  0.3911  0.1070  0.7646
  622MOL0     C85748   7.121   9.058   6.989  0.6832 -0.5352  0.9451
  622MOL0     N85749   6.670   8.852   6.367 -0.8120 -0.5019 -0.1431
  622MOL0     N85750   6.583   8.779   6.314  0.2601  0.4353 -0.7291
  622MOL0     C85751   5.646   8.693   5.943  0.1063  0.4475 -0.2299
  622MOL0     C85752   5.518   8.756   5.956  0.0788  0.9322  0.1540
  622MOL0     C85753   5.085   8.835   5.861  0.0771 -0.4667 -0.1433
  622MOL0     C85754   5.043   8.935   5.764  0.2631 -0.1904  0.1467
  622MOL0     C85755   4.916   8.996   5.776 -0.1139  0.4026 -0.3287
  622MOL0     C85756   4.826   8.942   5.868  0.5733 -0.0767  0.9691
  622MOL0     O85757   4.701   9.001   5.864  0.5415 -0.0126 -0.0825
  622MOL0     C85758   4.591   8.937   5.917  0.7249  0.5350  0.0834
  622MOL0     C85759   4.455   8.995   5.877 -0.0899  0.1237 -0.2623
  622MOL0     C85760   4.417   8.975   5.727 -0.1262  0.1608  0.0668
  622MOL0     C85761   4.276   9.047   5.710  0.7578 -0.7698  0.3001
  622MOL0     C85762   4.303   9.191   5.696 -1.0860  0.6093 -0.3829
  622MOL0     C85763   4.322   9.310   5.670 -0.3903 -0.1683 -0.0793
  622MOL0     C85764   4.855   8.845   5.960 -0.2624  0.8970  0.6154
  622MOL0     C85765   4.988   8.793   5.961  0.0294 -0.6496 -0.3423
  622MOL0     C85766   5.017   8.688   6.066  0.3575 -1.0279 -0.5876
  622MOL0     H85767   5.336   8.478   5.939  0.5889 -1.0280  0.2423
  622MOL0     H85768   5.559   8.377   5.904  3.5591  0.6416 -0.6744
  622MOL0     H85769   5.751   8.313   5.901 -1.6369  1.0984  0.6758
  622MOL0     H85770   5.753   8.328   6.073 -1.3797 -0.1661 -0.7133
  622MOL0     H85771   5.978   8.228   6.012  3.0519  0.3012  2.0824
  622MOL0     H85772   5.992   8.334   5.870 -3.0860 -0.6329 -1.1874
  622MOL0     H85773   6.082   8.490   6.009  1.1186 -2.5775 -2.8713
  622MOL0     H85774   5.985   8.457   6.155  0.9156  1.2312  0.3427
  622MOL0     H85775   6.119   8.265   6.217  2.0259 -1.7065 -0.9610
  622MOL0     H85776   6.186   8.245   6.056 -1.4768 -1.6170  0.4987
  622MOL0     H85777   6.324   8.450   6.062  3.0507 -0.9462  0.8293
  622MOL0     H85778   6.367   8.338   6.189  0.8803  1.0253  0.0091
  622MOL0     H85779   6.187   8.582   6.224 -4.1902 -3.2503 -0.5678
  622MOL0     H85780   6.223   8.458   6.349  0.4750  4.4647  2.4142
  622MOL0     H85781   6.451   8.581   6.213 -1.3864  4.3474 -1.4981
  622MOL0     H85782   6.448   8.489   6.367  0.2553  0.0555 -1.8685
  622MOL0     H85783   6.297   8.746   6.320  0.8863 -2.1654 -3.2873
  622MOL0     H85784   6.324   8.668   6.484  0.3858  1.0235  0.7374
  622MOL0     H85785   6.441   8.875   6.598 -1.5907  2.8405 -2.0309
  622MOL0     H85786   6.666   9.083   6.594 -3.7819 -1.8275  1.4341
  622MOL0     H85787   6.809   9.011   6.527 -0.0931  1.5238 -1.3503
  622MOL0     H85788   6.685   8.958   6.794  1.2336 -2.6521  1.6801
  622MOL0     H85789   6.729   8.818   6.702  0.8339  0.6084  0.8493
  622MOL0     H85790   6.917   8.888   6.846 -2.8255  0.4100  1.8387
  622MOL0     H85791   6.953   8.955   6.683 -1.3397 -0.1530 -0.5631
  622MOL0     H85792   6.804   9.167   6.776 -2.3205  0.1087  1.5716
  622MOL0     H85793   6.851   9.097   6.924 -1.6558 -0.4727  0.3809
  622MOL0     H85794   7.241   9.247   6.746  0.7384  0.1246  0.6113
  622MOL0     H85795   7.567   9.115   6.872 -2.2804 -3.5371 -2.8905
  622MOL0     H85796   7.534   9.292   6.889 -0.1791 -0.4961  0.8281
  622MOL0     H85797   7.501   9.203   6.739 -1.4519 -1.6453 -1.0064
  622MOL0     H85798   7.834   9.134   7.075  0.1946  0.4774  0.0343
  622MOL0     H85799   8.003   9.098   7.228 -0.9296  2.4944 -1.3236
  622MOL0     H85800   7.935   9.069   7.672  0.8996 -0.4990  2.4104
  622MOL0     H85801   7.920   8.889   7.634  0.5962 -0.3923 -1.2800
  622MOL0     H85802   8.104   8.957   7.802  2.7038  0.8423  1.3381
  622MOL0     H85803   8.172   8.885   7.675 -0.4243  0.4103  1.0639
  622MOL0     H85804   8.132   9.185   7.670  1.8861  0.9869  0.5187
  622MOL0     H85805   8.227   9.092   7.565 -1.5345 -0.6873 -0.5718
  622MOL0     H85806   8.339   9.019   7.830  1.0077  1.1390  2.6543
  622MOL0     H85807   8.271   9.180   7.853  0.3505  0.0961 -0.4065
  622MOL0     H85808   8.504   9.136   7.660 -0.0121 -0.0498  0.0778
  622MOL0     H85809   8.404   9.277   7.689 -0.2025 -0.3200  1.9401
  622MOL0     H85810   8.558   9.122   7.899 -0.7084  0.6531  1.3324
  622MOL0     H85811   8.473   9.267   7.931 -1.6109  1.5058 -2.5268
  622MOL0     H85812   8.658   9.311   7.716 -2.6488  1.8552 -0.3306
  622MOL0     H85813   8.743   9.266   7.871  0.3917  0.8010  0.1027
  622MOL0     H85814   8.617   9.439   7.981 -2.7003  0.5735 -1.1247
  622MOL0     H85815   8.551   9.494   7.823 -1.6346  0.9354  1.7653
  622MOL0     H85816   7.720   8.961   7.528 -0.7400  0.4232  0.2356
  622MOL0     H85817   7.541   8.997   7.364 -0.0892 -0.2868  0.7264
  622MOL0     H85818   7.228   8.976   7.152  0.4982 -0.1533  0.6255
  622MOL0     H85819   7.026   9.023   7.028 -0.4477 -0.9681 -1.8774
  622MOL0     H85820   5.731   8.759   5.959  1.3002 -1.6832  3.4084
  622MOL0     H85821   5.509   8.865   5.954 -2.4623  0.7754 -0.1414
  622MOL0     H85822   5.112   8.977   5.692 -1.1656  0.6549 -0.7936
  622MOL0     H85823   4.895   9.069   5.698  1.6573  0.2128 -1.0173
  622MOL0     H85824   4.598   8.830   5.893 -0.3246  0.5722 -0.4630
  622MOL0     H85825   4.607   8.949   6.024  0.0706  0.4351  0.1968
  622MOL0     H85826   4.454   9.104   5.890  1.1397  0.1756 -0.4630
  622MOL0     H85827   4.378   8.961   5.946 -1.1581  1.4701 -0.7539
  622MOL0     H85828   4.497   9.014   5.663  0.0947 -0.8246 -0.2749
  622MOL0     H85829   4.423   8.869   5.704  2.4484 -0.1064  1.6420
  622MOL0     H85830   4.209   9.018   5.792  1.9468 -0.9182  1.2402
  622MOL0     H85831   4.227   9.016   5.617 -1.3050 -1.6961  1.6113
  622MOL0     H85832   4.329   9.415   5.650  0.7979 -0.4478 -1.2963
  622MOL0     H85833   4.789   8.819   6.042 -0.1854 -0.7043  0.2023
  622MOL0     H85834   5.096   8.724   6.133 -1.2382 -0.0113  0.8379
  622MOL0     H85835   4.927   8.676   6.127  0.1878  1.0104 -0.3515
  622MOL0     H85836   5.040   8.592   6.019 -0.6547 -2.0406  0.9203
  623MOL0     O85837   0.753   8.893   7.937 -0.2375  0.3667 -0.3355
  623MOL0     C85838   0.673   8.961   7.999  0.6062 -0.2486 -0.3731
  623MOL0     O85839   0.705   9.049   8.094  0.0428 -0.3918  0.3726
  623MOL0     C85840   0.832   9.061   8.124  0.4439  0.4975  0.5674
  623MOL0     C85841   0.930   9.122   8.036  0.7476  0.1612 -0.4374
  623MOL0     C85842   1.067   9.144   8.081 -0.0515  0.2001 -0.2576
  623MOL0     C85843   1.103   9.090   8.203  1.3734  0.1177  0.1326
  623MOL0     O85844   1.236   9.092   8.227  0.0455  0.1276  0.1803
  623MOL0     C85845   1.281   9.079   8.357  1.0684  0.0399 -0.7808
  623MOL0     C85846   1.427   9.083   8.385 -0.0517 -0.0359  0.3669
  623MOL0     C85847   1.481   9.219   8.338  0.1132 -0.5951 -0.2295
  623MOL0     C85848   1.637   9.220   8.335 -1.4744  0.3152 -0.2768
  623MOL0     C85849   1.699   9.347   8.268  0.4723  0.2828 -0.6384
  623MOL0     C85850   1.850   9.335   8.242  0.5755  0.1595 -0.2663
  623MOL0     C85851   1.886   9.446   8.140 -0.9397  0.5132 -0.5616
  623MOL0     C85852   1.929   9.394   8.005 -0.0469  0.0583  0.6281
  623MOL0     N85853   2.042   9.306   8.002 -0.0430 -0.3967  0.1730
  623MOL0     C85854   2.166   9.331   8.056 -0.2698 -0.1429 -0.7100
  623MOL0     C85855   2.239   9.234   8.021  0.0502  0.7177 -0.1656
  623MOL0     C85856   2.385   9.211   8.040  0.4200  0.4599 -0.6365
  623MOL0     C85857   2.465   9.308   7.951 -0.5107 -0.1865  0.5114
  623MOL0     C85858   2.479   9.261   7.810 -0.6387  0.1418  0.0426
  623MOL0     C85859   2.562   9.125   7.802 -0.6043 -0.2737 -0.1314
  623MOL0     O85860   2.666   9.091   7.892 -0.0517  0.8085  0.4884
  623MOL0     C85861   2.793   9.137   7.874  0.8891  0.2038  0.5981
  623MOL0     C85862   2.826   9.213   7.754  0.1471 -1.2662  0.4999
  623MOL0     C85863   2.963   9.249   7.722  0.7810 -0.3844 -0.2279
  623MOL0     C85864   2.990   9.317   7.594  0.2122  0.5724 -0.0455
  623MOL0     C85865   3.064   9.224   7.820  0.3979  0.4047 -0.1391
  623MOL0     C85866   3.193   9.282   7.822 -0.8646 -0.2809 -0.7491
  623MOL0     O85867   3.304   9.204   7.864  0.1513  0.0328  0.4328
  623MOL0     C85868   3.436   9.255   7.866 -0.2929 -0.2823  0.0239
  623MOL0     C85869   3.521   9.208   7.964  0.5657  0.5574  0.7650
  623MOL0     C85870   3.658   9.254   7.969  0.6073 -0.4157 -0.7421
  623MOL0     C85871   3.706   9.348   7.883  0.1411 -0.6725  0.1011
  623MOL0     O85872   3.835   9.406   7.892 -0.0096  0.1423  0.0434
  623MOL0     C85873   3.911   9.357   8.002 -0.1438 -0.3586 -0.1022
  623MOL0     C85874   4.059   9.385   7.970  0.7319  0.1605  0.2012
  623MOL0     C85875   4.146   9.385   8.083  0.4723  0.2953 -0.3936
  623MOL0     C85876   4.287   9.436   8.059  0.4566  0.8923 -0.5246
  623MOL0     C85877   4.360   9.454   8.188 -0.3310 -0.9967 -0.3776
  623MOL0     C85878   4.510   9.486   8.153 -0.2957 -0.9447 -0.3354
  623MOL0     C85879   4.588   9.502   8.287  0.8691  0.6826  0.0941
  623MOL0     C85880   4.737   9.532   8.257  0.3123 -0.2971 -1.1290
  623MOL0    Cl85881   4.822   9.615   8.390  0.0279  0.1141 -0.4502
  623MOL0     C85882   3.620   9.395   7.781 -0.2929 -0.4981  0.3702
  623MOL0     C85883   3.492   9.348   7.770  0.0317  0.4983 -0.0166
  623MOL0     O85884   3.204   9.396   7.791 -0.2198 -0.4411  0.8515
  623MOL0     C85885   3.029   9.145   7.933 -0.4925  0.7409 -0.3222
  623MOL0     C85886   2.897   9.103   7.960 -0.8430 -0.1745  0.8239
  623MOL0     N85887   2.161   9.157   7.933  0.0139  0.0368 -0.0708
  623MOL0     N85888   2.038   9.190   7.936 -0.3865  0.3671 -1.1224
  623MOL0     C85889   1.012   9.025   8.292  0.0032  0.1077  0.0488
  623MOL0     C85890   0.879   9.020   8.250 -0.1437  0.5827 -0.8200
  623MOL0     C85891   0.527   8.927   7.974  0.3772  0.5625 -0.2424
  623MOL0     C85892   0.446   9.043   7.974 -0.0774  0.7815  0.4561
  623MOL0     C85893   0.305   9.033   7.960 -1.1111 -0.4289  0.3698
  623MOL0     C85894   0.238   8.915   7.938 -0.3151 -0.4883  0.2331
  623MOL0     O85895   0.103   8.901   7.917 -0.3467  0.3061  0.0861
  623MOL0     C85896   0.013   9.010   7.894  0.5669 -0.3684  0.5881
  623MOL0     C85897  -0.067   9.014   7.759 -0.1522  0.1216  0.6250
  623MOL0     C85898   0.031   9.034   7.651 -0.2219 -0.6404  0.6281
  623MOL0     C85899  -0.038   9.064   7.521 -0.5576  0.5272  0.9859
  623MOL0     C85900   0.063   9.067   7.409 -0.4430 -0.4345  0.3132
  623MOL0     C85901   0.126   9.062   7.299 -0.8762 -0.4132 -0.7436
  623MOL0     C85902   0.327   8.803   7.934 -0.1665  0.0629  0.3311
  623MOL0     C85903   0.468   8.803   7.951 -1.0822  0.0011 -0.0608
  623MOL0     C85904   0.540   8.673   7.955 -0.6798  0.0759  0.5337
  623MOL0     H85905   0.907   9.173   7.943  0.0241  0.0211 -0.3465
  623MOL0     H85906   1.144   9.183   8.015  0.7153  0.8549  1.0036
  623MOL0     H85907   1.241   8.986   8.399 -1.4718  1.4989  0.2170
  623MOL0     H85908   1.236   9.163   8.411 -0.1575 -0.5673 -0.8339
  623MOL0     H85909   1.449   9.063   8.491  1.5919  0.5546  0.1713
  623MOL0     H85910   1.472   9.004   8.324  2.3183  3.3255 -2.6128
  623MOL0     H85911   1.448   9.245   8.237  0.1182 -1.1321 -0.3704
  623MOL0     H85912   1.428   9.294   8.398 -2.9451 -2.2474 -0.6657
  623MOL0     H85913   1.673   9.206   8.438 -2.6111  0.0643  0.0992
  623MOL0     H85914   1.675   9.136   8.276  0.4189  1.9259 -1.4551
  623MOL0     H85915   1.665   9.431   8.330  1.9800  1.6583 -1.5955
  623MOL0     H85916   1.644   9.361   8.175  1.6961  0.4976 -1.3421
  623MOL0     H85917   1.911   9.347   8.332  2.6759  0.4367 -1.6482
  623MOL0     H85918   1.880   9.241   8.194  0.0527 -0.2284  0.1616
  623MOL0     H85919   1.975   9.498   8.176  0.6725 -3.1203  1.2106
  623MOL0     H85920   1.805   9.519   8.131 -0.3074  1.8940  3.1876
  623MOL0     H85921   1.853   9.356   7.937  2.0422 -0.1763 -1.7338
  623MOL0     H85922   1.947   9.488   7.953  0.0536  0.2149  0.9422
  623MOL0     H85923   2.186   9.415   8.122 -0.5220 -0.1445 -0.6290
  623MOL0     H85924   2.425   9.110   8.035  1.3917  0.3756  4.2372
  623MOL0     H85925   2.405   9.232   8.145  1.0636  0.3829 -0.7340
  623MOL0     H85926   2.417   9.406   7.947  0.1615  0.1186 -1.7438
  623MOL0     H85927   2.560   9.319   8.004 -1.1777  2.1571  1.3406
  623MOL0     H85928   2.390   9.245   7.750 -0.8688 -3.5951  1.1434
  623MOL0     H85929   2.538   9.344   7.768  2.3314 -1.7768  0.0920
  623MOL0     H85930   2.491   9.046   7.827  0.2669 -0.8917  0.4885
  623MOL0     H85931   2.603   9.102   7.703  1.7239 -1.6984  1.0621
  623MOL0     H85932   2.762   9.244   7.672  0.7550  0.3314  0.6014
  623MOL0     H85933   3.005   9.420   7.628 -1.0893 -0.3985  4.0810
  623MOL0     H85934   2.906   9.316   7.524 -1.5041  0.5991  1.8920
  623MOL0     H85935   3.077   9.277   7.543  0.5183 -0.8139  1.4804
  623MOL0     H85936   3.476   9.142   8.037 -2.2911  1.0079 -0.4391
  623MOL0     H85937   3.721   9.220   8.051  0.0120 -0.6671 -0.3788
  623MOL0     H85938   3.878   9.403   8.096  2.8298  0.3104  0.7289
  623MOL0     H85939   3.903   9.248   7.999  0.4999 -0.3782 -1.5861
  623MOL0     H85940   4.092   9.303   7.905 -0.9390  0.5245 -1.1729
  623MOL0     H85941   4.062   9.484   7.924 -0.0627  0.8981  1.6302
  623MOL0     H85942   4.148   9.287   8.132  0.5536  0.8133  0.6827
  623MOL0     H85943   4.101   9.443   8.165  1.0638 -1.4385  1.2313
  623MOL0     H85944   4.281   9.531   8.006  0.1131  0.7911 -0.6666
  623MOL0     H85945   4.334   9.359   7.996 -3.2937 -0.7946 -1.5706
  623MOL0     H85946   4.322   9.531   8.255  0.7768 -2.1031  1.6115
  623MOL0     H85947   4.351   9.363   8.248 -0.8320 -2.4725 -2.5740
  623MOL0     H85948   4.504   9.578   8.095 -2.0429 -1.4601 -1.0362
  623MOL0     H85949   4.552   9.406   8.091  0.7101  0.6432 -1.7932
  623MOL0     H85950   4.581   9.404   8.334 -1.0184  1.0264  0.6189
  623MOL0     H85951   4.545   9.583   8.347 -0.1409  0.4543 -0.3150
  623MOL0     H85952   4.735   9.592   8.166 -3.6931 -2.5262 -2.7688
  623MOL0     H85953   4.786   9.440   8.224  0.3537 -0.5694 -0.3414
  623MOL0     H85954   3.639   9.469   7.704 -1.2574 -0.7471 -0.1333
  623MOL0     H85955   3.429   9.363   7.683 -0.0909  0.9619  0.1452
  623MOL0     H85956   3.102   9.129   8.012 -2.3595 -0.1567  1.3169
  623MOL0     H85957   2.879   9.050   8.053  4.7244 -1.7188  1.4075
  623MOL0     H85958   1.031   8.990   8.393 -0.1803  1.0786  0.4385
  623MOL0     H85959   0.801   8.989   8.318 -1.5979 -1.5079 -3.2499
  623MOL0     H85960   0.505   9.134   7.982  2.5593 -0.7211 -0.4663
  623MOL0     H85961   0.249   9.125   7.972 -0.2368 -0.0333  1.6070
  623MOL0     H85962  -0.052   9.004   7.982 -0.2978  1.0524  0.0859
  623MOL0     H85963   0.068   9.104   7.902 -0.7299  0.4128  0.7082
  623MOL0     H85964  -0.154   9.080   7.764 -0.1724  0.0954  0.6225
  623MOL0     H85965  -0.106   8.913   7.745  0.4350  0.1148 -1.1857
  623MOL0     H85966   0.088   9.126   7.667  0.3267 -0.4738 -1.9187
  623MOL0     H85967   0.096   8.947   7.638 -0.8784 -1.0383 -0.0724
  623MOL0     H85968  -0.101   9.153   7.526  1.2859  1.9079  0.9852
  623MOL0     H85969  -0.104   8.979   7.505 -2.7940  2.2240  0.6450
  623MOL0     H85970   0.183   9.059   7.208 -1.9150 -0.8369 -1.4047
  623MOL0     H85971   0.274   8.712   7.912 -3.4238  2.4919 -3.2019
  623MOL0     H85972   0.613   8.674   8.037 -0.4049 -0.5575  0.3028
  623MOL0     H85973   0.463   8.596   7.967  0.4160 -1.1062  0.2156
  623MOL0     H85974   0.593   8.648   7.863 -1.4474  4.5515 -1.3565
  624MOL0     O85975  11.259   4.951  11.008 -0.1501 -0.0216 -0.6803
  624MOL0     C85976  11.185   5.044  11.040  0.2788  0.4241  0.4489
  624MOL0     O85977  11.228   5.176  11.046  0.0775 -0.0646 -0.2301
  624MOL0     C85978  11.358   5.208  11.027 -0.3995  0.0618  0.5265
  624MOL0     C85979  11.396   5.312  10.935 -0.5590 -0.3512  0.1514
  624MOL0     C85980  11.534   5.345  10.915  1.0643 -0.1529 -0.5803
  624MOL0     C85981  11.640   5.271  10.971  0.9523 -0.1029 -0.3535
  624MOL0     O85982  11.769   5.318  10.952  0.0458 -0.2430  0.6724
  624MOL0     C85983  11.877   5.232  10.972  0.3282  0.0768 -0.2391
  624MOL0     C85984  11.885   5.121  10.868 -0.2404  0.3759 -0.1921
  624MOL0     C85985  11.994   5.015  10.887 -0.3268  0.0776  0.2757
  624MOL0     C85986  12.128   5.073  10.823 -0.0818 -0.6963  0.5868
  624MOL0     C85987  12.242   4.974  10.814 -0.3443  0.4850 -0.8241
  624MOL0     C85988  12.324   4.960  10.946  1.1903 -0.1112  0.5577
  624MOL0     C85989  12.456   4.888  10.929  0.2932  0.9899 -0.4886
  624MOL0     C85990  12.523   4.842  11.062  0.9977  0.1996 -0.3423
  624MOL0     N85991  12.653   4.780  11.045  0.1203  0.6170  0.3760
  624MOL0     C85992  12.693   4.683  10.959 -0.4794 -0.5335  0.3275
  624MOL0     C85993  12.826   4.658  10.980  0.0012 -0.5812  0.6442
  624MOL0     C85994  12.909   4.558  10.901  0.8722 -0.3285  0.4135
  624MOL0     C85995  12.996   4.640  10.804 -0.5015 -0.1919  0.1763
  624MOL0     C85996  13.081   4.547  10.717 -0.1975  0.2530  0.5003
  624MOL0     C85997  13.197   4.617  10.656  0.3012  0.1747  1.2221
  624MOL0     O85998  13.288   4.517  10.598 -0.2698 -0.0636  0.1702
  624MOL0     C85999  13.396   4.561  10.524  0.2114 -0.0783  0.5557
  624MOL0     C86000  13.411   4.694  10.475 -0.4021  0.1460  0.5330
  624MOL0     C86001  13.526   4.735  10.403 -0.6949 -0.3877  0.2334
  624MOL0     C86002  13.528   4.879  10.354  0.0565 -0.0439 -0.1311
  624MOL0     C86003  13.630   4.643  10.379 -0.0901  0.0499  0.4428
  624MOL0     C86004  13.759   4.671  10.304  0.0958  0.0631 -1.1186
  624MOL0     O86005  13.824   4.565  10.264 -0.9180  0.9062  0.0277
  624MOL0     C86006  13.946   4.576  10.190 -1.1640  0.3299 -0.4369
  624MOL0     C86007  13.974   4.684  10.105 -0.3187 -0.1779  0.1713
  624MOL0     C86008  14.105   4.693  10.052  0.1900 -0.4220 -0.6539
  624MOL0     C86009  14.193   4.585  10.053 -0.1331  0.2717 -0.2239
  624MOL0     O86010  14.301   4.591   9.969 -0.2589 -0.9338 -0.3830
  624MOL0     C86011  14.430   4.558  10.029  0.1828  0.6914 -0.2662
  624MOL0     C86012  14.536   4.581   9.926 -0.0055  0.1899  0.0796
  624MOL0     C86013  14.516   4.507   9.789 -0.3218  0.4057 -0.2613
  624MOL0     C86014  14.622   4.544   9.687  0.6323 -1.1231  0.0663
  624MOL0     C86015  14.757   4.470   9.713 -0.4459 -0.1741  0.7727
  624MOL0     C86016  14.875   4.547   9.665  0.3675  0.3740  0.0928
  624MOL0     C86017  14.896   4.531   9.512  0.1058  0.2352 -0.4995
  624MOL0     C86018  15.024   4.616   9.470 -0.4304 -0.5287  0.7835
  624MOL0    Cl86019  15.159   4.556   9.566  0.0992  0.3591  0.4853
  624MOL0     C86020  14.173   4.482  10.145  0.4016  0.8094 -0.5200
  624MOL0     C86021  14.055   4.485  10.216 -0.0256  0.0166  0.0871
  624MOL0     O86022  13.810   4.784  10.311 -0.1010  0.4378  0.0675
  624MOL0     C86023  13.611   4.511  10.416  0.5661 -0.3024  0.4619
  624MOL0     C86024  13.495   4.477  10.485  0.2670  0.8464  0.0958
  624MOL0     N86025  12.865   4.754  11.077 -0.1390  0.5690  0.4827
  624MOL0     N86026  12.758   4.813  11.124  0.5209 -0.0736 -0.0243
  624MOL0     C86027  11.600   5.169  11.066  0.1974 -0.2871  0.3663
  624MOL0     C86028  11.461   5.133  11.091 -0.4647 -0.0237  0.3210
  624MOL0     C86029  11.038   5.008  11.076 -0.3609  0.1695 -0.5747
  624MOL0     C86030  11.006   4.875  11.063  0.6071  0.0629 -0.1199
  624MOL0     C86031  10.874   4.832  11.073  0.1549 -0.0511 -0.0385
  624MOL0     C86032  10.773   4.928  11.103 -0.0181  0.3609 -0.8552
  624MOL0     O86033  10.644   4.896  11.121 -0.1893  0.1922 -0.0274
  624MOL0     C86034  10.607   4.902  11.258  0.3648  0.6944  0.0650
  624MOL0     C86035  10.456   4.889  11.262 -0.4103 -0.8026  0.1077
  624MOL0     C86036  10.414   4.883  11.408 -0.2793 -0.3236 -0.8560
  624MOL0     C86037  10.263   4.915  11.442 -0.3339  0.7411 -0.3053
  624MOL0     C86038  10.174   4.800  11.414 -0.3200 -0.0361 -0.1713
  624MOL0     C86039  10.096   4.710  11.388 -0.0425  0.2126 -1.0325
  624MOL0     C86040  10.801   5.065  11.115 -0.7033  0.9122 -0.0041
  624MOL0     C86041  10.938   5.109  11.107 -0.8477  0.2012 -0.6111
  624MOL0     C86042  10.974   5.250  11.130 -0.1369 -0.2821 -0.5469
  624MOL0     H86043  11.319   5.368  10.883 -0.2922 -0.4198 -0.3343
  624MOL0     H86044  11.571   5.421  10.847  0.0193  0.0018 -0.9893
  624MOL0     H86045  11.877   5.189  11.073 -1.0973 -0.3732 -0.4125
  624MOL0     H86046  11.968   5.291  10.967 -0.0319  0.7763  1.0396
  624MOL0     H86047  11.786   5.073  10.869  0.6196 -1.5151 -0.3216
  624MOL0     H86048  11.896   5.175  10.774  0.9110  2.3864  1.0333
  624MOL0     H86049  12.001   4.979  10.990 -2.1102  1.4699  0.9315
  624MOL0     H86050  11.970   4.922  10.835 -0.0652  0.5828 -0.7820
  624MOL0     H86051  12.102   5.101  10.720 -1.2000  1.3045  1.3553
  624MOL0     H86052  12.162   5.163  10.875 -0.9088 -0.0330  0.0248
  624MOL0     H86053  12.309   4.991  10.730 -1.8260  0.2545 -2.1081
  624MOL0     H86054  12.195   4.877  10.795  0.2560 -0.1668  0.8538
  624MOL0     H86055  12.331   5.059  10.992 -1.5562 -0.2561  1.4665
  624MOL0     H86056  12.262   4.903  11.017 -0.2428  0.4064 -0.2320
  624MOL0     H86057  12.524   4.964  10.890 -1.9986  2.9635 -0.8796
  624MOL0     H86058  12.445   4.800  10.864  0.4207  0.9507 -0.4573
  624MOL0     H86059  12.528   4.916  11.142  0.5298 -1.1720  1.0152
  624MOL0     H86060  12.457   4.765  11.104  1.6290  0.9926  2.2787
  624MOL0     H86061  12.636   4.632  10.881 -0.8308  2.6585 -1.6825
  624MOL0     H86062  12.840   4.484  10.859 -0.6234  0.2147  1.8352
  624MOL0     H86063  12.975   4.505  10.969  0.9329  0.7396  1.2181
  624MOL0     H86064  12.932   4.696  10.735  1.0152  1.0652 -0.2482
  624MOL0     H86065  13.052   4.709  10.867  1.4369 -0.7869 -0.8346
  624MOL0     H86066  13.104   4.460  10.779 -0.3464  0.3432  0.6840
  624MOL0     H86067  13.017   4.506  10.639 -1.4180  2.4234  0.2738
  624MOL0     H86068  13.155   4.690  10.587  1.7735  0.4109  0.5299
  624MOL0     H86069  13.253   4.669  10.735  0.4138 -2.2740  2.8818
  624MOL0     H86070  13.335   4.767  10.502 -0.7619 -0.0737  0.1288
  624MOL0     H86071  13.609   4.942  10.391 -0.5238  1.6690 -1.6137
  624MOL0     H86072  13.429   4.925  10.361 -0.4873 -1.0690 -0.7250
  624MOL0     H86073  13.553   4.874  10.248 -0.2193 -0.2821 -0.1880
  624MOL0     H86074  13.921   4.777  10.090 -0.3678 -0.6539 -3.3866
  624MOL0     H86075  14.142   4.775   9.992  0.6698 -0.7500 -0.8140
  624MOL0     H86076  14.448   4.606  10.125  1.7792 -1.6146  0.6579
  624MOL0     H86077  14.438   4.452  10.055  0.2963  0.4939 -1.0501
  624MOL0     H86078  14.540   4.688   9.901  3.3379  0.1101 -0.1710
  624MOL0     H86079  14.629   4.569   9.981 -2.4382  0.5079  4.7171
  624MOL0     H86080  14.426   4.545   9.740  0.0061  0.0910 -1.1176
  624MOL0     H86081  14.512   4.398   9.794  1.4675  0.2376 -1.6530
  624MOL0     H86082  14.634   4.652   9.693  2.1517 -1.2800  0.3072
  624MOL0     H86083  14.586   4.525   9.585 -0.3750  0.0376  0.1933
  624MOL0     H86084  14.766   4.470   9.823  0.3282 -1.0108  0.7160
  624MOL0     H86085  14.746   4.368   9.676 -0.0280 -0.1443  0.5682
  624MOL0     H86086  14.963   4.502   9.712 -1.0658 -2.9065 -0.1004
  624MOL0     H86087  14.870   4.653   9.692 -0.3755  0.4916 -0.4728
  624MOL0     H86088  14.811   4.552   9.447  1.0177  2.6528 -1.0466
  624MOL0     H86089  14.923   4.426   9.507  2.0938  0.7200 -1.0073
  624MOL0     H86090  15.012   4.724   9.480 -1.7666 -0.7247  1.6435
  624MOL0     H86091  15.047   4.597   9.365 -0.8424  3.2463 -0.1211
  624MOL0     H86092  14.246   4.405  10.167 -0.0319  0.3605 -0.6379
  624MOL0     H86093  14.022   4.405  10.281 -1.6951 -1.2424 -2.1867
  624MOL0     H86094  13.685   4.436  10.389  2.8710  2.8113 -2.6849
  624MOL0     H86095  13.474   4.372  10.503  0.8025  0.5648 -0.8213
  624MOL0     H86096  11.685   5.116  11.107  0.4464  0.2019  0.4896
  624MOL0     H86097  11.430   5.057  11.161 -0.6309  0.2495  0.5486
  624MOL0     H86098  11.085   4.802  11.046  0.8625  0.3127 -0.0027
  624MOL0     H86099  10.865   4.724  11.065  1.1570 -0.1746  0.3478
  624MOL0     H86100  10.649   4.813  11.306 -2.7458  0.2087  2.1741
  624MOL0     H86101  10.633   4.997  11.305 -0.9972  0.7559  0.7235
  624MOL0     H86102  10.422   4.795  11.218 -1.6072 -0.4827  0.3195
  624MOL0     H86103  10.412   4.981  11.223 -0.7369 -0.8992  0.2440
  624MOL0     H86104  10.429   4.776  11.425  2.3363  0.1833  0.7119
  624MOL0     H86105  10.483   4.936  11.475 -1.6744 -2.7052  2.7673
  624MOL0     H86106  10.224   4.999  11.384 -3.0147 -0.6278 -0.6502
  624MOL0     H86107  10.258   4.933  11.549 -1.6681 -1.8888  0.1707
  624MOL0     H86108  10.028   4.630  11.366 -2.2681  1.2817  1.4059
  624MOL0     H86109  10.730   5.141  11.145  0.1627  0.6744  2.9709
  624MOL0     H86110  11.020   5.298  11.042 -0.8396 -1.0124 -1.3352
  624MOL0     H86111  10.893   5.318  11.159  0.4924  0.5992 -0.7851
  624MOL0     H86112  11.041   5.246  11.216 -0.6843 -2.2846 -0.1621
  625MOL0     O86113   7.015   8.714   8.301 -0.1105 -0.0816 -0.1279
  625MOL0     C86114   7.029   8.608   8.244 -0.6665  0.2676 -0.7883
  625MOL0     O86115   7.146   8.537   8.230 -0.0265  0.5698 -0.5565
  625MOL0     C86116   7.269   8.587   8.277  0.6012  0.0205 -0.1718
  625MOL0     C86117   7.306   8.721   8.267 -0.1977 -0.1386 -0.2556
  625MOL0     C86118   7.420   8.766   8.330 -0.5628  1.0898 -0.8147
  625MOL0     C86119   7.518   8.678   8.389  0.3825  0.0217 -0.3640
  625MOL0     O86120   7.633   8.733   8.454  0.0693  0.0250 -0.2039
  625MOL0     C86121   7.730   8.657   8.517 -0.8345 -0.4891 -1.1292
  625MOL0     C86122   7.811   8.597   8.401 -0.4271  0.0849 -0.6748
  625MOL0     C86123   7.957   8.550   8.432  1.0912  0.0605  0.1807
  625MOL0     C86124   8.054   8.667   8.443  0.0821 -0.4564  0.0812
  625MOL0     C86125   8.203   8.619   8.450 -1.0401  0.5211  0.2058
  625MOL0     C86126   8.264   8.582   8.318 -1.0425  0.4458 -0.8579
  625MOL0     C86127   8.408   8.540   8.338  0.1766  0.0968  0.1318
  625MOL0     C86128   8.481   8.518   8.206 -0.9301  0.3838 -0.3631
  625MOL0     N86129   8.607   8.436   8.216  0.2652  0.7040 -0.4977
  625MOL0     C86130   8.663   8.368   8.323 -1.0065  0.3896 -0.1917
  625MOL0     C86131   8.776   8.316   8.270  0.7967 -0.1802 -0.8910
  625MOL0     C86132   8.885   8.244   8.351 -0.5469 -0.6101  0.1130
  625MOL0     C86133   9.015   8.329   8.363 -0.9316 -0.1573  1.2080
  625MOL0     C86134   9.112   8.265   8.458  0.5085  0.5816 -0.0513
  625MOL0     C86135   9.247   8.273   8.429 -1.4154  0.3634  0.1707
  625MOL0     O86136   9.289   8.409   8.446  0.1107  0.8307 -0.3651
  625MOL0     C86137   9.399   8.445   8.519  0.4745  1.0595 -0.0823
  625MOL0     C86138   9.517   8.365   8.532 -0.1599  0.3928  0.5960
  625MOL0     C86139   9.625   8.415   8.603 -0.6894  0.6837 -0.4754
  625MOL0     C86140   9.738   8.320   8.621 -0.0970 -0.4508 -0.5477
  625MOL0     C86141   9.621   8.543   8.663 -0.4416  0.2383  0.1495
  625MOL0     C86142   9.745   8.614   8.727  0.6149 -0.1599  0.4728
  625MOL0     O86143   9.744   8.756   8.720  0.5438  0.2078 -0.6379
  625MOL0     C86144   9.834   8.829   8.798 -1.0834  0.4808 -1.1615
  625MOL0     C86145   9.872   8.791   8.928  0.3098 -0.4631 -0.0227
  625MOL0     C86146   9.966   8.873   8.998  0.5428 -0.0517 -0.3351
  625MOL0     C86147   9.996   8.999   8.940 -0.1241  0.8107 -1.5244
  625MOL0     O86148  10.088   9.094   8.987  0.2468  0.8189  0.1943
  625MOL0     C86149  10.161   9.070   9.112  0.5996  0.0259  0.2988
  625MOL0     C86150  10.270   9.172   9.124  0.0616  0.4141 -0.9916
  625MOL0     C86151  10.352   9.159   9.257  0.7168 -0.2047  0.2227
  625MOL0     C86152  10.451   9.276   9.272  0.2632 -0.6563  0.0346
  625MOL0     C86153  10.520   9.278   9.411  0.1789  0.4992 -0.2790
  625MOL0     C86154  10.577   9.140   9.438 -1.0360 -1.1608 -0.2081
  625MOL0     C86155  10.666   9.136   9.560 -0.5909  0.6294 -0.2666
  625MOL0     C86156  10.811   9.176   9.525 -0.0680  0.5043  0.4705
  625MOL0    Cl86157  10.917   9.146   9.668 -0.1131 -0.0461 -0.0218
  625MOL0     C86158   9.942   9.037   8.823 -0.1392  0.1388 -0.0145
  625MOL0     C86159   9.866   8.949   8.742  0.2516 -0.3193 -0.0964
  625MOL0     O86160   9.829   8.543   8.778  0.4704 -0.2234  0.3384
  625MOL0     C86161   9.503   8.624   8.641  1.1451 -0.6699 -0.3015
  625MOL0     C86162   9.394   8.574   8.573  0.6253  0.4876  0.1055
  625MOL0     N86163   8.791   8.352   8.140  0.7981  0.2623 -0.3128
  625MOL0     N86164   8.691   8.425   8.111 -0.6126  0.5679  0.0376
  625MOL0     C86165   7.479   8.540   8.390  1.6857  0.3624  0.2139
  625MOL0     C86166   7.361   8.495   8.336  0.6417  1.0583 -0.1380
  625MOL0     C86167   6.906   8.551   8.183 -0.3599  0.4243  0.5419
  625MOL0     C86168   6.893   8.414   8.186 -1.2216 -0.6371  0.2707
  625MOL0     C86169   6.776   8.351   8.144 -1.2551 -0.1204  0.4323
  625MOL0     C86170   6.681   8.425   8.086  0.3816  0.7369 -0.1285
  625MOL0     O86171   6.588   8.341   8.028  0.2965  0.5407  0.1366
  625MOL0     C86172   6.502   8.383   7.921 -0.1375 -1.1697 -0.2802
  625MOL0     C86173   6.440   8.267   7.853 -0.3142 -0.2224  0.5083
  625MOL0     C86174   6.382   8.174   7.957  0.8880  0.7840  0.3129
  625MOL0     C86175   6.269   8.236   8.040 -0.5031  0.0802  1.8730
  625MOL0     C86176   6.214   8.137   8.135  0.3953 -0.0480  0.3015
  625MOL0     C86177   6.152   8.055   8.200 -0.2601 -0.4662  0.1051
  625MOL0     C86178   6.689   8.560   8.074 -0.1907  0.0506  0.0383
  625MOL0     C86179   6.803   8.628   8.124  0.0337 -0.2771  0.1728
  625MOL0     C86180   6.816   8.781   8.096  0.8492 -0.7405 -1.0590
  625MOL0     H86181   7.246   8.795   8.214 -1.6438 -2.6990 -2.5069
  625MOL0     H86182   7.438   8.872   8.343  1.0666  0.5897  1.8290
  625MOL0     H86183   7.679   8.580   8.575 -1.1967  0.4118 -0.2387
  625MOL0     H86184   7.792   8.715   8.586  0.4483 -1.6884 -1.2109
  625MOL0     H86185   7.760   8.508   8.364 -1.0871 -0.4951  1.5094
  625MOL0     H86186   7.818   8.671   8.320  1.5451 -0.8677 -1.4356
  625MOL0     H86187   7.957   8.490   8.523 -0.9613  2.1722  1.6848
  625MOL0     H86188   7.987   8.491   8.344 -1.3161  0.2911 -0.8713
  625MOL0     H86189   8.042   8.747   8.369  0.7551  0.3531  0.8364
  625MOL0     H86190   8.028   8.705   8.542 -2.3150  0.4301 -0.8181
  625MOL0     H86191   8.203   8.528   8.512 -1.7433  1.9149  2.3852
  625MOL0     H86192   8.266   8.689   8.505  0.0161  1.3759 -1.9834
  625MOL0     H86193   8.209   8.501   8.268  0.2462 -1.0764  0.0815
  625MOL0     H86194   8.258   8.667   8.249 -2.7223 -0.8651 -2.4267
  625MOL0     H86195   8.418   8.440   8.382 -2.1010  0.4337  1.5463
  625MOL0     H86196   8.460   8.617   8.395 -1.0168  0.6533  0.4894
  625MOL0     H86197   8.415   8.464   8.138  0.8987  1.8075 -3.4993
  625MOL0     H86198   8.504   8.616   8.162 -0.8001  2.0199  3.0305
  625MOL0     H86199   8.645   8.354   8.429  0.5263 -1.5607 -0.1394
  625MOL0     H86200   8.909   8.152   8.297 -1.2622 -0.6739 -0.1013
  625MOL0     H86201   8.857   8.212   8.451  3.0100 -0.8229  1.1904
  625MOL0     H86202   9.047   8.312   8.260  1.3733 -1.2026  2.0354
  625MOL0     H86203   9.003   8.436   8.382  0.8614  0.4935 -0.9549
  625MOL0     H86204   9.095   8.307   8.557 -1.9115  2.6889 -1.2497
  625MOL0     H86205   9.095   8.157   8.466  1.2885  0.5817  2.4672
  625MOL0     H86206   9.297   8.212   8.505 -2.7128 -0.1513  0.6438
  625MOL0     H86207   9.266   8.239   8.327 -2.1569 -2.0870  0.7581
  625MOL0     H86208   9.525   8.263   8.495 -0.6520  0.4164  0.4144
  625MOL0     H86209   9.831   8.349   8.569 -1.0509  0.0332 -2.0590
  625MOL0     H86210   9.710   8.221   8.583 -0.2128  0.0659 -1.8575
  625MOL0     H86211   9.759   8.307   8.727 -1.2667 -0.1016 -0.2662
  625MOL0     H86212   9.832   8.702   8.976 -1.3761  0.8587  1.1472
  625MOL0     H86213  10.010   8.845   9.093  2.1618  2.0674 -0.3985
  625MOL0     H86214  10.090   9.078   9.194 -1.1685  1.0996 -1.2501
  625MOL0     H86215  10.201   8.968   9.115 -0.5727 -0.5635 -1.7029
  625MOL0     H86216  10.329   9.168   9.032  1.8577  0.2942  0.1151
  625MOL0     H86217  10.213   9.266   9.122 -4.3024 -1.9701 -0.7633
  625MOL0     H86218  10.404   9.064   9.252 -0.3045 -0.7214 -2.8098
  625MOL0     H86219  10.287   9.147   9.344  0.2910  1.9054  0.2476
  625MOL0     H86220  10.399   9.371   9.258  0.8242 -0.6248 -2.3576
  625MOL0     H86221  10.521   9.280   9.187 -0.3578  1.2225 -0.4199
  625MOL0     H86222  10.605   9.346   9.410  1.6299 -0.9901  3.7166
  625MOL0     H86223  10.452   9.311   9.490  1.4789 -0.6367  1.3816
  625MOL0     H86224  10.636   9.122   9.348 -3.5033  2.4416 -2.8734
  625MOL0     H86225  10.494   9.071   9.453 -4.6674  2.9535  0.9291
  625MOL0     H86226  10.664   9.037   9.609 -1.8253  0.7060 -0.1497
  625MOL0     H86227  10.618   9.199   9.635 -1.0544 -0.7216  0.6106
  625MOL0     H86228  10.811   9.276   9.481 -0.5845  0.5065  0.4683
  625MOL0     H86229  10.843   9.109   9.445  0.1494  1.9468 -0.6951
  625MOL0     H86230   9.972   9.133   8.783 -1.6448  0.7065  0.1487
  625MOL0     H86231   9.834   8.973   8.641 -2.1494  0.8669  0.8636
  625MOL0     H86232   9.496   8.723   8.684 -0.0435 -1.3431  1.1410
  625MOL0     H86233   9.306   8.628   8.543  0.4157 -0.1135 -0.3873
  625MOL0     H86234   7.536   8.467   8.446 -0.4416 -0.1048  1.8978
  625MOL0     H86235   7.336   8.389   8.334  2.4396  0.5810  0.1848
  625MOL0     H86236   6.968   8.350   8.232  1.4378  1.0241 -1.4591
  625MOL0     H86237   6.757   8.247   8.165  1.1530 -0.3054  2.0324
  625MOL0     H86238   6.432   8.449   7.972  2.9127  2.1113  0.0532
  625MOL0     H86239   6.554   8.437   7.842  2.7986 -2.1552  0.8196
  625MOL0     H86240   6.517   8.220   7.791 -0.2169 -2.0385  1.9447
  625MOL0     H86241   6.366   8.306   7.782  0.9162  1.4794  0.0942
  625MOL0     H86242   6.341   8.091   7.898 -0.5511  1.4130  0.3860
  625MOL0     H86243   6.456   8.134   8.027 -1.0343  1.3961  2.8266
  625MOL0     H86244   6.191   8.272   7.972  0.0706  0.3820  1.3649
  625MOL0     H86245   6.315   8.318   8.097  0.8887  0.6892 -0.0343
  625MOL0     H86246   6.093   7.981   8.250 -2.5291  2.7836  2.6779
  625MOL0     H86247   6.619   8.613   8.010  0.2604  2.3129  1.2983
  625MOL0     H86248   6.759   8.807   8.006 -2.2518 -0.6471  0.7861
  625MOL0     H86249   6.771   8.833   8.181  0.6282 -2.6587  0.0810
  625MOL0     H86250   6.921   8.808   8.086  0.8797 -0.4426 -0.0586
  626MOL0     O86251   6.512   6.420   0.908  0.6308  0.2578  0.9598
  626MOL0     C86252   6.472   6.365   0.802 -0.7987 -1.1000 -1.1208
  626MOL0     O86253   6.550   6.363   0.684 -0.2158 -0.1822  0.7131
  626MOL0     C86254   6.672   6.422   0.682  0.2782  0.3754  0.8562
  626MOL0     C86255   6.688   6.550   0.637  0.2265  0.6986  0.7048
  626MOL0     C86256   6.810   6.612   0.642 -0.1292  0.1280  0.8188
  626MOL0     C86257   6.927   6.542   0.688  1.0184 -0.4350 -0.2725
  626MOL0     O86258   7.047   6.601   0.719  0.0621  0.2040  0.5293
  626MOL0     C86259   7.166   6.519   0.701  0.3931 -0.1006  0.2241
  626MOL0     C86260   7.273   6.630   0.701  0.8520  0.5225 -0.2557
  626MOL0     C86261   7.416   6.573   0.706 -0.1118 -0.3180  0.1176
  626MOL0     C86262   7.490   6.635   0.820  0.4811 -0.4484 -0.0003
  626MOL0     C86263   7.628   6.564   0.833 -0.4231  0.2660  0.6523
  626MOL0     C86264   7.719   6.635   0.922 -0.6187  0.0145 -0.8868
  626MOL0     C86265   7.777   6.766   0.865  1.0816 -0.0127 -0.0504
  626MOL0     C86266   7.840   6.735   0.725  0.0636  0.3601 -0.3749
  626MOL0     N86267   7.899   6.863   0.682  0.2939 -0.4446 -0.3423
  626MOL0     C86268   7.985   6.939   0.750  0.3603  0.1096  0.8968
  626MOL0     C86269   8.024   7.032   0.658  0.1729 -0.0772 -0.4834
  626MOL0     C86270   8.122   7.144   0.678 -0.5422  0.1445  0.5861
  626MOL0     C86271   8.261   7.087   0.656  0.5327  0.4811 -0.2298
  626MOL0     C86272   8.344   7.181   0.571 -0.1387 -0.2156  0.2387
  626MOL0     C86273   8.391   7.309   0.645  0.1494  0.4004 -0.5811
  626MOL0     O86274   8.489   7.268   0.745 -0.7939 -0.5315 -0.0219
  626MOL0     C86275   8.584   7.361   0.785 -0.4893  0.0377  0.8422
  626MOL0     C86276   8.564   7.507   0.790 -0.3901  0.1756 -0.2222
  626MOL0     C86277   8.673   7.583   0.848  0.3733  0.4516 -0.1461
  626MOL0     C86278   8.635   7.723   0.872  0.1139 -0.8114 -0.7631
  626MOL0     C86279   8.799   7.524   0.882 -0.1959  0.7367  0.4470
  626MOL0     C86280   8.930   7.602   0.905  0.2006  0.2953  0.3302
  626MOL0     O86281   9.027   7.532   0.962  0.3358  0.4676 -0.0932
  626MOL0     C86282   9.135   7.590   1.017 -0.3936 -0.2303 -0.0802
  626MOL0     C86283   9.119   7.647   1.145 -0.7199  0.0394  0.1500
  626MOL0     C86284   9.232   7.696   1.217 -0.5167 -0.5519  0.6340
  626MOL0     C86285   9.360   7.696   1.153  0.0490  0.5832  0.9294
  626MOL0     O86286   9.480   7.706   1.218 -0.8453  0.0878  0.1407
  626MOL0     C86287   9.492   7.685   1.358 -1.3350  0.2273  0.6997
  626MOL0     C86288   9.641   7.664   1.391 -0.9654  0.8543 -0.0285
  626MOL0     C86289   9.711   7.569   1.284  0.3467  0.4055 -0.0448
  626MOL0     C86290   9.856   7.522   1.335 -0.1379 -0.4072 -0.0047
  626MOL0     C86291   9.935   7.445   1.221 -0.1388  1.1245  0.3188
  626MOL0     C86292  10.030   7.341   1.276 -0.3720  0.4002 -0.1517
  626MOL0     C86293  10.133   7.297   1.177  0.6606  0.2390 -0.1936
  626MOL0     C86294  10.211   7.178   1.237  0.1025  0.9770  0.3815
  626MOL0    Cl86295  10.108   7.040   1.263  0.0679  0.0188  0.3997
  626MOL0     C86296   9.375   7.641   1.025 -0.6046 -0.1352 -0.6588
  626MOL0     C86297   9.267   7.595   0.953  0.2479 -0.3743 -0.2719
  626MOL0     O86298   8.930   7.723   0.889  0.8181  0.0498  0.1944
  626MOL0     C86299   8.805   7.383   0.867 -0.1884  0.1149  0.9572
  626MOL0     C86300   8.697   7.301   0.832  0.1727 -0.5856  0.1659
  626MOL0     N86301   7.951   7.015   0.540  0.1536  0.1359  0.1771
  626MOL0     N86302   7.886   6.911   0.554 -0.2697  0.1787 -0.8375
  626MOL0     C86303   6.912   6.406   0.723 -0.5497 -0.2172  0.3588
  626MOL0     C86304   6.792   6.351   0.715  0.1035 -0.2363  0.1080
  626MOL0     C86305   6.339   6.308   0.815 -0.2785 -0.1284  0.1632
  626MOL0     C86306   6.257   6.368   0.920 -0.6679 -0.4516 -0.5000
  626MOL0     C86307   6.139   6.311   0.958  0.4815  0.3623  0.3044
  626MOL0     C86308   6.084   6.211   0.870 -0.1350 -0.9399 -0.0513
  626MOL0     O86309   5.958   6.157   0.879 -0.8978 -0.1456 -0.2122
  626MOL0     C86310   5.869   6.170   0.993  0.1660 -0.4566  0.1672
  626MOL0     C86311   5.735   6.202   0.929 -0.5858  0.1501 -0.3366
  626MOL0     C86312   5.718   6.347   0.887  0.2078 -0.2894 -0.1931
  626MOL0     C86313   5.608   6.419   0.976 -0.4520 -0.1324  1.8202
  626MOL0     C86314   5.679   6.472   1.094  0.1017  0.1687  0.3553
  626MOL0     C86315   5.747   6.529   1.182  0.2702 -0.0815 -0.5131
  626MOL0     C86316   6.165   6.164   0.763  0.0230 -1.1771  0.0152
  626MOL0     C86317   6.290   6.202   0.732  0.9800  0.7988 -0.2969
  626MOL0     C86318   6.360   6.126   0.630 -0.3111 -0.7674 -0.5741
  626MOL0     H86319   6.601   6.601   0.597  0.5784  2.1363  1.6779
  626MOL0     H86320   6.805   6.719   0.623 -2.5650 -0.2409 -1.0433
  626MOL0     H86321   7.159   6.473   0.602  4.2390 -0.7351  0.1250
  626MOL0     H86322   7.183   6.445   0.779  0.8202  0.2449  0.4636
  626MOL0     H86323   7.253   6.681   0.606  0.5768  0.7271 -0.0911
  626MOL0     H86324   7.263   6.707   0.778  3.1475  0.1359  0.4992
  626MOL0     H86325   7.401   6.466   0.721 -2.6475 -0.0266  0.2000
  626MOL0     H86326   7.464   6.577   0.608  0.4800 -2.3712  0.2990
  626MOL0     H86327   7.492   6.741   0.794  0.2365 -1.0000 -2.5329
  626MOL0     H86328   7.440   6.612   0.914  3.9684 -0.9923  1.8653
  626MOL0     H86329   7.676   6.558   0.735  1.3227  0.2175  1.4750
  626MOL0     H86330   7.608   6.464   0.874 -0.1183  0.0241  0.2212
  626MOL0     H86331   7.655   6.651   1.009 -0.3623 -1.3346 -0.4092
  626MOL0     H86332   7.794   6.567   0.964 -0.8969  0.4019  0.2606
  626MOL0     H86333   7.844   6.804   0.941 -1.4051  0.0827  2.2434
  626MOL0     H86334   7.698   6.841   0.856 -0.3027 -1.3505  0.4436
  626MOL0     H86335   7.914   6.655   0.724  0.0617  0.3586 -0.4110
  626MOL0     H86336   7.765   6.711   0.649  0.3421 -0.3025 -0.4418
  626MOL0     H86337   8.022   6.934   0.852  1.1416 -1.2514  0.5808
  626MOL0     H86338   8.105   7.181   0.780 -0.6329  0.5218  0.4355
  626MOL0     H86339   8.103   7.231   0.616 -1.6599 -2.0243 -2.3525
  626MOL0     H86340   8.309   7.085   0.754 -0.4564  0.9599  0.2822
  626MOL0     H86341   8.269   6.986   0.616  1.5416  0.2230  0.5925
  626MOL0     H86342   8.431   7.123   0.539 -0.2071 -0.7839  1.0437
  626MOL0     H86343   8.278   7.202   0.486  1.2016  0.6061 -0.6426
  626MOL0     H86344   8.432   7.381   0.574 -1.1017  2.2606  0.4958
  626MOL0     H86345   8.304   7.350   0.698  1.9958  1.2981  1.9674
  626MOL0     H86346   8.472   7.546   0.749  0.5257 -0.3512 -3.0517
  626MOL0     H86347   8.654   7.746   0.977  2.0843 -1.7438 -0.8630
  626MOL0     H86348   8.529   7.734   0.849 -0.0272 -2.5843 -1.0912
  626MOL0     H86349   8.697   7.795   0.818  2.6788  0.3277  3.2531
  626MOL0     H86350   9.025   7.639   1.199 -0.4752  0.6759  0.6947
  626MOL0     H86351   9.226   7.725   1.321  0.8233  1.4865  0.2047
  626MOL0     H86352   9.445   7.772   1.406 -3.0535  1.3469 -2.6669
  626MOL0     H86353   9.441   7.593   1.386 -0.7490 -0.1913  0.4006
  626MOL0     H86354   9.683   7.765   1.384 -1.0662  0.9046  0.0825
  626MOL0     H86355   9.660   7.623   1.491  3.4123 -2.4083 -1.8632
  626MOL0     H86356   9.717   7.619   1.187  1.8437  0.0516 -0.1729
  626MOL0     H86357   9.650   7.480   1.267 -0.4234  1.1592 -1.4452
  626MOL0     H86358   9.840   7.451   1.416 -1.8969  1.8375  1.7431
  626MOL0     H86359   9.918   7.605   1.369  0.2765 -1.1270  1.0389
  626MOL0     H86360   9.864   7.385   1.164  0.0856 -0.6624  1.8563
  626MOL0     H86361   9.974   7.512   1.144 -2.9339  0.4975 -1.8173
  626MOL0     H86362   9.984   7.249   1.312 -0.1829  0.7124  0.9219
  626MOL0     H86363  10.079   7.396   1.356 -0.6784  3.0781 -1.6709
  626MOL0     H86364  10.210   7.372   1.159  0.2861  0.6086 -0.2787
  626MOL0     H86365  10.094   7.275   1.077 -2.6601  0.7962  0.8446
  626MOL0     H86366  10.249   7.210   1.334  0.4954  2.6300 -0.2781
  626MOL0     H86367  10.296   7.143   1.176 -0.9014 -0.3669 -0.2931
  626MOL0     H86368   9.468   7.618   0.974 -1.6296 -0.9463 -2.2150
  626MOL0     H86369   9.284   7.570   0.848  2.2538 -0.9335  0.1539
  626MOL0     H86370   8.897   7.328   0.884  1.0026  1.3359 -1.0638
  626MOL0     H86371   8.699   7.194   0.815  2.0344 -0.7706  1.3369
  626MOL0     H86372   6.999   6.346   0.748 -0.3744  0.4922  1.5124
  626MOL0     H86373   6.791   6.245   0.738  1.7736  0.2844  3.1928
  626MOL0     H86374   6.286   6.451   0.984 -1.4647  1.0389 -1.9934
  626MOL0     H86375   6.092   6.344   1.051 -0.3803  0.7428 -0.2577
  626MOL0     H86376   5.857   6.066   1.024  1.2780 -0.4892  0.5279
  626MOL0     H86377   5.897   6.234   1.077  0.7630  0.4699 -0.6983
  626MOL0     H86378   5.657   6.168   0.998  0.4628 -1.3945  0.1379
  626MOL0     H86379   5.722   6.134   0.844  0.7395 -2.6520  1.5373
  626MOL0     H86380   5.817   6.392   0.879 -0.7297  1.7904 -0.8296
  626MOL0     H86381   5.679   6.343   0.785 -1.3383  1.9431  0.2198
  626MOL0     H86382   5.540   6.336   1.001 -2.8891  0.6255 -1.5658
  626MOL0     H86383   5.564   6.493   0.908  1.8194 -1.2069 -1.0347
  626MOL0     H86384   5.796   6.582   1.261  0.8152  0.6843 -1.3495
  626MOL0     H86385   6.120   6.089   0.699  0.6820  0.2136 -2.1765
  626MOL0     H86386   6.404   6.036   0.675 -1.8489 -1.4235 -0.3074
  626MOL0     H86387   6.292   6.102   0.549 -0.3489  2.1212 -1.5146
  626MOL0     H86388   6.443   6.178   0.582 -0.1974 -2.1526 -1.9299
  627MOL0     O86389   2.186   2.274   2.839  1.4978  0.9486  0.2107
  627MOL0     C86390   2.150   2.291   2.953  0.5643  0.2990 -0.3602
  627MOL0     O86391   2.246   2.317   3.055 -0.8158  0.3654 -0.5428
  627MOL0     C86392   2.378   2.347   3.017 -1.3516 -0.3188 -0.6173
  627MOL0     C86393   2.486   2.291   3.096  0.0162 -0.4749 -0.2968
  627MOL0     C86394   2.622   2.325   3.064 -0.3737  0.6766  0.0644
  627MOL0     C86395   2.653   2.411   2.961 -0.4088 -0.0638  0.0733
  627MOL0     O86396   2.791   2.435   2.943  0.0824  0.5125  0.2554
  627MOL0     C86397   2.843   2.531   2.838  0.2571 -0.0192 -0.4109
  627MOL0     C86398   2.990   2.556   2.843  0.0231  0.0713 -0.5554
  627MOL0     C86399   3.067   2.426   2.833 -0.0866  0.4563 -0.1142
  627MOL0     C86400   3.217   2.455   2.861  0.3535  0.5244 -0.6066
  627MOL0     C86401   3.317   2.348   2.811 -0.1516 -1.0071  0.2029
  627MOL0     C86402   3.281   2.210   2.852  0.2398 -1.0037  0.3914
  627MOL0     C86403   3.394   2.106   2.839 -0.6927 -0.2864 -0.1297
  627MOL0     C86404   3.377   1.981   2.930  0.4769  0.0530  0.8049
  627MOL0     N86405   3.271   1.898   2.866 -0.4643  0.0170 -0.1742
  627MOL0     C86406   3.144   1.875   2.914 -0.2967 -0.0602  0.8599
  627MOL0     C86407   3.093   1.783   2.825  0.7056  1.3407  0.0438
  627MOL0     C86408   2.954   1.723   2.840  0.1130  0.6126  0.6776
  627MOL0     C86409   2.884   1.768   2.714 -0.3179 -0.2850 -0.3453
  627MOL0     C86410   2.753   1.679   2.702 -1.2734  0.3229 -0.3422
  627MOL0     C86411   2.681   1.712   2.570  0.0806  0.2024  0.1679
  627MOL0     O86412   2.559   1.629   2.560 -0.3455  0.8906 -0.4501
  627MOL0     C86413   2.500   1.618   2.438 -0.2078 -0.3474  0.5284
  627MOL0     C86414   2.405   1.522   2.413 -0.4529  0.4161 -0.4871
  627MOL0     C86415   2.351   1.501   2.284  0.1096  0.3759  0.0707
  627MOL0     C86416   2.254   1.395   2.272 -0.4853  0.4163  0.5613
  627MOL0     C86417   2.390   1.581   2.173 -0.1344 -0.0359  0.6130
  627MOL0     C86418   2.343   1.567   2.037  0.2363  0.2464  0.0167
  627MOL0     O86419   2.303   1.448   1.991  0.0563  0.0495  0.2571
  627MOL0     C86420   2.251   1.442   1.868 -0.3132 -0.7910 -0.3068
  627MOL0     C86421   2.114   1.470   1.856  0.0382 -0.7907 -0.2269
  627MOL0     C86422   2.057   1.462   1.733  0.0209 -0.7632  0.1387
  627MOL0     C86423   2.130   1.438   1.620 -0.3445 -0.1680 -0.4825
  627MOL0     O86424   2.089   1.439   1.494 -0.6214  0.0894 -0.0881
  627MOL0     C86425   1.950   1.448   1.472  0.4702  0.2422  0.1515
  627MOL0     C86426   1.902   1.426   1.323 -0.9598 -0.0126 -0.6782
  627MOL0     C86427   1.946   1.298   1.257  0.0319  0.1290 -0.2486
  627MOL0     C86428   1.903   1.274   1.110  0.0171 -0.3128  0.5090
  627MOL0     C86429   1.967   1.142   1.055  0.3286 -0.1650 -0.1792
  627MOL0     C86430   1.894   1.023   1.114 -0.6221  0.1419  0.1384
  627MOL0     C86431   1.905   0.901   1.042 -0.7219 -0.5430 -0.3097
  627MOL0     C86432   1.861   0.775   1.114  0.0871  0.2422 -0.1950
  627MOL0    Cl86433   1.682   0.762   1.100  0.1805 -0.7660  0.3192
  627MOL0     C86434   2.265   1.403   1.637 -0.5550 -0.1669 -0.7813
  627MOL0     C86435   2.333   1.407   1.759  0.2967  0.1079  0.0052
  627MOL0     O86436   2.342   1.675   1.972  0.5245  0.2799 -1.2318
  627MOL0     C86437   2.495   1.682   2.192  0.2391  0.4146  0.4526
  627MOL0     C86438   2.543   1.697   2.323  0.5796  0.2990  0.5560
  627MOL0     N86439   3.185   1.740   2.738 -0.9611 -0.1156 -0.7584
  627MOL0     N86440   3.292   1.810   2.767 -0.1310  0.1438  0.2959
  627MOL0     C86441   2.552   2.462   2.884  0.6293 -0.7886 -0.0080
  627MOL0     C86442   2.418   2.438   2.926 -0.3223 -0.9977 -0.0440
  627MOL0     C86443   2.007   2.311   2.992 -0.1603 -0.7993  0.6613
  627MOL0     C86444   1.907   2.300   2.890  0.1071  0.2249 -1.3864
  627MOL0     C86445   1.775   2.297   2.930  0.3257  0.9926 -0.8214
  627MOL0     C86446   1.731   2.303   3.066 -0.9746 -0.2171 -0.7155
  627MOL0     O86447   1.597   2.308   3.091 -0.9350  0.1949 -0.5814
  627MOL0     C86448   1.549   2.207   3.181 -0.6999 -0.7137 -0.4764
  627MOL0     C86449   1.398   2.246   3.197 -0.0381  0.1452 -0.2561
  627MOL0     C86450   1.340   2.148   3.296 -0.6999  0.2314 -0.8410
  627MOL0     C86451   1.189   2.163   3.322  0.1130 -0.5402 -0.5382
  627MOL0     C86452   1.169   2.296   3.383 -0.7524  0.5864  0.0792
  627MOL0     C86453   1.157   2.408   3.422  0.0773  0.1634 -0.2545
  627MOL0     C86454   1.831   2.320   3.158  0.9099 -0.2148 -0.6955
  627MOL0     C86455   1.965   2.337   3.123  0.6242  0.4453 -0.5100
  627MOL0     C86456   2.052   2.361   3.243 -0.3887  0.5416  0.9007
  627MOL0     H86457   2.458   2.228   3.181 -1.6448  0.4724 -0.0998
  627MOL0     H86458   2.709   2.290   3.118 -0.2014  1.7662  0.5249
  627MOL0     H86459   2.791   2.624   2.865 -1.6723 -1.2740  0.4309
  627MOL0     H86460   2.823   2.503   2.734  3.5413  2.5064 -1.9200
  627MOL0     H86461   3.019   2.610   2.753  1.0459 -0.1737 -0.3768
  627MOL0     H86462   3.016   2.625   2.924  0.9303 -0.8282 -0.0662
  627MOL0     H86463   3.043   2.361   2.917  3.3973  1.0037  1.5000
  627MOL0     H86464   3.058   2.375   2.737 -1.0842 -3.4086  1.8587
  627MOL0     H86465   3.241   2.551   2.814  1.1672  0.5065 -0.2306
  627MOL0     H86466   3.222   2.482   2.967 -1.8467  1.3090 -0.6446
  627MOL0     H86467   3.419   2.379   2.832 -0.6969  0.2727  1.0278
  627MOL0     H86468   3.316   2.336   2.702 -2.6724 -1.2943  0.1912
  627MOL0     H86469   3.245   2.191   2.954 -0.1231 -1.4196  0.1893
  627MOL0     H86470   3.203   2.192   2.777  0.1685 -0.2824  0.2802
  627MOL0     H86471   3.483   2.161   2.871 -0.9595 -0.8386  1.6270
  627MOL0     H86472   3.412   2.073   2.736 -0.6654  2.8034 -1.2286
  627MOL0     H86473   3.470   1.923   2.928 -0.3947 -1.3760 -1.5347
  627MOL0     H86474   3.347   2.005   3.033 -0.1255 -2.6575  1.3185
  627MOL0     H86475   3.097   1.919   3.001 -0.0182  3.3516 -0.5625
  627MOL0     H86476   2.900   1.750   2.932 -0.2478  1.3495  0.2563
  627MOL0     H86477   2.950   1.614   2.841 -2.1295  0.6300  0.2237
  627MOL0     H86478   2.854   1.873   2.723  0.1718 -0.0812 -0.9901
  627MOL0     H86479   2.948   1.746   2.628 -1.8077 -0.5013 -1.4630
  627MOL0     H86480   2.774   1.572   2.701 -1.0382  0.3628 -1.9689
  627MOL0     H86481   2.689   1.700   2.788 -2.1629  0.5402 -1.0350
  627MOL0     H86482   2.654   1.818   2.567  0.3015  0.3299  1.5916
  627MOL0     H86483   2.753   1.694   2.490  0.5343 -0.5036  0.7142
  627MOL0     H86484   2.374   1.457   2.494  0.4248  1.0950  0.4212
  627MOL0     H86485   2.289   1.311   2.212 -0.2985  1.3215 -0.6518
  627MOL0     H86486   2.159   1.425   2.227  0.5268  1.1915 -1.1459
  627MOL0     H86487   2.236   1.353   2.371 -0.4260  1.7971  1.1836
  627MOL0     H86488   2.056   1.486   1.946 -0.0540  1.2500 -0.5987
  627MOL0     H86489   1.952   1.490   1.724  0.0957 -0.9027 -1.6323
  627MOL0     H86490   1.900   1.369   1.529  0.0147 -0.2137 -0.8395
  627MOL0     H86491   1.915   1.547   1.501  0.6829  1.5024 -3.3693
  627MOL0     H86492   1.795   1.448   1.323 -0.8376  0.7443  0.9486
  627MOL0     H86493   1.946   1.511   1.272 -1.7016  0.5076 -0.4698
  627MOL0     H86494   1.899   1.211   1.304 -1.9619  0.4811 -1.4528
  627MOL0     H86495   2.055   1.292   1.257  0.0166 -0.2185  0.1524
  627MOL0     H86496   1.941   1.352   1.043  0.8947  0.9656  2.4339
  627MOL0     H86497   1.795   1.264   1.097  0.1739 -0.5415 -0.8411
  627MOL0     H86498   1.959   1.137   0.946  2.6063  0.6482 -0.4490
  627MOL0     H86499   2.075   1.141   1.075  0.8627 -1.8911 -2.6452
  627MOL0     H86500   1.789   1.046   1.133 -1.6724 -3.4397 -0.4913
  627MOL0     H86501   1.930   1.006   1.217 -3.7145  0.2752  1.3356
  627MOL0     H86502   2.011   0.896   1.016  0.5611 -0.2837  4.0401
  627MOL0     H86503   1.850   0.900   0.947  1.7379 -3.0576 -1.8543
  627MOL0     H86504   1.885   0.791   1.219 -2.5416  1.0354  0.3571
  627MOL0     H86505   1.917   0.686   1.085  1.4206 -0.1552  3.1548
  627MOL0     H86506   2.327   1.376   1.553  1.2606 -3.3371  1.3778
  627MOL0     H86507   2.437   1.384   1.778  0.2019 -2.7998 -2.2789
  627MOL0     H86508   2.536   1.742   2.111  2.3886 -0.9079  0.4895
  627MOL0     H86509   2.615   1.778   2.329 -0.3218  1.0789  1.2162
  627MOL0     H86510   2.572   2.530   2.802 -0.2549  0.4623  0.7737
  627MOL0     H86511   2.341   2.493   2.872  0.3310  1.1292  1.0950
  627MOL0     H86512   1.930   2.300   2.784  2.2114  0.4889 -0.9823
  627MOL0     H86513   1.711   2.285   2.844 -0.7424  1.7702 -0.1546
  627MOL0     H86514   1.558   2.108   3.135  0.5262  0.7178 -3.6281
  627MOL0     H86515   1.602   2.206   3.276  1.0785 -1.1631 -1.4386
  627MOL0     H86516   1.339   2.234   3.105 -2.4098 -0.9878  1.3245
  627MOL0     H86517   1.390   2.349   3.233 -1.3018 -1.0682  3.2852
  627MOL0     H86518   1.362   2.043   3.275 -1.7409 -0.1471 -0.1204
  627MOL0     H86519   1.388   2.162   3.393 -1.0310 -0.6274 -0.5398
  627MOL0     H86520   1.152   2.079   3.381 -1.2236 -1.2832 -2.3491
  627MOL0     H86521   1.123   2.160   3.236 -0.6404 -1.6891  0.0547
  627MOL0     H86522   1.148   2.506   3.464  0.3088  1.1078 -2.2994
  627MOL0     H86523   1.800   2.332   3.261 -0.0437  3.7399 -1.2609
  627MOL0     H86524   2.003   2.365   3.340 -0.9276  0.6424  0.6249
  627MOL0     H86525   2.130   2.285   3.247  1.5951  1.9805 -3.5604
  627MOL0     H86526   2.113   2.451   3.227  1.6337 -0.9276 -0.2557
  628MOL0     O86527   9.653   3.774   2.685  0.0015  0.0835  0.0369
  628MOL0     C86528   9.700   3.869   2.744 -0.8574 -1.1099  0.1438
  628MOL0     O86529   9.840   3.882   2.772 -0.0539 -0.3397  0.1379
  628MOL0     C86530   9.901   3.754   2.754 -0.3865  1.4190 -0.0940
  628MOL0     C86531   9.887   3.647   2.839  0.0809  0.2393 -0.0177
  628MOL0     C86532   9.946   3.520   2.813 -0.0197  1.0911  0.0566
  628MOL0     C86533  10.039   3.502   2.709 -0.2679  0.3153 -0.1372
  628MOL0     O86534  10.106   3.389   2.676 -0.3573 -0.0718 -0.3230
  628MOL0     C86535  10.140   3.280   2.763  0.2849 -0.6770  0.1885
  628MOL0     C86536  10.241   3.199   2.696 -0.6916 -0.0826  0.1591
  628MOL0     C86537  10.331   3.102   2.780  0.1354 -0.3640 -0.0330
  628MOL0     C86538  10.417   3.194   2.868  0.4355  0.0336 -0.3997
  628MOL0     C86539  10.519   3.107   2.951 -0.9656 -0.2823  0.0823
  628MOL0     C86540  10.632   3.039   2.869  0.0423 -1.3419  0.4302
  628MOL0     C86541  10.718   2.942   2.950 -0.5769  0.5576  0.0406
  628MOL0     C86542  10.839   2.891   2.869 -0.1394  0.3952  0.7266
  628MOL0     N86543  10.937   2.999   2.851  0.5885 -0.3184  0.2454
  628MOL0     C86544  10.977   3.048   2.728  0.2216 -0.1161 -0.2142
  628MOL0     C86545  11.082   3.123   2.754  0.4822  0.0667  1.1365
  628MOL0     C86546  11.161   3.200   2.650 -0.3178 -0.0683  0.0215
  628MOL0     C86547  11.161   3.141   2.507  0.1355  0.1891 -0.6495
  628MOL0     C86548  11.214   3.229   2.401 -0.2099 -0.0139 -0.7629
  628MOL0     C86549  11.370   3.213   2.391 -0.2869 -0.3204  0.3940
  628MOL0     O86550  11.411   3.107   2.302 -0.2303 -0.0453 -0.1693
  628MOL0     C86551  11.547   3.090   2.277 -0.8090 -0.6891  0.8455
  628MOL0     C86552  11.643   3.161   2.344  0.1929 -1.0622  0.7094
  628MOL0     C86553  11.781   3.123   2.321  0.2694 -0.4099  0.6085
  628MOL0     C86554  11.887   3.210   2.398 -0.1735 -0.2876 -0.3654
  628MOL0     C86555  11.820   3.020   2.228  0.7615  0.8035  0.2019
  628MOL0     C86556  11.960   2.975   2.183  0.0781 -0.8087 -0.3172
  628MOL0     O86557  12.068   3.027   2.252  0.1319 -0.3492 -0.6994
  628MOL0     C86558  12.186   2.954   2.228 -0.1495 -0.6793  1.3227
  628MOL0     C86559  12.254   2.972   2.110  0.1600 -0.4706 -0.8069
  628MOL0     C86560  12.386   2.908   2.092  0.8951 -1.0419 -0.0238
  628MOL0     C86561  12.451   2.839   2.189  1.4960 -0.3225  0.1302
  628MOL0     O86562  12.579   2.813   2.183  0.0902  0.6017 -0.5063
  628MOL0     C86563  12.591   2.674   2.135 -0.4644 -0.0089 -0.0980
  628MOL0     C86564  12.739   2.647   2.119 -0.1289 -0.6638  0.3376
  628MOL0     C86565  12.770   2.512   2.061 -0.1227 -0.1783 -0.3753
  628MOL0     C86566  12.918   2.493   2.030  0.8853  0.6607  0.0169
  628MOL0     C86567  12.929   2.362   1.944  0.1277  0.0690 -0.6347
  628MOL0     C86568  13.082   2.344   1.911 -0.4838  0.2199  0.1871
  628MOL0     C86569  13.091   2.224   1.803 -0.7779 -0.1169  0.2479
  628MOL0     C86570  13.232   2.181   1.774  0.5614 -0.2594 -1.0100
  628MOL0    Cl86571  13.283   2.071   1.903 -0.1800 -0.3101  0.1818
  628MOL0     C86572  12.373   2.820   2.309 -1.0699  0.0044 -0.2339
  628MOL0     C86573  12.256   2.882   2.327  1.3255 -0.5404  0.1039
  628MOL0     O86574  11.963   2.892   2.091  0.4313 -0.5460  0.0760
  628MOL0     C86575  11.714   2.938   2.170 -0.5842 -0.2359 -0.1555
  628MOL0     C86576  11.578   2.977   2.197  0.1893  0.3324 -0.1747
  628MOL0     N86577  11.111   3.117   2.891 -0.7914 -0.2368  0.0055
  628MOL0     N86578  11.029   3.038   2.948 -0.7662 -0.1393  0.2773
  628MOL0     C86579  10.064   3.616   2.628  0.0670 -0.4544  0.1142
  628MOL0     C86580   9.989   3.732   2.649 -0.0907 -0.7167 -0.0311
  628MOL0     C86581   9.607   3.985   2.775 -0.2800  0.6838  0.1025
  628MOL0     C86582   9.469   3.961   2.785  0.3851 -0.4071 -0.8609
  628MOL0     C86583   9.380   4.054   2.827 -0.0007 -0.9295  0.8613
  628MOL0     C86584   9.423   4.185   2.857  0.2711  0.1610  0.0621
  628MOL0     O86585   9.346   4.287   2.902  0.7509  0.2455  0.3879
  628MOL0     C86586   9.212   4.254   2.946  0.5931  1.0361  1.0767
  628MOL0     C86587   9.202   4.206   3.086  0.1713  0.5016 -0.0734
  628MOL0     C86588   9.062   4.151   3.120  0.9314  0.3555  1.0026
  628MOL0     C86589   8.978   4.282   3.175  0.2522 -0.2145 -0.0150
  628MOL0     C86590   8.836   4.260   3.193  0.0969 -0.1075  0.2772
  628MOL0     C86591   8.724   4.216   3.207  0.5883 -1.5016 -0.3326
  628MOL0     C86592   9.557   4.218   2.839 -0.5536 -0.0613  0.3418
  628MOL0     C86593   9.651   4.114   2.800 -0.1437 -0.4773  0.2654
  628MOL0     C86594   9.793   4.158   2.770 -0.6605 -0.4081  0.1697
  628MOL0     H86595   9.813   3.664   2.916 -1.3650  2.3958 -1.7606
  628MOL0     H86596   9.915   3.430   2.866  2.6098  0.4498  0.6719
  628MOL0     H86597  10.052   3.216   2.776 -1.0658  0.3044 -2.9562
  628MOL0     H86598  10.168   3.306   2.865 -1.2673 -2.4822  1.1301
  628MOL0     H86599  10.196   3.129   2.625 -2.2355  2.0573 -1.1020
  628MOL0     H86600  10.301   3.270   2.638  0.1689  1.2830  2.5946
  628MOL0     H86601  10.267   3.035   2.839  2.3176 -0.3512  2.4699
  628MOL0     H86602  10.395   3.041   2.715  1.9558  1.0481  0.3949
  628MOL0     H86603  10.454   3.277   2.807 -1.4191  1.2890  0.1038
  628MOL0     H86604  10.355   3.245   2.942  0.5308 -0.3424 -0.0611
  628MOL0     H86605  10.469   3.027   3.006  0.4017  0.3082  2.3127
  628MOL0     H86606  10.554   3.178   3.026  0.5272 -0.3574 -0.4889
  628MOL0     H86607  10.596   2.986   2.781 -0.7986  2.1107 -1.5239
  628MOL0     H86608  10.703   3.116   2.835  1.3839 -2.5643  0.3685
  628MOL0     H86609  10.655   2.860   2.985 -2.2434  3.0574  3.5111
  628MOL0     H86610  10.756   2.996   3.037  0.1825  1.5172 -0.8536
  628MOL0     H86611  10.882   2.803   2.919  0.5134  1.4170  2.0274
  628MOL0     H86612  10.800   2.868   2.770 -1.8936  1.9989  0.9873
  628MOL0     H86613  10.929   3.018   2.636  1.4986 -0.3491 -0.8253
  628MOL0     H86614  11.263   3.207   2.689  0.0511 -2.6158 -0.3329
  628MOL0     H86615  11.119   3.301   2.649  0.2224  0.2195  1.7037
  628MOL0     H86616  11.209   3.043   2.513  0.6938  0.5127  4.5665
  628MOL0     H86617  11.058   3.124   2.474  0.6802  0.6701 -2.7195
  628MOL0     H86618  11.171   3.200   2.305 -1.8398  2.1108 -0.7417
  628MOL0     H86619  11.191   3.333   2.426 -1.7048 -0.3711 -0.5706
  628MOL0     H86620  11.402   3.310   2.353 -1.0283  0.3433  1.4260
  628MOL0     H86621  11.419   3.205   2.488 -4.8585 -0.4903  2.9660
  628MOL0     H86622  11.613   3.252   2.396  0.2727  0.8850 -2.4293
  628MOL0     H86623  11.972   3.234   2.333 -0.3958  3.9403  0.6837
  628MOL0     H86624  11.927   3.142   2.474  1.0088  0.1929 -0.5443
  628MOL0     H86625  11.846   3.299   2.445 -3.1340 -2.0436  0.6793
  628MOL0     H86626  12.213   3.042   2.039 -0.2606  0.6120  0.4714
  628MOL0     H86627  12.437   2.926   1.998  2.3270  1.8010  1.1681
  628MOL0     H86628  12.558   2.605   2.213  2.6767  0.9013  2.2409
  628MOL0     H86629  12.545   2.673   2.035  1.8000  1.9102 -1.2551
  628MOL0     H86630  12.776   2.725   2.053  0.1500  0.6176  1.9523
  628MOL0     H86631  12.792   2.659   2.214 -0.0835 -0.0173  0.2307
  628MOL0     H86632  12.712   2.504   1.968 -3.4985 -0.4401  1.5738
  628MOL0     H86633  12.739   2.437   2.135 -0.7471  0.1520 -0.2911
  628MOL0     H86634  12.976   2.485   2.122  1.1721  0.4412 -0.1804
  628MOL0     H86635  12.953   2.577   1.970 -0.3769 -0.0098 -1.7444
  628MOL0     H86636  12.904   2.278   2.009 -2.3921  0.0449 -1.5666
  628MOL0     H86637  12.858   2.372   1.862 -0.4311 -0.8843 -0.2790
  628MOL0     H86638  13.131   2.311   2.003 -0.1020 -0.3610 -0.2190
  628MOL0     H86639  13.120   2.442   1.878 -0.3009  0.0713 -0.0441
  628MOL0     H86640  13.050   2.249   1.705  2.6340 -1.0727 -1.5659
  628MOL0     H86641  13.027   2.141   1.833 -0.9280  0.0571  0.4155
  628MOL0     H86642  13.300   2.266   1.767  0.9793 -0.2440  1.9817
  628MOL0     H86643  13.231   2.121   1.682 -1.7978 -0.7998 -0.6994
  628MOL0     H86644  12.419   2.779   2.399 -0.8563  3.8669  1.6172
  628MOL0     H86645  12.197   2.868   2.417 -0.2757 -1.0705 -0.9832
  628MOL0     H86646  11.734   2.853   2.105  4.0607 -0.3009  1.0106
  628MOL0     H86647  11.497   2.911   2.168  1.0181 -0.0702 -1.6476
  628MOL0     H86648  10.135   3.623   2.546 -0.2232  0.7120 -0.0555
  628MOL0     H86649  10.000   3.815   2.580 -0.8089  0.8135  1.6317
  628MOL0     H86650   9.439   3.858   2.767  1.1461 -0.6372 -0.8472
  628MOL0     H86651   9.281   4.017   2.852  0.8039 -2.2517  2.3028
  628MOL0     H86652   9.146   4.341   2.937 -0.6226  0.1144  0.8020
  628MOL0     H86653   9.163   4.188   2.875 -1.2191  2.0551  1.3166
  628MOL0     H86654   9.231   4.284   3.156  0.5696  1.6801 -1.5025
  628MOL0     H86655   9.279   4.130   3.102 -0.1638 -0.2565 -1.7750
  628MOL0     H86656   9.016   4.097   3.038 -0.8888  2.2966  0.6601
  628MOL0     H86657   9.069   4.076   3.200  1.6201 -4.0855 -2.8265
  628MOL0     H86658   8.987   4.361   3.100 -0.6826 -2.2057 -2.3477
  628MOL0     H86659   9.027   4.309   3.270 -0.5219  0.8913  0.0895
  628MOL0     H86660   8.629   4.173   3.235 -1.0246  2.1455  0.2971
  628MOL0     H86661   9.589   4.321   2.853  2.4475 -0.9842  1.1226
  628MOL0     H86662   9.865   4.115   2.840  0.2570 -4.2905 -2.8809
  628MOL0     H86663   9.832   4.144   2.670 -3.0155  0.5366 -0.9695
  628MOL0     H86664   9.798   4.266   2.791 -1.9257 -0.3444  0.2461
  629MOL0     O86665   7.374   3.405   5.377  0.1090  0.0452  0.1817
  629MOL0     C86666   7.304   3.465   5.458 -0.1969  0.2047  0.1473
  629MOL0     O86667   7.357   3.511   5.577 -0.3575 -0.3255  0.4830
  629MOL0     C86668   7.493   3.518   5.591 -0.0794 -0.2920  0.5079
  629MOL0     C86669   7.566   3.401   5.616 -0.0407 -0.1663  0.9594
  629MOL0     C86670   7.698   3.413   5.643  0.6586  0.9487 -0.5514
  629MOL0     C86671   7.766   3.536   5.643 -0.2870  0.2203  0.2698
  629MOL0     O86672   7.901   3.535   5.677  0.0614  0.8887 -0.4921
  629MOL0     C86673   7.990   3.577   5.572 -0.4763  1.0908  0.6025
  629MOL0     C86674   8.000   3.454   5.464  0.5708 -0.1540 -0.3856
  629MOL0     C86675   8.141   3.399   5.434 -0.4240 -0.6747  0.5919
  629MOL0     C86676   8.192   3.338   5.558  0.4301 -0.1215 -0.6833
  629MOL0     C86677   8.327   3.287   5.529  0.4634 -1.2513 -0.6315
  629MOL0     C86678   8.382   3.204   5.651  0.4970  0.7000 -0.6088
  629MOL0     C86679   8.505   3.131   5.599  0.1778  0.1205  0.6218
  629MOL0     C86680   8.608   3.101   5.717 -0.1215 -0.0910  0.6896
  629MOL0     N86681   8.694   3.214   5.750 -0.1917 -0.0874 -0.6340
  629MOL0     C86682   8.829   3.229   5.707  0.0561 -0.0481 -0.1790
  629MOL0     C86683   8.863   3.346   5.770 -0.5807 -1.1338 -1.0620
  629MOL0     C86684   8.998   3.414   5.751  0.0639  0.1116 -0.5560
  629MOL0     C86685   9.066   3.431   5.893  0.2119  0.4286 -0.4316
  629MOL0     C86686   9.200   3.502   5.882  0.1343 -0.5625  0.7233
  629MOL0     C86687   9.252   3.528   6.030 -0.4074  0.3759 -0.2280
  629MOL0     O86688   9.381   3.584   6.028  0.1532  0.3029  0.2855
  629MOL0     C86689   9.465   3.558   6.138  0.2889 -0.4080 -1.1159
  629MOL0     C86690   9.428   3.508   6.262  0.5535  0.4494  0.2973
  629MOL0     C86691   9.507   3.487   6.373  0.7236 -0.5470  0.0203
  629MOL0     C86692   9.448   3.438   6.501  0.3586 -0.0228  0.4894
  629MOL0     C86693   9.646   3.511   6.351  0.3343 -0.3306  0.4115
  629MOL0     C86694   9.757   3.469   6.439  0.1725 -0.6462  0.2397
  629MOL0     O86695   9.875   3.541   6.431  0.4352 -0.8533 -1.1352
  629MOL0     C86696   9.973   3.505   6.521  0.3440  0.5162 -0.7934
  629MOL0     C86697  10.083   3.439   6.478 -0.6583  0.7654 -0.5552
  629MOL0     C86698  10.169   3.384   6.576 -0.4384  0.1592  0.1389
  629MOL0     C86699  10.160   3.419   6.713  0.3857  0.5716  0.2419
  629MOL0     O86700  10.260   3.375   6.801  0.0680  0.9115 -0.0324
  629MOL0     C86701  10.246   3.408   6.940  0.0096  0.2203  0.5087
  629MOL0     C86702  10.347   3.313   7.012 -0.1742  0.2031  0.0824
  629MOL0     C86703  10.337   3.325   7.163 -0.6464 -0.0031  0.1099
  629MOL0     C86704  10.439   3.225   7.215  0.0845  0.5734 -0.3735
  629MOL0     C86705  10.431   3.182   7.363 -0.6642 -0.6054  0.6776
  629MOL0     C86706  10.303   3.109   7.377 -0.0935  0.1500  0.3494
  629MOL0     C86707  10.294   3.020   7.492  0.1741 -0.4554 -0.2841
  629MOL0     C86708  10.150   2.984   7.523 -1.5255 -0.6756  0.5791
  629MOL0    Cl86709  10.148   2.822   7.586 -0.0584 -0.4115 -0.2331
  629MOL0     C86710  10.050   3.501   6.756  0.8091 -0.1904  0.0389
  629MOL0     C86711   9.960   3.544   6.662 -0.4306 -0.1059 -1.3322
  629MOL0     O86712   9.730   3.392   6.527  0.3022  0.5000 -0.6865
  629MOL0     C86713   9.685   3.556   6.224 -0.5021  0.6180  0.3128
  629MOL0     C86714   9.602   3.584   6.118 -0.2425 -0.0814 -0.3292
  629MOL0     N86715   8.758   3.401   5.846  0.0841  0.0724 -0.3042
  629MOL0     N86716   8.660   3.319   5.833 -0.3731  0.4494 -0.4072
  629MOL0     C86717   7.694   3.652   5.626  0.0720 -0.6012  0.6642
  629MOL0     C86718   7.551   3.644   5.604  0.5194 -0.1631  0.6201
  629MOL0     C86719   7.158   3.469   5.446  0.6089  0.1944  0.4851
  629MOL0     C86720   7.091   3.577   5.505 -0.1984  0.1610 -0.1192
  629MOL0     C86721   6.954   3.584   5.491  0.3988  0.4830 -0.6011
  629MOL0     C86722   6.879   3.492   5.429  0.4464 -0.1951  0.3313
  629MOL0     O86723   6.745   3.515   5.449  0.2425 -0.3992 -0.2358
  629MOL0     C86724   6.657   3.405   5.428  0.6795  1.1021  0.1177
  629MOL0     C86725   6.518   3.458   5.416 -0.6919 -0.5875 -0.6076
  629MOL0     C86726   6.465   3.538   5.535  0.5401 -0.4680 -0.4573
  629MOL0     C86727   6.308   3.551   5.522 -1.0059  0.5420  0.0809
  629MOL0     C86728   6.262   3.621   5.402  0.7324 -0.0993 -0.2509
  629MOL0     C86729   6.217   3.679   5.305 -0.1649  0.3264 -0.3057
  629MOL0     C86730   6.940   3.385   5.367 -0.0631 -0.0681 -0.7616
  629MOL0     C86731   7.078   3.368   5.376  0.0407 -0.3015 -0.4263
  629MOL0     C86732   7.134   3.234   5.329  0.4815 -0.0478  0.6527
  629MOL0     H86733   7.520   3.303   5.616 -1.0117  0.2819  1.2102
  629MOL0     H86734   7.759   3.330   5.676  0.0241  0.6785 -0.0228
  629MOL0     H86735   8.087   3.598   5.619 -0.6087 -0.4713  1.6407
  629MOL0     H86736   7.960   3.668   5.520  1.2819  1.3654  0.0165
  629MOL0     H86737   7.947   3.366   5.502 -0.9384  0.5364 -0.8111
  629MOL0     H86738   7.967   3.489   5.366 -1.1293  1.1553  0.6045
  629MOL0     H86739   8.138   3.321   5.358  0.9892  0.7286 -0.9794
  629MOL0     H86740   8.205   3.485   5.413  1.6205 -1.9116  1.4416
  629MOL0     H86741   8.203   3.414   5.635  0.8537  0.1370 -0.9984
  629MOL0     H86742   8.121   3.262   5.593 -1.9776  2.3822  0.2212
  629MOL0     H86743   8.396   3.371   5.515 -0.3808  0.0233  2.1410
  629MOL0     H86744   8.327   3.222   5.441  1.4308 -3.7905  1.1224
  629MOL0     H86745   8.412   3.268   5.735 -2.9817 -0.7935  2.0001
  629MOL0     H86746   8.307   3.129   5.676  2.0126 -0.6080  0.1755
  629MOL0     H86747   8.556   3.197   5.527  1.5384 -0.0212  1.4200
  629MOL0     H86748   8.477   3.043   5.540  2.2304 -1.8332  2.3725
  629MOL0     H86749   8.552   3.076   5.807 -2.1923 -0.8720 -0.7358
  629MOL0     H86750   8.674   3.021   5.681 -0.3954 -0.2108  0.4492
  629MOL0     H86751   8.885   3.167   5.638 -0.8763  0.0517 -1.0541
  629MOL0     H86752   8.978   3.513   5.708 -2.9522  0.2942  0.9787
  629MOL0     H86753   9.058   3.342   5.696  1.4265 -0.4481  1.5333
  629MOL0     H86754   8.995   3.493   5.949 -1.5292 -1.3942 -0.5185
  629MOL0     H86755   9.081   3.333   5.939  0.9907  2.1368  3.3067
  629MOL0     H86756   9.273   3.444   5.825 -1.3046 -0.7450 -1.0430
  629MOL0     H86757   9.194   3.596   5.827 -0.1215 -2.0492 -1.9476
  629MOL0     H86758   9.184   3.594   6.085 -0.4245  0.9714 -0.9501
  629MOL0     H86759   9.253   3.432   6.083  0.2442  0.4003 -0.1877
  629MOL0     H86760   9.323   3.486   6.279  0.3292  1.1924 -0.0865
  629MOL0     H86761   9.468   3.330   6.506 -0.0520 -0.0508  1.8102
  629MOL0     H86762   9.341   3.459   6.513  0.2530 -0.1408 -0.2338
  629MOL0     H86763   9.486   3.481   6.594 -1.2252  2.0256  0.2666
  629MOL0     H86764  10.090   3.417   6.372 -2.2267 -1.6913 -0.2102
  629MOL0     H86765  10.256   3.325   6.546 -0.8161 -1.1236  1.4610
  629MOL0     H86766  10.297   3.504   6.958  2.5625 -1.1270  0.9548
  629MOL0     H86767  10.149   3.398   6.989  0.2832  2.1854  1.5960
  629MOL0     H86768  10.312   3.212   6.985 -1.0670  0.1382  1.3758
  629MOL0     H86769  10.450   3.325   6.976 -0.0096 -1.1650  0.0290
  629MOL0     H86770  10.237   3.298   7.201  0.2266 -1.2392  1.6494
  629MOL0     H86771  10.369   3.423   7.202  1.4112 -0.4052 -0.4850
  629MOL0     H86772  10.537   3.274   7.212  1.6754 -1.9101  3.1038
  629MOL0     H86773  10.446   3.129   7.163  2.4359  0.7068 -0.3973
  629MOL0     H86774  10.523   3.126   7.380 -0.2844 -1.0154 -2.1853
  629MOL0     H86775  10.435   3.267   7.431 -0.3997 -0.4582  0.4767
  629MOL0     H86776  10.282   3.052   7.286 -0.8768 -2.6705  2.1718
  629MOL0     H86777  10.221   3.181   7.390 -1.0174 -1.0396  1.2790
  629MOL0     H86778  10.348   3.048   7.583  0.4139 -0.5152 -0.4059
  629MOL0     H86779  10.347   2.930   7.459 -1.3316 -0.9857 -1.3474
  629MOL0     H86780  10.091   2.971   7.431  0.9751  0.5662 -1.3047
  629MOL0     H86781  10.098   3.063   7.578  0.8435  1.1831  0.2800
  629MOL0     H86782  10.042   3.536   6.859 -0.1839  0.6210 -0.2996
  629MOL0     H86783   9.879   3.612   6.687  0.4247  0.6341 -0.5405
  629MOL0     H86784   9.787   3.561   6.188 -1.4792  1.4161 -2.7003
  629MOL0     H86785   9.642   3.607   6.020 -4.3576  0.8112 -2.0015
  629MOL0     H86786   7.748   3.746   5.635  0.5070 -0.7876  0.0849
  629MOL0     H86787   7.488   3.732   5.597 -1.0618 -1.3131 -0.2546
  629MOL0     H86788   7.149   3.652   5.558  3.6585 -1.0953 -2.1848
  629MOL0     H86789   6.898   3.661   5.544 -1.4670  0.2510 -2.1270
  629MOL0     H86790   6.681   3.361   5.331  3.0633  3.8062 -0.6512
  629MOL0     H86791   6.653   3.327   5.504  2.4036  0.1309 -0.7456
  629MOL0     H86792   6.441   3.387   5.382 -1.9763  1.6556 -2.6586
  629MOL0     H86793   6.524   3.535   5.338  4.0628  1.4160  1.3508
  629MOL0     H86794   6.482   3.479   5.625 -2.9488 -1.1999 -0.1311
  629MOL0     H86795   6.514   3.636   5.537 -2.6620  1.2732 -0.3775
  629MOL0     H86796   6.268   3.607   5.606 -1.3009  2.1202 -1.0728
  629MOL0     H86797   6.273   3.447   5.525 -2.6662  1.0866  2.6655
  629MOL0     H86798   6.162   3.733   5.231 -0.6548 -1.1773 -1.0781
  629MOL0     H86799   6.881   3.301   5.333 -1.2548 -0.7660  2.6706
  629MOL0     H86800   7.158   3.239   5.222  0.6970  0.7704  0.7359
  629MOL0     H86801   7.219   3.197   5.385  0.2192 -2.6852 -0.5355
  629MOL0     H86802   7.071   3.145   5.341 -0.5096  0.5258 -0.0552
  630MOL0     O86803   8.089   4.142   7.480 -0.1841  0.1985  0.0874
  630MOL0     C86804   8.210   4.152   7.510  0.0035 -0.7637  0.1347
  630MOL0     O86805   8.285   4.274   7.504 -0.3961 -0.1996 -0.2958
  630MOL0     C86806   8.210   4.385   7.465  0.4973 -0.5542  0.3396
  630MOL0     C86807   8.091   4.419   7.537 -0.1044  0.2885 -0.5621
  630MOL0     C86808   8.015   4.527   7.503 -0.3757 -0.1950  0.3712
  630MOL0     C86809   8.065   4.616   7.405 -0.4374  0.0751  1.1814
  630MOL0     O86810   7.997   4.733   7.367  0.2269 -0.7180  0.1109
  630MOL0     C86811   7.886   4.791   7.448 -1.2930  0.7111 -0.0705
  630MOL0     C86812   7.960   4.850   7.566  0.3201 -0.1657  0.2876
  630MOL0     C86813   7.864   4.953   7.622  0.3176 -0.8839  0.0084
  630MOL0     C86814   7.910   5.024   7.755 -0.2963  0.0669  0.8319
  630MOL0     C86815   8.027   5.116   7.739 -0.2224 -0.4581  0.1185
  630MOL0     C86816   8.008   5.220   7.623  0.3544 -0.0592 -0.3799
  630MOL0     C86817   7.890   5.306   7.640  0.7499 -0.4034  0.1895
  630MOL0     C86818   7.879   5.387   7.766  0.4017 -0.4915  0.2993
  630MOL0     N86819   7.767   5.477   7.755  0.2650 -0.0164 -0.9589
  630MOL0     C86820   7.758   5.609   7.777 -0.3773  0.3477  0.3539
  630MOL0     C86821   7.630   5.638   7.790  0.1519  0.0014  0.2199
  630MOL0     C86822   7.562   5.764   7.815  0.1369  0.2584  0.3155
  630MOL0     C86823   7.657   5.856   7.895 -0.4814 -0.0376  0.4464
  630MOL0     C86824   7.580   5.983   7.916  0.0331  0.1176 -0.2641
  630MOL0     C86825   7.659   6.094   7.982 -0.3632  0.4882  0.0654
  630MOL0     O86826   7.757   6.147   7.885  0.3042  0.1008  0.0213
  630MOL0     C86827   7.858   6.217   7.935  0.5909  0.5502  0.1721
  630MOL0     C86828   7.847   6.308   8.039 -0.5627  1.0385  0.1800
  630MOL0     C86829   7.966   6.375   8.088 -0.3514 -0.0362 -0.4163
  630MOL0     C86830   7.953   6.442   8.226  0.2376  0.6005  0.0839
  630MOL0     C86831   8.093   6.355   8.018 -0.3593 -0.2278  0.8196
  630MOL0     C86832   8.218   6.440   8.022 -0.5435 -0.8127  0.2484
  630MOL0     O86833   8.325   6.417   7.939 -0.1975 -0.3494 -0.0590
  630MOL0     C86834   8.434   6.492   7.924 -0.1075  0.2675 -0.0738
  630MOL0     C86835   8.455   6.619   7.975  0.0817  0.2306 -0.3733
  630MOL0     C86836   8.579   6.688   7.960  0.5644 -0.4227  0.5811
  630MOL0     C86837   8.678   6.639   7.881 -0.8046  0.2318 -0.5606
  630MOL0     O86838   8.789   6.711   7.848 -0.1054  0.6754 -0.0906
  630MOL0     C86839   8.873   6.749   7.959  0.1412  0.6275 -0.0140
  630MOL0     C86840   9.012   6.787   7.896  0.8252 -0.0963  0.2598
  630MOL0     C86841   9.084   6.670   7.847  0.1424  0.5468  0.9311
  630MOL0     C86842   9.220   6.698   7.767 -0.7930  0.4275  0.3112
  630MOL0     C86843   9.333   6.742   7.859 -0.0057  0.0330 -0.0957
  630MOL0     C86844   9.463   6.749   7.790 -0.4569 -0.4935  0.3920
  630MOL0     C86845   9.573   6.813   7.874  0.9957  0.0177 -0.1433
  630MOL0     C86846   9.665   6.893   7.784  0.2025 -0.0154 -0.0023
  630MOL0    Cl86847   9.791   6.970   7.877  0.1463  0.3699 -0.2187
  630MOL0     C86848   8.669   6.505   7.838 -0.3277 -0.7342  0.1372
  630MOL0     C86849   8.547   6.436   7.859 -0.2235  0.1259  0.3182
  630MOL0     O86850   8.204   6.538   8.094 -0.2688 -0.4573  0.3468
  630MOL0     C86851   8.093   6.254   7.919 -0.0861  0.0470 -0.5972
  630MOL0     C86852   7.981   6.190   7.870 -0.2333  0.6849 -0.3153
  630MOL0     N86853   7.558   5.521   7.755  1.3146 -0.4675  0.4057
  630MOL0     N86854   7.639   5.433   7.728  0.0263 -0.0481  0.1810
  630MOL0     C86855   8.194   4.603   7.350 -0.4332  0.0233  0.2553
  630MOL0     C86856   8.255   4.481   7.373 -0.3193  0.5159  0.3604
  630MOL0     C86857   8.283   4.038   7.548  0.3199 -0.1662  0.9354
  630MOL0     C86858   8.416   4.018   7.496  0.4806 -0.1843  0.0202
  630MOL0     C86859   8.494   3.919   7.548  0.2591  0.1423  0.8484
  630MOL0     C86860   8.442   3.820   7.632 -0.1659 -0.2422  0.2075
  630MOL0     O86861   8.515   3.716   7.688 -0.9416 -0.0381  0.6193
  630MOL0     C86862   8.659   3.733   7.684  0.6612 -0.6493 -0.9560
  630MOL0     C86863   8.706   3.844   7.776 -0.9462 -1.2050  0.0475
  630MOL0     C86864   8.830   3.919   7.718  0.0611 -0.3131  0.3363
  630MOL0     C86865   8.876   4.016   7.826  1.0847  0.2547 -0.0023
  630MOL0     C86866   8.988   4.092   7.775  0.3484 -0.6727  0.1298
  630MOL0     C86867   9.088   4.151   7.741  0.0076  0.3176  0.5699
  630MOL0     C86868   8.311   3.829   7.674 -0.4810  0.5081 -0.5613
  630MOL0     C86869   8.232   3.939   7.641  0.8011 -0.0865 -0.0929
  630MOL0     C86870   8.092   3.952   7.695 -0.2688  0.7118  0.2406
  630MOL0     H86871   8.069   4.358   7.624  0.0396  0.0537 -0.6875
  630MOL0     H86872   7.916   4.541   7.545 -2.1918  0.2178 -3.6164
  630MOL0     H86873   7.809   4.721   7.482 -3.7338  1.9977 -2.6089
  630MOL0     H86874   7.831   4.864   7.388  0.6962  0.7724 -1.9340
  630MOL0     H86875   7.982   4.775   7.642  3.1826 -0.1580 -0.4443
  630MOL0     H86876   8.055   4.897   7.540 -0.8223  2.3458  0.3968
  630MOL0     H86877   7.845   5.028   7.545 -2.6095 -1.7846 -0.2549
  630MOL0     H86878   7.763   4.915   7.641 -0.7755  0.9675 -1.6821
  630MOL0     H86879   7.821   5.069   7.801  0.0787  0.7828  0.8753
  630MOL0     H86880   7.939   4.938   7.815 -1.4544  0.4872  2.0395
  630MOL0     H86881   8.111   5.048   7.718 -0.4452  0.1648 -3.5121
  630MOL0     H86882   8.047   5.173   7.830  1.1808  0.2507 -0.5899
  630MOL0     H86883   8.091   5.291   7.620 -0.7728  1.2977 -0.4323
  630MOL0     H86884   8.012   5.186   7.519  1.2108 -1.1887  0.0111
  630MOL0     H86885   7.805   5.238   7.630  1.8915 -1.7521 -0.5750
  630MOL0     H86886   7.900   5.378   7.559  0.1104 -1.3871 -0.7907
  630MOL0     H86887   7.872   5.319   7.851 -1.3463  1.6244  1.9647
  630MOL0     H86888   7.976   5.437   7.772  1.6588 -2.5183 -1.6854
  630MOL0     H86889   7.843   5.662   7.819  1.3328  0.0808 -2.5117
  630MOL0     H86890   7.477   5.741   7.880 -1.9019  4.3327 -0.5916
  630MOL0     H86891   7.525   5.812   7.724 -0.2448 -0.6549 -0.0234
  630MOL0     H86892   7.682   5.799   7.985  0.2747 -3.9009 -1.9697
  630MOL0     H86893   7.749   5.878   7.840 -0.4161 -1.4006 -0.0467
  630MOL0     H86894   7.543   6.020   7.820 -1.2985  1.6850  0.7913
  630MOL0     H86895   7.493   5.957   7.977 -0.6785  0.5147 -1.1084
  630MOL0     H86896   7.587   6.172   8.010 -3.3548 -2.1352  0.3288
  630MOL0     H86897   7.707   6.064   8.076 -1.5445  2.6064  1.4265
  630MOL0     H86898   7.759   6.321   8.101 -1.1832  3.0014 -1.0348
  630MOL0     H86899   7.982   6.362   8.296  1.0083  2.3592  1.9006
  630MOL0     H86900   7.846   6.460   8.241  0.2318 -0.8087  2.3438
  630MOL0     H86901   8.010   6.532   8.250 -0.4187  0.6583  1.5629
  630MOL0     H86902   8.382   6.677   8.030 -1.0882  0.6993 -2.3128
  630MOL0     H86903   8.579   6.789   8.000 -1.8752 -1.0863  2.4850
  630MOL0     H86904   8.833   6.833   8.017  0.5612  0.6316  0.2742
  630MOL0     H86905   8.891   6.674   8.036 -0.5323  0.8496  0.3781
  630MOL0     H86906   9.000   6.863   7.819  0.2445 -1.1896 -0.7541
  630MOL0     H86907   9.073   6.828   7.977 -0.3208  1.6563  0.2789
  630MOL0     H86908   9.005   6.626   7.785 -2.7679  3.7438  2.0671
  630MOL0     H86909   9.109   6.606   7.932  0.1416 -3.8578 -2.0477
  630MOL0     H86910   9.200   6.776   7.693  3.2555  1.6847  0.3032
  630MOL0     H86911   9.248   6.612   7.707 -2.4801  2.2340 -3.4138
  630MOL0     H86912   9.305   6.834   7.911 -2.0463 -1.2733  1.2133
  630MOL0     H86913   9.364   6.669   7.935  4.2523  0.5203 -1.0779
  630MOL0     H86914   9.438   6.809   7.703 -3.0042 -2.8207 -0.6363
  630MOL0     H86915   9.486   6.646   7.762 -0.9899 -0.7825  0.9644
  630MOL0     H86916   9.623   6.732   7.927 -0.2492  0.1899  1.3469
  630MOL0     H86917   9.528   6.881   7.947  1.4720  1.1549 -0.8729
  630MOL0     H86918   9.607   6.980   7.751 -0.2531  0.8074  2.6888
  630MOL0     H86919   9.706   6.837   7.699  0.9580 -0.9601  0.9569
  630MOL0     H86920   8.747   6.465   7.773  0.0398  0.0839  0.0662
  630MOL0     H86921   8.537   6.336   7.819 -0.4127 -0.8580  2.6253
  630MOL0     H86922   8.182   6.229   7.862  0.6530  0.9024  0.1445
  630MOL0     H86923   7.973   6.116   7.791 -0.6477  0.0579  0.3029
  630MOL0     H86924   8.232   4.663   7.268  1.0275  0.4235  1.1836
  630MOL0     H86925   8.349   4.461   7.324 -0.1801  0.2120  0.7496
  630MOL0     H86926   8.461   4.091   7.430 -3.8420  2.1637 -0.7397
  630MOL0     H86927   8.595   3.909   7.509 -0.6555 -2.5206 -1.1178
  630MOL0     H86928   8.698   3.632   7.702 -2.0464 -1.9007 -1.6484
  630MOL0     H86929   8.686   3.755   7.580  0.5797 -0.3718 -0.9198
  630MOL0     H86930   8.730   3.808   7.876  3.7134  0.5553 -0.2002
  630MOL0     H86931   8.628   3.920   7.786 -0.4760 -0.6127 -0.6600
  630MOL0     H86932   8.909   3.852   7.683  2.5173  1.2203  2.6487
  630MOL0     H86933   8.789   3.971   7.630 -1.7632 -2.2713 -0.0635
  630MOL0     H86934   8.910   3.958   7.912  2.3253 -0.7492 -1.1099
  630MOL0     H86935   8.797   4.075   7.872  0.3329 -0.1229 -0.7672
  630MOL0     H86936   9.173   4.204   7.704 -0.5173  2.2472  2.0020
  630MOL0     H86937   8.277   3.753   7.743  1.0753 -0.5081 -0.8468
  630MOL0     H86938   8.017   3.938   7.617  1.4250 -0.2245 -1.2985
  630MOL0     H86939   8.070   3.874   7.768  2.4856 -0.4229 -0.0127
  630MOL0     H86940   8.069   4.053   7.729 -2.5749  0.5876 -0.7671
  631MOL0     O86941   9.487   1.720   7.172 -0.7680 -0.2295 -0.3788
  631MOL0     C86942   9.471   1.595   7.181 -0.0274 -0.1344  0.5760
  631MOL0     O86943   9.577   1.502   7.175 -0.1385 -0.6339 -0.7633
  631MOL0     C86944   9.705   1.541   7.195  0.5171 -0.1462  0.3513
  631MOL0     C86945   9.759   1.673   7.175  0.0929  0.1258  0.5379
  631MOL0     C86946   9.899   1.702   7.197  0.9478 -0.1079  0.4189
  631MOL0     C86947   9.987   1.609   7.238 -0.2930 -0.4450  0.8849
  631MOL0     O86948  10.121   1.622   7.268  0.3431  0.5270  0.0610
  631MOL0     C86949  10.178   1.748   7.233 -0.2800 -0.5758  1.0046
  631MOL0     C86950  10.324   1.726   7.253  0.1491 -0.2763  0.4909
  631MOL0     C86951  10.400   1.866   7.249  0.0707  0.6486  0.7466
  631MOL0     C86952  10.534   1.858   7.322 -1.1315 -0.2555 -0.1813
  631MOL0     C86953  10.520   1.912   7.465  0.3427  0.3618  0.3944
  631MOL0     C86954  10.540   2.065   7.478 -0.1319 -0.1818  0.2531
  631MOL0     C86955  10.689   2.087   7.456  0.7065  0.3353  0.2386
  631MOL0     C86956  10.712   2.240   7.483  0.0168  0.4705  0.8438
  631MOL0     N86957  10.857   2.257   7.495 -0.7887  0.1329 -0.2386
  631MOL0     C86958  10.937   2.276   7.393 -0.4512 -0.2538 -0.3062
  631MOL0     C86959  11.056   2.303   7.454 -0.2672 -0.5151 -0.2852
  631MOL0     C86960  11.169   2.359   7.379 -0.1263 -0.0835  0.8644
  631MOL0     C86961  11.272   2.257   7.358  0.1028 -0.1976 -0.2763
  631MOL0     C86962  11.358   2.215   7.486 -0.2328 -0.3040 -0.0411
  631MOL0     C86963  11.496   2.157   7.450  0.5643  1.0094 -0.3040
  631MOL0     O86964  11.487   2.027   7.398  1.2939 -0.7459  0.2883
  631MOL0     C86965  11.599   1.961   7.377 -1.1746 -0.7141 -0.1684
  631MOL0     C86966  11.580   1.836   7.316 -0.9994  0.2059  0.3038
  631MOL0     C86967  11.685   1.749   7.290 -0.5370  1.0310 -0.5350
  631MOL0     C86968  11.644   1.612   7.238 -0.0416  0.2545  0.5505
  631MOL0     C86969  11.824   1.786   7.313  0.1563  0.1611 -0.4241
  631MOL0     C86970  11.948   1.707   7.275 -0.4450  0.0277 -0.3399
  631MOL0     O86971  12.070   1.758   7.313 -0.0166 -0.3609  0.4786
  631MOL0     C86972  12.190   1.719   7.254  0.7417 -0.3512 -0.1889
  631MOL0     C86973  12.204   1.676   7.122  0.0996  0.3256 -0.1217
  631MOL0     C86974  12.328   1.655   7.065  0.5222 -0.1460 -0.1536
  631MOL0     C86975  12.445   1.682   7.135  0.6166  0.2525 -1.0978
  631MOL0     O86976  12.567   1.671   7.084  0.3544  0.1658  0.5125
  631MOL0     C86977  12.598   1.771   6.981  0.4616 -0.2506 -0.0117
  631MOL0     C86978  12.720   1.732   6.906  0.1040  0.2469  0.1329
  631MOL0     C86979  12.842   1.738   6.996 -0.3766 -0.1141 -0.0575
  631MOL0     C86980  12.975   1.717   6.914  0.4235 -0.0270 -0.9528
  631MOL0     C86981  13.092   1.711   7.006 -0.2296  0.5515 -0.2608
  631MOL0     C86982  13.225   1.668   6.946  0.0281  0.3406  0.5175
  631MOL0     C86983  13.347   1.735   7.011  0.2948  0.3552  0.0617
  631MOL0     C86984  13.468   1.648   6.994 -0.5031 -0.1001  0.0303
  631MOL0    Cl86985  13.610   1.724   7.072  0.3456  0.1108 -0.2985
  631MOL0     C86986  12.433   1.726   7.270 -0.5432  0.6862 -0.7208
  631MOL0     C86987  12.308   1.743   7.329 -0.5279  0.1719  0.0243
  631MOL0     O86988  11.935   1.608   7.210  0.9716 -0.2899  0.3937
  631MOL0     C86989  11.838   1.919   7.375 -0.4648  0.2709  0.2657
  631MOL0     C86990  11.731   2.003   7.405  0.3457 -0.1701  1.0550
  631MOL0     N86991  11.047   2.288   7.590  0.2503 -0.3167  0.0910
  631MOL0     N86992  10.924   2.252   7.611 -0.3044 -0.4879 -0.3371
  631MOL0     C86993   9.934   1.481   7.254 -0.4130 -0.0383 -1.1682
  631MOL0     C86994   9.800   1.449   7.234  0.0731 -0.0998 -0.1779
  631MOL0     C86995   9.331   1.548   7.163 -0.1540  0.0124  0.3661
  631MOL0     C86996   9.306   1.465   7.054  0.3598 -0.4551 -0.0541
  631MOL0     C86997   9.177   1.426   7.029 -0.2774  0.2680  0.0951
  631MOL0     C86998   9.071   1.467   7.100 -0.2373 -0.2210 -0.6339
  631MOL0     O86999   8.948   1.427   7.056 -0.2696  0.0986 -0.5045
  631MOL0     C87000   8.827   1.482   7.109  1.1652 -1.1828  0.3490
  631MOL0     C87001   8.794   1.630   7.057  0.7960 -0.2819  0.0647
  631MOL0     C87002   8.682   1.689   7.132  0.4646 -0.8527 -0.2599
  631MOL0     C87003   8.560   1.602   7.146  0.7707 -0.3245  1.2519
  631MOL0     C87004   8.503   1.538   7.022  0.2477 -0.3837 -0.4868
  631MOL0     C87005   8.471   1.468   6.928  0.6059 -1.3529 -0.4624
  631MOL0     C87006   9.097   1.553   7.209  0.1567  0.3651 -0.5988
  631MOL0     C87007   9.223   1.596   7.238 -0.5307  0.9716  0.5019
  631MOL0     C87008   9.242   1.693   7.348 -0.3552  0.6333 -0.6532
  631MOL0     H87009   9.694   1.754   7.143  0.7010  0.6156  0.5238
  631MOL0     H87010   9.931   1.805   7.189 -0.4019  0.5216  2.2491
  631MOL0     H87011  10.137   1.837   7.282 -1.2124  0.9944 -2.3177
  631MOL0     H87012  10.176   1.769   7.126  1.1325 -1.3495  0.7950
  631MOL0     H87013  10.337   1.680   7.351  0.3296  1.3484  1.2744
  631MOL0     H87014  10.366   1.661   7.176 -0.0448  1.5871 -1.2817
  631MOL0     H87015  10.415   1.896   7.145  2.6109 -1.7470  0.3004
  631MOL0     H87016  10.345   1.952   7.288  0.8338  0.4466  2.3349
  631MOL0     H87017  10.574   1.756   7.324  0.3291  0.3040  0.3348
  631MOL0     H87018  10.607   1.921   7.270  1.1257  0.6756  3.7101
  631MOL0     H87019  10.587   1.858   7.532  1.2545  0.6254 -0.2986
  631MOL0     H87020  10.422   1.896   7.512  1.6325 -2.0934  2.4557
  631MOL0     H87021  10.469   2.124   7.419 -0.1620  0.2317  0.6970
  631MOL0     H87022  10.509   2.084   7.582 -3.1000  3.0023 -1.0084
  631MOL0     H87023  10.727   2.056   7.358  2.0316  1.7066  0.2690
  631MOL0     H87024  10.735   2.026   7.534  0.0388 -0.7046 -0.1676
  631MOL0     H87025  10.658   2.300   7.409 -0.4486  2.2162  2.5207
  631MOL0     H87026  10.666   2.269   7.577  1.3669  4.2229  0.5178
  631MOL0     H87027  10.916   2.300   7.290  2.6158  0.6433 -0.8106
  631MOL0     H87028  11.212   2.445   7.431 -1.7292  0.9027  0.6469
  631MOL0     H87029  11.133   2.394   7.281  2.2026  0.5270  0.1697
  631MOL0     H87030  11.214   2.175   7.316  1.9523 -0.4758 -2.4732
  631MOL0     H87031  11.335   2.297   7.278 -2.1307 -0.1491 -2.1120
  631MOL0     H87032  11.373   2.307   7.544 -4.5207 -0.4948  1.7259
  631MOL0     H87033  11.298   2.141   7.539 -1.9647  0.6421 -0.5997
  631MOL0     H87034  11.541   2.222   7.375  1.2347  0.1494 -0.6689
  631MOL0     H87035  11.557   2.144   7.540  0.8728 -0.4331 -0.7009
  631MOL0     H87036  11.473   1.817   7.307 -0.7049 -0.5806 -2.1346
  631MOL0     H87037  11.637   1.606   7.129 -2.1421  3.2529  0.3988
  631MOL0     H87038  11.549   1.589   7.287  0.0277 -0.3346  0.4131
  631MOL0     H87039  11.714   1.532   7.265  0.5047  1.0116  1.4516
  631MOL0     H87040  12.117   1.667   7.058 -0.1295  3.8124 -0.5225
  631MOL0     H87041  12.329   1.629   6.959 -1.9779 -1.3614  0.0544
  631MOL0     H87042  12.519   1.793   6.910  1.4821  1.1728 -0.7449
  631MOL0     H87043  12.613   1.868   7.029  0.0329 -0.6947  1.0548
  631MOL0     H87044  12.709   1.627   6.875 -1.1455  0.8494 -1.6468
  631MOL0     H87045  12.734   1.793   6.817  0.6142  2.1181  1.4517
  631MOL0     H87046  12.830   1.650   7.060  0.8301 -0.7903 -0.7199
  631MOL0     H87047  12.836   1.834   7.050 -1.0667 -0.4544  0.4899
  631MOL0     H87048  13.000   1.783   6.830  0.5864 -1.4448 -2.0580
  631MOL0     H87049  12.964   1.623   6.858 -1.2845  1.4748 -3.3868
  631MOL0     H87050  13.103   1.806   7.059 -0.4716 -1.1139  3.0350
  631MOL0     H87051  13.075   1.644   7.092  1.4967 -0.4962 -0.6779
  631MOL0     H87052  13.223   1.684   6.837  0.3724  0.7411  0.5699
  631MOL0     H87053  13.233   1.559   6.955 -0.3726  0.1745 -0.8934
  631MOL0     H87054  13.329   1.750   7.118 -1.1658  1.9042 -0.3586
  631MOL0     H87055  13.372   1.831   6.964  0.1708 -0.4423 -1.7075
  631MOL0     H87056  13.487   1.625   6.888 -1.9196  1.6997 -0.6560
  631MOL0     H87057  13.439   1.553   7.041 -1.9846 -0.1991 -1.0126
  631MOL0     H87058  12.522   1.750   7.327 -2.0634  4.2788  0.4639
  631MOL0     H87059  12.302   1.771   7.434  1.3562 -1.8668  0.7219
  631MOL0     H87060  11.935   1.959   7.404  0.7473 -0.8334 -1.9998
  631MOL0     H87061  11.744   2.105   7.441 -1.8745  0.5320  0.0549
  631MOL0     H87062   9.997   1.404   7.299 -0.8588  0.2215 -0.0647
  631MOL0     H87063   9.761   1.347   7.239  0.8051 -0.4290 -0.9496
  631MOL0     H87064   9.384   1.427   6.988 -0.9862 -0.8123 -1.5141
  631MOL0     H87065   9.153   1.363   6.944  1.8747 -0.2502 -0.1895
  631MOL0     H87066   8.746   1.421   7.070  0.5082  0.0575 -0.2889
  631MOL0     H87067   8.831   1.480   7.218  0.8229  0.0333  0.3958
  631MOL0     H87068   8.773   1.648   6.951  0.3398  2.4074  0.5287
  631MOL0     H87069   8.885   1.688   7.076  0.6419 -0.2887  0.8763
  631MOL0     H87070   8.717   1.710   7.234 -3.4111  1.4528  0.8145
  631MOL0     H87071   8.664   1.781   7.076 -1.3966 -1.1167 -0.1847
  631MOL0     H87072   8.485   1.672   7.185 -0.2102 -0.6053 -0.0848
  631MOL0     H87073   8.584   1.530   7.225  1.0350  1.2450  2.6820
  631MOL0     H87074   8.439   1.424   6.836 -1.0050  0.4101 -0.7959
  631MOL0     H87075   9.020   1.588   7.277  0.5389 -2.6429  1.6176
  631MOL0     H87076   9.197   1.660   7.443  3.4193 -0.4359  0.9264
  631MOL0     H87077   9.348   1.708   7.369 -0.2498 -1.8945  1.0271
  631MOL0     H87078   9.199   1.790   7.319 -0.8074  0.9140  0.8677
  632MOL0     O87079   0.916   6.708   8.873 -0.8788 -0.3614 -0.2133
  632MOL0     C87080   0.874   6.611   8.929 -0.0612 -0.1178  0.3265
  632MOL0     O87081   0.945   6.508   8.973  0.6859  0.0031  0.3636
  632MOL0     C87082   1.079   6.510   9.003  0.0964  0.3910  0.3621
  632MOL0     C87083   1.135   6.620   9.064  0.5582 -0.0327 -0.0726
  632MOL0     C87084   1.271   6.611   9.103  0.4290  0.7087 -0.0222
  632MOL0     C87085   1.348   6.503   9.072 -0.0260 -0.1874 -0.6806
  632MOL0     O87086   1.483   6.500   9.104 -0.2423  0.6741  0.8869
  632MOL0     C87087   1.565   6.622   9.092  0.6312 -0.7651 -0.1962
  632MOL0     C87088   1.641   6.637   8.964 -0.1171  0.3399  0.3686
  632MOL0     C87089   1.715   6.777   8.960 -0.1398 -0.2158  0.3163
  632MOL0     C87090   1.815   6.792   8.844 -0.0158  1.2764  0.2299
  632MOL0     C87091   1.922   6.903   8.875  0.2439 -0.8245  0.2508
  632MOL0     C87092   1.995   6.920   8.741  0.1316  0.1870 -0.0885
  632MOL0     C87093   2.095   7.036   8.740  0.5269 -0.1736 -0.0010
  632MOL0     C87094   2.023   7.180   8.765 -0.4416 -0.0315  0.4795
  632MOL0     N87095   2.136   7.267   8.742 -0.2207  0.9265  0.4239
  632MOL0     C87096   2.227   7.296   8.839  0.4081  0.5853  0.8302
  632MOL0     C87097   2.305   7.390   8.781  0.6997 -0.1520 -0.1376
  632MOL0     C87098   2.431   7.456   8.849  0.2037 -0.8428 -0.0107
  632MOL0     C87099   2.482   7.572   8.767  0.5735  0.3180 -0.0145
  632MOL0     C87100   2.612   7.626   8.829  0.6209  0.0102 -0.2267
  632MOL0     C87101   2.669   7.735   8.735 -0.6005 -0.4834  0.2189
  632MOL0     O87102   2.773   7.814   8.791  0.1846 -0.1338  0.2890
  632MOL0     C87103   2.902   7.771   8.774 -0.9356 -0.7161 -0.4255
  632MOL0     C87104   2.942   7.644   8.736  0.0302 -0.2490 -0.8985
  632MOL0     C87105   3.084   7.612   8.732  0.4984 -0.7791 -0.2044
  632MOL0     C87106   3.104   7.463   8.677  0.0337 -0.1520  0.3574
  632MOL0     C87107   3.179   7.711   8.760 -0.7391  0.0117  0.1928
  632MOL0     C87108   3.324   7.695   8.742  0.3130 -0.0711 -0.3209
  632MOL0     O87109   3.395   7.812   8.721  0.2853  0.2557  0.5518
  632MOL0     C87110   3.532   7.804   8.709  0.5134 -0.2417  0.2613
  632MOL0     C87111   3.608   7.919   8.746  0.6006  0.5808  0.7447
  632MOL0     C87112   3.744   7.936   8.721  0.2835  0.4640 -0.0239
  632MOL0     C87113   3.819   7.825   8.678  0.1250  0.1614 -0.5963
  632MOL0     O87114   3.951   7.836   8.651 -0.3823  0.0835 -0.1601
  632MOL0     C87115   4.040   7.727   8.697  0.1168 -0.3517  0.2683
  632MOL0     C87116   4.180   7.778   8.718 -0.4808 -1.2705 -0.9765
  632MOL0     C87117   4.189   7.870   8.840 -0.0405  0.1026  0.4257
  632MOL0     C87118   4.334   7.920   8.857  0.0324 -0.1696 -0.3857
  632MOL0     C87119   4.388   7.961   8.999  0.2931 -0.0324  0.3333
  632MOL0     C87120   4.416   7.847   9.090 -0.7656 -1.4325  0.4783
  632MOL0     C87121   4.490   7.890   9.215 -0.1188 -0.4024 -0.0726
  632MOL0     C87122   4.497   7.784   9.327 -0.4559 -0.5411 -0.5235
  632MOL0    Cl87123   4.337   7.787   9.413 -0.1719 -0.0422  0.7308
  632MOL0     C87124   3.751   7.704   8.652  0.2179  0.1344  0.2239
  632MOL0     C87125   3.611   7.699   8.655  0.2164 -0.5443  0.1339
  632MOL0     O87126   3.372   7.586   8.751 -0.0643 -0.4033  0.0332
  632MOL0     C87127   3.127   7.838   8.800 -0.1890  0.1002 -0.0961
  632MOL0     C87128   2.993   7.865   8.803  0.4316 -0.3245 -0.4775
  632MOL0     N87129   2.262   7.412   8.649 -0.1630  0.4966 -0.7181
  632MOL0     N87130   2.157   7.339   8.634  0.8703 -0.2273  0.6412
  632MOL0     C87131   1.293   6.396   9.008 -0.0598 -0.4810  0.6700
  632MOL0     C87132   1.155   6.395   8.978  0.3695  0.3762 -0.8365
  632MOL0     C87133   0.725   6.584   8.940  0.0429  0.0382 -0.1488
  632MOL0     C87134   0.672   6.488   8.850  0.1805  0.4695  0.3690
  632MOL0     C87135   0.531   6.482   8.829 -0.4519 -1.3372  0.4428
  632MOL0     C87136   0.442   6.567   8.896 -0.2614  0.4015 -0.2596
  632MOL0     O87137   0.310   6.529   8.895 -0.1758  0.0783  0.2108
  632MOL0     C87138   0.227   6.549   9.015 -0.0343  0.1010 -0.3752
  632MOL0     C87139   0.100   6.449   9.008  0.0004 -0.1911  0.4357
  632MOL0     C87140   0.136   6.306   9.017  0.6750 -0.1855  0.5059
  632MOL0     C87141   0.187   6.254   9.148 -0.2993  0.1378 -0.2268
  632MOL0     C87142   0.329   6.284   9.174  0.6501  0.5040  0.2466
  632MOL0     C87143   0.445   6.305   9.182  0.4651  0.1009  0.1064
  632MOL0     C87144   0.498   6.659   8.988 -0.6262 -0.8882 -1.2883
  632MOL0     C87145   0.633   6.676   9.003  0.4267 -0.4101  0.0670
  632MOL0     C87146   0.682   6.779   9.094  0.1321  0.1481  0.6434
  632MOL0     H87147   1.078   6.706   9.097 -0.1862 -0.1312 -1.0786
  632MOL0     H87148   1.322   6.688   9.160  1.4507 -0.4374  0.6654
  632MOL0     H87149   1.634   6.620   9.176 -0.1343 -2.6514  0.4539
  632MOL0     H87150   1.510   6.715   9.106  0.0942 -1.2753  1.3647
  632MOL0     H87151   1.692   6.552   8.919 -1.8745 -0.7735  0.3841
  632MOL0     H87152   1.555   6.634   8.896 -1.1458 -1.3379  1.6789
  632MOL0     H87153   1.639   6.856   8.952 -0.9012 -0.9953 -0.4268
  632MOL0     H87154   1.769   6.783   9.055 -2.2566 -0.5073  1.6138
  632MOL0     H87155   1.871   6.698   8.837 -1.2911  0.3924  1.1937
  632MOL0     H87156   1.762   6.807   8.750  1.0840 -1.7762 -1.0086
  632MOL0     H87157   1.989   6.872   8.955  0.6277 -4.2760 -1.2230
  632MOL0     H87158   1.876   6.999   8.904  1.5139  0.1069 -0.7000
  632MOL0     H87159   2.047   6.825   8.723  0.9497  0.2212  1.8448
  632MOL0     H87160   1.925   6.937   8.659 -0.1664 -0.9127 -0.0822
  632MOL0     H87161   2.135   7.033   8.638 -3.3233  2.0219 -1.8442
  632MOL0     H87162   2.166   7.022   8.822 -1.1768 -2.3677  1.2088
  632MOL0     H87163   1.934   7.201   8.705  0.3586  2.1461 -0.0245
  632MOL0     H87164   1.990   7.196   8.868 -0.0576  0.2388  0.5625
  632MOL0     H87165   2.238   7.244   8.934 -0.0733 -4.6733 -1.6637
  632MOL0     H87166   2.508   7.381   8.866  1.5996  1.2048  4.1951
  632MOL0     H87167   2.390   7.487   8.946 -0.5949 -1.4362 -0.1528
  632MOL0     H87168   2.504   7.537   8.665  0.4268 -2.0921  0.7263
  632MOL0     H87169   2.400   7.643   8.757 -1.2918 -1.9766 -2.8687
  632MOL0     H87170   2.582   7.680   8.919 -2.3247 -0.4722 -0.8287
  632MOL0     H87171   2.695   7.556   8.835  0.8472 -0.1233 -3.3243
  632MOL0     H87172   2.703   7.698   8.638  1.3276  0.9276  0.3030
  632MOL0     H87173   2.594   7.808   8.704 -0.2757  0.0373  0.6479
  632MOL0     H87174   2.867   7.572   8.706 -1.6866  1.1804 -0.1971
  632MOL0     H87175   3.072   7.456   8.573  2.7563 -1.3802 -0.5028
  632MOL0     H87176   3.054   7.400   8.751  0.2333  0.8621  1.3939
  632MOL0     H87177   3.208   7.429   8.672  0.3224  0.7975 -0.4003
  632MOL0     H87178   3.563   7.997   8.806 -0.2635 -0.9816  2.2214
  632MOL0     H87179   3.806   8.022   8.743  1.8856 -1.0705  1.7841
  632MOL0     H87180   4.013   7.669   8.786 -0.5275 -0.3845  0.0536
  632MOL0     H87181   4.066   7.648   8.625  1.1655 -1.7161  2.0476
  632MOL0     H87182   4.248   7.696   8.741  2.8359  1.3701 -0.7000
  632MOL0     H87183   4.212   7.833   8.629  0.3262  0.0440  0.0855
  632MOL0     H87184   4.159   7.808   8.925  1.1134 -2.8402 -1.1680
  632MOL0     H87185   4.130   7.962   8.834 -0.0440  0.2055  1.6108
  632MOL0     H87186   4.359   8.003   8.790  1.8101  0.6304  1.1758
  632MOL0     H87187   4.399   7.843   8.816 -0.3648 -0.9631  0.4441
  632MOL0     H87188   4.481   8.016   8.983 -1.4342  2.2984 -2.6046
  632MOL0     H87189   4.318   8.037   9.035 -1.5900 -1.0788 -0.9335
  632MOL0     H87190   4.479   7.782   9.029  0.0406  2.4944 -3.3948
  632MOL0     H87191   4.319   7.802   9.112 -3.1261  3.3736  1.4180
  632MOL0     H87192   4.444   7.983   9.248 -1.3004 -1.0154  0.0713
  632MOL0     H87193   4.595   7.913   9.191 -0.1720 -1.0828 -1.0137
  632MOL0     H87194   4.577   7.810   9.397 -2.1375  1.3505  0.7811
  632MOL0     H87195   4.510   7.680   9.293 -1.0749 -0.1313 -2.0725
  632MOL0     H87196   3.810   7.624   8.609 -0.0314 -1.1603  2.1253
  632MOL0     H87197   3.562   7.614   8.609  0.8125 -0.0752 -1.4079
  632MOL0     H87198   3.201   7.915   8.822  1.4730 -0.1843 -3.8078
  632MOL0     H87199   2.937   7.952   8.833  0.1830 -1.0095  1.1559
  632MOL0     H87200   1.351   6.306   8.991  1.9017  0.9110 -0.5954
  632MOL0     H87201   1.102   6.306   8.945  2.0108 -0.2708 -1.8119
  632MOL0     H87202   0.740   6.426   8.793  3.3186  2.7149  1.3390
  632MOL0     H87203   0.481   6.404   8.773 -2.8895  0.7094 -0.4138
  632MOL0     H87204   0.282   6.536   9.108 -0.9262  0.0437  0.1604
  632MOL0     H87205   0.191   6.652   9.019 -2.5127 -0.7289  0.9084
  632MOL0     H87206   0.053   6.466   8.910  2.3040 -3.1333 -1.3664
  632MOL0     H87207   0.026   6.465   9.087  1.4443  0.0519  1.7883
  632MOL0     H87208   0.043   6.253   8.993  0.0383  1.2289 -0.3184
  632MOL0     H87209   0.208   6.285   8.937  0.3503 -1.8687  0.6243
  632MOL0     H87210   0.177   6.147   9.164  1.0631  0.3143  2.3089
  632MOL0     H87211   0.121   6.298   9.223 -0.7994 -2.4044  0.9108
  632MOL0     H87212   0.551   6.314   9.183  0.4288  0.5093  1.3880
  632MOL0     H87213   0.430   6.723   9.043  0.8843  0.2331 -0.6362
  632MOL0     H87214   0.749   6.849   9.044  1.2394  0.4354  2.4348
  632MOL0     H87215   0.605   6.845   9.135 -0.1537 -0.5332  1.2278
  632MOL0     H87216   0.729   6.719   9.173  0.7694 -2.6044 -1.6363
  633MOL0     O87217   8.973   0.664   3.475  0.8739 -0.4967 -0.3704
  633MOL0     C87218   8.959   0.668   3.348  0.2692 -0.2370  0.0434
  633MOL0     O87219   9.058   0.687   3.259  0.8816  0.5004  0.3170
  633MOL0     C87220   9.189   0.668   3.290  0.8485  0.0055  0.0215
  633MOL0     C87221   9.245   0.581   3.384 -0.2123 -0.6508 -0.0867
  633MOL0     C87222   9.386   0.561   3.392  0.1893 -0.0723  0.2758
  633MOL0     C87223   9.472   0.644   3.318 -0.1188  0.5363 -0.7654
  633MOL0     O87224   9.600   0.635   3.338  0.2026 -0.0592  0.4080
  633MOL0     C87225   9.692   0.723   3.270  0.2657 -1.0645  0.5062
  633MOL0     C87226   9.814   0.740   3.361  0.0422  0.0993 -0.6598
  633MOL0     C87227   9.927   0.815   3.284 -0.5401 -0.3242  0.0451
  633MOL0     C87228  10.029   0.872   3.376 -0.5672 -0.1585  0.3699
  633MOL0     C87229  10.153   0.883   3.291  0.0011  0.8577  0.9448
  633MOL0     C87230  10.279   0.922   3.368  0.2170 -1.2530  0.1801
  633MOL0     C87231  10.396   0.915   3.276  0.2849  0.1946 -0.2100
  633MOL0     C87232  10.512   0.986   3.340  0.4690 -0.5819  0.2166
  633MOL0     N87233  10.636   0.998   3.260 -0.2595 -1.0877  0.8480
  633MOL0     C87234  10.713   0.898   3.207  0.7250 -0.4608 -0.9434
  633MOL0     C87235  10.828   0.957   3.168 -0.3906 -0.0208 -0.2088
  633MOL0     C87236  10.949   0.877   3.121 -0.8717 -0.1543  0.6805
  633MOL0     C87237  10.943   0.886   2.966  0.3776 -0.0613 -1.2387
  633MOL0     C87238  11.080   0.851   2.902  0.0676 -0.3299  0.2056
  633MOL0     C87239  11.186   0.965   2.918  0.1393  0.2205 -1.2964
  633MOL0     O87240  11.135   1.091   2.866 -0.3747 -0.3745  0.0287
  633MOL0     C87241  11.244   1.158   2.807 -1.1492  0.9934 -0.7600
  633MOL0     C87242  11.339   1.218   2.888 -0.4100  1.4246  0.4359
  633MOL0     C87243  11.451   1.283   2.827  0.0343  0.6962 -1.1811
  633MOL0     C87244  11.549   1.332   2.926  0.2294 -0.7394  0.5670
  633MOL0     C87245  11.470   1.280   2.689 -0.8193  0.5518  0.2296
  633MOL0     C87246  11.585   1.352   2.612  0.4534 -0.4950  0.2581
  633MOL0     O87247  11.564   1.381   2.481  0.8137 -0.0161  0.0297
  633MOL0     C87248  11.669   1.402   2.400  0.2470 -0.3540  0.1347
  633MOL0     C87249  11.706   1.531   2.374  0.3575 -0.6297  0.4847
  633MOL0     C87250  11.819   1.552   2.290 -0.6703  0.3550 -0.6686
  633MOL0     C87251  11.897   1.453   2.226  0.3362 -0.6754  0.2886
  633MOL0     O87252  12.010   1.488   2.150  0.0109 -0.1603  0.2821
  633MOL0     C87253  12.064   1.376   2.085  0.4246  0.3183  0.2823
  633MOL0     C87254  12.176   1.416   1.983  0.6843 -0.7181  0.4294
  633MOL0     C87255  12.241   1.309   1.901  0.3319  0.2671 -0.4587
  633MOL0     C87256  12.354   1.374   1.816 -0.7494 -0.8331 -0.5211
  633MOL0     C87257  12.414   1.268   1.732  0.2523  0.4923  0.3430
  633MOL0     C87258  12.523   1.312   1.623 -0.7427  0.2661 -0.6007
  633MOL0     C87259  12.455   1.371   1.508 -0.9367 -0.1230  0.3372
  633MOL0     C87260  12.554   1.403   1.399 -0.1549 -1.0219  0.0060
  633MOL0    Cl87261  12.686   1.512   1.462  0.3256  0.3743  0.2856
  633MOL0     C87262  11.851   1.325   2.250  0.4912 -0.4228 -0.4055
  633MOL0     C87263  11.741   1.295   2.343  0.3731 -0.0800  0.2788
  633MOL0     O87264  11.695   1.353   2.665  0.0589  0.6748 -0.1797
  633MOL0     C87265  11.375   1.214   2.616  0.5452  0.2212 -0.2312
  633MOL0     C87266  11.259   1.156   2.667 -0.4045  1.0668 -0.4645
  633MOL0     N87267  10.827   1.085   3.215  0.5964 -0.1189  0.2732
  633MOL0     N87268  10.708   1.107   3.264 -0.2656 -1.2966 -0.0687
  633MOL0     C87269   9.409   0.732   3.231 -0.7644  0.3741  0.5972
  633MOL0     C87270   9.270   0.743   3.216 -0.1386  0.4177  0.2542
  633MOL0     C87271   8.817   0.673   3.292 -0.6264  0.5686  0.6219
  633MOL0     C87272   8.793   0.734   3.166  0.6288  0.0360  0.0139
  633MOL0     C87273   8.669   0.732   3.104  0.9482 -0.6912  0.0881
  633MOL0     C87274   8.557   0.667   3.163 -0.0146 -0.1618  0.7548
  633MOL0     O87275   8.440   0.659   3.099  0.1186 -0.6315 -0.1846
  633MOL0     C87276   8.359   0.786   3.090 -0.0992  0.6163  0.5303
  633MOL0     C87277   8.215   0.742   3.111  1.2092  0.4018 -0.7121
  633MOL0     C87278   8.162   0.642   3.011 -0.0108  0.8399  0.4020
  633MOL0     C87279   8.014   0.621   2.989 -0.5963 -0.0025  0.6147
  633MOL0     C87280   7.956   0.573   3.111 -0.4411 -0.4071  0.3869
  633MOL0     C87281   7.894   0.520   3.204  0.5710  0.2185  0.1115
  633MOL0     C87282   8.578   0.617   3.295 -0.0862  0.3017  0.0083
  633MOL0     C87283   8.706   0.615   3.356  1.0151  0.2349  0.3700
  633MOL0     C87284   8.706   0.541   3.493  0.5183  0.1100  0.3456
  633MOL0     H87285   9.178   0.519   3.443  1.0906  0.6480  2.9432
  633MOL0     H87286   9.425   0.483   3.457 -0.9543 -0.8483  0.0690
  633MOL0     H87287   9.643   0.819   3.256  0.0211 -0.9799  1.8251
  633MOL0     H87288   9.713   0.681   3.171  0.0302  0.5441 -0.2512
  633MOL0     H87289   9.793   0.790   3.456  0.6298 -1.2494  0.2066
  633MOL0     H87290   9.837   0.637   3.390 -3.9920 -0.5057  1.0048
  633MOL0     H87291   9.964   0.742   3.212 -1.0883 -1.2870  0.7292
  633MOL0     H87292   9.893   0.894   3.216  1.5863 -0.0291 -0.7522
  633MOL0     H87293   9.991   0.968   3.411 -1.1345  0.4118 -1.6661
  633MOL0     H87294  10.053   0.807   3.461 -0.1858  0.9397  1.1141
  633MOL0     H87295  10.134   0.958   3.213  0.6304 -1.8225 -1.9595
  633MOL0     H87296  10.170   0.791   3.234 -0.4106  0.4842  1.4178
  633MOL0     H87297  10.264   1.025   3.402 -0.1623 -0.6840 -1.6132
  633MOL0     H87298  10.287   0.857   3.456 -0.3355 -2.5669 -0.7122
  633MOL0     H87299  10.369   0.955   3.177 -1.4449 -0.1296  0.0966
  633MOL0     H87300  10.422   0.811   3.254  0.4136  0.3682 -0.9082
  633MOL0     H87301  10.478   1.085   3.373 -0.8170 -0.9089 -0.1022
  633MOL0     H87302  10.538   0.944   3.438 -0.2025  2.6808  1.9601
  633MOL0     H87303  10.682   0.795   3.192  1.0065 -0.3557 -2.3269
  633MOL0     H87304  10.935   0.777   3.164 -3.5597  0.0611  0.4858
  633MOL0     H87305  11.042   0.920   3.157  0.0165 -1.8385  0.5265
  633MOL0     H87306  10.863   0.821   2.931 -0.9870  0.5214  0.6363
  633MOL0     H87307  10.913   0.989   2.943 -2.3912 -0.2564  0.9907
  633MOL0     H87308  11.128   0.760   2.937  0.0707 -1.5014 -2.5877
  633MOL0     H87309  11.074   0.846   2.792  0.8529  3.7661 -0.2033
  633MOL0     H87310  11.219   0.967   3.022  0.9994  0.6349 -1.5638
  633MOL0     H87311  11.276   0.947   2.858 -1.8962  1.2162 -5.0000
  633MOL0     H87312  11.335   1.209   2.996 -3.4422  0.9168  0.3698
  633MOL0     H87313  11.527   1.287   3.023 -0.2377 -0.4012  0.6193
  633MOL0     H87314  11.552   1.440   2.938 -2.9460 -0.1806 -2.0703
  633MOL0     H87315  11.648   1.305   2.888 -0.4507  2.2682 -4.2618
  633MOL0     H87316  11.646   1.610   2.418  2.1234  1.4625 -0.6732
  633MOL0     H87317  11.859   1.652   2.278 -0.5110  0.5129  1.0009
  633MOL0     H87318  12.101   1.301   2.156 -1.1919  0.0454  0.8683
  633MOL0     H87319  11.982   1.331   2.028  0.4743 -0.1937  0.6042
  633MOL0     H87320  12.132   1.491   1.917  0.8826 -1.0654 -0.1103
  633MOL0     H87321  12.255   1.460   2.045  1.3806 -2.8138  1.1051
  633MOL0     H87322  12.163   1.254   1.847  1.3599 -3.1234  1.2221
  633MOL0     H87323  12.282   1.237   1.972 -0.2796 -1.0549 -1.3997
  633MOL0     H87324  12.424   1.424   1.882 -2.7995  1.0277  0.3596
  633MOL0     H87325  12.321   1.462   1.760  0.7976  1.7758  2.3521
  633MOL0     H87326  12.456   1.194   1.801  1.1140 -0.6859 -1.3700
  633MOL0     H87327  12.342   1.206   1.677  2.1769 -0.9599 -0.7039
  633MOL0     H87328  12.580   1.224   1.594 -1.5027  0.8097 -4.2165
  633MOL0     H87329  12.587   1.383   1.677 -4.3210  1.1792  2.9789
  633MOL0     H87330  12.401   1.459   1.544 -2.5559 -0.9153 -0.0599
  633MOL0     H87331  12.378   1.304   1.469 -0.1840 -1.4187  1.0262
  633MOL0     H87332  12.497   1.450   1.319 -0.7793 -1.6743  0.0529
  633MOL0     H87333  12.604   1.318   1.352  2.4581 -0.3758  1.3979
  633MOL0     H87334  11.897   1.235   2.210 -0.1394 -1.3437  0.8369
  633MOL0     H87335  11.701   1.194   2.350  4.3338 -1.8670 -0.3215
  633MOL0     H87336  11.375   1.201   2.508  1.0499 -1.0589 -0.0984
  633MOL0     H87337  11.178   1.116   2.608 -2.0006 -0.2329  2.3757
  633MOL0     H87338   9.467   0.798   3.167 -1.2600 -0.3689 -0.6547
  633MOL0     H87339   9.229   0.801   3.134  2.7890  0.4502 -1.2965
  633MOL0     H87340   8.882   0.760   3.110  1.9780 -1.3675  1.3839
  633MOL0     H87341   8.672   0.777   3.005  0.7849  2.8262  1.5041
  633MOL0     H87342   8.393   0.842   3.178 -0.6589  2.9727 -0.6852
  633MOL0     H87343   8.374   0.846   3.000  0.8101  1.1838  1.0434
  633MOL0     H87344   8.164   0.837   3.091 -1.8818 -0.5724  1.7647
  633MOL0     H87345   8.181   0.714   3.211  0.0014  1.9086 -0.6587
  633MOL0     H87346   8.197   0.673   2.912 -0.8089 -2.5313 -1.0860
  633MOL0     H87347   8.211   0.548   3.040 -0.0868  0.4175 -0.7811
  633MOL0     H87348   8.001   0.551   2.906  1.7986  1.3201 -0.9777
  633MOL0     H87349   7.962   0.715   2.969 -0.9736 -0.4942 -0.7929
  633MOL0     H87350   7.841   0.475   3.285 -1.3035  0.9303 -0.6643
  633MOL0     H87351   8.487   0.576   3.336 -1.4107 -0.3708 -3.2925
  633MOL0     H87352   8.616   0.484   3.516  0.5715  0.6733  2.0390
  633MOL0     H87353   8.786   0.466   3.488 -1.2004 -1.7658 -0.0797
  633MOL0     H87354   8.720   0.618   3.569  1.8152 -3.1362  3.6931
  634MOL0     O87355   7.212   8.140   5.939 -0.6532 -0.1311 -0.1293
  634MOL0     C87356   7.286   8.104   6.029  0.2578  0.0406  0.4302
  634MOL0     O87357   7.360   8.194   6.109 -0.2055 -0.0352  0.0752
  634MOL0     C87358   7.365   8.327   6.085 -0.9270  0.6192  0.0062
  634MOL0     C87359   7.261   8.419   6.120 -0.9547  0.6580 -0.1282
  634MOL0     C87360   7.266   8.552   6.081  0.0149 -0.5845 -0.0890
  634MOL0     C87361   7.374   8.599   6.011  0.4425  0.1286 -0.7555
  634MOL0     O87362   7.388   8.737   6.000  0.0804 -0.4051 -0.5438
  634MOL0     C87363   7.463   8.800   5.892 -0.0242  0.8632 -0.4580
  634MOL0     C87364   7.580   8.879   5.954 -0.8430 -0.6497 -0.0290
  634MOL0     C87365   7.695   8.784   5.988  0.0651  0.5149 -0.6445
  634MOL0     C87366   7.816   8.857   6.036  0.4007  0.2964  0.7983
  634MOL0     C87367   7.911   8.763   6.100 -0.6320 -0.1879  0.5740
  634MOL0     C87368   8.053   8.819   6.109 -0.1964  0.1237 -0.4249
  634MOL0     C87369   8.144   8.700   6.137 -0.1577  0.6522  0.3896
  634MOL0     C87370   8.288   8.753   6.155  0.1945  0.2501  0.1379
  634MOL0     N87371   8.399   8.654   6.166 -0.2127  0.7325 -0.3018
  634MOL0     C87372   8.529   8.676   6.216 -0.4606  0.0357 -0.5530
  634MOL0     C87373   8.592   8.565   6.190  0.0695  0.5635  0.6698
  634MOL0     C87374   8.736   8.537   6.229  0.2456  0.5691  0.3778
  634MOL0     C87375   8.837   8.594   6.122  0.2734 -0.3199  0.3557
  634MOL0     C87376   8.972   8.521   6.126  0.5991  0.0448 -0.3135
  634MOL0     C87377   9.044   8.547   6.260  0.2674  0.3315  1.2505
  634MOL0     O87378   9.083   8.686   6.272 -0.8435  0.4655  0.0338
  634MOL0     C87379   9.205   8.736   6.249  0.0089  0.1108 -0.0502
  634MOL0     C87380   9.321   8.667   6.252 -0.2536  0.3178 -0.4842
  634MOL0     C87381   9.438   8.726   6.214 -0.1752  0.8564 -0.6568
  634MOL0     C87382   9.555   8.644   6.231 -0.5621  0.5638 -0.4783
  634MOL0     C87383   9.433   8.856   6.162  0.7672 -0.5455 -0.9698
  634MOL0     C87384   9.563   8.913   6.111  0.1541 -0.0945  0.0978
  634MOL0     O87385   9.646   8.975   6.201 -0.6373 -0.4683 -0.1645
  634MOL0     C87386   9.775   9.002   6.168 -0.7417 -0.2605  0.1079
  634MOL0     C87387   9.870   8.925   6.227 -0.4253 -0.2612  0.4509
  634MOL0     C87388  10.005   8.933   6.191 -0.3146  0.5832 -0.6580
  634MOL0     C87389  10.046   9.017   6.085 -0.4806 -0.2357 -0.3422
  634MOL0     O87390  10.181   9.002   6.051 -0.6321  0.0850 -0.0896
  634MOL0     C87391  10.226   9.022   5.913 -0.0154  0.0480  0.4271
  634MOL0     C87392  10.365   8.956   5.887  0.0599 -0.2479 -0.1964
  634MOL0     C87393  10.461   8.970   5.996  0.4800 -0.6636  0.1309
  634MOL0     C87394  10.590   8.895   5.954 -0.1901 -0.3197  0.2676
  634MOL0     C87395  10.714   8.928   6.040  0.9170  0.1210 -0.0933
  634MOL0     C87396  10.818   8.824   6.007 -0.5690 -0.0512 -0.5154
  634MOL0     C87397  10.953   8.862   6.089 -0.3604 -0.0136  0.3695
  634MOL0     C87398  11.069   8.768   6.055  0.2406 -0.5337  0.4823
  634MOL0    Cl87399  11.023   8.597   6.096  0.2258 -0.6163  0.2362
  634MOL0     C87400   9.949   9.101   6.020 -1.1053  0.7499  0.8381
  634MOL0     C87401   9.818   9.097   6.078 -0.1999  0.7431  0.3197
  634MOL0     O87402   9.586   8.879   5.995 -0.2793 -0.0187 -0.4424
  634MOL0     C87403   9.316   8.936   6.163 -0.6381  0.6776  0.8332
  634MOL0     C87404   9.202   8.874   6.205  0.5662 -0.2164  0.4487
  634MOL0     N87405   8.505   8.465   6.133  0.1170  0.2155  1.1832
  634MOL0     N87406   8.390   8.527   6.122 -0.0409  0.8517 -0.0472
  634MOL0     C87407   7.470   8.507   5.967  0.9998  0.0722  0.7543
  634MOL0     C87408   7.466   8.374   6.006  0.3086 -0.3155 -0.9619
  634MOL0     C87409   7.293   7.961   6.072 -0.0716 -0.1657 -0.0143
  634MOL0     C87410   7.401   7.918   6.145 -0.4836 -0.2570 -0.6454
  634MOL0     C87411   7.413   7.792   6.194 -0.4725 -0.6837  0.1861
  634MOL0     C87412   7.328   7.689   6.157 -0.5212 -0.1491  0.0561
  634MOL0     O87413   7.353   7.570   6.225  0.5312  0.4412  0.7153
  634MOL0     C87414   7.256   7.486   6.285  0.1671  0.3428  0.5452
  634MOL0     C87415   7.225   7.532   6.427 -0.1543  0.5943 -0.2330
  634MOL0     C87416   7.353   7.510   6.504 -0.2403 -0.5591  0.3231
  634MOL0     C87417   7.329   7.552   6.651  0.1235  1.1512  0.6050
  634MOL0     C87418   7.259   7.455   6.724  0.3335 -0.6895 -0.2377
  634MOL0     C87419   7.194   7.366   6.776  0.3280  0.5776 -0.5094
  634MOL0     C87420   7.224   7.724   6.070 -0.0245  0.2365  0.0634
  634MOL0     C87421   7.202   7.862   6.029  0.4230  1.1240 -0.1666
  634MOL0     C87422   7.086   7.884   5.941 -0.4797 -0.2522  0.5217
  634MOL0     H87423   7.178   8.361   6.160 -0.4903 -0.8527 -1.2642
  634MOL0     H87424   7.190   8.627   6.102 -2.0599 -1.9427 -2.1738
  634MOL0     H87425   7.402   8.868   5.832 -2.4653 -0.1298  0.7594
  634MOL0     H87426   7.509   8.727   5.824  0.1074  0.3949  0.1243
  634MOL0     H87427   7.608   8.948   5.874 -0.7783 -0.9295 -0.2470
  634MOL0     H87428   7.549   8.933   6.044  0.6405  0.6707 -0.2671
  634MOL0     H87429   7.665   8.717   6.069  0.9897  0.3262 -0.4475
  634MOL0     H87430   7.721   8.728   5.898 -0.3192  1.2505 -1.2250
  634MOL0     H87431   7.862   8.911   5.953  0.3897  1.4587  1.5253
  634MOL0     H87432   7.789   8.936   6.106 -1.3461  2.8418 -2.4296
  634MOL0     H87433   7.919   8.676   6.034  1.7419 -1.3057  2.1870
  634MOL0     H87434   7.873   8.738   6.200 -0.4027  0.0242  0.7168
  634MOL0     H87435   8.071   8.864   6.011 -1.8836 -2.7654 -2.2312
  634MOL0     H87436   8.056   8.899   6.183 -3.1192 -1.0291  1.1423
  634MOL0     H87437   8.145   8.631   6.052  1.6391  0.1559  0.7800
  634MOL0     H87438   8.119   8.629   6.217  2.3863 -1.3866 -0.5077
  634MOL0     H87439   8.315   8.816   6.069 -2.9248  0.8498 -0.5302
  634MOL0     H87440   8.295   8.813   6.246 -0.1706 -1.3174  1.2341
  634MOL0     H87441   8.572   8.762   6.267 -1.5710  2.3361 -3.2730
  634MOL0     H87442   8.750   8.429   6.241  1.2666  0.7681  1.1253
  634MOL0     H87443   8.743   8.585   6.327 -1.9413  1.7569  0.0147
  634MOL0     H87444   8.801   8.578   6.020 -0.8160  3.5917 -0.0245
  634MOL0     H87445   8.853   8.701   6.135 -0.1434  0.1091 -2.1875
  634MOL0     H87446   8.956   8.413   6.118 -1.8263  0.4539 -2.4060
  634MOL0     H87447   9.032   8.557   6.042  0.8180 -1.0998 -0.6605
  634MOL0     H87448   8.970   8.518   6.335  0.2538  0.2147  1.1930
  634MOL0     H87449   9.128   8.477   6.265  2.2473  2.5493  0.6694
  634MOL0     H87450   9.322   8.560   6.273  1.1710  0.4566  0.2607
  634MOL0     H87451   9.555   8.618   6.338 -2.3038  0.5645 -0.4492
  634MOL0     H87452   9.644   8.708   6.228 -0.0356 -0.1731 -0.9432
  634MOL0     H87453   9.564   8.549   6.178 -0.5636  0.8696 -1.0316
  634MOL0     H87454   9.843   8.864   6.312  1.7239 -0.2971  1.1610
  634MOL0     H87455  10.086   8.883   6.243  0.1380 -0.5541 -2.3787
  634MOL0     H87456  10.149   8.970   5.855  0.1293 -1.7335  1.7323
  634MOL0     H87457  10.247   9.127   5.891  2.4344 -0.6207 -0.7407
  634MOL0     H87458  10.353   8.849   5.865 -0.6755 -0.1086 -0.5044
  634MOL0     H87459  10.404   8.998   5.794 -0.3604 -4.6535 -2.6423
  634MOL0     H87460  10.423   8.934   6.092  0.0428 -2.9067 -0.8334
  634MOL0     H87461  10.483   9.077   6.005 -2.3095  0.0558 -0.5323
  634MOL0     H87462  10.613   8.926   5.851  0.1389 -1.3876  0.0044
  634MOL0     H87463  10.569   8.788   5.956  2.7005 -0.9674  1.2235
  634MOL0     H87464  10.764   9.022   6.016  4.2244 -1.5042 -0.0324
  634MOL0     H87465  10.686   8.920   6.145 -0.3870 -0.9749 -0.4796
  634MOL0     H87466  10.837   8.835   5.900  0.2771  4.8743 -0.1047
  634MOL0     H87467  10.771   8.730   6.039 -3.2939  1.2303 -0.5181
  634MOL0     H87468  10.932   8.856   6.196 -1.3667  1.0091  0.2522
  634MOL0     H87469  10.992   8.959   6.054  0.0477  0.3766  1.8485
  634MOL0     H87470  11.157   8.804   6.109 -0.4898  2.1276  0.0179
  634MOL0     H87471  11.093   8.767   5.949 -0.7098  0.3299  0.2437
  634MOL0     H87472   9.986   9.159   5.936  2.3145 -2.4658 -0.1449
  634MOL0     H87473   9.743   9.159   6.028 -2.4062 -3.1257 -1.6850
  634MOL0     H87474   9.317   9.044   6.151  1.3178  0.8165  1.8463
  634MOL0     H87475   9.111   8.932   6.217  2.1432  2.7845 -0.9031
  634MOL0     H87476   7.551   8.552   5.912 -1.3048  2.8044 -0.6858
  634MOL0     H87477   7.540   8.305   5.965  0.8189  0.0170 -0.6094
  634MOL0     H87478   7.478   7.988   6.176 -0.6010  0.4945 -1.9841
  634MOL0     H87479   7.486   7.768   6.271 -1.0337  2.5810  1.9031
  634MOL0     H87480   7.165   7.499   6.226  1.6241  0.4370 -1.7982
  634MOL0     H87481   7.291   7.383   6.274  2.6131  1.3384 -2.6607
  634MOL0     H87482   7.142   7.467   6.457 -0.0011  0.4639 -0.0866
  634MOL0     H87483   7.193   7.636   6.437  3.6404  1.8717  0.3985
  634MOL0     H87484   7.380   7.404   6.509 -1.1633 -0.8557 -0.7116
  634MOL0     H87485   7.443   7.562   6.469  0.6142 -1.1156  1.6093
  634MOL0     H87486   7.282   7.651   6.644 -0.4054  0.8662  0.0813
  634MOL0     H87487   7.421   7.564   6.709 -0.0406 -0.1883  1.1733
  634MOL0     H87488   7.135   7.290   6.824  3.0306 -1.8387 -0.6984
  634MOL0     H87489   7.160   7.645   6.035 -0.9846  0.2740  1.6538
  634MOL0     H87490   7.105   7.894   5.834 -2.0157  4.3593  0.4823
  634MOL0     H87491   7.015   7.804   5.964 -0.1470 -0.0537  2.4066
  634MOL0     H87492   7.030   7.977   5.956  2.7254  1.4628  3.0774
  635MOL0     O87493   0.781   7.938   6.892 -0.3627  1.0942  0.7019
  635MOL0     C87494   0.698   7.973   6.804 -0.8456 -0.3462  0.1957
  635MOL0     O87495   0.696   8.095   6.748  0.0661  0.3895  0.3529
  635MOL0     C87496   0.812   8.173   6.771  0.1699 -0.0321 -0.0743
  635MOL0     C87497   0.942   8.132   6.788  0.7178 -0.4156  0.3069
  635MOL0     C87498   1.037   8.227   6.813 -0.2519 -0.0766  0.0728
  635MOL0     C87499   1.008   8.369   6.809 -0.3002  0.0648 -0.1367
  635MOL0     O87500   1.112   8.457   6.823 -0.0329  0.4310  0.4464
  635MOL0     C87501   1.079   8.598   6.837  0.0250  0.7102  0.1978
  635MOL0     C87502   1.204   8.685   6.860  0.3580 -0.2462 -0.4469
  635MOL0     C87503   1.239   8.748   6.722 -0.2667 -0.0239  0.4490
  635MOL0     C87504   1.386   8.800   6.723 -0.3553  0.3561  0.4176
  635MOL0     C87505   1.429   8.838   6.583 -0.0931  0.2984  0.0949
  635MOL0     C87506   1.569   8.888   6.602 -0.4463  0.0467  1.3371
  635MOL0     C87507   1.647   8.918   6.472 -0.5488  0.8959 -0.7020
  635MOL0     C87508   1.660   8.798   6.374 -0.0625 -0.3637  0.4200
  635MOL0     N87509   1.711   8.675   6.440  0.4671 -0.6813  0.4294
  635MOL0     C87510   1.813   8.652   6.526 -0.1614 -0.7447  0.4217
  635MOL0     C87511   1.837   8.516   6.524 -0.3167  0.1393  1.0459
  635MOL0     C87512   1.931   8.426   6.599  0.4847  0.0393 -0.5302
  635MOL0     C87513   2.073   8.429   6.552  0.0541  0.2511  0.0909
  635MOL0     C87514   2.164   8.338   6.626  0.6089  0.3163 -0.4351
  635MOL0     C87515   2.316   8.351   6.611  1.2282 -0.1287 -0.0392
  635MOL0     O87516   2.360   8.481   6.648 -0.2073  0.2022  0.0169
  635MOL0     C87517   2.497   8.504   6.642  0.2319 -0.2823 -0.0087
  635MOL0     C87518   2.544   8.624   6.696 -0.0690  0.2699  0.1851
  635MOL0     C87519   2.682   8.651   6.677  0.5986  0.6771 -0.7045
  635MOL0     C87520   2.738   8.766   6.753 -0.3826 -0.4328  1.0909
  635MOL0     C87521   2.773   8.559   6.602 -0.1483 -0.4927  0.1430
  635MOL0     C87522   2.917   8.586   6.568 -0.2967 -0.3875  0.5696
  635MOL0     O87523   2.985   8.473   6.529 -0.5557 -0.0185 -0.1759
  635MOL0     C87524   3.123   8.474   6.515  0.3637 -0.3519  0.0596
  635MOL0     C87525   3.209   8.545   6.593 -0.2591 -0.3666 -0.6721
  635MOL0     C87526   3.347   8.539   6.562 -1.0448 -0.4677 -0.5754
  635MOL0     C87527   3.399   8.482   6.449  0.3009  0.7060  0.2746
  635MOL0     O87528   3.529   8.509   6.411 -1.1527  0.4507  1.2053
  635MOL0     C87529   3.565   8.464   6.271  0.3456 -0.0722 -0.0240
  635MOL0     C87530   3.705   8.516   6.237 -0.0477 -0.0884  0.3567
  635MOL0     C87531   3.823   8.476   6.333  0.1022 -0.6699 -0.5845
  635MOL0     C87532   3.858   8.328   6.336  0.6155  0.2701  0.2212
  635MOL0     C87533   3.958   8.298   6.443 -0.0373 -0.3453 -0.2326
  635MOL0     C87534   3.996   8.149   6.461  0.9062  0.6350  0.0900
  635MOL0     C87535   4.063   8.114   6.599  0.6630 -0.4897  0.2406
  635MOL0     C87536   4.139   7.984   6.607  0.5072  0.0595  0.5466
  635MOL0    Cl87537   4.269   7.979   6.485 -0.0439 -0.0470  0.3569
  635MOL0     C87538   3.308   8.407   6.371  0.2271 -0.3046 -0.0674
  635MOL0     C87539   3.171   8.408   6.399  1.0488  0.1226 -0.1357
  635MOL0     O87540   2.962   8.698   6.571  0.4585  0.3307 -0.1248
  635MOL0     C87541   2.711   8.432   6.576 -0.9554 -0.0653 -0.0537
  635MOL0     C87542   2.583   8.408   6.584 -0.1584 -0.1955  0.4347
  635MOL0     N87543   1.750   8.464   6.434  0.2507 -0.0486  0.0817
  635MOL0     N87544   1.680   8.559   6.381 -0.0873  0.0095 -0.5687
  635MOL0     C87545   0.873   8.401   6.792  0.0481 -0.5239 -0.5857
  635MOL0     C87546   0.777   8.305   6.780 -0.1538 -0.3386 -0.9085
  635MOL0     C87547   0.615   7.857   6.759 -1.3214 -0.0048 -0.9183
  635MOL0     C87548   0.521   7.894   6.669  0.1595 -0.1489  0.0432
  635MOL0     C87549   0.425   7.801   6.631 -0.2145 -0.1356  0.8452
  635MOL0     C87550   0.436   7.666   6.655  0.6034  0.4107 -0.6864
  635MOL0     O87551   0.347   7.587   6.597  0.1103  0.5570  0.3660
  635MOL0     C87552   0.308   7.461   6.639  0.0338  0.3484 -0.6780
  635MOL0     C87553   0.158   7.441   6.622 -0.5497  0.0203 -0.4757
  635MOL0     C87554   0.080   7.572   6.664 -0.8128  0.7568 -0.3543
  635MOL0     C87555  -0.072   7.547   6.653 -0.0106  0.5068 -0.4823
  635MOL0     C87556  -0.106   7.420   6.724 -0.2257  0.6085 -0.9495
  635MOL0     C87557  -0.152   7.326   6.782 -0.4389  0.2571 -0.1417
  635MOL0     C87558   0.547   7.621   6.728  0.4668  0.5185 -0.4126
  635MOL0     C87559   0.631   7.715   6.793 -0.0282  0.7997 -0.4025
  635MOL0     C87560   0.741   7.653   6.892 -0.1591  0.0398  1.0047
  635MOL0     H87561   0.970   8.027   6.789 -2.8752 -1.5916 -2.1292
  635MOL0     H87562   1.138   8.194   6.834 -1.6666 -4.6967  0.7339
  635MOL0     H87563   1.006   8.602   6.919 -1.3414 -0.0340 -0.9344
  635MOL0     H87564   1.029   8.628   6.745 -1.1391 -0.8761  0.2674
  635MOL0     H87565   1.182   8.771   6.924 -0.5565 -0.1109 -0.9173
  635MOL0     H87566   1.278   8.621   6.909 -2.0214 -2.0598  0.9828
  635MOL0     H87567   1.225   8.672   6.644  0.5784  0.1208  0.1484
  635MOL0     H87568   1.164   8.822   6.693  0.9434  1.4930  1.0361
  635MOL0     H87569   1.394   8.884   6.793  2.5126 -0.7737  1.6193
  635MOL0     H87570   1.453   8.719   6.754  1.6430  1.5825 -0.4442
  635MOL0     H87571   1.365   8.919   6.547  0.7097  1.3264  0.9222
  635MOL0     H87572   1.417   8.763   6.505  3.4597  2.2234 -2.5870
  635MOL0     H87573   1.562   8.980   6.660 -0.5483 -0.5225  2.2580
  635MOL0     H87574   1.632   8.816   6.656  0.6791  0.2335  0.3382
  635MOL0     H87575   1.746   8.950   6.506 -1.4892  1.7710  1.4287
  635MOL0     H87576   1.602   9.003   6.419 -1.6870  0.7223 -0.0518
  635MOL0     H87577   1.562   8.779   6.330  0.5876 -1.9948 -0.3791
  635MOL0     H87578   1.740   8.819   6.302  0.4742 -2.1079  0.4613
  635MOL0     H87579   1.865   8.730   6.580 -2.5990  3.3065 -2.5632
  635MOL0     H87580   1.898   8.322   6.604 -2.5212  0.9295  2.4883
  635MOL0     H87581   1.935   8.459   6.704 -1.0612  0.2514 -0.5097
  635MOL0     H87582   2.071   8.384   6.453 -0.2214  0.1016  0.1616
  635MOL0     H87583   2.106   8.533   6.545  0.0601  0.2401 -0.0408
  635MOL0     H87584   2.136   8.342   6.732  0.4476 -0.2294 -0.4527
  635MOL0     H87585   2.141   8.237   6.589  0.8317 -0.1923  0.7705
  635MOL0     H87586   2.361   8.272   6.672  0.2647  1.1465  2.4505
  635MOL0     H87587   2.329   8.339   6.503  0.5662  1.6993 -0.3543
  635MOL0     H87588   2.483   8.689   6.757 -1.1499 -1.6688  1.2892
  635MOL0     H87589   2.691   8.771   6.852 -1.3488 -0.4382  0.6442
  635MOL0     H87590   2.720   8.850   6.686  1.1130 -1.3470 -0.5545
  635MOL0     H87591   2.846   8.757   6.771  0.0612  0.1750 -0.9818
  635MOL0     H87592   3.175   8.607   6.675  1.5974  1.2191 -1.0385
  635MOL0     H87593   3.422   8.587   6.625 -3.8952  1.3232  1.7019
  635MOL0     H87594   3.562   8.356   6.254 -0.7186  0.3822 -3.5074
  635MOL0     H87595   3.498   8.511   6.199 -0.8965 -1.8312 -0.0865
  635MOL0     H87596   3.726   8.483   6.135  2.2739  1.4117  0.2756
  635MOL0     H87597   3.695   8.624   6.229 -2.5006 -0.1879  1.1405
  635MOL0     H87598   3.808   8.514   6.434  2.1690  0.1376 -0.5201
  635MOL0     H87599   3.909   8.539   6.308 -0.7348  0.8492  0.2310
  635MOL0     H87600   3.907   8.305   6.241  2.1968  1.2667  0.7550
  635MOL0     H87601   3.770   8.263   6.328  1.6280 -1.1526  0.2612
  635MOL0     H87602   4.052   8.354   6.434 -0.7419  1.6647  2.9671
  635MOL0     H87603   3.917   8.337   6.537 -1.2135 -1.1021 -0.4236
  635MOL0     H87604   4.062   8.110   6.383  0.6674 -1.7916  0.9874
  635MOL0     H87605   3.903   8.092   6.460 -0.1405  2.1988  1.7326
  635MOL0     H87606   3.986   8.115   6.677  0.1710 -1.1267 -0.2355
  635MOL0     H87607   4.126   8.196   6.636 -0.8073  0.2650  1.1539
  635MOL0     H87608   4.070   7.900   6.593 -0.6592  1.2309 -1.1195
  635MOL0     H87609   4.186   7.971   6.705  0.6019 -2.0615  0.2762
  635MOL0     H87610   3.341   8.348   6.286  0.8696 -1.3279  0.8527
  635MOL0     H87611   3.102   8.355   6.335  1.2089  0.2283 -0.3991
  635MOL0     H87612   2.772   8.354   6.531  0.8516 -0.3014  2.5846
  635MOL0     H87613   2.535   8.322   6.538 -1.5980  0.9633 -0.3205
  635MOL0     H87614   0.848   8.506   6.805  0.6699 -0.4273 -0.1550
  635MOL0     H87615   0.673   8.335   6.771 -0.4416 -0.1079  2.2101
  635MOL0     H87616   0.505   8.000   6.648 -1.2602 -0.3760 -0.1835
  635MOL0     H87617   0.346   7.841   6.569  1.5211  1.1217 -0.6822
  635MOL0     H87618   0.357   7.377   6.590 -2.7397 -1.9814  0.3119
  635MOL0     H87619   0.331   7.450   6.745 -1.7397  0.2760 -0.2819
  635MOL0     H87620   0.129   7.350   6.676 -1.8250  0.2396 -0.7716
  635MOL0     H87621   0.133   7.411   6.520 -3.5497 -1.6991  0.6174
  635MOL0     H87622   0.115   7.594   6.765 -0.7076 -1.2152  0.0805
  635MOL0     H87623   0.109   7.654   6.597 -2.7835 -0.5586 -3.0373
  635MOL0     H87624  -0.085   7.545   6.544  3.2249  1.5019 -0.9961
  635MOL0     H87625  -0.142   7.625   6.685  1.2288  1.0574  1.0707
  635MOL0     H87626  -0.186   7.245   6.842  1.4185  0.7082  1.6299
  635MOL0     H87627   0.569   7.515   6.737 -2.6408 -0.7478 -4.6342
  635MOL0     H87628   0.838   7.697   6.868 -0.1647 -0.3601  0.2044
  635MOL0     H87629   0.714   7.675   6.996 -4.3798  0.2197  0.0608
  635MOL0     H87630   0.751   7.545   6.881 -1.0866 -0.5472  4.5954
  636MOL0     O87631  10.510   0.806   6.302  0.0886 -0.5736 -0.3821
  636MOL0     C87632  10.482   0.746   6.196 -0.1453 -0.3182  0.2450
  636MOL0     O87633  10.564   0.726   6.085  0.1716  0.0669 -0.8574
  636MOL0     C87634  10.699   0.737   6.105 -0.4471  0.1058  0.5796
  636MOL0     C87635  10.770   0.843   6.043 -1.2648  0.6599 -0.4237
  636MOL0     C87636  10.904   0.853   6.057  0.0612 -0.7230 -0.2296
  636MOL0     C87637  10.971   0.757   6.130 -1.1653 -0.2324 -0.3561
  636MOL0     O87638  11.109   0.760   6.155  0.4238  0.2933  0.4405
  636MOL0     C87639  11.166   0.889   6.191  0.7419  0.3776  0.3471
  636MOL0     C87640  11.303   0.876   6.234  0.0172 -0.1746 -0.1213
  636MOL0     C87641  11.394   0.997   6.215 -0.7247 -0.6973 -0.0430
  636MOL0     C87642  11.536   0.963   6.279  0.4132  1.1843 -1.2197
  636MOL0     C87643  11.652   1.060   6.250  0.4055  0.4382 -0.7076
  636MOL0     C87644  11.775   0.987   6.293 -0.5538 -0.6901 -0.0313
  636MOL0     C87645  11.897   1.068   6.237  0.1810  0.0223 -0.1631
  636MOL0     C87646  11.934   1.194   6.309 -0.3176  0.6193  0.8751
  636MOL0     N87647  12.075   1.219   6.269  0.4946 -0.3220 -0.3032
  636MOL0     C87648  12.114   1.252   6.142 -0.2060 -0.5899  0.6714
  636MOL0     C87649  12.254   1.245   6.146  0.8493 -0.6912 -0.1816
  636MOL0     C87650  12.342   1.274   6.032  0.4124 -0.1634  0.2740
  636MOL0     C87651  12.434   1.386   6.069 -1.0864 -0.5979 -0.2367
  636MOL0     C87652  12.546   1.339   6.152 -0.7629 -0.2023  0.3484
  636MOL0     C87653  12.621   1.457   6.223 -0.6202 -1.0486 -0.4711
  636MOL0     O87654  12.676   1.542   6.122 -0.0191 -0.0354  0.0581
  636MOL0     C87655  12.806   1.534   6.086 -1.4132 -0.0834 -0.2237
  636MOL0     C87656  12.898   1.427   6.127 -0.4113  0.1918  0.5736
  636MOL0     C87657  13.031   1.412   6.083  0.2830  0.1607 -0.6380
  636MOL0     C87658  13.100   1.281   6.112 -0.4309 -0.4029 -0.2569
  636MOL0     C87659  13.090   1.524   6.014  0.0274  0.2676 -0.3861
  636MOL0     C87660  13.233   1.532   5.968 -0.2963 -0.4239 -1.1594
  636MOL0     O87661  13.265   1.628   5.877 -0.2908  0.6277  0.0243
  636MOL0     C87662  13.377   1.628   5.804 -0.0478  0.3390  0.8737
  636MOL0     C87663  13.498   1.666   5.864 -0.5915  0.3989 -0.4803
  636MOL0     C87664  13.607   1.685   5.776  1.1941  0.3350 -0.3394
  636MOL0     C87665  13.611   1.634   5.644  0.2624 -0.2091 -0.2224
  636MOL0     O87666  13.727   1.646   5.583  0.9617 -0.0500 -0.0672
  636MOL0     C87667  13.746   1.555   5.475  0.3807 -0.0127  0.3447
  636MOL0     C87668  13.887   1.560   5.440 -0.5287  0.0045 -0.0550
  636MOL0     C87669  13.963   1.512   5.573 -0.1519  0.0757 -0.3437
  636MOL0     C87670  14.111   1.498   5.544 -0.9140 -0.4295 -0.6724
  636MOL0     C87671  14.199   1.444   5.665  0.5268 -0.5430  0.1179
  636MOL0     C87672  14.345   1.431   5.608 -0.2641  0.2626 -0.0321
  636MOL0     C87673  14.437   1.356   5.702  0.2689  0.2634  0.4814
  636MOL0     C87674  14.566   1.321   5.639 -0.8436  0.1761 -0.1759
  636MOL0    Cl87675  14.544   1.215   5.499 -0.4329 -0.2322  0.6102
  636MOL0     C87676  13.496   1.575   5.593  0.4417 -0.5633 -0.5266
  636MOL0     C87677  13.375   1.576   5.672  0.1738 -0.1599  0.2079
  636MOL0     O87678  13.317   1.468   6.038  0.1059 -0.1310 -0.2344
  636MOL0     C87679  13.002   1.630   5.975  0.2097  0.9324 -0.7298
  636MOL0     C87680  12.865   1.636   6.008  0.1425 -0.0761 -0.4515
  636MOL0     N87681  12.288   1.204   6.274 -0.4162  0.0873 -0.8495
  636MOL0     N87682  12.188   1.192   6.348  0.1282 -0.4982  0.6459
  636MOL0     C87683  10.905   0.649   6.185 -0.1146 -1.1141 -0.4060
  636MOL0     C87684  10.768   0.634   6.172 -0.4749  0.1270  0.5326
  636MOL0     C87685  10.348   0.703   6.173 -0.4727  0.1477 -0.1033
  636MOL0     C87686  10.273   0.740   6.059  0.8676 -0.2344  0.1429
  636MOL0     C87687  10.133   0.718   6.057 -1.3191  0.0656  0.4494
  636MOL0     C87688  10.070   0.653   6.161  0.3762 -0.3144 -0.2266
  636MOL0     O87689   9.936   0.642   6.138  0.9957 -0.2566 -0.6844
  636MOL0     C87690   9.857   0.602   6.250 -0.6709 -0.6020 -0.5897
  636MOL0     C87691   9.824   0.736   6.321 -0.5608  0.2195 -0.4961
  636MOL0     C87692   9.712   0.818   6.257  0.8863 -0.3119  0.0352
  636MOL0     C87693   9.726   0.860   6.105 -0.4976  0.0275  0.2235
  636MOL0     C87694   9.657   0.987   6.068 -0.3744 -0.1611 -0.2984
  636MOL0     C87695   9.592   1.087   6.049 -0.1816  0.4973  0.8798
  636MOL0     C87696  10.146   0.609   6.271  0.1517 -0.6796  0.2560
  636MOL0     C87697  10.280   0.632   6.269 -0.9301  0.7484  0.0315
  636MOL0     C87698  10.357   0.550   6.377 -0.4285  0.1024  0.0334
  636MOL0     H87699  10.708   0.909   5.983 -1.0540  0.6961 -0.6002
  636MOL0     H87700  10.960   0.936   6.016  1.4126 -1.7188 -0.4796
  636MOL0     H87701  11.110   0.937   6.272  3.2557  3.0696  0.6333
  636MOL0     H87702  11.174   0.956   6.105  1.3417 -0.0268  0.0811
  636MOL0     H87703  11.301   0.840   6.337 -3.6924  0.4656  0.1409
  636MOL0     H87704  11.351   0.804   6.167 -1.1373 -0.0260 -1.1349
  636MOL0     H87705  11.406   1.028   6.111  0.3004 -2.7558 -0.5985
  636MOL0     H87706  11.341   1.074   6.272 -0.1088 -2.0593  2.5216
  636MOL0     H87707  11.516   0.948   6.385 -1.8726 -0.0922 -1.7661
  636MOL0     H87708  11.562   0.864   6.240 -0.8190  0.7684 -1.0313
  636MOL0     H87709  11.628   1.150   6.308  2.0561 -1.2447  2.9305
  636MOL0     H87710  11.656   1.083   6.144  1.2375  0.4457 -0.6816
  636MOL0     H87711  11.785   0.986   6.402 -1.3842  1.8044  0.1445
  636MOL0     H87712  11.769   0.883   6.260 -1.0975 -0.1690 -1.6300
  636MOL0     H87713  11.887   1.073   6.128 -0.0723 -1.2549 -0.2124
  636MOL0     H87714  11.982   0.999   6.234  0.3435  0.0417  2.1719
  636MOL0     H87715  11.873   1.279   6.277 -0.9413 -0.6508 -1.5268
  636MOL0     H87716  11.928   1.181   6.417  0.0467 -4.4407  0.5142
  636MOL0     H87717  12.054   1.278   6.055  0.6325  0.9251  0.5154
  636MOL0     H87718  12.279   1.316   5.953  1.5036  0.4217 -0.2918
  636MOL0     H87719  12.391   1.186   5.990  2.0314  1.1095 -0.5915
  636MOL0     H87720  12.458   1.447   5.981 -1.4288  2.7954  1.8282
  636MOL0     H87721  12.376   1.451   6.135 -1.1316 -0.3564 -0.5123
  636MOL0     H87722  12.512   1.276   6.235  0.0653  2.0207  2.5048
  636MOL0     H87723  12.614   1.292   6.080 -0.7075  0.1841  0.1461
  636MOL0     H87724  12.548   1.518   6.277  1.3952 -0.3532  1.6402
  636MOL0     H87725  12.691   1.429   6.303  0.1011 -0.3135 -0.8311
  636MOL0     H87726  12.861   1.349   6.192 -0.7895 -0.9663 -0.9746
  636MOL0     H87727  13.029   1.213   6.160 -0.7219  1.0618  1.5156
  636MOL0     H87728  13.188   1.280   6.177 -0.2117 -0.9347 -0.5561
  636MOL0     H87729  13.140   1.245   6.017  1.0088  2.2110 -0.7286
  636MOL0     H87730  13.494   1.707   5.965 -0.4124  2.7951 -1.3735
  636MOL0     H87731  13.692   1.740   5.816  0.7330  1.8419 -1.3256
  636MOL0     H87732  13.718   1.451   5.493  2.0633 -0.1589  2.5227
  636MOL0     H87733  13.685   1.591   5.391 -2.5867 -1.3887  1.7451
  636MOL0     H87734  13.900   1.490   5.357 -0.4703 -2.4083  1.8640
  636MOL0     H87735  13.923   1.659   5.412  3.0474 -1.1292  0.0554
  636MOL0     H87736  13.927   1.418   5.615 -0.1195  0.2047 -0.0245
  636MOL0     H87737  13.947   1.589   5.649  3.5460  4.4888 -3.4988
  636MOL0     H87738  14.157   1.590   5.507  1.7215 -0.2482  2.5407
  636MOL0     H87739  14.125   1.428   5.461  0.2230 -0.4254 -0.4938
  636MOL0     H87740  14.188   1.508   5.753 -1.1781 -1.2751  0.4785
  636MOL0     H87741  14.156   1.351   5.703 -2.1709  0.9394  0.8986
  636MOL0     H87742  14.388   1.529   5.585  3.1704 -1.0842  0.0444
  636MOL0     H87743  14.346   1.377   5.513 -0.7347  0.3668 -0.0962
  636MOL0     H87744  14.380   1.265   5.727 -0.1485  0.8029  1.5596
  636MOL0     H87745  14.453   1.414   5.793  0.2878 -1.3999  1.5787
  636MOL0     H87746  14.630   1.271   5.712  2.4726  2.6036 -1.1788
  636MOL0     H87747  14.628   1.409   5.621  0.0634  0.0039  1.7983
  636MOL0     H87748  13.493   1.531   5.494  1.5532  1.5952 -1.5862
  636MOL0     H87749  13.287   1.544   5.617 -0.7730 -0.0815  1.6244
  636MOL0     H87750  13.047   1.709   5.915  1.2724  1.8640  1.2085
  636MOL0     H87751  12.794   1.711   5.975 -1.0081 -0.6161  0.7022
  636MOL0     H87752  10.960   0.574   6.241 -3.2298 -2.1553  1.4608
  636MOL0     H87753  10.711   0.557   6.223  0.0789 -1.3216 -0.9452
  636MOL0     H87754  10.328   0.790   5.980 -0.5474 -0.2561 -0.8972
  636MOL0     H87755  10.080   0.732   5.963 -0.8824  2.0019  0.4496
  636MOL0     H87756   9.766   0.560   6.206 -0.6576  0.6188 -1.8772
  636MOL0     H87757   9.909   0.530   6.314  1.9994 -0.5953 -2.5797
  636MOL0     H87758   9.913   0.797   6.339 -0.7350  0.5088 -0.6169
  636MOL0     H87759   9.785   0.719   6.422  3.5869  1.6966  1.5920
  636MOL0     H87760   9.615   0.768   6.267  0.5913  0.2935  0.2205
  636MOL0     H87761   9.697   0.903   6.324 -2.4265 -2.1664  1.9552
  636MOL0     H87762   9.679   0.782   6.044 -0.0146  0.2915 -0.5007
  636MOL0     H87763   9.830   0.868   6.072 -0.6566 -1.0767 -0.6034
  636MOL0     H87764   9.547   1.180   6.021 -1.5955 -0.1745  0.8582
  636MOL0     H87765  10.103   0.550   6.352 -1.1165 -2.6464 -1.7346
  636MOL0     H87766  10.394   0.600   6.467 -0.1978  1.5412 -0.8214
  636MOL0     H87767  10.282   0.480   6.413 -0.8426  0.4639 -0.1200
  636MOL0     H87768  10.438   0.492   6.331  1.2713  0.0128  2.9341
  637MOL0     O87769   7.858  10.548   5.294  0.0771  0.1450 -0.0817
  637MOL0     C87770   7.851  10.578   5.410  0.3289  0.2946 -0.7675
  637MOL0     O87771   7.953  10.559   5.502  0.2826 -0.6797  0.3507
  637MOL0     C87772   8.069  10.531   5.450 -0.6485  0.1468  0.5151
  637MOL0     C87773   8.136  10.635   5.378 -0.9032  1.1861  0.2301
  637MOL0     C87774   8.263  10.625   5.340  0.1184  0.7756 -0.2470
  637MOL0     C87775   8.343  10.504   5.351 -0.4532 -1.3384 -0.0304
  637MOL0     O87776   8.472  10.496   5.310  0.4125  0.3056 -0.1284
  637MOL0     C87777   8.523  10.584   5.203 -0.4409  0.5638  0.7622
  637MOL0     C87778   8.651  10.515   5.148 -0.4544  0.5414  1.1956
  637MOL0     C87779   8.773  10.541   5.239  0.9388 -0.6894 -0.2908
  637MOL0     C87780   8.897  10.492   5.171 -0.4447 -0.0826  0.5078
  637MOL0     C87781   9.022  10.501   5.263 -0.5004  0.3292 -0.2644
  637MOL0     C87782   9.003  10.416   5.392 -0.0342 -1.4061  0.2400
  637MOL0     C87783   9.138  10.409   5.464 -0.7687 -0.1802 -0.9749
  637MOL0     C87784   9.192  10.531   5.530  0.1173  0.0162 -0.7953
  637MOL0     N87785   9.109  10.606   5.616 -0.6951  0.4395 -0.0225
  637MOL0     C87786   9.027  10.706   5.583 -0.3646 -0.6374  1.0441
  637MOL0     C87787   8.957  10.733   5.695 -0.6721 -0.8983 -0.7986
  637MOL0     C87788   8.840  10.827   5.688  0.4177 -0.0807  0.2874
  637MOL0     C87789   8.703  10.761   5.712  0.0615  0.9503  0.6347
  637MOL0     C87790   8.670  10.640   5.621 -0.7538  0.4739  0.4735
  637MOL0     C87791   8.531  10.587   5.632  0.8366  0.4955 -0.0642
  637MOL0     O87792   8.516  10.531   5.762 -0.2923 -0.0969  0.3502
  637MOL0     C87793   8.388  10.492   5.800 -0.2333  0.9965  0.0681
  637MOL0     C87794   8.378  10.409   5.913 -0.8979 -0.2888 -0.9254
  637MOL0     C87795   8.259  10.359   5.962  0.5108  0.7135 -0.7286
  637MOL0     C87796   8.260  10.257   6.079  0.2970  0.2659  0.1473
  637MOL0     C87797   8.140  10.390   5.892  0.1339 -0.0885  0.1260
  637MOL0     C87798   8.000  10.345   5.918  0.1747  0.0829 -0.7246
  637MOL0     O87799   7.908  10.364   5.822 -0.5915 -0.9805 -0.0946
  637MOL0     C87800   7.774  10.350   5.844 -0.5372  0.5795  0.6341
  637MOL0     C87801   7.681  10.453   5.795 -0.0265 -1.1353  0.2036
  637MOL0     C87802   7.546  10.442   5.809 -0.7646  0.2952  0.5064
  637MOL0     C87803   7.493  10.316   5.840  1.2992 -0.3805  0.2986
  637MOL0     O87804   7.357  10.290   5.838 -0.0354 -0.1313 -0.2201
  637MOL0     C87805   7.282  10.346   5.715  0.3155  0.2749  0.7204
  637MOL0     C87806   7.194  10.234   5.643  0.2186 -0.2585 -0.3419
  637MOL0     C87807   7.097  10.275   5.543  1.0027 -0.2491 -0.0429
  637MOL0     C87808   6.965  10.195   5.550  0.4283 -0.1641 -0.8159
  637MOL0     C87809   6.977  10.037   5.520 -0.5264 -1.1623  0.6177
  637MOL0     C87810   6.849   9.963   5.526  0.2525  0.9926 -0.8022
  637MOL0     C87811   6.723  10.029   5.483 -0.0206  0.9488  0.3613
  637MOL0     C87812   6.599   9.964   5.547  0.6344  0.0220 -0.1523
  637MOL0    Cl87813   6.445  10.045   5.508 -0.2221 -0.3342  0.0607
  637MOL0     C87814   7.581  10.220   5.887 -0.9847  1.3250  1.7026
  637MOL0     C87815   7.721  10.236   5.893  1.2250 -0.1225  0.4016
  637MOL0     O87816   7.978  10.298   6.031 -0.2252  0.2351 -0.3120
  637MOL0     C87817   8.150  10.485   5.790  0.3982 -0.6569 -0.0107
  637MOL0     C87818   8.268  10.534   5.747 -0.1452 -0.8766  0.2742
  637MOL0     N87819   8.995  10.649   5.794 -0.5637 -0.1793  0.5959
  637MOL0     N87820   9.087  10.572   5.746  0.3040 -0.3713 -0.0703
  637MOL0     C87821   8.274  10.396   5.422  0.2570 -0.2181  0.5041
  637MOL0     C87822   8.145  10.408   5.464  0.1626 -0.9970 -0.1801
  637MOL0     C87823   7.721  10.629   5.455  0.5117  1.3811  0.2281
  637MOL0     C87824   7.594  10.577   5.399 -0.5108 -0.3482  0.4974
  637MOL0     C87825   7.471  10.608   5.457  0.3966 -0.2106  0.2914
  637MOL0     C87826   7.464  10.691   5.569  0.0417  0.6370 -0.4934
  637MOL0     O87827   7.342  10.711   5.630  0.8529 -0.2487  0.4760
  637MOL0     C87828   7.320  10.814   5.725 -0.3734  0.2631 -0.1301
  637MOL0     C87829   7.180  10.803   5.774 -0.1027 -0.3446 -0.2228
  637MOL0     C87830   7.076  10.815   5.660 -0.4013 -0.2738  0.6487
  637MOL0     C87831   6.933  10.793   5.709 -0.0762 -0.1184  0.2701
  637MOL0     C87832   6.902  10.657   5.742  0.0796 -0.7074  0.4142
  637MOL0     C87833   6.867  10.550   5.767  0.1001  0.4030  0.5232
  637MOL0     C87834   7.586  10.745   5.616 -0.2241  0.2283  0.3655
  637MOL0     C87835   7.708  10.721   5.562  0.7923  0.3470 -0.9161
  637MOL0     C87836   7.824  10.796   5.619 -1.0199 -0.9231 -0.2027
  637MOL0     H87837   8.080  10.726   5.364 -2.4718  0.5002  1.7199
  637MOL0     H87838   8.316  10.713   5.304  3.0800 -1.2925 -1.3576
  637MOL0     H87839   8.552  10.682   5.241 -1.1009  0.2851  2.0627
  637MOL0     H87840   8.451  10.578   5.121 -0.0358 -3.3287  0.5154
  637MOL0     H87841   8.643  10.406   5.151  0.2806  0.4843  1.2657
  637MOL0     H87842   8.672  10.557   5.049  0.9205 -1.1549  0.7223
  637MOL0     H87843   8.780  10.650   5.249 -4.0263 -0.1588  0.2451
  637MOL0     H87844   8.747  10.498   5.336 -0.7310  1.6208  0.3715
  637MOL0     H87845   8.882  10.387   5.144 -1.3236 -0.0665  0.8942
  637MOL0     H87846   8.919  10.547   5.079 -2.4492  0.8214  0.5099
  637MOL0     H87847   9.053  10.603   5.287 -0.5121 -0.1258  1.9946
  637MOL0     H87848   9.107  10.460   5.208 -0.7116 -0.1008 -0.2759
  637MOL0     H87849   8.928  10.458   5.460 -0.4162 -0.6760 -0.6210
  637MOL0     H87850   8.969  10.316   5.363  0.0551 -1.0060 -1.2999
  637MOL0     H87851   9.215  10.370   5.398  1.5282 -0.1516  1.5025
  637MOL0     H87852   9.133  10.327   5.537 -1.6599 -0.6166 -1.5130
  637MOL0     H87853   9.275  10.502   5.596  0.0588  0.4089 -0.5399
  637MOL0     H87854   9.220  10.600   5.450  1.8045 -0.9385 -1.0613
  637MOL0     H87855   9.002  10.742   5.484 -0.0057 -0.1446  1.1249
  637MOL0     H87856   8.831  10.868   5.587  0.3652 -1.4069 -0.2683
  637MOL0     H87857   8.857  10.912   5.754 -0.5994  0.3803 -0.0171
  637MOL0     H87858   8.697  10.727   5.815 -1.8401 -0.2290  0.1765
  637MOL0     H87859   8.631  10.843   5.706 -0.8382  0.1510  0.1826
  637MOL0     H87860   8.690  10.658   5.515 -4.1798  0.2898 -0.3247
  637MOL0     H87861   8.744  10.563   5.645  0.5851  1.5019 -0.2093
  637MOL0     H87862   8.455  10.664   5.616  0.1974 -0.1298 -0.0956
  637MOL0     H87863   8.513  10.509   5.558 -2.7248 -0.0314  1.1974
  637MOL0     H87864   8.475  10.384   5.956  0.0916  0.3188 -2.6857
  637MOL0     H87865   8.354  10.201   6.089 -1.1168 -2.0398  1.3142
  637MOL0     H87866   8.186  10.181   6.053 -0.6356  1.6664 -1.5201
  637MOL0     H87867   8.244  10.306   6.176  0.3282  1.1234 -0.2732
  637MOL0     H87868   7.707  10.548   5.749  1.0125 -2.3609 -1.8938
  637MOL0     H87869   7.491  10.530   5.775  1.2295  0.2604 -3.2848
  637MOL0     H87870   7.211  10.423   5.746 -0.7433  0.3764 -1.7099
  637MOL0     H87871   7.352  10.382   5.639 -1.9385  0.3697 -1.4237
  637MOL0     H87872   7.265  10.160   5.604 -1.1414 -1.4659 -0.6119
  637MOL0     H87873   7.140  10.195   5.730  0.0942  1.0017  0.1546
  637MOL0     H87874   7.143  10.242   5.449  0.6059 -1.8134  0.2749
  637MOL0     H87875   7.079  10.383   5.535 -1.3858 -0.6869 -1.9776
  637MOL0     H87876   6.898  10.249   5.482  2.0757  0.0552 -2.3280
  637MOL0     H87877   6.932  10.211   5.653  4.1731  0.9647  0.3768
  637MOL0     H87878   7.017  10.033   5.418  1.0669 -3.2264  1.2487
  637MOL0     H87879   7.041   9.987   5.593 -1.3809 -1.6463  1.0381
  637MOL0     H87880   6.834   9.928   5.629  1.1470  0.2660 -0.9005
  637MOL0     H87881   6.864   9.869   5.472  1.4454  0.3296  0.6062
  637MOL0     H87882   6.711  10.019   5.374  0.2333 -2.1127  0.5263
  637MOL0     H87883   6.720  10.132   5.519 -0.0181  0.2610  2.4454
  637MOL0     H87884   6.606   9.961   5.656  0.3887 -1.7249 -0.1465
  637MOL0     H87885   6.586   9.858   5.523 -0.3894  0.2457 -0.6314
  637MOL0     H87886   7.546  10.121   5.915 -1.8906  1.6420  1.7250
  637MOL0     H87887   7.788  10.164   5.938  0.4100 -0.3785  1.2425
  637MOL0     H87888   8.069  10.520   5.727  1.0181  0.3807 -0.2434
  637MOL0     H87889   8.265  10.603   5.663 -1.5277 -1.1249  0.0872
  637MOL0     H87890   8.325  10.302   5.438  1.4565  0.2178 -0.5492
  637MOL0     H87891   8.096  10.330   5.522 -3.9447  1.6134  0.3152
  637MOL0     H87892   7.597  10.508   5.315  3.0795 -2.6700  2.2356
  637MOL0     H87893   7.374  10.585   5.414 -0.1637  0.7744  0.9803
  637MOL0     H87894   7.385  10.805   5.813  1.7837  1.5149 -1.5174
  637MOL0     H87895   7.338  10.905   5.668  1.7228  0.3224  0.5370
  637MOL0     H87896   7.161  10.878   5.851  3.0231  1.1437 -0.7788
  637MOL0     H87897   7.167  10.707   5.824  0.7246  0.1830  1.0385
  637MOL0     H87898   7.072  10.917   5.622 -5.3048  0.0903  1.5458
  637MOL0     H87899   7.109  10.746   5.582  2.6178 -1.7333  2.9776
  637MOL0     H87900   6.880  10.820   5.617  0.7470 -0.5283 -0.3410
  637MOL0     H87901   6.917  10.851   5.801 -0.8316 -3.2183  2.2384
  637MOL0     H87902   6.840  10.450   5.791  0.4978  0.4041  0.9993
  637MOL0     H87903   7.591  10.816   5.698 -0.6781 -0.3406  0.8972
  637MOL0     H87904   7.896  10.823   5.541  1.1073  2.0398  2.5752
  637MOL0     H87905   7.795  10.892   5.661  1.9539  0.7714 -1.6910
  637MOL0     H87906   7.873  10.744   5.702 -2.0842 -0.0519  1.0092
  638MOL0     O87907   0.556   8.707   3.175  0.0859 -0.1614 -1.0122
  638MOL0     C87908   0.555   8.820   3.121  0.7763  0.6795 -0.1586
  638MOL0     O87909   0.545   8.841   2.988  0.7152 -0.8620  0.4582
  638MOL0     C87910   0.601   8.756   2.895  0.4812 -0.1269  0.0112
  638MOL0     C87911   0.522   8.691   2.806 -0.0060  0.1191  0.3620
  638MOL0     C87912   0.583   8.612   2.708  1.3894  1.1285 -0.0202
  638MOL0     C87913   0.720   8.593   2.710  0.6993 -0.3400  0.1725
  638MOL0     O87914   0.770   8.503   2.623  0.7279  0.2536 -0.0805
  638MOL0     C87915   0.868   8.546   2.531  0.1772 -0.8556  0.5601
  638MOL0     C87916   0.870   8.453   2.411  0.2241  0.0064  0.2565
  638MOL0     C87917   0.982   8.500   2.319 -0.2795 -0.3198  1.3039
  638MOL0     C87918   1.033   8.389   2.231  0.2531 -0.3633  0.1224
  638MOL0     C87919   1.116   8.447   2.116  0.2290 -0.1329  0.0766
  638MOL0     C87920   1.128   8.357   1.997  0.6221  0.3769  0.3630
  638MOL0     C87921   1.224   8.413   1.885  0.2448 -0.0490  0.3872
  638MOL0     C87922   1.367   8.360   1.905 -0.5195  0.6958  0.0830
  638MOL0     N87923   1.461   8.409   1.807  0.0617 -0.0055  0.4562
  638MOL0     C87924   1.545   8.518   1.822  0.0130  0.3661 -0.0106
  638MOL0     C87925   1.651   8.488   1.737  0.3323 -1.2077 -0.3056
  638MOL0     C87926   1.766   8.582   1.724  0.7187 -0.0634  1.1903
  638MOL0     C87927   1.897   8.548   1.788 -0.8042  1.3807  0.5524
  638MOL0     C87928   1.874   8.467   1.915 -0.3242  1.5785  0.1962
  638MOL0     C87929   2.013   8.447   1.991 -0.1234 -0.0204 -0.0680
  638MOL0     O87930   2.124   8.401   1.910  0.3068 -0.5314 -0.7330
  638MOL0     C87931   2.247   8.430   1.968  0.3249  0.7353 -0.5287
  638MOL0     C87932   2.297   8.344   2.066 -0.3220 -0.3753  0.0146
  638MOL0     C87933   2.422   8.362   2.129 -0.1049 -0.7767 -0.0130
  638MOL0     C87934   2.474   8.244   2.213  0.1150 -0.2525 -0.0552
  638MOL0     C87935   2.494   8.472   2.091 -0.3552 -0.0395 -0.4027
  638MOL0     C87936   2.638   8.482   2.121 -0.2221 -0.5621  0.8177
  638MOL0     O87937   2.714   8.573   2.048 -0.8775 -0.1834  0.4019
  638MOL0     C87938   2.851   8.597   2.054 -0.6713 -0.5107  0.0144
  638MOL0     C87939   2.955   8.526   2.124  0.2842 -0.3768  0.2011
  638MOL0     C87940   3.088   8.570   2.123 -0.3784  0.2692 -0.3233
  638MOL0     C87941   3.121   8.677   2.039  0.0835 -0.1640  0.0078
  638MOL0     O87942   3.258   8.699   2.040 -0.1618 -0.1227  0.2137
  638MOL0     C87943   3.304   8.708   1.903  0.7651  0.6115 -0.1866
  638MOL0     C87944   3.462   8.709   1.888  0.1284  0.3757 -0.3972
  638MOL0     C87945   3.507   8.848   1.936 -0.0002 -0.9047  0.0037
  638MOL0     C87946   3.660   8.868   1.902  0.7581 -0.4116 -0.1319
  638MOL0     C87947   3.713   8.981   1.987 -0.1976 -0.8582 -0.1014
  638MOL0     C87948   3.863   9.019   1.965 -0.1081 -0.4725  0.3570
  638MOL0     C87949   3.898   9.134   2.059 -0.4770  0.3200 -0.0440
  638MOL0     C87950   4.021   9.208   2.004  0.3602 -0.0874 -0.7677
  638MOL0    Cl87951   4.174   9.129   2.002  0.0579  0.1480 -0.1595
  638MOL0     C87952   3.018   8.757   1.966 -0.0710  0.7050  0.0269
  638MOL0     C87953   2.886   8.716   1.988  0.2260 -0.1136  0.7511
  638MOL0     O87954   2.686   8.419   2.210 -0.3599  0.5536  0.0161
  638MOL0     C87955   2.441   8.571   2.001 -0.3996  0.4570  0.7972
  638MOL0     C87956   2.321   8.547   1.939 -0.2661  0.1814  0.6549
  638MOL0     N87957   1.643   8.369   1.681  0.3539  0.8967  0.3299
  638MOL0     N87958   1.523   8.324   1.716  0.2128 -0.9705  0.8846
  638MOL0     C87959   0.797   8.670   2.802 -0.0209  0.0943  0.4779
  638MOL0     C87960   0.735   8.749   2.894  0.2906  0.5057  0.4013
  638MOL0     C87961   0.507   8.929   3.210 -0.7143  0.3448  0.5361
  638MOL0     C87962   0.384   8.986   3.172  0.0736  0.4946  0.1162
  638MOL0     C87963   0.319   9.071   3.259 -0.5278  0.0463 -1.2090
  638MOL0     C87964   0.378   9.106   3.385 -0.1214  0.7461 -0.4078
  638MOL0     O87965   0.315   9.201   3.461  0.1049  0.4832 -0.3110
  638MOL0     C87966   0.315   9.168   3.600 -0.0012 -0.4310  0.0899
  638MOL0     C87967   0.192   9.077   3.631 -0.7750 -0.8594  0.6133
  638MOL0     C87968   0.168   9.070   3.784 -0.3363 -0.6539  0.0084
  638MOL0     C87969   0.108   9.190   3.851  0.5105  0.2006  0.3335
  638MOL0     C87970   0.093   9.194   3.995  0.3778  0.1054 -0.6363
  638MOL0     C87971   0.079   9.174   4.115 -0.1211  0.2867 -0.1973
  638MOL0     C87972   0.497   9.044   3.419  0.1103  0.0074 -1.0330
  638MOL0     C87973   0.564   8.959   3.330  0.4720  0.1968 -1.2975
  638MOL0     C87974   0.699   8.910   3.370  0.9616  0.1758 -0.3012
  638MOL0     H87975   0.415   8.708   2.795  0.1351  2.9724  2.1689
  638MOL0     H87976   0.530   8.554   2.633 -2.1215  2.9361  0.8774
  638MOL0     H87977   0.962   8.554   2.587 -1.0443  1.6531  2.4594
  638MOL0     H87978   0.846   8.645   2.490 -0.7690 -2.4950 -3.3313
  638MOL0     H87979   0.879   8.352   2.453 -1.9525  0.8138  2.9563
  638MOL0     H87980   0.769   8.459   2.368  0.5366 -1.3063 -0.7409
  638MOL0     H87981   0.939   8.579   2.258 -2.2229 -1.4622  1.1190
  638MOL0     H87982   1.066   8.539   2.378  0.1102  0.3184  0.3495
  638MOL0     H87983   1.080   8.316   2.298 -0.9631 -0.4390  0.9272
  638MOL0     H87984   0.946   8.338   2.189 -0.2669 -0.2707  1.0651
  638MOL0     H87985   1.219   8.462   2.151  0.5264 -2.9084  0.6229
  638MOL0     H87986   1.070   8.543   2.092 -1.8564 -1.1303 -0.0891
  638MOL0     H87987   1.153   8.253   2.015 -1.5602 -0.3365 -0.3537
  638MOL0     H87988   1.030   8.353   1.948  0.8002  0.3203  0.0056
  638MOL0     H87989   1.237   8.521   1.885  1.4301 -0.1289  2.4408
  638MOL0     H87990   1.184   8.388   1.786 -0.2260 -0.3143  0.6392
  638MOL0     H87991   1.404   8.383   2.006 -0.3552 -1.9425  0.6941
  638MOL0     H87992   1.367   8.251   1.892  0.6051  0.5850  0.8445
  638MOL0     H87993   1.537   8.612   1.875 -0.9760  1.5416 -2.1153
  638MOL0     H87994   1.728   8.680   1.753  1.6183  2.5570 -4.9881
  638MOL0     H87995   1.781   8.591   1.616 -1.5090 -1.8598  0.6529
  638MOL0     H87996   1.961   8.488   1.723 -1.4791 -0.6689  1.6888
  638MOL0     H87997   1.967   8.630   1.810  2.8094 -0.5729 -2.4936
  638MOL0     H87998   1.797   8.502   1.985 -2.2081 -1.1436 -0.3232
  638MOL0     H87999   1.831   8.370   1.887 -1.3961  1.8473  0.8381
  638MOL0     H88000   2.027   8.543   2.042 -0.3070  0.7642 -1.4500
  638MOL0     H88001   1.996   8.377   2.073 -0.8218 -0.2985 -0.4472
  638MOL0     H88002   2.236   8.257   2.091 -0.1746 -0.0771  1.5249
  638MOL0     H88003   2.538   8.183   2.149  2.5546  2.4545 -0.3905
  638MOL0     H88004   2.391   8.186   2.255  0.5380 -2.0549 -1.5717
  638MOL0     H88005   2.534   8.261   2.303  1.1022 -1.4947 -0.4470
  638MOL0     H88006   2.931   8.441   2.187  2.1008 -0.4393  0.8793
  638MOL0     H88007   3.166   8.513   2.173 -0.7528 -0.5926 -0.6930
  638MOL0     H88008   3.264   8.617   1.857  0.6196  0.1177  0.8865
  638MOL0     H88009   3.273   8.800   1.853 -1.0213 -0.0592 -0.3995
  638MOL0     H88010   3.505   8.635   1.956 -1.8670 -0.1770  0.3579
  638MOL0     H88011   3.487   8.683   1.785 -0.6215 -3.4563  0.2527
  638MOL0     H88012   3.505   8.849   2.046 -1.4232 -0.3590 -0.0046
  638MOL0     H88013   3.441   8.925   1.895 -0.3667 -1.4043 -0.3577
  638MOL0     H88014   3.677   8.880   1.794 -0.3923  1.5416 -0.1550
  638MOL0     H88015   3.715   8.782   1.941 -1.2480 -1.3390  0.7943
  638MOL0     H88016   3.644   9.064   1.975 -2.1577 -2.4248 -0.1342
  638MOL0     H88017   3.698   8.946   2.090 -1.3316 -1.0431 -0.3181
  638MOL0     H88018   3.871   9.036   1.858 -5.0267  0.6896 -0.0639
  638MOL0     H88019   3.922   8.928   1.981  1.3561 -0.4200 -3.6961
  638MOL0     H88020   3.928   9.084   2.152 -1.0433  1.4149  0.7498
  638MOL0     H88021   3.811   9.198   2.075 -0.0763  1.2027 -1.2924
  638MOL0     H88022   4.035   9.302   2.058  0.4822 -0.9688  0.7693
  638MOL0     H88023   4.002   9.231   1.898  1.6859  0.1966 -0.9582
  638MOL0     H88024   3.040   8.850   1.914 -1.0171  0.8124 -0.2026
  638MOL0     H88025   2.816   8.768   1.923  0.3327 -1.0529 -0.1402
  638MOL0     H88026   2.510   8.647   1.966  1.3613 -1.1394  0.6398
  638MOL0     H88027   2.289   8.616   1.861  1.0282  2.3539  1.9569
  638MOL0     H88028   0.903   8.668   2.780  0.4116  5.9612  0.6005
  638MOL0     H88029   0.788   8.818   2.958  0.5895  1.2023 -0.5758
  638MOL0     H88030   0.337   8.971   3.076  0.1930 -0.3125  0.1800
  638MOL0     H88031   0.225   9.124   3.245  1.0421  5.1549  3.9294
  638MOL0     H88032   0.402   9.118   3.641 -0.1588  0.4365  1.5558
  638MOL0     H88033   0.306   9.262   3.656 -3.1226  0.8571 -2.2082
  638MOL0     H88034   0.229   8.982   3.592 -0.7250 -0.7352  0.3589
  638MOL0     H88035   0.100   9.113   3.585  0.2223 -0.3828 -1.0719
  638MOL0     H88036   0.107   8.988   3.823 -1.0045  1.4696  3.9547
  638MOL0     H88037   0.268   9.053   3.822  0.8487  0.0271 -2.5715
  638MOL0     H88038   0.009   9.205   3.807  0.5387  0.6284  0.4116
  638MOL0     H88039   0.161   9.283   3.826  1.8207 -0.1141  1.7818
  638MOL0     H88040   0.085   9.156   4.220  1.8811  0.5706 -0.2199
  638MOL0     H88041   0.547   9.073   3.510 -2.3547 -0.7462  0.6550
  638MOL0     H88042   0.749   8.972   3.445  0.9798  0.7112 -0.7504
  638MOL0     H88043   0.689   8.806   3.404 -0.9593 -0.1578 -1.7160
  638MOL0     H88044   0.766   8.906   3.284  3.1424 -1.3040  1.3464
  639MOL0     O88045   2.855   2.704   2.575  0.0241 -0.1923 -0.2321
  639MOL0     C88046   2.847   2.639   2.470  0.4605  0.2681 -0.2618
  639MOL0     O88047   2.951   2.599   2.394 -0.4084 -1.0420 -0.1882
  639MOL0     C88048   3.087   2.622   2.428 -0.3315 -0.5334  0.3903
  639MOL0     C88049   3.138   2.713   2.518 -0.0135  0.0487  0.7644
  639MOL0     C88050   3.281   2.721   2.538 -0.3444  0.3156  0.1706
  639MOL0     C88051   3.367   2.631   2.477  0.6467  0.3743  0.3357
  639MOL0     O88052   3.496   2.641   2.511  0.3985  0.3532 -0.2853
  639MOL0     C88053   3.594   2.552   2.466 -0.7467 -0.4581 -0.0423
  639MOL0     C88054   3.730   2.581   2.532 -0.1548 -0.1906  0.4608
  639MOL0     C88055   3.843   2.614   2.430  0.3318  0.0000  0.0023
  639MOL0     C88056   3.969   2.662   2.490 -0.0864 -0.7900 -0.4450
  639MOL0     C88057   4.080   2.700   2.390  0.2368 -0.0638  0.9846
  639MOL0     C88058   4.213   2.718   2.463  0.7582  0.7237 -0.6250
  639MOL0     C88059   4.332   2.697   2.361 -0.1351 -0.1135 -0.2338
  639MOL0     C88060   4.335   2.819   2.270 -0.8539 -0.6945  0.2873
  639MOL0     N88061   4.479   2.838   2.219 -0.0587 -0.0368  0.4532
  639MOL0     C88062   4.549   2.741   2.158  0.2053  0.0428  0.5783
  639MOL0     C88063   4.671   2.793   2.153  1.1425  0.7527 -0.2237
  639MOL0     C88064   4.787   2.709   2.111  1.0444 -0.7138 -0.9946
  639MOL0     C88065   4.835   2.762   1.971  0.7555 -0.0694 -0.3780
  639MOL0     C88066   4.956   2.707   1.903 -0.4485  0.8159  0.1885
  639MOL0     C88067   5.091   2.738   1.976 -0.3016  0.8545  0.1836
  639MOL0     O88068   5.094   2.878   1.955 -0.5893  0.8113 -0.0371
  639MOL0     C88069   5.214   2.945   1.954 -0.1224  0.2653 -0.1655
  639MOL0     C88070   5.270   2.962   2.084  0.4727 -0.4994 -0.0778
  639MOL0     C88071   5.392   3.024   2.114 -0.7017  0.2417 -0.2087
  639MOL0     C88072   5.450   3.018   2.256 -0.1260  0.3848 -0.0447
  639MOL0     C88073   5.456   3.092   2.000 -0.5263  0.2885 -0.0290
  639MOL0     C88074   5.586   3.167   2.007 -0.0620 -0.6573  1.0755
  639MOL0     O88075   5.659   3.143   2.115 -0.2221 -0.0202 -0.2419
  639MOL0     C88076   5.774   3.212   2.137 -0.1608 -0.1571  0.2735
  639MOL0     C88077   5.873   3.231   2.044  0.0105  0.2752  0.3588
  639MOL0     C88078   5.993   3.293   2.070 -0.0605  0.4942 -0.0294
  639MOL0     C88079   6.006   3.351   2.197 -0.1938  1.2475 -0.3370
  639MOL0     O88080   6.128   3.407   2.226  0.8929  0.5999  0.1505
  639MOL0     C88081   6.205   3.341   2.327 -0.7016  0.7782 -1.4609
  639MOL0     C88082   6.329   3.421   2.342  0.1194  0.0309  0.1413
  639MOL0     C88083   6.437   3.416   2.232  0.6721 -0.0251  0.7202
  639MOL0     C88084   6.536   3.300   2.229 -1.3818  0.6503 -0.4500
  639MOL0     C88085   6.643   3.315   2.118 -0.5668  0.6831 -0.3670
  639MOL0     C88086   6.758   3.208   2.135  1.0098 -0.5991 -0.5965
  639MOL0     C88087   6.870   3.216   2.036  0.0851 -0.2317  0.2244
  639MOL0     C88088   7.010   3.218   2.109  0.4765  0.7386 -0.3488
  639MOL0    Cl88089   7.031   3.364   2.207  0.2844  0.0471 -0.3180
  639MOL0     C88090   5.902   3.341   2.292 -0.9761  0.5737  0.5885
  639MOL0     C88091   5.791   3.262   2.270  0.2716  0.6159 -0.1488
  639MOL0     O88092   5.603   3.251   1.926  0.7884 -0.6115 -0.4589
  639MOL0     C88093   5.397   3.088   1.872  0.2149 -0.0381  0.9175
  639MOL0     C88094   5.281   3.009   1.852 -0.6015 -0.4689  0.3069
  639MOL0     N88095   4.674   2.921   2.205  0.5325 -0.0817  0.3257
  639MOL0     N88096   4.557   2.946   2.247  0.0228 -0.3331  0.1793
  639MOL0     C88097   3.308   2.538   2.388  0.0243  0.7251  0.2857
  639MOL0     C88098   3.170   2.540   2.363 -0.2850  0.9357 -0.4935
  639MOL0     C88099   2.710   2.587   2.447 -0.2552  0.5500 -0.6644
  639MOL0     C88100   2.609   2.624   2.538 -0.3926  0.3791  0.5665
  639MOL0     C88101   2.477   2.585   2.517 -0.0351  0.2295 -0.9912
  639MOL0     C88102   2.447   2.492   2.417 -0.1749 -1.2734 -0.4457
  639MOL0     O88103   2.319   2.446   2.389 -0.2969 -0.8606  0.4061
  639MOL0     C88104   2.232   2.452   2.498 -0.6575  0.7549  0.4410
  639MOL0     C88105   2.113   2.360   2.472  0.4513 -0.0230 -0.1470
  639MOL0     C88106   2.023   2.426   2.364  0.1761  1.1985  1.0980
  639MOL0     C88107   1.888   2.358   2.341  0.9874 -0.5992  0.1363
  639MOL0     C88108   1.794   2.362   2.461  0.6822  0.3208 -0.4399
  639MOL0     C88109   1.730   2.378   2.561  0.4522 -0.0287  0.0038
  639MOL0     C88110   2.539   2.438   2.337 -0.4760 -0.4216 -0.0006
  639MOL0     C88111   2.670   2.499   2.336  0.3555  0.0473 -0.9004
  639MOL0     C88112   2.773   2.439   2.238  0.1995  0.1715 -1.1167
  639MOL0     H88113   3.078   2.792   2.563  0.0059  0.7433 -0.3762
  639MOL0     H88114   3.329   2.798   2.597 -2.1791  1.0057  0.8288
  639MOL0     H88115   3.611   2.561   2.359  0.2992  0.0375  0.1498
  639MOL0     H88116   3.565   2.449   2.488  0.5830 -1.1048 -1.1827
  639MOL0     H88117   3.714   2.671   2.591 -1.6013 -1.4158  2.0426
  639MOL0     H88118   3.764   2.500   2.597 -2.0348 -1.1067  0.3785
  639MOL0     H88119   3.852   2.523   2.370  1.0122 -2.1743  3.1143
  639MOL0     H88120   3.808   2.699   2.372 -1.9180 -0.2001  0.9560
  639MOL0     H88121   3.959   2.754   2.549  2.8174 -1.1507  0.7802
  639MOL0     H88122   4.007   2.584   2.556 -0.4345  0.3130  1.1200
  639MOL0     H88123   4.048   2.788   2.333  0.3523 -0.0406  0.9542
  639MOL0     H88124   4.101   2.624   2.314  3.5364  3.1392 -1.7419
  639MOL0     H88125   4.222   2.804   2.529 -0.4027 -3.3703  5.6712
  639MOL0     H88126   4.223   2.636   2.535 -1.1054  1.1103  0.1547
  639MOL0     H88127   4.315   2.602   2.310  2.7320 -0.9335  0.1255
  639MOL0     H88128   4.423   2.688   2.422  0.0518  0.0587 -0.4823
  639MOL0     H88129   4.273   2.801   2.182  1.3097 -3.6829 -0.7821
  639MOL0     H88130   4.307   2.909   2.327  1.3238 -0.3513  0.9401
  639MOL0     H88131   4.530   2.645   2.112 -1.7218  1.7980 -2.6403
  639MOL0     H88132   4.767   2.602   2.102 -1.8402 -0.3137 -0.3816
  639MOL0     H88133   4.872   2.723   2.177 -0.4010  2.9860  0.3685
  639MOL0     H88134   4.754   2.744   1.899 -0.2750 -0.7578  0.9300
  639MOL0     H88135   4.851   2.871   1.975  0.4350 -0.0773  1.9226
  639MOL0     H88136   4.949   2.598   1.912  3.4109  0.6108  2.6553
  639MOL0     H88137   4.961   2.728   1.795  1.1380  2.7699  0.5954
  639MOL0     H88138   5.092   2.712   2.083 -1.0520 -0.9341 -0.2061
  639MOL0     H88139   5.179   2.695   1.928  1.4211  2.6135  1.5839
  639MOL0     H88140   5.218   2.925   2.171 -1.4263 -0.9102 -1.3170
  639MOL0     H88141   5.547   2.968   2.252  0.0434  0.7591 -1.2387
  639MOL0     H88142   5.392   2.968   2.333  2.3753 -1.1610  0.9483
  639MOL0     H88143   5.476   3.119   2.290 -0.7210  0.6660 -0.4122
  639MOL0     H88144   5.856   3.195   1.943  0.3533 -2.2332  1.1409
  639MOL0     H88145   6.075   3.305   2.000  0.9672  0.3405  1.1036
  639MOL0     H88146   6.149   3.339   2.420 -1.6602 -0.3618 -2.0347
  639MOL0     H88147   6.230   3.235   2.310  1.2204  1.2912 -2.1459
  639MOL0     H88148   6.293   3.523   2.357 -1.9569 -0.6618  0.1656
  639MOL0     H88149   6.378   3.383   2.432 -0.1426 -1.2305 -0.2247
  639MOL0     H88150   6.506   3.500   2.234  1.1693 -0.4180  0.2801
  639MOL0     H88151   6.382   3.414   2.137 -0.6669 -2.0867  1.4491
  639MOL0     H88152   6.473   3.213   2.211 -0.1829 -0.1739 -0.7654
  639MOL0     H88153   6.585   3.290   2.326 -0.3767 -0.2225 -1.0266
  639MOL0     H88154   6.599   3.307   2.018 -1.2024 -0.1441 -0.0313
  639MOL0     H88155   6.688   3.414   2.132 -1.6143  0.9351  1.5868
  639MOL0     H88156   6.711   3.109   2.138 -1.2159  0.4272  0.5177
  639MOL0     H88157   6.807   3.227   2.231  0.5483  2.5374 -0.8942
  639MOL0     H88158   6.862   3.300   1.966 -2.8816  0.0754  0.8274
  639MOL0     H88159   6.854   3.132   1.968 -1.4869  0.0705  0.1936
  639MOL0     H88160   7.089   3.223   2.033  0.1159 -0.1981 -0.7939
  639MOL0     H88161   7.023   3.126   2.168 -0.3265  1.4439  0.9735
  639MOL0     H88162   5.924   3.390   2.386  1.2069  0.2482  0.3106
  639MOL0     H88163   5.720   3.241   2.350 -0.1828 -0.5361 -0.8311
  639MOL0     H88164   5.442   3.141   1.788  1.4742 -0.4775  1.2977
  639MOL0     H88165   5.235   3.010   1.754 -0.3417 -0.8001  0.1788
  639MOL0     H88166   3.375   2.467   2.342 -0.7520  1.1835 -1.6580
  639MOL0     H88167   3.116   2.469   2.301  0.5468 -0.1103 -0.0686
  639MOL0     H88168   2.633   2.699   2.613  1.3822 -0.1045  0.5375
  639MOL0     H88169   2.409   2.640   2.581  1.0979  0.2155  0.2711
  639MOL0     H88170   2.285   2.404   2.580  0.0522  0.5890 -0.0991
  639MOL0     H88171   2.207   2.553   2.532 -0.4454  0.7791  0.5237
  639MOL0     H88172   2.046   2.368   2.557 -0.6554  5.7401 -1.1348
  639MOL0     H88173   2.147   2.259   2.449  0.4920  0.2995 -1.6609
  639MOL0     H88174   2.009   2.533   2.382 -0.5424  1.0262  1.6044
  639MOL0     H88175   2.071   2.407   2.267 -0.9078  0.0871  0.7513
  639MOL0     H88176   1.905   2.258   2.303  2.7676 -1.5264  3.0237
  639MOL0     H88177   1.821   2.412   2.273 -1.6798 -1.0788  2.1637
  639MOL0     H88178   1.677   2.390   2.654  1.0494  2.4096  0.1071
  639MOL0     H88179   2.515   2.361   2.264  1.6598 -1.6810  0.5295
  639MOL0     H88180   2.822   2.526   2.191  1.2647  0.6389  0.7674
  639MOL0     H88181   2.846   2.384   2.298 -0.3837 -0.6659 -1.1604
  639MOL0     H88182   2.722   2.378   2.163  0.5703  0.4746 -1.6250
  640MOL0     O88183   5.325   2.968   9.890 -0.9268  0.7971  0.8126
  640MOL0     C88184   5.233   3.013   9.823  0.2862  0.8961 -0.6996
  640MOL0     O88185   5.142   3.107   9.867  0.6723 -0.1697 -0.0419
  640MOL0     C88186   5.155   3.191   9.973 -0.1654  0.4996  0.3433
  640MOL0     C88187   5.048   3.283  10.002  0.0164 -0.2324  0.4698
  640MOL0     C88188   5.061   3.388  10.090 -0.1240 -0.1433  0.3968
  640MOL0     C88189   5.176   3.411  10.154 -0.2788 -1.1974  0.0102
  640MOL0     O88190   5.159   3.512  10.246 -0.9959 -0.7754 -0.2669
  640MOL0     C88191   5.265   3.609  10.264  0.2440  0.3812  0.1692
  640MOL0     C88192   5.282   3.630  10.417  0.2163  0.4578  0.0644
  640MOL0     C88193   5.339   3.507  10.493  0.0661 -0.1252  0.5533
  640MOL0     C88194   5.485   3.470  10.468 -0.4068 -0.5277 -0.5182
  640MOL0     C88195   5.518   3.339  10.532  0.0356  0.9176 -0.1639
  640MOL0     C88196   5.664   3.298  10.496  0.1437  0.3746  0.4143
  640MOL0     C88197   5.694   3.145  10.519  0.0359  0.1049 -1.1926
  640MOL0     C88198   5.842   3.125  10.483  0.6397 -0.6320  0.4366
  640MOL0     N88199   5.882   2.984  10.509  0.4887 -0.2619  0.0659
  640MOL0     C88200   5.813   2.882  10.447  0.7801  0.3135 -0.4746
  640MOL0     C88201   5.864   2.770  10.504  0.3870 -0.8263  0.7220
  640MOL0     C88202   5.832   2.634  10.472  0.0941  0.1052  0.4364
  640MOL0     C88203   5.923   2.592  10.357 -0.8122  0.2285  0.0253
  640MOL0     C88204   5.903   2.443  10.314 -0.1049 -0.5361  0.4202
  640MOL0     C88205   5.768   2.396  10.263  0.5889 -0.8346 -0.2564
  640MOL0     O88206   5.765   2.260  10.207  0.3435 -0.1769  0.4723
  640MOL0     C88207   5.654   2.189  10.222 -0.5544 -0.5218 -0.1368
  640MOL0     C88208   5.530   2.247  10.240 -0.4955  0.0194  0.7330
  640MOL0     C88209   5.416   2.177  10.271 -0.3134 -0.7990  0.7166
  640MOL0     C88210   5.294   2.255  10.302  0.0295  0.5837  0.7608
  640MOL0     C88211   5.419   2.038  10.277  0.2177  0.7884  0.5354
  640MOL0     C88212   5.299   1.937  10.304 -0.6483 -1.3355  0.1228
  640MOL0     O88213   5.327   1.800  10.303 -0.8492 -0.5001 -0.2133
  640MOL0     C88214   5.226   1.718  10.356  0.2557 -0.6360  0.3219
  640MOL0     C88215   5.191   1.597  10.282  0.5364  0.4471 -0.6340
  640MOL0     C88216   5.104   1.505  10.346 -0.3523  1.1331  0.0608
  640MOL0     C88217   5.060   1.522  10.481 -0.1355  0.2533  0.1860
  640MOL0     O88218   4.971   1.435  10.546 -0.0818 -0.2299  0.3267
  640MOL0     C88219   4.945   1.302  10.491 -0.0312 -0.7885  0.0480
  640MOL0     C88220   4.854   1.215  10.575  0.5654 -0.2183 -0.6487
  640MOL0     C88221   4.708   1.261  10.562 -0.7154  0.5223  0.6224
  640MOL0     C88222   4.619   1.161  10.632 -0.4013  0.5735  0.0939
  640MOL0     C88223   4.567   1.062  10.525  0.5972  0.2377  0.4442
  640MOL0     C88224   4.480   0.942  10.567 -0.4098  0.4164  0.1574
  640MOL0     C88225   4.552   0.851  10.672  0.2872  0.2162  0.8612
  640MOL0     C88226   4.456   0.736  10.713 -1.2379  0.0269  0.1257
  640MOL0    Cl88227   4.325   0.760  10.832 -0.1742 -0.3658  0.2662
  640MOL0     C88228   5.098   1.644  10.540  0.5341  0.5109 -1.2423
  640MOL0     C88229   5.179   1.735  10.487  0.1093 -0.1617  0.0968
  640MOL0     O88230   5.191   1.986  10.327  0.5294 -0.4294  0.2465
  640MOL0     C88231   5.547   1.979  10.261 -0.3678 -0.1320 -0.8255
  640MOL0     C88232   5.657   2.052  10.221  0.1044 -0.3863 -1.2316
  640MOL0     N88233   5.948   2.812  10.604  0.1475  0.7036 -0.9264
  640MOL0     N88234   5.962   2.941  10.609 -0.0202 -0.5263  0.7353
  640MOL0     C88235   5.280   3.329  10.139  0.5617  0.7175 -0.1369
  640MOL0     C88236   5.272   3.219  10.053  0.1846 -0.1781  0.7185
  640MOL0     C88237   5.201   2.945   9.699  0.9024 -0.1403 -0.3922
  640MOL0     C88238   5.070   2.963   9.647  0.6851 -0.3828 -0.2710
  640MOL0     C88239   5.026   2.906   9.531  0.4634 -0.0452  0.1192
  640MOL0     C88240   5.118   2.831   9.457 -0.5864  0.1774  0.3081
  640MOL0     O88241   5.095   2.772   9.338  0.2508  0.6261  0.3830
  640MOL0     C88242   4.957   2.768   9.298  0.2855  0.2451  0.7966
  640MOL0     C88243   4.916   2.677   9.179 -0.5167 -0.6360  0.2356
  640MOL0     C88244   4.955   2.731   9.037  0.2893 -1.5797  0.1489
  640MOL0     C88245   5.095   2.793   9.025  0.6306  0.1574 -0.6750
  640MOL0     C88246   5.107   2.841   8.889 -0.6598  0.6877  0.0411
  640MOL0     C88247   5.142   2.869   8.779  0.0600  0.8517  0.2924
  640MOL0     C88248   5.246   2.812   9.513  1.1429 -0.1127 -0.2422
  640MOL0     C88249   5.285   2.861   9.636 -0.4551  0.3353  0.8604
  640MOL0     C88250   5.429   2.832   9.677 -0.7310 -0.7889  0.3844
  640MOL0     H88251   4.957   3.276   9.943  2.1332 -0.3982 -3.1148
  640MOL0     H88252   4.977   3.454  10.110  0.0050  0.9503 -2.2924
  640MOL0     H88253   5.240   3.703  10.213  0.9363  1.2428  1.3751
  640MOL0     H88254   5.360   3.572  10.225  0.7231  2.1621 -0.4450
  640MOL0     H88255   5.354   3.713  10.420  1.5610 -0.6963  1.1929
  640MOL0     H88256   5.193   3.662  10.471  1.7280  2.0535  1.7732
  640MOL0     H88257   5.308   3.507  10.597 -0.6874 -0.8637  0.3412
  640MOL0     H88258   5.288   3.417  10.458  1.5864 -1.4521  1.5910
  640MOL0     H88259   5.505   3.473  10.360  1.0350 -3.6127 -0.4109
  640MOL0     H88260   5.554   3.544  10.510 -1.0996 -0.1871  0.0448
  640MOL0     H88261   5.447   3.266  10.493 -0.5744  0.0733  2.3449
  640MOL0     H88262   5.511   3.344  10.641  0.7271 -0.1325 -0.0556
  640MOL0     H88263   5.682   3.340  10.397 -0.4450  0.8920  0.5176
  640MOL0     H88264   5.731   3.356  10.560  2.3077 -0.7960 -0.6929
  640MOL0     H88265   5.619   3.085  10.466  1.7946 -2.4585 -0.9725
  640MOL0     H88266   5.681   3.114  10.624 -0.6450 -0.8277 -1.5340
  640MOL0     H88267   5.856   3.149  10.378 -2.1794  1.7160  0.4762
  640MOL0     H88268   5.902   3.193  10.544  0.0251 -1.1129  1.6128
  640MOL0     H88269   5.736   2.898  10.372  0.2382  0.1149  0.0379
  640MOL0     H88270   5.729   2.625  10.434  0.0923 -4.6005  0.9832
  640MOL0     H88271   5.839   2.561  10.553  2.4048 -0.9735 -0.6275
  640MOL0     H88272   5.924   2.659  10.270 -2.3972 -1.3396 -1.2580
  640MOL0     H88273   6.025   2.587  10.395  0.4942 -0.1617 -3.2166
  640MOL0     H88274   5.969   2.428  10.228 -0.8886  0.7653 -0.4416
  640MOL0     H88275   5.941   2.385  10.398  0.9129 -1.3529 -0.5684
  640MOL0     H88276   5.703   2.397  10.351 -0.2646 -0.4156 -0.8784
  640MOL0     H88277   5.739   2.469  10.187 -0.0704 -1.2708 -0.4341
  640MOL0     H88278   5.519   2.355  10.234  1.0492  0.1140 -1.9736
  640MOL0     H88279   5.257   2.209  10.394  1.4909 -0.5157  0.8529
  640MOL0     H88280   5.224   2.252  10.219  2.6520  2.8900 -1.7135
  640MOL0     H88281   5.313   2.354  10.344  0.6568  0.1035  1.6596
  640MOL0     H88282   5.227   1.594  10.180 -1.5405  1.1317 -1.4243
  640MOL0     H88283   5.070   1.423  10.282 -0.3970  0.9902  0.2669
  640MOL0     H88284   4.906   1.317  10.389  1.3100 -1.3544 -0.5753
  640MOL0     H88285   5.039   1.247  10.477  1.0619  1.2098 -0.9713
  640MOL0     H88286   4.878   1.115  10.537  1.2361  0.0313 -0.9107
  640MOL0     H88287   4.894   1.231  10.676  0.2717  0.2496 -0.6069
  640MOL0     H88288   4.674   1.264  10.458  0.7245  0.0656  0.1022
  640MOL0     H88289   4.685   1.361  10.599  1.5528  1.6818 -0.8819
  640MOL0     H88290   4.539   1.213  10.686 -0.1731 -0.3526  1.3658
  640MOL0     H88291   4.676   1.098  10.701 -2.2722 -1.2764  0.0786
  640MOL0     H88292   4.507   1.118  10.452  2.3180  2.0378  0.3120
  640MOL0     H88293   4.652   1.025  10.467 -1.7562 -2.4095 -1.6535
  640MOL0     H88294   4.485   0.882  10.476  2.3478  1.0825 -0.2268
  640MOL0     H88295   4.379   0.976  10.591  0.1101  1.1633  1.3797
  640MOL0     H88296   4.587   0.900  10.764  2.4022  0.1794  0.1266
  640MOL0     H88297   4.648   0.822  10.627 -1.2044 -1.2005 -1.6246
  640MOL0     H88298   4.520   0.670  10.773 -0.8454  0.4703  0.2059
  640MOL0     H88299   4.414   0.686  10.625  0.9042 -1.1090 -0.3369
  640MOL0     H88300   5.070   1.672  10.641  2.0914  0.3789 -0.7453
  640MOL0     H88301   5.223   1.826  10.527 -0.7046  0.7518 -0.9977
  640MOL0     H88302   5.556   1.872  10.276  0.6873  0.2304  1.5680
  640MOL0     H88303   5.757   2.011  10.213  0.1133 -0.9408  0.9721
  640MOL0     H88304   5.373   3.346  10.192 -0.3964  1.9954  1.2013
  640MOL0     H88305   5.360   3.158  10.035 -1.8589 -3.0304 -0.4062
  640MOL0     H88306   4.992   3.019   9.697 -2.2750 -0.1071 -4.6464
  640MOL0     H88307   4.926   2.918   9.490 -0.8139  0.1080  3.0357
  640MOL0     H88308   4.896   2.734   9.382 -0.1619 -1.2654 -0.0975
  640MOL0     H88309   4.917   2.868   9.280 -0.2858 -0.0841  0.2187
  640MOL0     H88310   4.807   2.666   9.183 -0.4777 -0.8616  0.7047
  640MOL0     H88311   4.964   2.580   9.194  0.5888 -0.2087 -0.3435
  640MOL0     H88312   4.965   2.638   8.979  1.0256 -3.0760  2.5212
  640MOL0     H88313   4.875   2.793   8.994  1.0470  1.0256  2.2468
  640MOL0     H88314   5.177   2.724   9.048  1.1267  0.2484 -2.0478
  640MOL0     H88315   5.112   2.883   9.085 -3.7364  0.2630  0.7595
  640MOL0     H88316   5.157   2.903   8.678  0.0054 -1.1918 -0.4542
  640MOL0     H88317   5.312   2.754   9.449 -0.8248 -2.4798 -0.2381
  640MOL0     H88318   5.479   2.770   9.601 -1.8085  1.4591 -2.3271
  640MOL0     H88319   5.484   2.926   9.671 -1.8034 -0.1394  0.4084
  640MOL0     H88320   5.445   2.781   9.772 -0.4860 -1.0878  0.1844
  641MOL0     O88321   5.625   0.978   4.992  0.2615 -0.3053 -0.5179
  641MOL0     C88322   5.608   0.927   4.883 -0.0781  0.3540  0.6299
  641MOL0     O88323   5.687   0.933   4.774 -0.5252  0.2395 -0.9640
  641MOL0     C88324   5.795   1.006   4.781  0.2346  0.0781  0.5230
  641MOL0     C88325   5.792   1.147   4.794 -0.2603  0.2558  0.1606
  641MOL0     C88326   5.908   1.219   4.787  0.0005  0.2743  0.8044
  641MOL0     C88327   6.031   1.148   4.769 -0.2670  0.3035  1.1345
  641MOL0     O88328   6.155   1.211   4.783 -0.0234 -0.0772  0.2197
  641MOL0     C88329   6.179   1.330   4.707 -0.1276  0.5784  0.4548
  641MOL0     C88330   6.326   1.337   4.667  0.5171  0.2266  0.9573
  641MOL0     C88331   6.399   1.395   4.777 -0.3767  0.5008  0.0557
  641MOL0     C88332   6.547   1.422   4.741 -0.0291 -0.1304  0.1243
  641MOL0     C88333   6.622   1.504   4.845 -0.6998 -0.3741 -0.1943
  641MOL0     C88334   6.643   1.425   4.976  0.2850 -0.2136  0.2782
  641MOL0     C88335   6.739   1.499   5.064  0.1232 -0.2826 -1.3068
  641MOL0     C88336   6.692   1.635   5.096 -0.1993 -0.0540  0.1928
  641MOL0     N88337   6.764   1.703   5.216 -0.6663  0.3395  0.2350
  641MOL0     C88338   6.870   1.786   5.209 -0.1411 -0.5125  0.6025
  641MOL0     C88339   6.893   1.831   5.338  0.5612  0.6584 -0.3040
  641MOL0     C88340   7.010   1.909   5.386 -0.5483 -0.8781  0.6822
  641MOL0     C88341   7.092   1.817   5.466  0.4563 -0.2514 -0.4703
  641MOL0     C88342   7.206   1.892   5.531  0.8512  0.3157 -0.9601
  641MOL0     C88343   7.309   1.962   5.445 -0.0111  0.0146  0.3953
  641MOL0     O88344   7.378   2.040   5.536 -0.9855 -0.2276 -0.4817
  641MOL0     C88345   7.498   2.100   5.500  0.8668 -0.4923 -0.7173
  641MOL0     C88346   7.571   2.174   5.596  0.5180  0.9002  0.5437
  641MOL0     C88347   7.695   2.235   5.555  0.1090 -0.7448  0.2963
  641MOL0     C88348   7.760   2.322   5.661 -0.6033  0.4886 -0.4471
  641MOL0     C88349   7.746   2.223   5.430 -0.4564  0.7736 -0.1695
  641MOL0     C88350   7.881   2.261   5.387 -0.6985 -0.5506  0.5086
  641MOL0     O88351   7.912   2.286   5.253 -0.1616  0.2526  0.4322
  641MOL0     C88352   8.038   2.318   5.202  0.0400 -0.0086 -0.4648
  641MOL0     C88353   8.083   2.273   5.077 -0.8770  0.6393  0.0130
  641MOL0     C88354   8.213   2.301   5.028 -0.0935  0.9929 -0.5206
  641MOL0     C88355   8.291   2.394   5.091  0.1357  0.6766  0.1580
  641MOL0     O88356   8.402   2.450   5.039 -0.2825  0.3245  0.1872
  641MOL0     C88357   8.449   2.439   4.905 -0.5680 -0.4350  0.3355
  641MOL0     C88358   8.391   2.561   4.831 -0.8035 -0.6205  0.0910
  641MOL0     C88359   8.251   2.551   4.805  0.8371 -0.4302  0.2164
  641MOL0     C88360   8.211   2.674   4.714 -0.5800 -0.1821 -0.6630
  641MOL0     C88361   8.068   2.667   4.665  0.4600  0.0349 -0.4086
  641MOL0     C88362   8.034   2.789   4.578 -0.4563  0.5126  0.2759
  641MOL0     C88363   8.036   2.932   4.646 -0.6294  0.0086  0.6631
  641MOL0     C88364   7.998   3.043   4.546 -0.1973  0.4166 -0.5561
  641MOL0    Cl88365   8.134   3.059   4.428  0.1677  0.1454  0.4379
  641MOL0     C88366   8.229   2.466   5.191 -0.7893 -0.3961 -0.3469
  641MOL0     C88367   8.119   2.420   5.264  0.5285 -0.8047 -0.2003
  641MOL0     O88368   7.961   2.250   5.475  0.6169  0.2921  0.1887
  641MOL0     C88369   7.674   2.149   5.331 -0.1652  0.4254 -0.1850
  641MOL0     C88370   7.549   2.093   5.369 -0.1214  0.3537  0.4787
  641MOL0     N88371   6.785   1.778   5.417 -0.3105 -0.0655 -0.2922
  641MOL0     N88372   6.712   1.701   5.345 -0.5975 -0.6134  0.6066
  641MOL0     C88373   6.034   1.012   4.751 -0.3367 -0.2651  0.5109
  641MOL0     C88374   5.921   0.943   4.765  0.3449 -0.6280  0.4016
  641MOL0     C88375   5.469   0.880   4.853  0.9867 -0.3544 -0.8701
  641MOL0     C88376   5.419   0.875   4.722 -0.5816 -0.3391  0.3743
  641MOL0     C88377   5.288   0.846   4.696 -0.5437 -0.2392 -0.1084
  641MOL0     C88378   5.194   0.807   4.792 -0.6918  0.3807 -0.3376
  641MOL0     O88379   5.067   0.777   4.762  0.3867 -0.7089  0.0194
  641MOL0     C88380   5.021   0.767   4.629  0.1203  0.0863 -0.9360
  641MOL0     C88381   4.987   0.911   4.584  0.2739 -0.1136  0.8672
  641MOL0     C88382   4.890   0.980   4.679 -0.6857 -0.5064  0.6731
  641MOL0     C88383   4.786   0.896   4.754 -0.6556 -1.0629 -0.0809
  641MOL0     C88384   4.693   0.855   4.654  1.1034  0.2924 -0.0798
  641MOL0     C88385   4.609   0.809   4.585  0.2377  0.5971 -0.8174
  641MOL0     C88386   5.238   0.814   4.927  0.7361  0.6065 -0.7264
  641MOL0     C88387   5.371   0.845   4.962 -0.3576 -0.1304  0.2117
  641MOL0     C88388   5.413   0.837   5.105  0.0576  0.2742  0.2425
  641MOL0     H88389   5.704   1.206   4.819  0.7113  2.2764 -0.9307
  641MOL0     H88390   5.905   1.326   4.805 -0.8187  0.6714 -1.3493
  641MOL0     H88391   6.137   1.420   4.755 -2.5936 -0.2208 -0.0468
  641MOL0     H88392   6.117   1.324   4.617 -2.8097  1.6776  2.0828
  641MOL0     H88393   6.372   1.241   4.642  2.6184  1.4014  0.0554
  641MOL0     H88394   6.335   1.403   4.580  0.3951 -0.9466  0.0167
  641MOL0     H88395   6.354   1.492   4.804 -0.0320  0.5351  0.5158
  641MOL0     H88396   6.390   1.325   4.861 -1.4292 -1.3231 -1.5174
  641MOL0     H88397   6.598   1.329   4.714  1.1843  0.4593  0.3087
  641MOL0     H88398   6.545   1.485   4.652  2.3946  2.0384  1.4519
  641MOL0     H88399   6.564   1.594   4.865 -1.8840 -1.2257  0.2483
  641MOL0     H88400   6.726   1.529   4.818 -0.3899  0.3690  1.5391
  641MOL0     H88401   6.553   1.407   5.036  0.6359  1.0830  1.2339
  641MOL0     H88402   6.698   1.333   4.956  0.5490 -0.8154  3.3053
  641MOL0     H88403   6.841   1.504   5.024 -0.2310  1.1506 -2.0760
  641MOL0     H88404   6.742   1.446   5.160  1.6672 -0.0604 -1.2088
  641MOL0     H88405   6.693   1.691   5.002 -0.4074 -0.3164  0.0298
  641MOL0     H88406   6.586   1.621   5.121 -0.6350  2.5842  0.1101
  641MOL0     H88407   6.942   1.803   5.130  0.6633 -2.1053  0.9562
  641MOL0     H88408   6.963   1.999   5.427 -0.4779  1.0325 -3.0312
  641MOL0     H88409   7.064   1.947   5.299 -0.3944 -1.8684  0.3358
  641MOL0     H88410   7.034   1.765   5.543  5.0367 -2.3442  2.0172
  641MOL0     H88411   7.131   1.734   5.407  0.8596 -0.4335  0.0479
  641MOL0     H88412   7.154   1.968   5.589  0.5997 -0.3466 -0.2919
  641MOL0     H88413   7.253   1.821   5.600  0.0048  1.6713  1.1138
  641MOL0     H88414   7.365   1.889   5.387 -0.5653  0.0040 -0.1402
  641MOL0     H88415   7.266   2.042   5.384 -0.4585  1.4057  2.4202
  641MOL0     H88416   7.535   2.174   5.699 -0.3648 -0.7223  0.2524
  641MOL0     H88417   7.817   2.263   5.733  1.4349  1.6379 -1.0363
  641MOL0     H88418   7.688   2.386   5.713 -0.1482  0.6694 -0.0276
  641MOL0     H88419   7.818   2.403   5.615  0.5132  1.0339  1.7814
  641MOL0     H88420   8.013   2.219   5.014  1.8957 -0.1152 -2.6974
  641MOL0     H88421   8.252   2.265   4.933 -0.5409  2.3010 -1.2240
  641MOL0     H88422   8.558   2.451   4.901 -0.6032 -0.4820 -1.0294
  641MOL0     H88423   8.428   2.346   4.853  1.5768 -2.5856  3.0111
  641MOL0     H88424   8.418   2.653   4.883  0.5406 -1.0675  0.2191
  641MOL0     H88425   8.451   2.573   4.741 -1.0133  0.9647  0.1305
  641MOL0     H88426   8.191   2.553   4.897  0.8140  2.4520  0.2371
  641MOL0     H88427   8.235   2.465   4.740  3.1296  0.0723 -1.1414
  641MOL0     H88428   8.276   2.691   4.628 -1.3309  2.3001 -0.8088
  641MOL0     H88429   8.209   2.764   4.776 -1.3872 -1.2995  1.0285
  641MOL0     H88430   8.058   2.572   4.612 -2.6828 -0.1104  0.2468
  641MOL0     H88431   7.999   2.656   4.750  1.3848  0.5242  0.4318
  641MOL0     H88432   7.938   2.786   4.525 -1.2658  0.2796  1.7228
  641MOL0     H88433   8.114   2.792   4.503 -0.3743 -1.5538  0.2105
  641MOL0     H88434   8.126   2.956   4.702 -0.2368 -1.8377  0.8863
  641MOL0     H88435   7.954   2.927   4.719 -0.7981 -2.2738  0.3704
  641MOL0     H88436   7.990   3.132   4.610  2.3607 -1.8533  3.3249
  641MOL0     H88437   7.901   3.027   4.498  1.0222 -2.2747 -2.4261
  641MOL0     H88438   8.280   2.548   5.240 -1.4256 -0.3125  0.1899
  641MOL0     H88439   8.084   2.470   5.354  2.5305 -0.6439  0.5453
  641MOL0     H88440   7.710   2.128   5.230 -0.9111 -0.2251 -0.3232
  641MOL0     H88441   7.497   2.046   5.286 -2.3543  2.5120  0.5123
  641MOL0     H88442   6.132   0.969   4.731  0.0851  0.5082  0.8283
  641MOL0     H88443   5.917   0.835   4.757 -1.3408 -0.6500  1.1707
  641MOL0     H88444   5.486   0.906   4.643  2.0181 -0.7147  2.2844
  641MOL0     H88445   5.260   0.843   4.591  1.8553 -0.6579 -0.7956
  641MOL0     H88446   5.086   0.714   4.558 -0.0792 -1.1205 -0.2486
  641MOL0     H88447   4.930   0.707   4.639  0.9756 -0.9211  1.5500
  641MOL0     H88448   4.950   0.910   4.481  1.3878  0.8020  0.4417
  641MOL0     H88449   5.070   0.981   4.571  1.3430 -1.3389  0.9363
  641MOL0     H88450   4.950   1.037   4.752  0.4844 -1.0071  0.1216
  641MOL0     H88451   4.845   1.059   4.618  0.8851  0.3019  0.5107
  641MOL0     H88452   4.732   0.962   4.822  0.5738 -1.0022  0.8801
  641MOL0     H88453   4.829   0.814   4.813  2.3361 -0.8591 -1.7465
  641MOL0     H88454   4.522   0.780   4.529 -0.0996 -1.6644  0.7360
  641MOL0     H88455   5.170   0.776   5.003 -0.5561 -2.7331 -3.3013
  641MOL0     H88456   5.432   0.937   5.146  0.7562  0.0207  0.5564
  641MOL0     H88457   5.342   0.782   5.167  0.5178 -0.4568  0.1248
  641MOL0     H88458   5.508   0.785   5.116 -0.3865 -0.9168 -1.1719
  642MOL0     O88459   4.156   7.287   3.254  0.6790  0.4368 -0.0849
  642MOL0     C88460   4.066   7.373   3.263 -0.3871  0.3375 -0.5603
  642MOL0     O88461   4.047   7.463   3.365 -0.0203  0.1096  0.4197
  642MOL0     C88462   4.147   7.455   3.458  0.6479 -0.0603 -0.5742
  642MOL0     C88463   4.278   7.499   3.447 -0.4956  0.5006 -0.1918
  642MOL0     C88464   4.362   7.499   3.555  0.4447 -0.4128  0.6333
  642MOL0     C88465   4.326   7.442   3.677  0.4850 -0.7044 -0.7747
  642MOL0     O88466   4.413   7.445   3.789  0.1318 -0.0556 -0.0684
  642MOL0     C88467   4.413   7.321   3.860  0.0641  0.5385  0.2003
  642MOL0     C88468   4.550   7.310   3.931 -0.3825 -0.7568  0.3755
  642MOL0     C88469   4.659   7.252   3.833 -0.0422  0.3439  0.4204
  642MOL0     C88470   4.800   7.256   3.891  0.5149 -0.0630  0.4234
  642MOL0     C88471   4.901   7.174   3.819 -0.2665  0.4986 -0.2155
  642MOL0     C88472   4.925   7.037   3.880 -0.7803 -0.1532 -0.4746
  642MOL0     C88473   5.049   6.954   3.825  0.3087 -0.4619 -0.1318
  642MOL0     C88474   5.182   7.015   3.865 -0.6267  0.6633 -0.0113
  642MOL0     N88475   5.299   6.969   3.795 -0.0246  0.7959  0.2895
  642MOL0     C88476   5.319   6.840   3.744  0.0528  0.4560  0.0841
  642MOL0     C88477   5.456   6.831   3.720  0.8123 -0.6448 -0.3106
  642MOL0     C88478   5.527   6.711   3.674  0.9409  0.2864 -0.8550
  642MOL0     C88479   5.665   6.730   3.617  0.2391  0.0402 -0.2344
  642MOL0     C88480   5.729   6.599   3.565  0.2642  0.0751  0.1605
  642MOL0     C88481   5.879   6.609   3.552 -0.0512 -0.3668 -0.0628
  642MOL0     O88482   5.935   6.484   3.525  0.3124  0.0060 -0.6855
  642MOL0     C88483   6.061   6.460   3.497  0.2024 -0.3843  0.3960
  642MOL0     C88484   6.163   6.560   3.516  0.3164  0.1686 -0.0477
  642MOL0     C88485   6.294   6.531   3.469  0.1875 -0.4853 -0.0224
  642MOL0     C88486   6.383   6.651   3.455  0.2444  0.3457 -0.6500
  642MOL0     C88487   6.325   6.406   3.408 -0.4892 -0.8928 -0.1660
  642MOL0     C88488   6.465   6.360   3.376  0.1577 -0.2902 -0.2231
  642MOL0     O88489   6.554   6.454   3.349 -0.8032  0.4173  0.5259
  642MOL0     C88490   6.691   6.429   3.331 -0.2092 -0.4273 -0.3115
  642MOL0     C88491   6.752   6.308   3.323 -0.7842 -0.1088  0.0596
  642MOL0     C88492   6.890   6.303   3.293 -0.3662  0.3223 -0.2552
  642MOL0     C88493   6.967   6.417   3.283 -0.9196 -0.4438 -1.7711
  642MOL0     O88494   7.105   6.400   3.266  0.5543  0.1864 -0.5346
  642MOL0     C88495   7.183   6.465   3.373 -0.0816 -0.1932  0.1594
  642MOL0     C88496   7.330   6.478   3.331  0.5888 -0.1079  0.6817
  642MOL0     C88497   7.400   6.342   3.312  0.0805  0.3896  0.0607
  642MOL0     C88498   7.468   6.307   3.442  0.7045 -0.4815 -0.0900
  642MOL0     C88499   7.610   6.374   3.447 -0.2393 -0.9981  0.3909
  642MOL0     C88500   7.709   6.291   3.371 -0.3026  1.1463  0.0825
  642MOL0     C88501   7.848   6.364   3.368  0.3536  0.4152  0.6393
  642MOL0     C88502   7.962   6.272   3.334  0.1952 -0.0784 -0.4446
  642MOL0    Cl88503   8.093   6.380   3.282 -0.4087 -0.1476  0.0959
  642MOL0     C88504   6.903   6.544   3.301  0.2826 -1.4105 -0.2632
  642MOL0     C88505   6.766   6.551   3.320  0.0191  0.4754  0.5577
  642MOL0     O88506   6.487   6.239   3.377  0.3139  0.4060  0.1723
  642MOL0     C88507   6.222   6.309   3.399  0.1192  0.1376 -0.0615
  642MOL0     C88508   6.092   6.337   3.439  0.0652  0.1631 -0.8174
  642MOL0     N88509   5.512   6.942   3.760  0.6553  0.6810  0.0668
  642MOL0     N88510   5.424   7.021   3.809  0.0510  0.0064 -0.1730
  642MOL0     C88511   4.194   7.401   3.689 -0.6487 -0.1894  0.1709
  642MOL0     C88512   4.109   7.407   3.584  0.8381 -0.1289  0.5224
  642MOL0     C88513   3.979   7.368   3.145  0.5399  0.1277 -0.7084
  642MOL0     C88514   3.992   7.444   3.030 -1.7261 -0.0122  0.1041
  642MOL0     C88515   3.907   7.422   2.919  0.9635 -0.3739 -0.5005
  642MOL0     C88516   3.807   7.323   2.919 -0.2458  0.4564 -0.1390
  642MOL0     O88517   3.735   7.298   2.802  0.4184 -0.1763  0.1865
  642MOL0     C88518   3.625   7.209   2.815 -0.0011 -0.2935 -0.1634
  642MOL0     C88519   3.509   7.263   2.893  0.7862 -0.6560 -0.4347
  642MOL0     C88520   3.395   7.318   2.803 -0.0001  0.2784 -0.1526
  642MOL0     C88521   3.289   7.386   2.902  0.2155 -0.1119  0.1878
  642MOL0     C88522   3.159   7.405   2.835 -0.5628 -0.7195  0.0581
  642MOL0     C88523   3.044   7.404   2.786  0.1200  0.1925  0.1668
  642MOL0     C88524   3.790   7.253   3.040  0.9139  0.2330  0.1801
  642MOL0     C88525   3.872   7.277   3.148 -0.0004 -0.3030 -0.1657
  642MOL0     C88526   3.826   7.206   3.280 -0.1438  0.7681  0.1463
  642MOL0     H88527   4.323   7.530   3.353  0.4777 -1.2458 -0.3537
  642MOL0     H88528   4.461   7.544   3.553  0.9726 -1.4806  1.2933
  642MOL0     H88529   4.400   7.236   3.792  3.8677  0.4489 -0.6660
  642MOL0     H88530   4.325   7.323   3.924  1.1239 -0.7175  1.7815
  642MOL0     H88531   4.583   7.410   3.961 -1.1244 -0.5192  0.4127
  642MOL0     H88532   4.543   7.241   4.016 -2.3176 -3.1975 -1.6043
  642MOL0     H88533   4.640   7.145   3.820  2.1192 -0.0594  0.1789
  642MOL0     H88534   4.653   7.298   3.734  1.2211 -0.3047  0.0112
  642MOL0     H88535   4.846   7.355   3.895 -1.2372  0.7712  1.0301
  642MOL0     H88536   4.796   7.204   3.987  2.2448  1.2410  1.2378
  642MOL0     H88537   4.999   7.220   3.836  0.3330 -2.0282  4.7146
  642MOL0     H88538   4.887   7.171   3.710  0.2193 -0.6564 -0.2610
  642MOL0     H88539   4.927   7.041   3.989 -0.6165 -2.8159 -0.3157
  642MOL0     H88540   4.837   6.979   3.852  0.2324 -2.0473  0.0676
  642MOL0     H88541   5.042   6.955   3.716  0.8477  1.2232 -0.1801
  642MOL0     H88542   5.044   6.850   3.860 -1.5794  0.3987  2.5068
  642MOL0     H88543   5.176   7.121   3.841 -1.5877  0.4815 -0.6269
  642MOL0     H88544   5.183   6.995   3.972 -1.6140 -0.3473 -0.1721
  642MOL0     H88545   5.245   6.760   3.736 -0.5832  1.0147  0.2972
  642MOL0     H88546   5.465   6.674   3.592 -0.6028  0.6185  0.1286
  642MOL0     H88547   5.535   6.630   3.747  0.3451  0.4390 -0.6146
  642MOL0     H88548   5.664   6.800   3.533  2.1698  2.1981  1.4446
  642MOL0     H88549   5.729   6.774   3.694 -0.4942  1.1009 -0.2157
  642MOL0     H88550   5.704   6.521   3.638  0.0190  0.6572  0.7150
  642MOL0     H88551   5.693   6.566   3.468  0.7845  1.5058 -0.5536
  642MOL0     H88552   5.909   6.683   3.478 -4.2406  2.1165  0.3702
  642MOL0     H88553   5.913   6.647   3.649  0.3462 -0.8870  0.0008
  642MOL0     H88554   6.142   6.659   3.555  0.2831  1.3919 -2.9244
  642MOL0     H88555   6.334   6.744   3.484  1.4959  0.1151  2.6026
  642MOL0     H88556   6.423   6.668   3.354  2.3261  0.8882  0.2100
  642MOL0     H88557   6.460   6.640   3.532 -0.0777 -1.6462 -0.5687
  642MOL0     H88558   6.697   6.214   3.321 -1.8053  0.4328 -3.1702
  642MOL0     H88559   6.933   6.203   3.285  0.5640  0.8233 -2.0310
  642MOL0     H88560   7.156   6.570   3.385  1.8001  0.5024 -1.1964
  642MOL0     H88561   7.184   6.408   3.466  0.5145 -0.4640 -0.0057
  642MOL0     H88562   7.325   6.523   3.231 -0.8106 -0.3544  0.6197
  642MOL0     H88563   7.392   6.542   3.394  0.3178  2.6477 -1.6659
  642MOL0     H88564   7.476   6.350   3.235  1.2852 -2.7581  0.7762
  642MOL0     H88565   7.322   6.270   3.284  0.9460 -1.2659  1.6937
  642MOL0     H88566   7.480   6.199   3.457 -2.6416 -0.7585  1.5087
  642MOL0     H88567   7.410   6.343   3.527  3.0151  2.3405  0.4410
  642MOL0     H88568   7.608   6.472   3.397 -2.8718 -1.4638 -0.6115
  642MOL0     H88569   7.646   6.381   3.550  0.3845 -1.3819  0.2047
  642MOL0     H88570   7.677   6.272   3.268  2.5430  0.3303 -0.7488
  642MOL0     H88571   7.716   6.195   3.423 -1.4506  2.0086  1.9181
  642MOL0     H88572   7.858   6.410   3.467 -2.3450 -0.8766  1.6076
  642MOL0     H88573   7.840   6.438   3.288 -3.1996 -0.2536  0.2029
  642MOL0     H88574   7.925   6.200   3.260 -2.0683 -1.7291  2.0728
  642MOL0     H88575   7.992   6.209   3.418  0.4475  0.7018  0.0649
  642MOL0     H88576   6.955   6.637   3.280  1.4575 -2.3669 -1.8538
  642MOL0     H88577   6.719   6.647   3.341  4.2294  2.2575  3.2509
  642MOL0     H88578   6.241   6.210   3.358  2.2110  0.9679 -1.2373
  642MOL0     H88579   6.009   6.268   3.425  0.4729 -0.3953 -0.5009
  642MOL0     H88580   4.157   7.369   3.786  0.3351 -0.3540  0.5048
  642MOL0     H88581   4.003   7.384   3.596  0.7114 -0.8043 -1.4743
  642MOL0     H88582   4.069   7.519   3.017 -2.4956  0.8187  0.2125
  642MOL0     H88583   3.916   7.483   2.829  0.2598 -0.2937 -0.5237
  642MOL0     H88584   3.603   7.208   2.708  3.3775  1.6940 -1.0348
  642MOL0     H88585   3.656   7.111   2.853 -1.2417 -0.2708  0.9740
  642MOL0     H88586   3.548   7.334   2.966 -1.8180 -1.7324  2.2353
  642MOL0     H88587   3.455   7.187   2.950 -2.0347  1.8963  0.5742
  642MOL0     H88588   3.437   7.393   2.735  1.4101 -1.4735 -1.3313
  642MOL0     H88589   3.346   7.237   2.748  0.0386 -0.9377  1.5077
  642MOL0     H88590   3.319   7.483   2.941 -2.4814 -0.4888  3.6176
  642MOL0     H88591   3.277   7.319   2.987  0.3567  0.7959  0.9309
  642MOL0     H88592   2.941   7.411   2.759  0.9392  0.6281 -3.3197
  642MOL0     H88593   3.704   7.189   3.058  1.0822  0.0665  0.4143
  642MOL0     H88594   3.837   7.268   3.369 -3.2577  0.7909  0.6171
  642MOL0     H88595   3.718   7.190   3.281 -0.1676  0.5860  3.0479
  642MOL0     H88596   3.888   7.115   3.281 -0.1638  0.7553  0.4985
  643MOL0     O88597   4.841   4.460   3.200  0.1024 -0.4177 -0.0270
  643MOL0     C88598   4.726   4.504   3.210 -0.2712 -0.1775  0.3232
  643MOL0     O88599   4.684   4.606   3.294 -0.0348  0.4835  0.3300
  643MOL0     C88600   4.783   4.678   3.360 -0.2937  0.8689 -0.4397
  643MOL0     C88601   4.872   4.761   3.294  0.6028  0.0775  0.5374
  643MOL0     C88602   4.974   4.825   3.351 -0.5008 -0.2845  0.1371
  643MOL0     C88603   5.009   4.812   3.485  0.3452 -0.8492  0.1692
  643MOL0     O88604   5.116   4.886   3.528 -0.1669 -0.0193 -1.1129
  643MOL0     C88605   5.143   4.892   3.669  0.4348 -0.7419 -0.2330
  643MOL0     C88606   5.245   5.006   3.705  0.7848 -0.0041  0.5292
  643MOL0     C88607   5.386   4.974   3.646 -0.0972  0.3894  0.8700
  643MOL0     C88608   5.427   4.826   3.664  0.0386  0.1700 -0.0800
  643MOL0     C88609   5.586   4.803   3.630 -0.5141 -0.4320 -0.4655
  643MOL0     C88610   5.686   4.873   3.731 -0.0267  0.0313 -0.2594
  643MOL0     C88611   5.837   4.844   3.686 -1.2313  0.6987 -1.0603
  643MOL0     C88612   5.890   4.730   3.773 -0.2685  0.1325  0.4335
  643MOL0     N88613   6.031   4.692   3.742 -0.1400 -0.5486 -0.1173
  643MOL0     C88614   6.078   4.640   3.625  0.8002  0.5276  0.2229
  643MOL0     C88615   6.202   4.603   3.648 -0.6018 -0.9499  0.2193
  643MOL0     C88616   6.262   4.526   3.539 -0.5062  0.8936 -0.3747
  643MOL0     C88617   6.411   4.561   3.521  0.3006 -0.2358  0.0052
  643MOL0     C88618   6.472   4.448   3.430 -0.4715  0.0009  0.4752
  643MOL0     C88619   6.631   4.466   3.420  0.1954  0.3119  0.4223
  643MOL0     O88620   6.661   4.561   3.321 -0.3799  1.0029  0.0792
  643MOL0     C88621   6.789   4.582   3.287  0.6870 -0.8970  0.3675
  643MOL0     C88622   6.899   4.524   3.348  1.6110 -0.1935  0.3891
  643MOL0     C88623   7.028   4.552   3.312 -0.0932  0.0408  0.3095
  643MOL0     C88624   7.139   4.486   3.396  0.1776 -0.1579 -0.6249
  643MOL0     C88625   7.051   4.639   3.199 -0.1921  0.4754  0.5890
  643MOL0     C88626   7.187   4.675   3.144 -0.3189 -0.5029 -1.2291
  643MOL0     O88627   7.178   4.740   3.023 -0.0673 -0.3607  0.0236
  643MOL0     C88628   7.295   4.779   2.971  0.2077 -1.1387  0.7057
  643MOL0     C88629   7.374   4.692   2.895 -0.8783  0.3355  0.6112
  643MOL0     C88630   7.500   4.741   2.836  0.5073 -0.8143  0.2013
  643MOL0     C88631   7.537   4.879   2.856 -0.0279  0.5080  1.1306
  643MOL0     O88632   7.660   4.910   2.806  0.2905  0.2737  0.5485
  643MOL0     C88633   7.723   5.037   2.844  0.6483 -0.4860  0.2861
  643MOL0     C88634   7.877   5.050   2.792  0.4825  0.2159  0.0771
  643MOL0     C88635   7.897   5.039   2.638  0.0399 -0.4447 -0.1513
  643MOL0     C88636   8.031   5.007   2.595 -0.1719 -0.1592  0.2210
  643MOL0     C88637   8.127   5.120   2.617  0.4390 -0.2488 -0.4569
  643MOL0     C88638   8.259   5.062   2.583 -0.3154  0.2632 -0.7280
  643MOL0     C88639   8.369   5.155   2.626 -0.3262  0.2296  0.2257
  643MOL0     C88640   8.511   5.154   2.555 -0.9032  0.7938 -0.4448
  643MOL0    Cl88641   8.595   4.993   2.580  0.4353  0.0789 -0.3740
  643MOL0     C88642   7.461   4.959   2.937  0.1355  0.0269 -0.3395
  643MOL0     C88643   7.339   4.913   2.995  0.4269  0.7571  0.5496
  643MOL0     O88644   7.286   4.628   3.197 -0.1167 -0.7395 -0.2711
  643MOL0     C88645   6.939   4.705   3.147 -0.2045 -0.0268 -0.4498
  643MOL0     C88646   6.813   4.670   3.186 -0.4091  0.2116 -0.4346
  643MOL0     N88647   6.237   4.636   3.778 -0.4513 -0.0095  0.4784
  643MOL0     N88648   6.133   4.680   3.830 -0.6263 -0.0563 -1.0242
  643MOL0     C88649   4.922   4.725   3.554  0.0548 -1.0032 -0.3319
  643MOL0     C88650   4.813   4.663   3.495 -0.0429 -0.1590 -0.6729
  643MOL0     C88651   4.620   4.451   3.131 -0.0444  0.3156 -0.0806
  643MOL0     C88652   4.485   4.478   3.164  0.3740  0.6561 -0.1779
  643MOL0     C88653   4.380   4.429   3.084 -0.1660  0.3666  0.9718
  643MOL0     C88654   4.400   4.358   2.958 -0.6802  0.1092 -0.5707
  643MOL0     O88655   4.291   4.300   2.892 -0.6328  0.3801 -0.1465
  643MOL0     C88656   4.253   4.171   2.950 -0.0235 -0.7712  0.3244
  643MOL0     C88657   4.106   4.144   2.929  0.0883 -0.1197 -0.7320
  643MOL0     C88658   4.062   4.004   2.957 -0.3748 -0.2800  0.3241
  643MOL0     C88659   3.910   3.979   2.951 -0.3881 -0.3087  0.3851
  643MOL0     C88660   3.886   3.838   2.990  0.1273  0.2954 -0.6418
  643MOL0     C88661   3.850   3.718   3.003 -0.3370  0.0422 -0.3657
  643MOL0     C88662   4.529   4.337   2.925 -0.2689 -0.0409  0.2368
  643MOL0     C88663   4.640   4.388   3.004 -1.2956  0.8347  0.4211
  643MOL0     C88664   4.773   4.375   2.938 -1.3164 -0.8110  0.7496
  643MOL0     H88665   4.866   4.779   3.187 -0.2565  1.2215  0.7614
  643MOL0     H88666   5.048   4.868   3.285 -0.2644  0.3578  0.8038
  643MOL0     H88667   5.178   4.794   3.701  2.0875 -0.1935 -0.2665
  643MOL0     H88668   5.050   4.919   3.719 -0.2124 -1.7878 -0.8566
  643MOL0     H88669   5.207   5.099   3.662 -3.2306 -1.7295 -0.0572
  643MOL0     H88670   5.242   5.021   3.813 -0.3669 -1.8409  0.7942
  643MOL0     H88671   5.382   5.012   3.543 -0.1756  1.4335  1.2386
  643MOL0     H88672   5.464   5.031   3.696  2.4722 -1.7599 -0.4500
  643MOL0     H88673   5.396   4.790   3.763  0.9978 -0.0944  0.1413
  643MOL0     H88674   5.376   4.775   3.582  1.2552 -1.2390 -0.0033
  643MOL0     H88675   5.603   4.837   3.528 -1.3805 -1.1439 -0.8687
  643MOL0     H88676   5.599   4.694   3.632  0.3148 -0.3216  0.5082
  643MOL0     H88677   5.678   4.982   3.726  0.3212  0.0835  0.3015
  643MOL0     H88678   5.659   4.834   3.830 -0.4861  0.6469 -0.1378
  643MOL0     H88679   5.903   4.928   3.709 -0.1609 -0.2071 -0.7788
  643MOL0     H88680   5.835   4.816   3.580 -1.0188  1.9999 -1.4229
  643MOL0     H88681   5.872   4.758   3.877  0.3789  0.2352  0.5206
  643MOL0     H88682   5.826   4.644   3.753  0.7914 -0.6340  0.2985
  643MOL0     H88683   6.012   4.604   3.546 -0.9715  0.4123  1.6788
  643MOL0     H88684   6.205   4.543   3.446  0.4118 -1.9986 -1.5811
  643MOL0     H88685   6.257   4.418   3.548  2.5715  0.6861 -0.0330
  643MOL0     H88686   6.417   4.659   3.474 -1.9639  0.1979  0.5011
  643MOL0     H88687   6.467   4.546   3.614 -1.8502 -1.4918  1.1973
  643MOL0     H88688   6.449   4.345   3.460 -0.4945 -0.1730 -0.1361
  643MOL0     H88689   6.419   4.457   3.335 -0.5748  0.0254  0.5349
  643MOL0     H88690   6.663   4.495   3.520  2.4858 -1.9788  0.4701
  643MOL0     H88691   6.680   4.371   3.398 -1.3303 -0.8589  1.8662
  643MOL0     H88692   6.883   4.453   3.429  1.5224  1.7859  2.1859
  643MOL0     H88693   7.203   4.573   3.413 -2.5291  1.7289  0.7388
  643MOL0     H88694   7.193   4.409   3.340 -0.9319 -1.1032 -0.4356
  643MOL0     H88695   7.100   4.448   3.491  2.3453 -0.7166  0.0999
  643MOL0     H88696   7.353   4.587   2.878  0.0973  0.4564 -1.6659
  643MOL0     H88697   7.556   4.660   2.791 -1.1183 -2.1766  0.5497
  643MOL0     H88698   7.668   5.122   2.802  1.1278 -0.6587 -0.7116
  643MOL0     H88699   7.723   5.033   2.953  4.8663  1.1189  0.5147
  643MOL0     H88700   7.918   5.140   2.840 -1.1100  1.2457 -0.4117
  643MOL0     H88701   7.934   4.973   2.845 -0.2271  0.9606  2.0167
  643MOL0     H88702   7.865   5.139   2.608 -1.1165 -0.5616  0.5920
  643MOL0     H88703   7.839   4.955   2.598  0.6675 -1.1409  0.3640
  643MOL0     H88704   8.032   4.986   2.488 -0.2767  1.9080 -0.2323
  643MOL0     H88705   8.068   4.912   2.634  1.8821  0.9124  1.0244
  643MOL0     H88706   8.096   5.211   2.564  1.3612  0.9784  1.0354
  643MOL0     H88707   8.131   5.155   2.720  0.6563 -1.1624 -0.1486
  643MOL0     H88708   8.265   5.035   2.477 -3.7959 -0.0220 -0.9655
  643MOL0     H88709   8.282   4.967   2.632 -0.9613  0.5821  0.2121
  643MOL0     H88710   8.390   5.132   2.731  1.1623 -0.2983 -0.1655
  643MOL0     H88711   8.331   5.257   2.628 -2.3875 -0.4987  1.8466
  643MOL0     H88712   8.575   5.226   2.605 -2.0065  0.1364  2.1294
  643MOL0     H88713   8.498   5.181   2.450  0.5424 -0.4107 -0.9644
  643MOL0     H88714   7.498   5.058   2.961  0.1054  0.5389 -2.2400
  643MOL0     H88715   7.281   4.977   3.061 -0.6489 -0.0298  0.3916
  643MOL0     H88716   6.949   4.785   3.074 -0.7226  0.8773  0.4519
  643MOL0     H88717   6.724   4.711   3.140 -0.4264 -0.2803 -0.8456
  643MOL0     H88718   4.945   4.718   3.660  0.1110 -0.2261 -0.2870
  643MOL0     H88719   4.753   4.596   3.556 -1.9259  0.3480 -1.9155
  643MOL0     H88720   4.458   4.523   3.259 -1.2844  0.7006 -0.6444
  643MOL0     H88721   4.275   4.439   3.107 -1.3878 -3.6869 -1.8064
  643MOL0     H88722   4.316   4.096   2.901  2.1874  2.6721 -2.5734
  643MOL0     H88723   4.275   4.179   3.057 -1.9635 -1.0378  0.7791
  643MOL0     H88724   4.073   4.163   2.826 -2.3167 -0.2223 -0.0437
  643MOL0     H88725   4.055   4.205   3.004  1.4509 -0.1385  0.2284
  643MOL0     H88726   4.106   3.938   2.881 -0.4383  1.2737 -1.1418
  643MOL0     H88727   4.105   3.963   3.048 -2.6271 -1.0858  1.0835
  643MOL0     H88728   3.870   4.010   2.854 -0.1650  2.4694  1.0759
  643MOL0     H88729   3.857   4.040   3.024 -0.5382 -2.3708  2.0707
  643MOL0     H88730   3.803   3.622   3.011 -0.6473  0.1739 -0.5763
  643MOL0     H88731   4.539   4.291   2.827 -0.1034 -0.7951  0.5961
  643MOL0     H88732   4.836   4.292   2.972  0.0397 -0.4312 -0.6858
  643MOL0     H88733   4.759   4.346   2.833 -0.4580 -1.4129  0.7961
  643MOL0     H88734   4.838   4.463   2.944  3.1102 -3.7018  0.2197
  644MOL0     O88735  10.930   3.331   8.673  0.1728  0.3863 -0.2974
  644MOL0     C88736  10.962   3.448   8.657  0.6001 -0.3238  0.3862
  644MOL0     O88737  11.072   3.509   8.709 -0.3351  0.7615  0.2069
  644MOL0     C88738  11.169   3.426   8.780  0.4914 -0.0878 -0.8298
  644MOL0     C88739  11.186   3.431   8.920  0.5225  0.1848  0.2581
  644MOL0     C88740  11.287   3.359   8.984  0.0405  0.4634 -0.7958
  644MOL0     C88741  11.365   3.274   8.911  0.4065 -0.3085 -0.2113
  644MOL0     O88742  11.473   3.209   8.963  0.7725 -0.7887 -0.1430
  644MOL0     C88743  11.521   3.252   9.091 -0.1394 -0.1908 -0.9771
  644MOL0     C88744  11.656   3.188   9.121  0.5438  0.6068 -0.3871
  644MOL0     C88745  11.644   3.040   9.155  0.2889 -0.1591 -0.6707
  644MOL0     C88746  11.776   2.963   9.129  0.2406  0.3166  0.0887
  644MOL0     C88747  11.773   2.841   9.213 -0.1821 -0.6306  0.5318
  644MOL0     C88748  11.651   2.745   9.177  0.1567 -0.0351 -0.3760
  644MOL0     C88749  11.710   2.601   9.199  1.1570 -0.9910  0.1348
  644MOL0     C88750  11.601   2.499   9.145 -0.6889 -0.0541  0.1541
  644MOL0     N88751  11.656   2.361   9.147 -0.2233 -0.6149  0.3554
  644MOL0     C88752  11.699   2.296   9.257  0.2190  0.5675  0.3912
  644MOL0     C88753  11.782   2.196   9.211 -0.3691  0.3091 -0.0071
  644MOL0     C88754  11.830   2.088   9.298  0.2973  0.4094 -1.1351
  644MOL0     C88755  11.739   1.973   9.334  0.5972  0.4938 -0.7738
  644MOL0     C88756  11.676   1.895   9.214 -0.2526  0.7342  0.1674
  644MOL0     C88757  11.544   1.937   9.174  1.1102 -0.0347 -0.2870
  644MOL0     O88758  11.449   1.936   9.280  0.0498  0.6493  0.1361
  644MOL0     C88759  11.310   1.932   9.254  0.1841  0.8070 -0.6738
  644MOL0     C88760  11.248   1.970   9.137 -0.4593  0.3444  0.0869
  644MOL0     C88761  11.107   1.950   9.120  1.4044 -0.2334 -0.1738
  644MOL0     C88762  11.040   1.981   8.984 -0.1908  0.3156  0.1881
  644MOL0     C88763  11.031   1.913   9.232 -0.8099 -0.2216 -0.3308
  644MOL0     C88764  10.890   1.884   9.229  0.4755  0.4190 -0.2393
  644MOL0     O88765  10.832   1.916   9.344  0.0656 -0.5022 -0.0535
  644MOL0     C88766  10.698   1.888   9.350 -0.4908 -0.8333  0.0136
  644MOL0     C88767  10.647   1.814   9.457  0.6133 -0.3774 -0.4953
  644MOL0     C88768  10.508   1.781   9.462  0.1986  0.0038  0.2822
  644MOL0     C88769  10.420   1.848   9.371 -0.1471  0.7420  0.3528
  644MOL0     O88770  10.285   1.810   9.387 -0.0019  0.5354  0.1897
  644MOL0     C88771  10.190   1.913   9.352 -0.0334 -0.3998  0.4642
  644MOL0     C88772  10.048   1.890   9.390 -0.3862  0.5533  0.0045
  644MOL0     C88773   9.950   1.942   9.279  0.9154 -0.8414  0.3254
  644MOL0     C88774   9.812   1.954   9.339 -0.7524  1.0971 -0.2842
  644MOL0     C88775   9.706   1.979   9.229  0.2491 -0.4004  0.8319
  644MOL0     C88776   9.573   2.027   9.275  1.0248 -0.0856  0.0551
  644MOL0     C88777   9.467   1.913   9.307 -0.0331  0.6188  1.0209
  644MOL0     C88778   9.337   1.950   9.379 -0.4399  1.1791  0.6594
  644MOL0    Cl88779   9.238   2.073   9.281  0.5756 -0.2582  0.1241
  644MOL0     C88780  10.477   1.919   9.260 -0.6471  0.4744  0.6747
  644MOL0     C88781  10.615   1.937   9.254  0.1079 -0.6386 -0.1983
  644MOL0     O88782  10.845   1.811   9.140 -0.9000  0.5302  0.6787
  644MOL0     C88783  11.091   1.892   9.361  0.2952 -0.3289  0.0073
  644MOL0     C88784  11.230   1.899   9.369 -1.2595  0.2960 -0.1157
  644MOL0     N88785  11.812   2.216   9.080 -0.1380  0.0413 -0.0199
  644MOL0     N88786  11.733   2.315   9.041  0.1009 -0.2349  0.2654
  644MOL0     C88787  11.342   3.264   8.775 -0.1023 -0.3143  0.3203
  644MOL0     C88788  11.241   3.339   8.709 -0.4849  0.8754 -0.7507
  644MOL0     C88789  10.879   3.545   8.577 -0.2404 -0.0633 -0.1548
  644MOL0     C88790  10.948   3.653   8.511 -0.3470 -0.3939 -0.2474
  644MOL0     C88791  10.881   3.731   8.417 -0.1109 -0.0896 -0.7528
  644MOL0     C88792  10.751   3.711   8.382  0.4149 -0.4009  0.2564
  644MOL0     O88793  10.692   3.793   8.289  0.8174  0.0827 -0.3214
  644MOL0     C88794  10.559   3.849   8.316 -0.0364  0.3047  0.0488
  644MOL0     C88795  10.517   3.913   8.187 -0.7292  0.1158  0.5400
  644MOL0     C88796  10.366   3.950   8.185 -0.1030 -0.5603  0.0470
  644MOL0     C88797  10.314   4.045   8.287  0.4147 -0.2052  0.2815
  644MOL0     C88798  10.215   3.985   8.373  0.1481 -0.7955  0.1755
  644MOL0     C88799  10.131   3.929   8.431 -0.0853  0.2463  0.4776
  644MOL0     C88800  10.676   3.618   8.463 -0.2870 -0.3488 -0.4885
  644MOL0     C88801  10.739   3.533   8.548 -0.2467  0.3962 -1.1808
  644MOL0     C88802  10.652   3.428   8.617 -0.1799  0.1485  0.0554
  644MOL0     H88803  11.121   3.501   8.972  1.8248  2.8520 -1.4765
  644MOL0     H88804  11.303   3.386   9.088 -0.0744  1.5734 -1.0534
  644MOL0     H88805  11.457   3.217   9.173  0.0963  1.5741  0.0112
  644MOL0     H88806  11.531   3.361   9.101 -0.8850 -0.1339 -0.6973
  644MOL0     H88807  11.723   3.211   9.037  1.0393 -0.9311 -0.4337
  644MOL0     H88808  11.693   3.241   9.209 -0.0747  0.1414  0.1583
  644MOL0     H88809  11.622   3.049   9.262  1.5014  0.3021 -0.4358
  644MOL0     H88810  11.566   2.986   9.102  3.2807 -4.2477 -1.3612
  644MOL0     H88811  11.784   2.940   9.023  1.0886  1.7696 -0.1957
  644MOL0     H88812  11.860   3.031   9.148 -0.8842  3.1380 -3.8111
  644MOL0     H88813  11.778   2.857   9.321 -3.7578  2.2822  0.4409
  644MOL0     H88814  11.867   2.791   9.187  0.8088  1.8755 -1.0577
  644MOL0     H88815  11.572   2.755   9.251  2.0873  2.9685  1.5078
  644MOL0     H88816  11.626   2.751   9.071  1.6720  0.7813 -0.7178
  644MOL0     H88817  11.724   2.587   9.307 -2.5931 -0.3189  0.8243
  644MOL0     H88818  11.797   2.585   9.134 -1.4469 -1.8504 -3.4731
  644MOL0     H88819  11.520   2.506   9.218 -0.6864  1.0967  0.0557
  644MOL0     H88820  11.577   2.528   9.043  0.4886 -2.6647 -0.9637
  644MOL0     H88821  11.655   2.294   9.356  0.0649  0.4655  0.3223
  644MOL0     H88822  11.868   2.134   9.389  0.1032  2.0865 -1.8570
  644MOL0     H88823  11.922   2.056   9.249  1.6383  1.4818  0.5775
  644MOL0     H88824  11.799   1.892   9.377 -0.8103  0.4654  1.3247
  644MOL0     H88825  11.662   2.005   9.405  0.6918 -3.1491  1.2113
  644MOL0     H88826  11.743   1.904   9.128  1.8256  0.0559  1.6158
  644MOL0     H88827  11.675   1.788   9.237  1.0853  0.6516 -0.0353
  644MOL0     H88828  11.555   2.034   9.124  3.5610 -0.8091 -1.4106
  644MOL0     H88829  11.505   1.871   9.097 -0.0267 -2.2247  2.0311
  644MOL0     H88830  11.313   1.981   9.052  2.9843 -1.0979  2.3042
  644MOL0     H88831  10.969   2.059   9.013  2.0738  1.8588  1.9397
  644MOL0     H88832  10.991   1.889   8.950  2.2646 -0.9922 -0.0484
  644MOL0     H88833  11.101   2.026   8.906  1.2632 -0.4185  0.8583
  644MOL0     H88834  10.708   1.754   9.523 -0.1714 -0.9916 -0.3134
  644MOL0     H88835  10.468   1.708   9.531  1.0910  0.6023  1.4728
  644MOL0     H88836  10.216   2.014   9.385 -3.5145 -0.4077  3.9628
  644MOL0     H88837  10.187   1.914   9.242  0.0450  0.3291  0.4621
  644MOL0     H88838  10.038   1.781   9.398  2.0571  0.3403  1.0398
  644MOL0     H88839  10.034   1.934   9.489 -0.2466  0.5867  0.0092
  644MOL0     H88840   9.949   1.867   9.199  0.7207 -0.4025 -0.0844
  644MOL0     H88841   9.970   2.040   9.235 -2.0186  0.2867  1.3122
  644MOL0     H88842   9.796   2.021   9.425 -0.8596  2.3976 -1.2806
  644MOL0     H88843   9.786   1.859   9.386  1.6732 -0.0413 -1.0611
  644MOL0     H88844   9.744   2.055   9.160  2.1665  1.1984  3.4495
  644MOL0     H88845   9.689   1.891   9.166  2.3142 -1.0895  1.1742
  644MOL0     H88846   9.525   2.080   9.192 -3.6974 -5.0112 -0.9723
  644MOL0     H88847   9.588   2.096   9.359  0.4257  1.4173 -1.0168
  644MOL0     H88848   9.510   1.842   9.378 -2.0163 -1.5387  0.1780
  644MOL0     H88849   9.438   1.866   9.213  0.9406 -1.9133  1.9117
  644MOL0     H88850   9.365   1.989   9.477  0.5755 -1.7133  1.6120
  644MOL0     H88851   9.280   1.857   9.375  0.9655  0.2975  0.4246
  644MOL0     H88852  10.426   1.942   9.168 -3.4261  0.3261  2.0879
  644MOL0     H88853  10.653   2.010   9.182 -3.3032  3.1555  1.4433
  644MOL0     H88854  11.034   1.859   9.447 -0.4744  3.6248  1.2185
  644MOL0     H88855  11.283   1.884   9.463 -1.4420  2.0663  0.3202
  644MOL0     H88856  11.412   3.201   8.721  1.0637  1.0990  0.1094
  644MOL0     H88857  11.224   3.326   8.603 -2.3562 -1.0208 -0.2942
  644MOL0     H88858  11.055   3.672   8.517 -0.4825  0.3539 -0.1146
  644MOL0     H88859  10.944   3.794   8.354  1.8907 -1.6095 -0.3751
  644MOL0     H88860  10.481   3.774   8.333  1.6436 -1.2800  1.1510
  644MOL0     H88861  10.560   3.915   8.402 -1.2221  0.6947 -0.2223
  644MOL0     H88862  10.538   3.847   8.103 -1.8003  1.8642 -1.2040
  644MOL0     H88863  10.573   4.006   8.174 -0.9415  0.5135  2.1667
  644MOL0     H88864  10.341   3.995   8.088 -1.3384  0.2122  0.6934
  644MOL0     H88865  10.305   3.859   8.180 -0.4700 -0.3632  0.8927
  644MOL0     H88866  10.272   4.138   8.246  2.2767  0.6154  0.1409
  644MOL0     H88867  10.407   4.069   8.339  0.7109  0.4723 -0.5334
  644MOL0     H88868  10.048   3.878   8.475 -0.6321 -0.6246 -1.4295
  644MOL0     H88869  10.570   3.620   8.440 -0.1580  2.4713 -1.2877
  644MOL0     H88870  10.637   3.343   8.550 -0.6344 -0.1348  0.5086
  644MOL0     H88871  10.698   3.401   8.712 -0.3290 -0.1330  0.0488
  644MOL0     H88872  10.552   3.468   8.637  0.7894  2.0801  1.3286
  645MOL0     O88873   9.877   3.921   0.333  0.3875  0.3660  0.1768
  645MOL0     C88874   9.855   3.938   0.212  0.9535  0.0406  0.4422
  645MOL0     O88875   9.941   4.003   0.124  0.0111 -0.2940  1.0290
  645MOL0     C88876  10.064   4.012   0.177 -0.5837  1.1624 -0.5585
  645MOL0     C88877  10.091   4.097   0.292 -1.4782  0.3469  1.0270
  645MOL0     C88878  10.212   4.090   0.356 -0.7495  0.0492  0.4840
  645MOL0     C88879  10.323   4.024   0.287  0.4544  0.2043 -0.1718
  645MOL0     O88880  10.436   4.029   0.360  0.3335 -0.4382  0.5363
  645MOL0     C88881  10.524   3.917   0.343 -0.2526 -0.4513 -0.2100
  645MOL0     C88882  10.650   3.945   0.419  0.5550 -0.8958 -0.5080
  645MOL0     C88883  10.719   4.067   0.365  0.0220 -0.1243 -0.1937
  645MOL0     C88884  10.875   4.065   0.370  0.3778  0.4444  0.2422
  645MOL0     C88885  10.940   4.089   0.510 -0.1236  0.1487 -0.6802
  645MOL0     C88886  10.947   3.960   0.614  0.7619 -0.0921  0.5876
  645MOL0     C88887  11.045   3.990   0.729 -0.0502  0.2040  0.1200
  645MOL0     C88888  11.097   3.856   0.785  0.0215 -0.4270 -0.5774
  645MOL0     N88889  10.993   3.779   0.860 -0.5042  0.5911 -0.4367
  645MOL0     C88890  10.976   3.774   0.997 -0.0467  0.4610 -0.2697
  645MOL0     C88891  10.869   3.691   1.023  0.8876 -0.2196  0.0145
  645MOL0     C88892  10.808   3.653   1.152 -0.9422 -0.0792  0.3205
  645MOL0     C88893  10.722   3.773   1.203 -0.2324  0.8383 -0.8169
  645MOL0     C88894  10.733   3.794   1.353  0.2319  0.3770  0.5575
  645MOL0     C88895  10.843   3.900   1.379 -0.8252 -0.1172  0.9337
  645MOL0     O88896  10.966   3.857   1.320 -0.3317 -0.2215  0.3446
  645MOL0     C88897  11.072   3.946   1.334 -0.0722  0.9557  0.6708
  645MOL0     C88898  11.194   3.883   1.310 -0.0304  0.1684  0.6711
  645MOL0     C88899  11.314   3.950   1.290  0.3674  0.8110 -0.8143
  645MOL0     C88900  11.427   3.857   1.249 -0.3999  0.1680 -0.1313
  645MOL0     C88901  11.315   4.086   1.312  0.1865 -0.0830  0.5264
  645MOL0     C88902  11.437   4.165   1.290 -0.1508  0.7360 -0.0537
  645MOL0     O88903  11.556   4.102   1.311 -1.1223 -0.8264  0.0832
  645MOL0     C88904  11.673   4.158   1.261 -0.2834 -0.2307  0.7197
  645MOL0     C88905  11.716   4.290   1.290 -0.0354 -0.0926  0.0570
  645MOL0     C88906  11.835   4.341   1.243 -0.3267  0.8738  0.4339
  645MOL0     C88907  11.912   4.255   1.163 -0.6251 -0.1569 -0.4015
  645MOL0     O88908  12.029   4.316   1.117  0.2244  0.5235 -0.8198
  645MOL0     C88909  12.111   4.250   1.017 -0.1752  0.7363  0.1227
  645MOL0     C88910  12.205   4.341   0.948  0.7977  0.4949  1.2481
  645MOL0     C88911  12.303   4.260   0.861  0.3634  0.1192 -0.0781
  645MOL0     C88912  12.424   4.202   0.939 -0.4729 -0.6444 -0.1835
  645MOL0     C88913  12.545   4.161   0.844  0.4043 -0.0695 -0.9926
  645MOL0     C88914  12.510   4.039   0.767  0.5209 -0.1195 -0.1683
  645MOL0     C88915  12.599   4.018   0.643  0.7250 -0.7689  0.5775
  645MOL0     C88916  12.741   4.079   0.655 -0.4655  0.3165  0.8009
  645MOL0    Cl88917  12.838   3.999   0.779  0.0559  0.5732  0.1192
  645MOL0     C88918  11.869   4.125   1.128 -0.0938 -0.8915  0.1925
  645MOL0     C88919  11.749   4.075   1.180  0.0335  0.2391  0.5037
  645MOL0     O88920  11.424   4.283   1.267  0.2016 -0.0651  0.2096
  645MOL0     C88921  11.193   4.153   1.346  0.1820 -0.5062  0.3104
  645MOL0     C88922  11.075   4.085   1.356 -0.5779  0.1857 -0.4229
  645MOL0     N88923  10.817   3.661   0.898 -0.3747 -0.5003  0.0237
  645MOL0     N88924  10.889   3.711   0.804 -0.5987  0.3603 -0.4476
  645MOL0     C88925  10.299   3.940   0.178  0.2661 -0.1772  0.1747
  645MOL0     C88926  10.168   3.936   0.127 -0.2932 -0.4359  0.0242
  645MOL0     C88927   9.721   3.904   0.157 -0.4898  0.7575  0.1836
  645MOL0     C88928   9.605   3.928   0.235  0.5594  0.4419 -0.5500
  645MOL0     C88929   9.474   3.899   0.180 -0.0424 -0.0806 -0.3066
  645MOL0     C88930   9.457   3.851   0.054 -0.1335  0.4573  0.0600
  645MOL0     O88931   9.330   3.842   0.004  0.4115  0.4421 -0.2166
  645MOL0     C88932   9.326   3.793  -0.125  0.2566  0.2570  0.0457
  645MOL0     C88933   9.186   3.805  -0.179 -0.4860  0.3026 -0.0919
  645MOL0     C88934   9.068   3.717  -0.124  0.4240 -0.4799 -0.2733
  645MOL0     C88935   8.945   3.744  -0.216  0.4891 -0.2033 -0.4534
  645MOL0     C88936   8.821   3.676  -0.175  0.9226 -0.2836  0.1341
  645MOL0     C88937   8.725   3.621  -0.134  0.4510  0.3224  0.2156
  645MOL0     C88938   9.576   3.816  -0.017 -0.3873  0.2408  0.2592
  645MOL0     C88939   9.702   3.840   0.037  0.3718  0.0126  0.6057
  645MOL0     C88940   9.825   3.780  -0.034 -0.5756  0.5704 -0.1385
  645MOL0     H88941  10.012   4.164   0.328 -1.4303 -0.0406  1.8750
  645MOL0     H88942  10.222   4.149   0.446  0.8021  0.3533  0.1374
  645MOL0     H88943  10.550   3.910   0.237  2.0348 -1.9024  0.3783
  645MOL0     H88944  10.470   3.827   0.376 -0.7311  1.0429  3.6224
  645MOL0     H88945  10.631   3.949   0.527  1.8059  1.6085 -0.3078
  645MOL0     H88946  10.713   3.855   0.409 -1.4456 -2.3700 -0.4742
  645MOL0     H88947  10.688   4.075   0.261  1.7916 -2.9595 -1.0389
  645MOL0     H88948  10.687   4.164   0.406 -1.7333 -0.6148 -0.3429
  645MOL0     H88949  10.911   3.968   0.334 -1.6390  0.4000 -1.8640
  645MOL0     H88950  10.914   4.138   0.299  1.3303 -0.5904 -0.3357
  645MOL0     H88951  10.879   4.168   0.554 -0.4081 -0.8091  0.7173
  645MOL0     H88952  11.045   4.119   0.505  0.8948 -1.7178  3.9481
  645MOL0     H88953  10.843   3.943   0.644  0.2454  1.7638  0.0189
  645MOL0     H88954  10.983   3.872   0.560 -1.8582  0.4062 -2.2906
  645MOL0     H88955  10.994   4.046   0.808 -0.5742 -0.3458  0.1819
  645MOL0     H88956  11.130   4.047   0.693 -0.7143 -0.8228 -3.4728
  645MOL0     H88957  11.150   3.796   0.710 -0.7102 -2.7217  0.6581
  645MOL0     H88958  11.166   3.876   0.867 -2.0016 -1.2511  1.4271
  645MOL0     H88959  11.042   3.811   1.075  0.1078 -1.6662  0.6932
  645MOL0     H88960  10.877   3.613   1.227 -0.8492 -0.6528 -0.0682
  645MOL0     H88961  10.741   3.571   1.125  0.2471 -1.5252  1.5242
  645MOL0     H88962  10.739   3.866   1.149  1.8522  0.2159 -1.3338
  645MOL0     H88963  10.623   3.731   1.179  1.4279 -2.3902 -2.6427
  645MOL0     H88964  10.636   3.821   1.395 -1.9414 -0.1866 -3.5208
  645MOL0     H88965  10.762   3.697   1.394 -0.2638  0.5800  1.4201
  645MOL0     H88966  10.806   3.993   1.337 -0.1240 -0.1558  0.2197
  645MOL0     H88967  10.855   3.918   1.487  0.4599 -1.3675  1.0292
  645MOL0     H88968  11.193   3.775   1.299 -2.5566  0.2188 -0.2923
  645MOL0     H88969  11.493   3.895   1.171  2.7644 -2.3217  1.0827
  645MOL0     H88970  11.389   3.758   1.219  0.6368  0.5255 -2.9214
  645MOL0     H88971  11.493   3.833   1.333 -0.2570 -1.1046 -0.5765
  645MOL0     H88972  11.658   4.362   1.348 -0.0188 -0.0951  0.0771
  645MOL0     H88973  11.864   4.442   1.269 -0.2313  1.5092 -1.9003
  645MOL0     H88974  12.160   4.165   1.066 -1.1192 -0.3524 -0.7603
  645MOL0     H88975  12.039   4.216   0.942  0.3400  1.6506 -0.8177
  645MOL0     H88976  12.143   4.409   0.888  1.1647 -0.1574  0.1066
  645MOL0     H88977  12.258   4.403   1.021  1.7117  0.7389  0.3979
  645MOL0     H88978  12.351   4.323   0.786 -2.2054 -0.6422 -2.5151
  645MOL0     H88979  12.243   4.183   0.812  2.8621 -4.3154  3.1458
  645MOL0     H88980  12.403   4.114   1.000  2.3529 -1.3095 -0.0188
  645MOL0     H88981  12.462   4.281   1.004  0.8845 -1.1350 -0.3364
  645MOL0     H88982  12.568   4.247   0.781  3.2865  1.4143  1.8002
  645MOL0     H88983  12.633   4.147   0.908 -0.9618 -1.6625  0.6497
  645MOL0     H88984  12.406   4.035   0.732  0.7585 -4.0562 -0.9162
  645MOL0     H88985  12.529   3.959   0.838  2.5438  1.9566  1.8019
  645MOL0     H88986  12.550   4.064   0.557  1.6434 -2.5311 -0.9677
  645MOL0     H88987  12.607   3.913   0.612 -1.0333 -1.2470  1.6083
  645MOL0     H88988  12.742   4.187   0.672  1.9921  0.2057  1.8485
  645MOL0     H88989  12.797   4.069   0.561  0.9617 -0.7430  1.7084
  645MOL0     H88990  11.936   4.061   1.071 -1.8507 -2.8484  0.2030
  645MOL0     H88991  11.707   3.981   1.144  1.7086 -0.7031  0.9112
  645MOL0     H88992  11.194   4.259   1.366 -0.8776 -0.7164  1.5676
  645MOL0     H88993  10.981   4.128   1.389 -1.3384 -1.2034 -0.6939
  645MOL0     H88994  10.381   3.877   0.146 -1.2539 -2.3197  0.2456
  645MOL0     H88995  10.152   3.870   0.043 -3.1804  1.0025 -0.6987
  645MOL0     H88996   9.609   3.953   0.341  1.1426 -1.8161  0.0281
  645MOL0     H88997   9.394   3.929   0.248 -0.8004  1.7465 -1.9249
  645MOL0     H88998   9.380   3.845  -0.204 -1.9397  2.3592 -0.1781
  645MOL0     H88999   9.359   3.689  -0.131 -1.8971 -0.4926  0.2462
  645MOL0     H89000   9.186   3.786  -0.286 -0.4247 -0.8624  0.1073
  645MOL0     H89001   9.159   3.911  -0.165 -0.0981  0.5893 -1.3914
  645MOL0     H89002   9.103   3.613  -0.130 -0.5045 -0.7660 -1.2951
  645MOL0     H89003   9.053   3.749  -0.020 -1.7097  2.6721 -1.3846
  645MOL0     H89004   8.970   3.704  -0.314  2.4769 -0.9763  0.3225
  645MOL0     H89005   8.930   3.852  -0.214  1.6023  0.0582  3.6610
  645MOL0     H89006   8.646   3.561  -0.095  0.5984 -2.8590 -3.8145
  645MOL0     H89007   9.583   3.774  -0.116  5.3269 -4.1231  1.9104
  645MOL0     H89008   9.888   3.718   0.030 -1.7942 -3.1468 -2.2245
  645MOL0     H89009   9.788   3.717  -0.115 -1.3023 -0.2249  0.7782
  645MOL0     H89010   9.882   3.855  -0.090 -0.4693  0.0007 -0.7936
  646MOL0     O89011  10.056   1.793   8.396 -0.1090  0.4645  0.9030
  646MOL0     C89012  10.066   1.828   8.514 -0.6180  0.2031 -0.1288
  646MOL0     O89013  10.176   1.820   8.583  0.2518 -0.4978 -0.4486
  646MOL0     C89014  10.286   1.778   8.514 -0.9199 -0.3100 -0.0975
  646MOL0     C89015  10.370   1.865   8.446  1.1231 -0.1463 -0.1383
  646MOL0     C89016  10.491   1.817   8.409 -0.7842  0.4185 -0.4424
  646MOL0     C89017  10.533   1.684   8.418 -0.0920 -0.3217 -0.0622
  646MOL0     O89018  10.656   1.641   8.369  0.1559 -0.0034  0.4844
  646MOL0     C89019  10.697   1.677   8.237  0.2144  0.1003  0.0472
  646MOL0     C89020  10.824   1.618   8.188 -0.7432  0.8215  0.4145
  646MOL0     C89021  10.951   1.695   8.234  0.0666 -0.9582  0.0129
  646MOL0     C89022  11.076   1.615   8.218  0.5692 -0.1859  0.3533
  646MOL0     C89023  11.202   1.704   8.209 -0.2669 -0.2299  0.6315
  646MOL0     C89024  11.334   1.622   8.230  0.4024 -0.8834 -0.5133
  646MOL0     C89025  11.463   1.687   8.230 -0.4399 -1.0892  0.0454
  646MOL0     C89026  11.489   1.753   8.094  0.4299  0.1442 -0.1105
  646MOL0     N89027  11.598   1.850   8.125 -0.2749  0.1409  0.2315
  646MOL0     C89028  11.733   1.828   8.123 -0.3498 -0.4994 -0.1453
  646MOL0     C89029  11.783   1.957   8.160 -0.2180  0.1158  0.3376
  646MOL0     C89030  11.934   1.999   8.161  0.1893  0.5213 -0.4109
  646MOL0     C89031  12.003   1.969   8.031  0.2229 -0.0730  0.5300
  646MOL0     C89032  11.971   2.077   7.934  0.2280 -0.5059  0.0159
  646MOL0     C89033  12.007   2.067   7.783 -0.0926  0.3368 -1.6104
  646MOL0     O89034  12.134   1.998   7.780 -0.1029 -0.0384 -0.1227
  646MOL0     C89035  12.250   2.054   7.746  0.0543  0.5063 -0.5480
  646MOL0     C89036  12.354   1.978   7.700 -0.5670 -0.0022 -0.1053
  646MOL0     C89037  12.486   2.028   7.695  0.6439  0.3331 -0.3469
  646MOL0     C89038  12.589   1.920   7.656  0.8439 -0.5411  1.3384
  646MOL0     C89039  12.510   2.169   7.729 -0.0478  0.2298 -0.1204
  646MOL0     C89040  12.646   2.225   7.724  0.4585 -0.2704  0.2271
  646MOL0     O89041  12.671   2.343   7.796 -0.5920 -0.0851 -0.1656
  646MOL0     C89042  12.798   2.393   7.797  0.2857 -0.6374  0.5991
  646MOL0     C89043  12.852   2.417   7.925  0.4154 -0.3263 -0.8205
  646MOL0     C89044  12.973   2.480   7.941 -0.3964  0.0091  0.4931
  646MOL0     C89045  13.055   2.498   7.836 -0.7809 -0.0239  0.3640
  646MOL0     O89046  13.186   2.547   7.855  0.3087 -0.5636  0.4860
  646MOL0     C89047  13.230   2.597   7.981  0.2076 -0.2121  0.6805
  646MOL0     C89048  13.358   2.666   7.955 -1.1652  0.3931 -0.4376
  646MOL0     C89049  13.468   2.556   7.960  1.1679  0.4942  1.1698
  646MOL0     C89050  13.593   2.619   7.903  0.5767  0.3675 -0.5745
  646MOL0     C89051  13.726   2.569   7.962  0.2718  0.3809  0.1425
  646MOL0     C89052  13.849   2.596   7.874  0.5670 -0.4306 -0.2641
  646MOL0     C89053  13.925   2.718   7.911  0.9064  0.1454  0.9018
  646MOL0     C89054  14.049   2.723   7.817  0.5120 -1.0929 -0.3999
  646MOL0    Cl89055  14.177   2.591   7.838 -0.1755 -0.1514 -0.0527
  646MOL0     C89056  13.009   2.464   7.707 -0.3471  0.5548  0.2650
  646MOL0     C89057  12.877   2.421   7.688 -0.3945 -0.1935 -0.1776
  646MOL0     O89058  12.731   2.168   7.666  0.1637 -0.8015  0.4167
  646MOL0     C89059  12.403   2.241   7.771  0.6700 -0.3848 -0.2004
  646MOL0     C89060  12.274   2.186   7.770 -0.3848 -0.6122 -0.1483
  646MOL0     N89061  11.686   2.044   8.191  0.2513 -0.3839 -0.4253
  646MOL0     N89062  11.576   1.981   8.171 -0.3162 -0.3649  0.7984
  646MOL0     C89063  10.448   1.593   8.494  0.3766 -0.0984 -0.3989
  646MOL0     C89064  10.324   1.644   8.537  0.2125  0.0207  0.3207
  646MOL0     C89065   9.945   1.873   8.591 -0.1050 -0.6650  0.6542
  646MOL0     C89066   9.968   1.928   8.717  0.6754 -0.3649  0.5264
  646MOL0     C89067   9.868   1.963   8.798  0.9624  0.2368 -0.8311
  646MOL0     C89068   9.732   1.943   8.766  0.9340  0.7768 -0.8818
  646MOL0     O89069   9.646   2.008   8.858  0.3131  0.6139  0.5619
  646MOL0     C89070   9.501   2.025   8.825  0.4142 -0.0308 -0.1705
  646MOL0     C89071   9.433   1.894   8.849  0.5476  0.3606 -0.3112
  646MOL0     C89072   9.284   1.907   8.838 -0.5502 -0.0382 -0.0705
  646MOL0     C89073   9.209   1.783   8.887  0.4942  0.3902 -0.3657
  646MOL0     C89074   9.250   1.728   9.021  0.0523 -1.3149 -0.3156
  646MOL0     C89075   9.286   1.677   9.125 -0.5817 -0.1656 -0.6064
  646MOL0     C89076   9.711   1.881   8.640 -0.0445 -0.0577 -1.0860
  646MOL0     C89077   9.811   1.848   8.549 -0.7800 -0.3529 -0.5272
  646MOL0     C89078   9.763   1.767   8.433 -0.1987  0.7509  0.4652
  646MOL0     H89079  10.344   1.970   8.433 -2.2906 -1.0205 -1.6438
  646MOL0     H89080  10.557   1.886   8.359  0.3934  0.3597  0.9613
  646MOL0     H89081  10.719   1.783   8.223  0.3814 -0.2560 -2.9525
  646MOL0     H89082  10.619   1.645   8.168  2.1971 -2.3405 -1.2377
  646MOL0     H89083  10.831   1.516   8.226 -2.5886  0.7011  0.4862
  646MOL0     H89084  10.818   1.599   8.080 -0.1350  2.5290  0.0512
  646MOL0     H89085  10.963   1.781   8.168 -1.0048 -1.7234 -1.2240
  646MOL0     H89086  10.939   1.732   8.336  1.5062 -0.6487  0.0928
  646MOL0     H89087  11.077   1.547   8.303  0.6595 -1.4154 -0.5977
  646MOL0     H89088  11.076   1.557   8.125  1.4032  0.1863  0.1186
  646MOL0     H89089  11.185   1.779   8.287 -0.6813  0.9901 -0.5893
  646MOL0     H89090  11.194   1.769   8.122 -1.5839 -1.0813  0.0820
  646MOL0     H89091  11.333   1.554   8.315  1.5811  0.4783  0.6498
  646MOL0     H89092  11.332   1.563   8.138  0.4635 -0.6312 -0.6798
  646MOL0     H89093  11.543   1.618   8.256  0.1821 -2.1617 -4.1279
  646MOL0     H89094  11.457   1.769   8.302 -1.2910 -1.3680  0.3082
  646MOL0     H89095  11.534   1.688   8.019  2.4443  0.2653  0.9347
  646MOL0     H89096  11.401   1.802   8.051 -0.9958 -0.4782  1.9413
  646MOL0     H89097  11.776   1.736   8.086  0.9135  0.0680 -0.1286
  646MOL0     H89098  11.989   1.944   8.238 -1.3407  0.8393  0.9591
  646MOL0     H89099  11.944   2.103   8.193  0.7432  0.4259 -0.2683
  646MOL0     H89100  12.108   1.954   8.058 -0.3180  1.8211  4.3438
  646MOL0     H89101  11.978   1.873   7.984 -1.9167 -0.4576  2.2641
  646MOL0     H89102  11.872   2.122   7.945 -0.4335 -0.8204 -3.5019
  646MOL0     H89103  12.031   2.161   7.970 -2.6799  1.3517  0.7737
  646MOL0     H89104  11.930   2.004   7.737  0.3251 -2.1269  0.7820
  646MOL0     H89105  12.011   2.162   7.729  1.5676  0.8140 -0.7206
  646MOL0     H89106  12.349   1.872   7.678  2.6970 -0.3059  0.1444
  646MOL0     H89107  12.673   1.901   7.723  1.0640 -4.3007  0.2393
  646MOL0     H89108  12.643   1.954   7.567  1.3331  2.4196  2.6689
  646MOL0     H89109  12.545   1.821   7.637 -3.8912  1.4699  0.2507
  646MOL0     H89110  12.803   2.402   8.021  2.0438 -1.1985 -0.0838
  646MOL0     H89111  12.987   2.502   8.047  2.4605 -0.3325  0.2651
  646MOL0     H89112  13.158   2.667   8.022 -0.1453  1.2442 -2.1440
  646MOL0     H89113  13.242   2.518   8.055 -0.1071 -0.7348  0.1876
  646MOL0     H89114  13.356   2.707   7.853 -4.0536 -0.3923 -0.7658
  646MOL0     H89115  13.372   2.741   8.034 -1.2873  1.2855 -1.2432
  646MOL0     H89116  13.428   2.472   7.902  3.5190  1.6881 -2.5270
  646MOL0     H89117  13.480   2.525   8.065 -0.4561  0.7340  1.4424
  646MOL0     H89118  13.590   2.727   7.921  0.3579  0.2176  0.3603
  646MOL0     H89119  13.587   2.612   7.794  1.6900 -1.2617 -0.5546
  646MOL0     H89120  13.747   2.610   8.061  1.2427 -0.7727  0.4391
  646MOL0     H89121  13.718   2.460   7.971  0.5405  0.2380 -1.0890
  646MOL0     H89122  13.810   2.590   7.772 -2.2935 -0.3358  0.7226
  646MOL0     H89123  13.928   2.520   7.881  0.7181 -0.3460 -1.0118
  646MOL0     H89124  13.951   2.729   8.016  1.6473  1.6151  0.5978
  646MOL0     H89125  13.859   2.800   7.879 -0.0192 -1.0589 -0.4582
  646MOL0     H89126  14.111   2.812   7.826 -1.0282 -0.0334  0.0200
  646MOL0     H89127  14.008   2.708   7.716 -0.1858 -2.9552  0.1246
  646MOL0     H89128  13.088   2.470   7.632  3.6020 -0.0705  3.9549
  646MOL0     H89129  12.834   2.400   7.591 -1.9384  1.7974  0.0134
  646MOL0     H89130  12.432   2.341   7.802  0.7031 -0.8194  1.2555
  646MOL0     H89131  12.188   2.251   7.780 -0.7300 -0.2970 -3.8473
  646MOL0     H89132  10.461   1.486   8.506 -0.2543 -0.1591 -0.2318
  646MOL0     H89133  10.245   1.579   8.573  2.6748 -3.9388 -0.7937
  646MOL0     H89134  10.070   1.936   8.752 -0.3771 -0.4758  3.9251
  646MOL0     H89135   9.895   1.998   8.897  2.1078  0.9065 -1.3626
  646MOL0     H89136   9.462   2.103   8.891  0.3039  0.6873 -1.0658
  646MOL0     H89137   9.496   2.053   8.719  1.5564  0.4786 -0.1109
  646MOL0     H89138   9.455   1.869   8.953 -0.9013  1.9358  0.4300
  646MOL0     H89139   9.467   1.819   8.777 -0.3037 -0.1996 -0.1407
  646MOL0     H89140   9.239   1.987   8.897 -0.3338  0.5736 -0.7239
  646MOL0     H89141   9.268   1.936   8.734  1.0691  0.5588 -0.1813
  646MOL0     H89142   9.222   1.703   8.813  1.3030 -3.0392  3.1597
  646MOL0     H89143   9.103   1.799   8.905  1.0222  0.3253  3.7865
  646MOL0     H89144   9.320   1.621   9.210  0.7618  1.1273 -0.2414
  646MOL0     H89145   9.620   1.831   8.610  0.9478 -2.0937 -0.8839
  646MOL0     H89146   9.808   1.668   8.427 -3.0957 -0.5735 -2.4047
  646MOL0     H89147   9.656   1.758   8.415  0.0064  0.6288 -0.8128
  646MOL0     H89148   9.795   1.814   8.339 -1.6670 -1.1929 -1.0947
  647MOL0     O89149   3.341   1.892   0.107  0.5679 -0.3857 -0.0855
  647MOL0     C89150   3.392   1.800   0.046  0.2247 -0.3543 -0.1826
  647MOL0     O89151   3.321   1.687   0.017 -0.5048  0.0925  0.2826
  647MOL0     C89152   3.192   1.680   0.066  0.2682  0.9324 -0.2115
  647MOL0     C89153   3.101   1.783   0.037  0.0498 -0.7592 -0.4381
  647MOL0     C89154   2.965   1.753   0.062 -0.9195 -0.4374  0.6507
  647MOL0     C89155   2.923   1.630   0.113  0.5766 -0.2774 -0.4393
  647MOL0     O89156   2.785   1.617   0.114 -0.1232  0.1960  0.0857
  647MOL0     C89157   2.729   1.494   0.126 -0.2792 -0.2060  0.8521
  647MOL0     C89158   2.708   1.462   0.274 -0.4360 -0.0947 -0.0305
  647MOL0     C89159   2.629   1.333   0.291  0.1828  0.1799  0.0578
  647MOL0     C89160   2.562   1.306   0.426 -0.8069  0.5591  0.0305
  647MOL0     C89161   2.431   1.231   0.404 -0.7118 -0.9088 -0.3733
  647MOL0     C89162   2.346   1.186   0.521 -0.0078 -0.6561 -0.6191
  647MOL0     C89163   2.404   1.163   0.659 -0.2657 -0.9871 -0.5114
  647MOL0     C89164   2.298   1.098   0.751  0.0343 -1.1072  0.4274
  647MOL0     N89165   2.359   1.019   0.851 -0.1103 -0.2581  0.1558
  647MOL0     C89166   2.444   0.912   0.822 -0.3417 -0.1716 -1.0745
  647MOL0     C89167   2.495   0.887   0.950  0.1145  0.0260  1.0309
  647MOL0     C89168   2.584   0.772   0.974  0.3179  0.1023  0.4420
  647MOL0     C89169   2.732   0.799   0.917 -0.3615  0.2045 -0.1465
  647MOL0     C89170   2.804   0.896   1.007 -0.2520  0.7802 -0.4181
  647MOL0     C89171   2.954   0.893   0.969 -0.5506  0.6494  0.6332
  647MOL0     O89172   3.005   0.770   1.027  0.2035  0.0137 -0.2613
  647MOL0     C89173   3.130   0.734   0.994 -0.2563  0.4890 -0.5178
  647MOL0     C89174   3.149   0.597   1.012  0.4919  0.0999  0.2895
  647MOL0     C89175   3.263   0.540   0.954  0.3858  0.0649 -0.1443
  647MOL0     C89176   3.269   0.388   0.969 -1.3292 -0.2572  0.4341
  647MOL0     C89177   3.368   0.615   0.907 -0.4582 -0.4487  0.9032
  647MOL0     C89178   3.501   0.565   0.866 -0.4624  0.4860 -1.2175
  647MOL0     O89179   3.598   0.652   0.839 -0.1355 -0.2241  0.3767
  647MOL0     C89180   3.720   0.629   0.781 -0.2084 -0.0182  0.2385
  647MOL0     C89181   3.735   0.663   0.644 -0.2993 -0.0079 -0.0767
  647MOL0     C89182   3.869   0.673   0.593  0.5632  0.5538 -0.7352
  647MOL0     C89183   3.987   0.639   0.670  0.3453 -0.6508  0.1491
  647MOL0     O89184   4.112   0.662   0.628 -0.2059  0.4151 -0.4499
  647MOL0     C89185   4.139   0.624   0.497 -0.0323 -0.1074  0.3671
  647MOL0     C89186   4.287   0.659   0.476 -0.0618  0.2178  0.2972
  647MOL0     C89187   4.343   0.591   0.346 -0.3103  0.1858 -0.0619
  647MOL0     C89188   4.466   0.670   0.313  0.9441  0.0286 -0.4528
  647MOL0     C89189   4.572   0.600   0.228  0.1318  0.8055  0.4344
  647MOL0     C89190   4.694   0.691   0.206  0.1232  0.2464  0.7505
  647MOL0     C89191   4.785   0.636   0.099 -0.3610 -0.0839 -0.1357
  647MOL0     C89192   4.907   0.726   0.099 -0.3408  0.0046 -0.2710
  647MOL0    Cl89193   4.871   0.894   0.057  0.4715  0.5019  0.1877
  647MOL0     C89194   3.956   0.584   0.792 -0.0216 -0.1504 -0.1296
  647MOL0     C89195   3.828   0.573   0.851 -0.1227  0.1129  0.5321
  647MOL0     O89196   3.520   0.448   0.869  0.2603 -0.3556  0.1682
  647MOL0     C89197   3.350   0.752   0.902  0.3581 -0.6183 -0.2001
  647MOL0     C89198   3.230   0.815   0.949 -0.6395 -0.0147 -0.2982
  647MOL0     N89199   2.456   0.980   1.033 -0.0344  0.2209  0.0056
  647MOL0     N89200   2.368   1.057   0.980  0.1077  0.3472 -0.4969
  647MOL0     C89201   3.021   1.532   0.154 -0.3166 -0.6660  0.2974
  647MOL0     C89202   3.153   1.563   0.138  0.5985 -0.3054 -0.1615
  647MOL0     C89203   3.542   1.801   0.038  0.7487  0.4152  0.1954
  647MOL0     C89204   3.608   1.922   0.075  0.0051 -0.2535 -0.8831
  647MOL0     C89205   3.747   1.929   0.074  0.4615  0.4968  0.0703
  647MOL0     C89206   3.821   1.815   0.041 -0.8891 -0.4735 -0.1563
  647MOL0     O89207   3.955   1.831   0.063  0.3772 -0.4656  0.0917
  647MOL0     C89208   4.031   1.864  -0.058 -0.5528  0.5352  0.3273
  647MOL0     C89209   4.163   1.923  -0.011 -0.1882 -0.1639  0.4096
  647MOL0     C89210   4.245   1.824   0.065  0.5012  0.3960 -0.2617
  647MOL0     C89211   4.383   1.889   0.113 -0.3115 -1.3352  0.0061
  647MOL0     C89212   4.472   1.951   0.018 -0.1199 -0.0422 -0.0170
  647MOL0     C89213   4.544   2.001  -0.060 -0.4520 -0.0293  0.4301
  647MOL0     C89214   3.765   1.695   0.010  0.8216  0.6727  0.4255
  647MOL0     C89215   3.618   1.680   0.003 -0.0131 -0.8111 -0.1846
  647MOL0     C89216   3.574   1.538  -0.020  0.2978 -1.1352 -0.2634
  647MOL0     H89217   3.137   1.877  -0.003  0.3503 -0.5524  0.3124
  647MOL0     H89218   2.887   1.823   0.033 -1.8484 -0.7845  2.1918
  647MOL0     H89219   2.795   1.421   0.077  0.5394  1.6614 -0.9762
  647MOL0     H89220   2.634   1.489   0.072  0.2339 -1.1843  0.0108
  647MOL0     H89221   2.811   1.447   0.308 -0.2814 -3.5861 -1.7155
  647MOL0     H89222   2.660   1.545   0.328 -2.4666 -0.1344 -1.6633
  647MOL0     H89223   2.548   1.332   0.217  1.0152 -1.1699 -0.8867
  647MOL0     H89224   2.705   1.256   0.272 -1.2526 -1.3019  0.0686
  647MOL0     H89225   2.625   1.246   0.491 -2.9653 -2.1284 -0.1671
  647MOL0     H89226   2.555   1.402   0.478  3.0203  0.8204  0.3623
  647MOL0     H89227   2.465   1.139   0.356 -0.0028 -0.4723 -0.7182
  647MOL0     H89228   2.373   1.283   0.328 -1.2744 -0.6839  0.1985
  647MOL0     H89229   2.261   1.252   0.540 -0.1142 -0.7851 -0.6474
  647MOL0     H89230   2.310   1.088   0.486 -0.3583 -0.7473 -0.0178
  647MOL0     H89231   2.446   1.255   0.701 -0.9483  0.4732 -2.8490
  647MOL0     H89232   2.484   1.088   0.661 -0.2588 -0.9872  1.3719
  647MOL0     H89233   2.244   1.182   0.795 -2.4767 -1.2905 -2.0178
  647MOL0     H89234   2.227   1.041   0.689  2.3692 -1.9160 -1.6828
  647MOL0     H89235   2.458   0.864   0.726 -1.5176 -1.0899 -0.8117
  647MOL0     H89236   2.536   0.686   0.927 -0.4838 -0.0593  1.5179
  647MOL0     H89237   2.586   0.743   1.079 -1.2844 -0.8063  0.2417
  647MOL0     H89238   2.787   0.704   0.922  2.7135  1.8106 -0.9451
  647MOL0     H89239   2.744   0.837   0.815  1.4647 -0.2901 -0.1580
  647MOL0     H89240   2.770   1.000   1.007  1.9006  1.5380 -0.3311
  647MOL0     H89241   2.808   0.864   1.111  2.4531  1.5118 -0.2033
  647MOL0     H89242   2.964   0.877   0.861  2.7105 -1.4356  1.1068
  647MOL0     H89243   3.014   0.978   1.002 -0.5225  0.3346  1.4173
  647MOL0     H89244   3.065   0.538   1.047  1.0055  0.4273  2.1623
  647MOL0     H89245   3.174   0.334   0.974 -0.5677 -2.0799 -2.4231
  647MOL0     H89246   3.341   0.353   1.043 -0.2771 -2.3729 -1.4686
  647MOL0     H89247   3.317   0.347   0.879 -0.0751  1.3494  0.3278
  647MOL0     H89248   3.657   0.692   0.574  1.6885  1.4496 -1.8163
  647MOL0     H89249   3.882   0.714   0.493 -0.7404 -0.1695 -1.2336
  647MOL0     H89250   4.114   0.518   0.485 -0.4549 -0.0186  0.4511
  647MOL0     H89251   4.089   0.681   0.418 -0.3434 -1.6090 -0.5643
  647MOL0     H89252   4.300   0.767   0.478  0.3251  0.2126 -1.0433
  647MOL0     H89253   4.342   0.625   0.565  1.3599  2.0775  0.1763
  647MOL0     H89254   4.279   0.601   0.258 -0.5404  0.0613  0.0922
  647MOL0     H89255   4.361   0.485   0.366  1.9136  0.0853 -2.1279
  647MOL0     H89256   4.508   0.705   0.408 -1.4119 -0.0796  0.7031
  647MOL0     H89257   4.436   0.765   0.269  1.2817 -0.0736 -0.9064
  647MOL0     H89258   4.599   0.507   0.277 -0.3376  1.0883  1.2475
  647MOL0     H89259   4.527   0.573   0.132 -0.1778 -1.7573  1.2398
  647MOL0     H89260   4.751   0.713   0.297 -0.7626  1.5227  1.0187
  647MOL0     H89261   4.661   0.789   0.171 -1.9606 -0.9382 -0.8988
  647MOL0     H89262   4.741   0.619  -0.000 -0.9720  2.7532 -0.4383
  647MOL0     H89263   4.829   0.547   0.145  1.6748  1.5151  1.2415
  647MOL0     H89264   4.981   0.680   0.033  0.0868  0.6076 -0.2121
  647MOL0     H89265   4.960   0.731   0.194 -0.3460  0.5728 -0.2934
  647MOL0     H89266   4.039   0.556   0.856  0.4586  2.2182  0.4100
  647MOL0     H89267   3.809   0.541   0.953 -2.9682  1.8361  0.6591
  647MOL0     H89268   3.418   0.831   0.869 -0.9426  0.4403 -0.4227
  647MOL0     H89269   3.223   0.920   0.973 -0.6673 -0.5453  2.2855
  647MOL0     H89270   3.012   1.430   0.191 -2.4520 -0.6159  0.0602
  647MOL0     H89271   3.224   1.495   0.184  0.3080 -0.1894  0.4728
  647MOL0     H89272   3.556   2.010   0.112 -2.9970 -2.7894  1.4718
  647MOL0     H89273   3.798   2.021   0.104 -0.1496  1.7634 -2.4145
  647MOL0     H89274   4.047   1.780  -0.126 -0.4591  1.5585 -0.9545
  647MOL0     H89275   3.966   1.934  -0.112  0.0578  0.2854 -0.7765
  647MOL0     H89276   4.144   2.008   0.055  0.9877 -1.8351  3.0638
  647MOL0     H89277   4.210   1.961  -0.103 -1.6922  2.0323  0.4754
  647MOL0     H89278   4.183   1.796   0.150  0.6418  2.0503  0.4174
  647MOL0     H89279   4.274   1.735   0.009  1.4066 -0.1237  0.9836
  647MOL0     H89280   4.449   1.817   0.161  1.4226  0.3979  0.3429
  647MOL0     H89281   4.356   1.969   0.183 -1.9459 -0.3636 -1.6297
  647MOL0     H89282   4.608   2.036  -0.138 -2.2343 -0.0349 -1.1220
  647MOL0     H89283   3.832   1.610   0.004 -0.2797 -0.1423 -0.6649
  647MOL0     H89284   3.521   1.534  -0.116  1.8619  1.8463 -1.3788
  647MOL0     H89285   3.657   1.471  -0.041 -0.5639 -2.2620 -0.1725
  647MOL0     H89286   3.513   1.497   0.061 -2.4842 -0.0723 -1.6831
  648MOL0     O89287   4.104   7.949  11.080  0.0842  0.0324 -0.8481
  648MOL0     C89288   3.998   8.005  11.053 -0.2776  0.5795  1.1436
  648MOL0     O89289   3.982   8.107  10.970  0.2289 -0.7900 -0.2545
  648MOL0     C89290   4.065   8.131  10.864 -0.6974 -0.1259  0.7366
  648MOL0     C89291   4.022   8.084  10.741 -0.4321  1.2174  0.0273
  648MOL0     C89292   4.102   8.106  10.621 -0.1506  1.0886 -0.1497
  648MOL0     C89293   4.229   8.168  10.632  0.1663 -0.1134  0.1294
  648MOL0     O89294   4.319   8.170  10.529 -0.4994 -0.2879 -0.4667
  648MOL0     C89295   4.296   8.107  10.405  0.1990  0.6398  0.4306
  648MOL0     C89296   4.416   8.127  10.307  1.0968 -0.1450 -1.5289
  648MOL0     C89297   4.542   8.061  10.356 -1.0262 -0.1648 -0.3869
  648MOL0     C89298   4.669   8.088  10.275 -0.8465  0.1905  0.4021
  648MOL0     C89299   4.782   8.021  10.352  0.1641  0.0217  0.4256
  648MOL0     C89300   4.902   8.010  10.258 -0.4245 -0.1552  0.3087
  648MOL0     C89301   5.000   7.901  10.300 -0.3479 -0.3447  0.5538
  648MOL0     C89302   5.144   7.928  10.250 -0.4490  0.3072  0.7098
  648MOL0     N89303   5.234   7.812  10.243  0.1914  0.3341 -0.0379
  648MOL0     C89304   5.184   7.694  10.195 -0.2767  0.2255  0.2070
  648MOL0     C89305   5.277   7.602  10.237  0.2685  0.6202  0.3225
  648MOL0     C89306   5.282   7.452  10.194  0.1493 -0.1559 -0.4338
  648MOL0     C89307   5.212   7.368  10.295  0.0829  0.6891  0.3494
  648MOL0     C89308   5.302   7.307  10.405 -0.0029 -0.0725 -0.4289
  648MOL0     C89309   5.243   7.201  10.500  0.3334  0.3589  0.0911
  648MOL0     O89310   5.275   7.078  10.438 -0.4758 -0.0020 -0.3906
  648MOL0     C89311   5.360   7.009  10.517  0.2659 -0.1891 -0.2453
  648MOL0     C89312   5.301   6.934  10.622 -0.2909 -0.2433 -0.4938
  648MOL0     C89313   5.378   6.867  10.713 -0.2532  0.0543 -1.2261
  648MOL0     C89314   5.305   6.798  10.833 -0.0941  0.2654  0.9849
  648MOL0     C89315   5.522   6.878  10.701 -0.0026  0.2117 -0.6329
  648MOL0     C89316   5.613   6.812  10.796  0.0618 -0.7195  0.5929
  648MOL0     O89317   5.723   6.755  10.737 -0.1566  0.0142  1.1237
  648MOL0     C89318   5.820   6.690  10.816 -0.0947  0.5416  0.3607
  648MOL0     C89319   5.855   6.704  10.956 -0.7743 -0.2259 -0.6064
  648MOL0     C89320   5.949   6.619  11.010 -0.0401 -0.7001  0.1015
  648MOL0     C89321   6.017   6.528  10.933 -0.1308  0.1155 -0.2892
  648MOL0     O89322   6.106   6.440  10.994  0.7617 -0.5330  0.2770
  648MOL0     C89323   6.239   6.429  10.936  0.2421 -0.3478  0.0551
  648MOL0     C89324   6.323   6.329  11.016  0.0445 -0.1767  0.2163
  648MOL0     C89325   6.462   6.304  10.953 -0.8732 -0.1933 -0.4670
  648MOL0     C89326   6.565   6.422  10.963 -0.6675 -0.2029 -0.1037
  648MOL0     C89327   6.672   6.406  10.855  0.5838 -0.0673 -0.2924
  648MOL0     C89328   6.788   6.307  10.887  0.5022 -0.3150  0.3356
  648MOL0     C89329   6.914   6.320  10.790  0.6514  0.7251 -0.1704
  648MOL0     C89330   6.937   6.188  10.719 -0.6203  0.3205  0.7183
  648MOL0    Cl89331   6.973   6.070  10.845  0.5617 -0.0339 -0.0821
  648MOL0     C89332   5.983   6.513  10.801 -0.1001 -0.0487  0.2421
  648MOL0     C89333   5.885   6.588  10.740 -0.0179  0.4479 -0.5439
  648MOL0     O89334   5.588   6.806  10.915 -0.2486  0.7118  0.2265
  648MOL0     C89335   5.581   6.947  10.598  0.7396  0.2750 -0.6194
  648MOL0     C89336   5.496   7.009  10.501 -0.5010  0.4108  0.4060
  648MOL0     N89337   5.375   7.663  10.317  0.2600  0.8403 -0.0108
  648MOL0     N89338   5.343   7.792  10.326  0.6014  0.6124 -0.3069
  648MOL0     C89339   4.266   8.226  10.758  0.3538  0.8873  0.0297
  648MOL0     C89340   4.179   8.210  10.867  0.4948 -0.3952  0.2364
  648MOL0     C89341   3.874   7.958  11.121  0.1177 -0.4109  0.5056
  648MOL0     C89342   3.769   8.050  11.133 -0.6954  0.0740 -0.3133
  648MOL0     C89343   3.638   8.005  11.181 -0.1413 -0.6509 -0.3852
  648MOL0     C89344   3.619   7.881  11.244  0.1988 -0.2986  0.6426
  648MOL0     O89345   3.502   7.849  11.314 -0.0539 -0.0319  0.2566
  648MOL0     C89346   3.374   7.890  11.253 -0.6190  0.2145 -0.7726
  648MOL0     C89347   3.263   7.879  11.365  0.1633 -0.4452 -0.2304
  648MOL0     C89348   3.303   7.953  11.498 -0.1875  0.7829  0.0331
  648MOL0     C89349   3.222   8.075  11.503 -0.3968  0.3188  0.1848
  648MOL0     C89350   3.279   8.163  11.605  0.8533  0.7132  0.3545
  648MOL0     C89351   3.307   8.256  11.675 -0.4011  1.0594 -0.1465
  648MOL0     C89352   3.730   7.795  11.239  0.7489 -0.0084 -1.0898
  648MOL0     C89353   3.856   7.829  11.183  1.1257  0.2130 -0.0587
  648MOL0     C89354   3.949   7.713  11.154  0.4220 -0.3079 -0.4600
  648MOL0     H89355   3.936   8.018  10.729 -0.2125  0.8970  0.1898
  648MOL0     H89356   4.061   8.074  10.526  1.0357 -2.2198  0.3288
  648MOL0     H89357   4.205   8.146  10.359 -0.2781 -0.6095  0.2779
  648MOL0     H89358   4.281   8.001  10.427 -1.9935  1.2082  1.9675
  648MOL0     H89359   4.401   8.092  10.205 -1.3593 -0.2087 -1.2258
  648MOL0     H89360   4.438   8.234  10.311  1.7375 -0.2398  3.0081
  648MOL0     H89361   4.567   8.097  10.457 -0.3049  3.4086 -1.6998
  648MOL0     H89362   4.529   7.952  10.356 -0.7856 -0.2010 -1.5010
  648MOL0     H89363   4.655   8.053  10.172  1.8069 -0.2281  0.1287
  648MOL0     H89364   4.695   8.194  10.276  0.9093 -0.0903 -2.9388
  648MOL0     H89365   4.752   7.920  10.382  1.6012  0.2836  2.9787
  648MOL0     H89366   4.814   8.086  10.433 -0.6945  2.1005 -0.8156
  648MOL0     H89367   4.867   7.980  10.159 -3.0759  1.7810  0.5423
  648MOL0     H89368   4.962   8.100  10.249 -0.5087 -0.2165 -1.0921
  648MOL0     H89369   4.958   7.806  10.267 -1.1290  0.9301 -2.4999
  648MOL0     H89370   4.988   7.905  10.409 -0.5915  4.0946  0.5829
  648MOL0     H89371   5.140   7.955  10.144 -1.6180 -0.8689  0.4279
  648MOL0     H89372   5.190   8.015  10.298  1.5575 -0.2673 -0.1101
  648MOL0     H89373   5.095   7.678  10.135 -0.8223  2.3914  0.3616
  648MOL0     H89374   5.391   7.440  10.194 -0.0055 -1.9442 -0.3922
  648MOL0     H89375   5.239   7.437  10.095  1.1443 -0.1689 -0.8757
  648MOL0     H89376   5.129   7.418  10.347 -1.1319  0.3479 -1.1762
  648MOL0     H89377   5.166   7.286  10.240  2.1263  0.7938 -1.6478
  648MOL0     H89378   5.388   7.257  10.360 -1.5512 -1.1930 -2.2703
  648MOL0     H89379   5.344   7.389  10.464  1.2561 -0.6823 -0.4212
  648MOL0     H89380   5.290   7.213  10.598 -1.2968 -1.1883  1.1466
  648MOL0     H89381   5.135   7.217  10.515  0.5821 -0.3177  3.5690
  648MOL0     H89382   5.194   6.936  10.637 -0.2591 -0.0861 -0.2787
  648MOL0     H89383   5.349   6.828  10.928  1.3972  0.4302  0.2750
  648MOL0     H89384   5.307   6.690  10.818  1.2576  0.5667 -1.6421
  648MOL0     H89385   5.199   6.824  10.827 -0.3739 -0.9519  0.3077
  648MOL0     H89386   5.815   6.779  11.024 -2.9370 -0.4324 -1.5579
  648MOL0     H89387   5.973   6.629  11.115 -0.2413  2.3784 -0.0473
  648MOL0     H89388   6.233   6.416  10.828  0.3580  4.9869 -0.8768
  648MOL0     H89389   6.287   6.525  10.955  0.9799 -0.5044 -0.9361
  648MOL0     H89390   6.323   6.355  11.123  1.0544  1.9878 -0.2557
  648MOL0     H89391   6.263   6.237  11.019 -1.5173  0.7664 -0.8314
  648MOL0     H89392   6.447   6.284  10.846  2.3443  0.6325 -1.1667
  648MOL0     H89393   6.507   6.216  11.001 -0.0807  0.0692 -0.7104
  648MOL0     H89394   6.609   6.420  11.063 -0.5022  1.1883 -0.1271
  648MOL0     H89395   6.520   6.522  10.956  0.4413  0.5084  2.0922
  648MOL0     H89396   6.631   6.378  10.758  0.6388 -1.6537  0.1111
  648MOL0     H89397   6.708   6.506  10.830 -3.4468  0.7617 -4.0132
  648MOL0     H89398   6.740   6.211  10.870 -2.4705  0.7883  1.7260
  648MOL0     H89399   6.823   6.314  10.991 -2.0445  2.1859  1.1780
  648MOL0     H89400   7.004   6.346  10.847 -0.3742 -0.8231  2.3439
  648MOL0     H89401   6.894   6.390  10.710  2.1867 -1.2124 -2.3869
  648MOL0     H89402   7.022   6.195  10.651 -0.4399 -0.6078  0.8235
  648MOL0     H89403   6.845   6.163  10.665 -0.5866 -0.2219  0.9041
  648MOL0     H89404   6.031   6.441  10.735 -0.9004 -1.4085  1.0847
  648MOL0     H89405   5.862   6.582  10.634 -0.3587 -1.5863 -0.3907
  648MOL0     H89406   5.689   6.949  10.596  0.7955  0.7915  1.1377
  648MOL0     H89407   5.538   7.065  10.418 -1.2368  0.7088  0.2285
  648MOL0     H89408   4.360   8.277  10.777  0.7826 -0.1438  0.8357
  648MOL0     H89409   4.215   8.250  10.961 -0.0011  0.0320  0.2483
  648MOL0     H89410   3.779   8.155  11.107  1.2205  0.4768  1.7022
  648MOL0     H89411   3.557   8.076  11.194  2.1305  2.0415  0.1036
  648MOL0     H89412   3.367   7.993  11.215  1.1094  0.6979  0.1213
  648MOL0     H89413   3.353   7.817  11.175 -0.6039  0.4517 -1.0013
  648MOL0     H89414   3.250   7.773  11.389  3.7896 -0.7082  1.1837
  648MOL0     H89415   3.167   7.918  11.331 -0.2420  0.2719  1.6195
  648MOL0     H89416   3.264   7.895  11.582  0.6879  0.7591  0.4346
  648MOL0     H89417   3.410   7.962  11.517 -0.3371  1.9548  0.3470
  648MOL0     H89418   3.118   8.060  11.530 -0.1616  0.0055  0.9416
  648MOL0     H89419   3.228   8.134  11.411 -1.0676  1.2827  0.7321
  648MOL0     H89420   3.367   8.319  11.738 -0.7505  1.2982 -0.0487
  648MOL0     H89421   3.721   7.703  11.297 -0.9299  0.6513 -0.2550
  648MOL0     H89422   3.991   7.726  11.054 -2.8414  0.2318 -1.8917
  648MOL0     H89423   4.034   7.711  11.224  0.6073 -0.0413 -0.6759
  648MOL0     H89424   3.900   7.616  11.141  0.4646 -0.6032  1.3184
  649MOL0     O89425   9.473   7.453   8.710  0.2777  0.1095  0.3082
  649MOL0     C89426   9.462   7.539   8.795 -0.5938  0.6750  0.2460
  649MOL0     O89427   9.567   7.599   8.856 -0.0415 -0.0296  0.6764
  649MOL0     C89428   9.690   7.588   8.812 -0.0964 -0.3333 -0.4743
  649MOL0     C89429   9.725   7.607   8.681 -0.8408 -0.0030  0.9637
  649MOL0     C89430   9.863   7.620   8.636  0.0483 -0.1418  0.4738
  649MOL0     C89431   9.963   7.583   8.728 -0.1283  0.1066 -0.1377
  649MOL0     O89432  10.089   7.595   8.689 -0.7069  0.1438 -0.6934
  649MOL0     C89433  10.184   7.665   8.766  0.0926 -0.1248  0.3381
  649MOL0     C89434  10.287   7.723   8.667 -1.4141  0.5208  0.0048
  649MOL0     C89435  10.409   7.774   8.749 -0.2799  0.3346 -0.1389
  649MOL0     C89436  10.515   7.834   8.660 -0.6192  0.2429  0.3610
  649MOL0     C89437  10.611   7.912   8.749 -0.0681 -0.6983  0.3581
  649MOL0     C89438  10.735   7.934   8.666 -0.6898 -0.5358  0.3479
  649MOL0     C89439  10.850   7.999   8.744  0.6775 -0.3246 -0.0103
  649MOL0     C89440  10.958   8.034   8.633  1.2606 -0.2275 -0.3615
  649MOL0     N89441  11.070   8.089   8.707  1.2853 -0.3824 -0.7088
  649MOL0     C89442  11.076   8.214   8.765  0.5998 -0.0784 -0.6361
  649MOL0     C89443  11.196   8.209   8.833  0.8707 -0.7034  0.8802
  649MOL0     C89444  11.268   8.305   8.923 -0.0499  0.1219 -0.4964
  649MOL0     C89445  11.211   8.445   8.936 -0.8254  0.2435 -0.5446
  649MOL0     C89446  11.100   8.457   9.045  0.4714  0.5345 -0.1141
  649MOL0     C89447  11.042   8.595   9.054 -0.6526 -0.2413 -0.1676
  649MOL0     O89448  11.133   8.688   9.111 -0.4655 -0.7556  0.1657
  649MOL0     C89449  11.233   8.745   9.041  0.2329 -0.6678 -0.4201
  649MOL0     C89450  11.223   8.772   8.902 -0.3915 -0.0924 -0.5948
  649MOL0     C89451  11.325   8.847   8.840  0.1704  0.2070 -0.2008
  649MOL0     C89452  11.306   8.869   8.695  0.2432 -0.3314  0.4286
  649MOL0     C89453  11.439   8.885   8.920 -0.2058 -0.8314  0.6095
  649MOL0     C89454  11.570   8.936   8.860  0.2789 -0.3608  0.0724
  649MOL0     O89455  11.684   8.955   8.941  0.3378 -0.2374 -0.2002
  649MOL0     C89456  11.793   9.014   8.878  0.0830  0.3437 -0.1897
  649MOL0     C89457  11.875   8.958   8.780 -1.0350 -0.2458  0.7993
  649MOL0     C89458  11.982   9.035   8.731  0.3695 -0.5700  0.7221
  649MOL0     C89459  12.018   9.160   8.777  0.2518 -0.5722  0.3943
  649MOL0     O89460  12.136   9.219   8.732 -0.7049 -0.2101  0.4077
  649MOL0     C89461  12.194   9.334   8.795 -0.3979 -0.6404  0.1558
  649MOL0     C89462  12.323   9.385   8.742 -0.1548 -0.1034  0.2878
  649MOL0     C89463  12.349   9.529   8.783  0.5150  0.3760 -0.0215
  649MOL0     C89464  12.480   9.584   8.720 -0.8080  0.0574  0.6274
  649MOL0     C89465  12.533   9.694   8.809 -0.2033  0.6872 -0.4268
  649MOL0     C89466  12.682   9.734   8.772 -0.3126 -0.0113  0.4693
  649MOL0     C89467  12.732   9.835   8.879  0.3156 -0.8374  0.0813
  649MOL0     C89468  12.836   9.764   8.978  0.6994 -0.4344  1.0361
  649MOL0    Cl89469  12.750   9.641   9.068 -0.3389  0.0206  0.2052
  649MOL0     C89470  11.929   9.214   8.872 -0.0871  0.0207  0.0413
  649MOL0     C89471  11.820   9.145   8.921  0.2790 -0.7404  1.5061
  649MOL0     O89472  11.567   8.954   8.734 -0.0046 -0.0170  0.0855
  649MOL0     C89473  11.442   8.867   9.054 -0.2290 -0.0152  0.5422
  649MOL0     C89474  11.335   8.800   9.112  0.6552  0.0053 -0.4464
  649MOL0     N89475  11.254   8.091   8.816  1.1872 -0.1599 -0.0569
  649MOL0     N89476  11.172   8.019   8.752 -0.4710  0.0565  0.0207
  649MOL0     C89477   9.928   7.557   8.856 -0.1813  0.0986  0.7173
  649MOL0     C89478   9.796   7.564   8.904  0.8614  0.6943  0.6029
  649MOL0     C89479   9.328   7.563   8.852  0.0053  0.0362 -1.2982
  649MOL0     C89480   9.226   7.583   8.757  0.0195 -0.4914  0.1267
  649MOL0     C89481   9.097   7.615   8.796  0.6270  0.4035 -0.0075
  649MOL0     C89482   9.076   7.636   8.938  0.2813 -0.2394  0.3197
  649MOL0     O89483   8.957   7.676   8.993  0.1540  0.5487  0.0034
  649MOL0     C89484   8.855   7.756   8.927 -0.2249 -0.2538 -0.7584
  649MOL0     C89485   8.748   7.680   8.848  0.1408 -0.0527  0.2510
  649MOL0     C89486   8.657   7.787   8.793 -0.2354  0.0464  0.3228
  649MOL0     C89487   8.557   7.731   8.702 -0.4415 -0.0631 -0.1815
  649MOL0     C89488   8.465   7.826   8.648 -0.5419  0.6126  0.1531
  649MOL0     C89489   8.381   7.893   8.598 -0.0617 -0.4165 -0.8033
  649MOL0     C89490   9.172   7.605   9.032  0.2524 -0.5036  0.4318
  649MOL0     C89491   9.304   7.569   8.991  0.9835 -0.0265  0.0191
  649MOL0     C89492   9.408   7.552   9.097  0.1456 -0.2647  0.4281
  649MOL0     H89493   9.648   7.621   8.606  1.7031  0.8068 -1.6787
  649MOL0     H89494   9.888   7.640   8.532  3.4118 -2.7679  0.5884
  649MOL0     H89495  10.225   7.598   8.842 -1.7167 -0.1688  1.3408
  649MOL0     H89496  10.142   7.751   8.819 -2.1924 -0.8288 -0.1838
  649MOL0     H89497  10.314   7.641   8.599  0.3467  2.5624 -1.9192
  649MOL0     H89498  10.245   7.806   8.610 -0.6589  2.1597  1.7173
  649MOL0     H89499  10.362   7.850   8.812 -3.6284  1.6238 -3.7685
  649MOL0     H89500  10.457   7.692   8.805 -1.5920 -0.5761 -0.3073
  649MOL0     H89501  10.569   7.752   8.612 -2.6330 -0.9788  0.0316
  649MOL0     H89502  10.464   7.897   8.587 -1.2078  3.6174  3.4126
  649MOL0     H89503  10.627   7.847   8.835  2.8520 -2.1294 -1.1209
  649MOL0     H89504  10.570   8.008   8.782  2.6286  1.4482 -1.9948
  649MOL0     H89505  10.775   7.848   8.611 -0.7836 -0.5413  0.2868
  649MOL0     H89506  10.704   7.994   8.580 -1.4901 -2.5108 -0.8016
  649MOL0     H89507  10.883   7.924   8.817 -2.1886 -1.4914  0.2186
  649MOL0     H89508  10.807   8.088   8.791  1.6414 -0.5331  1.3428
  649MOL0     H89509  10.982   7.939   8.583  2.7942 -0.1142  0.1097
  649MOL0     H89510  10.914   8.103   8.560 -1.4297 -2.9295 -1.5028
  649MOL0     H89511  11.026   8.309   8.746 -0.7620 -0.6103  0.2052
  649MOL0     H89512  11.372   8.311   8.891  0.6032  0.0822  1.4718
  649MOL0     H89513  11.275   8.258   9.022  1.1237  0.2043 -0.5274
  649MOL0     H89514  11.287   8.517   8.967 -1.6446  0.7037  0.4835
  649MOL0     H89515  11.174   8.483   8.840 -0.5247  2.8076  0.2737
  649MOL0     H89516  11.017   8.395   9.007 -0.0252  2.9983 -3.5395
  649MOL0     H89517  11.141   8.438   9.144  0.6175  2.9782  0.3465
  649MOL0     H89518  10.993   8.629   8.963 -0.7639  3.9278  1.2199
  649MOL0     H89519  10.963   8.586   9.129 -0.0092 -1.0616  0.4334
  649MOL0     H89520  11.143   8.734   8.840  0.2392  1.6721 -2.5953
  649MOL0     H89521  11.304   8.978   8.682 -0.3559 -0.0725  2.3266
  649MOL0     H89522  11.206   8.846   8.660  1.5088 -0.9599 -3.1449
  649MOL0     H89523  11.378   8.817   8.632 -1.4401 -1.9531 -0.2310
  649MOL0     H89524  11.855   8.858   8.743 -0.2912 -0.1228  0.0440
  649MOL0     H89525  12.043   8.998   8.650  1.5189  1.0290  0.8043
  649MOL0     H89526  12.120   9.415   8.795  0.3940  0.1122  1.4250
  649MOL0     H89527  12.224   9.309   8.897 -0.4948 -0.7377  0.1600
  649MOL0     H89528  12.408   9.323   8.774  0.6804  1.4588  1.2500
  649MOL0     H89529  12.328   9.374   8.634  2.7632  1.0851  0.1987
  649MOL0     H89530  12.360   9.539   8.892  0.1779  1.9019 -0.1011
  649MOL0     H89531  12.267   9.597   8.757 -1.5007 -1.5418  0.9906
  649MOL0     H89532  12.459   9.626   8.620 -1.2411 -0.2197  0.5999
  649MOL0     H89533  12.549   9.503   8.699 -1.9793 -0.7307 -0.3411
  649MOL0     H89534  12.463   9.777   8.798  0.2610  1.4743  1.8421
  649MOL0     H89535  12.531   9.661   8.914  2.0100  1.8851  0.0494
  649MOL0     H89536  12.679   9.786   8.676 -3.0373 -0.4033  0.2594
  649MOL0     H89537  12.744   9.645   8.762 -0.5923  0.0686 -3.1042
  649MOL0     H89538  12.645   9.880   8.927  0.5738 -0.0384 -0.1886
  649MOL0     H89539  12.787   9.911   8.823  1.4351 -2.1013 -0.6176
  649MOL0     H89540  12.884   9.842   9.037  1.4136  2.7693 -3.2523
  649MOL0     H89541  12.918   9.708   8.933  1.2075  0.2644  1.0791
  649MOL0     H89542  11.935   9.307   8.927  0.2893 -0.3065  0.5572
  649MOL0     H89543  11.759   9.195   8.996 -0.6890 -0.9566  0.8764
  649MOL0     H89544  11.523   8.885   9.124 -0.6267 -1.4409  1.4082
  649MOL0     H89545  11.323   8.788   9.219 -0.7507 -1.7546 -0.7583
  649MOL0     H89546   9.992   7.526   8.938  0.5166  0.1447  0.2023
  649MOL0     H89547   9.776   7.552   9.010 -0.1544  2.1177  0.6045
  649MOL0     H89548   9.256   7.577   8.652 -0.4548 -1.0056  0.0105
  649MOL0     H89549   9.012   7.612   8.728 -1.1509 -1.5605  2.1288
  649MOL0     H89550   8.795   7.790   9.012 -1.6958  1.7642 -2.4967
  649MOL0     H89551   8.895   7.848   8.883 -0.1458 -0.8990 -2.0765
  649MOL0     H89552   8.700   7.603   8.910 -0.6926 -0.1965 -0.5615
  649MOL0     H89553   8.795   7.616   8.773  0.6274  0.0768  0.4381
  649MOL0     H89554   8.613   7.842   8.876 -1.4572  2.9639 -2.0611
  649MOL0     H89555   8.717   7.848   8.724  2.2683 -2.3094  0.2264
  649MOL0     H89556   8.492   7.668   8.763  0.3082 -0.5771  0.1123
  649MOL0     H89557   8.599   7.670   8.622 -2.6993 -0.1371 -1.3733
  649MOL0     H89558   8.302   7.951   8.555  2.3693  1.3491 -3.2016
  649MOL0     H89559   9.142   7.619   9.135  3.0319 -1.7387  1.4843
  649MOL0     H89560   9.463   7.645   9.115  0.4434 -0.1756 -0.8556
  649MOL0     H89561   9.357   7.514   9.186  2.0742 -3.3146  0.4044
  649MOL0     H89562   9.482   7.476   9.073 -0.5006 -0.2560 -1.7661
  650MOL0     O89563   6.636   3.530   3.175  0.7534 -0.3779  0.2127
  650MOL0     C89564   6.588   3.645   3.177  0.2741  0.3430  0.6636
  650MOL0     O89565   6.651   3.752   3.127 -0.5368 -0.2370  0.4498
  650MOL0     C89566   6.783   3.737   3.102 -0.1046  0.7196  0.6482
  650MOL0     C89567   6.881   3.787   3.193 -0.0185 -0.1771  0.9905
  650MOL0     C89568   7.014   3.762   3.165 -0.1182  0.3170 -0.2841
  650MOL0     C89569   7.055   3.703   3.045 -0.0475 -0.6678  0.6277
  650MOL0     O89570   7.185   3.680   3.003  0.2664 -0.3120 -0.0408
  650MOL0     C89571   7.274   3.797   2.990 -0.1290 -0.3225  0.1464
  650MOL0     C89572   7.419   3.747   2.962 -0.1111  0.8083 -0.1559
  650MOL0     C89573   7.524   3.857   2.922  0.3120  0.3681  0.1140
  650MOL0     C89574   7.532   3.951   3.038  0.7314 -0.2259 -0.5458
  650MOL0     C89575   7.676   3.993   3.056 -0.3615 -0.0627  0.2909
  650MOL0     C89576   7.766   3.883   3.121 -0.3603 -1.0011  0.2586
  650MOL0     C89577   7.913   3.926   3.132 -0.8064  0.0309 -0.2021
  650MOL0     C89578   7.936   4.057   3.220  0.0346  0.0666  0.4134
  650MOL0     N89579   8.077   4.094   3.251  0.1052 -0.5921 -0.3141
  650MOL0     C89580   8.139   4.216   3.231  0.1652 -0.4503  0.7615
  650MOL0     C89581   8.230   4.230   3.332  0.0788  0.2884 -0.7555
  650MOL0     C89582   8.330   4.340   3.368 -0.2712  0.5669  0.5138
  650MOL0     C89583   8.303   4.473   3.299  0.2737 -0.0802  0.4644
  650MOL0     C89584   8.383   4.583   3.369  0.4392  0.6274 -0.1356
  650MOL0     C89585   8.520   4.604   3.299 -0.3391 -0.6946  0.7648
  650MOL0     O89586   8.623   4.554   3.388  0.3461  0.1090 -0.5784
  650MOL0     C89587   8.753   4.587   3.353  0.6494 -0.0156 -0.3743
  650MOL0     C89588   8.788   4.686   3.265 -0.6548 -0.1741 -0.3803
  650MOL0     C89589   8.924   4.710   3.229 -0.2865 -0.5870 -0.5628
  650MOL0     C89590   8.958   4.810   3.120  0.4155 -0.7428  0.3720
  650MOL0     C89591   9.024   4.635   3.305 -0.1516  0.9648 -0.1264
  650MOL0     C89592   9.167   4.640   3.273 -0.3420 -0.3424  0.4797
  650MOL0     O89593   9.246   4.725   3.343 -0.4420  0.5935 -0.1369
  650MOL0     C89594   9.380   4.727   3.302 -0.3437 -0.4168 -0.2770
  650MOL0     C89595   9.421   4.777   3.183 -0.1512 -0.5483  0.2736
  650MOL0     C89596   9.560   4.771   3.155  0.6551 -0.9499 -0.0162
  650MOL0     C89597   9.655   4.737   3.253 -0.0568  0.6215  0.6576
  650MOL0     O89598   9.791   4.729   3.217 -0.5731 -0.2918 -1.0466
  650MOL0     C89599   9.892   4.753   3.325 -0.1551 -0.1963  0.5358
  650MOL0     C89600  10.034   4.717   3.279  0.1383  0.4807  0.3049
  650MOL0     C89601  10.076   4.806   3.168  0.0442  0.1076 -0.3392
  650MOL0     C89602  10.222   4.791   3.113  0.3541 -0.5349  0.0310
  650MOL0     C89603  10.280   4.656   3.077 -0.1372 -0.8364  0.1983
  650MOL0     C89604  10.440   4.646   3.097 -0.1703  0.6355 -0.6403
  650MOL0     C89605  10.472   4.495   3.086  0.1937 -0.0548 -0.0014
  650MOL0     C89606  10.626   4.456   3.102  0.6698 -0.6234  0.2809
  650MOL0    Cl89607  10.629   4.288   3.064 -0.2936  0.2869 -0.2932
  650MOL0     C89608   9.609   4.702   3.383 -0.5055 -0.0875 -0.2089
  650MOL0     C89609   9.470   4.693   3.412  0.1991 -0.1879  0.1791
  650MOL0     O89610   9.203   4.566   3.176 -0.5945  0.0220  0.0057
  650MOL0     C89611   8.983   4.538   3.398 -0.1606  0.0008 -0.9572
  650MOL0     C89612   8.846   4.517   3.418 -1.3512  0.4112  0.2935
  650MOL0     N89613   8.233   4.108   3.395 -0.0517 -0.0880 -0.9397
  650MOL0     N89614   8.141   4.032   3.354  0.9577 -0.1611 -0.0517
  650MOL0     C89615   6.962   3.645   2.958 -0.2521  0.1655  0.2098
  650MOL0     C89616   6.828   3.670   2.986 -0.2862  0.2454 -0.7752
  650MOL0     C89617   6.448   3.673   3.220 -0.5770  0.0624 -0.0379
  650MOL0     C89618   6.422   3.804   3.254 -0.0986 -0.2447 -0.3672
  650MOL0     C89619   6.296   3.835   3.297  0.6044  0.3254  0.2796
  650MOL0     C89620   6.189   3.742   3.306 -0.7295  0.4039  0.6439
  650MOL0     O89621   6.075   3.792   3.351  0.8354 -0.0082 -0.1026
  650MOL0     C89622   5.964   3.708   3.397 -0.5190  0.1050  0.0139
  650MOL0     C89623   5.862   3.772   3.486 -0.0107  0.4704 -0.6483
  650MOL0     C89624   5.752   3.689   3.547  0.4499 -0.0362  0.6539
  650MOL0     C89625   5.669   3.617   3.435 -0.5990 -0.4382 -0.0008
  650MOL0     C89626   5.580   3.697   3.346  0.2786  0.1066 -0.2175
  650MOL0     C89627   5.497   3.772   3.292  0.0640  0.2100  0.6727
  650MOL0     C89628   6.217   3.611   3.275  0.2224  0.2589  0.4278
  650MOL0     C89629   6.346   3.571   3.234  0.6309  0.1095 -0.2908
  650MOL0     C89630   6.363   3.430   3.200  0.3781 -0.2450  0.2412
  650MOL0     H89631   6.843   3.824   3.287 -2.5315 -2.6804  1.1252
  650MOL0     H89632   7.091   3.787   3.236 -0.3103 -1.8737  0.7888
  650MOL0     H89633   7.273   3.853   3.084  4.8845  0.2788  0.0975
  650MOL0     H89634   7.238   3.861   2.908 -3.6347  0.7171  2.2613
  650MOL0     H89635   7.442   3.685   3.049  0.1330  1.4704  0.2548
  650MOL0     H89636   7.418   3.679   2.876 -1.3970 -1.3553  1.4717
  650MOL0     H89637   7.613   3.795   2.906 -0.5235 -1.3139  1.5873
  650MOL0     H89638   7.492   3.903   2.828 -1.0658 -1.9873 -0.6794
  650MOL0     H89639   7.473   4.040   3.013  1.1925  0.5838  1.0869
  650MOL0     H89640   7.498   3.909   3.133 -0.3635  1.8158  0.0334
  650MOL0     H89641   7.670   4.090   3.106 -0.2716  0.4633 -0.6955
  650MOL0     H89642   7.715   4.021   2.958  0.5151  0.2813  0.7247
  650MOL0     H89643   7.719   3.870   3.219  0.4443  0.8875  0.9561
  650MOL0     H89644   7.767   3.789   3.066  1.8088 -1.6019  1.2105
  650MOL0     H89645   7.954   3.952   3.034 -1.7186 -0.6166 -0.7587
  650MOL0     H89646   7.964   3.839   3.175  1.0715 -0.1801 -2.6745
  650MOL0     H89647   7.888   4.141   3.169  0.4076 -1.8945 -3.6011
  650MOL0     H89648   7.890   4.032   3.316  0.6989  0.3087  0.7947
  650MOL0     H89649   8.113   4.290   3.157  0.6640 -0.8568  0.1620
  650MOL0     H89650   8.431   4.309   3.342 -0.9901 -3.3806  1.6989
  650MOL0     H89651   8.326   4.359   3.476  0.5109  1.6346  0.3716
  650MOL0     H89652   8.331   4.461   3.193  0.9645 -2.9723  0.8897
  650MOL0     H89653   8.201   4.511   3.310 -0.3799 -1.1262 -1.3667
  650MOL0     H89654   8.321   4.673   3.362 -1.1404 -0.3400  0.9936
  650MOL0     H89655   8.396   4.562   3.475  1.1578 -1.2658 -0.5530
  650MOL0     H89656   8.521   4.547   3.206 -3.4022 -1.3599  1.0433
  650MOL0     H89657   8.527   4.712   3.282  2.4108 -1.2429 -2.6353
  650MOL0     H89658   8.716   4.746   3.210  0.6135  0.7040 -1.1311
  650MOL0     H89659   9.035   4.882   3.152 -0.9965  0.2941  1.5983
  650MOL0     H89660   8.867   4.870   3.109  0.4357 -1.0128 -1.5246
  650MOL0     H89661   8.972   4.754   3.028 -0.9078  0.1579 -0.4043
  650MOL0     H89662   9.354   4.802   3.102 -0.7139  0.7730  1.1159
  650MOL0     H89663   9.595   4.783   3.053 -1.3991 -2.0084 -0.8942
  650MOL0     H89664   9.887   4.859   3.352  1.6856  0.0773 -0.0552
  650MOL0     H89665   9.864   4.690   3.410  2.2745 -1.2938  0.5910
  650MOL0     H89666  10.109   4.712   3.359 -0.1006 -0.4614  0.4752
  650MOL0     H89667  10.032   4.618   3.232 -3.2950  1.6270 -2.3772
  650MOL0     H89668  10.081   4.907   3.211 -0.5998  0.5392 -1.2476
  650MOL0     H89669  10.013   4.809   3.079  2.9064  0.5580 -2.5147
  650MOL0     H89670  10.281   4.826   3.199  1.1271 -1.5750 -0.0569
  650MOL0     H89671  10.235   4.862   3.030  0.6658  0.1601  0.6607
  650MOL0     H89672  10.234   4.583   3.144 -2.1998 -0.2659 -0.5228
  650MOL0     H89673  10.260   4.629   2.973  2.6836 -0.2113 -0.6102
  650MOL0     H89674  10.463   4.678   3.199 -2.5114 -0.3492  0.2784
  650MOL0     H89675  10.493   4.713   3.028  0.4146 -0.2012 -1.0326
  650MOL0     H89676  10.442   4.459   2.987 -0.1084 -0.6191  0.2928
  650MOL0     H89677  10.407   4.448   3.160 -0.8648  2.3373  0.6781
  650MOL0     H89678  10.652   4.481   3.205 -0.0530 -2.6744  1.0021
  650MOL0     H89679  10.688   4.519   3.036 -1.2063  2.6989  1.4513
  650MOL0     H89680   9.671   4.684   3.470  0.1719  1.9776 -0.2129
  650MOL0     H89681   9.438   4.670   3.513  0.0926  1.6128  0.5919
  650MOL0     H89682   9.055   4.477   3.452 -1.7958 -2.4381 -1.4031
  650MOL0     H89683   8.817   4.452   3.499  0.0835  0.4383  0.8597
  650MOL0     H89684   6.988   3.601   2.862 -1.0904 -1.4954  0.6859
  650MOL0     H89685   6.756   3.634   2.912 -1.6871  0.1727  0.5556
  650MOL0     H89686   6.502   3.877   3.262  1.3945 -1.7243 -1.2672
  650MOL0     H89687   6.273   3.942   3.299  1.0533  0.4201  0.5829
  650MOL0     H89688   5.914   3.691   3.301 -2.5150 -3.2154  1.4432
  650MOL0     H89689   5.996   3.613   3.442 -1.0305  0.2576  0.7017
  650MOL0     H89690   5.812   3.848   3.426  1.4582  0.6763 -1.6512
  650MOL0     H89691   5.915   3.815   3.571 -0.6987  0.2978 -0.1278
  650MOL0     H89692   5.784   3.616   3.622  1.6543 -0.3682 -0.1492
  650MOL0     H89693   5.689   3.761   3.600  0.4311  0.1567  0.3732
  650MOL0     H89694   5.612   3.540   3.487  0.3494 -1.8863 -1.0346
  650MOL0     H89695   5.740   3.564   3.372 -1.1128 -0.0501 -0.9351
  650MOL0     H89696   5.435   3.820   3.219  0.2945  0.6452  0.7645
  650MOL0     H89697   6.132   3.544   3.282  0.5400 -0.7250 -3.0299
  650MOL0     H89698   6.378   3.433   3.092 -3.4127  0.6986 -0.4044
  650MOL0     H89699   6.451   3.388   3.250  0.7030  0.5824  0.3765
  650MOL0     H89700   6.280   3.360   3.220 -0.8046  1.1061  0.1940
  651MOL0     O89701  10.378   2.961   6.190  0.2040  0.2093 -0.5818
  651MOL0     C89702  10.346   3.062   6.254  0.6970 -0.2161 -0.0636
  651MOL0     O89703  10.410   3.119   6.363  0.0769 -0.6675  0.5521
  651MOL0     C89704  10.517   3.055   6.418 -0.5391 -1.1259 -0.1744
  651MOL0     C89705  10.526   3.046   6.558  0.0733  0.2074  0.4763
  651MOL0     C89706  10.646   2.988   6.613  0.3749  0.5274 -0.1337
  651MOL0     C89707  10.751   2.937   6.529  0.1099 -0.7389 -0.6556
  651MOL0     O89708  10.852   2.873   6.589 -0.4116 -1.1384 -0.1572
  651MOL0     C89709  10.976   2.858   6.519 -0.0641  0.1569 -0.4724
  651MOL0     C89710  11.066   2.763   6.604  0.4947  0.2508  0.3119
  651MOL0     C89711  11.207   2.765   6.548  1.1847 -0.2683 -0.2629
  651MOL0     C89712  11.223   2.776   6.389  0.2308  0.6644  0.5735
  651MOL0     C89713  11.359   2.748   6.329  0.5281 -0.0555  0.2815
  651MOL0     C89714  11.469   2.835   6.380 -0.3693  0.6424  0.4489
  651MOL0     C89715  11.604   2.791   6.310  0.6655  0.1477 -0.0148
  651MOL0     C89716  11.715   2.859   6.385 -0.3790  0.0511 -1.1435
  651MOL0     N89717  11.853   2.842   6.322 -0.9254  0.1085 -0.3405
  651MOL0     C89718  11.965   2.925   6.348  0.0841  0.4130  0.6005
  651MOL0     C89719  12.060   2.847   6.277  0.1814  0.2673 -0.0138
  651MOL0     C89720  12.209   2.874   6.258  0.5090  0.2830  0.4080
  651MOL0     C89721  12.277   2.810   6.375 -0.8398  0.4152 -0.0839
  651MOL0     C89722  12.432   2.804   6.345  0.8418  0.7252  0.4314
  651MOL0     C89723  12.515   2.790   6.481  0.0706  0.3432 -0.0295
  651MOL0     O89724  12.651   2.779   6.431 -0.5565 -0.2806  0.0545
  651MOL0     C89725  12.760   2.855   6.483 -0.2984 -0.2163 -0.2079
  651MOL0     C89726  12.749   2.947   6.599 -0.1270  0.5848 -0.4042
  651MOL0     C89727  12.863   3.006   6.663 -0.1473  0.7738 -0.0436
  651MOL0     C89728  12.844   3.102   6.778  1.2442  0.2398 -0.4546
  651MOL0     C89729  12.990   2.968   6.618 -0.7632 -0.4823  1.1899
  651MOL0     C89730  13.126   3.007   6.685  0.3022 -0.0487 -0.5655
  651MOL0     O89731  13.228   2.924   6.653  0.5014  0.5421 -0.8722
  651MOL0     C89732  13.357   2.957   6.693 -0.1853  1.0230  0.3346
  651MOL0     C89733  13.422   3.067   6.645  0.4272 -0.0742  0.6904
  651MOL0     C89734  13.554   3.099   6.677 -0.0852 -1.0457 -0.0074
  651MOL0     C89735  13.623   3.028   6.769  0.3835 -0.6927 -0.0349
  651MOL0     O89736  13.741   3.080   6.815  0.3831 -0.5180 -0.2181
  651MOL0     C89737  13.803   3.014   6.930 -0.0409  0.0680 -0.5596
  651MOL0     C89738  13.926   3.101   6.982 -0.4160  0.1195  0.6160
  651MOL0     C89739  13.998   3.035   7.112 -0.6086  0.3054  0.4125
  651MOL0     C89740  14.139   3.097   7.130 -0.0730 -0.3305  0.5539
  651MOL0     C89741  14.243   3.066   7.013 -0.6736  0.2526 -0.5461
  651MOL0     C89742  14.382   3.124   7.062  0.1183 -0.6584  0.2988
  651MOL0     C89743  14.485   3.132   6.955  0.2208  1.1291 -0.0536
  651MOL0     C89744  14.621   3.165   7.026 -0.4829 -0.3743 -0.5959
  651MOL0    Cl89745  14.683   3.046   7.132 -0.3719 -0.2578  0.4306
  651MOL0     C89746  13.564   2.910   6.813  0.6355  0.9344  0.4829
  651MOL0     C89747  13.431   2.874   6.775 -0.2064 -0.4365  0.1472
  651MOL0     O89748  13.136   3.110   6.748  0.5783 -0.8896  0.1395
  651MOL0     C89749  13.004   2.885   6.496 -0.6553 -0.8258 -1.5253
  651MOL0     C89750  12.887   2.826   6.440  0.1952  0.0121 -0.8880
  651MOL0     N89751  12.000   2.728   6.231 -0.1245 -0.5787 -0.2990
  651MOL0     N89752  11.875   2.723   6.256  0.5040 -0.0436 -0.0233
  651MOL0     C89753  10.738   2.958   6.389 -1.0104  0.0930  0.2570
  651MOL0     C89754  10.623   3.012   6.341 -0.0470 -1.0450  0.0500
  651MOL0     C89755  10.216   3.122   6.212 -0.2030  0.4186  0.6151
  651MOL0     C89756  10.113   3.110   6.303  0.3502  0.2269  0.4251
  651MOL0     C89757   9.987   3.158   6.274  0.7790  0.5493  0.1014
  651MOL0     C89758   9.966   3.222   6.156  0.6552  0.2330 -0.7982
  651MOL0     O89759   9.838   3.261   6.119  0.0546 -0.3712  0.2016
  651MOL0     C89760   9.719   3.233   6.190 -0.0214  0.5611 -0.0528
  651MOL0     C89761   9.659   3.092   6.163  0.0118 -0.6100  0.0955
  651MOL0     C89762   9.531   3.059   6.247 -0.1664  0.3628  0.6807
  651MOL0     C89763   9.405   2.999   6.157 -0.9972  0.6548 -0.3913
  651MOL0     C89764   9.433   2.866   6.101  0.3937 -0.7395  0.4429
  651MOL0     C89765   9.471   2.768   6.034 -0.7386  0.2856 -0.3506
  651MOL0     C89766  10.072   3.253   6.073  0.4191 -0.1947  0.5759
  651MOL0     C89767  10.200   3.198   6.097  0.9442  0.2537  0.9224
  651MOL0     C89768  10.315   3.239   6.012 -0.3365  0.2093 -0.3575
  651MOL0     H89769  10.449   3.080   6.626 -0.6110 -3.5344  1.8101
  651MOL0     H89770  10.664   2.985   6.720  0.8643  4.1395 -0.0061
  651MOL0     H89771  11.006   2.963   6.518 -0.8900  0.4020 -0.1108
  651MOL0     H89772  10.961   2.832   6.414  1.9166  2.7082 -1.5069
  651MOL0     H89773  11.052   2.789   6.709 -4.1782 -1.8886  0.4738
  651MOL0     H89774  11.035   2.658   6.607  0.3081  0.3224  2.2223
  651MOL0     H89775  11.252   2.844   6.608  3.5491 -0.7368 -1.3194
  651MOL0     H89776  11.262   2.674   6.576 -0.2377 -1.5210 -1.3510
  651MOL0     H89777  11.152   2.706   6.344  0.9190  1.2313 -1.4763
  651MOL0     H89778  11.187   2.875   6.361 -2.0583  0.0268  1.0634
  651MOL0     H89779  11.339   2.771   6.224  1.6939 -1.1488 -0.2159
  651MOL0     H89780  11.383   2.641   6.317 -2.0519 -0.4266 -3.2577
  651MOL0     H89781  11.446   2.939   6.355  1.8536  1.3612  1.1599
  651MOL0     H89782  11.486   2.824   6.487  0.4076  2.1066  0.4983
  651MOL0     H89783  11.587   2.812   6.204 -2.0067  1.5551  0.6028
  651MOL0     H89784  11.617   2.683   6.307  0.9272  0.0659  2.1364
  651MOL0     H89785  11.697   2.967   6.378 -2.8127 -0.3851 -3.1969
  651MOL0     H89786  11.717   2.828   6.489 -1.4986 -1.1312 -1.4473
  651MOL0     H89787  11.986   3.014   6.407 -1.8877 -0.4596  2.7792
  651MOL0     H89788  12.240   2.978   6.249  1.2826 -0.0909 -1.9909
  651MOL0     H89789  12.240   2.826   6.165 -0.2092  1.8023 -0.6581
  651MOL0     H89790  12.258   2.870   6.464 -1.5687 -1.0809  0.8242
  651MOL0     H89791  12.241   2.710   6.402  0.1627  0.2473  0.6813
  651MOL0     H89792  12.457   2.734   6.265 -0.3869 -1.5569  1.9342
  651MOL0     H89793  12.451   2.906   6.311  0.3707  1.6347  2.6914
  651MOL0     H89794  12.501   2.877   6.545 -2.5790 -0.3007  0.3780
  651MOL0     H89795  12.488   2.705   6.544  1.8997 -1.9044 -2.0637
  651MOL0     H89796  12.650   2.965   6.640  0.4815 -0.6504  1.8194
  651MOL0     H89797  12.888   3.197   6.745  2.5651 -0.4643 -0.7756
  651MOL0     H89798  12.892   3.070   6.871  1.2467 -1.4857 -1.0285
  651MOL0     H89799  12.739   3.127   6.794  1.3687  0.1920  0.5209
  651MOL0     H89800  13.369   3.143   6.589  2.4080  1.2220  0.4709
  651MOL0     H89801  13.603   3.177   6.620  0.2178 -1.9045 -0.9614
  651MOL0     H89802  13.737   3.007   7.018  2.3038 -2.0230  1.1598
  651MOL0     H89803  13.840   2.918   6.894  1.2945  0.7762 -1.1233
  651MOL0     H89804  13.994   3.109   6.896 -0.8865 -0.3120  0.1939
  651MOL0     H89805  13.881   3.198   7.004 -0.2143  0.1052  1.0930
  651MOL0     H89806  13.998   2.927   7.094 -4.1587  0.1781  0.5331
  651MOL0     H89807  13.940   3.046   7.204 -0.8536 -1.4336  0.5033
  651MOL0     H89808  14.176   3.050   7.221  0.8889 -5.0609 -1.9272
  651MOL0     H89809  14.131   3.206   7.135 -0.3053 -0.2321 -1.1261
  651MOL0     H89810  14.244   2.956   7.010  1.8272  0.1871  0.2673
  651MOL0     H89811  14.224   3.101   6.911  0.6096 -0.0967 -0.9282
  651MOL0     H89812  14.406   3.063   7.150 -1.8392 -1.1498  0.5429
  651MOL0     H89813  14.353   3.225   7.092 -0.2792 -0.6308 -0.1712
  651MOL0     H89814  14.467   3.210   6.881  2.4241  0.6568 -1.1931
  651MOL0     H89815  14.500   3.039   6.900  0.2292  1.3786 -0.4748
  651MOL0     H89816  14.605   3.263   7.074 -1.3183  0.2213 -2.0344
  651MOL0     H89817  14.687   3.195   6.945  0.8971  0.9916  0.9387
  651MOL0     H89818  13.615   2.836   6.873 -4.2657 -3.1412  0.2483
  651MOL0     H89819  13.384   2.786   6.817 -1.1780  0.7910  1.7802
  651MOL0     H89820  13.102   2.859   6.457  0.2397  2.2675 -1.5857
  651MOL0     H89821  12.893   2.746   6.367 -0.0635 -3.4891  2.5420
  651MOL0     H89822  10.813   2.934   6.314 -2.6022 -2.1171 -0.7328
  651MOL0     H89823  10.612   3.024   6.234 -0.8626 -4.2159 -0.3399
  651MOL0     H89824  10.129   3.066   6.401 -1.1470 -0.0189  0.5843
  651MOL0     H89825   9.905   3.154   6.344  0.5310 -1.3353 -0.2169
  651MOL0     H89826   9.740   3.242   6.297  0.8484 -2.9037  0.1596
  651MOL0     H89827   9.645   3.307   6.156 -0.5173 -0.1725 -0.5836
  651MOL0     H89828   9.737   3.018   6.181  1.7881  0.9265 -0.9146
  651MOL0     H89829   9.650   3.088   6.054  1.9909 -1.9614 -0.0749
  651MOL0     H89830   9.555   2.987   6.325  0.5525 -0.7152 -0.4977
  651MOL0     H89831   9.484   3.144   6.297  0.3835  1.5159 -0.6840
  651MOL0     H89832   9.377   3.062   6.073 -3.6271  0.6242  0.3512
  651MOL0     H89833   9.319   2.994   6.225  0.1047  0.4439  1.0455
  651MOL0     H89834   9.509   2.679   5.987  0.6716  0.6199  0.1071
  651MOL0     H89835  10.049   3.322   5.992  0.4927  1.1614  1.6763
  651MOL0     H89836  10.393   3.163   6.018  0.7997  1.4680  1.4476
  651MOL0     H89837  10.289   3.245   5.906  3.4665 -1.2927 -1.5588
  651MOL0     H89838  10.359   3.334   6.044 -0.4521 -0.3068  1.4524
  652MOL0     O89839   5.881   5.452  10.498  0.5881 -0.4567  0.8234
  652MOL0     C89840   5.864   5.575  10.509  0.3988  0.9297 -0.2488
  652MOL0     O89841   5.963   5.666  10.481  0.5464 -0.0116  0.4996
  652MOL0     C89842   6.097   5.632  10.471  0.9027  0.8071  0.0594
  652MOL0     C89843   6.157   5.567  10.582  0.7352 -0.5318  0.1987
  652MOL0     C89844   6.296   5.547  10.582  0.3175  0.0688  0.7407
  652MOL0     C89845   6.372   5.595  10.473 -0.6128  0.4594 -0.7240
  652MOL0     O89846   6.508   5.605  10.471 -1.0283  0.0252 -0.4788
  652MOL0     C89847   6.580   5.575  10.585 -0.4809  1.0629 -0.2956
  652MOL0     C89848   6.725   5.548  10.542  0.5222 -0.5595  0.8494
  652MOL0     C89849   6.824   5.537  10.659  0.3171  0.8068 -0.3574
  652MOL0     C89850   6.958   5.480  10.609 -0.6025  0.2060  0.6504
  652MOL0     C89851   7.050   5.458  10.723 -0.3855 -0.5064  0.6554
  652MOL0     C89852   7.173   5.375  10.683 -0.2983 -0.7346 -0.5187
  652MOL0     C89853   7.264   5.354  10.810 -0.1607  0.1714 -0.7128
  652MOL0     C89854   7.361   5.244  10.790 -0.0113  0.8989 -0.1574
  652MOL0     N89855   7.456   5.241  10.905 -0.1810  0.1585 -0.3866
  652MOL0     C89856   7.440   5.166  11.019 -0.0641  0.0118  0.2648
  652MOL0     C89857   7.541   5.185  11.103 -0.0320  0.0482  0.2195
  652MOL0     C89858   7.554   5.116  11.239 -0.4412 -0.1115  0.3308
  652MOL0     C89859   7.701   5.068  11.250  0.2188  0.9863 -0.6559
  652MOL0     C89860   7.735   4.964  11.146 -0.3764  0.3388 -0.2113
  652MOL0     C89861   7.880   4.928  11.176 -0.6381 -0.0338  0.2230
  652MOL0     O89862   7.889   4.856  11.302  0.4503  0.3978 -0.5130
  652MOL0     C89863   7.998   4.858  11.386 -0.2477 -0.6682  0.3138
  652MOL0     C89864   7.992   4.807  11.513  0.7252  1.0319  0.2826
  652MOL0     C89865   8.103   4.802  11.602 -0.6555 -0.7392  0.2620
  652MOL0     C89866   8.079   4.733  11.732  0.4917 -1.0610 -0.7436
  652MOL0     C89867   8.229   4.858  11.565 -0.0988 -0.1329 -0.1083
  652MOL0     C89868   8.353   4.852  11.644  0.1151 -0.6652  0.2463
  652MOL0     O89869   8.463   4.890  11.576 -0.3748  0.1485  0.2508
  652MOL0     C89870   8.589   4.855  11.617  0.5910 -0.2037  0.3263
  652MOL0     C89871   8.687   4.936  11.564 -0.7752  0.1837  0.6176
  652MOL0     C89872   8.815   4.910  11.578  0.1464 -0.6163 -0.2498
  652MOL0     C89873   8.862   4.802  11.649 -0.3183 -0.5902  0.6154
  652MOL0     O89874   8.997   4.788  11.657 -0.0542 -0.5762 -0.4991
  652MOL0     C89875   9.054   4.667  11.719  0.3145  0.6264  0.7675
  652MOL0     C89876   9.208   4.683  11.730  0.3674  0.2516 -0.0508
  652MOL0     C89877   9.266   4.562  11.790  0.3165  0.6552  0.2255
  652MOL0     C89878   9.420   4.577  11.808  0.0801  0.3448 -0.2117
  652MOL0     C89879   9.485   4.474  11.898  0.0430  0.9894  0.4222
  652MOL0     C89880   9.634   4.446  11.873 -0.4166 -0.4521  0.7486
  652MOL0     C89881   9.707   4.374  11.994  0.3186  0.7530  0.2517
  652MOL0     C89882   9.843   4.312  11.944  0.1983 -0.0483  0.4743
  652MOL0    Cl89883   9.952   4.254  12.065 -0.0135  0.0026  0.0720
  652MOL0     C89884   8.766   4.714  11.708  0.5525  0.3031 -0.1852
  652MOL0     C89885   8.629   4.737  11.689 -0.4085  0.3005 -0.1552
  652MOL0     O89886   8.350   4.827  11.766  0.5114 -0.1761  0.1571
  652MOL0     C89887   8.229   4.918  11.435  0.5579 -0.7381  0.7149
  652MOL0     C89888   8.118   4.922  11.347 -0.1503  0.5114 -0.4101
  652MOL0     N89889   7.625   5.279  11.034  0.5441 -0.6356 -0.0930
  652MOL0     N89890   7.568   5.311  10.922 -0.1088  0.8459  0.0172
  652MOL0     C89891   6.312   5.645  10.359  1.3070 -1.1642 -0.3441
  652MOL0     C89892   6.170   5.671  10.366 -0.6058 -0.3658 -0.5538
  652MOL0     C89893   5.725   5.620  10.549 -0.2231  0.6988  1.1132
  652MOL0     C89894   5.617   5.576  10.482  0.5312  0.7969 -0.4468
  652MOL0     C89895   5.490   5.600  10.530 -0.4065  0.4837 -0.1720
  652MOL0     C89896   5.470   5.677  10.645  0.6583  0.0231 -0.2739
  652MOL0     O89897   5.341   5.698  10.694  0.2553 -0.2382  0.7079
  652MOL0     C89898   5.233   5.705  10.601  0.2076  0.6651  0.8814
  652MOL0     C89899   5.116   5.730  10.689 -0.0856  0.3218  0.6120
  652MOL0     C89900   4.986   5.746  10.597 -0.4509  0.3608  0.4486
  652MOL0     C89901   4.914   5.891  10.589  0.1756  0.3406 -0.4946
  652MOL0     C89902   4.821   5.890  10.480  0.2283 -0.7803  0.8281
  652MOL0     C89903   4.755   5.880  10.379 -0.2993  0.2415  1.0039
  652MOL0     C89904   5.583   5.722  10.711 -0.3860  0.6130 -0.5750
  652MOL0     C89905   5.712   5.706  10.659  0.5642 -0.1067  0.4034
  652MOL0     C89906   5.836   5.756  10.738 -0.3334 -0.5274  0.1842
  652MOL0     H89907   6.102   5.552  10.674  2.1118  1.5732  1.4682
  652MOL0     H89908   6.345   5.498  10.666  0.8388 -0.0134  0.3881
  652MOL0     H89909   6.544   5.482  10.630 -1.5502  0.1467 -2.8121
  652MOL0     H89910   6.580   5.650  10.664 -1.6847  2.2633 -1.3801
  652MOL0     H89911   6.731   5.454  10.487 -1.7412 -2.8370  4.1068
  652MOL0     H89912   6.761   5.633  10.483  0.6526 -0.7805  0.6080
  652MOL0     H89913   6.820   5.635  10.707 -0.7240  1.4761 -1.7520
  652MOL0     H89914   6.791   5.465  10.735  2.2612 -0.0680 -0.2767
  652MOL0     H89915   6.938   5.386  10.558 -1.8040  0.2386  1.0383
  652MOL0     H89916   6.990   5.554  10.534 -0.8778  0.2683  0.5915
  652MOL0     H89917   6.995   5.397  10.795 -2.4202 -0.0097 -0.4089
  652MOL0     H89918   7.069   5.556  10.768  0.1782  0.9555 -2.5201
  652MOL0     H89919   7.139   5.277  10.648  1.7793 -1.4847 -0.5868
  652MOL0     H89920   7.235   5.424  10.606  1.4356 -2.1603 -0.1032
  652MOL0     H89921   7.201   5.327  10.896  0.7585  1.0883  0.2772
  652MOL0     H89922   7.318   5.445  10.836 -0.1368  0.1508 -0.6898
  652MOL0     H89923   7.303   5.151  10.783  2.7607 -0.9413 -0.3894
  652MOL0     H89924   7.425   5.239  10.702 -0.7234 -0.4576 -0.6241
  652MOL0     H89925   7.352   5.107  11.042 -0.2451  0.2021  0.0647
  652MOL0     H89926   7.489   5.029  11.252  0.3204 -0.4255  2.5553
  652MOL0     H89927   7.530   5.183  11.322 -2.9982 -0.3852 -0.1133
  652MOL0     H89928   7.773   5.150  11.243  0.3309  0.8277 -1.5031
  652MOL0     H89929   7.716   5.024  11.349 -0.2393 -1.2905 -1.5346
  652MOL0     H89930   7.678   4.871  11.135  0.0989  0.1999 -1.7418
  652MOL0     H89931   7.734   5.008  11.046  1.1679  0.1761 -0.3286
  652MOL0     H89932   7.919   4.862  11.098  0.7485  1.9646 -0.8514
  652MOL0     H89933   7.929   5.025  11.172  1.3498 -1.0399 -1.0104
  652MOL0     H89934   7.897   4.758  11.528  0.7912  0.3569 -1.3058
  652MOL0     H89935   8.087   4.802  11.816  1.2907 -1.1784 -0.7132
  652MOL0     H89936   8.150   4.650  11.742  1.5007 -0.3401 -1.7183
  652MOL0     H89937   7.984   4.680  11.747 -0.2931  0.7410  1.1154
  652MOL0     H89938   8.646   5.015  11.502 -2.4824 -0.8053  0.4161
  652MOL0     H89939   8.895   4.962  11.526  2.0604 -2.5109  0.6781
  652MOL0     H89940   9.014   4.645  11.818  1.4028 -2.9670  0.5610
  652MOL0     H89941   9.028   4.580  11.657 -1.6615  1.7483 -0.0590
  652MOL0     H89942   9.249   4.708  11.632  1.5562 -0.9374  0.1141
  652MOL0     H89943   9.214   4.765  11.802  1.3332  1.6926 -1.6816
  652MOL0     H89944   9.240   4.470  11.736 -2.0151  1.2399  0.2170
  652MOL0     H89945   9.223   4.548  11.890 -0.6833  0.7282 -0.1806
  652MOL0     H89946   9.448   4.678  11.840 -0.1479  0.5956 -0.7971
  652MOL0     H89947   9.467   4.579  11.710  2.0539  1.4661  0.6919
  652MOL0     H89948   9.465   4.504  12.002  0.6685 -0.0237  0.8552
  652MOL0     H89949   9.433   4.379  11.883 -0.9629  1.8504 -1.9400
  652MOL0     H89950   9.693   4.538  11.879  2.6971 -2.3667  2.5722
  652MOL0     H89951   9.638   4.403  11.772 -2.4163  2.3703 -0.6903
  652MOL0     H89952   9.650   4.287  12.027  3.6164 -2.2890 -1.3741
  652MOL0     H89953   9.711   4.443  12.078  2.4958 -0.4668  1.2452
  652MOL0     H89954   9.891   4.394  11.891 -0.4526  0.3503  0.4893
  652MOL0     H89955   9.831   4.236  11.867  0.1708  2.5199 -2.2079
  652MOL0     H89956   8.787   4.635  11.780 -0.9661  1.2749  1.4146
  652MOL0     H89957   8.552   4.672  11.729  0.1057 -1.2416 -1.5539
  652MOL0     H89958   8.315   4.973  11.398  2.2238 -2.7704  1.4304
  652MOL0     H89959   8.121   4.969  11.249  0.2469  1.2165 -0.0703
  652MOL0     H89960   6.381   5.690  10.289 -0.1655 -1.1239 -1.8268
  652MOL0     H89961   6.125   5.734  10.289  0.3512  2.4245  1.0357
  652MOL0     H89962   5.623   5.507  10.398 -0.6155  0.0130  0.0892
  652MOL0     H89963   5.409   5.554  10.475  0.6224  0.2139 -1.5207
  652MOL0     H89964   5.249   5.765  10.511  1.2867 -0.5046  0.2648
  652MOL0     H89965   5.214   5.605  10.562 -0.5109 -0.1614  3.2139
  652MOL0     H89966   5.133   5.819  10.751 -0.9148  2.2720 -1.7750
  652MOL0     H89967   5.100   5.647  10.758  2.5973  0.9155  2.1212
  652MOL0     H89968   5.007   5.714  10.495 -1.1178 -1.2081  0.7839
  652MOL0     H89969   4.909   5.680  10.638 -0.4261 -0.3666 -0.6597
  652MOL0     H89970   4.984   5.974  10.583 -0.1329  0.6248 -0.1823
  652MOL0     H89971   4.857   5.912  10.680 -0.7335  0.2321 -1.0268
  652MOL0     H89972   4.686   5.876  10.297  1.5876  2.4653 -0.8505
  652MOL0     H89973   5.558   5.777  10.801  0.7990  0.3661 -0.0840
  652MOL0     H89974   5.880   5.668  10.785 -0.4928 -0.8611 -0.2847
  652MOL0     H89975   5.912   5.807  10.678 -0.2330 -0.7892  0.0877
  652MOL0     H89976   5.823   5.825  10.822  0.7826 -2.0294  1.6395
  653MOL0     O89977   5.897  10.165  10.558  0.7531 -0.6677 -0.2546
  653MOL0     C89978   5.869  10.276  10.606  0.0719  0.2729 -0.2453
  653MOL0     O89979   5.940  10.387  10.604  0.0315 -0.2615 -0.1279
  653MOL0     C89980   6.075  10.375  10.589 -0.2354 -0.3559  0.1218
  653MOL0     C89981   6.162  10.300  10.681 -0.1100 -0.1776 -0.0342
  653MOL0     C89982   6.299  10.286  10.647  0.3324 -0.4051 -0.2367
  653MOL0     C89983   6.355  10.357  10.544 -0.1239  0.0638 -0.0443
  653MOL0     O89984   6.487  10.347  10.542  0.0523  0.5564 -0.3277
  653MOL0     C89985   6.537  10.339  10.405 -0.1901 -0.5881  0.9294
  653MOL0     C89986   6.611  10.470  10.376 -0.2648 -0.5011 -0.0146
  653MOL0     C89987   6.761  10.479  10.413  0.0246  0.0461  0.3452
  653MOL0     C89988   6.784  10.491  10.561  0.2554  0.1634 -0.5789
  653MOL0     C89989   6.934  10.494  10.601 -0.4916  0.1623 -0.4544
  653MOL0     C89990   7.013  10.362  10.580  0.0981  0.5929 -0.4220
  653MOL0     C89991   7.147  10.363  10.652  0.3154  0.5071  0.0359
  653MOL0     C89992   7.219  10.227  10.655 -1.1779 -0.5440  0.3355
  653MOL0     N89993   7.354  10.253  10.713 -0.5727 -0.3173 -0.9512
  653MOL0     C89994   7.381  10.270  10.847  0.1277  0.6002 -0.2646
  653MOL0     C89995   7.513  10.261  10.851  0.5359 -0.5078  0.8063
  653MOL0     C89996   7.596  10.272  10.975  0.6951  0.3154 -0.6905
  653MOL0     C89997   7.658  10.407  10.979  0.2017  0.0717  0.1411
  653MOL0     C89998   7.723  10.448  11.108  0.2600  0.3456 -0.2861
  653MOL0     C89999   7.772  10.594  11.107 -0.9051 -0.5910  0.1031
  653MOL0     O90000   7.830  10.619  11.242 -0.3411  0.1447  0.5180
  653MOL0     C90001   7.929  10.705  11.251 -0.6043  0.0359  0.1797
  653MOL0     C90002   7.948  10.815  11.174  0.3519  0.5968 -0.1618
  653MOL0     C90003   8.062  10.903  11.185  0.6358 -0.2974 -0.6943
  653MOL0     C90004   8.049  11.024  11.095 -0.2118  0.2851  0.0812
  653MOL0     C90005   8.154  10.883  11.290  0.1256 -0.0805 -0.2305
  653MOL0     C90006   8.259  10.977  11.330 -0.5775 -0.7802 -0.1151
  653MOL0     O90007   8.314  10.959  11.450 -0.3467 -0.4912 -0.5965
  653MOL0     C90008   8.436  11.010  11.484  0.3089  0.7544  0.1400
  653MOL0     C90009   8.538  11.001  11.387 -0.0273 -0.6592 -0.0730
  653MOL0     C90010   8.663  11.061  11.423  0.1831 -0.1655 -0.1907
  653MOL0     C90011   8.683  11.124  11.544  0.5359  0.1912 -0.4659
  653MOL0     O90012   8.805  11.178  11.575  0.4867 -0.5281  0.1880
  653MOL0     C90013   8.814  11.259  11.694  0.2092 -1.0123  0.3020
  653MOL0     C90014   8.954  11.308  11.717 -0.2763 -0.4546  0.1325
  653MOL0     C90015   9.060  11.205  11.775 -0.5569  0.7736  0.1424
  653MOL0     C90016   9.194  11.276  11.816 -0.8329 -0.2373  0.1798
  653MOL0     C90017   9.289  11.304  11.707 -0.8260 -0.5267 -0.0619
  653MOL0     C90018   9.437  11.324  11.742  0.2378  0.6611 -0.0967
  653MOL0     C90019   9.448  11.404  11.877 -0.7973  0.0490  0.2042
  653MOL0     C90020   9.601  11.426  11.899  0.2006 -0.8279 -0.7501
  653MOL0    Cl90021   9.702  11.283  11.916 -0.5227 -0.1552 -0.1458
  653MOL0     C90022   8.572  11.141  11.632  0.3874  0.1733  0.6148
  653MOL0     C90023   8.457  11.071  11.603 -0.0417 -0.3114 -0.6243
  653MOL0     O90024   8.283  11.082  11.261 -0.0293  1.4528 -0.0080
  653MOL0     C90025   8.131  10.771  11.373  0.9167  1.1288 -0.6579
  653MOL0     C90026   8.020  10.688  11.357  0.6522 -0.4533 -0.1726
  653MOL0     N90027   7.561  10.265  10.719  0.1275 -0.6915  0.3057
  653MOL0     N90028   7.463  10.253  10.637 -0.3490 -0.1639 -0.2399
  653MOL0     C90029   6.275  10.439  10.466  0.5417 -0.7777 -0.4138
  653MOL0     C90030   6.131  10.435  10.478 -0.2869 -0.4464  0.4939
  653MOL0     C90031   5.728  10.291  10.661  0.5218  0.4033 -0.4642
  653MOL0     C90032   5.705  10.231  10.789  0.2143  0.1702  1.0801
  653MOL0     C90033   5.581  10.249  10.842  0.9135  0.0542 -0.6266
  653MOL0     C90034   5.477  10.333  10.787  0.5420 -0.4149  0.3363
  653MOL0     O90035   5.351  10.360  10.842  0.0134 -0.6945 -0.2020
  653MOL0     C90036   5.301  10.286  10.955 -0.2149 -0.4245 -0.0723
  653MOL0     C90037   5.353  10.353  11.093  0.4955 -0.2357 -0.5414
  653MOL0     C90038   5.291  10.485  11.129 -0.9957  0.3774  0.2069
  653MOL0     C90039   5.358  10.613  11.078  0.8922  0.3004 -0.2684
  653MOL0     C90040   5.490  10.638  11.134  0.7210  1.0000  0.6068
  653MOL0     C90041   5.589  10.689  11.164 -0.1982 -0.2017 -0.0377
  653MOL0     C90042   5.507  10.393  10.664  0.4333 -0.6794 -0.1986
  653MOL0     C90043   5.626  10.363  10.592  0.2197 -1.0056 -0.9599
  653MOL0     C90044   5.654  10.429  10.458  0.2703  0.2125  0.7323
  653MOL0     H90045   6.129  10.245  10.769 -0.5589 -2.8908 -1.7731
  653MOL0     H90046   6.366  10.222  10.703 -1.2174  0.4448  2.8040
  653MOL0     H90047   6.457  10.314  10.335  2.9396 -0.2205 -3.1455
  653MOL0     H90048   6.610  10.257  10.409  0.5806  0.0496  0.2363
  653MOL0     H90049   6.619  10.476  10.267 -1.8721 -0.5614 -0.1558
  653MOL0     H90050   6.561  10.557  10.419 -0.0495 -1.3865  2.1424
  653MOL0     H90051   6.821  10.395  10.376  0.4326  1.0414 -1.4128
  653MOL0     H90052   6.796  10.569  10.361 -2.3973  0.0490 -1.4592
  653MOL0     H90053   6.719  10.567  10.606 -0.7820 -0.8892 -0.2484
  653MOL0     H90054   6.746  10.400  10.607 -0.6440  0.1596 -1.2901
  653MOL0     H90055   6.940  10.517  10.708 -0.7384  0.3321 -0.4770
  653MOL0     H90056   6.988  10.571  10.545 -1.0669  0.4818 -0.5851
  653MOL0     H90057   6.946  10.283  10.616  0.3884  0.4958 -0.0889
  653MOL0     H90058   7.034  10.333  10.477  1.4280 -1.5689  0.3853
  653MOL0     H90059   7.137  10.420  10.745 -1.3082  2.2624 -1.1354
  653MOL0     H90060   7.209  10.435  10.597 -2.0468  4.4738  2.0808
  653MOL0     H90061   7.176  10.147  10.716  0.0816 -1.0437  0.6203
  653MOL0     H90062   7.225  10.189  10.553 -0.8121 -0.4479  0.3189
  653MOL0     H90063   7.302  10.261  10.920 -1.2940 -1.5212 -1.9595
  653MOL0     H90064   7.664  10.188  10.990  0.4862 -0.0366 -1.6681
  653MOL0     H90065   7.530  10.275  11.063  1.9817 -1.3380  0.3906
  653MOL0     H90066   7.724  10.420  10.893  0.5953  0.9910  0.5694
  653MOL0     H90067   7.582  10.481  10.955  1.5733  1.3997 -0.2773
  653MOL0     H90068   7.654  10.453  11.193  1.5326 -2.3581  1.0266
  653MOL0     H90069   7.806  10.379  11.126  1.8406  1.5973 -2.3543
  653MOL0     H90070   7.846  10.610  11.028  0.6343 -0.8471  1.4409
  653MOL0     H90071   7.688  10.664  11.094 -1.7090 -1.5727 -0.0994
  653MOL0     H90072   7.868  10.847  11.108 -0.1503  0.0562  0.1700
  653MOL0     H90073   8.148  11.035  11.048 -0.0224 -0.5065  0.2838
  653MOL0     H90074   8.027  11.114  11.153 -1.1673 -1.3637  2.3872
  653MOL0     H90075   7.981  11.006  11.012 -0.6869  0.2667  0.4759
  653MOL0     H90076   8.537  10.965  11.284  0.8284 -1.2032  0.0994
  653MOL0     H90077   8.750  11.047  11.359  2.4498 -1.7155  2.9800
  653MOL0     H90078   8.757  11.353  11.690  5.0673  2.2547 -1.7595
  653MOL0     H90079   8.785  11.201  11.782 -0.3318 -4.0672 -1.7561
  653MOL0     H90080   8.990  11.344  11.620  1.8978 -0.6894  0.8002
  653MOL0     H90081   8.952  11.389  11.791  2.7788  0.0177 -0.1841
  653MOL0     H90082   9.080  11.126  11.702 -1.9703  1.2088 -0.7527
  653MOL0     H90083   9.021  11.154  11.864  0.6756  1.8243  1.3401
  653MOL0     H90084   9.247  11.215  11.890 -1.4963 -0.3643  0.5514
  653MOL0     H90085   9.170  11.359  11.883  0.4516 -1.0501  1.7190
  653MOL0     H90086   9.299  11.216  11.643 -1.4259 -0.6519  0.0034
  653MOL0     H90087   9.250  11.384  11.643  0.2842  2.7881  3.0509
  653MOL0     H90088   9.490  11.364  11.655 -1.8162  0.6790 -1.4309
  653MOL0     H90089   9.476  11.224  11.759 -0.8858  0.3712  0.9205
  653MOL0     H90090   9.410  11.348  11.962  0.6102 -2.2132 -0.5789
  653MOL0     H90091   9.408  11.506  11.867 -0.3426  0.3464  1.2521
  653MOL0     H90092   9.602  11.490  11.988  0.9766 -2.8204  0.7652
  653MOL0     H90093   9.643  11.487  11.819  1.5994  0.9749  1.2160
  653MOL0     H90094   8.562  11.213  11.712 -0.8876  0.6985  0.0133
  653MOL0     H90095   8.365  11.091  11.656 -1.7687 -0.8722 -3.2346
  653MOL0     H90096   8.195  10.741  11.456 -0.4305 -0.4894 -0.1474
  653MOL0     H90097   8.021  10.604  11.426 -2.3836  0.7229  1.5049
  653MOL0     H90098   6.321  10.495  10.385  4.8012 -2.9892  0.2091
  653MOL0     H90099   6.061  10.479  10.408 -0.1555 -1.1547 -0.0841
  653MOL0     H90100   5.770  10.153  10.828 -3.4070 -4.3947 -1.0077
  653MOL0     H90101   5.559  10.202  10.938  1.8815  0.5294 -0.1571
  653MOL0     H90102   5.192  10.290  10.952 -0.1540  1.3916 -0.7497
  653MOL0     H90103   5.333  10.182  10.943  1.8093 -0.1352  2.0946
  653MOL0     H90104   5.462  10.358  11.097  0.4005  2.2113  0.7596
  653MOL0     H90105   5.335  10.276  11.168  0.4637 -2.8205 -3.0166
  653MOL0     H90106   5.188  10.489  11.092 -0.7164 -1.9273 -0.9396
  653MOL0     H90107   5.286  10.500  11.238  1.4060  0.3503  0.3554
  653MOL0     H90108   5.308  10.699  11.123 -3.1827 -2.2401  0.7152
  653MOL0     H90109   5.361  10.619  10.969  2.9935  3.4706 -0.1476
  653MOL0     H90110   5.672  10.750  11.195  1.2047 -0.9081 -2.1393
  653MOL0     H90111   5.436  10.465  10.624  2.5934  1.4434 -0.4493
  653MOL0     H90112   5.671  10.537  10.454 -2.3298  0.7402  1.7898
  653MOL0     H90113   5.728  10.371  10.404  1.5901  0.2162  2.4414
  653MOL0     H90114   5.564  10.414  10.399  0.6764 -1.1963  0.4466
  654MOL0     O90115   5.095   7.754   0.947 -0.6522 -0.0136  0.0183
  654MOL0     C90116   5.003   7.698   0.885  0.0786  0.7346  0.4958
  654MOL0     O90117   5.013   7.595   0.796 -0.0490 -0.3688 -0.0446
  654MOL0     C90118   5.145   7.560   0.770  0.6699 -0.3444  0.6769
  654MOL0     C90119   5.217   7.614   0.659 -0.1127  0.4245 -0.3649
  654MOL0     C90120   5.350   7.580   0.639  0.5276 -0.1672  0.3154
  654MOL0     C90121   5.405   7.478   0.711 -0.1348 -0.3931  1.1491
  654MOL0     O90122   5.525   7.433   0.671  0.3286  0.1929 -0.1972
  654MOL0     C90123   5.621   7.387   0.757 -0.4027 -0.5449 -0.6547
  654MOL0     C90124   5.749   7.344   0.681  0.4891 -0.8407  0.4248
  654MOL0     C90125   5.886   7.345   0.758  0.0271  0.3645 -0.5043
  654MOL0     C90126   5.888   7.258   0.890  0.1431  0.6855 -0.6305
  654MOL0     C90127   6.007   7.286   0.975  0.0838 -0.6218  0.1145
  654MOL0     C90128   6.144   7.275   0.897 -1.1074 -0.0319 -0.3527
  654MOL0     C90129   6.262   7.310   0.994  0.2510 -0.7728  0.5717
  654MOL0     C90130   6.260   7.451   1.050 -0.0111  0.0319 -0.6441
  654MOL0     N90131   6.384   7.502   1.105 -0.6135 -0.1108  0.2486
  654MOL0     C90132   6.465   7.437   1.201  0.2832 -0.2388  0.6728
  654MOL0     C90133   6.567   7.521   1.233 -1.3065  0.3540 -0.2402
  654MOL0     C90134   6.679   7.464   1.324  0.3239 -0.8203  0.0556
  654MOL0     C90135   6.774   7.585   1.371  0.1872  0.5663  0.6787
  654MOL0     C90136   6.860   7.634   1.256 -0.1514 -0.8208 -0.4627
  654MOL0     C90137   7.005   7.644   1.291 -0.4999  0.2433  0.6019
  654MOL0     O90138   7.064   7.527   1.348 -0.1245  0.4314 -1.3291
  654MOL0     C90139   7.197   7.523   1.378  0.2610 -0.1303  0.4956
  654MOL0     C90140   7.296   7.605   1.328 -0.5465  0.4316 -0.1001
  654MOL0     C90141   7.433   7.604   1.366  0.2795 -0.6836 -0.0662
  654MOL0     C90142   7.519   7.723   1.313 -0.4126  0.7977 -0.2866
  654MOL0     C90143   7.470   7.495   1.440  0.5699  0.4166  0.2376
  654MOL0     C90144   7.607   7.472   1.479  0.3208  0.6706  0.3256
  654MOL0     O90145   7.699   7.496   1.384  0.8397 -0.6089 -0.7648
  654MOL0     C90146   7.814   7.430   1.426 -0.2175  0.2661  0.3264
  654MOL0     C90147   7.839   7.293   1.395 -0.0031 -0.6675 -0.4715
  654MOL0     C90148   7.954   7.229   1.431 -1.1441 -0.0728 -0.0807
  654MOL0     C90149   8.060   7.302   1.492  0.3117 -0.3548 -0.1496
  654MOL0     O90150   8.180   7.254   1.536  1.3739 -0.4960 -1.0724
  654MOL0     C90151   8.195   7.114   1.551  0.1178  0.0058  0.4460
  654MOL0     C90152   8.258   7.037   1.429 -0.1404 -0.0754 -0.1434
  654MOL0     C90153   8.402   7.077   1.408 -0.1038 -1.0570 -0.0205
  654MOL0     C90154   8.471   7.006   1.294  0.6938  0.3257 -0.4344
  654MOL0     C90155   8.619   7.041   1.274 -0.3893  0.0094  0.3070
  654MOL0     C90156   8.678   7.020   1.133  0.1724 -0.5509 -0.2344
  654MOL0     C90157   8.674   6.880   1.088 -0.2765 -0.5198  0.5288
  654MOL0     C90158   8.714   6.870   0.934 -0.4823 -0.1360 -0.1893
  654MOL0    Cl90159   8.875   6.948   0.909  0.0316  0.1072 -0.0605
  654MOL0     C90160   8.042   7.445   1.503  0.6039  0.2245 -0.7287
  654MOL0     C90161   7.916   7.504   1.474  0.6436  0.4680 -0.3938
  654MOL0     O90162   7.624   7.436   1.595 -0.0083 -0.0064 -0.7089
  654MOL0     C90163   7.379   7.403   1.476  0.4259 -0.6016 -0.0426
  654MOL0     C90164   7.245   7.418   1.454  0.6625 -0.5945  0.4425
  654MOL0     N90165   6.557   7.631   1.148 -0.1377 -0.3833  0.0875
  654MOL0     N90166   6.457   7.603   1.066  0.2014 -0.5490  0.4319
  654MOL0     C90167   5.340   7.429   0.826  0.2492  0.0964 -0.1783
  654MOL0     C90168   5.210   7.468   0.855 -0.8364  0.2598 -0.7191
  654MOL0     C90169   4.868   7.743   0.916  0.8429  1.0076  0.3086
  654MOL0     C90170   4.803   7.819   0.814 -0.4408  0.3579  0.5531
  654MOL0     C90171   4.671   7.861   0.836 -0.7662 -0.0279 -0.1212
  654MOL0     C90172   4.609   7.848   0.962 -0.1832 -0.2261 -0.2242
  654MOL0     O90173   4.482   7.897   0.972 -0.4930 -0.2729 -0.2356
  654MOL0     C90174   4.449   7.979   1.088 -0.1800 -0.0788 -0.4474
  654MOL0     C90175   4.385   7.894   1.206 -0.3011 -0.3184  0.4506
  654MOL0     C90176   4.234   7.871   1.184  0.1103 -0.4691  0.0450
  654MOL0     C90177   4.214   7.762   1.085 -0.1276 -0.2197 -0.7212
  654MOL0     C90178   4.078   7.764   1.037 -0.1986 -0.5103  0.3543
  654MOL0     C90179   3.978   7.766   0.971 -0.0608  0.0100  0.2415
  654MOL0     C90180   4.685   7.793   1.068 -0.0458  0.2024  0.2170
  654MOL0     C90181   4.809   7.728   1.042  0.4762  0.2170 -0.5366
  654MOL0     C90182   4.888   7.670   1.151 -0.2642  0.4959  0.0946
  654MOL0     H90183   5.182   7.690   0.590 -0.1030  1.4835  0.7645
  654MOL0     H90184   5.405   7.634   0.562 -2.4425  1.4107 -0.8907
  654MOL0     H90185   5.587   7.296   0.807  0.4914 -1.6475 -1.9690
  654MOL0     H90186   5.649   7.463   0.830  2.3411 -1.1873 -0.9224
  654MOL0     H90187   5.727   7.244   0.640 -1.0857 -1.3185  2.2617
  654MOL0     H90188   5.765   7.410   0.596 -1.4037 -1.5766 -0.5678
  654MOL0     H90189   5.961   7.304   0.690 -0.4913 -0.4732 -0.5796
  654MOL0     H90190   5.926   7.445   0.779 -0.4760  0.3829  0.4139
  654MOL0     H90191   5.796   7.287   0.941 -0.2696 -2.2305  0.4203
  654MOL0     H90192   5.877   7.153   0.864 -0.1885  1.0620 -2.1147
  654MOL0     H90193   6.005   7.211   1.055  0.9794 -2.9109 -1.8716
  654MOL0     H90194   5.997   7.383   1.024 -0.5403 -1.9118  2.7411
  654MOL0     H90195   6.161   7.176   0.854 -0.0927 -1.1183  2.2999
  654MOL0     H90196   6.143   7.353   0.821  0.5516  0.4509  0.0945
  654MOL0     H90197   6.357   7.320   0.941  0.5093 -0.8063  1.0180
  654MOL0     H90198   6.289   7.225   1.058 -0.9592 -2.4151 -0.9851
  654MOL0     H90199   6.220   7.519   0.974 -1.7658 -0.1499  0.0739
  654MOL0     H90200   6.197   7.458   1.139 -0.9244  0.6720 -1.3297
  654MOL0     H90201   6.450   7.336   1.237  0.8831 -0.0734  1.4163
  654MOL0     H90202   6.732   7.394   1.259  0.4542  0.4585 -1.2721
  654MOL0     H90203   6.628   7.426   1.413  0.4293  0.2415  0.5966
  654MOL0     H90204   6.704   7.664   1.400  0.0853  0.6225  0.2896
  654MOL0     H90205   6.832   7.558   1.460  1.0904  2.1756  0.6166
  654MOL0     H90206   6.850   7.570   1.167  0.5763  0.4886 -1.5303
  654MOL0     H90207   6.823   7.733   1.229 -0.1834 -0.4607  0.8583
  654MOL0     H90208   7.051   7.652   1.192  0.3227  1.9430  1.0942
  654MOL0     H90209   7.023   7.731   1.354  0.2922 -0.8626  1.9665
  654MOL0     H90210   7.257   7.678   1.259 -1.3692 -0.7938 -0.9675
  654MOL0     H90211   7.585   7.759   1.393  1.5224 -0.1431 -1.3778
  654MOL0     H90212   7.451   7.802   1.283  0.6906  1.7629 -0.3071
  654MOL0     H90213   7.575   7.696   1.224  0.0975 -2.7687  0.9298
  654MOL0     H90214   7.759   7.234   1.350 -0.7815  1.8355 -2.5899
  654MOL0     H90215   7.968   7.122   1.415  3.4095  0.6463 -2.3707
  654MOL0     H90216   8.262   7.098   1.636  0.5267  0.8242  0.2815
  654MOL0     H90217   8.104   7.065   1.587  1.6367 -1.3292  2.7176
  654MOL0     H90218   8.256   6.929   1.450  1.2881  0.2967  2.2595
  654MOL0     H90219   8.196   7.055   1.341 -1.1432 -1.6468  0.1875
  654MOL0     H90220   8.463   7.068   1.498  0.8701  3.6541  0.0399
  654MOL0     H90221   8.411   7.186   1.406  2.3575 -1.0701  3.2096
  654MOL0     H90222   8.417   7.027   1.201  0.0586 -2.7536 -0.8736
  654MOL0     H90223   8.464   6.898   1.306 -0.3000  0.5697  1.5439
  654MOL0     H90224   8.635   7.143   1.309 -1.6442 -0.3345  2.0267
  654MOL0     H90225   8.676   6.977   1.343 -0.1325 -0.6942 -0.5343
  654MOL0     H90226   8.780   7.060   1.138 -0.2322  0.6453 -1.0485
  654MOL0     H90227   8.630   7.089   1.063  1.8672  0.7705 -0.1646
  654MOL0     H90228   8.584   6.826   1.118 -1.7497  1.3090 -0.3712
  654MOL0     H90229   8.765   6.834   1.129 -0.3337 -3.0225 -1.8239
  654MOL0     H90230   8.639   6.927   0.878 -0.9647  1.2498  1.7642
  654MOL0     H90231   8.709   6.764   0.906 -1.2843  0.1778 -1.3172
  654MOL0     H90232   8.128   7.503   1.535 -0.4401  1.7972 -0.6642
  654MOL0     H90233   7.901   7.610   1.493  2.1896  0.9214 -1.4444
  654MOL0     H90234   7.399   7.306   1.521  0.6184 -0.9729 -0.8959
  654MOL0     H90235   7.165   7.354   1.489 -1.9252  1.7126 -0.8190
  654MOL0     H90236   5.373   7.348   0.890 -1.3000 -1.1886 -0.9243
  654MOL0     H90237   5.157   7.423   0.939  1.1045  3.5598  2.5664
  654MOL0     H90238   4.851   7.845   0.720 -0.4063  0.0136  0.4749
  654MOL0     H90239   4.605   7.910   0.765 -1.1007 -0.6508 -0.2536
  654MOL0     H90240   4.543   8.017   1.129 -0.2713 -0.1460 -0.1783
  654MOL0     H90241   4.383   8.060   1.054  0.5550 -0.6258 -3.5240
  654MOL0     H90242   4.394   7.944   1.303 -1.5723  1.2002 -0.1705
  654MOL0     H90243   4.437   7.799   1.223 -3.0932 -2.0200  0.0818
  654MOL0     H90244   4.177   7.846   1.274 -0.8509 -0.0831 -0.4447
  654MOL0     H90245   4.201   7.963   1.136  1.9309 -0.7628 -1.9116
  654MOL0     H90246   4.233   7.667   1.135 -2.3426 -1.3269 -1.8270
  654MOL0     H90247   4.282   7.778   1.002  0.4175 -1.1018 -0.4569
  654MOL0     H90248   3.890   7.763   0.909 -2.0988 -0.0484  2.9458
  654MOL0     H90249   4.649   7.792   1.170  0.6262  0.9359  0.4688
  654MOL0     H90250   4.817   7.652   1.233  0.2120 -0.4015  0.3281
  654MOL0     H90251   4.941   7.581   1.116 -1.1291  0.1779 -0.4271
  654MOL0     H90252   4.966   7.737   1.188 -1.4169  0.8713  1.9724
  655MOL0     O90253   9.260   1.934  10.368 -0.2083  0.8516 -0.1058
  655MOL0     C90254   9.196   2.021  10.320 -0.4594 -0.5402 -0.4617
  655MOL0     O90255   9.241   2.095  10.216 -0.0027  0.1173  0.3168
  655MOL0     C90256   9.372   2.062  10.175  0.4437 -0.3466 -0.1628
  655MOL0     C90257   9.476   2.143  10.217 -0.4490  0.1120  0.1883
  655MOL0     C90258   9.609   2.121  10.189 -0.4771 -0.2477 -0.1440
  655MOL0     C90259   9.646   2.018  10.099 -0.8063 -0.0281  0.1647
  655MOL0     O90260   9.775   2.023  10.047 -0.4348 -0.6101 -0.9092
  655MOL0     C90261   9.832   1.900  10.002  0.8141 -0.0766  0.0833
  655MOL0     C90262   9.976   1.899  10.022 -0.8064 -0.2021  0.0193
  655MOL0     C90263  10.012   1.885  10.169 -0.1711 -0.7243  0.0518
  655MOL0     C90264  10.157   1.865  10.169 -0.4529  0.1533  0.4501
  655MOL0     C90265  10.221   1.871  10.304 -0.1248 -0.5820  0.1576
  655MOL0     C90266  10.365   1.902  10.301  0.0551 -0.4452  0.2861
  655MOL0     C90267  10.409   1.977  10.432 -0.1876  0.1278  1.0071
  655MOL0     C90268  10.549   2.031  10.421 -0.1077 -1.3090 -0.2986
  655MOL0     N90269  10.657   1.934  10.429  0.0885 -0.0354  0.3241
  655MOL0     C90270  10.707   1.885  10.550  1.0583  0.0997 -0.1465
  655MOL0     C90271  10.815   1.817  10.511 -0.2157  0.5847 -0.5846
  655MOL0     C90272  10.905   1.738  10.608  0.1282 -0.5528  0.1305
  655MOL0     C90273  11.013   1.829  10.671  0.7235  0.0293 -0.6329
  655MOL0     C90274  11.102   1.888  10.556 -0.0330  0.1640 -0.1136
  655MOL0     C90275  11.236   1.934  10.604  0.5715  0.5853 -0.6759
  655MOL0     O90276  11.306   1.824  10.677  0.7234  0.1450 -0.3267
  655MOL0     C90277  11.443   1.831  10.665  0.7115  1.5927  0.6991
  655MOL0     C90278  11.512   1.950  10.697  0.3770 -0.1261  1.5375
  655MOL0     C90279  11.650   1.960  10.668 -0.0428  0.3162 -1.0420
  655MOL0     C90280  11.721   2.094  10.688 -0.0149  0.3207 -0.0836
  655MOL0     C90281  11.718   1.839  10.641 -0.9546 -0.0219  0.1190
  655MOL0     C90282  11.864   1.832  10.649  0.1325  0.4404  0.1689
  655MOL0     O90283  11.922   1.888  10.762 -0.2202 -0.5208  0.2225
  655MOL0     C90284  12.059   1.899  10.772  0.0233  0.7959  0.1959
  655MOL0     C90285  12.118   1.851  10.890  0.0086 -0.1002 -0.3607
  655MOL0     C90286  12.254   1.835  10.904  0.4030  0.2402  0.0522
  655MOL0     C90287  12.344   1.878  10.799  0.1727 -1.1666 -0.0357
  655MOL0     O90288  12.480   1.878  10.815  0.7693 -0.6011  0.2451
  655MOL0     C90289  12.539   1.844  10.940 -0.4287 -0.1813  0.4570
  655MOL0     C90290  12.692   1.841  10.913  0.1222  0.1161 -0.2931
  655MOL0     C90291  12.738   1.837  10.775  0.2181 -0.2605 -0.1307
  655MOL0     C90292  12.887   1.861  10.769 -0.0073  0.2539  0.2628
  655MOL0     C90293  12.942   1.845  10.628  0.1268  0.8140 -0.5366
  655MOL0     C90294  13.097   1.874  10.636 -0.5442 -0.6792 -0.8842
  655MOL0     C90295  13.143   1.849  10.494 -0.1958  0.3652  0.5304
  655MOL0     C90296  13.296   1.842  10.479  0.1657 -0.1646 -0.5501
  655MOL0    Cl90297  13.382   1.992  10.523  0.4772 -0.1878  0.5285
  655MOL0     C90298  12.282   1.939  10.685 -0.8413 -0.1681  0.1359
  655MOL0     C90299  12.145   1.939  10.674 -0.7205  0.1559 -0.1146
  655MOL0     O90300  11.923   1.774  10.559 -0.2925  0.0728 -0.5031
  655MOL0     C90301  11.646   1.720  10.609 -0.0724  0.0593 -0.4593
  655MOL0     C90302  11.513   1.719  10.615 -0.1831  0.2675 -0.7114
  655MOL0     N90303  10.829   1.826  10.372  0.2015 -0.3115  0.0514
  655MOL0     N90304  10.741   1.904  10.322 -0.1797 -0.4669  0.3193
  655MOL0     C90305   9.547   1.927  10.050 -0.5815  0.7119  0.3811
  655MOL0     C90306   9.411   1.949  10.096  0.6098 -0.5966  0.0580
  655MOL0     C90307   9.051   2.054  10.374 -0.5881 -0.0724  0.4106
  655MOL0     C90308   8.969   2.142  10.293  0.7465 -0.1979 -0.2943
  655MOL0     C90309   8.851   2.189  10.343 -0.5543  0.2746 -0.4308
  655MOL0     C90310   8.807   2.145  10.468 -0.2410 -0.9353  0.6754
  655MOL0     O90311   8.679   2.183  10.497  0.7353  0.4755 -0.2102
  655MOL0     C90312   8.671   2.249  10.626 -0.2541  0.0489  0.2081
  655MOL0     C90313   8.551   2.348  10.618  0.1865  0.2558  0.6073
  655MOL0     C90314   8.592   2.484  10.550 -0.4741  0.0558  0.6774
  655MOL0     C90315   8.705   2.562  10.614  0.1987  0.0460  0.1700
  655MOL0     C90316   8.674   2.585  10.748 -0.0533  0.0592 -0.8696
  655MOL0     C90317   8.645   2.594  10.869 -0.6865 -1.1835 -0.4746
  655MOL0     C90318   8.871   2.056  10.546  0.7800  0.7831  0.4063
  655MOL0     C90319   9.002   2.016  10.504  0.7649  0.2587  0.1368
  655MOL0     C90320   9.073   1.930  10.604 -0.3537  0.0554  0.4660
  655MOL0     H90321   9.449   2.221  10.288  0.4475 -1.6927  2.6805
  655MOL0     H90322   9.678   2.195  10.229 -1.2138  1.4755 -1.9282
  655MOL0     H90323   9.798   1.878   9.901  1.7741  1.5093 -0.6311
  655MOL0     H90324   9.782   1.824  10.063 -1.4809  1.0847 -0.2248
  655MOL0     H90325  10.008   1.801   9.984  0.6193 -0.6443  2.1972
  655MOL0     H90326  10.026   1.978   9.965 -0.6827 -1.7198 -2.1018
  655MOL0     H90327   9.993   1.979  10.221 -1.1984 -1.3555  0.8544
  655MOL0     H90328   9.978   1.793  10.217  0.4389 -0.2806  1.3804
  655MOL0     H90329  10.180   1.768  10.124  1.2939  1.4171 -1.5625
  655MOL0     H90330  10.209   1.944  10.114 -4.4965  2.7496 -0.0167
  655MOL0     H90331  10.203   1.779  10.360 -1.5828  0.1188  0.9004
  655MOL0     H90332  10.174   1.945  10.369 -0.0075  0.0103 -0.4145
  655MOL0     H90333  10.433   1.819  10.277  0.9706  0.5415 -0.6221
  655MOL0     H90334  10.384   1.963  10.213  2.3269 -1.8461 -0.2790
  655MOL0     H90335  10.419   1.900  10.509  2.1259 -1.3012 -0.6009
  655MOL0     H90336  10.348   2.064  10.458 -0.3269  0.6016 -0.7529
  655MOL0     H90337  10.567   2.071  10.321  0.4353 -0.9195 -0.0489
  655MOL0     H90338  10.565   2.114  10.490 -0.2176 -2.0847  0.6704
  655MOL0     H90339  10.670   1.913  10.648  0.9732 -2.5330  0.6313
  655MOL0     H90340  10.941   1.650  10.554 -3.0976 -0.7646 -1.9225
  655MOL0     H90341  10.845   1.701  10.692  1.0503 -0.2142  0.9717
  655MOL0     H90342  10.961   1.898  10.739 -1.4335 -3.4165  1.5478
  655MOL0     H90343  11.080   1.768  10.733  2.6900  1.6187 -1.0855
  655MOL0     H90344  11.122   1.817  10.475  1.6720  0.4459  0.0117
  655MOL0     H90345  11.055   1.971  10.502  1.8671  1.2196 -0.2690
  655MOL0     H90346  11.300   1.946  10.516 -0.7619  0.0100 -1.7656
  655MOL0     H90347  11.226   2.028  10.658  3.5702  1.2034 -1.0162
  655MOL0     H90348  11.450   2.035  10.721 -3.4981 -1.7311 -1.5660
  655MOL0     H90349  11.759   2.115  10.587  2.3590 -0.5302  0.5903
  655MOL0     H90350  11.805   2.076  10.754  0.0381 -1.6156 -0.6205
  655MOL0     H90351  11.663   2.173  10.737  1.7711 -0.3512  3.3991
  655MOL0     H90352  12.060   1.817  10.975 -0.6764  1.2737 -0.2579
  655MOL0     H90353  12.283   1.796  11.001  0.4153  2.6927  1.1264
  655MOL0     H90354  12.506   1.914  11.017 -0.1141 -1.8041  2.1482
  655MOL0     H90355  12.507   1.743  10.970 -0.4738 -0.2288  0.2536
  655MOL0     H90356  12.741   1.917  10.975 -0.3004 -0.0013  0.1994
  655MOL0     H90357  12.715   1.749  10.967  0.6904  1.1180  1.2362
  655MOL0     H90358  12.682   1.917  10.724 -2.4154 -3.4146 -2.6150
  655MOL0     H90359  12.718   1.740  10.730  1.1798 -0.2859 -0.5269
  655MOL0     H90360  12.932   1.783  10.832  1.2437  1.6180  1.1565
  655MOL0     H90361  12.909   1.962  10.806 -3.1170  1.3582 -0.5964
  655MOL0     H90362  12.914   1.744  10.596  2.0077  0.3691 -0.8868
  655MOL0     H90363  12.895   1.914  10.557 -0.3743 -0.7354 -1.7801
  655MOL0     H90364  13.148   1.804  10.703 -1.3457 -2.1936 -1.8028
  655MOL0     H90365  13.124   1.970  10.681 -0.7943 -1.4436  0.9914
  655MOL0     H90366  13.114   1.935  10.432  0.5345 -0.8377 -1.5685
  655MOL0     H90367  13.095   1.766  10.440  0.1346  0.4170  0.1547
  655MOL0     H90368  13.313   1.832  10.372 -2.1855 -0.4803 -0.9487
  655MOL0     H90369  13.338   1.762  10.540  0.2384 -0.4184 -0.9321
  655MOL0     H90370  12.343   1.977  10.604  0.6465  0.5966  1.5496
  655MOL0     H90371  12.108   1.973  10.577 -0.2989  0.9913  0.0091
  655MOL0     H90372  11.695   1.626  10.582 -1.9246 -1.1081  0.0742
  655MOL0     H90373  11.463   1.625  10.596  0.4493 -0.3960  0.7756
  655MOL0     H90374   9.574   1.855   9.973  0.0756  1.6816 -0.3150
  655MOL0     H90375   9.332   1.888  10.055 -2.4539  1.0736  3.0092
  655MOL0     H90376   9.010   2.175  10.197  0.4909 -0.4080 -0.4768
  655MOL0     H90377   8.798   2.269  10.293 -5.8921 -1.3035  1.9698
  655MOL0     H90378   8.652   2.175  10.704 -2.3712  0.2714 -0.0241
  655MOL0     H90379   8.762   2.302  10.653 -0.2218  0.1587 -0.1099
  655MOL0     H90380   8.522   2.373  10.721 -1.0241 -0.8958  0.5797
  655MOL0     H90381   8.465   2.302  10.569 -0.4237  0.8651  1.0857
  655MOL0     H90382   8.618   2.465  10.445 -1.3682  0.4101  0.3797
  655MOL0     H90383   8.504   2.548  10.549 -1.2826 -1.0299  0.6771
  655MOL0     H90384   8.720   2.655  10.560  0.9534 -1.0359 -1.5720
  655MOL0     H90385   8.804   2.515  10.605  1.1904  1.9008  0.8237
  655MOL0     H90386   8.628   2.597  10.974 -1.9278 -0.1278 -0.6742
  655MOL0     H90387   8.831   2.024  10.642  1.0051  0.2058  0.3073
  655MOL0     H90388   9.010   1.906  10.690 -1.9282  0.5923 -0.5008
  655MOL0     H90389   9.105   1.835  10.559  1.9260  1.0661 -0.1616
  655MOL0     H90390   9.171   1.963  10.640  1.3878 -2.8752 -1.1938
  656MOL0     O90391   0.050  10.564   2.816 -0.3899 -0.4291 -0.8829
  656MOL0     C90392  -0.035  10.643   2.843  0.8767 -0.2183  0.1228
  656MOL0     O90393  -0.094  10.730   2.751  0.2217  0.9499  0.8379
  656MOL0     C90394  -0.044  10.731   2.625 -0.6051  0.2351  0.8100
  656MOL0     C90395  -0.090  10.653   2.528 -0.0522 -0.7064  0.0614
  656MOL0     C90396  -0.038  10.651   2.403  0.3148  0.2176 -0.2384
  656MOL0     C90397   0.073  10.729   2.375  0.0479 -0.8457 -0.8590
  656MOL0     O90398   0.128  10.736   2.252 -0.5211 -0.3472 -0.5543
  656MOL0     C90399   0.067  10.664   2.141 -0.2319 -0.1249  0.1989
  656MOL0     C90400   0.163  10.670   2.028  0.3353  0.2415 -0.0112
  656MOL0     C90401   0.261  10.556   2.030  1.3425 -1.1337  0.1935
  656MOL0     C90402   0.360  10.563   1.914  0.3681  0.2583 -0.3407
  656MOL0     C90403   0.417  10.427   1.883 -0.3531 -0.3466  0.0046
  656MOL0     C90404   0.504  10.369   1.991 -0.2012  0.5475 -0.4122
  656MOL0     C90405   0.601  10.263   1.936 -0.0365  0.3803  0.7414
  656MOL0     C90406   0.682  10.209   2.052 -0.1535  1.1939  0.1626
  656MOL0     N90407   0.801  10.142   2.001 -0.0520  0.7989 -0.1789
  656MOL0     C90408   0.907  10.206   1.949 -0.6881 -0.0497 -0.0971
  656MOL0     C90409   0.996  10.105   1.919 -0.2087 -0.0845  0.3909
  656MOL0     C90410   1.125  10.125   1.847  0.6135  0.0137 -0.5604
  656MOL0     C90411   1.179  10.004   1.778  0.0859 -0.2351  0.2891
  656MOL0     C90412   1.083   9.950   1.672 -0.0755  0.7020 -0.0975
  656MOL0     C90413   1.146   9.878   1.550  0.9408 -0.3942 -0.4880
  656MOL0     O90414   1.181   9.743   1.576  0.4865 -0.0456  0.0535
  656MOL0     C90415   1.273   9.690   1.490 -0.2358  0.0871 -0.2291
  656MOL0     C90416   1.244   9.680   1.353 -0.2244 -0.0272 -0.2213
  656MOL0     C90417   1.333   9.638   1.260 -1.0395 -0.2491 -0.1702
  656MOL0     C90418   1.268   9.648   1.118  0.5126 -0.2923  0.5771
  656MOL0     C90419   1.473   9.618   1.301 -0.5623  0.2416  0.1353
  656MOL0     C90420   1.579   9.587   1.206 -0.2014 -0.1825 -1.0203
  656MOL0     O90421   1.704   9.568   1.262  0.4065  0.2187  0.3545
  656MOL0     C90422   1.814   9.603   1.193 -0.3843 -0.4083  0.9522
  656MOL0     C90423   1.844   9.543   1.072  0.4871 -0.1931  0.2155
  656MOL0     C90424   1.952   9.580   0.994 -0.7789 -0.0303 -0.8178
  656MOL0     C90425   2.049   9.676   1.043  0.7197  0.0406 -0.4429
  656MOL0     O90426   2.167   9.708   0.988 -0.3015 -0.0112 -0.3214
  656MOL0     C90427   2.158   9.792   0.871  0.0763  0.3646  0.7215
  656MOL0     C90428   2.284   9.740   0.777 -0.3338 -0.1273 -0.2577
  656MOL0     C90429   2.407   9.818   0.820 -0.2326  0.0263 -1.4699
  656MOL0     C90430   2.530   9.782   0.745  0.2749  1.0365 -1.1261
  656MOL0     C90431   2.598   9.655   0.802 -0.0818 -0.0543 -0.9756
  656MOL0     C90432   2.668   9.582   0.691 -0.3491 -0.2953  0.4535
  656MOL0     C90433   2.582   9.531   0.576  0.0892 -0.0563 -0.0032
  656MOL0     C90434   2.636   9.415   0.501 -0.2912  0.6497  0.1491
  656MOL0    Cl90435   2.822   9.437   0.459 -0.2049  0.0339 -0.2296
  656MOL0     C90436   2.021   9.731   1.173  0.1501  0.2505  0.7299
  656MOL0     C90437   1.908   9.692   1.245  0.1848 -0.2613  0.2061
  656MOL0     O90438   1.558   9.608   1.087 -0.5307 -0.0219 -0.1733
  656MOL0     C90439   1.501   9.629   1.437 -0.1139 -0.1553  0.1564
  656MOL0     C90440   1.402   9.663   1.531  0.4849 -0.2543  1.2547
  656MOL0     N90441   0.932   9.983   1.956  0.0193  0.1051  0.8961
  656MOL0     N90442   0.815  10.008   2.005 -0.3421 -0.7555 -0.1102
  656MOL0     C90443   0.116  10.806   2.477 -0.3085 -1.0051  0.0444
  656MOL0     C90444   0.059  10.817   2.604 -0.9238 -0.4057  0.3313
  656MOL0     C90445  -0.095  10.644   2.972 -0.8552  0.3797 -0.8523
  656MOL0     C90446  -0.109  10.761   3.034  0.4323 -0.9250 -0.1207
  656MOL0     C90447  -0.157  10.774   3.169  0.2045 -0.0924 -0.0360
  656MOL0     C90448  -0.202  10.660   3.235  1.1626  0.0752 -0.1518
  656MOL0     O90449  -0.266  10.691   3.358  0.3988  0.8860  0.0037
  656MOL0     C90450  -0.336  10.587   3.432 -0.2453  0.8841  1.2575
  656MOL0     C90451  -0.424  10.643   3.545 -0.2277 -0.8798  0.8580
  656MOL0     C90452  -0.499  10.775   3.511  0.3504 -0.0777  1.0791
  656MOL0     C90453  -0.592  10.764   3.395 -0.5565 -0.1973 -0.1942
  656MOL0     C90454  -0.656  10.894   3.364  0.2925 -0.2891 -0.0169
  656MOL0     C90455  -0.714  11.002   3.353  0.5352  0.2497  0.1092
  656MOL0     C90456  -0.191  10.537   3.176  0.0338  0.2359  0.8004
  656MOL0     C90457  -0.150  10.531   3.042  0.0521  0.2056 -0.3054
  656MOL0     C90458  -0.135  10.393   2.990 -0.4683 -0.5999 -0.7771
  656MOL0     H90459  -0.163  10.578   2.557 -0.9250  0.0254 -0.1959
  656MOL0     H90460  -0.084  10.586   2.330  0.1323 -0.3052  0.3316
  656MOL0     H90461  -0.030  10.714   2.135 -1.1666 -1.5696  2.1706
  656MOL0     H90462   0.055  10.558   2.168  1.1664 -0.2837  0.2627
  656MOL0     H90463   0.101  10.657   1.940  0.1290 -1.4351  0.3538
  656MOL0     H90464   0.214  10.766   2.010 -1.9413  2.0218  2.2533
  656MOL0     H90465   0.316  10.557   2.125  0.3924 -2.3473  0.7761
  656MOL0     H90466   0.202  10.465   2.020  2.8225 -2.2748  1.4009
  656MOL0     H90467   0.312  10.592   1.820 -1.3806  0.3889  0.5443
  656MOL0     H90468   0.444  10.629   1.936  0.1193  0.0728  1.2579
  656MOL0     H90469   0.476  10.450   1.794 -0.4431  0.1044  0.0584
  656MOL0     H90470   0.333  10.361   1.859  0.7051 -1.2762 -1.2937
  656MOL0     H90471   0.567  10.448   2.034  1.1040 -1.1054  0.8488
  656MOL0     H90472   0.444  10.309   2.059  1.6560 -1.6745 -0.5963
  656MOL0     H90473   0.668  10.310   1.863  0.6679  0.3651  1.3661
  656MOL0     H90474   0.550  10.182   1.882 -0.7645  3.1445 -3.1373
  656MOL0     H90475   0.707  10.294   2.115 -2.0258  0.9023  1.3873
  656MOL0     H90476   0.623  10.134   2.107  3.0252  0.3121  2.6922
  656MOL0     H90477   0.919  10.314   1.944  1.4043 -0.2375  0.0515
  656MOL0     H90478   1.200  10.154   1.921  2.0450 -0.3041 -1.8483
  656MOL0     H90479   1.108  10.208   1.778 -0.8973 -0.1058 -0.3658
  656MOL0     H90480   1.267  10.044   1.727 -0.3632  1.2003  0.5746
  656MOL0     H90481   1.202   9.922   1.845 -1.5173 -1.1108 -0.1939
  656MOL0     H90482   1.010   9.879   1.712 -0.1094  0.7421 -0.0884
  656MOL0     H90483   1.030  10.042   1.644  0.2537  1.1622  0.7534
  656MOL0     H90484   1.077   9.869   1.466  1.6013 -2.4205 -0.8773
  656MOL0     H90485   1.236   9.935   1.523  1.6231 -0.3843  1.6057
  656MOL0     H90486   1.144   9.693   1.313 -0.6387 -1.8438  0.1424
  656MOL0     H90487   1.301   9.737   1.064 -0.8359  0.4938  0.9962
  656MOL0     H90488   1.159   9.657   1.114  0.6959  2.1743 -1.6074
  656MOL0     H90489   1.288   9.553   1.067  0.1801 -0.2277  0.3219
  656MOL0     H90490   1.758   9.485   1.044 -1.2030  0.9089  2.7382
  656MOL0     H90491   1.966   9.521   0.904 -0.1959 -0.9860 -0.1184
  656MOL0     H90492   2.070   9.756   0.818  0.2892 -2.3874  2.0720
  656MOL0     H90493   2.150   9.899   0.895  1.0653  0.3937  0.9685
  656MOL0     H90494   2.295   9.632   0.791 -1.6141  0.0159  2.6161
  656MOL0     H90495   2.262   9.772   0.675  1.1050 -0.4620 -0.6943
  656MOL0     H90496   2.431   9.796   0.924 -0.6478  0.8600 -1.1830
  656MOL0     H90497   2.379   9.923   0.805 -0.2393 -0.0331 -1.8821
  656MOL0     H90498   2.603   9.863   0.749  1.5031 -0.0810  1.4563
  656MOL0     H90499   2.497   9.756   0.644 -1.5118  1.5501 -0.7168
  656MOL0     H90500   2.669   9.673   0.883  1.0925 -0.0567 -1.9785
  656MOL0     H90501   2.520   9.591   0.845  1.4373 -1.7603 -0.6010
  656MOL0     H90502   2.733   9.505   0.735 -0.0401  0.7086  1.7952
  656MOL0     H90503   2.737   9.652   0.643 -2.8524  2.3971  0.5613
  656MOL0     H90504   2.554   9.603   0.499 -0.1468 -1.8987 -1.7141
  656MOL0     H90505   2.500   9.485   0.631 -0.5347  0.5357 -0.4333
  656MOL0     H90506   2.585   9.394   0.406 -0.6567  0.8715  0.2952
  656MOL0     H90507   2.632   9.321   0.556  4.3944 -0.4975 -0.9660
  656MOL0     H90508   2.089   9.804   1.215 -1.1250  0.7087  2.0957
  656MOL0     H90509   1.884   9.729   1.344 -0.3604 -1.6711  0.6214
  656MOL0     H90510   1.601   9.621   1.477 -0.6907  1.4177  2.0854
  656MOL0     H90511   1.429   9.677   1.635  1.4087  0.1645  0.9653
  656MOL0     H90512   0.196  10.879   2.466 -0.4667 -0.8834 -0.3062
  656MOL0     H90513   0.105  10.883   2.676  2.0574 -0.9078 -0.9169
  656MOL0     H90514  -0.078  10.852   2.982  2.9682 -2.4718 -1.5227
  656MOL0     H90515  -0.181  10.871   3.211  0.4152  0.8780 -2.0520
  656MOL0     H90516  -0.396  10.539   3.354  0.1704  2.2927  0.0127
  656MOL0     H90517  -0.265  10.508   3.460 -0.3798 -0.3103 -1.5057
  656MOL0     H90518  -0.359  10.659   3.632 -0.0316 -2.1255  0.9565
  656MOL0     H90519  -0.503  10.573   3.573 -1.9087  0.4998 -0.2448
  656MOL0     H90520  -0.553  10.806   3.601 -1.3694 -0.9939  0.3907
  656MOL0     H90521  -0.423  10.850   3.484  0.3986 -0.6109 -0.3693
  656MOL0     H90522  -0.673  10.695   3.421  0.8214 -0.9173  2.4437
  656MOL0     H90523  -0.548  10.716   3.307 -2.3357 -1.0495 -0.6609
  656MOL0     H90524  -0.781  11.084   3.336  1.1380  0.9710  1.1138
  656MOL0     H90525  -0.229  10.450   3.228  2.5719 -2.2290 -1.1455
  656MOL0     H90526  -0.028  10.372   2.985 -0.4709 -1.1443  0.8125
  656MOL0     H90527  -0.170  10.326   3.069  0.1458  3.0181  2.8376
  656MOL0     H90528  -0.180  10.376   2.891 -1.0551  0.3156 -0.6807
  657MOL0     O90529   2.605  10.760   9.746  0.4782  0.0470 -0.1071
  657MOL0     C90530   2.598  10.735   9.629  0.2842  0.3827 -0.1250
  657MOL0     O90531   2.649  10.820   9.528 -0.3294 -0.0064 -0.5514
  657MOL0     C90532   2.746  10.908   9.570  0.2828 -0.6814 -0.6089
  657MOL0     C90533   2.732  11.046   9.579  0.1102 -0.7322  0.5884
  657MOL0     C90534   2.828  11.131   9.623  0.3704 -0.4031 -0.3064
  657MOL0     C90535   2.956  11.081   9.659  0.0430 -0.1968 -0.8193
  657MOL0     O90536   3.057  11.155   9.721 -0.4656 -0.4603 -0.1730
  657MOL0     C90537   3.028  11.290   9.726 -0.5257 -0.4705 -0.1927
  657MOL0     C90538   3.153  11.374   9.779  0.0062  0.3256  0.0944
  657MOL0     C90539   3.248  11.400   9.662 -0.4428  0.3729  1.0423
  657MOL0     C90540   3.379  11.461   9.709 -0.1829  0.6376  0.7687
  657MOL0     C90541   3.471  11.511   9.598 -0.2041  0.0138 -0.1568
  657MOL0     C90542   3.576  11.603   9.662  0.0195  0.0170  0.2632
  657MOL0     C90543   3.658  11.672   9.558  0.9844  0.6853  0.2001
  657MOL0     C90544   3.761  11.762   9.629 -0.1482 -0.0559 -0.0273
  657MOL0     N90545   3.885  11.697   9.678  0.3467  1.1411  0.6231
  657MOL0     C90546   3.969  11.623   9.607 -0.8405 -0.8062 -0.3973
  657MOL0     C90547   4.079  11.613   9.690  0.9278 -0.2036 -0.4447
  657MOL0     C90548   4.213  11.550   9.651 -0.0030 -0.0771 -0.7639
  657MOL0     C90549   4.205  11.393   9.655  0.7243 -0.6591  0.2180
  657MOL0     C90550   4.348  11.340   9.649  0.1423 -0.4501  0.1497
  657MOL0     C90551   4.368  11.186   9.694  0.4599 -0.3314  0.4297
  657MOL0     O90552   4.478  11.126   9.619  0.1335 -0.0496  0.0351
  657MOL0     C90553   4.607  11.169   9.630  0.5196  0.6830 -0.4417
  657MOL0     C90554   4.662  11.237   9.744 -0.1192  1.0312  0.4148
  657MOL0     C90555   4.799  11.265   9.752 -0.4085  0.2028  0.4067
  657MOL0     C90556   4.843  11.324   9.883 -0.5266 -0.2080  0.0448
  657MOL0     C90557   4.894  11.217   9.655 -0.6773 -0.1015  0.0043
  657MOL0     C90558   5.041  11.233   9.646  0.6091  0.1166 -0.1580
  657MOL0     O90559   5.101  11.249   9.519  0.3565 -0.2908 -1.0705
  657MOL0     C90560   5.226  11.302   9.509  0.8604 -0.9161  1.1400
  657MOL0     C90561   5.315  11.246   9.417  0.9089 -0.6619 -0.2327
  657MOL0     C90562   5.441  11.312   9.406  0.3561  0.3757 -0.2330
  657MOL0     C90563   5.473  11.438   9.463 -0.6169  0.5460 -0.5809
  657MOL0     O90564   5.595  11.492   9.434  0.1335 -0.6081  0.1655
  657MOL0     C90565   5.589  11.632   9.391 -0.1783  0.4396 -0.5637
  657MOL0     C90566   5.740  11.685   9.382 -0.4161  0.5422  0.5245
  657MOL0     C90567   5.826  11.649   9.256  0.2786 -0.2853  0.1279
  657MOL0     C90568   5.973  11.688   9.256 -0.3835 -0.2328 -0.1509
  657MOL0     C90569   6.043  11.681   9.123 -0.0046 -0.4682  0.3842
  657MOL0     C90570   6.180  11.759   9.118 -0.2677 -0.2340 -0.2279
  657MOL0     C90571   6.275  11.715   9.231 -0.0381  0.0582  0.0939
  657MOL0     C90572   6.409  11.792   9.231  0.6384 -0.1895 -0.1578
  657MOL0    Cl90573   6.521  11.715   9.102 -0.4880  0.1201 -0.0639
  657MOL0     C90574   5.375  11.493   9.538 -0.3479 -0.0870  0.6682
  657MOL0     C90575   5.257  11.430   9.557  0.2305 -0.7602 -0.6863
  657MOL0     O90576   5.103  11.205   9.747 -0.8155  0.5632 -0.6647
  657MOL0     C90577   4.839  11.145   9.545 -0.4749 -0.4194 -0.2883
  657MOL0     C90578   4.702  11.124   9.530 -0.2236 -0.1442 -0.2575
  657MOL0     N90579   4.045  11.663   9.820 -0.1108  0.3569  0.2658
  657MOL0     N90580   3.929  11.713   9.807  0.1720 -0.1150 -0.0178
  657MOL0     C90581   2.968  10.938   9.662 -0.0166 -0.6325 -0.3614
  657MOL0     C90582   2.865  10.858   9.616 -0.1540  0.7707  0.0342
  657MOL0     C90583   2.530  10.607   9.589  0.2795 -0.6209  0.1656
  657MOL0     C90584   2.397  10.587   9.616  0.5228 -0.3734  0.2987
  657MOL0     C90585   2.330  10.477   9.564  0.4005  0.7394 -0.0878
  657MOL0     C90586   2.385  10.381   9.479 -0.2583 -0.9074 -0.0045
  657MOL0     O90587   2.338  10.264   9.436 -0.2352  0.4563  0.2460
  657MOL0     C90588   2.233  10.197   9.506  0.2813 -0.3519  0.5873
  657MOL0     C90589   2.186  10.078   9.423 -0.1801  0.4781  0.1494
  657MOL0     C90590   2.103   9.983   9.513  0.1932  0.1507 -1.3519
  657MOL0     C90591   2.026   9.866   9.452  0.2574 -0.2319  0.2644
  657MOL0     C90592   2.119   9.765   9.402 -0.0156  0.1696  0.1741
  657MOL0     C90593   2.186   9.681   9.354 -0.3169  0.1543  0.6454
  657MOL0     C90594   2.517  10.407   9.450 -0.5984 -0.6131  0.0053
  657MOL0     C90595   2.589  10.513   9.501  0.0551  0.3282 -0.3432
  657MOL0     C90596   2.741  10.505   9.468 -0.1146 -1.0417 -0.3616
  657MOL0     H90597   2.638  11.085   9.538  2.4065  1.1121 -3.6373
  657MOL0     H90598   2.793  11.234   9.633 -1.7043 -1.1928  1.3288
  657MOL0     H90599   2.943  11.303   9.794 -1.6943  0.8262 -1.8304
  657MOL0     H90600   3.003  11.334   9.629  4.2276 -0.2969 -1.6054
  657MOL0     H90601   3.113  11.465   9.824  0.0597 -0.5379  1.9721
  657MOL0     H90602   3.203  11.312   9.853  2.2061 -0.4389 -1.9022
  657MOL0     H90603   3.254  11.301   9.615 -0.1071  1.1960 -0.7340
  657MOL0     H90604   3.200  11.456   9.582  0.4606 -0.9364 -0.4821
  657MOL0     H90605   3.355  11.555   9.760  1.6533  1.4994  0.1377
  657MOL0     H90606   3.439  11.389   9.765  0.3768 -1.0226 -1.7927
  657MOL0     H90607   3.418  11.568   9.522  1.6174  0.0558 -1.4460
  657MOL0     H90608   3.516  11.425   9.548  2.2963  0.2902  1.4074
  657MOL0     H90609   3.529  11.679   9.725 -2.2352 -0.9981 -0.0958
  657MOL0     H90610   3.633  11.544   9.735 -1.5683 -1.0044  0.7409
  657MOL0     H90611   3.594  11.732   9.493 -1.0333  0.0343  1.4487
  657MOL0     H90612   3.715  11.601   9.498  0.0879 -0.9918  1.2199
  657MOL0     H90613   3.794  11.835   9.555 -2.0784  0.9653  0.0563
  657MOL0     H90614   3.721  11.829   9.706  1.3498  1.4826 -0.5413
  657MOL0     H90615   3.964  11.588   9.505  0.9340 -3.5988  0.3554
  657MOL0     H90616   4.278  11.577   9.734 -0.4313 -4.7411  1.4338
  657MOL0     H90617   4.251  11.580   9.553 -1.3290  1.4745 -0.8475
  657MOL0     H90618   4.152  11.362   9.745  0.5383  0.3667  0.4787
  657MOL0     H90619   4.144  11.370   9.567 -0.4381  1.0753  0.5015
  657MOL0     H90620   4.383  11.341   9.546  0.1388 -1.5214  0.1185
  657MOL0     H90621   4.413  11.405   9.708  0.3851  0.7065 -1.3531
  657MOL0     H90622   4.393  11.185   9.801  2.0698 -0.2791  0.0834
  657MOL0     H90623   4.268  11.145   9.677 -0.7307  2.5495 -0.0508
  657MOL0     H90624   4.582  11.250   9.817 -0.4658  0.0695  0.2177
  657MOL0     H90625   4.772  11.396   9.924 -0.6988 -0.0825 -0.4613
  657MOL0     H90626   4.943  11.367   9.882 -0.8934  0.7444  1.3672
  657MOL0     H90627   4.847  11.249   9.962  0.1666 -0.0135  0.2021
  657MOL0     H90628   5.291  11.159   9.357  0.3356 -0.7927  0.1683
  657MOL0     H90629   5.515  11.267   9.341 -0.2391  1.0526 -1.4108
  657MOL0     H90630   5.536  11.646   9.296 -0.5634  0.4203 -0.3531
  657MOL0     H90631   5.536  11.690   9.468  1.8173 -0.0613  1.2648
  657MOL0     H90632   5.736  11.794   9.390 -2.5610  0.7011 -1.6074
  657MOL0     H90633   5.794  11.642   9.467 -1.4266 -0.1326  0.8444
  657MOL0     H90634   5.784  11.704   9.171  1.2551  2.1962  1.1558
  657MOL0     H90635   5.827  11.543   9.228  1.0947  0.1798 -1.8038
  657MOL0     H90636   6.026  11.626   9.329 -2.6956 -1.7559  0.3568
  657MOL0     H90637   5.988  11.791   9.289  0.6494  1.2848 -4.6332
  657MOL0     H90638   6.045  11.573   9.103 -2.2894 -0.8694  1.9336
  657MOL0     H90639   5.974  11.722   9.049  0.0651 -0.9004  0.0764
  657MOL0     H90640   6.164  11.867   9.123  0.3183 -0.1098 -0.9683
  657MOL0     H90641   6.226  11.739   9.021  1.1927  0.8292  0.2132
  657MOL0     H90642   6.290  11.607   9.233 -0.1116  0.0069 -1.2701
  657MOL0     H90643   6.226  11.739   9.326 -2.4593  1.0369 -1.2903
  657MOL0     H90644   6.450  11.777   9.332 -1.9229 -0.4701  0.9052
  657MOL0     H90645   6.393  11.898   9.210 -0.2919  0.2334  2.3208
  657MOL0     H90646   5.396  11.587   9.589  1.5307  0.5486 -1.1672
  657MOL0     H90647   5.185  11.483   9.618  1.7156  0.6246 -0.0535
  657MOL0     H90648   4.898  11.101   9.464 -0.8368 -2.5948  0.5624
  657MOL0     H90649   4.675  11.073   9.439 -0.0373 -1.8505  0.5930
  657MOL0     H90650   3.060  10.889   9.690 -0.4598 -1.2593  0.0421
  657MOL0     H90651   2.890  10.753   9.609  1.3248  1.1022 -0.0842
  657MOL0     H90652   2.349  10.652   9.688  3.7183  2.4642  0.0916
  657MOL0     H90653   2.232  10.457   9.605  0.4246  0.3561 -0.2135
  657MOL0     H90654   2.268  10.157   9.601 -4.3691 -1.3328  2.1782
  657MOL0     H90655   2.151  10.269   9.519 -0.1671 -0.0094 -3.0962
  657MOL0     H90656   2.274  10.029   9.379 -0.2190 -0.3089  0.9301
  657MOL0     H90657   2.122  10.113   9.341  0.4741 -0.1876 -0.6735
  657MOL0     H90658   2.180   9.951   9.585  0.1537  1.3901 -0.7296
  657MOL0     H90659   2.029  10.033   9.577 -0.3676 -0.8355 -1.2112
  657MOL0     H90660   1.963   9.892   9.366  3.4644 -2.0997 -2.8910
  657MOL0     H90661   1.962   9.813   9.523  0.2560 -1.1967 -0.4363
  657MOL0     H90662   2.252   9.610   9.308 -0.5002  2.7991 -4.3845
  657MOL0     H90663   2.577  10.339   9.391  1.5108 -0.4633  1.8551
  657MOL0     H90664   2.795  10.491   9.563  0.0375  1.2199 -0.0493
  657MOL0     H90665   2.773  10.433   9.392  1.7622 -0.9905  0.3203
  657MOL0     H90666   2.784  10.603   9.446 -1.0831 -0.8770 -1.5911
  658MOL0     O90667   2.386   8.558  10.380  0.2239  0.2989 -0.8328
  658MOL0     C90668   2.338   8.631  10.470 -0.4557  0.9917  1.6708
  658MOL0     O90669   2.240   8.591  10.559 -0.6431 -0.8329  0.5179
  658MOL0     C90670   2.173   8.472  10.545  0.6948  0.5676 -0.0231
  658MOL0     C90671   2.059   8.476  10.460  0.4144 -0.1121 -1.2771
  658MOL0     C90672   1.980   8.361  10.433  0.3443 -0.2543 -0.3917
  658MOL0     C90673   2.005   8.240  10.502 -0.8153  0.3235  0.0326
  658MOL0     O90674   1.940   8.116  10.492  0.3940 -0.5869 -0.6965
  658MOL0     C90675   1.834   8.104  10.400  0.7899  0.9680  0.2313
  658MOL0     C90676   1.738   7.994  10.440  0.4794  0.0569  0.3902
  658MOL0     C90677   1.667   8.037  10.567 -0.0853  0.0631  0.0929
  658MOL0     C90678   1.553   7.940  10.602 -1.1434 -0.8453  0.4186
  658MOL0     C90679   1.476   7.995  10.722  0.1352  0.1079  0.4721
  658MOL0     C90680   1.553   7.957  10.844  0.1724  0.0473 -0.7030
  658MOL0     C90681   1.465   7.914  10.969  0.2053 -0.6890  0.1734
  658MOL0     C90682   1.544   7.943  11.101  0.5829  1.0064  0.8658
  658MOL0     N90683   1.682   7.882  11.102 -0.0505  0.0955  1.1359
  658MOL0     C90684   1.717   7.748  11.094  0.8722  0.2549  0.1530
  658MOL0     C90685   1.855   7.746  11.106  0.8729 -0.1446  0.4267
  658MOL0     C90686   1.929   7.620  11.117  0.0417  0.7048  1.0255
  658MOL0     C90687   2.045   7.616  11.013 -0.0842  0.2849 -0.8176
  658MOL0     C90688   2.148   7.510  11.057  0.1459 -0.2689  0.7607
  658MOL0     C90689   2.265   7.512  10.949 -0.3197 -0.0950  0.2321
  658MOL0     O90690   2.354   7.402  10.980  0.2506 -0.0637 -0.1800
  658MOL0     C90691   2.457   7.414  11.073 -0.0246  0.6624 -0.7013
  658MOL0     C90692   2.501   7.535  11.131  0.0010 -0.1538 -0.4997
  658MOL0     C90693   2.606   7.540  11.221 -0.2660 -0.4954 -0.0146
  658MOL0     C90694   2.653   7.683  11.264  0.3343 -0.5965  0.0942
  658MOL0     C90695   2.679   7.425  11.250  0.5594  0.3082  0.2515
  658MOL0     C90696   2.809   7.415  11.324 -0.3624 -0.2723  0.1238
  658MOL0     O90697   2.846   7.489  11.432 -0.1167  0.2774 -0.1615
  658MOL0     C90698   2.972   7.478  11.486 -0.3744  0.3290 -0.1097
  658MOL0     C90699   2.973   7.508  11.628  0.7475 -0.5604  0.3826
  658MOL0     C90700   3.102   7.526  11.682  0.5406  0.1616 -0.0193
  658MOL0     C90701   3.221   7.523  11.605 -0.5770  0.9488 -0.1422
  658MOL0     O90702   3.340   7.559  11.667 -0.9985  0.0889 -0.4068
  658MOL0     C90703   3.468   7.534  11.600 -0.5441  0.5189 -0.2301
  658MOL0     C90704   3.590   7.556  11.693  0.2590 -0.4303 -0.6579
  658MOL0     C90705   3.731   7.549  11.633  0.3779 -0.0523 -0.8053
  658MOL0     C90706   3.756   7.408  11.568 -0.7958  0.2099 -0.2144
  658MOL0     C90707   3.907   7.366  11.582  0.1767  0.2871 -0.5814
  658MOL0     C90708   3.912   7.212  11.617  0.3895 -0.3142  0.3829
  658MOL0     C90709   4.061   7.178  11.629 -0.0960 -0.1412 -0.2543
  658MOL0     C90710   4.077   7.062  11.736  0.7593 -0.6923  0.4912
  658MOL0    Cl90711   4.232   6.974  11.740 -0.3465 -0.2033  0.3236
  658MOL0     C90712   3.209   7.495  11.470  0.4383  0.1228 -0.2834
  658MOL0     C90713   3.090   7.472  11.405  1.3779  0.4253  0.1063
  658MOL0     O90714   2.867   7.311  11.301  0.3717 -0.5055  0.1961
  658MOL0     C90715   2.621   7.309  11.199 -0.4659 -0.9258 -0.3040
  658MOL0     C90716   2.515   7.297  11.113  0.8031 -1.2313  0.7169
  658MOL0     N90717   1.904   7.878  11.128 -0.2411  1.1299 -0.2814
  658MOL0     N90718   1.795   7.950  11.131  0.0208  0.1797 -0.1111
  658MOL0     C90719   2.126   8.239  10.583 -0.0987 -0.1909 -0.4983
  658MOL0     C90720   2.201   8.356  10.605 -0.3760  0.6381  0.5230
  658MOL0     C90721   2.368   8.775  10.465 -0.8594 -0.4289 -0.1337
  658MOL0     C90722   2.352   8.851  10.581  0.1266  0.0284  0.0196
  658MOL0     C90723   2.349   8.990  10.591  0.2299 -0.3715  0.3829
  658MOL0     C90724   2.384   9.063  10.477  0.0970  0.4987  0.1451
  658MOL0     O90725   2.382   9.202  10.470 -0.0657 -0.5855 -0.2913
  658MOL0     C90726   2.332   9.283  10.583 -0.1020  0.1932 -0.1510
  658MOL0     C90727   2.367   9.419  10.552 -0.8293  0.3559 -0.0574
  658MOL0     C90728   2.303   9.520  10.654 -1.3664 -0.3261  0.1826
  658MOL0     C90729   2.231   9.628  10.578 -0.1295  0.8539 -0.9978
  658MOL0     C90730   2.131   9.693  10.663  0.1506 -0.4682  0.3352
  658MOL0     C90731   2.042   9.748  10.731  0.0638 -0.4152 -0.3039
  658MOL0     C90732   2.422   8.985  10.366  0.4630  0.3006 -0.0208
  658MOL0     C90733   2.422   8.845  10.356 -0.1371  0.6643  0.3785
  658MOL0     C90734   2.450   8.792  10.220  0.5210  0.0494 -0.5687
  658MOL0     H90735   2.026   8.571  10.420 -2.6337 -0.2898  0.5406
  658MOL0     H90736   1.894   8.369  10.367  0.4265 -1.4038 -0.6536
  658MOL0     H90737   1.877   8.080  10.303 -1.1345  0.3651 -0.5277
  658MOL0     H90738   1.771   8.194  10.391 -1.2575 -0.4713 -0.8755
  658MOL0     H90739   1.667   7.980  10.358 -1.6668  0.1254  2.1513
  658MOL0     H90740   1.782   7.894  10.450  0.2835 -0.0412  0.2770
  658MOL0     H90741   1.741   8.038  10.648  1.6896 -1.6396 -1.3981
  658MOL0     H90742   1.622   8.136  10.565 -1.4069 -0.4543  1.6918
  658MOL0     H90743   1.472   7.927  10.528 -1.5840 -2.3166  1.1214
  658MOL0     H90744   1.588   7.837  10.609  2.1379  0.0918 -0.7881
  658MOL0     H90745   1.379   7.944  10.718 -0.2053  0.8166 -1.9039
  658MOL0     H90746   1.464   8.104  10.721  4.1887  0.7376  2.2495
  658MOL0     H90747   1.621   7.872  10.833 -0.2453 -0.8800  2.6718
  658MOL0     H90748   1.613   8.047  10.866  0.2995 -0.6197  2.1446
  658MOL0     H90749   1.424   7.815  10.950  1.7179 -0.9631 -2.0350
  658MOL0     H90750   1.376   7.974  10.988 -1.1795 -3.2071  2.1931
  658MOL0     H90751   1.547   8.051  11.121 -1.8711  1.1478  0.7945
  658MOL0     H90752   1.476   7.906  11.177 -0.4905 -2.1826 -1.4378
  658MOL0     H90753   1.642   7.671  11.080  1.7146 -1.0103  2.1618
  658MOL0     H90754   1.867   7.534  11.092  0.9640 -0.1190  1.5503
  658MOL0     H90755   1.963   7.608  11.220 -0.6287  1.6073  1.3658
  658MOL0     H90756   2.013   7.594  10.911 -0.1152 -1.9234 -0.3806
  658MOL0     H90757   2.090   7.716  11.016  1.3033 -0.3298  0.8939
  658MOL0     H90758   2.187   7.529  11.157  0.8328 -4.3182  1.4361
  658MOL0     H90759   2.095   7.417  11.077 -0.8969  0.0171 -0.5556
  658MOL0     H90760   2.224   7.495  10.849  1.2607 -0.3564 -0.3979
  658MOL0     H90761   2.302   7.614  10.936  0.7017 -0.7124 -2.3070
  658MOL0     H90762   2.453   7.631  11.114 -1.6382 -0.4019  2.0974
  658MOL0     H90763   2.577   7.761  11.263  2.0901  1.2352  1.2115
  658MOL0     H90764   2.733   7.713  11.196 -0.3720  1.5086  0.1357
  658MOL0     H90765   2.682   7.677  11.370 -1.0269 -1.8240  0.4335
  658MOL0     H90766   2.885   7.533  11.687  0.9077 -3.7629  2.2034
  658MOL0     H90767   3.109   7.570  11.781  0.3352 -1.9071  0.9555
  658MOL0     H90768   3.467   7.427  11.575  0.6848  0.4529 -0.0979
  658MOL0     H90769   3.473   7.602  11.515 -0.4707  2.7751  1.5057
  658MOL0     H90770   3.587   7.659  11.731  1.7712  0.8552 -3.7043
  658MOL0     H90771   3.589   7.492  11.782  1.1210  1.3270  0.6910
  658MOL0     H90772   3.801   7.573  11.714  1.5794 -3.6691 -0.5917
  658MOL0     H90773   3.732   7.627  11.556  1.8448  0.5565 -0.2223
  658MOL0     H90774   3.718   7.411  11.465  0.3637  0.1929 -0.6571
  658MOL0     H90775   3.693   7.333  11.616 -0.4778 -0.8298 -1.3725
  658MOL0     H90776   3.965   7.386  11.491  2.2588  0.3771  0.7110
  658MOL0     H90777   3.950   7.424  11.663  0.3123  0.3274 -0.6828
  658MOL0     H90778   3.857   7.144  11.551  1.7392 -0.7086 -0.3628
  658MOL0     H90779   3.871   7.202  11.718  0.4439 -0.9552  0.3481
  658MOL0     H90780   4.117   7.268  11.655 -1.5950  0.3245  1.5757
  658MOL0     H90781   4.096   7.152  11.529 -0.8662  1.2679 -0.9110
  658MOL0     H90782   4.003   6.984  11.715  1.3562 -1.0489 -0.3440
  658MOL0     H90783   4.059   7.122  11.825 -3.9932 -0.3878 -0.3902
  658MOL0     H90784   3.288   7.484  11.397 -1.5511 -2.5701 -2.2546
  658MOL0     H90785   3.088   7.457  11.298 -3.8969  0.8297 -0.1272
  658MOL0     H90786   2.670   7.213  11.217  0.5569 -0.2652  0.6352
  658MOL0     H90787   2.473   7.207  11.067 -0.3028 -0.3487 -0.0590
  658MOL0     H90788   2.155   8.154  10.644 -0.9648 -0.0546  0.1186
  658MOL0     H90789   2.286   8.360  10.672  0.6380  0.8532 -0.7468
  658MOL0     H90790   2.344   8.808  10.680  1.2794  2.2790  1.1527
  658MOL0     H90791   2.327   9.038  10.686  1.9854  1.6260 -0.1493
  658MOL0     H90792   2.224   9.273  10.597 -0.3548  0.0972 -2.0083
  658MOL0     H90793   2.382   9.256  10.677  1.5765  0.3066 -0.9833
  658MOL0     H90794   2.327   9.436  10.452 -3.3293 -2.2452  0.3562
  658MOL0     H90795   2.476   9.425  10.553 -0.7105 -0.5716 -2.4838
  658MOL0     H90796   2.225   9.463  10.706 -1.2771 -2.9738 -2.3130
  658MOL0     H90797   2.372   9.547  10.734 -1.8825 -0.2185  0.5996
  658MOL0     H90798   2.180   9.601  10.485 -0.4715  2.2789 -1.2510
  658MOL0     H90799   2.298   9.713  10.561  1.8992 -0.0568  1.8950
  658MOL0     H90800   1.964   9.799  10.784  0.6787  1.5222 -1.1644
  658MOL0     H90801   2.440   9.046  10.278  0.1627 -1.8566 -1.6550
  658MOL0     H90802   2.545   8.830  10.179  1.0365 -0.9893 -0.3761
  658MOL0     H90803   2.452   8.683  10.208  2.1257  0.2166 -2.3897
  658MOL0     H90804   2.369   8.808  10.149  0.7232 -1.5902 -1.2201
  659MOL0     O90805  10.476   8.096  10.892 -0.7529  0.4495 -0.4537
  659MOL0     C90806  10.547   8.031  10.964 -0.7242 -0.3817 -0.0050
  659MOL0     O90807  10.516   7.905  11.018  0.3368 -0.4325 -0.3166
  659MOL0     C90808  10.393   7.851  10.993  0.7438  0.6267  0.6312
  659MOL0     C90809  10.336   7.841  10.871  0.2763  0.5197 -0.3337
  659MOL0     C90810  10.218   7.763  10.855 -0.0071 -0.2976  0.1858
  659MOL0     C90811  10.157   7.705  10.961  0.3846 -0.2849  0.5372
  659MOL0     O90812  10.047   7.638  10.922  0.0702  0.4833  0.1821
  659MOL0     C90813   9.952   7.623  11.025 -0.0531  0.2591 -0.6181
  659MOL0     C90814   9.823   7.573  10.966 -0.3613  0.5945  0.3849
  659MOL0     C90815   9.756   7.674  10.879 -0.3075  0.1619  0.5586
  659MOL0     C90816   9.619   7.640  10.827 -0.2798  1.2699  0.2187
  659MOL0     C90817   9.547   7.749  10.752  0.1732 -0.3483  0.4008
  659MOL0     C90818   9.484   7.833  10.860  0.4708 -1.0695  0.0808
  659MOL0     C90819   9.406   7.946  10.786 -0.0674  0.1157 -0.1085
  659MOL0     C90820   9.319   8.018  10.893 -0.2727  0.2042 -0.0512
  659MOL0     N90821   9.376   8.127  10.961 -0.6658 -0.8756 -0.5824
  659MOL0     C90822   9.428   8.235  10.894 -0.3794  0.0325  0.7960
  659MOL0     C90823   9.481   8.313  10.987  0.7629 -0.6712 -0.8732
  659MOL0     C90824   9.554   8.447  10.976  0.2078  0.3194  0.4501
  659MOL0     C90825   9.702   8.436  10.945  0.3383  0.4772  0.1736
  659MOL0     C90826   9.784   8.382  11.066 -0.6377 -0.6174  0.5802
  659MOL0     C90827   9.934   8.415  11.056 -0.6769  0.6483 -0.3117
  659MOL0     O90828  10.011   8.378  11.174 -0.8326 -0.6450 -0.3880
  659MOL0     C90829  10.131   8.442  11.189  0.2123 -0.3680 -0.4706
  659MOL0     C90830  10.194   8.525  11.092 -0.5825  0.6153 -0.1020
  659MOL0     C90831  10.324   8.582  11.121  0.0904  1.1567  0.8310
  659MOL0     C90832  10.387   8.653  10.997 -0.6280 -0.3714 -0.4965
  659MOL0     C90833  10.373   8.570  11.260  0.1144 -0.1771 -0.7959
  659MOL0     C90834  10.497   8.643  11.302 -0.5274  0.2458  0.4474
  659MOL0     O90835  10.523   8.631  11.436  0.2956  0.7177 -0.0455
  659MOL0     C90836  10.636   8.679  11.490  0.3875 -0.4716 -0.2469
  659MOL0     C90837  10.757   8.608  11.485 -0.1689  0.7068  0.3301
  659MOL0     C90838  10.861   8.652  11.570  0.5116 -0.2278 -0.4871
  659MOL0     C90839  10.847   8.770  11.653  0.1052  0.8346 -0.3256
  659MOL0     O90840  10.936   8.815  11.744 -0.0135 -0.1222  0.0623
  659MOL0     C90841  11.047   8.724  11.782 -0.0078 -0.0471 -0.0491
  659MOL0     C90842  11.119   8.769  11.905  0.2663 -0.0452 -0.0078
  659MOL0     C90843  11.178   8.906  11.905 -0.9616 -0.4327  0.0684
  659MOL0     C90844  11.308   8.916  11.823  0.7902 -0.5762 -0.4174
  659MOL0     C90845  11.369   9.055  11.848 -0.3854 -0.4911  0.0959
  659MOL0     C90846  11.498   9.079  11.782  0.1045  0.1218 -0.2705
  659MOL0     C90847  11.579   9.180  11.858 -0.4739 -0.2405  0.3613
  659MOL0     C90848  11.704   9.208  11.772  0.7468 -0.1391  0.3716
  659MOL0    Cl90849  11.798   9.331  11.855 -0.3582  0.2138  0.1501
  659MOL0     C90850  10.733   8.842  11.642  0.6711  0.5003 -0.0097
  659MOL0     C90851  10.624   8.795  11.564  0.0153  0.1688 -0.2656
  659MOL0     O90852  10.563   8.709  11.227 -0.6058 -0.2621  0.6028
  659MOL0     C90853  10.310   8.483  11.355  0.6849 -0.7803 -0.9738
  659MOL0     C90854  10.191   8.424  11.318  0.5073 -0.2444 -0.0645
  659MOL0     N90855   9.483   8.239  11.108 -0.8664  0.3104  0.7558
  659MOL0     N90856   9.426   8.130  11.090 -0.1583 -0.0146  0.3991
  659MOL0     C90857  10.207   7.729  11.093  0.4017  0.3398  0.0530
  659MOL0     C90858  10.327   7.796  11.109 -0.5056  0.0371  0.0620
  659MOL0     C90859  10.676   8.091  10.990  0.0967 -0.4664 -0.0289
  659MOL0     C90860  10.782   8.004  11.009  0.5402  0.9925  0.1309
  659MOL0     C90861  10.910   8.038  11.047 -0.7595 -0.2830  0.3029
  659MOL0     C90862  10.943   8.165  11.063  0.3459 -0.6499 -0.3114
  659MOL0     O90863  11.053   8.202  11.134 -0.1237  0.1928  0.3975
  659MOL0     C90864  11.180   8.202  11.072  0.3453  0.6485 -1.1156
  659MOL0     C90865  11.184   8.264  10.938  0.1292 -0.4840 -0.3709
  659MOL0     C90866  11.327   8.300  10.892  0.2053 -0.2819  1.1032
  659MOL0     C90867  11.328   8.366  10.758  0.6310  0.0266  0.8833
  659MOL0     C90868  11.462   8.365  10.699  0.3627 -0.1980  0.4488
  659MOL0     C90869  11.575   8.361  10.647 -0.7245  0.5423  0.3974
  659MOL0     C90870  10.839   8.263  11.045 -0.2208 -0.1883  0.2066
  659MOL0     C90871  10.708   8.232  11.009 -0.1512 -0.2128 -0.6170
  659MOL0     C90872  10.607   8.346  11.011  0.1011 -0.0638  0.5387
  659MOL0     H90873  10.397   7.874  10.788  1.5339  4.1008  1.8141
  659MOL0     H90874  10.183   7.752  10.753 -0.3847 -0.6691  0.3496
  659MOL0     H90875   9.948   7.713  11.087  2.0955  0.6536 -0.9564
  659MOL0     H90876   9.991   7.551  11.097  2.3347  1.0638 -1.0166
  659MOL0     H90877   9.845   7.477  10.918  0.3160  1.0991 -0.3379
  659MOL0     H90878   9.757   7.554  11.052 -0.4532  0.1696  0.2243
  659MOL0     H90879   9.738   7.768  10.933 -0.7259  0.3310  0.1334
  659MOL0     H90880   9.823   7.693  10.794 -1.2945 -0.1653 -0.3137
  659MOL0     H90881   9.642   7.558  10.758  1.0254  0.8205  1.1547
  659MOL0     H90882   9.556   7.605  10.910 -1.0709  1.3420 -0.3346
  659MOL0     H90883   9.481   7.697  10.681  0.4502 -0.0814 -0.0626
  659MOL0     H90884   9.612   7.810  10.688 -1.4265 -0.3846 -1.3484
  659MOL0     H90885   9.420   7.772  10.925  0.5700 -1.2576  0.0057
  659MOL0     H90886   9.554   7.897  10.914  1.7086 -1.1530 -1.3554
  659MOL0     H90887   9.341   7.907  10.707  1.8966 -0.4127 -1.5460
  659MOL0     H90888   9.478   8.022  10.752  1.6278 -1.1861  0.4540
  659MOL0     H90889   9.226   8.053  10.846 -0.9072  0.5205  1.3862
  659MOL0     H90890   9.282   7.941  10.962 -0.3898  1.6654  1.5751
  659MOL0     H90891   9.423   8.258  10.788 -2.2948  0.0584  0.8640
  659MOL0     H90892   9.545   8.510  11.065  2.8737 -1.2632  1.9508
  659MOL0     H90893   9.516   8.515  10.899  1.1008  0.4998  0.1454
  659MOL0     H90894   9.728   8.379  10.855 -0.3894  1.3348 -0.5939
  659MOL0     H90895   9.745   8.535  10.928  1.1040  0.1888  0.3768
  659MOL0     H90896   9.750   8.423  11.161  0.2066  1.2287  0.1235
  659MOL0     H90897   9.756   8.276  11.059 -1.4706 -0.3640  0.0101
  659MOL0     H90898   9.967   8.363  10.965 -0.3596  0.1781  0.0642
  659MOL0     H90899   9.941   8.521  11.032 -3.4468  0.6030 -1.7226
  659MOL0     H90900  10.149   8.540  10.995 -1.1317  2.6939  0.4103
  659MOL0     H90901  10.403   8.752  11.041  0.5590 -1.4496  1.6803
  659MOL0     H90902  10.320   8.647  10.911  0.0671 -2.0478 -0.9670
  659MOL0     H90903  10.483   8.605  10.973 -0.5442 -0.6617  0.3953
  659MOL0     H90904  10.762   8.519  11.424 -0.3806  2.1274 -1.8605
  659MOL0     H90905  10.954   8.596  11.573  0.5960 -0.1967  3.3992
  659MOL0     H90906  11.006   8.625  11.803  0.2482 -0.1016  0.2047
  659MOL0     H90907  11.116   8.724  11.697  0.8346 -2.0468  0.5867
  659MOL0     H90908  11.055   8.771  11.994  0.4620  1.3560  0.1219
  659MOL0     H90909  11.204   8.701  11.918  0.8561  0.3629 -1.5064
  659MOL0     H90910  11.205   8.931  12.008  1.6797 -0.0318 -0.6380
  659MOL0     H90911  11.110   8.984  11.869 -0.3495  1.3072  2.4279
  659MOL0     H90912  11.268   8.902  11.722 -1.4243  0.6874  0.2197
  659MOL0     H90913  11.376   8.834  11.849 -2.0939 -2.7637  0.8418
  659MOL0     H90914  11.302   9.139  11.826  1.6185  1.8816  2.4239
  659MOL0     H90915  11.393   9.059  11.954  3.5523 -1.3020 -0.6110
  659MOL0     H90916  11.489   9.111  11.678  0.5085  1.4696  0.0988
  659MOL0     H90917  11.554   8.985  11.788 -1.6244 -0.9033  0.9245
  659MOL0     H90918  11.606   9.142  11.957 -0.6050 -1.9019 -0.2048
  659MOL0     H90919  11.536   9.278  11.878  1.9250  0.3756  3.1957
  659MOL0     H90920  11.681   9.240  11.670  0.3166  2.7382  1.2826
  659MOL0     H90921  11.765   9.118  11.767 -3.2017 -3.0440 -0.2924
  659MOL0     H90922  10.727   8.930  11.705 -0.5421  0.0112  0.5801
  659MOL0     H90923  10.529   8.844  11.583 -0.4303 -1.2305  1.4321
  659MOL0     H90924  10.340   8.468  11.458 -1.0806  0.7941 -0.1754
  659MOL0     H90925  10.135   8.371  11.394  1.3209 -2.1484 -0.7270
  659MOL0     H90926  10.164   7.671  11.174 -2.4173 -0.1794 -1.6648
  659MOL0     H90927  10.363   7.811  11.210 -0.1140 -2.7964  0.4159
  659MOL0     H90928  10.773   7.897  10.997  1.4038  1.0598 -1.3225
  659MOL0     H90929  10.998   7.977  11.065  1.0371  1.7068 -1.2063
  659MOL0     H90930  11.244   8.262  11.137  1.3465  1.1654 -2.5247
  659MOL0     H90931  11.223   8.102  11.063  0.8643  0.8522 -0.9190
  659MOL0     H90932  11.112   8.345  10.923  1.1883  0.0561 -3.2305
  659MOL0     H90933  11.154   8.187  10.866  0.5921 -2.7331  1.7017
  659MOL0     H90934  11.369   8.374  10.961 -1.8939  1.3716  0.7088
  659MOL0     H90935  11.384   8.207  10.883 -1.4398 -1.1461 -1.3838
  659MOL0     H90936  11.302   8.472  10.766  2.1423  0.6808 -1.8445
  659MOL0     H90937  11.262   8.315  10.688  1.8029  0.2779 -0.4384
  659MOL0     H90938  11.669   8.365  10.595 -0.6244  0.2298  0.5493
  659MOL0     H90939  10.861   8.367  11.067 -2.6805  0.4668 -0.1405
  659MOL0     H90940  10.507   8.300  11.012 -0.3343  0.8619  0.3366
  659MOL0     H90941  10.623   8.418  11.092  0.8053 -0.3478  0.6519
  659MOL0     H90942  10.618   8.404  10.919 -0.5197  1.4574  1.3889
  660MOL0     O90943   7.414   9.335   8.898  0.4796  0.2093  0.2306
  660MOL0     C90944   7.375   9.435   8.842  0.1382 -0.4904 -0.6914
  660MOL0     O90945   7.449   9.545   8.820 -0.4584 -0.3117  0.1489
  660MOL0     C90946   7.590   9.549   8.832  0.3013  0.8693 -0.1651
  660MOL0     C90947   7.676   9.445   8.802 -0.3752 -0.4075 -0.0724
  660MOL0     C90948   7.817   9.459   8.816  0.0453  0.4823  0.1154
  660MOL0     C90949   7.877   9.580   8.837 -0.8519 -0.2672  0.4194
  660MOL0     O90950   8.010   9.597   8.852 -0.4642  0.0747 -0.2752
  660MOL0     C90951   8.102   9.483   8.823 -0.1056 -0.3495  0.3759
  660MOL0     C90952   8.239   9.520   8.871 -0.1772  0.2124 -0.2111
  660MOL0     C90953   8.344   9.411   8.831  0.9287 -0.0149  0.6270
  660MOL0     C90954   8.489   9.467   8.809  0.1312  1.0147 -0.8434
  660MOL0     C90955   8.582   9.373   8.759 -0.7541  0.0259  0.0491
  660MOL0     C90956   8.733   9.420   8.776  0.2615 -0.1928 -1.0258
  660MOL0     C90957   8.827   9.302   8.728 -0.2860 -0.3252  0.0589
  660MOL0     C90958   8.841   9.208   8.846 -0.2178 -0.1288 -1.0589
  660MOL0     N90959   8.937   9.095   8.824  1.1372 -0.0443  0.8555
  660MOL0     C90960   9.067   9.107   8.831 -1.1593 -1.5258  0.1105
  660MOL0     C90961   9.113   8.990   8.780  0.6348 -0.9411  0.2488
  660MOL0     C90962   9.266   8.957   8.780  0.0791 -0.3467 -0.3701
  660MOL0     C90963   9.319   8.956   8.929  0.0430 -0.3671  0.3233
  660MOL0     C90964   9.467   8.912   8.934 -0.3249  0.5896 -0.4179
  660MOL0     C90965   9.546   8.936   9.057 -0.4705  0.0140 -0.5684
  660MOL0     O90966   9.521   9.064   9.113 -0.1769  0.2249 -0.3058
  660MOL0     C90967   9.622   9.102   9.196  1.3708  0.1746 -0.1149
  660MOL0     C90968   9.611   9.106   9.337  0.2372 -0.0125 -0.5464
  660MOL0     C90969   9.709   9.165   9.417  0.6952 -0.2724 -0.0161
  660MOL0     C90970   9.690   9.172   9.556 -0.3999  0.3859  0.0037
  660MOL0     C90971   9.818   9.221   9.354 -0.0862  0.1449  0.2049
  660MOL0     C90972   9.940   9.279   9.427 -0.8902 -0.0765  0.8433
  660MOL0     O90973   9.958   9.240   9.561 -0.0778 -0.8079 -0.0889
  660MOL0     C90974  10.032   9.325   9.641  0.2423 -0.1382 -0.3203
  660MOL0     C90975   9.965   9.403   9.732 -0.3630  0.2786 -0.6466
  660MOL0     C90976  10.025   9.516   9.793 -0.3242 -0.1797  0.0167
  660MOL0     C90977  10.165   9.534   9.777  0.0017  0.0724 -0.0857
  660MOL0     O90978  10.222   9.636   9.849 -0.3899 -0.2450 -0.1422
  660MOL0     C90979  10.277   9.746   9.774 -0.1213  0.6591 -0.1929
  660MOL0     C90980  10.258   9.872   9.851 -0.3274 -0.2340 -0.1673
  660MOL0     C90981  10.322   9.997   9.770  0.5213  0.6571  0.5605
  660MOL0     C90982  10.477   9.986   9.759  0.1466 -0.0706  0.6237
  660MOL0     C90983  10.535  10.111   9.683  0.3594 -0.6204  0.5224
  660MOL0     C90984  10.691  10.111   9.692  0.7497  0.0061 -0.1021
  660MOL0     C90985  10.760  10.011   9.594  0.2980  0.2203  0.4621
  660MOL0     C90986  10.899   9.988   9.647  0.1205  0.6522  0.0789
  660MOL0    Cl90987  10.978  10.150   9.681  0.2964 -0.1967 -0.2454
  660MOL0     C90988  10.238   9.451   9.681 -0.0280  0.3968 -1.3188
  660MOL0     C90989  10.169   9.348   9.621 -0.1260  0.5024 -0.0111
  660MOL0     O90990  10.012   9.356   9.363  0.0130 -0.1943 -0.1912
  660MOL0     C90991   9.825   9.226   9.212  0.6590 -0.5968  0.3750
  660MOL0     C90992   9.726   9.172   9.133  0.0918 -0.4176  0.2539
  660MOL0     N90993   9.010   8.912   8.731  0.8459 -0.0868 -0.4834
  660MOL0     N90994   8.911   8.993   8.747  0.5516 -0.0081  0.1581
  660MOL0     C90995   7.799   9.687   8.869  0.3273  0.3029  0.8878
  660MOL0     C90996   7.658   9.671   8.861 -0.2175  0.0641  0.0405
  660MOL0     C90997   7.227   9.428   8.808  0.1459 -0.5169  0.7532
  660MOL0     C90998   7.178   9.523   8.710  0.2455 -0.6594 -1.1258
  660MOL0     C90999   7.042   9.533   8.685  1.0989  0.2014  0.3688
  660MOL0     C91000   6.944   9.447   8.741 -0.8601 -0.2833  0.5115
  660MOL0     O91001   6.821   9.448   8.692  1.0325  0.4372 -0.0453
  660MOL0     C91002   6.796   9.351   8.592  0.2193  0.7591 -0.3596
  660MOL0     C91003   6.646   9.346   8.563 -0.7894 -0.7127  0.6994
  660MOL0     C91004   6.552   9.367   8.686  0.4339  0.4725  0.2044
  660MOL0     C91005   6.582   9.270   8.801 -0.0623  1.6267  0.4189
  660MOL0     C91006   6.562   9.129   8.767  0.6315 -0.2184  0.3653
  660MOL0     C91007   6.539   9.012   8.736  1.4295  0.3433  0.5298
  660MOL0     C91008   6.991   9.367   8.841 -0.1269 -0.2401 -0.1752
  660MOL0     C91009   7.125   9.350   8.874  0.0498  1.1956 -0.7880
  660MOL0     C91010   7.145   9.250   8.985  0.1979  0.5960 -0.2700
  660MOL0     H91011   7.645   9.345   8.776  0.8893  0.1382 -4.4824
  660MOL0     H91012   7.879   9.370   8.806 -3.2036 -2.2585  2.0085
  660MOL0     H91013   8.098   9.465   8.715 -0.5540  0.5262  0.2432
  660MOL0     H91014   8.071   9.410   8.898 -2.2935  2.2722  2.2331
  660MOL0     H91015   8.270   9.619   8.835 -3.0551  2.0049  1.7877
  660MOL0     H91016   8.233   9.527   8.980 -3.3567  0.7578 -0.3153
  660MOL0     H91017   8.339   9.337   8.911 -0.2187  1.9756  2.4886
  660MOL0     H91018   8.314   9.360   8.739 -1.3783 -0.6977  1.6820
  660MOL0     H91019   8.477   9.556   8.746  1.2672  1.9833  0.2435
  660MOL0     H91020   8.524   9.506   8.905  1.9339  1.2860 -1.5557
  660MOL0     H91021   8.559   9.372   8.652 -0.8422 -0.4313  0.0713
  660MOL0     H91022   8.557   9.273   8.795  0.8310  0.1565  1.6777
  660MOL0     H91023   8.755   9.498   8.703  2.7131 -0.0114 -0.1799
  660MOL0     H91024   8.757   9.448   8.879  1.0080 -2.7309 -0.4329
  660MOL0     H91025   8.928   9.340   8.708 -1.3724  1.2194 -3.2369
  660MOL0     H91026   8.788   9.244   8.644 -1.3719 -3.1604  2.3731
  660MOL0     H91027   8.878   9.266   8.932  0.3748  1.2913 -2.2239
  660MOL0     H91028   8.746   9.159   8.867 -1.3328  2.2105 -0.3562
  660MOL0     H91029   9.127   9.187   8.874 -3.5002 -0.9576  2.6862
  660MOL0     H91030   9.312   9.039   8.723  2.4194 -0.2890  1.4570
  660MOL0     H91031   9.283   8.862   8.728  0.0997  0.3632 -1.7084
  660MOL0     H91032   9.305   9.056   8.972 -0.0380 -0.2626  0.0526
  660MOL0     H91033   9.258   8.882   8.981  1.3940 -0.6100  1.6442
  660MOL0     H91034   9.474   8.805   8.912 -3.1016 -0.0933  1.5788
  660MOL0     H91035   9.514   8.978   8.860 -1.4342 -0.2957 -1.9787
  660MOL0     H91036   9.513   8.863   9.132  0.4254 -1.5610 -1.6526
  660MOL0     H91037   9.649   8.911   9.029 -0.7535 -0.2250 -1.4431
  660MOL0     H91038   9.522   9.060   9.381 -0.5426 -0.3870 -2.4187
  660MOL0     H91039   9.730   9.260   9.607  1.7242 -1.1442  1.1043
  660MOL0     H91040   9.742   9.084   9.595 -0.9777  1.1213  2.6959
  660MOL0     H91041   9.584   9.150   9.572 -0.4512 -2.0701 -2.8748
  660MOL0     H91042   9.857   9.394   9.741 -0.3310  0.6662  0.1713
  660MOL0     H91043   9.969   9.588   9.852  0.9048 -1.0052  2.3392
  660MOL0     H91044  10.385   9.735   9.760  0.0205  0.8860  0.6567
  660MOL0     H91045  10.217   9.748   9.683 -0.2715 -1.5403 -0.1977
  660MOL0     H91046  10.150   9.888   9.855 -0.2543  0.3199 -0.3325
  660MOL0     H91047  10.301   9.870   9.952  1.5296 -0.5370 -0.9269
  660MOL0     H91048  10.304  10.096   9.814  0.7678  1.2778 -0.7078
  660MOL0     H91049  10.271  10.004   9.673  1.3626  1.7754  0.1739
  660MOL0     H91050  10.522   9.903   9.704  2.2399  1.2546  0.2372
  660MOL0     H91051  10.510   9.980   9.863 -3.8156  0.8029  2.1199
  660MOL0     H91052  10.497  10.107   9.580  0.8243  2.0180  0.1923
  660MOL0     H91053  10.485  10.203   9.713  0.7041 -0.1759 -0.2474
  660MOL0     H91054  10.714  10.096   9.798 -1.5320  1.6811  0.7069
  660MOL0     H91055  10.723  10.212   9.666 -0.7981  0.3191 -0.9264
  660MOL0     H91056  10.762  10.049   9.491  2.1762  0.0279  0.3935
  660MOL0     H91057  10.714   9.912   9.599 -0.8032  0.6477 -0.5411
  660MOL0     H91058  10.958   9.926   9.580  0.8058 -1.7183  2.6864
  660MOL0     H91059  10.903   9.946   9.748 -0.8272 -1.4755 -0.7269
  660MOL0     H91060  10.344   9.463   9.664  0.5906 -0.6393  1.2900
  660MOL0     H91061  10.225   9.293   9.547 -0.4736  0.9675 -0.6293
  660MOL0     H91062   9.903   9.280   9.159 -2.5481  2.6849 -1.4760
  660MOL0     H91063   9.725   9.173   9.025  1.9287 -2.5410  0.1457
  660MOL0     H91064   7.841   9.783   8.898  0.9423 -0.8316  4.2252
  660MOL0     H91065   7.603   9.761   8.890 -0.9083 -0.2942 -0.1243
  660MOL0     H91066   7.247   9.583   8.651 -0.4715  1.0888 -0.2382
  660MOL0     H91067   7.007   9.596   8.604  2.6113  0.7189  0.0784
  660MOL0     H91068   6.851   9.386   8.504  0.6140  1.6289  0.2129
  660MOL0     H91069   6.821   9.250   8.623  1.1769  1.5094  1.4801
  660MOL0     H91070   6.621   9.255   8.508  0.5381  0.6214 -2.3651
  660MOL0     H91071   6.626   9.418   8.482 -0.9780 -3.3304 -1.7223
  660MOL0     H91072   6.564   9.470   8.719  1.6142  1.3318 -2.6090
  660MOL0     H91073   6.448   9.350   8.658  0.3085 -0.5537  1.2050
  660MOL0     H91074   6.517   9.290   8.887 -0.2932  4.1265 -0.2867
  660MOL0     H91075   6.687   9.274   8.831  0.2441 -0.9246 -0.0202
  660MOL0     H91076   6.520   8.910   8.708  1.3772  0.1324  1.3121
  660MOL0     H91077   6.922   9.305   8.895  0.7780  0.3713  1.7785
  660MOL0     H91078   7.208   9.165   8.956 -0.9750 -0.9255  1.4294
  660MOL0     H91079   7.189   9.296   9.074 -1.7321 -0.9598  1.6124
  660MOL0     H91080   7.053   9.201   9.017  0.1231  0.0312 -1.3201
  661MOL0     O91081   3.684   1.501   4.785  0.0020  0.2716  0.5040
  661MOL0     C91082   3.669   1.387   4.830  0.5260 -0.5981  1.1484
  661MOL0     O91083   3.764   1.317   4.902  0.6544  0.7811 -0.0242
  661MOL0     C91084   3.888   1.369   4.914  0.2518 -0.0049 -0.0689
  661MOL0     C91085   3.967   1.432   4.813  0.5986 -0.3132  0.0068
  661MOL0     C91086   4.091   1.491   4.832 -0.2783  0.1959 -0.2767
  661MOL0     C91087   4.154   1.488   4.959 -0.3638 -0.3798  0.4299
  661MOL0     O91088   4.282   1.536   4.977 -0.7937  0.6674  0.4314
  661MOL0     C91089   4.340   1.603   4.863  0.2553  0.4732 -0.1255
  661MOL0     C91090   4.479   1.661   4.885 -0.3160 -0.6961  0.3774
  661MOL0     C91091   4.527   1.727   4.754 -0.2119  0.0171  0.0221
  661MOL0     C91092   4.653   1.800   4.789  0.4041 -0.6659  0.2195
  661MOL0     C91093   4.776   1.711   4.818  0.1557 -1.1826  0.4698
  661MOL0     C91094   4.899   1.807   4.826  0.1886  0.6417  0.0292
  661MOL0     C91095   5.014   1.707   4.808 -0.1982 -0.1512 -0.1502
  661MOL0     C91096   5.147   1.784   4.802 -0.1252 -0.7462  0.0531
  661MOL0     N91097   5.191   1.857   4.922  0.3651  0.2463  0.2001
  661MOL0     C91098   5.229   1.798   5.037 -0.0341 -0.3651 -0.6198
  661MOL0     C91099   5.298   1.897   5.112 -1.0911 -0.2338 -0.0503
  661MOL0     C91100   5.357   1.891   5.259  0.2171  0.2037 -0.1424
  661MOL0     C91101   5.492   1.958   5.276  0.5905 -0.0046  0.7163
  661MOL0     C91102   5.551   1.925   5.410  0.7676  1.3108 -0.0834
  661MOL0     C91103   5.676   2.012   5.432 -0.9723  0.5040  0.4535
  661MOL0     O91104   5.789   1.987   5.345 -0.0903  1.3189 -0.4448
  661MOL0     C91105   5.887   1.905   5.395  0.2622 -0.4081 -0.3810
  661MOL0     C91106   5.862   1.769   5.397  0.2743 -0.0666 -0.9611
  661MOL0     C91107   5.956   1.681   5.453 -0.6438  0.1030 -0.6343
  661MOL0     C91108   5.920   1.529   5.435  0.0313 -0.1210 -0.1543
  661MOL0     C91109   6.074   1.734   5.510  0.2205 -0.3659  0.7127
  661MOL0     C91110   6.178   1.648   5.587  0.7604  0.1406 -0.2860
  661MOL0     O91111   6.296   1.705   5.596  0.2557 -0.0310 -0.6362
  661MOL0     C91112   6.386   1.655   5.687 -0.2459  0.9317  0.0144
  661MOL0     C91113   6.359   1.643   5.826 -0.1403  1.2229 -0.2748
  661MOL0     C91114   6.442   1.572   5.910 -0.1854 -0.8482  0.3396
  661MOL0     C91115   6.567   1.525   5.869  0.6116 -0.5016  0.6047
  661MOL0     O91116   6.656   1.459   5.950  0.6328 -0.8630  0.3774
  661MOL0     C91117   6.619   1.438   6.087  0.6497  0.5653 -0.0635
  661MOL0     C91118   6.741   1.371   6.145 -0.3772 -0.4635  0.1943
  661MOL0     C91119   6.848   1.469   6.184 -0.0701 -0.5657 -0.1341
  661MOL0     C91120   6.979   1.413   6.224  0.4958 -0.5217 -0.1612
  661MOL0     C91121   7.044   1.328   6.112 -0.5532 -0.3075 -0.9110
  661MOL0     C91122   7.185   1.299   6.164 -0.5783 -0.6901 -0.2527
  661MOL0     C91123   7.276   1.197   6.081  0.4353 -0.0220 -0.0952
  661MOL0     C91124   7.422   1.178   6.131  0.3419 -0.0308  0.1584
  661MOL0    Cl91125   7.526   1.306   6.069 -0.0741 -0.4503 -0.2625
  661MOL0     C91126   6.601   1.555   5.735 -0.8333 -0.1648  0.2813
  661MOL0     C91127   6.511   1.617   5.650 -0.7957  0.0705 -0.0893
  661MOL0     O91128   6.146   1.548   5.648  0.1873  0.1590  0.6114
  661MOL0     C91129   6.094   1.874   5.510  0.1754  0.6771  0.2742
  661MOL0     C91130   6.000   1.957   5.458  0.8320 -0.6637 -0.4123
  661MOL0     N91131   5.305   2.011   5.031 -0.3940  0.0509 -0.3913
  661MOL0     N91132   5.241   1.983   4.920 -0.1231 -0.5763 -0.0242
  661MOL0     C91133   4.084   1.429   5.064  0.2148 -0.3865  0.8514
  661MOL0     C91134   3.950   1.384   5.042  0.0327  0.2355 -0.6017
  661MOL0     C91135   3.537   1.324   4.800  0.1579  0.2721  0.1286
  661MOL0     C91136   3.526   1.185   4.824  0.2490  0.1845 -0.5876
  661MOL0     C91137   3.414   1.105   4.784 -0.2731 -0.2963 -1.0747
  661MOL0     C91138   3.307   1.161   4.726  0.3877 -0.2907 -0.1782
  661MOL0     O91139   3.192   1.090   4.689 -0.2842 -0.1931 -0.4665
  661MOL0     C91140   3.185   0.945   4.706 -0.0376  0.2541 -0.1237
  661MOL0     C91141   3.273   0.870   4.601  0.8305 -0.9117  0.1176
  661MOL0     C91142   3.306   0.726   4.635 -0.0778  0.5793 -0.3782
  661MOL0     C91143   3.403   0.703   4.753 -0.7020 -0.4588  0.9890
  661MOL0     C91144   3.537   0.739   4.696 -0.7479 -0.2558  0.6707
  661MOL0     C91145   3.654   0.769   4.654  1.3836 -0.0371 -0.0705
  661MOL0     C91146   3.308   1.296   4.717 -0.2428 -0.2275  0.7269
  661MOL0     C91147   3.424   1.377   4.741  0.0878 -0.2600  0.2393
  661MOL0     C91148   3.412   1.523   4.731  0.0907 -0.3909  0.0144
  661MOL0     H91149   3.925   1.461   4.717  0.7024  2.3756  0.6779
  661MOL0     H91150   4.125   1.554   4.750 -2.0150  0.8247 -0.5477
  661MOL0     H91151   4.281   1.693   4.842  1.6099  0.9927 -1.9031
  661MOL0     H91152   4.329   1.538   4.776  2.6516 -1.3244  0.7918
  661MOL0     H91153   4.467   1.725   4.973 -0.7506  0.1327 -0.2775
  661MOL0     H91154   4.538   1.572   4.910  1.7244 -0.8048 -3.9877
  661MOL0     H91155   4.553   1.645   4.687  0.1060 -0.3702  0.6045
  661MOL0     H91156   4.447   1.786   4.708  0.0208 -0.4609 -1.0132
  661MOL0     H91157   4.683   1.856   4.700 -3.1590  0.6698 -0.2852
  661MOL0     H91158   4.640   1.867   4.874  0.1425  1.8945 -1.7471
  661MOL0     H91159   4.783   1.634   4.741  1.7724  0.6895 -1.4061
  661MOL0     H91160   4.752   1.665   4.914 -0.9701  2.7575  2.3123
  661MOL0     H91161   4.898   1.880   4.745 -1.5512  1.0595  0.3884
  661MOL0     H91162   4.911   1.855   4.924  2.1523  1.7180 -0.6642
  661MOL0     H91163   5.009   1.662   4.709 -0.6568 -0.2173 -0.0959
  661MOL0     H91164   5.011   1.624   4.880 -0.7803 -0.5185 -0.5880
  661MOL0     H91165   5.226   1.712   4.782  2.4250  0.9789  3.0296
  661MOL0     H91166   5.143   1.853   4.717 -0.9750 -0.7328  0.0880
  661MOL0     H91167   5.198   1.699   5.070 -1.5750  0.5559  0.8577
  661MOL0     H91168   5.373   1.785   5.283 -0.5997 -0.0540 -0.6929
  661MOL0     H91169   5.289   1.922   5.339 -0.8661  2.4286 -1.8286
  661MOL0     H91170   5.557   1.938   5.190 -1.1684 -1.1402 -0.4045
  661MOL0     H91171   5.466   2.064   5.279 -0.9056 -0.3621  1.2909
  661MOL0     H91172   5.484   1.936   5.496  2.3442 -1.1492  1.5872
  661MOL0     H91173   5.585   1.822   5.427 -3.9637 -0.4043  0.5118
  661MOL0     H91174   5.656   2.120   5.428 -2.7925  0.2734  2.1271
  661MOL0     H91175   5.717   1.994   5.532  1.2632  1.5569 -0.1950
  661MOL0     H91176   5.766   1.736   5.359  0.4872 -1.0845 -0.6566
  661MOL0     H91177   5.933   1.485   5.534 -2.5642  1.3069  0.9276
  661MOL0     H91178   5.985   1.486   5.358 -0.0874 -3.1365  1.3043
  661MOL0     H91179   5.816   1.505   5.413  0.2969 -0.4826 -1.0405
  661MOL0     H91180   6.258   1.671   5.857 -2.4260 -2.5896 -3.2888
  661MOL0     H91181   6.403   1.568   6.011 -5.8841  3.0544 -1.2220
  661MOL0     H91182   6.598   1.532   6.139  0.2241  1.1330 -1.2213
  661MOL0     H91183   6.528   1.378   6.095  0.5390 -0.1179 -4.1935
  661MOL0     H91184   6.721   1.321   6.241  1.1279  1.4076  1.5660
  661MOL0     H91185   6.779   1.295   6.076 -0.7576 -0.5965  0.1257
  661MOL0     H91186   6.823   1.526   6.274  0.4024  0.3295 -0.5578
  661MOL0     H91187   6.866   1.537   6.101 -1.4717  0.4807  0.3897
  661MOL0     H91188   6.955   1.363   6.318 -1.5499 -0.4138 -0.5924
  661MOL0     H91189   7.044   1.498   6.249  1.3619 -1.4897  1.0227
  661MOL0     H91190   6.986   1.236   6.099 -0.2551 -1.4532  3.9591
  661MOL0     H91191   7.045   1.383   6.017 -1.4890 -0.7585 -1.1960
  661MOL0     H91192   7.171   1.264   6.266 -3.5782  0.5674 -0.1567
  661MOL0     H91193   7.229   1.396   6.187 -1.5293 -1.1914  4.9576
  661MOL0     H91194   7.279   1.234   5.978 -1.2815  0.5008  0.0136
  661MOL0     H91195   7.228   1.098   6.076 -1.5415  0.8975 -0.1272
  661MOL0     H91196   7.467   1.082   6.107 -0.0747  0.0950 -1.1873
  661MOL0     H91197   7.419   1.184   6.240  1.9113 -1.9728  0.3563
  661MOL0     H91198   6.702   1.528   5.708 -0.3562  0.1677  1.6534
  661MOL0     H91199   6.537   1.633   5.546 -1.4892  0.4638 -0.2122
  661MOL0     H91200   6.187   1.922   5.540  1.6305 -0.9379 -1.4192
  661MOL0     H91201   6.020   2.064   5.461 -0.0616 -0.4950  1.9708
  661MOL0     H91202   4.113   1.429   5.168  3.0233 -2.7612  0.1882
  661MOL0     H91203   3.895   1.341   5.125 -0.1573 -2.2007 -1.9068
  661MOL0     H91204   3.614   1.136   4.863 -0.8255 -2.5021 -1.3239
  661MOL0     H91205   3.415   0.999   4.805  2.2648 -0.1129  0.0786
  661MOL0     H91206   3.223   0.913   4.803  3.1100  0.6261 -1.1244
  661MOL0     H91207   3.086   0.906   4.682  1.5012 -2.9855 -1.8263
  661MOL0     H91208   3.361   0.931   4.578 -0.1524  1.2058  1.6237
  661MOL0     H91209   3.227   0.872   4.501  1.8877  0.2808 -0.3758
  661MOL0     H91210   3.210   0.681   4.659 -0.3277  0.5838 -1.3362
  661MOL0     H91211   3.348   0.688   4.541  2.7623  2.6223 -0.0961
  661MOL0     H91212   3.403   0.600   4.789 -0.1228 -0.9225 -0.2946
  661MOL0     H91213   3.387   0.771   4.838 -2.8279 -0.5313  0.6839
  661MOL0     H91214   3.749   0.800   4.615  0.9340 -0.9456 -2.0125
  661MOL0     H91215   3.225   1.349   4.673  0.2566 -0.4077 -0.4725
  661MOL0     H91216   3.489   1.571   4.669  2.1206 -1.5249  1.5357
  661MOL0     H91217   3.311   1.544   4.693  0.2286 -2.2637 -1.5590
  661MOL0     H91218   3.437   1.566   4.829  1.7065 -0.7907 -0.2029
  662MOL0     O91219   7.077   0.043   2.081 -0.0281  0.2625  0.2830
  662MOL0     C91220   7.122   0.153   2.057  0.0426  0.2341 -0.3289
  662MOL0     O91221   7.238   0.204   2.108  0.1067  0.1316 -0.1406
  662MOL0     C91222   7.317   0.129   2.192 -0.1759 -0.3058  0.2352
  662MOL0     C91223   7.456   0.141   2.172  0.5675 -0.5653 -0.6606
  662MOL0     C91224   7.543   0.060   2.246  0.3797 -0.7749  0.2991
  662MOL0     C91225   7.489  -0.022   2.350  0.4576 -0.1375  0.3197
  662MOL0     O91226   7.580  -0.081   2.434 -0.0682  0.6041 -0.5654
  662MOL0     C91227   7.563  -0.215   2.481 -0.2811  0.0680  0.5071
  662MOL0     C91228   7.693  -0.286   2.455  0.2892  0.7291  0.8579
  662MOL0     C91229   7.808  -0.252   2.551 -0.5497 -0.7725 -0.4685
  662MOL0     C91230   7.805  -0.348   2.668 -0.2196 -0.0597  0.3917
  662MOL0     C91231   7.907  -0.341   2.784 -0.0135 -0.2788  0.4257
  662MOL0     C91232   8.040  -0.422   2.746  1.4374 -0.3749  0.7845
  662MOL0     C91233   8.151  -0.398   2.845  0.5239 -0.5154 -0.9915
  662MOL0     C91234   8.139  -0.451   2.993  0.6225  0.4106  0.4001
  662MOL0     N91235   8.244  -0.415   3.080 -0.2446 -0.4693 -0.4993
  662MOL0     C91236   8.305  -0.295   3.093  0.1458 -0.6858  0.3349
  662MOL0     C91237   8.395  -0.302   3.199 -0.5542  0.9516 -1.0686
  662MOL0     C91238   8.474  -0.196   3.267 -0.2955 -0.2529 -1.0802
  662MOL0     C91239   8.612  -0.178   3.198 -0.6148  0.4080  1.1106
  662MOL0     C91240   8.700  -0.080   3.281 -0.8601  0.3938 -0.6163
  662MOL0     C91241   8.839  -0.074   3.207 -0.4490 -0.2076  0.2310
  662MOL0     O91242   8.925  -0.186   3.232  0.0289  0.1699  0.3308
  662MOL0     C91243   9.040  -0.197   3.155  0.4505 -0.3902  0.1815
  662MOL0     C91244   9.096  -0.109   3.068  0.6480  0.3043 -0.2728
  662MOL0     C91245   9.226  -0.130   3.018  0.5122  0.4677  0.6292
  662MOL0     C91246   9.271  -0.021   2.922 -0.1456  0.1033  0.2561
  662MOL0     C91247   9.293  -0.243   3.062 -0.5517 -0.7499 -0.3472
  662MOL0     C91248   9.426  -0.270   3.023 -0.1688  0.1702  0.3330
  662MOL0     O91249   9.462  -0.403   3.020 -0.3349  0.9220 -0.6189
  662MOL0     C91250   9.591  -0.438   2.993 -0.5347 -0.1626  0.3185
  662MOL0     C91251   9.637  -0.423   2.865 -0.2968  0.4229 -0.1107
  662MOL0     C91252   9.774  -0.461   2.838  0.0023  0.6262 -0.2214
  662MOL0     C91253   9.852  -0.512   2.946 -1.0468 -0.3798  0.2126
  662MOL0     O91254   9.987  -0.534   2.930 -1.1749 -0.1936  0.7477
  662MOL0     C91255  10.017  -0.602   2.806  0.4018  0.3028 -0.4774
  662MOL0     C91256  10.165  -0.658   2.806  0.2437 -0.8332 -0.3046
  662MOL0     C91257  10.187  -0.744   2.935  0.6423 -0.5480 -0.2244
  662MOL0     C91258  10.335  -0.779   2.945  0.3951 -0.0606 -0.2537
  662MOL0     C91259  10.359  -0.894   3.044 -0.0524 -0.5423 -0.5088
  662MOL0     C91260  10.310  -0.881   3.196 -0.1182 -0.0056 -0.1001
  662MOL0     C91261  10.392  -0.766   3.263 -0.1314 -0.3011  0.8365
  662MOL0     C91262  10.307  -0.639   3.287  0.0912  0.1262 -0.1797
  662MOL0    Cl91263  10.150  -0.676   3.384 -0.0083 -0.4456 -0.3549
  662MOL0     C91264   9.794  -0.532   3.072 -0.9326 -0.3755  0.1397
  662MOL0     C91265   9.664  -0.490   3.089 -0.5048  0.3632 -0.0368
  662MOL0     O91266   9.511  -0.181   3.015 -0.0437 -0.0768 -0.1838
  662MOL0     C91267   9.234  -0.333   3.150 -0.5856 -0.5933  0.1038
  662MOL0     C91268   9.102  -0.312   3.187  0.0286  1.3298 -0.6119
  662MOL0     N91269   8.395  -0.436   3.237  0.2689 -0.2104 -0.5403
  662MOL0     N91270   8.303  -0.495   3.170 -0.1559  0.3675  0.4133
  662MOL0     C91271   7.352  -0.019   2.385 -0.3811  0.0835 -0.5855
  662MOL0     C91272   7.271   0.064   2.307  0.0341  0.1448  0.7646
  662MOL0     C91273   7.032   0.250   1.993 -0.0528  0.3995 -0.5840
  662MOL0     C91274   6.918   0.200   1.927  0.3102  0.0693  0.1983
  662MOL0     C91275   6.817   0.273   1.877  0.0093 -0.5825 -0.0384
  662MOL0     C91276   6.831   0.410   1.876 -0.3844 -0.8216  0.0178
  662MOL0     O91277   6.738   0.495   1.818  0.0050 -0.1294 -0.4267
  662MOL0     C91278   6.755   0.642   1.806 -0.4446  0.0878 -0.5065
  662MOL0     C91279   6.640   0.707   1.734 -0.9409  0.3647  0.4777
  662MOL0     C91280   6.506   0.702   1.796  0.3839  1.2880 -0.2854
  662MOL0     C91281   6.386   0.697   1.700  0.2017 -0.7278 -0.1366
  662MOL0     C91282   6.348   0.835   1.652 -0.9651 -0.7068  0.4454
  662MOL0     C91283   6.339   0.941   1.593  0.3093  0.8646 -0.7409
  662MOL0     C91284   6.944   0.466   1.947 -0.1920 -0.0274  0.1767
  662MOL0     C91285   7.045   0.390   2.000  0.2457  0.4301 -0.4028
  662MOL0     C91286   7.162   0.479   2.053  0.2430  0.7823  0.7781
  662MOL0     H91287   7.496   0.212   2.101  1.6885 -1.5097 -0.9982
  662MOL0     H91288   7.648   0.058   2.221 -0.0383  3.7410 -2.9849
  662MOL0     H91289   7.478  -0.260   2.428 -1.0424  1.7271  0.2592
  662MOL0     H91290   7.541  -0.216   2.588  2.4167  0.7310  1.1287
  662MOL0     H91291   7.675  -0.394   2.454 -4.9569  1.2758  3.6415
  662MOL0     H91292   7.735  -0.255   2.359 -1.7192 -0.4788 -0.4805
  662MOL0     H91293   7.909  -0.272   2.515  0.2151 -2.0651  2.1938
  662MOL0     H91294   7.798  -0.149   2.588 -0.4640 -1.4270  1.4580
  662MOL0     H91295   7.702  -0.341   2.704 -0.5206  1.7623 -0.6732
  662MOL0     H91296   7.822  -0.446   2.623  1.5206  0.5343 -0.3441
  662MOL0     H91297   7.865  -0.381   2.877 -0.7799  1.0170  0.6585
  662MOL0     H91298   7.942  -0.238   2.798 -0.5024 -0.1566  0.7628
  662MOL0     H91299   8.017  -0.529   2.745 -1.1952  0.1387  0.2171
  662MOL0     H91300   8.070  -0.388   2.646  0.9688 -2.7426 -0.2145
  662MOL0     H91301   8.170  -0.290   2.855 -0.1641 -0.5113  0.5959
  662MOL0     H91302   8.245  -0.439   2.805  1.5446  2.0295 -1.4514
  662MOL0     H91303   8.050  -0.415   3.045  0.4589  0.4902  0.0686
  662MOL0     H91304   8.117  -0.557   2.977 -3.7488  1.5612 -3.1700
  662MOL0     H91305   8.284  -0.207   3.033  0.7700 -1.6782 -1.4156
  662MOL0     H91306   8.498  -0.234   3.367 -0.2410 -0.3239 -1.1199
  662MOL0     H91307   8.428  -0.097   3.274  1.5740  0.7059 -1.5496
  662MOL0     H91308   8.665  -0.273   3.206 -0.4602  0.6081  2.8930
  662MOL0     H91309   8.617  -0.152   3.092 -1.8932 -0.4945  0.8089
  662MOL0     H91310   8.655   0.020   3.287  1.0001  1.3842 -1.9400
  662MOL0     H91311   8.706  -0.130   3.378  1.0088  2.0261  0.1889
  662MOL0     H91312   8.832  -0.057   3.099  3.4449  0.9729  0.0184
  662MOL0     H91313   8.897   0.011   3.244 -0.2592  0.3493 -1.2876
  662MOL0     H91314   9.042  -0.018   3.045  0.9508  0.4512 -0.4011
  662MOL0     H91315   9.354   0.036   2.964 -0.3539  0.8023 -0.2598
  662MOL0     H91316   9.184   0.041   2.898 -0.1276 -0.0976 -0.3477
  662MOL0     H91317   9.320  -0.067   2.835  0.5800  0.2284  0.5968
  662MOL0     H91318   9.562  -0.390   2.794 -0.9357 -0.0675  0.3208
  662MOL0     H91319   9.805  -0.444   2.736 -0.2531 -3.8425 -1.2358
  662MOL0     H91320   9.957  -0.693   2.795  1.6148 -0.4875 -0.8445
  662MOL0     H91321  10.006  -0.530   2.725 -1.9929  1.1241  0.4874
  662MOL0     H91322  10.176  -0.723   2.719 -1.4495 -0.6470 -0.6985
  662MOL0     H91323  10.233  -0.573   2.800 -0.2428  0.0344  3.5099
  662MOL0     H91324  10.130  -0.837   2.936  0.5436 -0.5610 -2.6027
  662MOL0     H91325  10.151  -0.693   3.025 -2.0045  0.7985 -1.9006
  662MOL0     H91326  10.391  -0.689   2.973 -1.2087  0.6966  0.6353
  662MOL0     H91327  10.363  -0.814   2.846  3.4179  3.5209 -0.9056
  662MOL0     H91328  10.306  -0.983   3.009  0.5385 -0.7085 -0.9887
  662MOL0     H91329  10.464  -0.923   3.051 -0.2690 -1.2395 -0.0950
  662MOL0     H91330  10.348  -0.969   3.249  1.5097  1.1635  0.7657
  662MOL0     H91331  10.201  -0.877   3.211  0.1892 -0.8713  3.3210
  662MOL0     H91332  10.492  -0.751   3.222  0.2376 -0.4574  1.6593
  662MOL0     H91333  10.424  -0.798   3.363  0.3473 -0.4080  0.6511
  662MOL0     H91334  10.280  -0.599   3.189  0.4550  4.9976  1.4328
  662MOL0     H91335  10.364  -0.567   3.346  1.1764 -0.8618  0.0156
  662MOL0     H91336   9.855  -0.584   3.145 -0.9862  1.1406  1.3240
  662MOL0     H91337   9.616  -0.496   3.186  1.3839  0.0268  0.9257
  662MOL0     H91338   9.282  -0.419   3.196 -1.3632 -1.9424 -1.5291
  662MOL0     H91339   9.061  -0.380   3.262  1.3616  1.0569 -0.0987
  662MOL0     H91340   7.321  -0.058   2.481  2.3373  0.6612  0.6289
  662MOL0     H91341   7.164   0.064   2.327 -0.5352 -1.0625 -1.7637
  662MOL0     H91342   6.901   0.093   1.915 -0.5491  0.1098  0.9951
  662MOL0     H91343   6.725   0.234   1.833 -1.3345  2.5089 -0.2474
  662MOL0     H91344   6.759   0.691   1.904 -0.3781 -1.0322  0.0733
  662MOL0     H91345   6.849   0.672   1.758  0.2613 -0.4348  0.4896
  662MOL0     H91346   6.631   0.656   1.637  4.3489  2.0049 -1.2205
  662MOL0     H91347   6.667   0.809   1.705 -0.0635 -1.0149 -4.4613
  662MOL0     H91348   6.505   0.609   1.852 -0.5125  0.3573 -1.7519
  662MOL0     H91349   6.481   0.777   1.872  0.3864 -2.5260  3.9029
  662MOL0     H91350   6.299   0.655   1.752 -0.6081 -1.0767 -1.7102
  662MOL0     H91351   6.405   0.633   1.613 -1.0629 -0.3256 -0.7308
  662MOL0     H91352   6.323   1.036   1.546 -2.1910  0.2422 -1.2571
  662MOL0     H91353   6.947   0.574   1.957 -0.8089  0.3304 -2.6327
  662MOL0     H91354   7.127   0.578   2.082 -1.6047 -0.2945  2.5077
  662MOL0     H91355   7.199   0.450   2.152 -1.8017  0.9946  1.6410
  662MOL0     H91356   7.241   0.481   1.978  0.8273  1.3189  1.3932
  663MOL0     O91357   6.170   9.137  10.896  0.0169  0.8097 -0.0144
  663MOL0     C91358   6.215   9.242  10.933  0.0498  0.4436 -0.4764
  663MOL0     O91359   6.174   9.370  10.901 -0.2547 -0.7157 -0.0174
  663MOL0     C91360   6.049   9.387  10.841 -0.8342  0.6116 -0.1428
  663MOL0     C91361   5.937   9.344  10.914  0.5788  0.2665 -0.5334
  663MOL0     C91362   5.808   9.360  10.864 -0.8159 -0.2602  0.8137
  663MOL0     C91363   5.789   9.430  10.739 -0.2256 -0.0524  0.8063
  663MOL0     O91364   5.656   9.444  10.695 -0.1526  1.0187  0.2043
  663MOL0     C91365   5.625   9.559  10.609  0.3101 -0.9498  0.4808
  663MOL0     C91366   5.641   9.692  10.680 -0.3141  0.6629 -0.6567
  663MOL0     C91367   5.560   9.707  10.812  0.0160  0.4315 -0.1234
  663MOL0     C91368   5.418   9.668  10.808  0.4728  0.9953 -0.6753
  663MOL0     C91369   5.325   9.749  10.902 -0.2229  0.3367 -0.2324
  663MOL0     C91370   5.372   9.758  11.048  0.2868  0.6738  0.1365
  663MOL0     C91371   5.271   9.815  11.149  0.2578 -0.0232  0.2553
  663MOL0     C91372   5.274   9.966  11.131  0.7958 -0.0304 -1.1540
  663MOL0     N91373   5.158  10.033  11.208 -0.7929  0.1302 -0.1995
  663MOL0     C91374   5.141  10.024  11.346 -0.4267 -0.0953 -0.0954
  663MOL0     C91375   5.038  10.106  11.361  0.4260  0.0455  1.3920
  663MOL0     C91376   4.961  10.104  11.486 -1.1679 -0.1879  0.0765
  663MOL0     C91377   5.044  10.171  11.597 -0.3338  0.3575  0.1771
  663MOL0     C91378   5.086  10.318  11.580 -0.3557 -0.5266  0.1455
  663MOL0     C91379   5.206  10.339  11.489 -0.0669  0.0269  0.4354
  663MOL0     O91380   5.325  10.277  11.546  0.6310  0.0753 -0.2666
  663MOL0     C91381   5.439  10.281  11.467  0.8915  0.7110  0.6928
  663MOL0     C91382   5.472  10.164  11.404 -0.4381  0.2308 -0.1999
  663MOL0     C91383   5.577  10.152  11.308 -0.3311 -0.4440  0.6843
  663MOL0     C91384   5.616  10.019  11.248  0.7715  0.5346  0.3778
  663MOL0     C91385   5.652  10.276  11.283 -0.2389 -0.5805  0.2753
  663MOL0     C91386   5.770  10.279  11.201  0.0133 -0.2625  0.0853
  663MOL0     O91387   5.825  10.401  11.182 -0.0811 -0.0723 -0.1768
  663MOL0     C91388   5.958  10.413  11.143 -0.2293 -0.7376 -0.3958
  663MOL0     C91389   5.992  10.487  11.026 -0.1971  0.2768  0.5524
  663MOL0     C91390   6.124  10.505  10.986 -0.9375  0.1094 -0.1997
  663MOL0     C91391   6.229  10.460  11.069  0.1604  0.5303  0.4944
  663MOL0     O91392   6.359  10.488  11.044  0.5244 -0.2628 -0.3607
  663MOL0     C91393   6.456  10.461  11.148 -0.0521  0.1780  0.4638
  663MOL0     C91394   6.581  10.505  11.084 -0.4342 -0.0824  0.6275
  663MOL0     C91395   6.633  10.437  10.952  0.2827 -0.0768 -0.7719
  663MOL0     C91396   6.712  10.309  10.992 -0.1045 -0.1574  0.4921
  663MOL0     C91397   6.769  10.217  10.876 -0.0362 -0.1380  1.1287
  663MOL0     C91398   6.855  10.098  10.907  0.1531 -0.0193 -0.2939
  663MOL0     C91399   6.875  10.008  10.784  0.1420 -0.6403  0.8206
  663MOL0     C91400   6.950   9.882  10.833 -0.7512 -0.1859 -0.3821
  663MOL0    Cl91401   7.128   9.896  10.834 -0.1301 -0.3023  0.1493
  663MOL0     C91402   6.191  10.381  11.178  0.1462 -0.2020 -0.4774
  663MOL0     C91403   6.058  10.363  11.219 -0.6476 -0.4556 -1.0562
  663MOL0     O91404   5.824  10.174  11.165 -0.5607  0.9124  0.6719
  663MOL0     C91405   5.627  10.389  11.364  0.2218  0.0932  0.5339
  663MOL0     C91406   5.510  10.398  11.439  0.1679 -0.1412  0.7593
  663MOL0     N91407   5.003  10.172  11.243 -0.2194 -0.8287 -0.2181
  663MOL0     N91408   5.072  10.121  11.151  0.2156 -0.4656 -0.0074
  663MOL0     C91409   5.903   9.479  10.672 -0.7019  0.0063  0.1291
  663MOL0     C91410   6.034   9.460  10.726  0.6867  0.5052  0.0307
  663MOL0     C91411   6.346   9.228  11.004 -0.1748 -0.3786  0.5334
  663MOL0     C91412   6.448   9.325  10.965  0.4895 -0.1755  0.4332
  663MOL0     C91413   6.573   9.310  11.017 -0.7198  0.2844  0.3337
  663MOL0     C91414   6.614   9.201  11.102  0.6517  0.0064 -0.4120
  663MOL0     O91415   6.736   9.193  11.155 -0.1980  0.4613  0.2962
  663MOL0     C91416   6.828   9.301  11.135  0.4550  0.6074  0.4661
  663MOL0     C91417   6.951   9.282  11.224 -0.0940 -0.4864  0.6765
  663MOL0     C91418   6.906   9.274  11.368 -0.7641  0.0028 -1.2375
  663MOL0     C91419   7.017   9.202  11.450  0.7242 -0.3693  0.3736
  663MOL0     C91420   7.131   9.292  11.462  0.9576 -0.1575  0.4771
  663MOL0     C91421   7.219   9.372  11.475  0.7313 -1.0474 -0.1368
  663MOL0     C91422   6.510   9.112  11.140 -0.0883 -0.0326 -0.2163
  663MOL0     C91423   6.377   9.122  11.100 -0.7393 -0.3064  0.5236
  663MOL0     C91424   6.275   9.021  11.136 -0.5536 -0.1267  0.1871
  663MOL0     H91425   5.955   9.296  11.009 -0.0198  0.0290 -0.5351
  663MOL0     H91426   5.721   9.319  10.914 -0.1234  0.5859  2.8416
  663MOL0     H91427   5.517   9.564  10.591  0.3516 -0.7580  0.2771
  663MOL0     H91428   5.677   9.543  10.514  1.9883  0.6775  1.0800
  663MOL0     H91429   5.746   9.708  10.707 -0.9657  1.1396  1.8630
  663MOL0     H91430   5.610   9.769  10.608 -2.0312  1.0116  0.4064
  663MOL0     H91431   5.604   9.641  10.888 -2.2819 -0.1689  0.7802
  663MOL0     H91432   5.572   9.809  10.848 -1.2678  0.2544  0.8820
  663MOL0     H91433   5.373   9.686  10.710  0.2991  0.6357 -0.6633
  663MOL0     H91434   5.405   9.563  10.837  0.4675  1.0458 -0.4947
  663MOL0     H91435   5.225   9.705  10.901 -0.1388  0.1590 -0.8114
  663MOL0     H91436   5.325   9.853  10.870  0.7525  0.9665  1.6318
  663MOL0     H91437   5.393   9.655  11.078 -0.5438  0.7882  1.1639
  663MOL0     H91438   5.470   9.807  11.044  0.6038  0.0014 -3.3996
  663MOL0     H91439   5.304   9.789  11.249  0.7150  0.7145  0.3033
  663MOL0     H91440   5.171   9.772  11.139 -0.9954  2.9444 -1.8059
  663MOL0     H91441   5.375  10.002  11.155 -0.0501  1.9597 -0.3948
  663MOL0     H91442   5.253   9.993  11.028  1.1246  2.7658 -0.5594
  663MOL0     H91443   5.175   9.947  11.415 -0.3729 -0.6490 -0.7326
  663MOL0     H91444   4.931  10.001  11.509  1.3238 -1.1493 -0.6305
  663MOL0     H91445   4.866  10.155  11.467 -0.5512  0.6008 -1.0427
  663MOL0     H91446   4.986  10.166  11.690 -0.9657  0.0855 -0.2218
  663MOL0     H91447   5.136  10.113  11.607 -0.0664 -0.6728 -5.2684
  663MOL0     H91448   5.007  10.387  11.548  1.2326  1.7745  0.9694
  663MOL0     H91449   5.124  10.345  11.679  1.6513 -2.6303  0.0497
  663MOL0     H91450   5.194  10.290  11.392  2.1119 -0.2416  0.2547
  663MOL0     H91451   5.224  10.443  11.463 -2.3313  0.9702  2.2325
  663MOL0     H91452   5.403  10.085  11.433 -0.7641  0.0531 -1.4168
  663MOL0     H91453   5.716   9.980  11.273  0.8180 -0.3638 -1.1130
  663MOL0     H91454   5.621  10.031  11.140 -0.2172 -0.4965  0.2045
  663MOL0     H91455   5.549   9.942  11.289  0.4874  1.6370  2.0819
  663MOL0     H91456   5.913  10.523  10.962 -1.6146 -0.2138  1.9597
  663MOL0     H91457   6.142  10.552  10.889 -1.1158 -0.8136 -0.6870
  663MOL0     H91458   6.441  10.518  11.240 -0.3264 -0.1024  0.5990
  663MOL0     H91459   6.454  10.357  11.184 -4.9328  0.1929  0.9958
  663MOL0     H91460   6.556  10.610  11.066 -0.7758 -0.1274  0.8214
  663MOL0     H91461   6.666  10.496  11.151 -1.1230 -1.4781  1.3581
  663MOL0     H91462   6.702  10.503  10.899  0.0133  3.2919  2.6194
  663MOL0     H91463   6.552  10.399  10.889 -0.9272  0.6922  0.2604
  663MOL0     H91464   6.653  10.234  11.046  0.2954  1.1042  2.8079
  663MOL0     H91465   6.791  10.339  11.061 -0.0558  0.0677  0.3406
  663MOL0     H91466   6.678  10.181  10.826 -0.7897  2.5810  0.3966
  663MOL0     H91467   6.817  10.284  10.804 -1.8956  0.1069  0.0603
  663MOL0     H91468   6.797  10.041  10.980  1.7225 -0.1138  0.9365
  663MOL0     H91469   6.955  10.118  10.945 -0.1165  2.8500 -0.9229
  663MOL0     H91470   6.939  10.056  10.709  1.3867 -0.3787  2.0078
  663MOL0     H91471   6.780   9.981  10.737 -0.0707  0.8846  0.3232
  663MOL0     H91472   6.916   9.799  10.770  0.8068 -0.9341 -0.2846
  663MOL0     H91473   6.924   9.864  10.938 -0.0039 -0.0061 -0.1628
  663MOL0     H91474   6.267  10.341  11.245 -0.0958 -0.7875 -0.5521
  663MOL0     H91475   6.025  10.323  11.314 -0.0251 -1.7072 -1.3434
  663MOL0     H91476   5.683  10.481  11.353  0.8853 -0.5234 -1.8365
  663MOL0     H91477   5.490  10.484  11.502  0.1330 -0.2060  0.8376
  663MOL0     H91478   5.887   9.525  10.575  0.5844 -1.6291 -0.9339
  663MOL0     H91479   6.122   9.509  10.684 -0.8831  2.9450 -0.5815
  663MOL0     H91480   6.420   9.406  10.898  3.4083  0.9162  0.3821
  663MOL0     H91481   6.652   9.382  10.995  1.4954 -1.7647  1.0594
  663MOL0     H91482   6.850   9.303  11.028 -0.0942  0.1954  0.3435
  663MOL0     H91483   6.794   9.400  11.166 -1.0479  0.1863  0.2466
  663MOL0     H91484   7.027   9.357  11.202  1.2663 -1.4780  1.8669
  663MOL0     H91485   6.990   9.184  11.195 -0.2368 -0.7889  1.4831
  663MOL0     H91486   6.888   9.371  11.414 -0.4157 -0.2408 -0.5741
  663MOL0     H91487   6.817   9.211  11.378 -0.1108 -1.2164 -2.5885
  663MOL0     H91488   7.053   9.106  11.413 -0.0854 -1.2035  1.6398
  663MOL0     H91489   6.968   9.182  11.546  1.2950 -1.0014  0.5432
  663MOL0     H91490   7.297   9.445  11.483 -1.0844  1.0542 -0.5005
  663MOL0     H91491   6.538   9.044  11.221 -1.3015  2.1784  2.2152
  663MOL0     H91492   6.197   9.079  11.186 -2.3056 -0.3296 -2.1495
  663MOL0     H91493   6.238   8.966  11.049 -0.6855  1.7743 -1.0196
  663MOL0     H91494   6.316   8.941  11.198 -0.6348  0.7774  1.4372
  664MOL0     O91495   0.093   4.823   7.777 -0.9507  0.5457 -0.8406
  664MOL0     C91496  -0.010   4.807   7.829  0.6099 -0.6432  0.8752
  664MOL0     O91497  -0.044   4.798   7.964 -0.6070 -0.4323 -0.3094
  664MOL0     C91498   0.057   4.783   8.059 -0.2520 -0.6325 -0.7740
  664MOL0     C91499   0.068   4.662   8.127  0.0100 -0.0339  0.2945
  664MOL0     C91500   0.174   4.634   8.224  0.1282  0.0679  0.7244
  664MOL0     C91501   0.275   4.732   8.252  0.0944 -0.7857  0.6335
  664MOL0     O91502   0.375   4.697   8.338 -0.0681 -0.2007  0.5600
  664MOL0     C91503   0.498   4.766   8.334 -0.5260  0.4158  0.4394
  664MOL0     C91504   0.555   4.778   8.481  0.8574 -0.0874  0.3341
  664MOL0     C91505   0.485   4.894   8.558 -0.4788 -0.0705 -1.0832
  664MOL0     C91506   0.564   4.907   8.690 -0.1038 -0.0881 -0.0528
  664MOL0     C91507   0.508   5.020   8.791  0.3893  0.2631  0.1235
  664MOL0     C91508   0.588   5.045   8.915 -0.5169  0.2535 -0.2830
  664MOL0     C91509   0.508   5.115   9.020 -0.1844  0.1121  0.6330
  664MOL0     C91510   0.598   5.141   9.138 -0.3712 -0.0987  0.7804
  664MOL0     N91511   0.714   5.223   9.108 -0.1716 -0.6741 -0.9554
  664MOL0     C91512   0.712   5.359   9.076  0.0299  0.4413 -0.2989
  664MOL0     C91513   0.842   5.386   9.062 -1.1109  0.5050 -0.2166
  664MOL0     C91514   0.895   5.514   9.015  0.6491  0.3181  0.0139
  664MOL0     C91515   1.043   5.517   8.972  0.3723  0.2519 -1.0629
  664MOL0     C91516   1.076   5.666   8.975  0.8971  0.2768 -0.5446
  664MOL0     C91517   1.230   5.693   8.956  0.1819 -0.1095  0.4775
  664MOL0     O91518   1.245   5.831   8.964  0.5824 -0.2671 -0.2147
  664MOL0     C91519   1.355   5.881   8.900  0.6810  0.1252 -0.4436
  664MOL0     C91520   1.458   5.810   8.837  0.2290 -0.0356  0.6900
  664MOL0     C91521   1.554   5.870   8.765 -0.6012  0.6751  0.1276
  664MOL0     C91522   1.641   5.769   8.684  0.3863 -0.1378 -0.1262
  664MOL0     C91523   1.570   6.006   8.767  0.1989  0.6296 -0.2540
  664MOL0     C91524   1.680   6.084   8.708 -0.9436  0.6777  0.7333
  664MOL0     O91525   1.692   6.208   8.752 -0.2185  0.1392  0.0334
  664MOL0     C91526   1.742   6.303   8.664 -0.1726  0.2686  0.1306
  664MOL0     C91527   1.654   6.395   8.603  0.1959  0.4196 -0.1403
  664MOL0     C91528   1.708   6.495   8.521 -0.5912  0.0544  0.1483
  664MOL0     C91529   1.845   6.517   8.516  0.4834 -0.5274  0.2806
  664MOL0     O91530   1.889   6.622   8.439 -0.0578  0.3134  0.6981
  664MOL0     C91531   2.016   6.685   8.460  0.1826  0.7701 -0.1265
  664MOL0     C91532   2.107   6.624   8.355 -0.2941 -0.7639 -0.4985
  664MOL0     C91533   2.057   6.631   8.205  0.1104  0.3779 -0.3789
  664MOL0     C91534   2.077   6.776   8.154 -0.0472  0.4988 -0.2643
  664MOL0     C91535   2.055   6.809   8.009 -0.4680  0.1348 -0.2207
  664MOL0     C91536   2.076   6.961   7.990  0.0786 -0.1049 -0.4154
  664MOL0     C91537   2.105   6.998   7.846  0.1728  0.3044 -0.9505
  664MOL0     C91538   2.097   7.150   7.822 -0.2910  0.3539 -0.5481
  664MOL0    Cl91539   1.928   7.232   7.847 -0.4149 -0.1126 -0.0699
  664MOL0     C91540   1.927   6.435   8.587 -0.3019  0.4661 -0.2296
  664MOL0     C91541   1.879   6.324   8.656 -0.2431  0.4484 -0.5988
  664MOL0     O91542   1.757   6.031   8.629 -0.3843  0.2153 -0.2976
  664MOL0     C91543   1.468   6.080   8.833  0.6121 -0.8986 -0.6452
  664MOL0     C91544   1.359   6.017   8.888  0.4749 -0.4020  0.2460
  664MOL0     N91545   0.917   5.280   9.095  0.3453 -0.2106  0.1919
  664MOL0     N91546   0.842   5.187   9.139  0.1072 -0.5404  0.4683
  664MOL0     C91547   0.257   4.858   8.186 -0.2807  0.4828 -0.3348
  664MOL0     C91548   0.153   4.885   8.093 -0.5865 -0.4428 -0.1839
  664MOL0     C91549  -0.125   4.789   7.728  1.1152  0.4058 -0.4226
  664MOL0     C91550  -0.116   4.857   7.610  0.3447 -0.9609 -0.2086
  664MOL0     C91551  -0.217   4.850   7.511  0.0272  0.3634  0.2889
  664MOL0     C91552  -0.328   4.767   7.534  0.8389 -0.9383 -0.8550
  664MOL0     O91553  -0.420   4.767   7.441 -0.0321 -0.5716 -0.1837
  664MOL0     C91554  -0.550   4.709   7.466 -0.0787 -0.5948 -0.1442
  664MOL0     C91555  -0.637   4.794   7.553 -0.4602 -1.0985  0.0872
  664MOL0     C91556  -0.783   4.744   7.557 -0.1202 -0.2361  0.3641
  664MOL0     C91557  -0.817   4.616   7.637 -0.2527 -0.3935  0.2176
  664MOL0     C91558  -0.760   4.626   7.768 -0.0251  0.0193  1.0821
  664MOL0     C91559  -0.716   4.653   7.874  0.3951  0.3986 -0.7148
  664MOL0     C91560  -0.343   4.704   7.660 -0.8848 -0.0349  0.4066
  664MOL0     C91561  -0.240   4.710   7.755  0.3632 -0.2163 -0.5822
  664MOL0     C91562  -0.260   4.634   7.882 -0.0837 -0.5404 -0.0573
  664MOL0     H91563  -0.012   4.590   8.112  0.5210 -0.3855 -0.8050
  664MOL0     H91564   0.183   4.536   8.270  0.6971 -0.3607 -0.2550
  664MOL0     H91565   0.517   4.863   8.287  1.2774 -0.6643 -1.2280
  664MOL0     H91566   0.567   4.699   8.281 -0.1117  0.5573  0.7962
  664MOL0     H91567   0.538   4.681   8.526  0.8762 -1.9601 -3.3032
  664MOL0     H91568   0.664   4.788   8.469  0.6745 -0.3180 -2.2623
  664MOL0     H91569   0.494   4.988   8.504  0.1089  1.0083  0.7819
  664MOL0     H91570   0.379   4.872   8.571 -0.8394  2.2018  0.5086
  664MOL0     H91571   0.560   4.812   8.744  0.3598 -0.7744 -1.1805
  664MOL0     H91572   0.670   4.924   8.666 -0.4278  0.8800 -0.8598
  664MOL0     H91573   0.420   4.974   8.839  1.3419 -0.7344  0.9922
  664MOL0     H91574   0.464   5.106   8.741 -1.7348 -0.9902 -0.3001
  664MOL0     H91575   0.630   4.950   8.950 -0.9372  0.1467 -0.0634
  664MOL0     H91576   0.673   5.112   8.902 -2.4194  2.5831 -1.3733
  664MOL0     H91577   0.419   5.059   9.052  0.4446  0.3955  3.1125
  664MOL0     H91578   0.477   5.213   8.983 -0.2642 -0.5773 -1.2184
  664MOL0     H91579   0.534   5.186   9.214 -1.2129 -1.0222  0.6429
  664MOL0     H91580   0.643   5.051   9.181  1.4323  1.4932  2.4145
  664MOL0     H91581   0.632   5.428   9.054  1.0775  0.9155 -3.0387
  664MOL0     H91582   0.870   5.588   9.092 -3.9132 -1.1974  0.2974
  664MOL0     H91583   0.849   5.543   8.920  0.9436  3.1865  0.6634
  664MOL0     H91584   1.096   5.457   9.047 -0.2056  0.5211 -0.4281
  664MOL0     H91585   1.068   5.485   8.870  0.3463 -1.4815 -0.5569
  664MOL0     H91586   1.012   5.703   8.894  0.3617 -1.3376 -0.9021
  664MOL0     H91587   1.053   5.712   9.071 -1.3577  1.3037 -1.5061
  664MOL0     H91588   1.302   5.654   9.028  0.3098  2.0607  1.6126
  664MOL0     H91589   1.258   5.657   8.856  1.8964  1.7739  0.2071
  664MOL0     H91590   1.462   5.702   8.827  0.0368  0.1891 -3.6056
  664MOL0     H91591   1.677   5.807   8.587  0.6906 -2.4541 -0.9728
  664MOL0     H91592   1.585   5.681   8.653 -0.3006  2.0415 -6.8007
  664MOL0     H91593   1.729   5.744   8.744  0.4967 -2.1819 -1.0691
  664MOL0     H91594   1.548   6.373   8.611  0.8566 -3.1994  0.7995
  664MOL0     H91595   1.641   6.566   8.474  0.7476  1.1515 -0.1798
  664MOL0     H91596   2.010   6.793   8.446 -0.0172  0.6031 -1.3923
  664MOL0     H91597   2.041   6.670   8.566 -2.1182  3.6695  0.9740
  664MOL0     H91598   2.198   6.684   8.364  0.5853 -2.2602  1.2785
  664MOL0     H91599   2.137   6.522   8.381 -1.4018 -1.4171 -1.6754
  664MOL0     H91600   1.955   6.599   8.185  0.3833  1.0019 -3.1396
  664MOL0     H91601   2.124   6.567   8.147 -2.3357 -0.5446 -2.3694
  664MOL0     H91602   2.180   6.812   8.165 -0.0246  0.1216  0.8342
  664MOL0     H91603   2.002   6.831   8.210 -1.5463 -1.9140  0.2405
  664MOL0     H91604   2.125   6.749   7.951  1.6634  3.9643 -2.0292
  664MOL0     H91605   1.953   6.790   7.974 -1.4350  2.9495  0.7896
  664MOL0     H91606   2.164   7.004   8.039  1.0237 -0.6353 -1.5835
  664MOL0     H91607   1.984   7.006   8.027 -1.6775 -2.1432 -2.0448
  664MOL0     H91608   2.031   6.961   7.775 -1.4285 -1.0708  1.3019
  664MOL0     H91609   2.204   6.961   7.818  1.5849  4.2275 -1.8152
  664MOL0     H91610   2.130   7.183   7.724  1.3387 -2.0034 -0.8685
  664MOL0     H91611   2.159   7.188   7.904 -2.4546 -2.6040  2.8010
  664MOL0     H91612   2.035   6.447   8.588 -0.3261  0.7429  1.6399
  664MOL0     H91613   1.946   6.251   8.701 -0.0847  1.5370  1.0238
  664MOL0     H91614   1.476   6.189   8.835  1.3242 -0.8779  3.2903
  664MOL0     H91615   1.278   6.080   8.923  1.2366  1.1210 -0.6058
  664MOL0     H91616   0.337   4.930   8.201 -0.0697 -0.2810  3.0510
  664MOL0     H91617   0.135   4.982   8.048  0.4365 -0.0470  0.2376
  664MOL0     H91618  -0.036   4.930   7.601  0.0688 -0.2952  2.1300
  664MOL0     H91619  -0.212   4.896   7.413  0.9984 -1.1241 -0.3969
  664MOL0     H91620  -0.584   4.705   7.362  2.3948  1.5968 -1.1680
  664MOL0     H91621  -0.537   4.612   7.514 -1.3021 -0.4136  0.5928
  664MOL0     H91622  -0.635   4.897   7.519 -1.8221 -0.5037  1.6563
  664MOL0     H91623  -0.609   4.813   7.657  1.3123 -2.2964 -0.1382
  664MOL0     H91624  -0.836   4.830   7.597 -0.2397  0.3128 -0.9095
  664MOL0     H91625  -0.820   4.727   7.455 -0.6201  1.5372  0.2164
  664MOL0     H91626  -0.776   4.524   7.595  1.0677  0.6924 -0.9752
  664MOL0     H91627  -0.925   4.603   7.647 -0.1665 -0.6771  0.8338
  664MOL0     H91628  -0.679   4.678   7.971 -1.7838 -2.5954  1.0216
  664MOL0     H91629  -0.437   4.656   7.685 -1.8869  2.2520  1.3603
  664MOL0     H91630  -0.165   4.597   7.923  1.4292  1.6115 -1.4159
  664MOL0     H91631  -0.308   4.702   7.953 -0.7660  0.6691 -1.6308
  664MOL0     H91632  -0.325   4.547   7.871  1.5071 -1.6881 -0.8236
  665MOL0     O91633   0.038   8.936   5.908 -0.6622  0.2577  0.3036
  665MOL0     C91634   0.097   8.888   5.809 -0.4484 -0.3799  0.0918
  665MOL0     O91635   0.031   8.857   5.691 -0.1487 -0.5307  0.7593
  665MOL0     C91636  -0.099   8.901   5.673 -0.0965  0.0976  0.1595
  665MOL0     C91637  -0.145   9.031   5.685  0.7765  0.0496  0.3616
  665MOL0     C91638  -0.277   9.070   5.656  0.3949 -0.1113 -0.0931
  665MOL0     C91639  -0.372   8.980   5.607  0.1845 -0.4265  0.1973
  665MOL0     O91640  -0.501   9.019   5.569 -0.5593  0.1880 -0.0188
  665MOL0     C91641  -0.599   8.922   5.592 -0.0584 -0.3518  0.2460
  665MOL0     C91642  -0.737   8.980   5.586  0.5394 -0.5070 -0.1094
  665MOL0     C91643  -0.774   9.042   5.456 -0.1722  0.5496  0.4335
  665MOL0     C91644  -0.870   9.163   5.460  0.9237  0.3059 -0.2455
  665MOL0     C91645  -1.016   9.130   5.472  0.2924  0.4326  0.6723
  665MOL0     C91646  -1.107   9.238   5.429 -0.2591  0.0589  0.4707
  665MOL0     C91647  -1.090   9.364   5.511 -0.6281  0.4037 -0.2188
  665MOL0     C91648  -1.214   9.456   5.498 -0.0479 -0.0576  0.5059
  665MOL0     N91649  -1.170   9.598   5.516 -0.1315  0.3975  0.3755
  665MOL0     C91650  -1.123   9.660   5.638 -0.2388 -0.7661  0.9878
  665MOL0     C91651  -1.116   9.795   5.609  0.3131 -0.4155 -0.5136
  665MOL0     C91652  -1.066   9.906   5.702  0.5613 -0.5698  0.1837
  665MOL0     C91653  -0.930   9.967   5.682 -0.3212  0.1836  0.5016
  665MOL0     C91654  -0.901  10.002   5.535 -0.0022 -0.2989  0.5333
  665MOL0     C91655  -0.755  10.047   5.519  1.1394 -0.2509 -0.2029
  665MOL0     O91656  -0.739  10.102   5.387  0.4291  0.0698  0.3755
  665MOL0     C91657  -0.608  10.097   5.335 -0.1906  0.2554 -0.0534
  665MOL0     C91658  -0.600  10.053   5.200 -0.1346  0.6687 -0.0238
  665MOL0     C91659  -0.471  10.022   5.147  1.0182  0.4433  0.3334
  665MOL0     C91660  -0.478   9.966   5.003  0.5041  0.0245  0.0728
  665MOL0     C91661  -0.354  10.057   5.217 -0.5272 -0.1660 -0.0287
  665MOL0     C91662  -0.217  10.052   5.152  0.1693  0.2018 -0.0790
  665MOL0     O91663  -0.110  10.046   5.234  0.2863 -0.2587 -0.0014
  665MOL0     C91664   0.017  10.024   5.185 -0.6818  0.2309 -0.4390
  665MOL0     C91665   0.128  10.098   5.237 -0.1979 -0.0677 -0.4099
  665MOL0     C91666   0.260  10.090   5.182 -1.1739  0.2969  0.3361
  665MOL0     C91667   0.286   9.980   5.096  0.0779 -0.5926 -0.3228
  665MOL0     O91668   0.406   9.954   5.045  0.0239  0.1690  0.4653
  665MOL0     C91669   0.516  10.040   5.077 -0.0769 -0.6647  0.0201
  665MOL0     C91670   0.611  10.030   4.964 -0.4428 -0.5054 -1.1547
  665MOL0     C91671   0.665   9.887   4.940 -0.0128 -0.4643 -0.0852
  665MOL0     C91672   0.582   9.796   4.855 -0.0369 -1.3456  0.4149
  665MOL0     C91673   0.662   9.685   4.789  0.7605 -0.1476  0.8951
  665MOL0     C91674   0.579   9.584   4.713  0.3583 -0.5156  0.8983
  665MOL0     C91675   0.668   9.470   4.661  0.7298  0.1502 -0.5591
  665MOL0     C91676   0.586   9.347   4.619 -0.4547 -0.1336  0.0116
  665MOL0    Cl91677   0.505   9.375   4.458  0.1494  0.4626  0.0877
  665MOL0     C91678   0.181   9.903   5.054 -0.0161 -0.6418  0.3340
  665MOL0     C91679   0.048   9.920   5.096  0.6279  0.6538 -0.7600
  665MOL0     O91680  -0.209  10.054   5.029  0.5015  0.1125  0.3191
  665MOL0     C91681  -0.368  10.097   5.351  0.1991  0.2494  0.3868
  665MOL0     C91682  -0.494  10.126   5.410 -0.0808 -0.0515 -0.4551
  665MOL0     N91683  -1.172   9.809   5.480 -0.7556  0.1538  0.1692
  665MOL0     N91684  -1.192   9.694   5.429  0.5617 -0.2457  0.7737
  665MOL0     C91685  -0.319   8.848   5.583 -0.1211  0.2269  0.5321
  665MOL0     C91686  -0.191   8.807   5.625 -1.2460  0.1081 -0.7467
  665MOL0     C91687   0.244   8.888   5.803 -0.1188  0.6328 -0.7275
  665MOL0     C91688   0.310   8.822   5.695  0.2223 -0.6659 -0.3737
  665MOL0     C91689   0.448   8.801   5.687 -0.0107  0.5277  0.0334
  665MOL0     C91690   0.528   8.850   5.787 -0.6782 -0.6231  0.2240
  665MOL0     O91691   0.666   8.816   5.771  0.4793  0.7039  0.4178
  665MOL0     C91692   0.759   8.835   5.881  0.1358 -0.0912 -0.2383
  665MOL0     C91693   0.877   8.739   5.854  0.1059  0.0399  0.3240
  665MOL0     C91694   0.855   8.594   5.909 -0.4148 -1.1669  0.1334
  665MOL0     C91695   0.938   8.495   5.819  0.7572 -0.8122 -0.3019
  665MOL0     C91696   0.946   8.359   5.877 -0.1824 -0.3873 -0.1171
  665MOL0     C91697   0.968   8.245   5.901 -0.1996  0.0841 -0.0561
  665MOL0     C91698   0.470   8.918   5.903  0.0798  0.0924  0.6161
  665MOL0     C91699   0.330   8.933   5.914 -0.0790 -0.4918  0.4263
  665MOL0     C91700   0.273   9.000   6.045 -0.4049 -0.6561  0.1074
  665MOL0     H91701  -0.083   9.113   5.719  0.0902  0.9819 -0.5570
  665MOL0     H91702  -0.293   9.177   5.668  0.5047  0.1650 -2.0051
  665MOL0     H91703  -0.581   8.868   5.685  2.7275  0.3008  0.1633
  665MOL0     H91704  -0.592   8.848   5.511  2.8092  1.3544 -1.2075
  665MOL0     H91705  -0.799   8.890   5.589  0.4384 -0.4068  2.2283
  665MOL0     H91706  -0.761   9.041   5.674  0.6282  0.1070 -0.5040
  665MOL0     H91707  -0.686   9.069   5.397 -1.4437  0.6021 -1.5247
  665MOL0     H91708  -0.832   8.972   5.396 -2.6789  2.4844  0.4306
  665MOL0     H91709  -0.838   9.219   5.549 -0.3217  1.0255 -0.2219
  665MOL0     H91710  -0.857   9.233   5.377 -0.1392  1.4121  0.4952
  665MOL0     H91711  -1.039   9.113   5.578 -3.4265  0.3554 -0.0305
  665MOL0     H91712  -1.031   9.046   5.404  0.0223  2.8733 -2.5132
  665MOL0     H91713  -1.093   9.264   5.323  2.4190 -0.7705  0.5450
  665MOL0     H91714  -1.210   9.203   5.444  0.0939 -0.7137  1.1868
  665MOL0     H91715  -1.005   9.415   5.464  0.1056 -1.7078 -1.2810
  665MOL0     H91716  -1.076   9.343   5.618  0.2720  0.2450 -0.3620
  665MOL0     H91717  -1.268   9.444   5.404 -0.0598 -2.0409  0.7275
  665MOL0     H91718  -1.285   9.440   5.580  0.4308  2.3008  1.4741
  665MOL0     H91719  -1.082   9.609   5.725 -0.6054  3.1091  3.6799
  665MOL0     H91720  -1.060   9.863   5.803 -1.4135 -0.9774  0.1642
  665MOL0     H91721  -1.133   9.992   5.710 -0.7974 -1.5514 -0.2296
  665MOL0     H91722  -0.938  10.055   5.746 -3.4085  0.0311  0.5050
  665MOL0     H91723  -0.844   9.914   5.723 -0.0605  0.0755 -0.1641
  665MOL0     H91724  -0.930   9.927   5.460 -3.9166  2.8876 -1.5091
  665MOL0     H91725  -0.972  10.080   5.508 -2.6420 -2.9720 -0.8238
  665MOL0     H91726  -0.733  10.125   5.592 -1.6317  0.5890 -0.1643
  665MOL0     H91727  -0.696   9.956   5.536  0.2784 -0.5846  1.1764
  665MOL0     H91728  -0.693  10.028   5.151 -0.4738  2.4138 -0.3241
  665MOL0     H91729  -0.410   9.880   4.994 -2.0338 -2.0757 -0.4337
  665MOL0     H91730  -0.435  10.046   4.943  3.7464  0.6433  2.8757
  665MOL0     H91731  -0.577   9.937   4.966 -0.4217  0.9793  1.7165
  665MOL0     H91732   0.088  10.150   5.324 -0.0127 -0.4698 -0.0846
  665MOL0     H91733   0.338  10.144   5.235 -1.2058 -1.8750  2.7562
  665MOL0     H91734   0.494  10.147   5.079  1.9256 -0.1146 -2.4240
  665MOL0     H91735   0.582  10.017   5.161  2.1188  0.3401 -1.3527
  665MOL0     H91736   0.580  10.079   4.871  0.2095  0.2206 -0.9957
  665MOL0     H91737   0.695  10.091   4.997 -1.4630  0.8751 -0.9891
  665MOL0     H91738   0.692   9.838   5.033 -2.6603  0.4856  1.2959
  665MOL0     H91739   0.744   9.918   4.871  0.4025  2.4972  1.5497
  665MOL0     H91740   0.529   9.850   4.776 -0.9618 -1.1421  1.1613
  665MOL0     H91741   0.504   9.754   4.919 -1.7118 -0.8021 -1.1949
  665MOL0     H91742   0.726   9.737   4.717  0.6801 -0.1161  0.8457
  665MOL0     H91743   0.735   9.645   4.860  0.7151  1.8707  2.1364
  665MOL0     H91744   0.529   9.627   4.625 -1.7463 -1.5425  1.5162
  665MOL0     H91745   0.502   9.551   4.784  0.3847  0.3310  1.3443
  665MOL0     H91746   0.734   9.435   4.740 -1.2807  0.8758  1.5487
  665MOL0     H91747   0.732   9.514   4.584 -0.2373  1.4482 -0.6495
  665MOL0     H91748   0.516   9.310   4.694  2.3699 -3.2132  1.3962
  665MOL0     H91749   0.658   9.265   4.616 -0.3298 -0.0078 -0.7356
  665MOL0     H91750   0.203   9.830   4.977  0.6779  2.1588 -2.3172
  665MOL0     H91751  -0.036   9.861   5.059  0.3440  1.8753 -2.1643
  665MOL0     H91752  -0.284  10.120   5.415 -0.9838  4.9449  0.7041
  665MOL0     H91753  -0.503  10.164   5.511 -1.8360  2.3401 -1.4347
  665MOL0     H91754  -0.379   8.776   5.528 -0.2222  2.5605 -2.7237
  665MOL0     H91755  -0.164   8.703   5.608 -0.1030  0.7606 -3.4099
  665MOL0     H91756   0.250   8.772   5.620 -1.2799  0.8435 -0.2369
  665MOL0     H91757   0.492   8.742   5.607  2.3190  1.4754  0.5479
  665MOL0     H91758   0.800   8.936   5.889 -0.4338  0.0174  1.7482
  665MOL0     H91759   0.717   8.813   5.979  0.0900 -0.8518 -0.4260
  665MOL0     H91760   0.973   8.775   5.892 -0.0316 -0.3086  1.0155
  665MOL0     H91761   0.871   8.735   5.744  0.2535  0.6030  0.2921
  665MOL0     H91762   0.888   8.586   6.014 -0.1612  0.7542  0.2279
  665MOL0     H91763   0.748   8.573   5.905 -0.7878  0.0570  1.9951
  665MOL0     H91764   1.043   8.524   5.811  1.0089 -1.9244 -1.3885
  665MOL0     H91765   0.900   8.480   5.718 -0.5615  1.4928 -0.2240
  665MOL0     H91766   0.981   8.144   5.931 -0.1653 -0.1984 -0.9824
  665MOL0     H91767   0.543   8.953   5.975  1.8357 -1.0123 -0.5444
  665MOL0     H91768   0.224   9.094   6.016  0.9849  0.3337  0.8144
  665MOL0     H91769   0.212   8.930   6.101 -0.8366 -1.8050 -1.7297
  665MOL0     H91770   0.354   9.035   6.110 -0.4404  0.5398 -0.4574
  666MOL0     O91771   9.250   9.223   0.240  0.2921 -0.0120  0.5498
  666MOL0     C91772   9.231   9.109   0.195 -0.3536 -0.0702  0.1170
  666MOL0     O91773   9.318   9.033   0.125  0.2375  0.1878 -0.0964
  666MOL0     C91774   9.453   9.056   0.133  0.1400 -0.1310 -0.3073
  666MOL0     C91775   9.541   9.057   0.014  0.6375 -0.4393 -0.2160
  666MOL0     C91776   9.680   9.067   0.032  0.4223  0.0898  0.5707
  666MOL0     C91777   9.733   9.094   0.161  0.0391 -0.3350 -0.3777
  666MOL0     O91778   9.864   9.116   0.189 -0.7726  0.1191 -0.1581
  666MOL0     C91779   9.963   9.106   0.079 -0.0413 -0.3462 -0.5350
  666MOL0     C91780  10.097   9.101   0.144  0.3598 -0.7666  0.2901
  666MOL0     C91781  10.204   9.077   0.040  1.1599 -0.4399  0.4667
  666MOL0     C91782  10.343   9.107   0.093 -0.4068  0.3402 -0.7026
  666MOL0     C91783  10.444   9.065  -0.003  0.4522  0.7057 -0.2023
  666MOL0     C91784  10.585   9.116   0.037  0.9010 -0.0455  0.2603
  666MOL0     C91785  10.669   9.044  -0.069 -0.2780  0.2073 -0.4635
  666MOL0     C91786  10.815   9.078  -0.051 -0.1492  0.4411  0.6211
  666MOL0     N91787  10.907   8.996  -0.135  0.4527 -1.1982  0.1579
  666MOL0     C91788  10.907   8.861  -0.137  0.3544  0.6565  0.7887
  666MOL0     C91789  11.002   8.824  -0.230 -0.6866 -0.6581  0.1109
  666MOL0     C91790  11.043   8.675  -0.256  0.1427  0.4828  0.3150
  666MOL0     C91791  11.190   8.659  -0.280  0.7110  0.9118  1.1605
  666MOL0     C91792  11.216   8.714  -0.421  0.1219  0.0967  0.5477
  666MOL0     C91793  11.366   8.742  -0.442 -0.4265  0.1553  0.0069
  666MOL0     O91794  11.448   8.629  -0.398 -0.1677 -0.8556  0.0027
  666MOL0     C91795  11.578   8.608  -0.435 -0.1626  0.6699  0.0185
  666MOL0     C91796  11.647   8.506  -0.372  0.0934 -0.1792  0.1325
  666MOL0     C91797  11.782   8.492  -0.380 -0.5297 -0.3393  0.1368
  666MOL0     C91798  11.858   8.387  -0.312 -0.6620 -0.1242 -0.7846
  666MOL0     C91799  11.854   8.579  -0.472  0.7119  0.1924 -0.6444
  666MOL0     C91800  12.005   8.580  -0.500  0.1341  0.3825 -0.5053
  666MOL0     O91801  12.038   8.633  -0.623 -0.3706 -0.4149  0.2731
  666MOL0     C91802  12.171   8.618  -0.670 -0.2009 -0.7013 -0.1798
  666MOL0     C91803  12.182   8.642  -0.808 -0.6562 -0.3184  0.3547
  666MOL0     C91804  12.308   8.657  -0.867  0.6249 -0.2046  0.0628
  666MOL0     C91805  12.424   8.637  -0.797  0.1402 -0.0856  0.1498
  666MOL0     O91806  12.550   8.631  -0.862 -0.0522  0.1096  0.2825
  666MOL0     C91807  12.593   8.763  -0.893 -0.0684  0.1389  0.3526
  666MOL0     C91808  12.699   8.757  -0.995  0.3284  0.0892  0.8086
  666MOL0     C91809  12.813   8.667  -0.954 -0.6945  0.4262  0.4626
  666MOL0     C91810  12.936   8.671  -1.048  1.0610 -0.3674  0.1424
  666MOL0     C91811  13.057   8.590  -1.001  0.3436  0.3400  0.0519
  666MOL0     C91812  13.098   8.627  -0.856  1.0164  0.7765  0.3448
  666MOL0     C91813  13.153   8.768  -0.836 -0.0638  0.2427 -0.5128
  666MOL0     C91814  13.281   8.766  -0.747  0.2151 -0.0120  1.2235
  666MOL0    Cl91815  13.318   8.935  -0.722 -0.3880 -0.3520 -0.2274
  666MOL0     C91816  12.415   8.621  -0.663  0.2045  0.0105 -0.3384
  666MOL0     C91817  12.289   8.609  -0.601 -0.1124 -0.6355 -0.0141
  666MOL0     O91818  12.081   8.521  -0.424  0.1835 -0.3591 -0.1886
  666MOL0     C91819  11.778   8.668  -0.549  0.2320 -0.3386  0.1485
  666MOL0     C91820  11.647   8.685  -0.526 -0.5605 -0.1897 -0.4661
  666MOL0     N91821  11.069   8.948  -0.275  0.3175  0.3602  0.1558
  666MOL0     N91822  11.006   9.045  -0.212 -0.1611 -0.0731  0.5074
  666MOL0     C91823   9.656   9.097   0.273  0.8394 -0.7229 -0.0543
  666MOL0     C91824   9.511   9.076   0.261  0.6486 -0.2656  0.0427
  666MOL0     C91825   9.094   9.058   0.173 -0.0046  0.3498 -0.2868
  666MOL0     C91826   9.069   8.958   0.075  0.0407 -0.2820 -0.2114
  666MOL0     C91827   8.940   8.926   0.023 -0.0232 -0.1847  0.2098
  666MOL0     C91828   8.831   8.979   0.100 -0.5392  0.2286  0.3442
  666MOL0     O91829   8.706   8.934   0.077  0.7704 -0.2073  0.1123
  666MOL0     C91830   8.648   8.862   0.190  1.0770  0.1910  0.1247
  666MOL0     C91831   8.519   8.795   0.135 -0.3606 -1.1792 -0.9481
  666MOL0     C91832   8.555   8.685   0.019  0.9918 -0.5195  0.1253
  666MOL0     C91833   8.421   8.600  -0.005 -0.5351  0.4977  0.2043
  666MOL0     C91834   8.425   8.517  -0.126 -0.0927 -0.3131  0.0457
  666MOL0     C91835   8.434   8.462  -0.233  0.1621  0.3112 -0.3169
  666MOL0     C91836   8.854   9.072   0.200  0.4943  0.3972 -0.1664
  666MOL0     C91837   8.978   9.118   0.238 -0.1093  0.1987 -0.4911
  666MOL0     C91838   8.985   9.235   0.344 -0.4467  0.0439  0.2731
  666MOL0     H91839   9.490   9.031  -0.078 -0.3356 -1.1728  0.5020
  666MOL0     H91840   9.748   9.057  -0.052  1.0650  1.1097  0.9550
  666MOL0     H91841   9.956   9.195   0.015  0.2358  3.8097  4.5902
  666MOL0     H91842   9.955   9.017   0.016  0.0571  1.1180 -2.7723
  666MOL0     H91843  10.110   9.196   0.195 -0.6435  1.7234 -3.6731
  666MOL0     H91844  10.111   9.018   0.215  2.8076 -1.7382 -1.2097
  666MOL0     H91845  10.191   8.977  -0.004  3.0527  0.6517 -2.9702
  666MOL0     H91846  10.187   9.138  -0.049 -1.3447 -0.7358  0.6729
  666MOL0     H91847  10.353   9.215   0.107  3.8823 -0.0606  0.5822
  666MOL0     H91848  10.358   9.056   0.188  0.4214  0.1526 -0.9283
  666MOL0     H91849  10.426   9.102  -0.104  2.6977  1.4516 -0.3914
  666MOL0     H91850  10.434   8.956  -0.004 -0.9721  0.7912  1.3089
  666MOL0     H91851  10.582   9.226   0.030  1.6119 -0.1268 -1.9403
  666MOL0     H91852  10.606   9.087   0.140  1.2153  0.8771  0.4708
  666MOL0     H91853  10.635   9.080  -0.167 -0.9589  3.3439  0.8269
  666MOL0     H91854  10.666   8.934  -0.070  3.9982 -0.1185  0.9612
  666MOL0     H91855  10.835   9.183  -0.076  0.9022  0.3548  1.0456
  666MOL0     H91856  10.842   9.069   0.055 -0.7431  0.2638  0.7607
  666MOL0     H91857  10.843   8.801  -0.073 -1.0505  0.0260 -1.1039
  666MOL0     H91858  10.980   8.631  -0.333 -0.1702  0.9183  0.3167
  666MOL0     H91859  11.010   8.618  -0.168 -0.8147  0.0378 -0.3187
  666MOL0     H91860  11.250   8.718  -0.210 -0.4047  2.3370  0.9470
  666MOL0     H91861  11.205   8.550  -0.275 -2.3883  0.3973  1.2170
  666MOL0     H91862  11.187   8.635  -0.491  0.5365 -0.0637  0.5490
  666MOL0     H91863  11.157   8.798  -0.459 -2.7409 -1.9486  0.1849
  666MOL0     H91864  11.384   8.768  -0.547 -1.8537  3.1267  0.3945
  666MOL0     H91865  11.396   8.835  -0.394 -1.6789  1.0615 -0.8905
  666MOL0     H91866  11.599   8.439  -0.302  3.3790 -1.8365  1.0012
  666MOL0     H91867  11.790   8.314  -0.267 -0.8447  1.6181  1.9964
  666MOL0     H91868  11.922   8.438  -0.240 -0.8812  0.6579 -1.1266
  666MOL0     H91869  11.930   8.329  -0.371 -1.4258  0.4869 -2.3739
  666MOL0     H91870  12.095   8.650  -0.871 -1.9593 -4.3567  1.3431
  666MOL0     H91871  12.298   8.673  -0.974 -2.3409  2.8618  0.6621
  666MOL0     H91872  12.513   8.821  -0.941  2.7542  2.4009 -2.0655
  666MOL0     H91873  12.621   8.814  -0.801 -0.5793  3.0022 -0.9498
  666MOL0     H91874  12.659   8.715  -1.088 -0.4115  2.0887  0.1727
  666MOL0     H91875  12.736   8.856  -1.021 -1.3053  0.2307 -1.2643
  666MOL0     H91876  12.780   8.564  -0.937  0.0372 -0.3344 -2.3656
  666MOL0     H91877  12.850   8.708  -0.859 -1.5343 -0.2315  1.1007
  666MOL0     H91878  12.955   8.776  -1.071  0.3525 -0.2753 -0.0610
  666MOL0     H91879  12.915   8.624  -1.144  0.2754  2.7152 -1.3153
  666MOL0     H91880  13.029   8.485  -1.007  0.0262  0.2716  2.1528
  666MOL0     H91881  13.139   8.607  -1.072  1.0529  0.2942  0.8339
  666MOL0     H91882  13.170   8.550  -0.826 -1.2216 -2.4107 -1.8085
  666MOL0     H91883  13.010   8.608  -0.795 -2.1829 -1.8618 -4.4213
  666MOL0     H91884  13.072   8.816  -0.782 -1.6602 -1.2534 -1.4729
  666MOL0     H91885  13.166   8.821  -0.931 -2.3893 -0.1667 -1.1104
  666MOL0     H91886  13.365   8.713  -0.794  0.5583  0.4621  1.2883
  666MOL0     H91887  13.262   8.714  -0.653 -4.6109  1.4963  1.3674
  666MOL0     H91888  12.504   8.609  -0.603 -0.8384  3.4502  2.1841
  666MOL0     H91889  12.296   8.613  -0.492 -0.2413 -3.3647  0.1559
  666MOL0     H91890  11.827   8.741  -0.614  0.7901  0.0003  0.9242
  666MOL0     H91891  11.609   8.771  -0.580  1.7913  0.8040 -0.6773
  666MOL0     H91892   9.698   9.118   0.371 -0.5173  1.4532  0.1362
  666MOL0     H91893   9.449   9.085   0.349  0.4992  1.4646 -0.2056
  666MOL0     H91894   9.155   8.906   0.032  1.7428 -0.2597  2.8846
  666MOL0     H91895   8.915   8.854  -0.055  1.9961 -1.5775  0.7711
  666MOL0     H91896   8.717   8.787   0.230  2.3179  0.6005 -1.1819
  666MOL0     H91897   8.615   8.930   0.270 -1.1840 -3.1597  2.3590
  666MOL0     H91898   8.455   8.871   0.089  0.6501  0.9148  0.9564
  666MOL0     H91899   8.468   8.747   0.218  0.4428 -2.2474 -1.0466
  666MOL0     H91900   8.572   8.743  -0.072  1.4163  2.8606  2.1693
  666MOL0     H91901   8.637   8.619   0.047  0.2005 -0.9681  1.4771
  666MOL0     H91902   8.333   8.664  -0.015 -1.4319 -0.4918  1.4517
  666MOL0     H91903   8.396   8.551   0.089 -2.4118  0.8005 -0.0959
  666MOL0     H91904   8.441   8.401  -0.322 -2.0003 -1.4988  0.6275
  666MOL0     H91905   8.774   9.124   0.252 -0.0351 -0.2330 -0.3507
  666MOL0     H91906   8.986   9.336   0.302 -1.4380  1.2230  2.9058
  666MOL0     H91907   8.894   9.222   0.404 -2.3792 -1.6147 -2.7450
  666MOL0     H91908   9.069   9.220   0.412 -0.7666  0.6230  0.7966
  667MOL0     O91909   2.306   6.493  10.542 -0.6152  0.1435  0.5674
  667MOL0     C91910   2.328   6.567  10.637 -0.1312  0.1286  0.2343
  667MOL0     O91911   2.444   6.642  10.652  0.6486 -0.8937 -0.3752
  667MOL0     C91912   2.531   6.643  10.556  0.3465  0.1304  0.3238
  667MOL0     C91913   2.552   6.770  10.506  0.2490  0.0304  1.1264
  667MOL0     C91914   2.652   6.788  10.409  0.1247  0.2746 -0.7916
  667MOL0     C91915   2.725   6.682  10.361 -0.2526 -0.1227 -0.4819
  667MOL0     O91916   2.828   6.708  10.261  0.1479 -0.3973 -0.0683
  667MOL0     C91917   2.951   6.754  10.299  0.2450 -0.5917  0.1412
  667MOL0     C91918   3.033   6.726  10.178  0.1484 -0.2660  1.7576
  667MOL0     C91919   3.189   6.743  10.206  0.0794  0.2445  0.0834
  667MOL0     C91920   3.241   6.660  10.320 -0.6059 -1.0000  0.0887
  667MOL0     C91921   3.393   6.642  10.311  0.5315 -0.7002 -0.3240
  667MOL0     C91922   3.478   6.765  10.276 -0.2528  0.2038 -0.2926
  667MOL0     C91923   3.616   6.717  10.227 -0.8444  0.7401 -0.0534
  667MOL0     C91924   3.708   6.713  10.347  0.3084  0.0834 -0.7367
  667MOL0     N91925   3.822   6.625  10.319 -0.4932 -0.2438 -0.5079
  667MOL0     C91926   3.937   6.660  10.249  0.4119  0.1192 -0.4960
  667MOL0     C91927   4.016   6.548  10.258 -0.4461  0.3238  0.3320
  667MOL0     C91928   4.158   6.516  10.202 -0.1913  0.2116 -0.8075
  667MOL0     C91929   4.241   6.413  10.292  0.1507 -0.1271  0.4173
  667MOL0     C91930   4.395   6.427  10.264 -0.1399 -0.0996  0.3104
  667MOL0     C91931   4.487   6.329  10.343 -0.2041  0.7681  0.1753
  667MOL0     O91932   4.489   6.360  10.475 -0.1073  0.5083  0.0924
  667MOL0     C91933   4.474   6.256  10.565 -0.5248  0.4376  1.0556
  667MOL0     C91934   4.397   6.277  10.678 -0.2211  1.0262 -0.4330
  667MOL0     C91935   4.373   6.177  10.774  0.3243  0.2922 -0.1589
  667MOL0     C91936   4.272   6.204  10.887 -0.0390 -0.4051  0.2218
  667MOL0     C91937   4.445   6.058  10.775 -0.0056  0.3503 -1.1620
  667MOL0     C91938   4.445   5.943  10.871 -0.4900 -0.5415  0.3801
  667MOL0     O91939   4.498   5.825  10.831  0.7549 -0.0529  0.5524
  667MOL0     C91940   4.511   5.714  10.914  0.3503  0.6127  0.2371
  667MOL0     C91941   4.447   5.687  11.041 -0.2632 -0.5712 -0.0616
  667MOL0     C91942   4.474   5.571  11.112  0.5111 -0.2913 -0.5620
  667MOL0     C91943   4.563   5.474  11.058 -0.0283  1.1068 -0.3419
  667MOL0     O91944   4.592   5.351  11.116  0.5406  0.3067 -0.2571
  667MOL0     C91945   4.500   5.294  11.211 -0.2492  0.0906  0.0076
  667MOL0     C91946   4.528   5.145  11.226  0.2003  0.7754 -0.7183
  667MOL0     C91947   4.673   5.098  11.217 -0.2563 -0.1592 -0.7999
  667MOL0     C91948   4.690   4.948  11.237  0.0636  0.2342 -0.4008
  667MOL0     C91949   4.836   4.910  11.233 -0.7380  0.2541  0.1228
  667MOL0     C91950   4.935   4.969  11.344 -0.7634  0.0352  0.3941
  667MOL0     C91951   5.086   4.938  11.330  0.4434  0.6539 -0.2187
  667MOL0     C91952   5.118   4.794  11.321 -0.5969  0.6970  0.5914
  667MOL0    Cl91953   5.292   4.785  11.373 -0.0298  0.3016  0.1572
  667MOL0     C91954   4.639   5.506  10.946  0.1276  0.8657  0.4126
  667MOL0     C91955   4.613   5.620  10.872  0.3143  0.2513  0.0426
  667MOL0     O91956   4.388   5.967  10.978 -0.0741 -0.1911  0.3918
  667MOL0     C91957   4.532   6.036  10.664 -0.3889 -0.8454 -0.7559
  667MOL0     C91958   4.548   6.142  10.562 -0.1712  0.0825  0.6333
  667MOL0     N91959   3.946   6.448  10.317 -0.1239  0.4254 -0.2842
  667MOL0     N91960   3.835   6.489  10.355 -0.1105 -0.4704 -0.0978
  667MOL0     C91961   2.695   6.559  10.404  0.3900  1.5613 -0.2825
  667MOL0     C91962   2.602   6.534  10.514  0.1244 -0.3463 -1.1896
  667MOL0     C91963   2.226   6.585  10.729  0.4402  0.9018  0.1525
  667MOL0     C91964   2.092   6.602  10.686  0.2174 -0.2344  0.2997
  667MOL0     C91965   1.995   6.631  10.779  0.1282 -0.7447 -0.6959
  667MOL0     C91966   2.024   6.618  10.916  0.2181 -0.5810 -0.6004
  667MOL0     O91967   1.928   6.632  11.020  1.0229  0.1679  0.1573
  667MOL0     C91968   1.794   6.594  11.003 -0.7082 -0.4455  0.0147
  667MOL0     C91969   1.705   6.608  11.132  0.0284  0.3095 -0.2666
  667MOL0     C91970   1.568   6.535  11.123  0.2129 -0.0199  0.0774
  667MOL0     C91971   1.493   6.563  11.253  0.6963  0.0258 -0.1171
  667MOL0     C91972   1.349   6.522  11.251  0.0364 -0.1618  0.1114
  667MOL0     C91973   1.236   6.484  11.227  0.0591 -0.3983  0.2463
  667MOL0     C91974   2.151   6.598  10.959 -0.7012  0.3613 -0.1805
  667MOL0     C91975   2.254   6.586  10.868 -0.1743 -0.5684 -0.6362
  667MOL0     C91976   2.395   6.566  10.932  1.0496  0.3346 -0.0753
  667MOL0     H91977   2.482   6.853  10.512 -1.4462 -1.1916 -0.6773
  667MOL0     H91978   2.668   6.888  10.370 -0.5059  1.4530  1.7525
  667MOL0     H91979   2.995   6.705  10.386  0.5153 -1.6214 -0.5577
  667MOL0     H91980   2.955   6.859  10.327  3.9563 -0.6135  0.2120
  667MOL0     H91981   3.011   6.631  10.130 -2.3120  0.2908  1.6649
  667MOL0     H91982   3.012   6.804  10.104  0.8743 -1.2044  0.5378
  667MOL0     H91983   3.244   6.727  10.113 -2.3557 -1.2800 -1.2261
  667MOL0     H91984   3.198   6.845  10.242 -0.6981  0.9028 -1.4773
  667MOL0     H91985   3.210   6.713  10.411 -3.1132  0.4964 -1.5155
  667MOL0     H91986   3.194   6.561  10.331 -0.5417 -0.9451  0.9811
  667MOL0     H91987   3.401   6.572  10.227  0.7326 -1.0523 -0.0146
  667MOL0     H91988   3.442   6.606  10.402  0.4804  2.2630  0.9934
  667MOL0     H91989   3.425   6.813  10.194 -1.3530 -0.1996  0.1655
  667MOL0     H91990   3.503   6.838  10.353  0.2889 -0.5271  0.2427
  667MOL0     H91991   3.651   6.785  10.149  1.5267 -2.0030 -1.5530
  667MOL0     H91992   3.621   6.616  10.185 -1.2649  0.6593  0.0814
  667MOL0     H91993   3.735   6.818  10.361 -2.0328  0.8626 -1.5282
  667MOL0     H91994   3.653   6.687  10.438  2.0961 -2.0061 -0.1869
  667MOL0     H91995   3.953   6.762  10.215  2.3401  0.2761  0.7325
  667MOL0     H91996   4.207   6.613  10.217 -1.6081  0.5111  2.9757
  667MOL0     H91997   4.155   6.488  10.097  0.3495  1.2977 -1.1342
  667MOL0     H91998   4.223   6.443  10.396  0.5336  1.8601 -0.0339
  667MOL0     H91999   4.196   6.314  10.284  0.9786 -0.3707 -2.0567
  667MOL0     H92000   4.417   6.421  10.157  1.3036 -0.2099  0.5998
  667MOL0     H92001   4.420   6.528  10.295  0.5563  0.4914 -2.0145
  667MOL0     H92002   4.433   6.235  10.325  0.0152  0.3441  1.6409
  667MOL0     H92003   4.583   6.312  10.294 -0.3577  0.0770  0.0921
  667MOL0     H92004   4.329   6.360  10.694  0.6144  1.9246 -1.4121
  667MOL0     H92005   4.201   6.125  10.908  1.3293 -1.7754 -0.1303
  667MOL0     H92006   4.213   6.296  10.878 -0.3145 -0.5587  0.4825
  667MOL0     H92007   4.337   6.225  10.973  0.2285 -0.2140 -0.0238
  667MOL0     H92008   4.386   5.761  11.090 -0.0781  1.0449 -2.1392
  667MOL0     H92009   4.418   5.559  11.203 -0.4930  1.3223 -0.9259
  667MOL0     H92010   4.514   5.346  11.306 -0.7432  0.0671  0.0970
  667MOL0     H92011   4.398   5.319  11.181 -1.0615 -3.4131 -0.5232
  667MOL0     H92012   4.501   5.121  11.329  1.5217  1.4294 -0.1972
  667MOL0     H92013   4.464   5.084  11.161  1.0269  0.4218 -1.2218
  667MOL0     H92014   4.720   5.147  11.303  0.1984  2.9845 -2.6950
  667MOL0     H92015   4.728   5.144  11.134 -1.6840  0.8886 -1.1935
  667MOL0     H92016   4.642   4.896  11.153 -0.0290 -1.6148  0.7439
  667MOL0     H92017   4.645   4.925  11.334 -1.0505 -0.1196 -0.9856
  667MOL0     H92018   4.847   4.801  11.233 -0.2000  0.2914 -1.0756
  667MOL0     H92019   4.875   4.946  11.137 -0.0412  1.5365  0.8533
  667MOL0     H92020   4.890   4.921  11.432 -2.8249  1.5719  0.2598
  667MOL0     H92021   4.923   5.078  11.344 -1.6782 -0.0384 -0.4980
  667MOL0     H92022   5.139   4.980  11.416  0.9033  0.0055 -0.1777
  667MOL0     H92023   5.130   4.991  11.245 -0.8778  2.6474  0.2852
  667MOL0     H92024   5.115   4.754  11.219  0.6670  2.8002 -0.3348
  667MOL0     H92025   5.066   4.729  11.392  0.4136 -0.3500  0.4220
  667MOL0     H92026   4.714   5.438  10.908  0.0407  0.4828  0.9128
  667MOL0     H92027   4.662   5.631  10.776  1.5620  0.3044  0.6709
  667MOL0     H92028   4.610   5.961  10.674  0.8256  0.5940  1.8313
  667MOL0     H92029   4.626   6.131  10.487 -2.6927 -1.7110 -1.9572
  667MOL0     H92030   2.746   6.477  10.355 -0.7887  1.7377 -1.8981
  667MOL0     H92031   2.583   6.451  10.581 -1.0871  1.1470  0.4184
  667MOL0     H92032   2.074   6.582  10.581 -0.3799  0.4872  0.2592
  667MOL0     H92033   1.892   6.646  10.748  0.8163 -1.8675 -3.8395
  667MOL0     H92034   1.747   6.650  10.922 -0.4146  0.5827  0.5340
  667MOL0     H92035   1.786   6.486  10.983 -0.7594 -0.1498 -1.7171
  667MOL0     H92036   1.700   6.716  11.145 -0.1143  0.0223  2.6612
  667MOL0     H92037   1.771   6.570  11.210 -0.0132  0.6656 -0.0554
  667MOL0     H92038   1.518   6.577  11.035 -0.3003  1.7291  1.1522
  667MOL0     H92039   1.586   6.428  11.109  2.5021  0.3895 -0.5079
  667MOL0     H92040   1.503   6.668  11.281  1.9430 -0.5572  1.8034
  667MOL0     H92041   1.531   6.495  11.330  0.7639 -0.4271 -0.5430
  667MOL0     H92042   1.144   6.434  11.204 -0.1978  0.3564 -0.4002
  667MOL0     H92043   2.172   6.574  11.062 -0.2252 -1.3813 -0.6447
  667MOL0     H92044   2.460   6.510  10.864  1.9516 -1.5840  2.2252
  667MOL0     H92045   2.432   6.659  10.975  0.2919 -0.2372  1.9548
  667MOL0     H92046   2.391   6.499  11.018  4.1089 -0.7517 -0.6584
  668MOL0     O92047   4.019   6.723   6.083  0.4684  0.4043 -0.2084
  668MOL0     C92048   3.939   6.794   6.026 -0.4705  0.9205 -0.1499
  668MOL0     O92049   3.975   6.928   5.992  0.9476 -0.2586  0.1785
  668MOL0     C92050   4.082   6.984   6.052 -0.4399  0.4614 -0.2407
  668MOL0     C92051   4.072   7.067   6.163  0.1574 -0.8493 -0.0885
  668MOL0     C92052   4.181   7.137   6.214 -0.3370 -0.5234 -0.2913
  668MOL0     C92053   4.312   7.107   6.172 -0.2796 -0.1249  0.1481
  668MOL0     O92054   4.409   7.179   6.227 -0.3721  0.6284 -0.2683
  668MOL0     C92055   4.544   7.171   6.171  0.8901 -0.0552  1.2263
  668MOL0     C92056   4.650   7.266   6.223 -0.6274 -0.5851  0.4876
  668MOL0     C92057   4.777   7.271   6.138 -0.7593 -0.5175  0.6375
  668MOL0     C92058   4.781   7.391   6.046 -0.5718 -0.5903 -0.5666
  668MOL0     C92059   4.914   7.443   5.987 -0.3771  0.2111  0.4274
  668MOL0     C92060   4.992   7.532   6.094  0.5808 -0.2142  0.8470
  668MOL0     C92061   5.108   7.602   6.037 -0.4170 -0.2075 -0.2556
  668MOL0     C92062   5.189   7.669   6.154 -0.2797 -0.0276  0.4748
  668MOL0     N92063   5.315   7.735   6.097 -0.4921 -0.0595  0.3357
  668MOL0     C92064   5.436   7.671   6.097 -0.0044 -0.0660  0.3629
  668MOL0     C92065   5.507   7.760   6.031 -0.4975 -0.2083  0.5064
  668MOL0     C92066   5.657   7.737   6.016  0.4476 -0.8403  0.0458
  668MOL0     C92067   5.725   7.833   5.912 -0.2018  0.1783 -0.3144
  668MOL0     C92068   5.874   7.784   5.900  0.8593 -0.1197 -0.3354
  668MOL0     C92069   5.960   7.813   6.028  1.0221 -0.6287 -0.1937
  668MOL0     O92070   6.098   7.785   6.019 -0.5649 -1.0165  0.1267
  668MOL0     C92071   6.184   7.859   6.093 -0.0323 -0.2502 -0.2083
  668MOL0     C92072   6.318   7.845   6.056 -0.2713  0.0822 -0.8589
  668MOL0     C92073   6.420   7.919   6.118  0.5254  0.3762  0.1410
  668MOL0     C92074   6.549   7.899   6.047 -0.1217 -0.2067 -0.4783
  668MOL0     C92075   6.387   7.995   6.234 -0.1739  0.2010  0.4947
  668MOL0     C92076   6.479   8.090   6.287  0.3667 -0.3500 -0.0618
  668MOL0     O92077   6.603   8.106   6.230 -0.5394  0.5699 -0.5119
  668MOL0     C92078   6.696   8.194   6.277 -0.9674 -0.2158  0.1963
  668MOL0     C92079   6.802   8.154   6.365 -0.3088 -0.6726 -0.6749
  668MOL0     C92080   6.885   8.252   6.422  0.6938  0.0811 -0.2134
  668MOL0     C92081   6.867   8.388   6.401  0.2611 -0.2651  1.0257
  668MOL0     O92082   6.954   8.484   6.460 -0.4256  0.4439  0.2206
  668MOL0     C92083   6.941   8.629   6.438 -1.0751  0.5469 -0.3604
  668MOL0     C92084   7.069   8.699   6.503  0.1011 -0.2745  0.8183
  668MOL0     C92085   7.103   8.649   6.646 -0.3164 -1.0905 -0.3230
  668MOL0     C92086   7.230   8.729   6.704  0.0318  0.5846 -0.4007
  668MOL0     C92087   7.285   8.685   6.843  0.6114 -0.3701  0.7356
  668MOL0     C92088   7.374   8.561   6.827  0.5992  0.2659  0.5321
  668MOL0     C92089   7.440   8.544   6.956  0.2858  1.0096 -1.2861
  668MOL0     C92090   7.547   8.422   6.961  0.7428 -0.4529  0.6765
  668MOL0    Cl92091   7.491   8.271   6.897 -0.1506  0.2343 -0.1112
  668MOL0     C92092   6.763   8.429   6.314  0.4592  0.3909  0.1437
  668MOL0     C92093   6.678   8.334   6.253  0.5661  0.6227 -0.6443
  668MOL0     O92094   6.436   8.160   6.375  0.2154 -0.4324  0.5889
  668MOL0     C92095   6.249   8.001   6.276  0.2981 -0.9650 -0.2150
  668MOL0     C92096   6.146   7.940   6.201  0.0929 -0.1403  0.4268
  668MOL0     N92097   5.436   7.872   5.987  0.0804 -0.3058  0.0732
  668MOL0     N92098   5.321   7.847   6.025 -0.9050  0.6961  0.0369
  668MOL0     C92099   4.329   7.014   6.073  1.1692  0.2746 -0.6399
  668MOL0     C92100   4.213   6.951   6.011 -1.4720 -0.1989 -0.4450
  668MOL0     C92101   3.827   6.730   5.943  0.4669 -0.5833  0.5825
  668MOL0     C92102   3.762   6.814   5.850 -0.3687 -0.0428 -0.5758
  668MOL0     C92103   3.659   6.774   5.766 -0.3680  0.3471 -0.2780
  668MOL0     C92104   3.615   6.646   5.776  0.6324  1.0105 -0.1491
  668MOL0     O92105   3.503   6.610   5.694 -0.3488  0.5731  0.4720
  668MOL0     C92106   3.445   6.474   5.696 -0.2354  0.1472 -0.0995
  668MOL0     C92107   3.524   6.366   5.616  0.4134 -0.9982 -0.6741
  668MOL0     C92108   3.462   6.227   5.636  0.3224 -0.2986 -0.2007
  668MOL0     C92109   3.349   6.205   5.527 -0.2705 -0.1575 -0.1146
  668MOL0     C92110   3.215   6.188   5.582 -0.1147  0.3213 -0.7595
  668MOL0     C92111   3.107   6.182   5.637  0.4629  0.9384  0.2801
  668MOL0     C92112   3.681   6.562   5.862  0.0217  0.1318  0.9904
  668MOL0     C92113   3.783   6.600   5.952  0.5013  0.7050 -0.0488
  668MOL0     C92114   3.838   6.489   6.035 -0.1520 -0.4345 -0.5258
  668MOL0     H92115   3.969   7.089   6.191 -0.1397 -0.8546 -1.1363
  668MOL0     H92116   4.169   7.217   6.287 -0.5219 -2.1906  1.6065
  668MOL0     H92117   4.520   7.195   6.067 -1.8007 -3.1544  0.9820
  668MOL0     H92118   4.569   7.064   6.173 -2.1860 -0.9079 -0.1709
  668MOL0     H92119   4.606   7.363   6.243 -3.3394 -1.9861  1.8782
  668MOL0     H92120   4.679   7.227   6.321 -0.2304  0.4226  0.7786
  668MOL0     H92121   4.867   7.271   6.200 -1.3362  3.5047  1.7277
  668MOL0     H92122   4.783   7.182   6.074  2.0972  2.1277 -3.1588
  668MOL0     H92123   4.712   7.366   5.965 -1.7752  0.4288  0.1057
  668MOL0     H92124   4.743   7.478   6.102  0.0825 -0.4954 -0.2640
  668MOL0     H92125   4.903   7.506   5.899  0.9134  1.4225  1.0790
  668MOL0     H92126   4.978   7.360   5.955  0.4370  1.1841 -0.5122
  668MOL0     H92127   4.929   7.614   6.128 -0.7160 -0.4640 -0.8209
  668MOL0     H92128   5.019   7.473   6.182 -1.2822  1.7794  2.8779
  668MOL0     H92129   5.074   7.683   5.972 -0.2293  2.2307  2.4712
  668MOL0     H92130   5.174   7.534   5.983 -1.3135 -0.8092 -0.6154
  668MOL0     H92131   5.120   7.737   6.205 -0.8690  0.5677 -1.0775
  668MOL0     H92132   5.211   7.584   6.220  1.3795 -0.0274 -0.0211
  668MOL0     H92133   5.460   7.569   6.125 -0.0407 -0.9944 -2.5740
  668MOL0     H92134   5.671   7.637   5.975  2.3189 -1.0367  1.0251
  668MOL0     H92135   5.702   7.753   6.115 -2.3394  1.5326  1.0873
  668MOL0     H92136   5.667   7.835   5.819 -0.4269 -1.5480 -0.2363
  668MOL0     H92137   5.732   7.928   5.965  0.2973 -0.4360  0.7483
  668MOL0     H92138   5.883   7.680   5.867  1.8797 -0.1918  0.1236
  668MOL0     H92139   5.911   7.837   5.812  0.6025 -0.7519 -0.8348
  668MOL0     H92140   5.951   7.921   6.043 -0.5500 -0.9505  1.6392
  668MOL0     H92141   5.926   7.755   6.114  2.7464 -0.0909  0.9039
  668MOL0     H92142   6.322   7.783   5.967 -4.8745  0.1882 -1.4129
  668MOL0     H92143   6.593   7.986   5.996  0.6833 -1.3786 -1.8347
  668MOL0     H92144   6.555   7.819   5.973  1.9938 -0.4580 -0.0998
  668MOL0     H92145   6.614   7.878   6.132  0.8944 -1.1364 -1.4535
  668MOL0     H92146   6.821   8.049   6.380 -0.5767 -0.6393 -0.0434
  668MOL0     H92147   6.953   8.216   6.498 -0.5195 -2.5362 -0.2546
  668MOL0     H92148   6.927   8.658   6.334 -1.1845  0.7226 -0.2971
  668MOL0     H92149   6.855   8.664   6.497 -2.0546 -0.6845 -1.0007
  668MOL0     H92150   7.162   8.690   6.447  1.4410  3.6303  2.0865
  668MOL0     H92151   7.049   8.806   6.511  0.5906  0.0522 -1.6397
  668MOL0     H92152   7.125   8.542   6.652  0.7382 -0.8932 -0.5190
  668MOL0     H92153   7.017   8.670   6.711 -1.4019 -4.1175 -0.5895
  668MOL0     H92154   7.175   8.823   6.713 -1.9594 -0.7188  3.7963
  668MOL0     H92155   7.316   8.747   6.639 -0.0986  3.1948  0.0455
  668MOL0     H92156   7.350   8.763   6.885 -0.4539  1.9201 -1.6360
  668MOL0     H92157   7.205   8.668   6.916  0.8852  0.8913  1.3703
  668MOL0     H92158   7.439   8.575   6.739 -1.7209  1.5075 -1.0942
  668MOL0     H92159   7.309   8.477   6.803  0.7075 -0.5892  3.0361
  668MOL0     H92160   7.367   8.519   7.034  2.0437 -0.3478 -0.0007
  668MOL0     H92161   7.495   8.636   6.978  0.8000  0.1835  1.2152
  668MOL0     H92162   7.595   8.419   7.060  0.0976 -0.2336  1.0033
  668MOL0     H92163   7.623   8.456   6.890 -0.3078  0.3242 -0.1039
  668MOL0     H92164   6.746   8.532   6.284  3.8628  1.6320  1.9368
  668MOL0     H92165   6.582   8.362   6.210 -1.7956 -2.0667  2.3797
  668MOL0     H92166   6.216   8.069   6.354 -1.9519 -0.7764 -1.2399
  668MOL0     H92167   6.044   7.963   6.229 -0.8620 -0.7885 -2.2534
  668MOL0     H92168   4.427   6.994   6.030  1.8504  0.0441  0.9253
  668MOL0     H92169   4.231   6.882   5.929 -4.5326 -1.8884  0.1652
  668MOL0     H92170   3.793   6.917   5.839  0.4548  0.0168  1.7945
  668MOL0     H92171   3.621   6.838   5.688 -0.9064 -1.4144 -1.5253
  668MOL0     H92172   3.441   6.436   5.798  0.3338 -0.5339 -0.3203
  668MOL0     H92173   3.340   6.457   5.669 -1.1888 -0.1188  3.3598
  668MOL0     H92174   3.625   6.349   5.654  0.3618 -0.8431 -0.4694
  668MOL0     H92175   3.528   6.397   5.511  0.3845 -1.8610 -0.9377
  668MOL0     H92176   3.540   6.151   5.634 -0.7825 -1.5389  1.2778
  668MOL0     H92177   3.423   6.214   5.737 -0.9932 -4.6648 -1.0500
  668MOL0     H92178   3.372   6.115   5.471 -2.3290 -0.4682 -0.5254
  668MOL0     H92179   3.332   6.286   5.456 -0.8629  0.2053  0.4230
  668MOL0     H92180   3.013   6.188   5.687 -0.1894 -0.4074 -0.6914
  668MOL0     H92181   3.642   6.461   5.859 -3.4904  1.3423 -1.6407
  668MOL0     H92182   3.947   6.495   6.045 -0.2309 -0.6163  0.6274
  668MOL0     H92183   3.797   6.492   6.136  2.0128 -2.2808  0.5108
  668MOL0     H92184   3.816   6.396   5.981 -3.4582  0.4027 -0.8158
  669MOL0     O92185   3.381  10.351   6.146 -0.6365  0.7801 -0.2389
  669MOL0     C92186   3.318  10.352   6.254 -0.3798  0.5054  0.4262
  669MOL0     O92187   3.304  10.245   6.330 -0.3201 -0.3690  0.2641
  669MOL0     C92188   3.332  10.126   6.288  1.3315  0.3062 -0.1753
  669MOL0     C92189   3.229  10.045   6.242 -0.0742 -0.8402  0.6598
  669MOL0     C92190   3.253   9.923   6.184 -0.1884 -0.1945 -0.7139
  669MOL0     C92191   3.384   9.873   6.183  0.5407  0.0221 -0.1515
  669MOL0     O92192   3.417   9.750   6.145 -0.5473 -0.5253  0.6790
  669MOL0     C92193   3.330   9.656   6.074 -0.2825  0.1953  0.1857
  669MOL0     C92194   3.405   9.520   6.057  0.6750  0.4501 -0.1107
  669MOL0     C92195   3.510   9.534   5.953 -0.1421 -0.6306  1.1062
  669MOL0     C92196   3.591   9.405   5.933  0.9197 -0.0934 -0.5699
  669MOL0     C92197   3.717   9.416   5.844  0.1697  0.3003  0.0143
  669MOL0     C92198   3.802   9.287   5.850  0.3716 -0.1595  0.5328
  669MOL0     C92199   3.929   9.303   5.762 -0.3115 -0.3953  0.0971
  669MOL0     C92200   3.891   9.320   5.612 -1.2990 -0.2918 -0.7039
  669MOL0     N92201   4.009   9.311   5.523  0.4323 -0.3926  0.1502
  669MOL0     C92202   4.069   9.418   5.454 -0.8378  0.7872 -0.3362
  669MOL0     C92203   4.152   9.361   5.356  0.5024 -0.3324 -0.5372
  669MOL0     C92204   4.240   9.431   5.264 -0.1284 -0.3218  0.5017
  669MOL0     C92205   4.395   9.444   5.301  0.4401 -0.2569  0.1335
  669MOL0     C92206   4.482   9.316   5.299 -0.2765  0.4474 -0.1002
  669MOL0     C92207   4.615   9.340   5.368  0.3688  0.7117 -0.6878
  669MOL0     O92208   4.614   9.428   5.481 -0.4181 -0.1290 -0.0587
  669MOL0     C92209   4.686   9.399   5.595  0.2184  0.4595  0.1973
  669MOL0     C92210   4.639   9.433   5.726  0.8543  0.1099 -0.0068
  669MOL0     C92211   4.711   9.396   5.838 -0.4474  0.0802 -0.4149
  669MOL0     C92212   4.646   9.414   5.977  0.2304 -0.5483 -0.2835
  669MOL0     C92213   4.841   9.348   5.830  0.4522  0.2068 -0.5616
  669MOL0     C92214   4.941   9.314   5.953 -0.1793 -0.2371 -0.3565
  669MOL0     O92215   5.040   9.230   5.925 -0.4438  0.8767  0.2394
  669MOL0     C92216   5.121   9.176   6.019 -0.4995 -0.3764  1.0081
  669MOL0     C92217   5.254   9.142   5.980  0.2650 -0.1798 -0.0257
  669MOL0     C92218   5.335   9.089   6.076 -0.7203 -0.3900 -0.2818
  669MOL0     C92219   5.299   9.064   6.205  0.1896 -0.3804 -0.0570
  669MOL0     O92220   5.390   9.002   6.282  0.5849  1.1002  0.4123
  669MOL0     C92221   5.350   8.875   6.338 -0.4832  0.0348  1.2871
  669MOL0     C92222   5.472   8.826   6.413 -0.8212 -0.2462 -0.3509
  669MOL0     C92223   5.589   8.796   6.315 -0.0862 -0.5578  0.3947
  669MOL0     C92224   5.710   8.742   6.395 -0.3270  1.1602 -0.2083
  669MOL0     C92225   5.809   8.665   6.312 -0.1267  0.0100 -0.8495
  669MOL0     C92226   5.882   8.755   6.210  1.4659  0.7706  0.1459
  669MOL0     C92227   5.980   8.856   6.248 -0.5922 -0.4574 -0.4030
  669MOL0     C92228   6.088   8.872   6.137  0.0245  0.1528 -0.6009
  669MOL0    Cl92229   6.230   8.939   6.218 -0.2345 -0.2892 -0.3759
  669MOL0     C92230   5.173   9.089   6.242  0.6965  0.7330  0.4034
  669MOL0     C92231   5.080   9.149   6.160 -0.3629 -0.4749  0.3528
  669MOL0     O92232   4.931   9.375   6.061 -0.2673 -0.1895 -0.2050
  669MOL0     C92233   4.894   9.326   5.701 -0.5230  0.7403  0.4105
  669MOL0     C92234   4.814   9.351   5.591 -0.2792  0.6306 -1.3650
  669MOL0     N92235   4.134   9.227   5.370 -0.5088  0.3715  0.4214
  669MOL0     N92236   4.044   9.201   5.453  0.3413  0.3093  0.2829
  669MOL0     C92237   3.485   9.939   6.244  0.1594  0.4691  0.4113
  669MOL0     C92238   3.451  10.066   6.310  0.3678  0.6958  0.3300
  669MOL0     C92239   3.258  10.476   6.304 -0.2773 -0.7713 -0.1770
  669MOL0     C92240   3.126  10.466   6.365 -0.2778  0.2898 -0.1549
  669MOL0     C92241   3.063  10.576   6.404  0.2964  0.3353  0.4790
  669MOL0     C92242   3.118  10.702   6.400 -1.0203  0.2595  0.4679
  669MOL0     O92243   3.036  10.811   6.427 -0.2150 -0.8599 -0.0484
  669MOL0     C92244   3.096  10.936   6.406  0.8585  0.9275  0.3458
  669MOL0     C92245   3.199  10.975   6.514  0.1736  0.4729 -0.4670
  669MOL0     C92246   3.148  10.937   6.649  0.1908  0.1014  0.0187
  669MOL0     C92247   3.205  11.008   6.774 -0.2845  0.3298 -0.5668
  669MOL0     C92248   3.176  11.156   6.775 -0.2591  0.5230  0.0781
  669MOL0     C92249   3.149  11.275   6.768  0.3731  0.0051  0.4363
  669MOL0     C92250   3.237  10.711   6.331  0.0375  0.2960 -0.1532
  669MOL0     C92251   3.319  10.602   6.288  0.1849 -0.6276  0.8026
  669MOL0     C92252   3.453  10.633   6.233 -0.1748 -0.4683  0.4385
  669MOL0     H92253   3.126  10.081   6.239 -0.5788 -2.1935 -2.8682
  669MOL0     H92254   3.168   9.869   6.144  0.5380 -1.2448 -0.8525
  669MOL0     H92255   3.294   9.694   5.979 -2.0698  0.0937  0.7797
  669MOL0     H92256   3.239   9.657   6.136 -0.5824  0.6753 -0.2559
  669MOL0     H92257   3.447   9.493   6.154 -0.4579  0.0322  0.2834
  669MOL0     H92258   3.338   9.437   6.033 -0.2725  0.9674  0.6641
  669MOL0     H92259   3.484   9.567   5.852 -0.7240 -2.4546  0.6163
  669MOL0     H92260   3.587   9.603   5.988  1.2658 -0.2790 -2.3387
  669MOL0     H92261   3.619   9.376   6.035 -0.3244  1.1522  0.1810
  669MOL0     H92262   3.517   9.330   5.903  0.8127 -1.0926  1.8897
  669MOL0     H92263   3.776   9.503   5.875 -1.2583  0.7753  1.5142
  669MOL0     H92264   3.678   9.431   5.744 -0.9553  1.2657  0.5796
  669MOL0     H92265   3.829   9.271   5.954 -3.5424 -2.5694  1.4008
  669MOL0     H92266   3.753   9.194   5.817  0.0365  0.5277 -1.0176
  669MOL0     H92267   3.998   9.219   5.762  1.1828  0.7802  1.1008
  669MOL0     H92268   3.985   9.390   5.797 -1.2008  0.8500 -1.4059
  669MOL0     H92269   3.828   9.232   5.592  1.7441 -2.3784 -1.9017
  669MOL0     H92270   3.839   9.414   5.590 -1.9874  0.7617  4.2448
  669MOL0     H92271   4.068   9.523   5.480  2.5914  0.8789 -0.1460
  669MOL0     H92272   4.193   9.529   5.254  1.1266  0.0781 -2.4454
  669MOL0     H92273   4.240   9.393   5.161  3.8569 -0.2608  0.3347
  669MOL0     H92274   4.440   9.512   5.228 -0.7632  3.0532  2.2207
  669MOL0     H92275   4.405   9.490   5.399 -0.0868 -0.6351  0.3688
  669MOL0     H92276   4.422   9.246   5.359 -3.1176  3.7386  1.2551
  669MOL0     H92277   4.490   9.283   5.195  0.1711  3.5214 -1.1298
  669MOL0     H92278   4.654   9.244   5.404  1.3126  3.0277  5.6720
  669MOL0     H92279   4.684   9.374   5.290  1.3719  1.0098  0.3160
  669MOL0     H92280   4.540   9.475   5.735 -0.0695 -2.3149  2.3605
  669MOL0     H92281   4.691   9.486   6.045 -1.6324 -0.6303  1.1084
  669MOL0     H92282   4.655   9.328   6.044  0.5074 -0.0604  0.3120
  669MOL0     H92283   4.542   9.443   5.963 -0.1244 -2.2187 -1.4684
  669MOL0     H92284   5.291   9.148   5.878  1.5610  1.0254  0.4796
  669MOL0     H92285   5.439   9.072   6.050 -0.8273  0.0676 -1.0247
  669MOL0     H92286   5.266   8.885   6.407 -2.3918  0.2994 -0.9845
  669MOL0     H92287   5.332   8.797   6.264  0.7700  2.8500 -2.2645
  669MOL0     H92288   5.496   8.908   6.481  0.8265 -1.0008  0.0193
  669MOL0     H92289   5.431   8.733   6.452 -0.7924 -1.0438 -2.0973
  669MOL0     H92290   5.622   8.884   6.260  0.3628 -0.0204  1.4887
  669MOL0     H92291   5.562   8.723   6.238  2.2423  0.7252 -1.7607
  669MOL0     H92292   5.679   8.674   6.474  2.2979  0.9052  0.7059
  669MOL0     H92293   5.770   8.816   6.449 -0.2707 -1.6550  4.0387
  669MOL0     H92294   5.889   8.622   6.372  0.0529 -1.0664 -1.8377
  669MOL0     H92295   5.758   8.582   6.262 -0.2747 -0.2899 -0.2019
  669MOL0     H92296   5.799   8.813   6.168 -0.9710 -2.0535  0.6624
  669MOL0     H92297   5.924   8.690   6.133  0.2875 -3.2896  2.6229
  669MOL0     H92298   6.021   8.828   6.345 -0.4732  0.7763 -0.0833
  669MOL0     H92299   5.936   8.955   6.263  0.7528  0.5454 -2.6505
  669MOL0     H92300   6.047   8.931   6.055 -2.5998 -2.0626 -1.0160
  669MOL0     H92301   6.128   8.783   6.087  6.5550  2.7248 -0.8869
  669MOL0     H92302   5.154   9.085   6.349  1.4544 -0.0061  0.5212
  669MOL0     H92303   4.981   9.183   6.191 -0.8681 -1.7035  0.1226
  669MOL0     H92304   4.994   9.286   5.689 -1.5652 -1.9034 -0.3106
  669MOL0     H92305   4.857   9.322   5.495  0.7478 -1.8591 -0.2192
  669MOL0     H92306   3.579   9.892   6.270 -0.9457 -2.3466 -0.3256
  669MOL0     H92307   3.534  10.121   6.354  0.8917  2.3558 -2.4853
  669MOL0     H92308   3.078  10.369   6.360 -3.5998  1.8330 -1.5659
  669MOL0     H92309   2.961  10.561   6.441 -0.7782 -1.0383 -2.7134
  669MOL0     H92310   3.124  10.947   6.301  0.0153  3.2802  0.3039
  669MOL0     H92311   3.022  11.015   6.417  2.4383  2.7046 -1.1526
  669MOL0     H92312   3.213  11.084   6.513 -0.6861  0.5938 -1.2732
  669MOL0     H92313   3.298  10.931   6.497  0.4038  0.6293  0.4087
  669MOL0     H92314   3.039  10.944   6.642 -0.1767 -3.5894 -0.0244
  669MOL0     H92315   3.165  10.830   6.663  1.4349  0.4700  1.6353
  669MOL0     H92316   3.312  10.988   6.772  0.2216  2.7735 -1.4751
  669MOL0     H92317   3.165  10.952   6.859  0.1693 -1.1836 -1.3142
  669MOL0     H92318   3.130  11.380   6.759 -1.5490 -0.3171  0.3685
  669MOL0     H92319   3.284  10.808   6.322 -1.0125  0.6938 -1.6777
  669MOL0     H92320   3.494  10.723   6.279  1.6958 -1.3559  0.5824
  669MOL0     H92321   3.530  10.556   6.245 -0.0898 -0.0774  3.0327
  669MOL0     H92322   3.447  10.669   6.130 -0.7320  0.4532  0.7826
  670MOL0     O92323   3.813   4.738   4.250 -0.2520  0.2847  0.2135
  670MOL0     C92324   3.804   4.626   4.198  0.3259 -0.3308  0.3430
  670MOL0     O92325   3.894   4.529   4.192 -0.2175  0.7722  0.5059
  670MOL0     C92326   4.025   4.552   4.238 -0.8931 -0.2415  0.2948
  670MOL0     C92327   4.086   4.431   4.284  0.6542 -0.7917 -0.3693
  670MOL0     C92328   4.217   4.425   4.330 -0.1725  0.3195 -0.0363
  670MOL0     C92329   4.291   4.542   4.327 -0.6448  1.7387  0.1143
  670MOL0     O92330   4.416   4.549   4.375 -0.2244  0.5970  0.0289
  670MOL0     C92331   4.505   4.441   4.336 -0.3930  0.3593 -0.0147
  670MOL0     C92332   4.646   4.500   4.298 -0.6488  0.2499 -0.8181
  670MOL0     C92333   4.717   4.575   4.417  0.1325  0.1055  0.3395
  670MOL0     C92334   4.857   4.640   4.386  0.5385  0.6846  0.2637
  670MOL0     C92335   4.963   4.527   4.382 -0.7191  0.6584 -0.2888
  670MOL0     C92336   5.096   4.584   4.347  0.1179  0.6182 -0.7748
  670MOL0     C92337   5.189   4.459   4.353 -0.5919  0.5426  0.6444
  670MOL0     C92338   5.326   4.498   4.329 -0.8089  0.1980  0.1304
  670MOL0     N92339   5.412   4.381   4.350 -0.7998  0.3973 -0.1552
  670MOL0     C92340   5.495   4.359   4.461  0.0527 -0.0600  0.4045
  670MOL0     C92341   5.542   4.234   4.446  0.3403  0.6342 -0.1335
  670MOL0     C92342   5.651   4.187   4.531  0.0180 -0.1955  0.4306
  670MOL0     C92343   5.757   4.120   4.435  1.0488  0.1668 -0.4669
  670MOL0     C92344   5.883   4.083   4.506 -0.0286 -0.2393 -0.8292
  670MOL0     C92345   5.989   4.033   4.406 -0.0980  0.1466 -0.8303
  670MOL0     O92346   6.089   3.954   4.469  0.2553  0.1747  0.5390
  670MOL0     C92347   6.202   3.914   4.396  0.1282 -0.5243 -0.4891
  670MOL0     C92348   6.203   3.905   4.258  0.2510  0.1045 -0.5020
  670MOL0     C92349   6.310   3.846   4.192  0.1744  0.7505  0.4587
  670MOL0     C92350   6.286   3.833   4.044  0.0738 -0.0299  0.0820
  670MOL0     C92351   6.414   3.790   4.258  0.0677 -0.3660 -0.0091
  670MOL0     C92352   6.524   3.723   4.192 -0.2812 -0.2901  0.1166
  670MOL0     O92353   6.595   3.636   4.262  0.2665  0.5004 -0.4580
  670MOL0     C92354   6.678   3.548   4.195 -0.0156 -0.0151  0.1917
  670MOL0     C92355   6.805   3.520   4.243 -0.5123 -0.6398  0.4436
  670MOL0     C92356   6.890   3.426   4.185 -0.3103  0.4733  0.4071
  670MOL0     C92357   6.849   3.364   4.070  0.2993 -0.0322  0.3012
  670MOL0     O92358   6.933   3.268   4.014  0.6099 -0.5058  0.2219
  670MOL0     C92359   7.002   3.302   3.891 -0.3204 -0.6571 -0.3307
  670MOL0     C92360   7.135   3.375   3.911  0.1552 -0.5635  0.8386
  670MOL0     C92361   7.211   3.406   3.782 -1.0873 -0.4180 -0.0043
  670MOL0     C92362   7.350   3.476   3.798  0.7847  0.0706  0.1229
  670MOL0     C92363   7.457   3.400   3.730  0.2254  0.3443 -0.9946
  670MOL0     C92364   7.525   3.309   3.832  0.5846 -0.9961 -0.2736
  670MOL0     C92365   7.643   3.246   3.775  0.4136  0.2461  0.3540
  670MOL0     C92366   7.613   3.136   3.669  0.5801  0.8111  0.1844
  670MOL0    Cl92367   7.774   3.053   3.641 -0.4469 -0.2230  0.6514
  670MOL0     C92368   6.723   3.386   4.019  0.0561 -0.5442  0.4140
  670MOL0     C92369   6.637   3.474   4.084  0.1960  0.5997 -1.5105
  670MOL0     O92370   6.556   3.767   4.079 -0.2418  0.7359 -0.3541
  670MOL0     C92371   6.402   3.794   4.396  0.3488  0.0559 -0.8121
  670MOL0     C92372   6.303   3.851   4.467  0.1743  0.2572 -0.9094
  670MOL0     N92373   5.492   4.181   4.329 -0.1155 -0.9915  0.3027
  670MOL0     N92374   5.417   4.271   4.274  0.6111  0.0145  0.1012
  670MOL0     C92375   4.228   4.661   4.309 -0.5116  0.0071 -0.9176
  670MOL0     C92376   4.101   4.668   4.245 -0.0124  0.1868  0.7917
  670MOL0     C92377   3.662   4.593   4.154  0.8346  0.1274  0.1484
  670MOL0     C92378   3.559   4.684   4.157 -0.2453  0.1290  0.0777
  670MOL0     C92379   3.427   4.654   4.132 -0.4406 -0.4814  0.2604
  670MOL0     C92380   3.389   4.529   4.088  0.8862 -0.8028  0.0557
  670MOL0     O92381   3.262   4.493   4.074 -0.1360 -0.2821  0.5721
  670MOL0     C92382   3.152   4.590   4.063  0.1114 -0.5532  0.2764
  670MOL0     C92383   3.054   4.540   3.959  0.6874 -0.2707 -1.2833
  670MOL0     C92384   2.963   4.432   4.002  0.2621  0.2077 -0.2563
  670MOL0     C92385   2.854   4.412   3.899 -0.3118  0.3504  0.3004
  670MOL0     C92386   2.889   4.368   3.762  1.1605  0.2469  0.5305
  670MOL0     C92387   2.910   4.340   3.646 -0.5232  0.1290  1.1194
  670MOL0     C92388   3.485   4.432   4.071  1.2687 -0.1612  0.2960
  670MOL0     C92389   3.623   4.462   4.097 -0.9964  0.0743 -1.3623
  670MOL0     C92390   3.723   4.347   4.079  0.4277 -0.1576  0.3404
  670MOL0     H92391   4.040   4.334   4.297  1.2369 -1.2198 -1.3429
  670MOL0     H92392   4.254   4.326   4.357 -1.8533 -0.7303 -1.3662
  670MOL0     H92393   4.459   4.400   4.246 -1.8798  1.2730  0.2992
  670MOL0     H92394   4.513   4.370   4.419 -2.5375 -1.1329 -1.0142
  670MOL0     H92395   4.718   4.429   4.257  0.4878  1.2201 -0.5610
  670MOL0     H92396   4.631   4.583   4.228 -0.8929  0.5197 -0.4460
  670MOL0     H92397   4.651   4.656   4.449  3.0506  2.8279 -0.0086
  670MOL0     H92398   4.720   4.496   4.492 -0.8647 -2.2219 -1.9529
  670MOL0     H92399   4.850   4.692   4.290 -0.5979 -1.0851 -0.6607
  670MOL0     H92400   4.877   4.719   4.459  1.4171  3.6391 -2.9259
  670MOL0     H92401   4.919   4.451   4.316 -1.4702 -0.0954  1.0255
  670MOL0     H92402   4.968   4.476   4.479  0.1529 -1.8185 -1.5528
  670MOL0     H92403   5.101   4.640   4.253  0.9437 -0.9108 -1.6960
  670MOL0     H92404   5.118   4.657   4.425  0.6390  4.6597 -4.3579
  670MOL0     H92405   5.162   4.384   4.278 -0.6291 -0.2595  1.4396
  670MOL0     H92406   5.176   4.413   4.451  2.0712  0.4945  1.0528
  670MOL0     H92407   5.340   4.543   4.230 -1.1257  2.0424  0.8866
  670MOL0     H92408   5.356   4.565   4.410  2.4853 -2.3363  1.2474
  670MOL0     H92409   5.521   4.431   4.538  1.4629 -0.0581 -0.0563
  670MOL0     H92410   5.606   4.119   4.605 -1.2291  1.2111  1.0101
  670MOL0     H92411   5.691   4.272   4.586 -1.6668  0.9284  0.0259
  670MOL0     H92412   5.715   4.030   4.390  0.2038 -1.7525  3.6637
  670MOL0     H92413   5.781   4.184   4.349  0.3941 -1.7097 -2.1189
  670MOL0     H92414   5.935   4.172   4.542  2.8127 -2.9316  2.4486
  670MOL0     H92415   5.861   4.019   4.592 -0.1557  1.9076  0.8379
  670MOL0     H92416   5.927   3.978   4.335  0.1241 -0.3630 -0.6300
  670MOL0     H92417   6.032   4.120   4.355  0.7392 -0.1135 -0.5805
  670MOL0     H92418   6.115   3.944   4.207 -0.3931  3.6360  2.8080
  670MOL0     H92419   6.327   3.739   4.007  1.5623  0.6521 -0.0524
  670MOL0     H92420   6.345   3.915   4.003  0.0147  0.0118  0.0798
  670MOL0     H92421   6.182   3.854   4.015  0.5049  1.6709 -0.3306
  670MOL0     H92422   6.833   3.571   4.335 -2.4401  1.2708  0.0436
  670MOL0     H92423   6.993   3.409   4.214  0.1139 -1.1209 -1.7858
  670MOL0     H92424   7.009   3.204   3.844 -3.2569 -2.4008  2.4997
  670MOL0     H92425   6.933   3.358   3.827  0.0109 -0.8882 -0.9031
  670MOL0     H92426   7.118   3.469   3.964  4.1413  0.4055  0.6846
  670MOL0     H92427   7.195   3.300   3.963 -2.5589 -3.2527  0.3744
  670MOL0     H92428   7.140   3.470   3.728  0.9894  1.5462 -0.5554
  670MOL0     H92429   7.228   3.308   3.738  0.0865  0.2945 -1.1952
  670MOL0     H92430   7.382   3.502   3.900  4.3208  1.5387 -1.1752
  670MOL0     H92431   7.328   3.572   3.750  1.8829  0.3647  0.1537
  670MOL0     H92432   7.419   3.363   3.634  0.2876 -0.2273 -0.8046
  670MOL0     H92433   7.516   3.489   3.705  2.4610 -0.1442  1.9770
  670MOL0     H92434   7.451   3.232   3.857  2.7191 -2.5270  1.8075
  670MOL0     H92435   7.547   3.356   3.929 -2.6454 -3.7209  2.0426
  670MOL0     H92436   7.685   3.185   3.856 -0.7868  0.1230  0.9067
  670MOL0     H92437   7.720   3.315   3.740  0.5351 -0.7350 -1.4297
  670MOL0     H92438   7.577   3.182   3.577  3.6466 -0.8491 -2.0045
  670MOL0     H92439   7.541   3.066   3.712  1.4840  1.8551  3.7832
  670MOL0     H92440   6.697   3.342   3.923  0.7968  2.7878 -1.4644
  670MOL0     H92441   6.539   3.489   4.041  0.3172  2.3038 -1.2680
  670MOL0     H92442   6.481   3.740   4.448  0.0540 -2.6074 -2.9006
  670MOL0     H92443   6.302   3.847   4.575  0.5312 -0.0648 -0.9165
  670MOL0     H92444   4.283   4.754   4.317  0.0475  0.0014 -3.6584
  670MOL0     H92445   4.074   4.768   4.212 -1.4281  0.3228  2.2040
  670MOL0     H92446   3.574   4.788   4.187 -0.8436 -0.2316  1.7241
  670MOL0     H92447   3.357   4.734   4.155  0.7842  0.4635  0.8260
  670MOL0     H92448   3.107   4.590   4.163  1.5615 -0.6941  0.9543
  670MOL0     H92449   3.183   4.691   4.033  0.5701 -0.8155 -0.1353
  670MOL0     H92450   3.108   4.521   3.866 -1.0303 -1.0637 -2.1624
  670MOL0     H92451   2.992   4.624   3.927  1.1154 -0.5130 -2.8042
  670MOL0     H92452   3.015   4.337   4.014 -0.1212 -0.1600 -1.3146
  670MOL0     H92453   2.926   4.456   4.102  0.3531 -2.0283  0.3850
  670MOL0     H92454   2.804   4.508   3.885 -0.4320  0.4025  1.0752
  670MOL0     H92455   2.782   4.339   3.935 -1.4512  1.6297  0.6765
  670MOL0     H92456   2.949   4.329   3.547  0.2578  2.0694  1.1673
  670MOL0     H92457   3.446   4.342   4.024 -0.5241  1.8141 -2.2376
  670MOL0     H92458   3.673   4.269   4.021  2.4484 -0.9685 -0.4195
  670MOL0     H92459   3.809   4.388   4.025  1.0638  0.1052  1.5200
  670MOL0     H92460   3.764   4.303   4.170 -0.3915 -2.0918 -0.1656
  671MOL0     O92461   0.611   4.941   3.067  0.4882  0.1583  0.2275
  671MOL0     C92462   0.546   4.937   2.961 -0.2287 -0.1419 -0.8710
  671MOL0     O92463   0.576   5.013   2.847 -0.1006 -0.7386 -1.2383
  671MOL0     C92464   0.691   5.079   2.842 -1.5413  0.2713 -0.0372
  671MOL0     C92465   0.818   5.020   2.860  0.0994 -0.5324  0.4932
  671MOL0     C92466   0.934   5.101   2.857  0.1908 -0.2683  0.1158
  671MOL0     C92467   0.929   5.238   2.837 -1.0217  0.0582 -0.9443
  671MOL0     O92468   1.047   5.305   2.841 -0.4045 -0.3219 -0.0482
  671MOL0     C92469   1.053   5.448   2.828  0.5770 -0.7771  0.6065
  671MOL0     C92470   1.198   5.476   2.868 -1.6892 -0.1748 -0.3565
  671MOL0     C92471   1.295   5.501   2.745  0.9481  0.0227  0.4471
  671MOL0     C92472   1.432   5.558   2.791  0.0276 -0.4771  0.0839
  671MOL0     C92473   1.506   5.613   2.667  0.0856  0.3398 -0.4106
  671MOL0     C92474   1.650   5.656   2.688  0.1948 -0.2577  0.4811
  671MOL0     C92475   1.662   5.759   2.795  0.3924  0.2666  0.6503
  671MOL0     C92476   1.790   5.833   2.778  0.6385  0.5564 -0.1672
  671MOL0     N92477   1.810   5.936   2.871  0.4400  0.4134 -0.6187
  671MOL0     C92478   1.826   6.069   2.854 -0.0848 -0.0668  1.2636
  671MOL0     C92479   1.840   6.124   2.977  0.1276 -0.9331 -0.0417
  671MOL0     C92480   1.850   6.271   3.005  0.2298  0.8616 -1.1838
  671MOL0     C92481   1.740   6.308   3.109  0.4821 -0.5846  0.7922
  671MOL0     C92482   1.742   6.452   3.156 -0.9947  0.2779  0.0914
  671MOL0     C92483   1.858   6.485   3.252 -0.2101 -0.5105 -0.1399
  671MOL0     O92484   1.978   6.534   3.193 -0.7823  0.3118  0.0727
  671MOL0     C92485   2.004   6.665   3.171 -0.2935 -0.4156  0.4632
  671MOL0     C92486   2.096   6.693   3.077  0.0530 -0.0184 -0.2405
  671MOL0     C92487   2.127   6.819   3.018 -0.7609 -0.2262  0.6048
  671MOL0     C92488   2.235   6.830   2.921 -0.0959  0.6907 -0.5668
  671MOL0     C92489   2.051   6.928   3.064  0.8355 -0.3900  0.0599
  671MOL0     C92490   2.065   7.063   3.009  0.0429  0.0306  1.0239
  671MOL0     O92491   2.034   7.171   3.087  0.1084 -1.0880 -0.5126
  671MOL0     C92492   2.095   7.297   3.077  0.5750  0.4716 -0.7166
  671MOL0     C92493   2.030   7.414   3.103  0.7547 -0.4417 -0.5358
  671MOL0     C92494   2.104   7.538   3.111  1.0695  0.4428 -0.5328
  671MOL0     C92495   2.235   7.542   3.080  0.8619 -0.2127 -0.2496
  671MOL0     O92496   2.312   7.656   3.090 -0.8741 -0.4543  0.9679
  671MOL0     C92497   2.259   7.789   3.090 -0.2405  0.3098 -0.1212
  671MOL0     C92498   2.360   7.890   3.041  0.3127  1.0717  0.7992
  671MOL0     C92499   2.477   7.910   3.136 -0.0677  0.6763 -1.1187
  671MOL0     C92500   2.573   8.016   3.087 -0.0070 -0.3414 -0.5767
  671MOL0     C92501   2.689   8.038   3.192  0.4008 -0.3472 -0.1719
  671MOL0     C92502   2.771   8.165   3.189 -0.0749  0.4309 -0.3975
  671MOL0     C92503   2.836   8.181   3.062  0.2283 -0.0495 -0.7862
  671MOL0     C92504   2.928   8.303   3.051 -0.1877 -0.3475  0.2823
  671MOL0    Cl92505   2.832   8.451   3.091  0.1271  0.2380  0.3008
  671MOL0     C92506   2.301   7.424   3.060 -1.4597  0.0434 -0.8725
  671MOL0     C92507   2.240   7.300   3.062 -0.1693  0.6147 -0.0849
  671MOL0     O92508   2.090   7.075   2.883 -0.1458  0.7342  0.8723
  671MOL0     C92509   1.953   6.903   3.167  1.1947  0.4491  0.2251
  671MOL0     C92510   1.925   6.770   3.220  0.2497 -0.3599  0.0791
  671MOL0     N92511   1.841   6.023   3.067 -0.1909 -0.0471 -0.1149
  671MOL0     N92512   1.830   5.912   3.005  0.4140  0.0866  0.3643
  671MOL0     C92513   0.803   5.294   2.812  0.3761 -0.0040  0.2563
  671MOL0     C92514   0.684   5.217   2.818 -0.9753  0.1474  1.0314
  671MOL0     C92515   0.419   4.862   2.964  0.9404 -0.1517  0.6111
  671MOL0     C92516   0.407   4.745   3.043  0.0525 -0.2130  1.1041
  671MOL0     C92517   0.289   4.663   3.040 -0.3819  0.3981  0.6102
  671MOL0     C92518   0.176   4.716   2.973 -0.0045  0.6918  1.5526
  671MOL0     O92519   0.060   4.640   2.949  0.0089 -0.3224  0.0556
  671MOL0     C92520   0.029   4.532   3.033 -0.0886  1.2943  0.1344
  671MOL0     C92521  -0.052   4.582   3.150 -0.3238 -0.2362 -0.2652
  671MOL0     C92522  -0.092   4.476   3.257 -0.2354 -0.6852  0.0406
  671MOL0     C92523  -0.140   4.545   3.383 -0.3578  0.2836 -0.1205
  671MOL0     C92524  -0.242   4.462   3.453 -1.0210  0.1845 -0.3764
  671MOL0     C92525  -0.307   4.383   3.518  0.7063 -0.7638  0.5397
  671MOL0     C92526   0.189   4.832   2.898  0.9747 -0.2919 -0.2896
  671MOL0     C92527   0.305   4.905   2.900  0.3487  0.5294  0.4273
  671MOL0     C92528   0.300   5.035   2.817 -0.2350  0.9917  0.0527
  671MOL0     H92529   0.824   4.914   2.880 -0.2855 -0.6790 -0.1311
  671MOL0     H92530   1.028   5.050   2.871 -0.7621 -2.6034 -1.4021
  671MOL0     H92531   0.997   5.493   2.911  1.7965 -0.8006  1.4657
  671MOL0     H92532   1.021   5.481   2.729  1.6989  1.7099  0.9898
  671MOL0     H92533   1.192   5.570   2.924 -1.0077 -1.2703  1.6876
  671MOL0     H92534   1.244   5.398   2.929  0.0096  0.6681 -0.5036
  671MOL0     H92535   1.292   5.409   2.687  0.8049  0.6851 -0.6366
  671MOL0     H92536   1.238   5.579   2.692 -2.1994 -1.5786  1.2086
  671MOL0     H92537   1.416   5.629   2.872  1.5255  1.0988 -0.9177
  671MOL0     H92538   1.499   5.483   2.834  0.6358 -0.9857 -1.6425
  671MOL0     H92539   1.446   5.699   2.635 -1.0370  0.3408  1.5695
  671MOL0     H92540   1.504   5.535   2.591  1.9024 -0.6201  0.4536
  671MOL0     H92541   1.724   5.580   2.711 -0.2605 -1.1470 -0.9005
  671MOL0     H92542   1.688   5.701   2.596 -0.9044 -1.3713 -0.5511
  671MOL0     H92543   1.659   5.716   2.896 -3.4930 -3.0580 -0.6045
  671MOL0     H92544   1.585   5.838   2.792  1.8388  1.6795 -1.1389
  671MOL0     H92545   1.876   5.766   2.775 -0.1327 -0.5148  0.6020
  671MOL0     H92546   1.789   5.879   2.679  0.0119 -0.6249 -0.7197
  671MOL0     H92547   1.831   6.117   2.756  1.3350 -1.8482  0.4110
  671MOL0     H92548   1.834   6.336   2.919 -0.9092  1.4892 -0.5341
  671MOL0     H92549   1.943   6.292   3.058 -0.6501  1.6239  0.1229
  671MOL0     H92550   1.640   6.271   3.083 -0.1857  1.1681  0.7429
  671MOL0     H92551   1.756   6.248   3.199  4.3378  0.4896  1.0012
  671MOL0     H92552   1.734   6.519   3.070 -1.6024 -0.0082 -0.0811
  671MOL0     H92553   1.656   6.474   3.221  2.1813  0.2156  4.8026
  671MOL0     H92554   1.820   6.562   3.320  0.2390  0.2438 -0.7338
  671MOL0     H92555   1.877   6.399   3.317  0.7867 -0.1168  0.1099
  671MOL0     H92556   2.161   6.615   3.038  0.4289  0.8193 -1.3273
  671MOL0     H92557   2.201   6.823   2.817 -0.6130 -0.8948 -0.3193
  671MOL0     H92558   2.311   6.754   2.940 -0.7048  0.0592 -0.6277
  671MOL0     H92559   2.277   6.930   2.937  0.6377  0.4970 -1.2372
  671MOL0     H92560   1.927   7.410   3.137  0.7550  0.1059 -0.4635
  671MOL0     H92561   2.052   7.626   3.144 -1.1916 -1.2116  0.5703
  671MOL0     H92562   2.169   7.789   3.029 -0.1979 -4.4458 -0.5506
  671MOL0     H92563   2.238   7.812   3.195 -0.0239  0.2805 -0.0697
  671MOL0     H92564   2.387   7.866   2.938  3.7216  1.4694  1.4865
  671MOL0     H92565   2.317   7.991   3.032  3.1866  2.2624 -0.9734
  671MOL0     H92566   2.522   7.811   3.133 -1.4159  0.0067 -0.2254
  671MOL0     H92567   2.448   7.926   3.240  0.3049 -0.3017 -0.8552
  671MOL0     H92568   2.519   8.109   3.067  0.7101 -0.1614 -1.7682
  671MOL0     H92569   2.618   7.991   2.990  1.3747 -0.1182 -0.0215
  671MOL0     H92570   2.640   8.027   3.289  2.3070 -0.6477  0.8108
  671MOL0     H92571   2.760   7.957   3.176 -0.2972 -1.2867  1.3497
  671MOL0     H92572   2.853   8.169   3.261  1.3475 -0.3067 -1.9312
  671MOL0     H92573   2.704   8.245   3.221  0.0228  0.7606 -1.0132
  671MOL0     H92574   2.758   8.173   2.985 -0.4776  0.9977 -0.1910
  671MOL0     H92575   2.904   8.096   3.046  2.1143  0.8980  1.6428
  671MOL0     H92576   2.963   8.311   2.947  4.4989  0.7956  1.6925
  671MOL0     H92577   3.019   8.285   3.109 -0.5224  1.1260  1.3141
  671MOL0     H92578   2.406   7.431   3.031 -0.1132  0.7824  3.3485
  671MOL0     H92579   2.289   7.206   3.042 -2.3957 -0.3290 -1.5743
  671MOL0     H92580   1.880   6.971   3.210 -1.3407  0.4921 -3.5960
  671MOL0     H92581   1.857   6.762   3.304  1.8788  3.4092  2.0110
  671MOL0     H92582   0.806   5.399   2.783  0.0059 -0.6472 -2.3301
  671MOL0     H92583   0.587   5.261   2.800  0.1433  1.6681 -2.0335
  671MOL0     H92584   0.488   4.710   3.106 -0.8355 -2.1280  1.2693
  671MOL0     H92585   0.300   4.571   3.098  2.6713  0.3705  0.1718
  671MOL0     H92586  -0.034   4.460   2.979 -1.2371  1.2686  1.4453
  671MOL0     H92587   0.120   4.486   3.072 -0.6580  0.8819  1.0114
  671MOL0     H92588  -0.146   4.617   3.107 -1.3420 -1.5632  0.8337
  671MOL0     H92589  -0.003   4.665   3.203 -2.4000  1.8269 -1.3947
  671MOL0     H92590  -0.168   4.408   3.219 -0.0755 -0.7176 -0.2225
  671MOL0     H92591  -0.001   4.422   3.283 -0.9818 -1.9225  0.1390
  671MOL0     H92592  -0.183   4.644   3.362 -1.8194 -0.6347 -1.7527
  671MOL0     H92593  -0.058   4.565   3.452 -0.6696 -0.8984  0.6097
  671MOL0     H92594  -0.366   4.307   3.567 -0.9372 -1.3166 -2.1391
  671MOL0     H92595   0.103   4.862   2.839  1.3429 -1.6122 -1.5745
  671MOL0     H92596   0.339   5.115   2.880 -0.6805  0.1936  1.3781
  671MOL0     H92597   0.367   5.032   2.731  1.4739 -1.2329  1.3631
  671MOL0     H92598   0.199   5.053   2.778 -0.4043  0.3132  0.1653
  672MOL0     O92599  10.626  10.565   4.650 -0.3010  0.2558  0.9025
  672MOL0     C92600  10.570  10.657   4.586 -0.3911  0.3714 -0.1936
  672MOL0     O92601  10.617  10.698   4.460 -0.0232 -0.3681  0.0455
  672MOL0     C92602  10.733  10.641   4.425 -0.1201 -0.0524  0.0707
  672MOL0     C92603  10.852  10.680   4.481  0.0936  0.7913 -0.1437
  672MOL0     C92604  10.968  10.637   4.418 -1.4912  0.1225 -0.5051
  672MOL0     C92605  10.970  10.543   4.310  0.3918 -0.7222 -0.3590
  672MOL0     O92606  11.087  10.506   4.254  0.1941 -0.4699 -0.2717
  672MOL0     C92607  11.172  10.608   4.216 -0.4302 -0.6638  0.3275
  672MOL0     C92608  11.277  10.545   4.116  0.3968 -1.0386  0.4620
  672MOL0     C92609  11.237  10.587   3.970 -0.4994  0.6377  0.1177
  672MOL0     C92610  11.306  10.494   3.871  0.0418 -0.5162  0.2763
  672MOL0     C92611  11.294  10.531   3.723  0.0025 -0.1529  0.1388
  672MOL0     C92612  11.315  10.678   3.687  0.7259 -0.3890 -0.3309
  672MOL0     C92613  11.459  10.727   3.696 -0.6193 -0.8058  0.6980
  672MOL0     C92614  11.556  10.654   3.601  1.2249 -0.2709 -0.4059
  672MOL0     N92615  11.534  10.674   3.455 -0.3981 -0.8501  0.7365
  672MOL0     C92616  11.505  10.574   3.366 -0.2292 -0.4191 -0.1488
  672MOL0     C92617  11.563  10.613   3.251  0.1592  0.7992  0.4579
  672MOL0     C92618  11.575  10.512   3.128 -0.3904  0.4923 -0.9310
  672MOL0     C92619  11.709  10.449   3.144 -0.0539 -1.1644  0.4451
  672MOL0     C92620  11.714  10.335   3.039 -0.1331  0.4473 -1.4031
  672MOL0     C92621  11.846  10.263   3.052  0.8878  0.1387  0.0063
  672MOL0     O92622  11.950  10.334   2.984  0.7915  0.7587  0.3380
  672MOL0     C92623  12.071  10.267   2.948  0.2982 -0.6597 -0.7479
  672MOL0     C92624  12.081  10.133   2.936  0.1023  0.2350 -0.2228
  672MOL0     C92625  12.199  10.067   2.912 -0.0299  0.2952  0.3100
  672MOL0     C92626  12.180   9.915   2.883 -0.3877 -0.5420  0.9264
  672MOL0     C92627  12.318  10.140   2.896 -0.2200 -1.0259  0.5245
  672MOL0     C92628  12.452  10.077   2.883 -0.3163 -0.4980 -0.3621
  672MOL0     O92629  12.541  10.158   2.814 -0.3150 -0.8259  0.5553
  672MOL0     C92630  12.667  10.118   2.775  0.3769 -0.0995  0.2082
  672MOL0     C92631  12.768  10.203   2.794 -0.1084  0.0917  0.0895
  672MOL0     C92632  12.886  10.182   2.731 -0.3512 -0.6506 -0.1128
  672MOL0     C92633  12.921  10.064   2.661  0.9412  0.5635 -0.6492
  672MOL0     O92634  13.040  10.031   2.601  0.0543  0.3380  0.2676
  672MOL0     C92635  13.149  10.126   2.611 -0.1071  0.0231  0.1831
  672MOL0     C92636  13.260  10.076   2.518  0.1318 -0.6516  0.0385
  672MOL0     C92637  13.362  10.185   2.492  0.5047 -0.9828 -0.3442
  672MOL0     C92638  13.488  10.123   2.426 -0.3176 -0.6722  0.2600
  672MOL0     C92639  13.576  10.238   2.355 -0.0028 -0.2958  0.4690
  672MOL0     C92640  13.664  10.330   2.447 -0.3306 -0.3733 -0.1591
  672MOL0     C92641  13.769  10.251   2.536  0.5057  0.1191 -0.9706
  672MOL0     C92642  13.861  10.157   2.452 -0.2027 -0.1529 -0.3041
  672MOL0    Cl92643  13.964  10.245   2.348 -0.3972  0.4243  0.1750
  672MOL0     C92644  12.821   9.967   2.651  0.0005 -0.1483 -0.2482
  672MOL0     C92645  12.686   9.995   2.706 -0.3596  0.1407  0.6049
  672MOL0     O92646  12.471   9.967   2.929  0.3203 -0.2302 -0.0313
  672MOL0     C92647  12.300  10.289   2.891 -0.3666  0.5935  0.3139
  672MOL0     C92648  12.180  10.345   2.925  0.5180  0.8716  0.9928
  672MOL0     N92649  11.614  10.742   3.268 -1.0059  0.3510  0.2133
  672MOL0     N92650  11.609  10.773   3.395  0.6759 -0.2028 -0.5844
  672MOL0     C92651  10.838  10.501   4.263 -0.1517 -0.4302  0.3089
  672MOL0     C92652  10.722  10.557   4.311  0.0423  0.2195  0.5114
  672MOL0     C92653  10.432  10.684   4.638 -0.2757 -0.6620 -1.2923
  672MOL0     C92654  10.394  10.639   4.770 -0.1568 -0.9968 -0.6956
  672MOL0     C92655  10.262  10.637   4.819 -0.3526  0.0203  0.3358
  672MOL0     C92656  10.162  10.692   4.741  0.5957  0.2401 -0.5462
  672MOL0     O92657  10.028  10.710   4.777 -0.1028  0.2377 -0.3632
  672MOL0     C92658  10.012  10.724   4.917 -0.0694  0.8430 -0.1863
  672MOL0     C92659   9.876  10.787   4.947  0.1921  0.1662  0.5918
  672MOL0     C92660   9.767  10.688   4.988  0.4582 -0.0604 -0.3644
  672MOL0     C92661   9.644  10.759   5.047 -0.7348  0.1201  0.1600
  672MOL0     C92662   9.677  10.848   5.162  0.4134  0.2693 -0.0994
  672MOL0     C92663   9.697  10.936   5.249 -0.8683  0.5241 -0.7415
  672MOL0     C92664  10.190  10.757   4.621 -0.7477 -0.1447  0.4881
  672MOL0     C92665  10.324  10.746   4.570  0.2899  0.0809 -0.3236
  672MOL0     C92666  10.342  10.814   4.438 -0.4247 -0.6054 -0.7500
  672MOL0     H92667  10.843  10.756   4.559 -2.6614  1.4086 -0.9360
  672MOL0     H92668  11.061  10.661   4.469 -0.8217 -1.8627 -0.6956
  672MOL0     H92669  11.231  10.641   4.303  1.2009  0.7057 -1.2147
  672MOL0     H92670  11.116  10.691   4.172  2.4515  2.2308  1.5958
  672MOL0     H92671  11.370  10.598   4.140 -0.1959  1.0421 -1.5305
  672MOL0     H92672  11.285  10.435   4.119  1.6382 -1.2015 -3.4077
  672MOL0     H92673  11.128  10.575   3.966 -0.4032 -0.9099  1.1695
  672MOL0     H92674  11.273  10.690   3.961  0.4574  0.2817 -0.1850
  672MOL0     H92675  11.413  10.506   3.888  0.3953  0.3233 -2.1664
  672MOL0     H92676  11.271  10.391   3.875  1.4853 -1.0797 -0.6829
  672MOL0     H92677  11.188  10.523   3.699 -0.9055  4.5029  1.5982
  672MOL0     H92678  11.356  10.461   3.666 -0.0160 -0.0478 -0.0109
  672MOL0     H92679  11.271  10.695   3.589 -2.5577 -1.1148  0.8815
  672MOL0     H92680  11.259  10.744   3.756  1.9210 -0.2418  0.5281
  672MOL0     H92681  11.496  10.712   3.798  0.5519  1.4177  0.6572
  672MOL0     H92682  11.459  10.835   3.679 -1.7950 -0.8788  0.0883
  672MOL0     H92683  11.654  10.697   3.619  0.6249  0.1906  2.1077
  672MOL0     H92684  11.569  10.549   3.626  3.4853  0.3600  1.4047
  672MOL0     H92685  11.468  10.473   3.381 -1.6611 -0.5572 -3.5908
  672MOL0     H92686  11.569  10.566   3.033  1.3836  0.0138 -1.3535
  672MOL0     H92687  11.495  10.437   3.131 -1.8432  1.9047 -2.1541
  672MOL0     H92688  11.787  10.525   3.133 -1.0381 -0.0740  0.7648
  672MOL0     H92689  11.718  10.405   3.243 -0.5553 -1.6885  0.2615
  672MOL0     H92690  11.629  10.271   3.065 -2.6587  4.0461  0.0212
  672MOL0     H92691  11.707  10.373   2.937 -0.3079  1.7265 -0.9403
  672MOL0     H92692  11.870  10.247   3.158 -2.2051  2.5976  1.2406
  672MOL0     H92693  11.826  10.166   3.005 -3.7355 -0.1995  2.1585
  672MOL0     H92694  12.001  10.065   2.964  0.9080 -0.2463  1.0381
  672MOL0     H92695  12.226   9.889   2.787  1.5205 -0.3637  1.7679
  672MOL0     H92696  12.076   9.881   2.876 -0.9745  1.2315  0.6281
  672MOL0     H92697  12.230   9.848   2.953  0.2559 -0.9323  0.1191
  672MOL0     H92698  12.754  10.304   2.832  2.0697  0.0315  1.2192
  672MOL0     H92699  12.939  10.275   2.750 -2.7136  0.1043  4.0793
  672MOL0     H92700  13.124  10.223   2.568  0.9240  0.3859  0.3670
  672MOL0     H92701  13.185  10.137   2.713  2.3382  0.1195 -0.6210
  672MOL0     H92702  13.309   9.983   2.549 -2.5821 -2.3475 -0.3205
  672MOL0     H92703  13.211  10.060   2.421  0.5603 -1.6126 -0.0359
  672MOL0     H92704  13.391  10.234   2.585  1.4168 -1.5048 -0.3359
  672MOL0     H92705  13.316  10.254   2.420 -1.7089 -2.5368 -0.4891
  672MOL0     H92706  13.459  10.061   2.341 -1.6646  0.2584  0.0126
  672MOL0     H92707  13.550  10.072   2.500  0.5933  1.4736  1.0564
  672MOL0     H92708  13.632  10.187   2.276 -1.5154 -0.2679 -0.6614
  672MOL0     H92709  13.511  10.303   2.296 -1.5006 -2.2232 -0.0892
  672MOL0     H92710  13.600  10.389   2.514  0.5516 -4.1064  4.4670
  672MOL0     H92711  13.724  10.390   2.378  1.8574 -2.0979  0.1553
  672MOL0     H92712  13.724  10.190   2.616  2.0350  0.7563  0.4305
  672MOL0     H92713  13.832  10.320   2.593 -0.9223 -1.3482  2.7063
  672MOL0     H92714  13.806  10.083   2.394  1.4542 -2.9059  1.4382
  672MOL0     H92715  13.925  10.101   2.520 -2.4015 -4.0884 -1.1876
  672MOL0     H92716  12.849   9.883   2.588  2.3550  0.8700 -0.6926
  672MOL0     H92717  12.604   9.924   2.691 -0.6099  0.6706 -0.6749
  672MOL0     H92718  12.381  10.356   2.863 -0.2183  0.5707  0.6831
  672MOL0     H92719  12.169  10.453   2.923 -0.4957  0.7776 -0.7199
  672MOL0     H92720  10.826  10.427   4.184 -1.4326  0.3153 -0.2177
  672MOL0     H92721  10.631  10.526   4.261  0.9613 -1.4952 -0.1920
  672MOL0     H92722  10.461  10.578   4.829 -1.2063 -3.2977 -1.7374
  672MOL0     H92723  10.235  10.587   4.911 -1.2358 -2.6325 -1.2419
  672MOL0     H92724  10.016  10.626   4.966 -2.3867  0.7608 -0.0391
  672MOL0     H92725  10.098  10.781   4.952  0.5754 -0.4502  0.3979
  672MOL0     H92726   9.837  10.835   4.857 -0.1585 -0.5248  0.3643
  672MOL0     H92727   9.883  10.867   5.021 -0.3043 -0.2573  1.0995
  672MOL0     H92728   9.735  10.627   4.902  3.2572 -1.8555 -0.2850
  672MOL0     H92729   9.801  10.616   5.063  4.5007  1.8584 -0.0522
  672MOL0     H92730   9.571  10.686   5.082  0.3455 -0.8017  0.5768
  672MOL0     H92731   9.603  10.820   4.966  0.6288 -0.4597 -1.0091
  672MOL0     H92732   9.721  11.016   5.315  2.5075 -1.3433  0.5412
  672MOL0     H92733  10.111  10.809   4.570  0.1183 -0.7303 -1.5366
  672MOL0     H92734  10.247  10.838   4.391 -2.1751 -1.5447  2.0616
  672MOL0     H92735  10.387  10.911   4.459  2.3458 -2.1274  1.0606
  672MOL0     H92736  10.403  10.752   4.371  0.8032 -0.6177  0.3324
  673MOL0     O92737   5.286   0.288   3.842 -0.3774  0.2386 -0.5789
  673MOL0     C92738   5.178   0.333   3.871  0.0530 -0.7392  0.4745
  673MOL0     O92739   5.144   0.463   3.887 -0.4225  0.6221 -0.2588
  673MOL0     C92740   5.223   0.565   3.856 -0.5778 -0.2261 -0.6830
  673MOL0     C92741   5.227   0.599   3.727  0.2679 -0.9176  1.0394
  673MOL0     C92742   5.313   0.702   3.678  0.3983  0.1612  0.2223
  673MOL0     C92743   5.405   0.762   3.765  0.4252  0.7339  1.3007
  673MOL0     O92744   5.499   0.857   3.727  0.2898  0.1001 -0.1672
  673MOL0     C92745   5.629   0.823   3.767 -0.0459 -0.0988 -0.3444
  673MOL0     C92746   5.706   0.742   3.660  0.3339 -0.3003  0.4899
  673MOL0     C92747   5.853   0.732   3.689 -0.7639  0.0536 -0.5947
  673MOL0     C92748   5.880   0.623   3.788  0.6122  0.2763  0.6509
  673MOL0     C92749   6.007   0.624   3.884  0.7302 -0.2221 -0.2430
  673MOL0     C92750   6.138   0.635   3.800 -0.8269 -0.0845 -0.5825
  673MOL0     C92751   6.269   0.609   3.869 -0.8059  0.5907  0.7037
  673MOL0     C92752   6.301   0.701   3.991  0.3356  0.4727  0.0305
  673MOL0     N92753   6.326   0.837   3.954  0.0686 -0.3332  0.0328
  673MOL0     C92754   6.439   0.874   3.887  0.5894  1.4477  0.7885
  673MOL0     C92755   6.438   1.009   3.877  0.3882  0.2630  0.3320
  673MOL0     C92756   6.550   1.088   3.815  0.2167 -0.1721  0.1525
  673MOL0     C92757   6.578   1.225   3.889  0.1621 -0.1626  0.0034
  673MOL0     C92758   6.716   1.290   3.844  0.3597 -0.1341  0.3453
  673MOL0     C92759   6.835   1.202   3.851  0.4434  0.5060  0.2677
  673MOL0     O92760   6.847   1.131   3.972  0.5917  0.0169  0.4356
  673MOL0     C92761   6.872   1.204   4.088  0.7790 -0.6108  0.1079
  673MOL0     C92762   6.852   1.141   4.204  0.2983  0.3118 -0.8916
  673MOL0     C92763   6.875   1.196   4.336  0.5052  0.0061  0.9919
  673MOL0     C92764   6.849   1.114   4.463  0.0202  0.2291 -0.3936
  673MOL0     C92765   6.927   1.332   4.337 -0.0335  0.1467 -0.1182
  673MOL0     C92766   6.950   1.412   4.457  0.4015 -0.3117 -0.3339
  673MOL0     O92767   6.992   1.545   4.436 -0.0166  0.5588  0.2338
  673MOL0     C92768   7.002   1.624   4.552 -0.6843  0.7040  0.1367
  673MOL0     C92769   7.117   1.613   4.626 -0.1461 -0.0592 -0.9138
  673MOL0     C92770   7.128   1.690   4.745  0.1170 -0.0821  0.7642
  673MOL0     C92771   7.040   1.786   4.779 -0.0148 -0.9001  0.0286
  673MOL0     O92772   7.059   1.878   4.878  0.3048 -0.3397  0.1805
  673MOL0     C92773   7.196   1.930   4.897 -0.7754 -0.0258 -0.9123
  673MOL0     C92774   7.217   2.046   4.804 -0.7772  0.4449 -0.3833
  673MOL0     C92775   7.307   2.019   4.683  0.3369 -0.7789 -0.5598
  673MOL0     C92776   7.443   1.959   4.703 -0.3261  0.3312  0.1523
  673MOL0     C92777   7.546   2.050   4.769 -0.6621  0.4897  0.5246
  673MOL0     C92778   7.687   1.990   4.799 -0.7038  1.4206  0.6514
  673MOL0     C92779   7.797   2.090   4.833 -0.5084 -0.2675  0.3855
  673MOL0     C92780   7.823   2.187   4.721 -0.1757  0.1012 -0.2771
  673MOL0    Cl92781   7.965   2.285   4.764  0.0883  0.1392  0.4445
  673MOL0     C92782   6.922   1.797   4.710 -0.3034  0.2314  0.0280
  673MOL0     C92783   6.890   1.709   4.605 -0.5006  0.4205  0.2506
  673MOL0     O92784   6.948   1.356   4.565 -0.0017 -0.7070 -0.0460
  673MOL0     C92785   6.942   1.401   4.213 -1.1102 -0.3698 -0.0282
  673MOL0     C92786   6.921   1.337   4.091 -0.2687  0.4200  0.0996
  673MOL0     N92787   6.319   1.050   3.940 -0.1985 -0.3169 -0.4464
  673MOL0     N92788   6.258   0.950   3.993  0.2558 -0.3896 -0.7541
  673MOL0     C92789   5.402   0.726   3.900 -0.2935 -0.4734  1.0309
  673MOL0     C92790   5.300   0.631   3.945 -0.0915  0.5096  0.1784
  673MOL0     C92791   5.068   0.233   3.874  0.3604 -0.2478 -0.2188
  673MOL0     C92792   5.097   0.097   3.900 -0.0706 -0.9112  0.5003
  673MOL0     C92793   5.000  -0.004   3.919 -0.4304 -0.5334  0.6099
  673MOL0     C92794   4.873   0.029   3.902  1.8261  0.0380 -0.5311
  673MOL0     O92795   4.780  -0.076   3.927 -0.1260 -0.4626  0.3446
  673MOL0     C92796   4.649  -0.061   3.867  0.5968 -0.2195  0.9081
  673MOL0     C92797   4.575  -0.198   3.857  0.1738  0.0670 -0.2371
  673MOL0     C92798   4.458  -0.165   3.762 -0.3423  0.1519 -0.1881
  673MOL0     C92799   4.354  -0.275   3.767 -0.4669  0.6300  0.0326
  673MOL0     C92800   4.241  -0.242   3.677 -0.1087 -0.1280 -0.6857
  673MOL0     C92801   4.154  -0.229   3.590  0.2561 -0.0913 -1.1842
  673MOL0     C92802   4.837   0.162   3.872 -0.7260 -0.0632  0.6580
  673MOL0     C92803   4.928   0.263   3.865 -0.4218 -0.4066 -0.4144
  673MOL0     C92804   4.874   0.403   3.840  0.1840 -0.3179 -0.4030
  673MOL0     H92805   5.160   0.561   3.651  0.4421  3.6511 -1.7885
  673MOL0     H92806   5.331   0.734   3.576 -1.5741 -0.6546 -0.4259
  673MOL0     H92807   5.634   0.775   3.865  1.9297  3.4437  1.4537
  673MOL0     H92808   5.690   0.914   3.773 -0.4153  0.1310 -0.0740
  673MOL0     H92809   5.660   0.643   3.655  2.7679 -1.5157  0.7538
  673MOL0     H92810   5.696   0.786   3.560  0.0817  0.0639  0.6714
  673MOL0     H92811   5.923   0.712   3.607  0.2609  0.3780  0.1754
  673MOL0     H92812   5.885   0.822   3.743  0.3710  0.0242 -1.1906
  673MOL0     H92813   5.793   0.609   3.853  0.8686 -1.6519  0.6338
  673MOL0     H92814   5.887   0.530   3.732 -1.4309  0.3392  0.2293
  673MOL0     H92815   6.009   0.532   3.943  2.6476  1.3105  2.2796
  673MOL0     H92816   5.991   0.703   3.958 -2.2315 -2.3544  1.6537
  673MOL0     H92817   6.135   0.558   3.722  0.7551  0.8233 -1.6074
  673MOL0     H92818   6.146   0.734   3.755  0.1243  1.1262  2.0179
  673MOL0     H92819   6.348   0.620   3.793  0.5909  1.0220  2.1683
  673MOL0     H92820   6.272   0.502   3.892 -1.0622  0.0792 -1.4203
  673MOL0     H92821   6.216   0.696   4.060 -0.8790  1.1297 -1.3605
  673MOL0     H92822   6.393   0.665   4.038  1.6682  3.4941 -0.0465
  673MOL0     H92823   6.511   0.807   3.841  0.5679  0.5319  2.0423
  673MOL0     H92824   6.518   1.111   3.713  1.0869  1.3916  0.2086
  673MOL0     H92825   6.639   1.025   3.812  0.9298  0.7679  0.8576
  673MOL0     H92826   6.503   1.301   3.862 -0.1215 -0.5573 -0.3403
  673MOL0     H92827   6.561   1.207   3.995  2.4678 -1.6997  0.1687
  673MOL0     H92828   6.707   1.338   3.746 -0.3755  0.6660  0.7983
  673MOL0     H92829   6.732   1.375   3.910 -0.8997  0.7248 -0.4160
  673MOL0     H92830   6.820   1.134   3.766  0.7258  0.9257 -0.1265
  673MOL0     H92831   6.923   1.263   3.830  0.4779  0.1434 -0.7193
  673MOL0     H92832   6.811   1.041   4.198  1.6197 -0.1720 -2.6519
  673MOL0     H92833   6.801   1.020   4.434 -0.5137  0.2007  0.5679
  673MOL0     H92834   6.785   1.175   4.527 -0.1883 -1.8135  1.4794
  673MOL0     H92835   6.945   1.097   4.513  0.4527  2.3124 -0.4479
  673MOL0     H92836   7.197   1.550   4.588  1.5617  0.2811  1.8478
  673MOL0     H92837   7.220   1.684   4.803  0.6449  1.2197  0.1015
  673MOL0     H92838   7.211   1.955   5.002  1.9337  0.7127 -1.3973
  673MOL0     H92839   7.274   1.858   4.871  0.9681  0.3271  2.7509
  673MOL0     H92840   7.120   2.079   4.765 -0.8677 -0.1991 -0.7064
  673MOL0     H92841   7.260   2.126   4.866 -1.4442  0.6199 -0.1384
  673MOL0     H92842   7.318   2.112   4.626  1.5316 -0.5306  0.0570
  673MOL0     H92843   7.254   1.955   4.612 -1.0375  0.2594 -0.5376
  673MOL0     H92844   7.480   1.936   4.603 -1.1369  0.3929 -0.1685
  673MOL0     H92845   7.445   1.866   4.760  1.8307  0.7199  0.7897
  673MOL0     H92846   7.550   2.139   4.705 -0.0930  0.2264  0.1835
  673MOL0     H92847   7.503   2.097   4.858 -1.7987 -0.9546  0.7816
  673MOL0     H92848   7.733   1.930   4.720 -0.2214 -2.1205  3.3289
  673MOL0     H92849   7.678   1.916   4.880  0.4791 -0.5100 -0.8854
  673MOL0     H92850   7.885   2.029   4.857 -0.7648  0.3313  3.1613
  673MOL0     H92851   7.784   2.142   4.928 -3.0203  0.8600 -0.4892
  673MOL0     H92852   7.736   2.253   4.712  1.8469  2.8543 -0.9449
  673MOL0     H92853   7.839   2.140   4.624  1.9012  0.8919 -0.3668
  673MOL0     H92854   6.859   1.880   4.739  0.5127  0.4971  1.1029
  673MOL0     H92855   6.803   1.712   4.541 -0.9148  2.5514  0.8239
  673MOL0     H92856   6.992   1.497   4.215 -2.4369  0.3417  1.1425
  673MOL0     H92857   6.935   1.402   4.006 -2.2425  2.3369  1.1391
  673MOL0     H92858   5.456   0.781   3.977  2.5402  0.7776 -1.6508
  673MOL0     H92859   5.293   0.604   4.050 -4.7540  0.9923  0.1678
  673MOL0     H92860   5.203   0.075   3.897  0.2685  0.6523  0.2343
  673MOL0     H92861   5.033  -0.107   3.932  0.6172 -0.4041 -0.7943
  673MOL0     H92862   4.587   0.000   3.933  0.2472  1.3538 -0.8048
  673MOL0     H92863   4.661  -0.001   3.777  0.3279  0.0873  1.0775
  673MOL0     H92864   4.530  -0.236   3.949 -0.3662  0.6454 -0.2624
  673MOL0     H92865   4.652  -0.267   3.821 -0.0919 -0.4077  0.0935
  673MOL0     H92866   4.406  -0.072   3.787 -2.1520 -1.1034  1.0015
  673MOL0     H92867   4.498  -0.161   3.661  0.0317 -0.6365 -0.0775
  673MOL0     H92868   4.309  -0.276   3.867  1.1581 -1.0557  0.8194
  673MOL0     H92869   4.405  -0.370   3.747  0.3580  1.3970 -1.6275
  673MOL0     H92870   4.072  -0.198   3.528 -2.6987  0.8335  2.8388
  673MOL0     H92871   4.732   0.188   3.870 -0.5320  0.6988 -0.4883
  673MOL0     H92872   4.766   0.402   3.822  0.2659 -0.0764 -0.9456
  673MOL0     H92873   4.900   0.455   3.932  1.1014 -0.3455 -0.6387
  673MOL0     H92874   4.913   0.455   3.752 -1.4609  1.7192  0.0087
  674MOL0     O92875   4.994   1.816   0.646  0.2532  0.5628  0.6168
  674MOL0     C92876   5.023   1.870   0.541 -0.3400  0.5842 -0.0436
  674MOL0     O92877   5.067   1.996   0.534 -0.7070 -0.0222 -0.3437
  674MOL0     C92878   5.099   2.059   0.655  0.3623 -0.0874  0.3813
  674MOL0     C92879   5.219   2.031   0.724 -0.1407  0.3960 -0.6118
  674MOL0     C92880   5.256   2.104   0.835 -1.0342 -0.2388 -0.0238
  674MOL0     C92881   5.164   2.204   0.884 -0.4096 -0.8051 -0.3450
  674MOL0     O92882   5.183   2.282   1.000  1.0374  0.7176 -0.0058
  674MOL0     C92883   5.236   2.215   1.111  0.1359  0.0181  0.2876
  674MOL0     C92884   5.210   2.294   1.240  0.7700 -0.4260 -0.3353
  674MOL0     C92885   5.296   2.415   1.277  0.9336 -0.1603  0.4976
  674MOL0     C92886   5.443   2.391   1.252  0.1067  0.0257 -0.3212
  674MOL0     C92887   5.516   2.521   1.284 -0.1136  0.6507 -0.4845
  674MOL0     C92888   5.664   2.504   1.236 -0.1888  0.4842 -0.3194
  674MOL0     C92889   5.757   2.597   1.309  0.2802 -0.1750  0.1958
  674MOL0     C92890   5.888   2.614   1.233  0.1387  0.5905  0.4864
  674MOL0     N92891   5.993   2.641   1.332  0.5384 -0.6341 -0.3408
  674MOL0     C92892   6.018   2.762   1.379 -0.3945 -0.3176  0.0275
  674MOL0     C92893   6.145   2.743   1.426 -0.5913 -0.1519 -0.1865
  674MOL0     C92894   6.249   2.846   1.455  0.3928  0.4249  0.1267
  674MOL0     C92895   6.191   2.987   1.473  0.1509 -0.8336  0.6376
  674MOL0     C92896   6.301   3.090   1.450  0.8651 -0.0403  0.3374
  674MOL0     C92897   6.333   3.118   1.304  0.4560  0.8893  0.3852
  674MOL0     O92898   6.430   3.232   1.306 -0.1810 -0.0180  0.1786
  674MOL0     C92899   6.566   3.209   1.294 -0.1260  0.0545 -0.2332
  674MOL0     C92900   6.647   3.320   1.268 -0.0562 -0.2779 -0.0394
  674MOL0     C92901   6.788   3.324   1.268 -0.1880  0.5331 -0.3597
  674MOL0     C92902   6.847   3.465   1.255  0.2222 -0.1284 -0.4798
  674MOL0     C92903   6.860   3.198   1.274  0.4815 -0.2494  0.1247
  674MOL0     C92904   7.012   3.183   1.260  0.4661 -1.0751  0.8401
  674MOL0     O92905   7.051   3.055   1.249  1.0088  0.3468 -0.2331
  674MOL0     C92906   7.187   3.032   1.253 -0.5716  0.0089  0.0599
  674MOL0     C92907   7.276   3.024   1.145  0.4880  0.7205 -0.2641
  674MOL0     C92908   7.409   2.985   1.162 -0.4237 -0.2095  0.0506
  674MOL0     C92909   7.453   2.943   1.285 -0.3648 -1.3216 -0.1136
  674MOL0     O92910   7.586   2.896   1.291  0.1872 -0.2563  0.1525
  674MOL0     C92911   7.631   2.850   1.419  0.7778  0.5068 -0.5983
  674MOL0     C92912   7.716   2.938   1.507  0.3291  0.5040 -0.0488
  674MOL0     C92913   7.750   2.879   1.647  0.7088  0.3908  1.5774
  674MOL0     C92914   7.654   2.935   1.753 -0.8139  0.1924 -0.5656
  674MOL0     C92915   7.723   2.917   1.885 -0.8997 -1.0779  0.3631
  674MOL0     C92916   7.638   2.993   1.985  0.3782  0.0883 -0.3270
  674MOL0     C92917   7.654   3.145   1.989  0.3730 -0.2040 -0.1441
  674MOL0     C92918   7.565   3.210   2.096 -0.5863 -0.5189 -0.8358
  674MOL0    Cl92919   7.387   3.209   2.036  0.2692 -0.2526 -0.0329
  674MOL0     C92920   7.375   2.971   1.402  0.6390  0.4632  0.8275
  674MOL0     C92921   7.243   3.003   1.378  0.1113 -0.2630  0.6555
  674MOL0     O92922   7.086   3.287   1.243  0.0209 -0.3451  0.1587
  674MOL0     C92923   6.777   3.090   1.290 -0.1129 -0.1667  0.1931
  674MOL0     C92924   6.633   3.093   1.305 -0.2028  0.0712  0.7733
  674MOL0     N92925   6.179   2.610   1.430 -0.4114 -0.1971  0.0511
  674MOL0     N92926   6.083   2.552   1.367 -0.0741 -0.5485 -0.0761
  674MOL0     C92927   5.042   2.227   0.819 -0.1859  0.0103 -0.4264
  674MOL0     C92928   5.004   2.151   0.711 -0.3570  0.9432  0.1724
  674MOL0     C92929   4.988   1.803   0.416  0.8269  0.6818  0.0605
  674MOL0     C92930   5.038   1.669   0.404  0.2835 -0.3083  0.0443
  674MOL0     C92931   5.016   1.591   0.289  0.3271 -0.3785 -0.1288
  674MOL0     C92932   4.920   1.638   0.198  0.8658 -0.0348  0.2384
  674MOL0     O92933   4.911   1.554   0.088 -0.0618 -0.2402 -0.2830
  674MOL0     C92934   4.810   1.577  -0.013 -0.3136  0.1005 -0.1172
  674MOL0     C92935   4.673   1.565   0.051 -0.2379  1.1882  0.1530
  674MOL0     C92936   4.555   1.564  -0.054 -0.1734 -0.8691  0.5467
  674MOL0     C92937   4.432   1.496  -0.006 -0.5972  0.0184  0.1295
  674MOL0     C92938   4.326   1.502  -0.104  1.0451  0.5446  0.1979
  674MOL0     C92939   4.237   1.518  -0.180 -0.4793  0.0654  0.7297
  674MOL0     C92940   4.861   1.766   0.216  0.1231  0.2688  0.0994
  674MOL0     C92941   4.898   1.854   0.316 -0.0175  0.5538 -0.9362
  674MOL0     C92942   4.836   1.990   0.328  0.2082  0.7187 -0.2915
  674MOL0     H92943   5.301   1.973   0.682 -1.4630 -1.1260 -1.2142
  674MOL0     H92944   5.351   2.088   0.885  1.7249  0.8152 -4.4303
  674MOL0     H92945   5.342   2.192   1.092 -0.3537 -1.9931 -0.3083
  674MOL0     H92946   5.188   2.117   1.117  1.7923 -0.8551  0.0370
  674MOL0     H92947   5.105   2.320   1.255  0.6958  0.6388 -2.3322
  674MOL0     H92948   5.221   2.225   1.324 -2.9872  0.1523  0.8113
  674MOL0     H92949   5.266   2.496   1.210  0.4912  1.7708  2.8690
  674MOL0     H92950   5.275   2.448   1.379  2.8553 -0.2978  0.9795
  674MOL0     H92951   5.482   2.310   1.316 -1.1709  1.0083  1.8046
  674MOL0     H92952   5.455   2.374   1.145 -2.8030  1.1899 -0.9231
  674MOL0     H92953   5.508   2.531   1.393 -0.9405  0.4701 -0.5215
  674MOL0     H92954   5.477   2.613   1.241 -1.8585  0.4065  0.4571
  674MOL0     H92955   5.699   2.400   1.241  0.6035  0.7804  0.7211
  674MOL0     H92956   5.664   2.533   1.131 -0.8461  0.3588 -0.3601
  674MOL0     H92957   5.782   2.560   1.409 -1.0534  0.8209  0.9322
  674MOL0     H92958   5.713   2.697   1.322 -0.5411 -0.7431  2.3164
  674MOL0     H92959   5.917   2.516   1.192 -0.8693 -0.2990  1.8048
  674MOL0     H92960   5.895   2.686   1.151  0.4165 -0.9188 -0.8697
  674MOL0     H92961   5.964   2.855   1.362 -1.9983 -0.7411  2.3867
  674MOL0     H92962   6.327   2.842   1.377  1.8603  0.2521  1.5547
  674MOL0     H92963   6.298   2.825   1.550  0.6954  2.8449  0.5798
  674MOL0     H92964   6.105   3.002   1.408  0.0293  0.8606  1.1476
  674MOL0     H92965   6.157   3.012   1.574 -2.0264 -1.7013  0.1578
  674MOL0     H92966   6.262   3.181   1.496  1.4557  0.8281 -0.8110
  674MOL0     H92967   6.385   3.051   1.508  1.4792 -0.6174 -0.9046
  674MOL0     H92968   6.376   3.030   1.255  1.4178  0.5002  1.8930
  674MOL0     H92969   6.244   3.143   1.244 -0.5842  0.7170  1.8180
  674MOL0     H92970   6.590   3.411   1.256 -1.2604 -1.1190 -0.9776
  674MOL0     H92971   6.896   3.471   1.157 -0.2291 -2.4819 -0.9125
  674MOL0     H92972   6.918   3.485   1.335  1.0235 -0.7971 -1.0113
  674MOL0     H92973   6.763   3.535   1.263  0.2215 -0.3177  2.2457
  674MOL0     H92974   7.238   3.046   1.045 -0.2965  1.2242  0.1317
  674MOL0     H92975   7.480   2.978   1.080 -0.3615 -1.4620  0.1779
  674MOL0     H92976   7.554   2.819   1.490  0.2222  0.1272 -1.3461
  674MOL0     H92977   7.683   2.756   1.398  2.3080  1.0983  0.4322
  674MOL0     H92978   7.804   2.971   1.451  0.0483  3.2491  0.9746
  674MOL0     H92979   7.657   3.030   1.515 -0.0030  0.8770 -4.2678
  674MOL0     H92980   7.851   2.914   1.668 -0.3040  2.4634  3.4661
  674MOL0     H92981   7.753   2.771   1.662  2.5013 -0.3309 -2.6155
  674MOL0     H92982   7.552   2.895   1.753 -1.8868  2.6441 -2.3074
  674MOL0     H92983   7.647   3.043   1.736  0.7186  0.1927 -1.3755
  674MOL0     H92984   7.733   2.815   1.922  2.0386 -0.5861  1.1208
  674MOL0     H92985   7.827   2.949   1.893 -0.4382 -2.1991 -0.7740
  674MOL0     H92986   7.678   2.959   2.081  3.2661 -2.5342 -2.2262
  674MOL0     H92987   7.532   2.968   1.974  0.1429  0.6436  0.5785
  674MOL0     H92988   7.631   3.197   1.895 -1.0918  1.2648  0.9827
  674MOL0     H92989   7.758   3.164   2.018 -0.0564  0.3821  1.0721
  674MOL0     H92990   7.603   3.310   2.117 -2.0394  0.9634 -4.5081
  674MOL0     H92991   7.575   3.152   2.188 -0.4210 -2.7203 -2.1609
  674MOL0     H92992   7.403   2.948   1.505  0.1463 -2.1518  0.4458
  674MOL0     H92993   7.175   3.012   1.462 -1.0119  1.1051 -0.3530
  674MOL0     H92994   6.818   2.989   1.299 -1.0933 -0.6670 -0.6897
  674MOL0     H92995   6.585   2.997   1.324  0.3991  0.0613  2.4498
  674MOL0     H92996   4.967   2.293   0.862  0.7658  0.8592 -0.0247
  674MOL0     H92997   4.909   2.179   0.668 -0.8213  0.9517  1.1603
  674MOL0     H92998   5.109   1.623   0.473  2.4459  1.2494 -1.0018
  674MOL0     H92999   5.069   1.497   0.283  2.6674  0.4332  3.8708
  674MOL0     H93000   4.825   1.677  -0.057  0.4374  0.2391  0.4430
  674MOL0     H93001   4.825   1.505  -0.094 -0.6498  1.6551 -1.6250
  674MOL0     H93002   4.648   1.635   0.131 -2.9104 -1.2072  1.6392
  674MOL0     H93003   4.684   1.470   0.105 -0.9655  0.8750 -0.2302
  674MOL0     H93004   4.521   1.666  -0.074 -0.1012 -0.9362  0.0812
  674MOL0     H93005   4.584   1.515  -0.148  0.1566 -2.3183  1.3648
  674MOL0     H93006   4.402   1.551   0.084  2.9023 -3.0098  3.5246
  674MOL0     H93007   4.448   1.393   0.025  0.1995 -0.4862 -1.8149
  674MOL0     H93008   4.154   1.523  -0.247  0.0269  3.0289  0.1514
  674MOL0     H93009   4.798   1.791   0.132 -1.2044 -0.9299  0.6883
  674MOL0     H93010   4.738   1.992   0.378 -1.2425  1.3120 -2.9588
  674MOL0     H93011   4.897   2.076   0.358  0.8184 -0.1436  0.9826
  674MOL0     H93012   4.809   2.021   0.226 -0.5554 -1.8941 -0.9526
  675MOL0     O93013   5.899   4.127   7.331  0.1349  0.4330  0.1632
  675MOL0     C93014   5.814   4.116   7.237 -0.2364 -0.3577  0.4103
  675MOL0     O93015   5.833   4.145   7.104  0.1682  0.7361  0.3792
  675MOL0     C93016   5.965   4.183   7.079 -0.6728  0.6971  0.2270
  675MOL0     C93017   5.988   4.310   7.024  0.0584 -0.3992  0.0612
  675MOL0     C93018   6.125   4.353   6.999  0.5131  0.2896 -0.6328
  675MOL0     C93019   6.230   4.260   6.998 -0.7458 -0.4452  0.6317
  675MOL0     O93020   6.361   4.298   6.983  0.6740 -0.1672  0.1026
  675MOL0     C93021   6.397   4.434   6.954  0.4928 -0.8628  0.6752
  675MOL0     C93022   6.548   4.431   6.955 -0.8395 -0.3489  0.2585
  675MOL0     C93023   6.614   4.435   7.085 -0.7714 -0.2586  0.0513
  675MOL0     C93024   6.765   4.409   7.089 -0.3510  0.0770  0.1704
  675MOL0     C93025   6.811   4.389   7.239  0.1441  0.0350  0.7868
  675MOL0     C93026   6.962   4.355   7.250  0.1547  0.1271 -0.1581
  675MOL0     C93027   7.051   4.476   7.233 -0.0912  0.0963 -0.1606
  675MOL0     C93028   7.196   4.449   7.267  0.1555  0.2568 -0.3484
  675MOL0     N93029   7.274   4.571   7.268  0.1586 -0.0693  0.6612
  675MOL0     C93030   7.389   4.590   7.190  0.0380  0.0329 -0.3380
  675MOL0     C93031   7.445   4.695   7.242  0.8155 -0.0156 -0.1709
  675MOL0     C93032   7.579   4.735   7.197 -0.8823 -0.3942 -0.1609
  675MOL0     C93033   7.564   4.825   7.072  0.0240  0.0213  0.6595
  675MOL0     C93034   7.485   4.965   7.105 -0.7204 -0.3875  0.6544
  675MOL0     C93035   7.488   5.059   6.993 -0.1366 -0.1387  0.0185
  675MOL0     O93036   7.623   5.086   6.940  0.3722 -0.3403  0.0131
  675MOL0     C93037   7.710   5.176   7.004  0.3548  0.0079  0.3490
  675MOL0     C93038   7.827   5.209   6.938 -0.7931 -0.3428  0.6128
  675MOL0     C93039   7.933   5.293   6.987  1.1025 -0.1153  0.3459
  675MOL0     C93040   8.065   5.286   6.909 -0.0863  0.6932  0.1584
  675MOL0     C93041   7.900   5.357   7.106 -0.8706 -0.0199 -0.2128
  675MOL0     C93042   8.009   5.449   7.159  0.4538 -0.6603 -0.0390
  675MOL0     O93043   8.048   5.546   7.070 -0.3364  0.1597  0.3249
  675MOL0     C93044   8.166   5.608   7.113 -0.6458 -0.5380  0.8496
  675MOL0     C93045   8.295   5.559   7.080  0.7402 -0.0769  0.9307
  675MOL0     C93046   8.410   5.618   7.131 -0.6461 -0.0120 -0.1294
  675MOL0     C93047   8.404   5.736   7.210 -0.0589  0.8752  0.3516
  675MOL0     O93048   8.507   5.786   7.280  0.1841  0.5311  0.3915
  675MOL0     C93049   8.633   5.794   7.206  1.1257 -0.1940 -0.0379
  675MOL0     C93050   8.738   5.840   7.304 -0.6218 -0.3676  0.3938
  675MOL0     C93051   8.878   5.817   7.242 -0.6273  0.3142 -0.3574
  675MOL0     C93052   8.908   5.888   7.109 -0.0634 -0.3953  0.0446
  675MOL0     C93053   9.042   5.842   7.034  0.1094 -0.0426 -0.2769
  675MOL0     C93054   9.164   5.867   7.119 -0.6957 -0.4531  0.1223
  675MOL0     C93055   9.288   5.850   7.042  0.0611  0.1852  0.3521
  675MOL0     C93056   9.407   5.849   7.137  0.2655 -0.2015 -0.2734
  675MOL0    Cl93057   9.550   5.836   7.044  0.1253  0.2056 -0.2302
  675MOL0     C93058   8.273   5.786   7.241 -0.4036  0.2569  0.0698
  675MOL0     C93059   8.158   5.720   7.196 -0.9686 -0.5287  0.7332
  675MOL0     O93060   8.055   5.441   7.273  0.3250  0.9090 -0.0738
  675MOL0     C93061   7.782   5.333   7.172 -0.8183 -1.0999  0.1213
  675MOL0     C93062   7.689   5.248   7.115  0.2579 -0.2522 -1.1728
  675MOL0     N93063   7.376   4.735   7.351 -0.3208 -0.0865 -0.0193
  675MOL0     N93064   7.269   4.671   7.360 -0.7169  0.0226  0.2836
  675MOL0     C93065   6.200   4.132   7.050 -0.2295 -0.7964  0.2297
  675MOL0     C93066   6.071   4.093   7.094  0.0664  0.1989  0.2768
  675MOL0     C93067   5.666   4.078   7.272 -0.8346  1.4692 -0.5147
  675MOL0     C93068   5.597   4.031   7.162  0.3141 -0.4969  0.9607
  675MOL0     C93069   5.463   4.004   7.160  0.1286 -0.8398 -0.3969
  675MOL0     C93070   5.387   4.013   7.279  0.3974 -0.5619  0.0821
  675MOL0     O93071   5.254   3.982   7.278 -0.5281 -0.1242 -0.2060
  675MOL0     C93072   5.219   3.877   7.373 -0.0913  0.8218  0.1457
  675MOL0     C93073   5.080   3.906   7.442  0.2874  1.2147 -0.2568
  675MOL0     C93074   5.083   4.003   7.554 -0.5395 -0.5680 -0.1276
  675MOL0     C93075   5.152   3.945   7.685  0.2730 -0.3878 -0.4066
  675MOL0     C93076   5.246   4.040   7.747  0.3618 -0.0920  0.0665
  675MOL0     C93077   5.325   4.124   7.789 -0.2654 -0.6421 -0.4567
  675MOL0     C93078   5.449   4.068   7.391 -0.5090 -0.1467 -0.0623
  675MOL0     C93079   5.586   4.109   7.382  0.5544  0.2865 -0.0869
  675MOL0     C93080   5.654   4.189   7.497 -0.6859 -0.0198 -0.2193
  675MOL0     H93081   5.914   4.390   7.020 -0.0239 -0.4932 -0.3594
  675MOL0     H93082   6.139   4.455   6.965  0.2782 -0.4398 -3.1583
  675MOL0     H93083   6.361   4.510   7.024 -0.6540  1.0451 -1.8175
  675MOL0     H93084   6.355   4.464   6.857  0.9552  0.3139  0.8228
  675MOL0     H93085   6.585   4.347   6.895 -0.3104 -0.1355  0.2877
  675MOL0     H93086   6.580   4.522   6.904  1.2392 -1.0338  0.2283
  675MOL0     H93087   6.587   4.528   7.135  2.0853  0.2051  0.9173
  675MOL0     H93088   6.568   4.351   7.139  1.0991 -1.4303 -0.0895
  675MOL0     H93089   6.777   4.315   7.036  1.2121  1.9153 -3.0471
  675MOL0     H93090   6.828   4.482   7.038 -1.0037  0.5592  0.0368
  675MOL0     H93091   6.745   4.315   7.284 -2.5267  0.6416 -1.8158
  675MOL0     H93092   6.794   4.486   7.286  0.2093 -0.2500  1.3993
  675MOL0     H93093   6.990   4.328   7.352  1.5995  1.0411 -0.2781
  675MOL0     H93094   6.998   4.275   7.184 -0.0085  0.8889 -1.1930
  675MOL0     H93095   7.019   4.554   7.303  0.8326  1.2858 -1.0328
  675MOL0     H93096   7.037   4.522   7.135 -0.7462  1.4213  0.5301
  675MOL0     H93097   7.210   4.418   7.371 -0.0121 -1.3051 -0.7659
  675MOL0     H93098   7.247   4.380   7.199  1.4360 -0.7239  1.5121
  675MOL0     H93099   7.436   4.533   7.110 -0.4880 -0.9014  0.0080
  675MOL0     H93100   7.639   4.648   7.170 -0.7120 -0.5033  0.5512
  675MOL0     H93101   7.637   4.785   7.275  2.1165 -0.4636 -2.1868
  675MOL0     H93102   7.663   4.855   7.035  0.4578 -1.9704  0.1036
  675MOL0     H93103   7.505   4.773   6.996 -1.4538 -0.5708  2.1540
  675MOL0     H93104   7.379   4.941   7.118 -2.3576  1.9052 -5.2494
  675MOL0     H93105   7.521   5.014   7.196 -1.8562  2.4169 -0.3086
  675MOL0     H93106   7.428   5.009   6.916 -0.9207  1.6965 -0.6125
  675MOL0     H93107   7.433   5.150   7.017  1.2373  0.9938 -1.0086
  675MOL0     H93108   7.843   5.159   6.843 -0.3661 -2.3401  1.6800
  675MOL0     H93109   8.063   5.314   6.803  0.2805 -1.4334 -0.4533
  675MOL0     H93110   8.109   5.187   6.892  0.1206  1.2087 -3.0793
  675MOL0     H93111   8.150   5.347   6.941  2.2855 -1.5235 -1.4945
  675MOL0     H93112   8.299   5.475   7.011 -2.3897 -0.7120  1.3377
  675MOL0     H93113   8.499   5.559   7.116  0.1648  1.0762  0.2497
  675MOL0     H93114   8.661   5.699   7.160  1.8932  1.2911 -2.8294
  675MOL0     H93115   8.624   5.871   7.129 -1.0362 -0.3274 -0.0039
  675MOL0     H93116   8.709   5.945   7.312 -1.6653 -0.5156 -1.0521
  675MOL0     H93117   8.737   5.779   7.395 -1.1576 -3.4232 -1.5309
  675MOL0     H93118   8.893   5.710   7.228  1.2337  0.0642  2.6160
  675MOL0     H93119   8.952   5.851   7.316 -3.6646 -0.2718  3.2902
  675MOL0     H93120   8.914   5.998   7.111  2.1831 -0.4537 -1.0370
  675MOL0     H93121   8.822   5.871   7.043  0.3101 -0.4370 -0.4388
  675MOL0     H93122   9.031   5.736   7.009  0.8526 -0.9381  2.7629
  675MOL0     H93123   9.035   5.895   6.938 -0.1651 -2.2249 -1.5230
  675MOL0     H93124   9.159   5.790   7.196  0.0230 -2.3885 -1.6738
  675MOL0     H93125   9.150   5.969   7.157 -3.3286  0.2850 -2.5051
  675MOL0     H93126   9.295   5.924   6.962  1.2643  0.9122  1.0870
  675MOL0     H93127   9.281   5.750   6.998 -0.2114  0.7518 -0.9149
  675MOL0     H93128   9.392   5.783   7.223 -1.9369  0.4897 -0.0592
  675MOL0     H93129   9.399   5.942   7.193  1.8823  0.4451 -1.0416
  675MOL0     H93130   8.278   5.879   7.296  1.9364 -1.4486  3.0747
  675MOL0     H93131   8.066   5.775   7.210 -1.0264 -0.2797 -0.5063
  675MOL0     H93132   7.769   5.390   7.264 -0.5096 -0.2097 -0.3781
  675MOL0     H93133   7.599   5.248   7.175  0.3940  4.4327 -0.6279
  675MOL0     H93134   6.289   4.070   7.054 -1.1337 -2.1143  0.8992
  675MOL0     H93135   6.063   3.992   7.134 -0.2290 -0.3468 -1.0902
  675MOL0     H93136   5.644   4.019   7.066 -0.7805  2.0797 -0.0102
  675MOL0     H93137   5.408   3.975   7.071 -3.3529  0.9356  0.9716
  675MOL0     H93138   5.226   3.783   7.317  0.1228  1.9474 -1.8001
  675MOL0     H93139   5.294   3.865   7.452 -1.0414 -0.1804  0.9339
  675MOL0     H93140   5.031   3.812   7.468 -0.4293  1.1252 -1.7815
  675MOL0     H93141   5.024   3.943   7.355  1.0481  1.5543 -0.6129
  675MOL0     H93142   5.132   4.099   7.534 -1.4182  0.4077  2.0573
  675MOL0     H93143   4.980   4.031   7.579 -0.2256 -0.0710  0.6479
  675MOL0     H93144   5.200   3.849   7.664 -1.1150 -1.7239  1.9787
  675MOL0     H93145   5.072   3.922   7.756 -2.1577 -0.6713 -3.0507
  675MOL0     H93146   5.389   4.202   7.824 -1.4655 -0.0518  0.4954
  675MOL0     H93147   5.394   4.088   7.482 -0.3811  2.7202 -0.5032
  675MOL0     H93148   5.694   4.285   7.461  1.4263 -1.3825 -1.7402
  675MOL0     H93149   5.575   4.221   7.566 -0.2162 -1.2105  0.9000
  675MOL0     H93150   5.725   4.131   7.556  2.4422  1.2034 -2.4969
  676MOL0     O93151   4.009   5.683   0.520 -0.0907  0.1102  0.6108
  676MOL0     C93152   3.908   5.637   0.567 -0.0838  0.0698  0.1279
  676MOL0     O93153   3.854   5.672   0.690  0.2034  0.2300 -0.0043
  676MOL0     C93154   3.895   5.774   0.772  0.0364  0.1819 -0.3386
  676MOL0     C93155   3.867   5.905   0.744 -0.3056 -0.0344  0.3277
  676MOL0     C93156   3.903   6.011   0.827  0.0650  0.4466  0.3250
  676MOL0     C93157   3.977   5.990   0.949 -0.2204  0.1852  0.8991
  676MOL0     O93158   4.028   6.083   1.035 -0.2726  0.1007 -0.0011
  676MOL0     C93159   3.980   6.216   1.010  0.7270 -0.4359 -0.3478
  676MOL0     C93160   3.996   6.288   1.142  0.0199  0.2246 -0.2514
  676MOL0     C93161   3.960   6.428   1.131 -0.1326 -0.0998  0.4616
  676MOL0     C93162   3.985   6.497   1.262  0.0526  0.1502 -0.4906
  676MOL0     C93163   3.966   6.648   1.279  0.4173  0.0225  0.2585
  676MOL0     C93164   4.046   6.713   1.163  0.1975  0.2528  0.5194
  676MOL0     C93165   4.203   6.701   1.178 -0.1166  0.1113 -0.0896
  676MOL0     C93166   4.270   6.783   1.077 -0.1500  0.3482  0.3993
  676MOL0     N93167   4.406   6.807   1.108  0.2386 -0.0242  0.4108
  676MOL0     C93168   4.503   6.717   1.134 -0.3093 -0.1131  0.4564
  676MOL0     C93169   4.622   6.781   1.123  0.0401  0.2585 -0.2340
  676MOL0     C93170   4.760   6.717   1.128  0.8942  0.5506 -0.0537
  676MOL0     C93171   4.863   6.808   1.179 -0.4594 -0.0324 -1.4101
  676MOL0     C93172   4.853   6.830   1.328 -0.0698 -0.1526  0.2067
  676MOL0     C93173   4.984   6.899   1.384  0.2595  0.1552  0.2148
  676MOL0     O93174   4.978   6.953   1.511  0.5951 -1.0262 -0.5241
  676MOL0     C93175   5.100   6.976   1.571 -0.1471  0.9741  0.6764
  676MOL0     C93176   5.109   6.979   1.717 -0.8263 -0.2821 -0.2959
  676MOL0     C93177   5.235   7.001   1.785 -0.2694 -0.5056  0.2353
  676MOL0     C93178   5.230   7.023   1.937  0.1806  0.9210  0.0229
  676MOL0     C93179   5.359   7.011   1.707 -0.3974 -0.2221 -0.4923
  676MOL0     C93180   5.491   7.012   1.771  0.2504  1.0125 -0.1145
  676MOL0     O93181   5.596   7.047   1.697  0.3352  1.0030  0.0351
  676MOL0     C93182   5.719   7.032   1.747 -0.6169  1.4173  0.6341
  676MOL0     C93183   5.806   6.933   1.693  0.6147  0.4158  0.7006
  676MOL0     C93184   5.932   6.919   1.745 -0.1435 -0.1753 -0.1705
  676MOL0     C93185   5.977   6.983   1.860  0.1947 -0.2925  0.0411
  676MOL0     O93186   6.102   6.948   1.902  0.4869  0.1576 -0.7219
  676MOL0     C93187   6.162   7.015   2.022 -0.3805 -0.5052  1.1761
  676MOL0     C93188   6.313   6.993   2.029 -0.0479  0.3390 -0.2205
  676MOL0     C93189   6.372   7.073   2.149 -0.1564 -0.6217  0.6682
  676MOL0     C93190   6.522   7.068   2.159 -0.1196 -0.0904  0.4853
  676MOL0     C93191   6.571   7.153   2.272  0.1606 -1.0823 -0.3897
  676MOL0     C93192   6.725   7.151   2.271 -0.3778 -0.0296  0.4523
  676MOL0     C93193   6.789   7.250   2.372  0.5886 -0.8407  0.5444
  676MOL0     C93194   6.939   7.236   2.398  0.7312 -0.2916  0.1958
  676MOL0    Cl93195   7.046   7.236   2.248 -0.1611 -0.3440  0.5801
  676MOL0     C93196   5.897   7.088   1.910  0.0907  0.4762 -0.7341
  676MOL0     C93197   5.772   7.111   1.853 -0.9803 -0.0139 -0.3706
  676MOL0     O93198   5.500   6.963   1.885  0.0852  0.1210 -0.1001
  676MOL0     C93199   5.345   6.998   1.570 -0.0906  1.3466  1.0422
  676MOL0     C93200   5.225   6.979   1.498  0.3740 -0.2516 -0.3948
  676MOL0     N93201   4.589   6.915   1.096  0.5336 -0.5398 -0.8613
  676MOL0     N93202   4.456   6.927   1.089  0.4807  0.0387 -0.2094
  676MOL0     C93203   4.000   5.853   0.982  0.3604 -0.6410 -0.1866
  676MOL0     C93204   3.956   5.750   0.903  0.8238 -0.5121  0.9888
  676MOL0     C93205   3.841   5.540   0.483 -0.6764  0.3672  0.3743
  676MOL0     C93206   3.752   5.449   0.542  0.2447  0.4135  0.1704
  676MOL0     C93207   3.689   5.350   0.463 -0.1495  0.7797  0.0273
  676MOL0     C93208   3.732   5.328   0.329  1.3358  0.0090  0.5556
  676MOL0     O93209   3.673   5.212   0.269  0.4046 -0.4210  0.2358
  676MOL0     C93210   3.676   5.202   0.124  0.5624  0.5054  0.8334
  676MOL0     C93211   3.643   5.061   0.080  0.7013  0.7972 -1.5871
  676MOL0     C93212   3.706   5.028  -0.055 -0.1030  0.1513 -0.0443
  676MOL0     C93213   3.632   5.096  -0.169 -0.1677 -0.1610  1.0667
  676MOL0     C93214   3.672   5.233  -0.192 -1.2548  0.7384  0.8389
  676MOL0     C93215   3.718   5.343  -0.219  0.7442 -0.3549 -1.1621
  676MOL0     C93216   3.813   5.425   0.261 -0.7829  0.4451  0.7592
  676MOL0     C93217   3.862   5.529   0.339 -0.4993 -0.1431  0.2685
  676MOL0     C93218   3.945   5.631   0.267  0.1251 -0.2182 -0.7847
  676MOL0     H93219   3.816   5.918   0.650 -1.1340  0.1559  0.7924
  676MOL0     H93220   3.875   6.115   0.811  2.1100  1.0836  0.5433
  676MOL0     H93221   3.873   6.216   0.987  0.8943 -0.0154 -1.1651
  676MOL0     H93222   4.040   6.272   0.938  1.1449 -1.5309 -0.8644
  676MOL0     H93223   3.954   6.233   1.227 -0.1488 -0.2961 -0.6677
  676MOL0     H93224   4.104   6.292   1.160 -0.0357 -2.1968  1.1417
  676MOL0     H93225   4.027   6.461   1.052 -1.1438  0.4029 -0.2016
  676MOL0     H93226   3.859   6.443   1.092  0.0094  0.1356  0.1808
  676MOL0     H93227   3.924   6.445   1.337  1.0605  0.9537  0.9210
  676MOL0     H93228   4.082   6.474   1.305  0.4153 -0.4237 -1.5770
  676MOL0     H93229   4.008   6.693   1.369 -0.9736  2.6279 -0.3080
  676MOL0     H93230   3.860   6.668   1.263  0.7197 -0.5381 -3.3670
  676MOL0     H93231   4.002   6.683   1.068 -1.8775 -2.4728  2.1681
  676MOL0     H93232   4.019   6.819   1.166 -2.1294 -0.2206 -1.0280
  676MOL0     H93233   4.225   6.594   1.171  2.4806  0.4815  1.2106
  676MOL0     H93234   4.229   6.737   1.278 -0.6056  3.1091 -0.9463
  676MOL0     H93235   4.258   6.747   0.975  1.7751  0.3436  0.1387
  676MOL0     H93236   4.226   6.883   1.072  1.1884  1.0423  1.6474
  676MOL0     H93237   4.486   6.610   1.135 -0.9052 -0.0786 -1.5655
  676MOL0     H93238   4.800   6.701   1.028  1.7668  1.6764  0.0911
  676MOL0     H93239   4.746   6.620   1.178  1.5501  0.3750 -0.2067
  676MOL0     H93240   4.962   6.764   1.162  1.3110  3.3389 -0.7080
  676MOL0     H93241   4.864   6.902   1.123 -1.1883  1.5116  0.9572
  676MOL0     H93242   4.764   6.888   1.354  0.2598  0.2790  0.4026
  676MOL0     H93243   4.843   6.729   1.369  0.6822 -0.2098  0.2662
  676MOL0     H93244   5.057   6.822   1.360 -1.1610 -1.5846  1.2610
  676MOL0     H93245   5.009   6.984   1.319  0.2885  0.0749  0.1198
  676MOL0     H93246   5.017   6.987   1.774 -0.6771 -0.0157 -0.0868
  676MOL0     H93247   5.225   6.926   1.988  2.3132  1.0523  0.5822
  676MOL0     H93248   5.144   7.080   1.972 -0.7792 -0.3489 -0.2134
  676MOL0     H93249   5.318   7.079   1.972  1.5052 -0.7102 -0.5417
  676MOL0     H93250   5.771   6.862   1.619  0.7698  0.7221  0.3337
  676MOL0     H93251   5.992   6.840   1.700  0.5703  0.0436  0.3664
  676MOL0     H93252   6.151   7.124   2.019  1.8080 -0.2025  2.2384
  676MOL0     H93253   6.103   6.987   2.109  0.1681  1.5108  2.2750
  676MOL0     H93254   6.340   6.889   2.050 -1.6400 -1.2988 -4.9022
  676MOL0     H93255   6.368   7.025   1.940  0.8146 -2.5641 -0.8246
  676MOL0     H93256   6.323   7.023   2.233  0.2173  0.6266  1.6565
  676MOL0     H93257   6.342   7.178   2.145  0.7471 -0.3356  1.2979
  676MOL0     H93258   6.557   7.092   2.058 -1.2028 -0.1743  0.0693
  676MOL0     H93259   6.554   6.964   2.154 -2.9433 -0.9969 -1.7292
  676MOL0     H93260   6.542   7.255   2.243  2.1670 -0.4020 -0.1897
  676MOL0     H93261   6.530   7.118   2.367  0.1116 -0.3624 -0.1379
  676MOL0     H93262   6.769   7.173   2.173 -0.7411  0.5442  0.4121
  676MOL0     H93263   6.760   7.050   2.295  0.9900  0.4057  0.3646
  676MOL0     H93264   6.740   7.221   2.466 -1.7993  0.2977 -0.2529
  676MOL0     H93265   6.769   7.355   2.348  2.0822 -0.8417 -0.9205
  676MOL0     H93266   6.953   7.143   2.453  2.6723 -1.6910 -2.4321
  676MOL0     H93267   6.972   7.311   2.470  1.6542  0.7772 -1.2840
  676MOL0     H93268   5.931   7.148   1.993 -1.3102  1.5836 -0.9451
  676MOL0     H93269   5.701   7.179   1.900 -3.5242 -3.3886  1.0503
  676MOL0     H93270   5.432   6.991   1.505 -1.3466 -0.1734 -0.5660
  676MOL0     H93271   5.243   6.969   1.391 -0.3019 -0.3788 -0.5023
  676MOL0     H93272   4.048   5.827   1.076 -0.9522 -0.3594  0.6018
  676MOL0     H93273   3.958   5.646   0.935 -0.1985 -1.7781 -2.6347
  676MOL0     H93274   3.732   5.440   0.648  1.5220  1.2491  0.5030
  676MOL0     H93275   3.625   5.283   0.519 -1.0547  1.3703 -0.2875
  676MOL0     H93276   3.608   5.267   0.068 -0.4391 -0.2547  1.1323
  676MOL0     H93277   3.779   5.222   0.093  0.0639  0.3795 -1.0354
  676MOL0     H93278   3.534   5.050   0.074  0.8170 -0.9547 -1.1137
  676MOL0     H93279   3.685   4.993   0.155 -0.7658  2.0268  0.4488
  676MOL0     H93280   3.814   5.040  -0.058 -0.1749  0.7014 -0.7754
  676MOL0     H93281   3.683   4.923  -0.079 -7.2382  1.7789 -3.0930
  676MOL0     H93282   3.525   5.079  -0.149 -0.4919  0.2450 -0.2425
  676MOL0     H93283   3.646   5.051  -0.268 -0.3744  2.1065 -0.0613
  676MOL0     H93284   3.768   5.435  -0.241  0.5886  0.3198  1.1279
  676MOL0     H93285   3.841   5.407   0.158 -1.3392 -1.3610  0.8862
  676MOL0     H93286   3.934   5.628   0.159  1.0555  1.2962 -0.9464
  676MOL0     H93287   3.905   5.729   0.294  3.5732  1.4448 -1.1492
  676MOL0     H93288   4.052   5.614   0.283  0.3397  0.9722 -0.9352
  677MOL0     O93289   7.517   5.265   0.273 -0.3117  0.4196  0.1323
  677MOL0     C93290   7.565   5.335   0.182 -0.6029  0.1306  0.1470
  677MOL0     O93291   7.703   5.345   0.151 -0.3559 -0.7069  0.1618
  677MOL0     C93292   7.787   5.314   0.248 -0.5980  0.0073  0.1807
  677MOL0     C93293   7.829   5.407   0.344 -0.4252  0.2929  1.2032
  677MOL0     C93294   7.904   5.367   0.454 -0.8925 -0.6575 -0.2215
  677MOL0     C93295   7.942   5.235   0.471 -0.1593  0.6776 -0.0731
  677MOL0     O93296   8.011   5.203   0.588  0.3578  0.0916 -0.0061
  677MOL0     C93297   8.112   5.095   0.587  0.1327  0.0905  0.5788
  677MOL0     C93298   8.246   5.169   0.561  0.8943  0.3488  0.6319
  677MOL0     C93299   8.369   5.113   0.631 -0.1020  0.4224  0.3605
  677MOL0     C93300   8.492   5.194   0.596  0.4347  0.0796  0.8071
  677MOL0     C93301   8.618   5.143   0.666  0.0993  0.8797  0.9805
  677MOL0     C93302   8.706   5.059   0.574  0.3188  0.3776 -0.0442
  677MOL0     C93303   8.827   5.016   0.666  0.1486 -0.3030 -0.1708
  677MOL0     C93304   8.929   4.941   0.596 -0.1967  0.2342 -0.6639
  677MOL0     N93305   9.048   4.930   0.683 -0.8694  0.0911 -0.8625
  677MOL0     C93306   9.119   5.026   0.753  0.0185 -0.3467  0.2040
  677MOL0     C93307   9.230   4.960   0.797 -1.0443 -0.4299  0.3702
  677MOL0     C93308   9.338   5.024   0.879  0.0971 -0.7708  0.8033
  677MOL0     C93309   9.379   4.930   0.990 -0.2423  0.3892 -0.1124
  677MOL0     C93310   9.498   4.979   1.076  0.2132  0.1114 -0.3393
  677MOL0     C93311   9.541   4.879   1.179 -0.5792 -0.3238 -0.1673
  677MOL0     O93312   9.681   4.907   1.227  0.5836 -0.3204  0.9811
  677MOL0     C93313   9.706   5.006   1.325 -0.8842  0.2200 -0.4987
  677MOL0     C93314   9.606   5.053   1.404  0.6695 -0.7896  0.2508
  677MOL0     C93315   9.624   5.143   1.506 -0.6433 -0.0251  0.0966
  677MOL0     C93316   9.502   5.185   1.575  0.7623 -0.7708  0.2795
  677MOL0     C93317   9.762   5.185   1.533  0.1390  0.1641  0.2819
  677MOL0     C93318   9.798   5.255   1.652 -0.0108  0.8392 -0.0925
  677MOL0     O93319   9.913   5.210   1.715 -0.3669 -0.2311  0.0962
  677MOL0     C93320   9.931   5.227   1.849 -0.0655 -0.7235  0.1433
  677MOL0     C93321  10.060   5.213   1.903  0.1704 -0.2523 -0.5770
  677MOL0     C93322  10.086   5.223   2.042  0.8141 -0.4207  0.4608
  677MOL0     C93323   9.983   5.242   2.127  1.4296 -0.1288 -0.6738
  677MOL0     O93324  10.015   5.245   2.264  0.4069 -0.1002  0.3928
  677MOL0     C93325   9.922   5.296   2.359  0.7095  0.2127  0.1069
  677MOL0     C93326   9.992   5.304   2.495  0.3750  0.1397 -0.7718
  677MOL0     C93327  10.101   5.208   2.525 -0.5820 -0.3983 -0.7805
  677MOL0     C93328  10.042   5.069   2.552  0.4050  0.3609 -0.2434
  677MOL0     C93329  10.150   4.962   2.577 -0.6942 -0.3260 -0.3650
  677MOL0     C93330  10.183   4.938   2.724 -0.1184  0.6949  0.0088
  677MOL0     C93331  10.297   4.840   2.741 -0.3502 -0.6139  0.7061
  677MOL0     C93332  10.433   4.907   2.714  0.5705 -0.2663  0.0475
  677MOL0    Cl93333  10.565   4.795   2.718 -0.3475  0.2860 -0.0829
  677MOL0     C93334   9.852   5.262   2.078 -0.4671  0.4661 -0.6688
  677MOL0     C93335   9.828   5.247   1.937  0.3028 -0.6388 -0.4382
  677MOL0     O93336   9.736   5.362   1.674 -0.2924  0.4914 -0.6381
  677MOL0     C93337   9.871   5.126   1.459  0.2033  0.2020  0.3036
  677MOL0     C93338   9.839   5.044   1.352 -0.6066 -0.0077 -0.1211
  677MOL0     N93339   9.235   4.833   0.755  0.1564  0.8553  0.5449
  677MOL0     N93340   9.129   4.814   0.688 -0.7682 -0.3411  0.3606
  677MOL0     C93341   7.895   5.138   0.375  0.2233 -0.0412  0.5084
  677MOL0     C93342   7.824   5.177   0.264  0.8991  0.6681 -0.1582
  677MOL0     C93343   7.475   5.397   0.081 -0.2720  0.7219  0.6872
  677MOL0     C93344   7.528   5.459  -0.024 -0.2958  0.4050  1.5440
  677MOL0     C93345   7.447   5.514  -0.127 -0.3353 -0.8759 -0.3196
  677MOL0     C93346   7.311   5.515  -0.109  0.8297  0.6250  1.2068
  677MOL0     O93347   7.222   5.572  -0.205 -0.0851  0.1534 -0.2611
  677MOL0     C93348   7.275   5.652  -0.304 -0.3154 -0.2529  0.3730
  677MOL0     C93349   7.314   5.792  -0.252  1.0795 -0.0067 -0.1950
  677MOL0     C93350   7.191   5.885  -0.229 -0.1885 -0.4061  0.2583
  677MOL0     C93351   7.237   6.027  -0.168 -0.0099 -0.1839  0.2193
  677MOL0     C93352   7.125   6.093  -0.099 -0.5768  0.1509 -0.0013
  677MOL0     C93353   7.040   6.159  -0.047  0.5564 -0.4935 -0.2375
  677MOL0     C93354   7.253   5.451  -0.004  0.3473 -0.8543 -0.2261
  677MOL0     C93355   7.335   5.393   0.092 -0.0127  0.7810 -1.0994
  677MOL0     C93356   7.249   5.337   0.207 -0.0716 -0.1705 -0.3383
  677MOL0     H93357   7.800   5.511   0.339 -0.2338  0.2773 -1.5086
  677MOL0     H93358   7.940   5.440   0.525 -2.4587  1.2973 -1.3450
  677MOL0     H93359   8.094   5.017   0.513  2.1735  0.7962 -0.7485
  677MOL0     H93360   8.106   5.043   0.683 -3.1847 -2.5435 -0.8475
  677MOL0     H93361   8.259   5.167   0.452 -1.0145 -1.6218  0.3552
  677MOL0     H93362   8.233   5.272   0.594 -0.4551  0.0298  1.1467
  677MOL0     H93363   8.353   5.118   0.739  1.7954 -1.0918  0.7673
  677MOL0     H93364   8.389   5.014   0.588 -1.7440  1.4213 -3.1407
  677MOL0     H93365   8.503   5.194   0.488  0.1103  1.6893  0.7555
  677MOL0     H93366   8.478   5.299   0.624  2.5229  0.8717 -0.8585
  677MOL0     H93367   8.596   5.082   0.754 -0.5456 -2.7347 -1.4399
  677MOL0     H93368   8.668   5.235   0.698 -0.4278  2.3045 -1.9191
  677MOL0     H93369   8.651   4.976   0.528 -1.0268  0.0589  1.9935
  677MOL0     H93370   8.748   5.110   0.487  2.2013 -3.0741 -1.3624
  677MOL0     H93371   8.787   4.940   0.735  1.2252 -1.3647 -0.6800
  677MOL0     H93372   8.867   5.103   0.718 -1.1459  1.8772 -2.6150
  677MOL0     H93373   8.904   4.839   0.566  3.4232 -0.1774 -3.0040
  677MOL0     H93374   8.960   4.994   0.505  1.9111 -0.9923 -0.7276
  677MOL0     H93375   9.093   5.129   0.776 -1.5588 -0.7310  0.2596
  677MOL0     H93376   9.302   5.115   0.927 -2.4020  0.4605 -2.9548
  677MOL0     H93377   9.424   5.044   0.814 -0.9227  0.6625 -0.1707
  677MOL0     H93378   9.297   4.905   1.057 -1.1265 -2.6797 -2.1149
  677MOL0     H93379   9.402   4.835   0.941  1.1343  0.0018  1.2044
  677MOL0     H93380   9.577   4.994   1.002  0.3497 -2.1176 -0.7256
  677MOL0     H93381   9.477   5.074   1.126  0.4765  0.0791 -0.1672
  677MOL0     H93382   9.472   4.883   1.264  2.6926  1.0740  2.7069
  677MOL0     H93383   9.544   4.782   1.129 -0.8028 -1.2880  1.5998
  677MOL0     H93384   9.499   5.040   1.387 -0.0602  3.0543  1.0161
  677MOL0     H93385   9.517   5.243   1.666  1.6714 -2.0994  1.0045
  677MOL0     H93386   9.444   5.097   1.604  0.0748 -0.4649 -0.1521
  677MOL0     H93387   9.438   5.227   1.497 -0.7322 -1.9380  0.8286
  677MOL0     H93388  10.145   5.186   1.841 -0.9380 -1.0770 -1.8020
  677MOL0     H93389  10.188   5.219   2.080  0.8213 -1.0462  0.3866
  677MOL0     H93390   9.886   5.393   2.324  1.1670  0.4885  0.3857
  677MOL0     H93391   9.832   5.234   2.365  1.0417 -0.2273  0.7884
  677MOL0     H93392  10.033   5.405   2.504  0.5881 -0.1119  1.9182
  677MOL0     H93393   9.910   5.295   2.567 -0.3337  1.3379 -1.4070
  677MOL0     H93394  10.151   5.240   2.617 -0.5640 -0.2120 -0.8535
  677MOL0     H93395  10.176   5.199   2.446  1.6620  0.7671  1.0845
  677MOL0     H93396   9.987   5.040   2.462 -0.3607 -0.1771  0.3851
  677MOL0     H93397   9.972   5.058   2.635  2.2986 -0.2435  1.3551
  677MOL0     H93398  10.115   4.869   2.531 -2.0858 -0.0409  0.0732
  677MOL0     H93399  10.238   5.002   2.526 -2.1473  2.1535 -1.1058
  677MOL0     H93400  10.095   4.888   2.765  0.7408 -1.2758 -0.4168
  677MOL0     H93401  10.201   5.027   2.785 -1.5155  1.7868 -1.0927
  677MOL0     H93402  10.288   4.753   2.676 -0.4705 -0.3382  0.3463
  677MOL0     H93403  10.298   4.809   2.845  0.3668  0.7484  1.1379
  677MOL0     H93404  10.454   4.993   2.780  0.3111 -1.6322  2.0028
  677MOL0     H93405  10.430   4.935   2.608  1.9349  2.2258  0.5672
  677MOL0     H93406   9.774   5.299   2.144 -1.2935  1.2201 -2.0125
  677MOL0     H93407   9.722   5.237   1.916 -0.0391  0.0383  0.8652
  677MOL0     H93408   9.977   5.142   1.470  0.1105  0.5114  0.8088
  677MOL0     H93409   9.905   4.995   1.283 -0.8853 -0.9525  0.2735
  677MOL0     H93410   7.919   5.033   0.377 -0.8811 -0.2988  1.7226
  677MOL0     H93411   7.781   5.116   0.186  1.6747  0.8963 -0.7718
  677MOL0     H93412   7.634   5.462  -0.046 -0.4545  0.4987  0.7274
  677MOL0     H93413   7.493   5.555  -0.216 -1.1744  0.1530 -0.2917
  677MOL0     H93414   7.364   5.608  -0.350  0.6848  1.1356  0.9227
  677MOL0     H93415   7.191   5.667  -0.373  0.6066 -2.2931 -1.2862
  677MOL0     H93416   7.369   5.851  -0.326 -0.6320 -0.5407 -1.9660
  677MOL0     H93417   7.374   5.794  -0.160  1.1438 -4.4980  0.0762
  677MOL0     H93418   7.146   5.912  -0.324  1.4198 -2.5774 -1.2291
  677MOL0     H93419   7.120   5.830  -0.166 -1.3334 -0.2959 -0.9040
  677MOL0     H93420   7.282   6.090  -0.245  0.2319 -1.4241 -0.6872
  677MOL0     H93421   7.315   6.005  -0.094 -1.6102 -1.7711  1.5104
  677MOL0     H93422   6.959   6.213  -0.003 -0.8972 -1.7478 -1.2522
  677MOL0     H93423   7.148   5.426  -0.004  0.6679 -2.3333  1.2584
  677MOL0     H93424   7.143   5.362   0.208 -0.7399 -2.7480  0.0089
  677MOL0     H93425   7.268   5.231   0.224  0.0755  0.1624  1.9133
  677MOL0     H93426   7.280   5.394   0.296 -0.1632  0.1661 -0.5217
  678MOL0     O93427   0.478   6.849   2.954  0.4558  0.0887 -0.2192
  678MOL0     C93428   0.453   6.738   2.993  0.8193  0.3036 -0.8951
  678MOL0     O93429   0.546   6.631   3.009  0.1752 -0.6085  0.0883
  678MOL0     C93430   0.673   6.658   2.961 -0.4072 -0.6348  0.4693
  678MOL0     C93431   0.780   6.627   3.046  0.9687 -1.2058 -0.0709
  678MOL0     C93432   0.910   6.664   3.005  0.5650 -0.2681 -0.3002
  678MOL0     C93433   0.934   6.731   2.885 -0.4513 -0.6419  0.4415
  678MOL0     O93434   1.052   6.794   2.851 -0.4085  0.2370 -0.4538
  678MOL0     C93435   1.164   6.709   2.880  0.0747  1.0976  0.1223
  678MOL0     C93436   1.276   6.780   2.828  0.3940  0.4663  0.1993
  678MOL0     C93437   1.348   6.860   2.940 -0.7415  0.0864  0.2544
  678MOL0     C93438   1.500   6.908   2.898 -0.5600 -0.9554 -0.4838
  678MOL0     C93439   1.490   7.009   2.785 -0.4634  0.2861  0.7256
  678MOL0     C93440   1.595   6.993   2.675  0.0425  0.0718  0.1802
  678MOL0     C93441   1.734   7.015   2.733  0.1973 -0.1121  0.7671
  678MOL0     C93442   1.829   7.025   2.625  0.3396 -0.1024  0.6977
  678MOL0     N93443   1.825   7.160   2.567  0.6080  0.5161 -0.3620
  678MOL0     C93444   1.932   7.246   2.569 -0.0202 -0.6947  0.2053
  678MOL0     C93445   1.896   7.362   2.518 -0.0877 -0.5785  0.0592
  678MOL0     C93446   1.995   7.470   2.477 -0.6793 -1.1939 -0.4115
  678MOL0     C93447   2.089   7.533   2.591  0.1801 -0.0069  0.8232
  678MOL0     C93448   2.181   7.438   2.660 -0.8982  0.9857  0.1205
  678MOL0     C93449   2.307   7.503   2.700 -0.1549 -0.4802 -0.0610
  678MOL0     O93450   2.374   7.541   2.582 -0.5901  0.1963 -0.0487
  678MOL0     C93451   2.506   7.571   2.591  1.0659 -0.2214 -0.5433
  678MOL0     C93452   2.587   7.560   2.475 -0.3847 -0.0442 -0.1945
  678MOL0     C93453   2.718   7.605   2.481 -0.3366 -0.1397 -0.5722
  678MOL0     C93454   2.792   7.620   2.352 -0.6328 -0.1230 -0.1810
  678MOL0     C93455   2.777   7.644   2.609 -0.7472  0.0111  0.6599
  678MOL0     C93456   2.918   7.695   2.618 -0.5682  0.0362 -0.3243
  678MOL0     O93457   3.006   7.679   2.521  0.8097 -0.3802 -0.1793
  678MOL0     C93458   3.125   7.748   2.524  0.7477  0.1382 -0.0937
  678MOL0     C93459   3.243   7.677   2.562 -0.6796  0.6771 -0.5061
  678MOL0     C93460   3.365   7.743   2.580 -0.1294  0.3213  0.6784
  678MOL0     C93461   3.382   7.879   2.550 -0.4059 -0.2243  0.2450
  678MOL0     O93462   3.504   7.945   2.579 -0.3800  0.4050  0.1514
  678MOL0     C93463   3.523   8.075   2.522 -0.1039 -0.7211  0.3031
  678MOL0     C93464   3.667   8.108   2.514  0.7547  0.5762  0.3393
  678MOL0     C93465   3.745   8.104   2.648  0.3185 -0.8068  0.2993
  678MOL0     C93466   3.876   8.168   2.606  0.1729 -0.5298 -0.6975
  678MOL0     C93467   3.961   8.158   2.733 -0.1582 -0.6911 -0.8528
  678MOL0     C93468   4.108   8.194   2.714  0.0272 -0.5324 -0.2330
  678MOL0     C93469   4.182   8.187   2.853 -0.7749 -0.7847 -0.3323
  678MOL0     C93470   4.278   8.309   2.868  0.0129  0.1639 -0.2976
  678MOL0    Cl93471   4.440   8.261   2.788 -0.1057 -0.5650  0.4045
  678MOL0     C93472   3.267   7.946   2.499  0.3071  0.0157 -0.3423
  678MOL0     C93473   3.137   7.880   2.493  0.2303 -0.4552  0.1092
  678MOL0     O93474   2.939   7.754   2.722 -0.7286 -0.2900  0.3124
  678MOL0     C93475   2.697   7.641   2.719  0.3758  0.7217 -0.1836
  678MOL0     C93476   2.565   7.606   2.714  0.0394 -0.6950 -0.3730
  678MOL0     N93477   1.764   7.349   2.488 -0.3474 -0.7400 -0.7001
  678MOL0     N93478   1.718   7.225   2.509 -0.0457 -0.0519  0.1917
  678MOL0     C93479   0.825   6.752   2.796  0.0905 -0.1089  0.3471
  678MOL0     C93480   0.700   6.714   2.832  0.0078 -0.0262 -1.0674
  678MOL0     C93481   0.314   6.711   3.028 -0.4050 -0.5224 -0.2849
  678MOL0     C93482   0.283   6.582   3.065 -0.1772 -0.1099 -0.5133
  678MOL0     C93483   0.149   6.553   3.111 -0.2808 -0.6096 -0.7688
  678MOL0     C93484   0.047   6.647   3.112  0.8779  0.5026 -0.1855
  678MOL0     O93485  -0.076   6.597   3.147  0.4212  0.5561  0.0863
  678MOL0     C93486  -0.165   6.693   3.202 -0.6978  0.3402  0.0312
  678MOL0     C93487  -0.309   6.624   3.212 -0.8132  0.1458 -0.0260
  678MOL0     C93488  -0.408   6.715   3.286 -0.1324  0.1131  0.1289
  678MOL0     C93489  -0.555   6.685   3.239 -0.0657 -0.6140 -0.9768
  678MOL0     C93490  -0.653   6.771   3.314  0.2817 -0.1223  0.2477
  678MOL0     C93491  -0.745   6.831   3.371  0.4700 -0.6142  0.2202
  678MOL0     C93492   0.084   6.781   3.070 -0.8259 -0.6782  0.6401
  678MOL0     C93493   0.210   6.813   3.034 -0.3005  0.5032  0.1010
  678MOL0     C93494   0.217   6.962   2.997  0.4422  0.1172 -0.5845
  678MOL0     H93495   0.764   6.570   3.137 -1.7663 -1.0026 -0.3273
  678MOL0     H93496   0.992   6.633   3.069 -0.8413  1.7181  2.6855
  678MOL0     H93497   1.156   6.617   2.823 -2.2445 -0.6999  3.0339
  678MOL0     H93498   1.179   6.679   2.984 -1.1168  1.6129  0.4562
  678MOL0     H93499   1.338   6.701   2.785 -0.9325  0.2877 -1.5014
  678MOL0     H93500   1.243   6.838   2.742 -0.3912 -1.0762 -0.5947
  678MOL0     H93501   1.286   6.950   2.950 -1.6611 -0.4168 -0.7237
  678MOL0     H93502   1.359   6.794   3.027 -1.7225 -1.3251 -0.6489
  678MOL0     H93503   1.554   6.951   2.983 -0.3329 -1.0204 -0.5947
  678MOL0     H93504   1.565   6.822   2.878 -0.3087 -1.6621  2.7311
  678MOL0     H93505   1.490   7.108   2.831  1.3732  0.2681  0.8219
  678MOL0     H93506   1.391   7.005   2.739  0.4202  2.9406 -1.6805
  678MOL0     H93507   1.580   6.892   2.635 -2.5819 -0.1748  1.5976
  678MOL0     H93508   1.570   7.064   2.595 -0.6755  0.9877  1.1865
  678MOL0     H93509   1.767   6.927   2.789  0.3643  0.0912  0.9902
  678MOL0     H93510   1.744   7.108   2.790  0.7720  0.8864 -0.8807
  678MOL0     H93511   1.934   7.006   2.647  0.6401  3.0526  2.6345
  678MOL0     H93512   1.804   6.961   2.541  3.2120  0.6132 -0.8373
  678MOL0     H93513   2.032   7.228   2.607  0.4601 -0.3281 -0.8480
  678MOL0     H93514   1.943   7.554   2.431  0.6609 -0.8645 -1.4000
  678MOL0     H93515   2.059   7.433   2.396  0.6138  0.9590 -0.4484
  678MOL0     H93516   2.139   7.621   2.549 -1.6328  0.6438 -0.1215
  678MOL0     H93517   2.024   7.577   2.668 -1.2868  0.1385 -0.4434
  678MOL0     H93518   2.144   7.377   2.743  3.4815 -2.6505 -0.1852
  678MOL0     H93519   2.214   7.360   2.591 -2.3299  0.2722  0.2030
  678MOL0     H93520   2.278   7.590   2.760  1.8226 -1.6890  2.8475
  678MOL0     H93521   2.361   7.440   2.771  0.3850 -0.1739 -0.1923
  678MOL0     H93522   2.542   7.519   2.385  0.9949 -0.8683 -0.5507
  678MOL0     H93523   2.871   7.546   2.341 -0.1088  0.4760 -0.4853
  678MOL0     H93524   2.834   7.719   2.335  2.3239 -1.3649 -0.6345
  678MOL0     H93525   2.732   7.601   2.262 -0.9594  0.9558 -0.2069
  678MOL0     H93526   3.234   7.570   2.571 -1.3824  0.4557 -3.1693
  678MOL0     H93527   3.442   7.676   2.615  0.7677 -0.4571 -2.5407
  678MOL0     H93528   3.484   8.096   2.422  0.9026 -0.5052 -0.0570
  678MOL0     H93529   3.468   8.154   2.575  2.0684  0.7118  0.5663
  678MOL0     H93530   3.718   8.027   2.462 -0.4518  0.8286 -1.3035
  678MOL0     H93531   3.688   8.200   2.458  0.6549  1.9212  2.4013
  678MOL0     H93532   3.759   7.998   2.668 -2.3583 -2.3182 -4.2513
  678MOL0     H93533   3.699   8.163   2.728  1.3168 -1.3951  1.3363
  678MOL0     H93534   3.865   8.270   2.569  0.2367 -0.1208  0.3539
  678MOL0     H93535   3.925   8.111   2.527  2.7374  1.1347 -0.4398
  678MOL0     H93536   3.920   8.218   2.814 -0.5480 -2.2565  0.1511
  678MOL0     H93537   3.960   8.054   2.768 -2.8323 -0.3089  0.5288
  678MOL0     H93538   4.116   8.291   2.664 -3.4444 -0.0725 -0.1866
  678MOL0     H93539   4.148   8.110   2.657 -1.1414 -0.9091 -0.5257
  678MOL0     H93540   4.246   8.100   2.866  0.5359  0.2604  0.5633
  678MOL0     H93541   4.103   8.183   2.929  0.0039 -1.8884  0.4563
  678MOL0     H93542   4.298   8.332   2.973  1.4721  0.4967 -0.6272
  678MOL0     H93543   4.233   8.400   2.829  0.4404 -0.0777 -1.3800
  678MOL0     H93544   3.278   8.050   2.473 -1.4105 -0.3433 -2.9020
  678MOL0     H93545   3.051   7.935   2.457 -1.4304 -1.6141  2.0594
  678MOL0     H93546   2.742   7.638   2.818 -0.8937 -0.2804  0.4021
  678MOL0     H93547   2.504   7.609   2.805 -0.8121  1.0044 -0.9492
  678MOL0     H93548   0.834   6.807   2.703  1.4525  0.5200  0.8142
  678MOL0     H93549   0.619   6.741   2.766 -1.4266  1.4601  1.1667
  678MOL0     H93550   0.365   6.510   3.062  1.6739  1.9147 -1.6691
  678MOL0     H93551   0.122   6.452   3.140 -1.0815  0.4044  2.4881
  678MOL0     H93552  -0.134   6.708   3.306  0.7336 -1.7537 -0.0183
  678MOL0     H93553  -0.165   6.789   3.151 -1.7004  0.3837  0.0973
  678MOL0     H93554  -0.294   6.527   3.260 -2.8737 -0.3705 -0.3394
  678MOL0     H93555  -0.345   6.607   3.110  0.1800 -0.1385 -0.3390
  678MOL0     H93556  -0.396   6.696   3.393  0.6193 -0.5971 -0.0683
  678MOL0     H93557  -0.382   6.819   3.263  0.5425  0.2772  1.5262
  678MOL0     H93558  -0.579   6.583   3.270  0.0631 -0.5240 -0.5750
  678MOL0     H93559  -0.569   6.691   3.130 -2.4826 -2.4667 -0.8624
  678MOL0     H93560  -0.818   6.894   3.419  1.2940 -0.2307  0.9992
  678MOL0     H93561   0.016   6.865   3.062  0.3893  0.2049 -0.8816
  678MOL0     H93562   0.301   7.013   3.046 -2.0444  2.9010  1.1052
  678MOL0     H93563   0.223   6.975   2.889  0.6264  3.6455 -0.2620
  678MOL0     H93564   0.134   7.024   3.033  0.4645 -1.9009  3.4646
  679MOL0     O93565   5.859   6.269   2.407 -0.4403 -0.1998  0.4966
  679MOL0     C93566   5.806   6.375   2.408 -0.1327 -0.4266  0.8385
  679MOL0     O93567   5.820   6.475   2.506  0.1884 -0.6797  0.0235
  679MOL0     C93568   5.916   6.455   2.603 -0.1979 -0.6263 -0.1717
  679MOL0     C93569   5.867   6.430   2.725 -0.1395 -0.3844  0.3349
  679MOL0     C93570   5.957   6.418   2.835  0.0641  0.0779  1.3410
  679MOL0     C93571   6.097   6.421   2.816  0.1251 -1.1211 -0.7867
  679MOL0     O93572   6.181   6.406   2.924  0.8385 -0.1380  0.4177
  679MOL0     C93573   6.313   6.452   2.906 -0.2980 -0.2126 -0.3104
  679MOL0     C93574   6.389   6.460   3.030 -0.5017 -0.4769 -1.2353
  679MOL0     C93575   6.501   6.564   3.028  0.5429 -0.5861 -0.3815
  679MOL0     C93576   6.638   6.513   2.967 -0.0277  0.1955  0.5967
  679MOL0     C93577   6.748   6.627   2.965  0.3565  0.1292 -0.2833
  679MOL0     C93578   6.878   6.577   2.884  0.3538 -0.4697  0.6455
  679MOL0     C93579   6.946   6.443   2.916  0.8721  0.2929 -0.1542
  679MOL0     C93580   7.064   6.427   2.821 -0.1445 -0.1743  0.6745
  679MOL0     N93581   7.117   6.295   2.850 -0.2564  0.0933  0.5963
  679MOL0     C93582   7.196   6.252   2.960 -0.2150 -0.5790 -0.3164
  679MOL0     C93583   7.216   6.114   2.931 -0.3332 -0.1255 -0.0309
  679MOL0     C93584   7.301   6.016   3.010 -0.1358  0.1725  0.1535
  679MOL0     C93585   7.442   6.026   2.959 -0.5560 -0.6735  0.4532
  679MOL0     C93586   7.507   5.903   3.020 -0.0713 -1.2105  0.4533
  679MOL0     C93587   7.647   5.881   2.950 -0.7624  0.3237 -0.0727
  679MOL0     O93588   7.736   5.979   2.993  0.1653 -0.2684 -0.4341
  679MOL0     C93589   7.854   5.978   2.925 -0.4138 -0.1730  0.6181
  679MOL0     C93590   7.936   6.088   2.952 -0.3071  1.0171 -0.0100
  679MOL0     C93591   8.064   6.099   2.885 -0.2003  0.3194  1.1608
  679MOL0     C93592   8.151   6.216   2.942  0.5451 -0.5410  0.6311
  679MOL0     C93593   8.107   5.997   2.794 -1.1819  0.3463 -0.1094
  679MOL0     C93594   8.243   5.998   2.731 -0.4734 -0.0798 -0.3823
  679MOL0     O93595   8.271   5.897   2.644  0.9829  0.1230  0.2176
  679MOL0     C93596   8.400   5.889   2.607  0.5597  1.5316 -0.6179
  679MOL0     C93597   8.419   5.945   2.485 -0.1798 -0.1888  0.2176
  679MOL0     C93598   8.546   5.939   2.417 -0.4412 -0.8702  0.3102
  679MOL0     C93599   8.656   5.894   2.481 -0.6504 -0.0074 -0.9908
  679MOL0     O93600   8.780   5.911   2.421 -0.1732 -0.7275 -0.1218
  679MOL0     C93601   8.906   5.876   2.488 -0.0070  0.6409  0.0697
  679MOL0     C93602   9.021   5.911   2.393 -1.3588 -0.9186 -0.1525
  679MOL0     C93603   9.144   5.831   2.430 -0.6422  0.8393  1.0980
  679MOL0     C93604   9.265   5.854   2.349 -0.5790  0.5734  0.4577
  679MOL0     C93605   9.387   5.776   2.401 -0.8596 -0.4143 -0.2306
  679MOL0     C93606   9.497   5.781   2.294  0.3080 -0.8733  0.4540
  679MOL0     C93607   9.616   5.705   2.344  0.4071 -0.3389 -0.0944
  679MOL0     C93608   9.596   5.553   2.385 -0.3725 -0.2185 -0.5517
  679MOL0    Cl93609   9.618   5.467   2.228  0.1123 -0.0407  0.3240
  679MOL0     C93610   8.638   5.839   2.607 -1.1316  0.4855 -0.3653
  679MOL0     C93611   8.507   5.831   2.671 -0.4626  0.4837 -0.4816
  679MOL0     O93612   8.331   6.074   2.779 -0.0430 -0.3541 -0.0385
  679MOL0     C93613   8.026   5.881   2.771  0.1368 -0.6451 -0.0768
  679MOL0     C93614   7.898   5.878   2.836  0.1249  0.7136 -0.0231
  679MOL0     N93615   7.158   6.088   2.812 -0.0424 -0.5061 -0.8824
  679MOL0     N93616   7.096   6.188   2.766 -0.1846 -0.5579 -0.6857
  679MOL0     C93617   6.143   6.436   2.683  0.9447  1.1539  0.7954
  679MOL0     C93618   6.054   6.450   2.570  0.1797  0.3033  0.2890
  679MOL0     C93619   5.700   6.389   2.305  0.1301 -1.0540  0.4414
  679MOL0     C93620   5.576   6.437   2.363 -1.3980  0.3296  0.2645
  679MOL0     C93621   5.456   6.446   2.289 -0.7360 -0.1838  0.3599
  679MOL0     C93622   5.464   6.406   2.156 -0.0313 -0.6223 -0.6142
  679MOL0     O93623   5.342   6.403   2.092  0.0873  0.1459  0.1983
  679MOL0     C93624   5.335   6.351   1.953  0.2529  0.1712 -0.8219
  679MOL0     C93625   5.321   6.204   1.946 -0.6582  1.3650  0.2426
  679MOL0     C93626   5.297   6.137   1.805  0.8550 -1.1430  0.5758
  679MOL0     C93627   5.417   6.160   1.707 -0.3201  0.4959  0.1906
  679MOL0     C93628   5.543   6.126   1.774 -0.8596  0.5380 -1.0105
  679MOL0     C93629   5.631   6.090   1.850 -0.8191 -0.5207  0.3561
  679MOL0     C93630   5.584   6.353   2.106  0.5067  1.3455 -0.5150
  679MOL0     C93631   5.700   6.348   2.175  0.2527  0.0940  0.2091
  679MOL0     C93632   5.825   6.314   2.100  0.1750  0.1199 -0.2926
  679MOL0     H93633   5.759   6.419   2.730 -0.1527  0.2817  2.4548
  679MOL0     H93634   5.919   6.417   2.937 -2.7619  2.1693  0.4640
  679MOL0     H93635   6.298   6.553   2.867 -1.3233 -0.3414 -0.2578
  679MOL0     H93636   6.365   6.380   2.842 -0.8084 -0.8064 -0.0638
  679MOL0     H93637   6.311   6.485   3.102  0.9956  1.5847 -0.2121
  679MOL0     H93638   6.436   6.369   3.070 -0.5757  1.4533  4.0496
  679MOL0     H93639   6.467   6.657   2.981 -0.3344 -1.4373 -1.4644
  679MOL0     H93640   6.509   6.592   3.134 -0.9323 -0.4056 -0.2949
  679MOL0     H93641   6.670   6.438   3.041 -1.5727 -0.0034  1.0964
  679MOL0     H93642   6.626   6.473   2.866  0.4066  2.9605 -0.6243
  679MOL0     H93643   6.773   6.653   3.068 -2.5872 -0.9986  0.8242
  679MOL0     H93644   6.705   6.718   2.921  0.8087  0.2515 -0.4734
  679MOL0     H93645   6.852   6.581   2.778 -2.8002 -2.2591  1.2154
  679MOL0     H93646   6.946   6.660   2.904 -0.9142  1.1384 -1.3333
  679MOL0     H93647   6.869   6.366   2.904  1.1530 -0.2063  1.0630
  679MOL0     H93648   6.976   6.449   3.021  0.8501  0.9770 -0.1778
  679MOL0     H93649   7.027   6.423   2.718  0.7205 -0.2401  0.3551
  679MOL0     H93650   7.136   6.510   2.815 -1.1785  0.6449 -2.8020
  679MOL0     H93651   7.233   6.309   3.044  0.7554 -3.8554  1.6505
  679MOL0     H93652   7.263   5.914   3.002  0.8269 -0.4359  2.4850
  679MOL0     H93653   7.301   6.047   3.115  1.5630  1.1247 -0.0854
  679MOL0     H93654   7.443   6.038   2.851  4.9829 -0.4935  0.2181
  679MOL0     H93655   7.488   6.111   3.010  1.4686 -1.6913  0.4225
  679MOL0     H93656   7.517   5.915   3.128 -0.7940 -2.1830  0.6374
  679MOL0     H93657   7.443   5.815   3.007  0.3158 -1.8984  2.7506
  679MOL0     H93658   7.675   5.785   2.995 -1.5212 -0.9950 -2.2567
  679MOL0     H93659   7.637   5.866   2.842 -0.0086  1.7180 -0.3474
  679MOL0     H93660   7.902   6.170   3.014  1.2857  1.2986  0.5569
  679MOL0     H93661   8.240   6.165   2.978  1.6428  0.2008 -0.9435
  679MOL0     H93662   8.113   6.271   3.028  0.7874  0.2305  0.2543
  679MOL0     H93663   8.177   6.288   2.864  1.4440 -1.0141  0.4887
  679MOL0     H93664   8.329   5.977   2.433 -1.1542 -2.1205  0.6122
  679MOL0     H93665   8.552   5.988   2.320 -2.9908 -1.3916 -0.1940
  679MOL0     H93666   8.924   5.927   2.583 -0.5241 -0.3524  0.7124
  679MOL0     H93667   8.900   5.767   2.502 -0.2746  0.9373  2.7741
  679MOL0     H93668   8.982   5.891   2.293 -0.8215 -1.8941 -0.1767
  679MOL0     H93669   9.039   6.018   2.401 -0.9502 -0.9470 -0.7277
  679MOL0     H93670   9.126   5.724   2.418 -0.7496  0.9844 -0.1345
  679MOL0     H93671   9.175   5.849   2.534  2.4019  2.3442  0.0867
  679MOL0     H93672   9.288   5.961   2.353 -0.9998  0.8176 -1.9537
  679MOL0     H93673   9.251   5.832   2.242  3.5357 -0.3829 -0.0838
  679MOL0     H93674   9.418   5.819   2.497 -0.1695  3.7901 -2.1135
  679MOL0     H93675   9.351   5.675   2.424 -1.9515  0.1387  0.6381
  679MOL0     H93676   9.518   5.888   2.283 -1.6002 -0.5443 -0.4776
  679MOL0     H93677   9.465   5.747   2.195  3.5288  0.9605 -1.4305
  679MOL0     H93678   9.653   5.763   2.429  0.7170  1.7672 -1.5932
  679MOL0     H93679   9.699   5.722   2.275 -0.3089  2.3296 -0.3953
  679MOL0     H93680   9.498   5.527   2.426  0.1179 -1.5593 -0.2000
  679MOL0     H93681   9.675   5.516   2.450 -0.0897  0.0341 -0.7495
  679MOL0     H93682   8.720   5.799   2.666 -1.3145  2.1976  1.1521
  679MOL0     H93683   8.500   5.793   2.773  3.9783 -2.3322 -0.9499
  679MOL0     H93684   8.073   5.800   2.717 -0.7033 -0.1792 -1.5704
  679MOL0     H93685   7.848   5.783   2.823  1.4910  0.0185 -0.4521
  679MOL0     H93686   6.247   6.424   2.653  0.7108  1.1523 -0.0516
  679MOL0     H93687   6.086   6.454   2.467 -0.8446  1.6617 -0.0029
  679MOL0     H93688   5.569   6.476   2.465 -2.9513  2.4447 -0.5672
  679MOL0     H93689   5.367   6.482   2.341  0.0503  2.0934  0.2679
  679MOL0     H93690   5.248   6.402   1.912 -0.2528 -0.5629 -0.6901
  679MOL0     H93691   5.418   6.388   1.892 -0.1195 -0.1989 -1.5643
  679MOL0     H93692   5.248   6.157   2.011 -0.3010 -1.1553 -1.0299
  679MOL0     H93693   5.409   6.152   1.987 -3.7720 -2.9838  2.1513
  679MOL0     H93694   5.290   6.029   1.817  0.3503 -1.3214 -1.1437
  679MOL0     H93695   5.204   6.167   1.757 -0.1507 -3.5851  0.8569
  679MOL0     H93696   5.418   6.261   1.666 -1.0560  0.1376 -0.7613
  679MOL0     H93697   5.404   6.104   1.613 -0.5319 -0.2813  0.6736
  679MOL0     H93698   5.721   6.068   1.904  1.2301  4.0447 -0.6883
  679MOL0     H93699   5.582   6.304   2.009 -2.8664 -0.2810  0.2392
  679MOL0     H93700   5.827   6.365   2.004  0.1380  0.0340 -0.3384
  679MOL0     H93701   5.909   6.350   2.161  0.5032 -1.2327  0.0880
  679MOL0     H93702   5.828   6.207   2.076 -0.9193 -0.1227  0.5912
  680MOL0     O93703   8.613   6.224   7.260 -0.1550 -0.1847 -0.6405
  680MOL0     C93704   8.574   6.328   7.205 -0.0705 -0.3561  0.8134
  680MOL0     O93705   8.655   6.407   7.121  0.5954 -0.1570 -0.0895
  680MOL0     C93706   8.787   6.364   7.103 -0.2782  0.7303  0.7437
  680MOL0     C93707   8.902   6.429   7.159  0.0940 -0.3802 -0.6607
  680MOL0     C93708   9.028   6.382   7.138  0.2795  0.5824 -0.6596
  680MOL0     C93709   9.049   6.286   7.041  0.8213  0.1050 -0.5761
  680MOL0     O93710   9.175   6.231   7.009 -0.1195  0.4465  0.7883
  680MOL0     C93711   9.291   6.296   7.070 -0.3392 -0.3097  0.0888
  680MOL0     C93712   9.419   6.223   7.040  0.2369 -0.2926 -0.2656
  680MOL0     C93713   9.535   6.291   7.112  0.5570 -1.0146 -0.6865
  680MOL0     C93714   9.673   6.233   7.072  0.4691 -0.2418 -0.8240
  680MOL0     C93715   9.786   6.320   7.126 -1.0578 -0.7351 -0.2479
  680MOL0     C93716   9.922   6.254   7.101  0.5864  0.5995  0.5116
  680MOL0     C93717  10.038   6.347   7.147  0.5944 -0.4494  0.2041
  680MOL0     C93718  10.173   6.294   7.117 -0.7498 -0.7371  0.3915
  680MOL0     N93719  10.212   6.298   6.973  0.5999 -0.5237  0.0747
  680MOL0     C93720  10.241   6.408   6.899 -0.3349 -0.1822  0.2815
  680MOL0     C93721  10.246   6.364   6.771 -0.7021  0.2362  1.3536
  680MOL0     C93722  10.275   6.452   6.644  0.3609  0.0459 -0.5171
  680MOL0     C93723  10.153   6.533   6.613 -0.4355  0.8121  0.6633
  680MOL0     C93724  10.149   6.589   6.467  0.0078 -0.0662 -0.3339
  680MOL0     C93725  10.233   6.715   6.446  0.3913  0.3850 -0.4348
  680MOL0     O93726  10.375   6.679   6.455 -0.5046  0.3282  0.0603
  680MOL0     C93727  10.428   6.653   6.334  0.3226  1.7462  0.4913
  680MOL0     C93728  10.456   6.517   6.306  0.0620 -0.0765  0.4750
  680MOL0     C93729  10.530   6.474   6.195 -0.5822 -0.1844  0.0237
  680MOL0     C93730  10.565   6.334   6.181 -0.7111 -0.0802 -0.4382
  680MOL0     C93731  10.552   6.572   6.093  0.6634 -0.0566 -0.8053
  680MOL0     C93732  10.610   6.550   5.958  1.3147  0.4415 -0.4651
  680MOL0     O93733  10.592   6.428   5.903  0.0126 -0.3605  0.8104
  680MOL0     C93734  10.653   6.401   5.778  0.1600 -0.1875  0.6434
  680MOL0     C93735  10.789   6.426   5.744  0.0309 -0.5525 -0.9154
  680MOL0     C93736  10.850   6.380   5.623  0.5497  0.1636  0.5420
  680MOL0     C93737  10.769   6.302   5.530  1.0377 -0.3240  0.7177
  680MOL0     O93738  10.818   6.249   5.414  0.3013 -0.3107  0.2376
  680MOL0     C93739  10.963   6.273   5.381  0.0967 -0.1335 -0.6390
  680MOL0     C93740  10.994   6.221   5.253 -0.3579 -0.4184  0.5537
  680MOL0     C93741  10.977   6.064   5.236  0.4684 -0.5600  1.6079
  680MOL0     C93742  11.117   5.994   5.226  0.4525  0.0824 -0.4664
  680MOL0     C93743  11.095   5.842   5.196  0.2811  0.7502 -0.2943
  680MOL0     C93744  11.011   5.768   5.300 -0.0493  0.1081 -0.2837
  680MOL0     C93745  11.009   5.623   5.267  0.2178  0.3452 -0.0198
  680MOL0     C93746  10.937   5.536   5.375 -0.0088 -0.0239 -0.3130
  680MOL0    Cl93747  10.919   5.360   5.334 -0.0891 -0.0773 -0.1450
  680MOL0     C93748  10.643   6.259   5.579 -0.3110 -0.0342  0.2576
  680MOL0     C93749  10.598   6.309   5.695  0.0877 -0.5036  0.2685
  680MOL0     O93750  10.657   6.647   5.899 -0.2447 -0.6104  0.2461
  680MOL0     C93751  10.516   6.709   6.126  0.2761  0.5347  0.7088
  680MOL0     C93752  10.457   6.746   6.241  0.2617  0.3612 -0.4698
  680MOL0     N93753  10.219   6.232   6.764  0.4610  0.8269 -0.5455
  680MOL0     N93754  10.183   6.197   6.884  0.1397 -0.1958  0.3864
  680MOL0     C93755   8.934   6.225   6.984 -0.1404  0.3810  0.3908
  680MOL0     C93756   8.803   6.254   7.015 -0.7051  0.3232  0.4001
  680MOL0     C93757   8.429   6.357   7.218 -0.3182 -0.1633  0.0308
  680MOL0     C93758   8.342   6.251   7.269 -0.2982 -0.7394  0.5265
  680MOL0     C93759   8.208   6.275   7.270 -0.1326 -0.1724 -0.4139
  680MOL0     C93760   8.148   6.390   7.231  0.8428  0.1115  0.4881
  680MOL0     O93761   8.016   6.390   7.237  0.8172 -0.6273  0.6123
  680MOL0     C93762   7.940   6.477   7.156  0.9194  0.6308  0.0650
  680MOL0     C93763   7.787   6.466   7.185 -1.0599 -0.2773  0.7054
  680MOL0     C93764   7.707   6.520   7.057  0.4417  0.2192  0.2121
  680MOL0     C93765   7.738   6.660   7.024  0.0604  0.4429  0.5820
  680MOL0     C93766   7.654   6.682   6.905  0.7149  0.3225  0.0509
  680MOL0     C93767   7.594   6.722   6.810 -0.2429  0.2328  0.2852
  680MOL0     C93768   8.223   6.495   7.183  0.0042 -0.0333  0.2354
  680MOL0     C93769   8.363   6.481   7.184 -0.2425  0.7805  0.5280
  680MOL0     C93770   8.440   6.599   7.128 -0.6876 -0.5111  0.3140
  680MOL0     H93771   8.890   6.517   7.222 -1.0431  0.8534 -2.4880
  680MOL0     H93772   9.110   6.446   7.166 -0.4407  1.8046 -1.2914
  680MOL0     H93773   9.276   6.312   7.177 -2.5172 -0.3207 -0.1683
  680MOL0     H93774   9.303   6.390   7.016  2.3539 -0.4249  0.3465
  680MOL0     H93775   9.417   6.122   7.082 -0.1628  0.0516  0.5663
  680MOL0     H93776   9.433   6.241   6.933  0.9660  3.2028  0.3028
  680MOL0     H93777   9.538   6.395   7.078  0.2745 -0.9340 -0.4669
  680MOL0     H93778   9.519   6.290   7.220 -1.4392  0.4832 -0.9085
  680MOL0     H93779   9.675   6.129   7.106 -0.4137 -0.8756 -2.5615
  680MOL0     H93780   9.683   6.222   6.964  0.1958 -1.1824 -0.7640
  680MOL0     H93781   9.762   6.329   7.232  2.7938 -2.0684  0.9237
  680MOL0     H93782   9.785   6.424   7.093  3.0115 -0.5942 -0.5133
  680MOL0     H93783   9.938   6.164   7.160 -0.1655 -0.5727 -0.9962
  680MOL0     H93784   9.940   6.235   6.994  0.8716  0.7542  0.5299
  680MOL0     H93785  10.050   6.366   7.254 -0.6340 -3.4607  0.9724
  680MOL0     H93786  10.019   6.443   7.098 -2.4997 -1.0257  0.0841
  680MOL0     H93787  10.240   6.351   7.182  1.1360 -1.5134 -0.7920
  680MOL0     H93788  10.162   6.191   7.152 -2.4789 -1.4366 -1.9537
  680MOL0     H93789  10.271   6.506   6.935  1.2850 -0.6361  0.2259
  680MOL0     H93790  10.308   6.396   6.556  0.7674  0.4102 -0.6009
  680MOL0     H93791  10.357   6.516   6.676  2.8697 -2.4566 -1.5663
  680MOL0     H93792  10.067   6.466   6.624  0.4856 -0.6160 -0.4753
  680MOL0     H93793  10.145   6.611   6.690 -0.3675 -0.7817  2.3412
  680MOL0     H93794  10.194   6.518   6.397 -0.4561 -0.4909 -0.2008
  680MOL0     H93795  10.047   6.619   6.445  0.0720  2.4681  2.1243
  680MOL0     H93796  10.204   6.770   6.356  2.3573  1.9945 -0.1738
  680MOL0     H93797  10.209   6.777   6.533 -0.7894  2.1657 -1.9479
  680MOL0     H93798  10.420   6.442   6.375 -0.8151 -0.5064 -0.4113
  680MOL0     H93799  10.545   6.290   6.083  0.7607 -0.1846 -0.7212
  680MOL0     H93800  10.512   6.270   6.253  1.7643 -1.4736  0.2749
  680MOL0     H93801  10.674   6.335   6.194 -0.5533  0.9412 -1.6069
  680MOL0     H93802  10.846   6.500   5.798 -4.1433  2.1008  0.3783
  680MOL0     H93803  10.954   6.404   5.601  1.0604 -2.4815 -0.2262
  680MOL0     H93804  10.970   6.382   5.380 -0.1453 -0.1202 -0.8745
  680MOL0     H93805  11.031   6.227   5.454 -0.4146 -1.5064 -0.9916
  680MOL0     H93806  10.929   6.270   5.180  1.6499  0.8450 -0.4885
  680MOL0     H93807  11.093   6.244   5.213 -0.5868  2.0184  1.2636
  680MOL0     H93808  10.911   6.045   5.151  0.9028  3.8585  0.0170
  680MOL0     H93809  10.934   6.021   5.328 -0.6542 -2.5400  0.2427
  680MOL0     H93810  11.174   6.004   5.319 -2.5957 -0.6851  1.6337
  680MOL0     H93811  11.173   6.035   5.141 -0.1700 -0.3129 -1.0852
  680MOL0     H93812  11.056   5.834   5.094  1.1344  1.0164 -0.6494
  680MOL0     H93813  11.189   5.788   5.181  0.0569 -0.4583  2.1098
  680MOL0     H93814  10.910   5.809   5.304  0.8166  2.9814 -3.1471
  680MOL0     H93815  11.067   5.772   5.394 -0.7171 -1.5196  0.2173
  680MOL0     H93816  11.113   5.597   5.246  0.7589  1.6642  0.8385
  680MOL0     H93817  10.950   5.605   5.176 -1.6612 -0.7815  1.3481
  680MOL0     H93818  10.839   5.581   5.395  0.0409  0.0257 -0.1831
  680MOL0     H93819  10.988   5.546   5.471 -4.3412 -0.9923  2.3468
  680MOL0     H93820  10.586   6.194   5.514  0.5253 -2.7908  2.1077
  680MOL0     H93821  10.498   6.278   5.723 -0.1408  0.7890  0.9550
  680MOL0     H93822  10.541   6.783   6.051  3.0481 -0.0970  0.9127
  680MOL0     H93823  10.421   6.845   6.263  2.0751  0.8583  0.3922
  680MOL0     H93824   8.963   6.153   6.909  1.0703  0.4887  0.7294
  680MOL0     H93825   8.711   6.212   6.974 -1.9115  1.1218  2.1389
  680MOL0     H93826   8.384   6.151   7.281  1.1861 -0.0143  1.7640
  680MOL0     H93827   8.139   6.199   7.305  2.5951 -3.5472 -1.8806
  680MOL0     H93828   7.958   6.585   7.159 -1.2137  1.0148  2.1813
  680MOL0     H93829   7.951   6.443   7.052 -0.0269 -0.9711  0.4432
  680MOL0     H93830   7.756   6.508   7.281 -1.1608 -2.5840  1.7703
  680MOL0     H93831   7.756   6.361   7.191 -4.2569  0.4199 -1.0338
  680MOL0     H93832   7.730   6.450   6.976  1.5759  2.9630 -1.9814
  680MOL0     H93833   7.598   6.513   7.069  0.0886  2.9482 -0.6104
  680MOL0     H93834   7.844   6.669   6.995  0.2458 -3.3244 -0.4733
  680MOL0     H93835   7.718   6.731   7.104 -0.0870  1.8730 -0.6784
  680MOL0     H93836   7.537   6.756   6.726  1.2389 -0.7414 -1.1702
  680MOL0     H93837   8.186   6.593   7.156  0.1538  1.3281  4.2710
  680MOL0     H93838   8.392   6.692   7.159  2.2926  0.8567  1.1901
  680MOL0     H93839   8.538   6.613   7.174 -0.9352  0.7280  0.4914
  680MOL0     H93840   8.450   6.584   7.020 -1.6798  0.1955  0.1077
  681MOL0     O93841   8.178   1.623   3.768 -0.6898 -0.0097 -0.2489
  681MOL0     C93842   8.111   1.545   3.835  0.2276  0.1705 -0.7408
  681MOL0     O93843   8.155   1.429   3.899  0.0114 -0.3602 -0.7600
  681MOL0     C93844   8.289   1.403   3.907 -0.7043 -0.3765 -0.5846
  681MOL0     C93845   8.340   1.340   4.021 -0.5406 -0.3686  0.0674
  681MOL0     C93846   8.478   1.304   4.029 -0.1030 -0.3901  0.1138
  681MOL0     C93847   8.555   1.333   3.923 -0.8275 -0.1424 -0.0550
  681MOL0     O93848   8.690   1.309   3.952 -0.2325  0.3049  0.6146
  681MOL0     C93849   8.785   1.393   3.898 -0.6963 -0.6768 -0.7601
  681MOL0     C93850   8.915   1.359   3.967  0.1366 -0.1554 -0.1184
  681MOL0     C93851   9.047   1.385   3.887  0.4724  0.3407  0.4870
  681MOL0     C93852   9.169   1.363   3.973 -1.4667 -0.0515 -0.2527
  681MOL0     C93853   9.298   1.380   3.888  0.2329  0.1488  0.6114
  681MOL0     C93854   9.412   1.417   3.983  0.0549  0.2123 -0.8020
  681MOL0     C93855   9.448   1.296   4.071 -0.5044  0.6195  0.2455
  681MOL0     C93856   9.548   1.338   4.181  0.4983  0.5355 -0.5777
  681MOL0     N93857   9.681   1.343   4.122 -0.7676 -0.0653 -0.6748
  681MOL0     C93858   9.740   1.232   4.073  0.7548  0.7533  1.1988
  681MOL0     C93859   9.860   1.269   4.032  0.1943  0.7256 -0.0973
  681MOL0     C93860   9.971   1.175   4.000 -0.0437  0.3126  0.7182
  681MOL0     C93861  10.077   1.126   4.106  0.3828  0.0992 -0.2941
  681MOL0     C93862  10.004   1.040   4.220  0.1656 -0.6134  0.8198
  681MOL0     C93863  10.096   1.003   4.338  0.5392  1.0540 -0.2278
  681MOL0     O93864  10.107   1.119   4.428 -0.2027 -0.4823 -0.7115
  681MOL0     C93865  10.226   1.128   4.495 -0.5384  1.0754  0.0156
  681MOL0     C93866  10.229   1.114   4.635 -0.1283  0.8059  0.3506
  681MOL0     C93867  10.351   1.127   4.710  0.7758 -0.2749 -0.4262
  681MOL0     C93868  10.354   1.082   4.851 -0.0256 -0.0014  0.0632
  681MOL0     C93869  10.470   1.148   4.635 -0.5657  0.0929 -0.5530
  681MOL0     C93870  10.598   1.159   4.702  0.5041 -0.1971 -0.0066
  681MOL0     O93871  10.696   1.071   4.654 -0.0535  0.6020  0.3742
  681MOL0     C93872  10.833   1.088   4.673 -0.0786  0.1643 -0.7597
  681MOL0     C93873  10.877   1.164   4.775 -0.2476 -0.1593 -0.3087
  681MOL0     C93874  11.019   1.187   4.788  0.3643 -0.3074 -0.7120
  681MOL0     C93875  11.111   1.135   4.701 -1.1294  0.0059 -0.3372
  681MOL0     O93876  11.249   1.156   4.724  0.4974 -0.0018  0.0196
  681MOL0     C93877  11.338   1.136   4.616  0.4999  0.4882  0.8029
  681MOL0     C93878  11.483   1.168   4.671 -0.4158 -0.3909  0.6970
  681MOL0     C93879  11.599   1.159   4.570  0.1703 -0.3560 -0.4923
  681MOL0     C93880  11.726   1.226   4.625 -0.1927 -0.4838  0.2259
  681MOL0     C93881  11.849   1.220   4.525  0.5539 -0.4229 -0.0039
  681MOL0     C93882  11.834   1.323   4.414  0.3640 -0.5192 -0.5942
  681MOL0     C93883  11.934   1.308   4.307 -1.5041 -1.0630  0.3054
  681MOL0     C93884  11.951   1.430   4.210  0.6394 -0.0458 -0.1746
  681MOL0    Cl93885  11.802   1.452   4.108 -0.0792 -0.2029 -0.1727
  681MOL0     C93886  11.060   1.048   4.603 -0.7511  0.7795  0.2537
  681MOL0     C93887  10.923   1.025   4.588  0.1213 -0.0609  0.9599
  681MOL0     O93888  10.608   1.240   4.800 -0.1643 -0.1768  0.2010
  681MOL0     C93889  10.461   1.162   4.501 -0.0226  0.2253  0.2053
  681MOL0     C93890  10.340   1.153   4.428  0.0898 -0.9327 -0.1996
  681MOL0     N93891   9.880   1.399   4.078  0.6616 -0.2636  0.3738
  681MOL0     N93892   9.768   1.447   4.123  0.3097  0.4764  0.1385
  681MOL0     C93893   8.506   1.393   3.802 -0.3416 -0.1859 -0.4121
  681MOL0     C93894   8.374   1.424   3.792 -0.2631 -0.4181 -0.1375
  681MOL0     C93895   7.972   1.578   3.857  1.3019  0.3824  0.8542
  681MOL0     C93896   7.897   1.493   3.937 -0.2394 -1.3465 -0.0624
  681MOL0     C93897   7.766   1.523   3.972  1.2048 -0.2646  0.2423
  681MOL0     C93898   7.700   1.635   3.925  0.4152 -0.0032  0.3188
  681MOL0     O93899   7.565   1.662   3.931 -0.0962 -0.1694 -0.9100
  681MOL0     C93900   7.510   1.635   4.060  0.1810 -1.0565  0.6589
  681MOL0     C93901   7.390   1.727   4.088 -0.7987 -0.7458  0.4920
  681MOL0     C93902   7.304   1.684   4.203 -0.0500  0.9043  0.0231
  681MOL0     C93903   7.197   1.786   4.241 -0.0482  0.2167  0.7595
  681MOL0     C93904   7.235   1.920   4.294 -0.3616 -0.0368 -0.2743
  681MOL0     C93905   7.282   2.025   4.327 -0.8828 -0.4138 -0.5052
  681MOL0     C93906   7.773   1.714   3.832  0.5322  0.2254  0.3456
  681MOL0     C93907   7.906   1.692   3.804 -0.1964 -0.1342 -0.9883
  681MOL0     C93908   7.964   1.783   3.699 -0.7764 -0.6486  0.4589
  681MOL0     H93909   8.262   1.327   4.096 -0.6423  0.3307  0.0918
  681MOL0     H93910   8.521   1.260   4.119 -0.2634 -2.3826 -0.7479
  681MOL0     H93911   8.759   1.496   3.922  1.0916  0.0094 -1.5631
  681MOL0     H93912   8.792   1.378   3.790  0.1314  0.3077 -0.8603
  681MOL0     H93913   8.912   1.423   4.055 -1.7817 -0.1647 -0.1342
  681MOL0     H93914   8.923   1.253   3.995 -0.2568  0.1707  1.3020
  681MOL0     H93915   9.055   1.313   3.805 -1.6740  0.5950  0.0162
  681MOL0     H93916   9.057   1.485   3.844 -0.8233  1.8183  3.3474
  681MOL0     H93917   9.174   1.427   4.062 -1.1393 -1.4341  0.7547
  681MOL0     H93918   9.160   1.265   4.021  4.0131 -0.1528  1.2920
  681MOL0     H93919   9.275   1.466   3.825 -0.6777 -1.4496 -1.3762
  681MOL0     H93920   9.313   1.290   3.828 -0.2389 -0.1922  0.9864
  681MOL0     H93921   9.501   1.444   3.925 -1.2499  1.6835 -2.1847
  681MOL0     H93922   9.385   1.504   4.043 -2.5860 -1.5118  0.7382
  681MOL0     H93923   9.490   1.224   4.000  2.1201  4.3871 -2.4509
  681MOL0     H93924   9.371   1.239   4.122  0.0068 -0.1866  0.1281
  681MOL0     H93925   9.523   1.435   4.223  2.6164  0.2586  1.5183
  681MOL0     H93926   9.561   1.261   4.258  1.3127  1.6583  0.4344
  681MOL0     H93927   9.711   1.128   4.081 -0.2916  1.1583  3.7063
  681MOL0     H93928  10.015   1.220   3.911 -0.4371 -1.4736 -0.4330
  681MOL0     H93929   9.920   1.088   3.958 -1.2621  2.0369 -1.5669
  681MOL0     H93930  10.150   1.063   4.054  2.4806  1.7485  0.4905
  681MOL0     H93931  10.132   1.211   4.147 -1.4351  0.5564  1.3786
  681MOL0     H93932   9.917   1.101   4.247 -0.6665 -0.0894 -2.4943
  681MOL0     H93933   9.969   0.942   4.185  0.8634 -1.9778  3.7010
  681MOL0     H93934  10.046   0.918   4.386  0.2126  0.7999 -1.0029
  681MOL0     H93935  10.190   0.963   4.300 -0.2321  0.0684 -1.1941
  681MOL0     H93936  10.139   1.099   4.694 -0.1145  2.3853  0.8294
  681MOL0     H93937  10.264   1.030   4.886  0.3472 -0.7983 -0.1377
  681MOL0     H93938  10.367   1.160   4.926 -1.1973 -1.4937  1.9313
  681MOL0     H93939  10.432   1.005   4.857 -1.5618 -1.7264 -1.0022
  681MOL0     H93940  10.818   1.198   4.860 -1.7515 -1.9692 -0.5821
  681MOL0     H93941  11.049   1.252   4.870 -1.5286  0.9718 -0.9796
  681MOL0     H93942  11.343   1.038   4.568 -1.9106  0.4118  0.5902
  681MOL0     H93943  11.306   1.207   4.539 -2.2888  0.5838  1.9229
  681MOL0     H93944  11.477   1.262   4.727 -2.8327 -0.9181  1.4743
  681MOL0     H93945  11.514   1.088   4.739  3.7519 -0.3692 -0.9275
  681MOL0     H93946  11.564   1.212   4.481 -0.6459 -0.7763 -0.4336
  681MOL0     H93947  11.630   1.055   4.560 -0.2931 -0.4589 -0.8873
  681MOL0     H93948  11.750   1.175   4.719 -2.3089 -2.7998 -0.3750
  681MOL0     H93949  11.700   1.330   4.647  0.9971  0.5688 -2.8513
  681MOL0     H93950  11.938   1.261   4.573  0.0096  0.7108  0.0940
  681MOL0     H93951  11.875   1.121   4.489  1.3806  0.2535 -1.3497
  681MOL0     H93952  11.831   1.424   4.454 -0.9605 -0.2816 -1.2463
  681MOL0     H93953  11.742   1.294   4.362  2.5881 -2.4406 -3.7881
  681MOL0     H93954  11.890   1.223   4.253 -1.6955 -0.1851 -0.9759
  681MOL0     H93955  12.031   1.282   4.351 -1.8460 -0.8518  1.2041
  681MOL0     H93956  12.037   1.410   4.145  0.7369 -2.1979  0.5333
  681MOL0     H93957  11.970   1.520   4.269  1.5024 -0.3347  0.0021
  681MOL0     H93958  11.136   0.991   4.550 -0.8062 -1.1194  2.0927
  681MOL0     H93959  10.880   0.951   4.522  4.2098 -3.1981  1.3822
  681MOL0     H93960  10.544   1.196   4.440 -2.0894  2.1837 -1.7172
  681MOL0     H93961  10.337   1.169   4.321 -1.5557 -2.0543 -0.3571
  681MOL0     H93962   8.564   1.399   3.711  1.2730  2.8509  0.6514
  681MOL0     H93963   8.357   1.456   3.690  2.4227  0.2655 -0.4251
  681MOL0     H93964   7.932   1.401   3.983 -0.4229 -1.1656  0.4380
  681MOL0     H93965   7.706   1.452   4.028 -1.0514 -0.1437 -1.8418
  681MOL0     H93966   7.482   1.529   4.060  0.9573 -1.2749  1.0151
  681MOL0     H93967   7.583   1.656   4.139  0.5558  3.0753 -0.5349
  681MOL0     H93968   7.329   1.736   3.997 -1.2752 -0.2256  0.8542
  681MOL0     H93969   7.427   1.827   4.110 -3.2510 -0.0863  2.0515
  681MOL0     H93970   7.257   1.590   4.171  0.4394  0.2139  1.2717
  681MOL0     H93971   7.369   1.667   4.289  0.4359  0.8287 -0.3606
  681MOL0     H93972   7.141   1.736   4.320  3.1129 -1.2601  2.2542
  681MOL0     H93973   7.133   1.808   4.155 -0.2734  1.4835  1.2230
  681MOL0     H93974   7.324   2.114   4.369 -1.5771 -0.9320  1.3735
  681MOL0     H93975   7.731   1.804   3.788  1.5864  0.7774  0.4186
  681MOL0     H93976   8.009   1.727   3.616 -0.1787 -0.9657  0.9903
  681MOL0     H93977   7.889   1.848   3.651  0.6377  0.0384 -0.9405
  681MOL0     H93978   8.036   1.842   3.757  1.1126 -4.7949  2.7445
  682MOL0     O93979   4.126   8.519   3.120  0.3028 -0.7236  0.3056
  682MOL0     C93980   4.113   8.574   3.004  0.2301  0.2587 -0.0877
  682MOL0     O93981   4.203   8.658   2.954 -0.5491  0.0030  0.2035
  682MOL0     C93982   4.322   8.673   3.025  0.0252  0.5337 -0.3829
  682MOL0     C93983   4.328   8.731   3.149  0.4498  0.1734  0.0168
  682MOL0     C93984   4.448   8.725   3.219 -0.8861 -0.2861 -0.0170
  682MOL0     C93985   4.570   8.693   3.158 -0.0241  0.0082  0.5874
  682MOL0     O93986   4.699   8.701   3.209 -0.3301 -0.4683  0.0163
  682MOL0     C93987   4.728   8.766   3.335  0.0084  0.1143  0.4202
  682MOL0     C93988   4.709   8.687   3.457  0.3469 -0.4105  0.2199
  682MOL0     C93989   4.772   8.544   3.459 -0.5267  0.2756 -0.0611
  682MOL0     C93990   4.903   8.520   3.386 -0.4171 -0.5706  0.4341
  682MOL0     C93991   4.960   8.381   3.417  0.2619 -0.1450 -0.9251
  682MOL0     C93992   5.073   8.383   3.529 -0.2435 -0.0142 -0.2715
  682MOL0     C93993   5.125   8.245   3.557 -0.2345  0.2055  0.1526
  682MOL0     C93994   5.232   8.250   3.665  0.5726  0.0799  0.5813
  682MOL0     N93995   5.358   8.287   3.601  0.4633 -0.5400 -0.5121
  682MOL0     C93996   5.407   8.415   3.578 -0.3202  0.3249  0.3555
  682MOL0     C93997   5.523   8.397   3.505  0.5989 -1.3472 -0.1370
  682MOL0     C93998   5.625   8.511   3.470 -0.1871  0.3622 -0.5751
  682MOL0     C93999   5.771   8.467   3.506  1.1974 -0.0688  0.0463
  682MOL0     C94000   5.782   8.438   3.662  0.8770 -0.1489 -0.6928
  682MOL0     C94001   5.925   8.404   3.694 -0.3155  0.7680 -1.3137
  682MOL0     O94002   6.023   8.514   3.697 -0.3535  0.2842  0.2662
  682MOL0     C94003   6.148   8.485   3.735  0.3289 -0.3546 -0.3406
  682MOL0     C94004   6.198   8.358   3.748 -0.3379 -0.3402 -0.8559
  682MOL0     C94005   6.330   8.337   3.802  0.3541  0.5481  0.5726
  682MOL0     C94006   6.374   8.193   3.800 -0.0282 -0.0837  0.0507
  682MOL0     C94007   6.412   8.448   3.844 -0.4009  0.6098 -0.0484
  682MOL0     C94008   6.555   8.438   3.881 -0.7905  0.0544 -0.6733
  682MOL0     O94009   6.604   8.563   3.929 -0.2113 -0.3293  0.1535
  682MOL0     C94010   6.731   8.565   3.973  0.2038  0.0632 -0.5668
  682MOL0     C94011   6.833   8.623   3.898  0.0831 -0.4457  0.2749
  682MOL0     C94012   6.968   8.601   3.919  0.9022  0.7460 -0.0015
  682MOL0     C94013   7.010   8.538   4.042 -1.0137 -0.0320  0.9429
  682MOL0     O94014   7.144   8.513   4.064 -0.1699  0.1195 -0.5411
  682MOL0     C94015   7.183   8.550   4.198  0.1218  0.8458 -0.1126
  682MOL0     C94016   7.325   8.617   4.201 -0.4254 -0.9254  0.5451
  682MOL0     C94017   7.440   8.542   4.146 -0.2837  0.4944  0.9350
  682MOL0     C94018   7.574   8.617   4.167  0.8355 -0.0222  1.2519
  682MOL0     C94019   7.695   8.535   4.125 -0.8099  0.0600  0.0674
  682MOL0     C94020   7.712   8.521   3.971  0.5521  0.0613  0.4504
  682MOL0     C94021   7.857   8.475   3.938 -0.0894  0.4497  0.2510
  682MOL0     C94022   7.893   8.453   3.785  0.1698  0.0835 -0.0093
  682MOL0    Cl94023   7.877   8.604   3.688  0.3306 -0.1150  0.0729
  682MOL0     C94024   6.912   8.483   4.123  0.9546  0.2939  0.0633
  682MOL0     C94025   6.773   8.505   4.094 -0.5745 -0.6072  0.1126
  682MOL0     O94026   6.615   8.333   3.870  0.1949 -0.1804  0.4738
  682MOL0     C94027   6.353   8.577   3.828  0.3185  0.0457 -0.1580
  682MOL0     C94028   6.231   8.588   3.763 -0.2738  0.5454  0.4970
  682MOL0     N94029   5.545   8.268   3.493  0.5929  0.3402 -1.0079
  682MOL0     N94030   5.436   8.207   3.539  0.1361  0.5897 -0.3415
  682MOL0     C94031   4.567   8.645   3.030 -0.4193  0.3106  0.7200
  682MOL0     C94032   4.439   8.627   2.963  0.0692 -0.6577  0.3880
  682MOL0     C94033   3.990   8.537   2.929  0.5093  0.9887 -0.9007
  682MOL0     C94034   3.875   8.479   2.990 -0.1214  0.1087  0.2822
  682MOL0     C94035   3.757   8.443   2.916 -0.4116 -0.0031  0.2558
  682MOL0     C94036   3.738   8.471   2.781  0.2939 -0.0008  0.3506
  682MOL0     O94037   3.622   8.439   2.707 -0.4485  1.0201 -0.4234
  682MOL0     C94038   3.497   8.428   2.771 -0.2490  0.4730 -0.2581
  682MOL0     C94039   3.438   8.563   2.822  0.0171 -0.3348 -0.2182
  682MOL0     C94040   3.291   8.542   2.866 -0.5622 -0.1623  0.2324
  682MOL0     C94041   3.230   8.675   2.887  0.7994 -0.2764 -0.1137
  682MOL0     C94042   3.087   8.682   2.853  0.0172  0.6670 -0.0511
  682MOL0     C94043   2.973   8.693   2.832 -0.0119 -0.0404 -0.4471
  682MOL0     C94044   3.846   8.536   2.724 -0.0161  0.3596 -0.3616
  682MOL0     C94045   3.975   8.559   2.789  0.6579  0.4113  0.8900
  682MOL0     C94046   4.081   8.619   2.700  0.2725  0.0167  0.3465
  682MOL0     H94047   4.241   8.778   3.195 -0.2988  0.6016 -1.7432
  682MOL0     H94048   4.446   8.775   3.315  0.1975  3.8708 -1.9390
  682MOL0     H94049   4.666   8.856   3.341  0.8628  0.7858 -0.4076
  682MOL0     H94050   4.833   8.791   3.318 -0.2234  0.3469 -0.8393
  682MOL0     H94051   4.740   8.750   3.541 -4.0219  0.8270  1.1658
  682MOL0     H94052   4.601   8.671   3.455  0.2711  0.1618 -1.0751
  682MOL0     H94053   4.787   8.508   3.561 -1.5922  0.3561  0.1392
  682MOL0     H94054   4.696   8.481   3.410  0.1114 -1.7221  1.4143
  682MOL0     H94055   4.890   8.518   3.278  0.2878  1.0295  0.2938
  682MOL0     H94056   4.976   8.596   3.415  0.7230 -2.1765  2.0395
  682MOL0     H94057   4.992   8.333   3.324 -4.0552 -0.5904 -2.3987
  682MOL0     H94058   4.889   8.309   3.458  1.2812 -0.4223  0.4395
  682MOL0     H94059   5.154   8.446   3.491 -0.7034  0.6961 -0.0878
  682MOL0     H94060   5.032   8.420   3.624 -0.4018 -0.4687 -0.1587
  682MOL0     H94061   5.161   8.201   3.464 -2.1812 -2.6616  0.6123
  682MOL0     H94062   5.036   8.185   3.579  0.6247 -1.0930  0.2092
  682MOL0     H94063   5.204   8.324   3.741 -1.3872  0.0297 -0.0319
  682MOL0     H94064   5.234   8.150   3.710 -0.4266 -0.9021 -1.4261
  682MOL0     H94065   5.374   8.510   3.619 -0.0733  0.8907 -0.7068
  682MOL0     H94066   5.595   8.605   3.518  0.1793 -0.9585  2.5059
  682MOL0     H94067   5.619   8.538   3.365  1.0640 -0.2577 -0.8290
  682MOL0     H94068   5.803   8.378   3.450 -0.1394 -1.7790  1.8827
  682MOL0     H94069   5.840   8.546   3.474  0.2274  0.1168 -1.7380
  682MOL0     H94070   5.754   8.521   3.727 -0.8961 -3.5057  3.2748
  682MOL0     H94071   5.710   8.360   3.691  0.0314  1.0495  0.5356
  682MOL0     H94072   5.923   8.350   3.789  0.7387  1.3294 -0.9488
  682MOL0     H94073   5.970   8.332   3.625  0.3639 -1.3380  1.1747
  682MOL0     H94074   6.141   8.268   3.730 -1.1564  0.0567 -0.2880
  682MOL0     H94075   6.291   8.122   3.801  0.9342 -1.2251  1.0533
  682MOL0     H94076   6.429   8.164   3.889 -3.8397 -0.3942  2.5657
  682MOL0     H94077   6.442   8.170   3.718  0.3927 -1.4679  0.7593
  682MOL0     H94078   6.814   8.682   3.809 -2.1313  0.3431  1.1936
  682MOL0     H94079   7.033   8.644   3.844  0.3040  1.6045 -0.0519
  682MOL0     H94080   7.106   8.615   4.239 -1.2695  1.2150 -3.0815
  682MOL0     H94081   7.183   8.466   4.269  2.1164  1.3853  0.6013
  682MOL0     H94082   7.331   8.711   4.147 -0.2205 -1.8218 -1.0347
  682MOL0     H94083   7.339   8.639   4.308 -3.2387  1.6135  0.5027
  682MOL0     H94084   7.426   8.519   4.040 -0.5490  2.5360  0.4700
  682MOL0     H94085   7.449   8.444   4.194  2.6299 -0.8270 -1.9117
  682MOL0     H94086   7.573   8.650   4.272  2.0129  2.2414  0.6265
  682MOL0     H94087   7.558   8.706   4.106 -3.8026 -1.3149  0.2548
  682MOL0     H94088   7.784   8.581   4.169 -0.6724  0.7245 -0.8724
  682MOL0     H94089   7.689   8.435   4.169 -3.4022 -0.1906 -0.7071
  682MOL0     H94090   7.698   8.621   3.931  4.3198  0.5056 -0.1300
  682MOL0     H94091   7.638   8.457   3.922  2.0852 -1.7146  0.3057
  682MOL0     H94092   7.869   8.374   3.980  0.5625  0.6019  0.4415
  682MOL0     H94093   7.927   8.551   3.972  1.2475 -0.9071  0.6654
  682MOL0     H94094   7.826   8.372   3.755  1.5144 -0.5567 -1.4267
  682MOL0     H94095   7.995   8.415   3.770 -0.0728 -0.9019  0.7260
  682MOL0     H94096   6.951   8.431   4.210  2.6858  0.9412 -0.3009
  682MOL0     H94097   6.698   8.472   4.165 -0.4119  1.1079  1.1350
  682MOL0     H94098   6.401   8.669   3.856 -1.2812  0.3928  1.6310
  682MOL0     H94099   6.192   8.689   3.753 -4.6027 -1.0951 -1.9333
  682MOL0     H94100   4.657   8.616   2.976 -1.5627 -0.9591 -0.6057
  682MOL0     H94101   4.433   8.566   2.874  3.8378 -2.8929  1.4225
  682MOL0     H94102   3.884   8.439   3.090  0.1112 -1.4526 -0.3299
  682MOL0     H94103   3.680   8.394   2.976  2.2145 -2.0123  2.2377
  682MOL0     H94104   3.434   8.383   2.693  1.6700 -0.5782 -1.2817
  682MOL0     H94105   3.496   8.355   2.852  0.9495 -0.2173 -0.8455
  682MOL0     H94106   3.455   8.631   2.738  1.5439 -0.9934 -0.4792
  682MOL0     H94107   3.492   8.591   2.912  0.5349 -0.9384 -0.3324
  682MOL0     H94108   3.238   8.482   2.791  1.6410 -0.7129 -0.9617
  682MOL0     H94109   3.295   8.487   2.961  0.7775 -0.8452 -0.1980
  682MOL0     H94110   3.281   8.758   2.838  1.9627 -0.9838 -0.1466
  682MOL0     H94111   3.243   8.704   2.991 -0.3387  0.0169 -0.0429
  682MOL0     H94112   2.868   8.704   2.815  0.2160  0.3265 -1.7204
  682MOL0     H94113   3.839   8.553   2.617 -1.5666  0.1144 -0.3188
  682MOL0     H94114   4.173   8.573   2.736  1.1909  3.3363  2.7018
  682MOL0     H94115   4.063   8.609   2.593  0.1831  1.2206  0.2381
  682MOL0     H94116   4.087   8.727   2.711 -0.0739  0.2350 -1.3487
  683MOL0     O94117   7.351   0.787   4.643  0.2298 -0.5136  0.1119
  683MOL0     C94118   7.229   0.794   4.671 -1.2067  0.9477  0.9794
  683MOL0     O94119   7.170   0.914   4.686  0.1995 -0.0103 -0.3867
  683MOL0     C94120   7.245   1.024   4.699  0.2732 -0.8331 -1.1207
  683MOL0     C94121   7.260   1.107   4.590 -0.1581 -0.6000 -0.0433
  683MOL0     C94122   7.334   1.222   4.605 -0.3401  0.5406  0.3274
  683MOL0     C94123   7.401   1.261   4.723  0.1321 -0.4941  0.5329
  683MOL0     O94124   7.475   1.372   4.736 -0.0571  0.5523 -0.2694
  683MOL0     C94125   7.520   1.438   4.614  0.4721 -0.2808  0.3608
  683MOL0     C94126   7.643   1.531   4.638 -0.0878  0.7063 -0.6076
  683MOL0     C94127   7.724   1.587   4.524  0.4130  0.0276 -0.0948
  683MOL0     C94128   7.653   1.684   4.444  0.1751 -0.1250  0.6173
  683MOL0     C94129   7.749   1.743   4.342  0.0082 -0.3729  0.9627
  683MOL0     C94130   7.701   1.886   4.297 -0.3902  0.0388 -0.2103
  683MOL0     C94131   7.775   1.935   4.176 -0.1674  0.6925  0.5432
  683MOL0     C94132   7.926   1.946   4.190  0.4328 -0.6037 -0.1140
  683MOL0     N94133   7.969   2.056   4.280 -0.0666  0.1233 -0.3257
  683MOL0     C94134   7.997   2.184   4.258  0.6216  0.1602 -0.1145
  683MOL0     C94135   8.042   2.235   4.374 -0.8391  0.5897 -0.9576
  683MOL0     C94136   8.106   2.374   4.400 -0.5068 -0.8366 -0.6850
  683MOL0     C94137   8.185   2.425   4.276  0.2758  0.1701 -0.1081
  683MOL0     C94138   8.208   2.582   4.282  0.3532 -0.1650  0.7481
  683MOL0     C94139   8.325   2.613   4.189 -0.4006  0.2601  0.1511
  683MOL0     O94140   8.452   2.559   4.252  0.1679 -0.6751 -0.0348
  683MOL0     C94141   8.572   2.580   4.179  0.6902 -0.2902  0.1940
  683MOL0     C94142   8.687   2.525   4.243  0.5112  0.2864  0.2002
  683MOL0     C94143   8.812   2.531   4.186 -0.3283 -0.5520 -0.4424
  683MOL0     C94144   8.922   2.504   4.285  0.4262 -0.3982  0.5862
  683MOL0     C94145   8.834   2.608   4.067  0.2402  0.9784 -0.4026
  683MOL0     C94146   8.969   2.639   4.022 -0.4834 -0.6729  0.0150
  683MOL0     O94147   8.980   2.671   3.893 -0.7540  0.0141 -0.0873
  683MOL0     C94148   9.111   2.692   3.836 -0.2865  0.1562 -0.1021
  683MOL0     C94149   9.147   2.812   3.770  0.0504 -0.5135  1.6383
  683MOL0     C94150   9.269   2.828   3.704  0.4878 -0.7024 -0.4308
  683MOL0     C94151   9.365   2.723   3.702 -0.4775 -0.2292  0.0667
  683MOL0     O94152   9.486   2.752   3.638  0.4368  0.0810  0.0690
  683MOL0     C94153   9.590   2.653   3.630  0.1699  0.5156 -0.1026
  683MOL0     C94154   9.685   2.649   3.748 -0.1616  0.5748  0.4857
  683MOL0     C94155   9.826   2.593   3.729 -0.0718 -0.3708  0.6687
  683MOL0     C94156   9.905   2.612   3.858  0.9701 -0.9090  0.2889
  683MOL0     C94157  10.048   2.548   3.853  0.3662  0.5402  0.0566
  683MOL0     C94158  10.050   2.401   3.884  0.2013 -0.2237 -0.7255
  683MOL0     C94159  10.200   2.356   3.878  1.2478  0.3721 -0.8929
  683MOL0     C94160  10.205   2.203   3.887  0.5163 -0.2895  0.3883
  683MOL0    Cl94161  10.372   2.148   3.916 -0.0367  0.0928 -0.0991
  683MOL0     C94162   9.325   2.601   3.761 -0.5829 -0.5318 -0.0592
  683MOL0     C94163   9.204   2.590   3.832  0.0395  0.1185 -0.9626
  683MOL0     O94164   9.052   2.664   4.105  0.0209 -0.4547 -0.2515
  683MOL0     C94165   8.722   2.665   4.009  0.3749 -0.3356  0.1179
  683MOL0     C94166   8.594   2.659   4.060  0.9621 -0.1239 -0.8659
  683MOL0     N94167   8.057   2.130   4.466  0.5303 -0.1080  0.6955
  683MOL0     N94168   8.008   2.026   4.404 -0.3824 -0.4633 -0.0703
  683MOL0     C94169   7.373   1.175   4.826 -0.0475  0.4606  0.1885
  683MOL0     C94170   7.295   1.061   4.821 -0.2226  0.4394 -0.4774
  683MOL0     C94171   7.148   0.674   4.672  0.5264  0.3924  0.3241
  683MOL0     C94172   7.003   0.690   4.674 -1.0404 -0.0605  0.3633
  683MOL0     C94173   6.914   0.583   4.639  0.1460 -0.1648 -0.3773
  683MOL0     C94174   6.968   0.459   4.607 -0.0455 -0.8857 -0.0839
  683MOL0     O94175   6.903   0.345   4.566 -0.0799 -0.5093  0.4627
  683MOL0     C94176   6.764   0.353   4.552  0.1218  0.1949 -0.0834
  683MOL0     C94177   6.714   0.234   4.476  0.2045 -0.5884  0.9094
  683MOL0     C94178   6.563   0.254   4.468  0.1765  0.6593  0.1075
  683MOL0     C94179   6.503   0.198   4.594  0.4550 -0.5137 -0.3270
  683MOL0     C94180   6.353   0.209   4.595  0.5994  0.0796 -0.2035
  683MOL0     C94181   6.232   0.220   4.576 -0.5733  0.6883 -0.4293
  683MOL0     C94182   7.107   0.440   4.616 -1.1770  0.3759  0.5889
  683MOL0     C94183   7.193   0.540   4.663  0.0796  0.3327  0.5941
  683MOL0     C94184   7.341   0.505   4.660 -0.4205  0.4768 -0.1785
  683MOL0     H94185   7.223   1.080   4.492 -4.2790  0.9020  0.8810
  683MOL0     H94186   7.325   1.288   4.519  0.5736  0.2222 -0.0233
  683MOL0     H94187   7.435   1.493   4.573 -0.2270 -1.7136 -0.1917
  683MOL0     H94188   7.548   1.369   4.534 -1.8858 -1.1547  0.2262
  683MOL0     H94189   7.594   1.609   4.696 -1.8991 -2.4116  2.4585
  683MOL0     H94190   7.706   1.475   4.708 -0.6943  3.1825  2.1361
  683MOL0     H94191   7.816   1.628   4.568  1.1425 -0.4571 -1.1170
  683MOL0     H94192   7.756   1.506   4.458 -0.0746 -0.4066  0.2004
  683MOL0     H94193   7.571   1.635   4.390 -0.7971  0.2228  1.7334
  683MOL0     H94194   7.610   1.763   4.507 -0.5578 -0.0346  0.0173
  683MOL0     H94195   7.747   1.675   4.257 -2.3151  1.0677 -0.2435
  683MOL0     H94196   7.847   1.763   4.387  0.0735 -3.2216  2.2996
  683MOL0     H94197   7.597   1.887   4.263 -0.5900 -0.1226  0.3854
  683MOL0     H94198   7.711   1.952   4.383 -0.7297  3.0424 -2.3363
  683MOL0     H94199   7.728   2.029   4.147  0.4121  0.9914  0.5627
  683MOL0     H94200   7.755   1.857   4.101  0.5243 -0.0428  1.1181
  683MOL0     H94201   7.973   1.856   4.229  0.1053 -2.0485 -2.8423
  683MOL0     H94202   7.971   1.956   4.091 -0.4456  2.0558 -0.3373
  683MOL0     H94203   7.985   2.240   4.166 -2.9993 -2.2971 -1.3463
  683MOL0     H94204   8.183   2.375   4.477 -1.5686 -0.0111  0.4035
  683MOL0     H94205   8.029   2.448   4.425  0.2271  0.4730 -2.0940
  683MOL0     H94206   8.281   2.372   4.266  0.5161  0.8828 -2.0164
  683MOL0     H94207   8.116   2.401   4.195 -1.2961  0.6795  1.0290
  683MOL0     H94208   8.124   2.640   4.244  1.0624  0.2234 -0.2919
  683MOL0     H94209   8.238   2.619   4.380  0.4665 -0.0269  0.6624
  683MOL0     H94210   8.301   2.572   4.091  0.1228 -0.4407  0.3090
  683MOL0     H94211   8.337   2.720   4.172 -2.2185  0.2875 -1.2389
  683MOL0     H94212   8.674   2.471   4.337 -0.9496  0.8427  0.3586
  683MOL0     H94213   8.894   2.423   4.353  1.2189 -2.5195 -1.4839
  683MOL0     H94214   8.959   2.595   4.333  2.9367 -0.1577 -1.5852
  683MOL0     H94215   9.017   2.479   4.238 -0.9228  0.1198 -2.7118
  683MOL0     H94216   9.075   2.894   3.771 -0.8334 -1.1874 -0.4832
  683MOL0     H94217   9.280   2.925   3.656 -2.1087  1.2327  2.4346
  683MOL0     H94218   9.547   2.552   3.620  1.2767  0.1960 -2.5603
  683MOL0     H94219   9.642   2.672   3.535 -3.3335  1.9381 -1.9330
  683MOL0     H94220   9.694   2.749   3.792  0.0561 -0.0310  1.8620
  683MOL0     H94221   9.631   2.585   3.819 -0.7031 -1.2008 -1.4177
  683MOL0     H94222   9.875   2.643   3.645 -0.5616 -0.1393  0.5161
  683MOL0     H94223   9.845   2.493   3.691  0.8463  0.4123 -1.0730
  683MOL0     H94224   9.843   2.592   3.946  0.4813  2.1658  0.7807
  683MOL0     H94225   9.908   2.722   3.864 -3.8370 -0.6105  0.9791
  683MOL0     H94226  10.097   2.564   3.756 -0.9508 -1.4254 -1.0072
  683MOL0     H94227  10.104   2.609   3.924  0.3733 -1.0300  1.4649
  683MOL0     H94228   9.996   2.344   3.808 -0.5715 -3.3295  1.9090
  683MOL0     H94229  10.005   2.375   3.980  3.3432  1.6743  1.4443
  683MOL0     H94230  10.238   2.402   3.969 -1.9472 -0.0002  0.7715
  683MOL0     H94231  10.253   2.393   3.789  4.1027 -2.8979 -0.7365
  683MOL0     H94232  10.167   2.171   3.790 -0.9818 -0.9205  1.1504
  683MOL0     H94233  10.135   2.161   3.959 -1.1598  2.0651  0.2627
  683MOL0     H94234   9.383   2.510   3.770  1.3012  0.6933  1.2440
  683MOL0     H94235   9.189   2.498   3.889  2.5454  0.9942  1.3687
  683MOL0     H94236   8.734   2.725   3.920 -0.6254  0.3712  0.4503
  683MOL0     H94237   8.502   2.703   4.025  0.8697 -0.1973 -0.7183
  683MOL0     H94238   7.412   1.197   4.925  0.1529 -0.9895  0.4512
  683MOL0     H94239   7.270   1.005   4.911 -0.7597  0.2087 -0.7658
  683MOL0     H94240   6.959   0.788   4.692 -2.1045 -0.3861 -0.3780
  683MOL0     H94241   6.807   0.595   4.648  0.4463  1.2467  4.6023
  683MOL0     H94242   6.714   0.355   4.649 -0.7153 -3.8308 -0.2696
  683MOL0     H94243   6.727   0.443   4.502 -2.3519 -1.2275 -1.0007
  683MOL0     H94244   6.733   0.134   4.517 -2.0406 -0.8601  1.4190
  683MOL0     H94245   6.752   0.241   4.373  1.3722 -0.8330  1.3029
  683MOL0     H94246   6.538   0.360   4.454  2.9730  1.7016  2.1520
  683MOL0     H94247   6.526   0.198   4.382  2.6334 -0.0260 -0.5809
  683MOL0     H94248   6.533   0.253   4.684  0.1939  0.5128 -0.8562
  683MOL0     H94249   6.530   0.092   4.607 -1.6407 -1.0366  0.1017
  683MOL0     H94250   6.129   0.224   4.548 -0.6254 -2.9328 -1.1607
  683MOL0     H94251   7.128   0.338   4.587  0.3870  1.3232 -2.0310
  683MOL0     H94252   7.345   0.399   4.688 -3.0536  0.0092 -1.2510
  683MOL0     H94253   7.387   0.529   4.564 -2.3407  3.0068 -0.5851
  683MOL0     H94254   7.397   0.572   4.726  0.8427  0.6437 -1.3878
  684MOL0     O94255  10.570   2.720   2.724  0.7247  0.7057 -0.9824
  684MOL0     C94256  10.559   2.597   2.706  0.4232  0.2603  0.5863
  684MOL0     O94257  10.662   2.514   2.672 -0.3488 -0.7177 -0.6379
  684MOL0     C94258  10.785   2.570   2.654  0.0227 -0.4997 -0.2865
  684MOL0     C94259  10.889   2.519   2.732  0.2954 -0.5051 -0.2454
  684MOL0     C94260  11.019   2.574   2.724  0.9174  0.2623  0.1260
  684MOL0     C94261  11.051   2.681   2.648 -0.0295 -0.7631  0.2150
  684MOL0     O94262  11.171   2.747   2.634  0.4506 -0.7263 -0.4061
  684MOL0     C94263  11.294   2.676   2.673  0.0552  0.3132  0.7818
  684MOL0     C94264  11.411   2.764   2.643 -0.2588  0.4782  0.4465
  684MOL0     C94265  11.412   2.897   2.720  0.4679 -0.1610  0.1693
  684MOL0     C94266  11.550   2.973   2.709 -0.8560 -0.2095  0.1645
  684MOL0     C94267  11.547   3.108   2.782  0.4470  0.0318  0.0367
  684MOL0     C94268  11.663   3.192   2.750  0.5835 -0.7795  0.4033
  684MOL0     C94269  11.645   3.344   2.791 -0.0446 -0.4167  0.2470
  684MOL0     C94270  11.740   3.433   2.716  0.3770  0.7672  0.0526
  684MOL0     N94271  11.880   3.396   2.756 -0.6544 -0.3193  0.9309
  684MOL0     C94272  11.945   3.430   2.881 -0.3702 -0.3399 -0.1661
  684MOL0     C94273  12.078   3.401   2.870  0.4732  0.4720 -0.3529
  684MOL0     C94274  12.181   3.420   2.968 -0.7407  0.3212  1.2744
  684MOL0     C94275  12.325   3.391   2.919  0.3916  0.0455 -0.3616
  684MOL0     C94276  12.370   3.496   2.815  0.7265 -0.2678 -0.1214
  684MOL0     C94277  12.498   3.454   2.748 -0.5910 -0.8140 -0.9618
  684MOL0     O94278  12.591   3.432   2.855 -0.1087 -0.1745  0.2694
  684MOL0     C94279  12.719   3.387   2.835 -0.6792 -0.2825 -0.8853
  684MOL0     C94280  12.788   3.334   2.950 -0.5322 -0.0654 -0.2673
  684MOL0     C94281  12.918   3.279   2.933 -0.2700  0.7350 -0.7462
  684MOL0     C94282  12.985   3.227   3.058 -0.5510  0.3971  0.8733
  684MOL0     C94283  12.974   3.270   2.806 -0.3213 -1.1514  1.0845
  684MOL0     C94284  13.100   3.206   2.775 -0.7913 -0.3670 -0.1680
  684MOL0     O94285  13.154   3.237   2.653  0.1672  0.1199  0.2016
  684MOL0     C94286  13.268   3.182   2.599 -0.3238 -0.1647  0.6428
  684MOL0     C94287  13.270   3.164   2.461 -0.5908  0.6812  0.4408
  684MOL0     C94288  13.397   3.130   2.404  0.0043 -0.3068 -0.1334
  684MOL0     C94289  13.512   3.084   2.480  0.3551  1.6925  0.5639
  684MOL0     O94290  13.628   3.045   2.407  0.1934 -0.0678 -0.4139
  684MOL0     C94291  13.742   3.008   2.493  0.1912  0.4541 -0.4350
  684MOL0     C94292  13.862   3.004   2.398  0.2418 -0.1182  0.0663
  684MOL0     C94293  13.840   2.899   2.286 -0.4146  0.0527 -0.0249
  684MOL0     C94294  13.964   2.893   2.196 -0.1153 -0.1377  0.2613
  684MOL0     C94295  13.947   2.781   2.094 -0.0737 -0.2792 -0.0485
  684MOL0     C94296  14.067   2.752   2.009 -0.6127  0.3734 -0.4710
  684MOL0     C94297  14.019   2.652   1.906  0.0457 -0.5907 -0.5651
  684MOL0     C94298  14.142   2.593   1.835  0.4736  0.0056  0.1428
  684MOL0    Cl94299  14.077   2.493   1.702 -0.0086 -0.5773 -0.3533
  684MOL0     C94300  13.490   3.090   2.620 -0.5539 -0.2313  0.0014
  684MOL0     C94301  13.379   3.147   2.686  0.5517  0.7302  0.6067
  684MOL0     O94302  13.143   3.121   2.852  1.0343 -0.3724  0.5301
  684MOL0     C94303  12.907   3.330   2.696  0.2420  0.7990  0.1113
  684MOL0     C94304  12.781   3.383   2.712  0.3388 -0.1352  0.5145
  684MOL0     N94305  12.087   3.331   2.748 -0.4277  0.4113 -0.3053
  684MOL0     N94306  11.974   3.334   2.678 -0.5476  0.2585 -0.2465
  684MOL0     C94307  10.951   2.738   2.569  0.5822 -0.1131  1.0803
  684MOL0     C94308  10.820   2.679   2.573  0.0116  0.0260  0.5772
  684MOL0     C94309  10.431   2.531   2.707  0.6624  0.3427 -0.7115
  684MOL0     C94310  10.438   2.392   2.673  0.2996  0.0880  0.0472
  684MOL0     C94311  10.322   2.315   2.680  1.0231 -0.3690 -0.8615
  684MOL0     C94312  10.195   2.375   2.723  0.0015 -0.2235  0.0664
  684MOL0     O94313  10.073   2.301   2.726 -0.1422  0.4589 -0.2012
  684MOL0     C94314  10.075   2.173   2.795 -0.0449 -0.5995 -0.4032
  684MOL0     C94315   9.944   2.159   2.879 -0.3618  0.2267  0.4883
  684MOL0     C94316   9.927   2.010   2.894  0.3635  0.9017 -0.3335
  684MOL0     C94317   9.800   1.964   2.961 -0.6155 -0.5218 -0.5740
  684MOL0     C94318   9.803   1.817   2.974 -0.1774  0.0528 -0.7514
  684MOL0     C94319   9.813   1.699   2.989 -0.3451  0.4765  0.4844
  684MOL0     C94320  10.189   2.505   2.755 -0.5288  0.5457  0.0915
  684MOL0     C94321  10.305   2.587   2.746 -0.0170  0.0551 -1.0045
  684MOL0     C94322  10.289   2.736   2.782  0.3447 -0.3006  0.4610
  684MOL0     H94323  10.866   2.429   2.788  0.1446  0.3245  1.0518
  684MOL0     H94324  11.095   2.531   2.790  0.4618  1.4341  1.4644
  684MOL0     H94325  11.311   2.586   2.614  0.6467  0.7699  0.2272
  684MOL0     H94326  11.286   2.659   2.780 -0.7339  0.0856  0.6888
  684MOL0     H94327  11.505   2.712   2.661  0.8357  2.5798  1.0345
  684MOL0     H94328  11.418   2.791   2.537  1.2256 -0.9429  0.1470
  684MOL0     H94329  11.335   2.961   2.675  2.0503 -0.3691 -3.1797
  684MOL0     H94330  11.397   2.872   2.825  4.0145 -2.8118  0.2373
  684MOL0     H94331  11.629   2.908   2.747 -1.0726 -0.8848 -0.5283
  684MOL0     H94332  11.574   2.998   2.605  3.0256  0.6637  1.0899
  684MOL0     H94333  11.543   3.093   2.890 -0.8081 -1.1891 -0.1388
  684MOL0     H94334  11.457   3.165   2.756  1.4370  0.7305 -2.1484
  684MOL0     H94335  11.743   3.152   2.813  0.6517 -0.4859  0.5002
  684MOL0     H94336  11.688   3.179   2.644  1.0219 -2.4587  0.6687
  684MOL0     H94337  11.665   3.372   2.894 -0.0572  1.1448 -0.1534
  684MOL0     H94338  11.540   3.370   2.776 -0.0878 -0.5542  0.3057
  684MOL0     H94339  11.721   3.433   2.608  0.7677  2.9887 -0.0635
  684MOL0     H94340  11.714   3.535   2.746  1.1132  0.3135  2.4549
  684MOL0     H94341  11.900   3.471   2.971  0.5410  1.3764 -0.4575
  684MOL0     H94342  12.153   3.353   3.050  0.7729 -2.5681 -0.3984
  684MOL0     H94343  12.176   3.527   2.990  1.3425  1.1008 -1.5005
  684MOL0     H94344  12.395   3.416   2.999 -2.1024  2.1066  1.3772
  684MOL0     H94345  12.332   3.289   2.881 -0.2398  0.3999 -1.4590
  684MOL0     H94346  12.293   3.493   2.736  1.1885  2.7656 -0.8323
  684MOL0     H94347  12.380   3.595   2.860 -2.9581 -0.2869  1.1101
  684MOL0     H94348  12.483   3.360   2.693  1.0021 -0.6741 -1.6817
  684MOL0     H94349  12.546   3.524   2.679  0.9580 -1.0536 -0.1548
  684MOL0     H94350  12.750   3.350   3.050  1.0319 -0.2367  0.3795
  684MOL0     H94351  13.086   3.269   3.053 -0.5853  0.3229 -2.1938
  684MOL0     H94352  12.976   3.118   3.071 -3.3424  0.5464  0.8398
  684MOL0     H94353  12.950   3.268   3.153  0.3116  3.1831  0.0848
  684MOL0     H94354  13.183   3.194   2.404 -0.0052  1.5988 -0.0061
  684MOL0     H94355  13.400   3.135   2.295 -0.8705 -1.5147 -0.2360
  684MOL0     H94356  13.763   3.081   2.573  1.1534 -0.5037  0.2229
  684MOL0     H94357  13.735   2.911   2.544  0.2531  1.9433  2.6684
  684MOL0     H94358  13.879   3.102   2.354 -0.1529 -0.6859 -1.3891
  684MOL0     H94359  13.954   2.976   2.450  0.8977 -1.4107 -1.7243
  684MOL0     H94360  13.755   2.931   2.225 -0.5151  0.3252  0.2547
  684MOL0     H94361  13.820   2.804   2.336  0.1534  1.4539  3.1050
  684MOL0     H94362  14.044   2.877   2.270 -0.0077  1.9114  0.6510
  684MOL0     H94363  13.972   2.991   2.150 -2.7249  0.0477  0.0712
  684MOL0     H94364  13.915   2.691   2.147  0.9479  0.1531  1.3790
  684MOL0     H94365  13.859   2.797   2.031  0.3010  2.3997 -0.0154
  684MOL0     H94366  14.156   2.717   2.062 -0.1774  3.7742  1.3137
  684MOL0     H94367  14.103   2.848   1.972 -0.7902  1.7077  2.5097
  684MOL0     H94368  13.950   2.703   1.839  1.6453  1.0365 -1.0437
  684MOL0     H94369  13.973   2.561   1.947  2.0386 -2.0688 -1.4012
  684MOL0     H94370  14.202   2.531   1.901  1.0401  0.1972 -0.1866
  684MOL0     H94371  14.204   2.673   1.793 -1.8155  0.8397 -1.9287
  684MOL0     H94372  13.568   3.062   2.690  1.5198  2.8111 -0.8807
  684MOL0     H94373  13.365   3.153   2.793 -0.1054  1.2281  0.4955
  684MOL0     H94374  12.947   3.329   2.595 -3.3462 -3.3559 -1.6247
  684MOL0     H94375  12.738   3.415   2.617  1.5596 -1.2105 -0.4525
  684MOL0     H94376  10.968   2.811   2.491  1.9737 -1.0771  0.4334
  684MOL0     H94377  10.741   2.718   2.509 -1.3398 -1.1063  1.5033
  684MOL0     H94378  10.527   2.340   2.641  2.0746  3.1448 -0.3284
  684MOL0     H94379  10.320   2.212   2.645  0.6791 -0.4894 -0.5026
  684MOL0     H94380  10.090   2.104   2.711 -2.1969 -0.5472 -0.8909
  684MOL0     H94381  10.163   2.162   2.859  0.8765  2.1030 -1.0797
  684MOL0     H94382   9.854   2.194   2.828 -0.3982 -0.5998 -0.0417
  684MOL0     H94383   9.958   2.214   2.973 -3.8706 -0.2109  1.4175
  684MOL0     H94384   9.943   1.961   2.797 -1.7680 -2.9259  1.0477
  684MOL0     H94385  10.016   1.983   2.950 -0.0385  0.2319 -0.0094
  684MOL0     H94386   9.714   1.998   2.903  0.1159  4.3392  0.7733
  684MOL0     H94387   9.788   2.009   3.060 -0.7549  0.5756 -1.0843
  684MOL0     H94388   9.827   1.595   3.011 -1.7361  0.1387 -0.1326
  684MOL0     H94389  10.098   2.538   2.804 -1.6848 -0.2561 -1.4120
  684MOL0     H94390  10.361   2.766   2.859 -1.0637  0.4571  1.5480
  684MOL0     H94391  10.305   2.802   2.696  0.5271 -1.1390 -0.1580
  684MOL0     H94392  10.183   2.740   2.810 -0.2700 -2.7996 -1.1764
  685MOL0     O94393   0.855   5.383   6.129 -0.5059  0.4720 -0.0920
  685MOL0     C94394   0.825   5.446   6.028  0.3673 -0.9431  0.3177
  685MOL0     O94395   0.892   5.555   5.979  0.8419  0.1912 -0.0090
  685MOL0     C94396   1.005   5.613   6.037 -0.3769  0.0805 -0.0347
  685MOL0     C94397   1.136   5.590   5.986  0.1215 -0.1901 -0.2628
  685MOL0     C94398   1.249   5.654   6.041  0.2829  0.5587 -0.0845
  685MOL0     C94399   1.225   5.747   6.138 -0.8374 -0.2388 -0.3397
  685MOL0     O94400   1.321   5.816   6.211  0.4905 -0.9160 -0.2168
  685MOL0     C94401   1.457   5.778   6.192 -0.2109  0.1305  0.0829
  685MOL0     C94402   1.546   5.837   6.310 -0.9670  0.2808  1.1021
  685MOL0     C94403   1.523   5.988   6.322  0.6148  0.6974  0.1240
  685MOL0     C94404   1.652   6.072   6.314  0.2401 -0.0293  0.3695
  685MOL0     C94405   1.639   6.223   6.350  0.4873  0.6280 -0.1028
  685MOL0     C94406   1.584   6.305   6.229 -0.0487  0.2516 -0.0146
  685MOL0     C94407   1.563   6.454   6.267 -0.7269 -0.2652 -0.7969
  685MOL0     C94408   1.538   6.552   6.149 -0.7133  0.3583  0.2353
  685MOL0     N94409   1.652   6.535   6.053 -0.1536 -0.1341  1.0077
  685MOL0     C94410   1.635   6.486   5.924 -0.3826  0.4953 -0.1449
  685MOL0     C94411   1.759   6.476   5.872 -0.0777  0.1419  0.1437
  685MOL0     C94412   1.774   6.422   5.731 -0.5254 -0.2262 -0.2813
  685MOL0     C94413   1.912   6.451   5.672 -0.1652  0.3542  0.1733
  685MOL0     C94414   1.936   6.349   5.566  0.2334  0.4547  0.0327
  685MOL0     C94415   2.071   6.367   5.504 -0.3255 -0.7562 -1.9089
  685MOL0     O94416   2.117   6.262   5.417  0.4516  0.0896  0.3922
  685MOL0     C94417   2.252   6.230   5.398  0.3112  0.3550  0.1362
  685MOL0     C94418   2.364   6.289   5.463 -0.5288 -0.0753 -0.1742
  685MOL0     C94419   2.496   6.256   5.438  0.3155  0.6131  0.3496
  685MOL0     C94420   2.599   6.328   5.525 -0.0131 -0.5723  0.3414
  685MOL0     C94421   2.524   6.172   5.325 -0.4408  0.0570  0.2435
  685MOL0     C94422   2.652   6.139   5.279 -0.2653  0.3703  0.3336
  685MOL0     O94423   2.747   6.105   5.370 -0.2312  0.5436  0.5282
  685MOL0     C94424   2.845   6.013   5.335  0.8767  0.4442  0.3296
  685MOL0     C94425   2.808   5.892   5.288 -0.0039  0.8272 -0.0846
  685MOL0     C94426   2.909   5.792   5.256  0.6226 -0.5966  0.5155
  685MOL0     C94427   3.042   5.831   5.248 -0.3087 -0.5315 -0.0113
  685MOL0     O94428   3.139   5.750   5.223 -0.1714  0.1940  1.1394
  685MOL0     C94429   3.126   5.615   5.262 -0.1698 -0.3358  0.4922
  685MOL0     C94430   3.255   5.546   5.209 -0.4338  0.0067 -0.2350
  685MOL0     C94431   3.257   5.389   5.226  0.3882  0.3568 -0.4528
  685MOL0     C94432   3.358   5.323   5.133 -0.8501 -0.7842 -0.1220
  685MOL0     C94433   3.325   5.172   5.122  0.7311  0.0788 -0.5028
  685MOL0     C94434   3.407   5.112   5.014  0.1138 -0.3524  0.9098
  685MOL0     C94435   3.367   4.974   4.966 -0.2885 -0.4279 -0.4770
  685MOL0     C94436   3.478   4.906   4.894 -0.0140  0.4294  0.5794
  685MOL0    Cl94437   3.606   4.899   5.003 -0.0370  0.1914 -0.6266
  685MOL0     C94438   3.074   5.959   5.297  0.3743 -0.7874  0.6187
  685MOL0     C94439   2.974   6.048   5.338  0.3185 -0.2449 -0.1281
  685MOL0     O94440   2.673   6.143   5.161  0.1642 -0.4468  0.0073
  685MOL0     C94441   2.410   6.108   5.257 -0.1154 -0.0817 -0.1786
  685MOL0     C94442   2.279   6.136   5.297  0.1853  0.1535  0.1268
  685MOL0     N94443   1.856   6.513   5.970  0.4542 -0.6238 -0.8862
  685MOL0     N94444   1.792   6.544   6.076 -0.2414 -0.4798  0.0980
  685MOL0     C94445   1.097   5.772   6.183  0.2128 -0.4238  0.2394
  685MOL0     C94446   0.989   5.709   6.134 -0.8079  0.0655  0.0009
  685MOL0     C94447   0.709   5.388   5.951  0.4368  0.8248  0.2933
  685MOL0     C94448   0.716   5.416   5.816  0.4061  0.1609 -0.1497
  685MOL0     C94449   0.609   5.380   5.731 -0.6167 -0.1942 -0.5637
  685MOL0     C94450   0.491   5.325   5.786 -0.5033 -0.0818 -0.0237
  685MOL0     O94451   0.379   5.287   5.710  0.5301  0.0727 -0.4232
  685MOL0     C94452   0.387   5.266   5.569  0.2068 -1.0383  0.2520
  685MOL0     C94453   0.277   5.349   5.497 -0.6585  0.2293  0.6436
  685MOL0     C94454   0.132   5.297   5.518  0.8167 -0.0308  0.1774
  685MOL0     C94455   0.033   5.347   5.412  0.4624 -0.3022 -0.1950
  685MOL0     C94456   0.011   5.490   5.430  0.5084 -0.9147  0.0279
  685MOL0     C94457  -0.020   5.607   5.435  0.3566 -0.5114 -0.4988
  685MOL0     C94458   0.484   5.312   5.922 -0.0876  0.0411 -1.1353
  685MOL0     C94459   0.591   5.337   6.013 -0.3694 -0.7545  0.0990
  685MOL0     C94460   0.569   5.320   6.161 -0.0612  0.4329  0.0914
  685MOL0     H94461   1.155   5.518   5.907  1.0022  0.6281 -0.8224
  685MOL0     H94462   1.350   5.645   6.003  0.6244  1.8056  0.4833
  685MOL0     H94463   1.494   5.812   6.095  0.3816  0.5647  0.4576
  685MOL0     H94464   1.464   5.669   6.203  0.4355  0.2771  1.3116
  685MOL0     H94465   1.498   5.785   6.394 -2.2305 -2.4735 -1.1359
  685MOL0     H94466   1.649   5.812   6.285 -2.3811 -2.9798 -2.5781
  685MOL0     H94467   1.467   6.023   6.236 -0.1777 -0.3739  0.1889
  685MOL0     H94468   1.466   6.018   6.411  2.0417 -1.3199  1.8429
  685MOL0     H94469   1.727   6.032   6.383  1.4831  0.9316 -0.3721
  685MOL0     H94470   1.682   6.058   6.210 -0.8352  0.0984  0.0259
  685MOL0     H94471   1.737   6.267   6.372  0.3661 -0.1371  2.1310
  685MOL0     H94472   1.563   6.241   6.426  1.0041  0.3032  0.4956
  685MOL0     H94473   1.668   6.299   6.159  1.4840  0.9502  1.6815
  685MOL0     H94474   1.493   6.269   6.181 -1.3865  2.0707  1.0261
  685MOL0     H94475   1.646   6.491   6.328 -0.7800  1.8674 -1.9217
  685MOL0     H94476   1.473   6.457   6.329  1.4067  0.0179  2.5056
  685MOL0     H94477   1.436   6.535   6.112 -0.2401  0.3886 -1.1419
  685MOL0     H94478   1.533   6.654   6.187 -2.6964  0.7262 -0.8702
  685MOL0     H94479   1.545   6.454   5.873 -0.8954  1.3064  0.2351
  685MOL0     H94480   1.698   6.459   5.661  0.1926  2.0090  0.0613
  685MOL0     H94481   1.752   6.315   5.739 -0.3795 -0.3132 -0.9442
  685MOL0     H94482   1.925   6.555   5.639  2.3544 -0.6429 -2.3756
  685MOL0     H94483   1.987   6.439   5.752 -0.2904 -0.7666  0.1322
  685MOL0     H94484   1.927   6.252   5.615 -0.5848  0.6399  0.2602
  685MOL0     H94485   1.865   6.370   5.485  0.5009  0.7991 -0.1171
  685MOL0     H94486   2.070   6.461   5.448 -0.8762 -0.1500 -0.9268
  685MOL0     H94487   2.152   6.387   5.576 -0.4621 -2.0283 -1.3763
  685MOL0     H94488   2.347   6.373   5.530 -1.0760  1.5023 -2.1798
  685MOL0     H94489   2.644   6.398   5.454  0.2196  1.5536  2.4551
  685MOL0     H94490   2.679   6.263   5.562  1.0202  1.7604  2.4879
  685MOL0     H94491   2.552   6.379   5.609  0.1422 -0.2549  0.2362
  685MOL0     H94492   2.702   5.866   5.286  0.0715 -0.3813  3.4411
  685MOL0     H94493   2.883   5.691   5.228 -1.5055  0.0701 -0.1468
  685MOL0     H94494   3.134   5.613   5.371 -1.9960  3.1707  0.8360
  685MOL0     H94495   3.037   5.556   5.235 -0.0495 -1.0836  1.6439
  685MOL0     H94496   3.272   5.575   5.105 -2.0986  2.6704  0.1325
  685MOL0     H94497   3.335   5.582   5.275 -1.3190 -1.0259  1.4912
  685MOL0     H94498   3.156   5.348   5.219 -0.5690  1.7730  3.0705
  685MOL0     H94499   3.272   5.370   5.333 -1.4992 -0.4753 -0.2974
  685MOL0     H94500   3.460   5.338   5.170 -1.1306  2.0933 -0.2577
  685MOL0     H94501   3.346   5.366   5.033  0.2040  0.9140  0.4246
  685MOL0     H94502   3.333   5.118   5.217 -0.2455  0.7693 -0.0068
  685MOL0     H94503   3.222   5.144   5.098  0.8423 -2.4074  1.4812
  685MOL0     H94504   3.510   5.117   5.052  1.2903  1.0497 -2.1062
  685MOL0     H94505   3.406   5.179   4.927 -0.8145  1.6714  2.4100
  685MOL0     H94506   3.283   5.002   4.902  1.1586  1.4334 -1.6917
  685MOL0     H94507   3.338   4.910   5.050  1.5436  2.3117  2.4573
  685MOL0     H94508   3.502   4.968   4.807 -1.0235  1.5288  1.0505
  685MOL0     H94509   3.441   4.807   4.864 -1.3707  0.0524  3.2234
  685MOL0     H94510   3.178   5.989   5.290 -0.3691  1.6549 -1.7965
  685MOL0     H94511   3.011   6.148   5.360  1.3195 -0.3311 -1.3122
  685MOL0     H94512   2.417   6.036   5.176 -3.8639 -1.7503  0.7871
  685MOL0     H94513   2.196   6.082   5.253 -3.2353  2.0002  3.7038
  685MOL0     H94514   1.093   5.837   6.270  1.2647 -1.9450  1.4837
  685MOL0     H94515   0.887   5.730   6.165 -0.8019 -1.5082  1.2553
  685MOL0     H94516   0.790   5.470   5.758  0.8404 -0.0586  0.1954
  685MOL0     H94517   0.623   5.396   5.625  0.2679 -0.1426 -0.4448
  685MOL0     H94518   0.485   5.288   5.524 -0.1859 -0.9378 -0.5801
  685MOL0     H94519   0.365   5.160   5.550 -4.1937 -0.1999 -0.3072
  685MOL0     H94520   0.302   5.367   5.392  0.5654  2.5212  1.2587
  685MOL0     H94521   0.277   5.453   5.533 -0.0987  1.4692 -2.6150
  685MOL0     H94522   0.132   5.188   5.512 -1.5522 -0.0107 -2.5816
  685MOL0     H94523   0.093   5.327   5.616  0.6023 -1.6036  0.6113
  685MOL0     H94524  -0.062   5.297   5.434  0.8744 -1.1924 -0.3865
  685MOL0     H94525   0.059   5.331   5.307 -0.2956 -2.1802 -0.1394
  685MOL0     H94526  -0.055   5.708   5.436  0.3825 -0.4392 -2.3347
  685MOL0     H94527   0.387   5.284   5.962  1.1212 -3.5224 -0.3076
  685MOL0     H94528   0.565   5.212   6.180 -0.5163  0.0697 -1.8853
  685MOL0     H94529   0.647   5.350   6.231  0.7610  1.7616 -1.3388
  685MOL0     H94530   0.475   5.363   6.198 -1.1938 -2.8586  1.3974
  686MOL0     O94531   4.569   8.662   7.821  0.2595  0.8733  0.4830
  686MOL0     C94532   4.606   8.734   7.727  0.5101  0.2184 -0.5237
  686MOL0     O94533   4.738   8.761   7.701  0.1920  0.0483  0.0377
  686MOL0     C94534   4.824   8.716   7.800 -0.4731  0.5202 -0.3698
  686MOL0     C94535   4.893   8.597   7.787  0.2641  0.5604  0.8092
  686MOL0     C94536   4.968   8.548   7.889 -0.3985  1.0366 -1.0811
  686MOL0     C94537   4.967   8.608   8.021  0.4395 -0.8374 -0.4521
  686MOL0     O94538   5.040   8.547   8.119 -0.3193  0.0752  0.3757
  686MOL0     C94539   5.028   8.586   8.255 -0.1927 -0.4027 -0.2068
  686MOL0     C94540   5.062   8.467   8.340 -0.6243  0.1660  0.8114
  686MOL0     C94541   4.954   8.367   8.355 -0.0414  0.1382 -0.1866
  686MOL0     C94542   5.019   8.237   8.415 -0.8190 -0.3754  0.5840
  686MOL0     C94543   5.093   8.148   8.316 -0.4292  0.6562  0.3666
  686MOL0     C94544   5.189   8.047   8.382 -0.0686  0.2037  0.2389
  686MOL0     C94545   5.114   7.936   8.452  0.2317  0.3782  0.5239
  686MOL0     C94546   5.047   7.825   8.361 -0.5376 -0.1530  0.4230
  686MOL0     N94547   4.940   7.744   8.421 -0.0957  0.0874  0.6546
  686MOL0     C94548   4.962   7.631   8.484  0.7021  0.6427  0.4266
  686MOL0     C94549   4.839   7.598   8.536  0.5018 -0.1565  0.3179
  686MOL0     C94550   4.821   7.479   8.624  0.7262 -0.1099 -0.7424
  686MOL0     C94551   4.734   7.369   8.567  0.0334  0.5949 -0.6852
  686MOL0     C94552   4.778   7.234   8.638  0.7307  0.9586  0.4412
  686MOL0     C94553   4.728   7.221   8.779 -0.4999  0.0303 -0.7681
  686MOL0     O94554   4.801   7.309   8.870  0.0989 -0.8761 -0.3511
  686MOL0     C94555   4.918   7.292   8.931 -0.0671  0.5357 -0.9185
  686MOL0     C94556   5.002   7.181   8.919 -0.1141  0.5493  1.0235
  686MOL0     C94557   5.135   7.177   8.971  1.2294  1.0822 -0.1610
  686MOL0     C94558   5.229   7.065   8.931 -1.8191 -0.7535  0.0144
  686MOL0     C94559   5.184   7.285   9.050  0.3788  0.0186  0.0833
  686MOL0     C94560   5.324   7.306   9.085 -0.2871  0.4778 -0.6532
  686MOL0     O94561   5.393   7.196   9.139 -0.1811 -0.1251  0.8422
  686MOL0     C94562   5.508   7.230   9.205 -0.0396 -0.0304 -0.2322
  686MOL0     C94563   5.638   7.192   9.161  0.6416  0.9926  0.2077
  686MOL0     C94564   5.757   7.236   9.223  0.0094 -0.5176 -1.0909
  686MOL0     C94565   5.741   7.334   9.324  0.6546 -0.0376 -0.3303
  686MOL0     O94566   5.844   7.411   9.379  0.6023  0.3688  0.0375
  686MOL0     C94567   5.973   7.417   9.328 -0.9501  0.1412 -0.1113
  686MOL0     C94568   6.079   7.464   9.427  0.5929 -0.0799 -0.2853
  686MOL0     C94569   6.034   7.597   9.494 -0.2687 -1.0650  0.0803
  686MOL0     C94570   6.012   7.703   9.384 -0.0594 -0.5614 -0.1415
  686MOL0     C94571   5.989   7.845   9.432 -0.3341  0.1380 -0.2191
  686MOL0     C94572   6.112   7.894   9.516  0.0633  0.4344  0.9706
  686MOL0     C94573   6.088   8.045   9.553  0.0226 -0.1877 -0.4849
  686MOL0     C94574   6.001   8.055   9.691  0.8041  0.1309 -0.0339
  686MOL0    Cl94575   6.073   7.994   9.830  0.0208 -0.0037 -0.3954
  686MOL0     C94576   5.627   7.362   9.385 -0.2679  0.1603  0.0154
  686MOL0     C94577   5.504   7.308   9.323 -0.1031  0.2405 -0.5890
  686MOL0     O94578   5.361   7.425   9.095 -0.8620  0.0269 -0.9526
  686MOL0     C94579   5.089   7.391   9.080 -0.3047 -0.6191 -0.7970
  686MOL0     C94580   4.963   7.395   9.013  0.3760  0.4300 -0.3410
  686MOL0     N94581   4.754   7.705   8.502 -0.1946 -0.0974 -0.0766
  686MOL0     N94582   4.818   7.793   8.430 -0.0903  0.1102  0.0316
  686MOL0     C94583   4.892   8.732   8.035 -0.7985  0.3177  0.2616
  686MOL0     C94584   4.828   8.787   7.919 -0.6344  0.3900 -0.7286
  686MOL0     C94585   4.501   8.797   7.635  0.1925  0.1325  1.2368
  686MOL0     C94586   4.369   8.755   7.642  0.5846 -0.6012  0.2438
  686MOL0     C94587   4.265   8.803   7.558 -0.0800  0.3812  1.2515
  686MOL0     C94588   4.295   8.895   7.462  0.3123 -0.5170 -0.3744
  686MOL0     O94589   4.188   8.936   7.385 -0.0421  0.4747  0.1408
  686MOL0     C94590   4.209   8.983   7.246 -0.9492  0.1488 -0.1492
  686MOL0     C94591   4.148   9.111   7.204  0.2871  0.5296 -0.2585
  686MOL0     C94592   3.994   9.119   7.228  0.1932  0.4263  0.5782
  686MOL0     C94593   3.919   9.182   7.113  0.1849 -0.6384  0.3938
  686MOL0     C94594   3.966   9.316   7.083 -0.4329  0.4739  0.6824
  686MOL0     C94595   3.994   9.437   7.066 -0.5285  0.1567  0.1602
  686MOL0     C94596   4.427   8.929   7.443 -0.0078 -0.3467  0.5085
  686MOL0     C94597   4.527   8.889   7.532 -1.3476 -0.0917 -0.4027
  686MOL0     C94598   4.665   8.958   7.513  0.5220  0.4335 -0.4250
  686MOL0     H94599   4.871   8.541   7.696  0.1247  1.9851 -0.0567
  686MOL0     H94600   5.026   8.457   7.873 -2.6476 -0.7353  0.1517
  686MOL0     H94601   4.933   8.626   8.292  0.3456 -0.8780  1.7982
  686MOL0     H94602   5.112   8.655   8.262  0.4269 -1.2398  0.9773
  686MOL0     H94603   5.147   8.418   8.293  0.1070  2.6828 -0.6303
  686MOL0     H94604   5.098   8.500   8.438  0.9588 -1.8369  0.9818
  686MOL0     H94605   4.895   8.399   8.441  2.6044 -0.5704  2.0446
  686MOL0     H94606   4.891   8.351   8.266  2.8892  1.5362 -2.7169
  686MOL0     H94607   5.095   8.253   8.491  0.0841 -2.4398  0.1750
  686MOL0     H94608   4.931   8.184   8.454 -0.9966 -1.3138 -1.0223
  686MOL0     H94609   5.151   8.203   8.243 -0.0001 -1.7198 -1.1852
  686MOL0     H94610   5.015   8.100   8.256 -0.4913  0.1670  0.8292
  686MOL0     H94611   5.265   8.006   8.316 -2.3227 -2.4430 -0.9000
  686MOL0     H94612   5.256   8.097   8.453  3.2439 -1.6746 -1.3384
  686MOL0     H94613   5.042   7.977   8.523  0.0757  3.4091 -1.2085
  686MOL0     H94614   5.191   7.877   8.504  1.7552  2.2185  0.4611
  686MOL0     H94615   5.006   7.886   8.279  2.8068  0.0856 -1.2312
  686MOL0     H94616   5.121   7.759   8.317 -1.2429 -0.2957 -0.5798
  686MOL0     H94617   5.054   7.573   8.493 -0.2329 -0.6815  1.8220
  686MOL0     H94618   4.785   7.518   8.720 -0.4728  0.2875 -1.3369
  686MOL0     H94619   4.916   7.433   8.653 -0.1593 -0.9804  0.8915
  686MOL0     H94620   4.626   7.372   8.587  0.2346 -1.4212  1.0998
  686MOL0     H94621   4.746   7.362   8.458  1.2722  1.4724 -0.6181
  686MOL0     H94622   4.742   7.148   8.581  1.6412  0.3967  0.7102
  686MOL0     H94623   4.887   7.232   8.638  0.7658  0.4403 -1.6710
  686MOL0     H94624   4.621   7.240   8.786 -0.4360  0.5903 -1.2235
  686MOL0     H94625   4.750   7.123   8.823 -2.5026  0.7071  1.9774
  686MOL0     H94626   4.975   7.087   8.873  2.1538 -0.6434  1.9441
  686MOL0     H94627   5.255   6.999   9.013  0.4597 -1.0655 -0.8926
  686MOL0     H94628   5.328   7.101   8.900 -1.3683 -0.8455  1.3236
  686MOL0     H94629   5.184   7.021   8.841 -0.1402  2.9850 -2.9873
  686MOL0     H94630   5.636   7.143   9.064 -1.5794  1.0542  0.1712
  686MOL0     H94631   5.857   7.213   9.186  1.5763  1.7868  1.2830
  686MOL0     H94632   5.991   7.312   9.302 -2.9442 -0.8266  2.0296
  686MOL0     H94633   5.972   7.479   9.238 -1.9367  2.1165  1.1926
  686MOL0     H94634   6.087   7.385   9.503  0.5863 -1.7923 -1.9894
  686MOL0     H94635   6.180   7.479   9.388  0.6398 -0.0185 -0.1385
  686MOL0     H94636   6.110   7.638   9.562 -1.9802  0.6612  1.0755
  686MOL0     H94637   5.943   7.590   9.555  0.9610 -0.2645  2.1088
  686MOL0     H94638   5.925   7.676   9.323  0.7634 -1.9105 -0.7625
  686MOL0     H94639   6.105   7.710   9.326  1.0345  0.4826  1.6596
  686MOL0     H94640   5.977   7.916   9.350  1.4210  0.8096  0.0723
  686MOL0     H94641   5.897   7.846   9.492 -0.4715 -1.3402 -0.3578
  686MOL0     H94642   6.198   7.876   9.451 -0.7305 -2.0095  0.4899
  686MOL0     H94643   6.126   7.829   9.603  1.7336 -0.5544  0.0127
  686MOL0     H94644   6.027   8.085   9.471 -1.0266 -0.1541  0.2983
  686MOL0     H94645   6.182   8.102   9.547  0.5365 -0.9141  0.4084
  686MOL0     H94646   5.914   7.992   9.673  0.4007 -0.6904  3.9994
  686MOL0     H94647   5.977   8.161   9.706  0.9667  0.2409 -0.5008
  686MOL0     H94648   5.625   7.442   9.458  1.6233  2.7315 -2.5091
  686MOL0     H94649   5.415   7.356   9.361  1.0424  1.8376  0.1794
  686MOL0     H94650   5.118   7.474   9.143 -0.6375 -2.3254  1.7698
  686MOL0     H94651   4.890   7.474   9.029  0.0074 -0.4120  3.0195
  686MOL0     H94652   4.884   8.799   8.120 -0.3372  1.1164 -0.3109
  686MOL0     H94653   4.784   8.886   7.916 -2.3731 -0.3703 -2.7173
  686MOL0     H94654   4.336   8.686   7.719 -1.9488  0.0734 -0.1509
  686MOL0     H94655   4.162   8.770   7.566 -0.1036  0.5828  1.8028
  686MOL0     H94656   4.317   8.990   7.227 -0.8980 -1.5212 -0.6321
  686MOL0     H94657   4.168   8.901   7.187  0.1199 -0.6534  0.1900
  686MOL0     H94658   4.180   9.138   7.104  2.6379  2.8367  1.0005
  686MOL0     H94659   4.189   9.187   7.271 -0.5531  1.1544 -0.4306
  686MOL0     H94660   3.956   9.020   7.252  0.9633  0.2526  1.1361
  686MOL0     H94661   3.992   9.184   7.317  2.2427 -0.9668  1.7190
  686MOL0     H94662   3.812   9.189   7.136  0.4411  2.6364  1.0620
  686MOL0     H94663   3.928   9.126   7.020  0.6087  1.1275 -0.6767
  686MOL0     H94664   4.019   9.540   7.085  2.9395 -0.5122 -0.1375
  686MOL0     H94665   4.459   9.002   7.370 -1.4503  2.1776  2.2502
  686MOL0     H94666   4.684   9.010   7.607 -1.3594  0.1232  0.1809
  686MOL0     H94667   4.745   8.886   7.496 -1.8259 -2.5047  0.0128
  686MOL0     H94668   4.663   9.042   7.443 -2.8358 -0.5579 -1.7719
  687MOL0     O94669   3.853  10.708  10.476 -0.2841 -0.0291  0.3846
  687MOL0     C94670   3.873  10.817  10.425  0.1029 -0.0369 -0.3023
  687MOL0     O94671   3.998  10.868  10.399 -0.1895 -0.1096  0.1434
  687MOL0     C94672   4.113  10.796  10.418  0.3032  0.8785  0.6377
  687MOL0     C94673   4.219  10.816  10.326  1.1700 -0.0845 -0.2903
  687MOL0     C94674   4.339  10.746  10.341 -0.9208  0.1369  0.0208
  687MOL0     C94675   4.369  10.675  10.459 -0.7206  0.0616  0.4020
  687MOL0     O94676   4.484  10.603  10.483 -0.4602 -0.2225  0.4972
  687MOL0     C94677   4.610  10.657  10.439  0.1391  0.9836 -0.4713
  687MOL0     C94678   4.733  10.582  10.493  0.4968 -0.0678  0.3181
  687MOL0     C94679   4.851  10.643  10.413  0.8172  0.3893  0.5922
  687MOL0     C94680   4.976  10.595  10.475 -0.0325  0.3971 -0.0083
  687MOL0     C94681   5.098  10.661  10.403  0.3568 -0.0627  0.3313
  687MOL0     C94682   5.224  10.611  10.481  0.1143 -0.3734 -0.2101
  687MOL0     C94683   5.357  10.664  10.431  0.8679 -0.1832  0.4966
  687MOL0     C94684   5.377  10.809  10.451  0.9631 -1.4972 -0.6881
  687MOL0     N94685   5.501  10.869  10.400 -0.4953 -0.7466  0.3019
  687MOL0     C94686   5.509  10.919  10.265  0.2105 -0.4945 -0.0081
  687MOL0     C94687   5.634  10.977  10.262  0.6727  0.1339 -0.6181
  687MOL0     C94688   5.690  11.039  10.139  0.4817  0.0517 -0.4513
  687MOL0     C94689   5.823  11.114  10.168  0.4854 -0.5127 -0.3795
  687MOL0     C94690   5.948  11.026  10.202 -0.8243 -0.4551  0.0211
  687MOL0     C94691   6.079  11.111  10.195  0.0203  0.3973 -0.6049
  687MOL0     O94692   6.069  11.222  10.291  0.2419 -0.7997  0.1795
  687MOL0     C94693   6.154  11.324  10.258  0.5233  0.2933  0.3062
  687MOL0     C94694   6.099  11.430  10.185 -0.3288  0.5565  0.6477
  687MOL0     C94695   6.177  11.537  10.147 -0.3534 -0.2006 -0.5925
  687MOL0     C94696   6.123  11.653  10.064 -0.4093 -0.6969 -0.8052
  687MOL0     C94697   6.313  11.543  10.188 -0.5748  0.8224  0.1108
  687MOL0     C94698   6.402  11.651  10.148 -0.2399 -0.1827  0.0398
  687MOL0     O94699   6.529  11.622  10.103  0.0580  0.6521 -0.1952
  687MOL0     C94700   6.612  11.733  10.075  0.2400 -0.0778  0.0517
  687MOL0     C94701   6.571  11.840   9.994  0.7958  0.8504  1.1441
  687MOL0     C94702   6.659  11.931   9.940 -0.9137 -0.5881 -0.8208
  687MOL0     C94703   6.797  11.914   9.969  0.6605 -0.1757  1.1496
  687MOL0     O94704   6.893  11.991   9.911 -0.1929  0.7835  0.3935
  687MOL0     C94705   6.888  12.130   9.926  0.4627 -0.7791  0.4988
  687MOL0     C94706   6.959  12.180  10.050  0.2875  0.0671 -0.8491
  687MOL0     C94707   6.969  12.326  10.041 -0.0402  0.3578  0.8038
  687MOL0     C94708   7.079  12.395   9.946 -0.0585  0.2565  0.6694
  687MOL0     C94709   7.221  12.334   9.964  0.1388  0.1202  0.6515
  687MOL0     C94710   7.312  12.410   9.864  0.9215  0.6672 -0.3268
  687MOL0     C94711   7.460  12.391   9.892  0.2340 -0.2712  0.2267
  687MOL0     C94712   7.536  12.281   9.823  0.3020  0.8917 -0.1320
  687MOL0    Cl94713   7.714  12.284   9.872 -0.2421 -0.0280  0.1901
  687MOL0     C94714   6.834  11.815  10.052 -0.8406  0.2303  0.0993
  687MOL0     C94715   6.744  11.718  10.101 -0.5914  0.2515 -0.2115
  687MOL0     O94716   6.359  11.763  10.178  0.0907 -0.5542 -0.2044
  687MOL0     C94717   6.369  11.432  10.261 -0.2349  0.4904  0.3286
  687MOL0     C94718   6.288  11.324  10.293 -0.0201  0.4997 -0.3982
  687MOL0     N94719   5.696  10.944  10.379 -0.4028  0.5282 -0.2570
  687MOL0     N94720   5.625  10.867  10.455 -0.1437 -0.6622 -0.6880
  687MOL0     C94721   4.268  10.661  10.555 -0.5890  0.4247  0.6713
  687MOL0     C94722   4.145  10.718  10.533  0.0991 -0.1852  0.6010
  687MOL0     C94723   3.769  10.915  10.388  0.0725  0.5948 -0.5134
  687MOL0     C94724   3.792  11.020  10.293 -0.1131 -0.4231 -1.1527
  687MOL0     C94725   3.692  11.099  10.242  0.6633  0.0518  0.3976
  687MOL0     C94726   3.570  11.085  10.291 -0.1042 -0.0233  0.0823
  687MOL0     O94727   3.472  11.162  10.234  0.2235 -0.1704  0.1769
  687MOL0     C94728   3.397  11.244  10.329 -0.9238 -0.1800  0.3461
  687MOL0     C94729   3.345  11.356  10.231 -0.0376 -1.3738 -0.4983
  687MOL0     C94730   3.206  11.327  10.173 -0.0204 -0.1104  0.5917
  687MOL0     C94731   3.146  11.459  10.128 -0.3484 -0.6394  0.4242
  687MOL0     C94732   3.011  11.437  10.074 -0.3099 -0.6428  0.0554
  687MOL0     C94733   2.898  11.419  10.043 -0.0509  0.1635  0.7740
  687MOL0     C94734   3.538  10.995  10.387  0.0568  0.0004  0.6607
  687MOL0     C94735   3.635  10.909  10.443 -1.1991 -0.4388  0.6633
  687MOL0     C94736   3.602  10.820  10.560  0.0655 -0.0135  1.3130
  687MOL0     H94737   4.191  10.871  10.237 -4.0014 -0.7239  0.6272
  687MOL0     H94738   4.418  10.750  10.266 -0.0941  3.2833  0.9076
  687MOL0     H94739   4.623  10.759  10.477  1.2117  0.7158 -0.0609
  687MOL0     H94740   4.619  10.664  10.330  1.1614 -3.4565 -0.8599
  687MOL0     H94741   4.744  10.586  10.602 -0.1550  0.5233  0.3672
  687MOL0     H94742   4.718  10.480  10.457 -0.0986  0.3237 -0.5821
  687MOL0     H94743   4.845  10.589  10.318 -1.1007  0.7191  0.4897
  687MOL0     H94744   4.847  10.752  10.406  1.5137  0.3136 -1.4329
  687MOL0     H94745   4.963  10.613  10.582 -2.2075 -0.7475 -0.0386
  687MOL0     H94746   4.975  10.486  10.466 -4.2248  0.3033 -0.3305
  687MOL0     H94747   5.089  10.770  10.399 -1.4772 -0.2183 -0.6450
  687MOL0     H94748   5.087  10.630  10.299 -0.1392 -0.7173  0.5793
  687MOL0     H94749   5.220  10.620  10.590  1.4757  4.4129 -0.3603
  687MOL0     H94750   5.228  10.503  10.466 -0.4713 -0.3173 -0.8347
  687MOL0     H94751   5.356  10.636  10.325 -0.9468  0.6534  0.2619
  687MOL0     H94752   5.440  10.613  10.480  0.2182 -0.6722  1.0960
  687MOL0     H94753   5.298  10.868  10.404  2.6475  0.7869 -0.8051
  687MOL0     H94754   5.378  10.822  10.560 -2.4079 -0.3327 -0.6655
  687MOL0     H94755   5.438  10.925  10.184  0.0805  1.2713  0.2066
  687MOL0     H94756   5.620  11.099  10.081  2.1625  2.0291 -0.6046
  687MOL0     H94757   5.725  10.958  10.074  0.5150  1.4366 -2.2378
  687MOL0     H94758   5.847  11.178  10.082  0.1176 -0.0133 -0.1171
  687MOL0     H94759   5.810  11.189  10.246  0.4357 -1.8499  0.9433
  687MOL0     H94760   5.940  10.981  10.301  2.1679  2.5584  1.8368
  687MOL0     H94761   5.959  10.944  10.131 -0.3689  0.8539 -1.4771
  687MOL0     H94762   6.170  11.056  10.220 -0.2745  0.3948  0.4900
  687MOL0     H94763   6.074  11.145  10.091 -1.9607  2.6717  0.1402
  687MOL0     H94764   5.993  11.429  10.163  0.0464  0.2081 -1.2598
  687MOL0     H94765   6.025  11.630  10.020 -1.7756 -2.3933  2.6985
  687MOL0     H94766   6.189  11.677   9.981  2.6901 -1.2532  1.3237
  687MOL0     H94767   6.114  11.741  10.129  2.0278 -1.3321  0.5239
  687MOL0     H94768   6.464  11.845   9.981  1.1232  0.5382 -3.2286
  687MOL0     H94769   6.618  12.019   9.891 -1.7902  0.7743  2.1093
  687MOL0     H94770   6.944  12.168   9.840  2.0620 -1.9468  0.9715
  687MOL0     H94771   6.787  12.168   9.938  0.7056  0.5198 -1.1724
  687MOL0     H94772   6.898  12.143  10.133  1.5068 -0.8631 -0.3353
  687MOL0     H94773   7.059  12.137  10.045  0.8680  1.1785  0.4728
  687MOL0     H94774   6.965  12.360  10.145 -1.5119  0.7744  0.6416
  687MOL0     H94775   6.878  12.365   9.994  0.1730 -2.1138 -1.9029
  687MOL0     H94776   7.081  12.500   9.976  2.5998 -0.3030  2.8164
  687MOL0     H94777   7.054  12.381   9.840 -0.1673 -1.8257  0.9229
  687MOL0     H94778   7.253  12.353  10.067  2.0858 -3.9960  0.9917
  687MOL0     H94779   7.227  12.228   9.941  2.6458  0.7208 -2.0542
  687MOL0     H94780   7.291  12.513   9.894  0.3229 -0.0987  2.0818
  687MOL0     H94781   7.285  12.398   9.758 -2.1930 -2.2040  0.6281
  687MOL0     H94782   7.480  12.376   9.998 -1.7760 -1.2954  0.5234
  687MOL0     H94783   7.496  12.491   9.867 -0.2525  0.0803  0.8917
  687MOL0     H94784   7.526  12.294   9.715  3.3116 -0.6262 -0.7039
  687MOL0     H94785   7.487  12.187   9.850 -1.0857  1.1776 -1.5115
  687MOL0     H94786   6.933  11.800  10.096 -0.1821 -0.1289 -1.4396
  687MOL0     H94787   6.773  11.638  10.168  1.6767  0.7824 -0.4981
  687MOL0     H94788   6.471  11.422  10.298 -0.2336 -0.5696  0.0723
  687MOL0     H94789   6.334  11.239  10.344 -0.7154  1.3779  1.8247
  687MOL0     H94790   4.294  10.601  10.642 -3.4413 -0.5135  0.9774
  687MOL0     H94791   4.072  10.709  10.613  0.6938  0.8128  1.2833
  687MOL0     H94792   3.894  11.028  10.255  1.0504 -0.6867  1.6735
  687MOL0     H94793   3.711  11.179  10.171 -0.0861  0.0811  0.2167
  687MOL0     H94794   3.313  11.202  10.385  0.4288  1.1741  3.6764
  687MOL0     H94795   3.468  11.283  10.402 -0.4150 -3.4861  1.8069
  687MOL0     H94796   3.428  11.374  10.162  0.0235 -0.4938 -0.2139
  687MOL0     H94797   3.340  11.451  10.285  1.2353 -1.0128 -0.9788
  687MOL0     H94798   3.208  11.258  10.088  1.0596 -0.3827  0.8219
  687MOL0     H94799   3.148  11.288  10.258  0.2509 -0.9446  0.3990
  687MOL0     H94800   3.206  11.515  10.057 -2.1261 -0.2333 -0.8240
  687MOL0     H94801   3.131  11.524  10.215  0.8936  0.7255 -0.3437
  687MOL0     H94802   2.795  11.412  10.016  0.5302  1.9979 -2.3487
  687MOL0     H94803   3.441  10.980  10.432  0.7313  3.3619  3.7833
  687MOL0     H94804   3.604  10.718  10.522 -3.1529  0.9650 -2.0484
  687MOL0     H94805   3.686  10.828  10.630 -0.8445 -0.9736  2.5634
  687MOL0     H94806   3.504  10.826  10.608 -2.3557 -2.4792 -2.7933
  688MOL0     O94807   3.936   3.787   5.667 -0.2795 -0.5286  0.5056
  688MOL0     C94808   3.977   3.671   5.678 -0.2345  0.1472  0.7396
  688MOL0     O94809   4.104   3.627   5.658  0.1022 -0.0194 -0.2843
  688MOL0     C94810   4.194   3.709   5.589 -0.0879  0.2356  0.5527
  688MOL0     C94811   4.229   3.833   5.642 -0.3453  0.8238 -0.5776
  688MOL0     C94812   4.312   3.922   5.584  1.2121 -0.7597 -0.1043
  688MOL0     C94813   4.375   3.888   5.468 -0.2396 -0.8104  0.3092
  688MOL0     O94814   4.463   3.974   5.410  0.3985 -0.3144 -0.0616
  688MOL0     C94815   4.457   4.111   5.435  0.9283 -0.3615 -0.2845
  688MOL0     C94816   4.566   4.177   5.352  0.6057  0.1565  0.4595
  688MOL0     C94817   4.620   4.303   5.411 -0.5560 -0.0167  0.0535
  688MOL0     C94818   4.774   4.323   5.403 -0.7139 -0.0288  1.0881
  688MOL0     C94819   4.851   4.221   5.479 -0.0895 -0.2161 -0.2549
  688MOL0     C94820   4.943   4.140   5.388 -0.3203  0.1850 -0.2601
  688MOL0     C94821   5.002   4.024   5.470  0.5869 -0.5266  0.8420
  688MOL0     C94822   5.094   3.924   5.395 -0.0541  0.4403  1.5475
  688MOL0     N94823   5.230   3.967   5.401  0.0397  0.6481  0.3625
  688MOL0     C94824   5.321   3.979   5.504 -0.6870 -0.6436  0.5178
  688MOL0     C94825   5.435   4.025   5.439  0.5652  0.0259  0.4649
  688MOL0     C94826   5.566   4.059   5.496  0.4405  0.3671  0.1028
  688MOL0     C94827   5.569   4.205   5.544 -0.0101 -0.4214  0.3244
  688MOL0     C94828   5.560   4.305   5.430  0.2153  0.3999 -0.1761
  688MOL0     C94829   5.421   4.372   5.414  0.1147  0.1847  0.0146
  688MOL0     O94830   5.394   4.458   5.532  0.0615 -0.2671  0.5377
  688MOL0     C94831   5.281   4.531   5.543  0.0098  0.3050 -0.5495
  688MOL0     C94832   5.274   4.631   5.642 -1.0191  0.3359  0.2935
  688MOL0     C94833   5.155   4.706   5.652  0.8621 -0.0522 -0.3142
  688MOL0     C94834   5.146   4.807   5.770 -0.7869  0.6788 -0.1024
  688MOL0     C94835   5.040   4.685   5.569  0.0947 -0.0183  0.6233
  688MOL0     C94836   4.911   4.758   5.572  1.3659  0.2746 -0.2932
  688MOL0     O94837   4.812   4.708   5.489 -0.1783 -0.0628  0.5935
  688MOL0     C94838   4.699   4.769   5.485  0.0064 -0.3619 -0.1127
  688MOL0     C94839   4.661   4.843   5.370 -0.4942  0.4228  0.3354
  688MOL0     C94840   4.537   4.913   5.371  0.1443 -0.2275  0.7427
  688MOL0     C94841   4.447   4.909   5.476 -0.5796  0.2149  0.0524
  688MOL0     O94842   4.327   4.975   5.487 -0.6683 -0.4235 -0.3703
  688MOL0     C94843   4.281   5.053   5.377 -0.0112  0.0013  0.0155
  688MOL0     C94844   4.129   5.094   5.392 -0.3039 -0.0554  0.5204
  688MOL0     C94845   4.032   4.977   5.399  0.0782 -0.5365 -0.1893
  688MOL0     C94846   3.888   5.023   5.419  0.4781  0.4286  0.1535
  688MOL0     C94847   3.792   4.907   5.424 -0.1740 -0.0776 -0.5349
  688MOL0     C94848   3.649   4.940   5.465 -0.4891 -0.3474  1.1576
  688MOL0     C94849   3.564   4.818   5.418 -0.9091 -0.1052  0.1023
  688MOL0     C94850   3.431   4.859   5.369  0.0344 -0.5093  0.0062
  688MOL0    Cl94851   3.338   4.702   5.347 -0.1967  0.4864 -0.1152
  688MOL0     C94852   4.489   4.827   5.584 -0.0140 -0.7348 -0.5715
  688MOL0     C94853   4.606   4.759   5.585  0.6883 -0.0833 -0.2297
  688MOL0     O94854   4.892   4.851   5.654 -0.0084  0.6446 -0.2874
  688MOL0     C94855   5.065   4.599   5.456  0.1632  0.4614 -0.3325
  688MOL0     C94856   5.181   4.518   5.450  0.3623 -0.6728 -1.0045
  688MOL0     N94857   5.413   4.043   5.304  0.9069 -0.6007  0.7158
  688MOL0     N94858   5.290   4.008   5.285 -0.5357  0.2297 -0.2081
  688MOL0     C94859   4.350   3.758   5.415 -0.1481  0.2963  0.7366
  688MOL0     C94860   4.255   3.667   5.474  1.2975 -0.4870 -0.0795
  688MOL0     C94861   3.893   3.577   5.749  0.0868 -0.3929  0.5483
  688MOL0     C94862   3.943   3.496   5.845  0.7669  0.2584 -0.4518
  688MOL0     C94863   3.854   3.411   5.915 -0.7583 -0.0794  0.3988
  688MOL0     C94864   3.721   3.405   5.892  0.4230  0.3818 -0.7803
  688MOL0     O94865   3.634   3.331   5.967 -0.7381  0.1580  0.2047
  688MOL0     C94866   3.680   3.248   6.072  0.0371  0.0635 -1.0344
  688MOL0     C94867   3.555   3.190   6.128  0.3224 -0.3157 -0.7749
  688MOL0     C94868   3.470   3.297   6.199  0.8612 -0.6925 -0.1170
  688MOL0     C94869   3.515   3.338   6.336 -0.6775  0.1444 -0.7430
  688MOL0     C94870   3.537   3.482   6.352 -0.8801 -0.0805  0.5116
  688MOL0     C94871   3.561   3.600   6.352 -0.7049 -0.4667 -0.0731
  688MOL0     C94872   3.673   3.478   5.789 -0.0397 -0.2470  0.4646
  688MOL0     C94873   3.752   3.565   5.715 -0.5741  1.1580  0.0489
  688MOL0     C94874   3.676   3.640   5.600 -1.0635  0.2052  0.6606
  688MOL0     H94875   4.180   3.841   5.739 -1.7471 -1.1496 -1.0540
  688MOL0     H94876   4.319   4.022   5.625 -2.8871  0.4579 -1.9446
  688MOL0     H94877   4.464   4.140   5.540  0.7026  1.1121 -0.6497
  688MOL0     H94878   4.369   4.160   5.392 -0.3061 -2.4860 -0.3265
  688MOL0     H94879   4.651   4.109   5.338 -0.0052 -0.3825 -0.7692
  688MOL0     H94880   4.531   4.180   5.248  2.8665 -2.5192 -0.5151
  688MOL0     H94881   4.580   4.386   5.353 -1.4916 -0.1816  0.4480
  688MOL0     H94882   4.580   4.328   5.509 -3.6650 -0.3998 -1.0014
  688MOL0     H94883   4.809   4.321   5.299 -1.2408 -0.4862  0.9165
  688MOL0     H94884   4.804   4.424   5.433 -0.8286  0.4109 -0.2162
  688MOL0     H94885   4.783   4.154   5.531 -1.1766  2.2123  1.6485
  688MOL0     H94886   4.909   4.277   5.553  0.4886  2.5689 -2.5976
  688MOL0     H94887   4.892   4.109   5.296 -0.3880  0.4511 -0.3124
  688MOL0     H94888   5.023   4.202   5.346 -1.6555 -0.0926 -3.5437
  688MOL0     H94889   4.914   3.969   5.505  0.4710 -1.1973 -0.4098
  688MOL0     H94890   5.044   4.055   5.566  1.6413 -0.7772  0.4779
  688MOL0     H94891   5.084   3.824   5.440 -0.5736  0.8490  2.3681
  688MOL0     H94892   5.073   3.905   5.290  2.1121 -0.0057  1.1411
  688MOL0     H94893   5.304   3.961   5.610 -0.5496  1.1414  0.8712
  688MOL0     H94894   5.642   4.051   5.417  0.4768 -3.9000  0.3223
  688MOL0     H94895   5.594   3.993   5.579 -0.7911 -0.9074 -0.4437
  688MOL0     H94896   5.485   4.225   5.611  2.9592  2.9365  3.5653
  688MOL0     H94897   5.662   4.230   5.596  0.9727 -0.0236 -1.5380
  688MOL0     H94898   5.640   4.376   5.455  1.0073 -0.8518  0.9964
  688MOL0     H94899   5.585   4.254   5.336  1.5673  0.1630  0.2879
  688MOL0     H94900   5.415   4.430   5.322  0.3084 -1.5290 -1.1084
  688MOL0     H94901   5.341   4.299   5.409  0.0573  0.3146 -1.2985
  688MOL0     H94902   5.365   4.641   5.700 -0.3410 -1.7362 -0.2924
  688MOL0     H94903   5.063   4.781   5.836 -0.1040  0.0324  0.5251
  688MOL0     H94904   5.124   4.907   5.733 -0.1212  0.5205 -0.9508
  688MOL0     H94905   5.242   4.806   5.823 -0.1173 -1.1925 -1.2777
  688MOL0     H94906   4.740   4.849   5.296  1.0736 -0.0854  1.9128
  688MOL0     H94907   4.518   4.975   5.284  2.4220 -1.9291 -1.1321
  688MOL0     H94908   4.344   5.142   5.388  0.7252 -0.4958 -0.1459
  688MOL0     H94909   4.297   5.008   5.279  0.7795 -0.0709  0.1695
  688MOL0     H94910   4.120   5.153   5.483  0.9291 -0.0424  0.6521
  688MOL0     H94911   4.097   5.155   5.306  0.1607  0.6844  0.8645
  688MOL0     H94912   4.054   4.919   5.489 -0.2329  0.6670  0.6848
  688MOL0     H94913   4.042   4.916   5.308 -1.2657  2.9383 -2.8877
  688MOL0     H94914   3.862   5.087   5.335  0.3601  0.8714  0.5249
  688MOL0     H94915   3.883   5.079   5.512 -0.7826 -0.2233  0.5039
  688MOL0     H94916   3.791   4.857   5.326  0.8206 -1.1616 -0.0131
  688MOL0     H94917   3.831   4.834   5.496 -2.6222 -1.0137 -0.0633
  688MOL0     H94918   3.617   5.024   5.402  0.7492  0.0173  0.9894
  688MOL0     H94919   3.644   4.973   5.569 -0.3407  1.0705  0.7280
  688MOL0     H94920   3.542   4.762   5.509  0.3192  0.2513  0.6384
  688MOL0     H94921   3.610   4.757   5.340 -0.4865 -1.1115  1.1258
  688MOL0     H94922   3.441   4.911   5.274 -0.3755 -0.1476  0.1572
  688MOL0     H94923   3.384   4.922   5.445 -0.7939  0.0431 -0.9453
  688MOL0     H94924   4.413   4.806   5.659 -1.7111 -1.0056 -2.2929
  688MOL0     H94925   4.629   4.702   5.675 -0.5750  1.0550  0.8499
  688MOL0     H94926   4.987   4.579   5.383  2.3605 -1.7011 -2.2577
  688MOL0     H94927   5.177   4.439   5.376 -0.1121 -0.7303 -0.9215
  688MOL0     H94928   4.406   3.735   5.325  0.3666  1.8193  0.6389
  688MOL0     H94929   4.245   3.567   5.434 -1.9678 -0.5282  0.5479
  688MOL0     H94930   4.051   3.503   5.859  0.6012  1.4252  0.4068
  688MOL0     H94931   3.890   3.352   5.998 -0.3665 -0.5148 -0.0739
  688MOL0     H94932   3.756   3.174   6.045  2.0705  0.8044  2.1327
  688MOL0     H94933   3.730   3.308   6.149  1.4091 -1.0904 -0.9801
  688MOL0     H94934   3.577   3.105   6.193  1.3674 -0.6660 -1.5764
  688MOL0     H94935   3.498   3.144   6.047 -2.8199  1.2049  0.4079
  688MOL0     H94936   3.464   3.385   6.134  0.4361 -0.6816 -0.0645
  688MOL0     H94937   3.367   3.261   6.203  0.7359 -0.3072  0.2262
  688MOL0     H94938   3.602   3.279   6.366 -0.7015  1.5988  2.5580
  688MOL0     H94939   3.437   3.306   6.406  0.4364  0.9481  0.9157
  688MOL0     H94940   3.573   3.707   6.358  0.9511 -0.5183 -1.5224
  688MOL0     H94941   3.569   3.462   5.766  0.6469 -2.0126 -1.7098
  688MOL0     H94942   3.653   3.738   5.642  0.3425  0.4485  0.9021
  688MOL0     H94943   3.740   3.656   5.513  1.9929 -2.6427  2.1838
  688MOL0     H94944   3.582   3.593   5.571 -1.0467  0.9181 -0.6082
  689MOL0     O94945  10.774   4.130   6.843 -0.1313  0.3657 -0.0623
  689MOL0     C94946  10.729   4.080   6.737 -0.0629 -0.0970  0.3600
  689MOL0     O94947  10.806   4.054   6.623  0.4982  0.6745 -0.1377
  689MOL0     C94948  10.938   4.070   6.629  0.3175 -1.0426  0.0278
  689MOL0     C94949  11.010   3.976   6.698 -0.4922  0.1231 -0.0700
  689MOL0     C94950  11.154   3.985   6.715 -0.1882  0.1281 -0.2682
  689MOL0     C94951  11.220   4.095   6.662 -0.1322  0.1096 -0.2548
  689MOL0     O94952  11.351   4.115   6.671 -0.4686 -0.2067  0.0516
  689MOL0     C94953  11.438   4.035   6.758  0.0644  0.0543  0.0927
  689MOL0     C94954  11.578   4.079   6.713 -0.3935 -0.1853  0.2668
  689MOL0     C94955  11.680   3.997   6.775 -0.6228 -0.1302 -0.1605
  689MOL0     C94956  11.817   4.038   6.712 -1.0196 -0.0614 -0.7087
  689MOL0     C94957  11.927   3.954   6.779  0.5473  0.1521  0.1204
  689MOL0     C94958  11.982   4.027   6.903  1.4357  0.0773  0.0711
  689MOL0     C94959  12.089   3.957   6.964 -0.2836  0.8647 -0.4221
  689MOL0     C94960  12.111   4.011   7.106  0.2071  0.1839  0.3066
  689MOL0     N94961  12.146   4.159   7.103  0.0186  0.2369 -0.7549
  689MOL0     C94962  12.100   4.249   7.191 -0.2168 -0.1307 -0.1877
  689MOL0     C94963  12.180   4.357   7.175  0.1951  0.0306 -0.4892
  689MOL0     C94964  12.160   4.485   7.265 -0.5756  0.4495 -0.2028
  689MOL0     C94965  12.268   4.494   7.382 -0.6092 -0.5764 -0.2467
  689MOL0     C94966  12.409   4.512   7.337  0.0845  0.8063  0.9385
  689MOL0     C94967  12.512   4.553   7.440 -0.8086 -0.3734  0.8935
  689MOL0     O94968  12.490   4.681   7.510  0.2819 -0.8197 -0.0670
  689MOL0     C94969  12.562   4.723   7.618 -0.3713 -0.0794 -0.1224
  689MOL0     C94970  12.670   4.649   7.675  1.5755  0.9844  0.0894
  689MOL0     C94971  12.741   4.698   7.786 -0.2804 -0.0740 -0.0164
  689MOL0     C94972  12.873   4.633   7.821 -0.1474  1.0658 -0.5275
  689MOL0     C94973  12.707   4.825   7.836 -0.9181  0.2070  0.3345
  689MOL0     C94974  12.802   4.896   7.926  0.3846  0.3135 -0.1894
  689MOL0     O94975  12.847   4.823   8.035 -0.1663 -0.5199 -0.0920
  689MOL0     C94976  12.931   4.872   8.126 -0.4618 -0.9531 -0.5244
  689MOL0     C94977  12.897   4.883   8.263  0.5455 -0.0604  0.8703
  689MOL0     C94978  12.994   4.915   8.354 -0.0271 -0.6413 -0.3411
  689MOL0     C94979  13.119   4.950   8.319 -0.0571  0.3882 -0.3171
  689MOL0     O94980  13.190   5.029   8.408 -0.2441  0.3392  1.0316
  689MOL0     C94981  13.333   5.016   8.410 -0.0630 -0.2800  0.0734
  689MOL0     C94982  13.394   5.068   8.547  0.3390 -0.6963  0.5055
  689MOL0     C94983  13.340   4.978   8.658  0.8793  0.2941  0.3112
  689MOL0     C94984  13.420   4.842   8.650 -0.4890 -0.6117  0.2115
  689MOL0     C94985  13.536   4.836   8.762 -0.3419  0.3325  0.7698
  689MOL0     C94986  13.679   4.899   8.726 -0.5209  0.2161 -0.1618
  689MOL0     C94987  13.756   4.905   8.855  0.6497  0.2327  0.2771
  689MOL0     C94988  13.728   5.031   8.938 -0.6723  0.2446  0.0498
  689MOL0    Cl94989  13.815   5.020   9.099 -0.2937 -0.2419 -0.7965
  689MOL0     C94990  13.158   4.946   8.183  0.4956  0.9132 -0.4922
  689MOL0     C94991  13.062   4.907   8.086  0.8126  0.5634  0.6359
  689MOL0     O94992  12.838   5.013   7.904 -0.3241  0.1793  0.5246
  689MOL0     C94993  12.595   4.895   7.783  0.3327  0.2662  0.5213
  689MOL0     C94994  12.524   4.848   7.677 -0.1993 -0.0413 -0.1817
  689MOL0     N94995  12.262   4.338   7.066 -0.0691 -0.3489 -0.1648
  689MOL0     N94996  12.247   4.213   7.033  0.0711  0.1101 -0.1008
  689MOL0     C94997  11.146   4.191   6.584 -0.5433  0.5548  0.1815
  689MOL0     C94998  11.008   4.179   6.567  0.2933  1.0224 -0.2232
  689MOL0     C94999  10.585   4.017   6.750 -0.8511 -0.8023  0.2011
  689MOL0     C95000  10.542   3.943   6.632  1.0314  0.9648  0.7517
  689MOL0     C95001  10.412   3.889   6.632  0.3895 -0.1552 -0.6906
  689MOL0     C95002  10.329   3.916   6.736  0.4030  0.2282  0.0618
  689MOL0     O95003  10.209   3.851   6.729  0.7327  0.2657 -0.6303
  689MOL0     C95004  10.100   3.934   6.775 -0.2698 -0.0632 -0.0601
  689MOL0     C95005  10.013   3.854   6.868  0.3048  0.0812 -1.1041
  689MOL0     C95006  10.094   3.804   6.991  0.0044  0.0132  0.2700
  689MOL0     C95007   9.995   3.732   7.086 -0.4914  0.7629  0.2396
  689MOL0     C95008  10.060   3.647   7.181  0.3263  0.5053 -0.3691
  689MOL0     C95009  10.113   3.582   7.261 -0.9653 -0.2665 -0.1948
  689MOL0     C95010  10.369   3.989   6.849 -0.3077  0.9140 -1.0259
  689MOL0     C95011  10.498   4.044   6.863 -0.9038 -0.0884  0.1114
  689MOL0     C95012  10.539   4.122   6.986 -0.1832  0.3608 -0.3663
  689MOL0     H95013  10.965   3.887   6.741  0.3179 -0.6119 -0.7016
  689MOL0     H95014  11.201   3.902   6.768 -1.6072 -0.0359  0.7761
  689MOL0     H95015  11.420   3.928   6.743  3.3317 -0.4932 -0.8631
  689MOL0     H95016  11.420   4.059   6.864  1.0839  2.1089 -0.1550
  689MOL0     H95017  11.568   4.068   6.605 -0.6873 -1.7654  0.4263
  689MOL0     H95018  11.585   4.182   6.750 -0.7528 -0.0391 -0.0691
  689MOL0     H95019  11.673   4.014   6.883  1.8303  0.7576 -0.0718
  689MOL0     H95020  11.658   3.891   6.756  1.0643 -0.2490 -1.7165
  689MOL0     H95021  11.815   4.010   6.607 -2.3942 -1.8184 -0.2635
  689MOL0     H95022  11.829   4.147   6.721 -1.9804  0.1809 -2.1224
  689MOL0     H95023  12.015   3.941   6.715 -1.0491  0.0595 -2.1668
  689MOL0     H95024  11.877   3.863   6.812 -1.1919  0.8045 -0.5585
  689MOL0     H95025  12.017   4.128   6.880  0.8861  0.2043 -0.2245
  689MOL0     H95026  11.903   4.040   6.977  1.1134  3.6458 -0.6931
  689MOL0     H95027  12.180   3.965   6.903 -0.2490  1.5488 -0.2917
  689MOL0     H95028  12.065   3.851   6.976 -0.7538  1.1942  2.3946
  689MOL0     H95029  12.018   4.001   7.163 -0.5688  3.0486 -0.2749
  689MOL0     H95030  12.192   3.956   7.154 -0.7930 -1.2621  0.4032
  689MOL0     H95031  12.019   4.242   7.263  1.8784  1.1497  2.4402
  689MOL0     H95032  12.062   4.483   7.312 -0.6964 -0.0581 -0.4676
  689MOL0     H95033  12.179   4.565   7.193  0.9065 -1.4352 -2.0471
  689MOL0     H95034  12.240   4.577   7.448 -4.0700 -1.2816 -0.6073
  689MOL0     H95035  12.262   4.401   7.439 -1.5475  0.2020  0.9757
  689MOL0     H95036  12.440   4.420   7.288  1.3140 -0.2873  3.5682
  689MOL0     H95037  12.409   4.596   7.266  0.5593  1.0566  1.2292
  689MOL0     H95038  12.525   4.475   7.516  0.3400  0.9270  2.0936
  689MOL0     H95039  12.610   4.557   7.392 -1.6082 -0.5916 -0.8081
  689MOL0     H95040  12.702   4.557   7.627 -0.4553 -0.4930  1.4126
  689MOL0     H95041  12.876   4.537   7.768 -0.1870 -0.5878  2.2908
  689MOL0     H95042  12.888   4.617   7.928  0.6675 -1.0793 -0.8984
  689MOL0     H95043  12.964   4.688   7.793 -0.3933  0.1990 -3.3312
  689MOL0     H95044  12.795   4.849   8.280  0.5067  0.2772  1.3304
  689MOL0     H95045  12.949   4.908   8.453 -0.4087 -0.6203 -0.5125
  689MOL0     H95046  13.366   4.914   8.389  2.0320  0.5731 -1.1582
  689MOL0     H95047  13.379   5.071   8.327 -1.4512 -1.7078 -1.7545
  689MOL0     H95048  13.503   5.060   8.544  0.3530 -0.3247 -0.1886
  689MOL0     H95049  13.353   5.169   8.559 -0.5168 -1.1012  1.0202
  689MOL0     H95050  13.233   4.969   8.637  1.2133  0.2634 -1.5717
  689MOL0     H95051  13.339   5.031   8.753 -0.7710 -0.2686  0.6364
  689MOL0     H95052  13.455   4.805   8.553 -1.6109 -1.2049  0.0033
  689MOL0     H95053  13.354   4.759   8.680 -0.0234 -0.3936  1.9516
  689MOL0     H95054  13.488   4.890   8.844 -1.4619 -1.0424  1.0484
  689MOL0     H95055  13.542   4.728   8.776 -5.4879 -0.6262 -2.0050
  689MOL0     H95056  13.660   4.997   8.681 -0.9262 -0.4225 -1.4406
  689MOL0     H95057  13.726   4.841   8.646 -0.3294  1.8873 -1.3042
  689MOL0     H95058  13.864   4.898   8.840  0.7558  0.4210  0.9232
  689MOL0     H95059  13.716   4.826   8.920  0.2806  0.6893  0.6135
  689MOL0     H95060  13.620   5.040   8.953 -0.5890  1.2342  0.0805
  689MOL0     H95061  13.764   5.113   8.876 -0.3858 -1.2411 -1.8498
  689MOL0     H95062  13.256   4.981   8.152  0.5881  0.3232 -0.8846
  689MOL0     H95063  13.078   4.906   7.978  0.6289 -2.7987  0.5209
  689MOL0     H95064  12.573   4.995   7.819 -2.4636  0.9679 -2.6035
  689MOL0     H95065  12.439   4.906   7.640  0.1372 -0.2171 -1.2688
  689MOL0     H95066  11.206   4.276   6.552  2.7673 -1.0615  1.5723
  689MOL0     H95067  10.958   4.256   6.508  1.7555  1.6847 -0.6631
  689MOL0     H95068  10.609   3.926   6.548 -0.1718  0.9319 -0.2253
  689MOL0     H95069  10.377   3.811   6.565 -0.7915  0.0616 -0.3504
  689MOL0     H95070  10.133   4.029   6.818 -0.2633  0.2929 -0.8392
  689MOL0     H95071  10.033   3.967   6.695 -0.2090 -0.8094 -0.4368
  689MOL0     H95072   9.965   3.768   6.820  1.0254  0.1074 -1.9057
  689MOL0     H95073   9.931   3.912   6.911 -1.2077 -3.1787  0.7741
  689MOL0     H95074  10.171   3.738   6.950 -1.4326 -2.7243  1.6697
  689MOL0     H95075  10.134   3.877   7.062 -0.6116 -0.9560  1.6516
  689MOL0     H95076   9.922   3.670   7.033 -1.9720  1.7208  1.0906
  689MOL0     H95077   9.939   3.808   7.141  0.6549  1.4376  0.5210
  689MOL0     H95078  10.147   3.528   7.347  1.6794 -0.2932 -1.1774
  689MOL0     H95079  10.304   3.996   6.935  2.7390 -1.5926  1.7655
  689MOL0     H95080  10.612   4.063   7.042 -1.1996 -1.2491 -0.6690
  689MOL0     H95081  10.579   4.219   6.952  0.0138  1.1119  1.8795
  689MOL0     H95082  10.458   4.142   7.056  0.0307  2.6741 -0.6781
  690MOL0     O95083   8.866   0.966   0.077 -0.7575 -0.7202  0.2763
  690MOL0     C95084   8.861   0.848   0.086 -0.3284 -0.7752 -0.2966
  690MOL0     O95085   8.951   0.775   0.152  0.1798  0.5733 -0.0198
  690MOL0     C95086   9.022   0.838   0.250 -0.9695  0.0225  0.0130
  690MOL0     C95087   8.972   0.923   0.353  0.5942  0.5679  0.2213
  690MOL0     C95088   9.058   0.961   0.458 -0.9826  0.4086  0.3534
  690MOL0     C95089   9.195   0.936   0.455 -0.7691 -0.3799  0.7527
  690MOL0     O95090   9.286   0.962   0.555  0.7873  0.3892 -0.0823
  690MOL0     C95091   9.242   1.068   0.650  0.0639 -0.2476 -0.4742
  690MOL0     C95092   9.363   1.120   0.732 -0.1637 -0.5622 -0.3599
  690MOL0     C95093   9.431   1.035   0.837  0.7713 -0.5874 -0.6866
  690MOL0     C95094   9.545   1.111   0.910  0.1198  0.6461  0.1697
  690MOL0     C95095   9.604   1.037   1.033 -0.1976 -0.2039  0.5319
  690MOL0     C95096   9.723   1.113   1.079 -0.3255 -0.1238 -0.1994
  690MOL0     C95097   9.824   1.024   1.150  0.4073  0.5663 -0.9069
  690MOL0     C95098   9.961   1.080   1.158  0.5538  0.5645 -0.1500
  690MOL0     N95099  10.065   0.991   1.221 -0.3932 -0.2352 -0.3256
  690MOL0     C95100  10.150   0.915   1.147 -0.0771 -0.9496 -0.3043
  690MOL0     C95101  10.239   0.878   1.239 -0.0555 -0.4162 -0.3255
  690MOL0     C95102  10.354   0.795   1.213 -0.3157  0.9125  0.2075
  690MOL0     C95103  10.446   0.870   1.116 -0.6049  1.1448  1.0766
  690MOL0     C95104  10.588   0.813   1.112 -0.0854 -0.0211 -0.8504
  690MOL0     C95105  10.593   0.671   1.053  0.7096 -0.9171 -0.3390
  690MOL0     O95106  10.610   0.671   0.911  0.2261  0.0486 -0.0469
  690MOL0     C95107  10.741   0.675   0.865 -0.7764 -0.7182  0.0516
  690MOL0     C95108  10.754   0.651   0.727  0.2317  0.3185  0.1240
  690MOL0     C95109  10.881   0.644   0.670 -0.2999 -0.2035 -0.6227
  690MOL0     C95110  10.876   0.589   0.526 -0.1476  1.1402  0.1172
  690MOL0     C95111  11.000   0.661   0.747 -1.1299 -0.7472 -0.3435
  690MOL0     C95112  11.135   0.643   0.689  0.3918  0.1471  0.6957
  690MOL0     O95113  11.172   0.514   0.700 -0.5170  0.2476  0.1358
  690MOL0     C95114  11.285   0.481   0.636 -0.4971 -0.2534 -0.5670
  690MOL0     C95115  11.292   0.365   0.556  0.3191  0.0100 -0.0081
  690MOL0     C95116  11.407   0.320   0.491 -0.2175 -0.8926  0.6107
  690MOL0     C95117  11.527   0.392   0.514 -0.6066 -0.1473  0.1826
  690MOL0     O95118  11.627   0.357   0.430 -0.3810 -0.4820 -0.0543
  690MOL0     C95119  11.763   0.384   0.472  1.7194 -0.9444 -0.4584
  690MOL0     C95120  11.859   0.303   0.385 -0.4843 -0.0426 -0.8923
  690MOL0     C95121  12.011   0.341   0.411  0.8398 -0.0612 -0.8714
  690MOL0     C95122  12.102   0.257   0.331 -0.7640 -0.8628  0.0049
  690MOL0     C95123  12.252   0.285   0.351  0.2334  0.1857  0.3493
  690MOL0     C95124  12.336   0.160   0.310  0.2060  0.4255  0.1192
  690MOL0     C95125  12.486   0.198   0.297  0.6269  0.6300  0.5788
  690MOL0     C95126  12.547   0.168   0.155  0.5534 -0.3446 -0.0799
  690MOL0    Cl95127  12.721   0.137   0.180 -0.8605  0.3936 -0.0257
  690MOL0     C95128  11.533   0.496   0.609  0.5806  0.3669  0.3218
  690MOL0     C95129  11.412   0.541   0.673  0.3372 -0.8368  0.0825
  690MOL0     O95130  11.176   0.725   0.605 -0.0736  0.0200 -0.0201
  690MOL0     C95131  10.988   0.695   0.886 -0.1524 -0.3164  0.9164
  690MOL0     C95132  10.859   0.712   0.942 -0.7044 -0.3583 -0.4183
  690MOL0     N95133  10.199   0.929   1.364 -0.1671  0.3472 -0.6986
  690MOL0     N95134  10.100   1.008   1.353 -0.2577 -0.5634  0.8535
  690MOL0     C95135   9.243   0.868   0.345 -1.3279 -0.3594  0.4509
  690MOL0     C95136   9.162   0.814   0.248  0.5703 -0.2878  0.4764
  690MOL0     C95137   8.748   0.774   0.024  0.1766  0.3183  0.2239
  690MOL0     C95138   8.769   0.646  -0.032 -0.1332 -0.0737  0.2349
  690MOL0     C95139   8.662   0.581  -0.096 -0.9773 -0.2621  0.5476
  690MOL0     C95140   8.537   0.648  -0.116 -0.4151  0.0660 -1.4350
  690MOL0     O95141   8.429   0.603  -0.180  0.5651  0.1872 -0.7946
  690MOL0     C95142   8.429   0.456  -0.200 -0.8709 -0.0411 -0.3634
  690MOL0     C95143   8.293   0.432  -0.270 -1.0556  0.0221  0.6713
  690MOL0     C95144   8.181   0.477  -0.177 -0.2835 -0.0146  0.1334
  690MOL0     C95145   8.051   0.501  -0.242  0.2241  0.0277  0.3366
  690MOL0     C95146   7.957   0.532  -0.138 -0.1377 -0.2978  0.5977
  690MOL0     C95147   7.877   0.570  -0.059 -0.3549 -0.0126  0.0889
  690MOL0     C95148   8.526   0.776  -0.067  0.3942 -0.5429 -0.7851
  690MOL0     C95149   8.626   0.842   0.007  0.4231 -0.0017 -0.3884
  690MOL0     C95150   8.580   0.968   0.078  0.2198  0.1486  0.8238
  690MOL0     H95151   8.867   0.946   0.363  0.8443  2.8959 -1.6106
  690MOL0     H95152   9.005   1.010   0.539  0.0526 -1.2946  2.1419
  690MOL0     H95153   9.159   1.033   0.712  0.0155  1.0027  0.1824
  690MOL0     H95154   9.213   1.162   0.603  1.0938  0.8888  1.0822
  690MOL0     H95155   9.450   1.151   0.673  0.5150  0.7674  1.2659
  690MOL0     H95156   9.312   1.207   0.773 -3.0327 -1.7174 -1.2428
  690MOL0     H95157   9.364   1.008   0.920  4.2562  0.8667  2.9641
  690MOL0     H95158   9.457   0.941   0.788 -1.5050 -0.7294 -1.7280
  690MOL0     H95159   9.627   1.134   0.842  1.0500  2.4431  1.7894
  690MOL0     H95160   9.504   1.204   0.950  1.4300  1.0238  0.6959
  690MOL0     H95161   9.642   0.940   1.001  1.4857  0.5374  0.1418
  690MOL0     H95162   9.535   1.027   1.117 -2.4991  0.0942 -1.2280
  690MOL0     H95163   9.788   1.158   1.003 -0.7197  0.8557  0.0276
  690MOL0     H95164   9.689   1.197   1.140  1.5976  1.7982 -1.5780
  690MOL0     H95165   9.830   0.925   1.105  1.7422 -0.2032  0.8494
  690MOL0     H95166   9.785   1.016   1.252  1.9746 -1.5739 -0.4182
  690MOL0     H95167   9.988   1.092   1.053 -1.4997 -1.6157 -1.0211
  690MOL0     H95168   9.956   1.180   1.203 -0.2460  2.2873 -3.6900
  690MOL0     H95169  10.149   0.887   1.042  3.2173 -1.7564 -0.2395
  690MOL0     H95170  10.316   0.705   1.163 -1.4076  2.5279 -2.0411
  690MOL0     H95171  10.404   0.766   1.306  1.6506  1.0341 -0.7546
  690MOL0     H95172  10.411   0.889   1.013  1.7499  1.0892  0.2079
  690MOL0     H95173  10.457   0.972   1.154 -4.0911  1.3327  1.8966
  690MOL0     H95174  10.655   0.878   1.054  2.9408  1.0464  3.3857
  690MOL0     H95175  10.630   0.822   1.212 -0.3014  0.3997 -0.7969
  690MOL0     H95176  10.678   0.617   1.096  0.9652  2.4711  4.0560
  690MOL0     H95177  10.503   0.613   1.076 -1.4858  2.0930 -0.8168
  690MOL0     H95178  10.666   0.633   0.666  0.0341 -1.1990  0.8120
  690MOL0     H95179  10.783   0.622   0.478 -0.2228 -0.3718 -0.8523
  690MOL0     H95180  10.869   0.480   0.527 -4.2009  1.2321  0.3569
  690MOL0     H95181  10.966   0.623   0.474  1.1345 -0.7123  1.0043
  690MOL0     H95182  11.203   0.312   0.524  1.9670 -1.1464 -2.9993
  690MOL0     H95183  11.430   0.231   0.433  1.5245  0.7195 -1.3221
  690MOL0     H95184  11.767   0.492   0.453 -2.1335 -0.4963  0.5115
  690MOL0     H95185  11.770   0.366   0.580  0.8831  3.0304  0.4477
  690MOL0     H95186  11.845   0.195   0.398 -4.2976  0.5974  2.2724
  690MOL0     H95187  11.838   0.327   0.280 -0.2034  0.7018 -0.7791
  690MOL0     H95188  12.025   0.322   0.518  2.9789 -0.2068 -1.1244
  690MOL0     H95189  12.018   0.449   0.394  0.9301  0.6759  2.8894
  690MOL0     H95190  12.082   0.252   0.224  1.2820  0.3647 -0.4885
  690MOL0     H95191  12.093   0.154   0.366 -1.7637 -0.3916  1.2387
  690MOL0     H95192  12.282   0.366   0.283  0.9516 -0.5747 -0.2701
  690MOL0     H95193  12.278   0.325   0.449  0.8207  1.5070 -0.3089
  690MOL0     H95194  12.301   0.113   0.218  0.0207  1.5589 -0.4013
  690MOL0     H95195  12.313   0.087   0.388  2.9023  2.4845  3.1035
  690MOL0     H95196  12.550   0.139   0.362 -0.3895 -2.1445 -0.7570
  690MOL0     H95197  12.506   0.300   0.331 -1.8052  1.2016  0.4953
  690MOL0     H95198  12.525   0.245   0.080 -0.4693  0.2276  0.7709
  690MOL0     H95199  12.496   0.084   0.106 -4.0444  2.7546 -1.2293
  690MOL0     H95200  11.628   0.542   0.634  0.5730  0.3691  0.3467
  690MOL0     H95201  11.403   0.632   0.733 -0.3261  0.6159 -2.0991
  690MOL0     H95202  11.080   0.713   0.942  1.1067 -4.2133  0.4133
  690MOL0     H95203  10.850   0.751   1.043 -5.0182 -1.0210 -0.3771
  690MOL0     H95204   9.347   0.836   0.344 -1.8435 -2.1946 -1.5499
  690MOL0     H95205   9.201   0.750   0.169 -4.1453 -0.5960 -1.9910
  690MOL0     H95206   8.865   0.598  -0.018  0.5393  1.3549  0.7522
  690MOL0     H95207   8.677   0.484  -0.143 -0.2162  0.9556 -1.8641
  690MOL0     H95208   8.511   0.430  -0.267 -0.9196  0.8587 -0.7845
  690MOL0     H95209   8.438   0.399  -0.107  0.2616  0.5093 -0.1223
  690MOL0     H95210   8.275   0.326  -0.292 -5.9641  0.4545  1.4641
  690MOL0     H95211   8.292   0.496  -0.358  0.7505  1.8475  1.8871
  690MOL0     H95212   8.177   0.398  -0.101 -2.5458 -0.0349  0.0661
  690MOL0     H95213   8.209   0.571  -0.128 -0.4448 -0.1399  0.4735
  690MOL0     H95214   8.029   0.410  -0.300  2.2409 -0.3090  0.0122
  690MOL0     H95215   8.044   0.591  -0.304 -0.7814  1.8979  2.9993
  690MOL0     H95216   7.812   0.599   0.020  0.2930  0.8531  0.3177
  690MOL0     H95217   8.428   0.820  -0.082 -0.0417 -1.3188 -0.2810
  690MOL0     H95218   8.576   0.945   0.185  1.5417 -2.0384  0.4686
  690MOL0     H95219   8.653   1.048   0.065  2.8361 -1.9372  1.6714
  690MOL0     H95220   8.488   1.004   0.031  1.7701  0.1525 -2.4818
  691MOL0     O95221   0.347   1.820   4.359  0.6008 -0.0091  0.0074
  691MOL0     C95222   0.313   1.798   4.473 -0.3365  0.1176  0.0708
  691MOL0     O95223   0.396   1.800   4.579 -1.0757 -1.0061 -0.0128
  691MOL0     C95224   0.529   1.844   4.558 -0.3544 -0.2887 -0.0049
  691MOL0     C95225   0.572   1.973   4.607  0.1263  0.0862  0.6500
  691MOL0     C95226   0.698   2.015   4.583  0.5425 -0.3430 -0.5448
  691MOL0     C95227   0.786   1.942   4.507  0.5865 -0.9738 -0.0176
  691MOL0     O95228   0.916   1.965   4.492 -0.8296  0.0207 -0.7076
  691MOL0     C95229   0.999   2.014   4.607 -0.8378 -0.1964  0.5027
  691MOL0     C95230   1.154   1.984   4.580 -0.1020 -0.1014 -0.6872
  691MOL0     C95231   1.217   2.087   4.494 -0.4194 -0.4784 -0.0202
  691MOL0     C95232   1.362   2.083   4.500  0.5311  0.3506  0.2932
  691MOL0     C95233   1.415   1.947   4.455  0.0798  1.0194 -0.0068
  691MOL0     C95234   1.562   1.937   4.417  0.3966  0.7390 -0.0653
  691MOL0     C95235   1.614   1.796   4.401 -0.2156  0.4226 -0.6843
  691MOL0     C95236   1.745   1.779   4.311  0.0458 -0.2425 -0.2824
  691MOL0     N95237   1.857   1.861   4.366  0.8103  0.0418  0.0841
  691MOL0     C95238   1.966   1.813   4.412 -0.4795 -0.1095 -0.6602
  691MOL0     C95239   2.061   1.912   4.395 -0.5521  0.7687 -0.1589
  691MOL0     C95240   2.205   1.904   4.441 -0.4497  0.1593 -0.4667
  691MOL0     C95241   2.294   1.864   4.323 -0.9146 -0.3954 -0.7775
  691MOL0     C95242   2.272   1.731   4.254  0.4017 -0.4202  0.3611
  691MOL0     C95243   2.394   1.638   4.254  0.1820 -0.0920  0.0172
  691MOL0     O95244   2.451   1.640   4.388 -0.0397  0.1737  0.4484
  691MOL0     C95245   2.563   1.569   4.416  1.0218  0.1736  0.5119
  691MOL0     C95246   2.629   1.591   4.537 -0.0785 -0.0704  0.1901
  691MOL0     C95247   2.754   1.540   4.568  0.2630  0.3364 -0.3032
  691MOL0     C95248   2.812   1.557   4.713  1.0082 -0.3044  0.8376
  691MOL0     C95249   2.824   1.470   4.463  0.8380  0.3784 -0.0595
  691MOL0     C95250   2.969   1.426   4.476  0.4809  0.6020  1.0273
  691MOL0     O95251   3.025   1.384   4.361  1.0581 -1.5862  0.0590
  691MOL0     C95252   3.145   1.327   4.358  0.5647  0.3726 -0.0579
  691MOL0     C95253   3.256   1.406   4.371  0.1433 -0.8912  0.1558
  691MOL0     C95254   3.385   1.353   4.384 -0.1883 -0.8510  0.1761
  691MOL0     C95255   3.403   1.221   4.349 -0.5219 -0.5311  0.4360
  691MOL0     O95256   3.526   1.168   4.367 -0.9930  0.5556 -0.3680
  691MOL0     C95257   3.550   1.027   4.332 -0.7107 -0.0463  0.9155
  691MOL0     C95258   3.637   1.016   4.202  0.3992  0.2010  0.2534
  691MOL0     C95259   3.774   1.089   4.207  0.2734 -0.3396 -0.5873
  691MOL0     C95260   3.847   1.052   4.339  0.3074 -0.3730 -0.1857
  691MOL0     C95261   3.980   1.122   4.349  0.6994 -0.8327 -0.1515
  691MOL0     C95262   4.049   1.121   4.481 -0.1793  1.0050 -1.2316
  691MOL0     C95263   4.180   1.203   4.465 -0.4721 -0.6305  0.3903
  691MOL0     C95264   4.244   1.202   4.605 -0.8703  0.2536  0.3484
  691MOL0    Cl95265   4.401   1.313   4.598  0.1176 -0.1586  0.2583
  691MOL0     C95266   3.290   1.143   4.316  0.0901  0.1156 -0.0954
  691MOL0     C95267   3.164   1.190   4.326 -0.4475  0.0971  0.3475
  691MOL0     O95268   3.029   1.422   4.585  0.8371 -0.3435  0.3947
  691MOL0     C95269   2.763   1.444   4.341 -0.0398 -0.1550 -0.0418
  691MOL0     C95270   2.631   1.487   4.318 -0.5035 -0.5278 -0.4457
  691MOL0     N95271   1.999   2.021   4.340 -0.3705  0.2877 -0.5202
  691MOL0     N95272   1.876   1.989   4.338 -0.0300 -0.2829  0.0278
  691MOL0     C95273   0.745   1.816   4.454 -0.1120  0.2708 -0.3247
  691MOL0     C95274   0.619   1.771   4.478 -0.3949 -0.2507 -0.2720
  691MOL0     C95275   0.179   1.722   4.476 -0.2302  0.7656 -0.0018
  691MOL0     C95276   0.165   1.613   4.562  0.1928  0.5792 -0.4474
  691MOL0     C95277   0.051   1.535   4.574 -0.8935  0.4056 -1.0301
  691MOL0     C95278  -0.056   1.571   4.495  0.2117  0.3147  0.1024
  691MOL0     O95279  -0.162   1.473   4.491 -0.1150  0.1371 -0.5734
  691MOL0     C95280  -0.290   1.516   4.444 -0.6684 -0.5719  0.1938
  691MOL0     C95281  -0.379   1.398   4.446  0.1765 -0.0152 -1.0805
  691MOL0     C95282  -0.319   1.284   4.356 -0.2453 -0.8290 -0.2148
  691MOL0     C95283  -0.367   1.310   4.207 -0.0667  0.3916  0.0193
  691MOL0     C95284  -0.513   1.294   4.197 -0.0536 -0.1601  1.0050
  691MOL0     C95285  -0.630   1.268   4.174  0.2959  0.2215 -0.7139
  691MOL0     C95286  -0.048   1.685   4.411 -0.4958  0.1397 -0.5949
  691MOL0     C95287   0.067   1.761   4.396  0.1631 -0.0246 -0.2962
  691MOL0     C95288   0.066   1.882   4.304 -0.4613 -1.2037 -0.7797
  691MOL0     H95289   0.500   2.039   4.654 -0.7932 -0.0299 -0.5446
  691MOL0     H95290   0.738   2.100   4.638 -1.5102  0.4244 -0.1216
  691MOL0     H95291   0.970   1.963   4.699  1.0214  0.8383  1.7198
  691MOL0     H95292   0.971   2.119   4.623 -1.0563 -0.0993 -0.4601
  691MOL0     H95293   1.204   1.976   4.677 -1.0343 -1.8825 -0.3201
  691MOL0     H95294   1.158   1.889   4.527  0.6451 -0.1294 -0.5900
  691MOL0     H95295   1.177   2.079   4.393 -0.6792 -3.0639  0.2328
  691MOL0     H95296   1.181   2.181   4.537 -1.9475 -0.6835 -0.7892
  691MOL0     H95297   1.405   2.158   4.433  0.0390  0.9694  0.6630
  691MOL0     H95298   1.380   2.101   4.607  1.7476 -2.1164  0.5850
  691MOL0     H95299   1.360   1.915   4.366  1.2370 -1.3686  0.0648
  691MOL0     H95300   1.393   1.874   4.533 -2.0387  0.0685 -1.3923
  691MOL0     H95301   1.567   1.998   4.326 -0.7431  2.1221  0.7651
  691MOL0     H95302   1.622   1.986   4.494  1.0627  0.0064 -0.1091
  691MOL0     H95303   1.534   1.739   4.354 -0.1209  0.7593 -1.2711
  691MOL0     H95304   1.644   1.756   4.498  0.4467  0.0330 -1.0417
  691MOL0     H95305   1.773   1.674   4.316 -1.1237 -0.5352  0.4318
  691MOL0     H95306   1.719   1.804   4.208 -1.6718 -2.4473 -0.4516
  691MOL0     H95307   1.981   1.710   4.442 -1.5969 -0.4239 -1.1439
  691MOL0     H95308   2.217   1.820   4.510  0.0945  0.7431  0.1623
  691MOL0     H95309   2.241   1.994   4.492  1.8236 -0.8925 -0.1344
  691MOL0     H95310   2.276   1.944   4.251 -0.0669  1.0579  0.5574
  691MOL0     H95311   2.392   1.885   4.365 -2.9443 -1.1180  5.2851
  691MOL0     H95312   2.172   1.694   4.276 -0.9500  1.5549 -1.9384
  691MOL0     H95313   2.263   1.761   4.149  2.5927  2.7673  0.9289
  691MOL0     H95314   2.361   1.539   4.219 -1.6308  0.6405 -0.4950
  691MOL0     H95315   2.470   1.669   4.181  2.6971  0.8970  2.8595
  691MOL0     H95316   2.573   1.647   4.611 -0.2827  1.4692 -1.0693
  691MOL0     H95317   2.735   1.606   4.772 -0.9649 -0.2014 -1.6454
  691MOL0     H95318   2.897   1.626   4.718 -1.0810  2.5273 -0.3648
  691MOL0     H95319   2.828   1.462   4.765 -1.3276 -0.9411  0.5286
  691MOL0     H95320   3.247   1.511   4.397  1.0171 -0.8673  0.3659
  691MOL0     H95321   3.477   1.404   4.408  0.3197 -1.3648 -0.6408
  691MOL0     H95322   3.614   0.976   4.405  3.3925 -0.6380 -2.6817
  691MOL0     H95323   3.462   0.962   4.328  2.1765 -4.3112 -0.6125
  691MOL0     H95324   3.646   0.910   4.175  0.5290  0.5119 -0.9799
  691MOL0     H95325   3.575   1.056   4.122  0.9521 -0.5123 -0.5597
  691MOL0     H95326   3.757   1.197   4.202  0.8991 -0.1684  0.6265
  691MOL0     H95327   3.834   1.063   4.120  2.2598  1.0132  0.3098
  691MOL0     H95328   3.862   0.944   4.346  3.8418 -0.0996 -1.1874
  691MOL0     H95329   3.792   1.085   4.427  0.2843 -1.0657  0.0672
  691MOL0     H95330   4.044   1.082   4.270  1.1832  0.3164 -0.3504
  691MOL0     H95331   3.971   1.227   4.320  0.6394 -0.3506  1.5239
  691MOL0     H95332   4.076   1.018   4.507  1.7758  2.1996  2.1701
  691MOL0     H95333   3.986   1.167   4.557 -2.4951  0.6308 -2.8103
  691MOL0     H95334   4.162   1.309   4.445  0.2483 -0.7398 -0.9759
  691MOL0     H95335   4.246   1.168   4.385  0.1193  1.1461  0.0383
  691MOL0     H95336   4.263   1.096   4.627 -3.8092 -0.7763 -1.4950
  691MOL0     H95337   4.170   1.235   4.678  0.3953 -0.0016  1.8252
  691MOL0     H95338   3.296   1.038   4.289  0.3981 -0.2051  1.1699
  691MOL0     H95339   3.087   1.115   4.305  0.8217 -1.7270  1.8812
  691MOL0     H95340   2.805   1.396   4.253 -3.5642  0.7942 -2.4997
  691MOL0     H95341   2.594   1.475   4.217  2.0765 -2.1162 -1.2966
  691MOL0     H95342   0.820   1.756   4.404  1.5805  2.1032 -0.1085
  691MOL0     H95343   0.573   1.683   4.435  0.3825 -0.2924 -1.0271
  691MOL0     H95344   0.248   1.604   4.632 -0.2108  2.8520  0.4024
  691MOL0     H95345   0.064   1.448   4.637  2.2844  1.1630 -0.4466
  691MOL0     H95346  -0.328   1.600   4.503  0.3378  0.5682 -0.7310
  691MOL0     H95347  -0.288   1.543   4.338  0.0408 -1.3217  0.0089
  691MOL0     H95348  -0.482   1.418   4.414  0.2013 -1.2946 -2.0883
  691MOL0     H95349  -0.372   1.371   4.551  0.4526  0.9785 -0.8417
  691MOL0     H95350  -0.209   1.284   4.357 -0.1248  2.2768  1.7775
  691MOL0     H95351  -0.348   1.187   4.396  1.0111 -0.9452  0.4578
  691MOL0     H95352  -0.329   1.234   4.139  0.3508 -0.1091  0.7922
  691MOL0     H95353  -0.348   1.413   4.175 -2.7006  0.8301 -0.3491
  691MOL0     H95354  -0.732   1.252   4.144  1.0606 -2.1929 -2.3388
  691MOL0     H95355  -0.133   1.711   4.349 -1.5753 -0.4883  0.5729
  691MOL0     H95356  -0.035   1.920   4.289 -0.1479  0.6100  1.1715
  691MOL0     H95357   0.132   1.957   4.349  1.4655 -1.8916 -2.3301
  691MOL0     H95358   0.110   1.855   4.207  3.4049  1.1729  0.0864
  692MOL0     O95359   4.344   2.848   6.011 -0.3443 -0.3991  0.1882
  692MOL0     C95360   4.393   2.760   6.082 -0.2166 -0.5273  0.5288
  692MOL0     O95361   4.517   2.715   6.066 -0.3015  0.1475 -0.6219
  692MOL0     C95362   4.602   2.774   5.975  0.5357  0.0637  1.2522
  692MOL0     C95363   4.583   2.765   5.833 -0.3042  0.0896 -0.6164
  692MOL0     C95364   4.654   2.846   5.748  0.7750  1.1260  0.0860
  692MOL0     C95365   4.728   2.948   5.799  1.1539  1.0864  0.1464
  692MOL0     O95366   4.801   3.020   5.704  0.1301 -1.0202 -0.7240
  692MOL0     C95367   4.942   3.022   5.714 -0.7155 -0.0300 -0.3672
  692MOL0     C95368   4.990   3.042   5.569 -0.0097 -0.2863  0.7641
  692MOL0     C95369   5.145   3.043   5.571 -0.3065 -0.0005  0.8985
  692MOL0     C95370   5.200   3.013   5.436 -0.3665 -0.0449 -0.1650
  692MOL0     C95371   5.353   3.013   5.436  1.0374 -0.6575 -0.2603
  692MOL0     C95372   5.430   2.975   5.307  0.1100 -0.2921 -0.4632
  692MOL0     C95373   5.412   3.079   5.189 -0.4781 -0.5796  0.2571
  692MOL0     C95374   5.487   3.206   5.224 -1.0260 -0.2395 -0.5998
  692MOL0     N95375   5.632   3.219   5.182  0.1490  0.5432 -0.4165
  692MOL0     C95376   5.737   3.137   5.212 -0.0996  0.9861 -0.3643
  692MOL0     C95377   5.842   3.199   5.151 -0.3840 -0.5137 -0.3980
  692MOL0     C95378   5.981   3.148   5.148  0.4076 -0.2170 -0.0109
  692MOL0     C95379   6.091   3.243   5.198 -0.0723 -0.1802 -1.2238
  692MOL0     C95380   6.098   3.385   5.128  0.6600  0.2755 -0.5586
  692MOL0     C95381   6.110   3.385   4.968  0.0913 -0.8524 -0.3590
  692MOL0     O95382   6.181   3.268   4.923 -0.2469 -0.6362 -0.5823
  692MOL0     C95383   6.323   3.238   4.931 -0.0261 -0.3339 -0.0684
  692MOL0     C95384   6.378   3.113   4.904  1.2791 -0.6691 -0.3952
  692MOL0     C95385   6.508   3.080   4.915 -0.4769 -0.1074 -0.6543
  692MOL0     C95386   6.554   2.936   4.895  0.4864  0.3054  0.7763
  692MOL0     C95387   6.600   3.186   4.955 -0.8142  0.0715  0.9331
  692MOL0     C95388   6.747   3.176   4.977  0.1711 -1.2389  0.7142
  692MOL0     O95389   6.818   3.120   4.879  0.4770  0.2017  0.8875
  692MOL0     C95390   6.942   3.071   4.903  0.1146 -0.4742 -0.1729
  692MOL0     C95391   6.975   2.950   4.837 -0.5457 -0.1580  0.0465
  692MOL0     C95392   7.107   2.899   4.849  0.4132 -0.0911  0.2082
  692MOL0     C95393   7.210   2.970   4.908  0.2848 -0.8306  0.0464
  692MOL0     O95394   7.332   2.917   4.913 -0.5314  0.1177  0.4787
  692MOL0     C95395   7.426   3.018   4.870 -0.3855  0.2031  0.0981
  692MOL0     C95396   7.559   2.940   4.831 -0.0360  0.3769  0.0074
  692MOL0     C95397   7.536   2.840   4.720 -0.1686  0.3490  0.7958
  692MOL0     C95398   7.640   2.733   4.689 -0.0092  0.2339  0.6783
  692MOL0     C95399   7.617   2.647   4.560 -0.3520  0.4998 -0.0352
  692MOL0     C95400   7.734   2.559   4.512 -0.1623  0.3689  0.7590
  692MOL0     C95401   7.685   2.467   4.400 -0.5855 -0.1368  0.2845
  692MOL0     C95402   7.600   2.347   4.446 -0.3863  0.0390  0.6429
  692MOL0    Cl95403   7.596   2.209   4.320  0.4160 -0.0072  0.0226
  692MOL0     C95404   7.176   3.093   4.966  0.1062  0.0646 -0.4846
  692MOL0     C95405   7.041   3.143   4.964  0.1012  0.4179 -0.0961
  692MOL0     O95406   6.796   3.230   5.073 -0.1721 -0.1075  0.3773
  692MOL0     C95407   6.547   3.312   4.982  0.3288 -0.1389 -0.1096
  692MOL0     C95408   6.407   3.342   4.967 -0.1066 -0.6866 -0.6429
  692MOL0     N95409   5.802   3.307   5.084  0.1056 -0.0793 -0.4971
  692MOL0     N95410   5.670   3.314   5.095  0.4324 -0.2698 -0.2270
  692MOL0     C95411   4.751   2.961   5.936  0.7264  0.0422 -0.8007
  692MOL0     C95412   4.695   2.873   6.028 -0.3456  0.6515 -0.5699
  692MOL0     C95413   4.324   2.717   6.210  0.1390 -0.2206 -0.5196
  692MOL0     C95414   4.193   2.759   6.233  0.0345 -0.0869  0.1291
  692MOL0     C95415   4.118   2.728   6.345 -0.5491  0.1925  0.1826
  692MOL0     C95416   4.166   2.651   6.448  0.8455  0.2607 -0.1995
  692MOL0     O95417   4.085   2.634   6.551  0.3549 -0.8672 -0.4361
  692MOL0     C95418   4.136   2.599   6.685  0.0459  0.2667  0.2685
  692MOL0     C95419   4.050   2.662   6.789  0.0557 -0.9982  0.1059
  692MOL0     C95420   4.126   2.646   6.920 -0.0628  0.1164  0.6327
  692MOL0     C95421   4.046   2.621   7.055  0.0723 -0.0005  0.4510
  692MOL0     C95422   3.926   2.706   7.062  0.5988  0.1335 -0.7588
  692MOL0     C95423   3.826   2.784   7.066 -0.4750  1.0150 -1.2034
  692MOL0     C95424   4.293   2.600   6.440  0.2065 -0.4044  0.1090
  692MOL0     C95425   4.381   2.640   6.324  0.8032  0.0452  0.6028
  692MOL0     C95426   4.524   2.602   6.341 -0.3196  0.3013  0.7457
  692MOL0     H95427   4.515   2.695   5.786  0.0139 -0.5110 -0.1995
  692MOL0     H95428   4.637   2.850   5.641 -0.5869 -1.7859  0.0899
  692MOL0     H95429   4.986   2.933   5.761  2.8621  1.7139 -0.0231
  692MOL0     H95430   4.974   3.102   5.782 -1.3002 -1.3510  1.5451
  692MOL0     H95431   4.948   2.972   5.496 -0.8231  1.3185 -0.3818
  692MOL0     H95432   4.966   3.146   5.545 -5.2015 -0.9322  2.0196
  692MOL0     H95433   5.186   3.137   5.608  2.6898 -0.6436 -0.5332
  692MOL0     H95434   5.176   2.968   5.644 -1.8130 -1.7631 -0.1986
  692MOL0     H95435   5.167   2.913   5.408  1.5736 -0.6741 -0.3622
  692MOL0     H95436   5.152   3.089   5.373 -3.2765 -0.4909  1.3631
  692MOL0     H95437   5.388   2.944   5.513  2.7360  0.4861  0.0609
  692MOL0     H95438   5.376   3.104   5.492 -4.8863 -0.9908  3.5930
  692MOL0     H95439   5.535   2.976   5.339 -0.2509  3.3434  1.1998
  692MOL0     H95440   5.397   2.876   5.276  0.0404 -0.6176  0.6194
  692MOL0     H95441   5.309   3.110   5.167 -0.6393 -1.0153  0.3872
  692MOL0     H95442   5.461   3.048   5.097 -0.1297  0.9798 -0.1178
  692MOL0     H95443   5.451   3.296   5.174  2.6433  1.3495 -0.7029
  692MOL0     H95444   5.475   3.217   5.332 -3.1343 -1.6006 -0.6162
  692MOL0     H95445   5.741   3.043   5.265  2.4524  3.6341  4.9581
  692MOL0     H95446   5.998   3.122   5.043  2.6314 -1.4090  0.5804
  692MOL0     H95447   5.991   3.051   5.197 -0.8088 -0.5154 -0.3413
  692MOL0     H95448   6.073   3.252   5.306 -0.1946  1.4766 -1.3528
  692MOL0     H95449   6.182   3.187   5.179 -0.2528 -0.1162 -2.3259
  692MOL0     H95450   6.011   3.446   5.153  0.6584  0.6734 -1.5017
  692MOL0     H95451   6.189   3.433   5.164 -0.5163  1.2458  1.3034
  692MOL0     H95452   6.012   3.365   4.924  1.2675 -2.7853 -2.3243
  692MOL0     H95453   6.156   3.475   4.925  1.0679 -0.8275  0.6936
  692MOL0     H95454   6.301   3.040   4.884  0.8882 -1.5857  3.6461
  692MOL0     H95455   6.533   2.867   4.977  0.2885 -1.1923 -0.5077
  692MOL0     H95456   6.662   2.929   4.883  0.2866 -3.1486  0.2111
  692MOL0     H95457   6.506   2.900   4.804  2.4365  0.3227 -0.3198
  692MOL0     H95458   6.900   2.896   4.781 -0.3591 -0.2308 -0.1351
  692MOL0     H95459   7.112   2.802   4.801  0.5305 -0.6875  1.3831
  692MOL0     H95460   7.393   3.074   4.782 -1.6224 -1.9388 -0.9077
  692MOL0     H95461   7.441   3.095   4.945  0.5711  1.6281 -1.4917
  692MOL0     H95462   7.626   3.010   4.780 -2.2587  0.7066 -2.6762
  692MOL0     H95463   7.607   2.896   4.919 -0.7948 -2.1619 -0.7701
  692MOL0     H95464   7.541   2.891   4.623  0.0306  0.7080  0.9894
  692MOL0     H95465   7.440   2.791   4.733  0.9698 -2.2882 -0.0562
  692MOL0     H95466   7.626   2.673   4.779 -0.9327  0.3919  0.6473
  692MOL0     H95467   7.737   2.784   4.682  0.6280 -1.0638 -4.7835
  692MOL0     H95468   7.531   2.584   4.581  0.9559 -1.8197 -1.1913
  692MOL0     H95469   7.592   2.717   4.479 -3.4516 -0.0336  0.3554
  692MOL0     H95470   7.774   2.494   4.591  2.1691 -0.3400 -0.8724
  692MOL0     H95471   7.814   2.624   4.474  0.3468  1.3478  3.3027
  692MOL0     H95472   7.771   2.420   4.351 -2.4908 -1.2010 -2.2617
  692MOL0     H95473   7.620   2.518   4.328 -1.2220  1.2200  1.7619
  692MOL0     H95474   7.496   2.380   4.459 -0.8563 -0.6748 -1.0920
  692MOL0     H95475   7.645   2.312   4.539  1.5063 -1.1676 -0.6634
  692MOL0     H95476   7.241   3.151   5.031 -2.1813  0.3144  1.7490
  692MOL0     H95477   7.032   3.243   5.007  2.3523  1.7518 -2.4020
  692MOL0     H95478   6.610   3.393   5.015 -0.9869  0.2213  1.6163
  692MOL0     H95479   6.360   3.437   4.992 -0.3567 -1.2796  1.3777
  692MOL0     H95480   4.806   3.047   5.974 -1.4069  1.7511 -1.3604
  692MOL0     H95481   4.694   2.891   6.135 -0.9993 -0.6490 -0.3255
  692MOL0     H95482   4.138   2.814   6.158 -1.7513  0.1681  1.5600
  692MOL0     H95483   4.016   2.765   6.351  0.3551  2.8652  0.2243
  692MOL0     H95484   4.129   2.490   6.691 -0.0071  0.0859 -2.2259
  692MOL0     H95485   4.240   2.631   6.697  0.8058 -2.2022  0.9506
  692MOL0     H95486   3.944   2.633   6.786 -0.2723  0.2098 -0.8858
  692MOL0     H95487   4.054   2.770   6.768 -1.1319 -0.7624  0.9742
  692MOL0     H95488   4.207   2.573   6.918 -0.9123 -0.8584  0.5622
  692MOL0     H95489   4.181   2.740   6.929 -1.9114  1.5341 -1.4342
  692MOL0     H95490   4.108   2.644   7.142 -0.2259  1.1385  0.3820
  692MOL0     H95491   4.014   2.517   7.053  1.9674 -0.6496  1.6526
  692MOL0     H95492   3.742   2.850   7.059 -0.9195  0.2671 -3.9567
  692MOL0     H95493   4.333   2.536   6.518  0.7246  0.1747  0.3322
  692MOL0     H95494   4.560   2.594   6.444 -0.0221  0.0629  0.6240
  692MOL0     H95495   4.545   2.510   6.287  2.0811 -0.1797  2.3164
  692MOL0     H95496   4.588   2.684   6.305  1.8965 -2.4350 -2.0947
  693MOL0     O95497   7.124   5.815   7.331 -0.7425 -0.6127 -0.0390
  693MOL0     C95498   7.104   5.823   7.212  0.2519 -0.2205  0.3473
  693MOL0     O95499   7.193   5.822   7.110 -0.1523  0.2497  0.4632
  693MOL0     C95500   7.316   5.877   7.115  0.0387 -0.3177 -0.4585
  693MOL0     C95501   7.374   5.941   7.230  0.9801 -0.3463  0.2172
  693MOL0     C95502   7.501   6.002   7.214 -0.1208  0.2459  0.5297
  693MOL0     C95503   7.572   5.986   7.094  0.0441  0.3463  0.3849
  693MOL0     O95504   7.696   6.036   7.088 -0.7138 -0.3140 -0.2893
  693MOL0     C95505   7.788   5.981   6.998  0.2754 -0.9692  0.1736
  693MOL0     C95506   7.927   6.045   7.037  0.1704  0.7527  0.4380
  693MOL0     C95507   8.042   6.005   6.943 -0.1682  0.1153  0.1204
  693MOL0     C95508   8.174   6.051   7.003 -0.1396 -0.2400 -0.5294
  693MOL0     C95509   8.284   5.974   6.929  0.3772  0.1821  0.6075
  693MOL0     C95510   8.422   6.036   6.964  0.7812  0.3256 -0.4745
  693MOL0     C95511   8.540   5.968   6.901 -0.6143 -0.3226 -0.4724
  693MOL0     C95512   8.538   5.982   6.749 -1.1746 -0.0092 -0.1067
  693MOL0     N95513   8.669   5.921   6.703  0.7335 -0.0778 -0.8431
  693MOL0     C95514   8.668   5.808   6.632 -0.7251 -0.3905  0.3444
  693MOL0     C95515   8.798   5.776   6.618 -0.1705  0.8632  0.0934
  693MOL0     C95516   8.839   5.654   6.544  0.4230  0.5363  0.1957
  693MOL0     C95517   8.984   5.669   6.532  0.8682  0.4763 -0.5643
  693MOL0     C95518   9.038   5.545   6.456 -0.4865 -1.1773 -0.2578
  693MOL0     C95519   9.186   5.521   6.460  0.8803  0.7775  0.0258
  693MOL0     O95520   9.197   5.385   6.408  0.6003  0.2925  0.1885
  693MOL0     C95521   9.313   5.340   6.363  0.4384 -0.2299  0.0539
  693MOL0     C95522   9.327   5.232   6.279 -0.0655  0.6768 -1.2111
  693MOL0     C95523   9.448   5.184   6.246 -0.0110  0.1130 -0.4873
  693MOL0     C95524   9.443   5.063   6.157 -1.1984  0.1427  0.7561
  693MOL0     C95525   9.568   5.240   6.283  0.2176 -0.6543  0.1262
  693MOL0     C95526   9.710   5.185   6.257  0.4405 -0.2943 -0.2284
  693MOL0     O95527   9.799   5.286   6.245  0.5297  0.1510 -0.2661
  693MOL0     C95528   9.924   5.255   6.214 -0.1275 -0.1775  0.2426
  693MOL0     C95529  10.030   5.289   6.301  0.4901  0.4328  0.2290
  693MOL0     C95530  10.165   5.269   6.266  0.2968  0.8264 -0.1357
  693MOL0     C95531  10.196   5.197   6.151 -1.1502 -0.2578 -0.0312
  693MOL0     O95532  10.323   5.159   6.111 -0.5678  0.3498  0.4799
  693MOL0     C95533  10.436   5.217   6.181 -0.5239  0.3288 -0.3552
  693MOL0     C95534  10.554   5.144   6.118  0.1340 -0.8045 -0.1541
  693MOL0     C95535  10.674   5.219   6.167 -0.3948  0.1830  0.4554
  693MOL0     C95536  10.789   5.195   6.064  1.2014 -0.4414  1.0332
  693MOL0     C95537  10.926   5.225   6.111 -0.3113  0.6386 -0.6058
  693MOL0     C95538  10.988   5.111   6.203 -0.1847 -0.2998 -0.4612
  693MOL0     C95539  11.035   4.981   6.126 -0.2490 -0.7361 -0.0204
  693MOL0     C95540  11.130   4.896   6.208 -0.1982 -0.2064 -0.5769
  693MOL0    Cl95541  11.293   4.936   6.221  0.1340 -0.6056 -0.3180
  693MOL0     C95542  10.093   5.162   6.068  0.3294  0.2993 -0.3512
  693MOL0     C95543   9.959   5.182   6.100  0.0837  0.0830 -0.5993
  693MOL0     O95544   9.730   5.065   6.249 -0.1669  0.3972  0.3010
  693MOL0     C95545   9.554   5.355   6.362 -0.3977  0.6484  0.3277
  693MOL0     C95546   9.430   5.403   6.400  0.3385 -0.1566  0.4435
  693MOL0     N95547   8.871   5.863   6.691  0.0388  0.0134  0.1950
  693MOL0     N95548   8.793   5.956   6.738 -1.1241 -0.2118 -0.1981
  693MOL0     C95549   7.513   5.921   6.985  0.9061  0.5082  0.2491
  693MOL0     C95550   7.384   5.865   6.995 -0.0746 -0.0196  0.0659
  693MOL0     C95551   6.961   5.824   7.187 -0.2214 -1.1509  0.3487
  693MOL0     C95552   6.874   5.885   7.281 -0.4625 -0.2527  0.0420
  693MOL0     C95553   6.738   5.887   7.266 -0.2998  0.1762 -0.0848
  693MOL0     C95554   6.679   5.835   7.149 -0.7020 -0.0182 -0.3879
  693MOL0     O95555   6.551   5.834   7.122 -0.1913 -0.2734 -0.2465
  693MOL0     C95556   6.453   5.808   7.226 -0.4343 -0.5507  0.8892
  693MOL0     C95557   6.314   5.801   7.161  0.6746  0.6447 -0.8120
  693MOL0     C95558   6.258   5.929   7.113  0.3205 -0.4543 -0.0461
  693MOL0     C95559   6.103   5.929   7.127  0.1636  0.6212 -0.1364
  693MOL0     C95560   6.052   6.043   7.042 -0.4910  0.4664  0.0792
  693MOL0     C95561   6.000   6.136   6.991  0.6647 -0.1642  0.3243
  693MOL0     C95562   6.761   5.780   7.055 -0.4827 -0.3581  0.3122
  693MOL0     C95563   6.902   5.766   7.075 -0.3930  0.3452 -0.4271
  693MOL0     C95564   6.992   5.700   6.973 -0.5359  0.3437 -0.1340
  693MOL0     H95565   7.320   5.944   7.325 -1.8993  0.4430 -1.3066
  693MOL0     H95566   7.547   6.056   7.296 -1.3283  1.7498  0.2720
  693MOL0     H95567   7.762   6.005   6.894 -0.0047  0.7785  0.6187
  693MOL0     H95568   7.788   5.872   7.007  0.5331 -1.1116 -1.2085
  693MOL0     H95569   7.927   6.154   7.027 -1.4112  0.5300 -4.0792
  693MOL0     H95570   7.951   6.015   7.140  0.0756  0.8285  0.4825
  693MOL0     H95571   8.049   5.896   6.932 -1.1643  0.0357  0.1096
  693MOL0     H95572   8.030   6.047   6.843 -2.4047  0.0087  0.2835
  693MOL0     H95573   8.183   6.159   6.988 -0.2757 -0.1661 -0.1002
  693MOL0     H95574   8.184   6.033   7.110  0.9511 -0.6311 -0.6820
  693MOL0     H95575   8.269   5.995   6.823 -2.8632 -2.4517  0.4020
  693MOL0     H95576   8.280   5.866   6.942  4.4184 -0.3431 -0.9206
  693MOL0     H95577   8.422   6.137   6.921  1.5379  0.8420  0.6568
  693MOL0     H95578   8.438   6.035   7.073  1.8392 -0.8313 -0.6143
  693MOL0     H95579   8.546   5.866   6.940  0.8555 -0.9681 -2.1931
  693MOL0     H95580   8.629   6.023   6.933 -1.4232  0.3704  0.6585
  693MOL0     H95581   8.455   5.937   6.694 -1.8914 -0.1169  1.0344
  693MOL0     H95582   8.540   6.089   6.728  0.4629 -0.5976 -3.7794
  693MOL0     H95583   8.582   5.749   6.601 -0.2733 -1.3568  0.8925
  693MOL0     H95584   8.788   5.656   6.447  1.1157  0.9397 -0.1640
  693MOL0     H95585   8.816   5.565   6.603 -1.3993  0.5265 -0.4623
  693MOL0     H95586   9.001   5.758   6.471 -0.2389  0.8108 -0.4110
  693MOL0     H95587   9.025   5.678   6.633 -1.0312  0.1435  0.2795
  693MOL0     H95588   8.989   5.461   6.506  4.5987 -2.8006  2.6995
  693MOL0     H95589   8.994   5.539   6.356  0.8644  1.7244 -1.1196
  693MOL0     H95590   9.240   5.592   6.396 -1.0784  0.5272 -2.0325
  693MOL0     H95591   9.222   5.526   6.563  1.6225  0.6865 -0.2243
  693MOL0     H95592   9.239   5.172   6.258  0.1818 -0.0489 -0.2308
  693MOL0     H95593   9.349   5.062   6.101 -1.2233 -0.4700  0.7992
  693MOL0     H95594   9.458   4.968   6.210 -0.4814  1.0332  2.2169
  693MOL0     H95595   9.515   5.066   6.074 -3.2345  1.5395 -1.0348
  693MOL0     H95596  10.012   5.332   6.399  0.8247  0.1434  0.4213
  693MOL0     H95597  10.244   5.313   6.326  1.2767 -0.3445 -0.5223
  693MOL0     H95598  10.439   5.326   6.166  1.3988  0.4582  0.6679
  693MOL0     H95599  10.438   5.196   6.288  3.8813 -1.4015 -0.5723
  693MOL0     H95600  10.565   5.041   6.153  0.7904 -0.9830 -0.8769
  693MOL0     H95601  10.547   5.151   6.009 -1.9037 -0.5856 -0.0551
  693MOL0     H95602  10.705   5.187   6.267 -2.5233  1.9081  1.7734
  693MOL0     H95603  10.658   5.327   6.169 -2.0344  0.0686 -2.0707
  693MOL0     H95604  10.776   5.267   5.983 -0.5362 -0.0022  1.6618
  693MOL0     H95605  10.785   5.093   6.025  3.0675 -0.8182  1.7026
  693MOL0     H95606  10.991   5.229   6.023 -0.2457 -1.4102 -0.6908
  693MOL0     H95607  10.933   5.322   6.162 -2.3129  1.4606 -1.7700
  693MOL0     H95608  10.920   5.084   6.284 -2.3882  1.8027 -1.4784
  693MOL0     H95609  11.075   5.154   6.254 -1.0900  1.9002 -0.6871
  693MOL0     H95610  11.078   4.999   6.026 -1.0942 -3.7926 -1.0431
  693MOL0     H95611  10.948   4.923   6.093 -1.5295  1.4409 -0.6978
  693MOL0     H95612  11.127   4.794   6.169  1.5765 -0.0502 -1.2140
  693MOL0     H95613  11.083   4.890   6.307 -1.9231  0.4347 -1.3097
  693MOL0     H95614  10.104   5.123   5.967 -1.9265  1.8694 -1.3102
  693MOL0     H95615   9.882   5.135   6.040 -1.7025 -0.9889  2.3139
  693MOL0     H95616   9.648   5.394   6.400 -0.4777  0.9999  0.1711
  693MOL0     H95617   9.438   5.492   6.463  0.4363  0.2650 -0.1534
  693MOL0     H95618   7.573   5.893   6.899  2.8843  1.3958  1.2735
  693MOL0     H95619   7.335   5.805   6.919 -1.3983 -1.2879  1.8583
  693MOL0     H95620   6.919   5.921   7.373 -1.7225  0.5107  0.3840
  693MOL0     H95621   6.686   5.921   7.355 -0.5536 -2.1393  0.7083
  693MOL0     H95622   6.472   5.710   7.270  2.4273  1.1289  3.8263
  693MOL0     H95623   6.465   5.882   7.306 -1.6070  1.6318 -0.8065
  693MOL0     H95624   6.257   5.777   7.251  2.9038 -1.3831  0.1572
  693MOL0     H95625   6.310   5.729   7.078 -0.4593 -0.0290 -0.1968
  693MOL0     H95626   6.283   6.011   7.180 -2.8841  2.3850 -2.0285
  693MOL0     H95627   6.296   5.956   7.014 -1.9833  2.1543 -0.3273
  693MOL0     H95628   6.065   5.941   7.229  1.7133  1.2877  0.3989
  693MOL0     H95629   6.071   5.828   7.101  0.9031  0.1293  0.7799
  693MOL0     H95630   5.950   6.218   6.944  1.0244  1.7499  3.0288
  693MOL0     H95631   6.725   5.734   6.964  2.8541  0.5864 -1.6674
  693MOL0     H95632   6.928   5.635   6.913  0.0206  0.2847 -0.6876
  693MOL0     H95633   7.043   5.773   6.909 -2.7347  1.0456 -1.1812
  693MOL0     H95634   7.061   5.632   7.024  0.1590  0.6881 -0.5958
  694MOL0     O95635   7.455   8.261   5.387  0.2631  0.2918  0.4681
  694MOL0     C95636   7.385   8.245   5.486 -0.7977  0.0693 -0.5777
  694MOL0     O95637   7.420   8.293   5.609  0.0557 -0.1356 -0.2994
  694MOL0     C95638   7.544   8.353   5.632  0.4981 -0.5869 -0.7391
  694MOL0     C95639   7.649   8.270   5.632 -0.6969 -0.2732 -0.6516
  694MOL0     C95640   7.779   8.324   5.644  0.7437  0.2007 -0.1112
  694MOL0     C95641   7.798   8.458   5.666 -0.8738 -0.3092 -0.6753
  694MOL0     O95642   7.930   8.500   5.656  0.1889  0.6921 -0.9787
  694MOL0     C95643   7.973   8.626   5.707 -0.0689 -0.4989  0.8528
  694MOL0     C95644   8.105   8.629   5.771  0.2963 -0.2903 -0.4273
  694MOL0     C95645   8.214   8.592   5.677  0.0447 -0.2333  0.0115
  694MOL0     C95646   8.329   8.557   5.787  0.1247  0.1107  0.4138
  694MOL0     C95647   8.448   8.532   5.707  0.0941  0.5594  0.3366
  694MOL0     C95648   8.564   8.494   5.794 -0.4566  0.5301 -0.3609
  694MOL0     C95649   8.570   8.335   5.816  0.6116  0.4330  0.1465
  694MOL0     C95650   8.694   8.288   5.878 -1.0981  0.4097  0.0495
  694MOL0     N95651   8.809   8.310   5.793 -0.6280 -0.0623 -0.7415
  694MOL0     C95652   8.862   8.208   5.712  0.3775 -0.3057 -0.2915
  694MOL0     C95653   8.968   8.270   5.647 -0.1664 -0.3411 -0.1181
  694MOL0     C95654   9.081   8.210   5.560  0.1772 -0.8273  0.3302
  694MOL0     C95655   9.221   8.219   5.629 -0.1070  0.1386 -0.2298
  694MOL0     C95656   9.319   8.122   5.558 -0.9002  0.7095  0.3030
  694MOL0     C95657   9.345   8.167   5.411 -0.4731  1.3866 -0.2324
  694MOL0     O95658   9.456   8.264   5.411 -0.3225  1.6938 -1.3026
  694MOL0     C95659   9.592   8.233   5.428 -0.0269  0.7482 -0.6775
  694MOL0     C95660   9.675   8.339   5.448  0.4678 -0.5606  0.4878
  694MOL0     C95661   9.811   8.327   5.459 -0.3471 -0.0313 -0.0918
  694MOL0     C95662   9.887   8.457   5.481 -0.0018  0.6425  0.1664
  694MOL0     C95663   9.870   8.197   5.448 -0.0635  0.5359  0.5156
  694MOL0     C95664  10.018   8.176   5.465 -0.4459 -0.4429  0.0621
  694MOL0     O95665  10.093   8.278   5.518 -0.1552 -0.4653  0.6567
  694MOL0     C95666  10.225   8.257   5.530  0.3419  0.5931  0.1690
  694MOL0     C95667  10.309   8.289   5.423 -0.4691 -0.6608 -0.1906
  694MOL0     C95668  10.445   8.265   5.425  0.3345  0.2148 -0.1084
  694MOL0     C95669  10.494   8.189   5.524 -0.4675  0.1126 -0.0546
  694MOL0     O95670  10.622   8.149   5.538  0.1286 -0.2321  0.7543
  694MOL0     C95671  10.717   8.155   5.420 -0.7261 -0.0135 -0.9352
  694MOL0     C95672  10.859   8.145   5.480  0.8961 -0.2326  0.7786
  694MOL0     C95673  10.965   8.081   5.377 -0.1988 -0.5689 -0.1033
  694MOL0     C95674  10.963   7.936   5.362 -0.1743  0.3511  0.0636
  694MOL0     C95675  11.082   7.881   5.272  0.5067  0.1690 -0.0341
  694MOL0     C95676  11.209   7.874   5.357 -0.2275 -0.3810  0.1439
  694MOL0     C95677  11.322   7.804   5.287 -0.2228 -0.2305 -0.3890
  694MOL0     C95678  11.453   7.848   5.356  0.1925 -0.0095 -0.1194
  694MOL0    Cl95679  11.580   7.741   5.311  0.0944  0.2052  0.5998
  694MOL0     C95680  10.405   8.139   5.625  0.2280 -0.4851 -0.3097
  694MOL0     C95681  10.274   8.183   5.632 -0.1062 -0.4365  0.8608
  694MOL0     O95682  10.071   8.072   5.412  0.1032 -0.8259 -0.1166
  694MOL0     C95683   9.787   8.085   5.421 -0.5794  0.3018 -0.5158
  694MOL0     C95684   9.652   8.106   5.419  0.3900 -0.2419 -0.3102
  694MOL0     N95685   8.963   8.406   5.678  0.4072 -0.8005  0.0177
  694MOL0     N95686   8.875   8.429   5.775  0.9862 -0.9164 -0.0478
  694MOL0     C95687   7.688   8.546   5.674 -0.1450  0.1985 -0.1485
  694MOL0     C95688   7.554   8.490   5.664 -0.9923  0.3415  0.6473
  694MOL0     C95689   7.253   8.171   5.474 -0.8591 -0.3140  0.1402
  694MOL0     C95690   7.173   8.168   5.585 -0.3181 -0.1294 -0.2175
  694MOL0     C95691   7.050   8.104   5.586  0.0631 -0.3867 -0.4943
  694MOL0     C95692   6.995   8.056   5.470  1.2211  1.0100 -0.8329
  694MOL0     O95693   6.890   7.976   5.484 -0.2281 -0.4477 -0.1797
  694MOL0     C95694   6.777   8.017   5.404 -0.3135  0.2817  0.1223
  694MOL0     C95695   6.708   8.148   5.446 -0.7220  0.2064  0.0347
  694MOL0     C95696   6.647   8.135   5.582 -0.7722 -0.3309 -0.2085
  694MOL0     C95697   6.578   8.263   5.628 -0.1013  0.3508  0.5863
  694MOL0     C95698   6.507   8.239   5.753 -0.8168  0.4851 -0.0908
  694MOL0     C95699   6.450   8.211   5.866 -0.3285 -0.1213 -0.3552
  694MOL0     C95700   7.076   8.064   5.353  0.8093 -0.4842 -0.0104
  694MOL0     C95701   7.198   8.124   5.349 -0.4486 -0.5608 -1.2161
  694MOL0     C95702   7.277   8.107   5.217 -0.5089  0.2080  0.7818
  694MOL0     H95703   7.637   8.163   5.619 -4.2092 -0.5320  2.8183
  694MOL0     H95704   7.868   8.263   5.648 -1.4987 -3.5694 -2.1170
  694MOL0     H95705   7.901   8.660   5.782  2.0465 -0.6357  3.0851
  694MOL0     H95706   7.980   8.698   5.624 -0.9349 -0.8678  0.4471
  694MOL0     H95707   8.119   8.726   5.819 -1.0325 -1.1696  1.8927
  694MOL0     H95708   8.104   8.554   5.851  3.4063 -2.7550 -2.4274
  694MOL0     H95709   8.204   8.508   5.608  0.3952  0.6661 -1.1658
  694MOL0     H95710   8.242   8.685   5.627 -2.0131 -0.4876 -1.7212
  694MOL0     H95711   8.336   8.640   5.857  0.4187  1.6324 -1.3585
  694MOL0     H95712   8.304   8.465   5.841 -0.8114  0.3090  0.3406
  694MOL0     H95713   8.478   8.622   5.651 -0.3654  0.4570 -0.0816
  694MOL0     H95714   8.431   8.463   5.625 -0.1598  2.1481 -1.0071
  694MOL0     H95715   8.653   8.527   5.740  2.2704 -1.5122  2.5433
  694MOL0     H95716   8.543   8.540   5.890 -0.7396 -0.7435  0.2125
  694MOL0     H95717   8.557   8.282   5.721 -0.6929  2.1999 -0.7239
  694MOL0     H95718   8.486   8.310   5.881 -0.5988 -0.1279 -1.5350
  694MOL0     H95719   8.710   8.334   5.975  0.2956  0.6938 -0.2899
  694MOL0     H95720   8.688   8.180   5.887  5.1737 -0.1595  2.1012
  694MOL0     H95721   8.832   8.104   5.710  0.1422 -0.2492  0.2355
  694MOL0     H95722   9.090   8.262   5.464  0.9117  0.1322  0.9035
  694MOL0     H95723   9.068   8.103   5.539  0.7081 -0.7416 -0.4825
  694MOL0     H95724   9.249   8.324   5.613 -2.1691  0.3191 -3.8088
  694MOL0     H95725   9.214   8.200   5.737 -0.6324 -0.6626 -0.4000
  694MOL0     H95726   9.418   8.130   5.604 -0.2002 -0.2988 -0.9546
  694MOL0     H95727   9.283   8.020   5.577  3.4566 -1.3808 -1.3360
  694MOL0     H95728   9.368   8.081   5.348 -1.7520  0.0085  1.0719
  694MOL0     H95729   9.256   8.211   5.365 -0.0007  0.3478 -2.2685
  694MOL0     H95730   9.637   8.439   5.468  0.6672 -0.6898  1.5565
  694MOL0     H95731   9.835   8.553   5.475  0.9410  1.2352  1.1217
  694MOL0     H95732   9.961   8.466   5.401 -0.8913 -0.4899 -0.8209
  694MOL0     H95733   9.935   8.449   5.579  1.0193 -1.1595 -0.4465
  694MOL0     H95734  10.271   8.346   5.338  1.8165 -1.0313 -1.5357
  694MOL0     H95735  10.506   8.321   5.355  1.0293  0.2540  0.5197
  694MOL0     H95736  10.699   8.065   5.360 -2.2252  0.1839 -0.8304
  694MOL0     H95737  10.706   8.241   5.354  0.8538  1.9112  1.1655
  694MOL0     H95738  10.899   8.240   5.515 -2.2160  2.0588 -1.2811
  694MOL0     H95739  10.853   8.077   5.565  1.0791  0.0124  0.9863
  694MOL0     H95740  11.059   8.109   5.426  0.3608 -2.7222  0.1581
  694MOL0     H95741  10.966   8.127   5.278 -1.9686 -1.7377 -0.7108
  694MOL0     H95742  10.870   7.912   5.310 -1.1632 -0.3811  2.0403
  694MOL0     H95743  10.963   7.878   5.455 -0.1575 -1.0634 -0.8002
  694MOL0     H95744  11.048   7.781   5.247 -2.6857  0.5442  2.2342
  694MOL0     H95745  11.096   7.931   5.176  2.3002  2.9883  1.5437
  694MOL0     H95746  11.187   7.812   5.445 -0.7619 -2.6242 -1.4975
  694MOL0     H95747  11.238   7.969   5.403 -0.2400 -0.2705 -0.0784
  694MOL0     H95748  11.326   7.837   5.183 -1.4885 -1.1230 -0.7455
  694MOL0     H95749  11.311   7.695   5.286  1.0641 -0.3998 -2.2427
  694MOL0     H95750  11.445   7.835   5.464  1.3383 -0.3610 -0.0632
  694MOL0     H95751  11.475   7.952   5.333  0.3866 -0.1946 -0.8190
  694MOL0     H95752  10.437   8.054   5.684 -0.2260 -1.2259 -1.1064
  694MOL0     H95753  10.215   8.139   5.711  0.5936 -0.9398  1.1165
  694MOL0     H95754   9.841   7.991   5.419  1.9894  1.6961 -2.6329
  694MOL0     H95755   9.583   8.023   5.410 -0.4778 -0.2938  4.2229
  694MOL0     H95756   7.707   8.652   5.686 -1.0122  0.3141  0.3197
  694MOL0     H95757   7.462   8.545   5.654 -0.4022  1.2671  0.2216
  694MOL0     H95758   7.217   8.217   5.672 -0.0276  1.2319 -1.0976
  694MOL0     H95759   6.991   8.095   5.676 -0.8457  1.7448 -0.8213
  694MOL0     H95760   6.799   8.004   5.298  1.4859  0.5496  0.4305
  694MOL0     H95761   6.700   7.940   5.417 -1.4545  1.0160 -1.8968
  694MOL0     H95762   6.630   8.157   5.369  0.8728  0.0129 -1.6641
  694MOL0     H95763   6.779   8.230   5.445  1.2988 -1.4604 -0.2187
  694MOL0     H95764   6.591   8.042   5.589 -1.5064  0.0910 -0.3472
  694MOL0     H95765   6.731   8.125   5.653 -0.4188  3.2778  0.0786
  694MOL0     H95766   6.505   8.283   5.549  1.1529 -1.1632 -1.0694
  694MOL0     H95767   6.634   8.356   5.619 -0.7804  0.6750 -0.5760
  694MOL0     H95768   6.403   8.195   5.960 -1.7820 -2.2710 -1.3775
  694MOL0     H95769   7.030   8.021   5.264 -2.0423  0.8786  0.6706
  694MOL0     H95770   7.279   8.197   5.154  1.2478 -0.0068  0.5024
  694MOL0     H95771   7.379   8.073   5.234 -0.4409 -1.0858 -1.8860
  694MOL0     H95772   7.217   8.035   5.161  1.1772  0.3768 -1.3285
  695MOL0     O95773  10.180   9.222   1.353  1.0826 -0.0097  0.0255
  695MOL0     C95774  10.137   9.141   1.436 -0.0911  0.3031 -0.0589
  695MOL0     O95775  10.191   9.103   1.549 -0.3357  0.5900 -0.1399
  695MOL0     C95776  10.301   9.168   1.603  0.0777  0.2974 -0.8205
  695MOL0     C95777  10.286   9.296   1.647 -0.2781  0.1428 -0.7100
  695MOL0     C95778  10.392   9.364   1.718 -0.4842 -0.0273 -0.0337
  695MOL0     C95779  10.514   9.303   1.744 -0.5081 -0.0696 -0.4168
  695MOL0     O95780  10.621   9.360   1.815  0.2238 -0.0470 -0.5981
  695MOL0     C95781  10.752   9.316   1.791  0.2953 -0.9062  0.5283
  695MOL0     C95782  10.838   9.417   1.863 -0.6302 -0.1493  0.0369
  695MOL0     C95783  10.827   9.405   2.015  0.0246  0.6509  0.7580
  695MOL0     C95784  10.935   9.473   2.099  0.2432 -0.3736 -0.0568
  695MOL0     C95785  11.064   9.398   2.108  1.2779 -0.1357 -0.3479
  695MOL0     C95786  11.164   9.468   2.208 -0.1783  0.3062 -0.0079
  695MOL0     C95787  11.306   9.417   2.189 -0.6139 -0.2431 -0.1963
  695MOL0     C95788  11.317   9.281   2.260  0.1555 -1.2599 -0.3302
  695MOL0     N95789  11.429   9.201   2.233 -0.1938  0.1719  0.4766
  695MOL0     C95790  11.566   9.233   2.250  0.1549  1.3903 -0.4995
  695MOL0     C95791  11.639   9.123   2.214  0.2777  0.1124 -0.7303
  695MOL0     C95792  11.784   9.094   2.222 -0.5897  0.7131  0.0100
  695MOL0     C95793  11.803   8.973   2.324 -0.7040  0.8220  0.0848
  695MOL0     C95794  11.947   8.946   2.381  0.1081  0.1376 -0.4062
  695MOL0     C95795  12.047   8.891   2.282  0.3243  0.7191 -0.3819
  695MOL0     O95796  12.170   8.888   2.361  0.3741 -0.6284  0.0809
  695MOL0     C95797  12.282   8.853   2.290 -0.0694 -0.4536  0.1051
  695MOL0     C95798  12.289   8.838   2.145 -0.2879  0.1934  0.7169
  695MOL0     C95799  12.416   8.818   2.077  0.0597 -0.8045 -0.1033
  695MOL0     C95800  12.407   8.795   1.925  0.5541 -0.1087  0.1930
  695MOL0     C95801  12.534   8.792   2.159 -0.0394 -1.3036 -0.1983
  695MOL0     C95802  12.675   8.754   2.111  0.2500 -0.2317  0.0799
  695MOL0     O95803  12.776   8.721   2.206  0.0696  0.2398  0.1634
  695MOL0     C95804  12.910   8.742   2.173  0.0514  0.0144  0.4010
  695MOL0     C95805  12.969   8.802   2.065 -0.8562  0.3262  0.0002
  695MOL0     C95806  13.111   8.803   2.043 -1.3155  0.1072 -0.5985
  695MOL0     C95807  13.202   8.751   2.146  1.1581 -0.0126  0.8690
  695MOL0     O95808  13.339   8.754   2.159  0.5193 -0.7895 -0.3316
  695MOL0     C95809  13.405   8.820   2.056 -0.8175 -0.5212 -0.1465
  695MOL0     C95810  13.558   8.831   2.077  0.4808 -0.3796 -0.4847
  695MOL0     C95811  13.587   8.912   2.210  0.2357 -1.4976 -0.3541
  695MOL0     C95812  13.739   8.924   2.226  0.5579 -0.0387  1.3101
  695MOL0     C95813  13.768   9.016   2.349  0.1946 -0.6171 -0.4168
  695MOL0     C95814  13.915   9.056   2.363  0.8583  0.3209 -0.5372
  695MOL0     C95815  13.967   9.135   2.244 -0.3570 -0.2206  0.2744
  695MOL0     C95816  14.106   9.206   2.247  0.7510  0.4461 -0.2840
  695MOL0    Cl95817  14.103   9.349   2.354 -0.3711 -0.0407 -0.4738
  695MOL0     C95818  13.142   8.688   2.256  0.8061  0.6611 -0.5872
  695MOL0     C95819  12.999   8.688   2.266  0.3539 -0.2695  0.1943
  695MOL0     O95820  12.684   8.752   1.985  0.1346  0.1723  0.1348
  695MOL0     C95821  12.528   8.819   2.304  0.3867  0.0513  0.3434
  695MOL0     C95822  12.401   8.853   2.359  1.1645  0.5340 -0.2283
  695MOL0     N95823  11.552   9.036   2.154 -0.5180 -0.0087 -0.3494
  695MOL0     N95824  11.435   9.088   2.156  0.1133  0.4205 -0.4520
  695MOL0     C95825  10.525   9.170   1.701  0.2056 -1.0041 -0.8331
  695MOL0     C95826  10.420   9.100   1.642 -0.3877  0.3143 -0.1166
  695MOL0     C95827   9.999   9.079   1.417 -1.0274 -0.3703  0.3771
  695MOL0     C95828   9.907   9.162   1.370  0.2434  0.0860 -0.6693
  695MOL0     C95829   9.774   9.125   1.348 -0.3377  0.5082  0.2913
  695MOL0     C95830   9.738   8.996   1.394 -0.3307 -0.8168 -0.1198
  695MOL0     O95831   9.610   8.949   1.403  0.3469  0.6082  0.6403
  695MOL0     C95832   9.504   9.039   1.393 -0.5066  0.4496  0.3777
  695MOL0     C95833   9.384   8.957   1.443 -0.0768  0.2085 -0.1449
  695MOL0     C95834   9.254   9.044   1.429  1.1735 -0.1783  1.0254
  695MOL0     C95835   9.129   8.971   1.467  0.3976  0.3942  0.1111
  695MOL0     C95836   9.115   8.955   1.614  0.8343 -0.9468 -0.0691
  695MOL0     C95837   9.110   8.937   1.729  0.6024  0.2367 -1.2519
  695MOL0     C95838   9.837   8.907   1.439  0.8877  0.3357 -0.4424
  695MOL0     C95839   9.968   8.946   1.448  0.0056 -0.5188 -0.7801
  695MOL0     C95840  10.068   8.851   1.515 -0.3657  0.4590  0.0045
  695MOL0     H95841  10.194   9.350   1.623 -0.0815 -0.2718 -2.5246
  695MOL0     H95842  10.364   9.464   1.750 -0.7497  0.5787 -2.0355
  695MOL0     H95843  10.766   9.323   1.683  0.0303  1.1792  0.5896
  695MOL0     H95844  10.781   9.222   1.838  1.4449  0.0907  1.9098
  695MOL0     H95845  10.937   9.391   1.824  1.5462  3.9614  2.1600
  695MOL0     H95846  10.813   9.518   1.830  0.5403  0.0091 -0.4121
  695MOL0     H95847  10.731   9.435   2.057 -0.1900 -0.6789  1.2671
  695MOL0     H95848  10.826   9.305   2.060  0.8376  0.8562  1.2677
  695MOL0     H95849  10.962   9.569   2.055  0.0809  0.8155  2.3092
  695MOL0     H95850  10.898   9.483   2.201 -1.1914  0.7139 -0.6586
  695MOL0     H95851  11.116   9.401   2.012  1.5200  2.3598 -0.1996
  695MOL0     H95852  11.043   9.294   2.133  2.0853 -0.2276 -0.0409
  695MOL0     H95853  11.162   9.576   2.192  0.6568  0.2184 -0.7776
  695MOL0     H95854  11.134   9.437   2.308  1.9873 -0.3237  0.4809
  695MOL0     H95855  11.366   9.496   2.237 -2.0685  1.4283 -1.0239
  695MOL0     H95856  11.331   9.399   2.084  2.5599  0.4681  0.3329
  695MOL0     H95857  11.327   9.315   2.363 -2.6923 -0.2629 -0.2848
  695MOL0     H95858  11.231   9.215   2.240 -1.0986  1.0760 -3.5030
  695MOL0     H95859  11.603   9.326   2.292 -2.0026  0.9441  2.6984
  695MOL0     H95860  11.838   9.181   2.263  2.7590 -0.8209 -0.8047
  695MOL0     H95861  11.824   9.071   2.123  0.0041 -0.2574  0.4592
  695MOL0     H95862  11.743   8.998   2.412  0.0737  2.1527  0.2633
  695MOL0     H95863  11.774   8.879   2.277  1.6413 -0.4814  1.0641
  695MOL0     H95864  11.988   9.034   2.431 -3.3674  0.5783  2.0370
  695MOL0     H95865  11.944   8.873   2.462  1.2319 -0.5897 -0.9995
  695MOL0     H95866  12.019   8.793   2.243 -2.4410  1.3071 -0.1098
  695MOL0     H95867  12.050   8.951   2.190 -1.5352 -1.5246 -2.0304
  695MOL0     H95868  12.200   8.852   2.084  0.2435  3.4626  0.4865
  695MOL0     H95869  12.305   8.802   1.887  0.0440 -1.9915  1.0761
  695MOL0     H95870  12.455   8.701   1.896  0.0514 -0.0103 -0.9964
  695MOL0     H95871  12.466   8.872   1.875 -0.6840  1.3168  0.8627
  695MOL0     H95872  12.905   8.862   2.000 -1.1510 -0.5262 -0.5085
  695MOL0     H95873  13.155   8.848   1.955 -0.3120 -1.5346 -0.9700
  695MOL0     H95874  13.404   8.767   1.960  0.1197 -0.8748  0.0281
  695MOL0     H95875  13.375   8.925   2.060  3.1400  0.7461  1.2430
  695MOL0     H95876  13.604   8.732   2.079 -0.1042 -0.6629  1.7019
  695MOL0     H95877  13.587   8.899   1.996 -0.6303  1.6116  0.6981
  695MOL0     H95878  13.549   8.852   2.293  2.7128 -4.7021 -1.3063
  695MOL0     H95879  13.544   9.013   2.213  1.2069 -1.0487 -0.8625
  695MOL0     H95880  13.774   8.956   2.127 -0.2579 -2.7128  0.0814
  695MOL0     H95881  13.783   8.825   2.236 -0.9584 -0.8587  0.2762
  695MOL0     H95882  13.707   9.107   2.343  1.1163  0.0697  0.3252
  695MOL0     H95883  13.730   8.967   2.439 -0.1912  0.7022  0.1601
  695MOL0     H95884  13.978   8.968   2.376  1.4266  0.8739  0.5206
  695MOL0     H95885  13.910   9.119   2.452 -0.8802 -0.8775  0.2836
  695MOL0     H95886  13.884   9.204   2.227  0.1311  0.8219  1.9061
  695MOL0     H95887  13.975   9.069   2.157 -0.6989 -1.2300  0.9846
  695MOL0     H95888  14.129   9.242   2.146  1.7984 -3.0181 -1.4055
  695MOL0     H95889  14.188   9.140   2.277 -0.4965 -0.8999  0.2126
  695MOL0     H95890  13.205   8.651   2.337  0.0574  2.0543  0.6747
  695MOL0     H95891  12.944   8.643   2.348 -0.4843  0.4874  0.0595
  695MOL0     H95892  12.619   8.815   2.363  2.5955 -0.2570 -2.7951
  695MOL0     H95893  12.401   8.875   2.465 -0.8833 -2.6205  0.5551
  695MOL0     H95894  10.610   9.104   1.718  1.0686 -0.1937 -1.8248
  695MOL0     H95895  10.428   8.998   1.605 -0.9712  0.6211 -1.1200
  695MOL0     H95896   9.936   9.263   1.342  0.4978 -0.4633 -2.5120
  695MOL0     H95897   9.704   9.187   1.293  0.2509 -1.3330 -2.7264
  695MOL0     H95898   9.516   9.121   1.465 -2.8116  1.4646 -0.2869
  695MOL0     H95899   9.492   9.082   1.293  0.6837 -2.2737 -1.0312
  695MOL0     H95900   9.406   8.935   1.548 -2.3484  1.0952  0.5934
  695MOL0     H95901   9.374   8.863   1.387  1.9856  0.7745 -1.5809
  695MOL0     H95902   9.258   9.136   1.490  1.4349  0.1329  0.5418
  695MOL0     H95903   9.242   9.080   1.327  0.6742  1.9258  1.7700
  695MOL0     H95904   9.121   8.869   1.429 -1.1447 -0.5229  2.6273
  695MOL0     H95905   9.037   9.021   1.435  1.0483  0.8353 -1.1575
  695MOL0     H95906   9.115   8.921   1.835  0.4969  0.9486 -1.1271
  695MOL0     H95907   9.819   8.803   1.466 -0.8663  1.1599  1.9074
  695MOL0     H95908  10.170   8.878   1.489 -0.0229  0.0430  0.8760
  695MOL0     H95909  10.047   8.856   1.622 -2.8850 -2.2360 -0.2207
  695MOL0     H95910  10.054   8.751   1.474  0.0209  0.5019 -0.2296
  696MOL0     O95911   6.418   4.631  10.279 -0.0033  0.1783 -0.4706
  696MOL0     C95912   6.378   4.633  10.393 -0.5087  0.9126  0.5331
  696MOL0     O95913   6.459   4.586  10.495 -0.2054 -0.4558 -0.1060
  696MOL0     C95914   6.587   4.552  10.483 -1.0804 -0.5677 -0.4641
  696MOL0     C95915   6.636   4.445  10.566 -0.1321  0.3605  0.5672
  696MOL0     C95916   6.763   4.398  10.557 -0.0620  0.1317  0.6038
  696MOL0     C95917   6.852   4.450  10.462  0.7522  0.5149  0.5976
  696MOL0     O95918   6.974   4.398  10.452 -0.5056 -0.0202  0.0976
  696MOL0     C95919   7.058   4.446  10.558 -0.6344 -0.6760  0.6446
  696MOL0     C95920   7.194   4.379  10.545  0.3773 -0.1436 -1.2700
  696MOL0     C95921   7.297   4.446  10.640 -0.2536  0.6256  0.2232
  696MOL0     C95922   7.427   4.384  10.610  0.3540  0.6075 -0.0102
  696MOL0     C95923   7.524   4.417  10.723  0.5750 -0.4141  0.0505
  696MOL0     C95924   7.661   4.363  10.689  0.7621  0.5334  0.6625
  696MOL0     C95925   7.768   4.418  10.773 -0.4179  0.6000 -1.0855
  696MOL0     C95926   7.846   4.525  10.698 -0.6807 -0.5751 -0.4869
  696MOL0     N95927   7.935   4.590  10.784  0.3095 -0.3391 -0.4823
  696MOL0     C95928   8.067   4.571  10.806 -0.4171  0.5761  0.9422
  696MOL0     C95929   8.117   4.678  10.877 -0.3974  0.1189 -0.3369
  696MOL0     C95930   8.262   4.686  10.926  0.6032 -0.7801 -0.4870
  696MOL0     C95931   8.324   4.821  10.884  0.0346 -0.5854 -0.5633
  696MOL0     C95932   8.463   4.849  10.937  0.2141 -0.7125 -0.3486
  696MOL0     C95933   8.577   4.748  10.905  0.5698 -0.3927  0.3685
  696MOL0     O95934   8.549   4.612  10.940 -0.6509 -0.7785  0.2908
  696MOL0     C95935   8.649   4.519  10.930 -0.0430  0.3496  0.5049
  696MOL0     C95936   8.618   4.401  10.990  0.5039  0.6525 -1.1717
  696MOL0     C95937   8.710   4.294  11.009  0.5769  0.8948 -0.2484
  696MOL0     C95938   8.677   4.182  11.107 -0.2470  0.0754 -0.8098
  696MOL0     C95939   8.836   4.318  10.952 -0.1411  0.2179 -0.0845
  696MOL0     C95940   8.950   4.231  10.963  0.0558 -1.1163  0.2851
  696MOL0     O95941   9.074   4.280  10.944 -0.1741  0.2478 -0.4237
  696MOL0     C95942   9.177   4.185  10.954 -0.1111  0.4602 -0.1455
  696MOL0     C95943   9.201   4.083  10.859  0.9088 -0.1108 -0.1005
  696MOL0     C95944   9.318   4.008  10.867  0.0650 -0.0407 -0.3213
  696MOL0     C95945   9.411   4.025  10.972 -0.4335  1.1804 -0.7830
  696MOL0     O95946   9.527   3.950  10.961 -0.2593 -0.1709 -0.0015
  696MOL0     C95947   9.660   4.020  10.995 -0.1539  1.6828  0.0513
  696MOL0     C95948   9.769   3.938  10.918 -0.6219 -0.0478  0.5859
  696MOL0     C95949   9.911   3.992  10.964  0.0474  0.0458  0.1844
  696MOL0     C95950  10.014   3.916  10.869 -0.7912 -0.2577 -0.2236
  696MOL0     C95951  10.141   3.987  10.887 -0.4800  1.4372  1.0579
  696MOL0     C95952  10.260   3.904  10.816  0.9589 -0.2254  0.0668
  696MOL0     C95953  10.391   3.971  10.844  0.0292  0.1221 -0.5668
  696MOL0     C95954  10.519   3.900  10.809  0.7072  0.4465 -0.4846
  696MOL0    Cl95955  10.661   4.007  10.818 -0.7238 -0.2632 -0.1468
  696MOL0     C95956   9.387   4.125  11.071  0.8895  0.0238  0.7754
  696MOL0     C95957   9.267   4.200  11.061 -0.1129  0.6662 -0.4654
  696MOL0     O95958   8.923   4.120  10.995 -0.4362  0.7038 -0.5365
  696MOL0     C95959   8.870   4.438  10.888  0.4595 -0.6705  0.2595
  696MOL0     C95960   8.779   4.538  10.882 -0.3344  0.4837 -0.5999
  696MOL0     N95961   8.014   4.761  10.904  0.3465 -0.7219  0.0678
  696MOL0     N95962   7.914   4.718  10.837 -0.1201  1.1224 -0.4783
  696MOL0     C95963   6.816   4.556  10.387  0.3879 -1.6397  1.2415
  696MOL0     C95964   6.680   4.611  10.392 -0.1498  0.7936 -0.7967
  696MOL0     C95965   6.240   4.670  10.433  0.0661 -0.0588 -0.5665
  696MOL0     C95966   6.213   4.670  10.572  0.4570 -0.7686 -0.2330
  696MOL0     C95967   6.080   4.678  10.615 -0.0470 -1.0191  0.1000
  696MOL0     C95968   5.978   4.703  10.525  0.0845 -0.2643 -0.1945
  696MOL0     O95969   5.851   4.717  10.584 -0.0858 -0.0477  0.3184
  696MOL0     C95970   5.744   4.769  10.506  0.6929 -0.3233  0.7067
  696MOL0     C95971   5.605   4.737  10.564 -1.0647 -0.2796 -0.2583
  696MOL0     C95972   5.550   4.604  10.505 -1.0541 -0.7148  0.6421
  696MOL0     C95973   5.426   4.563  10.572  0.4706  0.8852  0.3271
  696MOL0     C95974   5.393   4.422  10.552  0.3023  0.7037 -0.0941
  696MOL0     C95975   5.351   4.311  10.540  0.5785 -0.1647 -0.0927
  696MOL0     C95976   6.012   4.737  10.392  0.7036  0.6986  0.2117
  696MOL0     C95977   6.135   4.715  10.343 -0.3964 -0.4294  0.4977
  696MOL0     C95978   6.168   4.742  10.197  0.0516 -0.6909 -0.2442
  696MOL0     H95979   6.580   4.392  10.642  0.1101  0.0115  0.5067
  696MOL0     H95980   6.795   4.309  10.611 -0.9615 -0.6162 -0.0512
  696MOL0     H95981   7.017   4.405  10.651 -2.7944 -0.0862 -0.0009
  696MOL0     H95982   7.057   4.555  10.567 -5.5751 -0.4092 -0.3861
  696MOL0     H95983   7.182   4.275  10.576  2.2963  0.2193  1.0012
  696MOL0     H95984   7.238   4.386  10.445  2.2399  1.7250 -0.3990
  696MOL0     H95985   7.305   4.553  10.619  0.7516 -0.0587 -3.5991
  696MOL0     H95986   7.264   4.435  10.743  0.6400  1.7133  0.6374
  696MOL0     H95987   7.421   4.275  10.616 -1.6017  0.6795 -0.0718
  696MOL0     H95988   7.456   4.424  10.512 -2.9441 -1.3936 -1.9400
  696MOL0     H95989   7.488   4.390  10.823  0.5366 -2.1112 -0.3880
  696MOL0     H95990   7.534   4.525  10.734  0.4315 -0.4020  0.0671
  696MOL0     H95991   7.655   4.256  10.711  2.8523  0.3404  0.4366
  696MOL0     H95992   7.680   4.368  10.581 -1.4858  0.7556  0.2277
  696MOL0     H95993   7.832   4.338  10.811  0.9551  2.6913  1.2837
  696MOL0     H95994   7.725   4.463  10.863 -1.6247 -0.7655 -0.9570
  696MOL0     H95995   7.905   4.473  10.621 -1.7916 -2.7545  0.0556
  696MOL0     H95996   7.779   4.599  10.653 -1.2064 -0.0112  1.1822
  696MOL0     H95997   8.124   4.487  10.767  0.9914  1.2640  1.4311
  696MOL0     H95998   8.308   4.599  10.877  0.3526 -1.0625 -0.2256
  696MOL0     H95999   8.266   4.678  11.035  0.5882  2.2511 -0.1738
  696MOL0     H96000   8.322   4.818  10.774 -1.1868  1.4157 -0.6560
  696MOL0     H96001   8.269   4.904  10.930 -0.2219 -1.3230  0.5040
  696MOL0     H96002   8.493   4.948  10.901  0.6132 -0.8203 -0.3170
  696MOL0     H96003   8.446   4.868  11.043 -0.1173  1.7009 -0.7772
  696MOL0     H96004   8.605   4.750  10.799  1.6880  2.3176  0.6351
  696MOL0     H96005   8.661   4.772  10.970 -0.0009 -0.7078  1.2377
  696MOL0     H96006   8.518   4.406  11.032  1.0434  0.4651  0.2147
  696MOL0     H96007   8.725   4.187  11.205  0.5800  1.9853 -1.2652
  696MOL0     H96008   8.704   4.088  11.058  2.0295  0.4589 -0.4042
  696MOL0     H96009   8.570   4.180  11.131  0.2073  0.4367  1.5068
  696MOL0     H96010   9.129   4.076  10.779 -1.1817  0.2271  1.6677
  696MOL0     H96011   9.321   3.939  10.784 -2.6891 -0.5142 -0.1095
  696MOL0     H96012   9.670   4.122  10.957  1.2455  1.2314 -0.8617
  696MOL0     H96013   9.682   4.013  11.102  0.3279 -0.4441 -0.1311
  696MOL0     H96014   9.768   3.834  10.951  0.0687 -0.5055 -0.7454
  696MOL0     H96015   9.752   3.944  10.810  1.1948 -2.7945  0.0446
  696MOL0     H96016   9.933   3.974  11.070 -0.6606 -1.7239  0.0612
  696MOL0     H96017   9.912   4.099  10.943 -0.2355 -0.0107 -0.1351
  696MOL0     H96018   9.983   3.926  10.765 -0.9986 -0.1981 -0.1573
  696MOL0     H96019  10.019   3.812  10.904  1.2035 -0.4632 -1.0014
  696MOL0     H96020  10.136   4.085  10.840 -0.7752  0.0196 -2.1501
  696MOL0     H96021  10.162   3.992  10.994  0.2445  0.2714  0.9991
  696MOL0     H96022  10.244   3.905  10.708 -2.6865 -1.2209  0.4928
  696MOL0     H96023  10.254   3.799  10.846 -0.4361 -0.8963 -2.3295
  696MOL0     H96024  10.398   3.991  10.951 -1.2598 -0.2875 -0.3845
  696MOL0     H96025  10.401   4.067  10.792  0.6061  0.3042 -0.1302
  696MOL0     H96026  10.523   3.858  10.709 -0.2761 -2.4100  0.5985
  696MOL0     H96027  10.539   3.815  10.875  3.0962 -1.3926 -3.2967
  696MOL0     H96028   9.472   4.131  11.138  2.7088  1.1571 -1.5095
  696MOL0     H96029   9.247   4.279  11.133 -1.1247  1.4793 -1.5896
  696MOL0     H96030   8.958   4.460  10.829 -0.2159  1.4454 -0.0320
  696MOL0     H96031   8.804   4.635  10.839  0.3790  1.2476  1.4111
  696MOL0     H96032   6.900   4.577  10.322  0.1075  2.6161  2.0069
  696MOL0     H96033   6.650   4.704  10.345  2.0672  1.8482 -0.2660
  696MOL0     H96034   6.279   4.643  10.653  0.4622 -0.2352 -0.0539
  696MOL0     H96035   6.053   4.660  10.719  0.5115 -1.5016  0.1741
  696MOL0     H96036   5.743   4.878  10.510 -0.3891 -0.2141 -1.2607
  696MOL0     H96037   5.746   4.740  10.400 -3.1320 -3.7048  1.3248
  696MOL0     H96038   5.534   4.818  10.546 -1.5685 -0.7922 -0.6108
  696MOL0     H96039   5.615   4.730  10.673 -2.4254 -1.2155 -0.1746
  696MOL0     H96040   5.534   4.614  10.397  1.7737 -1.0443  0.1221
  696MOL0     H96041   5.625   4.525  10.517  1.7518  1.5978 -0.6838
  696MOL0     H96042   5.343   4.627  10.539 -1.9858 -0.4576  3.3490
  696MOL0     H96043   5.428   4.583  10.680  0.0728  0.8502  0.3450
  696MOL0     H96044   5.317   4.210  10.531 -0.4001  0.3289 -2.3735
  696MOL0     H96045   5.937   4.777  10.325  1.2215  1.7793  0.2619
  696MOL0     H96046   6.215   4.664  10.137 -0.3619 -0.1013 -1.3580
  696MOL0     H96047   6.090   4.778  10.130 -0.2092  1.6420  1.2153
  696MOL0     H96048   6.239   4.825  10.201 -2.8153  1.8816  0.4927
  697MOL0     O96049   2.918   4.052   6.673  0.1111  0.5313 -0.0918
  697MOL0     C96050   2.849   4.019   6.769  0.6552  0.6376 -0.1444
  697MOL0     O96051   2.893   3.999   6.900 -1.3463  0.1057 -0.1625
  697MOL0     C96052   3.022   4.019   6.927 -1.1505  0.7541 -0.3840
  697MOL0     C96053   3.084   3.919   7.005 -0.2932  0.3306  0.0463
  697MOL0     C96054   3.218   3.943   7.051  1.0959  0.2056 -0.3040
  697MOL0     C96055   3.283   4.066   7.023 -0.5392  0.8921  0.2383
  697MOL0     O96056   3.411   4.069   7.071 -0.7567 -0.7826  0.2749
  697MOL0     C96057   3.484   4.185   7.039 -0.9084  0.2859  0.6029
  697MOL0     C96058   3.627   4.174   7.099  0.3768  0.0259  0.0484
  697MOL0     C96059   3.701   4.306   7.095 -0.2551  0.3760  0.7374
  697MOL0     C96060   3.826   4.297   7.181  0.6047 -0.6840 -0.8731
  697MOL0     C96061   3.896   4.428   7.183  0.1055 -0.8986  0.4338
  697MOL0     C96062   4.017   4.432   7.273  0.6629 -0.0433  0.0772
  697MOL0     C96063   4.120   4.529   7.230 -0.6975  0.1981 -0.1123
  697MOL0     C96064   4.228   4.544   7.348 -0.5202 -0.4443  0.1406
  697MOL0     N96065   4.306   4.419   7.367 -0.2712  0.3732  0.0174
  697MOL0     C96066   4.380   4.358   7.273 -0.0976  0.1963  0.2921
  697MOL0     C96067   4.377   4.226   7.305 -0.6764  0.1810 -0.0067
  697MOL0     C96068   4.430   4.102   7.224 -0.1376 -0.2686  0.4365
  697MOL0     C96069   4.575   4.123   7.183  0.7114 -0.1961  0.4708
  697MOL0     C96070   4.679   4.129   7.293 -0.2348 -0.0239  0.0481
  697MOL0     C96071   4.812   4.159   7.221  0.2668 -0.0907 -0.1614
  697MOL0     O96072   4.853   4.052   7.142 -0.2613 -0.1381  0.2623
  697MOL0     C96073   4.964   4.087   7.067  0.7463 -0.1791  0.3677
  697MOL0     C96074   5.010   3.985   6.988 -0.4444 -0.2619 -0.3448
  697MOL0     C96075   5.122   3.993   6.908  0.4655  0.1866 -0.5950
  697MOL0     C96076   5.177   3.871   6.838 -0.3424  0.0855 -0.7741
  697MOL0     C96077   5.186   4.117   6.901  0.8152  0.4295 -0.7394
  697MOL0     C96078   5.297   4.148   6.815  0.8360 -0.3640 -0.2455
  697MOL0     O96079   5.372   4.264   6.847  0.0114 -0.3055 -0.2160
  697MOL0     C96080   5.497   4.286   6.780 -0.4942  0.4568 -1.3425
  697MOL0     C96081   5.616   4.315   6.848 -0.3851 -0.1831  0.0015
  697MOL0     C96082   5.728   4.347   6.782 -0.5042 -0.7747 -0.3860
  697MOL0     C96083   5.738   4.354   6.639  0.0353  0.1872  0.3996
  697MOL0     O96084   5.844   4.386   6.571  0.4923 -0.0785 -0.3220
  697MOL0     C96085   5.972   4.325   6.610 -0.4071 -0.0739  0.3888
  697MOL0     C96086   6.096   4.406   6.578  0.5186  0.2802 -0.4995
  697MOL0     C96087   6.221   4.310   6.586  0.6970 -0.7489  0.3153
  697MOL0     C96088   6.346   4.406   6.557 -0.0708  0.3551  0.0202
  697MOL0     C96089   6.477   4.334   6.605  0.7940  0.7574 -0.7545
  697MOL0     C96090   6.605   4.432   6.598  0.7925  0.3677  0.9257
  697MOL0     C96091   6.733   4.351   6.629 -0.0568  0.0423  1.2465
  697MOL0     C96092   6.858   4.423   6.577 -0.0498 -0.4423  0.9270
  697MOL0    Cl96093   6.885   4.588   6.652  0.2644  0.0038 -0.2546
  697MOL0     C96094   5.626   4.315   6.570 -0.0809  0.1783  0.1740
  697MOL0     C96095   5.501   4.289   6.639  0.1474  0.0634  0.5712
  697MOL0     O96096   5.315   4.082   6.717 -0.1194 -0.1377  0.3626
  697MOL0     C96097   5.148   4.219   6.992 -0.5674 -0.5299 -0.0732
  697MOL0     C96098   5.032   4.209   7.064 -0.7717  0.1186 -0.3255
  697MOL0     N96099   4.304   4.217   7.424  0.5593  0.2274 -0.6379
  697MOL0     N96100   4.264   4.332   7.462  0.2127 -0.4141  0.4090
  697MOL0     C96101   3.214   4.166   6.953 -0.5019 -1.2211 -0.1649
  697MOL0     C96102   3.085   4.143   6.904  0.4836 -0.7175  0.6036
  697MOL0     C96103   2.712   3.980   6.737  0.4230 -0.3204  0.5984
  697MOL0     C96104   2.640   4.051   6.634 -0.9669 -0.8120  0.6077
  697MOL0     C96105   2.511   4.016   6.610  0.4736 -0.5441 -0.2389
  697MOL0     C96106   2.451   3.910   6.665  1.1808 -0.4814  0.8795
  697MOL0     O96107   2.318   3.870   6.627  0.2180  0.6981 -0.1335
  697MOL0     C96108   2.226   3.977   6.646  0.4675 -0.1748 -0.6089
  697MOL0     C96109   2.090   3.911   6.648  0.1002 -0.3041  0.3200
  697MOL0     C96110   2.047   3.839   6.512  0.2326  0.7756 -0.2117
  697MOL0     C96111   1.918   3.758   6.525  0.9101  0.2678 -0.5311
  697MOL0     C96112   1.812   3.849   6.560 -0.9677  0.0133 -0.5571
  697MOL0     C96113   1.734   3.939   6.591 -0.1278  0.4411  0.0033
  697MOL0     C96114   2.521   3.834   6.757 -0.3049 -0.3547 -0.6626
  697MOL0     C96115   2.651   3.873   6.800  0.5187 -0.6882 -0.4919
  697MOL0     C96116   2.719   3.784   6.901 -0.7884  0.4672 -0.1453
  697MOL0     H96117   3.042   3.823   7.035 -0.3730  0.8356  1.6448
  697MOL0     H96118   3.266   3.859   7.101 -1.1627 -1.6783 -1.1252
  697MOL0     H96119   3.430   4.272   7.077  0.1421  1.7585 -1.0978
  697MOL0     H96120   3.501   4.192   6.931 -0.7748 -0.1497  0.5955
  697MOL0     H96121   3.627   4.127   7.198 -1.1997  0.2024  0.1515
  697MOL0     H96122   3.677   4.097   7.039  0.9837  0.2720  0.2272
  697MOL0     H96123   3.727   4.340   6.995  1.4111  1.6413  1.5571
  697MOL0     H96124   3.627   4.377   7.133  1.1273  0.9974  2.3475
  697MOL0     H96125   3.799   4.282   7.286  0.7327 -1.1209 -0.9020
  697MOL0     H96126   3.894   4.216   7.151  0.1971 -1.4767  0.2737
  697MOL0     H96127   3.831   4.508   7.219 -2.9152 -2.2702 -1.5537
  697MOL0     H96128   3.934   4.448   7.082 -0.5075  0.6727  0.4876
  697MOL0     H96129   3.984   4.461   7.374  0.5679  2.3400 -0.5681
  697MOL0     H96130   4.067   4.336   7.284  0.8927  0.2504  2.0299
  697MOL0     H96131   4.086   4.630   7.208 -2.5419  0.0530  1.6915
  697MOL0     H96132   4.168   4.480   7.145  1.1722 -1.7430  1.9429
  697MOL0     H96133   4.293   4.631   7.335  0.9444 -1.4867  0.3007
  697MOL0     H96134   4.174   4.558   7.442 -2.0509  1.0223 -0.9005
  697MOL0     H96135   4.434   4.406   7.192 -1.8681  3.3473  0.8157
  697MOL0     H96136   4.363   4.080   7.141  0.2697 -0.3119  0.1145
  697MOL0     H96137   4.424   4.023   7.300  0.8455  0.5842  1.4476
  697MOL0     H96138   4.605   4.042   7.115 -1.6235 -2.0801  1.5667
  697MOL0     H96139   4.573   4.215   7.123 -2.2822  0.6726  1.7168
  697MOL0     H96140   4.658   4.202   7.371 -0.6522  1.0758 -1.0753
  697MOL0     H96141   4.689   4.029   7.337  0.1800 -0.8936 -1.9093
  697MOL0     H96142   4.802   4.254   7.167 -1.3251  0.1361  0.4852
  697MOL0     H96143   4.887   4.176   7.299 -0.5660  3.3844  0.0274
  697MOL0     H96144   4.952   3.894   6.994  0.0406 -0.5343  0.3432
  697MOL0     H96145   5.119   3.784   6.869  0.1991  0.0591  0.2116
  697MOL0     H96146   5.283   3.860   6.860 -0.1050 -1.8745 -2.5574
  697MOL0     H96147   5.159   3.882   6.730 -0.1975  0.7953 -0.7338
  697MOL0     H96148   5.624   4.308   6.956  0.2089 -1.6942 -0.1202
  697MOL0     H96149   5.802   4.395   6.844 -2.2051  0.2850  0.8985
  697MOL0     H96150   5.970   4.285   6.711 -1.6281  1.6280  1.0871
  697MOL0     H96151   5.979   4.239   6.543 -1.1467 -0.1380  0.3809
  697MOL0     H96152   6.090   4.447   6.477 -0.2111 -0.4196 -0.7488
  697MOL0     H96153   6.104   4.485   6.654 -0.5392 -0.1045  0.0206
  697MOL0     H96154   6.221   4.227   6.514  1.0605 -1.3775  1.0253
  697MOL0     H96155   6.240   4.256   6.679  1.1288 -0.7140  0.2480
  697MOL0     H96156   6.323   4.503   6.602  3.9939  1.6998 -0.4534
  697MOL0     H96157   6.347   4.427   6.450 -2.5910  0.9802  0.0413
  697MOL0     H96158   6.473   4.301   6.709  0.5850 -0.5681 -1.1666
  697MOL0     H96159   6.496   4.245   6.544 -1.6555  0.4357 -1.1721
  697MOL0     H96160   6.594   4.509   6.675  0.6465 -2.0232  3.5066
  697MOL0     H96161   6.605   4.468   6.495 -0.0786  0.7753  1.0618
  697MOL0     H96162   6.733   4.258   6.571 -0.1651  2.2191 -2.5655
  697MOL0     H96163   6.731   4.324   6.735 -1.7852 -0.5270  1.0942
  697MOL0     H96164   6.864   4.444   6.470  2.8008  0.6008  1.2186
  697MOL0     H96165   6.951   4.376   6.610  0.8107  1.4230  1.3019
  697MOL0     H96166   5.643   4.317   6.463  0.6440  0.8376  0.2950
  697MOL0     H96167   5.422   4.268   6.567  2.6330 -1.4556 -1.9226
  697MOL0     H96168   5.196   4.316   6.995 -0.4623 -0.6059  0.9759
  697MOL0     H96169   5.016   4.299   7.122  2.9657  0.8922 -0.2456
  697MOL0     H96170   3.253   4.267   6.940  0.6534 -1.7124 -0.6378
  697MOL0     H96171   3.032   4.221   6.850  0.4768 -0.7279  0.5946
  697MOL0     H96172   2.675   4.145   6.594 -1.1527 -0.9985 -0.0005
  697MOL0     H96173   2.459   4.090   6.550  1.3693  1.0882  0.9209
  697MOL0     H96174   2.245   4.041   6.733  2.8195 -0.4440 -0.8601
  697MOL0     H96175   2.248   4.044   6.562  0.4900 -2.0366 -2.1441
  697MOL0     H96176   2.007   3.983   6.649 -1.2438 -1.7455 -1.0455
  697MOL0     H96177   2.078   3.848   6.736  2.7655  1.9654  2.5026
  697MOL0     H96178   2.017   3.919   6.443  1.9882  0.9551 -0.8077
  697MOL0     H96179   2.126   3.775   6.472 -1.4816 -2.8529  1.7969
  697MOL0     H96180   1.928   3.680   6.602 -0.0822  0.1758 -0.4902
  697MOL0     H96181   1.899   3.712   6.428  1.3177  1.5636 -1.2409
  697MOL0     H96182   1.675   4.021   6.625 -2.4708 -0.2840 -2.0684
  697MOL0     H96183   2.491   3.738   6.797 -0.3010  0.2873  0.9612
  697MOL0     H96184   2.821   3.760   6.867 -0.6459  1.0180 -0.1262
  697MOL0     H96185   2.727   3.835   6.997  0.1697  0.0170  0.0227
  697MOL0     H96186   2.655   3.698   6.920 -0.1199 -0.0939 -0.4072
  698MOL0     O96187   4.195   5.044   3.730  0.7023  0.3649  0.8984
  698MOL0     C96188   4.130   4.966   3.803  0.0168  0.6682  0.0296
  698MOL0     O96189   4.178   4.908   3.914 -0.5717 -0.6971 -0.7112
  698MOL0     C96190   4.295   4.947   3.976 -0.4464 -0.1716  0.1761
  698MOL0     C96191   4.357   4.856   4.072  0.9317 -0.0059  0.1364
  698MOL0     C96192   4.456   4.903   4.157  0.2131 -0.1570 -0.1140
  698MOL0     C96193   4.513   5.026   4.142 -0.2371  0.9834 -0.5584
  698MOL0     O96194   4.614   5.057   4.229  0.6923  0.4556  0.2669
  698MOL0     C96195   4.711   5.165   4.214 -0.6391 -0.5850 -0.1597
  698MOL0     C96196   4.814   5.168   4.328  0.2388  0.1851  0.0579
  698MOL0     C96197   4.903   5.050   4.318  0.5664 -0.1302 -0.0556
  698MOL0     C96198   5.012   5.074   4.209  0.0613  1.0517  0.8362
  698MOL0     C96199   5.114   4.967   4.225  0.0571  0.3544  1.0308
  698MOL0     C96200   5.228   4.978   4.118  0.1513 -0.1593 -0.3482
  698MOL0     C96201   5.317   4.854   4.126  0.1468  0.3430 -0.1931
  698MOL0     C96202   5.453   4.878   4.044 -0.7954  0.7122 -0.2483
  698MOL0     N96203   5.548   4.769   4.063 -0.4413 -0.1330 -0.1780
  698MOL0     C96204   5.623   4.751   4.181  0.0579  0.4838  0.5363
  698MOL0     C96205   5.707   4.643   4.157 -0.4974  0.3517  0.4287
  698MOL0     C96206   5.818   4.585   4.239  0.0284 -0.5131 -0.3238
  698MOL0     C96207   5.942   4.514   4.169  0.1738  0.0957  0.2337
  698MOL0     C96208   5.903   4.376   4.115  0.3802 -0.5918 -0.0927
  698MOL0     C96209   6.033   4.296   4.077 -0.8507  0.0264 -0.7836
  698MOL0     O96210   6.138   4.290   4.181  0.1353 -0.3269 -0.2369
  698MOL0     C96211   6.270   4.313   4.137 -0.7167 -0.3977  0.4836
  698MOL0     C96212   6.362   4.212   4.140  0.2031  0.1305  0.0970
  698MOL0     C96213   6.488   4.227   4.073  0.0179  0.2498  0.5529
  698MOL0     C96214   6.568   4.099   4.079  0.0992 -0.0748  0.2511
  698MOL0     C96215   6.524   4.344   4.016  0.4840 -0.1525 -0.0616
  698MOL0     C96216   6.657   4.374   3.949 -0.4079 -0.3388 -0.0887
  698MOL0     O96217   6.771   4.325   4.013 -0.3521  0.2865 -0.0914
  698MOL0     C96218   6.892   4.328   3.954 -0.1121 -0.4979  0.7677
  698MOL0     C96219   6.945   4.448   3.898  0.0637 -0.1860 -0.0234
  698MOL0     C96220   7.066   4.448   3.838 -0.0908 -0.2195  0.7701
  698MOL0     C96221   7.156   4.331   3.854  0.3574 -0.4639  0.7921
  698MOL0     O96222   7.287   4.325   3.818 -0.7791  0.7839  0.3297
  698MOL0     C96223   7.338   4.438   3.755 -0.2248 -0.3564  0.5831
  698MOL0     C96224   7.481   4.426   3.709  0.3472  0.0161  0.6376
  698MOL0     C96225   7.552   4.544   3.653 -0.3882 -0.5594 -1.0469
  698MOL0     C96226   7.599   4.638   3.766 -0.1843  0.5014 -0.3698
  698MOL0     C96227   7.686   4.746   3.724 -0.5224  0.8476  0.5928
  698MOL0     C96228   7.812   4.712   3.646 -0.8220  0.0728 -0.0364
  698MOL0     C96229   7.912   4.652   3.743  0.2621  0.2674 -0.4153
  698MOL0     C96230   8.057   4.642   3.675  0.5341  0.3508  0.4591
  698MOL0    Cl96231   8.040   4.552   3.520 -0.0145 -0.0986  0.0365
  698MOL0     C96232   7.105   4.213   3.909 -0.8886 -0.0296  0.0870
  698MOL0     C96233   6.977   4.209   3.960  0.3539 -0.0661  0.4048
  698MOL0     O96234   6.658   4.430   3.839  0.5766 -0.0306 -0.7861
  698MOL0     C96235   6.429   4.449   4.020  0.1367 -0.2176 -0.4270
  698MOL0     C96236   6.301   4.433   4.071 -0.4597 -0.1141  0.2461
  698MOL0     N96237   5.668   4.591   4.036 -0.2073  0.1086  0.6354
  698MOL0     N96238   5.565   4.656   3.987 -0.0339 -0.4111  0.1968
  698MOL0     C96239   4.467   5.115   4.044 -0.2690  0.5964 -0.1705
  698MOL0     C96240   4.363   5.069   3.963  0.4926  0.3039 -0.1536
  698MOL0     C96241   3.979   4.960   3.768  0.3883 -0.4940  0.2519
  698MOL0     C96242   3.940   4.973   3.639 -0.5385 -1.3996  0.1056
  698MOL0     C96243   3.807   4.958   3.606  0.0715 -0.0432 -0.2049
  698MOL0     C96244   3.706   4.930   3.694  0.8399  0.3992  0.1101
  698MOL0     O96245   3.581   4.896   3.641 -0.1812  0.6192 -0.5970
  698MOL0     C96246   3.472   4.978   3.689 -0.2461  1.2456  0.3529
  698MOL0     C96247   3.370   4.888   3.759 -0.3199 -0.4021 -0.4588
  698MOL0     C96248   3.231   4.963   3.758 -0.1288  0.5916 -0.2887
  698MOL0     C96249   3.115   4.877   3.797  0.9872 -0.7674 -1.2255
  698MOL0     C96250   3.094   4.763   3.711  0.5249  0.1221 -0.0601
  698MOL0     C96251   3.098   4.674   3.628 -0.3724  0.3562 -1.0382
  698MOL0     C96252   3.747   4.895   3.825 -0.7730 -0.0407  0.0201
  698MOL0     C96253   3.879   4.917   3.859 -0.2134 -0.0744 -0.2005
  698MOL0     C96254   3.917   4.893   4.004  0.3374 -0.2895 -0.0113
  698MOL0     H96255   4.304   4.765   4.095 -0.7894  1.9175  5.2571
  698MOL0     H96256   4.510   4.845   4.231 -0.4849  1.2564  1.5604
  698MOL0     H96257   4.660   5.262   4.220 -0.2601 -0.4693  3.6061
  698MOL0     H96258   4.764   5.157   4.119  3.3414  2.4648  1.5122
  698MOL0     H96259   4.871   5.261   4.328 -0.5192  0.6572 -0.1799
  698MOL0     H96260   4.772   5.175   4.429 -0.0701  0.3085 -0.0775
  698MOL0     H96261   4.943   5.027   4.417 -1.1185  1.2973  1.0170
  698MOL0     H96262   4.850   4.956   4.301  1.3700 -1.0522  2.1624
  698MOL0     H96263   4.970   5.089   4.109  1.8314  2.8166  0.2968
  698MOL0     H96264   5.058   5.169   4.238  0.5549  0.9353  0.4610
  698MOL0     H96265   5.073   4.869   4.200  4.8871 -1.5997 -0.3716
  698MOL0     H96266   5.164   4.956   4.322  1.6008 -0.7417  0.1441
  698MOL0     H96267   5.191   5.004   4.019  3.1123  1.6878 -1.0958
  698MOL0     H96268   5.289   5.063   4.147 -0.9614  0.6023 -0.2013
  698MOL0     H96269   5.249   4.778   4.089 -3.4203  2.9550  0.4816
  698MOL0     H96270   5.347   4.818   4.225 -1.0370 -0.7000 -0.1880
  698MOL0     H96271   5.432   4.900   3.939 -0.9224 -0.7716 -0.5607
  698MOL0     H96272   5.492   4.968   4.092  1.0145  0.2913 -0.8842
  698MOL0     H96273   5.612   4.812   4.270 -1.4818  0.1909  0.5825
  698MOL0     H96274   5.775   4.519   4.315 -1.8202  1.4139  0.3911
  698MOL0     H96275   5.862   4.666   4.297  1.9563 -0.7272 -1.4039
  698MOL0     H96276   5.967   4.569   4.077  1.4124 -3.7072 -1.9330
  698MOL0     H96277   6.031   4.516   4.232 -1.2928 -1.6419  2.5093
  698MOL0     H96278   5.860   4.323   4.201 -0.7576  0.3860 -0.0214
  698MOL0     H96279   5.826   4.377   4.037 -1.2656  2.2461  1.3699
  698MOL0     H96280   6.012   4.190   4.061  0.9650 -0.4231 -0.3929
  698MOL0     H96281   6.066   4.325   3.977 -0.7100 -2.6018 -1.5667
  698MOL0     H96282   6.338   4.115   4.184  0.9712 -0.2366 -0.2786
  698MOL0     H96283   6.551   4.052   3.981  1.4281 -0.6257  0.2597
  698MOL0     H96284   6.535   4.043   4.167  0.9350 -1.5706 -0.3442
  698MOL0     H96285   6.675   4.115   4.090 -0.1899  1.8848  0.4978
  698MOL0     H96286   6.882   4.536   3.896 -1.4552 -1.2212 -1.6391
  698MOL0     H96287   7.115   4.534   3.792 -0.3446 -0.5877 -0.2199
  698MOL0     H96288   7.269   4.450   3.671  0.9355  1.3603 -0.1940
  698MOL0     H96289   7.336   4.528   3.818 -3.1298 -1.3868  2.1127
  698MOL0     H96290   7.544   4.377   3.785 -1.3337  1.5681  3.1790
  698MOL0     H96291   7.481   4.351   3.630 -0.5547 -0.2999  0.9230
  698MOL0     H96292   7.492   4.588   3.572 -0.4051 -0.0820 -0.7843
  698MOL0     H96293   7.643   4.509   3.605  1.0805  1.2925  0.2180
  698MOL0     H96294   7.662   4.586   3.840 -1.3808 -1.8227 -0.8849
  698MOL0     H96295   7.516   4.686   3.819  0.5794  0.9391  0.4534
  698MOL0     H96296   7.624   4.808   3.657 -3.5600 -1.3490  1.1779
  698MOL0     H96297   7.719   4.805   3.810  1.3758  0.1012  0.4074
  698MOL0     H96298   7.849   4.811   3.619 -0.4900  0.3922  1.4972
  698MOL0     H96299   7.794   4.648   3.559  1.5740  0.2170 -0.7070
  698MOL0     H96300   7.888   4.548   3.765  3.8153 -0.1745  2.3476
  698MOL0     H96301   7.922   4.708   3.836  2.1017  0.6721 -0.8303
  698MOL0     H96302   8.119   4.583   3.743  1.7758  0.2395 -0.7293
  698MOL0     H96303   8.101   4.742   3.665 -2.0557  1.7055  1.4633
  698MOL0     H96304   7.172   4.128   3.908 -0.6751  0.1340 -1.3150
  698MOL0     H96305   6.956   4.122   4.021 -0.5752  1.3857  2.2886
  698MOL0     H96306   6.448   4.545   3.973 -0.5272  1.0033  1.6957
  698MOL0     H96307   6.230   4.512   4.049  1.8975  1.5049 -2.1773
  698MOL0     H96308   4.495   5.220   4.041 -1.2118  0.8408 -0.8417
  698MOL0     H96309   4.323   5.137   3.889 -0.2615 -4.0442 -4.1678
  698MOL0     H96310   4.014   4.996   3.563 -2.6205 -0.3371 -1.6894
  698MOL0     H96311   3.771   4.969   3.504  1.3242 -3.6300 -1.1804
  698MOL0     H96312   3.506   5.052   3.762 -1.9280  1.3996  1.0231
  698MOL0     H96313   3.423   5.023   3.603  0.0514  1.1786  0.1476
  698MOL0     H96314   3.407   4.872   3.861 -2.7573  5.0483  1.6647
  698MOL0     H96315   3.357   4.798   3.698  0.2295 -0.3940 -0.5856
  698MOL0     H96316   3.243   5.055   3.816  2.0353  1.7560 -2.3816
  698MOL0     H96317   3.206   5.000   3.658 -0.2206  1.5107  0.0606
  698MOL0     H96318   3.024   4.937   3.798 -0.2398 -2.5344  0.0599
  698MOL0     H96319   3.124   4.838   3.899 -0.7124  1.3138 -0.2195
  698MOL0     H96320   3.114   4.600   3.552 -0.1375 -0.3132 -0.3465
  698MOL0     H96321   3.672   4.871   3.900  1.0629 -1.1865  1.6024
  698MOL0     H96322   3.965   4.987   4.032  0.8170 -0.4428 -0.3066
  698MOL0     H96323   3.827   4.882   4.066  0.1129 -2.5479 -0.6522
  698MOL0     H96324   3.982   4.807   4.020 -1.0855 -1.4855 -0.4576
  699MOL0     O96325  10.006   6.050   0.187  0.8163  0.1529  0.2569
  699MOL0     C96326   9.964   6.122   0.099  0.1483 -0.6559  0.2767
  699MOL0     O96327  10.045   6.198   0.018 -0.4334  0.0521 -0.0972
  699MOL0     C96328  10.177   6.162   0.022 -0.0789 -0.1515 -0.4543
  699MOL0     C96329  10.255   6.210   0.130  0.5882 -0.0940  0.3886
  699MOL0     C96330  10.382   6.162   0.152 -0.6105 -0.0084 -0.2099
  699MOL0     C96331  10.449   6.074   0.068  0.3941  0.2676 -0.2091
  699MOL0     O96332  10.576   6.036   0.100 -0.6542 -0.2186 -0.3130
  699MOL0     C96333  10.624   5.903   0.069  0.6560  0.1074 -0.2862
  699MOL0     C96334  10.755   5.862   0.152  0.6971  0.0883  0.8501
  699MOL0     C96335  10.880   5.934   0.097  0.7685  0.3752  0.6339
  699MOL0     C96336  11.014   5.907   0.157  0.5302 -0.2830 -0.0360
  699MOL0     C96337  11.114   6.009   0.099  0.4470 -0.2445 -0.6635
  699MOL0     C96338  11.259   5.970   0.137  0.4213  0.5411  0.3326
  699MOL0     C96339  11.285   5.981   0.284 -0.5737 -0.2182  0.5151
  699MOL0     C96340  11.422   5.938   0.335 -0.3728 -0.1268  0.2536
  699MOL0     N96341  11.527   6.010   0.254  0.7117 -0.6484  0.0105
  699MOL0     C96342  11.586   5.946   0.149 -0.4473 -0.0471  1.6022
  699MOL0     C96343  11.684   6.035   0.107 -0.2864 -0.8511 -0.4118
  699MOL0     C96344  11.771   6.005  -0.014  0.1254 -0.3594  0.0173
  699MOL0     C96345  11.905   6.072  -0.016  0.5433 -0.3295 -0.3140
  699MOL0     C96346  12.007   5.991  -0.100  0.1885  0.9856 -0.7918
  699MOL0     C96347  12.141   6.054  -0.081 -0.9087  0.3211 -0.1847
  699MOL0     O96348  12.237   5.968  -0.148  0.8127  1.0799  0.1223
  699MOL0     C96349  12.357   5.985  -0.089  0.4095 -0.0956 -0.3748
  699MOL0     C96350  12.388   5.932   0.045 -0.4863  0.3902  0.7868
  699MOL0     C96351  12.513   5.957   0.101 -0.6713 -0.7433  0.2152
  699MOL0     C96352  12.528   5.899   0.233 -0.2393 -0.0510 -0.6518
  699MOL0     C96353  12.604   6.044   0.026 -0.2551 -0.4935 -0.1960
  699MOL0     C96354  12.732   6.074   0.096  0.7559 -0.1233  0.0570
  699MOL0     O96355  12.788   5.988   0.194  0.2896  0.3918 -0.1493
  699MOL0     C96356  12.906   6.032   0.242  0.8789  0.1804 -0.0648
  699MOL0     C96357  12.903   6.141   0.325 -0.6632 -0.1725  0.2906
  699MOL0     C96358  13.021   6.195   0.377  0.3779 -0.4834 -0.3058
  699MOL0     C96359  13.135   6.128   0.356 -0.6915  0.3250 -0.1748
  699MOL0     O96360  13.248   6.195   0.401 -0.1565 -0.1415 -0.4605
  699MOL0     C96361  13.377   6.181   0.354  0.6967  0.3819  0.0114
  699MOL0     C96362  13.451   6.304   0.405  0.3191 -0.4285 -0.0138
  699MOL0     C96363  13.489   6.296   0.554  0.1350  0.5254 -0.6815
  699MOL0     C96364  13.548   6.436   0.602  0.1481 -0.1082  0.8946
  699MOL0     C96365  13.594   6.424   0.748  0.4909 -0.0423  0.3045
  699MOL0     C96366  13.676   6.543   0.792  0.3456 -0.4019 -1.1494
  699MOL0     C96367  13.766   6.500   0.906  0.2171  0.0871  0.5190
  699MOL0     C96368  13.706   6.433   1.032 -0.2396 -0.2935 -0.7999
  699MOL0    Cl96369  13.616   6.576   1.113 -0.0034  0.4907 -0.1422
  699MOL0     C96370  13.142   6.006   0.283  0.3179 -0.6010 -0.2795
  699MOL0     C96371  13.025   5.974   0.217  0.6530  0.4937  0.2652
  699MOL0     O96372  12.789   6.177   0.054 -0.0130  0.7876  0.3814
  699MOL0     C96373  12.565   6.103  -0.091  0.0100  0.5007 -0.0047
  699MOL0     C96374  12.446   6.062  -0.147 -0.4230  0.7072  0.3146
  699MOL0     N96375  11.681   6.145   0.193  0.3060 -1.0686 -0.0483
  699MOL0     N96376  11.577   6.134   0.270 -0.1194  0.5058  0.4690
  699MOL0     C96377  10.379   6.026  -0.044  0.0102 -0.4548  0.4101
  699MOL0     C96378  10.248   6.069  -0.060  1.2362  0.7265 -0.2168
  699MOL0     C96379   9.823   6.149   0.095  0.0618 -0.3194 -0.7173
  699MOL0     C96380   9.758   6.322   0.001  1.0537 -0.4790  0.1399
  699MOL0     C96381   9.547   6.361  -0.017 -0.2764 -0.4298  0.1675
  699MOL0     C96382   9.407   6.230   0.067  0.4925  0.0612 -0.7840
  699MOL0     O96383   9.268   6.248   0.073  0.4046  0.1207 -0.1508
  699MOL0     C96384   9.216   6.378   0.063  0.2343  0.5776 -0.0944
  699MOL0     C96385   9.064   6.377   0.057 -0.4178 -0.1349  0.0381
  699MOL0     C96386   8.996   6.243   0.007 -0.9770  0.0119 -0.0305
  699MOL0     C96387   8.846   6.274  -0.004 -0.4888 -0.3250  0.4509
  699MOL0     C96388   8.755   6.158  -0.038 -0.1082 -1.2716 -0.3737
  699MOL0     C96389   8.668   6.071  -0.047  0.0906 -0.1472  0.5172
  699MOL0     C96390   9.478   6.051   0.167  0.1888  0.3688 -0.1429
  699MOL0     C96391   9.689   6.017   0.176 -0.0741  0.7145  0.0017
  699MOL0     C96392   9.727   5.897   0.258 -1.1444  0.6572 -0.2655
  699MOL0     H96393  10.202   6.266   0.206 -2.0216  1.6214 -2.4657
  699MOL0     H96394  10.439   6.205   0.234 -0.6568  2.5672 -1.4363
  699MOL0     H96395  10.641   5.887  -0.038  0.8397  3.6209 -0.8859
  699MOL0     H96396  10.544   5.834   0.099  0.0465  0.7299 -0.4526
  699MOL0     H96397  10.737   5.886   0.257 -2.6028  2.3131 -0.0836
  699MOL0     H96398  10.773   5.756   0.131 -0.8875  0.0349 -0.3564
  699MOL0     H96399  10.875   5.924  -0.012 -1.9012  0.2868  0.6964
  699MOL0     H96400  10.857   6.041   0.107  1.1824  0.5791 -0.4480
  699MOL0     H96401  11.015   5.918   0.266  2.8014  2.1373 -0.1936
  699MOL0     H96402  11.049   5.805   0.137  1.1008 -1.0345  3.9376
  699MOL0     H96403  11.094   6.110   0.134 -0.5063 -1.2343  1.8273
  699MOL0     H96404  11.104   6.020  -0.010  0.7163  0.3542 -0.6284
  699MOL0     H96405  11.280   5.872   0.094  0.7956 -0.7156  3.1357
  699MOL0     H96406  11.323   6.041   0.084  0.6985 -0.6807 -1.0487
  699MOL0     H96407  11.216   5.919   0.343 -0.2943 -0.7993  0.2391
  699MOL0     H96408  11.270   6.087   0.307  0.2734 -0.0154  0.1691
  699MOL0     H96409  11.435   5.957   0.441  2.2834  0.6265 -0.1497
  699MOL0     H96410  11.433   5.830   0.323  0.6720 -0.2139  1.7781
  699MOL0     H96411  11.568   5.852   0.097  1.5573  0.6839 -0.5625
  699MOL0     H96412  11.722   6.014  -0.111  0.0219 -1.5085 -0.0488
  699MOL0     H96413  11.792   5.900   0.011 -0.8710 -0.5580  0.0761
  699MOL0     H96414  11.899   6.172  -0.060  0.2840 -0.4924 -0.6494
  699MOL0     H96415  11.940   6.107   0.082 -0.3283  0.0655 -0.1369
  699MOL0     H96416  12.008   5.892  -0.054 -1.6865  0.7445 -1.1985
  699MOL0     H96417  11.977   5.981  -0.204  2.1539 -0.0860 -1.3026
  699MOL0     H96418  12.133   6.147  -0.138 -5.4643 -0.2454 -0.8146
  699MOL0     H96419  12.157   6.075   0.025 -1.0829 -2.7993  0.5439
  699MOL0     H96420  12.322   5.866   0.099  1.8678 -2.6073  0.2667
  699MOL0     H96421  12.436   5.845   0.254 -1.0118  1.6370  0.5802
  699MOL0     H96422  12.530   5.984   0.302  1.3741  0.6868 -1.5549
  699MOL0     H96423  12.607   5.824   0.242 -1.5416 -1.7891 -2.8597
  699MOL0     H96424  12.805   6.181   0.350 -1.6690 -0.7577 -2.4309
  699MOL0     H96425  13.031   6.288   0.432  1.1725  1.9115 -4.0880
  699MOL0     H96426  13.414   6.089   0.400 -1.9473 -1.5203 -1.3674
  699MOL0     H96427  13.387   6.181   0.245  2.0945  1.6969  0.1154
  699MOL0     H96428  13.543   6.318   0.349 -0.3638 -0.4303 -1.1793
  699MOL0     H96429  13.383   6.389   0.390 -0.1927 -0.7383  0.5151
  699MOL0     H96430  13.568   6.221   0.550 -1.4201 -1.3281  1.0985
  699MOL0     H96431  13.407   6.259   0.616  2.9908 -1.3797  2.2959
  699MOL0     H96432  13.477   6.519   0.600  2.1680  1.7315  0.0724
  699MOL0     H96433  13.633   6.446   0.533 -0.7802 -0.6974 -0.3619
  699MOL0     H96434  13.505   6.422   0.813  1.4262  1.4396  1.6941
  699MOL0     H96435  13.650   6.330   0.755 -4.2831 -3.4289 -1.1118
  699MOL0     H96436  13.620   6.631   0.827  4.6018  1.4268  1.9453
  699MOL0     H96437  13.746   6.582   0.717  2.4560  0.2501  1.0323
  699MOL0     H96438  13.823   6.589   0.935  2.4636 -0.7834 -0.9718
  699MOL0     H96439  13.844   6.441   0.858  0.6122  0.2371  0.9738
  699MOL0     H96440  13.794   6.407   1.092 -0.7456  0.3621  0.2629
  699MOL0     H96441  13.633   6.354   1.011 -0.0729 -0.0873 -2.2068
  699MOL0     H96442  13.241   5.962   0.275  0.1288 -0.7818 -2.2519
  699MOL0     H96443  13.038   5.897   0.142  0.1400  2.7865 -2.3602
  699MOL0     H96444  12.641   6.164  -0.140 -0.2368  0.1600 -0.8388
  699MOL0     H96445  12.419   6.110  -0.241 -1.0565  1.9927  1.1293
  699MOL0     H96446  10.429   5.959  -0.113 -2.0039  0.1223 -1.7208
  699MOL0     H96447  10.190   6.026  -0.141 -0.8644 -3.1335  3.0199
  699MOL0     H96448   9.826   6.391  -0.047  0.4062 -0.0704 -0.1968
  699MOL0     H96449   9.520   6.450  -0.072  2.2623 -0.8352 -1.9357
  699MOL0     H96450   9.257   6.441   0.143 -1.1405 -0.2891  1.3501
  699MOL0     H96451   9.262   6.418  -0.028  1.5154 -0.5222  0.0266
  699MOL0     H96452   9.036   6.454  -0.016  0.1229  0.3015  0.2764
  699MOL0     H96453   9.030   6.404   0.157  2.5296  0.6704  0.9364
  699MOL0     H96454   9.047   6.227  -0.089 -3.4997 -1.3882 -1.2280
  699MOL0     H96455   9.034   6.162   0.071  1.8061  0.6335 -0.7474
  699MOL0     H96456   8.831   6.357  -0.074  1.0845 -1.5329 -1.4430
  699MOL0     H96457   8.830   6.298   0.102  0.9127 -2.3018  1.1831
  699MOL0     H96458   8.589   6.000  -0.062 -1.6305  2.1432 -2.5019
  699MOL0     H96459   9.408   5.979   0.208  1.0815 -1.0578 -1.0423
  699MOL0     H96460   9.805   5.843   0.203 -0.3952 -0.0043  1.3855
  699MOL0     H96461   9.765   5.923   0.357  1.1493  2.3125 -1.4558
  699MOL0     H96462   9.640   5.831   0.257  0.8852 -2.3127  1.7354
  700MOL0     O96463  11.004  10.787   7.619 -0.4614 -0.6380  1.2490
  700MOL0     C96464  10.949  10.685   7.657  0.0897  0.0600  0.5587
  700MOL0     O96465  11.006  10.565   7.667  0.0317 -0.0311  0.5497
  700MOL0     C96466  11.129  10.538   7.619  0.1919 -0.5564  0.1662
  700MOL0     C96467  11.238  10.618   7.662  0.1609  1.0850 -0.0043
  700MOL0     C96468  11.373  10.594   7.628  0.8791  0.3220  0.1670
  700MOL0     C96469  11.390  10.479   7.552 -0.8391  0.6925 -0.5370
  700MOL0     O96470  11.519  10.430   7.522  0.9663 -0.8747 -1.3278
  700MOL0     C96471  11.625  10.486   7.595 -0.4869  0.6153 -0.1185
  700MOL0     C96472  11.761  10.407   7.573 -0.0869 -0.4789 -0.8277
  700MOL0     C96473  11.750  10.255   7.609 -0.5884 -0.0271  0.1146
  700MOL0     C96474  11.877  10.180   7.556  0.1851  0.4112 -0.3106
  700MOL0     C96475  12.012  10.245   7.588  0.3971  1.0872 -0.6220
  700MOL0     C96476  12.031  10.273   7.741  0.2764  0.6368 -0.2274
  700MOL0     C96477  12.179  10.281   7.787 -0.1492  0.2079 -0.4442
  700MOL0     C96478  12.244  10.417   7.771 -0.3864 -0.7242 -0.7719
  700MOL0     N96479  12.390  10.410   7.790 -0.0277 -0.2687  0.1160
  700MOL0     C96480  12.481  10.349   7.707 -0.2342  0.3807 -0.8464
  700MOL0     C96481  12.594  10.353   7.774  0.0308 -0.1211 -0.2832
  700MOL0     C96482  12.728  10.308   7.737 -0.2720 -0.9857 -0.3821
  700MOL0     C96483  12.747  10.299   7.592  1.4790 -0.2234  0.4149
  700MOL0     C96484  12.885  10.251   7.568 -0.3119 -0.8405  0.3252
  700MOL0     C96485  12.989  10.357   7.583  0.4319  0.6564  1.2008
  700MOL0     O96486  13.105  10.287   7.535  0.1252  0.2166 -0.1615
  700MOL0     C96487  13.211  10.363   7.502  0.0380 -0.2719  0.4343
  700MOL0     C96488  13.232  10.507   7.503 -0.4553 -0.3840  0.7498
  700MOL0     C96489  13.343  10.576   7.453 -0.5760  0.0162  0.0619
  700MOL0     C96490  13.343  10.728   7.471  0.8208  0.3792 -0.3853
  700MOL0     C96491  13.456  10.498   7.420 -0.3564  0.0819  0.3305
  700MOL0     C96492  13.573  10.557   7.376 -0.7938 -0.2688 -0.0478
  700MOL0     O96493  13.655  10.469   7.309 -0.2788 -0.4379  0.2240
  700MOL0     C96494  13.784  10.492   7.278 -0.1961 -0.1138 -0.3383
  700MOL0     C96495  13.845  10.407   7.178  0.3272  0.6225  0.0722
  700MOL0     C96496  13.982  10.416   7.148  0.3491 -0.0549  0.1708
  700MOL0     C96497  14.069  10.502   7.211 -0.5992 -1.1012 -0.6209
  700MOL0     O96498  14.208  10.518   7.195  0.5821  0.2541  0.4402
  700MOL0     C96499  14.272  10.395   7.144  1.3199 -0.7629  0.4107
  700MOL0     C96500  14.418  10.413   7.153 -0.6731  0.2494  0.3819
  700MOL0     C96501  14.502  10.285   7.129  0.3689 -0.2300 -0.0470
  700MOL0     C96502  14.650  10.336   7.139  0.2885  0.5144  0.1311
  700MOL0     C96503  14.747  10.226   7.101  0.5643 -0.5582 -0.0404
  700MOL0     C96504  14.758  10.129   7.213 -0.3257  0.3882  0.5499
  700MOL0     C96505  14.872  10.031   7.165  0.6975 -0.1996  0.4635
  700MOL0     C96506  14.903   9.936   7.276  0.1331 -0.5990 -0.1330
  700MOL0    Cl96507  14.952  10.022   7.425 -0.0391  0.1385  0.1975
  700MOL0     C96508  14.009  10.593   7.303  0.6604  0.8173  0.3260
  700MOL0     C96509  13.872  10.585   7.345  0.0319 -0.4420  0.4088
  700MOL0     O96510  13.609  10.666   7.420 -0.4235 -0.0189 -0.3119
  700MOL0     C96511  13.440  10.361   7.420  1.1737 -0.1053 -0.4394
  700MOL0     C96512  13.322  10.290   7.456 -0.3101  0.0431 -0.3678
  700MOL0     N96513  12.571  10.417   7.896 -0.5650 -0.4028  0.2501
  700MOL0     N96514  12.447  10.443   7.904 -0.8895 -0.2970 -0.6772
  700MOL0     C96515  11.280  10.409   7.493 -0.4933  0.4179 -0.7406
  700MOL0     C96516  11.150  10.444   7.522 -0.0921  0.1349 -0.3433
  700MOL0     C96517  10.813  10.699   7.697  0.3180 -0.2362 -1.6590
  700MOL0     C96518  10.773  10.616   7.804 -0.8438  0.1889 -0.1034
  700MOL0     C96519  10.639  10.615   7.844 -0.0658 -0.3968 -1.2729
  700MOL0     C96520  10.546  10.699   7.787  0.4957  0.4486  0.3156
  700MOL0     O96521  10.415  10.716   7.830  0.3551  0.3124 -0.0160
  700MOL0     C96522  10.357  10.642   7.937 -0.6860 -0.8212  0.4240
  700MOL0     C96523  10.202  10.652   7.930 -0.4428 -0.3677 -1.0369
  700MOL0     C96524  10.136  10.536   8.014 -0.2529  0.3067 -0.7041
  700MOL0     C96525   9.986  10.528   7.977 -0.0548  0.2218 -0.2803
  700MOL0     C96526   9.917  10.443   8.070  0.5378  0.1403  0.0551
  700MOL0     C96527   9.847  10.367   8.136 -0.0390 -0.6405  0.5881
  700MOL0     C96528  10.586  10.772   7.673  0.1239  0.7161  0.3857
  700MOL0     C96529  10.720  10.785   7.636  1.4789  0.2763 -0.5373
  700MOL0     C96530  10.741  10.867   7.515  0.1207  0.1036 -0.7994
  700MOL0     H96531  11.212  10.695   7.734 -1.7528  1.1216 -0.6912
  700MOL0     H96532  11.443  10.670   7.660 -0.6377  1.9397 -0.2331
  700MOL0     H96533  11.605  10.484   7.702  3.2030 -0.5057  0.6746
  700MOL0     H96534  11.651  10.587   7.560  2.8332 -0.1714 -0.2439
  700MOL0     H96535  11.793  10.415   7.469  0.9421  0.5313 -0.4534
  700MOL0     H96536  11.839  10.439   7.643 -1.4225 -1.4814  1.2110
  700MOL0     H96537  11.737  10.237   7.717  2.2134 -1.3351  0.3163
  700MOL0     H96538  11.659  10.217   7.562 -1.2329  1.5419  0.0327
  700MOL0     H96539  11.867  10.080   7.601 -1.2172  0.8952  0.5137
  700MOL0     H96540  11.871  10.166   7.448 -1.5889 -2.3840  0.0286
  700MOL0     H96541  12.022  10.337   7.529  0.2130 -0.3464 -3.0213
  700MOL0     H96542  12.102  10.189   7.561 -1.7482 -2.7196 -0.4574
  700MOL0     H96543  11.981  10.367   7.766 -1.4451 -0.3201  0.1090
  700MOL0     H96544  11.981  10.192   7.795  3.4043  0.3989  2.6564
  700MOL0     H96545  12.238  10.198   7.745 -0.8075 -1.5827  1.9536
  700MOL0     H96546  12.181  10.257   7.894 -2.8396  1.5432 -0.0053
  700MOL0     H96547  12.226  10.443   7.666 -0.3264 -1.1138 -0.8808
  700MOL0     H96548  12.202  10.492   7.838  0.7961  0.0602 -0.8638
  700MOL0     H96549  12.466  10.296   7.613  2.1941  0.8216 -1.5365
  700MOL0     H96550  12.748  10.209   7.780  1.3583 -0.1624  0.8693
  700MOL0     H96551  12.806  10.373   7.777  1.2358 -2.4007 -0.8963
  700MOL0     H96552  12.682  10.226   7.543  0.8238  1.5453 -1.5097
  700MOL0     H96553  12.734  10.400   7.551  3.2808  0.2721  0.9774
  700MOL0     H96554  12.901  10.161   7.628 -0.7351 -2.0841 -1.3579
  700MOL0     H96555  12.875  10.229   7.461 -1.7865 -0.0061  0.2639
  700MOL0     H96556  12.971  10.444   7.520 -2.3734 -3.0285 -3.7484
  700MOL0     H96557  12.999  10.381   7.690  2.5025  0.8244  1.0156
  700MOL0     H96558  13.151  10.561   7.551  1.3304  0.0860  3.4145
  700MOL0     H96559  13.244  10.773   7.485  0.6508 -0.0430 -0.2068
  700MOL0     H96560  13.366  10.766   7.371 -4.6612 -0.2664 -2.2721
  700MOL0     H96561  13.409  10.754   7.554  1.5930 -1.7637 -0.2695
  700MOL0     H96562  13.782  10.334   7.128 -2.5409  1.5597  2.1197
  700MOL0     H96563  14.024  10.351   7.072  1.7658  0.6114  0.3607
  700MOL0     H96564  14.239  10.323   7.219  1.5978  0.7893  2.0888
  700MOL0     H96565  14.240  10.366   7.044  4.0560 -2.0576 -0.2016
  700MOL0     H96566  14.444  10.501   7.093  1.4360  0.9661  2.1947
  700MOL0     H96567  14.434  10.442   7.257  0.9114  3.9711 -0.7258
  700MOL0     H96568  14.491  10.249   7.027 -1.3371 -0.6939  0.2751
  700MOL0     H96569  14.482  10.205   7.201 -0.7164 -0.1787 -0.2794
  700MOL0     H96570  14.671  10.369   7.242 -0.8553 -1.0679  0.9143
  700MOL0     H96571  14.672  10.405   7.057  1.5193 -0.6264 -0.5352
  700MOL0     H96572  14.699  10.171   7.019 -1.8347  0.8462  0.3417
  700MOL0     H96573  14.841  10.269   7.065  2.2641 -1.2365  3.1830
  700MOL0     H96574  14.664  10.074   7.207  0.3892 -0.9682  1.3538
  700MOL0     H96575  14.771  10.167   7.315  1.2863 -1.7877  1.2351
  700MOL0     H96576  14.960  10.089   7.135  0.7393  0.2776  1.4533
  700MOL0     H96577  14.839   9.987   7.071 -0.8077  1.3533  0.2073
  700MOL0     H96578  14.980   9.862   7.251  0.1660 -0.3848 -0.6709
  700MOL0     H96579  14.805   9.894   7.302 -0.0813  0.6024  1.1074
  700MOL0     H96580  14.082  10.662   7.342  2.3362  0.5585 -2.1206
  700MOL0     H96581  13.822  10.655   7.411 -2.4937 -1.2367 -0.5275
  700MOL0     H96582  13.509  10.295   7.367  0.1903 -0.9489 -0.7046
  700MOL0     H96583  13.292  10.188   7.433 -0.4865 -0.0792  0.3615
  700MOL0     H96584  11.292  10.319   7.433 -1.9290 -0.7457  0.6325
  700MOL0     H96585  11.064  10.391   7.484 -0.3170  0.2460  0.0037
  700MOL0     H96586  10.846  10.557   7.858  0.1886 -1.0397 -2.6818
  700MOL0     H96587  10.611  10.561   7.934 -1.8254  1.0716 -0.8601
  700MOL0     H96588  10.385  10.536   7.929 -0.1328 -0.8255  1.9983
  700MOL0     H96589  10.388  10.686   8.032 -0.7909  1.9610 -0.7501
  700MOL0     H96590  10.172  10.635   7.826  0.1177 -1.4448 -1.0393
  700MOL0     H96591  10.177  10.751   7.970 -1.7507 -0.8263 -0.6402
  700MOL0     H96592  10.185  10.439   8.009 -0.4932  0.1531 -0.1550
  700MOL0     H96593  10.135  10.575   8.116 -1.2298 -1.8485  0.1782
  700MOL0     H96594   9.980  10.489   7.875  2.8229  0.4614 -0.6172
  700MOL0     H96595   9.940  10.627   7.970 -2.6346 -0.9532 -1.2855
  700MOL0     H96596   9.788  10.303   8.199  0.4144  0.0700  1.7591
  700MOL0     H96597  10.504  10.822   7.623 -0.1913  2.7717  2.7168
  700MOL0     H96598  10.793  10.955   7.554 -1.7911  0.3304  1.4856
  700MOL0     H96599  10.803  10.815   7.441 -1.2782 -1.8205 -0.6983
  700MOL0     H96600  10.649  10.906   7.472 -0.8302 -3.0175 -1.8921
  701MOL0     O96601   2.338   1.988   8.098  0.8588  0.6372 -0.8000
  701MOL0     C96602   2.290   2.091   8.054  0.3844 -0.4579 -0.4227
  701MOL0     O96603   2.354   2.196   7.993 -0.0421  0.2548 -0.2724
  701MOL0     C96604   2.492   2.206   8.007  0.4684 -0.7263  0.1608
  701MOL0     C96605   2.556   2.179   8.134  0.7128  0.7476  0.3561
  701MOL0     C96606   2.687   2.196   8.150  0.4485  0.6843  0.0537
  701MOL0     C96607   2.773   2.224   8.034 -0.6698  0.4006 -0.4497
  701MOL0     O96608   2.914   2.244   8.037  0.2197  0.1085 -0.5841
  701MOL0     C96609   2.996   2.147   8.096 -0.9957  0.5288 -0.5623
  701MOL0     C96610   3.117   2.141   8.001  0.2606  0.2525  0.2439
  701MOL0     C96611   3.211   2.263   7.993 -0.6899 -0.7165 -0.0512
  701MOL0     C96612   3.332   2.238   7.891  0.4835  0.5132 -0.3995
  701MOL0     C96613   3.445   2.146   7.938 -0.5061  0.5324  0.7616
  701MOL0     C96614   3.518   2.195   8.060 -0.1731  0.6877  0.0260
  701MOL0     C96615   3.656   2.119   8.086  0.1759 -0.1261 -0.1322
  701MOL0     C96616   3.745   2.191   8.190 -0.3989 -0.6992 -0.1443
  701MOL0     N96617   3.876   2.124   8.196  0.2486  0.0519 -0.2834
  701MOL0     C96618   3.918   2.043   8.294 -0.4104  0.0997  0.1018
  701MOL0     C96619   4.026   1.982   8.244 -0.5088 -0.6622  0.3309
  701MOL0     C96620   4.113   1.878   8.320  0.3126 -0.5399  0.0007
  701MOL0     C96621   4.189   1.799   8.215 -0.2907  0.5994  0.3806
  701MOL0     C96622   4.280   1.698   8.287  0.1779  0.5298  0.6030
  701MOL0     C96623   4.293   1.579   8.191  0.0315 -0.3040  0.8979
  701MOL0     O96624   4.364   1.473   8.252  0.1340  0.5715  0.4888
  701MOL0     C96625   4.496   1.463   8.236  0.3111 -0.4910 -0.1288
  701MOL0     C96626   4.562   1.476   8.115  1.1508  0.2013 -0.7314
  701MOL0     C96627   4.702   1.450   8.106  1.2820 -1.2459 -0.5653
  701MOL0     C96628   4.768   1.464   7.968  0.7034 -1.0832 -0.3407
  701MOL0     C96629   4.781   1.429   8.223 -0.2536 -0.0912 -0.1365
  701MOL0     C96630   4.923   1.395   8.224 -0.9664  0.3420 -0.4673
  701MOL0     O96631   4.961   1.305   8.327 -0.0558 -0.1242 -0.1333
  701MOL0     C96632   5.092   1.274   8.367 -0.0326 -0.2707 -0.3783
  701MOL0     C96633   5.206   1.344   8.320 -0.2540  0.3990 -0.0485
  701MOL0     C96634   5.331   1.330   8.386 -0.4953  0.6557  0.6336
  701MOL0     C96635   5.343   1.242   8.495  0.3432 -0.4847  0.6939
  701MOL0     O96636   5.454   1.227   8.563 -0.1079  0.3185  0.0539
  701MOL0     C96637   5.502   1.345   8.625  0.4850  0.1531  0.6692
  701MOL0     C96638   5.657   1.344   8.625 -0.5435  0.2147  0.1043
  701MOL0     C96639   5.712   1.477   8.682 -0.2810  0.7988  0.9654
  701MOL0     C96640   5.863   1.492   8.676 -0.1679  0.3812  1.1607
  701MOL0     C96641   5.924   1.614   8.731 -0.5865 -0.2616 -1.1544
  701MOL0     C96642   6.074   1.612   8.710  0.2860 -0.6938 -0.7950
  701MOL0     C96643   6.151   1.722   8.790 -1.3032 -1.1023 -0.1416
  701MOL0     C96644   6.193   1.836   8.701 -0.0994 -1.0249  0.2268
  701MOL0    Cl96645   6.335   1.784   8.609  0.3636 -0.7329 -0.3639
  701MOL0     C96646   5.237   1.165   8.532  0.1981  0.6646  0.6084
  701MOL0     C96647   5.108   1.181   8.472 -0.0573 -0.6268  0.8594
  701MOL0     O96648   4.997   1.448   8.140  0.3876 -0.2285 -0.1897
  701MOL0     C96649   4.711   1.426   8.344  0.0211  0.4318  0.1879
  701MOL0     C96650   4.575   1.444   8.350  0.4504 -0.0215 -0.5113
  701MOL0     N96651   4.051   2.035   8.120 -0.0828 -0.2051 -0.9145
  701MOL0     N96652   3.956   2.127   8.090  0.2132  0.5138 -0.1189
  701MOL0     C96653   2.710   2.260   7.914 -0.0394  0.3597  0.0733
  701MOL0     C96654   2.568   2.255   7.897 -0.2500  0.1613 -0.2295
  701MOL0     C96655   2.139   2.101   8.040 -0.5367  0.1121 -0.0925
  701MOL0     C96656   2.084   2.192   7.946  0.1321 -0.2630 -0.2531
  701MOL0     C96657   1.951   2.200   7.921  0.1621 -0.3385  0.4217
  701MOL0     C96658   1.860   2.131   7.993  0.1419 -0.7723 -0.2760
  701MOL0     O96659   1.725   2.139   7.976  0.6657 -0.0343  0.2310
  701MOL0     C96660   1.654   2.071   7.878 -0.9721  0.1804 -0.5103
  701MOL0     C96661   1.730   2.075   7.743 -0.5751  0.4260  0.4158
  701MOL0     C96662   1.662   1.976   7.650 -0.1318  0.1356  0.5390
  701MOL0     C96663   1.663   2.034   7.511 -0.5506  0.0672  0.5198
  701MOL0     C96664   1.622   1.931   7.425  0.0447  0.4077  0.0935
  701MOL0     C96665   1.598   1.839   7.348 -0.0683  0.5954  0.6404
  701MOL0     C96666   1.909   2.061   8.106 -0.1229 -0.5498 -0.0828
  701MOL0     C96667   2.046   2.043   8.124 -0.1838 -0.8711 -0.0779
  701MOL0     C96668   2.078   1.967   8.252  0.3598 -0.5472  0.2373
  701MOL0     H96669   2.490   2.157   8.217  1.9950  3.1555  2.1632
  701MOL0     H96670   2.735   2.188   8.247  2.1094  1.8728 -0.6052
  701MOL0     H96671   2.945   2.051   8.107 -0.0838 -0.0166 -1.0277
  701MOL0     H96672   3.017   2.186   8.196 -1.6274 -0.0415 -0.1971
  701MOL0     H96673   3.180   2.052   8.013  1.4391  0.3717 -3.5998
  701MOL0     H96674   3.059   2.119   7.911 -0.2262 -2.3179  1.1118
  701MOL0     H96675   3.159   2.354   7.963  0.3406 -0.8096 -2.2870
  701MOL0     H96676   3.259   2.276   8.091  2.5566 -0.1638 -1.5897
  701MOL0     H96677   3.292   2.177   7.809 -2.8485 -3.8034  3.8242
  701MOL0     H96678   3.379   2.332   7.862 -2.8484  1.9895 -1.5730
  701MOL0     H96679   3.511   2.144   7.851 -0.3773  3.6672  0.6781
  701MOL0     H96680   3.406   2.045   7.956 -1.1188  0.6300  0.0496
  701MOL0     H96681   3.543   2.298   8.032 -1.4308  0.7534 -0.9603
  701MOL0     H96682   3.458   2.195   8.151  0.7427 -1.5648  0.7021
  701MOL0     H96683   3.705   2.120   7.988 -0.9066 -1.4914 -0.7283
  701MOL0     H96684   3.636   2.013   8.105  1.8225 -1.0799 -3.0961
  701MOL0     H96685   3.750   2.297   8.163 -2.1689  0.8510  4.5642
  701MOL0     H96686   3.693   2.184   8.286 -0.6536 -1.0079 -0.3012
  701MOL0     H96687   3.876   2.036   8.394 -1.1183 -0.3942 -0.2278
  701MOL0     H96688   4.050   1.810   8.378 -0.2880 -1.5439 -1.7614
  701MOL0     H96689   4.184   1.937   8.380  0.8562 -0.0751 -1.0709
  701MOL0     H96690   4.120   1.757   8.141  0.8598  2.5360 -1.9808
  701MOL0     H96691   4.254   1.871   8.165  1.3690  1.1211  3.0908
  701MOL0     H96692   4.381   1.737   8.301  0.4492  0.2825 -0.5416
  701MOL0     H96693   4.242   1.660   8.382 -0.8672 -1.3961 -0.5076
  701MOL0     H96694   4.198   1.540   8.153  0.5489 -0.4876 -0.2493
  701MOL0     H96695   4.348   1.623   8.108  0.6855 -3.9760 -0.8109
  701MOL0     H96696   4.516   1.506   8.021  0.7314  1.1481 -0.2403
  701MOL0     H96697   4.846   1.388   7.954  0.6467 -1.2586  0.2516
  701MOL0     H96698   4.817   1.561   7.956  1.3881 -1.2765  0.7439
  701MOL0     H96699   4.696   1.449   7.887 -0.1425 -1.6188  0.4925
  701MOL0     H96700   5.203   1.408   8.233  0.8921  1.7763  0.8717
  701MOL0     H96701   5.426   1.370   8.353  0.6133 -3.2240 -1.5075
  701MOL0     H96702   5.472   1.436   8.572  3.1330  0.4296 -0.5423
  701MOL0     H96703   5.458   1.355   8.725 -0.7499  1.8608  0.0080
  701MOL0     H96704   5.694   1.267   8.693  1.0464  1.3971  0.6478
  701MOL0     H96705   5.693   1.316   8.525  2.1950  0.3403  0.9747
  701MOL0     H96706   5.689   1.485   8.789  0.2529 -0.4471  1.1926
  701MOL0     H96707   5.665   1.562   8.632 -1.7998 -1.1313 -1.1383
  701MOL0     H96708   5.896   1.483   8.572  0.5968 -1.4269  1.5246
  701MOL0     H96709   5.899   1.404   8.730 -1.5645 -1.4356 -0.6877
  701MOL0     H96710   5.901   1.712   8.688  1.1305  0.9105  0.3941
  701MOL0     H96711   5.890   1.628   8.834 -0.6059  0.4934 -1.2561
  701MOL0     H96712   6.108   1.612   8.606  2.8992 -0.9306 -0.0173
  701MOL0     H96713   6.113   1.521   8.757 -0.5847  0.3202  2.1309
  701MOL0     H96714   6.237   1.678   8.841 -0.6770 -1.4128 -1.4203
  701MOL0     H96715   6.085   1.765   8.866 -2.1802 -2.5481 -0.0266
  701MOL0     H96716   6.223   1.923   8.760 -2.1225  0.5899 -0.9780
  701MOL0     H96717   6.117   1.868   8.629 -1.7422  0.2875  2.4130
  701MOL0     H96718   5.239   1.095   8.615 -1.3297 -1.3042 -0.9188
  701MOL0     H96719   5.028   1.115   8.506  0.0571 -1.3929 -0.2841
  701MOL0     H96720   4.768   1.404   8.434  1.0276  0.5631 -0.4030
  701MOL0     H96721   4.537   1.437   8.452 -0.2557 -0.6394 -0.8100
  701MOL0     H96722   2.769   2.289   7.827 -0.4306 -0.5188 -0.4988
  701MOL0     H96723   2.520   2.275   7.802  0.8917 -0.8240 -1.0485
  701MOL0     H96724   2.146   2.242   7.872  2.7037 -0.4770  1.6385
  701MOL0     H96725   1.908   2.266   7.847 -0.1929  0.6688  1.4986
  701MOL0     H96726   1.649   1.970   7.920  1.6017 -1.1916 -3.2028
  701MOL0     H96727   1.550   2.106   7.870 -0.5106  1.9474  0.7375
  701MOL0     H96728   1.828   2.028   7.747 -1.0778 -0.6983 -0.0188
  701MOL0     H96729   1.745   2.179   7.711 -0.4309 -0.3345 -2.2464
  701MOL0     H96730   1.717   1.882   7.652  0.2241  0.2888 -1.1081
  701MOL0     H96731   1.556   1.963   7.672 -0.1755 -2.7277 -0.9078
  701MOL0     H96732   1.766   2.053   7.481  0.0645 -0.9031  1.8680
  701MOL0     H96733   1.607   2.128   7.508  0.9887  0.9902 -0.2283
  701MOL0     H96734   1.588   1.758   7.279 -0.5554 -0.1318  1.5331
  701MOL0     H96735   1.843   2.009   8.175  0.8834  0.1934  1.5174
  701MOL0     H96736   2.148   2.026   8.312  1.8057  1.1162 -2.8589
  701MOL0     H96737   1.992   1.931   8.309  0.3325 -0.0590  0.5087
  701MOL0     H96738   2.133   1.875   8.229 -1.0411 -2.4164  3.6306
  702MOL0     O96739   4.406   7.944   5.345  0.0526  0.0877 -1.0507
  702MOL0     C96740   4.469   7.995   5.440  0.5967 -0.1269  0.4169
  702MOL0     O96741   4.417   8.060   5.545  0.3059 -0.8340 -0.4269
  702MOL0     C96742   4.284   8.097   5.540 -0.3819  0.1379 -0.2456
  702MOL0     C96743   4.252   8.229   5.507  0.4033  0.2857  1.1534
  702MOL0     C96744   4.115   8.274   5.493  0.3310  0.1419 -0.7657
  702MOL0     C96745   4.008   8.184   5.520  0.0377 -0.2404 -0.1540
  702MOL0     O96746   3.880   8.214   5.501 -0.0458  0.3522 -0.0089
  702MOL0     C96747   3.835   8.348   5.499 -0.2347  0.0180 -0.2640
  702MOL0     C96748   3.685   8.359   5.479 -0.8095 -0.0499 -0.0577
  702MOL0     C96749   3.612   8.270   5.578  0.0947 -0.6472  0.5717
  702MOL0     C96750   3.469   8.243   5.526  1.1298 -0.0417  0.0875
  702MOL0     C96751   3.368   8.231   5.636 -0.3393  0.1378 -0.5122
  702MOL0     C96752   3.233   8.206   5.587  0.4697 -0.0790  0.6271
  702MOL0     C96753   3.172   8.326   5.501  0.5676 -0.1197 -0.3124
  702MOL0     C96754   3.051   8.278   5.418  0.0072 -0.2703 -0.1756
  702MOL0     N96755   2.960   8.192   5.491  0.1819 -0.1190  0.3476
  702MOL0     C96756   2.914   8.076   5.433  0.1888 -0.9682  0.1230
  702MOL0     C96757   2.817   8.033   5.515 -0.3858 -0.3486 -0.1553
  702MOL0     C96758   2.751   7.902   5.513 -0.6945  0.2386  0.7939
  702MOL0     C96759   2.732   7.871   5.352  0.0644  0.7262  1.2040
  702MOL0     C96760   2.661   7.974   5.266 -0.9589  0.1370 -0.1972
  702MOL0     C96761   2.545   8.042   5.338 -0.2474  0.1288  0.1997
  702MOL0     O96762   2.482   8.135   5.244 -0.7056 -0.0581  0.0237
  702MOL0     C96763   2.549   8.254   5.213  0.2120 -0.3352 -0.5360
  702MOL0     C96764   2.497   8.339   5.110 -0.8298 -0.2343 -0.3153
  702MOL0     C96765   2.549   8.459   5.076  0.2547 -0.2276 -0.2614
  702MOL0     C96766   2.482   8.540   4.971  0.2373 -0.7610 -0.2043
  702MOL0     C96767   2.662   8.500   5.139 -0.2944  0.4352  0.6537
  702MOL0     C96768   2.740   8.632   5.123 -0.0523 -0.3305  0.5761
  702MOL0     O96769   2.671   8.750   5.106  0.0831 -0.0885  0.1115
  702MOL0     C96770   2.736   8.876   5.101  0.8598 -0.7253  0.3060
  702MOL0     C96771   2.740   8.945   4.986  0.6837 -0.0286 -0.1288
  702MOL0     C96772   2.801   9.064   4.979 -0.0391 -0.5576 -0.0098
  702MOL0     C96773   2.894   9.098   5.081  0.8798  0.1583  0.4729
  702MOL0     O96774   2.982   9.207   5.075  0.0998  0.3939 -0.6653
  702MOL0     C96775   3.048   9.235   4.951  0.4078 -0.0467 -0.8477
  702MOL0     C96776   3.136   9.116   4.921  0.0014 -0.1450 -0.5410
  702MOL0     C96777   3.217   9.078   5.044 -0.8236  0.2292 -0.1101
  702MOL0     C96778   3.350   9.031   4.990  0.6009 -0.3329  0.2979
  702MOL0     C96779   3.436   8.967   5.094 -0.5338  0.4329  0.3971
  702MOL0     C96780   3.546   9.066   5.140  0.2200  0.3147 -0.0416
  702MOL0     C96781   3.641   9.001   5.244  0.8127  0.3013  0.1608
  702MOL0     C96782   3.744   9.101   5.293  0.3104  0.4515  0.3165
  702MOL0    Cl96783   3.683   9.255   5.387  0.6189  0.6530  0.1109
  702MOL0     C96784   2.884   9.028   5.197  1.0093  0.5145  0.0349
  702MOL0     C96785   2.803   8.924   5.211 -0.4004  0.7406 -0.4214
  702MOL0     O96786   2.864   8.630   5.139 -0.0479  0.4462  0.1022
  702MOL0     C96787   2.713   8.418   5.244 -0.0869 -0.9492  0.2969
  702MOL0     C96788   2.666   8.294   5.282 -0.2175 -0.5343  0.2758
  702MOL0     N96789   2.809   8.118   5.623 -0.4407  0.2429 -0.3101
  702MOL0     N96790   2.895   8.220   5.602 -0.5475 -0.2735 -0.2525
  702MOL0     C96791   4.043   8.054   5.560  0.4674  0.4656  0.1508
  702MOL0     C96792   4.176   8.012   5.565 -0.6419  0.4366 -1.1111
  702MOL0     C96793   4.614   7.973   5.432 -0.7006  0.0668  0.2986
  702MOL0     C96794   4.663   7.844   5.417  0.1617 -1.1922  0.1362
  702MOL0     C96795   4.803   7.821   5.400  0.2841  0.0223 -0.7694
  702MOL0     C96796   4.890   7.931   5.404 -0.0285 -0.2747  0.7581
  702MOL0     O96797   5.025   7.911   5.386  0.2234  0.4252  0.4005
  702MOL0     C96798   5.117   8.016   5.362 -0.0268  0.6944  0.6266
  702MOL0     C96799   5.111   8.056   5.212 -0.4545 -0.3161 -0.7640
  702MOL0     C96800   5.131   7.947   5.106 -0.2939  0.5037  0.3222
  702MOL0     C96801   5.140   7.997   4.962 -0.2293 -0.2362 -0.5273
  702MOL0     C96802   5.259   8.084   4.936 -0.5247 -0.3206 -0.1888
  702MOL0     C96803   5.347   8.168   4.931 -0.3607  0.4414 -1.3263
  702MOL0     C96804   4.838   8.061   5.414 -0.2832  0.0701 -0.3289
  702MOL0     C96805   4.707   8.082   5.445 -0.3352  0.0874  0.5388
  702MOL0     C96806   4.674   8.219   5.494  0.6177 -0.6041 -0.2858
  702MOL0     H96807   4.330   8.298   5.475 -0.8349  0.2803 -2.3081
  702MOL0     H96808   4.091   8.379   5.480  1.5211  0.4233 -0.7428
  702MOL0     H96809   3.886   8.398   5.417  1.0996 -1.5384 -0.4362
  702MOL0     H96810   3.871   8.389   5.594  2.2372  1.0746 -1.5584
  702MOL0     H96811   3.648   8.462   5.482  0.7935  0.5509  2.1216
  702MOL0     H96812   3.673   8.321   5.377 -0.2836 -0.0695 -0.1156
  702MOL0     H96813   3.659   8.172   5.591 -1.3245 -2.1251 -3.6195
  702MOL0     H96814   3.610   8.325   5.672  0.4509  0.3107  0.0295
  702MOL0     H96815   3.432   8.323   5.462 -0.2400 -2.7586 -2.8184
  702MOL0     H96816   3.455   8.163   5.452 -0.7105  5.1389 -6.0578
  702MOL0     H96817   3.372   8.327   5.688  0.7971  0.2321 -0.7649
  702MOL0     H96818   3.392   8.150   5.706 -0.5548 -0.5784 -1.2524
  702MOL0     H96819   3.232   8.112   5.532 -1.4057 -1.6400  3.1179
  702MOL0     H96820   3.165   8.190   5.671 -1.6460  4.7277  0.1492
  702MOL0     H96821   3.238   8.379   5.430  0.7479 -0.1375 -0.1600
  702MOL0     H96822   3.134   8.403   5.568  1.1900  0.0546 -0.1455
  702MOL0     H96823   3.002   8.373   5.394 -0.7708 -0.5511  0.2488
  702MOL0     H96824   3.094   8.235   5.327  1.0813  0.2918  0.0553
  702MOL0     H96825   2.937   8.010   5.349  0.1117 -0.6899 -0.1159
  702MOL0     H96826   2.651   7.899   5.558 -1.0268  0.7391  0.1205
  702MOL0     H96827   2.811   7.823   5.558 -1.5438 -0.8582  0.0715
  702MOL0     H96828   2.823   7.836   5.304 -0.7510 -0.4565  0.4568
  702MOL0     H96829   2.665   7.785   5.345  0.1138  0.8049 -0.6044
  702MOL0     H96830   2.737   8.042   5.225  0.4086 -2.8200 -3.0289
  702MOL0     H96831   2.620   7.917   5.183 -1.0758 -0.2418  0.1199
  702MOL0     H96832   2.474   7.963   5.361 -1.7554  1.2407 -0.4217
  702MOL0     H96833   2.575   8.086   5.433  0.4859  0.4560 -0.1737
  702MOL0     H96834   2.409   8.298   5.061 -0.2492 -1.7554 -0.1267
  702MOL0     H96835   2.404   8.479   4.924 -1.4216  1.2372 -0.1895
  702MOL0     H96836   2.557   8.550   4.892 -0.1385 -0.5655 -0.5373
  702MOL0     H96837   2.433   8.635   4.995  1.7014  0.6060 -2.2839
  702MOL0     H96838   2.692   8.899   4.899  1.5501  0.7744 -1.0545
  702MOL0     H96839   2.799   9.133   4.895  1.2305  2.0944  1.9818
  702MOL0     H96840   2.979   9.238   4.866 -1.9759  0.1077  1.0131
  702MOL0     H96841   3.091   9.334   4.966 -0.3456 -0.1640  3.3757
  702MOL0     H96842   3.090   9.034   4.865 -0.5953  1.2034 -2.1059
  702MOL0     H96843   3.202   9.158   4.845  1.9160 -1.1945  0.4454
  702MOL0     H96844   3.167   8.999   5.100  0.9360 -1.1670 -0.4400
  702MOL0     H96845   3.229   9.161   5.113  0.0187 -0.7454  0.9353
  702MOL0     H96846   3.411   9.117   4.960  0.5243  0.3070  1.8814
  702MOL0     H96847   3.332   8.966   4.904  1.6236 -1.2239  0.7376
  702MOL0     H96848   3.382   8.926   5.179  0.0559 -4.0957 -1.1678
  702MOL0     H96849   3.491   8.881   5.055  0.1858  0.3120  1.6129
  702MOL0     H96850   3.493   9.149   5.188 -3.0855 -2.6484  1.9718
  702MOL0     H96851   3.605   9.090   5.051  1.2359 -1.4455  0.1231
  702MOL0     H96852   3.699   8.917   5.204  3.9328  3.2133 -2.0037
  702MOL0     H96853   3.588   8.971   5.334 -0.0355 -0.7855 -0.6752
  702MOL0     H96854   3.812   9.121   5.210 -1.9495 -1.6932 -2.2377
  702MOL0     H96855   3.805   9.051   5.369 -1.8432 -0.8160  1.3268
  702MOL0     H96856   2.938   9.062   5.285  2.2162 -0.7911 -0.1517
  702MOL0     H96857   2.800   8.861   5.300 -1.2896  1.3042 -0.0398
  702MOL0     H96858   2.799   8.459   5.296 -1.0583  0.7294  0.6413
  702MOL0     H96859   2.719   8.249   5.366 -2.0083 -1.1476  1.1303
  702MOL0     H96860   3.964   7.981   5.573  1.3616 -0.9561 -1.8597
  702MOL0     H96861   4.199   7.908   5.585  1.3927  0.8517 -1.0247
  702MOL0     H96862   4.585   7.768   5.415 -2.3816  1.2437  0.2974
  702MOL0     H96863   4.835   7.717   5.394 -1.6016 -0.4963 -3.1246
  702MOL0     H96864   5.096   8.088   5.441  1.5147  1.1408  0.6546
  702MOL0     H96865   5.214   7.971   5.385  1.9486  3.6011 -1.2957
  702MOL0     H96866   5.182   8.138   5.199 -0.5947 -0.3156 -1.5516
  702MOL0     H96867   5.014   8.101   5.188 -0.3160  1.4292  1.5874
  702MOL0     H96868   5.215   7.881   5.127  0.3005  1.1084 -0.1184
  702MOL0     H96869   5.036   7.892   5.110 -1.3157  2.2303  0.7637
  702MOL0     H96870   5.043   8.048   4.951 -0.1233 -0.3889 -2.8339
  702MOL0     H96871   5.137   7.921   4.883 -0.8661  0.8692 -1.6104
  702MOL0     H96872   5.422   8.242   4.948  0.4892 -0.9168  1.5050
  702MOL0     H96873   4.901   8.148   5.426 -0.4864  0.0596  0.9639
  702MOL0     H96874   4.588   8.269   5.448  1.1838 -0.1079 -0.8234
  702MOL0     H96875   4.654   8.222   5.602  0.1681 -0.8892 -0.3552
  702MOL0     H96876   4.756   8.290   5.480 -0.6664  0.5182 -2.6254
  703MOL0     O96877   5.788   3.365   3.130 -0.0215 -0.0389 -0.4538
  703MOL0     C96878   5.704   3.335   3.209  0.4114  0.5688  0.0399
  703MOL0     O96879   5.727   3.282   3.336  0.5855 -0.1336 -0.0209
  703MOL0     C96880   5.859   3.280   3.370 -0.4341 -0.3296 -0.4353
  703MOL0     C96881   5.949   3.192   3.313  0.1672 -0.2049  0.3183
  703MOL0     C96882   6.077   3.176   3.363 -0.8970  0.6437 -0.9460
  703MOL0     C96883   6.123   3.253   3.474 -0.2630 -0.5226  0.9563
  703MOL0     O96884   6.244   3.243   3.532 -0.1924  0.2354 -0.2433
  703MOL0     C96885   6.332   3.124   3.509  0.7907 -0.1133  0.5730
  703MOL0     C96886   6.447   3.144   3.599  0.8061  0.7482  0.7336
  703MOL0     C96887   6.577   3.208   3.521 -0.3526  0.8671  0.0352
  703MOL0     C96888   6.687   3.228   3.624 -0.1678  1.1286 -0.5308
  703MOL0     C96889   6.827   3.227   3.570  0.9148 -0.7953 -0.2509
  703MOL0     C96890   6.847   3.349   3.470  1.1525 -0.6841  0.6363
  703MOL0     C96891   6.997   3.361   3.449  0.5896 -0.5279 -0.7403
  703MOL0     C96892   7.039   3.481   3.371 -0.3782 -0.1220  0.0587
  703MOL0     N96893   7.171   3.531   3.413  0.2421 -0.0526 -0.0700
  703MOL0     C96894   7.281   3.463   3.399 -0.8032 -0.8455  0.0844
  703MOL0     C96895   7.384   3.546   3.399 -0.3278  0.9737  0.2478
  703MOL0     C96896   7.526   3.489   3.375  0.4785  0.2401  0.4188
  703MOL0     C96897   7.624   3.608   3.353  0.1043 -0.0972  0.4667
  703MOL0     C96898   7.764   3.557   3.323 -0.3578  0.2579  0.4888
  703MOL0     C96899   7.819   3.451   3.425  0.3294  0.0729 -0.6001
  703MOL0     O96900   7.946   3.393   3.389 -0.2633 -0.0110 -0.0688
  703MOL0     C96901   8.034   3.361   3.492  0.3761  0.1565 -0.7509
  703MOL0     C96902   7.993   3.323   3.624  0.2084 -0.3328  0.8942
  703MOL0     C96903   8.083   3.294   3.724  0.0540 -0.0627 -0.9230
  703MOL0     C96904   8.012   3.258   3.852  0.4827  0.3908 -0.0538
  703MOL0     C96905   8.228   3.309   3.700  0.5750 -0.5745 -0.4705
  703MOL0     C96906   8.344   3.298   3.796  0.3353  0.6887 -0.0107
  703MOL0     O96907   8.333   3.202   3.887  0.5567 -0.8017 -0.4549
  703MOL0     C96908   8.437   3.161   3.972  0.3628 -1.0907 -0.0521
  703MOL0     C96909   8.417   3.148   4.114  0.1218 -0.1746  0.0878
  703MOL0     C96910   8.522   3.115   4.198 -0.0323 -0.1785 -1.1136
  703MOL0     C96911   8.647   3.080   4.146  0.0361 -0.7587  0.3002
  703MOL0     O96912   8.745   3.044   4.232 -0.4655  0.1435 -0.5093
  703MOL0     C96913   8.870   2.989   4.180 -0.0498 -0.0448  0.1799
  703MOL0     C96914   8.917   2.908   4.300  0.3216  0.6013  0.1296
  703MOL0     C96915   8.946   2.998   4.425  0.2905  0.0358 -0.0416
  703MOL0     C96916   9.076   2.964   4.500  0.4335  0.3198  0.3182
  703MOL0     C96917   9.108   3.061   4.611 -0.4235 -0.2732 -0.1984
  703MOL0     C96918   9.256   3.058   4.668  0.0123 -0.8922 -0.0574
  703MOL0     C96919   9.365   3.097   4.577  0.5837 -0.4164  0.2178
  703MOL0     C96920   9.497   3.092   4.655  0.3734 -0.5062 -0.4844
  703MOL0    Cl96921   9.524   2.925   4.735 -0.2889 -0.0853  0.0565
  703MOL0     C96922   8.658   3.080   4.008 -0.2199  0.3667  0.6658
  703MOL0     C96923   8.558   3.122   3.923  0.3775  0.5454 -0.1098
  703MOL0     O96924   8.437   3.379   3.786  0.5230  0.1239 -0.1095
  703MOL0     C96925   8.262   3.352   3.567  0.0021  0.5755 -0.7968
  703MOL0     C96926   8.164   3.368   3.468 -1.1880 -0.0029  0.1887
  703MOL0     N96927   7.326   3.670   3.424  0.2597 -0.5286  0.4862
  703MOL0     N96928   7.195   3.655   3.424 -0.1479 -0.4788 -0.1397
  703MOL0     C96929   6.031   3.353   3.518  0.4104  0.0337 -0.1026
  703MOL0     C96930   5.899   3.361   3.478  0.1723  0.1427  0.4777
  703MOL0     C96931   5.564   3.379   3.175  0.3401  0.5286 -0.2703
  703MOL0     C96932   5.541   3.433   3.046  0.4159  0.1252 -0.3571
  703MOL0     C96933   5.418   3.479   2.995  0.0830 -0.3162 -1.1925
  703MOL0     C96934   5.296   3.455   3.065 -0.2323  0.4844 -0.4138
  703MOL0     O96935   5.162   3.482   3.022  0.0749 -0.4195  0.4101
  703MOL0     C96936   5.161   3.574   2.915 -0.1465  0.1691  0.9235
  703MOL0     C96937   5.029   3.626   2.863 -0.0604  0.3734 -0.2389
  703MOL0     C96938   4.923   3.509   2.861 -0.5145 -0.2152  0.0931
  703MOL0     C96939   4.975   3.374   2.793  0.1221  0.1448 -0.0487
  703MOL0     C96940   4.956   3.377   2.651 -0.1566  0.5862  0.2065
  703MOL0     C96941   4.945   3.379   2.526 -0.7976  0.0103 -0.2121
  703MOL0     C96942   5.316   3.398   3.189  0.0020 -0.4022  0.3342
  703MOL0     C96943   5.439   3.366   3.249  0.0335  0.6411  0.5546
  703MOL0     C96944   5.445   3.318   3.386 -0.0471  0.1962  0.0082
  703MOL0     H96945   5.920   3.123   3.235  3.7766 -3.2045  1.3237
  703MOL0     H96946   6.144   3.107   3.313 -1.1692  0.7455 -1.4692
  703MOL0     H96947   6.368   3.124   3.406 -1.0615  3.3661 -0.2294
  703MOL0     H96948   6.277   3.031   3.528 -2.3440  1.2883 -0.9494
  703MOL0     H96949   6.417   3.199   3.689 -0.2838 -3.1743  2.9642
  703MOL0     H96950   6.473   3.045   3.638 -0.4159  0.6160  1.2508
  703MOL0     H96951   6.603   3.129   3.450 -2.0521  0.7110 -0.4748
  703MOL0     H96952   6.557   3.305   3.473 -0.8398  0.2424 -1.0799
  703MOL0     H96953   6.678   3.323   3.677 -0.6745  0.5942  0.3650
  703MOL0     H96954   6.685   3.150   3.700  0.6291 -1.4172 -2.9500
  703MOL0     H96955   6.832   3.129   3.521 -0.4591  0.0301 -2.1905
  703MOL0     H96956   6.888   3.232   3.660 -0.3200 -1.3709  0.6402
  703MOL0     H96957   6.810   3.318   3.373  2.5389 -0.7918  0.1170
  703MOL0     H96958   6.810   3.447   3.502  1.4518  0.8429 -3.2692
  703MOL0     H96959   7.040   3.274   3.399  2.9108  1.1438 -1.8266
  703MOL0     H96960   7.043   3.374   3.548  3.5530 -0.4693 -2.0384
  703MOL0     H96961   7.041   3.451   3.266  0.6168 -0.3867  0.1465
  703MOL0     H96962   6.963   3.559   3.377 -0.0277  0.5099 -2.4253
  703MOL0     H96963   7.293   3.358   3.374  1.5117 -0.8578  1.0380
  703MOL0     H96964   7.521   3.427   3.285 -1.3058  1.5757 -0.4599
  703MOL0     H96965   7.560   3.430   3.461 -0.3812 -0.5628  0.2167
  703MOL0     H96966   7.589   3.665   3.267  0.3525 -1.3305 -0.4723
  703MOL0     H96967   7.632   3.672   3.441  2.0955  1.7047 -0.9565
  703MOL0     H96968   7.774   3.512   3.224 -1.8634 -1.8414  1.2031
  703MOL0     H96969   7.815   3.653   3.312 -0.3287  0.1419 -0.4176
  703MOL0     H96970   7.814   3.481   3.530 -0.9468  1.4261 -1.0216
  703MOL0     H96971   7.744   3.371   3.423 -2.3043  2.4058 -0.7185
  703MOL0     H96972   7.887   3.312   3.644 -0.2815  3.2172  0.9411
  703MOL0     H96973   7.968   3.343   3.904 -1.2089 -0.6271  0.2596
  703MOL0     H96974   8.090   3.219   3.918  0.8302  1.2632  0.0541
  703MOL0     H96975   7.942   3.173   3.848  1.1235 -0.3602  2.6434
  703MOL0     H96976   8.321   3.169   4.158  1.7370  2.2048  2.8037
  703MOL0     H96977   8.522   3.122   4.307  0.0056  2.4817 -1.2196
  703MOL0     H96978   8.859   2.923   4.094  0.8380  0.5858 -0.4353
  703MOL0     H96979   8.943   3.069   4.167 -0.8562  0.5515 -0.8588
  703MOL0     H96980   8.844   2.830   4.322  2.0678 -1.4319 -0.9515
  703MOL0     H96981   9.008   2.859   4.264 -0.4566 -1.3486  0.7121
  703MOL0     H96982   8.863   2.979   4.494  0.0988 -1.2053 -0.5829
  703MOL0     H96983   8.956   3.099   4.385  2.2578 -1.0595 -2.6534
  703MOL0     H96984   9.158   2.955   4.428  1.3028  1.2880  1.1708
  703MOL0     H96985   9.069   2.862   4.539  2.5823 -0.8875 -2.1290
  703MOL0     H96986   9.092   3.159   4.566  1.9639 -0.2867 -1.2105
  703MOL0     H96987   9.041   3.044   4.695 -1.5074  0.8781 -0.7894
  703MOL0     H96988   9.271   2.957   4.705 -0.0835 -1.2167 -0.8765
  703MOL0     H96989   9.266   3.130   4.750 -1.9875 -1.5927  0.8718
  703MOL0     H96990   9.334   3.193   4.536 -1.6164 -0.0280  2.5569
  703MOL0     H96991   9.384   3.023   4.498  2.7041 -1.8063  1.9086
  703MOL0     H96992   9.502   3.173   4.727  0.5275 -2.0825  1.3522
  703MOL0     H96993   9.575   3.100   4.578  0.7104 -4.1877 -0.7199
  703MOL0     H96994   8.746   3.039   3.961  0.7760  4.3758 -1.3908
  703MOL0     H96995   8.586   3.122   3.818 -0.7136 -0.2661 -0.4226
  703MOL0     H96996   8.364   3.368   3.534  0.0598  0.4159 -0.6986
  703MOL0     H96997   8.195   3.406   3.372  0.6298  2.0502  1.4846
  703MOL0     H96998   6.064   3.424   3.593  0.0564  0.9110 -0.7519
  703MOL0     H96999   5.829   3.429   3.526  0.6881  1.5763 -0.7613
  703MOL0     H97000   5.619   3.447   2.972 -0.0941 -0.9575 -1.1271
  703MOL0     H97001   5.424   3.527   2.898  0.7780  2.1467 -0.0249
  703MOL0     H97002   5.217   3.661   2.950 -0.4760  0.7468  0.0701
  703MOL0     H97003   5.214   3.531   2.829 -0.6418  0.0761  0.6620
  703MOL0     H97004   5.046   3.663   2.762 -1.7765 -1.1218 -1.1319
  703MOL0     H97005   4.999   3.706   2.931  1.8230 -0.5147  1.7695
  703MOL0     H97006   4.866   3.496   2.953 -0.5799 -1.0504 -0.0543
  703MOL0     H97007   4.848   3.552   2.794 -1.1907 -1.3998  0.0711
  703MOL0     H97008   4.927   3.286   2.837  0.5731 -0.2326 -0.2943
  703MOL0     H97009   5.083   3.355   2.794 -0.0194 -1.0796 -2.1031
  703MOL0     H97010   4.934   3.375   2.420  0.5515  0.0885 -0.3679
  703MOL0     H97011   5.230   3.371   3.250  1.0682 -1.5594  1.3686
  703MOL0     H97012   5.512   3.376   3.450  0.5140  1.1653 -1.4262
  703MOL0     H97013   5.344   3.326   3.427 -0.5116 -1.1229 -0.8126
  703MOL0     H97014   5.486   3.216   3.385  1.9213  0.9583  0.1824
  704MOL0     O97015   2.011   1.707   9.276  0.0002 -0.7920  0.1092
  704MOL0     C97016   1.970   1.756   9.166  0.2674 -0.1833  0.1092
  704MOL0     O97017   2.052   1.786   9.069 -0.4041  0.4999  0.3017
  704MOL0     C97018   2.188   1.774   9.086  0.3973  0.1420  0.2984
  704MOL0     C97019   2.259   1.846   9.177  0.5250  0.2776  0.7799
  704MOL0     C97020   2.397   1.840   9.179  0.1718  0.2182 -0.9562
  704MOL0     C97021   2.472   1.763   9.094 -0.0895 -0.0395 -0.8295
  704MOL0     O97022   2.609   1.756   9.089  0.1294 -0.1266 -0.5783
  704MOL0     C97023   2.676   1.829   9.188 -0.1324  0.0560  0.4815
  704MOL0     C97024   2.824   1.800   9.179 -0.3856  0.6383 -1.0713
  704MOL0     C97025   2.890   1.823   9.316  0.1032 -0.1673 -0.1859
  704MOL0     C97026   3.040   1.808   9.325  0.8887  0.2853  0.3880
  704MOL0     C97027   3.083   1.838   9.464  1.1094 -0.9826  0.1170
  704MOL0     C97028   3.236   1.848   9.503 -0.4862  0.3644 -0.5321
  704MOL0     C97029   3.317   1.735   9.425 -0.7527 -0.8670  0.1377
  704MOL0     C97030   3.465   1.731   9.457  0.1000  0.2815 -0.1314
  704MOL0     N97031   3.531   1.866   9.429  0.1485  1.1652 -0.0525
  704MOL0     C97032   3.598   1.899   9.311  0.1209  0.2256 -0.1595
  704MOL0     C97033   3.651   2.025   9.331 -0.1449  0.4409 -0.8871
  704MOL0     C97034   3.730   2.092   9.223  0.2454  0.3983 -0.1414
  704MOL0     C97035   3.788   2.212   9.292 -0.2325  0.6168 -0.7149
  704MOL0     C97036   3.843   2.303   9.189  1.0289  0.7109 -0.2672
  704MOL0     C97037   3.900   2.426   9.247  0.2674 -0.5734  0.0623
  704MOL0     O97038   3.960   2.493   9.141  0.6108 -0.5358  0.2116
  704MOL0     C97039   4.061   2.583   9.164 -0.2787 -0.9526  0.2127
  704MOL0     C97040   4.135   2.596   9.273 -0.4299 -0.0189  0.0733
  704MOL0     C97041   4.239   2.692   9.292 -0.3226 -0.5959  0.0632
  704MOL0     C97042   4.314   2.693   9.430  0.2539  0.2772 -0.2460
  704MOL0     C97043   4.278   2.775   9.187 -0.7397  0.2070  1.3003
  704MOL0     C97044   4.403   2.857   9.179 -0.3180 -0.6649  0.6292
  704MOL0     O97045   4.405   2.946   9.076 -0.4788  0.2271  0.4209
  704MOL0     C97046   4.515   3.027   9.053  0.3964 -0.6184  0.0270
  704MOL0     C97047   4.528   3.159   9.106  0.6289  0.9021 -0.6800
  704MOL0     C97048   4.639   3.243   9.072 -0.2471  0.9796  0.0891
  704MOL0     C97049   4.739   3.191   8.992  0.1004 -0.0861  0.3621
  704MOL0     O97050   4.858   3.264   8.984  0.5501 -0.4004  0.2934
  704MOL0     C97051   4.962   3.213   8.899  0.1582 -1.0400 -0.6481
  704MOL0     C97052   5.073   3.312   8.907 -1.0500  0.0419  0.2941
  704MOL0     C97053   5.216   3.238   8.901  1.1213  0.9470  0.5490
  704MOL0     C97054   5.325   3.333   8.909  0.6665  0.0802 -0.6597
  704MOL0     C97055   5.463   3.256   8.881  0.3886 -0.7224  0.5034
  704MOL0     C97056   5.586   3.343   8.903  0.1273  0.0993 -0.4306
  704MOL0     C97057   5.628   3.347   9.051  0.0570  0.1288 -0.4413
  704MOL0     C97058   5.747   3.447   9.067  0.4135 -0.1234  0.0609
  704MOL0    Cl97059   5.838   3.436   9.211 -0.1666 -0.0507 -0.1808
  704MOL0     C97060   4.716   3.073   8.922 -0.1128 -0.2131  0.6870
  704MOL0     C97061   4.611   2.990   8.969 -0.2697  0.1346  0.5034
  704MOL0     O97062   4.491   2.840   9.260  0.9507 -0.2544  0.2613
  704MOL0     C97063   4.209   2.758   9.064  0.3372 -0.5851  0.3129
  704MOL0     C97064   4.096   2.674   9.059 -0.6984 -0.4343 -0.5164
  704MOL0     N97065   3.619   2.061   9.461  0.7655 -0.4326  0.2456
  704MOL0     N97066   3.543   1.968   9.516  0.6772 -0.3060  0.7189
  704MOL0     C97067   2.402   1.675   9.007 -0.3905  0.4734  0.0361
  704MOL0     C97068   2.263   1.691   8.989  0.2512  0.3393 -0.1810
  704MOL0     C97069   1.828   1.800   9.152 -0.4685 -0.1233  0.5945
  704MOL0     C97070   1.781   1.868   9.035 -0.0145 -0.4020  1.0343
  704MOL0     C97071   1.644   1.893   9.001  0.2459  0.2871 -0.4396
  704MOL0     C97072   1.552   1.851   9.095 -0.4820 -0.5590 -0.7487
  704MOL0     O97073   1.412   1.860   9.062 -0.2554  0.7994  0.1566
  704MOL0     C97074   1.324   1.799   9.164 -0.2731  0.0854  1.0399
  704MOL0     C97075   1.183   1.793   9.101 -0.1785 -0.4080  0.4502
  704MOL0     C97076   1.116   1.934   9.102  0.1151  0.0241 -0.6779
  704MOL0     C97077   0.963   1.930   9.092  0.6686 -0.1769  0.0613
  704MOL0     C97078   0.903   1.857   9.209  0.8104 -1.0207 -0.7306
  704MOL0     C97079   0.851   1.801   9.301  1.1036  0.3999 -0.5303
  704MOL0     C97080   1.596   1.801   9.217  0.0858  0.8925 -0.0857
  704MOL0     C97081   1.732   1.778   9.246  0.1543 -0.4295 -0.3180
  704MOL0     C97082   1.741   1.703   9.374 -0.0168  0.0450 -0.8007
  704MOL0     H97083   2.197   1.916   9.231 -0.7323 -0.0483 -0.1925
  704MOL0     H97084   2.445   1.909   9.248  2.6342 -1.9734 -0.3291
  704MOL0     H97085   2.636   1.807   9.287 -0.2397  1.3542  0.7510
  704MOL0     H97086   2.655   1.936   9.176 -3.9501 -0.6837 -0.6291
  704MOL0     H97087   2.842   1.695   9.151  0.0419  0.3357  0.2812
  704MOL0     H97088   2.859   1.863   9.097  0.0232  3.5975  1.2171
  704MOL0     H97089   2.854   1.920   9.351 -0.9206 -1.3235  2.2010
  704MOL0     H97090   2.845   1.750   9.383  0.5983 -0.6715 -0.3976
  704MOL0     H97091   3.073   1.707   9.298 -1.5240 -0.9227  1.5890
  704MOL0     H97092   3.091   1.884   9.265  1.1999  0.8381  1.3252
  704MOL0     H97093   3.043   1.755   9.523 -0.4685 -1.7548 -1.9302
  704MOL0     H97094   3.035   1.931   9.494  0.5424 -0.5312 -2.0403
  704MOL0     H97095   3.284   1.943   9.481 -0.4062  0.6952  0.9629
  704MOL0     H97096   3.244   1.840   9.612 -1.0872 -2.1938 -0.6146
  704MOL0     H97097   3.312   1.737   9.316 -0.8823  1.1875  0.1423
  704MOL0     H97098   3.285   1.633   9.450  2.1608 -2.5025 -2.1246
  704MOL0     H97099   3.478   1.710   9.563  2.7552  1.8449 -0.0694
  704MOL0     H97100   3.510   1.647   9.403 -1.9270  0.3036 -2.0155
  704MOL0     H97101   3.608   1.835   9.224 -4.1165 -1.6412  0.4967
  704MOL0     H97102   3.670   2.115   9.134  1.0633  1.0013 -0.5496
  704MOL0     H97103   3.814   2.029   9.193 -0.4313 -0.8973  0.6088
  704MOL0     H97104   3.714   2.276   9.342  1.5744  3.9421 -1.9438
  704MOL0     H97105   3.856   2.190   9.374 -1.9296  1.9683  1.1408
  704MOL0     H97106   3.926   2.255   9.137 -0.5115 -1.0328 -1.2409
  704MOL0     H97107   3.767   2.336   9.118  0.2853 -0.4936 -0.0491
  704MOL0     H97108   3.822   2.487   9.294  0.2990  2.2994 -3.2078
  704MOL0     H97109   3.971   2.396   9.324 -0.7278 -1.1051  0.7983
  704MOL0     H97110   4.133   2.526   9.357 -3.4376  3.0854  2.9109
  704MOL0     H97111   4.258   2.642   9.509 -0.5211 -0.0293 -0.9765
  704MOL0     H97112   4.339   2.797   9.453  1.4813  0.2466 -1.3422
  704MOL0     H97113   4.408   2.638   9.419  0.1118 -0.1499  0.6049
  704MOL0     H97114   4.443   3.194   9.163 -2.8304 -1.8990 -3.6766
  704MOL0     H97115   4.648   3.347   9.102  0.6512  1.9343 -3.0476
  704MOL0     H97116   4.997   3.117   8.940  1.2487 -0.5465 -0.3776
  704MOL0     H97117   4.927   3.196   8.797 -1.3320 -2.6637  0.0849
  704MOL0     H97118   5.066   3.386   8.827  0.6403  0.8453  0.8205
  704MOL0     H97119   5.072   3.374   8.997  3.3362  0.3248  0.3660
  704MOL0     H97120   5.227   3.188   8.804  1.4244  0.2019  0.9637
  704MOL0     H97121   5.206   3.161   8.978 -0.0002  0.2199 -0.2840
  704MOL0     H97122   5.326   3.375   9.009 -2.1059 -1.7908  0.2773
  704MOL0     H97123   5.316   3.413   8.835  2.8749  0.1141 -0.9768
  704MOL0     H97124   5.453   3.159   8.930 -2.1446 -2.0180 -2.2122
  704MOL0     H97125   5.465   3.221   8.777 -1.0345 -0.2136  0.2832
  704MOL0     H97126   5.563   3.445   8.874 -1.4157 -0.3074 -0.6918
  704MOL0     H97127   5.673   3.300   8.851  4.3064  3.4579  2.9630
  704MOL0     H97128   5.656   3.245   9.078  0.7130 -0.3446 -2.7151
  704MOL0     H97129   5.539   3.378   9.107 -2.4656 -1.9130 -3.0269
  704MOL0     H97130   5.704   3.547   9.067  0.8504  0.0670  0.3284
  704MOL0     H97131   5.817   3.442   8.983  0.6539  2.1034  0.0659
  704MOL0     H97132   4.779   3.045   8.838 -0.8256 -2.6143  0.8780
  704MOL0     H97133   4.588   2.900   8.913 -0.6367 -0.4185  1.5087
  704MOL0     H97134   4.226   2.821   8.977 -2.3423  2.1523  1.5905
  704MOL0     H97135   4.044   2.664   8.964  0.3553 -1.6329 -0.9968
  704MOL0     H97136   2.456   1.612   8.937 -1.7269 -1.7603  0.9173
  704MOL0     H97137   2.210   1.626   8.920 -0.9372  0.7295  0.3338
  704MOL0     H97138   1.854   1.905   8.964 -0.2122 -1.5496  0.1997
  704MOL0     H97139   1.627   1.934   8.903 -1.2026 -0.1107 -0.3678
  704MOL0     H97140   1.357   1.696   9.185 -2.4206 -1.1512 -1.2381
  704MOL0     H97141   1.322   1.862   9.253 -4.7443  2.0961 -0.2392
  704MOL0     H97142   1.127   1.708   9.142  0.9476 -2.2400 -1.6373
  704MOL0     H97143   1.203   1.758   9.000 -1.6531 -2.4929  0.8151
  704MOL0     H97144   1.134   1.974   9.202 -1.4494 -2.7493  0.8222
  704MOL0     H97145   1.151   2.003   9.025 -0.6036 -0.3552 -1.3690
  704MOL0     H97146   0.934   1.877   9.001  1.8970 -3.4944  1.4422
  704MOL0     H97147   0.922   2.031   9.090 -1.0182 -0.8378 -1.3219
  704MOL0     H97148   0.794   1.745   9.373  0.1262  0.8069 -0.9710
  704MOL0     H97149   1.529   1.776   9.299  1.0389 -0.8743  0.2122
  704MOL0     H97150   1.728   1.786   9.444 -1.0089  2.1844 -3.3613
  704MOL0     H97151   1.651   1.642   9.383 -0.1779  0.3002 -0.6984
  704MOL0     H97152   1.832   1.644   9.392 -1.6546 -2.3598  0.1128
  705MOL0     O97153  10.803   0.919   7.684  0.5002  0.2650  0.2168
  705MOL0     C97154  10.728   0.817   7.679 -1.2736  0.7379 -0.4033
  705MOL0     O97155  10.780   0.686   7.658 -0.8687 -0.0646 -0.9528
  705MOL0     C97156  10.874   0.678   7.551 -0.5947  0.5745  0.4094
  705MOL0     C97157  10.970   0.576   7.545  0.0122 -0.9600  0.2851
  705MOL0     C97158  11.064   0.558   7.437  0.4919 -0.2595 -0.0049
  705MOL0     C97159  11.072   0.650   7.330  0.1300  0.2704 -0.4615
  705MOL0     O97160  11.166   0.649   7.232  0.1434 -0.2046 -0.1668
  705MOL0     C97161  11.278   0.559   7.258 -0.5018  0.1700  0.2737
  705MOL0     C97162  11.382   0.587   7.153  0.0046 -0.0467 -0.8378
  705MOL0     C97163  11.407   0.734   7.124 -0.1028 -0.0502 -0.2185
  705MOL0     C97164  11.519   0.761   7.019  0.5809  0.3341  0.7900
  705MOL0     C97165  11.655   0.804   7.064  1.0757  0.6638  0.1699
  705MOL0     C97166  11.747   0.809   6.943  0.5177  0.2323 -0.1539
  705MOL0     C97167  11.893   0.801   7.003 -0.2613  0.3339  0.5886
  705MOL0     C97168  12.007   0.821   6.905  0.0463 -0.3650 -0.6500
  705MOL0     N97169  12.133   0.813   6.967 -0.9211  0.6957  0.4610
  705MOL0     C97170  12.214   0.904   7.031  0.0141 -0.1915 -0.1592
  705MOL0     C97171  12.334   0.843   7.047  0.1480 -0.0241 -0.8258
  705MOL0     C97172  12.451   0.917   7.101  0.3024 -0.0353  1.0588
  705MOL0     C97173  12.553   0.838   7.182 -0.3965  0.1658  0.2895
  705MOL0     C97174  12.663   0.920   7.262  0.7552  0.8641  0.0263
  705MOL0     C97175  12.747   0.825   7.357 -1.0470  0.8166  0.1097
  705MOL0     O97176  12.851   0.770   7.284  0.5069  0.5694  0.5445
  705MOL0     C97177  12.976   0.825   7.297 -0.2471  0.2631  0.0292
  705MOL0     C97178  13.075   0.730   7.331  0.3132  0.0108 -0.4036
  705MOL0     C97179  13.209   0.765   7.351  0.1500 -0.5617 -0.4320
  705MOL0     C97180  13.295   0.660   7.408 -0.1106 -0.1473 -0.0268
  705MOL0     C97181  13.258   0.893   7.318 -0.3161 -0.1191 -0.1388
  705MOL0     C97182  13.403   0.932   7.307 -0.2014 -0.5526 -0.6129
  705MOL0     O97183  13.430   1.064   7.340  0.3338  0.0178  0.1245
  705MOL0     C97184  13.562   1.096   7.376 -0.2131 -0.4066  0.6074
  705MOL0     C97185  13.644   1.016   7.455  0.4065  0.1744  0.2867
  705MOL0     C97186  13.772   1.063   7.493 -0.2440  0.1046 -0.2348
  705MOL0     C97187  13.820   1.187   7.441 -0.1471 -0.4391 -0.3331
  705MOL0     O97188  13.944   1.240   7.454  0.8357  0.1967 -0.8100
  705MOL0     C97189  14.008   1.210   7.579 -0.1272 -0.0109 -0.4249
  705MOL0     C97190  14.127   1.306   7.597 -0.6527 -0.6961  0.2298
  705MOL0     C97191  14.189   1.323   7.742 -0.1653  0.5669 -0.4859
  705MOL0     C97192  14.229   1.181   7.795 -0.4853 -0.7636  0.0814
  705MOL0     C97193  14.288   1.191   7.934  0.4587 -1.1430 -0.0838
  705MOL0     C97194  14.182   1.191   8.045  0.9852  0.2268 -0.5901
  705MOL0     C97195  14.247   1.146   8.174 -0.5616  0.2585  0.1668
  705MOL0     C97196  14.161   1.100   8.289  0.8436  0.0732  0.9506
  705MOL0    Cl97197  14.056   1.225   8.347  0.6338  0.5652 -0.3316
  705MOL0     C97198  13.732   1.266   7.366 -0.3098 -0.5971 -0.2259
  705MOL0     C97199  13.603   1.226   7.333  0.6946  0.1627 -0.2035
  705MOL0     O97200  13.481   0.846   7.271  0.1738 -0.0809 -0.4520
  705MOL0     C97201  13.157   0.990   7.298 -0.1427  0.7826  0.4222
  705MOL0     C97202  13.022   0.958   7.284 -0.6821  0.4724 -0.4580
  705MOL0     N97203  12.322   0.711   7.001  0.3435 -0.3871 -0.0213
  705MOL0     N97204  12.201   0.698   6.953 -0.0376  0.0812 -0.3429
  705MOL0     C97205  10.972   0.751   7.330  0.3728  0.1106  0.2229
  705MOL0     C97206  10.880   0.757   7.434  0.6431  0.2857 -0.3796
  705MOL0     C97207  10.584   0.826   7.720 -0.1749 -0.1158 -0.6883
  705MOL0     C97208  10.529   0.715   7.794 -0.1999 -0.3051  0.8348
  705MOL0     C97209  10.398   0.716   7.842  0.6841  0.7999 -0.0950
  705MOL0     C97210  10.309   0.816   7.801 -0.4620 -0.7626  0.4650
  705MOL0     O97211  10.173   0.817   7.806  0.4968  0.3167  0.2609
  705MOL0     C97212  10.110   0.728   7.894  0.0355 -0.0820 -0.1283
  705MOL0     C97213   9.961   0.753   7.865 -0.8737  0.9380  0.1664
  705MOL0     C97214   9.878   0.719   7.990  0.0019  0.1017 -0.7967
  705MOL0     C97215   9.730   0.745   7.968 -0.1991 -0.0731 -0.4425
  705MOL0     C97216   9.686   0.852   8.058 -0.6182 -0.4219  0.0918
  705MOL0     C97217   9.657   0.936   8.141  1.2510  0.1274 -0.4027
  705MOL0     C97218  10.362   0.918   7.712  0.1591  0.3552  0.6075
  705MOL0     C97219  10.495   0.924   7.671 -0.5216  0.0678  0.5442
  705MOL0     C97220  10.542   1.034   7.574 -0.5598 -0.0081 -0.3561
  705MOL0     H97221  10.958   0.510   7.630  0.5322 -0.1984  0.9701
  705MOL0     H97222  11.140   0.485   7.463 -1.3371 -2.0213  0.6176
  705MOL0     H97223  11.247   0.454   7.261 -2.8803  0.8345  3.0435
  705MOL0     H97224  11.316   0.577   7.358  1.4370 -0.4718 -0.3010
  705MOL0     H97225  11.480   0.553   7.188  0.1926  1.9267  0.7786
  705MOL0     H97226  11.356   0.527   7.065  3.3352 -2.3636 -0.4238
  705MOL0     H97227  11.319   0.775   7.075  1.9813  2.8688 -1.8577
  705MOL0     H97228  11.421   0.796   7.214  2.0891 -0.2822 -0.3474
  705MOL0     H97229  11.521   0.671   6.958  0.1431 -0.8131  2.4009
  705MOL0     H97230  11.482   0.839   6.952  0.9171  1.0988  1.4679
  705MOL0     H97231  11.696   0.741   7.143  1.7970  1.1133  0.1682
  705MOL0     H97232  11.643   0.903   7.109 -1.9708  0.6045 -0.3110
  705MOL0     H97233  11.731   0.723   6.877  0.9211  0.0661 -0.0369
  705MOL0     H97234  11.714   0.893   6.882 -0.3380  0.7401  0.9754
  705MOL0     H97235  11.906   0.698   7.039 -1.5222 -0.2398 -0.5274
  705MOL0     H97236  11.909   0.872   7.085  2.9542  2.4226 -1.6104
  705MOL0     H97237  12.005   0.755   6.818  2.3603  2.1984 -2.8585
  705MOL0     H97238  12.009   0.925   6.871 -1.3508 -0.2000 -0.3262
  705MOL0     H97239  12.196   1.005   7.068  1.2166  0.2205 -0.6553
  705MOL0     H97240  12.424   1.002   7.163 -0.7264 -1.4753  2.6586
  705MOL0     H97241  12.496   0.956   7.009  3.1813 -2.0211  1.4725
  705MOL0     H97242  12.506   0.779   7.261  2.1091  0.1028  1.8535
  705MOL0     H97243  12.614   0.775   7.116 -1.5214 -1.8419  1.1216
  705MOL0     H97244  12.725   0.973   7.189  2.5597 -0.3033  0.6324
  705MOL0     H97245  12.606   0.989   7.324  0.5419 -0.8826  1.8907
  705MOL0     H97246  12.792   0.879   7.441  0.2669 -0.4555  0.2643
  705MOL0     H97247  12.685   0.740   7.386  0.0531 -1.1919 -2.8748
  705MOL0     H97248  13.051   0.629   7.361 -1.4869  0.9623  1.5594
  705MOL0     H97249  13.232   0.584   7.455 -1.0761  1.6333  1.6672
  705MOL0     H97250  13.359   0.688   7.492 -2.8853 -2.3941  3.0769
  705MOL0     H97251  13.357   0.614   7.330 -0.9332 -3.3740  1.0735
  705MOL0     H97252  13.597   0.922   7.478  0.4940  0.2772  0.9203
  705MOL0     H97253  13.847   1.010   7.552  2.4322  2.1694 -1.5839
  705MOL0     H97254  13.930   1.214   7.655 -0.5619 -0.4309 -0.8394
  705MOL0     H97255  14.045   1.107   7.573 -2.6589 -1.0225  0.3488
  705MOL0     H97256  14.206   1.273   7.528  0.8166 -0.7125  1.8688
  705MOL0     H97257  14.094   1.402   7.556  2.3867 -0.8516 -3.1586
  705MOL0     H97258  14.112   1.367   7.807 -1.7560  2.0941 -3.2172
  705MOL0     H97259  14.277   1.387   7.748 -0.5880  1.0666  0.5877
  705MOL0     H97260  14.303   1.141   7.726  0.5918 -0.3028  0.9325
  705MOL0     H97261  14.147   1.109   7.797 -0.2636 -1.0149  0.1735
  705MOL0     H97262  14.353   1.105   7.954  1.3567 -0.2771  0.8451
  705MOL0     H97263  14.358   1.275   7.946 -0.7870 -0.3641  2.3305
  705MOL0     H97264  14.107   1.116   8.018 -0.3396  1.2002  0.2384
  705MOL0     H97265  14.124   1.282   8.065  1.6386  0.4179  0.5521
  705MOL0     H97266  14.294   1.237   8.211  0.0757 -0.8409  2.2261
  705MOL0     H97267  14.326   1.074   8.152 -1.6024 -0.6393 -0.8136
  705MOL0     H97268  14.210   1.056   8.377  0.9897 -0.8039  0.4489
  705MOL0     H97269  14.100   1.018   8.248  0.5123  0.8965 -0.2691
  705MOL0     H97270  13.765   1.354   7.312  0.7619 -0.0830  1.2106
  705MOL0     H97271  13.534   1.292   7.282 -0.8740  0.6568  2.3815
  705MOL0     H97272  13.190   1.093   7.285 -0.2030  1.0630  2.1481
  705MOL0     H97273  12.950   1.037   7.263 -1.3948 -0.5321 -1.8976
  705MOL0     H97274  10.957   0.815   7.243  1.1886 -0.2035 -0.1664
  705MOL0     H97275  10.799   0.827   7.417  0.1281 -0.3334 -0.5228
  705MOL0     H97276  10.591   0.629   7.820  1.4698  0.3637 -0.7487
  705MOL0     H97277  10.369   0.634   7.907  0.7702  0.3680 -0.5983
  705MOL0     H97278  10.129   0.620   7.885 -0.3400 -0.1846  0.2762
  705MOL0     H97279  10.129   0.754   7.998 -0.9715 -0.0610  0.0649
  705MOL0     H97280   9.929   0.698   7.777 -1.3870  0.5583  0.5870
  705MOL0     H97281   9.942   0.857   7.836 -1.2535  0.5972 -0.8188
  705MOL0     H97282   9.885   0.615   8.023 -2.3432  0.2911  0.4989
  705MOL0     H97283   9.913   0.784   8.070 -2.4419  0.3268  0.1882
  705MOL0     H97284   9.665   0.659   7.985 -0.3449  0.5906  3.1743
  705MOL0     H97285   9.711   0.771   7.863 -2.2252  0.8732  0.1003
  705MOL0     H97286   9.633   1.015   8.209 -1.1367 -0.6241 -0.3001
  705MOL0     H97287  10.285   0.982   7.671 -1.3147 -2.4451 -1.3825
  705MOL0     H97288  10.647   1.063   7.583  0.1034 -0.8104 -4.1258
  705MOL0     H97289  10.525   1.007   7.470 -0.0185  1.0044 -0.7179
  705MOL0     H97290  10.492   1.128   7.597 -0.8913 -0.5250  1.1959
  706MOL0     O97291   5.920   3.957   0.205  0.9189  0.2126 -0.3348
  706MOL0     C97292   5.819   3.887   0.203 -0.4353  0.8748 -0.2442
  706MOL0     O97293   5.768   3.833   0.093  0.4552  0.4369 -0.1522
  706MOL0     C97294   5.835   3.840  -0.027  0.4887 -0.4072  0.5441
  706MOL0     C97295   5.765   3.841  -0.149 -0.6939  0.1615 -0.6668
  706MOL0     C97296   5.832   3.811  -0.273 -0.1945 -0.6419 -0.4773
  706MOL0     C97297   5.970   3.784  -0.274  0.5440 -0.6146  0.1850
  706MOL0     O97298   6.023   3.769  -0.395 -1.0169  0.8402 -0.0183
  706MOL0     C97299   6.120   3.658  -0.411  0.1538 -0.1657 -0.0985
  706MOL0     C97300   6.044   3.531  -0.374  0.1290  0.3759  0.5553
  706MOL0     C97301   6.104   3.400  -0.448  0.0662 -0.1267  0.3189
  706MOL0     C97302   6.073   3.265  -0.384 -0.3356 -0.1425 -0.1342
  706MOL0     C97303   6.156   3.158  -0.452  0.1046 -0.0619  1.0655
  706MOL0     C97304   6.138   3.011  -0.418  0.1316  0.1409  0.0187
  706MOL0     C97305   6.221   2.930  -0.520  0.3090  0.5949  0.7093
  706MOL0     C97306   6.215   2.775  -0.486 -0.7485  0.5058 -0.1904
  706MOL0     N97307   6.274   2.693  -0.589 -0.5779 -0.4020  0.3799
  706MOL0     C97308   6.210   2.599  -0.661 -0.2328 -0.2482  0.2123
  706MOL0     C97309   6.304   2.525  -0.731 -0.0799 -0.0314  0.6199
  706MOL0     C97310   6.262   2.413  -0.829 -0.5801 -0.0979  0.6679
  706MOL0     C97311   6.366   2.413  -0.943  0.4513 -0.2344 -0.6815
  706MOL0     C97312   6.294   2.327  -1.058 -0.7246 -0.8391 -0.1391
  706MOL0     C97313   6.301   2.176  -1.026  0.7410 -0.2914 -0.0475
  706MOL0     O97314   6.196   2.115  -1.102 -0.3398 -0.1809 -0.7699
  706MOL0     C97315   6.179   1.977  -1.084 -0.2493  0.1403 -0.5313
  706MOL0     C97316   6.067   1.915  -1.142 -0.3229 -0.2257 -0.3008
  706MOL0     C97317   6.039   1.780  -1.128  0.0031 -0.1838 -0.0196
  706MOL0     C97318   5.906   1.734  -1.192 -0.5890  0.2850 -0.5267
  706MOL0     C97319   6.136   1.698  -1.067 -0.0460  0.8868 -1.2587
  706MOL0     C97320   6.122   1.553  -1.055  0.1463  0.0627 -0.4294
  706MOL0     O97321   6.236   1.478  -1.018  0.6083  0.4164 -0.6269
  706MOL0     C97322   6.217   1.342  -0.997  0.1538 -0.2832  0.1360
  706MOL0     C97323   6.270   1.246  -1.081 -0.1683  0.0385  0.1261
  706MOL0     C97324   6.258   1.109  -1.057  0.2372  0.9935 -0.0297
  706MOL0     C97325   6.168   1.065  -0.955 -0.3327  0.6429 -0.0957
  706MOL0     O97326   6.151   0.932  -0.927  0.1046 -0.1211  0.0002
  706MOL0     C97327   6.030   0.891  -0.869 -0.2570 -0.7731 -0.1560
  706MOL0     C97328   6.041   0.751  -0.822  0.2520 -0.2970  0.8300
  706MOL0     C97329   6.024   0.648  -0.928  0.4306 -0.6750 -0.0747
  706MOL0     C97330   6.040   0.512  -0.853 -0.0981 -0.6719 -0.0049
  706MOL0     C97331   6.077   0.400  -0.957  0.5067  0.2020  0.2337
  706MOL0     C97332   6.047   0.260  -0.906 -0.7075 -0.7883  0.4835
  706MOL0     C97333   5.907   0.217  -0.955  0.2374 -0.6406  0.4742
  706MOL0     C97334   5.863   0.077  -0.912  0.0185 -0.8084 -0.0648
  706MOL0    Cl97335   5.703   0.033  -0.973  0.2686  0.2156  0.6554
  706MOL0     C97336   6.130   1.166  -0.863  0.1052 -0.1075  0.5844
  706MOL0     C97337   6.150   1.301  -0.882  0.7439 -0.0690  0.1281
  706MOL0     O97338   6.019   1.505  -1.080  0.8140 -0.3312  0.3017
  706MOL0     C97339   6.252   1.755  -1.013  0.1625 -0.1818 -0.0257
  706MOL0     C97340   6.271   1.891  -1.017  0.4071  0.1942  1.0882
  706MOL0     N97341   6.425   2.562  -0.675 -0.3152 -0.2214  0.3624
  706MOL0     N97342   6.412   2.661  -0.595 -0.0270 -0.4992 -0.0834
  706MOL0     C97343   6.037   3.796  -0.157 -0.1665  0.6837  0.2428
  706MOL0     C97344   5.976   3.819  -0.034  0.0639 -0.4516 -0.8361
  706MOL0     C97345   5.755   3.867   0.332 -0.0032 -1.2620  0.3325
  706MOL0     C97346   5.684   3.750   0.352 -0.4858  0.1899  0.0229
  706MOL0     C97347   5.610   3.717   0.470 -0.7184 -0.0988  0.2421
  706MOL0     C97348   5.616   3.802   0.579  0.5449 -0.5878  0.4918
  706MOL0     O97349   5.564   3.778   0.702  0.1335  0.0320 -0.5403
  706MOL0     C97350   5.503   3.650   0.729 -0.5996 -0.0577  0.8584
  706MOL0     C97351   5.511   3.637   0.886  0.0154 -0.2643 -0.2137
  706MOL0     C97352   5.653   3.600   0.937  0.2958  0.1606  0.3506
  706MOL0     C97353   5.675   3.599   1.089  0.4610  0.1036  0.1492
  706MOL0     C97354   5.822   3.607   1.117 -0.7825 -0.3320  0.4211
  706MOL0     C97355   5.936   3.629   1.153  0.0347  0.2511  0.1568
  706MOL0     C97356   5.681   3.930   0.557  0.2613  0.2220  0.1537
  706MOL0     C97357   5.742   3.963   0.437  0.2123  0.1571 -0.2143
  706MOL0     C97358   5.809   4.099   0.435 -0.5998 -0.6781  1.1611
  706MOL0     H97359   5.659   3.860  -0.159 -1.2735 -2.3825 -0.0191
  706MOL0     H97360   5.791   3.797  -0.373 -0.3145  0.5108 -0.6015
  706MOL0     H97361   6.198   3.682  -0.338  1.0899 -1.1796 -0.7233
  706MOL0     H97362   6.170   3.654  -0.508  1.9843 -0.1468  0.8053
  706MOL0     H97363   6.038   3.519  -0.266 -1.2136 -4.7773  0.2073
  706MOL0     H97364   5.941   3.544  -0.407 -1.2580  0.7016  4.5339
  706MOL0     H97365   6.064   3.404  -0.549 -1.1725  0.1812  0.8022
  706MOL0     H97366   6.213   3.412  -0.447 -0.0654  1.2867 -0.3533
  706MOL0     H97367   6.112   3.269  -0.282 -0.6258  0.2481 -0.0359
  706MOL0     H97368   5.965   3.250  -0.393 -0.8417  2.1778  1.2983
  706MOL0     H97369   6.262   3.186  -0.446  0.2710 -0.4721  0.2430
  706MOL0     H97370   6.121   3.176  -0.554 -2.2898  1.1175  2.0313
  706MOL0     H97371   6.166   2.999  -0.313 -1.8177 -1.7091  0.4120
  706MOL0     H97372   6.032   2.982  -0.423 -0.1129  1.2845 -2.7945
  706MOL0     H97373   6.326   2.960  -0.520  1.1259 -2.0297  0.6028
  706MOL0     H97374   6.183   2.955  -0.620 -1.6368 -0.4704  1.1314
  706MOL0     H97375   6.278   2.752  -0.399 -1.2724 -0.7726 -0.1166
  706MOL0     H97376   6.112   2.741  -0.473 -0.6146 -1.2589 -2.9041
  706MOL0     H97377   6.105   2.579  -0.677 -0.5484  0.0207  1.7825
  706MOL0     H97378   6.160   2.415  -0.868  0.4121  1.3745 -2.0875
  706MOL0     H97379   6.271   2.320  -0.771  1.9480  1.6636  3.3897
  706MOL0     H97380   6.391   2.509  -0.989  0.1658 -0.6713 -1.7809
  706MOL0     H97381   6.459   2.363  -0.915 -1.0431 -3.4911 -1.0313
  706MOL0     H97382   6.189   2.354  -1.074  0.1974  3.0663 -0.7509
  706MOL0     H97383   6.343   2.348  -1.154 -1.4067 -0.0714 -0.3285
  706MOL0     H97384   6.400   2.142  -1.058  0.7630  0.3792 -0.7351
  706MOL0     H97385   6.286   2.154  -0.920  0.0601 -1.7685 -0.4278
  706MOL0     H97386   6.005   1.971  -1.212 -2.0686  0.8613  1.9897
  706MOL0     H97387   5.926   1.670  -1.278  0.1159 -1.8677  1.1394
  706MOL0     H97388   5.849   1.823  -1.219 -1.6590  0.2667  1.4383
  706MOL0     H97389   5.848   1.675  -1.121 -0.6166 -0.6798 -1.3462
  706MOL0     H97390   6.328   1.271  -1.169  0.3280 -1.7766 -0.1060
  706MOL0     H97391   6.294   1.046  -1.137  0.1376  2.4997 -1.3182
  706MOL0     H97392   6.003   0.945  -0.777  0.8250  0.0734 -0.3246
  706MOL0     H97393   5.945   0.909  -0.936 -1.9400 -2.2014  1.4443
  706MOL0     H97394   6.141   0.745  -0.778  0.3070 -1.1737  0.6069
  706MOL0     H97395   5.968   0.734  -0.743  1.0174  2.0364  2.1354
  706MOL0     H97396   6.105   0.660  -1.001  1.4625  0.4797  1.2055
  706MOL0     H97397   5.926   0.658  -0.975 -0.2511 -0.1522  1.4008
  706MOL0     H97398   5.942   0.497  -0.808  0.0562  2.6802  1.8012
  706MOL0     H97399   6.120   0.508  -0.779  0.2735  0.3453 -0.3291
  706MOL0     H97400   6.035   0.428  -1.055  1.8304 -0.2947 -0.5013
  706MOL0     H97401   6.185   0.391  -0.971  0.6636 -1.0241  2.0303
  706MOL0     H97402   6.062   0.264  -0.798 -2.7616 -1.9555  0.8470
  706MOL0     H97403   6.122   0.197  -0.954 -0.9079 -0.3822 -0.3927
  706MOL0     H97404   5.903   0.221  -1.064 -2.3960  1.3662  0.5353
  706MOL0     H97405   5.831   0.284  -0.914  0.2201  0.9893 -2.0132
  706MOL0     H97406   5.846   0.082  -0.804 -3.0413  0.3485 -0.4997
  706MOL0     H97407   5.944   0.008  -0.937  2.0819  1.0338  1.1739
  706MOL0     H97408   6.058   1.133  -0.789  1.2947 -1.3906  1.2249
  706MOL0     H97409   6.094   1.368  -0.818  2.0755  1.5959 -0.3490
  706MOL0     H97410   6.325   1.688  -0.969  0.6728 -1.2137 -2.2765
  706MOL0     H97411   6.363   1.924  -0.969  1.6500  1.4995 -1.9544
  706MOL0     H97412   6.145   3.784  -0.153  0.0160  0.7631 -2.4368
  706MOL0     H97413   6.046   3.814   0.050 -1.0721 -3.4718  0.0464
  706MOL0     H97414   5.669   3.675   0.275  2.6469 -2.2053  1.5366
  706MOL0     H97415   5.550   3.627   0.469 -2.4048  0.7394  4.5421
  706MOL0     H97416   5.397   3.659   0.706 -0.2915  1.4704 -0.1745
  706MOL0     H97417   5.543   3.563   0.676 -0.1740  1.1995 -0.9634
  706MOL0     H97418   5.444   3.554   0.912  1.2091 -0.9836  0.6372
  706MOL0     H97419   5.473   3.729   0.932  1.7184  0.4232 -0.1166
  706MOL0     H97420   5.683   3.501   0.901  0.1188 -0.3538  1.5528
  706MOL0     H97421   5.719   3.678   0.898  0.6876 -0.7950 -0.9669
  706MOL0     H97422   5.616   3.519   1.135 -2.5723  1.2449 -1.4408
  706MOL0     H97423   5.634   3.692   1.130 -0.7659 -0.3163 -0.0930
  706MOL0     H97424   6.036   3.651   1.185  1.8541 -0.3138 -4.3865
  706MOL0     H97425   5.684   3.993   0.645  0.8275 -1.1589  1.1430
  706MOL0     H97426   5.764   4.164   0.511 -1.9521  0.8497 -0.8303
  706MOL0     H97427   5.917   4.100   0.454 -0.6682 -1.8190  1.6967
  706MOL0     H97428   5.784   4.152   0.342 -0.8623 -0.1298  1.5403
  707MOL0     O97429   1.612   8.404   4.880 -0.1062  0.0564 -0.5329
  707MOL0     C97430   1.692   8.329   4.942 -0.3248 -0.7908  0.1625
  707MOL0     O97431   1.826   8.302   4.918  0.1695 -0.4635  0.2365
  707MOL0     C97432   1.903   8.350   4.809  0.4131  0.5967  0.4238
  707MOL0     C97433   2.046   8.385   4.819  0.7087 -0.9343  0.3730
  707MOL0     C97434   2.118   8.451   4.715 -0.2692  0.2860 -0.1743
  707MOL0     C97435   2.047   8.476   4.597  0.6396  0.8300  0.4579
  707MOL0     O97436   2.103   8.538   4.489 -0.6596  0.3962  0.7890
  707MOL0     C97437   2.089   8.676   4.497  0.8018 -0.9008  0.1823
  707MOL0     C97438   2.171   8.733   4.382  0.9790 -0.1660  0.6226
  707MOL0     C97439   2.147   8.889   4.378 -0.0688 -0.1273  0.1149
  707MOL0     C97440   2.010   8.915   4.312  0.5780 -0.2120 -0.1545
  707MOL0     C97441   1.954   9.064   4.308  0.6106  0.2676 -0.9856
  707MOL0     C97442   1.948   9.118   4.451 -0.0989 -0.1338  0.7853
  707MOL0     C97443   1.892   9.267   4.432 -0.4469  0.7249  0.0660
  707MOL0     C97444   1.863   9.342   4.564  0.6224  0.2447  0.4942
  707MOL0     N97445   1.983   9.391   4.635  0.3992  0.0141 -0.0990
  707MOL0     C97446   2.052   9.512   4.627 -0.5387 -0.0922  1.2128
  707MOL0     C97447   2.156   9.491   4.705 -0.1412  0.6126  0.1755
  707MOL0     C97448   2.263   9.602   4.729 -0.6181  0.0202  0.2701
  707MOL0     C97449   2.384   9.577   4.635  0.2538 -0.1165 -1.0481
  707MOL0     C97450   2.504   9.646   4.697  1.0586 -0.4970  0.8898
  707MOL0     C97451   2.634   9.602   4.642  0.4226  0.8357  0.1207
  707MOL0     O97452   2.642   9.452   4.659 -0.0889 -0.8287 -0.0849
  707MOL0     C97453   2.757   9.393   4.616  0.5701 -0.5705  0.4882
  707MOL0     C97454   2.772   9.255   4.616 -0.1898  0.1194 -0.9515
  707MOL0     C97455   2.897   9.199   4.582  0.5700  0.6149 -0.5959
  707MOL0     C97456   2.890   9.049   4.565  0.3179 -0.9088  0.4643
  707MOL0     C97457   3.005   9.272   4.544 -0.6693  0.2983  1.2445
  707MOL0     C97458   3.136   9.221   4.510 -0.3473  0.6998 -0.2314
  707MOL0     O97459   3.232   9.303   4.469  0.6775 -0.3298 -0.0769
  707MOL0     C97460   3.353   9.250   4.453  0.5064  0.0231 -0.0662
  707MOL0     C97461   3.442   9.236   4.563 -0.1167  0.4893  0.3606
  707MOL0     C97462   3.577   9.198   4.540 -0.3595  0.3784  0.3983
  707MOL0     C97463   3.630   9.185   4.412 -0.7876 -0.4721  0.2007
  707MOL0     O97464   3.761   9.159   4.371  0.5150 -0.5544  0.3149
  707MOL0     C97465   3.868   9.158   4.455  0.2987 -0.7197 -1.3202
  707MOL0     C97466   3.888   9.297   4.519 -0.4308  0.5380 -0.0740
  707MOL0     C97467   4.035   9.344   4.521 -0.2380 -0.3849 -0.7515
  707MOL0     C97468   4.080   9.394   4.379 -0.4412 -0.7147 -0.1163
  707MOL0     C97469   4.226   9.457   4.373  0.1153  0.4809  0.1860
  707MOL0     C97470   4.335   9.349   4.406  0.2165  0.5580 -1.2689
  707MOL0     C97471   4.464   9.405   4.347  0.5613 -0.2553 -0.1124
  707MOL0     C97472   4.573   9.293   4.367 -0.5827  0.4175  0.6573
  707MOL0    Cl97473   4.626   9.281   4.533 -0.1921 -0.3133 -0.1234
  707MOL0     C97474   3.538   9.190   4.302 -0.0350  0.0041  0.3101
  707MOL0     C97475   3.405   9.228   4.320 -0.3471  0.1261  1.0461
  707MOL0     O97476   3.156   9.104   4.533  0.6216 -0.3476  0.4026
  707MOL0     C97477   2.995   9.411   4.540 -0.1493  0.3224 -0.4648
  707MOL0     C97478   2.868   9.471   4.576  0.5039  1.0268  0.1867
  707MOL0     N97479   2.146   9.364   4.766 -0.5415  0.2790  0.5744
  707MOL0     N97480   2.047   9.305   4.719  0.9823  0.5015  0.2059
  707MOL0     C97481   1.913   8.432   4.580  0.1867 -0.7332  0.0320
  707MOL0     C97482   1.845   8.372   4.685  0.5937 -0.2586 -0.9485
  707MOL0     C97483   1.634   8.263   5.066 -0.0770 -0.2823 -0.3056
  707MOL0     C97484   1.732   8.208   5.155  0.3990 -0.3712  0.5524
  707MOL0     C97485   1.695   8.149   5.277  0.1396  0.0865  0.6688
  707MOL0     C97486   1.562   8.150   5.312  0.6366 -0.3076  0.8739
  707MOL0     O97487   1.509   8.130   5.440  0.3204  0.4276 -0.3084
  707MOL0     C97488   1.546   8.004   5.497  0.4440  0.8097  0.3952
  707MOL0     C97489   1.435   7.904   5.455 -0.3137  0.0494  0.1742
  707MOL0     C97490   1.289   7.929   5.513  0.2430 -0.4814  0.0510
  707MOL0     C97491   1.295   7.968   5.660  0.1565 -0.5858 -0.5301
  707MOL0     C97492   1.338   7.862   5.748 -0.3958  0.1399  0.0271
  707MOL0     C97493   1.364   7.778   5.840  0.8423  0.7162 -0.5075
  707MOL0     C97494   1.468   8.200   5.222 -0.1641  0.2779 -0.2364
  707MOL0     C97495   1.493   8.251   5.095 -1.2579 -0.6683  0.8783
  707MOL0     C97496   1.383   8.305   5.007  0.6106 -0.8987 -0.0645
  707MOL0     H97497   2.102   8.367   4.910  1.7326  1.6511  0.3341
  707MOL0     H97498   2.221   8.486   4.718 -1.3314  3.7798 -0.0619
  707MOL0     H97499   2.127   8.715   4.592  0.1610 -3.5156  1.5950
  707MOL0     H97500   1.982   8.698   4.490  1.4834  2.4581 -2.3854
  707MOL0     H97501   2.278   8.718   4.396  0.3875 -4.6231  1.8693
  707MOL0     H97502   2.138   8.686   4.289  2.3207  1.7171 -0.9020
  707MOL0     H97503   2.151   8.933   4.478 -1.8042  0.4141 -0.0060
  707MOL0     H97504   2.222   8.940   4.316 -0.9654  1.3526  0.2009
  707MOL0     H97505   2.018   8.883   4.207 -3.0288 -0.7733 -0.4012
  707MOL0     H97506   1.938   8.850   4.363  0.5062 -0.1981 -0.2362
  707MOL0     H97507   1.861   9.063   4.250  0.9430  0.7897 -1.5367
  707MOL0     H97508   2.029   9.122   4.254  0.9586  3.3478  2.4061
  707MOL0     H97509   1.897   9.044   4.513 -1.7267 -0.1476 -0.4914
  707MOL0     H97510   2.047   9.127   4.498 -0.0508 -1.4826  0.9977
  707MOL0     H97511   1.799   9.279   4.376 -0.8445  0.0730  0.5628
  707MOL0     H97512   1.976   9.307   4.375  2.7982 -2.1255  2.3913
  707MOL0     H97513   1.810   9.433   4.533  0.2137 -0.0866  0.2153
  707MOL0     H97514   1.798   9.279   4.626 -0.5739  1.7032  0.7832
  707MOL0     H97515   2.011   9.598   4.576 -1.9130 -1.1681  0.4422
  707MOL0     H97516   2.288   9.599   4.836  1.6559 -2.6583 -0.2351
  707MOL0     H97517   2.234   9.707   4.713  1.4594  0.8500  1.4309
  707MOL0     H97518   2.408   9.471   4.634 -0.6435 -0.3269 -1.7532
  707MOL0     H97519   2.362   9.603   4.531 -0.6533  3.7114 -0.0476
  707MOL0     H97520   2.492   9.754   4.686 -0.1699 -0.7946 -1.6008
  707MOL0     H97521   2.495   9.623   4.803 -1.4975  0.5217  0.9615
  707MOL0     H97522   2.645   9.622   4.535 -0.5902 -0.4804 -0.2557
  707MOL0     H97523   2.711   9.657   4.698  2.1297 -0.2801 -1.0244
  707MOL0     H97524   2.691   9.186   4.640  3.1313 -2.8601  3.4018
  707MOL0     H97525   2.942   9.001   4.648  0.3723 -1.5988  0.0361
  707MOL0     H97526   2.938   9.011   4.474 -1.6745  0.1407 -1.1117
  707MOL0     H97527   2.786   9.019   4.550  0.0199  0.5835 -0.7589
  707MOL0     H97528   3.400   9.246   4.662 -1.7823  0.7682 -0.3364
  707MOL0     H97529   3.648   9.189   4.622  1.1598  2.3109 -0.6025
  707MOL0     H97530   3.852   9.083   4.533 -1.1190  0.0998 -0.7900
  707MOL0     H97531   3.965   9.123   4.417  0.4657 -3.9835  1.6365
  707MOL0     H97532   3.831   9.372   4.464 -0.7287  0.6319  0.3623
  707MOL0     H97533   3.860   9.288   4.624  1.9187  0.1328  0.5614
  707MOL0     H97534   4.100   9.264   4.555 -0.5106 -0.0278  0.6442
  707MOL0     H97535   4.044   9.432   4.585  1.0523  1.9237 -3.8309
  707MOL0     H97536   4.012   9.469   4.337 -0.3215 -1.8681 -2.5548
  707MOL0     H97537   4.071   9.313   4.307 -1.0571 -0.3268 -0.4900
  707MOL0     H97538   4.226   9.497   4.271  0.4377 -1.1834 -0.5021
  707MOL0     H97539   4.225   9.539   4.444 -0.6168  1.1007 -0.5190
  707MOL0     H97540   4.311   9.253   4.360  1.3042 -0.1795 -0.3169
  707MOL0     H97541   4.355   9.344   4.513 -1.9128 -1.1759 -0.8888
  707MOL0     H97542   4.495   9.502   4.387  0.8138  1.1800 -3.4953
  707MOL0     H97543   4.449   9.415   4.239 -1.0244 -1.6969 -0.0591
  707MOL0     H97544   4.657   9.326   4.306  0.5377 -1.0113  1.3507
  707MOL0     H97545   4.543   9.195   4.328  2.3135  0.0501 -0.9228
  707MOL0     H97546   3.566   9.164   4.200 -1.0093  1.3977 -0.3293
  707MOL0     H97547   3.337   9.250   4.238  0.3822 -0.6778  0.2111
  707MOL0     H97548   3.077   9.479   4.520  1.5663 -1.3078  0.7132
  707MOL0     H97549   2.877   9.579   4.581 -0.0751  1.1447 -0.9325
  707MOL0     H97550   1.861   8.455   4.487 -1.7449  0.5665  1.3624
  707MOL0     H97551   1.741   8.347   4.667  0.1533 -0.5553  1.6203
  707MOL0     H97552   1.837   8.211   5.130  1.0692 -1.4155  2.9537
  707MOL0     H97553   1.761   8.114   5.356 -1.7096  0.4222  2.4476
  707MOL0     H97554   1.639   7.971   5.451 -0.4788  2.2552 -2.8048
  707MOL0     H97555   1.554   8.012   5.606 -0.1530 -2.6874  0.8032
  707MOL0     H97556   1.457   7.807   5.500  2.3494  1.2028  1.5873
  707MOL0     H97557   1.433   7.880   5.349 -0.8568  0.6534  0.0415
  707MOL0     H97558   1.234   8.005   5.457  3.6961  2.1098 -0.1411
  707MOL0     H97559   1.243   7.830   5.503 -0.3920 -0.2906  0.9754
  707MOL0     H97560   1.195   7.997   5.693  0.2035 -2.4072  1.4557
  707MOL0     H97561   1.364   8.053   5.660  2.0324 -2.0351 -1.4356
  707MOL0     H97562   1.381   7.700   5.911  0.9827  1.5542  0.4014
  707MOL0     H97563   1.365   8.190   5.255 -0.1848  0.1764 -0.3295
  707MOL0     H97564   1.401   8.274   4.903  0.1054 -1.1240 -0.0900
  707MOL0     H97565   1.284   8.270   5.040 -1.0956  0.0808 -3.5650
  707MOL0     H97566   1.376   8.414   5.011  1.8617 -0.7449 -1.3403
  708MOL0     O97567   2.947   0.235   9.666  0.0603 -0.5114 -0.3100
  708MOL0     C97568   2.843   0.213   9.607 -0.2203  0.1756 -0.2955
  708MOL0     O97569   2.831   0.178   9.475 -0.2475  0.1978  0.4491
  708MOL0     C97570   2.951   0.193   9.410 -0.0448 -0.6531 -0.1928
  708MOL0     C97571   2.994   0.089   9.332 -0.3342 -0.2548 -0.2990
  708MOL0     C97572   3.124   0.095   9.276  0.2745 -0.0854  0.7983
  708MOL0     C97573   3.206   0.208   9.282  0.4651  0.3940 -0.2549
  708MOL0     O97574   3.329   0.210   9.233 -0.3972 -0.7499  0.3738
  708MOL0     C97575   3.387   0.113   9.141 -0.8538  0.7931 -0.6457
  708MOL0     C97576   3.531   0.145   9.101  0.8489  0.8690 -0.2279
  708MOL0     C97577   3.621   0.198   9.212 -0.4080  0.0812 -0.8655
  708MOL0     C97578   3.747   0.249   9.156 -1.0805  1.3651  0.7688
  708MOL0     C97579   3.861   0.266   9.249  0.0151  0.1129  0.0809
  708MOL0     C97580   3.983   0.333   9.191 -0.2903  0.0993  0.2586
  708MOL0     C97581   4.085   0.358   9.296  0.0195 -0.4454  0.2022
  708MOL0     C97582   4.211   0.419   9.222  0.2176 -0.0469  0.2266
  708MOL0     N97583   4.305   0.425   9.332  0.9324  0.1463  0.4460
  708MOL0     C97584   4.321   0.543   9.404 -0.0100  0.4329  0.1796
  708MOL0     C97585   4.426   0.513   9.481 -0.3190  0.0808 -0.7633
  708MOL0     C97586   4.468   0.593   9.603  0.5774 -0.1003  0.8049
  708MOL0     C97587   4.563   0.705   9.561  0.1028  0.2165  0.2674
  708MOL0     C97588   4.698   0.674   9.613  0.4951  0.0435 -1.0501
  708MOL0     C97589   4.809   0.740   9.544 -0.9281 -0.6027 -0.7592
  708MOL0     O97590   4.936   0.714   9.605 -0.5896 -0.0676  0.4983
  708MOL0     C97591   5.058   0.759   9.554  0.5017  0.1838 -0.7794
  708MOL0     C97592   5.169   0.751   9.638 -0.3429  0.5376  0.0757
  708MOL0     C97593   5.294   0.803   9.609 -0.4298  0.0140  0.4810
  708MOL0     C97594   5.401   0.805   9.714 -0.0712 -0.1955 -0.8455
  708MOL0     C97595   5.307   0.853   9.481  0.1879 -0.3575  1.0649
  708MOL0     C97596   5.439   0.906   9.423  0.3430 -0.0564  0.4437
  708MOL0     O97597   5.558   0.850   9.471  0.3675 -0.0034 -0.5257
  708MOL0     C97598   5.671   0.918   9.459 -0.3961  0.5276 -0.6656
  708MOL0     C97599   5.748   0.927   9.574 -0.1381  0.4475 -0.4465
  708MOL0     C97600   5.878   0.977   9.551 -0.2710  0.3647 -0.2968
  708MOL0     C97601   5.926   1.003   9.425  0.1022 -0.6844  0.7911
  708MOL0     O97602   6.054   1.040   9.410 -0.3583 -0.5344  0.1643
  708MOL0     C97603   6.044   1.185   9.372  0.6926 -0.1174  0.1806
  708MOL0     C97604   6.188   1.225   9.351  0.3416  0.6822 -0.6517
  708MOL0     C97605   6.215   1.350   9.278  0.0135 -0.2897  0.2517
  708MOL0     C97606   6.165   1.476   9.343 -0.0959 -0.1248 -0.1547
  708MOL0     C97607   6.180   1.588   9.248 -0.5647  0.0753  0.9077
  708MOL0     C97608   6.330   1.639   9.233 -0.6897 -0.2877 -0.3202
  708MOL0     C97609   6.330   1.778   9.160 -0.1436 -0.8437  0.4085
  708MOL0     C97610   6.461   1.817   9.094 -0.6466  0.3297  0.9374
  708MOL0    Cl97611   6.499   1.707   8.946 -0.0302  0.3666 -0.3195
  708MOL0     C97612   5.853   0.978   9.310 -0.2834 -0.4728  0.5444
  708MOL0     C97613   5.723   0.931   9.324  0.3503  0.4548  0.1715
  708MOL0     O97614   5.435   1.012   9.360 -0.5629  0.2956  0.8195
  708MOL0     C97615   5.195   0.868   9.389  0.1685  0.4378  0.0363
  708MOL0     C97616   5.075   0.820   9.428  0.3044  0.2900 -0.1336
  708MOL0     N97617   4.483   0.391   9.443 -0.0355  0.2281 -0.1166
  708MOL0     N97618   4.408   0.338   9.345 -0.1982 -0.3295 -0.2847
  708MOL0     C97619   3.167   0.313   9.362  0.0746 -1.1583  0.1727
  708MOL0     C97620   3.033   0.308   9.418  0.1965  0.0639  0.3129
  708MOL0     C97621   2.717   0.251   9.683 -0.9771 -0.3262 -0.9086
  708MOL0     C97622   2.608   0.163   9.684  0.2068 -0.8269  0.0608
  708MOL0     C97623   2.491   0.184   9.757 -0.2259  0.0635 -0.8155
  708MOL0     C97624   2.482   0.304   9.828  0.7756 -0.3910 -0.7695
  708MOL0     O97625   2.374   0.330   9.910  0.2380  0.5573 -0.3071
  708MOL0     C97626   2.279   0.225   9.952 -0.4173  0.8211  0.0716
  708MOL0     C97627   2.165   0.299  10.026 -0.1948 -0.2465 -0.1358
  708MOL0     C97628   2.076   0.381   9.944 -0.5915 -0.2925  1.1158
  708MOL0     C97629   1.943   0.404  10.001 -0.1322 -0.0071 -0.3418
  708MOL0     C97630   1.844   0.473   9.920 -0.3274 -0.3944  0.2361
  708MOL0     C97631   1.760   0.532   9.853 -0.3680 -0.2644  1.2235
  708MOL0     C97632   2.591   0.402   9.822  0.5821  0.4273  0.5041
  708MOL0     C97633   2.704   0.377   9.754 -0.3166  0.0100 -0.6734
  708MOL0     C97634   2.816   0.480   9.778 -0.1834 -0.4302  0.1877
  708MOL0     H97635   2.940  -0.004   9.320  1.0483 -1.0428 -0.6985
  708MOL0     H97636   3.173   0.019   9.216  1.7423  0.7329  0.9089
  708MOL0     H97637   3.332   0.108   9.047  0.0303  1.3227 -1.2172
  708MOL0     H97638   3.388   0.016   9.191  1.0733  1.3610  0.5404
  708MOL0     H97639   3.574   0.052   9.064 -1.6945  0.1010 -1.5362
  708MOL0     H97640   3.525   0.224   9.025  1.1015  0.0001 -1.1718
  708MOL0     H97641   3.571   0.286   9.254 -0.4392  1.4384 -3.5975
  708MOL0     H97642   3.640   0.115   9.282 -2.7667 -0.7144 -1.0433
  708MOL0     H97643   3.776   0.181   9.075 -1.9812  1.2820  0.5112
  708MOL0     H97644   3.734   0.340   9.097 -0.5870 -0.2361 -2.0310
  708MOL0     H97645   3.890   0.170   9.293 -1.0957  0.9692  2.8837
  708MOL0     H97646   3.826   0.322   9.336 -0.9404 -0.6411  0.2055
  708MOL0     H97647   4.019   0.283   9.101  1.3547  0.2845  0.7953
  708MOL0     H97648   3.946   0.429   9.153  0.4300  0.5281  0.6325
  708MOL0     H97649   4.116   0.268   9.350 -0.4107  0.6059  2.2980
  708MOL0     H97650   4.039   0.433   9.362 -0.4777 -0.1756 -0.4318
  708MOL0     H97651   4.256   0.358   9.143 -1.6356 -0.7079 -0.3672
  708MOL0     H97652   4.185   0.518   9.185  1.4494  1.1942  2.4701
  708MOL0     H97653   4.266   0.635   9.413  2.3033  1.7315  2.5289
  708MOL0     H97654   4.506   0.522   9.677 -1.2269 -2.8642 -0.7232
  708MOL0     H97655   4.377   0.632   9.649 -0.2741 -0.4478 -0.5233
  708MOL0     H97656   4.561   0.701   9.451  2.2667 -2.6581  0.2277
  708MOL0     H97657   4.520   0.797   9.601 -3.6280 -2.0543  1.9488
  708MOL0     H97658   4.715   0.717   9.713  3.2587  0.4844 -1.6062
  708MOL0     H97659   4.733   0.570   9.612  4.4813  1.1978 -0.6780
  708MOL0     H97660   4.816   0.705   9.441 -3.7390 -0.1077 -1.1812
  708MOL0     H97661   4.792   0.848   9.532 -0.1223 -0.5850 -1.9103
  708MOL0     H97662   5.157   0.696   9.731 -2.4035  1.3943  0.3702
  708MOL0     H97663   5.351   0.808   9.811  0.1546  1.8491 -0.7521
  708MOL0     H97664   5.458   0.898   9.706  2.0323 -1.3296  0.1847
  708MOL0     H97665   5.469   0.720   9.715 -0.8754 -0.8625 -0.9897
  708MOL0     H97666   5.716   0.907   9.675  1.6478  0.0249  0.0691
  708MOL0     H97667   5.945   0.992   9.635  1.7949 -0.7827 -1.6682
  708MOL0     H97668   5.987   1.201   9.281 -1.2868  0.4776  1.4590
  708MOL0     H97669   6.001   1.250   9.449 -0.0147 -0.5383  0.1434
  708MOL0     H97670   6.232   1.247   9.449 -1.1542 -1.4326  0.5768
  708MOL0     H97671   6.229   1.134   9.305 -0.3508 -1.4420  2.5439
  708MOL0     H97672   6.160   1.343   9.184  0.4159 -1.1966  0.0685
  708MOL0     H97673   6.321   1.365   9.257  0.1929 -2.4260 -0.5963
  708MOL0     H97674   6.222   1.501   9.433  0.6245  0.3226 -0.7215
  708MOL0     H97675   6.061   1.466   9.374  0.2905 -0.3035  1.1417
  708MOL0     H97676   6.151   1.566   9.145  0.9493  0.7245  0.3116
  708MOL0     H97677   6.113   1.668   9.281 -1.9145 -0.9169  0.6724
  708MOL0     H97678   6.382   1.558   9.180 -1.8033  0.7222 -3.1680
  708MOL0     H97679   6.370   1.646   9.335 -2.6792 -1.2401  0.5681
  708MOL0     H97680   6.299   1.845   9.240  1.1162 -0.8246  0.9070
  708MOL0     H97681   6.250   1.786   9.086 -0.7424  1.8390  1.2561
  708MOL0     H97682   6.541   1.817   9.169  2.1413  1.0173 -1.7919
  708MOL0     H97683   6.471   1.923   9.066  1.2021  0.4862  1.9821
  708MOL0     H97684   5.892   0.985   9.209 -1.9619 -1.3743 -0.1961
  708MOL0     H97685   5.654   0.913   9.243  1.6506 -0.5890 -0.7376
  708MOL0     H97686   5.209   0.916   9.292  0.6112  2.1154  0.9048
  708MOL0     H97687   4.988   0.843   9.367 -0.5538 -0.6801  0.6997
  708MOL0     H97688   3.232   0.398   9.380 -0.0002 -1.0039 -0.2680
  708MOL0     H97689   2.982   0.386   9.474  1.0138  1.5091 -0.8774
  708MOL0     H97690   2.617   0.078   9.617  2.2942 -1.3634  0.9361
  708MOL0     H97691   2.420   0.102   9.766 -0.9756  0.7785  0.0631
  708MOL0     H97692   2.234   0.161   9.876  0.6202 -2.3788  1.9792
  708MOL0     H97693   2.333   0.162  10.023  2.1467  0.6466 -1.8538
  708MOL0     H97694   2.206   0.359  10.108 -1.4509  1.5277 -0.7438
  708MOL0     H97695   2.099   0.227  10.076 -2.5169  0.2320 -2.3145
  708MOL0     H97696   2.124   0.477   9.922  0.7599 -1.1310  0.2694
  708MOL0     H97697   2.071   0.328   9.848  3.1451  1.3346 -0.1716
  708MOL0     H97698   1.952   0.469  10.088 -1.0170  3.1035 -2.4125
  708MOL0     H97699   1.895   0.312  10.034  1.6998  0.3602  4.0658
  708MOL0     H97700   1.693   0.571   9.780  0.0230 -0.2634  0.8574
  708MOL0     H97701   2.581   0.488   9.888 -0.7181 -0.2470  1.2462
  708MOL0     H97702   2.904   0.434   9.823 -1.9243 -5.0728 -0.5641
  708MOL0     H97703   2.851   0.526   9.685  0.4824 -1.5561 -0.1357
  708MOL0     H97704   2.792   0.559   9.850 -0.0290  1.6819 -1.9387
  709MOL0     O97705   5.539   9.040   8.516  0.3647 -0.4864 -0.3271
  709MOL0     C97706   5.624   9.124   8.508 -0.3847 -0.3159 -0.3010
  709MOL0     O97707   5.757   9.115   8.528  0.1503  0.5833 -0.3161
  709MOL0     C97708   5.813   8.994   8.571  0.0517 -0.1930  0.2969
  709MOL0     C97709   5.761   8.859   8.574 -0.0165 -0.5729  0.1675
  709MOL0     C97710   5.828   8.759   8.644 -0.0770  0.2615  0.7776
  709MOL0     C97711   5.960   8.779   8.702 -0.7352 -0.5539  0.6052
  709MOL0     O97712   6.046   8.691   8.769 -0.0363  0.3553  0.4430
  709MOL0     C97713   6.009   8.554   8.775  0.0162  0.1349  0.3129
  709MOL0     C97714   6.135   8.483   8.719 -0.0808 -0.3693 -0.3485
  709MOL0     C97715   6.261   8.484   8.802  0.5277 -0.3605 -0.0251
  709MOL0     C97716   6.362   8.376   8.762  0.7401  0.2646  0.1736
  709MOL0     C97717   6.488   8.353   8.861  0.2396  0.3076  0.4744
  709MOL0     C97718   6.469   8.361   9.006 -0.5158 -0.3144  0.0634
  709MOL0     C97719   6.596   8.307   9.078 -0.1763  0.5011  0.5590
  709MOL0     C97720   6.581   8.333   9.226  0.7858 -0.8118 -0.7127
  709MOL0     N97721   6.696   8.297   9.301  0.0085 -0.1942  0.0096
  709MOL0     C97722   6.699   8.195   9.393  0.0134  0.0412  0.8812
  709MOL0     C97723   6.821   8.202   9.451  0.5173 -0.2551 -0.0864
  709MOL0     C97724   6.870   8.097   9.550 -0.3209  0.6439  0.6498
  709MOL0     C97725   7.020   8.105   9.563  0.8869 -0.0036  0.0397
  709MOL0     C97726   7.070   8.225   9.649  0.6103 -0.1254  0.6491
  709MOL0     C97727   7.208   8.250   9.622 -0.1329 -0.5491  1.3434
  709MOL0     O97728   7.276   8.143   9.679 -0.2445  0.5570  0.0836
  709MOL0     C97729   7.408   8.158   9.675 -0.9289 -0.6639 -0.0213
  709MOL0     C97730   7.475   8.175   9.556 -0.2399  0.1825 -0.2087
  709MOL0     C97731   7.613   8.203   9.546 -0.2606  0.0918 -0.1755
  709MOL0     C97732   7.671   8.236   9.413  0.2173  0.3185  0.0788
  709MOL0     C97733   7.691   8.211   9.669  0.2943 -0.2116 -0.3608
  709MOL0     C97734   7.841   8.241   9.679  0.3226  1.0207 -0.7259
  709MOL0     O97735   7.907   8.238   9.802  0.3864  0.1487 -0.2285
  709MOL0     C97736   8.039   8.275   9.811  0.1885  0.0066 -0.4183
  709MOL0     C97737   8.066   8.408   9.805 -0.1950  0.1544 -0.3053
  709MOL0     C97738   8.197   8.454   9.820  0.3907 -0.4448  0.2423
  709MOL0     C97739   8.299   8.372   9.856  0.8453  0.2533 -0.1982
  709MOL0     O97740   8.422   8.438   9.883 -0.1090  0.3571  0.5840
  709MOL0     C97741   8.533   8.353   9.848 -0.1905 -0.5523  0.3766
  709MOL0     C97742   8.658   8.424   9.884 -0.3867 -0.0446 -0.1440
  709MOL0     C97743   8.778   8.371   9.803 -0.0202  0.3419 -0.3785
  709MOL0     C97744   8.895   8.453   9.842 -0.0501  0.4448 -0.6106
  709MOL0     C97745   8.907   8.584   9.765  0.1412  0.6443 -0.0043
  709MOL0     C97746   9.048   8.660   9.791 -0.0577  0.0166  0.1351
  709MOL0     C97747   9.055   8.794   9.715  0.6439  0.3893  0.2299
  709MOL0     C97748   9.180   8.882   9.736  0.1438  0.5064 -0.6566
  709MOL0    Cl97749   9.336   8.794   9.692 -0.2835  0.2454  0.1181
  709MOL0     C97750   8.267   8.232   9.874  0.3728 -0.0192  1.0134
  709MOL0     C97751   8.134   8.184   9.854 -0.9277  1.1364 -0.5019
  709MOL0     O97752   7.891   8.278   9.580 -0.0418 -0.0091  0.1454
  709MOL0     C97753   7.626   8.173   9.790 -0.1471 -0.1347  0.1023
  709MOL0     C97754   7.486   8.162   9.787 -0.7356  0.5801  0.3311
  709MOL0     N97755   6.890   8.305   9.385  0.6505  0.5628  1.0717
  709MOL0     N97756   6.814   8.359   9.296  0.5625 -0.7395  0.0570
  709MOL0     C97757   6.018   8.907   8.699 -0.0989  0.3282 -0.3437
  709MOL0     C97758   5.940   9.010   8.636 -0.4231 -0.6715  0.3809
  709MOL0     C97759   5.571   9.255   8.451  0.4128  0.3257 -0.1653
  709MOL0     C97760   5.452   9.263   8.386  0.2053  0.4798 -0.2431
  709MOL0     C97761   5.406   9.382   8.335  0.1370 -0.0657  0.7988
  709MOL0     C97762   5.480   9.502   8.332  0.6641 -0.1833  0.9762
  709MOL0     O97763   5.451   9.622   8.278  0.9620 -0.4464  0.1660
  709MOL0     C97764   5.411   9.729   8.368  0.0450  0.8537 -0.0322
  709MOL0     C97765   5.276   9.704   8.433  0.1316  0.4683 -0.4260
  709MOL0     C97766   5.259   9.806   8.548 -0.3602 -0.4207 -0.4905
  709MOL0     C97767   5.106   9.810   8.594 -0.0603 -0.3866 -0.0333
  709MOL0     C97768   5.058   9.676   8.640  0.5406 -0.3147 -0.0448
  709MOL0     C97769   5.015   9.577   8.697  0.2718  0.0968  0.2398
  709MOL0     C97770   5.602   9.486   8.398 -0.3507 -0.1198 -0.3118
  709MOL0     C97771   5.648   9.372   8.457 -0.1754 -0.0850 -0.0142
  709MOL0     C97772   5.775   9.388   8.533 -0.8034  0.0097  0.0947
  709MOL0     H97773   5.664   8.840   8.529  0.0324  1.2107 -0.7899
  709MOL0     H97774   5.789   8.658   8.639  0.9979 -0.2022  1.5653
  709MOL0     H97775   5.919   8.523   8.721 -0.2990  0.8190  0.4300
  709MOL0     H97776   6.004   8.524   8.880  0.2160  3.3000  1.3256
  709MOL0     H97777   6.091   8.383   8.717 -2.1064  0.3446  2.8361
  709MOL0     H97778   6.156   8.519   8.617 -1.6620 -1.0949 -0.9679
  709MOL0     H97779   6.293   8.589   8.802 -1.7975  0.4042 -0.8718
  709MOL0     H97780   6.224   8.445   8.897 -3.3989 -0.3119 -1.3558
  709MOL0     H97781   6.315   8.278   8.762 -0.1915  0.5979  3.2124
  709MOL0     H97782   6.398   8.400   8.662  1.6417  0.4207  0.5169
  709MOL0     H97783   6.558   8.435   8.841 -1.3279  1.9628  1.4318
  709MOL0     H97784   6.538   8.263   8.823 -1.1155  0.0696 -0.8376
  709MOL0     H97785   6.446   8.464   9.036 -1.2308 -1.1291  2.6087
  709MOL0     H97786   6.377   8.307   9.034 -0.5525  0.7280  2.1738
  709MOL0     H97787   6.683   8.361   9.039 -0.1850 -0.6472 -1.1298
  709MOL0     H97788   6.606   8.200   9.059  0.6173  0.9190 -1.8045
  709MOL0     H97789   6.572   8.441   9.239 -1.0690 -0.9855 -0.1922
  709MOL0     H97790   6.496   8.290   9.280 -0.5308  2.6690  0.2238
  709MOL0     H97791   6.620   8.125   9.420  1.0683 -1.1957  0.8864
  709MOL0     H97792   6.853   7.994   9.520  2.3138  0.1609  0.6043
  709MOL0     H97793   6.822   8.105   9.648 -0.3390 -2.3848  0.9808
  709MOL0     H97794   7.031   8.009   9.614 -2.3339 -1.3605 -1.5464
  709MOL0     H97795   7.066   8.111   9.463 -0.3253 -2.2620 -0.7116
  709MOL0     H97796   7.005   8.307   9.618 -0.5282 -0.3491  2.3331
  709MOL0     H97797   7.058   8.222   9.758 -4.6623 -1.8192  0.2774
  709MOL0     H97798   7.232   8.262   9.516  0.8419  0.5899  1.6654
  709MOL0     H97799   7.243   8.344   9.667 -0.6655  0.7903 -0.8556
  709MOL0     H97800   7.422   8.171   9.461  1.5407 -0.3768 -1.2307
  709MOL0     H97801   7.596   8.238   9.333 -1.0350 -1.3379  1.1507
  709MOL0     H97802   7.759   8.180   9.380 -0.7244  0.9486 -4.0621
  709MOL0     H97803   7.703   8.341   9.422 -0.6861  0.4468  2.3648
  709MOL0     H97804   7.990   8.476   9.769 -0.3582 -0.4582 -1.1289
  709MOL0     H97805   8.211   8.561   9.829  0.6396 -0.5407  1.0661
  709MOL0     H97806   8.527   8.273   9.922 -0.1384 -2.0274 -1.1567
  709MOL0     H97807   8.526   8.310   9.748 -1.0353  0.2716  0.0748
  709MOL0     H97808   8.647   8.529   9.853  0.8726 -0.6971 -3.2324
  709MOL0     H97809   8.660   8.420   9.993 -5.6202  2.4532  0.3557
  709MOL0     H97810   8.754   8.387   9.697 -0.3255 -0.0830 -0.3786
  709MOL0     H97811   8.783   8.264   9.825 -0.5981 -0.0746 -2.0550
  709MOL0     H97812   8.986   8.397   9.823  0.9618  2.5872 -2.5924
  709MOL0     H97813   8.898   8.465   9.950  3.2170  0.3888 -0.6133
  709MOL0     H97814   8.912   8.566   9.657  1.5649  0.9205 -0.0057
  709MOL0     H97815   8.820   8.649   9.777 -0.5549 -0.2304 -0.2095
  709MOL0     H97816   9.131   8.593   9.769 -0.1873 -0.6697  1.5895
  709MOL0     H97817   9.048   8.674   9.900 -1.0877 -1.1806  0.3083
  709MOL0     H97818   8.964   8.847   9.744  1.2018  1.8854 -0.6078
  709MOL0     H97819   9.040   8.776   9.609 -1.0112  1.4586  0.2421
  709MOL0     H97820   9.181   8.925   9.837 -1.5875  0.0766 -0.4269
  709MOL0     H97821   9.169   8.960   9.661 -2.6747  2.5092  1.6378
  709MOL0     H97822   8.332   8.163   9.926 -2.7621 -1.7384  2.9933
  709MOL0     H97823   8.097   8.086   9.882 -0.7882  1.1838 -0.1375
  709MOL0     H97824   7.685   8.172   9.881 -0.4072 -1.5339  0.2782
  709MOL0     H97825   7.439   8.131   9.880 -0.3422 -0.6337  0.1462
  709MOL0     H97826   6.115   8.927   8.744 -0.1127 -0.1536 -0.0990
  709MOL0     H97827   5.979   9.110   8.646  0.1304 -0.9071  0.6261
  709MOL0     H97828   5.392   9.173   8.379 -1.0962  1.0976  1.9583
  709MOL0     H97829   5.302   9.383   8.306 -0.4973 -1.6273  2.8354
  709MOL0     H97830   5.484   9.742   8.447 -0.3912  1.1007  0.3334
  709MOL0     H97831   5.414   9.824   8.314 -0.6652  1.8635  1.6630
  709MOL0     H97832   5.269   9.604   8.477 -0.3772  0.4993 -0.4320
  709MOL0     H97833   5.191   9.709   8.365 -1.1418 -2.5728  0.7441
  709MOL0     H97834   5.310   9.778   8.640 -3.5546 -0.6559  1.3633
  709MOL0     H97835   5.291   9.904   8.511  0.8315 -0.6115 -0.0055
  709MOL0     H97836   5.047   9.853   8.512  0.9756  0.9124 -0.1375
  709MOL0     H97837   5.100   9.877   8.680  1.0821 -1.2252  0.7217
  709MOL0     H97838   4.980   9.496   8.758 -1.9985 -0.7454 -2.0138
  709MOL0     H97839   5.667   9.572   8.405  1.7358 -1.3005 -3.4000
  709MOL0     H97840   5.824   9.485   8.542  0.8197 -0.6450 -1.1186
  709MOL0     H97841   5.758   9.355   8.636  2.9087  1.7759  1.4268
  709MOL0     H97842   5.855   9.326   8.491 -1.2275 -1.0226  0.7790
  710MOL0     O97843   3.861   5.572  10.964  0.4106 -0.3209 -0.0318
  710MOL0     C97844   3.973   5.625  10.964 -0.1994 -0.8595  0.4203
  710MOL0     O97845   4.087   5.584  11.020  0.9309  0.0034 -0.0671
  710MOL0     C97846   4.079   5.474  11.103 -0.1491  0.3917 -0.5558
  710MOL0     C97847   4.145   5.490  11.227  0.1824  1.0594 -0.2588
  710MOL0     C97848   4.145   5.381  11.320  0.5451  1.1948  0.4806
  710MOL0     C97849   4.094   5.248  11.285 -0.0213 -0.4373 -0.5199
  710MOL0     O97850   4.073   5.143  11.366  0.1936 -0.2215  0.1475
  710MOL0     C97851   4.116   5.166  11.501 -0.1947  0.4187  0.4829
  710MOL0     C97852   4.120   5.015  11.541  0.0791 -0.1748  0.2287
  710MOL0     C97853   3.981   4.956  11.572 -0.2343 -0.9677  0.1354
  710MOL0     C97854   3.993   4.807  11.597 -0.3681  0.2510  0.3120
  710MOL0     C97855   4.012   4.720  11.475 -0.3582  0.3594  0.0688
  710MOL0     C97856   3.945   4.583  11.503 -0.4392  0.3071 -0.3502
  710MOL0     C97857   3.958   4.490  11.378 -0.1294  0.4923  1.1619
  710MOL0     C97858   3.908   4.355  11.395  0.0339  0.5081 -0.4726
  710MOL0     N97859   3.999   4.264  11.465 -0.3075  0.4578  0.1520
  710MOL0     C97860   3.965   4.153  11.538 -0.1786  0.0057 -0.1380
  710MOL0     C97861   4.080   4.093  11.585  0.9484 -0.5135 -0.6350
  710MOL0     C97862   4.082   3.968  11.646  0.2030  0.2623 -0.8514
  710MOL0     C97863   4.066   3.982  11.802  0.4976  0.4917 -0.0335
  710MOL0     C97864   4.034   3.841  11.859 -0.4106  0.1138 -0.6086
  710MOL0     C97865   4.020   3.850  12.011  0.0028 -0.5745 -0.0502
  710MOL0     O97866   4.130   3.924  12.072  0.3205  0.1495  0.8240
  710MOL0     C97867   4.123   3.973  12.197 -0.3426 -0.1087 -0.2612
  710MOL0     C97868   4.222   4.060  12.232  0.8265 -0.1560  0.9671
  710MOL0     C97869   4.249   4.106  12.363 -0.1883 -0.4058  1.4038
  710MOL0     C97870   4.362   4.200  12.379  0.5616  0.2354  0.6049
  710MOL0     C97871   4.165   4.058  12.458  0.0743  0.4306 -0.8615
  710MOL0     C97872   4.192   4.093  12.608  0.2353 -0.6270  1.6719
  710MOL0     O97873   4.281   4.187  12.637  0.5255 -0.4021  0.2133
  710MOL0     C97874   4.325   4.222  12.763  0.7769  0.4000 -0.3120
  710MOL0     C97875   4.306   4.150  12.883 -0.4053 -0.4820  0.3433
  710MOL0     C97876   4.357   4.194  13.005  0.1839 -0.1811 -0.4091
  710MOL0     C97877   4.430   4.314  13.011 -0.7458  0.4439 -0.5546
  710MOL0     O97878   4.484   4.360  13.136 -0.2711 -0.6615  0.6222
  710MOL0     C97879   4.386   4.410  13.230 -1.0682 -0.0947 -1.2975
  710MOL0     C97880   4.440   4.443  13.375  0.2867  0.4952  0.5539
  710MOL0     C97881   4.539   4.565  13.358  0.2795  0.1748 -0.4526
  710MOL0     C97882   4.624   4.577  13.474 -0.3954 -0.0027 -0.6774
  710MOL0     C97883   4.732   4.687  13.462 -0.1394 -0.4187 -0.0292
  710MOL0     C97884   4.684   4.830  13.442 -0.2264 -0.0019  0.8225
  710MOL0     C97885   4.802   4.918  13.419  0.0131 -1.0932  0.2369
  710MOL0     C97886   4.750   5.063  13.401  0.1697  0.0732 -0.7267
  710MOL0    Cl97887   4.670   5.140  13.552  0.1949  0.3685  0.4046
  710MOL0     C97888   4.465   4.379  12.891 -0.3297 -0.2849 -1.1431
  710MOL0     C97889   4.411   4.333  12.770 -0.0051  1.1817 -0.5220
  710MOL0     O97890   4.126   4.029  12.687  0.0999  0.6276  0.6685
  710MOL0     C97891   4.057   3.971  12.431 -0.0956 -0.7891  0.2058
  710MOL0     C97892   4.037   3.931  12.296 -0.5324  0.7859 -1.0792
  710MOL0     N97893   4.183   4.177  11.538  0.4611  0.0615 -0.0400
  710MOL0     N97894   4.133   4.268  11.470  0.2796  0.1297 -0.5653
  710MOL0     C97895   4.048   5.235  11.152 -0.0771  0.7777  0.4262
  710MOL0     C97896   4.036   5.348  11.063  0.0539  0.9407  0.5204
  710MOL0     C97897   3.993   5.742  10.879  0.2650 -0.6137  0.3862
  710MOL0     C97898   4.106   5.747  10.797  0.2694 -0.7546  0.2969
  710MOL0     C97899   4.139   5.869  10.724  0.5936 -0.0239  0.7259
  710MOL0     C97900   4.045   5.972  10.712 -0.2308 -0.3997 -0.3872
  710MOL0     O97901   4.086   6.085  10.638  0.0126  0.4528 -0.0063
  710MOL0     C97902   3.988   6.185  10.625 -0.2542 -0.4839  0.0742
  710MOL0     C97903   3.870   6.139  10.537  0.3780 -0.2131  0.7635
  710MOL0     C97904   3.749   6.220  10.582  0.0270 -1.2652 -0.4971
  710MOL0     C97905   3.618   6.199  10.499 -0.9764 -0.1420 -0.3592
  710MOL0     C97906   3.515   6.286  10.539  1.0055  0.1135  0.4075
  710MOL0     C97907   3.422   6.358  10.564 -0.5109 -0.3540 -0.0055
  710MOL0     C97908   3.931   5.956  10.795  0.1772 -0.9523 -0.4632
  710MOL0     C97909   3.908   5.850  10.877  0.0634  0.7363  0.0582
  710MOL0     C97910   3.774   5.859  10.955 -0.5968 -0.2660 -1.0229
  710MOL0     H97911   4.176   5.588  11.259  2.4806 -0.0348  1.1016
  710MOL0     H97912   4.181   5.409  11.419 -0.4988  2.3979  0.5361
  710MOL0     H97913   4.054   5.222  11.572 -0.3524 -0.4033  1.0095
  710MOL0     H97914   4.215   5.213  11.510 -0.4868  0.8378  1.7982
  710MOL0     H97915   4.180   4.960  11.467  0.7044  0.3420  0.3435
  710MOL0     H97916   4.180   5.012  11.632 -1.1486  2.1624  1.2109
  710MOL0     H97917   3.941   4.999  11.664 -1.0690  0.1109 -0.7081
  710MOL0     H97918   3.909   4.981  11.494  0.4453 -1.1672 -0.5674
  710MOL0     H97919   4.062   4.777  11.676 -1.5065 -1.4355  0.7306
  710MOL0     H97920   3.893   4.770  11.624  0.7915 -2.5300  1.1604
  710MOL0     H97921   4.117   4.693  11.457 -0.8126 -0.0971 -2.2426
  710MOL0     H97922   3.978   4.777  11.388 -0.8373  0.4162  0.2879
  710MOL0     H97923   4.009   4.537  11.578  0.5236  1.5430 -0.3820
  710MOL0     H97924   3.840   4.596  11.533 -0.6620  0.2825 -1.1014
  710MOL0     H97925   4.065   4.493  11.356 -0.0779  1.1544  1.4620
  710MOL0     H97926   3.903   4.543  11.300  0.4535 -0.2896  0.2087
  710MOL0     H97927   3.806   4.360  11.434  0.4752  1.3489  0.6364
  710MOL0     H97928   3.909   4.312  11.295  2.8583 -0.4112 -0.1569
  710MOL0     H97929   3.868   4.108  11.556  0.6533 -2.0067 -0.3758
  710MOL0     H97930   4.174   3.915  11.621 -0.3110 -1.4949  0.8044
  710MOL0     H97931   4.005   3.907  11.597  1.4588 -2.6613  0.5509
  710MOL0     H97932   4.163   4.021  11.834  0.1584 -0.2936  2.0830
  710MOL0     H97933   3.984   4.052  11.821  0.5048  0.6222 -0.4645
  710MOL0     H97934   3.936   3.809  11.822  0.1031 -1.9221 -0.3098
  710MOL0     H97935   4.113   3.768  11.843 -0.0963  0.5651 -1.1617
  710MOL0     H97936   3.927   3.907  12.023  0.9267  0.7014  1.5981
  710MOL0     H97937   4.004   3.750  12.051 -1.5986 -1.1493 -2.0086
  710MOL0     H97938   4.288   4.097  12.154  0.9247  3.6699  2.6795
  710MOL0     H97939   4.397   4.247  12.286  1.5314 -0.9799  0.3299
  710MOL0     H97940   4.446   4.147  12.425  1.6096  1.1436 -0.1884
  710MOL0     H97941   4.350   4.289  12.442 -0.4552  1.0273 -0.6735
  710MOL0     H97942   4.262   4.052  12.891  2.5834 -1.9290  0.5469
  710MOL0     H97943   4.344   4.138  13.097  1.7082  1.1016  0.6433
  710MOL0     H97944   4.334   4.493  13.182  1.1985  2.8961  1.0161
  710MOL0     H97945   4.317   4.329  13.254  0.9097 -2.4173 -2.9060
  710MOL0     H97946   4.358   4.471  13.442  0.3980  3.1699 -0.3061
  710MOL0     H97947   4.498   4.352  13.397  0.3458  0.2124 -0.7079
  710MOL0     H97948   4.480   4.657  13.356  0.8733  0.6076  0.7317
  710MOL0     H97949   4.609   4.558  13.274  0.3912  0.9670 -0.4424
  710MOL0     H97950   4.681   4.484  13.487 -2.4742 -1.0115  2.6268
  710MOL0     H97951   4.564   4.584  13.566 -0.2040 -0.8331 -0.4750
  710MOL0     H97952   4.807   4.691  13.541  1.5366  1.3843 -1.6018
  710MOL0     H97953   4.795   4.652  13.380  2.2038 -2.9175  2.6308
  710MOL0     H97954   4.623   4.864  13.526 -0.1789 -2.1435  1.7953
  710MOL0     H97955   4.632   4.843  13.347 -0.5101 -0.1006  0.9637
  710MOL0     H97956   4.854   4.893  13.327  1.3489 -3.0465  1.4400
  710MOL0     H97957   4.865   4.911  13.509  0.7558  0.8809 -0.0784
  710MOL0     H97958   4.687   5.070  13.312 -1.2138  0.1160  0.2290
  710MOL0     H97959   4.836   5.129  13.385 -0.4598  1.1595  0.1823
  710MOL0     H97960   4.533   4.464  12.894  2.5734 -2.4018 -1.6569
  710MOL0     H97961   4.431   4.387  12.678 -1.2767 -0.3281 -1.7575
  710MOL0     H97962   3.985   3.942  12.507 -1.6373  2.3558  0.1098
  710MOL0     H97963   3.955   3.867  12.266 -0.5301  0.1388  0.2365
  710MOL0     H97964   4.012   5.141  11.111 -2.1325  1.9213 -0.5495
  710MOL0     H97965   3.974   5.331  10.976 -1.8456  1.4309  1.7116
  710MOL0     H97966   4.172   5.661  10.789  2.4992  0.7669  1.4869
  710MOL0     H97967   4.233   5.886  10.674 -0.0762 -0.5999 -0.7684
  710MOL0     H97968   3.949   6.214  10.723 -1.1391  0.3230 -0.5049
  710MOL0     H97969   4.039   6.269  10.576 -1.3290  0.0733 -0.1257
  710MOL0     H97970   3.849   6.032  10.539  2.9536 -0.7779  0.9162
  710MOL0     H97971   3.903   6.167  10.436  2.9588  0.2127  1.6500
  710MOL0     H97972   3.736   6.192  10.687  1.1124  1.4701  0.4683
  710MOL0     H97973   3.775   6.325  10.568 -0.4078 -1.4358 -2.9489
  710MOL0     H97974   3.582   6.099  10.525 -1.8870 -0.1551 -1.5806
  710MOL0     H97975   3.631   6.199  10.390  0.7110 -0.6026 -0.1839
  710MOL0     H97976   3.328   6.408  10.578  1.0211  2.7772 -0.0049
  710MOL0     H97977   3.855   6.034  10.797 -0.4539 -1.5474 -0.8110
  710MOL0     H97978   3.703   5.925  10.903 -1.4848  1.0645  1.7111
  710MOL0     H97979   3.716   5.768  10.971 -1.8468  0.4624 -1.2302
  710MOL0     H97980   3.797   5.908  11.050 -1.2355  2.2396 -2.0740
  711MOL0     O97981   7.731  10.742   3.809 -0.1137  0.3370  0.7962
  711MOL0     C97982   7.752  10.665   3.710  0.5372  0.4871 -0.8298
  711MOL0     O97983   7.855  10.690   3.623 -0.2247 -0.2544  0.4361
  711MOL0     C97984   7.965  10.769   3.647 -0.5228  0.3274  0.3766
  711MOL0     C97985   8.012  10.810   3.768  0.4233 -0.0562 -0.2216
  711MOL0     C97986   8.139  10.874   3.775 -0.0363  1.5633  1.0650
  711MOL0     C97987   8.218  10.894   3.665  0.5215  0.7503 -0.3738
  711MOL0     O97988   8.349  10.931   3.694 -0.3108 -0.2592  0.9150
  711MOL0     C97989   8.443  10.925   3.586  0.4673 -0.2376  0.0984
  711MOL0     C97990   8.561  10.994   3.641 -0.2627 -1.0226  0.1628
  711MOL0     C97991   8.705  10.949   3.586  0.7089 -0.3695  0.6401
  711MOL0     C97992   8.826  11.028   3.629  0.2442  0.7216 -0.2127
  711MOL0     C97993   8.955  10.978   3.563  0.4902  0.6180  0.5606
  711MOL0     C97994   9.058  11.085   3.551 -0.1203  0.2856 -0.0699
  711MOL0     C97995   9.191  11.027   3.524 -1.0127 -0.2765  0.1248
  711MOL0     C97996   9.307  11.132   3.504 -0.1810  0.7298  0.3455
  711MOL0     N97997   9.441  11.063   3.501 -0.0363  0.0457  0.3318
  711MOL0     C97998   9.513  11.036   3.614  0.8807  0.7046 -0.9748
  711MOL0     C97999   9.628  10.985   3.565  1.0852 -0.8299 -0.0619
  711MOL0     C98000   9.727  10.914   3.650  0.2250 -0.1959  0.0688
  711MOL0     C98001   9.871  10.890   3.607 -0.0698  0.3021 -0.2363
  711MOL0     C98002   9.968  10.887   3.723  0.7561 -0.7194 -0.0390
  711MOL0     C98003  10.104  10.845   3.666  0.2618  0.1072 -0.6037
  711MOL0     O98004  10.202  10.862   3.774 -0.8445  0.0066 -0.0352
  711MOL0     C98005  10.283  10.755   3.794 -0.2738  0.0222 -0.1911
  711MOL0     C98006  10.316  10.727   3.926 -0.6524 -0.9324 -0.8669
  711MOL0     C98007  10.406  10.628   3.953 -0.0716  0.4404 -0.1410
  711MOL0     C98008  10.429  10.621   4.105 -0.0815  0.4853  0.7107
  711MOL0     C98009  10.477  10.552   3.857 -0.2205 -0.9822  0.8048
  711MOL0     C98010  10.583  10.455   3.876 -0.1167 -0.4844 -0.2922
  711MOL0     O98011  10.642  10.409   3.762  0.1164  0.2486  0.6801
  711MOL0     C98012  10.748  10.316   3.783 -0.4028  0.0637  0.2506
  711MOL0     C98013  10.736  10.175   3.776  0.3189  0.1141  0.5384
  711MOL0     C98014  10.842  10.090   3.805 -0.3240 -0.3962 -0.6967
  711MOL0     C98015  10.964  10.148   3.841 -0.1087  0.0041 -0.2678
  711MOL0     O98016  11.075  10.080   3.871  0.6911  0.3753 -0.5350
  711MOL0     C98017  11.052   9.957   3.944  0.0249 -0.2060  0.2004
  711MOL0     C98018  11.064   9.830   3.864 -0.8109  0.4994  0.0522
  711MOL0     C98019  11.067   9.696   3.934  0.4066 -0.9435  0.5482
  711MOL0     C98020  11.147   9.701   4.065  0.6002  0.0352  0.1369
  711MOL0     C98021  11.150   9.557   4.123 -0.1933  0.2483 -0.2814
  711MOL0     C98022  11.254   9.557   4.245  0.2869  0.3567  0.1935
  711MOL0     C98023  11.395   9.579   4.200  0.2648 -0.6601 -0.0569
  711MOL0     C98024  11.486   9.530   4.308 -0.5204  0.1691 -0.2411
  711MOL0    Cl98025  11.648   9.592   4.259 -0.4744 -0.0850  0.0991
  711MOL0     C98026  10.975  10.284   3.850 -0.3790  0.0273  0.1188
  711MOL0     C98027  10.875  10.367   3.814 -0.2153  0.1790  0.3041
  711MOL0     O98028  10.625  10.436   3.993  0.9452  0.4622  0.3006
  711MOL0     C98029  10.452  10.595   3.723 -0.6148 -1.0251 -0.0880
  711MOL0     C98030  10.354  10.688   3.686  0.1417  0.5074 -0.9388
  711MOL0     N98031   9.625  10.971   3.422  0.1390  0.2844  0.0003
  711MOL0     N98032   9.505  11.015   3.390 -0.1113  1.0926  0.3017
  711MOL0     C98033   8.161  10.872   3.540  0.0637  0.5538  0.1040
  711MOL0     C98034   8.037  10.801   3.532 -0.3231  0.4624 -0.4184
  711MOL0     C98035   7.669  10.544   3.682 -0.7628 -0.5058  0.1683
  711MOL0     C98036   7.725  10.451   3.591 -0.4974  0.3512 -0.6133
  711MOL0     C98037   7.653  10.341   3.549  0.4668  0.1410 -0.5993
  711MOL0     C98038   7.527  10.314   3.600 -0.9277 -0.5566 -1.1175
  711MOL0     O98039   7.470  10.192   3.564  0.1267 -0.3944  0.4452
  711MOL0     C98040   7.334  10.178   3.570  0.1659 -0.0739  0.4140
  711MOL0     C98041   7.259  10.261   3.466  0.1759  0.1739  0.6755
  711MOL0     C98042   7.106  10.235   3.453 -0.0168 -0.6193  0.8595
  711MOL0     C98043   7.027  10.256   3.580  0.0446  0.1140 -0.4439
  711MOL0     C98044   6.884  10.230   3.562  0.2170 -0.3017 -0.3839
  711MOL0     C98045   6.768  10.206   3.535 -0.0056  0.2348 -0.7769
  711MOL0     C98046   7.478  10.402   3.704  0.6922  1.0789 -0.9841
  711MOL0     C98047   7.549  10.516   3.737  0.8177  0.4977 -0.0510
  711MOL0     C98048   7.482  10.601   3.843  0.5253  0.0387 -0.2350
  711MOL0     H98049   7.967  10.788   3.864  0.0444 -0.6946 -0.5400
  711MOL0     H98050   8.181  10.900   3.871 -0.3989 -1.6822  2.2265
  711MOL0     H98051   8.397  10.993   3.514 -1.3865 -1.2733  0.2496
  711MOL0     H98052   8.457  10.821   3.554 -4.2250 -1.2039  0.4271
  711MOL0     H98053   8.546  11.102   3.626  1.3471 -0.4327  2.3375
  711MOL0     H98054   8.561  10.994   3.750 -2.2371  1.8014  0.2832
  711MOL0     H98055   8.716  10.842   3.610  0.2792 -0.6139 -0.2150
  711MOL0     H98056   8.707  10.945   3.477  0.3739 -2.5832  0.6572
  711MOL0     H98057   8.804  11.133   3.606 -6.6121 -0.2655 -0.2722
  711MOL0     H98058   8.849  11.036   3.736  2.2432  0.9998 -0.6327
  711MOL0     H98059   8.939  10.932   3.465  2.8195 -2.8065  1.5842
  711MOL0     H98060   8.987  10.893   3.624 -2.6871 -0.5958  0.7438
  711MOL0     H98061   9.025  11.153   3.472  1.0458 -0.4606 -1.2447
  711MOL0     H98062   9.059  11.143   3.644  3.7088  2.1186 -1.0711
  711MOL0     H98063   9.184  10.967   3.432  0.0278  1.0705 -0.8682
  711MOL0     H98064   9.216  10.954   3.602 -0.4487 -1.2382 -0.9240
  711MOL0     H98065   9.283  11.189   3.413 -2.1820 -1.2008 -0.4323
  711MOL0     H98066   9.309  11.201   3.588 -1.8331 -0.2413  1.2221
  711MOL0     H98067   9.489  11.058   3.717  0.2471  0.6505 -1.1086
  711MOL0     H98068   9.685  10.816   3.676 -0.8488 -0.1205 -1.2453
  711MOL0     H98069   9.730  10.980   3.736 -0.3012 -1.5024  1.1316
  711MOL0     H98070   9.893  10.808   3.537  0.5300  0.7217 -0.5449
  711MOL0     H98071   9.889  10.980   3.547 -1.1768 -0.6650 -2.1467
  711MOL0     H98072   9.963  10.989   3.762  1.8005  0.1928 -2.1257
  711MOL0     H98073   9.951  10.820   3.808  3.1662 -0.9563  0.3131
  711MOL0     H98074  10.104  10.741   3.633 -0.0534 -0.1562  0.2101
  711MOL0     H98075  10.144  10.892   3.575  0.8644 -1.4531 -1.1747
  711MOL0     H98076  10.273  10.790   4.003 -0.8847 -1.3476 -0.6529
  711MOL0     H98077  10.529  10.662   4.123  0.6863 -0.5439 -0.8736
  711MOL0     H98078  10.437  10.518   4.139  3.1056  0.2077 -0.4948
  711MOL0     H98079  10.357  10.676   4.165  0.8616 -0.7534  3.0862
  711MOL0     H98080  10.642  10.125   3.755 -0.0871  0.9389  0.3573
  711MOL0     H98081  10.818   9.984   3.800 -0.4829 -0.4278  0.5302
  711MOL0     H98082  11.142   9.955   4.005  1.6387  1.2072 -1.9794
  711MOL0     H98083  10.959   9.959   4.002  0.4633 -2.6205  1.0917
  711MOL0     H98084  10.990   9.826   3.784  0.3533 -1.5895 -1.0056
  711MOL0     H98085  11.159   9.844   3.811 -1.4343 -0.1974 -1.2870
  711MOL0     H98086  11.115   9.618   3.874 -0.1105  0.2014 -1.4088
  711MOL0     H98087  10.967   9.655   3.949  0.0146 -0.0849  0.3334
  711MOL0     H98088  11.116   9.774   4.140  1.4162  1.3324 -0.7571
  711MOL0     H98089  11.246   9.739   4.041  0.0471  0.1999 -2.0837
  711MOL0     H98090  11.057   9.519   4.165 -1.7604  1.1756 -2.7534
  711MOL0     H98091  11.184   9.484   4.049  2.2035  1.5957 -0.6214
  711MOL0     H98092  11.252   9.456   4.287 -0.5661  0.3172  0.0621
  711MOL0     H98093  11.226   9.633   4.319 -1.0642 -0.2599  0.3411
  711MOL0     H98094  11.406   9.687   4.188 -0.3986 -0.7631 -1.8463
  711MOL0     H98095  11.415   9.516   4.112  0.5932 -0.4328 -0.1479
  711MOL0     H98096  11.480   9.422   4.325 -0.4182  0.3772  1.3290
  711MOL0     H98097  11.454   9.564   4.407  1.0588 -0.1983  0.4253
  711MOL0     H98098  11.066  10.334   3.882  0.1853 -1.7001  1.3073
  711MOL0     H98099  10.893  10.473   3.830 -0.6725 -0.0481  2.6282
  711MOL0     H98100  10.502  10.543   3.642  1.4525  0.1964  0.3365
  711MOL0     H98101  10.336  10.711   3.581 -2.0095 -0.5945 -0.8537
  711MOL0     H98102   8.218  10.892   3.449  0.4294  0.1444  0.2382
  711MOL0     H98103   7.999  10.768   3.436 -0.3153  0.8255 -0.5499
  711MOL0     H98104   7.817  10.463   3.536 -1.1426 -0.0259 -1.8250
  711MOL0     H98105   7.683  10.265   3.479  1.4068 -1.0324  1.0115
  711MOL0     H98106   7.320  10.070   3.559  1.0496 -0.2508  0.9455
  711MOL0     H98107   7.294  10.205   3.668  0.7954  2.3900  0.0476
  711MOL0     H98108   7.296  10.234   3.367  0.4446  0.0836  0.8001
  711MOL0     H98109   7.279  10.367   3.484 -1.7513  0.6520  0.2592
  711MOL0     H98110   7.081  10.297   3.366  0.8699 -1.6156 -0.1497
  711MOL0     H98111   7.096  10.130   3.422 -0.0660 -0.2083 -0.5778
  711MOL0     H98112   7.037  10.363   3.596 -0.0969  0.5505 -2.9019
  711MOL0     H98113   7.066  10.204   3.668  1.0204  1.7093  0.0853
  711MOL0     H98114   6.668  10.194   3.499 -0.6196  2.3119  0.0841
  711MOL0     H98115   7.380  10.380   3.746  0.5080  2.4622 -0.6429
  711MOL0     H98116   7.496  10.706   3.817  1.0970  0.2480  0.8629
  711MOL0     H98117   7.375  10.575   3.839  0.0074  2.0273 -0.1456
  711MOL0     H98118   7.532  10.595   3.940  1.7593  0.7748 -0.8037
  712MOL0     O98119   4.276   3.584   3.502  0.2182 -0.1982  0.0391
  712MOL0     C98120   4.201   3.677   3.533  0.8976 -0.2574 -1.5328
  712MOL0     O98121   4.199   3.800   3.473 -0.1916 -0.1760  0.7777
  712MOL0     C98122   4.287   3.816   3.369 -0.0258 -0.1740  0.0415
  712MOL0     C98123   4.358   3.937   3.360 -0.0906  0.6943  1.2079
  712MOL0     C98124   4.425   3.974   3.241  0.5633 -0.2815 -0.3979
  712MOL0     C98125   4.426   3.894   3.135 -0.9715 -0.2462  0.6541
  712MOL0     O98126   4.502   3.939   3.026  0.7928  0.8012  0.3487
  712MOL0     C98127   4.508   3.847   2.908  0.3008 -0.1677  0.2556
  712MOL0     C98128   4.580   3.906   2.784 -0.3401  0.3324 -0.5893
  712MOL0     C98129   4.737   3.881   2.780 -0.9864 -0.7865 -0.1232
  712MOL0     C98130   4.807   4.013   2.757 -0.4331 -0.1632  0.1684
  712MOL0     C98131   4.954   4.008   2.783 -0.5163  0.1593  0.1637
  712MOL0     C98132   5.025   4.146   2.755 -0.0577 -0.1562  0.1219
  712MOL0     C98133   5.179   4.134   2.779 -0.3437 -0.3962  0.4124
  712MOL0     C98134   5.251   4.264   2.734  0.1170  0.0330  0.2444
  712MOL0     N98135   5.199   4.381   2.814  0.1466 -0.4947  0.5118
  712MOL0     C98136   5.187   4.391   2.954  0.0042  0.1359 -0.0568
  712MOL0     C98137   5.141   4.521   2.967 -0.0712  0.3509 -0.1947
  712MOL0     C98138   5.115   4.588   3.103  0.9321  0.1136  0.5412
  712MOL0     C98139   5.234   4.641   3.182  0.2638  0.3613  0.3724
  712MOL0     C98140   5.274   4.786   3.142 -0.6620  0.4227  0.6705
  712MOL0     C98141   5.347   4.859   3.257  0.2035 -0.5514 -0.1140
  712MOL0     O98142   5.477   4.805   3.285  1.0273  0.2568  0.4430
  712MOL0     C98143   5.582   4.830   3.196  1.2610  0.4207 -0.4170
  712MOL0     C98144   5.706   4.767   3.216 -0.6755 -0.2769  0.4141
  712MOL0     C98145   5.811   4.777   3.123  0.3478  0.3582 -0.1956
  712MOL0     C98146   5.934   4.689   3.152  0.2796  0.0987 -0.2320
  712MOL0     C98147   5.787   4.849   3.003  0.0565  0.1189 -0.5027
  712MOL0     C98148   5.891   4.855   2.891  0.2197  0.0970 -0.5141
  712MOL0     O98149   5.834   4.874   2.766 -0.2950 -0.2073 -0.2615
  712MOL0     C98150   5.904   4.870   2.648 -0.5013  0.6681  0.1990
  712MOL0     C98151   5.826   4.884   2.532  0.4613  0.7465 -0.0304
  712MOL0     C98152   5.874   4.871   2.401 -0.4918  0.7411 -0.4687
  712MOL0     C98153   6.008   4.832   2.391  0.4126 -0.3095  0.9015
  712MOL0     O98154   6.080   4.832   2.275  1.3617  0.1568 -0.2729
  712MOL0     C98155   6.011   4.869   2.158  0.2695 -0.0112 -0.5364
  712MOL0     C98156   6.113   4.855   2.041 -0.1052  0.2578  0.4508
  712MOL0     C98157   6.236   4.944   2.070 -0.2625 -0.3558 -0.0819
  712MOL0     C98158   6.339   4.953   1.952 -0.5763  0.1984  1.0106
  712MOL0     C98159   6.448   5.050   1.970 -0.4154 -0.3753  0.5761
  712MOL0     C98160   6.551   5.005   2.071  0.6466  0.1631  0.8219
  712MOL0     C98161   6.689   5.077   2.044  0.4466  0.1196  0.0783
  712MOL0     C98162   6.788   5.044   2.154  0.1597 -0.3545  0.9418
  712MOL0    Cl98163   6.842   4.875   2.146 -0.3506 -0.4019  0.0834
  712MOL0     C98164   6.091   4.834   2.498 -0.5745 -0.1095 -0.2864
  712MOL0     C98165   6.044   4.847   2.628  0.7019 -0.2198  0.7072
  712MOL0     O98166   6.012   4.841   2.919 -0.6301 -0.0224  0.8317
  712MOL0     C98167   5.665   4.914   2.989  0.5004  0.4730 -0.1899
  712MOL0     C98168   5.566   4.908   3.081  0.2225 -0.4930  0.1807
  712MOL0     N98169   5.124   4.578   2.850  0.0230  0.1522  0.0424
  712MOL0     N98170   5.168   4.500   2.760 -0.4112 -0.1188  0.2313
  712MOL0     C98171   4.357   3.765   3.134  1.1397 -0.2843 -0.7059
  712MOL0     C98172   4.288   3.735   3.253 -0.7627  0.5655  1.3495
  712MOL0     C98173   4.094   3.655   3.640 -0.2241  0.3399  0.5159
  712MOL0     C98174   3.974   3.732   3.631  0.6538  0.4901  0.8544
  712MOL0     C98175   3.866   3.708   3.719 -0.5753  0.1303 -0.2794
  712MOL0     C98176   3.867   3.609   3.815 -0.3532 -0.4925 -0.1176
  712MOL0     O98177   3.766   3.593   3.899 -0.1343  0.0931 -0.2501
  712MOL0     C98178   3.638   3.586   3.842  0.5354 -0.4279  0.7033
  712MOL0     C98179   3.544   3.479   3.901  0.3872 -1.3085 -0.5229
  712MOL0     C98180   3.610   3.347   3.906  0.4477  0.7468 -0.1613
  712MOL0     C98181   3.511   3.228   3.887 -0.1791 -0.0790  0.1884
  712MOL0     C98182   3.601   3.112   3.891 -0.6762 -0.0787  0.1252
  712MOL0     C98183   3.682   3.018   3.887  0.1344 -0.6210 -0.6544
  712MOL0     C98184   3.982   3.524   3.819 -0.7651 -0.2827 -0.6594
  712MOL0     C98185   4.095   3.554   3.738  0.3945 -0.5612 -0.3772
  712MOL0     C98186   4.217   3.472   3.768 -0.2041 -0.0110 -0.2332
  712MOL0     H98187   4.361   4.012   3.438  0.4165  1.6666  0.2970
  712MOL0     H98188   4.478   4.068   3.233  2.9149 -1.4618  0.3119
  712MOL0     H98189   4.406   3.830   2.872 -0.0968  1.2232  0.6589
  712MOL0     H98190   4.552   3.753   2.941  0.0755  0.1139  1.3989
  712MOL0     H98191   4.545   3.858   2.692  1.1069  0.6442 -1.3382
  712MOL0     H98192   4.546   4.010   2.785 -2.5809 -0.3609  0.3590
  712MOL0     H98193   4.763   3.845   2.880  0.1442 -1.0310 -0.4913
  712MOL0     H98194   4.769   3.813   2.702 -0.1999  1.4633 -1.8570
  712MOL0     H98195   4.777   4.052   2.659  0.9689 -2.5480 -1.3083
  712MOL0     H98196   4.764   4.086   2.826  0.3635 -0.2347  0.7515
  712MOL0     H98197   4.992   3.934   2.712  0.3704 -0.6302  1.4232
  712MOL0     H98198   4.982   3.981   2.885 -2.4582 -1.7748  0.2522
  712MOL0     H98199   4.994   4.163   2.651 -2.0055  0.6609  0.7793
  712MOL0     H98200   4.998   4.226   2.824  3.5897  0.8526  0.5953
  712MOL0     H98201   5.213   4.050   2.718  1.4028  1.3285 -1.1429
  712MOL0     H98202   5.187   4.117   2.887 -2.2117 -1.0224  0.4813
  712MOL0     H98203   5.360   4.258   2.742  0.4619  1.7988 -2.0111
  712MOL0     H98204   5.230   4.281   2.628  0.6890 -2.3734 -0.3181
  712MOL0     H98205   5.202   4.321   3.035  0.3823  1.0301  0.6660
  712MOL0     H98206   5.064   4.512   3.164 -2.9835  2.1470  0.1302
  712MOL0     H98207   5.036   4.664   3.100  1.8549  1.1208  1.2912
  712MOL0     H98208   5.200   4.639   3.286  2.5006  0.1173  1.1485
  712MOL0     H98209   5.316   4.568   3.185  2.2260  2.4879  2.4114
  712MOL0     H98210   5.339   4.773   3.054 -2.8254  0.0197 -0.9534
  712MOL0     H98211   5.189   4.845   3.107 -0.6083 -0.3647 -0.8727
  712MOL0     H98212   5.359   4.964   3.229  0.3852 -0.3160  0.8359
  712MOL0     H98213   5.292   4.866   3.351  0.2113 -0.3916 -0.1213
  712MOL0     H98214   5.727   4.713   3.308 -0.8372  0.9490  1.1948
  712MOL0     H98215   6.030   4.740   3.144  1.9279 -1.8731  4.0342
  712MOL0     H98216   5.943   4.608   3.078  3.5011  0.2164 -0.0995
  712MOL0     H98217   5.922   4.639   3.249  1.2893  0.5334  0.1279
  712MOL0     H98218   5.719   4.905   2.540  0.4584  1.4027 -1.5161
  712MOL0     H98219   5.806   4.880   2.317 -1.4468 -1.2346  0.0355
  712MOL0     H98220   5.927   4.802   2.138  1.0883 -1.6013  1.0923
  712MOL0     H98221   5.969   4.969   2.173 -0.3742 -0.5577  1.6282
  712MOL0     H98222   6.139   4.750   2.024  3.0370  0.5912  2.3932
  712MOL0     H98223   6.062   4.897   1.954  2.3648  0.7958 -0.8499
  712MOL0     H98224   6.296   4.899   2.149 -1.0640 -2.3467 -0.5512
  712MOL0     H98225   6.204   5.044   2.099 -0.0439 -1.3104  4.1204
  712MOL0     H98226   6.281   4.979   1.864 -0.8495 -1.5383  0.6435
  712MOL0     H98227   6.376   4.854   1.927  1.0393  0.9744  0.1646
  712MOL0     H98228   6.499   5.056   1.874  0.9417  0.1703  1.2935
  712MOL0     H98229   6.414   5.149   2.002 -1.6302 -0.3579 -0.6973
  712MOL0     H98230   6.576   4.898   2.074  0.8592  0.2413  2.5113
  712MOL0     H98231   6.515   5.021   2.172 -1.6887  0.4441 -0.0033
  712MOL0     H98232   6.668   5.184   2.038 -0.6549  0.0232  1.6418
  712MOL0     H98233   6.726   5.049   1.945 -0.4734 -2.0678  0.2948
  712MOL0     H98234   6.750   5.089   2.246  0.6545  1.8848  0.1328
  712MOL0     H98235   6.877   5.104   2.132  1.1724 -2.1510 -0.0774
  712MOL0     H98236   6.197   4.816   2.481 -0.7483  0.5996 -2.3130
  712MOL0     H98237   6.117   4.844   2.708  2.5055  2.0475 -0.7062
  712MOL0     H98238   5.635   4.958   2.895  1.6422 -1.0101 -1.3020
  712MOL0     H98239   5.471   4.947   3.045  0.4988  0.0967  0.0823
  712MOL0     H98240   4.360   3.700   3.046  0.2225  0.9645 -1.6898
  712MOL0     H98241   4.238   3.639   3.253  0.8566 -0.3974 -1.5657
  712MOL0     H98242   3.959   3.809   3.555  0.1609 -0.9824 -0.5950
  712MOL0     H98243   3.777   3.769   3.710 -0.5309  0.0656 -1.3544
  712MOL0     H98244   3.607   3.691   3.842 -0.0238 -0.5882  0.1595
  712MOL0     H98245   3.643   3.556   3.737 -0.6832  1.5906  0.0120
  712MOL0     H98246   3.446   3.479   3.854  0.0973  0.6211 -0.0058
  712MOL0     H98247   3.530   3.517   4.003 -1.5091 -0.9245 -0.8972
  712MOL0     H98248   3.675   3.335   3.819  0.4530  1.0629 -0.1987
  712MOL0     H98249   3.663   3.339   4.001 -1.0218  0.2172  0.6622
  712MOL0     H98250   3.456   3.228   3.792  2.2514  1.8808 -1.3432
  712MOL0     H98251   3.438   3.229   3.969  1.8821 -4.2866  2.4065
  712MOL0     H98252   3.752   2.936   3.886  2.8517  1.5101 -2.6502
  712MOL0     H98253   3.970   3.452   3.899  0.6794  0.3234  0.1349
  712MOL0     H98254   4.243   3.414   3.679  0.0240 -1.5949  0.8208
  712MOL0     H98255   4.297   3.544   3.789 -1.5263  1.9257 -1.4448
  712MOL0     H98256   4.204   3.404   3.852 -0.3875 -1.2824 -1.2543
  713MOL0     O98257   4.338   7.393   9.089 -0.3006  0.1754 -0.4123
  713MOL0     C98258   4.307   7.410   9.202  0.0574 -0.1054 -0.3808
  713MOL0     O98259   4.365   7.342   9.306  0.1733  0.5783  0.2990
  713MOL0     C98260   4.467   7.249   9.279 -0.5954  0.3328  0.5325
  713MOL0     C98261   4.597   7.285   9.322  0.3646 -0.2100  0.6236
  713MOL0     C98262   4.703   7.204   9.280 -0.0158  0.0579 -0.0945
  713MOL0     C98263   4.681   7.081   9.214 -0.4023  0.1053 -1.2939
  713MOL0     O98264   4.793   7.011   9.175 -0.2731  0.0719  0.4243
  713MOL0     C98265   4.776   6.908   9.076 -0.0023  0.5636  0.6390
  713MOL0     C98266   4.904   6.831   9.051 -0.3139  0.4084 -0.8602
  713MOL0     C98267   4.953   6.731   9.161  0.0972 -0.1891 -0.6051
  713MOL0     C98268   5.093   6.757   9.224 -0.7191 -0.3258  0.3695
  713MOL0     C98269   5.147   6.615   9.243 -0.1447 -0.3588 -0.1294
  713MOL0     C98270   5.301   6.620   9.273  0.9485 -0.7260  0.3538
  713MOL0     C98271   5.336   6.639   9.422 -0.2188 -0.0493  0.4275
  713MOL0     C98272   5.489   6.647   9.458  0.6572 -0.4729 -1.1332
  713MOL0     N98273   5.547   6.512   9.467 -0.0118  0.8160 -0.8496
  713MOL0     C98274   5.560   6.431   9.577  1.1836 -0.2637 -0.7547
  713MOL0     C98275   5.611   6.310   9.529 -0.1114  0.0023 -0.3769
  713MOL0     C98276   5.632   6.185   9.591 -1.2301  0.1217  0.0762
  713MOL0     C98277   5.509   6.160   9.681 -0.3020 -0.7984  0.3794
  713MOL0     C98278   5.519   6.035   9.769 -0.8276  0.1227  0.0325
  713MOL0     C98279   5.405   6.023   9.870 -0.1893  0.2317  0.4393
  713MOL0     O98280   5.278   6.004   9.800 -0.0214 -0.3891  0.2769
  713MOL0     C98281   5.165   6.062   9.846  0.5798 -0.0817 -0.1123
  713MOL0     C98282   5.131   6.057   9.980 -0.5063  0.5125 -0.4951
  713MOL0     C98283   5.015   6.118  10.040 -0.2431 -0.1756 -0.0355
  713MOL0     C98284   5.017   6.143  10.190  0.7907  0.1661  0.7782
  713MOL0     C98285   4.926   6.171   9.944 -0.1789 -1.0465  0.0180
  713MOL0     C98286   4.803   6.241   9.984 -0.8957  0.5390  0.3784
  713MOL0     O98287   4.764   6.335   9.894 -0.3359  0.2837 -0.1737
  713MOL0     C98288   4.643   6.394   9.894 -0.7460 -0.4340  0.9291
  713MOL0     C98289   4.632   6.529   9.854 -0.0860 -0.4516 -0.1601
  713MOL0     C98290   4.506   6.594   9.851 -0.8613  0.1376  0.3528
  713MOL0     C98291   4.390   6.520   9.862  0.6715 -0.3749  0.3122
  713MOL0     O98292   4.261   6.566   9.853  0.1140 -0.8252 -0.0853
  713MOL0     C98293   4.237   6.704   9.811 -0.1455  1.5246  0.6434
  713MOL0     C98294   4.090   6.744   9.838 -0.0332 -0.4708 -0.1393
  713MOL0     C98295   3.979   6.649   9.806 -0.2961 -0.2728 -0.5435
  713MOL0     C98296   3.846   6.725   9.843  0.4321 -0.2366  0.0278
  713MOL0     C98297   3.731   6.626   9.822  0.3551 -0.3967 -1.0377
  713MOL0     C98298   3.598   6.707   9.837  0.1101 -0.3297  0.2084
  713MOL0     C98299   3.470   6.630   9.806  0.2850  0.2850  0.1110
  713MOL0     C98300   3.421   6.551   9.930  0.3155 -0.2276 -0.3137
  713MOL0    Cl98301   3.527   6.412   9.952 -0.0093  0.4405  0.0079
  713MOL0     C98302   4.400   6.381   9.893 -0.7404  0.1855 -0.2496
  713MOL0     C98303   4.525   6.318   9.907  0.3780  0.0138 -0.4713
  713MOL0     O98304   4.742   6.210  10.083  0.6077 -0.3250  0.0548
  713MOL0     C98305   4.953   6.178   9.807  0.1939  0.7551 -0.3020
  713MOL0     C98306   5.068   6.111   9.760 -0.1977 -0.2514 -0.1007
  713MOL0     N98307   5.634   6.331   9.394  0.3409 -0.0157  0.2625
  713MOL0     N98308   5.596   6.450   9.356  0.0161  0.9500  0.8025
  713MOL0     C98309   4.546   7.038   9.190 -0.6693  0.3005 -0.4307
  713MOL0     C98310   4.435   7.121   9.218  0.3181 -0.3877  0.0092
  713MOL0     C98311   4.180   7.487   9.239  0.2767 -0.4577 -0.6593
  713MOL0     C98312   4.169   7.524   9.377 -0.0207  0.0367  0.1117
  713MOL0     C98313   4.067   7.606   9.422  0.3791  0.4109 -0.3895
  713MOL0     C98314   3.961   7.642   9.345  0.1145  0.6856  0.0901
  713MOL0     O98315   3.846   7.702   9.398  1.0592 -0.5956 -0.2213
  713MOL0     C98316   3.851   7.760   9.531 -0.5047  0.2671  0.6672
  713MOL0     C98317   3.725   7.843   9.568 -0.9265  0.0810  0.5828
  713MOL0     C98318   3.603   7.744   9.571  0.2683 -0.6944 -0.0901
  713MOL0     C98319   3.464   7.825   9.563 -0.4607 -0.1606  0.6502
  713MOL0     C98320   3.450   7.921   9.676  0.0362 -0.1126  0.0004
  713MOL0     C98321   3.446   8.004   9.769  1.2549 -0.6091  0.0004
  713MOL0     C98322   3.962   7.600   9.217  0.3321 -0.5572 -0.3093
  713MOL0     C98323   4.072   7.527   9.160  0.8457 -0.4915 -0.3222
  713MOL0     C98324   4.058   7.480   9.018  0.1854  0.6828 -0.3877
  713MOL0     H98325   4.625   7.377   9.372  0.7008 -0.5868  1.1353
  713MOL0     H98326   4.798   7.236   9.320  0.5333 -0.7832 -0.7085
  713MOL0     H98327   4.744   6.953   8.982  1.2396  1.8585  0.8067
  713MOL0     H98328   4.697   6.835   9.100 -0.6768  0.3166 -2.0260
  713MOL0     H98329   4.910   6.779   8.955  2.9662  0.3312 -0.7406
  713MOL0     H98330   4.978   6.911   9.045  1.9975 -1.5941 -0.5169
  713MOL0     H98331   4.881   6.744   9.242 -0.4929  0.2898 -1.1941
  713MOL0     H98332   4.945   6.632   9.116 -0.6336 -0.9742  1.1844
  713MOL0     H98333   5.149   6.813   9.149  0.2923 -2.0959 -0.2433
  713MOL0     H98334   5.082   6.810   9.319  1.5003 -0.5954  0.8267
  713MOL0     H98335   5.133   6.548   9.158  2.1793  1.0483 -1.7303
  713MOL0     H98336   5.097   6.562   9.325 -1.0066  1.8509  0.8607
  713MOL0     H98337   5.325   6.516   9.248  0.3793 -1.1916  1.6606
  713MOL0     H98338   5.352   6.696   9.213  0.7135  0.0588  1.1282
  713MOL0     H98339   5.283   6.568   9.486 -2.4287 -1.6110 -2.8589
  713MOL0     H98340   5.305   6.739   9.453  2.0544  0.7867  0.1981
  713MOL0     H98341   5.546   6.714   9.394  0.9829 -0.2559 -0.6225
  713MOL0     H98342   5.491   6.690   9.558 -2.2033  0.4635 -1.3816
  713MOL0     H98343   5.517   6.443   9.676 -3.0718  3.4487 -2.7105
  713MOL0     H98344   5.720   6.188   9.656 -1.5573  0.0024  0.5317
  713MOL0     H98345   5.644   6.103   9.519 -0.4820  0.5981 -0.3590
  713MOL0     H98346   5.502   6.245   9.749 -2.8052 -1.3458  0.9196
  713MOL0     H98347   5.414   6.164   9.625  0.1590  0.9492 -0.3432
  713MOL0     H98348   5.504   5.947   9.707  1.3546  0.1992 -0.6960
  713MOL0     H98349   5.617   6.037   9.818  0.2229  0.3559 -1.9810
  713MOL0     H98350   5.421   5.944   9.944 -1.8836 -0.5093  0.0411
  713MOL0     H98351   5.404   6.114   9.931 -0.2374 -0.4800  1.5344
  713MOL0     H98352   5.196   6.004  10.048 -3.0385 -0.7427  1.1287
  713MOL0     H98353   5.088   6.079  10.242 -1.0700 -1.8359  0.9942
  713MOL0     H98354   4.917   6.116  10.226  0.4165 -1.2374 -1.1975
  713MOL0     H98355   5.041   6.248  10.209  2.4504  0.8545 -3.9254
  713MOL0     H98356   4.724   6.587   9.847 -0.5259  0.2725  0.0224
  713MOL0     H98357   4.512   6.701   9.834  2.2984  0.2473  1.4170
  713MOL0     H98358   4.308   6.768   9.862 -0.0812  1.1888  0.9797
  713MOL0     H98359   4.264   6.708   9.705  2.4533 -0.8825  1.1140
  713MOL0     H98360   4.088   6.769   9.944  0.1768  2.2617 -0.7031
  713MOL0     H98361   4.074   6.832   9.775  1.8918 -1.0339 -1.5307
  713MOL0     H98362   3.989   6.564   9.873 -0.2704  1.1464  1.3491
  713MOL0     H98363   3.987   6.625   9.700 -0.2976 -0.4307 -0.5077
  713MOL0     H98364   3.828   6.812   9.779  0.4358 -2.3987 -3.1839
  713MOL0     H98365   3.845   6.752   9.948  0.7590 -1.4680  0.3705
  713MOL0     H98366   3.736   6.568   9.730  3.7004 -1.3458 -0.3791
  713MOL0     H98367   3.734   6.545   9.896 -1.7133 -0.2306 -0.6910
  713MOL0     H98368   3.602   6.791   9.767 -1.5545  0.1783  0.6727
  713MOL0     H98369   3.596   6.761   9.932 -1.2589  0.5585 -0.2982
  713MOL0     H98370   3.467   6.565   9.718 -1.3403  1.0675 -0.4554
  713MOL0     H98371   3.390   6.701   9.783 -0.7893 -0.3671  1.7034
  713MOL0     H98372   3.317   6.519   9.921 -0.0392  0.8036  0.0185
  713MOL0     H98373   3.440   6.620  10.012  2.0136 -2.3964  1.2353
  713MOL0     H98374   4.312   6.320   9.906  0.4018 -1.1701  1.6468
  713MOL0     H98375   4.515   6.211   9.916  2.1123 -0.1186  0.2477
  713MOL0     H98376   4.884   6.198   9.726  0.2217  1.2051 -0.2166
  713MOL0     H98377   5.089   6.096   9.654  0.2805 -2.2804  0.2401
  713MOL0     H98378   4.521   6.942   9.146 -2.4252  0.8252 -0.6761
  713MOL0     H98379   4.332   7.088   9.211  0.1301  0.0402  0.7237
  713MOL0     H98380   4.252   7.511   9.445  0.3365  2.0173  0.1056
  713MOL0     H98381   4.071   7.634   9.527  2.7431  2.2535 -0.8768
  713MOL0     H98382   3.863   7.675   9.599  0.1786 -1.5368 -1.5651
  713MOL0     H98383   3.941   7.820   9.541 -1.1336  1.0675  1.7240
  713MOL0     H98384   3.705   7.918   9.491  1.3724  0.6822  0.4791
  713MOL0     H98385   3.744   7.891   9.664 -2.2434 -0.3150  1.0570
  713MOL0     H98386   3.612   7.688   9.477 -2.0994  3.7443 -3.3328
  713MOL0     H98387   3.596   7.682   9.660  2.2368  0.2564  0.7693
  713MOL0     H98388   3.380   7.756   9.552 -0.4613 -0.0432 -0.1138
  713MOL0     H98389   3.470   7.884   9.471 -1.5859  1.1057  1.3563
  713MOL0     H98390   3.455   8.082   9.842  1.5031 -0.3083 -0.3524
  713MOL0     H98391   3.873   7.629   9.163 -1.9917  0.6614  3.7679
  713MOL0     H98392   4.095   7.377   9.017  1.5517  1.1475 -0.6491
  713MOL0     H98393   3.954   7.483   8.986  0.0837 -0.5522 -0.2100
  713MOL0     H98394   4.123   7.547   8.961  0.1062  1.3542  0.2973
  714MOL0     O98395   9.764   7.864   9.844  0.0313  0.2040  0.2426
  714MOL0     C98396   9.709   7.968   9.814  0.3416 -0.0132 -0.0416
  714MOL0     O98397   9.769   8.089   9.801 -0.6244 -0.4432  1.0687
  714MOL0     C98398   9.892   8.108   9.850  0.0692  0.3128 -0.2678
  714MOL0     C98399   9.912   8.170   9.965 -1.0575 -0.7503  0.4398
  714MOL0     C98400  10.036   8.178  10.025 -0.5638  0.5163 -0.5182
  714MOL0     C98401  10.148   8.113   9.968 -0.9437 -0.2648  0.2687
  714MOL0     O98402  10.278   8.137  10.013 -0.7390  0.1314  0.7180
  714MOL0     C98403  10.324   8.052  10.118  0.2666 -0.4478 -0.2339
  714MOL0     C98404  10.411   8.131  10.219  0.9545  0.0740 -0.5638
  714MOL0     C98405  10.522   8.204  10.146 -0.4273  0.3139  0.3775
  714MOL0     C98406  10.598   8.313  10.230  0.6612  0.5648  0.0429
  714MOL0     C98407  10.689   8.396  10.143 -0.2377 -0.2578 -0.3672
  714MOL0     C98408  10.800   8.461  10.219 -0.6256 -0.6853 -0.1775
  714MOL0     C98409  10.890   8.536  10.124 -0.3660 -0.0665 -0.7566
  714MOL0     C98410  10.963   8.645  10.200 -0.2003 -0.1918 -0.1767
  714MOL0     N98411  11.070   8.705  10.121 -0.1360  0.0098 -0.0855
  714MOL0     C98412  11.193   8.660  10.097  0.1046 -0.2205 -0.5250
  714MOL0     C98413  11.239   8.742   9.999  0.3375  0.2489 -0.2773
  714MOL0     C98414  11.364   8.742   9.924 -0.7698 -0.4126 -1.4050
  714MOL0     C98415  11.478   8.815  10.002  0.6686  0.0003  0.6352
  714MOL0     C98416  11.603   8.845   9.922 -0.5732 -0.3699  0.2512
  714MOL0     C98417  11.681   8.716   9.888 -0.5521  0.3160 -0.7088
  714MOL0     O98418  11.810   8.745   9.836 -0.1377 -0.5519 -0.1610
  714MOL0     C98419  11.909   8.796   9.920 -0.0400  0.0499  0.0338
  714MOL0     C98420  12.030   8.822   9.847  0.1996  0.8136 -0.3190
  714MOL0     C98421  12.146   8.868   9.915  0.6180  0.3563  0.0955
  714MOL0     C98422  12.267   8.902   9.829 -0.7082 -0.0645 -0.4076
  714MOL0     C98423  12.141   8.881  10.060  0.4039  0.8786  0.7859
  714MOL0     C98424  12.261   8.928  10.135  0.0470 -0.0053 -0.2886
  714MOL0     O98425  12.336   9.030  10.080  1.2393 -0.3205 -0.2152
  714MOL0     C98426  12.422   9.103  10.158  0.4256 -0.2391 -0.2052
  714MOL0     C98427  12.388   9.223  10.217 -0.3482  0.0185  0.0652
  714MOL0     C98428  12.490   9.295  10.272 -0.8373 -0.4055  0.2780
  714MOL0     C98429  12.622   9.238  10.281  0.3779 -0.3991  0.5862
  714MOL0     O98430  12.737   9.299  10.321  0.0835 -1.0707  0.6302
  714MOL0     C98431  12.737   9.445  10.298 -0.8925 -0.3442 -0.0180
  714MOL0     C98432  12.886   9.496  10.315 -0.1636  0.4946  0.4177
  714MOL0     C98433  12.889   9.641  10.281 -0.8054  0.0290 -0.3493
  714MOL0     C98434  13.031   9.691  10.298 -0.4341 -0.0542 -0.8189
  714MOL0     C98435  13.048   9.833  10.246 -0.0415  0.6763  0.1083
  714MOL0     C98436  13.172   9.904  10.303  0.7805 -0.2359  0.0881
  714MOL0     C98437  13.290   9.859  10.216  0.6535 -0.9266 -0.5189
  714MOL0     C98438  13.420   9.883  10.289  0.1584  0.3198 -0.6714
  714MOL0    Cl98439  13.567   9.858  10.184  0.0410 -0.0891 -0.0746
  714MOL0     C98440  12.646   9.111  10.242  1.4689  0.0029 -0.6135
  714MOL0     C98441  12.549   9.042  10.168 -0.4267 -0.1887 -0.8400
  714MOL0     O98442  12.283   8.872  10.246 -0.3328  1.2610  0.2831
  714MOL0     C98443  12.021   8.846  10.126 -0.3188 -0.1262  0.5034
  714MOL0     C98444  11.906   8.806  10.061  0.1640  0.2125  0.4009
  714MOL0     N98445  11.164   8.859   9.991  0.9058  0.5474 -0.4132
  714MOL0     N98446  11.064   8.836  10.070 -0.3636  0.2295 -0.3287
  714MOL0     C98447  10.133   8.061   9.841  0.2693  0.6918  0.1733
  714MOL0     C98448  10.007   8.059   9.779  0.1935 -0.6531 -1.1875
  714MOL0     C98449   9.571   7.960   9.762  0.1228  0.5949  1.1613
  714MOL0     C98450   9.530   8.031   9.646 -0.6204 -0.3345  0.5726
  714MOL0     C98451   9.400   8.024   9.589  0.4686  0.5930 -0.1883
  714MOL0     C98452   9.301   7.970   9.666  0.1136 -0.2499 -0.2567
  714MOL0     O98453   9.176   7.963   9.611  0.0441 -0.0560 -0.0569
  714MOL0     C98454   9.078   8.028   9.687  1.4981 -0.2486 -0.5134
  714MOL0     C98455   8.960   8.048   9.601  0.0347 -0.1317  0.1617
  714MOL0     C98456   8.975   8.147   9.482  0.1669  0.5987  0.4266
  714MOL0     C98457   8.855   8.143   9.382  0.2118  0.0204 -0.3671
  714MOL0     C98458   8.872   8.261   9.295 -0.1218 -0.0490  0.8894
  714MOL0     C98459   8.888   8.367   9.237  1.0029  0.1618  0.4886
  714MOL0     C98460   9.336   7.906   9.789  0.1999 -0.3389  0.2849
  714MOL0     C98461   9.470   7.906   9.837  0.5540  0.0593  0.2562
  714MOL0     C98462   9.495   7.848   9.973 -0.1096 -0.3514 -0.0952
  714MOL0     H98463   9.832   8.224  10.015 -0.9590 -0.4841  0.3051
  714MOL0     H98464  10.057   8.233  10.116  1.8241 -2.1121  0.6615
  714MOL0     H98465  10.388   7.969  10.088  1.6128  0.5179 -0.1153
  714MOL0     H98466  10.245   8.014  10.184  0.5122 -2.0773 -0.8232
  714MOL0     H98467  10.356   8.206  10.276 -0.9806  0.7263 -3.0820
  714MOL0     H98468  10.455   8.063  10.293 -0.3876 -2.9396 -2.3182
  714MOL0     H98469  10.596   8.136  10.103  2.4078  0.8812  3.8562
  714MOL0     H98470  10.472   8.265  10.071  0.4015  0.3119 -0.1974
  714MOL0     H98471  10.526   8.381  10.277  0.5270  1.7854 -1.7926
  714MOL0     H98472  10.657   8.256  10.302  0.1595 -1.0397 -0.7800
  714MOL0     H98473  10.635   8.480  10.098  3.2749  1.0583 -2.5411
  714MOL0     H98474  10.743   8.337  10.069  4.2682  3.1517 -0.2239
  714MOL0     H98475  10.748   8.533  10.283  0.5707 -0.7069  0.8446
  714MOL0     H98476  10.857   8.393  10.282 -0.3431  0.7697  1.1807
  714MOL0     H98477  10.849   8.572  10.029  0.2256  3.9087  0.3257
  714MOL0     H98478  10.971   8.467  10.098 -2.7965 -2.2218 -3.3892
  714MOL0     H98479  10.882   8.713  10.226 -1.6991 -1.1345 -2.1557
  714MOL0     H98480  11.018   8.602  10.285  1.3490  0.9635 -0.5471
  714MOL0     H98481  11.237   8.567  10.131  0.4638 -0.8427 -2.5670
  714MOL0     H98482  11.362   8.792   9.826 -0.2854  1.4374 -0.5124
  714MOL0     H98483  11.401   8.641   9.904  0.1249 -0.2142 -0.8118
  714MOL0     H98484  11.442   8.909  10.044  0.0083  0.1205 -0.1656
  714MOL0     H98485  11.512   8.746  10.080  2.5245  2.2545  1.9248
  714MOL0     H98486  11.576   8.885   9.824 -1.5385  0.0592  0.6842
  714MOL0     H98487  11.659   8.922   9.976 -0.3502 -0.1339 -0.3089
  714MOL0     H98488  11.698   8.658   9.980 -1.9445  1.8931  0.5973
  714MOL0     H98489  11.637   8.658   9.807  0.7361 -1.8855  0.0685
  714MOL0     H98490  12.016   8.794   9.743 -1.8107  1.9535 -0.4102
  714MOL0     H98491  12.350   8.843   9.869  0.1170  1.5663  0.3834
  714MOL0     H98492  12.281   9.010   9.817 -3.0374  0.2679 -0.6948
  714MOL0     H98493  12.264   8.874   9.723  1.9621  3.0478 -1.4768
  714MOL0     H98494  12.287   9.261  10.208 -1.0750 -1.0699  2.6168
  714MOL0     H98495  12.471   9.400  10.295  0.7751  0.2498 -1.1110
  714MOL0     H98496  12.714   9.465  10.193  0.1907  0.7616 -0.0525
  714MOL0     H98497  12.667   9.500  10.362 -1.1896  3.7815 -3.4530
  714MOL0     H98498  12.917   9.469  10.416 -1.1819 -0.5153  0.4731
  714MOL0     H98499  12.957   9.437  10.256 -1.4346 -2.6834  1.8717
  714MOL0     H98500  12.816   9.689  10.347 -1.6763 -0.0846 -1.2079
  714MOL0     H98501  12.866   9.649  10.174  0.1582 -1.4431 -0.6871
  714MOL0     H98502  13.098   9.627  10.240 -0.5321  0.4998 -1.5581
  714MOL0     H98503  13.067   9.681  10.400  2.4546 -0.3412 -1.7804
  714MOL0     H98504  13.049   9.830  10.137  0.7704 -0.4467  0.1304
  714MOL0     H98505  12.971   9.897  10.292 -0.4181  2.2038 -2.4637
  714MOL0     H98506  13.177   9.889  10.411 -0.9245 -0.5157  0.1407
  714MOL0     H98507  13.158  10.011  10.289 -1.3943 -0.3672  0.9571
  714MOL0     H98508  13.294   9.920  10.125  3.1975  0.0488  0.1656
  714MOL0     H98509  13.289   9.755  10.181  1.3623 -0.5397 -1.7500
  714MOL0     H98510  13.414   9.801  10.361 -1.3886  1.0398  0.0807
  714MOL0     H98511  13.427   9.976  10.346  0.6424  0.3699 -0.8170
  714MOL0     H98512  12.744   9.066  10.253  0.9297 -1.5812 -1.9433
  714MOL0     H98513  12.572   8.943  10.129  1.0967  0.8345 -2.7203
  714MOL0     H98514  12.011   8.847  10.234 -2.2369 -1.3223  0.3666
  714MOL0     H98515  11.811   8.788  10.111  0.1094 -0.8992 -0.0643
  714MOL0     H98516  10.216   8.006   9.798 -1.5404 -1.9625 -0.1602
  714MOL0     H98517   9.988   8.001   9.689 -1.6979 -1.8501 -0.0956
  714MOL0     H98518   9.603   8.090   9.591 -1.3715  1.2156  1.1862
  714MOL0     H98519   9.376   8.071   9.494 -2.0887  2.7033  1.3695
  714MOL0     H98520   9.052   7.965   9.772  0.6593 -0.7324 -1.1128
  714MOL0     H98521   9.112   8.122   9.731  1.9883 -1.3849  1.6840
  714MOL0     H98522   8.886   8.084   9.673  1.1890 -0.9979  1.8514
  714MOL0     H98523   8.913   7.953   9.571  2.2796 -2.2404  2.7518
  714MOL0     H98524   8.979   8.242   9.536  0.6942  0.7564  0.1090
  714MOL0     H98525   9.069   8.130   9.429  0.3383 -0.6443  1.0652
  714MOL0     H98526   8.758   8.159   9.429  0.1877 -0.0053 -0.4082
  714MOL0     H98527   8.848   8.054   9.319 -2.0821  0.7784 -1.3004
  714MOL0     H98528   8.908   8.460   9.188  2.8266  0.4566  1.6842
  714MOL0     H98529   9.255   7.877   9.856  0.2789 -0.2059  0.4360
  714MOL0     H98530   9.407   7.841  10.038 -1.3570  3.9246 -0.9950
  714MOL0     H98531   9.546   7.751   9.969 -1.4234 -1.0516 -0.8509
  714MOL0     H98532   9.549   7.923  10.031  0.8345 -0.8976 -0.2561
  715MOL0     O98533   4.767   2.318   1.991  1.4581  0.5607  0.0397
  715MOL0     C98534   4.753   2.322   2.115  0.5570 -0.1388 -0.0644
  715MOL0     O98535   4.861   2.324   2.205 -0.8611 -0.7551 -0.5098
  715MOL0     C98536   4.994   2.346   2.170  0.6040  0.0602 -0.0184
  715MOL0     C98537   5.084   2.329   2.276 -0.3821 -0.8813  0.4727
  715MOL0     C98538   5.210   2.367   2.257 -0.6902  0.8843 -0.6731
  715MOL0     C98539   5.270   2.400   2.130 -0.3117 -0.3314 -0.0630
  715MOL0     O98540   5.401   2.448   2.132  0.3711 -0.4740  0.1001
  715MOL0     C98541   5.445   2.542   2.025 -0.1593 -0.0464 -0.1462
  715MOL0     C98542   5.510   2.669   2.094  0.7497 -0.0476  0.1286
  715MOL0     C98543   5.647   2.643   2.135  0.4905  0.3645  0.0135
  715MOL0     C98544   5.702   2.756   2.213 -0.4533 -0.2427  0.3545
  715MOL0     C98545   5.850   2.735   2.238  0.4094 -0.5406 -1.1330
  715MOL0     C98546   5.896   2.845   2.337 -0.9474  1.0332  0.4809
  715MOL0     C98547   6.050   2.832   2.345  0.7785 -0.2129  0.1816
  715MOL0     C98548   6.098   2.973   2.380  0.6939 -0.6781  0.5542
  715MOL0     N98549   6.243   2.975   2.400 -0.6559 -0.2390 -0.7003
  715MOL0     C98550   6.291   2.967   2.530  0.2962 -0.4272 -0.8569
  715MOL0     C98551   6.424   2.977   2.513  0.2019 -0.2580  0.7197
  715MOL0     C98552   6.505   3.004   2.647  0.5476  0.5564  0.2400
  715MOL0     C98553   6.661   3.016   2.619 -1.0541  0.3323 -0.0543
  715MOL0     C98554   6.710   3.101   2.496 -0.4658  0.0382 -0.8285
  715MOL0     C98555   6.860   3.113   2.492 -0.3051 -0.4719  0.0079
  715MOL0     O98556   6.921   2.988   2.450  0.2278 -0.1052  0.2275
  715MOL0     C98557   7.057   2.982   2.457 -0.8371  0.1969 -0.1977
  715MOL0     C98558   7.148   3.092   2.465 -0.2275  0.2060  0.1038
  715MOL0     C98559   7.286   3.074   2.452 -0.7362  0.5840  0.3090
  715MOL0     C98560   7.369   3.193   2.451 -0.4489 -0.4743  0.2616
  715MOL0     C98561   7.339   2.944   2.457  0.3459 -0.3782 -0.2950
  715MOL0     C98562   7.481   2.910   2.436 -0.0443 -0.2236 -0.1696
  715MOL0     O98563   7.520   2.790   2.483  0.0275  0.1050  0.3131
  715MOL0     C98564   7.651   2.751   2.474  0.2605  0.5070  0.3089
  715MOL0     C98565   7.721   2.739   2.351  0.7590  0.3491 -0.6768
  715MOL0     C98566   7.850   2.688   2.353 -0.0590 -0.5708  0.2175
  715MOL0     C98567   7.917   2.652   2.470  0.3386  0.4419  0.4535
  715MOL0     O98568   8.047   2.611   2.492  0.7038  0.5305  0.1911
  715MOL0     C98569   8.132   2.627   2.382 -0.4117  0.0800  0.5640
  715MOL0     C98570   8.263   2.554   2.402  0.6610  0.5469  0.2912
  715MOL0     C98571   8.361   2.550   2.273  0.3655  0.3188  0.7681
  715MOL0     C98572   8.497   2.519   2.326  0.1001 -0.3461 -0.2540
  715MOL0     C98573   8.582   2.643   2.362 -0.3099  0.3479 -0.0847
  715MOL0     C98574   8.686   2.633   2.482  0.5084  0.7300  0.4837
  715MOL0     C98575   8.765   2.499   2.445  0.1723  0.7201 -0.3606
  715MOL0     C98576   8.879   2.470   2.543 -0.4932  0.1012  0.5395
  715MOL0    Cl98577   9.013   2.583   2.474 -0.2761  0.4699 -0.5675
  715MOL0     C98578   7.836   2.653   2.584 -0.4011  0.8459  0.0531
  715MOL0     C98579   7.708   2.702   2.593  0.4327 -0.2932  0.1743
  715MOL0     O98580   7.562   2.990   2.387 -0.0913  0.0099  0.3190
  715MOL0     C98581   7.247   2.838   2.456 -0.3782  0.1478  0.0940
  715MOL0     C98582   7.112   2.861   2.459  0.4514 -0.1238 -0.9914
  715MOL0     N98583   6.455   2.980   2.378 -0.2502  0.3293  0.3860
  715MOL0     N98584   6.342   2.981   2.312  0.1607  0.2477  0.3748
  715MOL0     C98585   5.184   2.406   2.015 -0.1821 -0.8307 -0.6951
  715MOL0     C98586   5.052   2.369   2.042  0.0801 -0.6555 -0.4123
  715MOL0     C98587   4.611   2.313   2.160 -0.8336  1.1103  0.1943
  715MOL0     C98588   4.592   2.255   2.290 -0.4445 -0.0137 -0.1247
  715MOL0     C98589   4.461   2.242   2.343 -0.3888  0.0620  0.4014
  715MOL0     C98590   4.349   2.285   2.272  0.7458  0.3687 -0.6745
  715MOL0     O98591   4.217   2.290   2.317 -0.3422 -0.4375  0.1579
  715MOL0     C98592   4.204   2.277   2.456 -0.5413 -0.4871 -0.3219
  715MOL0     C98593   4.053   2.293   2.507 -0.1054 -0.6694 -0.1258
  715MOL0     C98594   4.037   2.314   2.659 -0.6453  0.4790 -0.0980
  715MOL0     C98595   4.063   2.194   2.746  0.3828  0.4239  0.1294
  715MOL0     C98596   4.205   2.160   2.750  0.9784  0.4547  0.2367
  715MOL0     C98597   4.323   2.128   2.741  0.2966  0.2241  0.6432
  715MOL0     C98598   4.376   2.340   2.143  0.7130  0.6410 -0.6116
  715MOL0     C98599   4.501   2.351   2.082 -0.3431 -0.0166  0.3885
  715MOL0     C98600   4.515   2.416   1.945 -0.5116 -0.1531  0.4572
  715MOL0     H98601   5.032   2.304   2.368 -1.1187  1.2153  0.6617
  715MOL0     H98602   5.272   2.366   2.346 -0.2660 -2.7175 -0.8720
  715MOL0     H98603   5.355   2.572   1.970 -2.4345  0.4658  3.5350
  715MOL0     H98604   5.516   2.491   1.960 -0.3474 -0.6808  0.1394
  715MOL0     H98605   5.512   2.746   2.016 -2.3821  0.2789  0.2367
  715MOL0     H98606   5.448   2.708   2.175 -1.5455 -0.0059 -1.5349
  715MOL0     H98607   5.645   2.559   2.204 -1.7697 -0.2312 -0.6869
  715MOL0     H98608   5.708   2.614   2.049 -1.7266 -1.6494 -1.0060
  715MOL0     H98609   5.698   2.847   2.153  4.1950  0.0878  0.1692
  715MOL0     H98610   5.654   2.776   2.310 -3.7367  1.1697 -1.3894
  715MOL0     H98611   5.903   2.743   2.143  1.4483  1.1233 -0.4738
  715MOL0     H98612   5.868   2.635   2.277 -1.3359 -1.0988 -1.7003
  715MOL0     H98613   5.873   2.944   2.298 -1.8325  1.8630  2.9466
  715MOL0     H98614   5.847   2.840   2.434 -5.2352  2.4157 -1.3398
  715MOL0     H98615   6.097   2.803   2.251  1.0420 -2.1800  0.8771
  715MOL0     H98616   6.082   2.765   2.426 -0.8635 -0.3017  0.7864
  715MOL0     H98617   6.075   3.048   2.303  2.3409 -0.0444  0.6475
  715MOL0     H98618   6.051   3.007   2.473  1.7681  3.0984 -0.1388
  715MOL0     H98619   6.241   2.966   2.627  0.2211  0.4557 -0.8706
  715MOL0     H98620   6.504   2.914   2.709 -0.4459  0.8492  0.6777
  715MOL0     H98621   6.458   3.086   2.703 -0.7960  0.2365 -0.3672
  715MOL0     H98622   6.707   3.065   2.706  0.1625  0.3179 -0.6734
  715MOL0     H98623   6.699   2.913   2.618  0.1292  0.7208  1.2582
  715MOL0     H98624   6.693   3.049   2.401  0.7944  0.6985 -1.4608
  715MOL0     H98625   6.658   3.197   2.494 -0.6112  0.0015 -3.7600
  715MOL0     H98626   6.881   3.191   2.418  1.7298 -1.1343 -0.1705
  715MOL0     H98627   6.887   3.147   2.592  0.9172  1.5442 -0.9508
  715MOL0     H98628   7.093   3.186   2.470 -2.5178 -1.1157  2.3479
  715MOL0     H98629   7.401   3.209   2.347 -3.1020  1.1043 -0.4082
  715MOL0     H98630   7.457   3.184   2.516  0.8950  0.8229 -1.2694
  715MOL0     H98631   7.316   3.285   2.476  0.4863  0.0491  0.3785
  715MOL0     H98632   7.663   2.759   2.261  0.4151 -2.5124 -1.1585
  715MOL0     H98633   7.898   2.675   2.257  0.5842  0.2131  0.4232
  715MOL0     H98634   8.086   2.594   2.289  0.0130  0.0287  0.3715
  715MOL0     H98635   8.157   2.733   2.372  0.6521 -0.1467  0.6823
  715MOL0     H98636   8.314   2.611   2.479  3.0839 -0.4380 -0.4901
  715MOL0     H98637   8.234   2.453   2.434  0.5901  0.5483  0.2332
  715MOL0     H98638   8.358   2.633   2.203 -1.7540 -1.3710 -1.2967
  715MOL0     H98639   8.335   2.465   2.210 -2.3812  1.5492  0.0876
  715MOL0     H98640   8.562   2.475   2.250  2.1577  1.3446  0.4059
  715MOL0     H98641   8.498   2.449   2.410  0.0657 -0.5903 -0.4558
  715MOL0     H98642   8.635   2.661   2.269  0.6885 -1.5987  0.0538
  715MOL0     H98643   8.512   2.722   2.390 -0.5231 -0.2268  1.0765
  715MOL0     H98644   8.634   2.618   2.577  1.4112  0.0101  0.8769
  715MOL0     H98645   8.757   2.716   2.485  1.2149  0.1512  0.0843
  715MOL0     H98646   8.804   2.501   2.342  0.3641 -0.6899 -0.3271
  715MOL0     H98647   8.704   2.409   2.457  2.6668 -0.8890  1.2030
  715MOL0     H98648   8.912   2.366   2.539 -3.3702 -0.8887 -0.1428
  715MOL0     H98649   8.841   2.495   2.643 -0.1139  1.6931  0.3106
  715MOL0     H98650   7.880   2.635   2.681  2.0430  1.5958 -0.8363
  715MOL0     H98651   7.654   2.717   2.686  1.6215  2.7648  0.4911
  715MOL0     H98652   7.279   2.734   2.451 -3.1363 -0.8526  1.0114
  715MOL0     H98653   7.035   2.784   2.467 -0.6245  1.1302  3.1725
  715MOL0     H98654   5.209   2.426   1.911  1.2644  0.4100 -0.1471
  715MOL0     H98655   4.988   2.374   1.955 -0.3885 -1.6231 -0.1372
  715MOL0     H98656   4.679   2.214   2.341 -1.2312  0.6741  1.8788
  715MOL0     H98657   4.451   2.185   2.434  1.6361  2.9930  2.6694
  715MOL0     H98658   4.222   2.172   2.479 -0.4839 -0.2331  0.8315
  715MOL0     H98659   4.269   2.340   2.517 -0.5297 -2.3932  1.7646
  715MOL0     H98660   3.984   2.213   2.478 -1.0862 -0.0287  0.3538
  715MOL0     H98661   4.003   2.377   2.458 -2.1515 -2.0888 -0.6198
  715MOL0     H98662   4.098   2.396   2.698 -2.9245 -0.1160  5.7067
  715MOL0     H98663   3.938   2.354   2.682 -0.3256 -0.1950  2.7403
  715MOL0     H98664   4.002   2.110   2.711  2.1204 -1.0584  0.4684
  715MOL0     H98665   4.033   2.201   2.850  0.9355 -0.8864  0.4037
  715MOL0     H98666   4.424   2.101   2.717  0.1241  2.0188 -2.6635
  715MOL0     H98667   4.294   2.386   2.089  0.0553 -2.4113 -2.4992
  715MOL0     H98668   4.562   2.354   1.868 -1.1089  1.6583 -1.4551
  715MOL0     H98669   4.415   2.410   1.901 -0.8208 -1.6397  1.2921
  715MOL0     H98670   4.550   2.519   1.955  1.2136 -0.6248 -0.4424
  716MOL0     O98671   1.381   1.023   7.652  0.4098 -0.2950 -0.2181
  716MOL0     C98672   1.381   0.918   7.714 -0.7329  0.1896 -0.2575
  716MOL0     O98673   1.492   0.873   7.779 -0.4574 -0.1630  0.2468
  716MOL0     C98674   1.602   0.952   7.748 -0.1256  0.8273  0.2124
  716MOL0     C98675   1.623   1.071   7.820  0.3187 -0.0685  0.8063
  716MOL0     C98676   1.739   1.147   7.815  0.5821  0.2117  1.0146
  716MOL0     C98677   1.843   1.102   7.732  0.2296 -0.3827  0.2548
  716MOL0     O98678   1.956   1.178   7.742 -0.4882  0.3211 -0.3679
  716MOL0     C98679   2.087   1.111   7.757  0.7003  0.3522  0.1279
  716MOL0     C98680   2.208   1.193   7.800 -0.4510 -0.1071 -0.9140
  716MOL0     C98681   2.192   1.282   7.923 -0.0222 -0.2251  0.4494
  716MOL0     C98682   2.324   1.352   7.965 -0.4029 -0.3338 -0.2574
  716MOL0     C98683   2.291   1.485   8.049  0.3906  0.2041 -0.7891
  716MOL0     C98684   2.404   1.526   8.141  0.1976 -0.1683  0.0072
  716MOL0     C98685   2.354   1.656   8.214 -0.1757  0.0872  0.4299
  716MOL0     C98686   2.467   1.724   8.292 -0.2561 -0.4673  0.2452
  716MOL0     N98687   2.477   1.667   8.424  0.2789 -0.0996 -0.0346
  716MOL0     C98688   2.546   1.551   8.457 -0.6152 -0.2925  0.1101
  716MOL0     C98689   2.522   1.537   8.588  0.7373  0.1751 -0.1406
  716MOL0     C98690   2.569   1.424   8.676  0.1349 -0.6662  0.6691
  716MOL0     C98691   2.720   1.398   8.679  0.4823 -0.3730 -0.4806
  716MOL0     C98692   2.792   1.518   8.754 -0.4002  0.0337  0.6484
  716MOL0     C98693   2.945   1.508   8.730  1.0464  0.9516  1.1042
  716MOL0     O98694   2.994   1.622   8.801 -1.0269  1.1306  0.2478
  716MOL0     C98695   3.130   1.620   8.829  0.8657 -0.3875 -0.1104
  716MOL0     C98696   3.177   1.725   8.914  0.1264 -0.0567  0.2551
  716MOL0     C98697   3.317   1.743   8.918  0.0725 -0.5926  0.8638
  716MOL0     C98698   3.359   1.876   8.970 -0.2003 -0.0658  0.1358
  716MOL0     C98699   3.411   1.646   8.878 -0.0091  0.6718  0.8164
  716MOL0     C98700   3.551   1.630   8.918  0.0569  0.5749 -0.5373
  716MOL0     O98701   3.627   1.544   8.848  0.4361 -0.3859  0.3233
  716MOL0     C98702   3.767   1.535   8.873  0.0453 -0.4043 -0.6572
  716MOL0     C98703   3.846   1.638   8.932 -0.8810  0.2490 -0.8169
  716MOL0     C98704   3.977   1.605   8.961 -0.0143  0.3169 -0.1812
  716MOL0     C98705   4.035   1.479   8.926  0.1224 -0.2007  0.3385
  716MOL0     O98706   4.169   1.444   8.943  0.2044 -0.1891  0.3542
  716MOL0     C98707   4.242   1.500   9.051  0.0549  0.4398 -0.7017
  716MOL0     C98708   4.378   1.418   9.049 -0.8261 -0.3987  0.5585
  716MOL0     C98709   4.464   1.458   8.925 -0.7987  0.3118 -0.3952
  716MOL0     C98710   4.602   1.396   8.939 -0.8521 -0.3339  0.1010
  716MOL0     C98711   4.708   1.470   8.850  0.6278 -0.1269 -0.3791
  716MOL0     C98712   4.852   1.432   8.870  0.0783  0.9792 -0.6531
  716MOL0     C98713   4.950   1.529   8.804 -0.8767  0.6200 -0.7149
  716MOL0     C98714   5.097   1.485   8.819 -0.4448  0.2337  0.2640
  716MOL0    Cl98715   5.183   1.616   8.741  0.0597  0.3127  0.2798
  716MOL0     C98716   3.959   1.381   8.857  0.7407 -0.4311  0.0888
  716MOL0     C98717   3.830   1.417   8.834  1.1949  0.2101 -0.0143
  716MOL0     O98718   3.579   1.680   9.026 -0.7261 -0.1642 -0.3236
  716MOL0     C98719   3.352   1.537   8.807 -0.6122 -0.1210 -0.4350
  716MOL0     C98720   3.217   1.523   8.789  0.4761  1.3699 -0.2510
  716MOL0     N98721   2.442   1.646   8.637  0.3086  0.4672  0.3846
  716MOL0     N98722   2.411   1.717   8.530 -0.3605  0.6066 -0.4056
  716MOL0     C98723   1.823   0.985   7.653  0.7668 -0.4137  0.7865
  716MOL0     C98724   1.704   0.911   7.664 -0.7215  0.3932  0.1901
  716MOL0     C98725   1.255   0.828   7.723 -0.3106  0.6365 -0.6758
  716MOL0     C98726   1.262   0.711   7.800  0.1247 -0.5991 -0.2641
  716MOL0     C98727   1.164   0.618   7.814  0.2904  0.1430  0.0699
  716MOL0     C98728   1.036   0.647   7.762 -0.3304 -1.7189 -0.1343
  716MOL0     O98729   0.922   0.572   7.786  0.5061 -0.0473  0.4687
  716MOL0     C98730   0.937   0.459   7.873  0.0079 -0.1357 -0.3033
  716MOL0     C98731   0.808   0.390   7.883  0.2138 -0.6740 -0.4978
  716MOL0     C98732   0.700   0.471   7.954 -0.2701 -0.3995 -0.2783
  716MOL0     C98733   0.554   0.411   7.943  0.1248 -0.8353  0.0348
  716MOL0     C98734   0.448   0.468   8.031 -0.3935 -0.4645 -0.6622
  716MOL0     C98735   0.376   0.520   8.110  0.2721 -0.1029  0.5741
  716MOL0     C98736   1.028   0.757   7.687  0.6412  0.1304  0.4761
  716MOL0     C98737   1.134   0.850   7.662  0.5886  0.3191  0.6514
  716MOL0     C98738   1.091   0.960   7.570 -0.2827 -0.3904  0.7467
  716MOL0     H98739   1.551   1.089   7.900  2.4609  0.0157  2.8408
  716MOL0     H98740   1.744   1.235   7.877 -1.4177  0.1237  1.3802
  716MOL0     H98741   2.111   1.057   7.664 -1.3751 -2.0641  0.8683
  716MOL0     H98742   2.072   1.040   7.839  0.8431  0.8734  0.6116
  716MOL0     H98743   2.290   1.123   7.816 -0.7376 -0.0277  1.1835
  716MOL0     H98744   2.233   1.258   7.715 -1.3156  2.7999  0.8870
  716MOL0     H98745   2.115   1.354   7.894  0.3074 -0.3123 -0.7031
  716MOL0     H98746   2.170   1.220   8.010 -0.6077  0.4881  0.8243
  716MOL0     H98747   2.396   1.292   8.021  1.1726  0.9061 -0.8615
  716MOL0     H98748   2.377   1.375   7.872 -0.5123 -0.5145 -0.3647
  716MOL0     H98749   2.193   1.481   8.098  0.5757 -0.3673 -0.4556
  716MOL0     H98750   2.257   1.565   7.982 -1.7144 -0.2249 -0.3221
  716MOL0     H98751   2.425   1.444   8.210  3.9424 -0.6098 -1.4060
  716MOL0     H98752   2.502   1.547   8.097  0.8171 -0.6625  1.1321
  716MOL0     H98753   2.262   1.647   8.273  0.6277  1.3954  1.9392
  716MOL0     H98754   2.307   1.724   8.141 -0.1494 -0.4190 -0.0723
  716MOL0     H98755   2.567   1.710   8.251 -0.3287  1.4346 -0.6730
  716MOL0     H98756   2.444   1.830   8.305  0.5923 -0.4281  1.6384
  716MOL0     H98757   2.601   1.481   8.396 -0.2962  0.5121 -0.5490
  716MOL0     H98758   2.516   1.338   8.633  1.8889 -0.3615 -2.3855
  716MOL0     H98759   2.536   1.433   8.780 -1.0602 -1.1955  0.3486
  716MOL0     H98760   2.744   1.305   8.731 -0.4811  0.1647  0.9590
  716MOL0     H98761   2.751   1.392   8.574  0.4225  1.3438 -0.6166
  716MOL0     H98762   2.763   1.618   8.719 -0.4383 -0.8033 -1.9508
  716MOL0     H98763   2.768   1.513   8.860 -1.9228 -3.6100  0.2780
  716MOL0     H98764   2.980   1.411   8.767 -1.9372 -0.8096 -0.3681
  716MOL0     H98765   2.973   1.532   8.627 -0.8235  2.8090  0.9550
  716MOL0     H98766   3.114   1.810   8.937  2.6152  1.9326  0.1069
  716MOL0     H98767   3.464   1.905   8.956 -0.6572  0.1468 -4.0177
  716MOL0     H98768   3.338   1.891   9.077 -0.1449  0.8863  0.0222
  716MOL0     H98769   3.314   1.957   8.912  1.1782 -0.1832 -1.1351
  716MOL0     H98770   3.822   1.743   8.950  3.1403  1.4003 -1.3027
  716MOL0     H98771   4.047   1.664   9.021  0.7994 -1.2086  0.4215
  716MOL0     H98772   4.259   1.608   9.047 -2.1823  0.8029 -2.2319
  716MOL0     H98773   4.183   1.474   9.140  0.7627  0.6739 -0.1605
  716MOL0     H98774   4.446   1.437   9.132  2.0139  0.3779 -1.8090
  716MOL0     H98775   4.350   1.312   9.037 -0.3018 -0.2686 -2.6175
  716MOL0     H98776   4.475   1.565   8.946 -0.8569  0.1056  0.7231
  716MOL0     H98777   4.415   1.441   8.829 -1.0198 -1.6010  0.0135
  716MOL0     H98778   4.595   1.293   8.903  0.0484  0.3724 -2.3134
  716MOL0     H98779   4.631   1.390   9.044  2.1051 -1.0713 -0.6381
  716MOL0     H98780   4.674   1.477   8.746  1.2418  2.8864 -0.4609
  716MOL0     H98781   4.705   1.576   8.877  1.4739 -0.3493  0.6638
  716MOL0     H98782   4.863   1.331   8.831 -1.6340  1.1403 -1.6635
  716MOL0     H98783   4.879   1.438   8.976  0.7542  0.3497 -0.7812
  716MOL0     H98784   4.930   1.625   8.852 -0.9047  0.6683 -0.8222
  716MOL0     H98785   4.932   1.529   8.696 -1.4388  1.6835 -0.6297
  716MOL0     H98786   5.111   1.389   8.769  1.0415 -0.1870  1.4238
  716MOL0     H98787   5.125   1.488   8.925  0.0184  1.9654  0.1211
  716MOL0     H98788   3.995   1.283   8.828 -0.1261 -1.0236  0.9419
  716MOL0     H98789   3.768   1.340   8.791  1.2154  0.6295 -0.8173
  716MOL0     H98790   3.422   1.464   8.769 -0.4206  0.4555 -1.2182
  716MOL0     H98791   3.192   1.440   8.725  0.1938  0.2298  1.2922
  716MOL0     H98792   1.903   0.960   7.583  0.2188  2.1416 -0.8851
  716MOL0     H98793   1.702   0.821   7.604 -0.5279 -0.3404  1.2624
  716MOL0     H98794   1.357   0.687   7.846  2.4715 -0.3230 -4.4283
  716MOL0     H98795   1.185   0.535   7.881 -0.3711 -2.1100 -2.3332
  716MOL0     H98796   1.013   0.396   7.826 -0.0474 -1.0044  0.7310
  716MOL0     H98797   0.982   0.490   7.968  0.2021 -1.9496  0.2350
  716MOL0     H98798   0.820   0.290   7.926 -1.9094 -1.6901 -2.1038
  716MOL0     H98799   0.779   0.367   7.780  0.3746 -0.1562 -0.6588
  716MOL0     H98800   0.728   0.478   8.059 -0.3961  0.5674 -0.3014
  716MOL0     H98801   0.691   0.574   7.917  0.3902 -0.5541 -0.8964
  716MOL0     H98802   0.558   0.303   7.957  2.2370 -0.6668  1.1070
  716MOL0     H98803   0.511   0.430   7.844 -1.0258 -0.8199  0.5246
  716MOL0     H98804   0.300   0.549   8.180 -2.0360  3.3057 -2.9282
  716MOL0     H98805   0.936   0.788   7.638  0.0946  1.4816  2.2564
  716MOL0     H98806   1.179   0.994   7.515 -1.5954 -0.6973 -1.6905
  716MOL0     H98807   1.019   0.938   7.490  0.5072 -0.8831  0.1637
  716MOL0     H98808   1.060   1.038   7.641 -2.1148 -1.4793  1.2199
  717MOL0     O98809   6.689   6.183   9.199  0.7140 -0.2611 -0.0513
  717MOL0     C98810   6.658   6.194   9.317  0.6773  0.1529  0.4688
  717MOL0     O98811   6.745   6.171   9.418 -0.1179  0.4791 -0.1698
  717MOL0     C98812   6.874   6.153   9.379  0.4432 -0.3305 -0.0624
  717MOL0     C98813   6.936   6.030   9.370 -0.5446  0.4269 -0.4583
  717MOL0     C98814   7.073   6.014   9.369 -0.4989 -0.1859  0.7511
  717MOL0     C98815   7.159   6.131   9.379 -0.6522  0.1030 -0.8718
  717MOL0     O98816   7.298   6.135   9.396 -0.2517  0.0987 -0.0379
  717MOL0     C98817   7.365   6.015   9.358  0.3128  0.0036  0.0044
  717MOL0     C98818   7.513   6.025   9.368  0.4698 -0.0258  0.3432
  717MOL0     C98819   7.578   6.118   9.265 -0.1310  0.4702 -0.0637
  717MOL0     C98820   7.716   6.171   9.322 -0.3605 -0.4087 -0.4580
  717MOL0     C98821   7.793   6.232   9.218 -0.6758  0.0390  0.5188
  717MOL0     C98822   7.757   6.379   9.188  0.4165 -0.3767  0.0694
  717MOL0     C98823   7.773   6.427   9.050  0.5528  0.5243 -0.1146
  717MOL0     C98824   7.924   6.457   9.020  1.2479 -0.9308 -0.3104
  717MOL0     N98825   7.941   6.512   8.886 -0.2446 -0.4484  0.5310
  717MOL0     C98826   8.018   6.457   8.778  0.6656  0.3264 -0.8769
  717MOL0     C98827   8.040   6.548   8.693 -0.3892  0.3490  0.2304
  717MOL0     C98828   8.110   6.533   8.555  0.5745 -0.7799  0.3369
  717MOL0     C98829   8.267   6.536   8.567 -0.1327 -0.6399  0.2793
  717MOL0     C98830   8.328   6.562   8.425 -0.2398 -0.9096  0.2705
  717MOL0     C98831   8.304   6.699   8.356 -0.3386  0.2524 -0.8436
  717MOL0     O98832   8.367   6.810   8.416  0.0649  0.8647 -0.3049
  717MOL0     C98833   8.501   6.835   8.402 -0.3739  0.2290  0.9129
  717MOL0     C98834   8.552   6.946   8.469 -0.2526 -0.3408  0.5547
  717MOL0     C98835   8.691   6.971   8.480  0.2819  0.4966 -0.4156
  717MOL0     C98836   8.730   7.077   8.577  1.4320  0.2090 -0.6526
  717MOL0     C98837   8.791   6.882   8.409 -0.8682  0.1390 -0.5303
  717MOL0     C98838   8.939   6.903   8.429  0.0387 -0.4906 -0.1278
  717MOL0     O98839   9.008   6.825   8.341  0.1677  0.8453 -0.0473
  717MOL0     C98840   9.146   6.817   8.356 -0.8732 -0.4790  0.1662
  717MOL0     C98841   9.201   6.737   8.450 -0.5772 -0.5399 -0.4785
  717MOL0     C98842   9.338   6.721   8.449 -0.2423  0.6450 -0.5817
  717MOL0     C98843   9.427   6.780   8.365 -0.0505 -0.7611 -0.5215
  717MOL0     O98844   9.559   6.756   8.390 -0.0575 -0.4267 -0.2817
  717MOL0     C98845   9.631   6.886   8.416  0.0685  0.7434 -0.1262
  717MOL0     C98846   9.677   6.943   8.280  0.9427 -0.1148  0.4052
  717MOL0     C98847   9.822   7.014   8.278  0.3190  0.9945  0.0104
  717MOL0     C98848   9.918   6.899   8.272 -0.7571 -0.3597  0.5666
  717MOL0     C98849  10.065   6.925   8.310  0.4185 -0.0854 -0.3904
  717MOL0     C98850  10.075   6.991   8.447  0.0312 -0.0115 -0.3239
  717MOL0     C98851  10.215   6.995   8.496 -0.0986 -0.9809 -0.4914
  717MOL0     C98852  10.324   7.017   8.393  0.0414  0.4110 -0.0896
  717MOL0    Cl98853  10.481   7.042   8.469 -0.2977 -0.5225  0.4349
  717MOL0     C98854   9.369   6.860   8.266 -0.3627  0.2233 -0.4724
  717MOL0     C98855   9.233   6.878   8.258  0.0199  0.9364  0.3357
  717MOL0     O98856   8.986   6.965   8.518 -0.0284  0.2766 -0.1284
  717MOL0     C98857   8.733   6.772   8.337  0.8414 -0.8496 -0.5167
  717MOL0     C98858   8.591   6.750   8.337 -0.8316  0.0427  0.6896
  717MOL0     N98859   7.965   6.657   8.736 -0.4914  0.3082  0.3319
  717MOL0     N98860   7.897   6.637   8.839  0.6789 -0.2252 -0.7428
  717MOL0     C98861   7.100   6.252   9.381  0.8753  0.0685 -0.2668
  717MOL0     C98862   6.955   6.270   9.372 -0.2155 -0.2047 -1.5695
  717MOL0     C98863   6.510   6.210   9.347  0.0969 -0.0345 -0.4070
  717MOL0     C98864   6.435   6.277   9.246 -0.6777 -0.0413 -0.8138
  717MOL0     C98865   6.296   6.287   9.261 -0.5998  0.7004 -0.2859
  717MOL0     C98866   6.235   6.243   9.382  0.0701 -0.2897 -0.5656
  717MOL0     O98867   6.097   6.243   9.384 -0.1005  0.1002  0.0575
  717MOL0     C98868   6.013   6.204   9.500 -0.6020  0.4209  0.2451
  717MOL0     C98869   6.004   6.317   9.600 -0.0402 -0.2185 -0.2307
  717MOL0     C98870   5.958   6.446   9.538 -0.3399 -0.2410 -0.5658
  717MOL0     C98871   5.972   6.560   9.636  0.7954 -0.2915  0.2427
  717MOL0     C98872   5.897   6.552   9.753  0.2225 -0.1118  0.1491
  717MOL0     C98873   5.841   6.562   9.863 -0.1088  1.1115 -0.3697
  717MOL0     C98874   6.311   6.191   9.485  0.2386  0.1538 -0.5826
  717MOL0     C98875   6.455   6.173   9.473  0.4189 -0.7825  0.4302
  717MOL0     C98876   6.530   6.118   9.590 -0.6787  0.3025 -0.5321
  717MOL0     H98877   6.868   5.945   9.366 -1.0817  0.6942  1.5785
  717MOL0     H98878   7.118   5.917   9.348  2.0001  0.9755  0.4626
  717MOL0     H98879   7.334   5.986   9.257  1.0653 -0.4565 -0.1049
  717MOL0     H98880   7.328   5.937   9.425  0.4057 -2.0858 -2.2237
  717MOL0     H98881   7.541   6.069   9.465  2.2326  0.2997 -0.2679
  717MOL0     H98882   7.544   5.921   9.361  0.3143 -0.0110 -0.7161
  717MOL0     H98883   7.589   6.063   9.171 -1.5323  0.7795 -0.4303
  717MOL0     H98884   7.513   6.204   9.248  2.6040  3.3543  2.6464
  717MOL0     H98885   7.704   6.248   9.399 -0.2949  1.3066 -2.0935
  717MOL0     H98886   7.767   6.084   9.366 -2.2726  0.7776  4.7695
  717MOL0     H98887   7.772   6.171   9.129 -0.5965 -0.9502  1.1636
  717MOL0     H98888   7.900   6.216   9.231 -1.2288 -3.7499  1.6037
  717MOL0     H98889   7.650   6.394   9.207  0.3564 -2.9979  2.5766
  717MOL0     H98890   7.821   6.424   9.265  1.4754 -2.6241  0.5825
  717MOL0     H98891   7.725   6.525   9.046  1.1858  0.7990 -1.9132
  717MOL0     H98892   7.723   6.365   8.976  0.1252 -0.8559  1.2882
  717MOL0     H98893   7.942   6.538   9.092 -3.8789  0.0094  0.3009
  717MOL0     H98894   7.974   6.363   9.044  1.5091 -0.7281 -0.0479
  717MOL0     H98895   8.049   6.353   8.784  0.4139  0.2611 -0.7207
  717MOL0     H98896   8.081   6.617   8.491  0.4471  0.1053  1.5411
  717MOL0     H98897   8.070   6.444   8.506 -0.8485  0.1479 -0.2477
  717MOL0     H98898   8.291   6.610   8.644 -1.8265 -2.9197  3.1973
  717MOL0     H98899   8.310   6.442   8.602  2.6783  1.3219  2.6119
  717MOL0     H98900   8.435   6.540   8.419 -0.3966 -1.2720 -2.5825
  717MOL0     H98901   8.292   6.487   8.354  1.6644 -0.8150 -0.8672
  717MOL0     H98902   8.348   6.695   8.256 -1.2855 -0.3142 -1.2564
  717MOL0     H98903   8.199   6.729   8.342  0.0300  1.6782 -0.7922
  717MOL0     H98904   8.480   6.998   8.532 -0.1736  1.3016 -0.6416
  717MOL0     H98905   8.643   7.125   8.621  2.1383 -0.2908  1.4249
  717MOL0     H98906   8.779   7.165   8.535 -0.7582  1.0718 -1.5367
  717MOL0     H98907   8.779   7.028   8.662 -1.0952  1.0883  1.4354
  717MOL0     H98908   9.150   6.679   8.526 -1.0204  2.3782  1.6221
  717MOL0     H98909   9.377   6.659   8.529  0.1743  2.0421  0.3268
  717MOL0     H98910   9.564   6.941   8.483 -0.1766  1.1660 -0.7096
  717MOL0     H98911   9.723   6.877   8.475  0.4494  0.8521 -0.6988
  717MOL0     H98912   9.678   6.865   8.203  1.4988  0.9494 -0.7051
  717MOL0     H98913   9.605   7.020   8.253 -0.4591 -1.1809  0.9880
  717MOL0     H98914   9.832   7.079   8.366 -1.3055  2.5931 -0.9021
  717MOL0     H98915   9.823   7.081   8.191 -0.8165  0.8023 -0.1622
  717MOL0     H98916   9.905   6.849   8.176  0.7991  0.6432 -0.2216
  717MOL0     H98917   9.888   6.828   8.349 -1.1386  1.3145  2.0356
  717MOL0     H98918  10.123   6.833   8.305 -1.3807 -1.4657  2.0459
  717MOL0     H98919  10.097   6.995   8.232 -0.9060  1.1764  0.1520
  717MOL0     H98920  10.017   6.945   8.528 -0.4935  3.3571  1.3750
  717MOL0     H98921  10.038   7.093   8.440 -0.2741 -0.0301  0.7593
  717MOL0     H98922  10.248   6.906   8.550  1.2288  1.0275  2.2264
  717MOL0     H98923  10.235   7.080   8.562 -1.8781  0.6828 -1.9807
  717MOL0     H98924  10.289   7.106   8.340 -3.4247 -0.9509 -0.3952
  717MOL0     H98925  10.327   6.934   8.322 -2.1278  0.7370 -0.6558
  717MOL0     H98926   9.441   6.904   8.197  1.8266 -3.7021 -0.9935
  717MOL0     H98927   9.181   6.936   8.182  1.0651  0.0880 -1.0694
  717MOL0     H98928   8.781   6.686   8.291 -0.5207 -2.7120  1.3839
  717MOL0     H98929   8.557   6.672   8.271 -0.8743  0.9704 -0.4162
  717MOL0     H98930   7.162   6.340   9.394 -0.0838  0.4247  2.3990
  717MOL0     H98931   6.911   6.368   9.390 -2.1464 -1.3814  0.7040
  717MOL0     H98932   6.482   6.305   9.152  1.6750 -1.6234 -0.1825
  717MOL0     H98933   6.235   6.317   9.177 -1.0050  2.9316  0.7220
  717MOL0     H98934   5.913   6.178   9.464 -0.9244 -1.8220  2.5251
  717MOL0     H98935   6.052   6.110   9.540 -2.0223 -0.7776 -1.0818
  717MOL0     H98936   6.102   6.341   9.644 -0.5562  0.0905  0.7874
  717MOL0     H98937   5.938   6.286   9.680 -2.3224 -0.3117 -2.0492
  717MOL0     H98938   6.026   6.480   9.459  2.1995 -0.4358  1.4192
  717MOL0     H98939   5.856   6.440   9.499 -1.5446 -2.0793  2.5059
  717MOL0     H98940   5.939   6.651   9.586  1.6460 -0.1947 -0.1593
  717MOL0     H98941   6.079   6.571   9.656  0.1429  2.1681  2.9484
  717MOL0     H98942   5.801   6.593   9.958  0.4593  4.0231 -0.9861
  717MOL0     H98943   6.266   6.154   9.576  0.8758  0.6387 -0.0649
  717MOL0     H98944   6.453   6.101   9.666 -1.1122 -1.2427 -1.2735
  717MOL0     H98945   6.572   6.020   9.566  1.2294  1.1019 -0.6370
  717MOL0     H98946   6.602   6.191   9.629 -0.0050 -0.3459 -0.5563
  718MOL0     O98947   6.856   2.629   4.730 -0.5821 -0.3575  0.2557
  718MOL0     C98948   6.826   2.511   4.701 -0.0800 -0.3924  0.9495
  718MOL0     O98949   6.909   2.410   4.726  0.0627  0.6373 -0.6863
  718MOL0     C98950   7.044   2.435   4.743  0.2587  0.8264 -0.0460
  718MOL0     C98951   7.138   2.376   4.654 -0.5178  0.4088 -0.4869
  718MOL0     C98952   7.277   2.384   4.674  0.0160  0.1090 -0.6096
  718MOL0     C98953   7.327   2.452   4.785  0.1120 -0.5328 -0.1540
  718MOL0     O98954   7.463   2.435   4.812 -1.0941 -0.0411 -0.3365
  718MOL0     C98955   7.515   2.460   4.946  0.4221  0.5047 -0.2312
  718MOL0     C98956   7.666   2.437   4.946 -0.4853  0.0821 -0.4924
  718MOL0     C98957   7.745   2.493   5.073 -0.5985  0.1155 -0.3891
  718MOL0     C98958   7.710   2.637   5.101 -0.0323 -0.4844  0.0638
  718MOL0     C98959   7.829   2.709   5.175 -1.1855  0.0785  0.1219
  718MOL0     C98960   7.834   2.670   5.327 -0.6863 -0.8440 -0.0178
  718MOL0     C98961   7.956   2.723   5.388 -0.0080 -0.3262  0.3791
  718MOL0     C98962   7.979   2.676   5.537  0.1729  0.3890  0.0313
  718MOL0     N98963   8.118   2.716   5.574  0.0715  0.7428  0.1405
  718MOL0     C98964   8.226   2.651   5.537 -0.1848  0.0887 -0.8875
  718MOL0     C98965   8.337   2.724   5.568  0.3657 -1.2134  0.4015
  718MOL0     C98966   8.479   2.677   5.546  0.0380 -0.2243 -0.2366
  718MOL0     C98967   8.577   2.688   5.673  0.2246 -0.3203 -0.2116
  718MOL0     C98968   8.714   2.611   5.653 -0.1650 -0.0784  0.1379
  718MOL0     C98969   8.815   2.665   5.763 -0.4477  0.4657  0.1950
  718MOL0     O98970   8.857   2.799   5.745  0.8240 -0.2512  0.1260
  718MOL0     C98971   8.881   2.878   5.858  1.3836 -0.2645  0.6287
  718MOL0     C98972   8.809   2.862   5.977  0.8324 -0.2907 -0.6464
  718MOL0     C98973   8.849   2.926   6.099 -0.1430 -1.2049 -0.4030
  718MOL0     C98974   8.770   2.891   6.226  0.0117 -0.1941  0.2174
  718MOL0     C98975   8.958   3.018   6.092 -1.1129 -0.8051 -0.7781
  718MOL0     C98976   9.030   3.084   6.205 -0.5376  0.4454 -0.2762
  718MOL0     O98977   9.046   3.007   6.320  0.3691 -1.0315  0.2554
  718MOL0     C98978   9.096   3.076   6.423 -0.3040 -0.6049  0.1079
  718MOL0     C98979   9.201   3.042   6.502  0.3557  0.5014  1.1516
  718MOL0     C98980   9.240   3.109   6.619 -0.0984  0.5626 -0.0369
  718MOL0     C98981   9.158   3.216   6.675 -0.5890 -0.8317  0.6644
  718MOL0     O98982   9.170   3.268   6.796  0.3208  0.0587 -0.0465
  718MOL0     C98983   9.268   3.231   6.890  0.4773 -0.0240 -0.3995
  718MOL0     C98984   9.404   3.275   6.851  0.5396  0.4279  0.1767
  718MOL0     C98985   9.422   3.424   6.883 -0.8601 -0.8199  0.4937
  718MOL0     C98986   9.572   3.467   6.875  0.3130 -0.3866  0.8840
  718MOL0     C98987   9.605   3.616   6.876  0.3751 -0.3948  0.1093
  718MOL0     C98988   9.570   3.688   7.014  0.4614 -0.2574  0.4984
  718MOL0     C98989   9.627   3.621   7.137  0.6150 -0.1172  0.5725
  718MOL0     C98990   9.581   3.693   7.258 -0.7601 -0.0883 -0.1069
  718MOL0    Cl98991   9.666   3.849   7.280  0.2167  0.0167 -0.4323
  718MOL0     C98992   9.040   3.242   6.598 -0.2947  0.6384  0.0818
  718MOL0     C98993   9.015   3.178   6.476  0.3290 -0.2509 -0.6446
  718MOL0     O98994   9.071   3.200   6.195  0.7547 -0.3155  1.3416
  718MOL0     C98995   9.015   3.047   5.968 -0.3392  0.2212 -0.8621
  718MOL0     C98996   8.969   2.984   5.855  0.4150 -0.6375 -0.3847
  718MOL0     N98997   8.291   2.843   5.626  0.0191  0.9748  0.0174
  718MOL0     N98998   8.160   2.834   5.629 -0.5890 -0.4554 -0.8687
  718MOL0     C98999   7.237   2.525   4.864 -0.5112  0.6246  0.8400
  718MOL0     C99000   7.096   2.519   4.837 -0.9244 -0.3658 -0.4083
  718MOL0     C99001   6.686   2.482   4.658  0.2436  0.3164  0.3125
  718MOL0     C99002   6.626   2.357   4.694  0.7667  0.1372 -0.0018
  718MOL0     C99003   6.490   2.340   4.654  0.3690  0.7466 -0.9210
  718MOL0     C99004   6.411   2.432   4.590 -0.4383  0.0605  0.7464
  718MOL0     O99005   6.278   2.406   4.572 -0.4538 -0.3550 -0.3116
  718MOL0     C99006   6.186   2.514   4.550 -0.2786 -0.2845  0.8872
  718MOL0     C99007   6.040   2.455   4.574  0.1466 -0.6120  0.3424
  718MOL0     C99008   6.001   2.344   4.469  0.3745 -0.5594  0.7042
  718MOL0     C99009   5.963   2.388   4.331  0.4375  0.3612 -0.2866
  718MOL0     C99010   6.040   2.329   4.219  0.2607  0.6771  0.1420
  718MOL0     C99011   6.063   2.270   4.113 -0.2196  0.1024 -0.4441
  718MOL0     C99012   6.471   2.551   4.556 -0.3572 -0.1292  0.4126
  718MOL0     C99013   6.607   2.577   4.588  0.8080 -0.4856  0.2444
  718MOL0     C99014   6.653   2.718   4.563  0.3139  0.1022  0.2357
  718MOL0     H99015   7.091   2.311   4.580 -2.8498 -0.7806  1.9004
  718MOL0     H99016   7.345   2.327   4.612  0.6222  0.7738 -0.5708
  718MOL0     H99017   7.467   2.388   5.013  0.2389  0.6651 -0.1887
  718MOL0     H99018   7.498   2.564   4.978 -1.0862  0.7291 -1.6023
  718MOL0     H99019   7.695   2.331   4.951 -0.6367  0.0648  0.1268
  718MOL0     H99020   7.715   2.483   4.860  1.9866  4.5446  2.8467
  718MOL0     H99021   7.729   2.429   5.160 -2.8647  0.8992 -0.1429
  718MOL0     H99022   7.853   2.481   5.060 -0.8594 -0.3518 -2.6400
  718MOL0     H99023   7.693   2.679   5.001  2.3272  1.0733  0.2150
  718MOL0     H99024   7.619   2.656   5.159  0.1686  0.3401  0.1219
  718MOL0     H99025   7.806   2.815   5.174  0.8068  0.5633  1.2289
  718MOL0     H99026   7.924   2.700   5.121 -0.7641  3.4131  0.1239
  718MOL0     H99027   7.743   2.703   5.378 -0.9105 -2.8320  0.9615
  718MOL0     H99028   7.842   2.563   5.345  1.0439 -0.6702  0.4275
  718MOL0     H99029   7.950   2.832   5.393  0.2303 -0.1964 -1.5259
  718MOL0     H99030   8.039   2.692   5.323 -0.2027 -0.5721  0.2456
  718MOL0     H99031   7.904   2.729   5.596 -0.6498 -1.5617  0.8330
  718MOL0     H99032   7.968   2.568   5.554 -1.2242 -0.1512 -3.4085
  718MOL0     H99033   8.232   2.555   5.486  1.1561  0.8934 -2.3460
  718MOL0     H99034   8.512   2.751   5.472  1.6290  1.2295  1.7983
  718MOL0     H99035   8.482   2.575   5.505 -0.3381 -0.0198 -0.7759
  718MOL0     H99036   8.595   2.796   5.675 -1.6274  0.2615 -4.2367
  718MOL0     H99037   8.519   2.651   5.758 -0.1958  0.7315 -0.0275
  718MOL0     H99038   8.702   2.503   5.663  0.0351 -0.0560  0.6819
  718MOL0     H99039   8.754   2.633   5.554  0.7313 -2.3600 -0.0687
  718MOL0     H99040   8.754   2.645   5.851 -2.0818 -3.9368 -1.6169
  718MOL0     H99041   8.902   2.598   5.766 -2.0946 -1.7837  1.2204
  718MOL0     H99042   8.729   2.790   5.981  0.6860 -0.2924 -2.7081
  718MOL0     H99043   8.842   2.847   6.296  0.9382  1.8588  0.6376
  718MOL0     H99044   8.688   2.821   6.209  1.6425 -1.8333 -1.4067
  718MOL0     H99045   8.742   2.992   6.257  1.3163 -0.2569  1.7078
  718MOL0     H99046   9.254   2.948   6.491 -1.1710 -0.3457  0.7656
  718MOL0     H99047   9.327   3.071   6.671 -1.7425 -1.0546  1.6900
  718MOL0     H99048   9.246   3.272   6.989 -1.9511 -2.0162 -0.0272
  718MOL0     H99049   9.272   3.122   6.900  0.4071 -0.0597 -0.7659
  718MOL0     H99050   9.474   3.222   6.916 -1.8062 -1.3177  1.4536
  718MOL0     H99051   9.429   3.270   6.745 -0.8593  1.7454 -0.2550
  718MOL0     H99052   9.385   3.447   6.984 -0.6681 -0.3434  0.4543
  718MOL0     H99053   9.367   3.490   6.816  0.7682  1.6986  1.4778
  718MOL0     H99054   9.618   3.419   6.788 -2.6134 -0.7776 -0.5656
  718MOL0     H99055   9.618   3.420   6.963 -0.0985 -0.3015  1.1456
  718MOL0     H99056   9.706   3.645   6.847  0.4143  0.4631  1.0612
  718MOL0     H99057   9.552   3.665   6.795  1.0762 -0.9111 -0.6749
  718MOL0     H99058   9.461   3.686   7.026  0.6074  0.2185  2.0121
  718MOL0     H99059   9.591   3.796   7.015 -0.3847  0.0468 -2.4173
  718MOL0     H99060   9.736   3.616   7.128  0.5095 -0.8892 -0.4450
  718MOL0     H99061   9.599   3.517   7.152 -1.5564  0.0999 -1.4471
  718MOL0     H99062   9.608   3.642   7.351 -0.9177  0.5764  0.3191
  718MOL0     H99063   9.471   3.700   7.261 -0.7107  0.5649  0.6263
  718MOL0     H99064   8.958   3.304   6.632  0.6535  2.2741 -0.5013
  718MOL0     H99065   8.922   3.202   6.427 -0.3653 -0.5057  0.5196
  718MOL0     H99066   9.101   3.113   5.962  1.8474 -1.6232  4.3633
  718MOL0     H99067   9.010   3.021   5.761  1.1476  0.7641  0.4574
  718MOL0     H99068   7.278   2.588   4.942 -3.8848  0.0067  3.3226
  718MOL0     H99069   7.028   2.567   4.907 -0.5681 -0.5341  0.0551
  718MOL0     H99070   6.669   2.276   4.753  0.4613  0.4898  0.7140
  718MOL0     H99071   6.446   2.244   4.681 -1.8294  1.4606 -1.7712
  718MOL0     H99072   6.191   2.602   4.615 -0.8423  1.5195 -1.3619
  718MOL0     H99073   6.177   2.557   4.450 -1.5017 -0.4690  0.9063
  718MOL0     H99074   5.972   2.540   4.570  2.9960  1.7742 -1.4317
  718MOL0     H99075   6.039   2.419   4.677  0.0043  0.6535  0.8010
  718MOL0     H99076   6.095   2.290   4.454 -1.2217 -2.7653 -2.7999
  718MOL0     H99077   5.934   2.264   4.503  0.0532 -1.9386 -2.8171
  718MOL0     H99078   5.964   2.497   4.324  2.0930  0.3534 -0.7005
  718MOL0     H99079   5.860   2.355   4.316  0.6772 -0.2188 -0.7027
  718MOL0     H99080   6.085   2.203   4.033 -1.4298 -1.4119  0.4240
  718MOL0     H99081   6.409   2.628   4.511  0.2175  0.1425  0.0728
  718MOL0     H99082   6.661   2.771   4.659 -2.3001 -0.1819  0.6769
  718MOL0     H99083   6.739   2.724   4.495 -1.7269  2.1032 -2.3486
  718MOL0     H99084   6.578   2.775   4.509  1.2169  1.1517  0.0486
  719MOL0     O99085   7.033   3.904   5.450  0.2733  0.0945  0.5404
  719MOL0     C99086   6.987   3.933   5.335 -0.0585  0.0090  0.4143
  719MOL0     O99087   7.066   3.951   5.226  0.7757  0.7950  0.4364
  719MOL0     C99088   7.199   3.933   5.233 -0.9346  1.0367  0.3853
  719MOL0     C99089   7.243   3.807   5.276  0.5462 -0.0012  0.0706
  719MOL0     C99090   7.378   3.778   5.283  0.5427  0.7404 -0.0715
  719MOL0     C99091   7.466   3.868   5.222  0.0536 -0.8404 -0.7931
  719MOL0     O99092   7.604   3.856   5.213  0.1073  0.0726 -0.6593
  719MOL0     C99093   7.667   3.729   5.252 -0.2315 -0.5894  0.2782
  719MOL0     C99094   7.808   3.717   5.198 -0.2872 -0.3319 -0.1014
  719MOL0     C99095   7.827   3.730   5.047  0.1619  0.3732  0.4765
  719MOL0     C99096   7.980   3.720   5.016 -0.3592 -0.3590  0.1463
  719MOL0     C99097   8.013   3.732   4.867  0.0756 -0.1119  0.2327
  719MOL0     C99098   7.979   3.604   4.791  0.5263 -0.6783 -0.2758
  719MOL0     C99099   8.047   3.622   4.652  0.2034 -1.0735 -0.2735
  719MOL0     C99100   7.996   3.515   4.553 -0.2331  0.4376  0.4579
  719MOL0     N99101   8.061   3.534   4.428  0.4165 -0.1803 -0.1187
  719MOL0     C99102   8.104   3.446   4.339 -0.7777 -0.1165  0.3433
  719MOL0     C99103   8.143   3.516   4.227 -0.2338  0.0369 -1.0088
  719MOL0     C99104   8.213   3.450   4.116  0.0551  0.7039 -0.4706
  719MOL0     C99105   8.351   3.521   4.093  0.1568 -0.4777 -0.9723
  719MOL0     C99106   8.335   3.638   4.001 -0.4303  0.1818 -0.0564
  719MOL0     C99107   8.477   3.694   3.980  0.2915 -0.2709 -0.2567
  719MOL0     O99108   8.468   3.794   3.879 -0.5518  0.1267 -0.0391
  719MOL0     C99109   8.570   3.883   3.842 -0.0729 -0.3552 -0.1878
  719MOL0     C99110   8.546   3.968   3.729  0.9885 -0.0591  0.2342
  719MOL0     C99111   8.645   4.040   3.666  0.7366 -0.3324  0.3528
  719MOL0     C99112   8.595   4.119   3.550 -0.0689 -0.1965  0.0396
  719MOL0     C99113   8.773   4.038   3.719  1.2517 -0.0782  0.0184
  719MOL0     C99114   8.880   4.108   3.650 -0.6509  0.6038  0.3105
  719MOL0     O99115   9.006   4.069   3.699 -0.4835 -0.6666 -0.2183
  719MOL0     C99116   9.109   4.124   3.626  0.1256 -0.8078 -0.1415
  719MOL0     C99117   9.152   4.244   3.681 -0.7270  0.5027 -0.0647
  719MOL0     C99118   9.251   4.318   3.621 -0.0692  0.0369 -0.1840
  719MOL0     C99119   9.311   4.274   3.500 -0.2383  0.0245 -0.9742
  719MOL0     O99120   9.407   4.352   3.449  0.4402 -0.1608  0.4695
  719MOL0     C99121   9.510   4.280   3.376 -0.3486 -0.6346 -0.1591
  719MOL0     C99122   9.623   4.379   3.341 -0.2622  0.4426  0.4742
  719MOL0     C99123   9.716   4.330   3.229  0.2365 -0.1974  0.9676
  719MOL0     C99124   9.772   4.197   3.274 -0.6789 -0.7531 -0.2411
  719MOL0     C99125   9.863   4.134   3.167  0.7494 -1.0983  0.1191
  719MOL0     C99126   9.891   3.983   3.188 -0.2481 -0.5179  0.4413
  719MOL0     C99127   9.996   3.927   3.090  0.1446 -0.4649 -0.3247
  719MOL0     C99128  10.125   4.002   3.061  0.0986  0.0730 -0.1418
  719MOL0    Cl99129  10.191   3.939   2.912  0.1752  0.1993  0.3631
  719MOL0     C99130   9.256   4.155   3.447  0.0976  0.0396  0.2832
  719MOL0     C99131   9.150   4.084   3.501  0.4131  0.3747  1.4522
  719MOL0     O99132   8.864   4.203   3.576  0.4534 -0.1787  0.1116
  719MOL0     C99133   8.797   3.958   3.832  1.2512  0.2664 -0.6778
  719MOL0     C99134   8.697   3.882   3.890 -0.4746  0.4374 -1.0535
  719MOL0     N99135   8.115   3.652   4.255  0.1209  0.2455 -0.4131
  719MOL0     N99136   8.066   3.657   4.372 -0.4642 -0.0066 -0.3401
  719MOL0     C99137   7.422   3.987   5.163  0.1240  0.3128 -0.1051
  719MOL0     C99138   7.291   4.028   5.177  0.1470  0.4823 -0.3424
  719MOL0     C99139   6.848   3.955   5.311 -0.6250  0.0970 -0.3894
  719MOL0     C99140   6.756   3.856   5.313  0.1573 -0.2229  0.1909
  719MOL0     C99141   6.618   3.882   5.300 -0.1094  0.6745  0.2999
  719MOL0     C99142   6.574   4.018   5.282 -1.2382  0.6147 -0.8342
  719MOL0     O99143   6.446   4.038   5.262  0.3267 -0.0021  0.4582
  719MOL0     C99144   6.365   3.995   5.375 -0.4440 -0.5112 -0.7899
  719MOL0     C99145   6.302   4.122   5.431 -0.3572 -0.0256  0.0735
  719MOL0     C99146   6.215   4.171   5.310 -0.0062  0.4044 -1.0911
  719MOL0     C99147   6.108   4.273   5.344 -0.9799 -1.1264  0.1206
  719MOL0     C99148   6.029   4.243   5.466  0.4642  0.3550  0.0150
  719MOL0     C99149   5.952   4.220   5.554  0.5306 -0.0780 -0.0460
  719MOL0     C99150   6.674   4.118   5.277 -0.0852 -0.5867  0.0030
  719MOL0     C99151   6.811   4.089   5.302  0.6741  0.9997  1.0966
  719MOL0     C99152   6.914   4.206   5.293 -0.4582  0.6145 -0.8694
  719MOL0     H99153   7.171   3.737   5.316 -0.6446 -1.0317 -3.4727
  719MOL0     H99154   7.408   3.683   5.324 -0.6399 -0.1647 -1.2311
  719MOL0     H99155   7.606   3.645   5.216 -0.3730 -0.8912  1.2038
  719MOL0     H99156   7.686   3.723   5.359  0.0742  0.0507  0.2667
  719MOL0     H99157   7.882   3.785   5.242  1.3418 -0.7397 -2.0209
  719MOL0     H99158   7.847   3.618   5.221  0.7101 -0.7338 -3.0410
  719MOL0     H99159   7.777   3.641   5.007 -2.9760  2.1343  0.1620
  719MOL0     H99160   7.775   3.813   5.000  0.5065 -0.2296 -1.0580
  719MOL0     H99161   8.022   3.801   5.075 -0.2882  0.3439 -0.8421
  719MOL0     H99162   8.022   3.624   5.046 -0.9914 -2.3843 -4.4868
  719MOL0     H99163   8.122   3.734   4.858  0.0311 -1.7785 -1.0745
  719MOL0     H99164   7.965   3.819   4.821  0.0479  0.0092  0.4867
  719MOL0     H99165   8.009   3.511   4.841  0.0914 -0.2543  0.8005
  719MOL0     H99166   7.871   3.597   4.779  0.4261 -0.5102  0.5094
  719MOL0     H99167   8.156   3.627   4.644  0.1499 -0.9237 -1.0687
  719MOL0     H99168   8.014   3.718   4.612  0.3370 -1.9161 -2.6126
  719MOL0     H99169   8.011   3.414   4.593  0.0786  0.2232 -0.1781
  719MOL0     H99170   7.892   3.545   4.543 -0.7554 -1.1861  0.6272
  719MOL0     H99171   8.121   3.340   4.357 -0.3190 -0.2206 -0.6663
  719MOL0     H99172   8.155   3.452   4.023 -0.8642 -2.9893 -0.1378
  719MOL0     H99173   8.216   3.342   4.135 -0.0600  0.7518 -0.1892
  719MOL0     H99174   8.406   3.548   4.184 -0.4187 -1.4219 -0.3175
  719MOL0     H99175   8.416   3.443   4.053 -1.8525 -2.1723 -1.1411
  719MOL0     H99176   8.305   3.589   3.908 -1.9082  3.0245 -1.2290
  719MOL0     H99177   8.271   3.717   4.041  1.9396  1.5094  1.3373
  719MOL0     H99178   8.528   3.736   4.067  0.7676 -0.4068 -0.4657
  719MOL0     H99179   8.538   3.613   3.937 -0.9828 -2.0307  1.1323
  719MOL0     H99180   8.443   3.965   3.696  0.0584 -0.1126  2.8706
  719MOL0     H99181   8.596   4.223   3.587  1.3722  0.2210 -1.0632
  719MOL0     H99182   8.496   4.085   3.519 -0.1147 -2.0860  2.0137
  719MOL0     H99183   8.667   4.121   3.468  1.0056 -0.9606  0.9425
  719MOL0     H99184   9.129   4.276   3.783 -0.1660  2.7847 -0.5946
  719MOL0     H99185   9.278   4.412   3.669 -3.9909  0.5890  1.2680
  719MOL0     H99186   9.556   4.197   3.430 -1.3457 -2.4657 -2.0090
  719MOL0     H99187   9.461   4.248   3.284 -0.8571 -0.5576  0.0828
  719MOL0     H99188   9.560   4.457   3.295  1.7657  0.3236 -2.8486
  719MOL0     H99189   9.683   4.412   3.426  2.0117 -0.2889 -0.7574
  719MOL0     H99190   9.797   4.402   3.215  0.6145 -0.9814 -1.2921
  719MOL0     H99191   9.655   4.331   3.138  1.5918  0.4101  0.0231
  719MOL0     H99192   9.682   4.137   3.288 -2.2486  1.2039 -1.3107
  719MOL0     H99193   9.824   4.206   3.369 -1.0615  4.0544 -0.2281
  719MOL0     H99194   9.807   4.146   3.074 -1.7379 -0.2730  1.6185
  719MOL0     H99195   9.964   4.178   3.170  0.0890  0.4587  2.4851
  719MOL0     H99196   9.796   3.929   3.193 -0.0207 -0.9771 -0.1063
  719MOL0     H99197   9.938   3.974   3.286  1.3064 -2.3334 -0.4103
  719MOL0     H99198   9.939   3.905   3.000 -0.3800  1.7566 -0.5870
  719MOL0     H99199  10.032   3.827   3.117 -0.4724 -0.1435  1.8715
  719MOL0     H99200  10.199   3.992   3.140 -0.7600  2.1475  0.9856
  719MOL0     H99201  10.109   4.110   3.053  1.7222  0.3589  0.2256
  719MOL0     H99202   9.304   4.115   3.359 -1.8880  0.4958 -1.0822
  719MOL0     H99203   9.141   3.988   3.452 -0.2881  1.4271 -0.5747
  719MOL0     H99204   8.897   3.942   3.873  1.0214 -1.9429 -0.8213
  719MOL0     H99205   8.726   3.813   3.968  2.6365  1.2232 -1.4108
  719MOL0     H99206   7.495   4.043   5.106  0.4886  0.4283  0.4617
  719MOL0     H99207   7.263   4.123   5.134  3.0434  0.8621 -1.6291
  719MOL0     H99208   6.787   3.754   5.333 -0.0098 -0.3462 -0.1870
  719MOL0     H99209   6.546   3.801   5.292  0.6391  0.0572 -0.3529
  719MOL0     H99210   6.291   3.919   5.347 -1.3243  0.5659 -1.4775
  719MOL0     H99211   6.421   3.957   5.461  2.0549  1.4568 -1.4432
  719MOL0     H99212   6.377   4.194   5.463  0.4658  0.1276 -2.0317
  719MOL0     H99213   6.242   4.105   5.521 -1.7202  1.8332 -0.4228
  719MOL0     H99214   6.279   4.219   5.236  1.3894 -0.6547 -0.6015
  719MOL0     H99215   6.168   4.084   5.263 -1.9825 -0.2885  1.8615
  719MOL0     H99216   6.044   4.287   5.256  1.4021  0.4667 -1.4744
  719MOL0     H99217   6.160   4.370   5.346 -0.3764 -1.2875 -2.7914
  719MOL0     H99218   5.887   4.217   5.639  0.4875  3.4025  0.1963
  719MOL0     H99219   6.649   4.221   5.255 -0.1917 -0.8046 -0.9036
  719MOL0     H99220   6.959   4.203   5.194 -2.8349  2.4071 -2.0888
  719MOL0     H99221   6.871   4.306   5.307 -0.3865  0.4969  0.2944
  719MOL0     H99222   6.995   4.193   5.365 -1.3088 -0.1048 -0.0042
  720MOL0     O99223   4.023   7.717   2.870 -0.8832  0.7415 -0.1807
  720MOL0     C99224   4.015   7.803   2.952 -1.0342 -0.7886 -0.5363
  720MOL0     O99225   4.125   7.855   3.018 -0.2739 -0.1656 -0.0473
  720MOL0     C99226   4.249   7.807   2.993  0.0595 -0.2410  0.2340
  720MOL0     C99227   4.311   7.755   3.095 -0.3281 -0.4167 -0.1782
  720MOL0     C99228   4.443   7.706   3.076  0.4847 -0.2812  0.0664
  720MOL0     C99229   4.505   7.719   2.952 -0.7167 -0.5371  0.1103
  720MOL0     O99230   4.639   7.682   2.937 -0.4248  0.1318  0.1758
  720MOL0     C99231   4.712   7.787   3.001 -0.5447  0.1186 -0.0589
  720MOL0     C99232   4.863   7.758   2.981  0.0460 -0.3799 -0.0817
  720MOL0     C99233   4.906   7.620   3.044  0.0038 -0.1048  0.1895
  720MOL0     C99234   5.060   7.600   3.072 -0.3966 -0.8674  0.3161
  720MOL0     C99235   5.093   7.452   3.071 -0.8752 -1.1795 -0.2828
  720MOL0     C99236   5.237   7.420   3.083 -1.2023  0.2379 -0.0151
  720MOL0     C99237   5.273   7.273   3.031 -0.3004  0.1139 -0.1066
  720MOL0     C99238   5.415   7.230   3.062  0.2483  0.5324  0.5433
  720MOL0     N99239   5.454   7.107   2.991  0.0504  0.7005 -0.0366
  720MOL0     C99240   5.525   7.111   2.870  0.5959  0.4686  0.6764
  720MOL0     C99241   5.549   6.984   2.838 -0.1766  0.1779 -0.3449
  720MOL0     C99242   5.624   6.938   2.712 -0.0997  0.0387 -0.4662
  720MOL0     C99243   5.760   6.884   2.752 -0.3562  0.1013 -0.0063
  720MOL0     C99244   5.855   6.840   2.646 -0.4282 -0.6124 -0.2543
  720MOL0     C99245   5.988   6.788   2.703  0.2918 -0.6743  0.8076
  720MOL0     O99246   6.061   6.904   2.755  0.2189  0.3413 -0.5105
  720MOL0     C99247   6.193   6.907   2.738 -0.2211 -0.6299 -1.4123
  720MOL0     C99248   6.265   7.022   2.774 -0.5198  0.3235 -0.2875
  720MOL0     C99249   6.401   7.036   2.771  0.1998 -0.2837 -0.0495
  720MOL0     C99250   6.454   7.161   2.825  0.2608  0.5532 -0.8453
  720MOL0     C99251   6.476   6.936   2.696 -0.1059 -0.1062  0.6847
  720MOL0     C99252   6.618   6.944   2.652 -0.5979 -0.3281  0.2090
  720MOL0     O99253   6.679   6.829   2.587 -0.8575 -0.8461 -0.5983
  720MOL0     C99254   6.809   6.836   2.555 -0.8162  0.0128  0.3717
  720MOL0     C99255   6.913   6.859   2.639 -0.3259 -0.2111 -0.5549
  720MOL0     C99256   7.046   6.826   2.608  0.3353  0.7914 -0.4419
  720MOL0     C99257   7.083   6.762   2.487  0.8551  0.0134 -0.9186
  720MOL0     O99258   7.210   6.720   2.478 -0.7646  0.8297  0.3764
  720MOL0     C99259   7.212   6.574   2.455  0.8046  0.7248 -0.7651
  720MOL0     C99260   7.345   6.507   2.438 -0.2298 -0.3715 -0.0376
  720MOL0     C99261   7.406   6.492   2.572 -0.5681  0.1219  0.4804
  720MOL0     C99262   7.531   6.382   2.568 -0.6367  0.6038 -0.0573
  720MOL0     C99263   7.569   6.319   2.705  0.2542  0.3089 -1.0302
  720MOL0     C99264   7.637   6.407   2.804 -0.2225  0.3937 -0.0178
  720MOL0     C99265   7.783   6.451   2.778  0.1818  0.6372  0.3419
  720MOL0     C99266   7.826   6.556   2.876  0.7816 -0.3650  0.1442
  720MOL0    Cl99267   7.928   6.460   2.984 -0.0236 -0.1807 -0.5330
  720MOL0     C99268   6.981   6.757   2.392  0.3017 -0.4244  1.2317
  720MOL0     C99269   6.849   6.803   2.422  0.1931 -0.7527 -0.4945
  720MOL0     O99270   6.665   7.059   2.661 -1.1019 -0.0039 -0.2983
  720MOL0     C99271   6.402   6.818   2.656 -0.5160  0.5022 -0.6437
  720MOL0     C99272   6.269   6.794   2.689  0.6153 -0.5095  0.2532
  720MOL0     N99273   5.486   6.900   2.941  0.2272 -0.3385  0.0167
  720MOL0     N99274   5.430   6.975   3.027  0.1358  0.1553  0.4614
  720MOL0     C99275   4.440   7.779   2.845 -0.1393  0.1101 -0.1121
  720MOL0     C99276   4.311   7.815   2.863  0.0759  0.1261 -0.1561
  720MOL0     C99277   3.893   7.878   2.977  0.3982  0.3561  0.6315
  720MOL0     C99278   3.892   7.966   3.093 -0.0011  0.5274  0.6419
  720MOL0     C99279   3.772   8.030   3.118  0.4589  0.4743  0.4603
  720MOL0     C99280   3.651   8.014   3.047  0.1450 -0.9894 -1.4288
  720MOL0     O99281   3.528   8.056   3.088 -0.0410 -0.0533 -0.0987
  720MOL0     C99282   3.523   8.125   3.217  0.6667 -0.5109  0.8983
  720MOL0     C99283   3.371   8.143   3.249  0.1889  0.1272  0.1449
  720MOL0     C99284   3.315   8.002   3.281  1.5064  0.4008 -0.3463
  720MOL0     C99285   3.173   8.001   3.343  0.5133 -0.3467 -0.1389
  720MOL0     C99286   3.174   8.086   3.468  0.3117 -0.4101  0.0590
  720MOL0     C99287   3.164   8.161   3.559 -0.1200  0.2447  0.3592
  720MOL0     C99288   3.652   7.926   2.942 -0.3724  0.0770  0.7259
  720MOL0     C99289   3.769   7.858   2.901 -0.2019  0.8569  0.0232
  720MOL0     C99290   3.749   7.752   2.805 -0.3875  1.0442 -0.3607
  720MOL0     H99291   4.277   7.736   3.196  3.4912 -0.3943  1.2756
  720MOL0     H99292   4.498   7.659   3.157  0.1250 -1.6039 -0.4242
  720MOL0     H99293   4.681   7.785   3.106 -0.3088  0.0155  0.0084
  720MOL0     H99294   4.694   7.885   2.956  2.1410  0.5113 -0.4370
  720MOL0     H99295   4.880   7.750   2.874  0.8236  0.1132 -0.0052
  720MOL0     H99296   4.922   7.846   3.010  1.3828  0.0745 -3.6360
  720MOL0     H99297   4.847   7.597   3.133 -0.6493 -0.8522 -0.4091
  720MOL0     H99298   4.872   7.548   2.968 -0.3314  0.2084  0.0399
  720MOL0     H99299   5.120   7.649   2.994 -1.9503  1.8994  0.7111
  720MOL0     H99300   5.081   7.650   3.168 -3.0003  0.1200  0.4430
  720MOL0     H99301   5.055   7.423   2.972 -2.0408 -2.9023  0.6209
  720MOL0     H99302   5.031   7.413   3.153  0.1950 -0.0092  1.1314
  720MOL0     H99303   5.297   7.501   3.041  1.9082 -1.0210  1.6695
  720MOL0     H99304   5.262   7.427   3.189 -3.3308  1.7959  0.4456
  720MOL0     H99305   5.264   7.259   2.923  1.7181 -0.6643 -0.2190
  720MOL0     H99306   5.204   7.206   3.082  0.3746  0.7412  1.7157
  720MOL0     H99307   5.471   7.321   3.038 -2.9129  2.6769  0.7538
  720MOL0     H99308   5.430   7.206   3.168 -0.7602 -0.6220  0.4451
  720MOL0     H99309   5.567   7.190   2.809 -3.2634 -0.5271 -3.8629
  720MOL0     H99310   5.635   7.018   2.637  1.8157 -0.3283 -0.6453
  720MOL0     H99311   5.574   6.849   2.674 -1.5439  0.3883  0.5666
  720MOL0     H99312   5.810   6.964   2.808 -1.1402 -0.4460  1.5161
  720MOL0     H99313   5.744   6.800   2.820 -1.9686 -0.3203 -0.8654
  720MOL0     H99314   5.809   6.757   2.591 -0.3406  0.9405 -2.8475
  720MOL0     H99315   5.869   6.928   2.584 -2.2975 -0.9645 -1.2657
  720MOL0     H99316   5.978   6.712   2.782 -0.7257  1.1901  2.5891
  720MOL0     H99317   6.039   6.745   2.617  1.0509  0.0022  0.9096
  720MOL0     H99318   6.211   7.108   2.810  2.3385  2.2986 -0.4130
  720MOL0     H99319   6.547   7.132   2.875 -0.3875 -2.0486 -1.0107
  720MOL0     H99320   6.389   7.199   2.904 -1.0825 -1.1391 -1.0694
  720MOL0     H99321   6.463   7.240   2.750  0.8532  2.1845  0.8751
  720MOL0     H99322   6.893   6.887   2.742  0.9630  0.7482 -0.5525
  720MOL0     H99323   7.124   6.835   2.683  2.5849 -1.4586 -2.3298
  720MOL0     H99324   7.161   6.532   2.542  2.9462  2.6703  1.6017
  720MOL0     H99325   7.152   6.556   2.366 -2.1680  2.7282  0.6597
  720MOL0     H99326   7.316   6.409   2.400 -1.2869 -0.7967  1.7843
  720MOL0     H99327   7.408   6.560   2.364  0.3570 -0.2595  0.5352
  720MOL0     H99328   7.336   6.457   2.649  0.0598 -1.5665  0.3291
  720MOL0     H99329   7.454   6.586   2.601  0.1909 -0.6643  1.8911
  720MOL0     H99330   7.623   6.424   2.527 -0.0053 -0.0324  0.6594
  720MOL0     H99331   7.502   6.302   2.500  1.9724 -0.8995  0.4445
  720MOL0     H99332   7.466   6.301   2.739  0.9500 -0.8171  0.5672
  720MOL0     H99333   7.619   6.222   2.702  0.6690  0.2466  3.0524
  720MOL0     H99334   7.630   6.352   2.898 -1.2589 -2.9209 -1.8637
  720MOL0     H99335   7.579   6.500   2.803 -0.6970  0.1351  1.1970
  720MOL0     H99336   7.785   6.501   2.681 -0.0066 -1.1398 -0.6248
  720MOL0     H99337   7.848   6.366   2.757  0.5414  1.3627 -1.6793
  720MOL0     H99338   7.741   6.598   2.930 -1.0315 -1.1167 -1.9656
  720MOL0     H99339   7.889   6.635   2.835 -0.9514  1.8533  1.5539
  720MOL0     H99340   7.007   6.704   2.301  0.3357 -1.1727  1.6756
  720MOL0     H99341   6.770   6.786   2.350 -1.3103  1.5317  0.4970
  720MOL0     H99342   6.452   6.728   2.621 -0.8640  0.2068 -0.3786
  720MOL0     H99343   6.224   6.697   2.671 -0.7620  0.2394 -0.4888
  720MOL0     H99344   4.487   7.791   2.748  0.9003 -1.6146  0.1306
  720MOL0     H99345   4.246   7.849   2.783 -0.5736 -1.1187 -0.1806
  720MOL0     H99346   3.984   7.990   3.146  2.3919  1.4517 -3.4234
  720MOL0     H99347   3.762   8.092   3.207  0.7036  3.1038 -1.2407
  720MOL0     H99348   3.581   8.070   3.291  4.0554 -1.8025 -2.3809
  720MOL0     H99349   3.574   8.222   3.207  3.0718 -1.5768  2.1205
  720MOL0     H99350   3.312   8.192   3.171 -2.0721  0.2756  1.8417
  720MOL0     H99351   3.357   8.202   3.340 -3.3962  2.0711 -1.4617
  720MOL0     H99352   3.304   7.950   3.185  1.5560  0.6104 -0.4679
  720MOL0     H99353   3.375   7.946   3.353  0.4651 -1.3867 -0.8362
  720MOL0     H99354   3.145   7.897   3.364  1.3147 -0.1757  2.0452
  720MOL0     H99355   3.097   8.039   3.273  0.5951 -1.9105 -1.1314
  720MOL0     H99356   3.135   8.209   3.650 -2.0115  0.4294 -0.2878
  720MOL0     H99357   3.560   7.906   2.887 -0.7845 -0.9809  1.7452
  720MOL0     H99358   3.770   7.652   2.846 -2.7800  0.1340 -1.1722
  720MOL0     H99359   3.644   7.741   2.778 -0.4978 -1.4138  0.8056
  720MOL0     H99360   3.823   7.770   2.726 -0.8257  1.8605 -0.5931
  721MOL0     O99361   0.594   5.054   9.643 -0.4993 -1.0207 -0.1422
  721MOL0     C99362   0.593   4.960   9.720 -0.5434 -0.0166  0.1072
  721MOL0     O99363   0.705   4.914   9.771  0.4055 -0.0584  0.2023
  721MOL0     C99364   0.833   4.946   9.725  1.1369  0.2333 -0.1725
  721MOL0     C99365   0.937   4.909   9.812  0.5558  0.1962  0.5204
  721MOL0     C99366   1.069   4.925   9.782  0.0997 -0.9029  0.7202
  721MOL0     C99367   1.113   4.971   9.660  0.1335  0.6336  0.7058
  721MOL0     O99368   1.245   4.981   9.634 -0.3182  0.3577 -0.3375
  721MOL0     C99369   1.293   4.955   9.500  0.3750 -0.0167 -0.7666
  721MOL0     C99370   1.442   4.946   9.504  0.4568  0.4963  0.8052
  721MOL0     C99371   1.488   4.827   9.585  0.6626 -0.2759  0.8642
  721MOL0     C99372   1.626   4.777   9.564  0.1361 -0.0144  0.7832
  721MOL0     C99373   1.663   4.666   9.668 -0.0628  0.3776 -0.4887
  721MOL0     C99374   1.815   4.610   9.653 -0.3552 -0.1191 -0.7184
  721MOL0     C99375   1.850   4.530   9.772  0.1332  0.2691 -0.6441
  721MOL0     C99376   1.776   4.388   9.784 -0.1597 -0.3811 -0.1165
  721MOL0     N99377   1.843   4.294   9.695 -0.0540 -0.2047  0.3718
  721MOL0     C99378   1.962   4.223   9.717 -0.7583 -0.0857 -0.0720
  721MOL0     C99379   1.980   4.149   9.605 -1.2245 -0.0552 -0.4704
  721MOL0     C99380   2.095   4.063   9.566  0.4746 -0.3997 -0.1872
  721MOL0     C99381   2.173   4.122   9.445 -1.2675  1.0819 -0.0859
  721MOL0     C99382   2.304   4.200   9.488  0.1017  1.0018 -0.3146
  721MOL0     C99383   2.368   4.281   9.372 -0.5442 -0.6541 -0.6790
  721MOL0     O99384   2.479   4.210   9.319 -0.2408  0.2506 -0.4263
  721MOL0     C99385   2.593   4.185   9.394 -0.0089 -0.4137 -0.9957
  721MOL0     C99386   2.620   4.257   9.519  0.1834  0.3614  0.8492
  721MOL0     C99387   2.720   4.222   9.605  0.4077 -0.7128 -0.1291
  721MOL0     C99388   2.740   4.321   9.721  0.0732 -0.4281 -0.2465
  721MOL0     C99389   2.805   4.111   9.583 -0.4682 -0.4102 -0.6295
  721MOL0     C99390   2.906   4.064   9.668  0.5137 -0.1845  0.0236
  721MOL0     O99391   2.996   4.150   9.713  0.6785  0.4911 -0.0021
  721MOL0     C99392   3.078   4.106   9.814  0.3450 -0.1209  0.3791
  721MOL0     C99393   3.073   4.173   9.941  0.4632 -0.8282 -0.3204
  721MOL0     C99394   3.140   4.118  10.054 -0.1093  0.3303  0.6022
  721MOL0     C99395   3.224   4.005  10.046  0.1897  0.2031 -1.0376
  721MOL0     O99396   3.312   3.978  10.147  0.0877  0.2175 -0.2832
  721MOL0     C99397   3.419   3.895  10.116  0.2661  0.3236  0.4177
  721MOL0     C99398   3.502   3.893  10.237 -0.0253  0.4372 -0.5459
  721MOL0     C99399   3.578   4.024  10.267 -1.0567  0.3416  0.2557
  721MOL0     C99400   3.689   4.003  10.375  0.2614 -0.3114 -0.5663
  721MOL0     C99401   3.744   4.139  10.418 -0.2560  0.2960 -1.4058
  721MOL0     C99402   3.795   4.236  10.310  1.0447  0.6181  0.9400
  721MOL0     C99403   3.863   4.366  10.358  0.7565  0.1170  0.4968
  721MOL0     C99404   3.788   4.440  10.475 -0.1405 -0.1160  0.2876
  721MOL0    Cl99405   3.888   4.579  10.537  0.1024 -0.1208 -0.1005
  721MOL0     C99406   3.230   3.948   9.917  0.2924  0.1373 -0.6135
  721MOL0     C99407   3.156   3.991   9.808 -0.2516  0.2281  0.3929
  721MOL0     O99408   2.906   3.940   9.687 -0.6534 -0.6590 -0.2440
  721MOL0     C99409   2.788   4.050   9.462 -0.0977  0.3316  1.0535
  721MOL0     C99410   2.694   4.086   9.360 -1.2731 -0.3431 -0.1993
  721MOL0     N99411   1.876   4.174   9.521  0.1999 -0.5429  0.4380
  721MOL0     N99412   1.795   4.255   9.573  0.4349  0.4921 -1.8018
  721MOL0     C99413   1.013   4.985   9.562  0.2562  1.0101  0.1853
  721MOL0     C99414   0.872   4.971   9.597 -0.1117  0.0196  0.1106
  721MOL0     C99415   0.468   4.892   9.754 -0.2041 -0.4179 -0.7268
  721MOL0     C99416   0.472   4.762   9.817  0.2293 -0.2429  0.0823
  721MOL0     C99417   0.357   4.704   9.852  0.4862  0.1353 -0.9315
  721MOL0     C99418   0.235   4.759   9.835  0.1323 -0.0987 -0.4299
  721MOL0     O99419   0.127   4.688   9.881 -0.4570  0.4714 -0.3519
  721MOL0     C99420   0.011   4.759   9.916  0.5683 -0.2997  0.6799
  721MOL0     C99421  -0.097   4.668   9.981  0.7217 -0.3102  0.0724
  721MOL0     C99422  -0.216   4.739  10.033 -0.5067  0.6745 -0.3711
  721MOL0     C99423  -0.200   4.820  10.162 -0.3746  0.7005 -0.6341
  721MOL0     C99424  -0.331   4.881  10.210 -0.3845  0.3078  0.1685
  721MOL0     C99425  -0.433   4.929  10.245  0.1507  1.0310 -0.6453
  721MOL0     C99426   0.226   4.881   9.769  0.3917  0.0432  0.2838
  721MOL0     C99427   0.343   4.946   9.723  0.8481  0.5911 -0.1825
  721MOL0     C99428   0.320   5.075   9.644  0.1382 -0.0037 -0.6638
  721MOL0     H99429   0.907   4.870   9.908  1.5437 -0.7892  0.4524
  721MOL0     H99430   1.141   4.904   9.860  1.1088 -0.4403 -0.0661
  721MOL0     H99431   1.267   5.032   9.427 -0.1593  2.3344  1.7337
  721MOL0     H99432   1.252   4.862   9.459  0.3320 -0.6614  0.6887
  721MOL0     H99433   1.464   4.923   9.399  0.6857 -1.4673  1.2513
  721MOL0     H99434   1.486   5.042   9.533  2.5887 -0.3462  0.5120
  721MOL0     H99435   1.476   4.861   9.688 -1.7508  0.2200  0.4827
  721MOL0     H99436   1.422   4.740   9.576 -1.7614  1.4810  0.6789
  721MOL0     H99437   1.622   4.727   9.467  3.2565 -1.4089  1.2857
  721MOL0     H99438   1.690   4.866   9.572  0.2073 -0.0928  1.0700
  721MOL0     H99439   1.597   4.579   9.673  2.4776 -1.6864 -0.6999
  721MOL0     H99440   1.663   4.713   9.767  0.0979  0.8771 -0.7168
  721MOL0     H99441   1.819   4.559   9.556 -0.6135  0.2303 -0.9159
  721MOL0     H99442   1.892   4.688   9.658  2.0267 -2.2943 -1.4964
  721MOL0     H99443   1.822   4.583   9.863  2.3947  1.5170 -0.6143
  721MOL0     H99444   1.957   4.507   9.774 -0.5404 -3.6448 -1.8302
  721MOL0     H99445   1.787   4.347   9.885  1.0967 -1.1992 -0.5553
  721MOL0     H99446   1.669   4.400   9.765  0.1928  1.8099 -0.9410
  721MOL0     H99447   2.030   4.229   9.801  1.8382  0.6510 -2.1180
  721MOL0     H99448   2.048   3.967   9.544 -2.1423  0.6609  0.3502
  721MOL0     H99449   2.163   4.049   9.650  0.4783 -2.2754 -0.4660
  721MOL0     H99450   2.188   4.040   9.375 -0.0055  2.0584 -1.0197
  721MOL0     H99451   2.113   4.185   9.378  0.0730  1.2081 -1.2022
  721MOL0     H99452   2.276   4.273   9.564  1.1187  1.0256  0.0474
  721MOL0     H99453   2.379   4.136   9.537 -0.7114  0.4208  0.2096
  721MOL0     H99454   2.294   4.297   9.292 -0.8523 -0.0332 -0.2776
  721MOL0     H99455   2.399   4.382   9.399  0.1710 -0.9639 -0.3229
  721MOL0     H99456   2.579   4.352   9.554  2.0437  0.3632  3.3026
  721MOL0     H99457   2.651   4.377   9.751  2.3242  1.7859  2.9433
  721MOL0     H99458   2.811   4.398   9.689 -1.5666  1.1991 -0.1472
  721MOL0     H99459   2.779   4.274   9.812  2.3501 -3.5338 -2.6037
  721MOL0     H99460   3.009   4.259   9.959 -0.3372 -1.6063  0.6697
  721MOL0     H99461   3.132   4.167  10.151 -0.4499  0.9607  0.2624
  721MOL0     H99462   3.393   3.790  10.099 -0.7259  0.6222  0.0180
  721MOL0     H99463   3.463   3.940  10.027 -1.5931 -0.9127 -1.2230
  721MOL0     H99464   3.435   3.880  10.322  1.3360  1.4878  0.7544
  721MOL0     H99465   3.569   3.807  10.248  0.4435  1.0205  1.8642
  721MOL0     H99466   3.515   4.106  10.304  0.3323  1.7315 -0.3469
  721MOL0     H99467   3.624   4.060  10.174 -3.7625 -0.3492 -1.4776
  721MOL0     H99468   3.766   3.937  10.334  2.1871  0.2541  1.8565
  721MOL0     H99469   3.632   3.942  10.445 -3.2924  3.6207  0.3795
  721MOL0     H99470   3.669   4.193  10.477  0.2792 -0.9495  0.5247
  721MOL0     H99471   3.823   4.119  10.491  0.4787  2.6584 -1.4803
  721MOL0     H99472   3.708   4.258  10.248  0.8279 -1.1673  0.5679
  721MOL0     H99473   3.862   4.178  10.245  1.1864 -1.1714  2.6134
  721MOL0     H99474   3.879   4.429  10.271 -2.0528 -2.5431 -2.1934
  721MOL0     H99475   3.965   4.347  10.393  0.2621  0.3203  2.1436
  721MOL0     H99476   3.782   4.358  10.548 -0.4933 -1.4761 -1.2060
  721MOL0     H99477   3.691   4.475  10.438  0.0806  0.8792  0.6453
  721MOL0     H99478   3.296   3.863   9.901  2.4262  1.3261  1.3575
  721MOL0     H99479   3.163   3.933   9.716 -0.4196 -1.0460  1.1582
  721MOL0     H99480   2.855   3.967   9.437  0.2988  1.0830 -0.5334
  721MOL0     H99481   2.687   4.023   9.272  2.6571 -0.9661 -0.2343
  721MOL0     H99482   1.035   5.014   9.460 -1.2251  1.1913 -0.0961
  721MOL0     H99483   0.786   4.978   9.532  0.8696  0.0156 -1.2229
  721MOL0     H99484   0.572   4.727   9.837  0.0275 -0.4163  0.8103
  721MOL0     H99485   0.363   4.607   9.900  0.6639  0.8065  0.4499
  721MOL0     H99486   0.034   4.839   9.987  0.7497 -0.6836  1.0517
  721MOL0     H99487  -0.041   4.791   9.824  0.2569 -4.1394 -0.6412
  721MOL0     H99488  -0.063   4.620  10.073  0.8320 -0.0120  0.1878
  721MOL0     H99489  -0.119   4.589   9.908  1.1335  0.5886 -1.0730
  721MOL0     H99490  -0.254   4.806   9.954  1.9212  3.6736  0.8003
  721MOL0     H99491  -0.295   4.664  10.044 -0.1155 -0.2466 -3.1213
  721MOL0     H99492  -0.139   4.909  10.146 -2.6406  2.4456 -0.0757
  721MOL0     H99493  -0.154   4.762  10.242  1.7206  2.0779 -0.7733
  721MOL0     H99494  -0.525   4.974  10.276 -0.4088 -0.3172 -0.2272
  721MOL0     H99495   0.126   4.912   9.743  0.1413 -0.8509  0.1590
  721MOL0     H99496   0.360   5.160   9.701 -2.5484  2.2923 -1.9290
  721MOL0     H99497   0.359   5.067   9.542  2.6352  3.0439 -0.1164
  721MOL0     H99498   0.217   5.111   9.645  0.2639  0.4770 -2.1508
  722MOL0     O99499  10.370   6.652   1.397 -0.6774 -0.2786 -0.1008
  722MOL0     C99500  10.284   6.569   1.376 -0.6163 -0.2117 -0.2885
  722MOL0     O99501  10.307   6.452   1.306 -0.5930  0.4096 -0.3622
  722MOL0     C99502  10.432   6.422   1.248  0.3250 -0.3493  0.1984
  722MOL0     C99503  10.442   6.443   1.107 -0.0440  0.1074 -0.0974
  722MOL0     C99504  10.564   6.412   1.044 -0.2702  0.1967 -0.4646
  722MOL0     C99505  10.686   6.378   1.111  0.0438 -0.5437  0.7339
  722MOL0     O99506  10.810   6.383   1.055 -0.6050  0.3976  0.1349
  722MOL0     C99507  10.817   6.362   0.906 -0.6943  0.2393 -0.0845
  722MOL0     C99508  10.915   6.247   0.877  0.8125 -0.1471  0.2755
  722MOL0     C99509  11.060   6.299   0.881 -0.8461 -0.1892 -0.2465
  722MOL0     C99510  11.112   6.306   0.736 -0.6706 -0.5047 -0.2338
  722MOL0     C99511  11.258   6.354   0.763  0.6817  0.1906 -0.0667
  722MOL0     C99512  11.364   6.288   0.676  0.2818  0.1326 -0.0864
  722MOL0     C99513  11.361   6.320   0.526 -0.2999  0.8733 -0.5762
  722MOL0     C99514  11.380   6.471   0.492  0.0038 -0.2254 -0.3395
  722MOL0     N99515  11.370   6.480   0.348 -0.6233  0.7091 -0.3753
  722MOL0     C99516  11.474   6.435   0.269  0.5006 -0.1844  0.1309
  722MOL0     C99517  11.420   6.458   0.145 -0.2288  0.4993 -0.0755
  722MOL0     C99518  11.491   6.437   0.016 -0.0219  0.0083 -0.8533
  722MOL0     C99519  11.451   6.316  -0.054  0.9562  0.5545 -0.2911
  722MOL0     C99520  11.520   6.304  -0.192  0.5369 -0.2149 -0.3882
  722MOL0     C99521  11.666   6.330  -0.185  0.7004 -0.2402  0.1861
  722MOL0     O99522  11.724   6.318  -0.320 -0.4356 -0.4140  0.4788
  722MOL0     C99523  11.860   6.334  -0.331  0.3028 -0.5637  0.1905
  722MOL0     C99524  11.921   6.456  -0.291  0.3739  0.9324 -0.0764
  722MOL0     C99525  12.055   6.486  -0.306  0.4319  0.2613 -0.6115
  722MOL0     C99526  12.102   6.607  -0.231 -0.3277 -0.4934  0.7624
  722MOL0     C99527  12.142   6.392  -0.376 -0.5120  0.1316  0.8110
  722MOL0     C99528  12.292   6.407  -0.395  0.1585  0.0929 -0.0260
  722MOL0     O99529  12.349   6.311  -0.472 -0.1845 -0.0843  0.1043
  722MOL0     C99530  12.486   6.299  -0.504  0.5830  0.5450 -0.0416
  722MOL0     C99531  12.511   6.179  -0.576 -0.2998 -0.1380  0.3830
  722MOL0     C99532  12.639   6.150  -0.606 -0.4182 -0.0439 -0.2553
  722MOL0     C99533  12.745   6.238  -0.591 -0.2776 -0.3545  0.1153
  722MOL0     O99534  12.864   6.201  -0.646 -0.6622  0.5945 -0.5010
  722MOL0     C99535  12.974   6.279  -0.599  0.2786 -0.3110  0.0353
  722MOL0     C99536  13.101   6.210  -0.656  0.2691  0.6808  0.3775
  722MOL0     C99537  13.229   6.274  -0.613 -1.1162  0.0524  0.9297
  722MOL0     C99538  13.330   6.161  -0.653  0.0936  0.2908  0.6316
  722MOL0     C99539  13.471   6.211  -0.627 -0.3177  0.3850 -0.1719
  722MOL0     C99540  13.577   6.109  -0.665 -0.3333  0.1462  0.2410
  722MOL0     C99541  13.722   6.157  -0.690 -0.0727 -0.2634 -0.0732
  722MOL0     C99542  13.778   6.200  -0.552 -0.9413 -0.7006  0.0335
  722MOL0    Cl99543  13.952   6.248  -0.562  0.0688  0.0862 -0.0086
  722MOL0     C99544  12.718   6.354  -0.522  0.0006 -0.3860  0.0132
  722MOL0     C99545  12.590   6.385  -0.477 -1.1303 -0.3724  0.1726
  722MOL0     O99546  12.357   6.490  -0.335  0.0123 -0.1680  0.4141
  722MOL0     C99547  12.091   6.269  -0.425 -0.0902  0.4459  0.4714
  722MOL0     C99548  11.947   6.246  -0.406  0.6911 -0.8225 -0.0425
  722MOL0     N99549  11.298   6.519   0.152  0.5049  0.6271  0.3570
  722MOL0     N99550  11.268   6.538   0.275  0.1787  0.7297  0.0611
  722MOL0     C99551  10.670   6.355   1.249  0.8068 -0.2218  0.5289
  722MOL0     C99552  10.545   6.374   1.315 -0.0668 -0.4570 -0.7544
  722MOL0     C99553  10.147   6.595   1.412  1.1623  0.4089  0.7650
  722MOL0     C99554  10.075   6.666   1.319  0.5433  0.0977 -0.5044
  722MOL0     C99555   9.950   6.718   1.353  0.2370 -0.0854 -0.1843
  722MOL0     C99556   9.882   6.683   1.468 -0.8667  0.6864  0.1009
  722MOL0     O99557   9.749   6.726   1.476 -0.7044  0.8409 -0.0849
  722MOL0     C99558   9.664   6.704   1.590  0.4349 -0.5192  0.7487
  722MOL0     C99559   9.540   6.803   1.569  0.1182  0.2959 -0.6141
  722MOL0     C99560   9.489   6.838   1.711 -0.0538 -0.6490 -0.1001
  722MOL0     C99561   9.361   6.921   1.704  0.0413 -0.2578  0.0179
  722MOL0     C99562   9.318   6.971   1.832 -0.7399  0.0758 -0.2378
  722MOL0     C99563   9.273   7.004   1.939  0.9676 -0.1419  0.4162
  722MOL0     C99564   9.948   6.602   1.567 -0.2411 -0.5503 -0.7366
  722MOL0     C99565  10.080   6.561   1.542  0.3775 -1.0149  0.5016
  722MOL0     C99566  10.147   6.465   1.639  0.5417 -0.9854  0.6384
  722MOL0     H99567  10.360   6.492   1.055  1.9908  2.5218 -1.2860
  722MOL0     H99568  10.554   6.433   0.938  3.6685  0.9337 -0.8348
  722MOL0     H99569  10.848   6.453   0.854 -3.0067 -0.2328 -2.5314
  722MOL0     H99570  10.726   6.323   0.860 -1.5861  0.9952  0.9932
  722MOL0     H99571  10.888   6.164   0.943 -1.3155  1.0584  1.0152
  722MOL0     H99572  10.889   6.210   0.777  1.7505  0.7322 -0.3253
  722MOL0     H99573  11.077   6.395   0.930  0.0636 -0.1033 -0.7068
  722MOL0     H99574  11.106   6.225   0.947 -2.8379 -0.0027  1.4423
  722MOL0     H99575  11.104   6.210   0.684 -2.7673  0.8142 -2.5936
  722MOL0     H99576  11.057   6.377   0.673 -2.0212 -0.3075  1.0948
  722MOL0     H99577  11.290   6.344   0.867  1.4605  2.5681 -0.0246
  722MOL0     H99578  11.252   6.462   0.747 -2.5488 -0.1872 -2.6741
  722MOL0     H99579  11.462   6.316   0.716 -0.3038  1.3779  0.5257
  722MOL0     H99580  11.349   6.180   0.684  1.9853 -0.1308 -0.0656
  722MOL0     H99581  11.266   6.281   0.488 -0.4851 -1.7954  2.2169
  722MOL0     H99582  11.442   6.262   0.481  1.6892  2.3370  0.9425
  722MOL0     H99583  11.308   6.535   0.545 -0.5688  0.3009 -1.7134
  722MOL0     H99584  11.477   6.498   0.534  0.2163 -2.5542  0.8225
  722MOL0     H99585  11.573   6.400   0.294  1.2535  1.6436 -0.0952
  722MOL0     H99586  11.596   6.423   0.043 -0.0090  0.2926 -0.7531
  722MOL0     H99587  11.480   6.534  -0.035  0.0700  1.2179  1.3132
  722MOL0     H99588  11.454   6.224   0.006 -1.8970 -1.6361 -3.1245
  722MOL0     H99589  11.343   6.328  -0.071  0.7455 -0.9796 -0.1967
  722MOL0     H99590  11.498   6.210  -0.244  1.2516  0.9339 -2.9771
  722MOL0     H99591  11.477   6.382  -0.256  3.1938  0.4967 -1.4517
  722MOL0     H99592  11.697   6.427  -0.145 -0.8065  0.6453 -0.7006
  722MOL0     H99593  11.695   6.241  -0.128  1.4469 -1.8385 -2.4820
  722MOL0     H99594  11.870   6.533  -0.235  0.3824  1.4702 -0.7850
  722MOL0     H99595  12.180   6.578  -0.160  0.5766  1.9235  0.8499
  722MOL0     H99596  12.021   6.658  -0.178  0.8448  2.0648  0.2283
  722MOL0     H99597  12.128   6.679  -0.310 -2.3028 -1.1873 -0.6068
  722MOL0     H99598  12.420   6.122  -0.591 -1.2075  0.5857  2.6567
  722MOL0     H99599  12.652   6.049  -0.644 -0.1365 -0.5301  1.1015
  722MOL0     H99600  12.959   6.384  -0.626 -2.7937  0.5251  3.9559
  722MOL0     H99601  12.984   6.277  -0.490  1.3468 -0.7550 -0.0548
  722MOL0     H99602  13.098   6.116  -0.602 -1.6107  1.5265  1.8719
  722MOL0     H99603  13.097   6.201  -0.765 -1.9555 -0.5460  0.4982
  722MOL0     H99604  13.240   6.298  -0.506  1.1514  0.6838  0.6123
  722MOL0     H99605  13.249   6.367  -0.667  1.6110  0.0268  1.7200
  722MOL0     H99606  13.322   6.134  -0.758  0.7241  1.5385  0.2493
  722MOL0     H99607  13.322   6.080  -0.580  1.1535  1.4643  2.1324
  722MOL0     H99608  13.484   6.307  -0.677  1.6922 -0.3161 -1.1204
  722MOL0     H99609  13.487   6.229  -0.520  1.3716  0.2634 -0.3797
  722MOL0     H99610  13.544   6.060  -0.757  1.0578  2.3569 -1.5500
  722MOL0     H99611  13.576   6.032  -0.588 -0.1549 -0.0278  0.0710
  722MOL0     H99612  13.713   6.233  -0.768 -5.7328  0.2095  0.6120
  722MOL0     H99613  13.783   6.073  -0.723 -3.0717 -2.3365 -0.7154
  722MOL0     H99614  13.770   6.105  -0.498  0.8474 -0.8812  0.0159
  722MOL0     H99615  13.725   6.278  -0.497 -1.0094 -0.1362 -0.8080
  722MOL0     H99616  12.802   6.418  -0.498  0.3808 -1.0298  0.4548
  722MOL0     H99617  12.572   6.485  -0.439 -0.5240 -0.3613  0.4295
  722MOL0     H99618  12.147   6.181  -0.455 -1.5448 -1.0865  2.0456
  722MOL0     H99619  11.923   6.146  -0.442 -0.3718 -2.1653  3.9132
  722MOL0     H99620  10.759   6.332   1.308  1.7009  0.3173 -0.5723
  722MOL0     H99621  10.522   6.370   1.421  1.3796  2.3441 -0.2390
  722MOL0     H99622  10.132   6.717   1.242  2.8224  3.6442  3.0850
  722MOL0     H99623   9.902   6.788   1.286 -0.9629 -1.0252 -0.3435
  722MOL0     H99624   9.629   6.602   1.608 -1.7632 -0.1569 -1.0113
  722MOL0     H99625   9.722   6.732   1.678 -0.1740  3.8676 -0.0088
  722MOL0     H99626   9.457   6.744   1.527 -2.6597  1.0443  3.2685
  722MOL0     H99627   9.570   6.893   1.515  5.0910  0.0778  1.2525
  722MOL0     H99628   9.485   6.739   1.758  1.0813 -0.9571 -0.6071
  722MOL0     H99629   9.565   6.896   1.764  0.6550  0.0659 -1.8147
  722MOL0     H99630   9.286   6.858   1.655  0.9272 -1.7159  0.4868
  722MOL0     H99631   9.377   7.007   1.638  1.6828 -1.4820 -1.2736
  722MOL0     H99632   9.234   7.026   2.037  1.7701 -0.8253  0.9047
  722MOL0     H99633   9.891   6.566   1.653  1.2459  0.1909  0.6202
  722MOL0     H99634  10.236   6.424   1.590 -1.1642 -2.7304 -1.2252
  722MOL0     H99635  10.165   6.517   1.733  1.9904 -2.3329  1.1572
  722MOL0     H99636  10.077   6.385   1.667 -3.6332  2.7016  1.9830
  723MOL0     O99637   0.132   2.424   9.490 -0.3533 -0.4036 -0.4457
  723MOL0     C99638   0.120   2.362   9.593 -0.6990 -0.4433 -0.1146
  723MOL0     O99639   0.225   2.343   9.678  0.1764  0.4315 -0.1180
  723MOL0     C99640   0.359   2.372   9.668 -0.4212 -0.1686  0.2616
  723MOL0     C99641   0.431   2.366   9.792 -0.4258  0.7254  0.7238
  723MOL0     C99642   0.559   2.413   9.803 -0.4204 -0.8879 -0.5016
  723MOL0     C99643   0.625   2.467   9.696  0.2024  0.5583  1.6733
  723MOL0     O99644   0.751   2.518   9.689 -0.2349  0.0701 -0.2229
  723MOL0     C99645   0.838   2.467   9.791 -0.6442 -0.9608 -0.3403
  723MOL0     C99646   0.985   2.521   9.762  0.4122  0.6351  0.3354
  723MOL0     C99647   1.048   2.441   9.646  0.6932  0.7776 -0.4352
  723MOL0     C99648   1.199   2.457   9.618  0.8785 -0.2915  0.6220
  723MOL0     C99649   1.227   2.370   9.494  0.5105  0.1813 -0.2848
  723MOL0     C99650   1.380   2.350   9.460 -0.1289 -0.1273  0.6062
  723MOL0     C99651   1.388   2.241   9.354  0.4303  0.0667 -0.4722
  723MOL0     C99652   1.526   2.201   9.310 -0.2556 -0.2597  0.1602
  723MOL0     N99653   1.604   2.150   9.423 -1.1236  0.8369 -0.3578
  723MOL0     C99654   1.673   2.228   9.505  0.1677 -0.1371 -0.1147
  723MOL0     C99655   1.738   2.144   9.588 -0.4371 -0.0598 -0.0642
  723MOL0     C99656   1.840   2.191   9.694 -1.1033 -0.2141  0.3348
  723MOL0     C99657   1.972   2.218   9.640  0.1925  1.0839  0.1011
  723MOL0     C99658   2.062   2.097   9.602 -0.0666  0.0885 -0.1004
  723MOL0     C99659   2.184   2.149   9.537 -0.4265 -0.0472  0.1575
  723MOL0     O99660   2.278   2.042   9.506  0.2010  0.0050 -0.2396
  723MOL0     C99661   2.407   2.079   9.520 -0.5557 -1.2712 -0.0651
  723MOL0     C99662   2.497   2.009   9.597  0.2474  0.6164  1.0518
  723MOL0     C99663   2.634   2.033   9.588 -0.2772 -0.4380 -0.4268
  723MOL0     C99664   2.728   1.945   9.667 -0.0710  0.4860  0.7182
  723MOL0     C99665   2.687   2.149   9.517  0.2522  1.0351  0.0951
  723MOL0     C99666   2.828   2.187   9.501 -0.4248  0.1526 -0.2695
  723MOL0     O99667   2.858   2.268   9.397  0.2315 -0.2318  0.0536
  723MOL0     C99668   2.987   2.315   9.390  0.5107  0.3626 -0.2697
  723MOL0     C99669   3.101   2.241   9.365 -0.0532  0.2901  0.3620
  723MOL0     C99670   3.229   2.298   9.375  1.2856 -0.6158 -0.5227
  723MOL0     C99671   3.244   2.435   9.405  0.3047  1.1130 -0.2612
  723MOL0     O99672   3.371   2.484   9.405  0.4048 -0.2259 -0.4038
  723MOL0     C99673   3.399   2.608   9.462 -0.1753 -0.8166 -0.3783
  723MOL0     C99674   3.554   2.631   9.475  0.2482  0.3018  0.0268
  723MOL0     C99675   3.615   2.706   9.349  0.6767  0.4804  0.0660
  723MOL0     C99676   3.738   2.784   9.400  1.4931 -0.3940  0.5096
  723MOL0     C99677   3.711   2.916   9.474  0.7404 -0.7114 -0.2892
  723MOL0     C99678   3.848   2.992   9.518  0.4394  0.7371  0.1584
  723MOL0     C99679   3.962   2.995   9.419  0.3150  0.2207 -0.2188
  723MOL0     C99680   4.080   3.086   9.462  0.6304  0.8315 -0.3683
  723MOL0    Cl99681   4.141   3.007   9.615 -0.1202 -0.1381 -0.0655
  723MOL0     C99682   3.132   2.512   9.412 -0.1022  0.2851 -0.2556
  723MOL0     C99683   3.002   2.455   9.404 -0.6314  0.4384 -0.4658
  723MOL0     O99684   2.908   2.151   9.587 -0.3440 -0.6429 -0.5056
  723MOL0     C99685   2.587   2.231   9.462 -0.3250 -0.1202  1.1269
  723MOL0     C99686   2.455   2.189   9.449 -0.5046  0.6412  0.1262
  723MOL0     N99687   1.709   2.016   9.554  0.3350 -0.3422 -0.8692
  723MOL0     N99688   1.632   2.018   9.459 -0.6143  0.1033  0.2097
  723MOL0     C99689   0.565   2.467   9.570  1.1777  0.5456  0.3566
  723MOL0     C99690   0.426   2.423   9.557 -0.0180  0.5505 -0.5527
  723MOL0     C99691  -0.019   2.315   9.642 -0.2629  0.3114  0.9486
  723MOL0     C99692  -0.040   2.287   9.778 -0.0240 -0.7406 -0.7467
  723MOL0     C99693  -0.154   2.236   9.835  0.4543  0.7428 -0.1804
  723MOL0     C99694  -0.264   2.200   9.755  0.7345 -0.7415  0.1865
  723MOL0     O99695  -0.392   2.164   9.801  0.4307  0.1096 -0.0167
  723MOL0     C99696  -0.396   2.119   9.934 -0.7281 -0.2727 -0.0251
  723MOL0     C99697  -0.417   2.240  10.028  0.3107  0.1267 -0.6726
  723MOL0     C99698  -0.444   2.189  10.170 -0.3508  0.7150  0.1232
  723MOL0     C99699  -0.326   2.114  10.229 -0.3890  0.9388 -0.0036
  723MOL0     C99700  -0.211   2.204  10.223 -0.2741 -0.5451  0.3412
  723MOL0     C99701  -0.122   2.284  10.222  0.5608  0.8397 -0.2685
  723MOL0     C99702  -0.251   2.227   9.620  0.4521 -0.0309  0.6922
  723MOL0     C99703  -0.135   2.287   9.557  0.5454  0.4622 -0.1055
  723MOL0     C99704  -0.140   2.278   9.412 -0.0602 -0.0093  0.1639
  723MOL0     H99705   0.369   2.324   9.870 -1.5399  1.1347  0.0834
  723MOL0     H99706   0.599   2.404   9.904 -2.4151  0.0775  0.4388
  723MOL0     H99707   0.823   2.359   9.799 -1.9844 -0.7162  0.8599
  723MOL0     H99708   0.809   2.504   9.890 -0.1290  0.4548 -0.7033
  723MOL0     H99709   1.000   2.627   9.738  3.2306  0.3491  0.5243
  723MOL0     H99710   1.045   2.513   9.853  3.1267  0.6080 -1.3464
  723MOL0     H99711   1.013   2.337   9.650 -2.4806  1.5551 -3.1268
  723MOL0     H99712   0.997   2.478   9.556  0.4060  3.3835  0.6857
  723MOL0     H99713   1.239   2.559   9.614  0.1559  0.2988  4.5366
  723MOL0     H99714   1.247   2.420   9.709  1.9725  3.8104  1.9298
  723MOL0     H99715   1.183   2.421   9.409 -0.7800  1.4917  1.1002
  723MOL0     H99716   1.163   2.281   9.497 -2.5924  2.2897  0.2655
  723MOL0     H99717   1.437   2.437   9.427 -0.3484 -0.6079 -1.1531
  723MOL0     H99718   1.435   2.310   9.546  1.7679 -1.1705 -0.9968
  723MOL0     H99719   1.335   2.281   9.268  3.0785  1.4635 -1.5867
  723MOL0     H99720   1.338   2.148   9.385  1.8890 -1.3418 -2.0972
  723MOL0     H99721   1.516   2.123   9.233 -1.7155  0.7079 -0.6792
  723MOL0     H99722   1.575   2.292   9.276  0.8333 -0.2853  1.5873
  723MOL0     H99723   1.681   2.335   9.491 -4.7005  0.2027 -2.2253
  723MOL0     H99724   1.842   2.113   9.770  0.3248 -1.4920 -0.9601
  723MOL0     H99725   1.813   2.289   9.736  3.4594  0.0095  3.5808
  723MOL0     H99726   1.957   2.269   9.545  0.9031  1.0986 -0.0086
  723MOL0     H99727   2.017   2.290   9.709 -4.6754  0.8043  4.0984
  723MOL0     H99728   2.083   2.040   9.693  0.7293  1.8116  0.8306
  723MOL0     H99729   2.012   2.027   9.534  0.4174 -0.2579 -0.1050
  723MOL0     H99730   2.158   2.199   9.443 -1.6993 -0.4265  0.2963
  723MOL0     H99731   2.240   2.221   9.599  1.7505 -2.3772  1.0654
  723MOL0     H99732   2.466   1.929   9.664  0.3243  0.1661  0.5585
  723MOL0     H99733   2.770   1.998   9.752 -1.4441 -0.5343  2.0794
  723MOL0     H99734   2.811   1.922   9.599 -2.8156 -0.3186 -2.6374
  723MOL0     H99735   2.680   1.854   9.705  1.8943 -0.8068  0.3157
  723MOL0     H99736   3.092   2.134   9.347  0.6695  0.3718 -0.5796
  723MOL0     H99737   3.313   2.232   9.358  0.5062 -2.1269  1.1971
  723MOL0     H99738   3.357   2.683   9.395  2.9079 -0.4004 -2.0766
  723MOL0     H99739   3.351   2.621   9.559 -1.6499 -3.5956 -0.6204
  723MOL0     H99740   3.581   2.683   9.567  3.6286 -2.9288  1.1191
  723MOL0     H99741   3.598   2.532   9.492 -1.6958 -1.2995 -3.3519
  723MOL0     H99742   3.541   2.778   9.315 -1.8841 -1.9637  0.0965
  723MOL0     H99743   3.650   2.641   9.269 -0.1028 -0.1739  0.2486
  723MOL0     H99744   3.807   2.797   9.316 -0.4415 -2.5705 -1.5571
  723MOL0     H99745   3.797   2.721   9.467  0.1250 -0.4733  1.6773
  723MOL0     H99746   3.650   2.985   9.415 -0.0160  0.1245  1.4116
  723MOL0     H99747   3.654   2.903   9.566  0.7535  0.0652 -0.1636
  723MOL0     H99748   3.879   2.952   9.615 -0.6953 -0.4264  0.0673
  723MOL0     H99749   3.822   3.098   9.529  0.5495  0.9704 -1.6580
  723MOL0     H99750   3.916   3.024   9.324  0.1569  0.1750 -0.1555
  723MOL0     H99751   4.018   2.901   9.420  1.7047  1.0137  1.6580
  723MOL0     H99752   4.039   3.186   9.479 -0.6255  0.2906 -0.1228
  723MOL0     H99753   4.140   3.089   9.371 -0.9224 -0.1289 -1.4737
  723MOL0     H99754   3.141   2.619   9.425  0.0679 -0.1074  5.2040
  723MOL0     H99755   2.921   2.524   9.428 -0.6141  0.3054 -0.0050
  723MOL0     H99756   2.600   2.327   9.412 -0.8859 -0.1658  0.8859
  723MOL0     H99757   2.398   2.244   9.374  0.4586  0.4660 -0.7513
  723MOL0     H99758   0.628   2.474   9.482  0.3380 -1.6053 -0.4777
  723MOL0     H99759   0.376   2.432   9.460 -1.6065  0.4391  0.2225
  723MOL0     H99760   0.047   2.304   9.840 -1.9006  2.7359  1.2467
  723MOL0     H99761  -0.142   2.206   9.938  1.7000 -0.6376 -0.6752
  723MOL0     H99762  -0.473   2.046   9.960 -0.1601 -0.0517  2.5057
  723MOL0     H99763  -0.303   2.066   9.957 -1.1105 -0.8127  0.2844
  723MOL0     H99764  -0.512   2.289  10.003 -1.2312 -1.6493  1.3938
  723MOL0     H99765  -0.331   2.307  10.018  1.0765 -1.0329 -2.3494
  723MOL0     H99766  -0.476   2.274  10.232 -0.6399  0.9360 -0.3251
  723MOL0     H99767  -0.532   2.126  10.166 -0.3473  0.6522  0.9791
  723MOL0     H99768  -0.310   2.021  10.174 -1.6324  1.1986 -0.8436
  723MOL0     H99769  -0.348   2.089  10.333 -0.1248 -0.1976 -0.2130
  723MOL0     H99770  -0.035   2.345  10.205 -0.6968  2.6274 -0.6187
  723MOL0     H99771  -0.341   2.209   9.563  1.2185  0.3889 -0.6913
  723MOL0     H99772  -0.059   2.333   9.365  1.1559  0.0214  2.1727
  723MOL0     H99773  -0.129   2.172   9.389  3.0231  0.1157  0.7177
  723MOL0     H99774  -0.238   2.313   9.378 -0.7651 -2.0472 -0.0581
  724MOL0     O99775  10.498   7.188  11.356 -0.1169 -0.6363 -0.8258
  724MOL0     C99776  10.457   7.214  11.243 -0.6772 -0.6434  0.1714
  724MOL0     O99777  10.542   7.226  11.134  0.2026  0.4427 -0.6036
  724MOL0     C99778  10.676   7.274  11.153  0.1234  0.0696  0.9419
  724MOL0     C99779  10.717   7.350  11.263 -0.3267 -0.8143 -0.1804
  724MOL0     C99780  10.865   7.362  11.282  0.1171  0.8463  0.0949
  724MOL0     C99781  10.953   7.308  11.193 -0.1181 -0.3081  0.2125
  724MOL0     O99782  11.088   7.335  11.207  0.0683  0.1932  0.3780
  724MOL0     C99783  11.145   7.361  11.335  0.1584 -0.1875 -0.6926
  724MOL0     C99784  11.296   7.320  11.333  0.1482  0.2801  0.3147
  724MOL0     C99785  11.372   7.392  11.217  0.0871  0.6590 -0.4245
  724MOL0     C99786  11.376   7.549  11.233  0.1299 -0.3890  0.4430
  724MOL0     C99787  11.506   7.604  11.166  0.9506 -0.0726  0.2098
  724MOL0     C99788  11.627   7.586  11.266 -0.3838  0.0990 -0.1037
  724MOL0     C99789  11.757   7.626  11.192 -0.3079 -0.9631  0.7880
  724MOL0     C99790  11.817   7.521  11.091  0.5042 -0.0286  0.1806
  724MOL0     N99791  11.947   7.552  11.032 -0.1424 -0.1316  0.5030
  724MOL0     C99792  11.989   7.677  10.983  0.2765  0.1836 -1.1736
  724MOL0     C99793  12.115   7.656  10.933 -0.7139 -0.0222  0.3876
  724MOL0     C99794  12.215   7.756  10.871  0.2457  0.4970  0.0704
  724MOL0     C99795  12.352   7.748  10.924 -0.0166 -0.3599  0.3166
  724MOL0     C99796  12.463   7.842  10.863  0.4873  0.1318  0.5834
  724MOL0     C99797  12.491   7.816  10.716 -0.7992  0.5071  0.0375
  724MOL0     O99798  12.548   7.686  10.685 -0.1557  0.3191  0.3091
  724MOL0     C99799  12.635   7.691  10.583  0.2155 -0.0695 -0.1751
  724MOL0     C99800  12.617   7.763  10.465  1.2087 -0.4014  0.4925
  724MOL0     C99801  12.705   7.752  10.360 -0.4885  0.7498  0.6913
  724MOL0     C99802  12.696   7.827  10.229  0.8093  1.0808 -0.1079
  724MOL0     C99803  12.819   7.670  10.367 -0.7765  0.2430  0.4149
  724MOL0     C99804  12.924   7.644  10.262 -0.5021  0.5633  0.5414
  724MOL0     O99805  12.958   7.511  10.241 -0.3565 -0.0785 -0.5200
  724MOL0     C99806  13.060   7.478  10.162  0.3198  1.3237 -0.9843
  724MOL0     C99807  13.188   7.456  10.216 -0.4396  1.0883  0.2277
  724MOL0     C99808  13.289   7.401  10.143 -0.0481  0.1739 -0.7055
  724MOL0     C99809  13.278   7.368  10.013  0.5379  0.9856  0.0815
  724MOL0     O99810  13.374   7.304   9.933  0.2167  1.1573 -0.7124
  724MOL0     C99811  13.506   7.269   9.993  0.1691 -0.4620  0.6973
  724MOL0     C99812  13.601   7.386   9.988 -0.1333 -0.6713  0.9101
  724MOL0     C99813  13.731   7.339  10.042 -1.1805 -0.2597 -0.3019
  724MOL0     C99814  13.841   7.445  10.026  0.1922  0.0099  0.4052
  724MOL0     C99815  13.974   7.416  10.089  0.5554 -1.0697  0.1964
  724MOL0     C99816  14.058   7.320  10.005  0.0174 -0.1845  0.2121
  724MOL0     C99817  14.203   7.317  10.053  0.3198 -0.2943  0.3579
  724MOL0     C99818  14.266   7.183  10.022  0.4417 -0.6397 -0.1058
  724MOL0    Cl99819  14.210   7.039  10.111  0.2774 -0.0536  0.2577
  724MOL0     C99820  13.155   7.399   9.954 -0.1035 -1.1880  0.0878
  724MOL0     C99821  13.045   7.447  10.033 -1.1415  0.2258 -0.3669
  724MOL0     O99822  12.981   7.737  10.206  1.0185 -0.1398  0.2126
  724MOL0     C99823  12.835   7.593  10.489  0.4933  0.1441  0.4563
  724MOL0     C99824  12.743   7.598  10.590  0.4530 -0.2963  0.2566
  724MOL0     N99825  12.151   7.526  10.976  0.5605  0.2947  0.5210
  724MOL0     N99826  12.047   7.465  11.022  0.5043  0.5277  0.4176
  724MOL0     C99827  10.909   7.240  11.078  1.5355  0.0704  0.2185
  724MOL0     C99828  10.769   7.222  11.059 -0.4755 -0.2972 -0.0670
  724MOL0     C99829  10.311   7.199  11.208  0.5295  1.4205 -0.1732
  724MOL0     C99830  10.263   7.276  11.109 -0.8064  0.6247  0.7969
  724MOL0     C99831  10.128   7.265  11.067 -0.3571 -1.2051 -0.0487
  724MOL0     C99832  10.047   7.165  11.127 -0.2783 -0.2475 -0.0234
  724MOL0     O99833   9.918   7.157  11.089 -0.1367  0.4860  0.2118
  724MOL0     C99834   9.819   7.086  11.164  0.2656 -0.0428  0.5561
  724MOL0     C99835   9.801   7.147  11.304  0.3554 -0.0288  0.0515
  724MOL0     C99836   9.752   7.294  11.305  0.5328 -0.0599  0.0035
  724MOL0     C99837   9.673   7.329  11.440 -0.6415  0.3425  0.2381
  724MOL0     C99838   9.788   7.340  11.537 -0.4141 -0.1187  0.0481
  724MOL0     C99839   9.879   7.350  11.623  1.1239 -0.2268 -0.5710
  724MOL0     C99840  10.098   7.076  11.218 -0.6909 -0.7590 -0.0627
  724MOL0     C99841  10.229   7.101  11.273 -0.8551 -0.3926  0.5013
  724MOL0     C99842  10.282   7.001  11.370 -0.2057  0.3691  0.3682
  724MOL0     H99843  10.642   7.383  11.334  0.9817 -0.5592  1.1251
  724MOL0     H99844  10.892   7.415  11.373  2.6460 -1.5733  0.8997
  724MOL0     H99845  11.096   7.312  11.419  0.6082  2.3501  1.1734
  724MOL0     H99846  11.129   7.468  11.350  0.0941  0.1920 -3.0278
  724MOL0     H99847  11.351   7.351  11.422  2.2225 -2.9647  0.3364
  724MOL0     H99848  11.313   7.212  11.321  0.4869  0.3397  0.2422
  724MOL0     H99849  11.474   7.353  11.218  0.7598  2.1832 -2.7317
  724MOL0     H99850  11.330   7.362  11.121 -2.1782  0.9265  0.4249
  724MOL0     H99851  11.285   7.590  11.188 -2.0161 -2.8156  2.2341
  724MOL0     H99852  11.371   7.581  11.338  1.0741  1.3298  0.0012
  724MOL0     H99853  11.499   7.712  11.149 -1.3027 -0.2803 -0.5200
  724MOL0     H99854  11.528   7.554  11.071 -0.0478 -0.1860  0.0259
  724MOL0     H99855  11.624   7.649  11.355 -0.1750 -3.5243  2.6928
  724MOL0     H99856  11.630   7.483  11.300 -1.1297 -0.0671 -0.5071
  724MOL0     H99857  11.831   7.637  11.271 -0.9517 -0.1243  1.2944
  724MOL0     H99858  11.751   7.718  11.133  1.3800 -0.1646  1.8141
  724MOL0     H99859  11.820   7.422  11.138  1.8957 -0.2420 -0.3099
  724MOL0     H99860  11.746   7.508  11.009 -0.4589  1.9810  0.6562
  724MOL0     H99861  11.927   7.763  10.962 -0.4035 -0.5275 -2.2263
  724MOL0     H99862  12.173   7.856  10.883  0.9798  1.4398 -3.7177
  724MOL0     H99863  12.225   7.724  10.766 -2.6894  0.8888 -0.4040
  724MOL0     H99864  12.352   7.772  11.030 -1.5557 -0.2815  0.3119
  724MOL0     H99865  12.390   7.646  10.922 -0.6292 -0.6159  1.3858
  724MOL0     H99866  12.418   7.941  10.874 -0.8887 -0.4319  0.2519
  724MOL0     H99867  12.561   7.833  10.910  1.4677  0.5350 -1.2545
  724MOL0     H99868  12.391   7.821  10.671  0.1341 -0.1143 -2.2728
  724MOL0     H99869  12.552   7.897  10.677  1.4759 -0.9200  0.4558
  724MOL0     H99870  12.533   7.831  10.457  2.6386  1.4150  0.1833
  724MOL0     H99871  12.592   7.852  10.209  0.9903  0.9598 -1.2614
  724MOL0     H99872  12.718   7.772  10.138 -0.4426  2.0349 -1.0252
  724MOL0     H99873  12.757   7.918  10.228  4.9811 -1.4482 -0.1304
  724MOL0     H99874  13.203   7.475  10.321 -2.3090 -2.0685  1.2021
  724MOL0     H99875  13.386   7.385  10.189  0.7579  1.0040 -2.0670
  724MOL0     H99876  13.495   7.244  10.099  1.5338  1.3497  1.3084
  724MOL0     H99877  13.553   7.195   9.928  1.2709  1.0779 -0.3073
  724MOL0     H99878  13.616   7.417   9.884 -0.0560  0.6711  1.3039
  724MOL0     H99879  13.565   7.471  10.047  1.0139  1.1584 -0.8700
  724MOL0     H99880  13.769   7.246  10.000  2.0219 -0.1397  1.9382
  724MOL0     H99881  13.719   7.320  10.149  2.8267 -0.7219  0.2232
  724MOL0     H99882  13.809   7.542  10.065 -2.7623 -1.6390  2.6341
  724MOL0     H99883  13.852   7.453   9.918  0.4145 -2.1555  0.2093
  724MOL0     H99884  14.030   7.510  10.082  0.0551 -0.8692 -2.1006
  724MOL0     H99885  13.966   7.389  10.194 -3.0260 -3.7796 -0.5657
  724MOL0     H99886  14.070   7.345   9.900  1.2597  2.2405  0.8428
  724MOL0     H99887  14.008   7.223  10.009 -1.0475  0.3657  2.3568
  724MOL0     H99888  14.232   7.351  10.153  1.4252  1.5421 -0.5290
  724MOL0     H99889  14.252   7.390   9.988 -0.2614 -0.6039 -0.4383
  724MOL0     H99890  14.375   7.188  10.032  0.4138 -0.7759  0.2851
  724MOL0     H99891  14.248   7.168   9.915 -2.2667  0.5619  0.1011
  724MOL0     H99892  13.141   7.393   9.847 -0.8761  2.7366 -0.1841
  724MOL0     H99893  12.949   7.450   9.982 -0.4365  1.6740 -1.6833
  724MOL0     H99894  12.917   7.523  10.488  1.4011  1.1034 -2.4465
  724MOL0     H99895  12.757   7.545  10.684  3.3136  0.1720  0.1977
  724MOL0     H99896  10.988   7.194  11.019 -0.8237 -0.4804 -2.7624
  724MOL0     H99897  10.727   7.169  10.975 -3.5103  3.0041 -0.8692
  724MOL0     H99898  10.319   7.356  11.062 -1.3564  2.0778  2.5341
  724MOL0     H99899  10.085   7.341  11.003  2.4424  2.4530  1.9829
  724MOL0     H99900   9.733   7.106  11.100 -1.3140 -1.1942  2.2445
  724MOL0     H99901   9.847   6.981  11.176  4.6910  0.4687 -2.6991
  724MOL0     H99902   9.890   7.135  11.366  3.7250 -0.8488 -4.4569
  724MOL0     H99903   9.726   7.079  11.346  0.7989 -2.3160 -2.6235
  724MOL0     H99904   9.835   7.363  11.287  1.2072 -0.9636 -0.3567
  724MOL0     H99905   9.671   7.311  11.233 -0.8471 -0.1489  1.4752
  724MOL0     H99906   9.606   7.252  11.479 -0.9932 -1.6385 -3.8509
  724MOL0     H99907   9.631   7.430  11.445 -1.1838  0.1428 -0.2514
  724MOL0     H99908   9.944   7.371  11.705 -1.7595  2.5888  1.2241
  724MOL0     H99909  10.042   6.997  11.267 -1.6045  1.1043  2.1117
  724MOL0     H99910  10.229   6.907  11.354  0.9548 -0.0306 -1.5213
  724MOL0     H99911  10.389   6.981  11.357  0.2075  1.2828  2.0456
  724MOL0     H99912  10.272   7.039  11.472 -0.7280 -0.4775  0.6349
  725MOL0     O99913   0.552   6.696   9.465 -0.5750 -0.6205 -0.3716
  725MOL0     C99914   0.464   6.609   9.461  0.0147  0.6774 -0.5509
  725MOL0     O99915   0.478   6.485   9.515  0.7457  0.1945 -0.8786
  725MOL0     C99916   0.609   6.441   9.534 -0.2368  0.0201 -0.4617
  725MOL0     C99917   0.711   6.469   9.433  0.0592  0.3612  0.3988
  725MOL0     C99918   0.844   6.441   9.464  0.1729 -0.9318  0.3748
  725MOL0     C99919   0.879   6.385   9.582 -0.1748 -0.1309 -0.7347
  725MOL0     O99920   1.011   6.369   9.609 -0.5092 -0.4197 -0.1426
  725MOL0     C99921   1.062   6.339   9.738 -0.1874  0.1629 -0.4917
  725MOL0     C99922   1.062   6.448   9.833  0.4174  0.1287  0.2844
  725MOL0     C99923   1.103   6.397   9.971  1.2184 -0.6587  0.2391
  725MOL0     C99924   1.122   6.515  10.064  0.3965  0.7810  0.0421
  725MOL0     C99925   1.157   6.487  10.219 -0.1874  0.0664  1.4833
  725MOL0     C99926   1.299   6.429  10.237  0.3699 -0.5677  0.4897
  725MOL0     C99927   1.414   6.499  10.173 -0.2575  0.2771  0.4344
  725MOL0     C99928   1.439   6.638  10.241  0.0403 -0.0804 -0.6297
  725MOL0     N99929   1.556   6.695  10.176 -0.7243 -0.4222 -0.1523
  725MOL0     C99930   1.562   6.819  10.116  0.3308 -0.2946  0.7521
  725MOL0     C99931   1.697   6.841  10.093  0.2961 -0.0932  0.3657
  725MOL0     C99932   1.757   6.965  10.030 -0.5073 -0.2386 -0.0927
  725MOL0     C99933   1.807   6.942   9.891 -0.4724 -0.8402  0.3235
  725MOL0     C99934   1.694   6.931   9.791  0.1349 -0.4010  0.0160
  725MOL0     C99935   1.730   6.954   9.641  0.8932 -0.0158 -0.5628
  725MOL0     O99936   1.816   6.854   9.579  0.3221 -1.0915 -0.1707
  725MOL0     C99937   1.910   6.900   9.490  0.4063  0.1951 -0.1997
  725MOL0     C99938   2.046   6.901   9.535 -0.0523  0.3518 -0.8595
  725MOL0     C99939   2.146   6.951   9.454  0.8945  0.0302  0.0580
  725MOL0     C99940   2.283   6.912   9.486 -0.3698  0.9060  0.1673
  725MOL0     C99941   2.121   7.023   9.335  0.1668 -0.1037 -0.1030
  725MOL0     C99942   2.220   7.090   9.249 -0.1227  0.2986 -0.9503
  725MOL0     O99943   2.352   7.072   9.277 -0.5958 -0.9194  0.5650
  725MOL0     C99944   2.450   7.152   9.220  0.5275  0.4059 -0.2197
  725MOL0     C99945   2.553   7.078   9.166  0.5729  0.1293 -0.2026
  725MOL0     C99946   2.671   7.142   9.126  0.0072  0.8601 -0.3649
  725MOL0     C99947   2.685   7.276   9.129 -0.4466  0.0087  0.2961
  725MOL0     O99948   2.797   7.349   9.092 -0.4985 -0.2910  0.6942
  725MOL0     C99949   2.919   7.279   9.072 -0.5252  0.8613  0.5784
  725MOL0     C99950   3.039   7.365   9.021 -0.2429  0.8597 -0.1365
  725MOL0     C99951   3.127   7.392   9.137 -0.4993 -0.1109 -0.0521
  725MOL0     C99952   3.234   7.495   9.096 -0.2515  0.4144  0.0680
  725MOL0     C99953   3.299   7.563   9.220 -0.0051  0.1660  0.5150
  725MOL0     C99954   3.357   7.462   9.310 -0.4965  0.0575 -1.3084
  725MOL0     C99955   3.462   7.377   9.236  0.0686 -0.1371  0.1091
  725MOL0     C99956   3.549   7.296   9.338  0.0303 -0.3099  0.0027
  725MOL0    Cl99957   3.665   7.218   9.236  0.0614 -0.1412 -0.2259
  725MOL0     C99958   2.570   7.353   9.167  0.2162  0.2647  0.7910
  725MOL0     C99959   2.453   7.295   9.216  0.0225 -0.9583 -0.6617
  725MOL0     O99960   2.177   7.159   9.154  0.4567 -0.2546  0.1333
  725MOL0     C99961   1.981   7.030   9.294 -0.1902 -0.1609 -0.2836
  725MOL0     C99962   1.876   6.973   9.376  0.0729 -0.6044 -0.6675
  725MOL0     N99963   1.764   6.733  10.138  0.1353 -0.3122  0.9640
  725MOL0     N99964   1.688   6.646  10.184 -0.4401 -0.0608 -0.2022
  725MOL0     C99965   0.779   6.353   9.676 -0.6154 -0.2508  0.3577
  725MOL0     C99966   0.647   6.373   9.651  0.1458  0.2077 -0.0125
  725MOL0     C99967   0.334   6.645   9.405 -0.1427 -0.1077  0.3233
  725MOL0     C99968   0.246   6.534   9.384  0.0586  0.5443  0.0062
  725MOL0     C99969   0.122   6.558   9.318  0.4976 -0.1454  0.2482
  725MOL0     C99970   0.080   6.687   9.284 -0.2254  0.5123  1.0166
  725MOL0     O99971  -0.041   6.699   9.213  0.5502  0.0750  0.0406
  725MOL0     C99972  -0.067   6.840   9.177  0.2383  0.5980 -0.2457
  725MOL0     C99973  -0.201   6.839   9.093 -0.8184  0.6194  0.3901
  725MOL0     C99974  -0.167   6.765   8.960 -0.5765  0.1963 -1.2420
  725MOL0     C99975  -0.282   6.786   8.865 -0.3117  0.1263 -0.2382
  725MOL0     C99976  -0.226   6.754   8.733 -0.2787  0.7071  0.8067
  725MOL0     C99977  -0.194   6.732   8.619  0.1331 -0.1300 -0.9732
  725MOL0     C99978   0.169   6.794   9.307 -0.0958  0.3450 -0.9202
  725MOL0     C99979   0.302   6.775   9.357 -0.5323  0.0915  0.3021
  725MOL0     C99980   0.402   6.894   9.372  0.6833  0.4764 -1.7183
  725MOL0     H99981   0.703   6.526   9.341  3.3237  1.5296  0.7151
  725MOL0     H99982   0.920   6.476   9.395  0.4542 -2.5775 -0.2011
  725MOL0     H99983   1.162   6.297   9.724 -0.4271  0.2271 -2.7076
  725MOL0     H99984   1.000   6.258   9.777 -1.2640  0.2768 -1.8910
  725MOL0     H99985   1.114   6.541   9.806 -0.3227  0.5307  0.2100
  725MOL0     H99986   0.961   6.487   9.846  0.4891  1.2267 -1.9528
  725MOL0     H99987   1.036   6.322  10.014 -1.2233  2.2672  2.0091
  725MOL0     H99988   1.200   6.347   9.958  1.7362  0.8019 -1.9915
  725MOL0     H99989   1.181   6.593  10.015 -2.1340  2.9264  0.1852
  725MOL0     H99990   1.021   6.554  10.082 -1.0847 -2.9246  0.7778
  725MOL0     H99991   1.076   6.433  10.268 -0.0808  0.8708  2.5839
  725MOL0     H99992   1.160   6.583  10.271  1.4572 -0.5275  2.5600
  725MOL0     H99993   1.309   6.421  10.345  2.7702  0.9070  0.4441
  725MOL0     H99994   1.308   6.330  10.190  0.0319  0.4497 -1.8554
  725MOL0     H99995   1.397   6.509  10.066 -0.4033 -0.9425  0.3249
  725MOL0     H99996   1.503   6.435  10.177 -0.9404 -0.8525 -1.2627
  725MOL0     H99997   1.348   6.699  10.236 -0.2357 -0.5927 -2.6118
  725MOL0     H99998   1.466   6.628  10.347 -2.1681 -1.6689 -0.1316
  725MOL0     H99999   1.480   6.886  10.093 -0.7119 -1.7166  0.1820
  725MOL0     H    0   1.849   6.988  10.084  0.3696 -1.2002 -1.1191
  725MOL0     H    1   1.687   7.048  10.032 -0.4710 -0.2151  0.2016
  725MOL0     H    2   1.860   7.035   9.871 -2.8280  0.6958  0.8275
  725MOL0     H    3   1.877   6.859   9.881  1.1072  0.2415  1.8088
  725MOL0     H    4   1.640   6.836   9.798  0.2357 -0.4411  0.2607
  725MOL0     H    5   1.613   7.005   9.802 -0.6268 -0.9606 -1.4988
  725MOL0     H    6   1.637   6.969   9.585 -1.0138 -1.2472  2.0586
  725MOL0     H    7   1.781   7.050   9.634  1.8974 -0.6010 -1.7861
  725MOL0     H    8   2.069   6.858   9.632 -3.0239 -0.4233 -0.3969
  725MOL0     H    9   2.277   6.850   9.576  1.1196 -1.3576 -1.2008
  725MOL0     H   10   2.358   6.989   9.510  1.0454  0.3419 -2.1123
  725MOL0     H   11   2.321   6.838   9.414 -1.5599  0.6285 -0.1986
  725MOL0     H   12   2.551   6.969   9.169 -1.6353  0.1385  1.6894
  725MOL0     H   13   2.751   7.081   9.083 -2.1531 -1.3251 -1.5111
  725MOL0     H   14   2.940   7.235   9.171  1.0595  0.7850  0.2424
  725MOL0     H   15   2.906   7.197   9.001 -1.7108  2.0488 -0.6240
  725MOL0     H   16   3.099   7.309   8.948  2.3523  1.0617  1.6931
  725MOL0     H   17   2.993   7.454   8.977 -0.9558  1.5233  1.8423
  725MOL0     H   18   3.164   7.293   9.166 -1.7650 -0.8825 -0.9705
  725MOL0     H   19   3.075   7.441   9.220  2.6760  2.0674  0.8245
  725MOL0     H   20   3.191   7.569   9.028 -0.7093 -0.5119 -0.6799
  725MOL0     H   21   3.300   7.442   9.027 -1.3962  0.3657 -1.0295
  725MOL0     H   22   3.380   7.628   9.184 -0.5877 -0.9074 -3.0482
  725MOL0     H   23   3.226   7.621   9.277 -0.7755 -0.1243 -0.1766
  725MOL0     H   24   3.278   7.400   9.353  0.7167 -1.5513 -1.2905
  725MOL0     H   25   3.412   7.511   9.390  1.1536 -2.9916 -0.4088
  725MOL0     H   26   3.532   7.441   9.180  0.6956  0.2056  1.2485
  725MOL0     H   27   3.422   7.303   9.166  1.5155  0.7644 -1.7616
  725MOL0     H   28   3.486   7.234   9.401 -1.0663  1.4224  0.6786
  725MOL0     H   29   3.595   7.364   9.410 -0.7167  1.3069 -0.9641
  725MOL0     H   30   2.578   7.461   9.164 -0.3747  0.3073  0.6172
  725MOL0     H   31   2.378   7.357   9.265  0.1957 -0.4997 -0.9769
  725MOL0     H   32   1.955   7.076   9.200  1.3512  0.1959 -0.5526
  725MOL0     H   33   1.772   6.986   9.350  0.8653  1.1679 -3.3573
  725MOL0     H   34   0.796   6.331   9.781  1.7373  1.6142  0.4544
  725MOL0     H   35   0.578   6.365   9.735  0.6726  1.3734  0.5507
  725MOL0     H   36   0.252   6.434   9.427 -2.5369  0.6795  0.8614
  725MOL0     H   37   0.047   6.480   9.308 -0.9840  0.8629  2.5597
  725MOL0     H   38  -0.088   6.899   9.267 -0.2839  1.2728 -0.7989
  725MOL0     H   39   0.019   6.885   9.126  2.1922 -1.6858  0.8296
  725MOL0     H   40  -0.228   6.941   9.066  0.6144  0.6793 -0.9951
  725MOL0     H   41  -0.280   6.786   9.146 -1.6255  0.8868 -0.5028
  725MOL0     H   42  -0.073   6.803   8.920 -0.4091  1.4602  0.2430
  725MOL0     H   43  -0.166   6.658   8.983 -2.3924  0.9007  3.3933
  725MOL0     H   44  -0.310   6.892   8.863  0.9738  0.6128  2.6339
  725MOL0     H   45  -0.369   6.724   8.890 -1.9382  1.4213 -2.3740
  725MOL0     H   46  -0.169   6.717   8.516 -0.3529 -2.0432 -0.8590
  725MOL0     H   47   0.133   6.896   9.298 -0.3137  0.1601 -2.4034
  725MOL0     H   48   0.496   6.883   9.317  2.2366  0.9360  0.6529
  725MOL0     H   49   0.349   6.980   9.330 -1.5035 -0.5665 -1.2588
  725MOL0     H   50   0.422   6.917   9.477 -2.1771 -1.1333 -0.7262
  726MOL0     O   51   9.912   0.071   8.276  0.5159 -0.2057 -0.2855
  726MOL0     C   52   9.906  -0.053   8.285  0.9895 -0.2645 -0.0091
  726MOL0     O   53  10.000  -0.131   8.318 -1.0031  0.6147 -0.4159
  726MOL0     C   54  10.125  -0.067   8.326 -0.0307 -0.4984 -0.7753
  726MOL0     C   55  10.164  -0.004   8.445 -1.5867 -0.5129  0.3893
  726MOL0     C   56  10.285   0.067   8.454  0.0820  0.5555 -0.7788
  726MOL0     C   57  10.367   0.073   8.337  0.0898  0.1536  0.4148
  726MOL0     O   58  10.494   0.126   8.348  0.2400  0.0783 -0.3807
  726MOL0     C   59  10.581   0.026   8.403  0.2022  0.0987  0.4997
  726MOL0     C   60  10.723   0.077   8.423  0.2298  0.0366 -1.1685
  726MOL0     C   61  10.788   0.144   8.304 -0.4747  0.4377 -0.4607
  726MOL0     C   62  10.938   0.167   8.344 -0.3270  0.7313  0.1426
  726MOL0     C   63  11.026   0.148   8.219 -0.9587 -0.7358 -0.6054
  726MOL0     C   64  11.169   0.199   8.251  0.4884  0.2134 -0.2105
  726MOL0     C   65  11.265   0.132   8.162 -0.0837  1.1463  0.5138
  726MOL0     C   66  11.403   0.188   8.150  0.0598  0.4470  0.3993
  726MOL0     N   67  11.476   0.134   8.031 -0.3430  0.4150 -0.1841
  726MOL0     C   68  11.582   0.199   7.964  0.6162 -0.2547 -0.8317
  726MOL0     C   69  11.613   0.116   7.861  0.4133 -0.3437  1.1115
  726MOL0     C   70  11.695   0.134   7.733  0.2740 -0.1081  0.1427
  726MOL0     C   71  11.835   0.087   7.750 -0.1254 -0.2709  0.3226
  726MOL0     C   72  11.849  -0.062   7.718 -0.9074 -0.0978 -0.0768
  726MOL0     C   73  12.000  -0.104   7.738  0.6532 -0.3322 -0.1650
  726MOL0     O   74  12.081  -0.055   7.629 -0.1748  0.0675  0.2117
  726MOL0     C   75  12.221  -0.067   7.645  1.1976 -0.4495  0.0431
  726MOL0     C   76  12.291  -0.186   7.615  0.4974 -0.3185  0.0188
  726MOL0     C   77  12.429  -0.181   7.587 -0.4519  0.0817  0.1394
  726MOL0     C   78  12.500  -0.306   7.546 -0.7227  0.4319 -0.1282
  726MOL0     C   79  12.506  -0.059   7.614  0.7235  0.0834  0.4585
  726MOL0     C   80  12.651  -0.051   7.612 -0.3729 -0.5581 -0.4039
  726MOL0     O   81  12.716  -0.140   7.534 -0.9610 -0.7707 -0.1734
  726MOL0     C   82  12.854  -0.141   7.531  0.5471  0.1629 -0.4325
  726MOL0     C   83  12.914  -0.260   7.582  0.6931 -0.2710 -0.4145
  726MOL0     C   84  13.046  -0.272   7.581 -0.4440 -0.2235  0.4904
  726MOL0     C   85  13.130  -0.172   7.535 -0.0368  0.4770  0.5736
  726MOL0     O   86  13.261  -0.205   7.539 -0.0656  0.7408  0.2113
  726MOL0     C   87  13.344  -0.144   7.433  0.3391  0.1212  0.0003
  726MOL0     C   88  13.480  -0.214   7.406  0.5205  0.2574  0.2689
  726MOL0     C   89  13.557  -0.144   7.297  0.3163  0.1765  0.6072
  726MOL0     C   90  13.697  -0.199   7.298  1.0439  0.3542  0.8715
  726MOL0     C   91  13.771  -0.122   7.185  1.2683 -0.1844 -0.0531
  726MOL0     C   92  13.911  -0.184   7.162  0.3719  0.0302 -0.0683
  726MOL0     C   93  13.977  -0.114   7.037 -0.5225  0.4262 -0.3605
  726MOL0     C   94  14.101  -0.182   6.999 -0.1397  0.0558  0.3515
  726MOL0    Cl   95  14.188  -0.100   6.851 -0.1841  0.0536 -0.0329
  726MOL0     C   96  13.072  -0.053   7.486  0.3295  0.2059  0.2221
  726MOL0     C   97  12.931  -0.041   7.489 -0.1934 -0.4897 -0.3226
  726MOL0     O   98  12.704   0.046   7.660 -0.0009 -0.6623  0.8852
  726MOL0     C   99  12.427   0.056   7.636  0.0722  0.0685 -0.5287
  726MOL0     C  100  12.284   0.056   7.655 -0.7183  0.1818  0.1256
  726MOL0     N  101  11.544  -0.003   7.885  0.3825  0.4852  0.2665
  726MOL0     N  102  11.467   0.004   7.987 -0.0099 -0.2324 -0.0589
  726MOL0     C  103  10.316   0.023   8.218 -0.1138 -0.3106 -0.2096
  726MOL0     C  104  10.198  -0.044   8.217  0.5592  0.8215 -0.3649
  726MOL0     C  105   9.775  -0.120   8.279 -0.0144  0.0717  0.2399
  726MOL0     C  106   9.764  -0.251   8.317 -0.1832  0.3917  0.3520
  726MOL0     C  107   9.643  -0.323   8.320  0.2641  0.1311 -0.2976
  726MOL0     C  108   9.521  -0.266   8.274 -0.1005  0.7547  0.2894
  726MOL0     O  109   9.395  -0.321   8.259  0.4502 -0.1504 -0.0446
  726MOL0     C  110   9.396  -0.468   8.272  0.9173  0.0525  0.7483
  726MOL0     C  111   9.250  -0.519   8.247 -0.0189 -0.3558  0.7917
  726MOL0     C  112   9.207  -0.496   8.106 -0.0706  0.2341 -0.1567
  726MOL0     C  113   9.064  -0.541   8.069 -0.1543 -0.2067  0.0318
  726MOL0     C  114   9.048  -0.557   7.923  0.1200  0.4804  0.2009
  726MOL0     C  115   9.026  -0.576   7.807 -0.2619 -0.3232  0.6371
  726MOL0     C  116   9.530  -0.127   8.236  0.5363 -0.4221  0.9435
  726MOL0     C  117   9.654  -0.057   8.235  0.7527 -0.2266 -0.6552
  726MOL0     C  118   9.637   0.093   8.200 -0.0757  0.2565  0.2640
  726MOL0     H  119  10.105   0.001   8.536 -0.1402 -0.8125  1.3926
  726MOL0     H  120  10.331   0.091   8.549  1.3668 -3.8544 -0.0620
  726MOL0     H  121  10.579  -0.055   8.329 -1.8455 -0.2483  0.8691
  726MOL0     H  122  10.540  -0.009   8.498 -1.7211 -1.2207 -0.7311
  726MOL0     H  123  10.734   0.146   8.507 -1.3490 -0.8755 -0.1399
  726MOL0     H  124  10.779  -0.016   8.439 -0.7480 -0.9531 -3.1565
  726MOL0     H  125  10.783   0.079   8.216 -1.1984 -1.4883  0.9283
  726MOL0     H  126  10.741   0.239   8.277  3.3853  2.4360 -0.7693
  726MOL0     H  127  10.941   0.264   8.395 -0.4583  0.6801  0.2437
  726MOL0     H  128  10.974   0.088   8.410  1.1654 -0.0060 -1.4467
  726MOL0     H  129  10.979   0.205   8.139  0.5934  4.2719  1.6197
  726MOL0     H  130  11.034   0.042   8.192 -1.9670 -0.8655 -0.4149
  726MOL0     H  131  11.166   0.307   8.238  0.6537  0.1371 -0.9584
  726MOL0     H  132  11.195   0.190   8.357 -1.6961 -0.0683  0.3607
  726MOL0     H  133  11.220   0.122   8.063  0.1718  0.9170  0.4173
  726MOL0     H  134  11.275   0.027   8.191  0.3339 -0.1443 -3.6783
  726MOL0     H  135  11.397   0.297   8.142  1.8155  0.6035  0.8295
  726MOL0     H  136  11.460   0.166   8.241 -0.3372  3.3323  1.4558
  726MOL0     H  137  11.607   0.304   7.971 -0.9786  0.0466  1.8577
  726MOL0     H  138  11.703   0.240   7.709 -0.6252  0.0426  0.4698
  726MOL0     H  139  11.640   0.084   7.653  2.2171  1.1806 -2.1145
  726MOL0     H  140  11.899   0.146   7.684 -0.2783  0.3688  0.7402
  726MOL0     H  141  11.869   0.109   7.852  1.4793  0.0342 -0.2561
  726MOL0     H  142  11.786  -0.122   7.784 -0.8112 -0.6619 -0.4809
  726MOL0     H  143  11.819  -0.082   7.614  0.7486 -3.4991 -0.0419
  726MOL0     H  144  12.031  -0.066   7.836  3.5572  1.4937 -1.6464
  726MOL0     H  145  11.998  -0.213   7.743 -0.8731 -0.3507 -0.6177
  726MOL0     H  146  12.232  -0.276   7.598 -4.0796  2.6014 -1.6165
  726MOL0     H  147  12.547  -0.292   7.449 -0.6370  5.2180  0.3453
  726MOL0     H  148  12.431  -0.391   7.542  2.4850 -2.4168  0.6388
  726MOL0     H  149  12.574  -0.335   7.621  0.6737  1.3657 -1.0926
  726MOL0     H  150  12.838  -0.330   7.614 -1.8870  1.9963 -1.1377
  726MOL0     H  151  13.083  -0.364   7.625  0.5807  1.4709  3.4170
  726MOL0     H  152  13.282  -0.143   7.343  1.7026  1.2548 -0.9682
  726MOL0     H  153  13.352  -0.035   7.447 -2.1548  0.4822 -0.7977
  726MOL0     H  154  13.542  -0.202   7.496 -0.7941  0.8594  1.1226
  726MOL0     H  155  13.460  -0.320   7.385 -0.6784  0.3960  0.6317
  726MOL0     H  156  13.551  -0.036   7.312 -1.3124  0.4465 -1.4841
  726MOL0     H  157  13.508  -0.172   7.203  0.0631  1.0464  0.4710
  726MOL0     H  158  13.692  -0.303   7.265 -1.4078  0.8608 -0.6324
  726MOL0     H  159  13.751  -0.198   7.393 -1.4604 -4.1130  2.6297
  726MOL0     H  160  13.706  -0.130   7.098 -0.2799  2.0955  0.7907
  726MOL0     H  161  13.781  -0.015   7.207 -0.4169  0.2645 -1.2497
  726MOL0     H  162  13.906  -0.292   7.149  2.1450 -0.1126  0.1978
  726MOL0     H  163  13.973  -0.172   7.251  1.3228  1.2198 -0.8507
  726MOL0     H  164  14.006  -0.010   7.057  3.0503 -0.0574 -2.1377
  726MOL0     H  165  13.903  -0.121   6.957 -1.4291 -0.4297  0.5268
  726MOL0     H  166  14.092  -0.290   6.979  2.8130 -0.8923  3.1899
  726MOL0     H  167  14.168  -0.168   7.084  2.2735 -0.3415 -1.3855
  726MOL0     H  168  13.130   0.031   7.449 -1.0245  1.0391 -0.0893
  726MOL0     H  169  12.891   0.057   7.465 -1.1248  0.2571  3.6073
  726MOL0     H  170  12.478   0.149   7.662  0.3808 -0.4739  0.9253
  726MOL0     H  171  12.226   0.148   7.657 -1.1519 -0.1035  2.4286
  726MOL0     H  172  10.366   0.049   8.125 -2.2533  3.2486 -0.5468
  726MOL0     H  173  10.151  -0.071   8.123 -0.5815  1.6449 -0.0559
  726MOL0     H  174   9.839  -0.321   8.352  2.2039  1.7153 -1.8634
  726MOL0     H  175   9.647  -0.429   8.341 -1.7678 -0.6800 -3.3420
  726MOL0     H  176   9.463  -0.512   8.197 -0.5277  1.7834 -1.7137
  726MOL0     H  177   9.431  -0.495   8.372  0.5869 -1.5077  0.4713
  726MOL0     H  178   9.173  -0.481   8.314  2.1911  2.0404  2.1748
  726MOL0     H  179   9.253  -0.627   8.265  0.0091 -0.5612 -0.3485
  726MOL0     H  180   9.213  -0.388   8.089  0.9189  0.8263  3.2808
  726MOL0     H  181   9.277  -0.541   8.034 -3.3931 -0.0110 -3.5817
  726MOL0     H  182   8.988  -0.467   8.096  0.5049  0.1379  0.9804
  726MOL0     H  183   9.056  -0.637   8.120 -0.3316  0.1455  0.6721
  726MOL0     H  184   9.018  -0.599   7.703  2.2275 -2.9105  0.8864
  726MOL0     H  185   9.441  -0.080   8.197  0.1381 -2.4199 -0.7178
  726MOL0     H  186   9.613   0.156   8.286  1.4354  3.4452 -1.4997
  726MOL0     H  187   9.723   0.141   8.153 -0.9651  2.5049  0.8150
  726MOL0     H  188   9.561   0.116   8.124  0.0137  0.6317  0.2884
  727MOL0     O  189   7.052  10.252   8.992  0.6560  0.3247 -0.5248
  727MOL0     C  190   7.016  10.350   8.930 -0.5287 -0.0781 -0.6054
  727MOL0     O  191   7.104  10.441   8.874 -0.3725  0.2609 -0.2978
  727MOL0     C  192   7.236  10.438   8.889  0.5699 -1.1112  0.0432
  727MOL0     C  193   7.316  10.451   8.772  0.0302  0.3844  0.6062
  727MOL0     C  194   7.456  10.448   8.790  0.1917 -0.1606 -0.5296
  727MOL0     C  195   7.518  10.448   8.918  0.1102  1.0468 -0.8612
  727MOL0     O  196   7.657  10.442   8.919  0.2285 -0.3951 -0.3045
  727MOL0     C  197   7.728  10.469   9.039  0.6483 -0.4547 -0.3208
  727MOL0     C  198   7.880  10.451   9.023 -0.8660 -0.1070 -0.9999
  727MOL0     C  199   7.964  10.510   9.138  0.6257 -0.7114  0.6768
  727MOL0     C  200   8.116  10.490   9.124 -0.0286  0.4938  0.2661
  727MOL0     C  201   8.184  10.571   9.237 -0.8029 -0.1665  0.1707
  727MOL0     C  202   8.333  10.557   9.228 -0.6947  0.2018  0.2844
  727MOL0     C  203   8.414  10.642   9.329 -0.2767  0.2296 -0.7853
  727MOL0     C  204   8.562  10.653   9.299  1.5234  0.0172 -0.4342
  727MOL0     N  205   8.628  10.738   9.391  0.0640  0.1287  0.4046
  727MOL0     C  206   8.644  10.707   9.526  0.4390 -0.5400 -0.3250
  727MOL0     C  207   8.714  10.809   9.580 -0.1632  0.8023  0.0942
  727MOL0     C  208   8.754  10.820   9.719 -0.1141 -0.1837 -0.6173
  727MOL0     C  209   8.901  10.798   9.740 -0.7114  0.2769  0.3631
  727MOL0     C  210   8.943  10.661   9.694 -0.4373  0.6258 -0.5765
  727MOL0     C  211   9.091  10.625   9.729 -0.3244  0.0141  0.1572
  727MOL0     O  212   9.122  10.614   9.872  0.7922 -0.1261  1.1218
  727MOL0     C  213   9.250  10.572   9.887  0.4853 -0.9683  0.4452
  727MOL0     C  214   9.352  10.534   9.800 -0.4363 -0.0771  0.0384
  727MOL0     C  215   9.483  10.506   9.847 -0.7042 -0.5807  0.6930
  727MOL0     C  216   9.572  10.463   9.734 -0.7046 -1.0974 -0.5467
  727MOL0     C  217   9.522  10.513   9.979  0.0775 -0.9095  0.6596
  727MOL0     C  218   9.650  10.472  10.037 -0.3576  0.2290 -0.2353
  727MOL0     O  219   9.754  10.460   9.947  0.7195  0.0830  0.0923
  727MOL0     C  220   9.870  10.430  10.003 -0.7435 -0.5003  0.7955
  727MOL0     C  221   9.941  10.524  10.078  0.6897  0.3912 -0.6089
  727MOL0     C  222  10.069  10.499  10.121 -0.0540  0.2379 -0.5980
  727MOL0     C  223  10.134  10.381  10.088 -0.1584  0.6359  0.3926
  727MOL0     O  224  10.262  10.362  10.126 -0.2686 -0.0553 -0.1949
  727MOL0     C  225  10.332  10.248  10.078 -0.3892  0.6632 -0.1133
  727MOL0     C  226  10.455  10.224  10.162  0.5380  0.9687  0.3255
  727MOL0     C  227  10.504  10.080  10.169  0.0686  0.2624 -0.2290
  727MOL0     C  228  10.637  10.066  10.244 -0.5606 -0.6949 -0.0400
  727MOL0     C  229  10.760  10.120  10.162 -0.0182 -0.2576 -0.8546
  727MOL0     C  230  10.891  10.063  10.209  0.1244 -0.3464 -0.0743
  727MOL0     C  231  11.020  10.132  10.174 -0.1637  0.2087 -0.6275
  727MOL0     C  232  11.041  10.110  10.018 -0.4729 -0.3029 -0.0413
  727MOL0    Cl  233  11.199  10.191   9.978  0.2698  0.5691 -0.7104
  727MOL0     C  234  10.063  10.274  10.018 -0.1780  0.0143  0.0303
  727MOL0     C  235   9.932  10.304   9.981  0.1229 -0.3516  0.8178
  727MOL0     O  236   9.664  10.464  10.159 -0.1921  0.1914 -0.0883
  727MOL0     C  237   9.419  10.561  10.064 -0.0256  0.2617  0.1307
  727MOL0     C  238   9.285  10.583  10.024 -0.5851  0.2153  0.6927
  727MOL0     N  239   8.737  10.897   9.474  0.1497  0.0625 -0.6784
  727MOL0     N  240   8.698  10.846   9.367  0.1503 -0.0637  0.1990
  727MOL0     C  241   7.438  10.441   9.038 -0.4193 -0.9248  0.3243
  727MOL0     C  242   7.299  10.431   9.018 -0.7417  0.3389  0.0412
  727MOL0     C  243   6.870  10.374   8.920 -0.6192 -1.3236  0.9359
  727MOL0     C  244   6.793  10.330   9.019 -0.0222  0.1095  0.1811
  727MOL0     C  245   6.649  10.346   9.010 -0.7760  0.2564  0.1590
  727MOL0     C  246   6.598  10.401   8.898  0.7399 -0.5280 -0.5695
  727MOL0     O  247   6.459  10.399   8.882 -0.4488 -0.6616  0.3409
  727MOL0     C  248   6.380  10.466   8.972  0.2707 -0.6401 -0.6274
  727MOL0     C  249   6.239  10.465   8.917  0.1916  0.0014  0.4831
  727MOL0     C  250   6.181  10.329   8.916  0.7058  1.4117 -0.1576
  727MOL0     C  251   6.028  10.334   8.892 -0.1214 -0.0344 -0.1408
  727MOL0     C  252   5.983  10.335   8.744  1.0942  0.2402  0.7256
  727MOL0     C  253   5.940  10.332   8.628 -0.3936 -0.5379  0.1562
  727MOL0     C  254   6.676  10.444   8.792  0.4940 -0.3969  0.2624
  727MOL0     C  255   6.812  10.432   8.799  0.3569  0.0785  1.0413
  727MOL0     C  256   6.891  10.472   8.674 -0.2690  0.7476  0.3027
  727MOL0     H  257   7.292  10.467   8.668 -1.9993  0.6123  1.0617
  727MOL0     H  258   7.522  10.482   8.711  1.7287  1.2846  1.2643
  727MOL0     H  259   7.685  10.405   9.116  0.3841 -1.8397 -1.5705
  727MOL0     H  260   7.719  10.574   9.067 -0.5085 -0.4472 -0.6924
  727MOL0     H  261   7.908  10.347   9.000 -0.8774 -0.0348 -1.3485
  727MOL0     H  262   7.914  10.495   8.928 -1.7782  1.1079 -0.7815
  727MOL0     H  263   7.937  10.614   9.160  1.2862 -0.3352 -0.2059
  727MOL0     H  264   7.925  10.464   9.229 -3.9512  0.2286 -0.5736
  727MOL0     H  265   8.145  10.385   9.133 -0.1620  0.6361  3.3089
  727MOL0     H  266   8.142  10.527   9.024  0.4320 -0.5502 -0.0132
  727MOL0     H  267   8.146  10.533   9.332 -0.7950  0.6249  0.4959
  727MOL0     H  268   8.166  10.678   9.228  2.2858  0.4124 -0.4174
  727MOL0     H  269   8.361  10.452   9.245 -0.0366  0.3236 -0.0634
  727MOL0     H  270   8.372  10.589   9.132 -1.3394 -0.4916 -0.2172
  727MOL0     H  271   8.396  10.591   9.425 -3.3928 -1.0990 -1.9349
  727MOL0     H  272   8.375  10.744   9.320 -0.9204 -0.0729 -1.5602
  727MOL0     H  273   8.605  10.554   9.316  2.8265  0.4972 -0.8099
  727MOL0     H  274   8.576  10.686   9.196  1.3576 -0.6989 -0.6878
  727MOL0     H  275   8.607  10.625   9.587  1.4076 -0.5628  0.2470
  727MOL0     H  276   8.701  10.751   9.785  1.2210  1.0642  1.8922
  727MOL0     H  277   8.726  10.921   9.748 -2.8780 -0.5830 -1.6002
  727MOL0     H  278   8.952  10.868   9.672  0.6902 -0.1148  0.9783
  727MOL0     H  279   8.930  10.815   9.844  1.0359  1.0809 -0.2095
  727MOL0     H  280   8.879  10.587   9.742  1.5426 -0.2804  0.8067
  727MOL0     H  281   8.928  10.648   9.587  0.0964  1.1706 -0.7227
  727MOL0     H  282   9.110  10.524   9.691 -0.3282  0.8847 -2.3018
  727MOL0     H  283   9.166  10.689   9.681  0.1580  0.4689  1.4535
  727MOL0     H  284   9.329  10.527   9.694  1.2051  0.2804 -0.3665
  727MOL0     H  285   9.525  10.462   9.635 -1.2849 -0.0470 -0.2982
  727MOL0     H  286   9.600  10.359   9.751  0.6152 -1.0906 -2.3544
  727MOL0     H  287   9.658  10.530   9.725 -1.3529 -0.1642  0.0238
  727MOL0     H  288   9.919  10.630  10.089  0.2143  0.0670  2.8471
  727MOL0     H  289  10.131  10.566  10.181  2.6375 -0.3643 -2.4961
  727MOL0     H  290  10.279  10.154  10.096  3.1691 -1.3441  0.7495
  727MOL0     H  291  10.353  10.255   9.971  1.2462 -0.6307  0.0936
  727MOL0     H  292  10.526  10.301  10.133  1.1436  0.5091  0.5733
  727MOL0     H  293  10.421  10.252  10.262 -1.0631  0.6975 -0.1084
  727MOL0     H  294  10.518  10.040  10.068 -2.3721 -3.3401  0.6712
  727MOL0     H  295  10.422  10.021  10.210  2.5368 -1.3573  2.8255
  727MOL0     H  296  10.662   9.959  10.244  2.8345 -0.0520 -2.8645
  727MOL0     H  297  10.625  10.106  10.345 -1.4328 -4.6628  1.6682
  727MOL0     H  298  10.744  10.096  10.056 -0.3018 -1.2265 -0.6076
  727MOL0     H  299  10.763  10.229  10.168  1.3545  0.0009 -4.1193
  727MOL0     H  300  10.893   9.956  10.191 -0.3577 -0.5372  0.9375
  727MOL0     H  301  10.892  10.085  10.316  1.6480  1.3776 -0.3760
  727MOL0     H  302  11.106  10.090  10.226  1.4975 -0.1069 -3.3817
  727MOL0     H  303  11.017  10.238  10.202  1.2506 -0.1404  1.0493
  727MOL0     H  304  10.962  10.158   9.958  0.2907 -3.2289 -3.7383
  727MOL0     H  305  11.058  10.006   9.988  1.4115  0.8619 -3.6749
  727MOL0     H  306  10.096  10.179   9.978 -0.0172  0.2440 -0.3884
  727MOL0     H  307   9.871  10.238   9.921 -0.2973  0.6505  0.1159
  727MOL0     H  308   9.428  10.592  10.168 -1.9224  3.0578 -0.4275
  727MOL0     H  309   9.218  10.633  10.093  1.0502  0.0261  2.4868
  727MOL0     H  310   7.479  10.442   9.138  0.4382 -2.4558  0.0198
  727MOL0     H  311   7.240  10.425   9.110  3.3131  0.6237  2.9166
  727MOL0     H  312   6.836  10.282   9.106 -1.3307 -0.9154  0.2992
  727MOL0     H  313   6.588  10.315   9.094 -2.4876 -0.2829 -1.2152
  727MOL0     H  314   6.387  10.422   9.071  1.7779  1.2054  0.1487
  727MOL0     H  315   6.409  10.570   8.990 -2.5762  0.4298 -1.6989
  727MOL0     H  316   6.238  10.509   8.817  0.0429 -1.6371 -0.2749
  727MOL0     H  317   6.182  10.538   8.976  1.7635  0.8154  1.0712
  727MOL0     H  318   6.231  10.261   8.846  0.9843 -0.5560  1.8105
  727MOL0     H  319   6.195  10.279   9.013 -1.0084 -0.6736 -0.8995
  727MOL0     H  320   6.001  10.431   8.935  0.4629  0.3679 -0.6600
  727MOL0     H  321   5.978  10.251   8.942 -1.0309  0.4602 -0.2230
  727MOL0     H  322   5.894  10.329   8.531 -0.4925  1.0928  0.1407
  727MOL0     H  323   6.629  10.494   8.708  1.4915 -0.4743 -0.3530
  727MOL0     H  324   6.982  10.529   8.698  1.1269 -1.5804  0.8975
  727MOL0     H  325   6.917  10.374   8.633 -0.7286  0.6245  0.2980
  727MOL0     H  326   6.824  10.524   8.605  0.9484  0.1193 -1.4314
  728MOL0     O  327   7.230   2.923   6.264  0.0357  0.2849  0.2219
  728MOL0     C  328   7.190   2.829   6.203  0.1380  0.0655 -0.0844
  728MOL0     O  329   7.261   2.714   6.176 -0.0830 -0.4235  0.0935
  728MOL0     C  330   7.399   2.707   6.195  0.9343 -0.3157 -0.3400
  728MOL0     C  331   7.440   2.586   6.242 -0.2045 -0.8549  0.5929
  728MOL0     C  332   7.577   2.561   6.267 -0.6184 -0.2750  0.1729
  728MOL0     C  333   7.671   2.659   6.239  0.0735  0.3207  0.1814
  728MOL0     O  334   7.802   2.624   6.262  0.1524 -0.2753 -0.8934
  728MOL0     C  335   7.912   2.719   6.241  0.3545  0.2362  0.1935
  728MOL0     C  336   7.958   2.737   6.097  0.4038  0.0889 -0.7417
  728MOL0     C  337   7.992   2.600   6.043 -0.4530 -0.6213 -0.0386
  728MOL0     C  338   8.083   2.613   5.914  0.3340 -0.8553 -1.2619
  728MOL0     C  339   8.223   2.664   5.954 -0.1392 -0.3000  0.5537
  728MOL0     C  340   8.289   2.573   6.066 -0.0299 -0.6064 -0.4347
  728MOL0     C  341   8.445   2.565   6.042  0.6866  0.9903 -0.1922
  728MOL0     C  342   8.507   2.481   6.150 -1.1415  0.4519 -0.5323
  728MOL0     N  343   8.649   2.464   6.114 -0.0637  0.4822 -0.1396
  728MOL0     C  344   8.768   2.463   6.192  0.1611  0.1955 -0.5553
  728MOL0     C  345   8.871   2.425   6.110 -0.1957 -0.4180  0.2528
  728MOL0     C  346   9.015   2.407   6.145  0.4991  0.1493 -0.0508
  728MOL0     C  347   9.097   2.526   6.114 -0.3918  0.2003  0.3347
  728MOL0     C  348   9.072   2.659   6.193 -0.0555 -0.8658  0.2264
  728MOL0     C  349   9.108   2.661   6.342 -0.3469  0.4038  0.2115
  728MOL0     O  350   9.257   2.659   6.348 -0.3174 -0.1997  0.6421
  728MOL0     C  351   9.309   2.697   6.472 -0.3836 -0.2505  0.2336
  728MOL0     C  352   9.442   2.717   6.471  0.1635 -0.4457 -0.4181
  728MOL0     C  353   9.509   2.773   6.586  0.9852  0.2672 -1.0666
  728MOL0     C  354   9.651   2.805   6.579  0.7709  0.4458  0.5306
  728MOL0     C  355   9.442   2.772   6.713 -0.2739 -0.1232 -0.1210
  728MOL0     C  356   9.507   2.821   6.839 -0.0806  0.0612  0.4484
  728MOL0     O  357   9.519   2.750   6.952 -0.1036 -0.4399 -0.0734
  728MOL0     C  358   9.589   2.812   7.062  0.2986  0.1207  1.1997
  728MOL0     C  359   9.510   2.846   7.171  0.4950 -0.1450  0.5566
  728MOL0     C  360   9.571   2.895   7.286  0.2091 -0.2457  0.3628
  728MOL0     C  361   9.709   2.907   7.297 -0.0302  0.3493 -0.1755
  728MOL0     O  362   9.773   2.953   7.415 -0.9347 -0.1324  0.0812
  728MOL0     C  363   9.687   2.979   7.526  0.0886 -0.1365 -0.5119
  728MOL0     C  364   9.786   3.020   7.636  0.2089  0.9496  0.5513
  728MOL0     C  365   9.714   3.000   7.775 -0.8537 -0.1016  0.2249
  728MOL0     C  366   9.813   3.010   7.895  1.0074 -0.9427  0.4532
  728MOL0     C  367   9.755   2.936   8.024  0.5831 -0.6065 -0.5276
  728MOL0     C  368   9.860   2.916   8.126  0.6780  0.2696  0.2160
  728MOL0     C  369   9.817   2.835   8.248  1.0225  0.5773  0.2209
  728MOL0     C  370   9.903   2.875   8.366  0.1394 -0.1870  0.3084
  728MOL0    Cl  371   9.880   2.758   8.494  0.0353 -0.2541 -0.1205
  728MOL0     C  372   9.789   2.874   7.188  0.1841  0.6081  0.4796
  728MOL0     C  373   9.730   2.827   7.071 -0.5353 -0.7060  0.1267
  728MOL0     O  374   9.530   2.943   6.829 -0.0511  0.1571  0.0278
  728MOL0     C  375   9.307   2.745   6.712 -0.2022  0.5137  0.1739
  728MOL0     C  376   9.242   2.695   6.595  0.0044 -0.0978 -0.4629
  728MOL0     N  377   8.819   2.408   5.986  0.1229 -0.6228  0.2422
  728MOL0     N  378   8.694   2.431   5.991 -0.3208 -0.9555  0.0716
  728MOL0     C  379   7.627   2.789   6.189  0.0968  0.4385  0.8811
  728MOL0     C  380   7.488   2.812   6.174 -0.5603 -0.3283 -0.3115
  728MOL0     C  381   7.051   2.835   6.147 -0.3841  0.3876 -0.1010
  728MOL0     C  382   7.009   2.712   6.088 -0.5216 -0.9269  0.6312
  728MOL0     C  383   6.895   2.706   6.014 -0.6096 -0.4363 -0.4968
  728MOL0     C  384   6.808   2.811   6.005  0.0753 -0.7715 -0.1009
  728MOL0     O  385   6.684   2.788   5.948  0.3044  0.1462 -0.1370
  728MOL0     C  386   6.598   2.900   5.926 -0.2891 -0.1091  0.5845
  728MOL0     C  387   6.463   2.848   5.900  0.6201 -0.1092  0.2290
  728MOL0     C  388   6.374   2.962   5.844  0.3417  0.5210 -0.6152
  728MOL0     C  389   6.376   2.970   5.692  0.1800 -0.1988  0.3920
  728MOL0     C  390   6.298   3.089   5.642 -0.0458 -0.7234  0.5816
  728MOL0     C  391   6.216   3.176   5.602  0.1273 -0.2916  0.8379
  728MOL0     C  392   6.849   2.935   6.054  0.2339 -0.0695 -0.0355
  728MOL0     C  393   6.970   2.952   6.129  0.5507 -0.0382 -0.2422
  728MOL0     C  394   6.999   3.090   6.186 -0.3393  0.2462 -0.5140
  728MOL0     H  395   7.370   2.504   6.259  0.6788 -2.3042 -2.1521
  728MOL0     H  396   7.617   2.467   6.305 -0.7629  0.1019  1.3090
  728MOL0     H  397   8.003   2.692   6.295  1.6299  2.0177 -0.9446
  728MOL0     H  398   7.876   2.818   6.270 -0.1824 -0.1337  0.8033
  728MOL0     H  399   7.868   2.772   6.047 -1.2486 -1.2112  1.1674
  728MOL0     H  400   8.041   2.808   6.097 -0.3987  1.0358 -0.6717
  728MOL0     H  401   8.043   2.544   6.121 -1.6557 -0.6734  0.7240
  728MOL0     H  402   7.894   2.557   6.023 -1.4735  2.4120 -2.4946
  728MOL0     H  403   8.090   2.518   5.860  0.2745 -1.0086 -1.0045
  728MOL0     H  404   8.038   2.686   5.847 -0.9861 -0.9196 -0.4910
  728MOL0     H  405   8.227   2.770   5.977  3.1035  0.3792 -2.2933
  728MOL0     H  406   8.293   2.669   5.870 -2.0316 -1.1043 -1.1807
  728MOL0     H  407   8.276   2.626   6.160  2.0663  0.2889 -0.5881
  728MOL0     H  408   8.242   2.474   6.073  0.5580 -0.7967  1.0947
  728MOL0     H  409   8.504   2.655   6.060  2.4873 -0.5397  2.1627
  728MOL0     H  410   8.453   2.518   5.943 -0.0915  0.1595  0.1285
  728MOL0     H  411   8.502   2.519   6.252 -1.6802 -5.7494  2.2023
  728MOL0     H  412   8.465   2.381   6.167 -1.6738  0.9070  0.9053
  728MOL0     H  413   8.780   2.495   6.295  0.0740 -3.0803  0.5671
  728MOL0     H  414   9.048   2.314   6.098 -2.0623 -0.6915 -0.3547
  728MOL0     H  415   9.019   2.376   6.250  2.8084  0.2750 -0.0544
  728MOL0     H  416   9.202   2.499   6.130 -0.6815 -1.0942  0.1232
  728MOL0     H  417   9.080   2.552   6.009  1.0951 -0.8689 -0.2015
  728MOL0     H  418   9.130   2.745   6.157  1.5350  0.0001  4.3354
  728MOL0     H  419   8.966   2.683   6.182  0.6173  2.3925 -0.2963
  728MOL0     H  420   9.070   2.758   6.377 -0.7980  0.5821 -0.7260
  728MOL0     H  421   9.079   2.578   6.407  2.4603 -0.4837  0.4233
  728MOL0     H  422   9.486   2.725   6.371  1.1977  0.2801  0.0711
  728MOL0     H  423   9.665   2.910   6.550  1.6966  0.3844  0.7295
  728MOL0     H  424   9.690   2.747   6.495  0.1813  1.1827 -0.2748
  728MOL0     H  425   9.708   2.784   6.669 -1.4045  1.9770  2.3715
  728MOL0     H  426   9.404   2.824   7.163  0.6140 -0.4623 -0.3213
  728MOL0     H  427   9.504   2.918   7.369  1.3792  1.3643  0.9166
  728MOL0     H  428   9.616   3.059   7.502 -0.9233 -0.8474  0.0146
  728MOL0     H  429   9.630   2.889   7.552  1.4121 -0.3978  1.7205
  728MOL0     H  430   9.877   2.961   7.625 -1.0568 -0.8223 -0.9692
  728MOL0     H  431   9.816   3.125   7.621 -0.0738  1.5763  3.6656
  728MOL0     H  432   9.667   2.901   7.771 -1.7843  0.3633 -1.7205
  728MOL0     H  433   9.637   3.074   7.798  1.5763  2.4586  0.7042
  728MOL0     H  434   9.826   3.117   7.915  0.8035 -0.8096 -0.1034
  728MOL0     H  435   9.910   2.972   7.862  0.6396 -0.3394 -1.4512
  728MOL0     H  436   9.678   2.998   8.071  1.7630 -0.4551  1.3303
  728MOL0     H  437   9.697   2.848   7.994  0.7972 -0.3935 -1.5961
  728MOL0     H  438   9.891   3.013   8.167  1.8892 -0.3119  0.7064
  728MOL0     H  439   9.949   2.878   8.075  0.8699  0.1807  0.6177
  728MOL0     H  440   9.832   2.731   8.220 -0.5867  0.1227  0.9528
  728MOL0     H  441   9.709   2.824   8.265  1.1837 -2.2784 -0.1388
  728MOL0     H  442   9.879   2.973   8.406  1.3472  1.2028 -2.1518
  728MOL0     H  443  10.009   2.890   8.341  0.0650  2.2349  1.2165
  728MOL0     H  444   9.896   2.868   7.203 -0.0220 -0.0302  1.9237
  728MOL0     H  445   9.793   2.781   6.996 -1.3286 -0.6603 -0.5835
  728MOL0     H  446   9.243   2.763   6.797 -0.0023  1.6632  0.1006
  728MOL0     H  447   9.137   2.675   6.611 -0.9675  3.6097 -1.2720
  728MOL0     H  448   7.700   2.860   6.152 -0.8800  1.0146 -0.0252
  728MOL0     H  449   7.447   2.901   6.127 -1.5909 -1.0902 -0.8942
  728MOL0     H  450   7.064   2.619   6.100  1.5533  0.4410  2.5228
  728MOL0     H  451   6.866   2.609   5.975 -0.2337 -0.1157 -1.6116
  728MOL0     H  452   6.581   2.956   6.018 -1.7888  0.0997  0.2040
  728MOL0     H  453   6.621   2.960   5.837 -3.0057 -1.0810 -0.9002
  728MOL0     H  454   6.420   2.806   5.992 -0.4999  0.0345 -0.2121
  728MOL0     H  455   6.468   2.768   5.826  1.1144  1.6028 -1.6679
  728MOL0     H  456   6.270   2.940   5.871  0.0176  1.5752 -0.9475
  728MOL0     H  457   6.398   3.054   5.899 -0.1153  0.3070 -0.0332
  728MOL0     H  458   6.329   2.887   5.639  0.0401 -1.1970  2.0214
  728MOL0     H  459   6.481   2.985   5.666 -0.0908 -0.3396 -0.8512
  728MOL0     H  460   6.148   3.246   5.558 -0.1338 -2.0083 -1.7255
  728MOL0     H  461   6.773   3.013   6.048 -2.0558 -2.1571 -0.0599
  728MOL0     H  462   6.944   3.170   6.136 -2.8048 -0.0456  1.5033
  728MOL0     H  463   6.969   3.096   6.291 -1.0594 -1.4289 -0.5854
  728MOL0     H  464   7.106   3.109   6.178 -0.5368  1.0589 -1.3148
  729MOL0     O  465   4.306   2.663   1.963 -0.0800  0.6014 -0.5387
  729MOL0     C  466   4.298   2.686   1.846  0.0828  0.3952 -0.6432
  729MOL0     O  467   4.401   2.711   1.762  0.6509  0.2303  0.2096
  729MOL0     C  468   4.493   2.812   1.781 -0.2751 -0.1049  0.3863
  729MOL0     C  469   4.475   2.918   1.873 -0.2235  0.2219  0.1914
  729MOL0     C  470   4.561   3.026   1.867  0.6486  0.5633 -0.5181
  729MOL0     C  471   4.670   3.025   1.787  0.2383  0.1541  0.6208
  729MOL0     O  472   4.751   3.132   1.784 -0.1792 -0.3781 -1.0196
  729MOL0     C  473   4.855   3.127   1.888  0.9437 -1.1262  0.7699
  729MOL0     C  474   4.907   3.268   1.900  0.0669 -0.4985  0.0330
  729MOL0     C  475   4.993   3.274   2.022  0.4176 -0.6956  0.5141
  729MOL0     C  476   5.027   3.424   2.051  0.1278 -0.9438 -0.0629
  729MOL0     C  477   5.124   3.452   2.177  0.3242  0.3408 -0.5452
  729MOL0     C  478   5.275   3.428   2.139  0.4813 -0.3023 -0.2292
  729MOL0     C  479   5.363   3.471   2.253 -0.0783 -0.0876 -0.1902
  729MOL0     C  480   5.507   3.491   2.210  0.0667  0.3866  0.3104
  729MOL0     N  481   5.589   3.565   2.308  0.3725 -0.5353  0.0518
  729MOL0     C  482   5.709   3.629   2.268  0.7693 -0.0892 -0.6237
  729MOL0     C  483   5.755   3.689   2.373  0.4911  0.3197 -0.3019
  729MOL0     C  484   5.874   3.780   2.379  0.7844 -0.1618  0.3163
  729MOL0     C  485   5.911   3.790   2.527  0.4444 -0.6733 -0.2945
  729MOL0     C  486   6.014   3.907   2.539 -0.7718 -1.0745 -0.0350
  729MOL0     C  487   6.149   3.851   2.498  1.2241 -0.8024  0.1289
  729MOL0     O  488   6.183   3.738   2.574  0.3060  0.2786  0.6430
  729MOL0     C  489   6.316   3.691   2.570  0.5101  0.6855 -0.3338
  729MOL0     C  490   6.341   3.596   2.669  0.0526  0.2455 -0.2120
  729MOL0     C  491   6.467   3.540   2.694 -0.5836  0.8055  0.0071
  729MOL0     C  492   6.481   3.443   2.806  0.4526 -0.1124  0.0104
  729MOL0     C  493   6.571   3.566   2.605 -0.3813 -0.2725 -0.1779
  729MOL0     C  494   6.711   3.498   2.592 -0.7770 -0.0732 -0.6985
  729MOL0     O  495   6.806   3.559   2.511 -0.1405 -0.1520 -0.9230
  729MOL0     C  496   6.943   3.539   2.531  0.2056 -0.0382 -0.0831
  729MOL0     C  497   7.009   3.444   2.611 -0.4760 -0.1965  0.0656
  729MOL0     C  498   7.148   3.444   2.623  0.4183 -0.1936  0.0242
  729MOL0     C  499   7.221   3.534   2.551 -0.6832  0.3306  0.0712
  729MOL0     O  500   7.353   3.543   2.589  0.0068 -0.1383  0.6798
  729MOL0     C  501   7.436   3.644   2.527 -0.1375 -0.5656  0.1792
  729MOL0     C  502   7.579   3.648   2.581 -0.1117 -0.0502  0.7205
  729MOL0     C  503   7.631   3.509   2.573 -1.2210 -0.6163 -0.7557
  729MOL0     C  504   7.776   3.515   2.614 -0.2336 -0.1177 -0.4105
  729MOL0     C  505   7.824   3.368   2.620  0.0532 -1.0176 -0.3911
  729MOL0     C  506   7.978   3.346   2.623  0.7370 -0.0341 -0.5457
  729MOL0     C  507   8.043   3.415   2.738  0.3113 -0.0262  0.5801
  729MOL0     C  508   8.184   3.361   2.774 -0.1447  0.9335 -0.3225
  729MOL0    Cl  509   8.324   3.436   2.686  0.3539  0.0161 -0.0446
  729MOL0     C  510   7.162   3.623   2.461 -0.1294  0.0879  0.2044
  729MOL0     C  511   7.020   3.623   2.457 -0.1806 -0.7178  0.0966
  729MOL0     O  512   6.729   3.391   2.655 -0.1138 -0.3740 -0.0013
  729MOL0     C  513   6.548   3.663   2.503 -0.1753 -0.1104 -1.0359
  729MOL0     C  514   6.426   3.727   2.487  0.0043 -0.2852 -0.6162
  729MOL0     N  515   5.670   3.656   2.477 -0.1013 -0.0815  0.6373
  729MOL0     N  516   5.578   3.584   2.438 -0.0820 -0.1295 -0.0253
  729MOL0     C  517   4.691   2.933   1.690  0.1246  0.0590  1.3130
  729MOL0     C  518   4.593   2.832   1.680 -0.1174  0.3606 -1.0290
  729MOL0     C  519   4.160   2.682   1.786 -0.0133  0.8163 -0.3167
  729MOL0     C  520   4.149   2.742   1.658  0.4796 -0.5363 -0.2532
  729MOL0     C  521   4.033   2.736   1.585 -0.2549  0.5138  0.2459
  729MOL0     C  522   3.919   2.672   1.632  0.0189  0.5840  1.2007
  729MOL0     O  523   3.793   2.662   1.575 -0.0009  1.3987  1.0884
  729MOL0     C  524   3.757   2.724   1.445 -0.8301  0.4203  0.1026
  729MOL0     C  525   3.795   2.633   1.329 -0.0679 -0.2667 -0.0208
  729MOL0     C  526   3.702   2.513   1.317 -0.9831  0.1312 -0.4441
  729MOL0     C  527   3.720   2.426   1.185  0.6436 -0.1823 -0.4685
  729MOL0     C  528   3.851   2.368   1.173  0.0151  0.6611  0.2232
  729MOL0     C  529   3.970   2.340   1.163  0.0350  0.3330 -0.6336
  729MOL0     C  530   3.930   2.611   1.754 -0.9726 -0.2854 -0.1107
  729MOL0     C  531   4.047   2.617   1.838 -0.1387 -0.3046  0.0468
  729MOL0     C  532   4.039   2.552   1.972 -0.5025 -0.5807 -0.7595
  729MOL0     H  533   4.390   2.916   1.941  0.3478  0.6215  0.9371
  729MOL0     H  534   4.534   3.108   1.933  3.3553 -0.4717  2.1257
  729MOL0     H  535   4.931   3.056   1.854 -1.1223 -3.1939  0.1933
  729MOL0     H  536   4.815   3.087   1.982 -0.2628  2.4351  1.9114
  729MOL0     H  537   4.953   3.297   1.805 -0.8920 -1.8499 -0.8865
  729MOL0     H  538   4.823   3.336   1.916  0.0878 -0.5519  0.3852
  729MOL0     H  539   4.942   3.237   2.111 -1.5127 -1.2704 -0.7692
  729MOL0     H  540   5.082   3.214   2.000  1.4410  1.9495 -4.1362
  729MOL0     H  541   5.070   3.467   1.960  1.1709 -2.8774 -0.5211
  729MOL0     H  542   4.939   3.484   2.077  0.6918 -0.8346  1.7757
  729MOL0     H  543   5.096   3.385   2.259  0.1388  1.0247 -0.0496
  729MOL0     H  544   5.107   3.555   2.208 -0.7133  0.0663 -0.1397
  729MOL0     H  545   5.277   3.320   2.123 -1.9997 -0.8640  2.3725
  729MOL0     H  546   5.315   3.476   2.050 -0.6714  1.9297  0.3881
  729MOL0     H  547   5.354   3.395   2.331 -0.0321 -0.1279 -0.2243
  729MOL0     H  548   5.330   3.566   2.296 -1.6687  0.2367 -1.9992
  729MOL0     H  549   5.550   3.393   2.189 -1.1038  0.3877 -2.6869
  729MOL0     H  550   5.515   3.550   2.118  0.4973  1.5618  1.0737
  729MOL0     H  551   5.755   3.648   2.171 -1.6215  3.5662 -1.2207
  729MOL0     H  552   5.852   3.875   2.329 -1.3642 -0.2827  0.9171
  729MOL0     H  553   5.956   3.731   2.325 -2.3579 -2.8847 -2.4262
  729MOL0     H  554   5.830   3.835   2.585  0.6602  2.6741 -2.3035
  729MOL0     H  555   5.947   3.695   2.566 -0.1124 -1.9509 -2.6809
  729MOL0     H  556   5.994   3.984   2.463 -0.2121 -1.5465 -0.6735
  729MOL0     H  557   6.015   3.952   2.638  0.8201  0.9329 -0.9086
  729MOL0     H  558   6.160   3.831   2.392  2.8877  0.8327 -0.0595
  729MOL0     H  559   6.225   3.929   2.508 -1.3563  1.9000  0.0680
  729MOL0     H  560   6.258   3.580   2.737  1.9594  1.0160  2.4699
  729MOL0     H  561   6.572   3.463   2.863 -1.0279  0.3336  2.3745
  729MOL0     H  562   6.484   3.337   2.781 -0.0625 -0.4446  1.2581
  729MOL0     H  563   6.396   3.447   2.875  0.6097 -2.0435  0.3824
  729MOL0     H  564   6.960   3.373   2.676  0.4629 -1.1513 -0.2326
  729MOL0     H  565   7.201   3.376   2.690  0.7278 -0.6056 -0.6342
  729MOL0     H  566   7.437   3.638   2.418 -4.7941 -0.4016 -0.0996
  729MOL0     H  567   7.395   3.746   2.535  1.5562  0.1968 -0.4344
  729MOL0     H  568   7.645   3.718   2.530  1.0047 -2.7006 -1.7409
  729MOL0     H  569   7.573   3.683   2.684 -2.2802  2.7638 -0.2298
  729MOL0     H  570   7.622   3.484   2.467 -1.2462  1.3496 -1.2504
  729MOL0     H  571   7.577   3.439   2.637 -2.3054 -0.3223 -1.3207
  729MOL0     H  572   7.800   3.564   2.708 -2.3029 -1.0289  0.6461
  729MOL0     H  573   7.835   3.557   2.532  1.7313 -0.8396  0.5629
  729MOL0     H  574   7.774   3.322   2.706 -2.4515  1.1593 -0.5664
  729MOL0     H  575   7.784   3.318   2.532 -2.7363  0.3486 -0.0083
  729MOL0     H  576   8.015   3.386   2.528 -1.8911  4.3153 -0.0260
  729MOL0     H  577   8.000   3.240   2.639 -0.3812 -0.0391  1.1884
  729MOL0     H  578   7.992   3.397   2.834  2.9699  0.8488  2.2809
  729MOL0     H  579   8.046   3.524   2.728  1.5962  0.0957  1.9069
  729MOL0     H  580   8.189   3.252   2.783  2.0931  0.8600 -1.7406
  729MOL0     H  581   8.208   3.391   2.877  0.0348  1.7393 -0.5918
  729MOL0     H  582   7.206   3.711   2.415 -1.1250  0.8772  0.7012
  729MOL0     H  583   6.968   3.695   2.395  0.1234 -1.6299 -1.2680
  729MOL0     H  584   6.619   3.703   2.431 -0.6937  2.1510 -0.3485
  729MOL0     H  585   6.424   3.798   2.405 -1.3386 -0.9767 -1.2185
  729MOL0     H  586   4.761   2.949   1.609  0.5630 -0.1799  1.6394
  729MOL0     H  587   4.603   2.771   1.590 -0.0147  0.6427 -1.2114
  729MOL0     H  588   4.224   2.796   1.601 -0.5460  0.4863 -0.6759
  729MOL0     H  589   4.040   2.782   1.487  0.4617  1.5795  0.7813
  729MOL0     H  590   3.650   2.743   1.434 -0.9086  0.8135  1.3582
  729MOL0     H  591   3.809   2.820   1.435 -1.6229  0.9956  1.1821
  729MOL0     H  592   3.900   2.604   1.330 -0.2488 -0.9395  0.8380
  729MOL0     H  593   3.794   2.695   1.240 -2.7862 -0.5679 -0.2921
  729MOL0     H  594   3.721   2.451   1.405  1.2642 -0.7390 -1.4467
  729MOL0     H  595   3.604   2.561   1.317 -1.1088 -0.0909 -1.8026
  729MOL0     H  596   3.690   2.489   1.101  1.7767 -2.1591 -2.4581
  729MOL0     H  597   3.646   2.346   1.184 -1.9300  1.9347  1.7804
  729MOL0     H  598   4.073   2.321   1.141  0.5893 -0.5426  2.2116
  729MOL0     H  599   3.846   2.549   1.782 -0.3052 -0.7623  0.8737
  729MOL0     H  600   4.083   2.452   1.981  0.9143  0.1928  2.1444
  729MOL0     H  601   4.073   2.620   2.050 -1.6993 -2.4741  1.5205
  729MOL0     H  602   3.934   2.537   1.998 -0.9862  0.3077 -2.0838
  730MOL0     O  603   6.549   5.680   4.774  0.0814 -0.0830 -0.1580
  730MOL0     C  604   6.500   5.623   4.872 -0.3819 -0.7036 -0.6957
  730MOL0     O  605   6.557   5.510   4.932 -0.8132 -0.2776 -0.0570
  730MOL0     C  606   6.676   5.469   4.893 -0.7033 -0.0453  0.2652
  730MOL0     C  607   6.787   5.520   4.967 -0.0438  0.0553 -0.0947
  730MOL0     C  608   6.916   5.481   4.931 -1.1963  0.0915  0.0290
  730MOL0     C  609   6.942   5.387   4.833  0.3420  0.7004 -0.8320
  730MOL0     O  610   7.071   5.346   4.806  0.1558 -0.0098  0.6418
  730MOL0     C  611   7.129   5.258   4.901  0.1245 -0.0630  1.3757
  730MOL0     C  612   7.269   5.306   4.925  0.3432  0.5485  0.3868
  730MOL0     C  613   7.282   5.447   4.975  0.5745 -0.0164  0.2718
  730MOL0     C  614   7.419   5.483   5.038 -0.1481 -0.8337 -0.5402
  730MOL0     C  615   7.427   5.626   5.091  0.0452 -0.8420  0.4021
  730MOL0     C  616   7.340   5.655   5.216 -0.3252  0.7059  0.1969
  730MOL0     C  617   7.362   5.793   5.280 -0.8485 -0.4001 -0.4449
  730MOL0     C  618   7.280   5.897   5.198  0.4980 -0.2303 -0.3611
  730MOL0     N  619   7.308   6.037   5.246  0.3208  0.6551 -0.3295
  730MOL0     C  620   7.403   6.114   5.195  0.4321  0.2379  0.9623
  730MOL0     C  621   7.405   6.233   5.258 -0.8112 -0.2404  0.1226
  730MOL0     C  622   7.496   6.359   5.229 -0.1880 -1.0197 -0.6757
  730MOL0     C  623   7.644   6.331   5.210 -0.4824  0.2927 -0.0750
  730MOL0     C  624   7.695   6.332   5.061  0.7730 -0.7660  0.3219
  730MOL0     C  625   7.637   6.217   4.977  0.0571 -0.1185  0.4278
  730MOL0     O  626   7.680   6.089   5.037  0.6728  0.2512  0.1738
  730MOL0     C  627   7.804   6.032   5.028 -0.4834 -0.2230  0.1966
  730MOL0     C  628   7.830   5.908   5.082  0.7946  0.8859 -0.1523
  730MOL0     C  629   7.954   5.846   5.078 -0.2764  0.6031 -0.1613
  730MOL0     C  630   7.952   5.711   5.141  0.0792 -0.0371 -0.6622
  730MOL0     C  631   8.061   5.923   5.024 -0.1155  0.1402 -0.8784
  730MOL0     C  632   8.207   5.872   5.011 -0.9447  0.1179 -0.2941
  730MOL0     O  633   8.289   5.953   4.929 -0.1164  0.5711 -0.7986
  730MOL0     C  634   8.422   5.928   4.910 -0.4818  0.6229  0.0611
  730MOL0     C  635   8.513   6.032   4.920  0.2381 -0.3026 -0.2877
  730MOL0     C  636   8.642   6.015   4.893  0.0159 -0.7535  0.0248
  730MOL0     C  637   8.690   5.902   4.831  0.2813  0.5999  0.0695
  730MOL0     O  638   8.820   5.892   4.793 -0.1219  0.0624  0.8804
  730MOL0     C  639   8.895   6.013   4.767  0.2785 -0.3057 -0.1838
  730MOL0     C  640   9.018   5.998   4.682  0.4199  0.8860 -0.3475
  730MOL0     C  641   9.126   5.896   4.741 -0.1108 -0.5544 -0.0722
  730MOL0     C  642   9.243   5.882   4.643 -0.3972  0.9180 -0.5182
  730MOL0     C  643   9.350   5.807   4.722 -0.2750  0.1395 -0.9998
  730MOL0     C  644   9.460   5.759   4.634 -1.1643  0.2002  0.0217
  730MOL0     C  645   9.567   5.706   4.724 -0.9459 -0.0945  0.1746
  730MOL0     C  646   9.678   5.631   4.656  0.7417  0.1150 -0.4035
  730MOL0    Cl  647   9.776   5.734   4.553 -0.5393 -0.1974 -0.2356
  730MOL0     C  648   8.610   5.795   4.807 -0.1377  0.5042  0.2458
  730MOL0     C  649   8.474   5.808   4.850  0.4211  0.1567  0.0914
  730MOL0     O  650   8.255   5.787   5.093  0.7599  0.2967 -0.0188
  730MOL0     C  651   8.037   6.044   4.960  1.0752  0.6889 -0.4064
  730MOL0     C  652   7.907   6.099   4.965  0.3879  0.5628  0.8034
  730MOL0     N  653   7.311   6.226   5.352  0.4115 -0.5952  0.0581
  730MOL0     N  654   7.244   6.109   5.339  0.8586 -0.1724  0.4981
  730MOL0     C  655   6.831   5.335   4.766  0.4901  0.1202 -0.0262
  730MOL0     C  656   6.698   5.386   4.783  0.2684 -0.1516 -0.5525
  730MOL0     C  657   6.369   5.660   4.932 -0.5073 -0.2406  0.3903
  730MOL0     C  658   6.353   5.643   5.070 -0.1478 -0.2236 -0.5295
  730MOL0     C  659   6.236   5.671   5.137 -0.2528 -1.0233  0.6023
  730MOL0     C  660   6.119   5.704   5.067  0.3141 -0.6601  0.5041
  730MOL0     O  661   6.011   5.729   5.137  0.4125 -0.1620  0.7180
  730MOL0     C  662   5.908   5.822   5.091 -0.6367 -0.5595  0.0165
  730MOL0     C  663   5.961   5.962   5.099 -0.1369 -0.1526  0.0792
  730MOL0     C  664   5.859   6.062   5.139  0.4715 -0.3779 -0.1339
  730MOL0     C  665   5.915   6.196   5.179  0.4181  0.0748 -0.0908
  730MOL0     C  666   5.991   6.266   5.078 -0.3060 -0.9043  0.9282
  730MOL0     C  667   6.053   6.326   4.986  0.0473  0.4548  0.0480
  730MOL0     C  668   6.135   5.714   4.927 -0.7220  0.0876 -0.0452
  730MOL0     C  669   6.259   5.697   4.861  0.3005 -0.9429 -0.0298
  730MOL0     C  670   6.256   5.721   4.711  1.2469 -0.4974 -0.3659
  730MOL0     H  671   6.767   5.579   5.056 -2.4301 -0.5878 -0.1534
  730MOL0     H  672   7.000   5.518   4.989 -1.4941 -1.6786  1.6912
  730MOL0     H  673   7.127   5.157   4.860 -0.5435 -0.0714  1.4325
  730MOL0     H  674   7.070   5.259   4.993 -0.3166  1.2505  1.1027
  730MOL0     H  675   7.300   5.226   4.992  0.3677  0.9503  0.8569
  730MOL0     H  676   7.325   5.299   4.831  0.1582  0.4234  0.2850
  730MOL0     H  677   7.251   5.515   4.896 -1.7838 -0.2233  0.9395
  730MOL0     H  678   7.216   5.471   5.059  0.0659  1.2509 -0.4739
  730MOL0     H  679   7.444   5.411   5.117  6.0978  0.3187 -0.9928
  730MOL0     H  680   7.494   5.468   4.961 -1.1597  0.7582 -1.8945
  730MOL0     H  681   7.399   5.696   5.011 -0.4998 -2.0253 -0.4761
  730MOL0     H  682   7.535   5.634   5.109 -0.0466 -0.1901  0.7148
  730MOL0     H  683   7.234   5.644   5.191  0.4399 -0.3189 -3.0643
  730MOL0     H  684   7.357   5.581   5.295 -0.9009 -0.6735 -0.9384
  730MOL0     H  685   7.469   5.815   5.288 -0.9119 -0.1288 -0.3198
  730MOL0     H  686   7.319   5.797   5.380 -1.1256  2.2806 -0.6019
  730MOL0     H  687   7.297   5.894   5.090 -0.3444  0.9720 -0.5539
  730MOL0     H  688   7.174   5.876   5.214 -0.2863  0.3583 -3.9502
  730MOL0     H  689   7.472   6.085   5.117 -1.1991  0.2303 -0.5380
  730MOL0     H  690   7.488   6.432   5.310  0.5598  0.2339 -1.6832
  730MOL0     H  691   7.449   6.423   5.153 -2.2362  0.4063  1.6252
  730MOL0     H  692   7.700   6.411   5.259  1.7747  0.1553 -2.2173
  730MOL0     H  693   7.675   6.236   5.254  1.6890  0.9623 -0.0489
  730MOL0     H  694   7.657   6.419   5.006 -3.0905 -0.9844  2.2675
  730MOL0     H  695   7.804   6.334   5.059  0.8088  0.3248  1.6534
  730MOL0     H  696   7.529   6.230   4.964 -0.1381 -1.8705 -0.0073
  730MOL0     H  697   7.676   6.233   4.876 -0.8996  1.8372  0.3192
  730MOL0     H  698   7.742   5.867   5.130  1.9360 -0.0636  1.2446
  730MOL0     H  699   7.998   5.712   5.240 -0.1257 -0.5975 -0.5564
  730MOL0     H  700   8.002   5.642   5.073  2.5873  1.6964 -0.7241
  730MOL0     H  701   7.849   5.675   5.149  0.6525 -2.4099 -2.6649
  730MOL0     H  702   8.484   6.125   4.969 -0.2552 -0.9708  0.7277
  730MOL0     H  703   8.703   6.102   4.914  1.8988 -1.6041 -1.5296
  730MOL0     H  704   8.829   6.089   4.723 -1.8054  0.6446  4.0907
  730MOL0     H  705   8.928   6.040   4.867  2.8343 -0.1190 -0.9979
  730MOL0     H  706   8.984   5.961   4.584 -0.8158 -0.4207  0.5387
  730MOL0     H  707   9.060   6.099   4.677  3.3953 -0.0535  2.5863
  730MOL0     H  708   9.067   5.805   4.761 -1.0368  0.7074  3.7689
  730MOL0     H  709   9.147   5.931   4.842 -2.6150 -0.1853  0.4032
  730MOL0     H  710   9.278   5.980   4.611  0.6740  0.8162  0.2802
  730MOL0     H  711   9.227   5.828   4.549  2.5085 -1.3179  0.1061
  730MOL0     H  712   9.399   5.861   4.804  0.8020  2.3461 -2.9696
  730MOL0     H  713   9.297   5.723   4.769 -2.1264  2.7615  1.9910
  730MOL0     H  714   9.489   5.841   4.568  2.6597  1.0713  2.5287
  730MOL0     H  715   9.423   5.674   4.576  0.3813 -0.7335  0.3729
  730MOL0     H  716   9.536   5.649   4.812 -2.2670 -1.2567 -0.9943
  730MOL0     H  717   9.615   5.797   4.762 -0.6487 -0.0344 -0.3364
  730MOL0     H  718   9.627   5.542   4.619  1.0739 -0.1887 -0.1439
  730MOL0     H  719   9.744   5.586   4.732  0.0948 -0.1106  0.0313
  730MOL0     H  720   8.641   5.702   4.761 -2.1133 -0.7235  1.2676
  730MOL0     H  721   8.401   5.729   4.836 -0.7167  1.3171 -0.7833
  730MOL0     H  722   8.113   6.097   4.904  0.6295 -0.2599 -1.9761
  730MOL0     H  723   7.905   6.198   4.921  0.8017  0.2716  0.1048
  730MOL0     H  724   6.837   5.257   4.692  1.1648  0.6375 -0.5316
  730MOL0     H  725   6.613   5.361   4.720  1.9735  2.5806 -4.2895
  730MOL0     H  726   6.432   5.632   5.143 -1.8378  1.0178  1.6181
  730MOL0     H  727   6.240   5.665   5.245  0.5263  0.2572  0.6616
  730MOL0     H  728   5.866   5.806   4.992 -2.9960 -2.9410  1.2703
  730MOL0     H  729   5.821   5.810   5.157  0.4800 -0.3256  1.6126
  730MOL0     H  730   5.999   5.987   4.999 -3.1057  1.2526 -0.8180
  730MOL0     H  731   6.048   5.967   5.165  0.1602  0.1648 -0.3322
  730MOL0     H  732   5.782   6.086   5.065  0.4312  1.5393  0.4722
  730MOL0     H  733   5.802   6.029   5.227  0.1105  0.9480  0.1546
  730MOL0     H  734   5.966   6.181   5.275 -0.2936 -1.0794  0.1250
  730MOL0     H  735   5.833   6.264   5.202  0.3229 -0.2505  0.5438
  730MOL0     H  736   6.108   6.365   4.903 -0.0718  0.5991  0.0350
  730MOL0     H  737   6.053   5.727   4.857  1.3027 -0.2369 -2.6343
  730MOL0     H  738   6.158   5.710   4.664  0.5624 -0.0470  0.9183
  730MOL0     H  739   6.277   5.828   4.695  0.4061 -0.0251  1.4552
  730MOL0     H  740   6.323   5.655   4.656  0.3855 -1.8201  0.1393
  731MOL0     O  741   1.736   4.587   6.619  0.6103 -0.7539 -0.4426
  731MOL0     C  742   1.712   4.685   6.543 -0.3536  1.3852  0.3711
  731MOL0     O  743   1.777   4.799   6.539 -0.0785  0.2673 -0.2967
  731MOL0     C  744   1.877   4.822   6.623 -0.9149  0.2184  0.2764
  731MOL0     C  745   1.856   4.842   6.757 -0.1244  0.2051 -0.5229
  731MOL0     C  746   1.955   4.899   6.830  0.0039 -0.0920  0.0990
  731MOL0     C  747   2.081   4.931   6.774 -0.0047 -0.3442  0.2585
  731MOL0     O  748   2.189   4.996   6.837  0.0319 -0.1952 -0.2691
  731MOL0     C  749   2.199   4.971   6.982  0.3123  0.4704  0.0674
  731MOL0     C  750   2.319   5.035   7.052  0.1614 -0.1437 -0.2976
  731MOL0     C  751   2.302   5.045   7.205  0.1530  0.3304  0.0553
  731MOL0     C  752   2.396   5.131   7.277  0.4520 -0.2585  0.3830
  731MOL0     C  753   2.352   5.178   7.413 -0.1187 -1.0383  0.1600
  731MOL0     C  754   2.344   5.066   7.513  1.0641  0.0954  0.0101
  731MOL0     C  755   2.312   5.136   7.648  0.1347 -0.0148 -0.5463
  731MOL0     C  756   2.164   5.181   7.650 -0.4163 -0.1915  0.2667
  731MOL0     N  757   2.111   5.169   7.781 -0.1172 -0.2076  0.2842
  731MOL0     C  758   2.121   5.273   7.872  0.8368  0.1393 -0.0286
  731MOL0     C  759   2.063   5.222   7.983 -0.1322  0.1902 -0.3221
  731MOL0     C  760   2.067   5.287   8.122 -0.0445 -0.2010 -0.3896
  731MOL0     C  761   2.192   5.235   8.188 -0.2118  0.1824 -0.7401
  731MOL0     C  762   2.232   5.302   8.318 -0.1562  0.0422  0.9994
  731MOL0     C  763   2.371   5.259   8.357  0.2565 -0.1934  0.6357
  731MOL0     O  764   2.361   5.139   8.427  0.7771  0.0360 -0.4652
  731MOL0     C  765   2.476   5.104   8.505  0.3214 -0.2286  0.1539
  731MOL0     C  766   2.533   5.187   8.595  0.0289 -0.3403 -0.0020
  731MOL0     C  767   2.642   5.153   8.667  0.1160 -0.1876  0.1343
  731MOL0     C  768   2.698   5.265   8.751 -1.1175 -0.0182  0.0101
  731MOL0     C  769   2.703   5.030   8.650  0.0675  0.0756 -0.2112
  731MOL0     C  770   2.812   4.980   8.736  0.0936  0.2213  0.2265
  731MOL0     O  771   2.912   4.904   8.679 -0.1454  0.3706  0.6854
  731MOL0     C  772   2.980   4.797   8.735 -0.6417 -0.7627  0.3382
  731MOL0     C  773   3.090   4.731   8.671  0.2199 -0.6147 -0.0833
  731MOL0     C  774   3.151   4.615   8.718 -0.0415  0.2076  0.0073
  731MOL0     C  775   3.115   4.560   8.845  0.2313 -0.1129 -0.2575
  731MOL0     O  776   3.191   4.456   8.897  0.0501  0.2766  0.2325
  731MOL0     C  777   3.232   4.475   9.032 -0.3136 -0.4331 -0.4906
  731MOL0     C  778   3.368   4.413   9.069 -0.1872 -0.9202 -0.4382
  731MOL0     C  779   3.487   4.441   8.972  0.2005 -0.5597  1.0151
  731MOL0     C  780   3.608   4.466   9.068  0.0021  0.3326  0.7477
  731MOL0     C  781   3.625   4.367   9.182  0.0184 -0.6657  0.4486
  731MOL0     C  782   3.769   4.369   9.228  0.3484  1.1678 -0.7467
  731MOL0     C  783   3.804   4.261   9.331  0.4137 -0.5475 -0.3624
  731MOL0     C  784   3.946   4.261   9.384  0.4351 -0.1314  0.7462
  731MOL0    Cl  785   4.001   4.152   9.511  0.0804 -0.1838 -0.3010
  731MOL0     C  786   2.999   4.614   8.903  0.9799 -0.1902 -0.3093
  731MOL0     C  787   2.938   4.729   8.848 -0.2383  0.2013 -0.7029
  731MOL0     O  788   2.802   4.998   8.855 -0.0412  0.0745  0.3705
  731MOL0     C  789   2.649   4.941   8.555 -1.3921 -0.0013 -0.1808
  731MOL0     C  790   2.533   4.975   8.491 -0.6475  0.0397 -0.1771
  731MOL0     N  791   2.009   5.093   7.949  0.1538 -0.3208 -0.5187
  731MOL0     N  792   2.046   5.058   7.838 -0.6971  0.7275 -0.1556
  731MOL0     C  793   2.100   4.909   6.631  0.8614  0.5004  0.0259
  731MOL0     C  794   1.993   4.859   6.560 -0.1067 -1.0649  0.7738
  731MOL0     C  795   1.608   4.663   6.445 -0.1635  0.1840  0.2559
  731MOL0     C  796   1.477   4.503   6.487 -0.2173  0.6453 -0.0298
  731MOL0     C  797   1.297   4.484   6.381  0.0162  0.0612  0.1864
  731MOL0     C  798   1.246   4.617   6.231  0.1576  0.2245 -1.6495
  731MOL0     O  799   1.127   4.609   6.162  0.2154  0.1448  0.7321
  731MOL0     C  800   1.047   4.494   6.176 -0.4331  0.2562 -0.0723
  731MOL0     C  801   0.904   4.504   6.136  0.3775  0.1375  0.4134
  731MOL0     C  802   0.886   4.529   5.988  0.4202  0.2377 -0.3310
  731MOL0     C  803   0.745   4.512   5.951  0.1960 -0.3388  0.4997
  731MOL0     C  804   0.746   4.523   5.802 -0.9030 -0.9511 -1.2424
  731MOL0     C  805   0.755   4.530   5.683 -0.4953 -0.4675  0.0323
  731MOL0     C  806   1.378   4.777   6.187 -0.1280  0.1604  0.0469
  731MOL0     C  807   1.557   4.798   6.293 -0.4065  0.1989 -0.0724
  731MOL0     C  808   1.635   4.915   6.264 -0.2587 -0.6520 -0.8681
  731MOL0     H  809   1.759   4.807   6.791  1.0033 -0.4630  2.2614
  731MOL0     H  810   1.939   4.921   6.935  2.0790  3.2297 -0.1377
  731MOL0     H  811   2.211   4.864   7.000 -0.6760 -0.2105 -2.7604
  731MOL0     H  812   2.105   5.001   7.029 -0.7964 -2.8186  0.2551
  731MOL0     H  813   2.410   4.979   7.029  0.2162  0.5508 -1.8681
  731MOL0     H  814   2.336   5.134   7.009  0.2945  0.6018  1.3887
  731MOL0     H  815   2.204   5.090   7.222 -0.9098 -2.2595  1.4622
  731MOL0     H  816   2.304   4.946   7.252 -0.0296  0.7707  1.0037
  731MOL0     H  817   2.488   5.071   7.277  2.3293  2.2752 -2.7201
  731MOL0     H  818   2.423   5.216   7.214  0.0309 -1.9266 -2.1576
  731MOL0     H  819   2.258   5.231   7.394  0.1228 -0.4376  0.6183
  731MOL0     H  820   2.415   5.261   7.446  0.3228 -1.6967  0.9910
  731MOL0     H  821   2.263   5.001   7.479 -0.6777  2.5184 -0.7554
  731MOL0     H  822   2.440   5.014   7.506  0.2730 -1.2147 -2.1006
  731MOL0     H  823   2.378   5.220   7.668 -0.0124  0.2335 -1.0808
  731MOL0     H  824   2.328   5.068   7.732 -0.7709 -0.3937 -0.6669
  731MOL0     H  825   2.147   5.283   7.614  1.5007  0.3265  0.6875
  731MOL0     H  826   2.103   5.114   7.590 -2.1432  0.3103  1.3653
  731MOL0     H  827   2.174   5.367   7.880 -0.5027  0.8118  1.5292
  731MOL0     H  828   1.976   5.259   8.175 -1.1964  2.1856 -0.9785
  731MOL0     H  829   2.077   5.396   8.123  0.1293 -0.2016  1.3217
  731MOL0     H  830   2.168   5.130   8.211 -0.8635  0.0611 -1.9358
  731MOL0     H  831   2.278   5.241   8.121 -0.5469  0.2428 -1.1617
  731MOL0     H  832   2.241   5.410   8.303  0.1293  0.0912  1.5158
  731MOL0     H  833   2.157   5.290   8.396 -1.7054  0.3571 -0.4012
  731MOL0     H  834   2.441   5.243   8.274 -0.4138 -0.2751  0.0759
  731MOL0     H  835   2.410   5.342   8.417  1.4447 -0.8685  0.8214
  731MOL0     H  836   2.480   5.281   8.608  1.7098  1.2244 -3.3139
  731MOL0     H  837   2.669   5.248   8.855 -1.9945  3.2002  0.3721
  731MOL0     H  838   2.655   5.361   8.723  1.1844  0.3426 -2.7565
  731MOL0     H  839   2.807   5.266   8.746 -1.1485 -0.3705 -3.7056
  731MOL0     H  840   3.119   4.770   8.574 -2.1193 -3.4936 -2.1234
  731MOL0     H  841   3.238   4.568   8.673  2.1449  2.0444  2.1088
  731MOL0     H  842   3.244   4.581   9.056 -0.7361 -0.6987  1.0274
  731MOL0     H  843   3.154   4.439   9.100  0.3198 -0.8113  0.0464
  731MOL0     H  844   3.390   4.443   9.172 -1.2018  1.9562 -0.9548
  731MOL0     H  845   3.347   4.306   9.070 -0.6895 -0.8258 -0.6815
  731MOL0     H  846   3.472   4.516   8.894  1.3592 -0.7784  0.5644
  731MOL0     H  847   3.512   4.353   8.912 -0.9184  0.3165 -0.8209
  731MOL0     H  848   3.611   4.566   9.114 -1.1211  1.0069 -0.5849
  731MOL0     H  849   3.697   4.461   9.004 -1.0539 -1.6045 -0.6455
  731MOL0     H  850   3.551   4.377   9.263 -0.8975 -0.4888 -0.3876
  731MOL0     H  851   3.615   4.268   9.136  0.6536 -2.1375  3.2575
  731MOL0     H  852   3.791   4.463   9.278 -2.5504  1.0622  0.9525
  731MOL0     H  853   3.834   4.344   9.143 -0.6536  1.6359 -1.6711
  731MOL0     H  854   3.779   4.165   9.286  0.5719  0.0756 -1.8192
  731MOL0     H  855   3.730   4.283   9.408 -1.5131 -1.3301 -1.9149
  731MOL0     H  856   3.961   4.361   9.425 -0.7264  0.6344 -0.6256
  731MOL0     H  857   4.010   4.254   9.295  1.8840  0.3363  1.7240
  731MOL0     H  858   2.958   4.574   8.995  1.3946 -0.0829 -0.0781
  731MOL0     H  859   2.855   4.768   8.906  0.4282  1.0127 -0.2703
  731MOL0     H  860   2.684   4.840   8.535 -0.4792 -0.3323  2.6477
  731MOL0     H  861   2.489   4.894   8.433 -2.6173  0.3927  0.7477
  731MOL0     H  862   2.190   4.955   6.590  0.0199  3.1277  0.9305
  731MOL0     H  863   1.993   4.862   6.452 -0.8376  2.0874  0.7521
  731MOL0     H  864   1.494   4.428   6.564  2.1848 -0.0726 -1.1602
  731MOL0     H  865   1.227   4.404   6.403  1.5160 -2.5413 -3.5501
  731MOL0     H  866   1.102   4.407   6.138  0.6241  0.7952  0.2064
  731MOL0     H  867   1.038   4.489   6.285 -0.5351  1.6839 -0.0016
  731MOL0     H  868   0.850   4.579   6.195  0.3224  1.3128 -1.0413
  731MOL0     H  869   0.858   4.408   6.160  4.7940 -1.9132  1.5314
  731MOL0     H  870   0.918   4.628   5.954 -0.3301 -0.1786 -2.4547
  731MOL0     H  871   0.950   4.460   5.931 -0.0373 -1.6772  1.3799
  731MOL0     H  872   0.677   4.589   5.989  3.4112  2.1713  1.6874
  731MOL0     H  873   0.709   4.417   5.990 -2.5608  0.1460 -0.5946
  731MOL0     H  874   0.745   4.553   5.579 -0.4394 -1.5335 -0.2187
  731MOL0     H  875   1.349   4.849   6.111 -2.1348  0.8106  1.3431
  731MOL0     H  876   1.729   4.893   6.212  1.0643  1.7025  0.3506
  731MOL0     H  877   1.580   4.989   6.204  2.8083  3.8112  1.2862
  731MOL0     H  878   1.664   4.952   6.362 -2.9846 -0.4430 -0.0674
  732MOL0     O  879   3.507   0.854   6.797  0.3657 -0.4586 -0.1145
  732MOL0     C  880   3.588   0.932   6.756  0.0454  0.5271  0.1389
  732MOL0     O  881   3.565   1.058   6.709 -0.1649 -0.5161 -0.0722
  732MOL0     C  882   3.438   1.110   6.714  0.2164  0.2782  1.0499
  732MOL0     C  883   3.375   1.145   6.836 -0.6549 -0.4496 -0.5267
  732MOL0     C  884   3.255   1.219   6.844 -0.4178 -0.3349 -0.2442
  732MOL0     C  885   3.191   1.252   6.733 -0.6951 -1.4954  0.6196
  732MOL0     O  886   3.064   1.305   6.733 -0.6767  0.1468  0.2228
  732MOL0     C  887   2.968   1.247   6.820  0.0865  0.5614 -0.0710
  732MOL0     C  888   2.825   1.267   6.765 -0.9379 -0.0619 -1.1517
  732MOL0     C  889   2.799   1.179   6.647  0.6120  0.5652 -0.0532
  732MOL0     C  890   2.662   1.189   6.592  0.3669 -0.1511  0.6335
  732MOL0     C  891   2.649   1.104   6.463  0.3004  0.4142  0.3038
  732MOL0     C  892   2.719   1.179   6.348  0.1236 -0.1851 -0.1879
  732MOL0     C  893   2.695   1.121   6.200 -0.5062  0.3061  0.1278
  732MOL0     C  894   2.740   1.224   6.089  0.3750 -0.2712 -1.0235
  732MOL0     N  895   2.884   1.252   6.092 -0.2063 -0.4891  0.0410
  732MOL0     C  896   2.937   1.376   6.129  0.0519  0.1699  0.1233
  732MOL0     C  897   3.058   1.385   6.070  0.8125 -0.2992  0.7740
  732MOL0     C  898   3.140   1.514   6.076  0.3633 -0.3284 -0.0655
  732MOL0     C  899   3.283   1.489   6.129 -0.5339 -0.0018  0.4724
  732MOL0     C  900   3.284   1.493   6.286  0.0969  0.4842 -0.2163
  732MOL0     C  901   3.427   1.466   6.333 -0.6894 -0.7985 -0.5324
  732MOL0     O  902   3.485   1.339   6.310 -0.1481 -0.4034 -0.2115
  732MOL0     C  903   3.613   1.324   6.359  0.2490 -0.3446 -0.2744
  732MOL0     C  904   3.676   1.203   6.325 -1.2208 -0.4373 -0.0797
  732MOL0     C  905   3.802   1.165   6.368  0.8565 -0.4911  0.1061
  732MOL0     C  906   3.849   1.025   6.314 -1.0736  0.1193  0.0423
  732MOL0     C  907   3.887   1.258   6.442 -0.7038 -0.0485 -0.4372
  732MOL0     C  908   4.016   1.224   6.499 -0.1386  0.3515  0.5888
  732MOL0     O  909   4.095   1.327   6.556  0.1453 -0.6244 -0.6279
  732MOL0     C  910   4.220   1.303   6.615  0.7855 -0.4393  0.8404
  732MOL0     C  911   4.320   1.403   6.593  0.0471 -0.4967  0.6716
  732MOL0     C  912   4.436   1.388   6.673 -0.2560  0.4074 -0.6622
  732MOL0     C  913   4.444   1.286   6.776  0.6424  0.3210 -0.5872
  732MOL0     O  914   4.546   1.274   6.868 -0.0948  0.1614  0.3925
  732MOL0     C  915   4.673   1.234   6.812  0.5434  0.6594  0.3492
  732MOL0     C  916   4.775   1.141   6.884 -0.2356 -0.6188 -0.5808
  732MOL0     C  917   4.714   1.005   6.907 -0.6302 -0.5454 -0.6177
  732MOL0     C  918   4.823   0.901   6.954  0.0212 -0.0950  0.1573
  732MOL0     C  919   4.884   0.938   7.088 -0.5996  0.7726  0.3356
  732MOL0     C  920   4.970   0.819   7.145 -0.0661 -0.2239 -0.4790
  732MOL0     C  921   5.089   0.862   7.234 -0.6409 -0.3352  0.4123
  732MOL0     C  922   5.171   0.747   7.283 -0.1178  0.7693 -0.5149
  732MOL0    Cl  923   5.264   0.712   7.130  0.2817  0.0734 -0.1089
  732MOL0     C  924   4.342   1.190   6.786  0.5846  0.0682  0.2726
  732MOL0     C  925   4.229   1.202   6.709 -0.1044 -1.2918  0.6458
  732MOL0     O  926   4.054   1.105   6.488  0.6872 -0.4323 -0.2433
  732MOL0     C  927   3.823   1.377   6.483 -0.2499  0.0576  0.0351
  732MOL0     C  928   3.692   1.415   6.440  0.5264 -0.0521  0.0778
  732MOL0     N  929   3.080   1.268   6.001  0.4992  0.0043 -1.2211
  732MOL0     N  930   2.979   1.187   6.017  0.4325 -0.0056  0.6403
  732MOL0     C  931   3.259   1.236   6.609 -0.9224  0.0667  0.2694
  732MOL0     C  932   3.382   1.164   6.602  0.3518  0.0994 -0.0475
  732MOL0     C  933   3.732   0.903   6.785 -0.1346 -0.4820  0.4019
  732MOL0     C  934   3.829   0.920   6.683 -0.2785  1.0468 -0.5458
  732MOL0     C  935   3.961   0.872   6.692 -0.2678  0.4939 -0.5537
  732MOL0     C  936   4.004   0.812   6.801  0.5403 -0.3294 -0.8810
  732MOL0     O  937   4.127   0.756   6.806 -0.0729  0.3405  0.3642
  732MOL0     C  938   4.199   0.793   6.923  0.2802 -0.0679 -1.3513
  732MOL0     C  939   4.346   0.766   6.917 -1.1142 -0.1261  0.4657
  732MOL0     C  940   4.371   0.616   6.891  0.3165  0.2161 -0.1778
  732MOL0     C  941   4.531   0.584   6.887  1.2457 -0.4580 -0.1650
  732MOL0     C  942   4.584   0.538   7.012  0.4259  0.4600  0.7134
  732MOL0     C  943   4.657   0.500   7.104  0.6170 -0.0359 -0.7416
  732MOL0     C  944   3.908   0.801   6.912  0.7310  0.2436 -0.9929
  732MOL0     C  945   3.772   0.841   6.908 -0.8421 -0.9143  0.0902
  732MOL0     C  946   3.682   0.816   7.029 -0.6300  0.1047 -0.5237
  732MOL0     H  947   3.410   1.103   6.930  0.4875 -2.4102 -1.7561
  732MOL0     H  948   3.210   1.224   6.943  3.1547 -3.4174  1.8106
  732MOL0     H  949   2.969   1.295   6.918 -0.1099  0.1484  0.1367
  732MOL0     H  950   2.982   1.140   6.834 -2.0604 -0.0148 -1.7508
  732MOL0     H  951   2.749   1.250   6.842  0.4140  1.1061  0.5278
  732MOL0     H  952   2.812   1.374   6.747 -0.6701  0.3992  1.1202
  732MOL0     H  953   2.880   1.209   6.579 -0.2123  0.2283 -1.2037
  732MOL0     H  954   2.816   1.076   6.677  0.1829  1.3650  3.3271
  732MOL0     H  955   2.583   1.156   6.660 -2.2297  0.0415 -2.0542
  732MOL0     H  956   2.651   1.295   6.570  0.9142 -0.3960 -1.0032
  732MOL0     H  957   2.544   1.090   6.438 -0.2874  1.8992  1.8097
  732MOL0     H  958   2.701   1.009   6.480 -0.0440  0.1924  0.1152
  732MOL0     H  959   2.669   1.276   6.352  0.0748 -0.2587  1.7356
  732MOL0     H  960   2.827   1.183   6.365  0.2469  0.1530 -0.9828
  732MOL0     H  961   2.587   1.107   6.190 -0.4353 -0.1753  0.0007
  732MOL0     H  962   2.746   1.025   6.185 -0.0970  0.4791  0.4074
  732MOL0     H  963   2.709   1.189   5.990 -1.8346 -3.3646  0.5850
  732MOL0     H  964   2.683   1.314   6.112  0.6556 -0.2883 -0.2240
  732MOL0     H  965   2.886   1.449   6.191 -0.6296 -0.4698  0.3314
  732MOL0     H  966   3.087   1.590   6.134 -2.3410 -1.3578 -1.0313
  732MOL0     H  967   3.149   1.547   5.972  2.1051 -0.5971 -0.0171
  732MOL0     H  968   3.319   1.394   6.089 -6.1672 -2.2526 -0.1853
  732MOL0     H  969   3.346   1.571   6.094  0.3481 -0.9348 -0.1706
  732MOL0     H  970   3.260   1.595   6.318  1.1995  1.2312 -1.6874
  732MOL0     H  971   3.213   1.420   6.326 -1.5561  1.2903 -1.5343
  732MOL0     H  972   3.497   1.534   6.284  0.9288 -1.8304  0.2294
  732MOL0     H  973   3.422   1.478   6.442  0.6965 -1.8453 -0.3305
  732MOL0     H  974   3.613   1.135   6.267  0.5854 -1.9752 -0.3358
  732MOL0     H  975   3.912   1.024   6.225  3.2247 -2.1105  2.7616
  732MOL0     H  976   3.761   0.965   6.287 -0.5041 -0.1746 -1.2002
  732MOL0     H  977   3.902   0.961   6.385  0.2504 -1.8636 -2.5716
  732MOL0     H  978   4.294   1.489   6.531  0.4993 -0.9258 -0.1325
  732MOL0     H  979   4.511   1.465   6.667 -0.6200  1.3593  3.6497
  732MOL0     H  980   4.668   1.205   6.707  1.2918  0.8183  0.2640
  732MOL0     H  981   4.734   1.322   6.793  0.5555  0.0664 -2.9496
  732MOL0     H  982   4.867   1.139   6.825  0.3153 -4.2281  0.1555
  732MOL0     H  983   4.789   1.177   6.987  1.3186 -2.2729 -0.1642
  732MOL0     H  984   4.659   0.973   6.818 -2.0184 -1.1077  0.4090
  732MOL0     H  985   4.641   1.027   6.986 -0.5685  1.0675 -0.9671
  732MOL0     H  986   4.902   0.888   6.879  0.8989 -1.6229  1.2907
  732MOL0     H  987   4.784   0.799   6.959  0.1281 -0.1849 -0.7323
  732MOL0     H  988   4.953   1.020   7.062  1.8337 -1.6804 -1.5690
  732MOL0     H  989   4.809   0.979   7.156 -2.0833 -0.3150 -0.5793
  732MOL0     H  990   5.008   0.766   7.058 -0.0258 -0.5199 -0.2813
  732MOL0     H  991   4.896   0.761   7.201  0.8085  0.2732  1.2704
  732MOL0     H  992   5.057   0.906   7.329 -2.0476 -1.4083  0.4673
  732MOL0     H  993   5.148   0.933   7.175 -2.8501 -0.3521 -2.0027
  732MOL0     H  994   5.095   0.673   7.311 -1.6077  2.3484 -0.2061
  732MOL0     H  995   5.234   0.763   7.371 -0.1851  1.2826 -0.5578
  732MOL0     H  996   4.345   1.100   6.846 -2.5999 -1.0978 -1.1145
  732MOL0     H  997   4.145   1.139   6.737 -0.7643 -1.6006 -1.8361
  732MOL0     H  998   3.881   1.455   6.532  1.1811  0.2694 -1.8936
  732MOL0     H  999   3.641   1.501   6.483 -1.6551 -0.5676 -1.3116
  732MOL0     H 1000   3.223   1.269   6.512  0.4380 -1.0625 -0.6621
  732MOL0     H 1001   3.435   1.163   6.508 -1.4105  0.0290 -1.0806
  732MOL0     H 1002   3.805   0.971   6.590  0.0862  0.5626 -0.9115
  732MOL0     H 1003   4.035   0.883   6.613  1.7606 -1.8230  0.8575
  732MOL0     H 1004   4.180   0.899   6.942  1.1398 -0.1486  0.1777
  732MOL0     H 1005   4.166   0.736   7.011  0.5245  0.0713 -1.1680
  732MOL0     H 1006   4.393   0.798   7.010 -1.2052 -1.1463  0.8814
  732MOL0     H 1007   4.385   0.829   6.838  0.2088 -1.8233 -0.3066
  732MOL0     H 1008   4.332   0.560   6.977  0.5864  1.3941  0.7487
  732MOL0     H 1009   4.323   0.589   6.797 -0.8325 -0.9295  0.7088
  732MOL0     H 1010   4.571   0.680   6.853 -2.3203  2.1562  2.1772
  732MOL0     H 1011   4.547   0.508   6.810 -0.5414 -1.1668  0.1256
  732MOL0     H 1012   4.701   0.448   7.187  1.6390  1.7942 -0.0968
  732MOL0     H 1013   3.943   0.750   7.001  0.3012  0.7828 -0.5100
  732MOL0     H 1014   3.654   0.711   7.037 -1.9952  0.2851 -2.2799
  732MOL0     H 1015   3.727   0.838   7.126 -1.4398  0.0568 -0.1253
  732MOL0     H 1016   3.593   0.881   7.023 -2.8560 -2.6939 -0.1062
  733MOL0     O 1017   0.747   7.269   4.563  0.6392 -0.5162  0.0055
  733MOL0     C 1018   0.749   7.249   4.680  0.4874 -0.1712  0.6915
  733MOL0     O 1019   0.849   7.280   4.764 -0.0734  0.1238 -0.1673
  733MOL0     C 1020   0.974   7.337   4.734  0.3221  0.3313  0.7730
  733MOL0     C 1021   1.042   7.323   4.608  0.7384 -0.3124 -0.7186
  733MOL0     C 1022   1.166   7.384   4.586 -0.5766 -0.4915  0.0449
  733MOL0     C 1023   1.240   7.444   4.695  0.5453  0.1429 -0.2338
  733MOL0     O 1024   1.374   7.463   4.684  0.0493  0.1235 -0.5248
  733MOL0     C 1025   1.437   7.507   4.810 -0.7258 -0.9079 -0.7293
  733MOL0     C 1026   1.591   7.537   4.786 -0.4681 -0.0118 -0.9527
  733MOL0     C 1027   1.686   7.420   4.775  0.9859  0.2830 -0.8157
  733MOL0     C 1028   1.691   7.333   4.897 -0.1862  0.3547 -0.4249
  733MOL0     C 1029   1.799   7.229   4.882 -1.3372  0.8335 -0.7198
  733MOL0     C 1030   1.798   7.134   5.003 -0.7824 -0.4088  0.1833
  733MOL0     C 1031   1.672   7.045   4.998  0.1689 -0.1679 -0.2540
  733MOL0     C 1032   1.704   6.897   5.034 -0.5679  0.1790  0.4257
  733MOL0     N 1033   1.788   6.871   5.150 -0.2065 -0.1834  0.7765
  733MOL0     C 1034   1.745   6.881   5.278 -0.0133  0.1123  0.5828
  733MOL0     C 1035   1.855   6.852   5.348  0.0892 -0.7468 -0.4520
  733MOL0     C 1036   1.862   6.822   5.494  0.0824 -0.5983  0.0816
  733MOL0     C 1037   1.888   6.944   5.583 -0.5738  0.2656 -0.4312
  733MOL0     C 1038   1.906   6.917   5.734 -0.4364  0.8701  0.1817
  733MOL0     C 1039   1.791   6.839   5.802 -0.5915 -0.3742  0.1987
  733MOL0     O 1040   1.699   6.938   5.836 -0.2474  0.0514 -0.1366
  733MOL0     C 1041   1.570   6.912   5.814  1.1510 -0.2205  0.4278
  733MOL0     C 1042   1.493   6.891   5.931  0.4445 -0.9471 -0.3740
  733MOL0     C 1043   1.365   6.848   5.934 -0.2881 -0.1608 -0.1341
  733MOL0     C 1044   1.297   6.841   6.066  0.5455 -0.4524 -0.7479
  733MOL0     C 1045   1.304   6.830   5.808  0.3261 -0.3029  0.5548
  733MOL0     C 1046   1.173   6.763   5.798  0.5110 -0.4669  0.2572
  733MOL0     O 1047   1.104   6.788   5.686  0.3248  0.4791  0.6489
  733MOL0     C 1048   0.977   6.747   5.697 -0.1629 -0.5643  0.0936
  733MOL0     C 1049   0.939   6.641   5.610 -0.2453  0.5076  0.7851
  733MOL0     C 1050   0.807   6.594   5.612  0.3164 -0.4348  0.9064
  733MOL0     C 1051   0.711   6.640   5.705  0.0403 -0.3160  0.5745
  733MOL0     O 1052   0.579   6.584   5.693 -0.0478  1.4170  0.7025
  733MOL0     C 1053   0.495   6.611   5.805 -0.4143  0.0085  0.4623
  733MOL0     C 1054   0.369   6.529   5.792  0.5240 -0.1733 -0.0222
  733MOL0     C 1055   0.405   6.390   5.818  0.0203  0.0369  0.1738
  733MOL0     C 1056   0.308   6.290   5.752  0.4681  0.2242 -0.2143
  733MOL0     C 1057   0.338   6.142   5.805 -0.4050 -0.1525 -0.3085
  733MOL0     C 1058   0.223   6.043   5.777 -0.1715  1.1664 -0.0808
  733MOL0     C 1059   0.233   5.902   5.851 -0.0284 -0.2256 -0.2456
  733MOL0     C 1060   0.129   5.805   5.800  0.1116  0.3925 -0.1432
  733MOL0    Cl 1061   0.195   5.722   5.652  0.2341 -0.0521  0.0944
  733MOL0     C 1062   0.756   6.744   5.789 -0.0075 -0.3704  0.1282
  733MOL0     C 1063   0.882   6.799   5.788 -0.7054  0.6577  0.1816
  733MOL0     O 1064   1.142   6.671   5.881  0.0279 -0.4013  0.3775
  733MOL0     C 1065   1.369   6.849   5.691  0.6582 -0.7453  0.0450
  733MOL0     C 1066   1.504   6.887   5.692  0.2085 -0.1413  0.3433
  733MOL0     N 1067   1.960   6.826   5.265  0.1684  0.1843 -0.1991
  733MOL0     N 1068   1.924   6.840   5.147  0.0728  0.1292 -0.0604
  733MOL0     C 1069   1.163   7.448   4.824 -0.2796 -0.1072  0.7904
  733MOL0     C 1070   1.032   7.400   4.840 -0.2834  0.2701 -1.0039
  733MOL0     C 1071   0.621   7.189   4.729  0.1836  0.8270 -0.3629
  733MOL0     C 1072   0.622   7.109   4.847  0.1897 -0.5086  1.2415
  733MOL0     C 1073   0.506   7.047   4.891 -0.0727  0.2540 -0.2712
  733MOL0     C 1074   0.385   7.061   4.831 -1.6510  0.2906  0.0179
  733MOL0     O 1075   0.285   6.976   4.884 -0.5086  0.9004  0.0452
  733MOL0     C 1076   0.148   6.989   4.852 -0.1118 -0.5679 -0.6340
  733MOL0     C 1077   0.102   6.869   4.763 -0.2689 -0.5672 -0.4168
  733MOL0     C 1078   0.182   6.869   4.632  0.5380 -0.0100 -0.7741
  733MOL0     C 1079   0.115   6.782   4.520 -0.4743 -0.3919 -0.2292
  733MOL0     C 1080   0.179   6.798   4.391 -0.2895  0.6518  0.6964
  733MOL0     C 1081   0.225   6.796   4.274  0.2170  0.1783  0.0883
  733MOL0     C 1082   0.376   7.144   4.718 -0.9042  0.3673  0.5839
  733MOL0     C 1083   0.487   7.206   4.668 -0.9902  0.0175  0.0634
  733MOL0     C 1084   0.464   7.287   4.543 -0.9475  0.1111  0.1871
  733MOL0     H 1085   0.989   7.273   4.527  4.5836 -2.7608 -2.0217
  733MOL0     H 1086   1.210   7.365   4.489 -0.3285 -0.8938  0.2333
  733MOL0     H 1087   1.411   7.445   4.896 -4.1279  0.6074 -0.4974
  733MOL0     H 1088   1.391   7.604   4.834  0.1227 -0.6794  0.0289
  733MOL0     H 1089   1.601   7.598   4.697 -3.0999  0.9407 -0.6700
  733MOL0     H 1090   1.625   7.600   4.869  0.3634  1.5908 -2.4587
  733MOL0     H 1091   1.664   7.351   4.693 -0.9608 -1.7363  1.2916
  733MOL0     H 1092   1.791   7.446   4.758  1.7732 -1.9352  0.4047
  733MOL0     H 1093   1.706   7.401   4.981 -0.6251 -1.1137  0.8995
  733MOL0     H 1094   1.593   7.291   4.920  0.7179 -1.7110 -0.0620
  733MOL0     H 1095   1.902   7.261   4.863 -0.7714  0.2385  1.1661
  733MOL0     H 1096   1.772   7.165   4.798 -0.6353 -0.1659 -0.2009
  733MOL0     H 1097   1.896   7.085   5.005  0.5695  2.0828 -0.4605
  733MOL0     H 1098   1.806   7.192   5.095 -1.6994  1.6286 -0.9467
  733MOL0     H 1099   1.627   7.044   4.898  0.2842  0.3597 -0.3173
  733MOL0     H 1100   1.596   7.088   5.064  0.7026 -2.4758  1.9829
  733MOL0     H 1101   1.615   6.834   5.024 -0.6957  0.5813 -1.3277
  733MOL0     H 1102   1.774   6.863   4.958  0.4227  0.3620  1.2304
  733MOL0     H 1103   1.643   6.894   5.313 -0.3625 -0.7796 -0.0590
  733MOL0     H 1104   1.932   6.740   5.509  1.1305  0.1020 -0.7668
  733MOL0     H 1105   1.762   6.783   5.512 -0.0258 -1.6967 -2.4816
  733MOL0     H 1106   1.979   6.994   5.547 -1.2655  1.3866 -0.6843
  733MOL0     H 1107   1.808   7.018   5.570  0.3426  1.3204 -0.2897
  733MOL0     H 1108   1.997   6.859   5.748 -2.0738 -1.4768  1.8175
  733MOL0     H 1109   1.913   7.015   5.781 -0.4716  1.5361 -1.1572
  733MOL0     H 1110   1.752   6.757   5.741 -1.9788  1.0158 -0.8439
  733MOL0     H 1111   1.818   6.804   5.902  1.4435  0.8566  0.1252
  733MOL0     H 1112   1.547   6.915   6.022 -0.2469  1.8980 -0.6274
  733MOL0     H 1113   1.201   6.893   6.063  1.1817  0.7321 -3.3974
  733MOL0     H 1114   1.358   6.894   6.140 -0.5026  1.2628 -1.0718
  733MOL0     H 1115   1.291   6.735   6.095  1.0520 -0.1220  0.6226
  733MOL0     H 1116   1.001   6.606   5.529 -2.7066  0.3738 -1.1509
  733MOL0     H 1117   0.763   6.527   5.538 -2.1871  3.5898 -1.6526
  733MOL0     H 1118   0.542   6.582   5.899  1.2537 -3.1894 -1.1882
  733MOL0     H 1119   0.468   6.716   5.820  1.0054  0.6664 -1.2450
  733MOL0     H 1120   0.297   6.564   5.866 -1.3000  0.3704 -1.9543
  733MOL0     H 1121   0.336   6.541   5.688  1.2567  1.2874 -0.1138
  733MOL0     H 1122   0.412   6.365   5.924 -0.1501 -1.5802 -0.1605
  733MOL0     H 1123   0.505   6.359   5.788 -0.4032 -1.5877  0.3220
  733MOL0     H 1124   0.313   6.290   5.643 -0.6865  0.2544 -0.2815
  733MOL0     H 1125   0.207   6.317   5.783  0.1765  0.8627 -1.6456
  733MOL0     H 1126   0.429   6.097   5.762  1.0555  2.7526 -0.5060
  733MOL0     H 1127   0.349   6.141   5.914 -0.5113 -0.6949 -0.3008
  733MOL0     H 1128   0.203   6.033   5.670  0.7503 -1.0442 -0.1153
  733MOL0     H 1129   0.137   6.095   5.819 -0.8948  0.9127 -1.2225
  733MOL0     H 1130   0.235   5.906   5.960 -0.8192 -0.3427 -0.2206
  733MOL0     H 1131   0.333   5.867   5.826 -0.1504 -0.3152 -0.6196
  733MOL0     H 1132   0.037   5.861   5.782  0.1179 -0.0274 -1.6760
  733MOL0     H 1133   0.110   5.727   5.875  1.6731  0.1973  0.0950
  733MOL0     H 1134   0.682   6.797   5.848  2.2492  1.0189  1.8185
  733MOL0     H 1135   0.899   6.886   5.850 -0.2164  0.6111  0.1138
  733MOL0     H 1136   1.330   6.827   5.592 -0.3170 -1.5879  0.5993
  733MOL0     H 1137   1.552   6.887   5.594 -0.5507  0.9218 -0.0440
  733MOL0     H 1138   1.204   7.496   4.912  3.1149 -2.2365  0.5597
  733MOL0     H 1139   0.978   7.391   4.933 -0.1652  1.9416 -0.7471
  733MOL0     H 1140   0.708   7.097   4.912 -0.5168 -1.5211  2.0241
  733MOL0     H 1141   0.510   6.981   4.977  0.2963 -0.7517 -1.0369
  733MOL0     H 1142   0.098   6.991   4.949  1.9568 -0.3950  0.4833
  733MOL0     H 1143   0.126   7.083   4.801  3.3251  0.4084 -0.5148
  733MOL0     H 1144   0.001   6.900   4.736 -0.6310 -0.1701  1.2613
  733MOL0     H 1145   0.104   6.769   4.807 -3.1962  0.0308  1.3530
  733MOL0     H 1146   0.194   6.972   4.598  3.2623  0.0200  0.0264
  733MOL0     H 1147   0.279   6.831   4.667 -1.1053 -1.7867  2.3396
  733MOL0     H 1148   0.011   6.813   4.511 -0.3243  0.5627  1.0299
  733MOL0     H 1149   0.119   6.676   4.547  0.8646  0.1509  1.9318
  733MOL0     H 1150   0.268   6.792   4.176  0.7560  1.7271  0.2375
  733MOL0     H 1151   0.277   7.154   4.677 -2.0655  2.4812  3.5106
  733MOL0     H 1152   0.484   7.393   4.563 -1.2630  0.7241 -2.4175
  733MOL0     H 1153   0.529   7.251   4.462 -4.0948 -3.0321 -1.2267
  733MOL0     H 1154   0.360   7.279   4.510 -1.0097  2.0511 -0.1706
  734MOL0     O 1155   2.688   7.505   9.539 -0.4133  0.3594 -0.0934
  734MOL0     C 1156   2.604   7.556   9.465  0.3048 -0.2144  0.6472
  734MOL0     O 1157   2.625   7.634   9.348  0.1963  0.1931  0.0377
  734MOL0     C 1158   2.743   7.697   9.341  0.4332  0.1824  0.2945
  734MOL0     C 1159   2.822   7.669   9.224  0.0708  0.0604 -0.0509
  734MOL0     C 1160   2.947   7.734   9.211 -0.0386  0.7017  0.5775
  734MOL0     C 1161   2.995   7.834   9.290 -0.1677 -0.4887  0.1546
  734MOL0     O 1162   3.115   7.903   9.271 -0.6570 -0.3497 -0.2896
  734MOL0     C 1163   3.127   7.977   9.146 -1.1585  0.3665  0.1251
  734MOL0     C 1164   3.261   8.058   9.135 -0.0443 -0.2008  0.9846
  734MOL0     C 1165   3.373   7.968   9.137  0.8651  0.5119  0.5267
  734MOL0     C 1166   3.506   8.042   9.106  0.7895 -0.7080 -0.5715
  734MOL0     C 1167   3.633   7.956   9.117 -0.2959  0.4466  0.3465
  734MOL0     C 1168   3.761   8.039   9.088 -0.7189 -0.1595  0.4009
  734MOL0     C 1169   3.888   7.954   9.091 -0.3532  0.0871 -0.2731
  734MOL0     C 1170   4.007   8.053   9.097  0.0417  0.7933  0.1184
  734MOL0     N 1171   4.006   8.125   9.232  0.4655  0.1696  0.6838
  734MOL0     C 1172   4.037   8.071   9.356  0.5672 -0.5096  0.7342
  734MOL0     C 1173   4.028   8.169   9.446  0.4029  0.0655  0.2987
  734MOL0     C 1174   4.072   8.146   9.596 -0.4391 -0.1833  0.7037
  734MOL0     C 1175   4.204   8.205   9.641  0.9784 -0.4089  0.4007
  734MOL0     C 1176   4.312   8.145   9.546 -0.6854 -0.3023  0.1959
  734MOL0     C 1177   4.441   8.224   9.559  0.1318 -0.4132 -0.1766
  734MOL0     O 1178   4.539   8.163   9.479 -0.5017 -0.1867  0.1701
  734MOL0     C 1179   4.661   8.223   9.461  0.1891 -0.5848  0.3994
  734MOL0     C 1180   4.762   8.140   9.410  0.4626  0.2656  0.6689
  734MOL0     C 1181   4.895   8.177   9.393 -0.7855  0.7343  0.4061
  734MOL0     C 1182   4.997   8.075   9.353 -1.4348  0.3214 -0.1592
  734MOL0     C 1183   4.929   8.313   9.415  0.0530  0.7558  0.0494
  734MOL0     C 1184   5.071   8.360   9.399  0.7238 -0.8035 -1.1435
  734MOL0     O 1185   5.101   8.460   9.485 -0.2675  0.5282  0.6006
  734MOL0     C 1186   5.222   8.509   9.475  0.0634  0.3192 -0.4122
  734MOL0     C 1187   5.241   8.631   9.420  0.3297 -0.0372  0.3586
  734MOL0     C 1188   5.365   8.686   9.408 -1.3575  0.7748  0.0502
  734MOL0     C 1189   5.477   8.627   9.461  0.1856  0.6765 -0.5289
  734MOL0     O 1190   5.607   8.675   9.448 -0.5147 -0.0248 -0.9006
  734MOL0     C 1191   5.627   8.816   9.439  0.0922  0.6972  0.1748
  734MOL0     C 1192   5.776   8.849   9.455 -0.0318 -0.2450 -0.5470
  734MOL0     C 1193   5.808   8.851   9.600 -0.3929 -0.6654  0.1930
  734MOL0     C 1194   5.953   8.902   9.635 -0.2402 -0.7545 -0.3802
  734MOL0     C 1195   5.984   8.920   9.788  0.3087  0.3703 -0.0256
  734MOL0     C 1196   5.971   8.784   9.862  1.0163 -0.2712  0.1187
  734MOL0     C 1197   6.050   8.779   9.992  0.3275  0.4797 -0.6174
  734MOL0     C 1198   5.990   8.878  10.093  0.3992  0.4858 -0.1188
  734MOL0    Cl 1199   6.061   8.855  10.264  0.2383 -0.3367 -0.1108
  734MOL0     C 1200   5.460   8.505   9.532 -1.8593  0.0907 -0.6616
  734MOL0     C 1201   5.333   8.444   9.527 -0.1345  0.2646 -0.5537
  734MOL0     O 1202   5.148   8.313   9.314  0.1267 -0.2713 -0.4224
  734MOL0     C 1203   4.829   8.404   9.449  0.1921 -0.5058 -0.4894
  734MOL0     C 1204   4.694   8.359   9.465 -0.1467 -0.0162 -0.1138
  734MOL0     N 1205   3.986   8.284   9.380  0.0843 -0.2546  0.0284
  734MOL0     N 1206   3.977   8.254   9.253 -0.7747  0.7177 -0.2071
  734MOL0     C 1207   2.917   7.851   9.409 -0.3729 -0.3455  0.4424
  734MOL0     C 1208   2.797   7.790   9.433 -0.0465 -0.8737  0.0351
  734MOL0     C 1209   2.457   7.540   9.501  0.7762  0.3246  0.1771
  734MOL0     C 1210   2.377   7.649   9.456  0.4470 -0.2996  0.8642
  734MOL0     C 1211   2.233   7.635   9.473  0.3565 -0.1624 -0.5897
  734MOL0     C 1212   2.178   7.509   9.514  0.1704  0.1047  0.6337
  734MOL0     O 1213   2.038   7.504   9.522  0.2767  0.2512  0.6729
  734MOL0     C 1214   1.972   7.379   9.553 -0.7869  0.1475 -0.5259
  734MOL0     C 1215   1.823   7.414   9.573 -0.4163  0.6014  0.4468
  734MOL0     C 1216   1.751   7.436   9.440 -0.1501  0.1868 -0.0134
  734MOL0     C 1217   1.785   7.337   9.325 -1.0679  0.0946  0.3045
  734MOL0     C 1218   1.681   7.356   9.223 -0.5621 -0.7682 -0.0694
  734MOL0     C 1219   1.590   7.372   9.146 -0.1247  0.6895 -1.0040
  734MOL0     C 1220   2.267   7.408   9.550 -0.5408 -0.3772 -0.0351
  734MOL0     C 1221   2.405   7.414   9.548  0.4293  0.7734  1.0107
  734MOL0     C 1222   2.495   7.294   9.579  0.5298  0.1250  0.7820
  734MOL0     H 1223   2.773   7.618   9.141  0.9747  2.0565 -1.8967
  734MOL0     H 1224   2.995   7.716   9.115 -0.7230  2.4966 -0.1458
  734MOL0     H 1225   3.045   8.049   9.133 -1.3495 -0.0665 -1.1177
  734MOL0     H 1226   3.133   7.911   9.060  1.6153 -0.7857  1.0934
  734MOL0     H 1227   3.264   8.113   9.041 -1.9052 -1.3079  0.2192
  734MOL0     H 1228   3.261   8.131   9.216 -0.8470  0.5705  0.3108
  734MOL0     H 1229   3.382   7.915   9.232 -2.0556 -0.9037  0.1117
  734MOL0     H 1230   3.360   7.892   9.058 -1.3240  1.6671 -0.2853
  734MOL0     H 1231   3.513   8.100   9.013  0.4405 -0.4823 -0.4576
  734MOL0     H 1232   3.529   8.117   9.182  1.2947 -0.4533 -0.9697
  734MOL0     H 1233   3.629   7.866   9.054  0.5855 -0.4333  1.5004
  734MOL0     H 1234   3.639   7.908   9.215  0.9587 -2.3578 -0.9711
  734MOL0     H 1235   3.748   8.077   8.986 -0.6398  1.1870  0.8736
  734MOL0     H 1236   3.773   8.130   9.147 -0.1857  1.1548 -1.5966
  734MOL0     H 1237   3.903   7.893   9.002  0.0250 -0.0299 -0.1309
  734MOL0     H 1238   3.895   7.899   9.185  1.1411 -1.7260 -1.3755
  734MOL0     H 1239   4.106   8.010   9.078  0.0298  0.8407 -0.0530
  734MOL0     H 1240   3.992   8.133   9.024  1.1421  2.3608  1.5213
  734MOL0     H 1241   4.067   7.969   9.377 -0.5865 -1.2026 -0.7593
  734MOL0     H 1242   4.071   8.036   9.605  0.3143 -0.6971 -3.5760
  734MOL0     H 1243   3.987   8.187   9.650 -1.2681 -1.0971  0.1292
  734MOL0     H 1244   4.203   8.314   9.634  2.3980 -0.3948 -0.0058
  734MOL0     H 1245   4.221   8.169   9.743 -0.6603  0.1290  0.8822
  734MOL0     H 1246   4.325   8.038   9.565  0.7313 -0.4167 -1.2473
  734MOL0     H 1247   4.278   8.156   9.443 -0.3292  0.2868  0.1398
  734MOL0     H 1248   4.416   8.318   9.511 -1.4913 -2.3719 -3.5203
  734MOL0     H 1249   4.476   8.213   9.663 -5.1034 -4.6699  1.6427
  734MOL0     H 1250   4.740   8.034   9.402 -3.5918  0.9578  0.2656
  734MOL0     H 1251   4.952   7.978   9.327  1.7436 -0.6442 -2.7024
  734MOL0     H 1252   5.054   8.063   9.446 -0.4693  3.0943 -0.3042
  734MOL0     H 1253   5.065   8.085   9.268 -0.1138 -0.1147  0.7976
  734MOL0     H 1254   5.150   8.669   9.374  0.0803 -0.8382  0.1807
  734MOL0     H 1255   5.368   8.782   9.357 -0.4453  0.0583 -1.2989
  734MOL0     H 1256   5.597   8.839   9.337 -0.6735 -3.1645 -0.6076
  734MOL0     H 1257   5.567   8.879   9.505 -0.3161  1.9553 -1.3436
  734MOL0     H 1258   5.842   8.779   9.401  1.3388  0.8194 -0.3120
  734MOL0     H 1259   5.787   8.946   9.405  0.0000 -0.8146 -1.6800
  734MOL0     H 1260   5.786   8.752   9.643 -2.8378 -1.5954 -2.8425
  734MOL0     H 1261   5.745   8.927   9.648 -1.1373 -1.0408 -0.1673
  734MOL0     H 1262   5.974   9.005   9.607 -0.3720 -0.2173  1.3690
  734MOL0     H 1263   6.025   8.842   9.578 -1.7634 -1.3881 -1.6963
  734MOL0     H 1264   6.087   8.957   9.793  0.4061  0.1688 -0.5347
  734MOL0     H 1265   5.926   8.998   9.840  0.6303  0.1163  0.7323
  734MOL0     H 1266   6.016   8.707   9.799  1.6573  1.0048 -1.0542
  734MOL0     H 1267   5.863   8.769   9.878  1.4030 -0.6175  2.8323
  734MOL0     H 1268   6.154   8.809   9.976  1.5068 -2.8076  0.1229
  734MOL0     H 1269   6.049   8.682  10.043  0.3430  0.7322 -0.1254
  734MOL0     H 1270   5.881   8.867  10.099  0.5114  0.0317  1.7120
  734MOL0     H 1271   6.014   8.980  10.060  0.8022 -0.1429 -1.8599
  734MOL0     H 1272   5.550   8.450   9.559 -0.9686  1.4089 -0.8184
  734MOL0     H 1273   5.313   8.345   9.566  0.3523  0.1933 -0.4800
  734MOL0     H 1274   4.847   8.510   9.464  0.1481 -0.6852  0.9609
  734MOL0     H 1275   4.619   8.429   9.500  0.4876  1.4126 -1.4796
  734MOL0     H 1276   2.954   7.923   9.481  4.3441  0.2113 -2.0961
  734MOL0     H 1277   2.739   7.803   9.524 -2.8111  0.2757 -1.7792
  734MOL0     H 1278   2.420   7.740   9.414  0.1724 -0.3379  0.4988
  734MOL0     H 1279   2.163   7.718   9.461  0.0772 -0.4534 -1.0221
  734MOL0     H 1280   1.978   7.304   9.473 -4.7705 -0.4600 -0.4761
  734MOL0     H 1281   2.000   7.340   9.651  1.6852  1.7181 -0.5318
  734MOL0     H 1282   1.819   7.505   9.632 -4.1964  2.3741 -2.1524
  734MOL0     H 1283   1.773   7.336   9.632 -1.1758  1.7711  1.3838
  734MOL0     H 1284   1.643   7.431   9.461  0.1150  1.5764  1.9468
  734MOL0     H 1285   1.768   7.539   9.407 -0.0586  0.3325  0.4932
  734MOL0     H 1286   1.800   7.231   9.348  4.8880 -0.3062 -3.2942
  734MOL0     H 1287   1.873   7.360   9.265 -0.5699  0.0174  0.9952
  734MOL0     H 1288   1.493   7.375   9.101 -0.3731 -0.9203 -0.6630
  734MOL0     H 1289   2.217   7.321   9.591  1.2927 -0.5767  1.9381
  734MOL0     H 1290   2.541   7.269   9.483 -2.3446  2.2514 -1.3573
  734MOL0     H 1291   2.567   7.313   9.659  0.8016 -1.2488  0.8845
  734MOL0     H 1292   2.435   7.209   9.612  1.9424 -0.5009  1.8099
  735MOL0     O 1293   7.444   6.340   8.188 -0.4968  0.0461 -0.6473
  735MOL0     C 1294   7.350   6.416   8.164  0.0893  0.4199  0.4187
  735MOL0     O 1295   7.367   6.546   8.134  0.3223 -0.2217  0.3533
  735MOL0     C 1296   7.490   6.599   8.137 -0.6712 -0.4737  0.0302
  735MOL0     C 1297   7.516   6.717   8.216  0.2363  0.6632  0.1955
  735MOL0     C 1298   7.642   6.783   8.209  0.2974 -0.1723 -0.1459
  735MOL0     C 1299   7.738   6.734   8.119  0.2151  0.1638  0.3481
  735MOL0     O 1300   7.857   6.800   8.124 -0.3270  0.4433  0.3056
  735MOL0     C 1301   7.955   6.777   8.028 -0.1019  1.0019 -0.0488
  735MOL0     C 1302   8.058   6.877   8.062 -1.1220  0.2046  0.0808
  735MOL0     C 1303   8.173   6.860   7.959  0.6020 -0.2912 -0.8669
  735MOL0     C 1304   8.145   6.949   7.837  0.2856  0.7712 -0.0898
  735MOL0     C 1305   8.258   6.921   7.732  0.2532  0.4393 -0.4726
  735MOL0     C 1306   8.263   6.996   7.597 -0.1798  0.0944 -0.3049
  735MOL0     C 1307   8.253   7.146   7.612  0.6525 -0.2045 -0.2987
  735MOL0     C 1308   8.366   7.202   7.694  0.8255 -1.0870 -0.6663
  735MOL0     N 1309   8.493   7.187   7.620 -0.0144  0.7121  0.0853
  735MOL0     C 1310   8.594   7.108   7.661  0.5885  0.7971  0.1526
  735MOL0     C 1311   8.691   7.125   7.571 -0.0964  0.4949  1.1403
  735MOL0     C 1312   8.816   7.032   7.573  1.2989  0.2472 -0.4254
  735MOL0     C 1313   8.934   7.087   7.497  0.2829  0.0896  0.2939
  735MOL0     C 1314   9.065   6.993   7.512 -0.4549  0.2476  0.1237
  735MOL0     C 1315   9.185   7.072   7.457 -0.2105  1.1213 -0.6591
  735MOL0     O 1316   9.310   7.015   7.508 -0.1152 -0.4391  0.2427
  735MOL0     C 1317   9.430   7.057   7.452  0.5116 -0.6470  0.2711
  735MOL0     C 1318   9.444   7.180   7.389  0.3620 -0.1591  0.8730
  735MOL0     C 1319   9.570   7.234   7.340  1.0426  0.5092 -0.0737
  735MOL0     C 1320   9.569   7.353   7.246  0.1567  0.2821  1.2329
  735MOL0     C 1321   9.689   7.169   7.375 -0.3484  0.1290 -0.1612
  735MOL0     C 1322   9.836   7.219   7.352  1.0989  0.6286  0.0357
  735MOL0     O 1323   9.932   7.127   7.390 -0.0235 -0.0609 -0.1220
  735MOL0     C 1324  10.065   7.165   7.375  0.0823  0.1767 -0.1461
  735MOL0     C 1325  10.132   7.115   7.261 -0.2073 -0.0734 -0.3409
  735MOL0     C 1326  10.263   7.157   7.230  0.0092 -0.2913  0.1263
  735MOL0     C 1327  10.324   7.247   7.310 -0.0176  0.2084  0.2358
  735MOL0     O 1328  10.455   7.280   7.292 -0.0472  0.7137  0.3127
  735MOL0     C 1329  10.482   7.404   7.223 -0.0204  0.2275 -0.3201
  735MOL0     C 1330  10.616   7.452   7.277 -0.3323 -0.1034  0.9091
  735MOL0     C 1331  10.653   7.586   7.209 -0.0341 -0.2294 -0.3275
  735MOL0     C 1332  10.768   7.641   7.296 -0.8529  0.1448  0.1738
  735MOL0     C 1333  10.816   7.786   7.248  0.7210  0.0220 -0.3214
  735MOL0     C 1334  10.918   7.851   7.337 -0.0341 -0.1809 -0.3099
  735MOL0     C 1335  11.050   7.763   7.352  0.2595  0.1747  0.2639
  735MOL0     C 1336  11.169   7.860   7.401 -0.5794  0.0359  0.1547
  735MOL0    Cl 1337  11.316   7.755   7.433 -0.3138 -0.1365 -0.1097
  735MOL0     C 1338  10.263   7.294   7.425 -0.2541  0.5910  0.2954
  735MOL0     C 1339  10.131   7.260   7.452 -0.4716 -0.1610 -0.2335
  735MOL0     O 1340   9.852   7.330   7.304 -0.3773  0.5021 -0.3397
  735MOL0     C 1341   9.673   7.039   7.448 -0.4660  0.4440 -0.5222
  735MOL0     C 1342   9.547   6.994   7.491 -0.2667 -0.2598  0.7475
  735MOL0     N 1343   8.662   7.236   7.493 -0.6720 -0.2960  0.1105
  735MOL0     N 1344   8.541   7.263   7.520  0.4940 -0.1690  0.4704
  735MOL0     C 1345   7.708   6.631   8.032 -0.6251 -0.2845  1.0918
  735MOL0     C 1346   7.593   6.555   8.046  0.1920 -0.0927  0.7941
  735MOL0     C 1347   7.211   6.358   8.193 -0.9149  0.3941 -0.2293
  735MOL0     C 1348   7.104   6.444   8.208 -0.0888  1.0590  0.1920
  735MOL0     C 1349   6.981   6.386   8.219  0.6067 -0.4994 -0.8453
  735MOL0     C 1350   6.942   6.256   8.219  0.0030  0.7088 -0.1096
  735MOL0     O 1351   6.813   6.209   8.236 -0.1060  0.2844 -1.0698
  735MOL0     C 1352   6.712   6.306   8.263 -0.6738 -0.1351 -0.0467
  735MOL0     C 1353   6.579   6.226   8.248 -0.0469  0.2449 -0.7948
  735MOL0     C 1354   6.467   6.329   8.275 -0.3852 -0.6893 -0.1238
  735MOL0     C 1355   6.339   6.259   8.294  0.3099  0.3074 -0.4261
  735MOL0     C 1356   6.256   6.373   8.332  0.3486  0.8365  0.0541
  735MOL0     C 1357   6.180   6.464   8.348 -1.1935  0.1329 -0.3352
  735MOL0     C 1358   7.048   6.171   8.203  0.0235  0.0429  0.1148
  735MOL0     C 1359   7.180   6.218   8.189  0.6846 -0.2264  0.1281
  735MOL0     C 1360   7.276   6.102   8.161  0.9435 -0.5700 -0.1009
  735MOL0     H 1361   7.436   6.753   8.281 -0.0298 -1.5308  1.1623
  735MOL0     H 1362   7.668   6.871   8.267  3.5264 -2.2950  1.9110
  735MOL0     H 1363   7.916   6.803   7.929 -0.9665  2.2765  0.5934
  735MOL0     H 1364   7.989   6.673   8.021  0.2871  1.0931  0.4319
  735MOL0     H 1365   8.023   6.981   8.059  2.4581  1.5278 -0.3921
  735MOL0     H 1366   8.105   6.865   8.160  1.6918 -2.0707 -1.3758
  735MOL0     H 1367   8.261   6.886   8.019 -0.4265  1.4245 -0.0310
  735MOL0     H 1368   8.189   6.760   7.916 -0.6451 -1.4408  1.2019
  735MOL0     H 1369   8.045   6.932   7.797  1.0069  1.2107 -2.1799
  735MOL0     H 1370   8.143   7.053   7.873 -0.3367 -0.3438  3.5432
  735MOL0     H 1371   8.256   6.816   7.701 -1.6950  0.2491  0.1807
  735MOL0     H 1372   8.357   6.929   7.780  0.1590 -1.5750  0.1605
  735MOL0     H 1373   8.356   6.974   7.543  0.6143  1.2671  0.5348
  735MOL0     H 1374   8.177   6.970   7.536 -0.6520 -0.6891  0.6747
  735MOL0     H 1375   8.154   7.176   7.647  1.2935  0.9306  0.6133
  735MOL0     H 1376   8.258   7.201   7.517 -2.1388  0.6696 -0.0402
  735MOL0     H 1377   8.352   7.309   7.714  1.2572 -1.4661  1.9846
  735MOL0     H 1378   8.372   7.164   7.796  2.0365  2.8765  0.9507
  735MOL0     H 1379   8.582   7.046   7.749 -1.2241 -0.2229 -0.7628
  735MOL0     H 1380   8.786   6.936   7.530  2.3187 -0.6599  0.8123
  735MOL0     H 1381   8.850   7.002   7.672  2.3111 -2.5879 -1.5468
  735MOL0     H 1382   8.910   7.096   7.391 -2.1169 -0.8983  0.7083
  735MOL0     H 1383   8.947   7.187   7.540 -0.1888 -0.0864  0.8456
  735MOL0     H 1384   9.082   6.968   7.617 -1.8583 -1.6946 -0.0673
  735MOL0     H 1385   9.059   6.900   7.455  3.1562  1.1875 -2.1795
  735MOL0     H 1386   9.180   7.079   7.348 -0.1618  2.2001 -0.6101
  735MOL0     H 1387   9.178   7.178   7.487  1.8829  1.5384 -1.4594
  735MOL0     H 1388   9.357   7.239   7.363  2.2792  2.0370 -1.0523
  735MOL0     H 1389   9.633   7.429   7.292  0.5247 -1.6781  4.3030
  735MOL0     H 1390   9.473   7.397   7.219  0.9540  2.6858  1.9985
  735MOL0     H 1391   9.619   7.313   7.157 -0.1116  0.4561  1.0012
  735MOL0     H 1392  10.093   7.042   7.192 -1.0979  0.8515 -0.8477
  735MOL0     H 1393  10.323   7.117   7.149  1.1100  1.6992 -0.1159
  735MOL0     H 1394  10.481   7.384   7.115  1.1227 -4.0974  0.2894
  735MOL0     H 1395  10.396   7.466   7.251  0.8927  0.1595  3.0641
  735MOL0     H 1396  10.610   7.475   7.383  1.0424 -0.9441  1.1962
  735MOL0     H 1397  10.695   7.378   7.263 -0.3071  0.1916 -0.8010
  735MOL0     H 1398  10.557   7.637   7.217 -1.1262 -2.1125 -0.6763
  735MOL0     H 1399  10.696   7.574   7.109  2.7529 -3.5436  1.0830
  735MOL0     H 1400  10.856   7.576   7.291 -0.4851  0.6857 -0.6698
  735MOL0     H 1401  10.732   7.649   7.399  2.0719  0.7329  1.2387
  735MOL0     H 1402  10.864   7.781   7.150 -1.0743 -0.4896 -1.2190
  735MOL0     H 1403  10.733   7.858   7.243  0.0547 -0.4319  2.4405
  735MOL0     H 1404  10.886   7.872   7.440  1.3114 -1.3860  0.3880
  735MOL0     H 1405  10.945   7.949   7.296 -4.2191  0.7332 -1.3930
  735MOL0     H 1406  11.069   7.721   7.253 -2.1296  3.2930 -1.7367
  735MOL0     H 1407  11.037   7.685   7.428 -1.2590 -0.8465 -0.9899
  735MOL0     H 1408  11.124   7.912   7.486 -2.4006 -0.5408 -0.4001
  735MOL0     H 1409  11.187   7.921   7.313  2.2683 -2.0472 -0.8383
  735MOL0     H 1410  10.317   7.363   7.488 -0.7959  2.5493 -1.2643
  735MOL0     H 1411  10.074   7.309   7.530  0.3958 -1.2522  1.1504
  735MOL0     H 1412   9.759   6.977   7.466  0.4001  1.5070 -0.8609
  735MOL0     H 1413   9.544   6.895   7.536 -1.3400  1.2556  4.3667
  735MOL0     H 1414   7.789   6.589   7.973 -0.7721 -0.1588  0.8001
  735MOL0     H 1415   7.579   6.461   7.994 -0.2757  0.0399  0.6758
  735MOL0     H 1416   7.116   6.551   8.222  1.0997  0.9488  0.1596
  735MOL0     H 1417   6.905   6.460   8.243  2.3171  0.8163  0.8445
  735MOL0     H 1418   6.723   6.344   8.365 -0.2374  0.1803 -0.2060
  735MOL0     H 1419   6.713   6.397   8.202 -1.2008 -0.6828 -0.8917
  735MOL0     H 1420   6.567   6.141   8.316  0.2181  0.9722  0.1762
  735MOL0     H 1421   6.567   6.190   8.145 -0.4444 -1.1320 -0.2868
  735MOL0     H 1422   6.496   6.374   8.371 -0.6540  0.8061 -0.7061
  735MOL0     H 1423   6.472   6.415   8.207 -1.6382  0.7839  1.5437
  735MOL0     H 1424   6.344   6.191   8.380  1.8265  1.0864  0.1545
  735MOL0     H 1425   6.304   6.205   8.206  3.6807 -1.6900 -0.7236
  735MOL0     H 1426   6.121   6.548   8.378 -2.2426 -0.9491  0.7301
  735MOL0     H 1427   7.023   6.065   8.203  2.3986 -0.5791  0.8333
  735MOL0     H 1428   7.370   6.110   8.217  0.1129 -2.4263  1.7030
  735MOL0     H 1429   7.233   6.006   8.191 -0.9824 -0.0869 -1.1584
  735MOL0     H 1430   7.287   6.098   8.053 -0.6543 -1.0080 -0.2677
  736MOL0     O 1431   6.020   9.801   3.917  0.1302 -0.6286 -0.2348
  736MOL0     C 1432   5.920   9.803   3.991  0.0110 -1.2837 -0.6257
  736MOL0     O 1433   5.922   9.855   4.121  0.0390  0.3938  0.4504
  736MOL0     C 1434   6.041   9.903   4.173 -0.6249  0.1159 -0.4462
  736MOL0     C 1435   6.159   9.830   4.195  0.1271 -0.1165  0.1090
  736MOL0     C 1436   6.283   9.887   4.230  0.0590 -0.4580  0.2192
  736MOL0     C 1437   6.280  10.026   4.262  0.1559  0.2605 -0.7572
  736MOL0     O 1438   6.396  10.077   4.313 -1.0892  0.5041 -0.1469
  736MOL0     C 1439   6.425  10.218   4.298  0.0608  0.1283 -0.0199
  736MOL0     C 1440   6.532  10.252   4.393 -0.0501 -0.2496  0.9794
  736MOL0     C 1441   6.671  10.209   4.343  0.4398 -0.1257  0.7841
  736MOL0     C 1442   6.789  10.266   4.413  0.3741 -0.3316 -0.2467
  736MOL0     C 1443   6.931  10.202   4.382 -0.6686  1.1813 -0.0096
  736MOL0     C 1444   6.954  10.065   4.449 -0.7013  0.4742 -0.4222
  736MOL0     C 1445   7.092  10.015   4.407  0.2902  1.4273  0.3585
  736MOL0     C 1446   7.122   9.876   4.465  0.9337 -0.6469  0.0907
  736MOL0     N 1447   7.162   9.883   4.604 -0.2265 -0.0452  0.9133
  736MOL0     C 1448   7.172   9.765   4.671 -0.6350  0.2831 -0.1520
  736MOL0     C 1449   7.227   9.798   4.785  0.3147 -0.0224  0.1758
  736MOL0     C 1450   7.260   9.709   4.907 -1.0357 -0.3126  0.3744
  736MOL0     C 1451   7.147   9.719   5.009 -0.0484  0.3543 -0.2490
  736MOL0     C 1452   7.182   9.629   5.125 -1.2322 -0.3135  0.8775
  736MOL0     C 1453   7.286   9.693   5.229  0.1512 -0.6986  0.6465
  736MOL0     O 1454   7.414   9.700   5.166  0.7333  0.1319 -0.0708
  736MOL0     C 1455   7.512   9.645   5.241  0.1891  0.3013 -0.3859
  736MOL0     C 1456   7.610   9.731   5.288  0.6061 -0.6695  0.1195
  736MOL0     C 1457   7.721   9.686   5.368  0.4549  0.0480 -0.3173
  736MOL0     C 1458   7.805   9.790   5.438  0.1965  0.0396  0.3985
  736MOL0     C 1459   7.732   9.549   5.391  0.1771  1.2391  0.1577
  736MOL0     C 1460   7.845   9.484   5.471 -0.3880 -0.6279  0.2424
  736MOL0     O 1461   7.970   9.545   5.460  0.0487  0.0917 -0.5033
  736MOL0     C 1462   8.077   9.512   5.543  0.1425 -0.8032 -0.2723
  736MOL0     C 1463   8.160   9.615   5.606  0.8684  0.7904  1.2281
  736MOL0     C 1464   8.273   9.573   5.674  0.8716 -0.1883  0.4792
  736MOL0     C 1465   8.307   9.443   5.684 -0.7566  0.2654  0.4491
  736MOL0     O 1466   8.430   9.407   5.740 -0.9074 -0.8786 -0.1445
  736MOL0     C 1467   8.527   9.366   5.647  0.0400 -0.0124  0.3906
  736MOL0     C 1468   8.672   9.384   5.694 -0.5360 -1.1444  0.0133
  736MOL0     C 1469   8.774   9.307   5.589 -0.2219 -0.8334 -0.0659
  736MOL0     C 1470   8.844   9.419   5.512  0.4487 -0.0830 -0.2396
  736MOL0     C 1471   8.944   9.373   5.404  0.5427  0.6068  0.1986
  736MOL0     C 1472   9.011   9.497   5.342 -0.1933 -0.1211  0.4348
  736MOL0     C 1473   9.093   9.459   5.210  0.3433  0.1415 -0.7738
  736MOL0     C 1474   9.195   9.571   5.167  0.1609 -0.8973 -0.0782
  736MOL0    Cl 1475   9.313   9.604   5.301  0.0213  0.0414  0.0846
  736MOL0     C 1476   8.230   9.343   5.629 -0.4947 -0.7635 -0.0743
  736MOL0     C 1477   8.119   9.378   5.556 -0.1849 -0.4769  0.7566
  736MOL0     O 1478   7.812   9.390   5.540  0.2012 -0.1925  0.3011
  736MOL0     C 1479   7.627   9.463   5.347  0.5342  0.4519 -0.1385
  736MOL0     C 1480   7.520   9.508   5.268 -0.4929 -0.0583  0.7767
  736MOL0     N 1481   7.244   9.941   4.789  0.7482  0.3618  0.1943
  736MOL0     N 1482   7.198   9.991   4.679  0.4946 -0.2114 -0.3432
  736MOL0     C 1483   6.161  10.094   4.250 -0.1940  0.5527 -1.3315
  736MOL0     C 1484   6.041  10.043   4.199  0.1959 -0.0144 -0.7788
  736MOL0     C 1485   5.781   9.776   3.938  0.1573  0.9258  0.8201
  736MOL0     C 1486   5.669   9.804   4.013  0.0510  0.2518  0.3819
  736MOL0     C 1487   5.537   9.791   3.962  0.0955 -0.3276 -1.0166
  736MOL0     C 1488   5.513   9.767   3.823 -0.6030 -0.0867  0.0600
  736MOL0     O 1489   5.392   9.778   3.753  0.4535  0.2389 -0.2769
  736MOL0     C 1490   5.275   9.817   3.832 -0.3840 -0.3820  0.1066
  736MOL0     C 1491   5.146   9.804   3.750  0.1753 -0.4696 -0.1539
  736MOL0     C 1492   5.087   9.662   3.742 -0.4315 -0.2179  0.2561
  736MOL0     C 1493   4.982   9.641   3.635  0.4744 -0.3562  0.4996
  736MOL0     C 1494   4.852   9.700   3.666  0.4245  0.0080 -0.2991
  736MOL0     C 1495   4.760   9.765   3.706  1.0880  0.3197 -0.1590
  736MOL0     C 1496   5.624   9.730   3.757  0.5878 -0.6618  0.3803
  736MOL0     C 1497   5.758   9.727   3.805 -0.1348 -0.1561  0.5145
  736MOL0     C 1498   5.862   9.665   3.714 -0.1721 -0.7139 -0.3697
  736MOL0     H 1499   6.141   9.727   4.168 -1.2703  0.6626 -2.2639
  736MOL0     H 1500   6.364   9.817   4.245  0.3327 -0.0748  0.5457
  736MOL0     H 1501   6.339  10.276   4.333  0.3476 -0.0003  0.9419
  736MOL0     H 1502   6.445  10.245   4.194  0.6383 -1.8445 -0.4625
  736MOL0     H 1503   6.531  10.361   4.385 -0.5561 -0.4080 -2.0729
  736MOL0     H 1504   6.513  10.211   4.493 -1.2614  0.1278  0.9303
  736MOL0     H 1505   6.677  10.100   4.352 -0.0369 -0.0734  1.8202
  736MOL0     H 1506   6.680  10.229   4.236 -0.5428 -2.7701  0.1083
  736MOL0     H 1507   6.791  10.371   4.383 -0.4717 -0.7164 -1.7206
  736MOL0     H 1508   6.765  10.271   4.520  0.2090  0.1298 -0.3031
  736MOL0     H 1509   7.004  10.282   4.395 -1.1151  1.2504  2.7333
  736MOL0     H 1510   6.934  10.183   4.275  1.6723  2.2585 -0.2018
  736MOL0     H 1511   6.944  10.071   4.558  1.8169 -2.7559  0.1400
  736MOL0     H 1512   6.878   9.998   4.407  1.3411 -0.7253 -2.4195
  736MOL0     H 1513   7.167  10.087   4.441  1.0074  1.8049 -1.8790
  736MOL0     H 1514   7.094  10.006   4.298 -0.3202 -2.5186  0.5212
  736MOL0     H 1515   7.034   9.811   4.459  0.9222 -0.7670  1.2606
  736MOL0     H 1516   7.206   9.838   4.407  2.0124  4.0802 -1.9354
  736MOL0     H 1517   7.145   9.662   4.651  0.4602 -0.2296  0.8709
  736MOL0     H 1518   7.353   9.746   4.951 -2.2040  2.1936  0.9170
  736MOL0     H 1519   7.272   9.605   4.876 -1.9668 -0.6000  0.9445
  736MOL0     H 1520   7.132   9.820   5.048 -1.5320 -0.6363  1.9547
  736MOL0     H 1521   7.049   9.684   4.974 -0.5455  1.1523  0.3142
  736MOL0     H 1522   7.088   9.594   5.169 -2.2179 -0.4155 -1.2201
  736MOL0     H 1523   7.228   9.534   5.095  1.5785  0.6065  1.8548
  736MOL0     H 1524   7.251   9.792   5.260  0.6893 -0.4812  0.5758
  736MOL0     H 1525   7.278   9.621   5.311  1.1828 -0.4764  0.9518
  736MOL0     H 1526   7.598   9.837   5.267 -3.3998 -1.0618 -0.3937
  736MOL0     H 1527   7.861   9.755   5.526  0.3164 -2.3492 -0.5638
  736MOL0     H 1528   7.746   9.875   5.473  1.9577  1.6615 -0.3089
  736MOL0     H 1529   7.881   9.817   5.364  0.4647 -3.6113 -0.8337
  736MOL0     H 1530   8.143   9.721   5.597 -1.6413  0.4060  0.8694
  736MOL0     H 1531   8.346   9.643   5.712  0.7811  0.9984 -1.4445
  736MOL0     H 1532   8.514   9.258   5.632  1.7438 -0.4814  1.9272
  736MOL0     H 1533   8.505   9.424   5.558  3.4569  1.2618  0.2292
  736MOL0     H 1534   8.690   9.491   5.712 -1.2255 -1.0787  0.3259
  736MOL0     H 1535   8.680   9.342   5.794 -2.6089 -2.3523 -0.2712
  736MOL0     H 1536   8.717   9.252   5.514 -0.6174 -0.2916 -0.1663
  736MOL0     H 1537   8.845   9.244   5.644  2.4427  2.6461  0.8253
  736MOL0     H 1538   8.888   9.491   5.583 -1.9134  1.8978 -0.6378
  736MOL0     H 1539   8.767   9.473   5.456 -0.3862  0.4507  1.3611
  736MOL0     H 1540   9.026   9.317   5.450  1.3748  0.2809 -1.5825
  736MOL0     H 1541   8.888   9.317   5.328  1.4312  0.3413 -0.2748
  736MOL0     H 1542   9.085   9.531   5.416  0.8783 -1.3029 -0.0461
  736MOL0     H 1543   8.937   9.572   5.314 -0.7066 -0.8218 -0.1176
  736MOL0     H 1544   9.021   9.439   5.130  1.5656 -1.7819 -1.4564
  736MOL0     H 1545   9.151   9.367   5.225 -0.0003 -0.2664 -1.9129
  736MOL0     H 1546   9.151   9.668   5.145  1.9092  0.4784  2.0281
  736MOL0     H 1547   9.251   9.529   5.083  2.7043 -0.4988  1.2920
  736MOL0     H 1548   8.252   9.238   5.643 -1.7263 -1.0860 -0.3966
  736MOL0     H 1549   8.062   9.302   5.504 -2.0554  1.6346 -0.4734
  736MOL0     H 1550   7.616   9.358   5.372 -1.5474  1.0226  1.6455
  736MOL0     H 1551   7.441   9.443   5.230  1.0108 -0.3146 -2.1870
  736MOL0     H 1552   6.152  10.200   4.272  0.9795  0.6337 -1.1252
  736MOL0     H 1553   5.945  10.091   4.186 -0.9407 -2.2946 -1.4677
  736MOL0     H 1554   5.675   9.839   4.116 -2.5973 -0.7741  0.9623
  736MOL0     H 1555   5.453   9.809   4.030  1.6237  0.2996  0.8016
  736MOL0     H 1556   5.265   9.744   3.913  0.3049 -0.5018  0.0905
  736MOL0     H 1557   5.285   9.920   3.864  1.5034 -0.1017 -1.1638
  736MOL0     H 1558   5.149   9.833   3.644 -0.6217  0.7640  0.1456
  736MOL0     H 1559   5.069   9.861   3.802  0.6535  0.8131 -0.8056
  736MOL0     H 1560   5.177   9.600   3.738  2.0548  2.8188  3.3453
  736MOL0     H 1561   5.043   9.638   3.839 -0.2507 -0.1258  0.3615
  736MOL0     H 1562   4.974   9.533   3.620 -1.2504  0.1402 -3.4872
  736MOL0     H 1563   5.018   9.673   3.537 -2.3305  2.7251  0.3073
  736MOL0     H 1564   4.683   9.827   3.748  0.5348  1.6811 -2.9233
  736MOL0     H 1565   5.614   9.686   3.658  1.0922  0.4230 -0.1754
  736MOL0     H 1566   5.919   9.743   3.662  3.5834 -1.5228  2.1257
  736MOL0     H 1567   5.942   9.609   3.763 -0.4326 -1.5859 -0.9134
  736MOL0     H 1568   5.822   9.584   3.652  0.3662 -2.6659  1.7048
  737MOL0     O 1569   6.465   8.960   2.115  0.4295  0.4860 -0.6734
  737MOL0     C 1570   6.438   8.975   1.996 -0.5349  0.5441 -0.5224
  737MOL0     O 1571   6.527   9.011   1.905 -0.5062 -0.3386  0.8578
  737MOL0     C 1572   6.659   9.025   1.942 -0.3963  0.8727  0.5083
  737MOL0     C 1573   6.717   9.143   1.985  0.5161 -0.7804 -1.0028
  737MOL0     C 1574   6.850   9.161   2.028 -1.0637  0.1261 -0.3956
  737MOL0     C 1575   6.932   9.045   2.041 -0.5653 -0.3982  0.2060
  737MOL0     O 1576   7.061   9.036   2.078 -0.4013  0.0267  0.1981
  737MOL0     C 1577   7.126   9.154   2.107  0.1908 -0.0654 -1.2810
  737MOL0     C 1578   7.270   9.129   2.146  0.1378 -0.1034 -0.5647
  737MOL0     C 1579   7.352   9.249   2.106 -0.4503  0.2381 -0.3807
  737MOL0     C 1580   7.501   9.234   2.142 -0.1641  0.5095  0.8843
  737MOL0     C 1581   7.586   9.351   2.102 -0.2483  0.5342 -0.7892
  737MOL0     C 1582   7.727   9.300   2.090 -0.6075  0.2694 -0.1251
  737MOL0     C 1583   7.776   9.251   2.227  0.1737  0.6850  0.5597
  737MOL0     C 1584   7.926   9.224   2.234  0.1168 -0.2009 -0.3416
  737MOL0     N 1585   8.007   9.348   2.232 -0.6044 -0.9247 -0.2663
  737MOL0     C 1586   8.094   9.374   2.129 -0.4702 -0.5987 -0.1359
  737MOL0     C 1587   8.157   9.486   2.169 -0.7634  0.4241 -0.4082
  737MOL0     C 1588   8.272   9.549   2.096  0.5427 -0.5461 -0.2084
  737MOL0     C 1589   8.317   9.676   2.172  0.2563  0.0601  0.0177
  737MOL0     C 1590   8.428   9.742   2.087 -0.6771  0.1843  0.0608
  737MOL0     C 1591   8.491   9.852   2.170 -0.4642 -0.4430 -0.8314
  737MOL0     O 1592   8.547   9.802   2.299  0.2771 -0.4649  0.4850
  737MOL0     C 1593   8.683   9.795   2.322 -0.5602 -0.7328  0.3090
  737MOL0     C 1594   8.766   9.789   2.209  0.0022 -1.3819  0.3715
  737MOL0     C 1595   8.905   9.794   2.220  0.5316  0.7060 -0.5653
  737MOL0     C 1596   8.981   9.781   2.087 -0.3777  0.0253 -0.6246
  737MOL0     C 1597   8.970   9.811   2.353 -1.0604  0.3353 -0.2008
  737MOL0     C 1598   9.119   9.823   2.364  0.6394  0.0874 -0.0709
  737MOL0     O 1599   9.208   9.750   2.276 -0.0165 -0.6161  0.4129
  737MOL0     C 1600   9.345   9.757   2.301 -0.1376  0.7341  0.9879
  737MOL0     C 1601   9.423   9.785   2.188  0.4631 -1.1243  0.5036
  737MOL0     C 1602   9.564   9.792   2.214 -0.6231  0.5850 -0.2294
  737MOL0     C 1603   9.624   9.772   2.334  0.5734  0.4055  0.1242
  737MOL0     O 1604   9.762   9.779   2.361  0.3746  0.0122 -0.1981
  737MOL0     C 1605   9.850   9.862   2.287 -0.6395 -0.3069  0.3120
  737MOL0     C 1606   9.986   9.842   2.349 -0.7565 -0.0826  0.3981
  737MOL0     C 1607  10.100   9.920   2.276 -0.1216  0.3946  0.2027
  737MOL0     C 1608  10.238   9.863   2.308 -0.5601  0.2860  0.4239
  737MOL0     C 1609  10.318   9.946   2.411  0.5274 -0.3700  0.3541
  737MOL0     C 1610  10.458   9.908   2.441  0.2394 -0.2650  0.2904
  737MOL0     C 1611  10.457   9.784   2.528  0.3380 -1.4616  0.4971
  737MOL0     C 1612  10.586   9.713   2.532 -0.1936 -0.6626  0.0990
  737MOL0    Cl 1613  10.717   9.817   2.590  0.3533 -0.1379  0.2242
  737MOL0     C 1614   9.539   9.720   2.440  0.0482 -0.0877  0.3986
  737MOL0     C 1615   9.407   9.731   2.425 -0.4486 -0.8992  0.4369
  737MOL0     O 1616   9.152   9.900   2.451 -0.4052 -0.0438  0.3466
  737MOL0     C 1617   8.885   9.817   2.464 -0.2491 -0.8836 -0.7491
  737MOL0     C 1618   8.740   9.818   2.446 -0.4262  0.3780  0.4796
  737MOL0     N 1619   8.120   9.521   2.299 -0.1328 -0.1497 -0.0597
  737MOL0     N 1620   8.026   9.435   2.334 -0.2546  0.2437  0.7559
  737MOL0     C 1621   6.874   8.928   1.995  0.1176 -0.1604  0.1734
  737MOL0     C 1622   6.749   8.917   1.938  0.1850 -0.2514 -0.0415
  737MOL0     C 1623   6.305   8.989   1.948  0.3187  0.2749 -0.0127
  737MOL0     C 1624   6.205   9.049   2.019  0.1300  0.3353 -0.6170
  737MOL0     C 1625   6.075   9.054   1.973  0.0560 -0.9799 -0.1871
  737MOL0     C 1626   6.033   9.002   1.854 -0.0389 -0.1350 -0.4317
  737MOL0     O 1627   5.897   9.014   1.830 -0.3600  0.3958 -0.0077
  737MOL0     C 1628   5.833   8.983   1.705  0.0257  0.7054  0.3678
  737MOL0     C 1629   5.687   9.022   1.711 -0.1428  0.0966  0.7426
  737MOL0     C 1630   5.615   8.927   1.625  0.4128  0.6117  1.0822
  737MOL0     C 1631   5.480   8.993   1.598  0.5715  0.1859  0.2125
  737MOL0     C 1632   5.397   8.906   1.514  0.2370  0.2852 -0.5918
  737MOL0     C 1633   5.324   8.836   1.454  0.5359  0.5898  0.1717
  737MOL0     C 1634   6.136   8.950   1.772  0.5423 -0.0792  0.5233
  737MOL0     C 1635   6.267   8.939   1.821  0.0602  0.4042  0.4967
  737MOL0     C 1636   6.355   8.861   1.729  0.4532  0.6686  1.3083
  737MOL0     H 1637   6.652   9.230   1.981  1.9156  0.2755 -1.6827
  737MOL0     H 1638   6.881   9.265   2.038  1.0520 -0.1569 -2.8238
  737MOL0     H 1639   7.083   9.199   2.197  1.7897 -3.0036  1.1522
  737MOL0     H 1640   7.115   9.217   2.019  1.6756  0.3174 -1.2190
  737MOL0     H 1641   7.271   9.115   2.254 -0.5107  3.0249 -0.0539
  737MOL0     H 1642   7.306   9.041   2.092  0.5220 -0.0794 -0.3502
  737MOL0     H 1643   7.337   9.269   2.000  1.5972 -1.7772 -1.1241
  737MOL0     H 1644   7.311   9.336   2.159  3.6533  0.5662  2.7322
  737MOL0     H 1645   7.510   9.208   2.248 -2.3041 -0.6247  0.8581
  737MOL0     H 1646   7.531   9.152   2.075  1.0451  2.1355 -0.6542
  737MOL0     H 1647   7.572   9.439   2.166 -1.4663 -0.0088 -0.2688
  737MOL0     H 1648   7.563   9.383   2.000  0.5087 -0.2000 -1.2040
  737MOL0     H 1649   7.742   9.221   2.015  0.3380 -0.1022  0.4254
  737MOL0     H 1650   7.794   9.382   2.061  0.8474 -0.4552  1.0403
  737MOL0     H 1651   7.715   9.167   2.262  0.2331  1.2050  1.9627
  737MOL0     H 1652   7.755   9.323   2.307 -3.1185  0.0152  0.4547
  737MOL0     H 1653   7.950   9.173   2.328 -0.7119  2.2569  1.2931
  737MOL0     H 1654   7.933   9.163   2.143 -4.2513 -1.8844  0.2037
  737MOL0     H 1655   8.113   9.333   2.030  0.8825 -0.7410  0.1652
  737MOL0     H 1656   8.233   9.587   2.001 -0.6599 -0.3106  0.3657
  737MOL0     H 1657   8.355   9.478   2.092  1.4826  0.5481 -0.4852
  737MOL0     H 1658   8.229   9.741   2.181 -0.4725 -0.6656 -1.5804
  737MOL0     H 1659   8.348   9.651   2.274  0.5626 -0.9006 -0.3035
  737MOL0     H 1660   8.508   9.671   2.063 -0.1838  0.0106  2.0590
  737MOL0     H 1661   8.376   9.784   2.001  0.8607 -0.6042 -1.3127
  737MOL0     H 1662   8.563   9.917   2.120  0.9222  0.1205  1.7253
  737MOL0     H 1663   8.422   9.929   2.207  2.9475  0.9692  3.4842
  737MOL0     H 1664   8.714   9.770   2.116 -2.2903  0.6869  1.1180
  737MOL0     H 1665   8.915   9.778   1.999 -1.8920  0.8496  0.4390
  737MOL0     H 1666   9.046   9.693   2.086 -2.7284 -1.9393  2.1116
  737MOL0     H 1667   9.051   9.865   2.089  1.8504 -1.6961  2.6899
  737MOL0     H 1668   9.367   9.810   2.099 -0.8491  1.0234  1.8562
  737MOL0     H 1669   9.635   9.814   2.135  1.0955 -1.6052  0.6048
  737MOL0     H 1670   9.843   9.841   2.180 -2.6259  1.3690  0.0589
  737MOL0     H 1671   9.810   9.962   2.305 -0.1199 -0.1707  0.7463
  737MOL0     H 1672   9.974   9.883   2.450 -0.4541 -0.4732  0.5946
  737MOL0     H 1673  10.007   9.735   2.353  1.2748  0.0236 -3.2509
  737MOL0     H 1674  10.100  10.026   2.300  1.9043  0.7890 -1.2618
  737MOL0     H 1675  10.093   9.919   2.167  2.2723 -0.3810  0.0011
  737MOL0     H 1676  10.306   9.858   2.223  1.3793 -0.5062  1.9182
  737MOL0     H 1677  10.219   9.760   2.342  0.5385  0.3705  1.3846
  737MOL0     H 1678  10.310  10.051   2.380  0.8541 -0.1817  0.8718
  737MOL0     H 1679  10.264   9.939   2.506 -1.2395  0.3769 -0.5322
  737MOL0     H 1680  10.508   9.992   2.490  1.8309 -0.0507 -1.5636
  737MOL0     H 1681  10.499   9.884   2.342 -0.7641  0.3544 -0.3062
  737MOL0     H 1682  10.381   9.720   2.483  0.6155 -1.6272  0.2575
  737MOL0     H 1683  10.432   9.818   2.629  1.4520  3.8984 -0.7638
  737MOL0     H 1684  10.615   9.682   2.431 -1.6328  3.0125 -1.6343
  737MOL0     H 1685  10.570   9.627   2.597  1.4717 -0.4007  0.9181
  737MOL0     H 1686   9.576   9.691   2.538  1.3818  0.6846  0.1545
  737MOL0     H 1687   9.349   9.713   2.515  1.6337 -2.5899  1.5266
  737MOL0     H 1688   8.900   9.844   2.568 -2.6955 -2.8350  0.2252
  737MOL0     H 1689   8.665   9.829   2.524 -1.3811  0.8239 -0.4734
  737MOL0     H 1690   6.926   8.834   2.015 -0.3804 -0.5599 -0.3690
  737MOL0     H 1691   6.710   8.816   1.929 -1.7939  0.3465  1.1428
  737MOL0     H 1692   6.235   9.090   2.116 -0.1219  1.5523 -1.0325
  737MOL0     H 1693   6.001   9.101   2.038 -0.1626  0.3128 -1.3274
  737MOL0     H 1694   5.875   9.027   1.614 -0.0212 -2.6893 -1.4508
  737MOL0     H 1695   5.851   8.879   1.676  2.9872  1.7539 -2.1957
  737MOL0     H 1696   5.667   9.127   1.685 -0.1881  0.5266  2.3914
  737MOL0     H 1697   5.657   9.012   1.816 -1.5584 -1.4972  0.2296
  737MOL0     H 1698   5.668   8.917   1.530 -0.2494  1.9962  0.5421
  737MOL0     H 1699   5.601   8.835   1.684  2.7989  0.8267  2.1034
  737MOL0     H 1700   5.499   9.086   1.544  2.2976  0.1375  0.6781
  737MOL0     H 1701   5.425   9.025   1.687  0.0745  1.9651 -0.6935
  737MOL0     H 1702   5.273   8.761   1.397  1.6813 -1.6418  1.9356
  737MOL0     H 1703   6.113   8.906   1.675  0.8617  1.7810 -0.4508
  737MOL0     H 1704   6.424   8.793   1.780 -1.9467 -1.6485  1.6501
  737MOL0     H 1705   6.294   8.787   1.676 -2.0886  3.0837  0.6283
  737MOL0     H 1706   6.399   8.927   1.653 -3.5713  2.1962  0.0182
  738MOL0     O 1707   0.438   1.123   8.565  0.7970 -0.6631  0.2975
  738MOL0     C 1708   0.379   1.180   8.476  0.3311  0.2682  0.5988
  738MOL0     O 1709   0.428   1.204   8.354  0.1712  0.2171  0.4953
  738MOL0     C 1710   0.550   1.138   8.322 -0.2220 -0.0956 -0.3480
  738MOL0     C 1711   0.544   1.002   8.277 -0.4306 -0.4636 -0.3580
  738MOL0     C 1712   0.658   0.934   8.236  0.6902  0.1126 -0.4729
  738MOL0     C 1713   0.789   0.998   8.231  0.5213 -0.5453 -0.9032
  738MOL0     O 1714   0.907   0.946   8.194  0.5513  0.3328  0.1603
  738MOL0     C 1715   0.924   0.813   8.240  0.9576 -0.0090 -0.3560
  738MOL0     C 1716   1.052   0.747   8.195  0.8581  0.3682  0.1083
  738MOL0     C 1717   1.175   0.837   8.192 -0.4002 -0.1046  0.1314
  738MOL0     C 1718   1.304   0.753   8.188  1.2184 -0.2011  0.7846
  738MOL0     C 1719   1.427   0.856   8.189  1.0403  0.0187 -0.3206
  738MOL0     C 1720   1.551   0.762   8.190  0.8474  0.4017  0.3764
  738MOL0     C 1721   1.684   0.844   8.207  0.0675 -1.0575  0.7974
  738MOL0     C 1722   1.805   0.761   8.173  0.7015 -0.6028  0.9578
  738MOL0     N 1723   1.939   0.836   8.166  0.9719  0.3583  0.6256
  738MOL0     C 1724   2.021   0.848   8.276 -0.0619 -0.4144 -1.0823
  738MOL0     C 1725   2.129   0.917   8.233 -0.4201  0.0967 -0.3607
  738MOL0     C 1726   2.253   0.943   8.319 -0.2003 -0.2338  0.4565
  738MOL0     C 1727   2.378   0.884   8.244  0.3190  0.2400 -0.0409
  738MOL0     C 1728   2.378   0.732   8.240 -0.1060  0.1725  0.0262
  738MOL0     C 1729   2.495   0.676   8.174  0.1951  0.8133 -0.5542
  738MOL0     O 1730   2.611   0.707   8.255 -0.6463 -0.7686 -0.5884
  738MOL0     C 1731   2.723   0.632   8.220  0.1687 -0.0505 -0.5991
  738MOL0     C 1732   2.739   0.498   8.258  0.2690  0.2882 -0.3685
  738MOL0     C 1733   2.851   0.415   8.220  0.5752  0.6664  0.8767
  738MOL0     C 1734   2.865   0.272   8.273  0.4239  0.7124  0.2317
  738MOL0     C 1735   2.945   0.474   8.139 -0.3911  0.2671  0.1886
  738MOL0     C 1736   3.061   0.402   8.088 -0.7215  1.0433  0.0702
  738MOL0     O 1737   3.054   0.328   7.965 -0.1818  0.1300 -0.3753
  738MOL0     C 1738   3.174   0.264   7.932 -0.0154 -1.2687 -0.3236
  738MOL0     C 1739   3.226   0.146   8.003  0.2495 -0.2691  0.1409
  738MOL0     C 1740   3.359   0.109   7.972  0.5788  0.6832  0.3164
  738MOL0     C 1741   3.432   0.176   7.876  0.6806  0.0296 -0.6811
  738MOL0     O 1742   3.562   0.153   7.840  0.0900 -0.3182  0.1594
  738MOL0     C 1743   3.648   0.085   7.933  0.5721 -0.2471 -0.1569
  738MOL0     C 1744   3.781   0.057   7.857 -1.2306 -0.1827 -0.3011
  738MOL0     C 1745   3.886   0.003   7.959  0.5485  0.2422  0.3438
  738MOL0     C 1746   3.842  -0.131   8.015 -0.0311  0.1410 -0.1946
  738MOL0     C 1747   3.954  -0.194   8.083  0.4138 -0.3236 -0.3530
  738MOL0     C 1748   3.935  -0.340   8.128  0.6859 -0.2872 -0.4437
  738MOL0     C 1749   4.057  -0.390   8.199  0.2003 -1.2333  0.8643
  738MOL0     C 1750   4.036  -0.538   8.231 -0.8549 -0.0269 -0.3905
  738MOL0    Cl 1751   3.935  -0.581   8.373  0.2354  0.2818 -0.0792
  738MOL0     C 1752   3.384   0.288   7.814 -0.0034  0.2505  0.2752
  738MOL0     C 1753   3.255   0.332   7.842 -0.1301  0.2897 -0.5174
  738MOL0     O 1754   3.162   0.403   8.167  0.1515 -0.6982  0.3572
  738MOL0     C 1755   2.933   0.613   8.102 -0.3632  0.7704 -0.0110
  738MOL0     C 1756   2.824   0.688   8.145  0.4413  0.5819  0.8893
  738MOL0     N 1757   2.120   0.927   8.095  0.1324 -0.3387 -0.8580
  738MOL0     N 1758   2.004   0.882   8.055 -0.3283 -0.5402 -0.6981
  738MOL0     C 1759   0.791   1.131   8.264 -0.0413  0.0034 -0.4126
  738MOL0     C 1760   0.678   1.196   8.306  0.9449 -0.2657 -0.2371
  738MOL0     C 1761   0.235   1.221   8.500 -0.5787  0.4602  0.1202
  738MOL0     C 1762   0.145   1.217   8.393 -0.7456  0.5759 -0.2237
  738MOL0     C 1763   0.017   1.259   8.403  0.4005 -0.1806 -0.1111
  738MOL0     C 1764  -0.029   1.299   8.533  0.3140  0.5554  0.2580
  738MOL0     O 1765  -0.160   1.336   8.555 -0.5148  0.9987 -0.1088
  738MOL0     C 1766  -0.255   1.304   8.453 -0.1280 -0.4897  0.1498
  738MOL0     C 1767  -0.400   1.333   8.503  0.1376  0.7239 -0.3923
  738MOL0     C 1768  -0.503   1.296   8.405 -0.1425  0.2361  0.5569
  738MOL0     C 1769  -0.641   1.349   8.450 -0.3397  0.8504  0.2462
  738MOL0     C 1770  -0.682   1.261   8.554  1.2020  0.4189 -0.1284
  738MOL0     C 1771  -0.723   1.195   8.649 -0.0402  0.6411 -0.0450
  738MOL0     C 1772   0.065   1.305   8.641  0.1359  0.4640  0.6682
  738MOL0     C 1773   0.198   1.275   8.628  0.5658  0.0899  0.2015
  738MOL0     C 1774   0.284   1.303   8.751  0.2412  0.2921  0.1899
  738MOL0     H 1775   0.444   0.960   8.271 -1.8549  2.6817 -0.6698
  738MOL0     H 1776   0.653   0.832   8.201 -2.1110  0.4166 -1.1883
  738MOL0     H 1777   0.841   0.750   8.205  1.3475 -0.4479 -0.5096
  738MOL0     H 1778   0.919   0.806   8.349  1.3051  0.9016 -0.2782
  738MOL0     H 1779   1.065   0.655   8.253 -0.3048  1.1219  1.6392
  738MOL0     H 1780   1.039   0.715   8.092 -0.2163  1.1707 -0.0242
  738MOL0     H 1781   1.158   0.899   8.103 -0.5619 -1.6301 -0.9452
  738MOL0     H 1782   1.168   0.905   8.277 -2.9367  0.5102 -0.4847
  738MOL0     H 1783   1.296   0.682   8.270 -1.1828 -1.2468 -0.2587
  738MOL0     H 1784   1.294   0.705   8.090  2.8481 -1.5112  1.2255
  738MOL0     H 1785   1.432   0.917   8.280  0.8163 -1.0460  0.4319
  738MOL0     H 1786   1.419   0.915   8.098 -2.6484  0.0736 -0.1283
  738MOL0     H 1787   1.536   0.680   8.261 -0.9561 -1.6995 -2.2268
  738MOL0     H 1788   1.556   0.708   8.095 -0.2523 -0.1066  0.5911
  738MOL0     H 1789   1.688   0.884   8.309  0.7818 -1.1831  0.8239
  738MOL0     H 1790   1.686   0.925   8.134  3.1179 -1.6625  0.0807
  738MOL0     H 1791   1.803   0.678   8.244 -3.3202 -0.3970  1.3187
  738MOL0     H 1792   1.795   0.730   8.069  1.6912  2.3595 -0.0967
  738MOL0     H 1793   1.994   0.815   8.376 -1.7003  2.9029 -0.2941
  738MOL0     H 1794   2.234   0.895   8.416  0.6320 -0.7619  0.3653
  738MOL0     H 1795   2.262   1.050   8.342  0.0621 -0.0643 -0.4013
  738MOL0     H 1796   2.372   0.926   8.143 -1.2045  0.2524  0.0310
  738MOL0     H 1797   2.469   0.923   8.290 -0.0424  2.3144 -0.9972
  738MOL0     H 1798   2.375   0.679   8.336 -1.5082 -1.8410 -1.0468
  738MOL0     H 1799   2.299   0.702   8.170  1.2471  0.0148 -1.4792
  738MOL0     H 1800   2.493   0.567   8.167  2.5567  0.4829  2.1496
  738MOL0     H 1801   2.515   0.722   8.076  2.3036  1.5086  0.1568
  738MOL0     H 1802   2.662   0.459   8.324  0.3760  2.9766  1.4894
  738MOL0     H 1803   2.907   0.214   8.191 -1.4424 -1.1570  0.5082
  738MOL0     H 1804   2.766   0.226   8.280  0.3363  0.3209 -2.5526
  738MOL0     H 1805   2.923   0.258   8.365 -0.3025  0.0357  0.6022
  738MOL0     H 1806   3.179   0.089   8.082  0.7834 -1.5548 -0.4497
  738MOL0     H 1807   3.405   0.032   8.034  1.8213  1.9359  1.0069
  738MOL0     H 1808   3.659   0.148   8.021  1.8843 -0.8910  0.1628
  738MOL0     H 1809   3.613  -0.011   7.972  0.0139  0.5788  1.4778
  738MOL0     H 1810   3.760  -0.013   7.776 -1.2450 -0.2345 -0.2521
  738MOL0     H 1811   3.804   0.158   7.821 -3.1014  0.9238  1.3676
  738MOL0     H 1812   3.904   0.074   8.040 -0.1787  4.4219 -2.8338
  738MOL0     H 1813   3.987  -0.008   7.919  0.6104 -1.1463  0.8248
  738MOL0     H 1814   3.799  -0.190   7.933 -4.7511  3.8585 -0.8573
  738MOL0     H 1815   3.763  -0.135   8.091  2.7904 -0.8397  2.9016
  738MOL0     H 1816   4.047  -0.202   8.025 -0.5741 -3.7331 -1.6997
  738MOL0     H 1817   3.978  -0.137   8.173  1.5714  0.1802 -0.9574
  738MOL0     H 1818   3.912  -0.408   8.046  0.5568  0.3298 -0.9269
  738MOL0     H 1819   3.848  -0.345   8.194  1.6826 -0.1022  0.9331
  738MOL0     H 1820   4.076  -0.342   8.295 -1.5597 -1.4354  1.3570
  738MOL0     H 1821   4.138  -0.384   8.126  1.8279 -0.0537  2.6425
  738MOL0     H 1822   4.132  -0.590   8.243 -1.0414 -0.1158  0.8011
  738MOL0     H 1823   3.987  -0.589   8.147 -2.9197 -1.5285  1.5856
  738MOL0     H 1824   3.447   0.353   7.752 -1.4627  2.6952  1.2104
  738MOL0     H 1825   3.204   0.422   7.810 -2.1240  1.2134  4.3292
  738MOL0     H 1826   3.013   0.659   8.046 -0.3263  1.3879  0.5473
  738MOL0     H 1827   2.815   0.796   8.134 -1.4307  0.3588 -0.2757
  738MOL0     H 1828   0.883   1.182   8.240 -0.7880  1.3511 -0.5215
  738MOL0     H 1829   0.690   1.304   8.315 -0.3985 -0.1929  1.1675
  738MOL0     H 1830   0.180   1.174   8.300 -3.3068 -1.1065 -0.5401
  738MOL0     H 1831  -0.052   1.246   8.321 -1.1186 -0.2230  1.1272
  738MOL0     H 1832  -0.230   1.360   8.363 -0.7331  0.3224  0.4854
  738MOL0     H 1833  -0.243   1.196   8.438  0.8259 -0.4984  0.8729
  738MOL0     H 1834  -0.403   1.441   8.517  3.3497  0.6040  2.6799
  738MOL0     H 1835  -0.417   1.290   8.602  0.6026  0.5634 -0.3820
  738MOL0     H 1836  -0.470   1.339   8.309 -1.5351  0.6183  0.2296
  738MOL0     H 1837  -0.494   1.188   8.391  0.3695  0.4184 -0.7338
  738MOL0     H 1838  -0.700   1.345   8.359 -1.3334 -0.8640  0.9207
  738MOL0     H 1839  -0.642   1.451   8.491 -1.4626  1.6500 -1.6313
  738MOL0     H 1840  -0.748   1.127   8.728  3.6720 -1.4825 -0.4810
  738MOL0     H 1841   0.025   1.343   8.734 -0.5396  0.8711  0.2252
  738MOL0     H 1842   0.341   1.211   8.768  0.1041  0.0394 -0.6678
  738MOL0     H 1843   0.366   1.370   8.724 -0.6152  0.6836 -1.6042
  738MOL0     H 1844   0.219   1.335   8.833  0.3527  3.0837 -0.7388
  739MOL0     O 1845   1.822   1.265   1.987  0.5007  0.2940 -0.8247
  739MOL0     C 1846   1.714   1.296   2.043  0.2774 -0.3698  0.1373
  739MOL0     O 1847   1.679   1.256   2.172  0.5944  0.5311 -0.1264
  739MOL0     C 1848   1.763   1.170   2.235  0.6689 -0.7904  0.0289
  739MOL0     C 1849   1.711   1.065   2.303  0.3241  0.6649  0.7583
  739MOL0     C 1850   1.789   0.989   2.384 -0.6915  0.0599  1.2908
  739MOL0     C 1851   1.925   1.011   2.399 -0.7297 -0.2119 -0.4213
  739MOL0     O 1852   1.992   0.938   2.480  0.4166  0.2424  0.1327
  739MOL0     C 1853   1.947   0.804   2.524  0.5920  0.0170  0.1855
  739MOL0     C 1854   2.055   0.723   2.599 -0.7050 -0.0916 -0.5499
  739MOL0     C 1855   2.121   0.808   2.705  0.1046  0.9812 -0.0622
  739MOL0     C 1856   2.222   0.735   2.784  0.6099  0.4371  0.5745
  739MOL0     C 1857   2.283   0.826   2.891 -0.5071 -1.3299 -0.0399
  739MOL0     C 1858   2.373   0.749   2.983  0.3217  0.1962  0.2250
  739MOL0     C 1859   2.459   0.838   3.070  0.1795 -0.0698  0.7595
  739MOL0     C 1860   2.582   0.901   3.009  0.5405  0.1145  0.3805
  739MOL0     N 1861   2.675   0.944   3.112  0.2255  0.1598  0.5894
  739MOL0     C 1862   2.645   1.038   3.209  0.4127 -0.5704 -0.0446
  739MOL0     C 1863   2.735   1.015   3.304 -0.4627 -0.1976  0.1335
  739MOL0     C 1864   2.749   1.115   3.412 -0.5376 -0.0760 -0.0605
  739MOL0     C 1865   2.894   1.164   3.432  0.4850  0.5275  0.3048
  739MOL0     C 1866   2.905   1.301   3.504  0.4549 -0.1669  0.2833
  739MOL0     C 1867   3.051   1.331   3.532 -0.6977 -1.0343  0.8172
  739MOL0     O 1868   3.050   1.473   3.567 -0.3377  0.3731 -0.4911
  739MOL0     C 1869   3.166   1.536   3.596  0.1686  0.6415 -0.5424
  739MOL0     C 1870   3.159   1.670   3.627  0.5280 -0.0776  0.9553
  739MOL0     C 1871   3.272   1.740   3.664  0.7342  0.4227  0.4206
  739MOL0     C 1872   3.258   1.887   3.709 -0.5345 -0.5880 -0.0966
  739MOL0     C 1873   3.400   1.676   3.655  0.4905 -0.5390  0.4093
  739MOL0     C 1874   3.525   1.741   3.684  0.5906  0.3562 -0.0743
  739MOL0     O 1875   3.619   1.669   3.755 -0.1451  0.2825 -0.2880
  739MOL0     C 1876   3.741   1.732   3.770 -0.5306  0.0487 -0.8994
  739MOL0     C 1877   3.858   1.651   3.767  0.2703 -0.6262  0.0109
  739MOL0     C 1878   3.989   1.696   3.794  0.2260  0.2865 -0.3931
  739MOL0     C 1879   4.006   1.819   3.848 -0.1379 -0.7221  0.6274
  739MOL0     O 1880   4.134   1.843   3.891 -0.3596 -0.3343  0.1121
  739MOL0     C 1881   4.145   1.959   3.980  0.0007  0.3098  0.7411
  739MOL0     C 1882   4.298   1.970   4.004  0.2513  0.3687  0.5650
  739MOL0     C 1883   4.381   2.026   3.885 -0.2178  0.2572  0.2924
  739MOL0     C 1884   4.531   2.036   3.933 -0.7198 -0.0488  0.4243
  739MOL0     C 1885   4.631   2.125   3.851  0.0687  0.6301 -0.4101
  739MOL0     C 1886   4.614   2.281   3.852  0.0739  0.3302  0.2390
  739MOL0     C 1887   4.709   2.344   3.744 -0.0989  1.0057  0.5430
  739MOL0     C 1888   4.676   2.494   3.735  0.5079 -0.4834 -0.2436
  739MOL0    Cl 1889   4.754   2.579   3.601 -0.2706 -0.0756  0.1284
  739MOL0     C 1890   3.898   1.906   3.856  0.3117 -0.1305 -0.0302
  739MOL0     C 1891   3.766   1.865   3.812  0.3164 -0.7269  0.2657
  739MOL0     O 1892   3.540   1.853   3.639  0.4035 -0.7193  1.0219
  739MOL0     C 1893   3.405   1.546   3.625 -0.6384  0.2319 -0.3746
  739MOL0     C 1894   3.296   1.478   3.592 -0.0186  0.8245  0.6391
  739MOL0     N 1895   2.818   0.905   3.281  0.0343 -0.0105  0.0958
  739MOL0     N 1896   2.772   0.863   3.166  0.3567  0.3300  0.0384
  739MOL0     C 1897   1.985   1.121   2.326 -0.0199  0.6919  0.6490
  739MOL0     C 1898   1.906   1.197   2.243 -0.8012 -0.7126 -0.0258
  739MOL0     C 1899   1.628   1.393   1.972  0.9203  0.2843 -0.0233
  739MOL0     C 1900   1.543   1.467   2.054 -0.6230 -0.2768 -0.1012
  739MOL0     C 1901   1.458   1.564   1.996  0.3707 -0.2237  0.0263
  739MOL0     C 1902   1.442   1.581   1.858 -0.5077 -0.6901 -0.3007
  739MOL0     O 1903   1.355   1.666   1.804 -0.4049  0.2103  0.2303
  739MOL0     C 1904   1.221   1.631   1.840  0.2260 -1.0959 -0.1927
  739MOL0     C 1905   1.134   1.760   1.899 -0.3616  0.4124  0.3746
  739MOL0     C 1906   1.115   1.742   2.050 -0.3538  0.7095 -0.0425
  739MOL0     C 1907   1.014   1.851   2.098 -0.7214  0.2842  0.1673
  739MOL0     C 1908   0.880   1.794   2.101  0.4794 -0.3976 -0.3844
  739MOL0     C 1909   0.763   1.768   2.103  0.3820 -0.1722  0.1920
  739MOL0     C 1910   1.511   1.495   1.779 -0.7205  0.8385  0.4077
  739MOL0     C 1911   1.598   1.391   1.829 -0.7769 -0.2555  0.0723
  739MOL0     C 1912   1.651   1.275   1.743 -0.3610 -0.8311  0.0692
  739MOL0     H 1913   1.604   1.054   2.292  0.7182 -1.5528 -2.0103
  739MOL0     H 1914   1.739   0.913   2.441 -0.4333  0.4967  2.1204
  739MOL0     H 1915   1.924   0.742   2.436 -2.0914 -0.9840  1.4840
  739MOL0     H 1916   1.864   0.818   2.593 -0.6088  1.3401 -1.4436
  739MOL0     H 1917   2.021   0.629   2.643  0.5973  0.5567  2.0188
  739MOL0     H 1918   2.133   0.692   2.529 -0.3358  0.0268 -0.1924
  739MOL0     H 1919   2.176   0.890   2.658  1.4660 -0.5665 -1.2533
  739MOL0     H 1920   2.038   0.847   2.765 -0.1277  0.1604  0.1653
  739MOL0     H 1921   2.182   0.654   2.845  1.7906 -0.2456  0.4734
  739MOL0     H 1922   2.297   0.693   2.716 -0.2769  0.3863 -0.3964
  739MOL0     H 1923   2.204   0.865   2.956  0.6756 -0.3731  0.8664
  739MOL0     H 1924   2.332   0.910   2.841 -1.8604 -0.5370 -0.0927
  739MOL0     H 1925   2.300   0.693   3.042 -0.0718 -0.9128 -1.2592
  739MOL0     H 1926   2.436   0.675   2.932  1.8770  2.6230 -1.5792
  739MOL0     H 1927   2.490   0.786   3.161 -2.4758  0.1751  1.9039
  739MOL0     H 1928   2.389   0.915   3.105 -3.0241 -0.8536 -3.1734
  739MOL0     H 1929   2.628   0.832   2.938 -0.9174 -0.8774  0.3530
  739MOL0     H 1930   2.533   0.983   2.956  0.6717  0.4136  0.7164
  739MOL0     H 1931   2.586   1.128   3.193  1.0433 -0.2159 -0.4231
  739MOL0     H 1932   2.724   1.050   3.496  0.8489  1.3513  1.5393
  739MOL0     H 1933   2.677   1.194   3.388 -1.2363 -0.8053 -0.4155
  739MOL0     H 1934   2.953   1.087   3.483 -0.5903 -1.6753 -1.6166
  739MOL0     H 1935   2.937   1.180   3.333  0.9115  0.9093  0.5444
  739MOL0     H 1936   2.864   1.383   3.445  0.2864  2.0438  3.1882
  739MOL0     H 1937   2.849   1.288   3.597 -0.6221  1.6469 -0.0582
  739MOL0     H 1938   3.098   1.274   3.614  1.4874 -2.4443 -1.2853
  739MOL0     H 1939   3.106   1.307   3.441 -0.8799  0.5893  0.2570
  739MOL0     H 1940   3.064   1.723   3.626  0.1964 -0.5407 -1.9794
  739MOL0     H 1941   3.321   1.922   3.791 -1.3067  3.5324 -1.0475
  739MOL0     H 1942   3.157   1.916   3.739 -0.6632  0.7788 -1.6744
  739MOL0     H 1943   3.286   1.945   3.620 -1.0506 -3.7812 -2.5490
  739MOL0     H 1944   3.842   1.545   3.747 -0.1902 -0.4438 -0.6327
  739MOL0     H 1945   4.074   1.629   3.786 -0.0055 -0.1485  0.6686
  739MOL0     H 1946   4.117   2.055   3.936  2.5023 -0.7452 -3.7374
  739MOL0     H 1947   4.083   1.947   4.070 -1.4312 -0.4135 -0.3102
  739MOL0     H 1948   4.308   2.030   4.095  1.5339 -1.5045  1.7220
  739MOL0     H 1949   4.339   1.874   4.035 -2.4495 -0.1181  3.0766
  739MOL0     H 1950   4.340   2.124   3.857  1.8604  0.6746 -1.5480
  739MOL0     H 1951   4.381   1.960   3.797 -1.3461 -0.3793  0.7509
  739MOL0     H 1952   4.571   1.937   3.908  0.5543  0.5227  0.0671
  739MOL0     H 1953   4.541   2.043   4.041  1.2623 -2.0661  0.4437
  739MOL0     H 1954   4.732   2.111   3.890 -0.7664 -0.6251  1.4806
  739MOL0     H 1955   4.626   2.081   3.751  1.4939  2.1190 -1.1780
  739MOL0     H 1956   4.645   2.332   3.944  0.1816  0.5359  0.0886
  739MOL0     H 1957   4.510   2.313   3.843  0.4327  1.1593 -1.2880
  739MOL0     H 1958   4.700   2.289   3.650  0.3917  1.3727  0.2766
  739MOL0     H 1959   4.813   2.348   3.779 -0.1744 -1.0367  1.1268
  739MOL0     H 1960   4.709   2.541   3.828  0.0866 -0.4827 -0.0948
  739MOL0     H 1961   4.568   2.509   3.729  0.4040  0.4285  2.5734
  739MOL0     H 1962   3.906   2.005   3.901  1.5346  0.0188 -0.5433
  739MOL0     H 1963   3.682   1.933   3.817  1.2552  0.4528  0.4296
  739MOL0     H 1964   3.503   1.500   3.622 -0.4081  0.7354 -0.7746
  739MOL0     H 1965   3.304   1.372   3.567  0.1226  0.6024  1.5835
  739MOL0     H 1966   2.084   1.164   2.337 -0.4636  2.1371 -0.6676
  739MOL0     H 1967   1.949   1.287   2.201 -2.0705 -0.9201 -1.8988
  739MOL0     H 1968   1.541   1.464   2.162 -5.0967  0.5639  0.0184
  739MOL0     H 1969   1.401   1.627   2.063 -1.4398 -2.6573  0.9514
  739MOL0     H 1970   1.176   1.604   1.744 -0.5213 -1.6381  0.2975
  739MOL0     H 1971   1.210   1.542   1.903 -0.7762 -1.1167 -0.3860
  739MOL0     H 1972   1.039   1.764   1.846 -2.1418  2.3333  3.3837
  739MOL0     H 1973   1.195   1.846   1.870  1.3999 -0.5144  1.1618
  739MOL0     H 1974   1.078   1.642   2.076 -1.3317  1.7456  3.0977
  739MOL0     H 1975   1.210   1.751   2.102  1.0224 -1.1862 -2.0608
  739MOL0     H 1976   1.005   1.936   2.030  0.0873  1.2454  1.2104
  739MOL0     H 1977   1.043   1.882   2.199 -1.6527  0.7905  0.2896
  739MOL0     H 1978   0.662   1.756   2.136  0.1510  1.2185  0.0691
  739MOL0     H 1979   1.501   1.497   1.671  3.5846 -0.4202 -0.2048
  739MOL0     H 1980   1.622   1.277   1.637  0.5484 -1.3145 -0.2010
  739MOL0     H 1981   1.760   1.285   1.736 -0.5101 -0.0283 -1.8490
  739MOL0     H 1982   1.636   1.177   1.789  0.3799 -1.9152 -1.8636
  740MOL0     O 1983   3.737   7.997   5.943  0.6764 -0.2872 -0.3857
  740MOL0     C 1984   3.732   8.115   5.989  0.3446  0.5096  0.3666
  740MOL0     O 1985   3.633   8.159   6.061 -0.1233 -0.5273 -0.7517
  740MOL0     C 1986   3.569   8.064   6.131 -0.2919  0.3148  0.1867
  740MOL0     C 1987   3.427   8.074   6.114 -0.6091  0.2393 -0.4706
  740MOL0     C 1988   3.353   7.993   6.199 -0.1764 -0.2858 -0.1818
  740MOL0     C 1989   3.404   7.909   6.297 -0.4568 -0.1549 -0.0816
  740MOL0     O 1990   3.308   7.841   6.374 -0.2535 -0.0815 -0.4808
  740MOL0     C 1991   3.338   7.789   6.505 -0.2965  0.2116  0.2003
  740MOL0     C 1992   3.222   7.710   6.556  0.4463  0.6866  0.5479
  740MOL0     C 1993   3.079   7.765   6.544 -0.1533  0.6055 -0.2009
  740MOL0     C 1994   2.972   7.658   6.538  0.4032  0.2527  0.0787
  740MOL0     C 1995   2.831   7.722   6.538 -0.2075 -0.5260 -0.6167
  740MOL0     C 1996   2.737   7.601   6.512 -0.1453 -0.3589 -0.5861
  740MOL0     C 1997   2.594   7.647   6.499  0.2586 -0.1800  0.1294
  740MOL0     C 1998   2.497   7.591   6.604  0.3755 -0.8640 -0.1734
  740MOL0     N 1999   2.516   7.654   6.732  0.3177 -0.0382  0.0333
  740MOL0     C 2000   2.620   7.636   6.814 -0.1319 -0.6691  0.0108
  740MOL0     C 2001   2.599   7.716   6.918  0.0312  0.1826 -0.8283
  740MOL0     C 2002   2.674   7.722   7.049  0.1292 -0.8693  0.3641
  740MOL0     C 2003   2.823   7.677   7.022  0.9049  0.2454  0.8197
  740MOL0     C 2004   2.903   7.783   6.956 -0.2575 -0.2355  0.6924
  740MOL0     C 2005   3.044   7.733   6.926  0.8587 -0.2845  0.7965
  740MOL0     O 2006   3.105   7.708   7.048  0.2896  0.2606 -0.0525
  740MOL0     C 2007   3.240   7.714   7.045 -0.3854 -1.3100 -1.0048
  740MOL0     C 2008   3.309   7.838   7.041 -0.1001 -0.8922  0.5437
  740MOL0     C 2009   3.444   7.854   7.032 -0.6386  0.0759  1.4513
  740MOL0     C 2010   3.495   7.992   7.004 -0.1787  0.7559  0.2757
  740MOL0     C 2011   3.526   7.732   7.032 -0.0825 -0.6930 -0.0711
  740MOL0     C 2012   3.679   7.743   7.018  0.1148 -0.5723 -0.6925
  740MOL0     O 2013   3.743   7.627   6.989 -0.4033 -0.0826 -0.3947
  740MOL0     C 2014   3.875   7.650   6.933  0.0713  0.3469 -0.2794
  740MOL0     C 2015   3.987   7.686   7.010 -0.0466 -0.4425 -0.8176
  740MOL0     C 2016   4.117   7.684   6.960  0.0954  0.1876 -0.2559
  740MOL0     C 2017   4.138   7.654   6.824 -1.2136 -0.5798  0.3111
  740MOL0     O 2018   4.267   7.626   6.778 -0.5947  0.3595  0.0951
  740MOL0     C 2019   4.372   7.712   6.823 -0.0035  0.5196 -1.1770
  740MOL0     C 2020   4.500   7.651   6.785  0.5069  0.0881 -0.3570
  740MOL0     C 2021   4.627   7.742   6.791  0.1561  0.2764 -0.1743
  740MOL0     C 2022   4.753   7.651   6.792 -0.3906 -0.1118  0.3859
  740MOL0     C 2023   4.877   7.734   6.767  0.2105  1.0732  1.0740
  740MOL0     C 2024   4.960   7.754   6.891 -0.8517 -0.2544 -0.3624
  740MOL0     C 2025   5.068   7.862   6.857  0.2931  0.3294  0.4315
  740MOL0     C 2026   5.151   7.910   6.974 -0.1497 -0.0896  0.1869
  740MOL0    Cl 2027   5.198   8.076   6.953  0.4806 -0.0913  0.0784
  740MOL0     C 2028   4.022   7.636   6.744  0.3224  0.3237  0.4016
  740MOL0     C 2029   3.896   7.631   6.797  0.6774 -0.0005 -0.1273
  740MOL0     O 2030   3.736   7.849   7.061  0.1685 -0.0349  0.1306
  740MOL0     C 2031   3.454   7.606   7.038  0.1689 -0.4012 -0.2858
  740MOL0     C 2032   3.318   7.596   7.048 -0.0631 -0.3518 -0.0435
  740MOL0     N 2033   2.489   7.793   6.889  0.4393 -0.9561 -0.0384
  740MOL0     N 2034   2.438   7.750   6.786  0.0951  0.2724  0.2399
  740MOL0     C 2035   3.542   7.898   6.312  0.3689 -0.1801 -0.2689
  740MOL0     C 2036   3.619   7.976   6.233  0.6729  0.4194 -0.2209
  740MOL0     C 2037   3.835   8.207   5.940  0.1834 -0.1096  0.1694
  740MOL0     C 2038   3.802   8.338   5.913  0.2102 -0.3566 -0.8680
  740MOL0     C 2039   3.898   8.429   5.860  0.2570 -0.4435 -0.0389
  740MOL0     C 2040   4.029   8.391   5.837 -0.6467  0.0600  0.0273
  740MOL0     O 2041   4.128   8.462   5.776 -0.4648 -0.2864  0.3147
  740MOL0     C 2042   4.100   8.590   5.720 -0.1051 -0.0635  0.5299
  740MOL0     C 2043   4.179   8.697   5.792 -0.5357  0.4097  0.4111
  740MOL0     C 2044   4.108   8.746   5.914 -0.1358 -0.0539  0.3782
  740MOL0     C 2045   4.155   8.672   6.044  0.0230  0.6850  0.3958
  740MOL0     C 2046   4.286   8.715   6.080 -0.6404 -0.1216 -0.5508
  740MOL0     C 2047   4.401   8.738   6.103  1.0423  0.3628  0.3058
  740MOL0     C 2048   4.065   8.260   5.873  0.2490  0.3460 -0.0078
  740MOL0     C 2049   3.970   8.164   5.922 -0.1940 -0.4519  0.1853
  740MOL0     C 2050   4.019   8.028   5.962 -0.0422 -0.4030 -0.2542
  740MOL0     H 2051   3.381   8.139   6.041  0.2066 -0.8707 -2.0524
  740MOL0     H 2052   3.244   7.995   6.198 -0.1768  1.1730  0.2309
  740MOL0     H 2053   3.352   7.872   6.574  1.7761  0.0115  0.0789
  740MOL0     H 2054   3.431   7.731   6.506  1.8181  3.3147  2.2262
  740MOL0     H 2055   3.216   7.618   6.497  0.9967  1.8273 -1.3656
  740MOL0     H 2056   3.239   7.689   6.662 -2.8323  1.2686  1.3043
  740MOL0     H 2057   3.055   7.830   6.629 -3.1926 -0.0101 -0.4568
  740MOL0     H 2058   3.060   7.842   6.469 -0.0512 -0.3456 -1.2262
  740MOL0     H 2059   2.982   7.587   6.456  0.1364  0.1222  0.1590
  740MOL0     H 2060   2.985   7.598   6.629 -3.0189 -0.2115  0.3929
  740MOL0     H 2061   2.820   7.789   6.453  4.1608  1.6253  0.2631
  740MOL0     H 2062   2.801   7.771   6.631 -3.2915  2.5459 -2.9496
  740MOL0     H 2063   2.759   7.542   6.423 -2.6275 -2.5442  0.1333
  740MOL0     H 2064   2.750   7.529   6.593  1.8787 -1.6052 -1.9184
  740MOL0     H 2065   2.555   7.629   6.398  0.0476 -0.7619  0.3092
  740MOL0     H 2066   2.598   7.756   6.506  0.7939 -0.0591 -1.5647
  740MOL0     H 2067   2.395   7.611   6.572  1.2149  1.7028 -1.5530
  740MOL0     H 2068   2.506   7.482   6.606  1.8068 -0.8141 -1.5489
  740MOL0     H 2069   2.703   7.569   6.792  2.7679  2.7213 -0.3680
  740MOL0     H 2070   2.628   7.653   7.121  0.9654 -0.8286  0.9474
  740MOL0     H 2071   2.674   7.824   7.089  0.1257 -1.1195  1.0221
  740MOL0     H 2072   2.863   7.659   7.122 -0.2094  0.3968  1.3087
  740MOL0     H 2073   2.821   7.578   6.976 -2.2604  0.4209  0.3758
  740MOL0     H 2074   2.851   7.811   6.864  0.3823 -0.7615  0.1534
  740MOL0     H 2075   2.917   7.862   7.030 -2.0508  1.5682 -0.7735
  740MOL0     H 2076   3.049   7.636   6.875  0.2871 -0.3431  0.8450
  740MOL0     H 2077   3.101   7.806   6.868 -2.2535  0.9078 -1.0187
  740MOL0     H 2078   3.241   7.923   7.037  2.4686  1.2983 -0.2566
  740MOL0     H 2079   3.569   7.990   6.924 -2.5265  0.3907 -2.0002
  740MOL0     H 2080   3.529   8.049   7.091  2.0232  2.3279 -1.5031
  740MOL0     H 2081   3.412   8.053   6.968 -2.2267 -0.1480  3.1249
  740MOL0     H 2082   3.982   7.713   7.115 -1.8371  1.5222 -1.3456
  740MOL0     H 2083   4.200   7.704   7.027 -0.6110 -3.1277  1.8320
  740MOL0     H 2084   4.368   7.807   6.770  1.5353  2.6282  2.1483
  740MOL0     H 2085   4.378   7.733   6.930 -1.0321  1.2224 -1.2429
  740MOL0     H 2086   4.526   7.565   6.847  1.2880 -0.6950 -1.7200
  740MOL0     H 2087   4.487   7.615   6.683  1.8010 -1.4936 -0.0093
  740MOL0     H 2088   4.621   7.803   6.882 -0.1009 -0.3546  0.2354
  740MOL0     H 2089   4.625   7.811   6.706 -2.6550  2.2904  1.3529
  740MOL0     H 2090   4.738   7.575   6.715 -2.1948  0.2725  0.3140
  740MOL0     H 2091   4.761   7.613   6.894 -0.7474  0.3391  0.5875
  740MOL0     H 2092   4.945   7.672   6.708 -0.5546  0.4353  0.8394
  740MOL0     H 2093   4.866   7.826   6.709 -1.0277  1.2834  1.6207
  740MOL0     H 2094   4.993   7.653   6.919 -1.0371 -0.6076 -1.3878
  740MOL0     H 2095   4.888   7.786   6.968 -0.2531 -0.9374  0.5123
  740MOL0     H 2096   5.013   7.953   6.830  0.0999  0.3274  0.8074
  740MOL0     H 2097   5.130   7.830   6.773  0.5482 -0.0432  0.7573
  740MOL0     H 2098   5.236   7.843   6.991 -0.7653 -0.7782  0.5463
  740MOL0     H 2099   5.094   7.899   7.066  0.1259 -0.4380  0.3173
  740MOL0     H 2100   4.041   7.607   6.642 -0.0824 -1.4566  0.7922
  740MOL0     H 2101   3.817   7.598   6.731  0.3856 -0.9816  0.6887
  740MOL0     H 2102   3.510   7.514   7.038  3.9415  1.6776 -0.3064
  740MOL0     H 2103   3.275   7.497   7.048  0.9044 -0.7882  0.9986
  740MOL0     H 2104   3.589   7.841   6.392  3.2042  1.8848 -0.3216
  740MOL0     H 2105   3.724   7.972   6.258  0.3125 -3.4060  1.2895
  740MOL0     H 2106   3.701   8.369   5.936  0.7979  2.8732 -2.0510
  740MOL0     H 2107   3.854   8.525   5.833 -1.6605  0.1040  4.1539
  740MOL0     H 2108   4.126   8.594   5.614  0.5356  0.2969  0.6984
  740MOL0     H 2109   3.994   8.616   5.729 -0.0813 -0.0893  0.9058
  740MOL0     H 2110   4.180   8.776   5.717  0.1133 -1.3741 -1.5635
  740MOL0     H 2111   4.280   8.660   5.810 -1.0209 -2.2697 -1.6106
  740MOL0     H 2112   4.116   8.854   5.920 -1.6400  0.1535 -0.7948
  740MOL0     H 2113   4.000   8.728   5.913  0.0290 -1.4106  1.6650
  740MOL0     H 2114   4.156   8.565   6.025 -2.1238  0.8355 -0.8459
  740MOL0     H 2115   4.091   8.704   6.127 -0.4931  0.4847  0.0814
  740MOL0     H 2116   4.504   8.754   6.129  1.0781  0.9457 -0.1852
  740MOL0     H 2117   4.159   8.215   5.841 -0.4678 -0.8333 -0.5201
  740MOL0     H 2118   3.989   7.951   5.890  1.9613 -1.0145 -0.4988
  740MOL0     H 2119   4.129   8.033   5.962 -0.0792  1.5328 -1.5208
  740MOL0     H 2120   3.981   8.001   6.061  1.5982  1.3949  0.9489
  741MOL0     O 2121  11.257   6.311   7.954  0.3726  0.8900 -0.0042
  741MOL0     C 2122  11.252   6.292   8.078 -0.1436 -0.5801 -0.0545
  741MOL0     O 2123  11.144   6.226   8.136  0.3863  0.1835 -0.8959
  741MOL0     C 2124  11.045   6.179   8.056 -0.0084  0.2915 -0.2772
  741MOL0     C 2125  10.998   6.047   8.086 -1.1518  0.3439  0.5872
  741MOL0     C 2126  10.902   5.981   8.012 -0.6801 -0.1975  0.1101
  741MOL0     C 2127  10.846   6.047   7.903  0.9310  0.6977 -0.0234
  741MOL0     O 2128  10.740   5.998   7.836  0.2303 -0.7039  0.0142
  741MOL0     C 2129  10.762   5.874   7.774 -0.9029  0.3596 -0.7374
  741MOL0     C 2130  10.684   5.835   7.652  0.5248  1.2239 -0.4761
  741MOL0     C 2131  10.690   5.944   7.539 -0.4476  0.5321  0.0334
  741MOL0     C 2132  10.611   5.915   7.412 -0.1412 -0.0974 -0.1419
  741MOL0     C 2133  10.624   6.040   7.318  0.6516  0.8110  0.2616
  741MOL0     C 2134  10.528   6.018   7.197 -0.3420 -0.0911  0.3405
  741MOL0     C 2135  10.566   6.102   7.072 -0.2158  0.7478  0.3398
  741MOL0     C 2136  10.550   6.251   7.086  0.2837  0.1839  0.0075
  741MOL0     N 2137  10.591   6.314   6.961  0.3680 -0.5976  0.5923
  741MOL0     C 2138  10.548   6.266   6.835 -0.9634  0.3858 -0.6967
  741MOL0     C 2139  10.601   6.359   6.755  0.8208 -0.1154 -0.3936
  741MOL0     C 2140  10.594   6.351   6.605  0.3290  0.5261  0.4079
  741MOL0     C 2141  10.724   6.322   6.539 -0.7567 -0.1781 -0.1060
  741MOL0     C 2142  10.851   6.391   6.591  0.8940  0.3158  0.1394
  741MOL0     C 2143  10.851   6.538   6.557 -0.8259  1.0882 -0.3405
  741MOL0     O 2144  10.983   6.590   6.571  0.0987 -0.1881  0.1390
  741MOL0     C 2145  11.060   6.601   6.687  0.1453 -0.8067  0.6926
  741MOL0     C 2146  11.004   6.591   6.820 -0.2274 -0.0028  1.0156
  741MOL0     C 2147  11.091   6.617   6.930 -0.1164 -0.5650 -0.3556
  741MOL0     C 2148  11.029   6.617   7.073  0.0292  0.1947  0.2815
  741MOL0     C 2149  11.233   6.651   6.905 -0.2900 -0.3420 -0.5697
  741MOL0     C 2150  11.329   6.675   7.011  0.6813 -0.2886 -0.5945
  741MOL0     O 2151  11.433   6.762   6.987  1.4076  0.0487 -0.3906
  741MOL0     C 2152  11.539   6.769   7.073 -0.4225 -0.4695 -0.3538
  741MOL0     C 2153  11.533   6.784   7.210 -0.8787 -0.2994 -0.1002
  741MOL0     C 2154  11.650   6.802   7.284  0.1014 -0.0027 -0.0975
  741MOL0     C 2155  11.775   6.812   7.222  0.5921 -0.2392 -0.3287
  741MOL0     O 2156  11.884   6.824   7.303 -0.0827 -0.7760 -0.7289
  741MOL0     C 2157  11.878   6.923   7.412 -0.1744  0.1366  0.1104
  741MOL0     C 2158  11.876   6.861   7.544  0.0678 -0.1387 -0.1798
  741MOL0     C 2159  11.989   6.756   7.569 -0.1656  0.1317 -0.1488
  741MOL0     C 2160  11.978   6.695   7.708  0.8883 -0.2219  0.1719
  741MOL0     C 2161  12.012   6.796   7.819  0.6918 -0.0279  0.0897
  741MOL0     C 2162  11.990   6.735   7.965 -0.0499  0.0447 -0.4743
  741MOL0     C 2163  11.837   6.724   8.000  0.2104 -0.0422  0.0307
  741MOL0     C 2164  11.762   6.856   7.990 -0.2386  0.0695 -0.2822
  741MOL0    Cl 2165  11.689   6.874   7.830  0.1847  0.1608 -0.1691
  741MOL0     C 2166  11.778   6.774   7.085 -0.3858 -0.1346 -0.4823
  741MOL0     C 2167  11.663   6.759   7.013 -0.4492 -0.5124  1.1453
  741MOL0     O 2168  11.317   6.618   7.118  0.6776 -0.9950 -0.2519
  741MOL0     C 2169  11.280   6.662   6.777  0.1229  0.3669  0.7263
  741MOL0     C 2170  11.198   6.640   6.663 -0.2597  0.6408  0.2203
  741MOL0     N 2171  10.645   6.471   6.831  0.0376  0.7915  0.1450
  741MOL0     N 2172  10.641   6.440   6.953 -0.6196 -0.1947  0.0856
  741MOL0     C 2173  10.893   6.175   7.874  0.4496 -1.2736 -0.8243
  741MOL0     C 2174  10.985   6.237   7.948 -0.5159  0.0764  0.3325
  741MOL0     C 2175  11.373   6.343   8.160 -0.1204  0.0367  0.3700
  741MOL0     C 2176  11.354   6.349   8.297  0.4091  0.7402 -0.1702
  741MOL0     C 2177  11.446   6.404   8.384 -0.7151  0.5686  0.4276
  741MOL0     C 2178  11.568   6.446   8.341  0.1781 -0.1069  0.6773
  741MOL0     O 2179  11.671   6.486   8.422  0.3583 -0.3402 -0.1315
  741MOL0     C 2180  11.636   6.500   8.559  0.4668 -0.0687  0.3120
  741MOL0     C 2181  11.550   6.626   8.583  0.0683 -0.2209 -0.0521
  741MOL0     C 2182  11.638   6.753   8.557 -0.5794 -0.6390  0.2630
  741MOL0     C 2183  11.584   6.893   8.598 -0.5391  0.5955  1.2181
  741MOL0     C 2184  11.601   6.928   8.733  0.2272 -0.1453 -1.5350
  741MOL0     C 2185  11.612   6.949   8.855 -0.2555  0.5195 -0.0380
  741MOL0     C 2186  11.594   6.429   8.206 -0.7731  0.5231  0.2864
  741MOL0     C 2187  11.500   6.389   8.113 -0.4280  0.0371  0.2611
  741MOL0     C 2188  11.536   6.404   7.963 -0.1098 -0.5454  0.1457
  741MOL0     H 2189  11.041   5.991   8.168 -1.4776 -2.2038 -0.8752
  741MOL0     H 2190  10.870   5.882   8.045  0.4025 -0.3150  0.8661
  741MOL0     H 2191  10.741   5.799   7.851 -3.1964  0.8761 -0.7732
  741MOL0     H 2192  10.868   5.871   7.747 -0.8613  1.6958 -0.8018
  741MOL0     H 2193  10.721   5.741   7.611  0.9949  3.4397 -6.0555
  741MOL0     H 2194  10.587   5.824   7.701  0.9826 -1.5059 -0.0112
  741MOL0     H 2195  10.660   6.042   7.578  1.1060  1.1254 -0.1520
  741MOL0     H 2196  10.792   5.970   7.509  1.4716 -5.0899  0.5773
  741MOL0     H 2197  10.641   5.824   7.360 -1.6035 -1.4877  1.3050
  741MOL0     H 2198  10.503   5.901   7.421 -0.4512  2.4862  1.0440
  741MOL0     H 2199  10.728   6.038   7.284  0.8420 -0.7590  0.8583
  741MOL0     H 2200  10.601   6.134   7.369 -3.2683  0.2477 -0.1626
  741MOL0     H 2201  10.534   5.912   7.167  0.8729 -0.0243  0.2859
  741MOL0     H 2202  10.426   6.045   7.226 -0.0181 -0.6058  2.0697
  741MOL0     H 2203  10.511   6.057   6.989  0.9653  1.6832 -0.9908
  741MOL0     H 2204  10.673   6.095   7.049  0.2041  2.8167  1.4523
  741MOL0     H 2205  10.450   6.292   7.102 -0.0952  0.7381 -3.0893
  741MOL0     H 2206  10.612   6.282   7.170 -2.6580  2.1052  1.6391
  741MOL0     H 2207  10.498   6.176   6.799  0.5778 -1.5718  1.6865
  741MOL0     H 2208  10.554   6.444   6.564  1.5819  0.2689 -1.5241
  741MOL0     H 2209  10.517   6.275   6.587 -0.4598  0.7074  2.6953
  741MOL0     H 2210  10.734   6.214   6.553 -0.7945 -0.5299 -2.4755
  741MOL0     H 2211  10.719   6.343   6.432  2.4490  0.7515 -0.1865
  741MOL0     H 2212  10.865   6.369   6.698  1.3075 -1.3094 -0.2201
  741MOL0     H 2213  10.932   6.350   6.530 -0.3059  1.0435 -2.0032
  741MOL0     H 2214  10.809   6.570   6.461  1.7259 -0.0538 -1.9313
  741MOL0     H 2215  10.782   6.596   6.619 -1.3835 -0.2898  0.3896
  741MOL0     H 2216  10.900   6.587   6.850 -0.3230 -1.0299  0.5918
  741MOL0     H 2217  11.069   6.536   7.135  1.0494  0.8721  0.5508
  741MOL0     H 2218  10.921   6.608   7.062  0.1987 -0.1178 -1.4379
  741MOL0     H 2219  11.054   6.713   7.120 -1.9672  1.1202 -0.4571
  741MOL0     H 2220  11.437   6.787   7.260 -0.6511 -1.3298  0.4328
  741MOL0     H 2221  11.627   6.824   7.388 -0.8760 -0.7071 -0.1510
  741MOL0     H 2222  11.963   6.992   7.407  0.1599 -0.3590 -3.8206
  741MOL0     H 2223  11.788   6.984   7.401 -0.7539 -0.8901 -0.9526
  741MOL0     H 2224  11.885   6.940   7.619  0.7849 -0.3955  0.0144
  741MOL0     H 2225  11.782   6.808   7.559  0.7707 -0.8284  2.2243
  741MOL0     H 2226  12.090   6.798   7.563  0.9178 -2.2274  0.3640
  741MOL0     H 2227  11.991   6.670   7.501  4.5183  0.5973 -0.9121
  741MOL0     H 2228  12.027   6.598   7.715 -0.1734 -0.8523 -0.8168
  741MOL0     H 2229  11.873   6.672   7.727  0.0003  0.7059 -2.9367
  741MOL0     H 2230  12.118   6.814   7.800  1.5506 -3.3823  0.9041
  741MOL0     H 2231  11.954   6.888   7.808 -0.6427 -0.8556 -0.1488
  741MOL0     H 2232  12.049   6.803   8.027  0.8494 -1.9271  0.9499
  741MOL0     H 2233  12.032   6.635   7.980 -1.4194 -0.5648 -0.5878
  741MOL0     H 2234  11.842   6.706   8.108  0.3221  2.0070  0.4073
  741MOL0     H 2235  11.779   6.653   7.941 -2.3240  2.3898 -0.6174
  741MOL0     H 2236  11.830   6.939   8.012 -1.1469  1.5817 -2.8185
  741MOL0     H 2237  11.683   6.857   8.065  0.4207  0.9219  0.4297
  741MOL0     H 2238  11.873   6.752   7.038 -0.5118  2.0840 -1.9045
  741MOL0     H 2239  11.654   6.730   6.908 -1.7439  2.9953  0.1458
  741MOL0     H 2240  11.381   6.687   6.746  0.3150 -1.0119  0.1531
  741MOL0     H 2241  11.235   6.671   6.566 -1.2011  2.6790  0.4511
  741MOL0     H 2242  10.866   6.232   7.786  0.2146 -1.1563 -0.6777
  741MOL0     H 2243  11.016   6.339   7.930  0.9128 -0.6045 -1.2513
  741MOL0     H 2244  11.254   6.323   8.331  0.4493  0.3883 -0.3238
  741MOL0     H 2245  11.422   6.401   8.490  0.5749 -0.8761  0.7236
  741MOL0     H 2246  11.601   6.408   8.606  0.0308  0.5686  1.2636
  741MOL0     H 2247  11.729   6.513   8.614  1.1604 -0.6462 -0.6824
  741MOL0     H 2248  11.528   6.616   8.690  2.1534 -0.6011  0.4012
  741MOL0     H 2249  11.459   6.629   8.523  0.7048 -0.8620 -1.0709
  741MOL0     H 2250  11.732   6.733   8.611  0.1406 -0.0613 -0.7338
  741MOL0     H 2251  11.651   6.756   8.448 -1.2779  0.6896  0.1919
  741MOL0     H 2252  11.476   6.893   8.577 -0.2766 -0.7967 -0.3419
  741MOL0     H 2253  11.646   6.951   8.528 -1.7283 -0.3483 -0.7115
  741MOL0     H 2254  11.614   6.964   8.961  2.9145 -0.6659  0.1696
  741MOL0     H 2255  11.691   6.459   8.167 -1.1601  3.1649  1.1316
  741MOL0     H 2256  11.471   6.481   7.921 -0.0812 -0.4064  0.3549
  741MOL0     H 2257  11.642   6.424   7.950 -0.2611 -1.3152 -2.8968
  741MOL0     H 2258  11.505   6.310   7.916 -0.0059  0.3906 -1.8851
  742MOL0     O 2259   6.592  11.333   9.641  0.0228 -0.2144  0.3492
  742MOL0     C 2260   6.514  11.425   9.619  0.5474  0.3860  0.0284
  742MOL0     O 2261   6.539  11.544   9.547 -0.2496  0.3603  0.4186
  742MOL0     C 2262   6.661  11.549   9.487 -0.2814 -0.5291  0.4393
  742MOL0     C 2263   6.779  11.577   9.556  0.3962  0.2710  0.3826
  742MOL0     C 2264   6.902  11.587   9.493  0.5076 -0.0262  0.5173
  742MOL0     C 2265   6.908  11.561   9.354  0.0194  0.0909 -0.1504
  742MOL0     O 2266   7.026  11.542   9.287  0.3802 -1.0271  0.1325
  742MOL0     C 2267   7.150  11.556   9.359 -0.3733 -0.7983 -0.5376
  742MOL0     C 2268   7.263  11.564   9.247 -0.0527  0.8684  0.1036
  742MOL0     C 2269   7.403  11.571   9.309  0.2883  0.1882 -0.5593
  742MOL0     C 2270   7.510  11.500   9.228  0.3530  0.9164  0.8210
  742MOL0     C 2271   7.643  11.552   9.284 -0.4257  0.2303 -0.8169
  742MOL0     C 2272   7.765  11.461   9.264 -0.4397  0.4771  0.3517
  742MOL0     C 2273   7.893  11.528   9.327 -0.2920 -0.5126 -0.1217
  742MOL0     C 2274   8.009  11.431   9.339  0.5273  0.2133  0.9985
  742MOL0     N 2275   8.133  11.475   9.410 -0.0745  0.2056  0.0319
  742MOL0     C 2276   8.220  11.385   9.480 -0.1188  0.3529  0.1699
  742MOL0     C 2277   8.304  11.467   9.537  0.0025 -0.1078 -0.0908
  742MOL0     C 2278   8.417  11.408   9.634  0.1509 -0.5764  0.1297
  742MOL0     C 2279   8.534  11.358   9.558 -1.0318  0.9496  0.2355
  742MOL0     C 2280   8.671  11.369   9.631  1.0813 -1.2454 -0.2917
  742MOL0     C 2281   8.792  11.329   9.547 -0.3583  0.0892 -0.2437
  742MOL0     O 2282   8.916  11.343   9.620 -0.3170 -0.0831 -0.6216
  742MOL0     C 2283   9.022  11.252   9.591 -0.2235  0.0300 -0.7696
  742MOL0     C 2284   9.023  11.137   9.507 -0.2067 -0.3250 -0.2694
  742MOL0     C 2285   9.138  11.057   9.496 -0.1829  0.3540  0.4238
  742MOL0     C 2286   9.132  10.943   9.396  0.2289  0.4367  0.7902
  742MOL0     C 2287   9.242  11.074   9.585 -0.5640  0.8031 -0.0003
  742MOL0     C 2288   9.358  10.997   9.611 -1.3237  0.6706  0.2623
  742MOL0     O 2289   9.456  11.052   9.697 -0.0287 -1.0689 -1.0157
  742MOL0     C 2290   9.579  10.992   9.696  0.1739  0.5853 -1.4065
  742MOL0     C 2291   9.604  10.890   9.788 -0.0181  0.4613 -0.4924
  742MOL0     C 2292   9.724  10.831   9.807  0.1187 -0.4397 -0.2406
  742MOL0     C 2293   9.833  10.884   9.735 -0.6439  0.4252  0.1591
  742MOL0     O 2294   9.960  10.832   9.736  0.4899 -0.6228 -0.1133
  742MOL0     C 2295   9.962  10.693   9.771 -0.5757 -0.0692  0.0580
  742MOL0     C 2296  10.108  10.636   9.759 -0.3316  0.1148  0.4458
  742MOL0     C 2297  10.148  10.618   9.606  0.8695 -0.2151 -0.5266
  742MOL0     C 2298  10.279  10.540   9.595  0.8063  0.0307 -0.4091
  742MOL0     C 2299  10.347  10.550   9.459  0.2126  0.5913  0.7699
  742MOL0     C 2300  10.482  10.483   9.468 -0.7054 -0.7954 -0.0107
  742MOL0     C 2301  10.521  10.434   9.326 -1.0784  0.6411 -0.0383
  742MOL0     C 2302  10.623  10.322   9.347  1.0573 -0.2537  0.0154
  742MOL0    Cl 2303  10.771  10.363   9.429  0.1437  0.4587  0.5682
  742MOL0     C 2304   9.813  10.987   9.644 -0.5255 -0.2792  0.4805
  742MOL0     C 2305   9.685  11.043   9.622 -0.6207  0.0246  0.0746
  742MOL0     O 2306   9.382  10.894   9.543 -0.2738  0.4629 -0.1324
  742MOL0     C 2307   9.241  11.187   9.677  0.7288  0.1905  0.4406
  742MOL0     C 2308   9.131  11.275   9.671  1.4390  0.9834  0.7015
  742MOL0     N 2309   8.286  11.599   9.511  0.0621 -0.7400 -0.3944
  742MOL0     N 2310   8.178  11.600   9.431  0.2943  0.1124  0.4118
  742MOL0     C 2311   6.788  11.527   9.289 -0.0737  0.1819 -0.3486
  742MOL0     C 2312   6.667  11.527   9.352 -0.1998 -0.5401  0.6740
  742MOL0     C 2313   6.375  11.418   9.666 -0.1872  0.0964  0.2936
  742MOL0     C 2314   6.281  11.489   9.593 -0.1987 -0.3137 -0.5812
  742MOL0     C 2315   6.148  11.493   9.631  0.4880  0.2577  0.4157
  742MOL0     C 2316   6.102  11.443   9.757 -0.9456 -0.2322  0.2180
  742MOL0     O 2317   5.973  11.439   9.811  0.2877 -0.8775 -0.4987
  742MOL0     C 2318   5.881  11.512   9.732  0.1451 -0.8509  0.2356
  742MOL0     C 2319   5.749  11.466   9.777  0.6893 -1.3547  0.7918
  742MOL0     C 2320   5.705  11.324   9.738 -0.9680 -0.1527 -0.5139
  742MOL0     C 2321   5.571  11.287   9.800  0.0026  1.1638  0.5150
  742MOL0     C 2322   5.550  11.150   9.787 -0.2231  1.1174 -0.4171
  742MOL0     C 2323   5.505  11.035   9.791 -0.2905 -0.1213 -0.0198
  742MOL0     C 2324   6.195  11.368   9.829  0.9033 -0.3630 -0.7761
  742MOL0     C 2325   6.333  11.364   9.793 -0.1577 -0.3691  0.1115
  742MOL0     C 2326   6.426  11.292   9.893 -0.0921  0.8291 -0.3120
  742MOL0     H 2327   6.761  11.581   9.663 -0.4134 -0.8494  0.3095
  742MOL0     H 2328   6.994  11.594   9.551  1.4716  0.2604 -1.0009
  742MOL0     H 2329   7.174  11.472   9.424  3.5674  1.2230  0.9235
  742MOL0     H 2330   7.140  11.650   9.413 -0.9497 -0.7725 -0.6842
  742MOL0     H 2331   7.259  11.486   9.171 -2.5946  0.2245  0.8070
  742MOL0     H 2332   7.256  11.657   9.189  1.9662  0.1110 -1.4634
  742MOL0     H 2333   7.425  11.673   9.341 -0.9440  1.0828 -2.4064
  742MOL0     H 2334   7.396  11.508   9.399 -1.6266 -0.4799 -1.1216
  742MOL0     H 2335   7.498  11.391   9.235  0.5670  0.9261  1.3801
  742MOL0     H 2336   7.517  11.519   9.121  0.9766 -2.6964  0.0716
  742MOL0     H 2337   7.620  11.551   9.391 -1.2369 -1.9865 -0.9535
  742MOL0     H 2338   7.654  11.656   9.254  0.5919 -0.2352 -2.1233
  742MOL0     H 2339   7.755  11.355   9.287  1.4939  0.5867  1.9337
  742MOL0     H 2340   7.787  11.456   9.157  1.2499 -1.3456  0.7194
  742MOL0     H 2341   7.880  11.558   9.431 -2.3187  0.2323 -0.5311
  742MOL0     H 2342   7.921  11.620   9.273  1.4664 -0.7611  0.3038
  742MOL0     H 2343   7.967  11.340   9.383 -1.3483 -0.6269 -2.1984
  742MOL0     H 2344   8.043  11.405   9.239 -0.4157 -2.3689  1.2640
  742MOL0     H 2345   8.212  11.276   9.484  1.5322  0.2265  3.1153
  742MOL0     H 2346   8.374  11.327   9.695  1.5091 -2.1795 -0.9377
  742MOL0     H 2347   8.450  11.485   9.705  0.7213  1.1551 -1.9313
  742MOL0     H 2348   8.522  11.250   9.542  1.0288  0.8708 -1.1254
  742MOL0     H 2349   8.540  11.416   9.465  0.9060  1.5995  0.7123
  742MOL0     H 2350   8.687  11.471   9.668  0.7539 -0.7667 -1.3970
  742MOL0     H 2351   8.657  11.298   9.713 -0.8405 -0.4556  0.1174
  742MOL0     H 2352   8.765  11.226   9.520  0.1904  0.3900 -2.0713
  742MOL0     H 2353   8.805  11.376   9.449  3.5713 -1.2566 -0.5450
  742MOL0     H 2354   8.941  11.115   9.439  0.4862  0.3257 -1.3419
  742MOL0     H 2355   9.094  10.854   9.446  1.9442 -0.5825  0.3658
  742MOL0     H 2356   9.224  10.919   9.342  0.5369  1.0440  1.0415
  742MOL0     H 2357   9.057  10.965   9.319  0.6833  2.7830  0.9536
  742MOL0     H 2358   9.507  10.852   9.821 -0.3562  1.9732  0.3346
  742MOL0     H 2359   9.732  10.745   9.873 -0.8368 -0.3968 -0.0423
  742MOL0     H 2360   9.932  10.687   9.876 -4.3662 -0.5823 -0.9345
  742MOL0     H 2361   9.902  10.633   9.703  1.2591  0.7391 -2.4248
  742MOL0     H 2362  10.177  10.699   9.815 -0.0475 -2.5305  3.2804
  742MOL0     H 2363  10.105  10.538   9.806 -1.5694  0.3147  0.8171
  742MOL0     H 2364  10.149  10.714   9.554  1.3615  0.9273  1.5162
  742MOL0     H 2365  10.073  10.550   9.564  1.1935 -0.5891 -0.5062
  742MOL0     H 2366  10.250  10.436   9.615 -2.6791  0.7540 -0.9631
  742MOL0     H 2367  10.348  10.573   9.673 -0.7684  1.8543  0.2869
  742MOL0     H 2368  10.286  10.487   9.394  0.6357  0.2998  0.6527
  742MOL0     H 2369  10.357  10.651   9.418 -2.1101  2.0395  3.4023
  742MOL0     H 2370  10.485  10.399   9.537  0.3919  0.1629  1.1637
  742MOL0     H 2371  10.552  10.562   9.497 -1.5030  0.3814 -1.1551
  742MOL0     H 2372  10.549  10.517   9.260 -2.4683 -0.7415 -2.5024
  742MOL0     H 2373  10.434  10.395   9.274 -0.5381  0.2846 -0.6900
  742MOL0     H 2374  10.656  10.282   9.251  0.0573  1.1685 -0.9618
  742MOL0     H 2375  10.578  10.242   9.406 -1.3878  1.5100  0.7048
  742MOL0     H 2376   9.896  11.022   9.583 -0.4332  0.5894  1.0838
  742MOL0     H 2377   9.682  11.137   9.567  2.3165  0.5538  0.6070
  742MOL0     H 2378   9.320  11.230   9.739 -0.6938  1.8689  1.1900
  742MOL0     H 2379   9.125  11.366   9.730 -2.7784  0.9503  0.6521
  742MOL0     H 2380   6.803  11.495   9.186  2.3280  0.1533 -0.0298
  742MOL0     H 2381   6.580  11.500   9.292  1.0806 -2.3566 -0.4804
  742MOL0     H 2382   6.306  11.542   9.502  0.6082  0.1527 -0.0998
  742MOL0     H 2383   6.085  11.540   9.555 -0.0989 -0.7680  0.2407
  742MOL0     H 2384   5.900  11.616   9.761  3.4288 -1.0437 -0.7930
  742MOL0     H 2385   5.892  11.489   9.625  1.3726 -2.2847  0.6336
  742MOL0     H 2386   5.672  11.533   9.738  1.0953 -1.6919 -0.6585
  742MOL0     H 2387   5.747  11.469   9.886 -0.2999 -1.4049  0.7867
  742MOL0     H 2388   5.703  11.319   9.629  0.9387  0.3139 -0.6024
  742MOL0     H 2389   5.783  11.258   9.779  1.9998  1.8908 -2.4738
  742MOL0     H 2390   5.487  11.327   9.743 -1.1469  0.0176  1.3446
  742MOL0     H 2391   5.563  11.318   9.905  0.4129  1.5440  0.4351
  742MOL0     H 2392   5.482  10.932   9.805  0.5836 -0.1064  1.8131
  742MOL0     H 2393   6.146  11.322   9.914 -0.4896  0.3810 -1.1538
  742MOL0     H 2394   6.520  11.348   9.895 -0.3950  1.4556 -1.6938
  742MOL0     H 2395   6.381  11.298   9.992  0.8479  1.8452  0.0785
  742MOL0     H 2396   6.452  11.189   9.868 -2.1821  0.0987  0.3277
  743MOL0     O 2397   9.784   3.911   5.478  0.2092 -0.4374 -1.3842
  743MOL0     C 2398   9.729   3.830   5.554  0.0018  0.4684 -0.0515
  743MOL0     O 2399   9.766   3.807   5.681  0.7257 -0.0342  0.1784
  743MOL0     C 2400   9.867   3.876   5.742  0.8832  0.0802 -0.9078
  743MOL0     C 2401   9.999   3.859   5.709 -0.4974  0.6319 -0.1448
  743MOL0     C 2402  10.097   3.934   5.774  0.2455  0.3079  0.4645
  743MOL0     C 2403  10.069   4.028   5.869  0.5225 -0.4890 -0.7485
  743MOL0     O 2404  10.165   4.096   5.935 -0.5431  0.5499 -0.2052
  743MOL0     C 2405  10.240   4.193   5.863  0.3474 -0.1906  1.2774
  743MOL0     C 2406  10.368   4.222   5.935  0.3752  0.9432 -0.5652
  743MOL0     C 2407  10.458   4.092   5.935 -0.4040 -0.8994  0.0087
  743MOL0     C 2408  10.580   4.108   6.018 -0.4733  0.8957 -0.0781
  743MOL0     C 2409  10.649   3.966   6.022  0.2166 -0.9930  0.5399
  743MOL0     C 2410  10.799   3.984   6.071  0.7185  0.2134 -0.4118
  743MOL0     C 2411  10.812   3.965   6.224  0.6782 -0.5383 -0.3778
  743MOL0     C 2412  10.785   3.819   6.278  0.2320 -0.8252 -0.0565
  743MOL0     N 2413  10.892   3.727   6.240 -0.5070 -0.0308  0.4591
  743MOL0     C 2414  10.917   3.673   6.119  0.0316 -0.1152  0.2722
  743MOL0     C 2415  11.043   3.617   6.130  0.7422  0.5124  0.1119
  743MOL0     C 2416  11.114   3.564   6.017  0.3357 -0.4538  0.9742
  743MOL0     C 2417  11.082   3.411   6.002 -0.0116 -0.6900  0.0917
  743MOL0     C 2418  11.117   3.350   5.864 -0.3983 -0.8664 -0.1989
  743MOL0     C 2419  11.255   3.381   5.803  0.0271  0.1522 -0.4796
  743MOL0     O 2420  11.357   3.377   5.900 -0.3665  0.8269  0.5915
  743MOL0     C 2421  11.486   3.385   5.849 -0.0347 -0.0065 -0.5086
  743MOL0     C 2422  11.576   3.464   5.928 -0.1076 -0.5110 -0.5419
  743MOL0     C 2423  11.706   3.493   5.873 -0.5572 -0.3557 -0.9204
  743MOL0     C 2424  11.793   3.577   5.962 -0.2674 -0.3039 -0.1505
  743MOL0     C 2425  11.762   3.419   5.759  0.5344  0.0568 -0.5886
  743MOL0     C 2426  11.901   3.438   5.714  0.1455  0.0995 -0.0882
  743MOL0     O 2427  11.972   3.536   5.766 -0.8216 -0.0132 -0.2473
  743MOL0     C 2428  12.107   3.537   5.744 -1.1587 -0.6931  0.1897
  743MOL0     C 2429  12.171   3.670   5.724 -0.2154  1.1389  0.2290
  743MOL0     C 2430  12.304   3.683   5.691 -1.2183  0.3716 -0.0973
  743MOL0     C 2431  12.395   3.570   5.679 -0.4946 -0.3267 -0.2502
  743MOL0     O 2432  12.528   3.572   5.642 -0.3604 -0.1707 -0.0444
  743MOL0     C 2433  12.583   3.697   5.593  0.3862 -0.1093  0.1478
  743MOL0     C 2434  12.730   3.691   5.575  0.5656 -0.8002  0.3156
  743MOL0     C 2435  12.803   3.699   5.713  0.6005 -0.4789  0.1354
  743MOL0     C 2436  12.953   3.662   5.703  0.2957  0.3809  0.1234
  743MOL0     C 2437  13.015   3.683   5.837 -0.2027 -1.2287  0.8626
  743MOL0     C 2438  13.170   3.684   5.828  0.5583 -0.6867  0.0352
  743MOL0     C 2439  13.249   3.693   5.963 -0.2637  0.4937  0.5484
  743MOL0     C 2440  13.305   3.833   5.998 -0.5034  0.0536 -0.3041
  743MOL0    Cl 2441  13.427   3.828   6.141  0.1110 -0.1286 -0.4441
  743MOL0     C 2442  12.340   3.443   5.686  0.9032  0.1748  0.1365
  743MOL0     C 2443  12.200   3.427   5.726  0.1876 -0.5804  0.4844
  743MOL0     O 2444  11.935   3.363   5.623  0.1345  0.8889 -0.2372
  743MOL0     C 2445  11.673   3.331   5.694  1.1633  0.0920  0.1437
  743MOL0     C 2446  11.532   3.327   5.734  0.1465  0.1138  0.0207
  743MOL0     N 2447  11.100   3.637   6.250 -0.2358 -0.5513 -1.0604
  743MOL0     N 2448  11.010   3.706   6.311 -0.5906  0.1794  0.3792
  743MOL0     C 2449   9.941   4.055   5.904 -0.7720  0.3582  0.1772
  743MOL0     C 2450   9.839   3.980   5.829  0.1294 -0.6245 -0.0483
  743MOL0     C 2451   9.612   3.753   5.501  0.0272  0.1386  0.1263
  743MOL0     C 2452   9.576   3.634   5.567  0.5285  0.1481 -0.6827
  743MOL0     C 2453   9.475   3.563   5.512 -0.1658  0.5507  0.8861
  743MOL0     C 2454   9.406   3.605   5.394 -0.9798 -0.5129 -0.5468
  743MOL0     O 2455   9.289   3.527   5.374  0.3926  0.0948  0.0702
  743MOL0     C 2456   9.213   3.547   5.254  0.3032  0.3807 -0.4826
  743MOL0     C 2457   9.071   3.478   5.260  0.0964 -0.3575 -0.4185
  743MOL0     C 2458   8.975   3.568   5.350  0.6146  0.5472  0.1614
  743MOL0     C 2459   8.847   3.487   5.378 -0.4623  0.5815 -0.2053
  743MOL0     C 2460   8.767   3.554   5.470 -0.5142  0.1779  0.5386
  743MOL0     C 2461   8.699   3.607   5.547  0.0489  0.7948  0.7159
  743MOL0     C 2462   9.442   3.726   5.333 -0.4009  0.1494 -0.0833
  743MOL0     C 2463   9.547   3.804   5.387 -0.3372  0.1205  0.7406
  743MOL0     C 2464   9.561   3.939   5.322 -0.2306 -0.6435  0.2821
  743MOL0     H 2465  10.013   3.776   5.640  1.9617  0.4025  0.5246
  743MOL0     H 2466  10.202   3.912   5.756 -0.2204  0.5672 -3.0958
  743MOL0     H 2467  10.178   4.283   5.868 -2.0220 -1.7476  1.9165
  743MOL0     H 2468  10.257   4.162   5.760  0.3613  3.5597  0.0154
  743MOL0     H 2469  10.408   4.307   5.879 -0.9368  0.9598 -1.5288
  743MOL0     H 2470  10.351   4.252   6.038  1.5827  1.6840 -0.5518
  743MOL0     H 2471  10.393   4.009   5.963  0.1324 -1.3330 -0.0387
  743MOL0     H 2472  10.482   4.078   5.830 -0.8076  0.3306 -0.2717
  743MOL0     H 2473  10.646   4.189   5.987  0.7415  0.7579  1.9337
  743MOL0     H 2474  10.554   4.128   6.123 -1.2389  0.0116 -0.0841
  743MOL0     H 2475  10.640   3.928   5.920  0.9016 -0.1177  0.1392
  743MOL0     H 2476  10.583   3.909   6.088 -0.6752  1.3065  1.7393
  743MOL0     H 2477  10.863   3.914   6.017 -2.1690 -2.0522 -1.1804
  743MOL0     H 2478  10.825   4.085   6.040  3.8689  0.0142  1.2635
  743MOL0     H 2479  10.736   4.030   6.266 -0.7738 -2.5619  0.2830
  743MOL0     H 2480  10.913   4.002   6.246  0.3677  0.8309 -1.1495
  743MOL0     H 2481  10.778   3.822   6.387  0.4559 -1.5280 -0.0107
  743MOL0     H 2482  10.686   3.784   6.247  0.1593 -1.3750  0.7629
  743MOL0     H 2483  10.866   3.683   6.024  3.1748  2.4294 -1.3097
  743MOL0     H 2484  11.223   3.572   6.029  1.0090 -1.3732 -3.1337
  743MOL0     H 2485  11.079   3.614   5.927 -1.6227 -1.5812  1.0510
  743MOL0     H 2486  11.133   3.348   6.075 -1.5804 -4.6318 -1.8932
  743MOL0     H 2487  10.974   3.413   6.020  0.3310 -0.1409  2.4330
  743MOL0     H 2488  11.100   3.242   5.874  1.4728 -1.1020  1.1198
  743MOL0     H 2489  11.046   3.383   5.789 -0.3049  0.7917  0.4042
  743MOL0     H 2490  11.264   3.318   5.714  0.1781  0.1000 -0.4282
  743MOL0     H 2491  11.252   3.485   5.766 -0.8745  0.3530  0.1394
  743MOL0     H 2492  11.532   3.499   6.020 -2.1247 -1.5471 -1.0569
  743MOL0     H 2493  11.884   3.522   5.988 -0.2535 -0.4914 -0.5897
  743MOL0     H 2494  11.746   3.604   6.057  1.2032  2.6305 -0.1179
  743MOL0     H 2495  11.811   3.679   5.926 -0.1657  0.5230  2.0474
  743MOL0     H 2496  12.107   3.757   5.726  1.1709  2.3150 -2.4380
  743MOL0     H 2497  12.340   3.780   5.661 -2.1038  1.0244  0.8749
  743MOL0     H 2498  12.546   3.715   5.491  0.1295  0.6393  0.3643
  743MOL0     H 2499  12.549   3.771   5.666 -0.8042 -0.6346  0.1430
  743MOL0     H 2500  12.753   3.603   5.514 -1.8178  0.0016 -1.9244
  743MOL0     H 2501  12.760   3.773   5.509 -1.9353 -1.7484 -2.1968
  743MOL0     H 2502  12.748   3.637   5.784  0.3529 -1.0236 -0.5261
  743MOL0     H 2503  12.783   3.802   5.745 -0.1334 -0.0676 -1.5031
  743MOL0     H 2504  12.990   3.732   5.628 -1.6304  3.3192  1.6953
  743MOL0     H 2505  12.962   3.555   5.682 -0.2862  0.6101 -1.3708
  743MOL0     H 2506  12.982   3.780   5.873  0.5132  1.4663 -4.7137
  743MOL0     H 2507  12.972   3.605   5.901 -0.7184 -1.2763  0.4648
  743MOL0     H 2508  13.198   3.767   5.764  0.4747 -2.7387 -2.8386
  743MOL0     H 2509  13.199   3.593   5.775  1.7874 -0.5168  0.3913
  743MOL0     H 2510  13.327   3.617   5.968 -1.3579 -0.6532  0.7648
  743MOL0     H 2511  13.187   3.671   6.051  0.1497  0.1410  0.7570
  743MOL0     H 2512  13.220   3.900   6.013 -0.0992  0.5930 -0.3989
  743MOL0     H 2513  13.363   3.870   5.912  1.8260  0.2879  1.2833
  743MOL0     H 2514  12.390   3.348   5.672  2.0941  0.2843  2.9129
  743MOL0     H 2515  12.153   3.329   5.734  0.1567 -0.5873  0.2282
  743MOL0     H 2516  11.705   3.289   5.599 -0.0500  2.9818 -1.6716
  743MOL0     H 2517  11.461   3.277   5.669  0.0897 -0.2801  0.3770
  743MOL0     H 2518   9.905   4.133   5.969 -1.5637  0.3908 -0.2871
  743MOL0     H 2519   9.734   4.004   5.841 -0.1544 -1.3154 -1.0090
  743MOL0     H 2520   9.620   3.600   5.660 -0.6642  1.0280  0.2265
  743MOL0     H 2521   9.443   3.476   5.569 -0.7476  1.0682  1.3665
  743MOL0     H 2522   9.191   3.652   5.234 -4.9523 -0.5492 -0.9293
  743MOL0     H 2523   9.273   3.518   5.167  2.3395  2.1069  0.2430
  743MOL0     H 2524   9.060   3.376   5.299 -1.3177 -1.6562 -3.8031
  743MOL0     H 2525   9.028   3.491   5.160 -0.8899  1.7531  0.2122
  743MOL0     H 2526   9.015   3.598   5.448 -0.2050  2.1362  0.0376
  743MOL0     H 2527   8.937   3.655   5.296  0.4822  1.6558  1.9627
  743MOL0     H 2528   8.849   3.392   5.431  0.2751  0.8656  0.3018
  743MOL0     H 2529   8.787   3.479   5.287 -0.6006  0.8749 -0.1400
  743MOL0     H 2530   8.630   3.649   5.617 -0.2769  0.4098  0.6314
  743MOL0     H 2531   9.396   3.760   5.241  0.9804 -2.0944 -1.7168
  743MOL0     H 2532   9.563   4.022   5.393 -0.7227 -0.0970 -0.3222
  743MOL0     H 2533   9.649   3.943   5.257 -1.0686  3.1292 -0.8773
  743MOL0     H 2534   9.483   3.963   5.249  0.4719  1.8342  0.2627
  744MOL0     O 2535   7.373   5.611  10.468 -0.3884 -0.4361 -0.2635
  744MOL0     C 2536   7.478   5.546  10.469  0.0072 -0.3128  1.1220
  744MOL0     O 2537   7.512   5.457  10.370 -0.6690 -0.9473  0.0495
  744MOL0     C 2538   7.429   5.435  10.262 -0.0517 -0.0862 -0.3809
  744MOL0     C 2539   7.491   5.412  10.141  0.0328  0.0605  0.5698
  744MOL0     C 2540   7.420   5.395  10.020 -1.1588  0.0091 -0.2984
  744MOL0     C 2541   7.283   5.378  10.021 -0.6272  0.4216 -1.2374
  744MOL0     O 2542   7.229   5.365   9.896  0.4733 -0.1075  1.0741
  744MOL0     C 2543   7.083   5.374   9.868 -0.4904  0.5025 -0.7255
  744MOL0     C 2544   7.035   5.511   9.910  0.7861 -0.1694 -0.1218
  744MOL0     C 2545   6.977   5.590   9.789  0.5806  0.0562  0.0475
  744MOL0     C 2546   6.898   5.722   9.827 -0.0239 -0.8803 -0.3500
  744MOL0     C 2547   6.851   5.796   9.698 -0.8748 -1.6272 -0.1024
  744MOL0     C 2548   6.817   5.940   9.739 -0.5339 -0.4280  0.1872
  744MOL0     C 2549   6.941   6.022   9.769 -0.1568  0.1792 -0.2669
  744MOL0     C 2550   6.915   6.180   9.776 -0.9653 -0.4020  0.8554
  744MOL0     N 2551   7.037   6.255   9.816  0.1630  0.1600 -1.1074
  744MOL0     C 2552   7.148   6.283   9.740  0.0062  0.0979  0.5183
  744MOL0     C 2553   7.230   6.345   9.824 -0.4708 -0.1063 -0.1182
  744MOL0     C 2554   7.370   6.396   9.807 -0.8906 -0.6002  1.1636
  744MOL0     C 2555   7.425   6.360   9.665 -0.9172  0.1582 -0.8684
  744MOL0     C 2556   7.569   6.404   9.632  0.1459  0.7879  0.1543
  744MOL0     C 2557   7.685   6.339   9.709 -0.7245 -0.6614  0.3729
  744MOL0     O 2558   7.680   6.201   9.683  0.4515  0.0344  0.0211
  744MOL0     C 2559   7.783   6.128   9.736 -0.8355 -0.4606  0.4520
  744MOL0     C 2560   7.745   6.009   9.796  0.1549 -0.0423 -0.5350
  744MOL0     C 2561   7.835   5.920   9.860 -0.3716 -0.3904  0.2773
  744MOL0     C 2562   7.782   5.781   9.912  0.2467 -0.1347 -0.0349
  744MOL0     C 2563   7.971   5.962   9.858 -0.7370 -0.3519 -0.4369
  744MOL0     C 2564   8.083   5.882   9.925 -0.0041 -0.7406  0.9493
  744MOL0     O 2565   8.210   5.935   9.910  0.0660 -0.1175  0.4713
  744MOL0     C 2566   8.318   5.892   9.985  0.1644  0.4479  0.7264
  744MOL0     C 2567   8.314   5.810  10.099  0.0671 -0.0230 -0.9022
  744MOL0     C 2568   8.432   5.770  10.166  0.4325  0.5033 -0.2858
  744MOL0     C 2569   8.553   5.824  10.127  1.0428  0.3774 -0.6361
  744MOL0     O 2570   8.681   5.817  10.183 -0.1156  0.0320  0.6731
  744MOL0     C 2571   8.720   5.699  10.259 -0.5399  0.7038 -0.2709
  744MOL0     C 2572   8.869   5.682  10.239 -1.2037 -0.2071 -0.3352
  744MOL0     C 2573   8.954   5.779  10.316 -1.1966 -0.7611 -0.3090
  744MOL0     C 2574   9.113   5.742  10.306  0.7370  0.1893 -0.2962
  744MOL0     C 2575   9.144   5.645  10.412 -0.8794  0.2943 -0.2155
  744MOL0     C 2576   9.292   5.597  10.391  0.2922 -0.2108 -0.1466
  744MOL0     C 2577   9.322   5.486  10.489 -0.3872 -0.0506  0.2182
  744MOL0     C 2578   9.463   5.421  10.460  0.9075  0.3008 -0.4279
  744MOL0    Cl 2579   9.613   5.528  10.460 -0.0374  0.4166 -0.0815
  744MOL0     C 2580   8.556   5.898  10.008  0.3274 -0.0230 -0.5742
  744MOL0     C 2581   8.445   5.931   9.936  0.3617  0.9059 -0.1012
  744MOL0     O 2582   8.053   5.779   9.980  0.3915 -0.9244  0.3800
  744MOL0     C 2583   8.012   6.078   9.785  0.2382 -0.7412  0.3845
  744MOL0     C 2584   7.915   6.160   9.731  0.4694  0.1279 -0.2294
  744MOL0     N 2585   7.164   6.361   9.947 -0.5841 -0.0515 -0.3528
  744MOL0     N 2586   7.051   6.315   9.934 -0.3707  0.1641  0.6374
  744MOL0     C 2587   7.217   5.395  10.139 -0.7225 -0.8545 -0.2765
  744MOL0     C 2588   7.284   5.419  10.262  0.3483  0.4114  0.4223
  744MOL0     C 2589   7.579   5.565  10.580 -0.0700  0.3622  0.2692
  744MOL0     C 2590   7.698   5.489  10.584 -0.8946  0.7745 -0.1337
  744MOL0     C 2591   7.808   5.516  10.668 -0.6848 -1.0141  0.1601
  744MOL0     C 2592   7.794   5.615  10.761 -0.2197  0.2176 -0.6643
  744MOL0     O 2593   7.894   5.644  10.850  0.5244  0.3969  0.6038
  744MOL0     C 2594   7.860   5.594  10.980  0.3960 -0.1114  0.3825
  744MOL0     C 2595   7.984   5.618  11.074 -0.2435 -0.8233 -0.5322
  744MOL0     C 2596   8.090   5.517  11.043  0.0150  0.6150  1.1004
  744MOL0     C 2597   8.053   5.384  11.107  0.1505 -0.5982  0.0148
  744MOL0     C 2598   8.160   5.290  11.097  0.0651  0.2637 -0.3029
  744MOL0     C 2599   8.245   5.197  11.096  0.0482 -0.1666 -0.6096
  744MOL0     C 2600   7.691   5.701  10.746  0.3801  0.3638 -0.5688
  744MOL0     C 2601   7.575   5.675  10.674  0.0873  0.3457 -0.1125
  744MOL0     C 2602   7.455   5.767  10.693  0.5565  1.0742 -0.2813
  744MOL0     H 2603   7.598   5.411  10.123  0.0182  0.7224  0.4478
  744MOL0     H 2604   7.465   5.364   9.927  0.0769 -3.5159  1.3069
  744MOL0     H 2605   7.024   5.293   9.911  0.7444 -0.3447 -0.5616
  744MOL0     H 2606   7.073   5.369   9.759  2.4421 -1.9625 -1.0334
  744MOL0     H 2607   6.944   5.508   9.970  1.0260  0.2850  0.2715
  744MOL0     H 2608   7.109   5.565   9.970  0.5073  1.1434 -0.9079
  744MOL0     H 2609   7.052   5.623   9.716  0.4795 -0.2520 -0.1951
  744MOL0     H 2610   6.908   5.520   9.743  2.9696 -3.0295  0.8265
  744MOL0     H 2611   6.814   5.714   9.897 -2.0781  2.4420 -2.1611
  744MOL0     H 2612   6.976   5.784   9.874 -0.5633 -1.9687  2.1594
  744MOL0     H 2613   6.750   5.762   9.671 -0.4822 -2.8396 -0.0901
  744MOL0     H 2614   6.920   5.785   9.614 -1.2538  0.1092 -0.6907
  744MOL0     H 2615   6.758   5.992   9.664 -0.0284  0.1230  0.1674
  744MOL0     H 2616   6.746   5.935   9.823 -0.6729 -4.0249  0.0340
  744MOL0     H 2617   7.009   5.992   9.689 -0.9570 -2.6429  0.0204
  744MOL0     H 2618   6.985   5.993   9.865 -1.5043  0.2790  0.4000
  744MOL0     H 2619   6.887   6.210   9.675  0.7758 -3.4066 -0.6849
  744MOL0     H 2620   6.830   6.203   9.840 -0.8706  1.7992  0.2598
  744MOL0     H 2621   7.160   6.255   9.636 -1.3020  1.9495 -0.1737
  744MOL0     H 2622   7.423   6.346   9.889 -1.8257 -1.0183  1.5391
  744MOL0     H 2623   7.369   6.504   9.822  0.7485 -0.5584  1.1411
  744MOL0     H 2624   7.422   6.250   9.665 -1.9892 -0.0200  4.2666
  744MOL0     H 2625   7.364   6.406   9.586  0.5821 -0.2255 -2.3139
  744MOL0     H 2626   7.588   6.383   9.527  0.8558 -1.4338  0.6606
  744MOL0     H 2627   7.575   6.513   9.636 -3.7222  1.2630 -1.9121
  744MOL0     H 2628   7.784   6.381   9.687 -0.5580  0.0103  2.2265
  744MOL0     H 2629   7.665   6.345   9.817  0.7791 -0.2018  0.6484
  744MOL0     H 2630   7.641   5.980   9.808  0.5306 -0.8114  1.0830
  744MOL0     H 2631   7.787   5.787  10.021 -0.3842 -1.3164  0.0681
  744MOL0     H 2632   7.836   5.689   9.888 -1.2406 -1.4936  1.5266
  744MOL0     H 2633   7.676   5.777   9.888  0.2191  3.9029 -1.3328
  744MOL0     H 2634   8.223   5.774  10.148  1.9201 -0.8301  2.2295
  744MOL0     H 2635   8.433   5.703  10.251  1.3795 -0.2470 -0.8643
  744MOL0     H 2636   8.698   5.709  10.365  0.3764  3.4451 -0.2728
  744MOL0     H 2637   8.660   5.616  10.218 -1.3531  1.4262 -0.5771
  744MOL0     H 2638   8.895   5.577  10.258 -0.7982 -0.8005 -3.4884
  744MOL0     H 2639   8.884   5.702  10.132 -2.2424  4.6447  0.1953
  744MOL0     H 2640   8.925   5.777  10.421  1.4448 -2.2494  0.4956
  744MOL0     H 2641   8.938   5.876  10.268 -1.3262 -1.4545 -1.7250
  744MOL0     H 2642   9.182   5.825  10.320  1.0760 -0.0822 -0.3326
  744MOL0     H 2643   9.128   5.691  10.210  2.5659 -0.8113  0.4619
  744MOL0     H 2644   9.120   5.691  10.508 -3.5243  1.3004 -1.2651
  744MOL0     H 2645   9.071   5.565  10.397 -2.3327  1.1402  1.9176
  744MOL0     H 2646   9.347   5.689  10.416 -2.1720  0.8308  1.8784
  744MOL0     H 2647   9.303   5.571  10.286 -0.5673  5.0139 -1.8539
  744MOL0     H 2648   9.244   5.410  10.487 -1.3482  0.9461 -1.5505
  744MOL0     H 2649   9.325   5.528  10.590  0.2867 -0.6375  0.4513
  744MOL0     H 2650   9.450   5.369  10.365 -0.4570 -0.2020  0.0090
  744MOL0     H 2651   9.470   5.341  10.535 -2.6117 -0.7978 -1.0675
  744MOL0     H 2652   8.652   5.922   9.963  0.9631 -0.5204  0.5043
  744MOL0     H 2653   8.453   5.982   9.840  0.4712  0.1259 -0.5161
  744MOL0     H 2654   8.117   6.095   9.761 -0.1802  1.3717 -0.1230
  744MOL0     H 2655   7.950   6.240   9.666  1.0452  0.2370  0.2025
  744MOL0     H 2656   7.109   5.389  10.150 -0.8269  2.1072  1.4350
  744MOL0     H 2657   7.224   5.424  10.352 -0.9822  1.5117 -0.4820
  744MOL0     H 2658   7.712   5.406  10.516  1.3949 -0.1809  1.3960
  744MOL0     H 2659   7.902   5.462  10.667 -0.0293  0.0631 -1.7913
  744MOL0     H 2660   7.772   5.647  11.016  1.1484  2.0186 -0.6614
  744MOL0     H 2661   7.829   5.490  10.965  0.5254 -0.1616  0.4659
  744MOL0     H 2662   7.940   5.609  11.174  1.8967  0.3606  0.6100
  744MOL0     H 2663   8.031   5.716  11.063  1.3171 -1.4379  0.3248
  744MOL0     H 2664   8.113   5.509  10.937 -1.2769  1.5895  0.7185
  744MOL0     H 2665   8.180   5.562  11.085  0.6209  1.9096 -1.4212
  744MOL0     H 2666   7.960   5.344  11.067  0.6102 -0.7491 -0.9312
  744MOL0     H 2667   8.045   5.392  11.216  0.8102  0.3223  0.0124
  744MOL0     H 2668   8.313   5.114  11.099  1.4549  0.9131 -1.3897
  744MOL0     H 2669   7.695   5.782  10.818 -1.6666  0.4172 -0.4496
  744MOL0     H 2670   7.361   5.713  10.704  0.3375  1.7513  1.5495
  744MOL0     H 2671   7.464   5.838  10.776 -0.0333 -0.8278  1.4690
  744MOL0     H 2672   7.440   5.832  10.606  0.4608  1.7922  0.2630
  745MOL0     O 2673   6.658   4.155   2.569 -0.2015  0.2387 -0.0295
  745MOL0     C 2674   6.644   4.057   2.647  0.0184  0.0057  1.1552
  745MOL0     O 2675   6.752   3.978   2.677 -0.4084 -0.3332  0.4108
  745MOL0     C 2676   6.886   4.000   2.667 -0.1476 -0.1483  0.0919
  745MOL0     C 2677   6.946   4.125   2.654 -0.4473 -0.3318 -0.0104
  745MOL0     C 2678   7.081   4.129   2.632 -0.4985  0.4800  0.0307
  745MOL0     C 2679   7.160   4.012   2.632 -0.6689  0.2727 -0.0555
  745MOL0     O 2680   7.294   4.011   2.601  0.4332  0.2458 -0.6246
  745MOL0     C 2681   7.368   4.129   2.560  1.5492  0.0937 -0.0088
  745MOL0     C 2682   7.493   4.089   2.487  0.2436 -0.0852  0.3939
  745MOL0     C 2683   7.603   4.015   2.565 -0.2813  1.2789 -0.0703
  745MOL0     C 2684   7.676   4.093   2.669 -0.6601 -1.2359  0.2067
  745MOL0     C 2685   7.723   4.241   2.618  0.5932  0.2049 -0.2352
  745MOL0     C 2686   7.835   4.298   2.718 -0.0948 -0.4624 -0.1018
  745MOL0     C 2687   7.818   4.452   2.715  0.7600 -0.0629 -0.0223
  745MOL0     C 2688   7.890   4.513   2.833  0.2331 -0.2424 -0.4986
  745MOL0     N 2689   8.037   4.492   2.833  0.6789  0.2430  0.5756
  745MOL0     C 2690   8.123   4.563   2.755 -0.1580  0.3312 -1.0120
  745MOL0     C 2691   8.241   4.539   2.813 -0.7095  0.4943 -0.4021
  745MOL0     C 2692   8.374   4.594   2.766  0.5955 -0.5314  1.1442
  745MOL0     C 2693   8.488   4.577   2.869 -0.1902  0.3989 -0.5140
  745MOL0     C 2694   8.603   4.673   2.834 -0.0962 -0.4195 -0.5219
  745MOL0     C 2695   8.731   4.648   2.915  0.0501 -0.1061 -0.7830
  745MOL0     O 2696   8.768   4.510   2.935 -1.0407 -0.5981  0.2978
  745MOL0     C 2697   8.820   4.435   2.827 -0.1964  0.7899  0.1800
  745MOL0     C 2698   8.834   4.294   2.846  1.6948  0.0037 -0.1116
  745MOL0     C 2699   8.882   4.220   2.737 -0.0776 -0.2781 -0.6615
  745MOL0     C 2700   8.882   4.065   2.743  0.1164 -0.5393 -0.5498
  745MOL0     C 2701   8.939   4.291   2.615 -0.1295 -0.3055  0.0670
  745MOL0     C 2702   8.998   4.206   2.513  0.1158  0.1799  0.9622
  745MOL0     O 2703   9.085   4.107   2.547 -0.0483  0.0458  0.0115
  745MOL0     C 2704   9.123   4.012   2.457  0.2284  0.8075 -1.0550
  745MOL0     C 2705   9.247   3.964   2.461 -0.1330 -0.0683 -0.1680
  745MOL0     C 2706   9.302   3.869   2.375 -0.3821  0.6260  0.8795
  745MOL0     C 2707   9.223   3.828   2.266 -0.1320 -0.4904 -0.1274
  745MOL0     O 2708   9.267   3.736   2.168  0.8199  0.8771 -0.2289
  745MOL0     C 2709   9.401   3.752   2.112 -0.2389  0.8321  0.2836
  745MOL0     C 2710   9.434   3.665   1.993  0.0303 -0.2968  0.8684
  745MOL0     C 2711   9.587   3.676   1.956 -0.3577  0.1365  0.1757
  745MOL0     C 2712   9.624   3.574   1.851 -0.1846 -0.2933  0.1332
  745MOL0     C 2713   9.776   3.568   1.825  0.1746  0.2586 -0.4149
  745MOL0     C 2714   9.812   3.497   1.695 -0.1242  0.7499 -0.9686
  745MOL0     C 2715   9.964   3.506   1.655  0.2556 -0.5911 -0.1086
  745MOL0     C 2716  10.040   3.381   1.710 -0.2975  0.3059 -0.5658
  745MOL0    Cl 2717  10.198   3.369   1.636 -0.3372  0.0531 -0.4551
  745MOL0     C 2718   9.094   3.873   2.258  0.9036  0.2246  0.6167
  745MOL0     C 2719   9.043   3.951   2.355  0.0954 -0.6086 -1.4330
  745MOL0     O 2720   8.964   4.230   2.395  0.6461  0.2973  0.0509
  745MOL0     C 2721   8.936   4.424   2.603  0.1282 -0.3484 -0.2287
  745MOL0     C 2722   8.885   4.496   2.712 -0.0082 -0.9091 -0.1151
  745MOL0     N 2723   8.229   4.470   2.933  0.2585 -0.1281 -0.1843
  745MOL0     N 2724   8.101   4.442   2.939 -0.2388 -0.4766  0.6080
  745MOL0     C 2725   7.096   3.894   2.645 -0.1143 -0.1270  0.6210
  745MOL0     C 2726   6.962   3.888   2.663  0.0464  0.3360 -0.3315
  745MOL0     C 2727   6.505   4.033   2.688 -0.2444 -0.0441  0.0988
  745MOL0     C 2728   6.508   3.942   2.801 -0.1673 -0.7680 -0.5032
  745MOL0     C 2729   6.390   3.898   2.861 -0.2730  0.8891 -0.6574
  745MOL0     C 2730   6.270   3.963   2.820  0.9034 -0.6726  0.3009
  745MOL0     O 2731   6.144   3.932   2.876  0.3083 -0.9307  0.3126
  745MOL0     C 2732   6.141   3.835   2.982 -0.0297  0.0717 -0.6829
  745MOL0     C 2733   6.002   3.817   3.039  0.1464  0.8642  0.4065
  745MOL0     C 2734   5.885   3.826   2.928 -0.0052 -0.6252  0.3790
  745MOL0     C 2735   5.750   3.781   2.995 -0.4395  0.2313  0.3863
  745MOL0     C 2736   5.649   3.757   2.895  0.7383 -0.0572  0.4008
  745MOL0     C 2737   5.576   3.741   2.799  0.5436  0.2482  0.1213
  745MOL0     C 2738   6.265   4.063   2.723  0.2560  0.3266 -0.1160
  745MOL0     C 2739   6.379   4.090   2.652  0.3652  0.2631  0.2391
  745MOL0     C 2740   6.368   4.193   2.544  0.3581  0.1714 -0.7287
  745MOL0     H 2741   6.886   4.215   2.667  1.6082  1.0014  0.7114
  745MOL0     H 2742   7.127   4.228   2.630  1.2061 -0.2816 -0.6027
  745MOL0     H 2743   7.390   4.187   2.650  0.0837 -1.0081  1.1302
  745MOL0     H 2744   7.302   4.192   2.500  0.6715  0.3103  1.1390
  745MOL0     H 2745   7.469   4.016   2.410  0.9406 -1.0487  1.0744
  745MOL0     H 2746   7.523   4.177   2.429 -3.4853  2.8749  2.4500
  745MOL0     H 2747   7.569   3.925   2.619 -0.1808  0.3366 -1.5249
  745MOL0     H 2748   7.672   3.968   2.494 -0.8016  0.0535  0.2069
  745MOL0     H 2749   7.610   4.095   2.756  0.1521 -0.0836  0.8213
  745MOL0     H 2750   7.760   4.038   2.712 -0.7116 -0.8229  0.8416
  745MOL0     H 2751   7.636   4.307   2.620  0.5901  0.2033  1.4199
  745MOL0     H 2752   7.760   4.240   2.515  2.5315  1.0797  0.3974
  745MOL0     H 2753   7.815   4.257   2.817  3.4454 -0.3327  0.8046
  745MOL0     H 2754   7.939   4.286   2.687  0.0794  1.2686 -0.3012
  745MOL0     H 2755   7.714   4.483   2.720 -0.1667 -2.2485 -3.1204
  745MOL0     H 2756   7.856   4.497   2.623  2.1560  3.2488  2.0097
  745MOL0     H 2757   7.867   4.618   2.850  0.2926 -0.7905  4.7348
  745MOL0     H 2758   7.845   4.463   2.920 -2.0879 -1.2228 -2.1708
  745MOL0     H 2759   8.103   4.619   2.665 -0.4764  0.4667 -0.8567
  745MOL0     H 2760   8.357   4.701   2.752 -0.0651 -0.7029  0.5520
  745MOL0     H 2761   8.397   4.546   2.670 -0.4403 -0.0321  0.6240
  745MOL0     H 2762   8.447   4.595   2.969  0.2554  0.3131 -0.3148
  745MOL0     H 2763   8.529   4.477   2.880  1.0248  0.9252 -0.1234
  745MOL0     H 2764   8.627   4.661   2.728  0.6967 -0.1021 -0.3836
  745MOL0     H 2765   8.586   4.780   2.850 -0.3888 -0.5041 -0.2544
  745MOL0     H 2766   8.814   4.709   2.878 -0.3269  0.7106 -0.3200
  745MOL0     H 2767   8.721   4.680   3.020 -1.0395 -2.5147 -0.0751
  745MOL0     H 2768   8.783   4.251   2.931  1.7951 -0.2299 -0.1647
  745MOL0     H 2769   8.978   4.039   2.790  0.3543  3.1777  1.3488
  745MOL0     H 2770   8.866   4.015   2.647  1.9400 -1.0482 -0.6335
  745MOL0     H 2771   8.803   4.042   2.815  1.2039 -0.0419  0.8667
  745MOL0     H 2772   9.309   4.004   2.541  0.2966  2.1437 -1.5253
  745MOL0     H 2773   9.409   3.848   2.381 -0.8696 -1.8143  1.8506
  745MOL0     H 2774   9.406   3.858   2.086  1.7177  1.2171  1.9895
  745MOL0     H 2775   9.478   3.714   2.180 -0.4003 -2.2883 -1.1012
  745MOL0     H 2776   9.412   3.561   2.020 -1.9281 -0.1199  0.1505
  745MOL0     H 2777   9.368   3.697   1.911  0.9850 -2.9339 -1.0902
  745MOL0     H 2778   9.658   3.662   2.038 -0.4960 -1.2814  0.0872
  745MOL0     H 2779   9.607   3.776   1.919 -0.1193  0.2045  0.4811
  745MOL0     H 2780   9.566   3.589   1.759 -1.0511 -0.8732  0.5705
  745MOL0     H 2781   9.601   3.471   1.879 -0.7027 -0.9213 -2.3775
  745MOL0     H 2782   9.809   3.672   1.814  1.6453  0.1049  1.7702
  745MOL0     H 2783   9.822   3.518   1.911 -1.3083 -1.4687 -0.5796
  745MOL0     H 2784   9.753   3.540   1.614 -2.7929 -0.9953 -0.0656
  745MOL0     H 2785   9.793   3.389   1.699  1.2339  0.5125  0.5980
  745MOL0     H 2786  10.014   3.597   1.691  0.2219 -1.3227  1.9510
  745MOL0     H 2787   9.959   3.503   1.546 -0.7901 -0.8699 -0.0659
  745MOL0     H 2788   9.983   3.290   1.689  0.6830 -0.7697  1.1744
  745MOL0     H 2789  10.049   3.377   1.819 -1.6183  0.4766 -0.4355
  745MOL0     H 2790   9.029   3.832   2.181 -1.0637  0.8745  1.8442
  745MOL0     H 2791   8.936   3.966   2.366  0.2529 -1.0034  1.3071
  745MOL0     H 2792   8.969   4.474   2.513 -1.1426 -0.3585 -0.7163
  745MOL0     H 2793   8.888   4.605   2.706  0.8389 -0.8091  1.4782
  745MOL0     H 2794   7.160   3.806   2.638  1.5649  0.8721  2.5183
  745MOL0     H 2795   6.917   3.789   2.668  2.8391 -1.0485 -0.5051
  745MOL0     H 2796   6.595   3.889   2.838 -0.0755  0.5011  1.1915
  745MOL0     H 2797   6.382   3.806   2.918 -0.6188  1.5342  0.3730
  745MOL0     H 2798   6.167   3.739   2.937  0.8186  0.3696 -0.8519
  745MOL0     H 2799   6.206   3.877   3.059 -0.8547 -0.5331  0.3641
  745MOL0     H 2800   5.980   3.893   3.114  0.0044  1.6629 -0.4324
  745MOL0     H 2801   5.996   3.721   3.091 -1.7259 -0.2023 -1.6168
  745MOL0     H 2802   5.883   3.931   2.900 -2.1691 -1.0058 -1.1998
  745MOL0     H 2803   5.910   3.772   2.836  1.0301  3.0700 -1.6774
  745MOL0     H 2804   5.717   3.850   3.074  1.4842 -0.2893  1.7182
  745MOL0     H 2805   5.768   3.688   3.050  2.4191  1.6381  2.0432
  745MOL0     H 2806   5.525   3.738   2.705 -0.2732 -1.8152  0.5788
  745MOL0     H 2807   6.175   4.119   2.700  1.1976  2.1940  0.6053
  745MOL0     H 2808   6.267   4.233   2.529  0.8423  2.1474  1.0172
  745MOL0     H 2809   6.435   4.275   2.568 -1.1329  2.2209 -3.0976
  745MOL0     H 2810   6.410   4.137   2.459  0.5338 -3.9307  1.7617
  746MOL0     O 2811  10.472   9.614   9.056  0.1303 -0.8314 -0.5176
  746MOL0     C 2812  10.486   9.608   8.933 -0.8553  0.5530  0.4232
  746MOL0     O 2813  10.563   9.682   8.855 -0.1413 -0.1207 -0.1581
  746MOL0     C 2814  10.632   9.783   8.915 -0.2430  0.2086 -0.1728
  746MOL0     C 2815  10.770   9.766   8.928 -0.7451  0.3053  0.9005
  746MOL0     C 2816  10.841   9.851   9.014 -0.8640  0.3947 -0.2275
  746MOL0     C 2817  10.773   9.950   9.096 -0.0920 -0.0790  0.5978
  746MOL0     O 2818  10.833  10.040   9.178 -0.2176  0.4999  0.3769
  746MOL0     C 2819  10.974  10.067   9.170 -0.9432 -0.7784  0.5176
  746MOL0     C 2820  11.050   9.972   9.260 -0.0263  0.5276  0.2249
  746MOL0     C 2821  11.202  10.019   9.274 -0.1218  0.6261 -0.1823
  746MOL0     C 2822  11.211  10.124   9.381  0.4793  0.6810 -1.0418
  746MOL0     C 2823  11.363  10.158   9.403  0.1952 -0.2647  0.3078
  746MOL0     C 2824  11.396  10.237   9.532  0.3035  0.1454 -0.3611
  746MOL0     C 2825  11.553  10.245   9.545  0.2210 -1.3689  0.4336
  746MOL0     C 2826  11.591  10.291   9.688  0.5946 -0.5049 -0.1467
  746MOL0     N 2827  11.731  10.264   9.697 -0.5060 -0.4527 -0.5793
  746MOL0     C 2828  11.831  10.334   9.628  0.2079  0.5947  0.2481
  746MOL0     C 2829  11.941  10.259   9.647 -0.5372 -0.5044  0.5672
  746MOL0     C 2830  12.075  10.268   9.580 -0.5160 -0.4878  0.4222
  746MOL0     C 2831  12.178  10.334   9.679  0.0947  0.2708  1.4789
  746MOL0     C 2832  12.177  10.479   9.682 -0.0505 -0.3450 -0.0649
  746MOL0     C 2833  12.254  10.535   9.806  0.2450 -0.7949 -0.4455
  746MOL0     O 2834  12.389  10.485   9.798 -0.0396  0.6565 -0.1011
  746MOL0     C 2835  12.452  10.464   9.918  1.0594 -0.6210 -0.0872
  746MOL0     C 2836  12.506  10.570   9.983 -0.2265  0.5691 -0.2086
  746MOL0     C 2837  12.561  10.563  10.109  0.1747 -0.1947 -0.7786
  746MOL0     C 2838  12.605  10.690  10.178  0.7568 -0.7457 -0.4614
  746MOL0     C 2839  12.575  10.433  10.173  0.5893  0.6461 -0.1133
  746MOL0     C 2840  12.634  10.401  10.300 -0.2846  0.1632  0.2302
  746MOL0     O 2841  12.609  10.483  10.403 -0.0637  0.5192  0.5653
  746MOL0     C 2842  12.681  10.470  10.524 -0.0093 -0.3538  0.2705
  746MOL0     C 2843  12.612  10.520  10.636 -0.2833  0.1426 -0.3517
  746MOL0     C 2844  12.685  10.529  10.758  0.5149  0.6344 -0.7205
  746MOL0     C 2845  12.817  10.493  10.769  0.9737  0.0524  0.1651
  746MOL0     O 2846  12.896  10.517  10.877  0.1879  1.2195 -0.5533
  746MOL0     C 2847  12.895  10.652  10.923  0.7049  0.0240  0.2048
  746MOL0     C 2848  12.985  10.690  11.047 -0.2650  0.2078 -0.5956
  746MOL0     C 2849  13.132  10.664  11.023 -0.3418  0.2304  0.7104
  746MOL0     C 2850  13.232  10.711  11.128  0.2056  0.5721 -0.0921
  746MOL0     C 2851  13.374  10.680  11.084  0.3776 -0.7310  0.5972
  746MOL0     C 2852  13.474  10.710  11.201  0.4679 -0.2245 -0.0442
  746MOL0     C 2853  13.616  10.694  11.140  0.1368 -0.0661 -0.1647
  746MOL0     C 2854  13.717  10.737  11.236 -0.0067  0.7194  0.3692
  746MOL0    Cl 2855  13.868  10.637  11.219 -0.1345  0.5561  0.4293
  746MOL0     C 2856  12.878  10.435  10.658 -0.5936  0.2166 -0.3129
  746MOL0     C 2857  12.814  10.424  10.530  0.7625  0.8103  0.1394
  746MOL0     O 2858  12.705  10.296  10.309  0.4949 -0.3937  0.0275
  746MOL0     C 2859  12.537  10.323  10.090 -0.7130 -0.2728 -0.2319
  746MOL0     C 2860  12.473  10.336   9.963 -0.4338 -0.7430 -0.6057
  746MOL0     N 2861  11.912  10.152   9.728  0.0931 -1.1245  0.4152
  746MOL0     N 2862  11.785  10.158   9.764  0.1957 -0.5148 -0.4128
  746MOL0     C 2863  10.635   9.966   9.075 -0.1225 -0.3049  0.5189
  746MOL0     C 2864  10.570   9.892   8.974 -0.1627 -0.4813 -0.5440
  746MOL0     C 2865  10.404   9.510   8.855 -0.4037  0.8085 -0.2381
  746MOL0     C 2866  10.469   9.453   8.747 -0.2433  0.1294 -0.5177
  746MOL0     C 2867  10.415   9.346   8.678  1.0575 -0.7610  0.0844
  746MOL0     C 2868  10.279   9.312   8.705 -0.7700 -0.2225 -0.6182
  746MOL0     O 2869  10.211   9.215   8.631  0.6075 -0.9629 -1.3045
  746MOL0     C 2870  10.268   9.157   8.515 -0.5565  0.8935  0.3953
  746MOL0     C 2871  10.361   9.040   8.551  0.0571  0.4207 -0.1735
  746MOL0     C 2872  10.423   8.972   8.430  0.3000  0.3991  0.2334
  746MOL0     C 2873  10.477   8.830   8.485  1.2575 -0.7308 -0.4581
  746MOL0     C 2874  10.590   8.778   8.410  0.0127  1.2089 -0.0760
  746MOL0     C 2875  10.673   8.719   8.347 -0.4195 -0.3505  0.1263
  746MOL0     C 2876  10.211   9.372   8.808  0.0145 -0.5204 -0.8697
  746MOL0     C 2877  10.273   9.463   8.891  0.3220 -1.3498 -0.0484
  746MOL0     C 2878  10.202   9.517   9.013  0.5634 -0.1044 -0.5334
  746MOL0     H 2879  10.821   9.689   8.871 -2.3449  0.1040 -0.3292
  746MOL0     H 2880  10.948   9.841   9.023 -0.9490  0.8283  1.9080
  746MOL0     H 2881  10.988  10.172   9.196  1.5585 -0.3727 -1.9527
  746MOL0     H 2882  11.028  10.052   9.076  0.6243  0.0996  1.2460
  746MOL0     H 2883  10.996   9.969   9.355 -0.5759  1.0271 -0.0656
  746MOL0     H 2884  11.058   9.871   9.219  2.9549 -0.8128  3.5789
  746MOL0     H 2885  11.250   9.933   9.319  0.2488  0.7877 -0.2661
  746MOL0     H 2886  11.253  10.040   9.179  0.4291 -2.3921 -0.6525
  746MOL0     H 2887  11.162  10.215   9.344 -0.2516  0.6188 -0.2689
  746MOL0     H 2888  11.161  10.093   9.473  0.8110  2.5588 -0.1683
  746MOL0     H 2889  11.393  10.207   9.310 -1.2868  3.1461  1.4654
  746MOL0     H 2890  11.413  10.060   9.400 -2.8723 -2.0259  1.6911
  746MOL0     H 2891  11.350  10.337   9.527 -0.5055 -0.2358 -0.7633
  746MOL0     H 2892  11.349  10.192   9.620  0.9705  4.8859  2.7792
  746MOL0     H 2893  11.607  10.309   9.474  1.7529 -0.4912  2.3037
  746MOL0     H 2894  11.582  10.140   9.535 -2.9189 -2.2561 -0.7853
  746MOL0     H 2895  11.576  10.399   9.697  1.2784 -0.5442  2.3354
  746MOL0     H 2896  11.529  10.241   9.762 -0.6477  1.6395  0.3593
  746MOL0     H 2897  11.826  10.417   9.558 -1.3270 -1.0608 -1.7349
  746MOL0     H 2898  12.073  10.322   9.485 -0.8122  1.0450  1.2497
  746MOL0     H 2899  12.103  10.164   9.562 -1.8989 -0.8469  0.2527
  746MOL0     H 2900  12.164  10.281   9.773  0.3804  2.5947  2.9082
  746MOL0     H 2901  12.280  10.308   9.647 -0.5043 -0.4371  0.0758
  746MOL0     H 2902  12.207  10.515   9.583  0.0194 -0.0325  0.0676
  746MOL0     H 2903  12.072  10.509   9.689 -0.2014 -0.9462  0.3505
  746MOL0     H 2904  12.254  10.644   9.796 -1.0661 -0.7101  0.1710
  746MOL0     H 2905  12.214  10.506   9.903 -0.4828 -1.8451 -1.0389
  746MOL0     H 2906  12.506  10.667   9.934 -1.6352 -0.1663 -1.7678
  746MOL0     H 2907  12.623  10.685  10.286 -2.1337  0.9378  0.1924
  746MOL0     H 2908  12.528  10.765  10.160  0.2839 -1.6331 -2.3768
  746MOL0     H 2909  12.697  10.732  10.136  0.0522  0.6390 -0.6537
  746MOL0     H 2910  12.512  10.560  10.621 -0.3560  0.2431  0.3512
  746MOL0     H 2911  12.627  10.567  10.841 -1.3207 -1.1048 -1.1455
  746MOL0     H 2912  12.935  10.714  10.842 -1.8732 -2.0887 -2.9099
  746MOL0     H 2913  12.792  10.685  10.939  1.0344  0.4565  1.5540
  746MOL0     H 2914  12.976  10.795  11.074 -1.9148 -0.1982  0.5803
  746MOL0     H 2915  12.943  10.643  11.137  0.6889  2.9349  1.3908
  746MOL0     H 2916  13.159  10.708  10.927  0.8020 -1.1206  0.3828
  746MOL0     H 2917  13.135  10.555  11.020 -0.1117  0.2331  0.7895
  746MOL0     H 2918  13.204  10.660  11.220  0.9497 -0.3278 -0.3533
  746MOL0     H 2919  13.227  10.818  11.150 -2.9466  0.1795  1.6490
  746MOL0     H 2920  13.380  10.573  11.059  1.3190 -0.1959 -1.7336
  746MOL0     H 2921  13.398  10.728  10.989  1.2550  1.0189  1.6647
  746MOL0     H 2922  13.444  10.642  11.281 -2.6609  0.5117 -0.4679
  746MOL0     H 2923  13.459  10.813  11.235  1.7456  0.4256 -1.3264
  746MOL0     H 2924  13.626  10.743  11.042 -2.7924 -2.8168 -2.0599
  746MOL0     H 2925  13.628  10.589  11.112 -0.2872  0.5273 -2.9682
  746MOL0     H 2926  13.676  10.731  11.337  0.3764  0.1891  0.4948
  746MOL0     H 2927  13.738  10.844  11.230  1.4644  0.4054 -0.6989
  746MOL0     H 2928  12.983  10.410  10.648 -0.8433 -1.3297  0.6477
  746MOL0     H 2929  12.869  10.379  10.448 -0.0346 -1.9891  1.0547
  746MOL0     H 2930  12.530  10.226  10.138 -0.7553 -1.8713 -3.2403
  746MOL0     H 2931  12.438  10.253   9.902  0.8453 -0.6179 -1.5753
  746MOL0     H 2932  10.572  10.044   9.116 -0.9531 -0.8046  0.2238
  746MOL0     H 2933  10.462   9.905   8.966 -0.5618 -2.4847  0.7880
  746MOL0     H 2934  10.569   9.486   8.720 -0.6891  0.1453 -2.2807
  746MOL0     H 2935  10.468   9.293   8.600  0.2594 -1.2669 -0.1239
  746MOL0     H 2936  10.187   9.127   8.448 -1.7318  1.6734  1.4109
  746MOL0     H 2937  10.318   9.237   8.460 -0.3498 -1.2016 -2.6652
  746MOL0     H 2938  10.312   8.967   8.616  0.4760  0.1579 -0.1450
  746MOL0     H 2939  10.447   9.072   8.611  0.3350 -0.4557 -0.0873
  746MOL0     H 2940  10.339   8.959   8.361 -2.0405  3.2124  2.2996
  746MOL0     H 2941  10.507   9.030   8.390 -0.0043  0.6727 -0.0071
  746MOL0     H 2942  10.407   8.747   8.475  1.5012 -0.8621 -1.1115
  746MOL0     H 2943  10.502   8.825   8.592 -0.2416 -2.6851 -0.1397
  746MOL0     H 2944  10.742   8.662   8.288 -0.5332 -1.4419  1.0225
  746MOL0     H 2945  10.113   9.335   8.835  0.4046  1.0267  3.4538
  746MOL0     H 2946  10.180   9.623   9.000 -3.5054 -0.9166 -1.8119
  746MOL0     H 2947  10.098   9.482   9.013 -0.1652  1.7983  1.6122
  746MOL0     H 2948  10.232   9.487   9.114 -1.0347  0.6248  0.1977
  747MOL0     O 2949   1.822   9.581   1.885  0.1584 -1.0348 -0.7488
  747MOL0     C 2950   1.755   9.685   1.865 -0.0928  0.1392 -0.3513
  747MOL0     O 2951   1.804   9.792   1.792  0.1925 -1.1996 -0.0890
  747MOL0     C 2952   1.935   9.790   1.738 -1.0013 -0.0224 -0.9215
  747MOL0     C 2953   2.022   9.896   1.768 -0.0605  0.0582  0.8874
  747MOL0     C 2954   2.139   9.909   1.691 -0.1616 -0.1688  1.2338
  747MOL0     C 2955   2.182   9.815   1.606  0.8239  0.2348 -0.3659
  747MOL0     O 2956   2.297   9.845   1.544  0.2851  0.2125 -0.3967
  747MOL0     C 2957   2.355   9.734   1.471 -0.0034 -0.9030  0.3668
  747MOL0     C 2958   2.494   9.772   1.418  0.2421  0.3014 -0.3926
  747MOL0     C 2959   2.605   9.765   1.515 -0.1770 -0.3596 -0.1777
  747MOL0     C 2960   2.566   9.849   1.638 -0.6021 -1.0504  0.1299
  747MOL0     C 2961   2.693   9.866   1.726  0.6284 -0.3814  0.3657
  747MOL0     C 2962   2.797   9.969   1.674 -0.2770  0.1427  0.7168
  747MOL0     C 2963   2.916   9.988   1.782  0.1877 -0.0383  0.8527
  747MOL0     C 2964   2.999   9.864   1.811  0.6658 -0.1621 -0.5481
  747MOL0     N 2965   3.110   9.851   1.719 -0.2304 -0.7957  0.0644
  747MOL0     C 2966   3.119   9.872   1.582  0.2216 -0.1120  0.4438
  747MOL0     C 2967   3.248   9.840   1.550  0.3513  0.1944 -0.1469
  747MOL0     C 2968   3.298   9.854   1.405  0.0023 -0.4194  0.0898
  747MOL0     C 2969   3.439   9.817   1.361  0.3349 -0.1538 -0.1795
  747MOL0     C 2970   3.470   9.835   1.204 -0.3068  0.8743 -0.3873
  747MOL0     C 2971   3.607   9.798   1.170  0.6915  0.3732  0.3923
  747MOL0     O 2972   3.647   9.865   1.046  0.4638  0.7819  0.4367
  747MOL0     C 2973   3.778   9.865   1.003 -0.3404 -0.6152  0.8532
  747MOL0     C 2974   3.819   9.932   0.881 -0.8843  0.5011  0.7415
  747MOL0     C 2975   3.957   9.937   0.850  0.7605 -0.2288 -0.4656
  747MOL0     C 2976   4.004   9.993   0.716 -0.1026  0.2169 -0.4008
  747MOL0     C 2977   4.060   9.883   0.932  0.3640  0.0277  0.6187
  747MOL0     C 2978   4.200   9.879   0.905 -0.4667 -0.7309  0.6751
  747MOL0     O 2979   4.281   9.885   1.011  0.0491  0.7260 -0.1401
  747MOL0     C 2980   4.388   9.796   1.008  0.4631  0.0675 -0.1701
  747MOL0     C 2981   4.365   9.673   1.070  0.6134  0.1741 -0.8443
  747MOL0     C 2982   4.454   9.571   1.058  0.4397  0.9425 -0.0566
  747MOL0     C 2983   4.568   9.578   0.980 -0.1225 -0.4258 -0.4785
  747MOL0     O 2984   4.648   9.466   0.980 -0.1535  0.5102 -0.7774
  747MOL0     C 2985   4.785   9.489   0.932  0.2612 -0.9809 -0.7631
  747MOL0     C 2986   4.872   9.369   0.948 -0.3359  0.5970  0.1021
  747MOL0     C 2987   5.008   9.377   0.881 -0.3242  0.2587  0.5301
  747MOL0     C 2988   5.040   9.251   0.787  0.1822 -0.3050  0.0884
  747MOL0     C 2989   5.178   9.232   0.735 -0.1190 -0.0798 -0.5646
  747MOL0     C 2990   5.291   9.212   0.835 -0.7383  0.6841 -0.0187
  747MOL0     C 2991   5.426   9.198   0.764 -0.5275  0.1771  0.2214
  747MOL0     C 2992   5.546   9.188   0.868  0.2384  0.4389 -0.4281
  747MOL0    Cl 2993   5.702   9.236   0.808  0.0523  0.2015  0.3619
  747MOL0     C 2994   4.594   9.704   0.923 -0.2686 -0.9361  0.6005
  747MOL0     C 2995   4.514   9.818   0.948  0.9496 -0.5291 -0.0225
  747MOL0     O 2996   4.235   9.848   0.789  0.2200  0.8978  0.6736
  747MOL0     C 2997   4.011   9.803   1.037  0.1251  0.2261  0.4921
  747MOL0     C 2998   3.882   9.800   1.066  0.0461  0.0499  0.3565
  747MOL0     N 2999   3.313   9.791   1.660 -0.4284 -0.0829 -0.1032
  747MOL0     N 3000   3.227   9.796   1.759  0.2629  0.0325 -0.3330
  747MOL0     C 3001   2.098   9.704   1.578  1.1048  0.3398  0.0084
  747MOL0     C 3002   1.969   9.700   1.640 -0.5664  0.7799 -0.6234
  747MOL0     C 3003   1.615   9.686   1.921  0.2128 -0.1774 -0.4730
  747MOL0     C 3004   1.561   9.567   1.972  0.2485  0.3358 -0.4417
  747MOL0     C 3005   1.442   9.553   2.040 -0.0614  0.2260  0.2729
  747MOL0     C 3006   1.367   9.671   2.057  0.0651  0.1452  0.2666
  747MOL0     O 3007   1.238   9.671   2.111 -0.2297 -0.3239 -0.5637
  747MOL0     C 3008   1.173   9.551   2.170 -1.0096 -0.2648  0.9609
  747MOL0     C 3009   1.138   9.434   2.072 -0.5487 -0.3279 -0.3443
  747MOL0     C 3010   1.165   9.299   2.141  0.0222  0.5324  0.0471
  747MOL0     C 3011   1.157   9.173   2.058 -0.6018  0.5156 -0.0513
  747MOL0     C 3012   1.029   9.154   1.985 -0.5744  0.3505  0.4626
  747MOL0     C 3013   0.939   9.120   1.916 -0.7146  0.6347  0.0249
  747MOL0     C 3014   1.414   9.786   2.006  0.0258 -0.4534 -0.5281
  747MOL0     C 3015   1.533   9.802   1.929  0.9539 -0.5644 -0.8041
  747MOL0     C 3016   1.571   9.939   1.874  0.2364 -0.1094  0.0756
  747MOL0     H 3017   1.993   9.977   1.833  0.6742  0.3127  0.9104
  747MOL0     H 3018   2.187  10.004   1.713  1.4253 -0.1260 -1.9041
  747MOL0     H 3019   2.287   9.723   1.385  0.0303  2.7276 -0.3045
  747MOL0     H 3020   2.361   9.642   1.529  3.0335 -0.8414  0.3046
  747MOL0     H 3021   2.516   9.710   1.330 -1.5166  0.0007 -0.6620
  747MOL0     H 3022   2.491   9.877   1.387  2.6071  1.5413  2.9820
  747MOL0     H 3023   2.624   9.662   1.547 -0.2912 -0.0038  1.0942
  747MOL0     H 3024   2.694   9.796   1.459 -1.3754  1.6241 -1.1084
  747MOL0     H 3025   2.535   9.951   1.615  0.4305 -0.2111  2.1910
  747MOL0     H 3026   2.488   9.795   1.693 -0.0158 -3.2648 -1.1149
  747MOL0     H 3027   2.739   9.767   1.734 -2.0717 -1.7734 -0.0038
  747MOL0     H 3028   2.669   9.892   1.829  0.1016  0.7555 -0.0334
  747MOL0     H 3029   2.841   9.941   1.577  0.9125 -0.7962  1.4921
  747MOL0     H 3030   2.743  10.063   1.659 -1.1002 -0.4048  0.2044
  747MOL0     H 3031   2.862  10.017   1.873  3.7533  3.2788  2.1775
  747MOL0     H 3032   2.972  10.075   1.747 -1.0961  1.8009  3.1414
  747MOL0     H 3033   3.028   9.866   1.916  0.4891  1.9179 -0.5064
  747MOL0     H 3034   2.935   9.776   1.802  0.5224  0.0358 -1.6108
  747MOL0     H 3035   3.043   9.917   1.519 -2.3383 -1.9227  2.0291
  747MOL0     H 3036   3.276   9.957   1.374  2.2717  0.1689  0.2203
  747MOL0     H 3037   3.241   9.782   1.347 -0.3839  2.0555 -2.8441
  747MOL0     H 3038   3.504   9.883   1.418  2.6392 -1.0532 -1.6202
  747MOL0     H 3039   3.460   9.713   1.388  0.9629  0.5985  2.5523
  747MOL0     H 3040   3.385   9.800   1.145 -0.1752  0.2436 -0.2072
  747MOL0     H 3041   3.473   9.944   1.194  1.8672  0.7545 -1.5945
  747MOL0     H 3042   3.680   9.824   1.247 -0.3469  1.1042  1.1494
  747MOL0     H 3043   3.621   9.690   1.159  1.3157  0.5793 -1.0442
  747MOL0     H 3044   3.743   9.985   0.824 -3.0843  0.8907  3.7997
  747MOL0     H 3045   4.022   9.906   0.651 -1.3701 -1.0589  0.8836
  747MOL0     H 3046   4.095  10.053   0.722  0.4653 -0.6308 -0.3629
  747MOL0     H 3047   3.926  10.054   0.669  1.7217  1.1891 -2.3368
  747MOL0     H 3048   4.277   9.650   1.130  1.9933  2.1640  2.2063
  747MOL0     H 3049   4.445   9.489   1.129  0.3464  1.2832  0.3264
  747MOL0     H 3050   4.777   9.515   0.826 -0.8683  1.1183 -0.2267
  747MOL0     H 3051   4.833   9.572   0.985 -3.5194  1.3159 -0.5847
  747MOL0     H 3052   4.883   9.348   1.054  4.8681 -3.9528 -0.8879
  747MOL0     H 3053   4.816   9.288   0.899  0.3823 -1.6127  2.6806
  747MOL0     H 3054   5.075   9.371   0.968 -2.2046  0.6618  2.0985
  747MOL0     H 3055   5.015   9.473   0.829  0.5585  1.3910  2.6081
  747MOL0     H 3056   4.973   9.260   0.701 -0.0005  1.9022  0.3945
  747MOL0     H 3057   5.010   9.157   0.834 -2.9230  0.0629 -0.9336
  747MOL0     H 3058   5.179   9.135   0.685  1.1173 -0.9342  1.0364
  747MOL0     H 3059   5.205   9.317   0.671 -1.4796  3.4398  3.0443
  747MOL0     H 3060   5.277   9.125   0.900  0.4485 -0.4225 -1.1721
  747MOL0     H 3061   5.291   9.302   0.897 -0.6057  0.7550 -0.1217
  747MOL0     H 3062   5.443   9.289   0.705  2.4083 -0.2142  0.3133
  747MOL0     H 3063   5.431   9.111   0.698 -0.1375 -0.2145  0.7624
  747MOL0     H 3064   5.558   9.088   0.911  1.1543 -0.4713 -2.6602
  747MOL0     H 3065   5.519   9.253   0.952  0.0542  0.7630 -0.7369
  747MOL0     H 3066   4.680   9.728   0.861 -1.6614 -0.9238 -1.4353
  747MOL0     H 3067   4.553   9.908   0.902  3.0408 -1.9382 -1.1943
  747MOL0     H 3068   4.087   9.760   1.102 -0.9238 -3.7251 -0.6838
  747MOL0     H 3069   3.862   9.741   1.155 -0.9158 -0.5432 -0.2283
  747MOL0     H 3070   2.118   9.623   1.509  0.4601  0.9012 -0.8553
  747MOL0     H 3071   1.898   9.619   1.639 -1.1130  1.1660  1.3650
  747MOL0     H 3072   1.619   9.477   1.956  1.2245  0.6856  0.9036
  747MOL0     H 3073   1.401   9.456   2.065  3.4827 -1.3441  0.5980
  747MOL0     H 3074   1.248   9.510   2.238 -2.3454  0.8606  3.2520
  747MOL0     H 3075   1.083   9.586   2.223 -2.2611 -0.5355 -0.8779
  747MOL0     H 3076   1.193   9.441   1.978  2.1443 -0.5867  1.1286
  747MOL0     H 3077   1.030   9.451   2.056 -1.2649 -2.5885  1.6329
  747MOL0     H 3078   1.261   9.291   2.194 -0.2908 -1.3650  0.4101
  747MOL0     H 3079   1.091   9.279   2.220 -2.4342 -0.7325 -2.4202
  747MOL0     H 3080   1.172   9.086   2.122  3.2552  2.0243  1.4047
  747MOL0     H 3081   1.243   9.166   1.991 -0.3520 -1.3421  0.4047
  747MOL0     H 3082   0.867   9.080   1.847  1.1174 -3.5441  0.2572
  747MOL0     H 3083   1.349   9.873   2.010  1.0560  0.3314 -0.2868
  747MOL0     H 3084   1.589   9.928   1.767  1.6394 -0.7186  0.3398
  747MOL0     H 3085   1.494  10.012   1.900  0.0104 -0.4969  0.5098
  747MOL0     H 3086   1.662   9.982   1.918 -0.2355 -0.2280  1.1965
  748MOL0     O 3087  11.378   4.297   8.313 -0.2678 -0.2258 -0.2544
  748MOL0     C 3088  11.359   4.282   8.192  0.1384 -0.8498  1.3668
  748MOL0     O 3089  11.453   4.253   8.094  0.3490  0.3981 -0.7061
  748MOL0     C 3090  11.570   4.218   8.151 -0.7778 -0.8226  0.6944
  748MOL0     C 3091  11.677   4.314   8.162  0.6454 -0.0710  0.3703
  748MOL0     C 3092  11.804   4.263   8.204 -0.3711  0.6721 -0.0629
  748MOL0     C 3093  11.835   4.121   8.221 -0.3705 -0.2599  0.1345
  748MOL0     O 3094  11.969   4.099   8.249 -0.4304 -0.6976 -1.2113
  748MOL0     C 3095  12.005   3.977   8.327  0.8630  0.2640 -0.1927
  748MOL0     C 3096  12.152   3.957   8.360 -1.4496  0.7825  0.0032
  748MOL0     C 3097  12.200   4.104   8.402 -0.1255  0.4760  0.0778
  748MOL0     C 3098  12.332   4.100   8.472  0.9769 -0.1711 -0.2236
  748MOL0     C 3099  12.401   4.234   8.482 -0.1111  0.5562  0.4490
  748MOL0     C 3100  12.536   4.214   8.563  1.0705  0.2603  1.0113
  748MOL0     C 3101  12.596   4.354   8.599  0.0531 -0.0944  0.3564
  748MOL0     C 3102  12.714   4.353   8.699  0.2110  0.4813 -0.4585
  748MOL0     N 3103  12.669   4.300   8.836  0.5327 -0.0162  1.0598
  748MOL0     C 3104  12.678   4.170   8.875  0.2619  0.6218  0.1350
  748MOL0     C 3105  12.636   4.165   9.003  1.1998 -0.1972  0.5315
  748MOL0     C 3106  12.656   4.044   9.085 -0.3901 -0.2843  0.4365
  748MOL0     C 3107  12.621   4.075   9.229 -0.5443  1.7141  0.4913
  748MOL0     C 3108  12.606   3.945   9.317  0.5470  0.2054  0.1815
  748MOL0     C 3109  12.742   3.872   9.339 -0.0128  0.1200  0.0966
  748MOL0     O 3110  12.717   3.757   9.425 -0.6918  0.7368  0.1396
  748MOL0     C 3111  12.816   3.663   9.437  0.5822  0.3528 -0.2849
  748MOL0     C 3112  12.773   3.538   9.491 -0.5541  0.3975  0.6090
  748MOL0     C 3113  12.864   3.437   9.518 -0.7286 -0.5478 -0.1926
  748MOL0     C 3114  12.807   3.306   9.572 -0.2580  0.3280  0.5688
  748MOL0     C 3115  13.002   3.453   9.474  0.6965  0.2056  0.4966
  748MOL0     C 3116  13.099   3.346   9.485  0.2151  0.2876 -0.7566
  748MOL0     O 3117  13.080   3.249   9.577 -0.3129  0.9464  0.0708
  748MOL0     C 3118  13.178   3.153   9.607 -1.0277 -0.3733  0.5677
  748MOL0     C 3119  13.212   3.128   9.739  0.1862 -0.0250  0.1574
  748MOL0     C 3120  13.297   3.029   9.777  0.5265 -0.0067 -0.2176
  748MOL0     C 3121  13.356   2.947   9.682 -0.7721  0.2337  1.3145
  748MOL0     O 3122  13.430   2.838   9.708  0.3185 -0.3391 -0.4908
  748MOL0     C 3123  13.416   2.796   9.846 -0.8382 -0.2456  0.0367
  748MOL0     C 3124  13.483   2.653   9.857  0.3283  0.2251 -0.3356
  748MOL0     C 3125  13.636   2.666   9.859  0.7063 -0.2197 -0.2871
  748MOL0     C 3126  13.701   2.535   9.825  0.5962 -0.3856  0.3528
  748MOL0     C 3127  13.858   2.548   9.815  0.5780 -0.0276 -0.5952
  748MOL0     C 3128  13.919   2.415   9.789 -0.4176  0.6527 -0.0116
  748MOL0     C 3129  14.075   2.425   9.805  0.1305  0.3313  1.0382
  748MOL0     C 3130  14.131   2.294   9.841 -0.5787  0.5115 -0.5433
  748MOL0    Cl 3131  14.104   2.271  10.014  0.0513 -0.1843 -0.0194
  748MOL0     C 3132  13.329   2.966   9.547 -0.4598  0.5834  0.2685
  748MOL0     C 3133  13.241   3.067   9.504  0.3383  0.0954 -0.6489
  748MOL0     O 3134  13.198   3.345   9.408  0.4363  0.0714 -0.7668
  748MOL0     C 3135  13.048   3.579   9.429  0.7840  0.0638 -0.6134
  748MOL0     C 3136  12.950   3.684   9.409 -0.8319  0.6036 -0.0895
  748MOL0     N 3137  12.577   4.290   9.027  0.6264 -0.0380 -0.4433
  748MOL0     N 3138  12.586   4.367   8.926  0.0400  0.5126  0.6490
  748MOL0     C 3139  11.729   4.030   8.210  0.4294 -0.2469  0.3014
  748MOL0     C 3140  11.597   4.081   8.175 -0.2183  0.1942  0.3022
  748MOL0     C 3141  11.219   4.315   8.141  0.1493  0.6638  0.0514
  748MOL0     C 3142  11.190   4.302   8.003 -0.3451 -0.2478 -0.4965
  748MOL0     C 3143  11.064   4.296   7.951 -0.4483  0.6389 -0.0466
  748MOL0     C 3144  10.960   4.322   8.035  0.1954  0.3604 -0.4856
  748MOL0     O 3145  10.826   4.297   8.018  0.5184  0.3199 -0.1858
  748MOL0     C 3146  10.782   4.244   7.893  0.4753  0.6267  0.6735
  748MOL0     C 3147  10.632   4.260   7.875  0.2814 -0.5086  0.0877
  748MOL0     C 3148  10.587   4.219   7.733  0.5470  0.3501  0.6307
  748MOL0     C 3149  10.437   4.211   7.705 -0.0725  0.0310  0.0328
  748MOL0     C 3150  10.418   4.199   7.560  0.2049 -0.8552 -0.7775
  748MOL0     C 3151  10.412   4.198   7.438  0.2904  0.5190 -0.4489
  748MOL0     C 3152  10.976   4.363   8.167  0.1978 -0.4803 -0.0276
  748MOL0     C 3153  11.108   4.364   8.220 -0.2492  0.1211  0.0543
  748MOL0     C 3154  11.126   4.411   8.362  0.6708 -0.3937 -1.0517
  748MOL0     H 3155  11.667   4.418   8.134 -1.0650 -0.5577 -1.0338
  748MOL0     H 3156  11.875   4.346   8.209 -0.9898  1.2166 -0.1307
  748MOL0     H 3157  11.979   3.886   8.273 -0.8531  0.0383  0.9306
  748MOL0     H 3158  11.952   3.972   8.423  2.3457  0.4788  0.6726
  748MOL0     H 3159  12.168   3.881   8.437  3.5995 -0.5302 -1.8921
  748MOL0     H 3160  12.199   3.909   8.273 -1.9845 -0.7179  0.4964
  748MOL0     H 3161  12.208   4.167   8.312  0.0529 -0.1969 -0.3895
  748MOL0     H 3162  12.128   4.155   8.466  0.5723  0.8597  0.5760
  748MOL0     H 3163  12.315   4.053   8.569 -1.5069 -1.8371 -1.3559
  748MOL0     H 3164  12.398   4.030   8.419  0.6841 -0.2272 -0.5234
  748MOL0     H 3165  12.331   4.306   8.526  0.0478  1.6360 -1.0057
  748MOL0     H 3166  12.431   4.276   8.386  1.2682  0.6678  0.9032
  748MOL0     H 3167  12.525   4.163   8.660  2.6426 -0.2455  0.9482
  748MOL0     H 3168  12.602   4.163   8.493  0.0433  2.4339 -1.6987
  748MOL0     H 3169  12.517   4.418   8.640  1.9046  1.8301  1.1319
  748MOL0     H 3170  12.643   4.391   8.507 -0.3423  0.4291  0.3575
  748MOL0     H 3171  12.799   4.303   8.651 -1.9246 -1.4355 -2.5608
  748MOL0     H 3172  12.741   4.458   8.712 -1.8148  0.7903  2.0832
  748MOL0     H 3173  12.733   4.094   8.821 -0.6502  0.3073 -0.3775
  748MOL0     H 3174  12.758   4.006   9.076 -0.2309  0.4183 -0.9748
  748MOL0     H 3175  12.589   3.962   9.059  0.4287 -0.6826 -0.4534
  748MOL0     H 3176  12.683   4.151   9.278  1.0531  0.7858 -0.0157
  748MOL0     H 3177  12.523   4.124   9.222 -0.4582  1.6991 -1.1475
  748MOL0     H 3178  12.555   3.981   9.407 -0.8168  0.2574 -0.5811
  748MOL0     H 3179  12.530   3.873   9.286 -1.8088  1.8427  1.8141
  748MOL0     H 3180  12.781   3.841   9.241  2.1910 -0.3730  1.0710
  748MOL0     H 3181  12.819   3.938   9.380 -0.3068  0.8201 -0.4644
  748MOL0     H 3182  12.666   3.541   9.505 -0.6725  0.3522 -0.2772
  748MOL0     H 3183  12.701   3.301   9.544  0.1992  1.6802 -1.6975
  748MOL0     H 3184  12.808   3.322   9.680  2.5542 -0.3993  0.7231
  748MOL0     H 3185  12.856   3.217   9.531  1.3601  1.4701 -0.0851
  748MOL0     H 3186  13.174   3.187   9.822  0.0530 -0.9282  0.7549
  748MOL0     H 3187  13.321   3.005   9.880 -1.3829  0.2270  0.3221
  748MOL0     H 3188  13.473   2.864   9.910  1.4218  0.8983 -2.9050
  748MOL0     H 3189  13.312   2.777   9.872 -1.1211  0.0686 -0.8344
  748MOL0     H 3190  13.456   2.609   9.954  2.0570  0.4990  0.3128
  748MOL0     H 3191  13.455   2.604   9.763  2.1511  0.8414 -1.2350
  748MOL0     H 3192  13.678   2.708   9.951 -0.5777  1.9709 -0.6415
  748MOL0     H 3193  13.660   2.729   9.773  2.0443 -0.3805 -0.0542
  748MOL0     H 3194  13.662   2.497   9.730 -0.9312  3.2438 -0.6092
  748MOL0     H 3195  13.679   2.454   9.895 -0.1746  1.1753  1.9852
  748MOL0     H 3196  13.886   2.615   9.733 -1.5927  0.7286 -0.7922
  748MOL0     H 3197  13.891   2.592   9.910 -2.1875  3.5925 -1.1087
  748MOL0     H 3198  13.890   2.385   9.688  2.5837 -2.0762 -0.2219
  748MOL0     H 3199  13.873   2.352   9.865 -1.0197  1.6423  0.4676
  748MOL0     H 3200  14.105   2.501   9.878  0.5604  0.9894  0.1964
  748MOL0     H 3201  14.106   2.446   9.702 -4.3551  2.2413 -0.1434
  748MOL0     H 3202  14.238   2.287   9.820 -0.1980  0.6434  1.1647
  748MOL0     H 3203  14.092   2.212   9.779 -1.9500  1.2055 -0.6365
  748MOL0     H 3204  13.387   2.906   9.478 -2.1341  0.8856 -1.5017
  748MOL0     H 3205  13.202   3.075   9.403  3.4982 -1.3865 -2.1337
  748MOL0     H 3206  13.150   3.584   9.394  1.7154 -0.0691  1.8808
  748MOL0     H 3207  12.996   3.777   9.375  0.1139  0.9567  1.9592
  748MOL0     H 3208  11.753   3.925   8.228 -1.1753 -0.7294 -0.2045
  748MOL0     H 3209  11.515   4.015   8.151  0.2140  0.0126 -0.7638
  748MOL0     H 3210  11.266   4.273   7.930 -0.7233  0.5192 -1.2089
  748MOL0     H 3211  11.062   4.275   7.845  2.8879 -0.1546 -0.0495
  748MOL0     H 3212  10.838   4.283   7.807  3.1456  1.0584  2.4651
  748MOL0     H 3213  10.804   4.137   7.897  1.4748  0.8408  1.3852
  748MOL0     H 3214  10.627   4.369   7.887  1.5812 -0.4068 -0.0982
  748MOL0     H 3215  10.588   4.208   7.960  0.3181  1.5604  1.4500
  748MOL0     H 3216  10.622   4.292   7.660 -3.6513  1.6587 -0.3722
  748MOL0     H 3217  10.631   4.121   7.711  0.6173  0.7332 -1.0263
  748MOL0     H 3218  10.389   4.304   7.735 -0.7626 -1.0589  2.5031
  748MOL0     H 3219  10.387   4.127   7.753 -0.9147 -0.8718 -2.2520
  748MOL0     H 3220  10.398   4.189   7.332 -1.2872 -2.1464 -0.0930
  748MOL0     H 3221  10.892   4.393   8.229  0.6533  1.3705 -0.2755
  748MOL0     H 3222  11.039   4.468   8.395  2.4662  1.3132  1.0107
  748MOL0     H 3223  11.136   4.320   8.422 -1.6530 -0.4359 -0.6294
  748MOL0     H 3224  11.212   4.476   8.379 -0.6840  1.7967 -2.0453
  749MOL0     O 3225   2.485   1.505   3.512  0.5009  0.4075 -0.0735
  749MOL0     C 3226   2.532   1.428   3.593 -0.3520  0.4814  0.2836
  749MOL0     O 3227   2.493   1.296   3.605 -0.1962 -0.6482  0.3774
  749MOL0     C 3228   2.401   1.237   3.512  0.1393 -0.0111  0.3207
  749MOL0     C 3229   2.292   1.166   3.560 -0.0804 -0.1114  0.1611
  749MOL0     C 3230   2.190   1.114   3.480 -0.2542 -0.4127 -1.0237
  749MOL0     C 3231   2.182   1.151   3.346  0.8982  0.8163  0.1865
  749MOL0     O 3232   2.073   1.108   3.266 -0.0789 -0.4841  0.5134
  749MOL0     C 3233   2.049   1.189   3.145  0.1587 -0.2560  0.8140
  749MOL0     C 3234   1.896   1.172   3.097 -0.1416 -0.2608  0.2710
  749MOL0     C 3235   1.884   1.047   3.012 -0.1923  0.4367  0.2951
  749MOL0     C 3236   1.743   1.042   2.945 -0.7739 -0.2121 -0.2906
  749MOL0     C 3237   1.735   0.937   2.837 -0.2973  0.1219 -0.2701
  749MOL0     C 3238   1.595   0.904   2.796  0.0643 -0.6438  0.5375
  749MOL0     C 3239   1.509   0.831   2.902  0.0180 -0.5296 -0.4170
  749MOL0     C 3240   1.463   0.690   2.854  0.3891  0.5848 -0.2605
  749MOL0     N 3241   1.578   0.600   2.853  0.6329 -0.0197  0.1003
  749MOL0     C 3242   1.605   0.504   2.948  0.5108 -0.5943  0.5153
  749MOL0     C 3243   1.698   0.429   2.898 -0.1974 -0.2120 -0.2730
  749MOL0     C 3244   1.778   0.327   2.966 -0.3027  0.3269  0.6452
  749MOL0     C 3245   1.928   0.362   2.989 -0.5526 -0.6453  0.4809
  749MOL0     C 3246   1.946   0.394   3.140  0.0611 -0.2394  0.3202
  749MOL0     C 3247   2.077   0.479   3.163  0.3155  0.9552 -0.0733
  749MOL0     O 3248   2.203   0.401   3.152 -0.5282  0.4472 -0.0960
  749MOL0     C 3249   2.313   0.413   3.233 -0.0044  0.9656  0.1162
  749MOL0     C 3250   2.331   0.532   3.307 -0.0313 -0.2410 -1.0954
  749MOL0     C 3251   2.442   0.532   3.401 -0.2163  0.4590  0.8695
  749MOL0     C 3252   2.473   0.656   3.483  0.2914  0.3061  0.3039
  749MOL0     C 3253   2.521   0.413   3.407 -0.4915 -1.1298 -0.6915
  749MOL0     C 3254   2.632   0.399   3.505 -0.5595 -0.3180 -0.6025
  749MOL0     O 3255   2.741   0.342   3.454 -0.0680  0.3979 -0.3389
  749MOL0     C 3256   2.862   0.319   3.514  0.1778 -0.5994  0.1854
  749MOL0     C 3257   2.883   0.316   3.653 -0.0947  0.5842  0.4921
  749MOL0     C 3258   3.014   0.293   3.709 -0.6019 -0.6464  0.3422
  749MOL0     C 3259   3.128   0.279   3.624  0.3327 -0.8315 -0.2951
  749MOL0     O 3260   3.251   0.253   3.672 -0.9464  0.5395 -0.0671
  749MOL0     C 3261   3.357   0.306   3.596 -0.5096  0.4427 -0.7138
  749MOL0     C 3262   3.465   0.325   3.705 -0.0107 -0.8302 -0.1291
  749MOL0     C 3263   3.612   0.343   3.652 -0.3699 -0.2879 -0.5627
  749MOL0     C 3264   3.703   0.394   3.768 -0.4468  0.2722  0.7987
  749MOL0     C 3265   3.708   0.310   3.882  0.6595  0.0704 -0.6211
  749MOL0     C 3266   3.798   0.373   3.992 -1.0812 -0.3240 -0.1613
  749MOL0     C 3267   3.870   0.275   4.092 -0.1165 -0.0057 -0.4612
  749MOL0     C 3268   3.973   0.355   4.180 -0.2246  0.4074  0.2541
  749MOL0    Cl 3269   4.050   0.251   4.303  0.0161 -0.4785 -0.1762
  749MOL0     C 3270   3.103   0.268   3.484  0.4860 -0.6229 -0.0156
  749MOL0     C 3271   2.970   0.277   3.430 -0.1427  0.3281  0.2021
  749MOL0     O 3272   2.621   0.450   3.615 -0.5038 -0.1924  0.4841
  749MOL0     C 3273   2.508   0.309   3.321  0.3515 -0.2550 -0.4497
  749MOL0     C 3274   2.397   0.309   3.237 -0.2134 -0.0498 -0.4477
  749MOL0     N 3275   1.714   0.465   2.766 -0.7056  0.1894  0.3357
  749MOL0     N 3276   1.648   0.574   2.743 -0.0934 -0.2180 -0.7444
  749MOL0     C 3277   2.289   1.219   3.294  0.3350  0.7640 -0.6006
  749MOL0     C 3278   2.396   1.266   3.374  1.0095 -0.6334  0.1743
  749MOL0     C 3279   2.623   1.474   3.693 -0.5850  0.3597  0.2205
  749MOL0     C 3280   2.630   1.403   3.819 -0.1388 -0.1179  0.1850
  749MOL0     C 3281   2.710   1.446   3.926  0.8384 -0.4432 -0.3528
  749MOL0     C 3282   2.791   1.559   3.912  0.2413  1.1472 -0.1066
  749MOL0     O 3283   2.857   1.602   4.024  0.0577  0.2604  0.1367
  749MOL0     C 3284   2.950   1.708   4.000  0.1741  0.7027 -0.3467
  749MOL0     C 3285   2.990   1.753   4.144 -0.4027 -0.8196  0.6467
  749MOL0     C 3286   2.873   1.805   4.227  0.4038  1.0614  0.4041
  749MOL0     C 3287   2.922   1.887   4.350  0.3196 -0.8329  0.9220
  749MOL0     C 3288   3.008   1.806   4.443 -0.0544 -0.0964  0.1085
  749MOL0     C 3289   3.091   1.737   4.498  0.0858  0.9344  0.3780
  749MOL0     C 3290   2.791   1.621   3.786 -1.4219  0.1286  0.5194
  749MOL0     C 3291   2.711   1.588   3.675  0.2297 -0.9096 -0.3527
  749MOL0     C 3292   2.726   1.675   3.549 -0.5365 -0.8906 -0.8433
  749MOL0     H 3293   2.277   1.154   3.667 -0.9092 -1.9163 -0.1176
  749MOL0     H 3294   2.112   1.056   3.528  0.0997 -1.3468 -1.5539
  749MOL0     H 3295   2.114   1.169   3.059 -1.5636  0.2002 -0.6522
  749MOL0     H 3296   2.064   1.294   3.171  1.3120 -0.4326  0.9335
  749MOL0     H 3297   1.832   1.176   3.185 -1.0421  0.2853 -0.3885
  749MOL0     H 3298   1.869   1.259   3.036  0.8752 -0.4456 -0.4809
  749MOL0     H 3299   1.971   1.051   2.945 -1.6432  1.9894 -1.6373
  749MOL0     H 3300   1.903   0.965   3.082  0.9791  0.1442 -0.3329
  749MOL0     H 3301   1.664   1.017   3.017 -0.4913 -0.3222 -0.0133
  749MOL0     H 3302   1.718   1.140   2.906 -0.0071  0.3804  0.6662
  749MOL0     H 3303   1.778   0.844   2.873 -1.4592  0.8946  3.6113
  749MOL0     H 3304   1.784   0.980   2.749 -0.1863  2.5335  0.8872
  749MOL0     H 3305   1.540   0.993   2.765 -0.3319 -0.5748  1.4247
  749MOL0     H 3306   1.609   0.835   2.712 -1.4102 -3.5218  2.5054
  749MOL0     H 3307   1.422   0.893   2.928 -0.1273  0.2210 -2.5430
  749MOL0     H 3308   1.573   0.815   2.990 -0.3062  0.3354 -0.0149
  749MOL0     H 3309   1.385   0.646   2.918  1.6910  0.0336  0.9806
  749MOL0     H 3310   1.420   0.694   2.753 -2.1025 -2.0716  0.5301
  749MOL0     H 3311   1.569   0.499   3.051  0.4399 -0.0633  0.5168
  749MOL0     H 3312   1.770   0.236   2.905  1.7395  1.2546 -1.1268
  749MOL0     H 3313   1.739   0.288   3.061  0.8107 -3.2611 -0.2116
  749MOL0     H 3314   1.990   0.275   2.967  1.4517  0.7861  0.2188
  749MOL0     H 3315   1.956   0.454   2.937 -1.5924 -0.2748  0.5418
  749MOL0     H 3316   1.863   0.449   3.185 -0.7384  0.5551 -2.0103
  749MOL0     H 3317   1.955   0.302   3.199 -0.4399 -0.7723 -0.4098
  749MOL0     H 3318   2.083   0.552   3.082 -0.2890 -0.7883 -1.7541
  749MOL0     H 3319   2.073   0.531   3.260  2.4244  0.6172  0.2400
  749MOL0     H 3320   2.255   0.609   3.306 -2.6823 -2.4965  2.6381
  749MOL0     H 3321   2.456   0.640   3.590  0.1871 -0.3022  0.1993
  749MOL0     H 3322   2.405   0.736   3.452  1.2697  0.7073 -0.9074
  749MOL0     H 3323   2.571   0.700   3.461 -0.4577  2.4962  1.1791
  749MOL0     H 3324   2.805   0.334   3.726 -0.5423  0.8547 -0.0399
  749MOL0     H 3325   3.018   0.289   3.818 -2.1659 -3.1801  0.3804
  749MOL0     H 3326   3.393   0.224   3.533  1.0710  0.7669 -0.2631
  749MOL0     H 3327   3.341   0.399   3.541 -1.1596  0.8822  0.1994
  749MOL0     H 3328   3.434   0.396   3.782 -0.7667 -3.2306  1.9129
  749MOL0     H 3329   3.475   0.228   3.755  1.4496 -1.1856 -1.0475
  749MOL0     H 3330   3.609   0.421   3.576 -2.5429  0.9539  0.6698
  749MOL0     H 3331   3.652   0.248   3.616 -1.1741 -0.3998 -1.1803
  749MOL0     H 3332   3.658   0.492   3.789  0.7412  1.5171 -1.9835
  749MOL0     H 3333   3.803   0.417   3.729 -1.1834  0.5264 -1.0651
  749MOL0     H 3334   3.611   0.293   3.930 -0.1415  1.5564 -1.6315
  749MOL0     H 3335   3.756   0.216   3.852 -1.3623 -1.2482  0.1021
  749MOL0     H 3336   3.743   0.443   4.056 -1.3951  0.1938 -0.9870
  749MOL0     H 3337   3.877   0.428   3.941 -1.4086  0.5179  0.2227
  749MOL0     H 3338   3.927   0.199   4.040  3.5516  0.9527  1.7815
  749MOL0     H 3339   3.806   0.218   4.160  1.9862 -2.5389 -0.4587
  749MOL0     H 3340   3.923   0.445   4.217 -1.2353  1.1471 -2.5851
  749MOL0     H 3341   4.050   0.390   4.110  1.8517 -1.0336  1.7029
  749MOL0     H 3342   3.186   0.252   3.416  1.7452  0.6294  1.1553
  749MOL0     H 3343   2.946   0.275   3.324 -2.5628  0.3516  0.6918
  749MOL0     H 3344   2.574   0.223   3.320  0.2323 -0.4043  1.3030
  749MOL0     H 3345   2.384   0.220   3.176 -0.0345  0.6244 -1.5007
  749MOL0     H 3346   2.289   1.246   3.189  0.6211 -0.0233 -0.8090
  749MOL0     H 3347   2.465   1.338   3.332  0.4747 -0.3533 -0.2369
  749MOL0     H 3348   2.566   1.318   3.839 -0.0097 -0.1678  0.3955
  749MOL0     H 3349   2.702   1.392   4.019 -0.1829 -0.0695 -0.2099
  749MOL0     H 3350   3.030   1.692   3.927  0.8060 -1.5448  0.7613
  749MOL0     H 3351   2.884   1.788   3.965 -0.0480 -0.3314 -2.4189
  749MOL0     H 3352   3.066   1.830   4.127 -0.3745 -0.4470  2.3121
  749MOL0     H 3353   3.037   1.674   4.204  1.3889  1.5238  2.5026
  749MOL0     H 3354   2.820   1.872   4.159  2.0891  0.0072 -2.1263
  749MOL0     H 3355   2.803   1.725   4.253  2.2949 -0.4688  1.1242
  749MOL0     H 3356   2.832   1.928   4.398  0.3439 -0.5184  0.7036
  749MOL0     H 3357   2.993   1.963   4.316  2.1238 -2.5223  0.7651
  749MOL0     H 3358   3.162   1.665   4.532 -0.3857 -1.0486 -2.5254
  749MOL0     H 3359   2.851   1.711   3.775 -2.6385  0.8639 -0.2300
  749MOL0     H 3360   2.644   1.747   3.557 -1.2956 -1.9256  1.9970
  749MOL0     H 3361   2.823   1.720   3.531 -1.5889  0.9468 -2.3119
  749MOL0     H 3362   2.702   1.616   3.460 -0.1340 -3.1013  0.4281
  750MOL0     O 3363   0.039   3.137   6.767 -0.1272 -0.2732 -0.1643
  750MOL0     C 3364   0.028   3.156   6.645  0.5167  1.0920 -0.5982
  750MOL0     O 3365   0.121   3.155   6.555 -0.1158 -0.5222  0.9351
  750MOL0     C 3366   0.253   3.154   6.586 -1.0061  0.1842  0.0762
  750MOL0     C 3367   0.341   3.239   6.510  0.2713  0.4211 -0.6029
  750MOL0     C 3368   0.475   3.246   6.529  0.2468 -0.0246  0.2930
  750MOL0     C 3369   0.540   3.153   6.619  0.1933  0.3386  0.5008
  750MOL0     O 3370   0.677   3.144   6.615  0.0606 -0.1919  0.2293
  750MOL0     C 3371   0.734   3.116   6.744 -0.2179  0.9588 -0.2953
  750MOL0     C 3372   0.872   3.181   6.775  0.0957 -0.4271 -0.2786
  750MOL0     C 3373   0.851   3.329   6.795  0.1453 -0.5995  0.0777
  750MOL0     C 3374   0.976   3.393   6.864 -0.0993  0.4948 -0.2688
  750MOL0     C 3375   1.103   3.397   6.772  0.4777  0.3186  0.2983
  750MOL0     C 3376   1.228   3.470   6.833 -1.0444 -0.1566 -0.1398
  750MOL0     C 3377   1.258   3.431   6.987  0.8144  0.5718 -0.0437
  750MOL0     C 3378   1.385   3.501   7.035 -0.6487  0.2022  0.2810
  750MOL0     N 3379   1.401   3.492   7.185  0.3333 -0.0794 -0.1770
  750MOL0     C 3380   1.477   3.580   7.253 -0.2474 -0.2546  0.5631
  750MOL0     C 3381   1.443   3.570   7.384  0.8071  0.0880  0.5281
  750MOL0     C 3382   1.481   3.642   7.507  0.2679 -0.6154 -0.4639
  750MOL0     C 3383   1.629   3.670   7.515  0.2895  0.2952 -0.1367
  750MOL0     C 3384   1.677   3.735   7.645 -0.2497  0.4771 -0.2336
  750MOL0     C 3385   1.815   3.782   7.631 -0.9692 -0.5177  0.4129
  750MOL0     O 3386   1.839   3.878   7.732 -0.5509 -0.0302 -0.1323
  750MOL0     C 3387   1.971   3.897   7.770 -0.1325  0.5392  0.9697
  750MOL0     C 3388   1.985   4.007   7.865 -0.7594  0.2577 -0.0902
  750MOL0     C 3389   2.112   4.043   7.904 -0.3236 -0.8334  0.8614
  750MOL0     C 3390   2.112   4.153   8.001 -0.0003 -0.5384 -0.3055
  750MOL0     C 3391   2.223   3.991   7.843 -0.8350  0.5888 -0.5943
  750MOL0     C 3392   2.359   4.036   7.871 -0.5172 -1.1051 -0.3001
  750MOL0     O 3393   2.455   3.998   7.775 -0.9667 -0.1901  0.3158
  750MOL0     C 3394   2.588   4.009   7.812 -0.4346 -0.0273 -0.0384
  750MOL0     C 3395   2.648   3.927   7.910  1.0693 -0.3348 -0.3287
  750MOL0     C 3396   2.785   3.920   7.928  0.1229  0.1519  0.3317
  750MOL0     C 3397   2.866   4.011   7.856  0.2153  0.1747  0.8062
  750MOL0     O 3398   2.996   4.002   7.900  0.7232 -0.7909  0.0447
  750MOL0     C 3399   3.087   4.105   7.853  0.9241  0.0411  0.7395
  750MOL0     C 3400   3.222   4.070   7.914 -0.4454 -0.2103  0.4972
  750MOL0     C 3401   3.300   4.203   7.927 -0.7023 -0.8295  1.1844
  750MOL0     C 3402   3.453   4.185   7.957  0.2746  0.1599  0.8354
  750MOL0     C 3403   3.526   4.316   7.950 -0.1211 -1.0158 -0.0325
  750MOL0     C 3404   3.493   4.409   8.064 -0.2075 -0.0154 -0.6555
  750MOL0     C 3405   3.563   4.540   8.067 -0.3476 -0.4981  0.3403
  750MOL0     C 3406   3.712   4.540   8.093  0.0645  0.5745 -0.3004
  750MOL0    Cl 3407   3.788   4.693   8.132  0.4586 -0.2193  0.4115
  750MOL0     C 3408   2.811   4.094   7.762 -0.2695  1.1001 -0.6765
  750MOL0     C 3409   2.674   4.084   7.738  0.1082 -0.3068  0.2501
  750MOL0     O 3410   2.388   4.102   7.975  0.8402 -0.8349 -0.3163
  750MOL0     C 3411   2.211   3.899   7.737 -0.7204 -0.6135 -0.0464
  750MOL0     C 3412   2.088   3.846   7.712 -1.1840  0.1027 -0.4953
  750MOL0     N 3413   1.341   3.474   7.393  0.6300 -0.6941  0.3531
  750MOL0     N 3414   1.315   3.436   7.272 -0.3464 -0.1420  0.1982
  750MOL0     C 3415   0.453   3.068   6.688 -0.2108 -0.1236 -0.1027
  750MOL0     C 3416   0.318   3.062   6.681  0.1188 -0.0214 -0.0565
  750MOL0     C 3417  -0.110   3.196   6.606  0.2884  0.0110 -0.2584
  750MOL0     C 3418  -0.127   3.264   6.480  0.2962  0.1598  0.0855
  750MOL0     C 3419  -0.253   3.310   6.438  1.0592  0.6651 -0.2551
  750MOL0     C 3420  -0.367   3.278   6.511 -0.2695 -0.5445  0.0095
  750MOL0     O 3421  -0.490   3.331   6.487  0.7166  0.2267 -0.4648
  750MOL0     C 3422  -0.509   3.466   6.535  0.6701  0.1749  0.3123
  750MOL0     C 3423  -0.652   3.520   6.509  0.0832  0.1651 -0.4183
  750MOL0     C 3424  -0.761   3.425   6.554  1.2859  0.3968  0.5684
  750MOL0     C 3425  -0.779   3.411   6.703 -0.6506  0.3643 -0.6643
  750MOL0     C 3426  -0.816   3.535   6.770  0.5518  0.2966 -0.5069
  750MOL0     C 3427  -0.847   3.637   6.822  0.5092  0.2654  0.3263
  750MOL0     C 3428  -0.346   3.198   6.629  0.2627 -0.6496  0.1415
  750MOL0     C 3429  -0.225   3.167   6.679 -0.5325  0.8606 -0.5069
  750MOL0     C 3430  -0.240   3.077   6.798  0.6326 -0.8689 -0.2415
  750MOL0     H 3431   0.291   3.304   6.439  0.7500  0.1725 -1.1807
  750MOL0     H 3432   0.544   3.301   6.466 -0.4089 -1.6863 -1.9765
  750MOL0     H 3433   0.752   3.008   6.743 -0.2122  0.9616 -0.7931
  750MOL0     H 3434   0.656   3.133   6.818 -1.7980 -0.8387 -1.4501
  750MOL0     H 3435   0.900   3.133   6.869  1.0639  0.4519 -0.0995
  750MOL0     H 3436   0.943   3.162   6.695 -1.6718 -3.4714 -1.2968
  750MOL0     H 3437   0.825   3.379   6.702 -1.0716  0.0549  0.7379
  750MOL0     H 3438   0.769   3.349   6.864  1.7612 -2.1893  2.6424
  750MOL0     H 3439   0.945   3.497   6.877 -1.4596  0.1187 -0.3600
  750MOL0     H 3440   0.986   3.341   6.959 -0.4369  0.4153 -0.2730
  750MOL0     H 3441   1.067   3.432   6.675 -1.1308 -0.4546  0.5764
  750MOL0     H 3442   1.132   3.292   6.766  0.9036  0.4474  0.0262
  750MOL0     H 3443   1.317   3.455   6.772  0.3169  1.6891  1.2586
  750MOL0     H 3444   1.220   3.579   6.836 -0.1668 -0.0541  3.8793
  750MOL0     H 3445   1.289   3.327   7.002 -0.6640  0.0561 -0.4190
  750MOL0     H 3446   1.171   3.450   7.051 -1.1139  0.0017 -2.3320
  750MOL0     H 3447   1.475   3.445   7.007 -0.5306  1.0476 -1.1097
  750MOL0     H 3448   1.389   3.604   7.001 -3.5398  0.1808 -0.3842
  750MOL0     H 3449   1.549   3.651   7.215 -1.2101  0.0202 -0.7963
  750MOL0     H 3450   1.439   3.596   7.597 -3.6382  0.9915 -1.2520
  750MOL0     H 3451   1.429   3.738   7.510 -1.4950 -1.5332 -0.1329
  750MOL0     H 3452   1.686   3.579   7.498 -1.2428 -0.4296 -1.8017
  750MOL0     H 3453   1.647   3.748   7.440 -1.9840  2.2589  1.1914
  750MOL0     H 3454   1.607   3.815   7.670 -0.1663 -0.1801  2.4718
  750MOL0     H 3455   1.670   3.664   7.728  0.0281 -0.0975 -0.6897
  750MOL0     H 3456   1.876   3.692   7.640 -2.9811 -1.8575  1.2318
  750MOL0     H 3457   1.826   3.833   7.535 -0.4908  1.5648  1.5175
  750MOL0     H 3458   1.893   4.054   7.900  1.1135  3.7904  0.4583
  750MOL0     H 3459   2.141   4.245   7.950 -0.8958 -0.1528 -0.1317
  750MOL0     H 3460   2.183   4.120   8.078  0.7233 -4.4470 -2.3833
  750MOL0     H 3461   2.019   4.179   8.053  1.3125 -0.1416  2.0018
  750MOL0     H 3462   2.581   3.862   7.966  2.6230 -2.1976 -0.5464
  750MOL0     H 3463   2.828   3.851   7.999 -0.8662 -0.0988  0.7038
  750MOL0     H 3464   3.089   4.108   7.744  3.2700 -1.0538  0.7018
  750MOL0     H 3465   3.054   4.206   7.882  1.0592  0.5310 -0.7507
  750MOL0     H 3466   3.207   4.035   8.017  1.6269  1.9039  1.6137
  750MOL0     H 3467   3.270   3.995   7.850 -2.6331  0.0517 -1.5829
  750MOL0     H 3468   3.258   4.247   8.018  2.0359  1.2022  1.5789
  750MOL0     H 3469   3.276   4.265   7.841 -3.3886  0.8229  2.9673
  750MOL0     H 3470   3.495   4.110   7.889  0.1500  0.7418  0.1106
  750MOL0     H 3471   3.472   4.144   8.056  2.7652  1.0585  0.7955
  750MOL0     H 3472   3.635   4.312   7.965  0.1746  1.9754 -0.7626
  750MOL0     H 3473   3.505   4.368   7.856  0.9740 -4.1734 -2.1889
  750MOL0     H 3474   3.510   4.371   8.165 -1.8024 -0.6134 -0.5803
  750MOL0     H 3475   3.386   4.431   8.056 -0.7269 -1.8605  0.5575
  750MOL0     H 3476   3.520   4.598   8.150  1.9367  0.2241  1.0914
  750MOL0     H 3477   3.541   4.590   7.972  0.9228 -1.3159 -0.4065
  750MOL0     H 3478   3.757   4.507   7.999  0.3545 -0.2697  0.1273
  750MOL0     H 3479   3.731   4.471   8.176  1.2118  0.8943 -0.2853
  750MOL0     H 3480   2.869   4.155   7.694 -1.6656  1.0720 -1.9728
  750MOL0     H 3481   2.628   4.138   7.656 -2.3347 -0.8853  1.1697
  750MOL0     H 3482   2.297   3.863   7.682  0.5465 -0.4168  1.7327
  750MOL0     H 3483   2.081   3.780   7.626 -1.5684 -0.1462 -0.2761
  750MOL0     H 3484   0.507   2.995   6.748  1.4644 -0.7229 -2.2247
  750MOL0     H 3485   0.267   2.998   6.752 -2.1980  2.0022  0.2129
  750MOL0     H 3486  -0.039   3.282   6.419 -0.2727 -1.3116 -1.2621
  750MOL0     H 3487  -0.268   3.353   6.340  0.2429  0.3581 -0.2712
  750MOL0     H 3488  -0.489   3.460   6.643 -0.6766  1.4783  0.6685
  750MOL0     H 3489  -0.441   3.534   6.484 -0.3223  0.9910  0.0375
  750MOL0     H 3490  -0.666   3.528   6.400  1.6612 -0.3354 -0.6741
  750MOL0     H 3491  -0.672   3.622   6.543 -0.4150 -0.1451  0.2339
  750MOL0     H 3492  -0.855   3.455   6.507 -0.5205 -3.7100  1.0805
  750MOL0     H 3493  -0.739   3.325   6.514  1.3471  0.1195  1.2663
  750MOL0     H 3494  -0.688   3.367   6.746 -2.2335 -2.0626  0.3974
  750MOL0     H 3495  -0.859   3.338   6.721  0.0762 -0.7124 -1.6964
  750MOL0     H 3496  -0.883   3.729   6.865  1.5683  1.0445 -0.4194
  750MOL0     H 3497  -0.443   3.162   6.660 -1.1670  1.2411 -1.7934
  750MOL0     H 3498  -0.329   3.014   6.805 -0.1721  0.3808  1.6546
  750MOL0     H 3499  -0.151   3.019   6.823  0.2477 -0.9588  1.0046
  750MOL0     H 3500  -0.269   3.151   6.874 -2.1949 -0.7502 -1.3085
  751MOL0     O 3501   7.236  11.367   9.652 -0.4261  0.5583  0.2400
  751MOL0     C 3502   7.251  11.263   9.588 -0.2284 -0.5778  0.9551
  751MOL0     O 3503   7.369  11.204   9.564 -0.7075  0.0715 -0.6720
  751MOL0     C 3504   7.483  11.254   9.631  0.2061  0.0578 -0.2885
  751MOL0     C 3505   7.575  11.314   9.556 -0.7947  0.0821 -0.9098
  751MOL0     C 3506   7.701  11.338   9.612  0.1461 -0.7876 -0.1209
  751MOL0     C 3507   7.734  11.309   9.741 -0.2494 -0.7976 -0.1776
  751MOL0     O 3508   7.858  11.328   9.791  0.3798 -0.5141  0.6853
  751MOL0     C 3509   7.870  11.353   9.931 -0.1388 -0.7746 -0.0764
  751MOL0     C 3510   7.996  11.424   9.941 -0.0163  1.0650 -0.3099
  751MOL0     C 3511   8.003  11.563   9.885 -0.8945  0.1638  0.3292
  751MOL0     C 3512   8.119  11.634   9.948 -0.6840 -0.2834 -0.3165
  751MOL0     C 3513   8.193  11.735   9.862 -0.2268 -0.2297  0.0097
  751MOL0     C 3514   8.295  11.807   9.942 -0.1720 -0.7249 -0.0505
  751MOL0     C 3515   8.350  11.933   9.859  0.2879 -0.6004 -0.5399
  751MOL0     C 3516   8.454  11.883   9.762  0.8041  0.3599  0.2894
  751MOL0     N 3517   8.580  11.874   9.842 -0.1881 -0.0987 -0.0746
  751MOL0     C 3518   8.654  11.976   9.895 -0.5942 -0.2156 -1.1062
  751MOL0     C 3519   8.758  11.927   9.964  0.5854 -0.4170 -1.1995
  751MOL0     C 3520   8.852  12.011  10.034 -0.5272  0.4857  0.8282
  751MOL0     C 3521   8.887  11.931  10.165  0.2908 -0.7489 -0.1727
  751MOL0     C 3522   9.026  11.989  10.222 -0.4620  0.8894 -0.2612
  751MOL0     C 3523   9.076  11.916  10.347 -0.3359  0.2428  0.3899
  751MOL0     O 3524   9.186  11.990  10.414 -0.6011 -0.2303  0.0665
  751MOL0     C 3525   9.223  11.945  10.542 -0.0365  0.0664  0.5532
  751MOL0     C 3526   9.177  11.826  10.605  0.0230 -0.1351 -0.3497
  751MOL0     C 3527   9.231  11.796  10.729  0.0780  0.0308 -0.3959
  751MOL0     C 3528   9.156  11.687  10.809  0.2886 -0.3145  0.6485
  751MOL0     C 3529   9.341  11.864  10.789  0.2584  0.3222 -0.6926
  751MOL0     C 3530   9.408  11.815  10.912 -0.9267  0.9174  1.0487
  751MOL0     O 3531   9.444  11.909  10.996 -0.4389 -0.3707 -0.6626
  751MOL0     C 3532   9.463  11.871  11.129 -0.5477 -0.0743  0.0119
  751MOL0     C 3533   9.588  11.898  11.187  0.9097  1.1163 -0.0981
  751MOL0     C 3534   9.609  11.859  11.320  1.1038  0.3584  0.0629
  751MOL0     C 3535   9.506  11.806  11.406  0.2895 -0.4626 -0.2425
  751MOL0     O 3536   9.524  11.775  11.539  0.1645  0.2707  0.5323
  751MOL0     C 3537   9.567  11.870  11.628 -0.2572  0.1852  0.5857
  751MOL0     C 3538   9.601  11.803  11.766  0.3686  0.6439 -0.0487
  751MOL0     C 3539   9.670  11.904  11.860 -0.3809 -0.0198  0.1594
  751MOL0     C 3540   9.582  12.029  11.899  0.1611 -0.2354 -0.3347
  751MOL0     C 3541   9.656  12.142  11.983  1.8438 -0.1406  0.6263
  751MOL0     C 3542   9.711  12.106  12.115 -0.2375 -0.9298  0.3344
  751MOL0     C 3543   9.835  12.202  12.139 -0.0121  0.5443  1.0434
  751MOL0     C 3544   9.905  12.176  12.267  0.6054 -0.0376 -0.3236
  751MOL0    Cl 3545  10.017  12.046  12.236 -0.0131 -0.0684 -0.4059
  751MOL0     C 3546   9.392  11.761  11.336 -0.5461 -0.3230 -0.8186
  751MOL0     C 3547   9.366  11.807  11.206 -0.2375  0.7684 -0.6026
  751MOL0     O 3548   9.429  11.695  10.924 -0.1550  0.1857 -0.8633
  751MOL0     C 3549   9.387  11.975  10.720 -0.1257 -0.1251 -0.0536
  751MOL0     C 3550   9.327  12.011  10.599  0.1168 -1.0778  0.7819
  751MOL0     N 3551   8.758  11.786   9.939  0.0926  0.3742  0.0047
  751MOL0     N 3552   8.651  11.756   9.873  0.7571 -1.0100 -0.0135
  751MOL0     C 3553   7.630  11.256   9.826  0.6092  0.9114  0.8405
  751MOL0     C 3554   7.508  11.221   9.762 -0.0436  0.5319 -0.5839
  751MOL0     C 3555   7.139  11.188   9.532  0.0667  0.1031  0.1067
  751MOL0     C 3556   7.006  11.248   9.541 -0.5555 -0.2744 -0.3251
  751MOL0     C 3557   6.900  11.186   9.478 -0.5179  0.3593  0.6437
  751MOL0     C 3558   6.908  11.066   9.407 -0.1994  0.8655 -0.3532
  751MOL0     O 3559   6.800  10.995   9.358  0.5618 -1.5532 -0.1214
  751MOL0     C 3560   6.664  11.050   9.370 -0.0618 -0.8590 -0.9258
  751MOL0     C 3561   6.652  11.170   9.269 -0.2318 -0.3681 -0.0256
  751MOL0     C 3562   6.518  11.189   9.215  0.0487  0.8730  0.2787
  751MOL0     C 3563   6.510  11.281   9.093  0.0673  0.5179 -0.4175
  751MOL0     C 3564   6.368  11.309   9.080  0.0646 -0.6408  0.3914
  751MOL0     C 3565   6.255  11.346   9.050  0.2830  0.7865  0.2322
  751MOL0     C 3566   7.032  11.013   9.404 -0.2556  0.2179  0.1175
  751MOL0     C 3567   7.146  11.060   9.472  0.0782 -0.1503 -0.3371
  751MOL0     C 3568   7.256  10.965   9.467 -0.6217 -0.1332  1.0281
  751MOL0     H 3569   7.561  11.333   9.450 -2.7088  0.2642 -0.6555
  751MOL0     H 3570   7.783  11.379   9.554 -0.4591 -1.4807 -1.5330
  751MOL0     H 3571   7.872  11.261   9.991  0.6860 -0.4645  0.3987
  751MOL0     H 3572   7.784  11.402   9.976 -0.0884  0.1346 -0.9221
  751MOL0     H 3573   8.010  11.434  10.049 -0.4278 -1.9692  0.1316
  751MOL0     H 3574   8.069  11.349   9.910 -1.1641 -0.5507  0.7082
  751MOL0     H 3575   8.030  11.549   9.780  1.6948 -1.9342  1.1765
  751MOL0     H 3576   7.906  11.614   9.893 -0.8293  0.4171 -0.4115
  751MOL0     H 3577   8.073  11.682  10.035 -0.5385  0.8568 -0.8520
  751MOL0     H 3578   8.185  11.555   9.986 -0.7347  0.0782  0.5532
  751MOL0     H 3579   8.125  11.809   9.818  0.1784  0.5682  0.7038
  751MOL0     H 3580   8.246  11.678   9.786  1.4497  1.1446  0.0933
  751MOL0     H 3581   8.245  11.854  10.028 -0.6378  0.3032 -0.8663
  751MOL0     H 3582   8.380  11.749   9.979 -0.2867 -0.1456  1.1907
  751MOL0     H 3583   8.391  12.018   9.915  1.1357 -1.4440  0.1557
  751MOL0     H 3584   8.263  11.979   9.811 -0.3603 -1.0246  0.1934
  751MOL0     H 3585   8.428  11.782   9.728 -1.2445  1.5615 -1.9300
  751MOL0     H 3586   8.463  11.948   9.675 -1.0217 -0.3151 -0.4475
  751MOL0     H 3587   8.631  12.082   9.900 -0.6150 -0.1659 -2.0461
  751MOL0     H 3588   8.813  12.112  10.053 -2.5253 -0.4005  1.6149
  751MOL0     H 3589   8.941  12.032   9.974 -1.1572  2.2163  0.4411
  751MOL0     H 3590   8.806  11.959  10.233 -0.1015 -1.5720 -0.3000
  751MOL0     H 3591   8.898  11.823  10.152  2.9438 -0.2621 -3.5806
  751MOL0     H 3592   9.102  11.977  10.145  0.6275 -0.3962  0.9493
  751MOL0     H 3593   9.025  12.097  10.242  1.5702  0.8334  0.3126
  751MOL0     H 3594   8.986  11.903  10.408  0.0303  0.7932  1.0745
  751MOL0     H 3595   9.125  11.827  10.307  3.2954  2.5039 -0.6833
  751MOL0     H 3596   9.095  11.773  10.556 -2.8304  0.9405  2.8488
  751MOL0     H 3597   9.223  11.600  10.816  1.3695  0.4149 -0.3208
  751MOL0     H 3598   9.066  11.651  10.759  1.5123 -0.7275 -1.3959
  751MOL0     H 3599   9.127  11.724  10.907 -0.1964  0.1818  0.3203
  751MOL0     H 3600   9.665  11.950  11.131  1.0942 -0.0971 -1.0153
  751MOL0     H 3601   9.704  11.881  11.367  1.2180 -0.7195  0.3664
  751MOL0     H 3602   9.651  11.923  11.581 -0.8165 -1.3257 -2.3408
  751MOL0     H 3603   9.486  11.939  11.650 -0.4766  0.8571 -2.0119
  751MOL0     H 3604   9.507  11.764  11.805  0.4889  0.3998  0.0012
  751MOL0     H 3605   9.667  11.717  11.748 -1.9105 -1.4659  1.1008
  751MOL0     H 3606   9.768  11.941  11.831  0.4191 -0.4961  2.0946
  751MOL0     H 3607   9.683  11.845  11.951 -1.5741  0.5502  0.7179
  751MOL0     H 3608   9.500  11.993  11.963  0.4556  1.8570  1.3165
  751MOL0     H 3609   9.550  12.074  11.805  1.7594  1.8919  0.0684
  751MOL0     H 3610   9.732  12.180  11.915  0.0067 -0.2747 -1.6006
  751MOL0     H 3611   9.578  12.217  12.000  1.6719 -0.0250 -0.6259
  751MOL0     H 3612   9.742  12.001  12.117  2.4791 -0.1906  1.7366
  751MOL0     H 3613   9.641  12.123  12.197 -2.4259  0.9925 -1.8029
  751MOL0     H 3614   9.800  12.305  12.138 -1.1775  0.1573  0.3626
  751MOL0     H 3615   9.902  12.189  12.053 -1.2831 -2.1352  0.3396
  751MOL0     H 3616   9.828  12.142  12.337 -1.5824  1.9947 -1.6458
  751MOL0     H 3617   9.958  12.262  12.307  1.5898 -0.4236 -0.7483
  751MOL0     H 3618   9.315  11.701  11.383 -2.0118  3.3221  1.8921
  751MOL0     H 3619   9.272  11.781  11.158 -1.0858 -0.7682  1.7056
  751MOL0     H 3620   9.466  12.033  10.766 -1.8264 -0.2352  3.3166
  751MOL0     H 3621   9.371  12.096  10.548 -0.8283 -0.4416  1.0024
  751MOL0     H 3622   7.656  11.225   9.927  0.7135  1.1586  0.8922
  751MOL0     H 3623   7.430  11.163   9.810 -0.5420  0.6611 -1.2313
  751MOL0     H 3624   6.994  11.334   9.606 -1.4543  1.6067 -2.8058
  751MOL0     H 3625   6.799  11.223   9.489 -0.2704  1.5175 -0.7755
  751MOL0     H 3626   6.601  10.971   9.328 -0.5587  0.0018 -1.8322
  751MOL0     H 3627   6.628  11.078   9.469  0.4770 -1.2276 -0.6189
  751MOL0     H 3628   6.721  11.154   9.186 -0.1579  1.5404 -0.3804
  751MOL0     H 3629   6.681  11.267   9.311  1.4637 -0.9784  0.2787
  751MOL0     H 3630   6.474  11.094   9.183 -0.3194  1.5130 -1.2109
  751MOL0     H 3631   6.450  11.211   9.298  0.1189 -0.1212  0.6104
  751MOL0     H 3632   6.551  11.233   9.004  0.8040  2.3802 -1.1467
  751MOL0     H 3633   6.574  11.370   9.093  2.6802 -1.2546  0.6679
  751MOL0     H 3634   6.160  11.388   9.023  0.1017 -0.8320 -1.8364
  751MOL0     H 3635   7.045  10.920   9.349 -2.6523 -0.3423  0.3697
  751MOL0     H 3636   7.316  10.976   9.377  0.2694  0.3670  1.6697
  751MOL0     H 3637   7.325  10.967   9.553  0.1701 -2.3162  0.5288
  751MOL0     H 3638   7.212  10.865   9.476 -2.0226  0.3787  0.1285
  752MOL0     O 3639   2.228  10.226   8.213  0.3107 -0.9583 -0.1523
  752MOL0     C 3640   2.217  10.101   8.213 -0.9836 -0.6954 -0.0282
  752MOL0     O 3641   2.314  10.014   8.165 -0.1872 -0.3476  0.0156
  752MOL0     C 3642   2.435  10.061   8.123 -0.2240 -0.6799  0.0178
  752MOL0     C 3643   2.539  10.083   8.215 -0.9618 -0.2002  0.2479
  752MOL0     C 3644   2.660  10.144   8.175  0.4571  0.3377 -0.1553
  752MOL0     C 3645   2.687  10.154   8.042  0.6272 -0.2782 -0.6038
  752MOL0     O 3646   2.808  10.193   8.000 -0.2949  0.6035 -0.4224
  752MOL0     C 3647   2.925  10.166   8.090 -0.3653  0.1884  0.7592
  752MOL0     C 3648   3.048  10.196   8.004  0.3296 -0.2244 -0.0807
  752MOL0     C 3649   3.098  10.067   7.932 -0.0055  0.7428  0.0129
  752MOL0     C 3650   3.195  10.109   7.821  0.4881  0.2122 -0.1382
  752MOL0     C 3651   3.270   9.993   7.746  0.1440  0.3027  0.4665
  752MOL0     C 3652   3.175   9.886   7.685  0.8651  0.2995  0.2540
  752MOL0     C 3653   3.240   9.775   7.602  1.0628 -0.0255  0.1282
  752MOL0     C 3654   3.332   9.693   7.679  0.6260  0.7182  0.6741
  752MOL0     N 3655   3.468   9.731   7.677  0.2511  0.0581  0.1521
  752MOL0     C 3656   3.545   9.775   7.779 -0.6403 -0.7034 -0.0698
  752MOL0     C 3657   3.671   9.783   7.719  0.8119 -0.8515  0.5797
  752MOL0     C 3658   3.793   9.817   7.800 -0.8571  0.1165  0.4913
  752MOL0     C 3659   3.925   9.854   7.724  0.4488 -1.3834 -0.4276
  752MOL0     C 3660   3.898   9.977   7.625  0.5131  0.5808 -1.2880
  752MOL0     C 3661   4.023  10.041   7.575  0.7929  1.1270 -0.3810
  752MOL0     O 3662   4.104  10.086   7.686 -0.0100 -0.2455 -0.1937
  752MOL0     C 3663   4.230  10.128   7.660 -0.0677  0.2594  0.4731
  752MOL0     C 3664   4.290  10.198   7.761 -0.1040  0.3909 -0.1472
  752MOL0     C 3665   4.418  10.258   7.750  0.9545 -0.6744 -0.3174
  752MOL0     C 3666   4.479  10.338   7.867 -0.6257  0.6024  0.3361
  752MOL0     C 3667   4.490  10.238   7.634  0.0561 -0.4915 -0.0018
  752MOL0     C 3668   4.617  10.313   7.617 -0.1448  0.2676  0.1990
  752MOL0     O 3669   4.734  10.245   7.646  0.9417 -0.4334 -0.2269
  752MOL0     C 3670   4.853  10.310   7.637  1.0815 -0.8918  0.7999
  752MOL0     C 3671   4.912  10.323   7.763 -0.0945  0.4067  0.2980
  752MOL0     C 3672   5.048  10.345   7.770 -0.1562  0.7664 -0.0112
  752MOL0     C 3673   5.113  10.384   7.650 -0.0386  0.0556 -0.4441
  752MOL0     O 3674   5.243  10.424   7.654 -0.5532  0.7328 -0.1147
  752MOL0     C 3675   5.339  10.314   7.647 -0.1690  1.0243 -0.2556
  752MOL0     C 3676   5.399  10.308   7.506  0.4542 -0.0909 -0.0943
  752MOL0     C 3677   5.465  10.439   7.468  0.1746 -0.3260  0.0944
  752MOL0     C 3678   5.515  10.426   7.328 -0.0334 -0.5789 -0.2446
  752MOL0     C 3679   5.573  10.563   7.279  0.0996  0.1431 -1.0271
  752MOL0     C 3680   5.477  10.690   7.274 -0.0211  0.2013  0.0883
  752MOL0     C 3681   5.370  10.671   7.171 -0.0145  0.5453  0.6174
  752MOL0     C 3682   5.320  10.802   7.105  0.1822  0.8185  0.4980
  752MOL0    Cl 3683   5.256  10.908   7.245 -0.3122  0.2546 -0.2425
  752MOL0     C 3684   5.041  10.391   7.529  0.5916  0.0028  0.8708
  752MOL0     C 3685   4.901  10.363   7.517 -0.4714 -0.2606 -0.2920
  752MOL0     O 3686   4.604  10.431   7.574 -0.1420  0.0155 -0.9001
  752MOL0     C 3687   4.443  10.169   7.526  0.0930  0.7304  0.1831
  752MOL0     C 3688   4.310  10.115   7.540  0.1456  0.1369 -0.1335
  752MOL0     N 3689   3.661   9.737   7.586 -0.4890 -0.6155 -0.1273
  752MOL0     N 3690   3.544   9.709   7.565  0.3425  0.4851  0.0084
  752MOL0     C 3691   2.588  10.126   7.948  0.8720 -0.1645  1.2926
  752MOL0     C 3692   2.466  10.093   7.987  0.2126 -0.1156  0.4049
  752MOL0     C 3693   2.083  10.057   8.250  0.0083 -0.4143  0.3228
  752MOL0     C 3694   2.001  10.133   8.333 -0.0029 -0.2299  0.5564
  752MOL0     C 3695   1.875  10.083   8.369  0.7177 -0.3426  0.5682
  752MOL0     C 3696   1.822   9.967   8.310 -0.2566 -0.2029 -0.6339
  752MOL0     O 3697   1.697   9.937   8.351 -0.0057  0.5241 -0.5352
  752MOL0     C 3698   1.646   9.803   8.340 -0.8764 -0.8372  0.6656
  752MOL0     C 3699   1.508   9.812   8.400  0.1207 -1.5851 -0.0947
  752MOL0     C 3700   1.425   9.681   8.404 -0.0501  0.3711  0.4507
  752MOL0     C 3701   1.359   9.658   8.276 -0.1977 -0.3404 -0.4594
  752MOL0     C 3702   1.265   9.549   8.291  0.5112 -0.4710  0.2418
  752MOL0     C 3703   1.188   9.453   8.284  0.0498 -0.1194  0.1671
  752MOL0     C 3704   1.894   9.888   8.226 -0.8423  0.4103 -0.3995
  752MOL0     C 3705   2.025   9.934   8.199 -0.4318 -0.0921 -0.6668
  752MOL0     C 3706   2.101   9.845   8.103  0.2395  0.1739  0.0638
  752MOL0     H 3707   2.517  10.065   8.320 -0.8686 -0.5735  0.2043
  752MOL0     H 3708   2.721  10.191   8.252  0.5554  0.2745 -0.1943
  752MOL0     H 3709   2.931  10.066   8.134 -0.1222  0.0571  0.4325
  752MOL0     H 3710   2.927  10.237   8.172  0.4612  1.6066 -0.4298
  752MOL0     H 3711   3.032  10.271   7.926  2.1872  4.1780  3.3213
  752MOL0     H 3712   3.127  10.249   8.057  0.3702 -0.0096 -0.3567
  752MOL0     H 3713   3.140   9.992   7.999 -0.4556 -0.6876 -1.2563
  752MOL0     H 3714   3.009  10.015   7.898  0.4913  1.3004 -2.3752
  752MOL0     H 3715   3.137  10.153   7.739 -0.6955 -0.8405  0.0969
  752MOL0     H 3716   3.268  10.183   7.854  0.4647  0.7230 -1.1555
  752MOL0     H 3717   3.339   9.960   7.824 -0.1519  3.0804  2.0343
  752MOL0     H 3718   3.330  10.032   7.663  0.0917 -1.3135 -0.3772
  752MOL0     H 3719   3.126   9.839   7.771 -2.6153 -0.3415 -1.8593
  752MOL0     H 3720   3.103   9.930   7.615  1.4760  1.1972  0.1785
  752MOL0     H 3721   3.280   9.812   7.507 -0.2662  0.1446 -0.3838
  752MOL0     H 3722   3.162   9.703   7.574 -0.9298  2.0015  0.1798
  752MOL0     H 3723   3.288   9.671   7.776  0.8681 -1.5080  0.3384
  752MOL0     H 3724   3.334   9.591   7.638  1.6340  0.1456  2.0926
  752MOL0     H 3725   3.524   9.792   7.884  0.0151  0.6245 -0.1249
  752MOL0     H 3726   3.808   9.729   7.863  1.9629  0.4946  0.4558
  752MOL0     H 3727   3.766   9.892   7.875  1.9026  0.5708  1.1187
  752MOL0     H 3728   4.001   9.881   7.798  1.6933 -1.6306 -1.5717
  752MOL0     H 3729   3.974   9.766   7.681  0.3742 -1.3351 -0.6083
  752MOL0     H 3730   3.839   9.939   7.540  3.0208 -0.6337 -2.5964
  752MOL0     H 3731   3.848  10.059   7.678  1.5368  1.1481 -1.1738
  752MOL0     H 3732   4.079   9.967   7.517  0.6544  0.0155  0.8562
  752MOL0     H 3733   3.996  10.124   7.509 -1.1344  0.0295 -1.0759
  752MOL0     H 3734   4.228  10.217   7.849  1.1876  3.9783  0.1856
  752MOL0     H 3735   4.471  10.444   7.843 -1.1672  0.8380  1.5070
  752MOL0     H 3736   4.584  10.307   7.875 -0.7773  0.0249  0.1435
  752MOL0     H 3737   4.425  10.320   7.960 -1.0321 -3.3582 -0.4706
  752MOL0     H 3738   4.853  10.313   7.853  0.9332 -1.1856  0.8275
  752MOL0     H 3739   5.099  10.332   7.865  1.8560 -1.5946 -1.3180
  752MOL0     H 3740   5.421  10.332   7.717  0.7528 -0.1094 -0.9959
  752MOL0     H 3741   5.292  10.219   7.673  0.3388  0.4565 -1.3562
  752MOL0     H 3742   5.478  10.232   7.509  0.2255 -0.3002  0.7387
  752MOL0     H 3743   5.315  10.283   7.441  0.2391  0.8364 -0.1808
  752MOL0     H 3744   5.551  10.471   7.527 -0.2110  1.3268 -0.1739
  752MOL0     H 3745   5.396  10.524   7.467  0.6302  0.0779  1.5693
  752MOL0     H 3746   5.439  10.392   7.258  0.0257 -2.3156  0.4892
  752MOL0     H 3747   5.600  10.359   7.315 -1.7566 -2.5724 -1.9749
  752MOL0     H 3748   5.649  10.577   7.357  0.1547 -1.9428 -0.6470
  752MOL0     H 3749   5.619  10.548   7.181 -0.3219 -1.6557 -0.9708
  752MOL0     H 3750   5.532  10.780   7.244  0.1118 -0.3724 -1.4884
  752MOL0     H 3751   5.430  10.703   7.372 -2.6880  0.3458 -1.1205
  752MOL0     H 3752   5.296  10.602   7.212  1.9639 -1.9572  0.2542
  752MOL0     H 3753   5.405  10.610   7.088  1.0612 -1.0814  2.1940
  752MOL0     H 3754   5.241  10.788   7.031 -0.5587 -1.9508  1.6842
  752MOL0     H 3755   5.409  10.848   7.061  0.5159 -0.1819  0.1042
  752MOL0     H 3756   5.090  10.425   7.438 -2.3134 -0.4424 -0.9816
  752MOL0     H 3757   4.834  10.372   7.432 -1.8791  2.8021  0.9716
  752MOL0     H 3758   4.493  10.155   7.431  1.6284  0.3599  1.0114
  752MOL0     H 3759   4.275  10.062   7.452  1.5266 -1.9036  0.4902
  752MOL0     H 3760   2.621  10.129   7.844 -0.6903  1.6029  0.7923
  752MOL0     H 3761   2.386  10.078   7.915 -1.3176  2.0559  1.5703
  752MOL0     H 3762   2.034  10.232   8.362 -1.7073 -0.2592  2.8686
  752MOL0     H 3763   1.818  10.146   8.436  0.2997 -0.1942  0.0799
  752MOL0     H 3764   1.641   9.770   8.235  0.1054 -0.5298  0.5145
  752MOL0     H 3765   1.702   9.724   8.392 -1.3539 -2.3066 -0.9388
  752MOL0     H 3766   1.462   9.893   8.342  3.4542  0.9591  0.5370
  752MOL0     H 3767   1.512   9.861   8.497 -0.7631  1.5363 -1.5196
  752MOL0     H 3768   1.488   9.592   8.416  0.1389  0.5220  0.5715
  752MOL0     H 3769   1.345   9.680   8.479  1.6016 -0.4459  2.3079
  752MOL0     H 3770   1.436   9.644   8.199  2.9387 -0.4735  2.4719
  752MOL0     H 3771   1.305   9.747   8.244 -0.7546 -0.1683  0.9183
  752MOL0     H 3772   1.118   9.372   8.285 -0.4877  0.3459  1.4546
  752MOL0     H 3773   1.847   9.797   8.191  2.8212 -2.3647  1.2938
  752MOL0     H 3774   2.122   9.899   8.010 -0.0892 -2.4384 -1.6287
  752MOL0     H 3775   2.195   9.814   8.149 -0.3555 -1.8126  0.0440
  752MOL0     H 3776   2.057   9.746   8.084  0.5624 -0.1975  1.1949
  753MOL0     O 3777   4.137   0.339   6.140 -0.6821  0.2613 -0.0476
  753MOL0     C 3778   4.217   0.400   6.075 -0.0202 -0.0164 -1.0180
  753MOL0     O 3779   4.344   0.373   6.078  0.0914  0.1022 -0.2001
  753MOL0     C 3780   4.395   0.245   6.080  0.1580 -0.3905  0.6881
  753MOL0     C 3781   4.322   0.125   6.070 -0.0631 -0.4851 -0.1176
  753MOL0     C 3782   4.380   0.004   6.079 -0.6554 -0.2393  0.2703
  753MOL0     C 3783   4.519  -0.004   6.089  0.9393  0.6494 -0.1625
  753MOL0     O 3784   4.567  -0.132   6.069  0.0083 -0.3243 -0.0381
  753MOL0     C 3785   4.705  -0.155   6.032  0.3748 -0.0474  1.1110
  753MOL0     C 3786   4.731  -0.308   6.011 -0.4082  0.5644 -0.0502
  753MOL0     C 3787   4.866  -0.340   5.957  0.0414 -0.3186  0.5962
  753MOL0     C 3788   4.981  -0.288   6.054  0.1904  1.1389 -0.0660
  753MOL0     C 3789   5.129  -0.316   6.011 -0.1195  1.1861  1.2129
  753MOL0     C 3790   5.220  -0.297   6.128 -1.4154  0.7466  0.0225
  753MOL0     C 3791   5.374  -0.290   6.103 -0.5286 -0.4793 -0.5597
  753MOL0     C 3792   5.421  -0.148   6.065  0.0724 -0.7340 -0.6048
  753MOL0     N 3793   5.566  -0.132   6.056  0.2839  0.1561 -0.4078
  753MOL0     C 3794   5.627  -0.009   6.096 -0.7504  1.2737 -0.3884
  753MOL0     C 3795   5.752  -0.019   6.045 -0.3432  0.0529  0.6953
  753MOL0     C 3796   5.872   0.076   6.055 -0.3539 -0.1688  0.1051
  753MOL0     C 3797   6.017   0.021   6.021  0.2048  0.3549  0.7271
  753MOL0     C 3798   6.061   0.000   5.869  0.7106  0.1429 -0.7757
  753MOL0     C 3799   6.215  -0.003   5.864  0.6441  0.7727 -0.8620
  753MOL0     O 3800   6.274   0.126   5.876  0.2739 -0.0278 -0.0478
  753MOL0     C 3801   6.410   0.134   5.871  0.0383  0.8906 -0.0389
  753MOL0     C 3802   6.471   0.258   5.903  0.3705 -0.6958  0.5143
  753MOL0     C 3803   6.606   0.282   5.900 -0.3369  0.4867 -0.9753
  753MOL0     C 3804   6.659   0.426   5.906  0.0750  0.6443  0.0263
  753MOL0     C 3805   6.693   0.171   5.874  0.4619 -0.8170 -0.0424
  753MOL0     C 3806   6.841   0.169   5.863 -0.4603  0.5141 -0.1790
  753MOL0     O 3807   6.896   0.047   5.825 -0.0422  0.8354  0.2250
  753MOL0     C 3808   7.032   0.015   5.812 -0.1338 -0.3160  0.2336
  753MOL0     C 3809   7.144   0.089   5.859  0.6238  0.0441 -0.8598
  753MOL0     C 3810   7.272   0.043   5.839 -0.2078 -0.5578 -0.2878
  753MOL0     C 3811   7.291  -0.067   5.761  0.1273 -0.0462  0.0721
  753MOL0     O 3812   7.418  -0.114   5.745 -0.1964  0.1481  0.3669
  753MOL0     C 3813   7.521  -0.099   5.844 -0.4835  0.2638 -0.5498
  753MOL0     C 3814   7.640  -0.182   5.800  0.1807 -0.3917  0.3361
  753MOL0     C 3815   7.757  -0.174   5.899 -0.1072 -1.0583  0.2908
  753MOL0     C 3816   7.730  -0.226   6.042 -0.4795 -0.1950  0.7924
  753MOL0     C 3817   7.856  -0.231   6.115 -0.0324 -0.0380  0.0123
  753MOL0     C 3818   7.839  -0.309   6.246 -1.6734 -0.2468 -0.0523
  753MOL0     C 3819   7.973  -0.288   6.317 -0.4301  1.1428 -0.3238
  753MOL0     C 3820   7.970  -0.369   6.446  0.1287 -0.5439  0.0298
  753MOL0    Cl 3821   8.131  -0.324   6.511 -0.1574 -0.2810 -0.0494
  753MOL0     C 3822   7.184  -0.150   5.718  0.0475 -0.0098  0.2059
  753MOL0     C 3823   7.054  -0.108   5.744 -0.1823  0.0667  0.2230
  753MOL0     O 3824   6.909   0.274   5.876 -0.0694  0.3924 -0.9537
  753MOL0     C 3825   6.629   0.046   5.834 -0.1036 -0.0954 -0.0368
  753MOL0     C 3826   6.491   0.020   5.837 -0.1709  0.9257 -0.1850
  753MOL0     N 3827   5.764  -0.138   5.971  0.5472  0.0707  1.1633
  753MOL0     N 3828   5.651  -0.202   5.968 -0.1344 -0.0866 -0.4583
  753MOL0     C 3829   4.595   0.114   6.099  0.3469  0.2018 -0.3520
  753MOL0     C 3830   4.527   0.235   6.108 -0.3029 -0.1407  0.5350
  753MOL0     C 3831   4.180   0.534   6.037 -0.6136 -0.3647  0.2061
  753MOL0     C 3832   4.114   0.620   6.137 -0.8195  0.1298 -0.1956
  753MOL0     C 3833   4.091   0.747   6.103  0.0367  0.0198 -0.6367
  753MOL0     C 3834   4.106   0.795   5.977  0.2078  0.2901 -0.3415
  753MOL0     O 3835   4.081   0.923   5.959 -0.0094 -0.7161  0.2625
  753MOL0     C 3836   4.028   0.959   5.832  0.3157  0.3086 -0.1662
  753MOL0     C 3837   4.124   1.057   5.758 -0.8645 -0.1898 -0.6823
  753MOL0     C 3838   4.085   1.073   5.604 -0.6096 -0.2334  0.0848
  753MOL0     C 3839   3.963   1.167   5.595 -0.2746  0.8527  0.9022
  753MOL0     C 3840   3.881   1.139   5.477 -0.5968 -0.3437  0.2696
  753MOL0     C 3841   3.809   1.124   5.381  0.2899  0.9607 -0.6573
  753MOL0     C 3842   4.157   0.715   5.880 -0.0287  0.9418 -0.0840
  753MOL0     C 3843   4.182   0.582   5.909  0.8340  0.0137  0.1588
  753MOL0     C 3844   4.248   0.503   5.804  0.6190 -0.0099  0.1261
  753MOL0     H 3845   4.214   0.121   6.057 -0.4566  1.0274  2.1050
  753MOL0     H 3846   4.305  -0.074   6.076  1.6824 -2.6327  0.3703
  753MOL0     H 3847   4.762  -0.117   6.116  2.3462 -1.8208  0.6588
  753MOL0     H 3848   4.716  -0.096   5.940 -1.9783 -0.3405  0.5679
  753MOL0     H 3849   4.717  -0.361   6.106  0.0740 -4.0012 -2.2274
  753MOL0     H 3850   4.650  -0.347   5.948 -1.1340 -1.1995  1.8481
  753MOL0     H 3851   4.882  -0.447   5.945  1.6191  0.0709 -1.4166
  753MOL0     H 3852   4.864  -0.289   5.860  1.9443  0.0264  0.6871
  753MOL0     H 3853   4.973  -0.179   6.057  0.6668  1.1492  2.5922
  753MOL0     H 3854   4.969  -0.340   6.149 -2.2584 -0.5517 -1.1817
  753MOL0     H 3855   5.158  -0.255   5.925  2.9407 -0.8539  0.6503
  753MOL0     H 3856   5.134  -0.421   5.980  0.7783  1.4212  0.5111
  753MOL0     H 3857   5.191  -0.200   6.172  0.7695  1.6145 -0.2992
  753MOL0     H 3858   5.205  -0.374   6.204  0.0816 -1.9918 -2.2620
  753MOL0     H 3859   5.405  -0.361   6.026  1.0712 -0.5992  0.1597
  753MOL0     H 3860   5.430  -0.331   6.187 -0.9730  0.1360  0.0430
  753MOL0     H 3861   5.384  -0.131   5.963  1.2732  0.6298 -0.8512
  753MOL0     H 3862   5.378  -0.076   6.135  0.0887 -0.3991 -0.9352
  753MOL0     H 3863   5.586   0.064   6.165 -2.7594 -1.6083  1.6947
  753MOL0     H 3864   5.864   0.107   6.159 -0.1810 -0.0055  0.0701
  753MOL0     H 3865   5.849   0.168   6.001  0.0053  0.2661  0.6919
  753MOL0     H 3866   6.084   0.100   6.056 -1.3915  1.8562  0.5973
  753MOL0     H 3867   6.033  -0.075   6.071 -2.2030 -0.3908  0.2219
  753MOL0     H 3868   6.021  -0.097   5.838 -1.8595  0.4796  1.1138
  753MOL0     H 3869   6.009   0.076   5.809  0.0537 -0.2591 -0.7266
  753MOL0     H 3870   6.238  -0.084   5.934 -1.2045 -0.3411 -1.4792
  753MOL0     H 3871   6.246  -0.030   5.763  0.2698  0.0201 -0.7850
  753MOL0     H 3872   6.409   0.343   5.931 -2.2730 -1.0742 -3.3773
  753MOL0     H 3873   6.728   0.440   5.822 -0.7168 -1.7921 -1.1376
  753MOL0     H 3874   6.716   0.436   5.999 -3.4121 -0.5509  2.4951
  753MOL0     H 3875   6.578   0.499   5.902 -2.4084 -1.9494 -3.1410
  753MOL0     H 3876   7.131   0.172   5.928  0.8425 -0.2330 -0.4875
  753MOL0     H 3877   7.350   0.097   5.893 -0.8040 -0.6252  0.6627
  753MOL0     H 3878   7.563  -0.001   5.868  1.0475 -0.6128  0.4627
  753MOL0     H 3879   7.492  -0.139   5.941  0.4884 -1.1462 -0.8142
  753MOL0     H 3880   7.620  -0.288   5.780  0.3740 -0.5785  1.0925
  753MOL0     H 3881   7.669  -0.127   5.710  0.6911  1.5914  1.6532
  753MOL0     H 3882   7.776  -0.071   5.928 -2.9039 -0.1841 -0.6188
  753MOL0     H 3883   7.851  -0.204   5.852  0.3361  1.1453 -0.3089
  753MOL0     H 3884   7.685  -0.325   6.034  3.4273 -2.1870  1.1815
  753MOL0     H 3885   7.662  -0.156   6.091  0.4369  1.4480 -0.2102
  753MOL0     H 3886   7.933  -0.284   6.059  0.5361  0.3148  0.4465
  753MOL0     H 3887   7.894  -0.130   6.137  2.5567 -1.6502  4.1680
  753MOL0     H 3888   7.815  -0.415   6.232 -0.7127 -0.5297  0.3220
  753MOL0     H 3889   7.760  -0.275   6.314 -1.3079 -1.2531  0.9055
  753MOL0     H 3890   7.995  -0.186   6.350  0.7374  0.6175  0.6114
  753MOL0     H 3891   8.051  -0.314   6.245 -1.6728 -1.0641 -0.9699
  753MOL0     H 3892   7.962  -0.476   6.426  0.3463 -0.3895 -0.9097
  753MOL0     H 3893   7.891  -0.339   6.516 -0.3057 -1.0070 -0.2596
  753MOL0     H 3894   7.206  -0.236   5.656  0.3534  0.2126  0.0042
  753MOL0     H 3895   6.970  -0.172   5.718  1.1064 -2.1721  1.2390
  753MOL0     H 3896   6.684  -0.043   5.805 -0.2155  0.3662 -1.7446
  753MOL0     H 3897   6.454  -0.081   5.823  3.2292 -0.2385 -1.7655
  753MOL0     H 3898   4.703   0.110   6.086  0.2385  0.7668 -1.5413
  753MOL0     H 3899   4.581   0.324   6.139  0.5132 -0.5252  0.2669
  753MOL0     H 3900   4.100   0.589   6.240 -0.6625 -0.8336 -0.4496
  753MOL0     H 3901   4.049   0.804   6.184 -0.9803  0.4605 -1.4495
  753MOL0     H 3902   3.998   0.876   5.767 -0.5862 -0.1398  0.7824
  753MOL0     H 3903   3.934   1.009   5.860 -0.7421 -0.8267 -1.5060
  753MOL0     H 3904   4.223   1.012   5.758 -0.6056 -0.0646  3.8290
  753MOL0     H 3905   4.136   1.154   5.807 -0.3872  0.5563 -2.1830
  753MOL0     H 3906   4.170   1.107   5.543 -1.9067  3.1046 -0.0625
  753MOL0     H 3907   4.064   0.970   5.573 -0.4196 -0.6295  1.2034
  753MOL0     H 3908   4.002   1.269   5.590 -1.7819  1.3800 -1.0610
  753MOL0     H 3909   3.898   1.139   5.678 -0.4895 -1.1031  0.1339
  753MOL0     H 3910   3.729   1.118   5.311 -1.2298  1.0675  0.9859
  753MOL0     H 3911   4.165   0.746   5.776  0.5163 -3.1794 -1.4661
  753MOL0     H 3912   4.353   0.485   5.825  0.6236 -1.4333 -0.9460
  753MOL0     H 3913   4.200   0.405   5.796  0.7179 -0.0530  0.0667
  753MOL0     H 3914   4.245   0.547   5.703 -1.5277 -1.1469 -0.3907
  754MOL0     O 3915   7.296   7.824   8.667  0.4003 -0.7001 -1.0448
  754MOL0     C 3916   7.346   7.728   8.611 -0.0832  0.5319  0.8259
  754MOL0     O 3917   7.463   7.667   8.646  0.0117  0.3452  0.0431
  754MOL0     C 3918   7.543   7.741   8.726 -0.8282  0.3191 -0.3583
  754MOL0     C 3919   7.603   7.660   8.825  1.0039 -0.5127  0.1334
  754MOL0     C 3920   7.700   7.728   8.908  0.0481  1.5335 -0.9366
  754MOL0     C 3921   7.741   7.860   8.882 -0.4186 -0.7261 -0.5553
  754MOL0     O 3922   7.827   7.899   8.985 -0.0233 -0.2225  0.6612
  754MOL0     C 3923   7.894   8.029   8.980  0.3410  0.1299 -0.5331
  754MOL0     C 3924   8.023   8.039   8.891  0.8590  1.0100 -0.0927
  754MOL0     C 3925   8.125   8.150   8.938  0.6609  0.2475  0.8811
  754MOL0     C 3926   8.239   8.160   8.837 -0.0636 -0.0907  0.0582
  754MOL0     C 3927   8.284   8.311   8.826 -0.1351 -0.0420  0.1147
  754MOL0     C 3928   8.407   8.340   8.731  0.3252  0.1681 -0.5395
  754MOL0     C 3929   8.543   8.302   8.795 -0.0935  0.3782 -0.5346
  754MOL0     C 3930   8.585   8.155   8.794  0.4891 -0.3697 -0.3900
  754MOL0     N 3931   8.732   8.143   8.826 -0.7562  0.4971  0.2583
  754MOL0     C 3932   8.802   8.182   8.938  0.4510  0.1799 -0.4673
  754MOL0     C 3933   8.932   8.135   8.930 -0.3180  0.2723  0.8193
  754MOL0     C 3934   9.053   8.135   9.020 -0.3703  0.0815 -0.4246
  754MOL0     C 3935   9.099   7.999   9.071  0.6783 -0.3611  0.8052
  754MOL0     C 3936   9.211   8.013   9.171 -0.6957 -0.4691 -0.0237
  754MOL0     C 3937   9.343   7.939   9.134  0.3017 -0.1558  0.2147
  754MOL0     O 3938   9.431   7.924   9.242  0.2058  0.9267  0.1210
  754MOL0     C 3939   9.562   7.891   9.212  0.3572 -0.4010  0.1415
  754MOL0     C 3940   9.644   7.887   9.328 -0.7305  0.2993 -0.0036
  754MOL0     C 3941   9.781   7.859   9.316 -0.2383 -0.0847 -0.3268
  754MOL0     C 3942   9.870   7.859   9.450  0.0599  0.5015  0.8048
  754MOL0     C 3943   9.840   7.842   9.184  0.4628  0.0174 -0.4078
  754MOL0     C 3944   9.985   7.824   9.149  0.9512  0.7613  0.3289
  754MOL0     O 3945  10.073   7.765   9.236 -0.4222 -0.4327  0.4467
  754MOL0     C 3946  10.201   7.730   9.193  0.3962  0.0634 -0.1758
  754MOL0     C 3947  10.290   7.825   9.138 -0.1015 -0.6695 -0.3182
  754MOL0     C 3948  10.420   7.794   9.117 -1.4698  0.6077  0.6575
  754MOL0     C 3949  10.475   7.672   9.151 -0.1561  0.3477  0.3601
  754MOL0     O 3950  10.609   7.658   9.116 -0.3350 -0.2626 -0.0589
  754MOL0     C 3951  10.650   7.534   9.059 -0.4682 -0.2170 -0.1925
  754MOL0     C 3952  10.798   7.533   9.044  0.1157  0.1089  0.0865
  754MOL0     C 3953  10.839   7.625   8.931 -1.1671  0.0537  0.6095
  754MOL0     C 3954  10.980   7.566   8.880 -0.6995 -0.0473  0.4418
  754MOL0     C 3955  11.032   7.646   8.756 -0.9641 -1.0718  0.3778
  754MOL0     C 3956  11.155   7.595   8.674  0.2389 -0.4403  0.3156
  754MOL0     C 3957  11.211   7.678   8.557 -0.0396 -0.0872 -0.1500
  754MOL0     C 3958  11.124   7.680   8.430 -0.9726 -0.4059 -1.1268
  754MOL0    Cl 3959  11.173   7.821   8.326 -0.0474 -0.5195 -0.5281
  754MOL0     C 3960  10.394   7.577   9.200 -0.1557 -0.0758 -0.1980
  754MOL0     C 3961  10.255   7.603   9.227 -0.0175 -0.5641 -0.4092
  754MOL0     O 3962  10.018   7.859   9.034  0.5453 -0.0890  0.3446
  754MOL0     C 3963   9.744   7.838   9.073 -0.7008 -0.0396  0.4906
  754MOL0     C 3964   9.611   7.855   9.087 -0.3204  0.0431  0.1196
  754MOL0     N 3965   8.933   8.077   8.806 -0.3271 -0.3946  0.4579
  754MOL0     N 3966   8.821   8.086   8.742 -0.3719 -0.0566  0.4333
  754MOL0     C 3967   7.674   7.932   8.784  0.7871  0.4182 -0.1987
  754MOL0     C 3968   7.580   7.875   8.699 -0.1489 -0.0548  0.0294
  754MOL0     C 3969   7.278   7.658   8.506  0.2702  0.2118  0.3128
  754MOL0     C 3970   7.141   7.679   8.494  0.1802 -0.4674 -0.1186
  754MOL0     C 3971   7.064   7.625   8.394  1.0229  1.1246 -1.2151
  754MOL0     C 3972   7.114   7.548   8.294  1.2822  0.9261 -0.7250
  754MOL0     O 3973   7.046   7.474   8.201  0.3687  0.0367 -0.0891
  754MOL0     C 3974   6.903   7.493   8.190 -0.5969  0.5755  0.6251
  754MOL0     C 3975   6.865   7.495   8.043 -1.0155  0.0435  0.3732
  754MOL0     C 3976   6.736   7.564   8.004  0.5686  0.8203 -0.1850
  754MOL0     C 3977   6.673   7.535   7.864 -0.7633 -0.3244 -0.3394
  754MOL0     C 3978   6.749   7.593   7.749  0.2822  0.5091 -0.3234
  754MOL0     C 3979   6.809   7.634   7.649 -1.0014 -0.0815 -0.9358
  754MOL0     C 3980   7.251   7.528   8.299  0.1397  0.2417 -0.3479
  754MOL0     C 3981   7.330   7.581   8.401  0.7077  0.1128  0.0872
  754MOL0     C 3982   7.475   7.532   8.396  0.3488 -0.4361  0.2802
  754MOL0     H 3983   7.571   7.558   8.843 -0.8471  0.0986  0.4488
  754MOL0     H 3984   7.737   7.675   8.995 -2.2310 -0.1113 -0.8653
  754MOL0     H 3985   7.927   8.045   9.082 -0.1445 -0.3006 -0.2985
  754MOL0     H 3986   7.821   8.108   8.958 -0.1901  0.6081  2.4897
  754MOL0     H 3987   8.066   7.939   8.896  1.5763  1.3572  1.2629
  754MOL0     H 3988   7.981   8.062   8.793  2.7177 -1.6146 -1.6251
  754MOL0     H 3989   8.073   8.246   8.942  2.4911  1.3633 -0.4422
  754MOL0     H 3990   8.168   8.127   9.036  1.9242 -3.3879 -0.3765
  754MOL0     H 3991   8.326   8.097   8.856  2.1587  1.6213 -3.2985
  754MOL0     H 3992   8.200   8.125   8.741  0.3244 -0.2954 -0.0249
  754MOL0     H 3993   8.298   8.350   8.928 -0.6622 -1.0265  0.5762
  754MOL0     H 3994   8.200   8.368   8.785  1.2390  3.4123  1.6121
  754MOL0     H 3995   8.388   8.302   8.630 -1.5867  2.2184 -1.0383
  754MOL0     H 3996   8.404   8.448   8.716 -0.5808  0.6351  2.3627
  754MOL0     H 3997   8.549   8.346   8.895 -3.0704 -0.9950  0.3401
  754MOL0     H 3998   8.623   8.348   8.736  0.7949 -0.5779 -0.1034
  754MOL0     H 3999   8.535   8.098   8.873  0.1128 -1.1292 -1.1621
  754MOL0     H 4000   8.557   8.107   8.700 -1.8980 -1.2696  0.6830
  754MOL0     H 4001   8.763   8.241   9.021 -0.6625  0.8965 -1.4761
  754MOL0     H 4002   9.027   8.203   9.101  2.2888  0.0045  0.5738
  754MOL0     H 4003   9.137   8.186   8.972 -0.7822  2.1434  0.9366
  754MOL0     H 4004   9.017   7.954   9.129  0.2560  0.5956  0.9614
  754MOL0     H 4005   9.120   7.934   8.985 -0.4435 -1.3033  1.2105
  754MOL0     H 4006   9.244   8.117   9.166 -1.3240 -0.3169 -2.7845
  754MOL0     H 4007   9.183   7.998   9.276  1.0260  0.6174  0.6274
  754MOL0     H 4008   9.327   7.838   9.094  1.3073  0.0737 -0.8162
  754MOL0     H 4009   9.386   7.996   9.051 -1.1027 -1.1577 -1.2589
  754MOL0     H 4010   9.589   7.893   9.422 -0.8227 -3.5321  0.3418
  754MOL0     H 4011   9.798   7.829   9.527  0.6892  0.1855  1.2763
  754MOL0     H 4012   9.909   7.959   9.472 -1.0529  1.1583 -0.0589
  754MOL0     H 4013   9.947   7.783   9.443 -0.6328 -0.1582  0.1037
  754MOL0     H 4014  10.263   7.922   9.097  2.9358 -0.1931 -1.4195
  754MOL0     H 4015  10.487   7.866   9.072 -1.0631  0.2847  0.7353
  754MOL0     H 4016  10.608   7.448   9.112 -4.7355  2.1615  0.6760
  754MOL0     H 4017  10.613   7.515   8.958 -1.8506 -4.0873  0.8801
  754MOL0     H 4018  10.848   7.549   9.141 -1.4884 -1.6343  1.2739
  754MOL0     H 4019  10.830   7.434   9.009 -1.0341  0.2975 -1.5540
  754MOL0     H 4020  10.839   7.728   8.968  1.6503 -0.0694  1.1720
  754MOL0     H 4021  10.781   7.615   8.839  2.1299 -1.9836 -1.4467
  754MOL0     H 4022  10.990   7.458   8.864 -0.8913 -0.7930  4.3698
  754MOL0     H 4023  11.045   7.587   8.966 -2.1589  1.6456  1.1941
  754MOL0     H 4024  10.961   7.659   8.674  1.0146  2.3229 -0.9988
  754MOL0     H 4025  11.059   7.747   8.789 -0.0464 -0.3607 -2.2890
  754MOL0     H 4026  11.127   7.497   8.633 -2.9916  1.5063 -2.6887
  754MOL0     H 4027  11.227   7.591   8.755 -1.5763 -0.0171  2.0253
  754MOL0     H 4028  11.312   7.643   8.532 -0.1966 -1.9895  1.5437
  754MOL0     H 4029  11.226   7.781   8.591  1.7721 -1.1543  2.6537
  754MOL0     H 4030  11.018   7.689   8.454 -0.8871 -0.1497 -0.8388
  754MOL0     H 4031  11.137   7.581   8.384  2.9125  0.2085 -1.7025
  754MOL0     H 4032  10.442   7.485   9.232 -2.8551 -0.6903  2.6119
  754MOL0     H 4033  10.207   7.523   9.283  2.5904 -0.2245  2.5679
  754MOL0     H 4034   9.778   7.832   8.969 -2.2838  1.5014 -0.1607
  754MOL0     H 4035   9.557   7.848   8.994  2.0124 -1.4845 -1.2023
  754MOL0     H 4036   7.702   8.036   8.776 -0.7073  0.8351 -0.2589
  754MOL0     H 4037   7.539   7.937   8.620 -3.7209 -2.3581 -0.1436
  754MOL0     H 4038   7.088   7.734   8.571 -0.5015  0.4964 -1.2353
  754MOL0     H 4039   6.960   7.650   8.407  0.8834 -0.6247  2.4569
  754MOL0     H 4040   6.860   7.406   8.241  2.0463 -0.5572  1.1162
  754MOL0     H 4041   6.865   7.586   8.233  0.5668  0.8967  1.0022
  754MOL0     H 4042   6.874   7.393   8.002  0.8459  0.4291 -0.2988
  754MOL0     H 4043   6.944   7.546   7.988 -1.2635 -0.0049 -0.0279
  754MOL0     H 4044   6.664   7.514   8.069  1.2149 -1.3294 -1.0286
  754MOL0     H 4045   6.741   7.672   8.019 -0.1271  0.3855  4.5649
  754MOL0     H 4046   6.571   7.574   7.870 -0.2094  1.1707 -0.2000
  754MOL0     H 4047   6.656   7.428   7.844 -4.7858  0.6561 -3.4250
  754MOL0     H 4048   6.869   7.663   7.565 -0.6690  0.0861 -0.6444
  754MOL0     H 4049   7.288   7.455   8.228  0.2667 -0.5015  0.4678
  754MOL0     H 4050   7.503   7.500   8.296 -0.2675  0.3456 -0.1550
  754MOL0     H 4051   7.548   7.601   8.440 -1.4284  0.3415  2.2146
  754MOL0     H 4052   7.472   7.445   8.462  1.5097  1.5170  3.1569
  755MOL0     O 4053   6.865   9.341   9.299 -0.4312  0.0056  0.6937
  755MOL0     C 4054   6.819   9.448   9.269 -0.0391 -1.5214  0.3909
  755MOL0     O 4055   6.881   9.571   9.283  0.6137  0.2953 -0.2744
  755MOL0     C 4056   7.018   9.571   9.299 -0.1889 -1.0948  0.2183
  755MOL0     C 4057   7.080   9.518   9.408  0.2191 -0.3138  0.2688
  755MOL0     C 4058   7.216   9.479   9.405 -0.3690  0.3209  0.0652
  755MOL0     C 4059   7.297   9.520   9.301 -0.1541 -0.7461 -0.6226
  755MOL0     O 4060   7.431   9.491   9.304 -0.4693 -0.6519  0.6057
  755MOL0     C 4061   7.530   9.565   9.231  1.0176 -0.0481  0.2868
  755MOL0     C 4062   7.667   9.502   9.259  0.3333 -0.3907  0.2298
  755MOL0     C 4063   7.772   9.616   9.248 -0.5783  0.0360 -0.3284
  755MOL0     C 4064   7.902   9.545   9.273 -0.3337 -0.6245  0.5142
  755MOL0     C 4065   8.018   9.633   9.223  0.4018 -0.1920 -0.3852
  755MOL0     C 4066   8.150   9.577   9.257  0.5585 -0.4332  0.0409
  755MOL0     C 4067   8.269   9.668   9.214 -0.3256 -0.9871  0.0258
  755MOL0     C 4068   8.261   9.803   9.298  0.4303 -0.7205 -0.3773
  755MOL0     N 4069   8.394   9.843   9.350  0.5287  0.0586 -1.2739
  755MOL0     C 4070   8.450   9.807   9.471  0.0088  0.3249  0.7371
  755MOL0     C 4071   8.580   9.847   9.459  0.3419  0.0160 -0.2785
  755MOL0     C 4072   8.680   9.827   9.562  0.0451 -0.0026  0.4920
  755MOL0     C 4073   8.796   9.763   9.497  0.2701  0.5720  0.6468
  755MOL0     C 4074   8.917   9.774   9.587  0.3638 -0.1437 -0.3644
  755MOL0     C 4075   9.056   9.764   9.510 -0.2732  0.8462  0.1020
  755MOL0     O 4076   9.149   9.845   9.583  0.1799 -0.0118  0.1076
  755MOL0     C 4077   9.258   9.884   9.510 -0.2657 -0.0416 -0.3189
  755MOL0     C 4078   9.299  10.022   9.510  0.2068 -0.2618  0.5610
  755MOL0     C 4079   9.408  10.071   9.445 -0.3740 -0.2599 -0.3143
  755MOL0     C 4080   9.446  10.217   9.452 -0.2142 -0.7065 -0.0228
  755MOL0     C 4081   9.474   9.984   9.355  0.3363  0.0270  0.7280
  755MOL0     C 4082   9.589  10.011   9.265 -0.2743  0.0220  0.9274
  755MOL0     O 4083   9.603   9.913   9.168 -0.1973 -0.1631  0.4186
  755MOL0     C 4084   9.725   9.902   9.105 -0.6315  1.1491 -0.2628
  755MOL0     C 4085   9.796   9.774   9.104  0.6097 -0.4774 -0.2722
  755MOL0     C 4086   9.900   9.757   9.017 -0.4268 -0.3255 -0.4861
  755MOL0     C 4087   9.949   9.849   8.934 -0.7218 -1.1187 -0.3421
  755MOL0     O 4088  10.056   9.811   8.854 -0.2279  0.2369  0.5727
  755MOL0     C 4089  10.116   9.910   8.771 -0.0123  0.4516  0.2147
  755MOL0     C 4090  10.231   9.844   8.695  0.2935  0.0800 -0.0053
  755MOL0     C 4091  10.278   9.933   8.581  0.3356  0.5261 -0.2001
  755MOL0     C 4092  10.428   9.930   8.578 -0.0045  0.2876  0.1191
  755MOL0     C 4093  10.499   9.987   8.449 -0.3276  0.3268 -0.9929
  755MOL0     C 4094  10.644   9.961   8.449 -0.5978 -0.3354 -0.1726
  755MOL0     C 4095  10.723  10.034   8.561  0.4348 -0.4304  0.6685
  755MOL0     C 4096  10.730  10.185   8.535 -0.1095 -0.0109  0.0881
  755MOL0    Cl 4097  10.834  10.210   8.398  0.1449 -0.0914  0.1000
  755MOL0     C 4098   9.896   9.986   8.947 -0.0795  0.5832 -0.1707
  755MOL0     C 4099   9.792  10.012   9.038  0.4606  0.7374 -0.1541
  755MOL0     O 4100   9.663  10.109   9.272  0.7517  1.2043 -0.6611
  755MOL0     C 4101   9.437   9.843   9.360  0.4858  0.2575 -0.1340
  755MOL0     C 4102   9.331   9.794   9.438 -0.3533  1.4635  0.1408
  755MOL0     N 4103   8.600   9.927   9.347 -0.0645 -0.3875 -0.4530
  755MOL0     N 4104   8.484   9.919   9.286 -1.0205  0.2691 -0.0136
  755MOL0     C 4105   7.242   9.616   9.213  0.2238  0.1544  0.5175
  755MOL0     C 4106   7.099   9.629   9.197 -0.2820  0.7233 -1.0607
  755MOL0     C 4107   6.681   9.440   9.230  0.6250 -0.4164 -0.0348
  755MOL0     C 4108   6.619   9.567   9.220  0.3160 -0.5439  0.3473
  755MOL0     C 4109   6.483   9.575   9.180  0.2361  0.0486 -0.3083
  755MOL0     C 4110   6.407   9.457   9.153 -0.6639  0.6856  0.1584
  755MOL0     O 4111   6.281   9.439   9.100 -0.6083  0.2844 -0.7435
  755MOL0     C 4112   6.220   9.556   9.050  0.4234  0.1358 -0.1092
  755MOL0     C 4113   6.245   9.610   8.920  0.2956 -0.3064  0.6900
  755MOL0     C 4114   6.238   9.517   8.800 -0.3697 -0.1839  0.2038
  755MOL0     C 4115   6.102   9.475   8.735  0.1242  0.8898  0.0182
  755MOL0     C 4116   6.000   9.408   8.825 -0.0673  0.2813 -0.2281
  755MOL0     C 4117   5.911   9.372   8.901  0.0430  0.3678  0.2156
  755MOL0     C 4118   6.472   9.337   9.176  0.3147  0.1037  0.2606
  755MOL0     C 4119   6.604   9.317   9.209  0.2291  0.6619  0.7350
  755MOL0     C 4120   6.648   9.174   9.242 -0.3890  0.5277  0.8982
  755MOL0     H 4121   7.024   9.468   9.486 -0.8003 -3.8176 -2.4202
  755MOL0     H 4122   7.255   9.417   9.484 -0.3338  0.1994 -0.0460
  755MOL0     H 4123   7.521   9.671   9.256 -0.9224 -0.7238  3.0111
  755MOL0     H 4124   7.513   9.552   9.124  0.7178  1.0509  0.1877
  755MOL0     H 4125   7.673   9.467   9.362  0.5750 -0.7691  0.0911
  755MOL0     H 4126   7.700   9.424   9.189 -1.0421  0.3179 -1.2720
  755MOL0     H 4127   7.760   9.667   9.152  0.0137  0.1301 -0.3547
  755MOL0     H 4128   7.760   9.695   9.323 -2.0982 -0.7457  0.2963
  755MOL0     H 4129   7.918   9.540   9.381  3.4567  1.5928  0.2445
  755MOL0     H 4130   7.916   9.448   9.224  2.4520 -0.1586  0.2165
  755MOL0     H 4131   8.009   9.725   9.281 -1.9965  0.0348 -1.0267
  755MOL0     H 4132   8.008   9.647   9.115 -3.4825 -0.9729 -0.2923
  755MOL0     H 4133   8.160   9.557   9.364  2.4440  1.2532  0.2436
  755MOL0     H 4134   8.158   9.479   9.207 -0.8182 -1.7846  2.3151
  755MOL0     H 4135   8.272   9.692   9.107  0.7601  2.2663  0.6710
  755MOL0     H 4136   8.357   9.614   9.249  1.7421  1.7041 -0.6664
  755MOL0     H 4137   8.220   9.874   9.226 -3.2239 -2.3291 -0.0982
  755MOL0     H 4138   8.196   9.803   9.386  2.2752  4.0147  1.3168
  755MOL0     H 4139   8.407   9.759   9.559  2.0239 -1.8066  0.6586
  755MOL0     H 4140   8.653   9.764   9.648  2.7546 -1.8438  0.1237
  755MOL0     H 4141   8.702   9.922   9.612  0.8255 -0.9450  2.0237
  755MOL0     H 4142   8.773   9.657   9.478  1.0302  0.6096 -0.5658
  755MOL0     H 4143   8.812   9.815   9.403 -0.8763  3.0219  1.7039
  755MOL0     H 4144   8.924   9.872   9.634  2.5766 -0.6238  0.4611
  755MOL0     H 4145   8.898   9.695   9.661 -2.9471 -1.8340 -2.7768
  755MOL0     H 4146   9.094   9.662   9.521 -1.1428  0.6409  1.4799
  755MOL0     H 4147   9.051   9.790   9.404 -0.0627 -0.6174 -0.2915
  755MOL0     H 4148   9.235  10.086   9.571 -0.1463  1.0654 -1.1221
  755MOL0     H 4149   9.377  10.273   9.516  2.3867 -0.4444  2.7751
  755MOL0     H 4150   9.449  10.251   9.348  1.8801 -1.0569 -0.1196
  755MOL0     H 4151   9.549  10.219   9.488  0.3948 -1.2914 -1.6072
  755MOL0     H 4152   9.757   9.698   9.170  0.1234 -0.2788 -0.3233
  755MOL0     H 4153   9.945   9.659   9.020 -1.1509 -0.6522  0.0984
  755MOL0     H 4154  10.041   9.950   8.702 -1.4202 -1.1602  0.7702
  755MOL0     H 4155  10.150   9.992   8.836 -0.7973  0.1124  1.0705
  755MOL0     H 4156  10.299   9.832   8.781 -2.2627  1.2347  2.3453
  755MOL0     H 4157  10.191   9.753   8.650 -0.3936 -0.4961  1.6768
  755MOL0     H 4158  10.253  10.039   8.592 -1.8073  0.1561 -0.9733
  755MOL0     H 4159  10.230   9.911   8.485 -1.6195 -2.0356  1.2540
  755MOL0     H 4160  10.446   9.823   8.591  0.4282  0.3925  0.4278
  755MOL0     H 4161  10.466   9.988   8.663  0.4268 -1.5343  1.2378
  755MOL0     H 4162  10.450   9.943   8.362 -3.5928 -1.1108  1.3642
  755MOL0     H 4163  10.475  10.094   8.440  1.1640  0.6297 -1.8833
  755MOL0     H 4164  10.682  10.000   8.354 -0.0322 -1.9793 -0.6699
  755MOL0     H 4165  10.649   9.852   8.457 -4.7650 -0.5469  2.1483
  755MOL0     H 4166  10.827  10.000   8.567  1.1012  1.6817  2.0559
  755MOL0     H 4167  10.672  10.024   8.657 -1.6078  1.6327 -0.1024
  755MOL0     H 4168  10.768  10.235   8.624 -4.6351  1.3208  1.5455
  755MOL0     H 4169  10.632  10.232   8.522  0.3580  1.8991  2.6645
  755MOL0     H 4170   9.922  10.063   8.876 -1.1102  1.5486  0.4752
  755MOL0     H 4171   9.753  10.112   9.054 -2.8322 -0.3538 -0.6089
  755MOL0     H 4172   9.497   9.774   9.302 -0.7301 -0.4646 -0.5853
  755MOL0     H 4173   9.316   9.687   9.431  1.2244  1.2676 -0.5755
  755MOL0     H 4174   7.306   9.661   9.138 -0.7520  1.4317  0.4172
  755MOL0     H 4175   7.050   9.690   9.122 -1.4769 -2.2014 -2.8392
  755MOL0     H 4176   6.657   9.658   9.266 -1.1584 -0.2753  1.0982
  755MOL0     H 4177   6.443   9.676   9.177  0.8073  0.2684 -0.9207
  755MOL0     H 4178   6.112   9.540   9.060  0.7865 -1.3531  2.1055
  755MOL0     H 4179   6.237   9.633   9.126 -0.1162 -0.2748  0.4456
  755MOL0     H 4180   6.343   9.657   8.933 -0.7307  1.7585  1.3710
  755MOL0     H 4181   6.182   9.699   8.915  1.1676  0.5715  3.3905
  755MOL0     H 4182   6.298   9.559   8.719  1.3999 -3.2256 -0.2250
  755MOL0     H 4183   6.284   9.426   8.840  0.7989  0.0666 -0.5352
  755MOL0     H 4184   6.137   9.413   8.653  1.1364 -0.2329  1.2490
  755MOL0     H 4185   6.052   9.558   8.684  1.0419  1.5736  0.1988
  755MOL0     H 4186   5.825   9.329   8.949 -1.5315 -0.5361 -3.0654
  755MOL0     H 4187   6.401   9.255   9.171 -2.1079  2.0005  1.1809
  755MOL0     H 4188   6.740   9.141   9.193 -2.8641 -0.7245 -3.5699
  755MOL0     H 4189   6.662   9.162   9.350  0.5628  0.1482  0.7447
  755MOL0     H 4190   6.568   9.106   9.212 -0.0782  1.1399 -1.5169
  756MOL0     O 4191   7.666   7.291   3.400 -0.7425 -0.0782  0.2051
  756MOL0     C 4192   7.604   7.318   3.298 -0.1613 -0.8649  0.1803
  756MOL0     O 4193   7.645   7.305   3.170 -0.2327  0.7631 -0.1791
  756MOL0     C 4194   7.775   7.279   3.137 -0.1595 -0.9597 -0.5645
  756MOL0     C 4195   7.877   7.355   3.192 -0.3507 -0.2865 -0.8682
  756MOL0     C 4196   8.014   7.333   3.161  0.6264 -0.3796 -0.3256
  756MOL0     C 4197   8.047   7.234   3.072  0.0678  0.6228  0.0354
  756MOL0     O 4198   8.168   7.190   3.032  0.5464  0.0839  0.3973
  756MOL0     C 4199   8.284   7.259   3.080  0.0116 -0.1479  0.7772
  756MOL0     C 4200   8.401   7.164   3.057 -0.4886  0.4089  0.1096
  756MOL0     C 4201   8.427   7.077   3.177 -0.0223  0.5262  0.2255
  756MOL0     C 4202   8.528   6.974   3.140  0.1510 -0.0411 -0.0484
  756MOL0     C 4203   8.603   6.910   3.249 -0.0568 -0.3669  0.2060
  756MOL0     C 4204   8.713   6.809   3.193 -0.2894 -0.2744  0.2098
  756MOL0     C 4205   8.826   6.785   3.289 -0.9509  0.2868 -0.4432
  756MOL0     C 4206   8.781   6.687   3.399  0.4380 -1.0509  0.9857
  756MOL0     N 4207   8.887   6.646   3.492  0.1374 -0.7477 -0.7627
  756MOL0     C 4208   8.892   6.535   3.578 -0.5219 -0.2517  0.3069
  756MOL0     C 4209   9.002   6.554   3.656  0.1042 -0.7549 -0.7748
  756MOL0     C 4210   9.044   6.468   3.769  0.2294 -0.2803  0.4653
  756MOL0     C 4211   9.191   6.422   3.751  0.4682  0.7018  0.5607
  756MOL0     C 4212   9.238   6.350   3.868  0.8360 -0.0142 -0.4653
  756MOL0     C 4213   9.390   6.337   3.870 -0.5739 -0.8239  1.0458
  756MOL0     O 4214   9.440   6.277   3.747  0.0281 -0.2774  0.0196
  756MOL0     C 4215   9.574   6.267   3.742 -1.1620  0.1392  0.5562
  756MOL0     C 4216   9.634   6.166   3.812 -0.1631  0.1986  0.2830
  756MOL0     C 4217   9.775   6.150   3.811  0.4681  0.3771  0.5782
  756MOL0     C 4218   9.834   6.047   3.897 -0.7187 -0.0522 -0.6490
  756MOL0     C 4219   9.857   6.235   3.726 -0.4998  1.7388  0.3265
  756MOL0     C 4220  10.006   6.213   3.721  0.1698 -0.8332  0.2747
  756MOL0     O 4221  10.085   6.325   3.710  0.0802 -0.4319 -0.4382
  756MOL0     C 4222  10.213   6.322   3.666 -0.1056  0.7413 -0.1302
  756MOL0     C 4223  10.239   6.284   3.528  0.4836  0.4384 -0.2103
  756MOL0     C 4224  10.373   6.267   3.487 -0.1882 -0.0855 -0.0997
  756MOL0     C 4225  10.483   6.277   3.576  0.3742 -1.2391 -0.0526
  756MOL0     O 4226  10.604   6.241   3.521  0.0331 -0.0968  0.2307
  756MOL0     C 4227  10.662   6.342   3.444 -0.0900 -0.4474  0.4725
  756MOL0     C 4228  10.813   6.346   3.480  0.3416  0.0466 -0.1968
  756MOL0     C 4229  10.880   6.210   3.463  0.1958 -0.4122  0.1006
  756MOL0     C 4230  10.898   6.180   3.315 -0.2950  0.3913  0.0434
  756MOL0     C 4231  10.957   6.041   3.302 -0.2306 -0.2833 -0.3132
  756MOL0     C 4232  11.106   6.051   3.306  0.5417  0.8007  1.3467
  756MOL0     C 4233  11.172   5.903   3.309  0.8248  0.2276  0.5830
  756MOL0     C 4234  11.321   5.915   3.306  0.7260 -0.4277  0.3064
  756MOL0    Cl 4235  11.378   5.982   3.149  0.4288  0.2298 -0.1972
  756MOL0     C 4236  10.453   6.322   3.705  0.2540 -0.2477 -0.3636
  756MOL0     C 4237  10.323   6.341   3.752  0.1788 -0.5141 -0.3294
  756MOL0     O 4238  10.049   6.100   3.693  0.1699  0.2631  0.6927
  756MOL0     C 4239   9.791   6.338   3.656 -0.4128 -0.0363 -0.1965
  756MOL0     C 4240   9.652   6.345   3.656  0.6900 -0.2449 -0.7210
  756MOL0     N 4241   9.060   6.682   3.621  0.6920  0.2906 -0.6902
  756MOL0     N 4242   8.994   6.728   3.526  0.2866  0.0487  0.3649
  756MOL0     C 4243   7.943   7.157   3.018 -0.2473 -0.5261  0.1406
  756MOL0     C 4244   7.806   7.185   3.042 -0.3271  0.1628  0.2812
  756MOL0     C 4245   7.468   7.364   3.312 -0.0712 -0.4057 -0.4861
  756MOL0     C 4246   7.370   7.297   3.235  0.9473 -0.2448  0.2685
  756MOL0     C 4247   7.234   7.325   3.246  0.2758 -0.0296  0.0843
  756MOL0     C 4248   7.198   7.416   3.351  0.0549 -0.7395 -0.6390
  756MOL0     O 4249   7.074   7.435   3.397 -0.1113  0.8142 -0.0964
  756MOL0     C 4250   6.964   7.369   3.332  0.5163  0.0087 -1.0058
  756MOL0     C 4251   6.836   7.440   3.384 -0.7956  0.1454 -0.0818
  756MOL0     C 4252   6.712   7.405   3.298  0.1238  0.8437  0.2168
  756MOL0     C 4253   6.581   7.478   3.336 -0.5703 -0.3495 -0.1563
  756MOL0     C 4254   6.467   7.410   3.282 -0.0443  0.2994 -0.0181
  756MOL0     C 4255   6.368   7.353   3.242  0.1014  0.2569  1.2051
  756MOL0     C 4256   7.292   7.486   3.418  0.3848  0.3469  0.1950
  756MOL0     C 4257   7.429   7.462   3.409  0.4093  0.4690 -0.3000
  756MOL0     C 4258   7.515   7.515   3.517 -0.0080 -0.3514  0.1331
  756MOL0     H 4259   7.837   7.432   3.258 -2.8804 -0.8380 -1.6186
  756MOL0     H 4260   8.087   7.393   3.214  0.3097  0.2530 -0.5943
  756MOL0     H 4261   8.274   7.299   3.181  1.2808  0.0433  0.8401
  756MOL0     H 4262   8.282   7.355   3.027 -0.1984  0.4989  1.9119
  756MOL0     H 4263   8.396   7.120   2.957  0.2307  2.5722 -0.9371
  756MOL0     H 4264   8.484   7.232   3.040 -2.9505  3.0388 -2.5305
  756MOL0     H 4265   8.463   7.144   3.255  2.5351 -1.4384  0.8627
  756MOL0     H 4266   8.341   7.030   3.226  2.2206 -3.9147  0.3621
  756MOL0     H 4267   8.473   6.903   3.078  0.1221 -1.1601  1.2074
  756MOL0     H 4268   8.604   7.020   3.077  0.1991  1.6387  1.1781
  756MOL0     H 4269   8.535   6.862   3.320  1.5344 -0.8984  1.4293
  756MOL0     H 4270   8.653   6.989   3.307  1.7046 -1.1398 -0.1837
  756MOL0     H 4271   8.675   6.720   3.141 -2.0524  1.6181 -1.9401
  756MOL0     H 4272   8.756   6.857   3.104 -1.7531  0.3149 -0.1954
  756MOL0     H 4273   8.862   6.880   3.330  2.4363 -1.0805  0.1163
  756MOL0     H 4274   8.909   6.734   3.238 -1.1132 -0.3938 -0.0310
  756MOL0     H 4275   8.711   6.739   3.465  0.4409  0.2750 -0.0125
  756MOL0     H 4276   8.743   6.596   3.351 -0.0761 -1.0914  1.4651
  756MOL0     H 4277   8.821   6.453   3.583  0.6719 -1.3441 -0.0994
  756MOL0     H 4278   8.968   6.390   3.777 -1.0634  1.0190  1.3071
  756MOL0     H 4279   9.021   6.533   3.854 -0.8128  1.7525 -1.2992
  756MOL0     H 4280   9.210   6.355   3.667  2.8089  2.3673 -0.3500
  756MOL0     H 4281   9.251   6.513   3.739  0.6965  0.3422 -1.3649
  756MOL0     H 4282   9.199   6.410   3.951  0.5949  1.8466 -1.8617
  756MOL0     H 4283   9.198   6.248   3.875  0.4555  0.1754  0.2548
  756MOL0     H 4284   9.447   6.431   3.880  2.2582 -2.2059 -0.7175
  756MOL0     H 4285   9.415   6.278   3.959  0.3482 -0.7273  0.8633
  756MOL0     H 4286   9.576   6.095   3.871 -3.5663 -1.2948 -4.2338
  756MOL0     H 4287   9.936   6.075   3.924 -0.5831  0.1887 -1.3970
  756MOL0     H 4288   9.836   5.944   3.860  0.3229  0.7084 -2.8923
  756MOL0     H 4289   9.781   6.042   3.993  1.5008  1.6902  0.7616
  756MOL0     H 4290  10.157   6.257   3.462 -0.1819  2.5695 -0.3589
  756MOL0     H 4291  10.387   6.254   3.380  0.3939 -2.3724  0.2032
  756MOL0     H 4292  10.654   6.335   3.335 -0.0501 -3.2544  0.5804
  756MOL0     H 4293  10.619   6.440   3.466  0.3551  0.0636 -0.8284
  756MOL0     H 4294  10.857   6.416   3.408 -0.0352  0.8098  0.3063
  756MOL0     H 4295  10.827   6.382   3.582  3.0962  1.7315 -1.0727
  756MOL0     H 4296  10.823   6.129   3.509  0.7643 -2.1340 -2.0368
  756MOL0     H 4297  10.974   6.222   3.517 -0.1579  1.9059  0.3091
  756MOL0     H 4298  10.967   6.246   3.263  2.1450 -1.1827  1.1040
  756MOL0     H 4299  10.799   6.183   3.269 -0.6495 -1.4341  0.5604
  756MOL0     H 4300  10.913   5.971   3.374  1.6015 -0.6194  0.5249
  756MOL0     H 4301  10.937   6.009   3.199  1.0199  0.0801 -0.6808
  756MOL0     H 4302  11.137   6.106   3.395  1.1239  2.0067  0.4312
  756MOL0     H 4303  11.145   6.101   3.217  0.3174 -2.7225 -0.9280
  756MOL0     H 4304  11.142   5.836   3.229  0.3302  1.2043 -0.0625
  756MOL0     H 4305  11.153   5.850   3.403 -0.7950 -1.0237 -0.4095
  756MOL0     H 4306  11.374   5.821   3.319  0.7780 -0.4046  0.2628
  756MOL0     H 4307  11.358   5.987   3.380 -0.7692  2.4823 -1.5611
  756MOL0     H 4308  10.525   6.345   3.783 -1.4184  1.9490  0.6470
  756MOL0     H 4309  10.312   6.375   3.854 -0.2912 -0.8416 -0.2680
  756MOL0     H 4310   9.849   6.407   3.596 -1.5003  1.1901  0.1119
  756MOL0     H 4311   9.603   6.413   3.588 -1.6354 -1.8172 -0.7290
  756MOL0     H 4312   7.972   7.079   2.949 -0.0606 -0.9728  0.7182
  756MOL0     H 4313   7.726   7.122   3.004 -0.9944  0.7489  0.6874
  756MOL0     H 4314   7.412   7.229   3.160  1.8933  0.5585  0.0563
  756MOL0     H 4315   7.154   7.266   3.201  1.8369  0.4765 -3.7103
  756MOL0     H 4316   6.976   7.401   3.228 -0.5214  2.6418 -0.4016
  756MOL0     H 4317   6.984   7.265   3.360  4.2790  1.1512  1.2877
  756MOL0     H 4318   6.857   7.547   3.381  1.1144 -0.1960  0.0608
  756MOL0     H 4319   6.826   7.420   3.491  1.6853  2.3500  0.6729
  756MOL0     H 4320   6.722   7.407   3.189 -3.8915 -0.7131 -0.3596
  756MOL0     H 4321   6.687   7.300   3.315 -1.3707  1.1931  0.3406
  756MOL0     H 4322   6.573   7.580   3.299  2.6543  0.2103  0.3666
  756MOL0     H 4323   6.580   7.485   3.445  0.2723 -1.7883 -0.0177
  756MOL0     H 4324   6.268   7.323   3.216 -1.1999  4.8211  0.1472
  756MOL0     H 4325   7.265   7.559   3.493  2.4817  1.7151 -0.3163
  756MOL0     H 4326   7.622   7.519   3.494  0.0083 -0.4898  0.1795
  756MOL0     H 4327   7.478   7.613   3.546 -0.3038 -0.4239  0.0065
  756MOL0     H 4328   7.505   7.441   3.597 -2.4942  0.8465  1.0256
  757MOL0     O 4329   7.512   9.565   1.468 -0.1703 -0.0319 -0.3450
  757MOL0     C 4330   7.485   9.524   1.582  0.6095 -0.1328  0.3588
  757MOL0     O 4331   7.563   9.473   1.675 -0.8807  0.1765  0.1700
  757MOL0     C 4332   7.678   9.538   1.700 -1.1802 -0.5440  0.4746
  757MOL0     C 4333   7.717   9.661   1.650 -0.8414 -0.4768 -0.0960
  757MOL0     C 4334   7.849   9.710   1.678 -0.0891  0.5135  0.5080
  757MOL0     C 4335   7.934   9.636   1.761 -0.1860 -0.3890 -0.7194
  757MOL0     O 4336   8.051   9.695   1.796 -0.5498 -0.2419  0.7554
  757MOL0     C 4337   8.136   9.722   1.687 -0.3994  0.0737 -0.6803
  757MOL0     C 4338   8.278   9.659   1.703 -0.3815  0.1892 -0.1405
  757MOL0     C 4339   8.271   9.503   1.688  0.6561 -0.7924  0.0224
  757MOL0     C 4340   8.409   9.449   1.669 -0.1404  0.0182 -0.4511
  757MOL0     C 4341   8.407   9.308   1.624 -0.1624 -0.2908  0.5960
  757MOL0     C 4342   8.554   9.259   1.606 -0.3813  0.3963 -0.3396
  757MOL0     C 4343   8.570   9.106   1.577 -0.9170  0.1845 -0.1355
  757MOL0     C 4344   8.725   9.073   1.567  1.4203  0.2847  0.0598
  757MOL0     N 4345   8.723   8.940   1.496  0.3684 -0.4554 -0.0442
  757MOL0     C 4346   8.785   8.912   1.377 -0.0020  0.6071  0.6902
  757MOL0     C 4347   8.735   8.789   1.338 -0.9578 -0.6006  0.1979
  757MOL0     C 4348   8.777   8.718   1.207 -0.1961 -0.3757 -0.2861
  757MOL0     C 4349   8.758   8.559   1.206 -0.8096  0.1712  0.0617
  757MOL0     C 4350   8.823   8.499   1.342 -0.2280 -0.2206 -0.2132
  757MOL0     C 4351   8.956   8.555   1.400 -0.5917  0.6344  0.2417
  757MOL0     O 4352   9.070   8.503   1.325  0.7554 -0.1335  0.2083
  757MOL0     C 4353   9.193   8.522   1.373  0.1516  0.0150  0.4992
  757MOL0     C 4354   9.293   8.459   1.302 -0.0896  0.0604  0.5087
  757MOL0     C 4355   9.427   8.473   1.333  0.1200 -0.4071  0.2595
  757MOL0     C 4356   9.534   8.419   1.243 -0.3834  0.2371  0.0946
  757MOL0     C 4357   9.466   8.553   1.445 -0.1622 -0.5157  0.4947
  757MOL0     C 4358   9.605   8.564   1.503 -0.0483  0.1124 -0.1962
  757MOL0     O 4359   9.616   8.594   1.631  0.6724 -0.3777 -0.4784
  757MOL0     C 4360   9.729   8.593   1.702  0.6713 -0.1957 -0.4555
  757MOL0     C 4361   9.804   8.476   1.716 -0.0730  0.0515 -0.4787
  757MOL0     C 4362   9.920   8.481   1.794  0.6880  0.0560  0.1508
  757MOL0     C 4363   9.967   8.603   1.854 -0.3074  0.2378  0.4345
  757MOL0     O 4364  10.081   8.626   1.917  0.3388 -0.8113  0.0336
  757MOL0     C 4365  10.138   8.521   1.994  0.8346  0.3851 -0.5161
  757MOL0     C 4366  10.251   8.578   2.077 -0.4960 -0.0555  0.5791
  757MOL0     C 4367  10.391   8.548   2.022 -0.1046  0.1696  0.0458
  757MOL0     C 4368  10.503   8.605   2.110  0.5328  0.0711  0.2328
  757MOL0     C 4369  10.635   8.547   2.080  0.1428 -0.1239 -0.0871
  757MOL0     C 4370  10.749   8.598   2.182  0.5602 -0.6768 -0.1388
  757MOL0     C 4371  10.879   8.522   2.160  0.0260  0.2647  0.2811
  757MOL0     C 4372  10.983   8.599   2.242 -0.2948 -0.4273  0.2636
  757MOL0    Cl 4373  11.131   8.497   2.260  0.3820  0.1481 -0.3803
  757MOL0     C 4374   9.890   8.718   1.828 -0.9114  0.8896 -0.1860
  757MOL0     C 4375   9.769   8.715   1.753 -1.2357  0.6801 -0.0850
  757MOL0     O 4376   9.704   8.541   1.433  0.2696 -0.3369  0.4032
  757MOL0     C 4377   9.353   8.621   1.522  0.6213  0.7330  0.1772
  757MOL0     C 4378   9.221   8.595   1.491  0.4232  0.5336 -0.0664
  757MOL0     N 4379   8.637   8.748   1.428  0.8374  0.5702 -0.2107
  757MOL0     N 4380   8.636   8.836   1.524 -0.1779  1.0002 -0.3852
  757MOL0     C 4381   7.894   9.514   1.807 -0.2292  0.0041  0.5096
  757MOL0     C 4382   7.765   9.472   1.783  0.4815  0.3650  0.1539
  757MOL0     C 4383   7.338   9.529   1.625  0.0985 -0.4703  0.6880
  757MOL0     C 4384   7.306   9.507   1.758 -0.0718 -0.5074 -0.2629
  757MOL0     C 4385   7.172   9.524   1.799 -0.1466  0.2878 -0.3543
  757MOL0     C 4386   7.070   9.547   1.709  0.1664 -0.3959 -0.7799
  757MOL0     O 4387   6.943   9.526   1.751 -0.0257  0.5492  0.2939
  757MOL0     C 4388   6.840   9.594   1.679  0.0835 -0.6464 -0.0807
  757MOL0     C 4389   6.716   9.602   1.756  0.3910  0.1532 -0.4570
  757MOL0     C 4390   6.715   9.723   1.849  0.2081  0.0105 -0.0480
  757MOL0     C 4391   6.670   9.680   1.988 -0.1046 -0.4473 -0.0184
  757MOL0     C 4392   6.576   9.771   2.046  0.8096 -0.5275  0.2342
  757MOL0     C 4393   6.484   9.837   2.091  0.1934 -0.1088  0.1430
  757MOL0     C 4394   7.102   9.566   1.577 -0.1515 -0.0357 -0.6185
  757MOL0     C 4395   7.232   9.544   1.531  0.2260 -0.4730  0.5290
  757MOL0     C 4396   7.245   9.545   1.376  0.5638  0.2432  0.1186
  757MOL0     H 4397   7.655   9.720   1.583  0.6492 -0.1776 -1.2582
  757MOL0     H 4398   7.873   9.811   1.649  0.6088 -0.4590 -2.7548
  757MOL0     H 4399   8.158   9.829   1.682  1.1253 -0.1233  0.9941
  757MOL0     H 4400   8.099   9.693   1.588 -0.2074 -0.6130 -0.5528
  757MOL0     H 4401   8.347   9.703   1.631  0.1690 -0.2105  0.1429
  757MOL0     H 4402   8.312   9.694   1.801  0.8061 -0.9913 -0.1061
  757MOL0     H 4403   8.226   9.457   1.777  0.1832 -3.4900 -1.4893
  757MOL0     H 4404   8.199   9.475   1.610  1.1147  0.3580 -0.8418
  757MOL0     H 4405   8.466   9.519   1.607 -0.8483  0.8432 -0.1932
  757MOL0     H 4406   8.461   9.450   1.765  0.2469  1.9622 -0.6320
  757MOL0     H 4407   8.353   9.298   1.530  1.0939 -0.8816 -0.0911
  757MOL0     H 4408   8.359   9.252   1.705  0.5000 -1.2362  0.3510
  757MOL0     H 4409   8.611   9.325   1.539  3.2819  1.7816  3.7202
  757MOL0     H 4410   8.600   9.273   1.704 -0.8996 -1.0447  0.1406
  757MOL0     H 4411   8.522   9.074   1.484 -0.4917 -0.3611 -0.1769
  757MOL0     H 4412   8.530   9.048   1.661  2.9830 -4.5295 -1.0437
  757MOL0     H 4413   8.775   9.147   1.505 -0.2691 -0.1076 -1.8774
  757MOL0     H 4414   8.770   9.076   1.667 -0.4442  1.0409  0.9297
  757MOL0     H 4415   8.855   8.973   1.322  0.1600  1.0917  1.4337
  757MOL0     H 4416   8.881   8.746   1.190 -1.0658  2.8213 -0.8367
  757MOL0     H 4417   8.719   8.753   1.121  1.4332 -1.6406 -1.9730
  757MOL0     H 4418   8.651   8.538   1.195 -0.6664  0.1667 -1.6368
  757MOL0     H 4419   8.809   8.519   1.118 -0.2458 -2.8182  1.5945
  757MOL0     H 4420   8.753   8.511   1.426 -0.1299  0.9241 -0.2771
  757MOL0     H 4421   8.834   8.391   1.332 -0.7448 -0.4959  1.6689
  757MOL0     H 4422   8.952   8.665   1.407  0.2510  0.6362  0.8065
  757MOL0     H 4423   8.972   8.509   1.498 -1.4927  2.0211  1.0728
  757MOL0     H 4424   9.258   8.400   1.217 -2.0962 -0.0156  1.3383
  757MOL0     H 4425   9.490   8.391   1.147  0.7769  2.1527 -1.0775
  757MOL0     H 4426   9.583   8.333   1.287  1.2436  1.8256  1.5558
  757MOL0     H 4427   9.616   8.487   1.216  0.5600 -0.6450  0.6877
  757MOL0     H 4428   9.761   8.388   1.668 -1.2312  0.5376 -0.3703
  757MOL0     H 4429   9.973   8.391   1.823  0.9231  0.1467  0.0070
  757MOL0     H 4430  10.064   8.485   2.065  2.8025 -1.3740  0.7760
  757MOL0     H 4431  10.179   8.441   1.932  2.4227  1.1722 -0.5515
  757MOL0     H 4432  10.247   8.688   2.082  0.8555  0.1540 -1.8630
  757MOL0     H 4433  10.248   8.537   2.179 -0.5177 -0.9262  0.2334
  757MOL0     H 4434  10.392   8.598   1.924 -1.5700  1.4144  0.6279
  757MOL0     H 4435  10.393   8.439   2.012 -1.6939  0.1344 -0.1433
  757MOL0     H 4436  10.484   8.582   2.216 -1.5111 -0.1325 -0.1394
  757MOL0     H 4437  10.528   8.711   2.096  2.8505 -0.1389  2.0379
  757MOL0     H 4438  10.627   8.439   2.100  4.0203 -0.2838  1.3910
  757MOL0     H 4439  10.656   8.572   1.976 -0.9569  1.2792  0.0099
  757MOL0     H 4440  10.716   8.574   2.283  2.8517 -0.0854  0.8212
  757MOL0     H 4441  10.765   8.705   2.165 -1.1351 -0.3561  0.1679
  757MOL0     H 4442  10.910   8.509   2.056  2.1050  1.9503  0.6152
  757MOL0     H 4443  10.861   8.426   2.209  0.5438  0.9861  1.9693
  757MOL0     H 4444  10.946   8.618   2.343  2.5101  1.8735  1.0031
  757MOL0     H 4445  11.004   8.697   2.199 -1.8952  0.1362  0.6656
  757MOL0     H 4446   9.937   8.810   1.862 -0.2328  0.6566 -0.4796
  757MOL0     H 4447   9.700   8.796   1.730 -1.4583  0.5311  0.0507
  757MOL0     H 4448   9.381   8.687   1.603  3.7122 -2.4101  1.9570
  757MOL0     H 4449   9.138   8.636   1.548  1.4481 -0.4806  2.2887
  757MOL0     H 4450   7.960   9.451   1.866  2.0132  2.5817  0.9856
  757MOL0     H 4451   7.741   9.372   1.819  0.4843 -0.2733 -1.5602
  757MOL0     H 4452   7.383   9.490   1.833 -1.6929  0.2715  1.7028
  757MOL0     H 4453   7.137   9.516   1.902  0.4656 -0.7745 -0.2120
  757MOL0     H 4454   6.867   9.696   1.647 -0.0137 -0.4108  0.5830
  757MOL0     H 4455   6.818   9.533   1.591  2.3234  1.2511 -2.1211
  757MOL0     H 4456   6.705   9.512   1.818  0.9902  2.1904  2.8845
  757MOL0     H 4457   6.637   9.602   1.681 -0.0416 -0.7234 -0.0165
  757MOL0     H 4458   6.818   9.757   1.860  0.5031 -1.0710  0.7756
  757MOL0     H 4459   6.655   9.806   1.810  1.3556 -0.2189 -2.4794
  757MOL0     H 4460   6.750   9.669   2.061  0.5899 -0.7593 -0.8109
  757MOL0     H 4461   6.621   9.582   1.999 -0.0863 -0.5116 -0.4733
  757MOL0     H 4462   6.392   9.887   2.114  1.0608  1.4602  0.3027
  757MOL0     H 4463   7.029   9.581   1.498 -1.0199  2.5496  0.5615
  757MOL0     H 4464   7.150   9.558   1.323  1.0164  0.3973 -0.6706
  757MOL0     H 4465   7.309   9.627   1.343  0.1335  0.9200  0.9296
  757MOL0     H 4466   7.293   9.450   1.351  1.0409  0.7303 -0.9001
  758MOL0     O 4467   8.755   0.193   3.467  0.4900  0.8065 -0.6161
  758MOL0     C 4468   8.695   0.193   3.574  0.0677  1.0976 -0.1650
  758MOL0     O 4469   8.751   0.223   3.702 -0.0846 -0.1492 -0.3183
  758MOL0     C 4470   8.873   0.273   3.696 -0.4250  0.1961 -0.0478
  758MOL0     C 4471   8.901   0.406   3.696 -0.0970  0.5950  0.1148
  758MOL0     C 4472   9.031   0.459   3.699 -0.5846 -0.0358 -0.2011
  758MOL0     C 4473   9.141   0.370   3.720  0.5720  0.1413  1.0059
  758MOL0     O 4474   9.269   0.401   3.741  0.0639 -0.5460  0.1408
  758MOL0     C 4475   9.292   0.499   3.849  0.5765  0.3493  0.9592
  758MOL0     C 4476   9.432   0.494   3.899  0.2268 -0.3246  0.4665
  758MOL0     C 4477   9.547   0.515   3.794  0.3645  0.1664  0.1701
  758MOL0     C 4478   9.595   0.384   3.734  0.0798  0.0405 -0.2948
  758MOL0     C 4479   9.716   0.412   3.647  0.9536  0.4417 -0.4080
  758MOL0     C 4480   9.778   0.278   3.612 -0.7289  0.6786 -0.7739
  758MOL0     C 4481   9.910   0.271   3.536 -0.1644 -0.1897  0.5982
  758MOL0     C 4482   9.902   0.347   3.398  0.0367 -0.4721  0.0399
  758MOL0     N 4483  10.036   0.381   3.368 -0.5908 -1.5356 -0.4515
  758MOL0     C 4484  10.138   0.299   3.350 -0.2440  0.2135 -0.0704
  758MOL0     C 4485  10.241   0.378   3.305  0.1506 -0.1309  0.8252
  758MOL0     C 4486  10.372   0.319   3.262 -0.5657  0.0347 -0.6694
  758MOL0     C 4487  10.480   0.349   3.358 -0.2237 -0.6152 -0.6284
  758MOL0     C 4488  10.552   0.486   3.345  0.6946 -0.2564  0.6104
  758MOL0     C 4489  10.632   0.488   3.208  0.0182  0.4622  0.5781
  758MOL0     O 4490  10.750   0.576   3.225 -0.2239 -0.0228 -0.3190
  758MOL0     C 4491  10.868   0.523   3.183  0.3598 -0.0710  0.5898
  758MOL0     C 4492  10.960   0.469   3.271 -0.0547 -0.2412  0.2348
  758MOL0     C 4493  11.087   0.420   3.236 -1.0570 -0.1627  0.1663
  758MOL0     C 4494  11.172   0.361   3.346 -0.2606  0.3381  0.0436
  758MOL0     C 4495  11.122   0.424   3.094  0.4199 -0.2148 -0.2359
  758MOL0     C 4496  11.253   0.381   3.050  0.1898 -0.3142  0.3330
  758MOL0     O 4497  11.282   0.420   2.923  0.0635 -0.0027 -0.9523
  758MOL0     C 4498  11.410   0.402   2.873  0.3556 -0.0424  0.8201
  758MOL0     C 4499  11.450   0.281   2.814  0.1818 -0.3894 -0.4787
  758MOL0     C 4500  11.569   0.277   2.747  0.1410  0.6876 -0.2926
  758MOL0     C 4501  11.664   0.370   2.764 -0.0649 -0.4719  0.4090
  758MOL0     O 4502  11.782   0.355   2.698  0.5676 -0.0943  0.0412
  758MOL0     C 4503  11.892   0.433   2.752 -0.5482  0.0678 -0.0698
  758MOL0     C 4504  11.902   0.560   2.663  0.5158 -0.0714  0.2048
  758MOL0     C 4505  12.046   0.604   2.656  0.2127  0.0879  0.5082
  758MOL0     C 4506  12.142   0.526   2.545  0.5434 -0.5824 -0.2845
  758MOL0     C 4507  12.304   0.554   2.572  0.6586 -0.4712 -1.5525
  758MOL0     C 4508  12.350   0.705   2.567  0.4236  0.6930  0.3228
  758MOL0     C 4509  12.360   0.744   2.420 -0.2208 -0.3151  1.6325
  758MOL0     C 4510  12.427   0.883   2.404 -0.9620  0.1963  0.2080
  758MOL0    Cl 4511  12.423   0.938   2.244 -0.1733 -0.3143 -0.0680
  758MOL0     C 4512  11.629   0.494   2.826 -0.1596 -0.2983  1.1005
  758MOL0     C 4513  11.502   0.503   2.886  0.7526 -0.0402  0.8499
  758MOL0     O 4514  11.329   0.310   3.121  0.2448  0.4305  0.1483
  758MOL0     C 4515  11.023   0.462   3.002  0.3654  0.1360  0.5461
  758MOL0     C 4516  10.901   0.523   3.055 -0.6726 -0.5402 -0.3315
  758MOL0     N 4517  10.201   0.504   3.293  0.8839  0.2082 -0.3254
  758MOL0     N 4518  10.080   0.506   3.334  0.2925  0.3146  0.9355
  758MOL0     C 4519   9.113   0.234   3.717 -0.3762  0.0463  0.6703
  758MOL0     C 4520   8.983   0.187   3.703  0.3180  0.1836 -0.1034
  758MOL0     C 4521   8.556   0.142   3.563  0.5329  0.0366  0.0164
  758MOL0     C 4522   8.477   0.190   3.454 -0.5237  1.1854 -0.1698
  758MOL0     C 4523   8.342   0.159   3.437 -0.1532  0.5847 -0.3755
  758MOL0     C 4524   8.295   0.046   3.505 -0.2460 -0.2424 -0.5304
  758MOL0     O 4525   8.170   0.006   3.463 -0.2321  0.5958  0.3643
  758MOL0     C 4526   8.079  -0.065   3.549 -0.2500  0.6092  0.7869
  758MOL0     C 4527   7.952  -0.108   3.472 -0.0623  0.5447  0.1612
  758MOL0     C 4528   7.982  -0.215   3.372 -0.2987 -0.2007 -0.3492
  758MOL0     C 4529   7.861  -0.280   3.313 -0.3704  0.5416 -0.3665
  758MOL0     C 4530   7.800  -0.195   3.213  0.9283  0.3212  0.4535
  758MOL0     C 4531   7.756  -0.119   3.127 -0.0131 -0.3158  0.3134
  758MOL0     C 4532   8.363   0.008   3.620  0.3361  0.0470 -0.1886
  758MOL0     C 4533   8.493   0.053   3.649 -0.6082 -0.6989 -0.4008
  758MOL0     C 4534   8.581  -0.019   3.746 -0.4462 -0.7577 -1.1013
  758MOL0     H 4535   8.814   0.470   3.684 -0.0720  0.4788 -0.7128
  758MOL0     H 4536   9.047   0.565   3.687 -0.4719  0.0879  0.9079
  758MOL0     H 4537   9.227   0.484   3.936  1.3925 -0.6784  1.4058
  758MOL0     H 4538   9.273   0.600   3.811 -1.5305 -0.1814  0.4340
  758MOL0     H 4539   9.433   0.573   3.975 -0.9413 -1.0924  1.2996
  758MOL0     H 4540   9.442   0.399   3.953 -2.8775 -0.5035  0.8782
  758MOL0     H 4541   9.516   0.580   3.712  1.5462  0.3656 -0.1308
  758MOL0     H 4542   9.633   0.564   3.840 -0.2673  1.8363 -0.3381
  758MOL0     H 4543   9.612   0.318   3.819  1.0507  1.0129  0.3043
  758MOL0     H 4544   9.515   0.346   3.671  1.9751 -1.6204 -1.8499
  758MOL0     H 4545   9.785   0.468   3.710  0.2220 -0.6539  1.4611
  758MOL0     H 4546   9.690   0.474   3.560 -0.6602  0.4232  0.0308
  758MOL0     H 4547   9.794   0.215   3.700  3.3422  3.4948  0.8693
  758MOL0     H 4548   9.702   0.218   3.561 -1.1135 -1.7979  2.3923
  758MOL0     H 4549   9.929   0.165   3.517  2.6560  0.6275 -1.7818
  758MOL0     H 4550   9.994   0.310   3.594  1.6219 -2.2916 -0.4137
  758MOL0     H 4551   9.864   0.287   3.315  2.7820 -2.3395  0.0128
  758MOL0     H 4552   9.849   0.441   3.417  1.5602  0.4011  0.0743
  758MOL0     H 4553  10.138   0.195   3.380  0.8653 -0.0017 -0.7744
  758MOL0     H 4554  10.386   0.351   3.158 -3.1622  1.3771 -0.6728
  758MOL0     H 4555  10.374   0.209   3.257  1.0870 -0.0259  0.5399
  758MOL0     H 4556  10.426   0.355   3.453 -2.5488  1.0036 -1.9467
  758MOL0     H 4557  10.550   0.266   3.350 -1.9362 -2.4402  1.8547
  758MOL0     H 4558  10.465   0.552   3.347  0.7682 -0.0908 -0.8736
  758MOL0     H 4559  10.621   0.514   3.426  1.0279  1.3248 -0.1722
  758MOL0     H 4560  10.674   0.390   3.184  3.5003  2.0690 -0.5130
  758MOL0     H 4561  10.566   0.523   3.128 -0.9182 -1.9297  0.2094
  758MOL0     H 4562  10.931   0.476   3.375  0.2813  0.0474  0.3104
  758MOL0     H 4563  11.130   0.370   3.446  0.5968  2.2153  0.2780
  758MOL0     H 4564  11.263   0.422   3.343  0.1377 -0.1418  1.5897
  758MOL0     H 4565  11.199   0.258   3.320 -2.2925 -0.8144  2.1174
  758MOL0     H 4566  11.374   0.205   2.802 -1.2329  1.1992 -2.2170
  758MOL0     H 4567  11.585   0.188   2.686  0.5834  1.8009 -1.8861
  758MOL0     H 4568  11.886   0.460   2.858 -0.1975 -0.0367 -0.0209
  758MOL0     H 4569  11.984   0.373   2.749  0.0164  0.9426 -1.2705
  758MOL0     H 4570  11.872   0.521   2.565  1.8315 -2.3034  0.6341
  758MOL0     H 4571  11.842   0.642   2.703  0.3312 -0.7160  1.2774
  758MOL0     H 4572  12.090   0.599   2.756 -0.3613  0.1614  0.7660
  758MOL0     H 4573  12.033   0.707   2.622 -0.8783  0.1365  1.0200
  758MOL0     H 4574  12.122   0.561   2.443 -1.0272  0.3172  0.2891
  758MOL0     H 4575  12.122   0.419   2.547 -0.9887 -0.3144  0.0258
  758MOL0     H 4576  12.332   0.518   2.672  0.0861 -0.3294 -1.3397
  758MOL0     H 4577  12.360   0.491   2.502  0.8613 -0.1842 -1.6507
  758MOL0     H 4578  12.450   0.702   2.610  1.4175  0.7780 -1.8209
  758MOL0     H 4579  12.290   0.774   2.627 -0.9372 -0.4232  0.3087
  758MOL0     H 4580  12.261   0.754   2.374  1.7575  0.9091 -2.9519
  758MOL0     H 4581  12.423   0.685   2.352 -1.9259 -0.4046  0.0495
  758MOL0     H 4582  12.533   0.873   2.430 -0.1584  0.5128 -2.6175
  758MOL0     H 4583  12.376   0.958   2.465  0.2231  2.1468 -1.0628
  758MOL0     H 4584  11.684   0.587   2.827 -2.1469  0.9315  1.9003
  758MOL0     H 4585  11.479   0.600   2.927 -0.7472 -0.2093  0.4472
  758MOL0     H 4586  11.033   0.453   2.894 -1.2839  0.1240  0.3792
  758MOL0     H 4587  10.820   0.560   2.993 -0.3231  1.9951  0.6439
  758MOL0     H 4588   9.198   0.167   3.729  0.7144  1.1260 -0.6487
  758MOL0     H 4589   8.964   0.080   3.702 -2.3200  0.5038 -3.1184
  758MOL0     H 4590   8.519   0.271   3.394  1.1971  0.3070 -0.2353
  758MOL0     H 4591   8.282   0.207   3.361  0.1649 -1.7910 -2.2380
  758MOL0     H 4592   8.135  -0.154   3.578  0.5134 -0.0842 -2.3866
  758MOL0     H 4593   8.048  -0.008   3.637 -2.3755 -0.5920  0.8824
  758MOL0     H 4594   7.917  -0.014   3.428 -0.1735  0.1469 -0.6236
  758MOL0     H 4595   7.883  -0.144   3.549 -1.1396  1.6697 -0.2541
  758MOL0     H 4596   8.053  -0.180   3.295  2.0297 -1.4530  1.1040
  758MOL0     H 4597   8.025  -0.294   3.434 -2.6463  0.0291  1.7129
  758MOL0     H 4598   7.795  -0.305   3.396 -1.8036 -0.4390 -1.7411
  758MOL0     H 4599   7.888  -0.377   3.270 -0.7784  0.3535 -0.2019
  758MOL0     H 4600   7.718  -0.038   3.069  1.5130  2.1977  2.6035
  758MOL0     H 4601   8.327  -0.069   3.687 -0.6645  0.2709 -0.4461
  758MOL0     H 4602   8.533  -0.110   3.783  1.5792 -3.2921 -4.1284
  758MOL0     H 4603   8.678  -0.049   3.705 -0.1102 -0.4115 -0.5751
  758MOL0     H 4604   8.602   0.046   3.831  1.1646  0.1237 -2.1184
  759MOL0     O 4605   8.754   5.234   3.788 -0.0092  0.7886 -0.9236
  759MOL0     C 4606   8.701   5.166   3.706 -0.9343 -0.1627  0.7595
  759MOL0     O 4607   8.748   5.129   3.582 -0.5113 -0.4983 -0.4354
  759MOL0     C 4608   8.878   5.139   3.558 -0.4054  1.0273  0.2344
  759MOL0     C 4609   8.945   5.019   3.555  0.1835  0.6603  0.0943
  759MOL0     C 4610   9.079   5.008   3.532  0.0166 -0.2942  0.0547
  759MOL0     C 4611   9.154   5.124   3.498 -0.9841 -0.1179 -0.0366
  759MOL0     O 4612   9.289   5.127   3.457  0.1945 -0.5380 -0.8949
  759MOL0     C 4613   9.383   5.047   3.527  0.1351  0.0203  0.8576
  759MOL0     C 4614   9.515   5.118   3.519  0.6253  0.0170  0.1610
  759MOL0     C 4615   9.571   5.127   3.376 -0.5837 -0.6898 -0.1103
  759MOL0     C 4616   9.715   5.179   3.391  0.2322  0.8212  0.4977
  759MOL0     C 4617   9.769   5.219   3.254 -0.1545  0.2890 -0.5768
  759MOL0     C 4618   9.907   5.309   3.267  0.2903 -1.7196  0.4898
  759MOL0     C 4619  10.028   5.216   3.257 -0.5451  0.1497  0.8172
  759MOL0     C 4620  10.159   5.301   3.254  0.8673 -0.2205  0.5522
  759MOL0     N 4621  10.279   5.234   3.243  0.4863 -0.3891 -0.3742
  759MOL0     C 4622  10.360   5.196   3.140 -0.8472 -0.4572 -0.4264
  759MOL0     C 4623  10.457   5.114   3.193 -0.1868  0.0031  0.4336
  759MOL0     C 4624  10.567   5.036   3.125 -0.1029  0.0557  0.0440
  759MOL0     C 4625  10.659   5.136   3.040  0.2035  0.4233  0.0848
  759MOL0     C 4626  10.724   5.253   3.114 -1.3512  0.3384 -0.3428
  759MOL0     C 4627  10.833   5.215   3.217 -0.9073 -0.4910 -0.1945
  759MOL0     O 4628  10.969   5.229   3.157 -0.6849 -0.1736 -1.5979
  759MOL0     C 4629  11.067   5.171   3.227  0.3053  0.2404  0.1805
  759MOL0     C 4630  11.077   5.139   3.364  0.0928 -0.5482 -0.1914
  759MOL0     C 4631  11.184   5.076   3.426  0.3280  0.6259 -0.3223
  759MOL0     C 4632  11.167   5.025   3.571 -0.0887 -0.0043 -0.1329
  759MOL0     C 4633  11.289   5.034   3.348 -0.8461 -0.2018  0.3539
  759MOL0     C 4634  11.419   4.969   3.397  0.4842  0.5159  0.0725
  759MOL0     O 4635  11.482   4.888   3.300  0.3329 -0.1150 -0.7036
  759MOL0     C 4636  11.598   4.821   3.339  0.8170 -0.0880  0.0752
  759MOL0     C 4637  11.604   4.682   3.365  0.1021  0.1568 -0.0259
  759MOL0     C 4638  11.726   4.616   3.393 -0.1159 -0.8206 -0.7803
  759MOL0     C 4639  11.849   4.688   3.411  0.7101 -0.9329 -0.1162
  759MOL0     O 4640  11.961   4.617   3.443 -0.0692  0.2936  0.1527
  759MOL0     C 4641  12.084   4.686   3.440  0.5115  0.0640  0.4535
  759MOL0     C 4642  12.211   4.606   3.429 -1.0041 -1.1316  0.2677
  759MOL0     C 4643  12.331   4.679   3.495  1.1396  0.3988 -0.5740
  759MOL0     C 4644  12.473   4.608   3.470  0.2560 -0.8015 -0.6675
  759MOL0     C 4645  12.579   4.708   3.524  0.7462 -0.1625  0.6917
  759MOL0     C 4646  12.718   4.647   3.543  0.7375  0.3222  0.1526
  759MOL0     C 4647  12.774   4.692   3.680 -0.5328 -0.2654 -0.9141
  759MOL0     C 4648  12.911   4.627   3.707  0.0901  1.2002  0.2872
  759MOL0    Cl 4649  12.965   4.678   3.873 -0.0503 -0.2185  0.2466
  759MOL0     C 4650  11.848   4.827   3.383  0.5953 -0.2951  1.1062
  759MOL0     C 4651  11.722   4.886   3.348  0.4271 -0.2335 -0.3289
  759MOL0     O 4652  11.463   5.000   3.508 -0.6328  0.0223  0.1352
  759MOL0     C 4653  11.287   5.077   3.209 -0.7506 -0.2591 -1.0766
  759MOL0     C 4654  11.176   5.136   3.156 -0.1925  0.6276 -0.2346
  759MOL0     N 4655  10.434   5.098   3.325  0.9066  0.1660 -0.0312
  759MOL0     N 4656  10.329   5.166   3.348 -0.0238 -0.1239 -0.1094
  759MOL0     C 4657   9.089   5.246   3.503 -1.2583  0.3645  0.3107
  759MOL0     C 4658   8.955   5.252   3.533  0.4177 -0.6438 -0.3742
  759MOL0     C 4659   8.564   5.113   3.738 -0.0553  0.2117  0.2564
  759MOL0     C 4660   8.511   5.002   3.670  0.6377  0.1794  0.3965
  759MOL0     C 4661   8.383   4.949   3.694  0.3766 -0.4098 -0.9825
  759MOL0     C 4662   8.298   5.012   3.785 -0.5357  0.6586  0.8561
  759MOL0     O 4663   8.173   4.953   3.785 -0.0560 -1.0918  0.5533
  759MOL0     C 4664   8.072   5.029   3.849  0.0806  1.1667  0.9905
  759MOL0     C 4665   8.035   5.002   3.995 -0.0612 -0.6972 -0.6934
  759MOL0     C 4666   7.905   5.062   4.041  0.5071  0.1138  0.2418
  759MOL0     C 4667   7.894   5.212   4.028  1.0348 -0.4326  0.4104
  759MOL0     C 4668   7.999   5.280   4.103 -0.0940 -1.0258  0.3919
  759MOL0     C 4669   8.097   5.333   4.156  0.5421  0.1185 -0.5625
  759MOL0     C 4670   8.346   5.116   3.856 -0.4758 -0.1043 -0.3180
  759MOL0     C 4671   8.477   5.174   3.841  0.2788  0.2335  0.1442
  759MOL0     C 4672   8.506   5.300   3.917 -0.1591 -0.3866 -0.7610
  759MOL0     H 4673   8.885   4.934   3.586  0.8860 -0.0896 -0.5472
  759MOL0     H 4674   9.124   4.909   3.523 -1.1637 -0.8252 -0.1895
  759MOL0     H 4675   9.399   4.956   3.468  3.9112  2.2037 -1.9569
  759MOL0     H 4676   9.365   5.036   3.634  2.3804  0.6475  1.3484
  759MOL0     H 4677   9.498   5.222   3.549 -2.8250 -0.7324  1.2243
  759MOL0     H 4678   9.594   5.067   3.576  1.3053 -1.1579 -1.7598
  759MOL0     H 4679   9.571   5.029   3.327 -2.3547 -0.2835 -1.0004
  759MOL0     H 4680   9.511   5.193   3.313  0.6162 -2.1616 -2.9828
  759MOL0     H 4681   9.716   5.256   3.468  0.1386  0.2290  1.1020
  759MOL0     H 4682   9.787   5.102   3.420  0.2926  0.9660  0.7292
  759MOL0     H 4683   9.693   5.281   3.204  1.0503  0.6221 -2.0589
  759MOL0     H 4684   9.791   5.131   3.194  0.3740 -1.0478  1.4664
  759MOL0     H 4685   9.921   5.378   3.183 -1.6973  1.4347  2.5563
  759MOL0     H 4686   9.910   5.366   3.360  1.7853  0.7535 -0.9528
  759MOL0     H 4687  10.033   5.154   3.167 -1.2767  1.2862 -0.0308
  759MOL0     H 4688  10.036   5.159   3.350  1.1273 -0.4924  0.3201
  759MOL0     H 4689  10.142   5.374   3.174 -3.8642  0.1390  1.6135
  759MOL0     H 4690  10.164   5.369   3.339  1.3094  0.5161 -0.0403
  759MOL0     H 4691  10.343   5.227   3.037  0.0713 -2.2730 -1.1696
  759MOL0     H 4692  10.536   4.952   3.063 -0.0775  1.5068 -2.0760
  759MOL0     H 4693  10.632   4.988   3.198  0.6630  1.1708  0.1186
  759MOL0     H 4694  10.728   5.077   2.979 -0.5015 -0.0929 -0.2348
  759MOL0     H 4695  10.583   5.176   2.972 -0.0795 -1.4436 -0.7653
  759MOL0     H 4696  10.756   5.328   3.042  0.9468  1.6147  1.8305
  759MOL0     H 4697  10.645   5.294   3.178 -0.1632  2.7179 -0.2775
  759MOL0     H 4698  10.835   5.279   3.305 -0.2739 -0.0296 -0.5424
  759MOL0     H 4699  10.824   5.110   3.247  0.0154  0.2744  3.2209
  759MOL0     H 4700  10.992   5.153   3.430 -1.1062  0.0668 -1.8004
  759MOL0     H 4701  11.221   4.931   3.589 -1.0208 -0.0003  3.3120
  759MOL0     H 4702  11.060   5.013   3.585 -0.1415  0.1937 -0.3515
  759MOL0     H 4703  11.206   5.103   3.637  1.1010  0.0765 -0.8984
  759MOL0     H 4704  11.511   4.626   3.364 -0.4155  0.9572  1.2485
  759MOL0     H 4705  11.728   4.510   3.417  0.1979 -1.0217 -1.6618
  759MOL0     H 4706  12.080   4.753   3.354 -3.3736 -0.4414  0.1058
  759MOL0     H 4707  12.093   4.744   3.533 -0.0487 -0.1334  0.6304
  759MOL0     H 4708  12.195   4.510   3.479 -0.4981 -1.9529 -1.1043
  759MOL0     H 4709  12.229   4.614   3.322  1.9508  2.4179  0.8099
  759MOL0     H 4710  12.313   4.681   3.603  0.1795  0.5632 -0.7247
  759MOL0     H 4711  12.339   4.781   3.456 -1.6314  1.2518  0.8096
  759MOL0     H 4712  12.494   4.602   3.362  1.2654 -1.3984 -0.4496
  759MOL0     H 4713  12.496   4.513   3.517 -0.2074 -0.2774  0.6672
  759MOL0     H 4714  12.591   4.790   3.453  2.3532  0.9971  2.2193
  759MOL0     H 4715  12.551   4.763   3.615  1.5777  1.0493  0.2402
  759MOL0     H 4716  12.781   4.685   3.462  1.8073  2.4240  1.8423
  759MOL0     H 4717  12.712   4.538   3.542  0.8219  0.3187 -0.1676
  759MOL0     H 4718  12.706   4.654   3.758  1.3974  0.2274  1.1009
  759MOL0     H 4719  12.785   4.800   3.689  1.1085 -0.3211 -1.9547
  759MOL0     H 4720  12.985   4.652   3.631 -0.0557  0.7237 -0.0181
  759MOL0     H 4721  12.902   4.518   3.712  2.5643  0.9665  0.4638
  759MOL0     H 4722  11.934   4.892   3.384  0.5558 -0.0744 -1.7347
  759MOL0     H 4723  11.722   4.987   3.308  1.1456 -0.8866 -2.0629
  759MOL0     H 4724  11.382   5.056   3.161 -0.3212 -2.7004  0.6378
  759MOL0     H 4725  11.180   5.155   3.049  0.5746  0.2739 -0.2788
  759MOL0     H 4726   9.149   5.333   3.475 -0.6520 -0.0716  0.2443
  759MOL0     H 4727   8.906   5.349   3.536  0.4595 -0.6437  1.3219
  759MOL0     H 4728   8.568   4.953   3.592 -1.6766 -2.1014  0.0058
  759MOL0     H 4729   8.337   4.861   3.649  2.2617 -1.8934 -0.1223
  759MOL0     H 4730   8.095   5.135   3.832  2.1904  1.3417  4.0685
  759MOL0     H 4731   7.976   5.012   3.800 -0.4690 -3.5954  3.1722
  759MOL0     H 4732   8.111   5.050   4.057 -0.1581  1.6289 -2.2959
  759MOL0     H 4733   8.022   4.893   4.006 -0.7734 -0.6407 -0.9358
  759MOL0     H 4734   7.829   5.017   3.977 -1.0790  0.8848  1.5298
  759MOL0     H 4735   7.879   5.034   4.143  1.3980 -1.0137  0.1789
  759MOL0     H 4736   7.792   5.233   4.061  1.2638  1.1418  0.1920
  759MOL0     H 4737   7.906   5.243   3.924  3.9266  0.3113  0.8919
  759MOL0     H 4738   8.185   5.382   4.194  1.2759 -0.2410 -1.7492
  759MOL0     H 4739   8.282   5.162   3.930  0.1004 -0.1516  0.2119
  759MOL0     H 4740   8.566   5.360   3.848 -0.1726 -1.2312 -1.5328
  759MOL0     H 4741   8.413   5.356   3.928  0.1261  0.2673 -1.5380
  759MOL0     H 4742   8.562   5.274   4.007 -1.3546 -0.9424 -0.1575
  760MOL0     O 4743   9.466   4.223   1.794  0.0068 -0.0802 -0.0070
  760MOL0     C 4744   9.450   4.158   1.892  0.9152 -0.1005 -0.5720
  760MOL0     O 4745   9.538   4.129   1.978 -0.0371 -0.2636 -0.7646
  760MOL0     C 4746   9.674   4.164   1.970 -0.3007  1.0828 -0.1399
  760MOL0     C 4747   9.722   4.291   1.952  0.5953  0.0877 -0.5929
  760MOL0     C 4748   9.858   4.320   1.952  0.9926  0.3660  0.2148
  760MOL0     C 4749   9.955   4.213   1.960  0.9376  0.1359  0.1839
  760MOL0     O 4750  10.090   4.234   1.951  0.0195  0.1103  0.1161
  760MOL0     C 4751  10.183   4.128   1.952 -0.1143 -0.6714  0.0116
  760MOL0     C 4752  10.317   4.193   1.927 -0.7692 -0.6052 -0.0999
  760MOL0     C 4753  10.420   4.086   1.905  0.4435  0.2106  0.2778
  760MOL0     C 4754  10.557   4.143   1.862 -0.0615 -0.2052 -0.1842
  760MOL0     C 4755  10.662   4.036   1.835  0.0998  1.4364 -0.1404
  760MOL0     C 4756  10.686   3.932   1.950  0.3871 -0.5579  0.0129
  760MOL0     C 4757  10.760   4.011   2.054  0.2816  0.7358  0.0628
  760MOL0     C 4758  10.887   4.085   2.009 -1.1715  0.3164 -0.1670
  760MOL0     N 4759  10.983   3.994   1.940 -0.3261 -0.2595 -0.0300
  760MOL0     C 4760  11.028   4.003   1.809 -0.0775 -0.4275  0.1945
  760MOL0     C 4761  11.107   3.899   1.808  0.1255 -0.2284 -0.0195
  760MOL0     C 4762  11.181   3.862   1.689 -0.4455  0.2074  0.1655
  760MOL0     C 4763  11.268   3.729   1.709 -0.6230 -0.5977 -0.1030
  760MOL0     C 4764  11.311   3.677   1.580  0.4532 -0.5411 -0.0184
  760MOL0     C 4765  11.373   3.537   1.585  0.1970  0.7803 -0.0624
  760MOL0     O 4766  11.417   3.493   1.456  0.8927 -0.0724 -0.0134
  760MOL0     C 4767  11.535   3.546   1.396 -0.0359  0.3185  0.5937
  760MOL0     C 4768  11.556   3.524   1.264 -0.2993  0.2498  0.9296
  760MOL0     C 4769  11.671   3.576   1.195  0.7181 -0.2540  0.3292
  760MOL0     C 4770  11.696   3.542   1.050 -0.2829  0.6531 -0.0061
  760MOL0     C 4771  11.761   3.658   1.265  0.0171 -1.0591  0.0769
  760MOL0     C 4772  11.879   3.730   1.212 -0.3986 -0.6165  0.2268
  760MOL0     O 4773  11.974   3.772   1.298  0.1826 -0.0739 -0.4277
  760MOL0     C 4774  12.097   3.833   1.256 -0.5858 -0.1508 -0.1501
  760MOL0     C 4775  12.172   3.823   1.136  0.3733  0.2497 -0.0559
  760MOL0     C 4776  12.297   3.878   1.129 -0.5412  0.2932  0.2065
  760MOL0     C 4777  12.348   3.941   1.246 -0.0320 -0.1922  0.3400
  760MOL0     O 4778  12.470   4.012   1.260  0.0031  0.8943 -0.4673
  760MOL0     C 4779  12.583   3.945   1.205  0.1734 -0.2313  0.0411
  760MOL0     C 4780  12.698   4.034   1.246 -0.7771  0.7149  0.2423
  760MOL0     C 4781  12.826   3.972   1.192 -0.6016 -1.0551  0.7890
  760MOL0     C 4782  12.948   4.066   1.225 -1.1491  0.6064  0.6305
  760MOL0     C 4783  13.067   4.021   1.131  0.2033 -0.3573 -0.1397
  760MOL0     C 4784  13.210   4.045   1.185 -0.6958 -0.0113 -0.5714
  760MOL0     C 4785  13.318   4.031   1.090 -0.0936  0.4364  0.2570
  760MOL0     C 4786  13.449   3.987   1.156  0.4529  0.5283  0.4016
  760MOL0    Cl 4787  13.577   3.986   1.034 -0.3977  0.0764 -0.3587
  760MOL0     C 4788  12.268   3.969   1.355 -0.2125  0.4572 -0.2389
  760MOL0     C 4789  12.147   3.912   1.356  0.1170 -0.7501 -0.2576
  760MOL0     O 4790  11.870   3.774   1.097  0.0958 -0.6273  0.0770
  760MOL0     C 4791  11.749   3.679   1.407 -0.1162 -0.4534 -0.3262
  760MOL0     C 4792  11.630   3.628   1.468  0.2285  0.0396  0.5007
  760MOL0     N 4793  11.106   3.823   1.922 -0.5033 -0.4644 -0.1890
  760MOL0     N 4794  11.033   3.889   1.997  0.2449  0.2952 -0.9849
  760MOL0     C 4795   9.901   4.083   1.977 -0.1843 -1.0664  0.3456
  760MOL0     C 4796   9.766   4.059   1.984 -0.4595  0.3724 -1.0485
  760MOL0     C 4797   9.306   4.126   1.925 -0.0615 -0.7551  0.0102
  760MOL0     C 4798   9.234   4.073   1.822  0.1461 -0.4392 -0.3977
  760MOL0     C 4799   9.106   4.032   1.829  0.5272  0.8782 -1.1357
  760MOL0     C 4800   9.038   4.055   1.949  0.4277 -1.0541  0.6816
  760MOL0     O 4801   8.899   4.025   1.948 -0.0099 -0.1617  0.5118
  760MOL0     C 4802   8.813   4.054   2.064  0.8721 -0.5746 -0.5542
  760MOL0     C 4803   8.732   3.929   2.089  0.2172 -0.1184  0.8198
  760MOL0     C 4804   8.605   3.933   2.008  0.4838  0.8535  0.2506
  760MOL0     C 4805   8.517   3.808   2.045  0.9182 -0.6602 -0.4442
  760MOL0     C 4806   8.419   3.773   1.932 -0.7374  0.8062 -0.4930
  760MOL0     C 4807   8.345   3.745   1.850  0.0882 -0.3989  0.7806
  760MOL0     C 4808   9.109   4.110   2.053 -0.2555  0.5838  0.1100
  760MOL0     C 4809   9.248   4.138   2.049 -0.0811 -0.5096 -0.4845
  760MOL0     C 4810   9.313   4.205   2.167  0.1918  0.0781  0.1680
  760MOL0     H 4811   9.651   4.372   1.935  0.5415  0.7512  2.2740
  760MOL0     H 4812   9.898   4.420   1.940 -0.0021  0.7618  0.1165
  760MOL0     H 4813  10.157   4.064   1.867  1.5093 -1.9059  0.4084
  760MOL0     H 4814  10.184   4.079   2.049  0.4066  1.1422  0.9753
  760MOL0     H 4815  10.303   4.255   1.838 -2.9095 -0.1319  0.5220
  760MOL0     H 4816  10.354   4.257   2.007 -0.4315  0.7054 -1.2635
  760MOL0     H 4817  10.435   4.033   1.999  2.0262  0.6024  0.2706
  760MOL0     H 4818  10.386   4.020   1.825  0.2101  0.3993  0.2176
  760MOL0     H 4819  10.537   4.201   1.771 -2.0930  0.8233  0.8385
  760MOL0     H 4820  10.601   4.215   1.930  3.6561  2.0622 -4.4360
  760MOL0     H 4821  10.751   4.079   1.788  0.4713  1.5883  0.6918
  760MOL0     H 4822  10.610   3.973   1.762 -0.4449  1.3717  0.2926
  760MOL0     H 4823  10.588   3.894   1.981 -0.1753 -0.9452 -2.1121
  760MOL0     H 4824  10.741   3.839   1.931 -1.7133 -2.2643  1.6712
  760MOL0     H 4825  10.783   3.941   2.135 -0.7836 -0.1091 -0.3379
  760MOL0     H 4826  10.691   4.082   2.102  0.5535 -0.4782  2.3694
  760MOL0     H 4827  10.862   4.171   1.945  0.3103 -0.1928 -1.4837
  760MOL0     H 4828  10.933   4.133   2.096 -1.9151  1.3954 -0.3426
  760MOL0     H 4829  11.008   4.078   1.733  1.2770  1.3891  1.5384
  760MOL0     H 4830  11.247   3.946   1.669  1.6333 -0.8805  1.9685
  760MOL0     H 4831  11.111   3.839   1.608 -0.6997  0.2267  0.3809
  760MOL0     H 4832  11.351   3.771   1.765 -0.4151  0.9012 -1.4662
  760MOL0     H 4833  11.213   3.648   1.759 -2.7016 -1.1182 -2.9458
  760MOL0     H 4834  11.222   3.677   1.515  1.1953 -1.9184 -1.0845
  760MOL0     H 4835  11.378   3.748   1.532  0.7753 -0.3630  0.6910
  760MOL0     H 4836  11.456   3.524   1.654  0.3169 -3.5475 -0.7393
  760MOL0     H 4837  11.287   3.481   1.623  0.0353  2.2665  1.9376
  760MOL0     H 4838  11.490   3.455   1.212 -3.2152  0.6356  3.8204
  760MOL0     H 4839  11.611   3.508   0.990  0.6756  2.2330 -2.4578
  760MOL0     H 4840  11.779   3.471   1.044  1.0877  1.8566  2.7658
  760MOL0     H 4841  11.722   3.631   0.991 -0.0581 -0.4696 -1.6818
  760MOL0     H 4842  12.139   3.761   1.053 -2.0663 -0.3498  1.2557
  760MOL0     H 4843  12.360   3.868   1.042  0.4756 -1.3842  1.0818
  760MOL0     H 4844  12.602   3.850   1.256  2.4433  0.6337  0.9515
  760MOL0     H 4845  12.570   3.936   1.097  0.1078 -2.6713  0.1842
  760MOL0     H 4846  12.687   4.131   1.197 -0.7376  2.0154  2.6500
  760MOL0     H 4847  12.697   4.040   1.355 -4.4646 -3.6232  0.7193
  760MOL0     H 4848  12.827   3.968   1.083  0.8821 -2.3772  0.8058
  760MOL0     H 4849  12.845   3.874   1.237 -0.6891 -0.4401  2.2267
  760MOL0     H 4850  12.977   4.068   1.331 -2.3677  0.6709  0.9721
  760MOL0     H 4851  12.922   4.169   1.199 -1.5630  0.4204  0.3155
  760MOL0     H 4852  13.057   3.915   1.106  5.4174 -1.0799 -0.3182
  760MOL0     H 4853  13.057   4.083   1.041  0.0934  0.2499  0.2900
  760MOL0     H 4854  13.229   3.975   1.267  1.5044 -1.6155 -2.3151
  760MOL0     H 4855  13.208   4.141   1.237 -2.7200  0.4526 -1.4089
  760MOL0     H 4856  13.322   4.131   1.046 -0.3011  1.0808  1.6663
  760MOL0     H 4857  13.290   3.956   1.015 -2.5563  1.2436  0.2934
  760MOL0     H 4858  13.422   3.889   1.197  1.0380 -0.4258 -1.3941
  760MOL0     H 4859  13.475   4.050   1.241 -0.5850  2.4852 -0.6650
  760MOL0     H 4860  12.297   4.033   1.437 -0.3692 -1.2026  1.1839
  760MOL0     H 4861  12.081   3.936   1.439 -1.6694  1.0391 -2.0566
  760MOL0     H 4862  11.822   3.741   1.458 -0.2249 -0.0889 -0.6035
  760MOL0     H 4863  11.603   3.667   1.565 -1.8400  0.9427 -0.3725
  760MOL0     H 4864   9.960   3.992   1.989  1.4683 -0.0005  0.7487
  760MOL0     H 4865   9.713   3.965   1.991  0.5263 -0.1278  0.0639
  760MOL0     H 4866   9.280   4.066   1.724  2.9511 -0.4511  0.8153
  760MOL0     H 4867   9.061   3.982   1.744 -3.8711  3.9531 -0.9808
  760MOL0     H 4868   8.867   4.085   2.154  0.2169  0.4339 -0.4834
  760MOL0     H 4869   8.746   4.139   2.048 -0.0641 -1.3360 -0.7732
  760MOL0     H 4870   8.710   3.934   2.196  2.1807  1.8930  1.2135
  760MOL0     H 4871   8.799   3.846   2.061  2.8278  2.4023 -0.9853
  760MOL0     H 4872   8.557   4.030   2.024  2.1380  1.6467  0.5055
  760MOL0     H 4873   8.632   3.926   1.902  2.1541  1.3696  0.6237
  760MOL0     H 4874   8.466   3.802   2.142  0.7039 -0.9280 -0.5735
  760MOL0     H 4875   8.597   3.733   2.053  2.2029  0.7947  1.1364
  760MOL0     H 4876   8.279   3.725   1.768 -0.0470 -1.0195  1.0391
  760MOL0     H 4877   9.062   4.136   2.148  1.5175 -0.5045  1.3298
  760MOL0     H 4878   9.354   4.299   2.129  0.7724  0.7713  2.3718
  760MOL0     H 4879   9.249   4.228   2.253  0.7028 -0.2485  0.6421
  760MOL0     H 4880   9.390   4.140   2.209  1.7639  2.1404  0.6263
  761MOL0     O 4881   2.511   7.527   5.632  0.2547  0.4523  0.1726
  761MOL0     C 4882   2.569   7.591   5.720 -0.1949  0.4749 -0.0813
  761MOL0     O 4883   2.684   7.553   5.782 -0.0636  0.0077 -0.1709
  761MOL0     C 4884   2.765   7.462   5.720  0.0663  0.8402 -0.1452
  761MOL0     C 4885   2.795   7.447   5.589 -0.8377 -0.1961 -0.9030
  761MOL0     C 4886   2.890   7.351   5.545  1.0907 -0.0140  0.3284
  761MOL0     C 4887   2.959   7.268   5.632 -0.8481 -0.9801 -0.5602
  761MOL0     O 4888   3.067   7.187   5.600 -0.5574  0.5399 -0.4042
  761MOL0     C 4889   3.069   7.137   5.472 -1.0193 -0.4488 -0.3033
  761MOL0     C 4890   2.971   7.021   5.455  0.3396 -0.2340  0.4776
  761MOL0     C 4891   2.978   6.956   5.316 -0.1068  0.4595  0.4495
  761MOL0     C 4892   2.869   6.855   5.310 -0.0440  0.5894 -0.4649
  761MOL0     C 4893   2.856   6.801   5.173  0.3351  0.3658  1.3833
  761MOL0     C 4894   2.741   6.706   5.150  0.3480  0.8921 -0.5877
  761MOL0     C 4895   2.754   6.630   5.019 -0.4773 -0.0188  0.0759
  761MOL0     C 4896   2.867   6.524   5.032 -0.5817 -0.1170  0.0594
  761MOL0     N 4897   2.884   6.448   4.906 -0.0314  0.0565 -0.2217
  761MOL0     C 4898   2.777   6.372   4.854 -0.5263  0.3325  1.0925
  761MOL0     C 4899   2.830   6.317   4.741 -0.3625 -0.1600 -0.4473
  761MOL0     C 4900   2.763   6.216   4.653 -0.3759  0.0500 -0.2835
  761MOL0     C 4901   2.732   6.257   4.508  0.6100 -0.0038 -0.6199
  761MOL0     C 4902   2.596   6.323   4.488 -0.3068 -0.5051 -0.6365
  761MOL0     C 4903   2.601   6.405   4.358  0.2554 -0.6274 -0.3464
  761MOL0     O 4904   2.677   6.347   4.255  0.6334  0.0517  0.2253
  761MOL0     C 4905   2.623   6.262   4.162  0.1930  0.5053 -0.3700
  761MOL0     C 4906   2.703   6.148   4.144  0.1748 -0.4851  0.6614
  761MOL0     C 4907   2.655   6.034   4.063  0.4290  0.5480  0.0532
  761MOL0     C 4908   2.739   5.907   4.060 -0.3841 -0.0717 -0.0540
  761MOL0     C 4909   2.521   6.053   4.005  0.3783 -0.6261  0.2572
  761MOL0     C 4910   2.456   5.943   3.928 -0.3609 -0.5937  0.1595
  761MOL0     O 4911   2.326   5.950   3.914  0.4876 -0.1211 -0.3463
  761MOL0     C 4912   2.254   5.841   3.882  0.2392  0.0608  0.1823
  761MOL0     C 4913   2.289   5.711   3.931  0.1217  1.0101  0.2487
  761MOL0     C 4914   2.209   5.606   3.891  0.9771 -0.1122  0.2709
  761MOL0     C 4915   2.107   5.625   3.797  1.3370 -0.9837 -0.2910
  761MOL0     O 4916   2.036   5.523   3.742 -0.2296 -0.1780  0.6417
  761MOL0     C 4917   2.112   5.419   3.682 -0.0198 -0.4176  0.1386
  761MOL0     C 4918   2.015   5.320   3.618  0.1645  0.3113  0.1102
  761MOL0     C 4919   1.920   5.270   3.729  0.6031  0.2902  0.7331
  761MOL0     C 4920   1.868   5.137   3.670  0.3589 -0.6188  1.0486
  761MOL0     C 4921   1.779   5.056   3.768 -0.3579 -0.1341  0.0220
  761MOL0     C 4922   1.821   5.039   3.916 -0.0883  0.2794  0.3967
  761MOL0     C 4923   1.947   4.960   3.944 -0.4468 -0.1889  0.3991
  761MOL0     C 4924   1.940   4.816   3.914  0.2964  0.4712 -0.0379
  761MOL0    Cl 4925   2.105   4.757   3.907  0.2750 -0.3660 -0.1505
  761MOL0     C 4926   2.060   5.754   3.766  0.1684  0.2519 -0.8106
  761MOL0     C 4927   2.138   5.858   3.807 -0.2429 -0.4768 -0.2579
  761MOL0     O 4928   2.525   5.857   3.875  0.1472 -0.4582 -0.6909
  761MOL0     C 4929   2.444   6.170   4.025 -0.3013  0.9386  0.4902
  761MOL0     C 4930   2.492   6.272   4.103 -0.2971  0.0317  0.0667
  761MOL0     N 4931   2.957   6.359   4.725  0.2518 -0.1525  0.6678
  761MOL0     N 4932   2.995   6.432   4.825  0.9868 -0.2274  0.1059
  761MOL0     C 4933   2.929   7.282   5.769 -0.4442  0.8326 -0.9048
  761MOL0     C 4934   2.829   7.372   5.811 -0.1640  0.0954 -0.6290
  761MOL0     C 4935   2.500   7.730   5.752  0.2814  0.5945  0.3488
  761MOL0     C 4936   2.371   7.758   5.706 -0.5423  0.5049  0.4559
  761MOL0     C 4937   2.305   7.879   5.727  0.5823  0.6694 -0.5531
  761MOL0     C 4938   2.369   7.979   5.793  0.1266 -0.8799  0.5554
  761MOL0     O 4939   2.311   8.103   5.795  0.1598 -0.1117  0.3829
  761MOL0     C 4940   2.391   8.218   5.813 -0.6064 -0.1521  0.3226
  761MOL0     C 4941   2.493   8.228   5.696  0.4407  0.5494  0.1913
  761MOL0     C 4942   2.536   8.373   5.674  0.6134  0.2877 -0.2957
  761MOL0     C 4943   2.621   8.427   5.795  0.1264  0.4747  0.5801
  761MOL0     C 4944   2.682   8.557   5.776  0.5600  0.3910 -0.5412
  761MOL0     C 4945   2.719   8.670   5.776 -0.1859 -0.4196 -0.4799
  761MOL0     C 4946   2.500   7.951   5.846 -0.2003  0.6017  0.6719
  761MOL0     C 4947   2.565   7.831   5.828 -0.4829  0.1486  0.5843
  761MOL0     C 4948   2.709   7.818   5.884 -0.0441  0.4985  0.7515
  761MOL0     H 4949   2.753   7.520   5.521 -1.2883 -1.0079 -1.5200
  761MOL0     H 4950   2.903   7.334   5.438 -0.6311 -0.3930  0.1474
  761MOL0     H 4951   3.171   7.101   5.457  0.3649  2.8602  0.1998
  761MOL0     H 4952   3.059   7.213   5.393 -2.3571  1.3737  1.5067
  761MOL0     H 4953   2.977   6.950   5.538 -0.5180 -0.6119  0.2247
  761MOL0     H 4954   2.874   7.068   5.477  0.8948  1.1378  0.1000
  761MOL0     H 4955   2.962   7.034   5.240  0.2368  0.2612  0.1682
  761MOL0     H 4956   3.071   6.901   5.298 -0.6054 -0.0332 -0.7529
  761MOL0     H 4957   2.894   6.780   5.386  1.9194  2.0471  0.4313
  761MOL0     H 4958   2.769   6.890   5.337 -0.8697 -2.0312  0.1700
  761MOL0     H 4959   2.953   6.769   5.134 -0.1781 -0.0087  0.3921
  761MOL0     H 4960   2.828   6.888   5.113 -3.1286  0.1995  2.5777
  761MOL0     H 4961   2.725   6.630   5.226 -0.9334  0.9262 -0.7927
  761MOL0     H 4962   2.653   6.771   5.145  0.2083  0.9384  1.6880
  761MOL0     H 4963   2.778   6.700   4.938 -1.2076 -0.7194 -0.7604
  761MOL0     H 4964   2.661   6.583   4.986 -0.9348  1.5379 -0.9233
  761MOL0     H 4965   2.962   6.578   5.040 -1.8548  2.0542  1.6526
  761MOL0     H 4966   2.856   6.467   5.125  2.9295 -1.3519 -0.1285
  761MOL0     H 4967   2.675   6.352   4.885 -1.6042  3.4457 -0.0647
  761MOL0     H 4968   2.663   6.197   4.691 -0.6935 -1.9055 -1.9437
  761MOL0     H 4969   2.818   6.122   4.653 -1.6100 -0.7000  0.6737
  761MOL0     H 4970   2.810   6.324   4.473  0.6446 -0.1076 -0.7426
  761MOL0     H 4971   2.731   6.164   4.449  1.7077 -2.3536  2.7473
  761MOL0     H 4972   2.516   6.249   4.478  0.8874 -1.9752  0.1610
  761MOL0     H 4973   2.567   6.387   4.572 -0.3624  0.1438 -1.1420
  761MOL0     H 4974   2.501   6.425   4.319  0.1690 -1.7648 -0.7422
  761MOL0     H 4975   2.643   6.502   4.385 -1.3238  0.4787 -1.6824
  761MOL0     H 4976   2.797   6.146   4.199  0.6308  2.8127  0.2204
  761MOL0     H 4977   2.789   5.896   4.156 -1.2330  0.3328  0.4398
  761MOL0     H 4978   2.809   5.910   3.975  1.4806  0.7239  1.4400
  761MOL0     H 4979   2.679   5.816   4.057  0.6432 -0.7791  0.1991
  761MOL0     H 4980   2.380   5.686   3.983  0.8571  0.1596 -1.3590
  761MOL0     H 4981   2.237   5.508   3.927 -1.5986 -0.2008  2.3197
  761MOL0     H 4982   2.181   5.460   3.607 -0.5764  0.3734  0.0335
  761MOL0     H 4983   2.177   5.365   3.751 -0.8985 -1.3435  0.2651
  761MOL0     H 4984   1.965   5.366   3.532 -0.3620 -0.9452 -0.2871
  761MOL0     H 4985   2.084   5.239   3.590  1.6225  1.8554 -0.9544
  761MOL0     H 4986   1.842   5.340   3.760  1.8672  0.8133  2.9881
  761MOL0     H 4987   1.986   5.245   3.813  0.7597 -0.8252  0.3060
  761MOL0     H 4988   1.956   5.073   3.661  0.7147 -0.2225  1.6626
  761MOL0     H 4989   1.820   5.151   3.572 -0.4905 -0.6814  1.4482
  761MOL0     H 4990   1.678   5.097   3.772 -0.5893 -0.6166 -0.5567
  761MOL0     H 4991   1.758   4.957   3.724 -0.8621  0.3622 -0.8914
  761MOL0     H 4992   1.741   5.011   3.984  1.1525  1.3141  2.3770
  761MOL0     H 4993   1.842   5.141   3.950  0.5173 -0.5343  2.5900
  761MOL0     H 4994   1.974   4.976   4.049  0.0446 -0.6631  0.3500
  761MOL0     H 4995   2.034   5.008   3.898  0.8984 -0.2081  2.7772
  761MOL0     H 4996   1.899   4.793   3.815 -0.6849 -0.2794  0.5241
  761MOL0     H 4997   1.884   4.754   3.985  1.3328 -0.4751 -0.0159
  761MOL0     H 4998   1.971   5.770   3.707  0.5569  1.3046 -1.1392
  761MOL0     H 4999   2.115   5.961   3.779  1.4443 -0.0680 -0.2685
  761MOL0     H 5000   2.344   6.184   3.984  0.0451 -0.0106 -0.7420
  761MOL0     H 5001   2.426   6.357   4.117 -0.2637  0.4592 -2.0579
  761MOL0     H 5002   2.977   7.232   5.852 -1.5431  0.1876 -0.6411
  761MOL0     H 5003   2.807   7.374   5.917 -1.8702 -0.0802 -0.9502
  761MOL0     H 5004   2.318   7.687   5.644  0.7142 -1.2977  1.3472
  761MOL0     H 5005   2.203   7.895   5.692  0.3149 -0.4621 -0.3464
  761MOL0     H 5006   2.322   8.303   5.810 -1.2705 -0.6550  1.2089
  761MOL0     H 5007   2.436   8.224   5.912 -0.8196  0.4622  0.3835
  761MOL0     H 5008   2.442   8.192   5.606  0.6760 -1.3908  0.7835
  761MOL0     H 5009   2.582   8.166   5.709  1.2437  2.1781  3.3487
  761MOL0     H 5010   2.589   8.380   5.579 -0.8470 -1.7141 -1.3372
  761MOL0     H 5011   2.453   8.443   5.659 -0.4686 -1.1400 -1.1653
  761MOL0     H 5012   2.708   8.362   5.811 -1.7135 -2.2159  0.2499
  761MOL0     H 5013   2.562   8.429   5.887  0.4036  1.4625  0.7487
  761MOL0     H 5014   2.742   8.775   5.771 -2.2559  0.2531  1.8952
  761MOL0     H 5015   2.550   8.029   5.903 -1.6719  2.5226 -0.5455
  761MOL0     H 5016   2.709   7.742   5.963 -1.2313  0.2907  0.5566
  761MOL0     H 5017   2.784   7.789   5.810  2.1299 -1.5380  3.4819
  761MOL0     H 5018   2.753   7.907   5.931  3.3139 -0.7001  0.1834
  762MOL0     O 5019   7.652   4.516   7.398  0.4868  0.5244 -0.5507
  762MOL0     C 5020   7.681   4.395   7.408  0.0480  0.4051  0.2916
  762MOL0     O 5021   7.727   4.315   7.305 -0.1453 -0.5424 -0.2346
  762MOL0     C 5022   7.729   4.364   7.178  0.8360 -0.7265 -0.2257
  762MOL0     C 5023   7.632   4.327   7.085 -0.8991  0.2613 -0.1216
  762MOL0     C 5024   7.633   4.387   6.961  0.0915 -0.9755  0.2265
  762MOL0     C 5025   7.738   4.471   6.911  0.3519 -0.2779  0.1197
  762MOL0     O 5026   7.755   4.517   6.786 -0.1182  0.1889  0.5489
  762MOL0     C 5027   7.662   4.483   6.679 -0.0489 -0.1388 -0.7913
  762MOL0     C 5028   7.708   4.560   6.557  0.5223 -0.0418 -0.4709
  762MOL0     C 5029   7.844   4.530   6.518  0.0121  0.2350  0.8003
  762MOL0     C 5030   7.885   4.598   6.385 -0.3084 -0.4443 -0.5869
  762MOL0     C 5031   8.036   4.620   6.386 -0.8017 -0.1947  0.2611
  762MOL0     C 5032   8.079   4.708   6.269  0.0164  0.6980 -0.1061
  762MOL0     C 5033   8.238   4.721   6.266  0.5280  0.1665  0.3353
  762MOL0     C 5034   8.294   4.801   6.387  0.0136 -0.2220  0.6329
  762MOL0     N 5035   8.443   4.794   6.384  1.0649  0.2616  0.2396
  762MOL0     C 5036   8.529   4.840   6.480 -0.0850  0.2929  0.4238
  762MOL0     C 5037   8.650   4.800   6.438 -0.7266  0.0856 -0.8396
  762MOL0     C 5038   8.775   4.838   6.527  0.0231 -0.5007 -0.3323
  762MOL0     C 5039   8.906   4.842   6.447  0.0515  0.6254 -0.0906
  762MOL0     C 5040   8.946   4.975   6.370  0.0929  0.4768 -0.2207
  762MOL0     C 5041   8.835   5.019   6.270  0.6254 -0.8941  1.0137
  762MOL0     O 5042   8.856   5.158   6.223  0.3314 -0.5797 -0.8595
  762MOL0     C 5043   8.954   5.178   6.136  0.0112 -0.1860 -0.0022
  762MOL0     C 5044   9.015   5.304   6.139 -0.3378  0.1837  0.5866
  762MOL0     C 5045   9.118   5.338   6.058  0.4382 -0.0230 -0.2906
  762MOL0     C 5046   9.173   5.476   6.085 -0.0335 -0.0379  0.0642
  762MOL0     C 5047   9.177   5.251   5.967 -1.0195 -0.4335 -0.5725
  762MOL0     C 5048   9.296   5.288   5.873  0.1681  0.5862  0.0997
  762MOL0     O 5049   9.374   5.179   5.833 -0.2304  0.1039  0.8856
  762MOL0     C 5050   9.474   5.204   5.744  0.0662 -0.5377  0.1119
  762MOL0     C 5051   9.594   5.262   5.784 -0.3746  0.4850 -0.9973
  762MOL0     C 5052   9.692   5.293   5.689  0.3170 -0.6716 -0.2868
  762MOL0     C 5053   9.660   5.287   5.555 -0.5256 -0.1323 -0.0350
  762MOL0     O 5054   9.765   5.316   5.477 -0.3922 -0.6844 -0.0114
  762MOL0     C 5055   9.780   5.233   5.364  0.1260 -0.0049  0.7413
  762MOL0     C 5056   9.921   5.245   5.308  0.3634  0.3296 -0.7653
  762MOL0     C 5057  10.028   5.168   5.378 -0.2806  0.0737 -0.5825
  762MOL0     C 5058  10.167   5.226   5.357 -0.4569 -0.3742 -0.0318
  762MOL0     C 5059  10.211   5.348   5.431 -0.3123  0.2392  0.0753
  762MOL0     C 5060  10.366   5.374   5.443 -0.5196  0.5005  0.0437
  762MOL0     C 5061  10.425   5.412   5.306  0.2838 -0.0419 -0.6274
  762MOL0     C 5062  10.575   5.412   5.323 -0.4579  0.2090  0.0069
  762MOL0    Cl 5063  10.667   5.474   5.180  0.2333  0.3678 -0.4561
  762MOL0     C 5064   9.543   5.226   5.513 -0.2299  0.2296 -0.0403
  762MOL0     C 5065   9.445   5.187   5.611 -1.1420  0.6879 -0.2056
  762MOL0     O 5066   9.315   5.411   5.845  0.3482 -0.3151  0.4214
  762MOL0     C 5067   9.117   5.120   5.964 -0.2977 -0.0670 -0.6552
  762MOL0     C 5068   9.013   5.083   6.049 -0.3379 -0.3464 -0.2331
  762MOL0     N 5069   8.645   4.744   6.315  0.2192 -0.5124 -0.0626
  762MOL0     N 5070   8.524   4.749   6.273  0.1018  0.5825 -0.1201
  762MOL0     C 5071   7.836   4.498   7.009  0.8034  0.5106  0.6523
  762MOL0     C 5072   7.823   4.461   7.148 -0.1519  0.3343  0.4847
  762MOL0     C 5073   7.673   4.329   7.540  0.2397 -0.3682 -1.1163
  762MOL0     C 5074   7.772   4.241   7.575 -0.8915  0.9748  0.2641
  762MOL0     C 5075   7.776   4.165   7.692  0.3650  1.4053 -0.0520
  762MOL0     C 5076   7.693   4.189   7.796 -0.0167 -0.3735 -0.1308
  762MOL0     O 5077   7.717   4.127   7.918  0.7377  0.1823 -0.0567
  762MOL0     C 5078   7.647   4.175   8.032  0.2499 -0.3556 -0.0225
  762MOL0     C 5079   7.638   4.062   8.134 -0.5887  0.0232  0.2582
  762MOL0     C 5080   7.558   3.941   8.088 -0.2810 -0.2563  0.1838
  762MOL0     C 5081   7.543   3.848   8.200 -0.0424 -0.0769  0.0774
  762MOL0     C 5082   7.470   3.729   8.166  0.5737 -0.4390  0.5233
  762MOL0     C 5083   7.426   3.623   8.126  0.0843  0.1493 -0.0905
  762MOL0     C 5084   7.593   4.288   7.764 -0.6811  0.5328  0.2428
  762MOL0     C 5085   7.577   4.354   7.638  0.7267  0.2434 -0.2841
  762MOL0     C 5086   7.451   4.442   7.617 -0.2340 -0.0219 -0.5255
  762MOL0     H 5087   7.562   4.245   7.097 -1.3587  0.1509 -2.9194
  762MOL0     H 5088   7.551   4.368   6.892 -1.8244  2.9508  1.0855
  762MOL0     H 5089   7.564   4.522   6.710  0.8967 -0.2305  2.8158
  762MOL0     H 5090   7.637   4.378   6.662 -0.1685 -0.4378  1.0056
  762MOL0     H 5091   7.636   4.532   6.480 -0.7863 -3.6374  1.8126
  762MOL0     H 5092   7.705   4.667   6.578  0.6733  0.5576 -3.1733
  762MOL0     H 5093   7.900   4.550   6.610  0.9585  0.7362  0.1291
  762MOL0     H 5094   7.853   4.424   6.493 -1.1138 -0.2543  2.3002
  762MOL0     H 5095   7.854   4.541   6.297  1.6522 -0.9789 -0.9701
  762MOL0     H 5096   7.826   4.688   6.364  0.3802 -0.1354 -1.2387
  762MOL0     H 5097   8.089   4.525   6.391 -1.9138 -0.7893  1.3886
  762MOL0     H 5098   8.066   4.675   6.476 -0.8331 -0.1022  0.2147
  762MOL0     H 5099   8.039   4.651   6.184 -2.2392  0.1668  1.2553
  762MOL0     H 5100   8.030   4.806   6.261 -0.8762  0.1336 -2.9852
  762MOL0     H 5101   8.255   4.789   6.182 -0.9460 -0.6677 -0.6744
  762MOL0     H 5102   8.289   4.625   6.255  4.1666  1.7805  1.4782
  762MOL0     H 5103   8.265   4.906   6.383 -0.9623 -0.5065 -0.1888
  762MOL0     H 5104   8.252   4.763   6.481  0.6495 -1.1910  0.5397
  762MOL0     H 5105   8.513   4.886   6.577 -3.1570 -0.6667  0.4686
  762MOL0     H 5106   8.773   4.763   6.606 -1.4380 -0.2720 -0.1241
  762MOL0     H 5107   8.760   4.928   6.588 -0.7622 -0.9816  0.2054
  762MOL0     H 5108   8.989   4.820   6.515 -0.1122 -0.3069 -0.1808
  762MOL0     H 5109   8.913   4.757   6.378  0.8439  1.6243 -1.2768
  762MOL0     H 5110   8.965   5.052   6.446 -1.7097  1.1442 -0.3798
  762MOL0     H 5111   9.037   4.960   6.310  0.6488 -3.7819  1.3702
  762MOL0     H 5112   8.830   4.951   6.185 -0.2764  1.8116 -1.2359
  762MOL0     H 5113   8.735   5.022   6.315 -0.4693 -1.9342 -1.2160
  762MOL0     H 5114   8.977   5.379   6.208  0.3549  1.5578 -0.4881
  762MOL0     H 5115   9.163   5.544   6.000  1.8805 -0.2977 -0.4164
  762MOL0     H 5116   9.282   5.476   6.095  0.0467  0.7017 -0.7184
  762MOL0     H 5117   9.126   5.532   6.167 -3.7616 -0.6893 -1.4318
  762MOL0     H 5118   9.604   5.298   5.886 -1.1195  1.2698 -1.1942
  762MOL0     H 5119   9.782   5.348   5.717  0.0978 -0.0543 -0.7776
  762MOL0     H 5120   9.768   5.127   5.388  1.9304 -0.3845  0.1407
  762MOL0     H 5121   9.711   5.268   5.286 -0.4446  2.0076  2.0871
  762MOL0     H 5122   9.925   5.198   5.209  0.9901  2.3240 -1.7442
  762MOL0     H 5123   9.945   5.351   5.298  1.6153 -0.0080 -1.5192
  762MOL0     H 5124  10.020   5.064   5.345  0.9267 -0.3944  0.5064
  762MOL0     H 5125  10.001   5.170   5.484  4.8265  0.7150  0.9267
  762MOL0     H 5126  10.202   5.239   5.254  0.8586  1.0088  0.5413
  762MOL0     H 5127  10.228   5.147   5.401 -0.7100  0.5217  1.9987
  762MOL0     H 5128  10.165   5.433   5.381  0.0665  0.9755  0.9513
  762MOL0     H 5129  10.186   5.342   5.537 -0.2505  1.0089  0.1352
  762MOL0     H 5130  10.407   5.282   5.485 -2.3817 -0.5723 -0.4020
  762MOL0     H 5131  10.380   5.465   5.502 -1.0129  2.6663 -2.8975
  762MOL0     H 5132  10.373   5.502   5.273 -0.2800 -0.7680 -1.7801
  762MOL0     H 5133  10.398   5.333   5.236  0.1522 -0.2341 -0.3653
  762MOL0     H 5134  10.606   5.308   5.334 -2.2515 -0.5382 -1.3673
  762MOL0     H 5135  10.604   5.467   5.413  0.8623 -0.1407 -0.1900
  762MOL0     H 5136   9.538   5.214   5.405  1.8886  1.7616 -0.3755
  762MOL0     H 5137   9.345   5.146   5.597 -0.4794  0.2451 -6.1978
  762MOL0     H 5138   9.138   5.046   5.888 -2.0534 -1.0786 -0.2213
  762MOL0     H 5139   8.964   4.987   6.042 -1.5710  0.2209  0.3749
  762MOL0     H 5140   7.908   4.572   6.975 -1.6334  0.8758 -4.9345
  762MOL0     H 5141   7.881   4.501   7.230 -0.7235  2.4224 -0.0717
  762MOL0     H 5142   7.841   4.211   7.496 -1.2009  0.4991  0.1681
  762MOL0     H 5143   7.852   4.089   7.705 -2.2890 -1.3270  0.5042
  762MOL0     H 5144   7.716   4.256   8.058 -0.5121  0.4037 -0.3078
  762MOL0     H 5145   7.545   4.214   8.019  1.1909  2.0679 -0.6256
  762MOL0     H 5146   7.613   4.101   8.233  1.3095 -0.4705  0.9915
  762MOL0     H 5147   7.743   4.038   8.154 -0.4705  1.2594  1.3072
  762MOL0     H 5148   7.456   3.965   8.057  0.6245  1.8142 -1.4012
  762MOL0     H 5149   7.609   3.891   8.006 -1.5282  1.2007 -1.5427
  762MOL0     H 5150   7.498   3.892   8.289  3.5522  1.7089  1.2050
  762MOL0     H 5151   7.641   3.824   8.241 -1.6001 -1.8400  3.0722
  762MOL0     H 5152   7.401   3.533   8.073  0.4932  0.8008 -1.4210
  762MOL0     H 5153   7.519   4.304   7.841 -1.7485 -1.2473 -0.3476
  762MOL0     H 5154   7.399   4.396   7.533 -0.8104  0.6502 -0.5367
  762MOL0     H 5155   7.386   4.443   7.705  3.0634 -0.4447  2.1287
  762MOL0     H 5156   7.477   4.546   7.598  0.5498  0.4352  2.4306
  763MOL0     O 5157   2.019   5.992   2.094  0.6800 -0.0387 -0.0387
  763MOL0     C 5158   1.905   6.038   2.084  0.7311  0.9606  0.1643
  763MOL0     O 5159   1.872   6.174   2.083  0.9437 -0.5029 -1.0631
  763MOL0     C 5160   1.980   6.261   2.087  0.4390  0.1069  0.1849
  763MOL0     C 5161   2.037   6.288   1.961 -0.5155 -0.0368 -0.1729
  763MOL0     C 5162   2.135   6.386   1.950  0.0437  0.6136  0.6339
  763MOL0     C 5163   2.171   6.460   2.074  0.0728  0.5244  0.7761
  763MOL0     O 5164   2.257   6.561   2.067 -0.4556 -0.2038  0.0355
  763MOL0     C 5165   2.285   6.622   1.945  0.2761 -0.1722  0.7607
  763MOL0     C 5166   2.373   6.735   1.975 -0.4013 -0.2326 -0.6175
  763MOL0     C 5167   2.515   6.710   2.040 -0.5196  0.1646  0.4692
  763MOL0     C 5168   2.581   6.846   2.034 -0.8465 -0.3531  0.6876
  763MOL0     C 5169   2.711   6.842   2.105  0.1103 -0.1102 -0.1569
  763MOL0     C 5170   2.819   6.752   2.046 -0.6497  0.7194  0.0179
  763MOL0     C 5171   2.934   6.703   2.145  0.5398  0.8026  0.2087
  763MOL0     C 5172   3.046   6.614   2.076 -0.0982  0.7992 -0.3509
  763MOL0     N 5173   3.149   6.566   2.174 -0.6073  0.7488  0.0194
  763MOL0     C 5174   3.246   6.644   2.235 -1.0060  1.2487  0.4917
  763MOL0     C 5175   3.315   6.556   2.311  0.4926 -0.1122 -0.4622
  763MOL0     C 5176   3.417   6.607   2.411 -0.1922  0.2993  0.9034
  763MOL0     C 5177   3.554   6.624   2.351 -0.3664  1.1046  0.7387
  763MOL0     C 5178   3.553   6.734   2.249  0.3752 -0.1715  0.0444
  763MOL0     C 5179   3.692   6.736   2.189  0.1789  0.2870 -1.1858
  763MOL0     O 5180   3.709   6.817   2.070 -0.3771 -0.0392  0.1180
  763MOL0     C 5181   3.810   6.777   1.981 -0.1360 -0.4478 -0.2155
  763MOL0     C 5182   3.916   6.704   2.025  0.1892  0.2001 -1.2647
  763MOL0     C 5183   4.016   6.646   1.941 -1.0246 -0.1671 -0.9334
  763MOL0     C 5184   4.118   6.562   2.008 -0.4966  0.4478 -0.4462
  763MOL0     C 5185   4.013   6.681   1.805  0.4455 -0.3179 -0.2652
  763MOL0     C 5186   4.106   6.606   1.714  0.5379 -0.5005  0.4643
  763MOL0     O 5187   4.240   6.627   1.723 -0.6072 -0.4459 -0.2961
  763MOL0     C 5188   4.328   6.585   1.625  0.6133  0.3607 -0.1209
  763MOL0     C 5189   4.320   6.458   1.567  0.2827  0.0256 -0.6950
  763MOL0     C 5190   4.406   6.425   1.458  0.2226  0.1113  0.5180
  763MOL0     C 5191   4.518   6.501   1.435  0.3740 -0.2140 -0.4070
  763MOL0     O 5192   4.625   6.479   1.347 -0.0719  0.3005 -0.0992
  763MOL0     C 5193   4.675   6.345   1.355  0.3569  0.1445 -0.2982
  763MOL0     C 5194   4.806   6.343   1.435 -0.8253 -0.8179 -0.2468
  763MOL0     C 5195   4.921   6.401   1.357  1.0390 -0.4491 -0.3304
  763MOL0     C 5196   4.975   6.303   1.258 -0.1198 -0.4494 -0.4854
  763MOL0     C 5197   5.029   6.388   1.144 -0.2889 -0.0394  0.4897
  763MOL0     C 5198   5.136   6.489   1.169 -0.2132  0.2563  0.0014
  763MOL0     C 5199   5.202   6.547   1.050 -0.2505  0.5114  0.3758
  763MOL0     C 5200   5.336   6.620   1.081  0.2207 -0.3068 -0.6357
  763MOL0    Cl 5201   5.322   6.772   1.168 -0.1973  0.5318  0.0180
  763MOL0     C 5202   4.521   6.630   1.489  0.3203  1.1864  0.4641
  763MOL0     C 5203   4.433   6.671   1.580  0.6165 -0.6732 -0.1757
  763MOL0     O 5204   4.050   6.547   1.622 -0.7262  0.4854  0.5092
  763MOL0     C 5205   3.918   6.777   1.760  0.4783  0.5434 -0.9238
  763MOL0     C 5206   3.820   6.827   1.848 -0.2638  0.8446 -0.3714
  763MOL0     N 5207   3.251   6.436   2.306 -0.7503 -0.3113  0.1019
  763MOL0     N 5208   3.154   6.440   2.223 -0.7023 -0.2654  0.0705
  763MOL0     C 5209   2.108   6.435   2.192  0.0257 -0.1264 -0.1120
  763MOL0     C 5210   2.013   6.335   2.201 -0.8877  0.2909 -0.6573
  763MOL0     C 5211   1.800   5.930   2.073  0.8813  0.6858  0.3031
  763MOL0     C 5212   1.846   5.799   2.102  0.7036 -0.5158  0.2348
  763MOL0     C 5213   1.758   5.698   2.100 -0.0180  0.3761 -0.0829
  763MOL0     C 5214   1.622   5.723   2.087  0.1700 -0.2683  0.4793
  763MOL0     O 5215   1.540   5.616   2.114 -0.2752  0.5217 -0.3736
  763MOL0     C 5216   1.399   5.629   2.104 -0.0104  0.2202 -0.2881
  763MOL0     C 5217   1.337   5.504   2.163  0.1156 -0.0349 -0.2123
  763MOL0     C 5218   1.189   5.525   2.194  0.1982 -0.1771 -0.2819
  763MOL0     C 5219   1.092   5.541   2.070 -0.6731 -0.1913  0.1941
  763MOL0     C 5220   0.954   5.536   2.110  0.0597  0.1210 -0.2449
  763MOL0     C 5221   0.836   5.530   2.127 -0.7325 -0.7095 -0.0643
  763MOL0     C 5222   1.572   5.852   2.043 -0.2028 -0.2683 -0.1046
  763MOL0     C 5223   1.662   5.957   2.035 -0.4923  0.0909  0.1299
  763MOL0     C 5224   1.608   6.087   1.981  0.1026 -0.6037  0.7441
  763MOL0     H 5225   2.020   6.226   1.875 -0.0351 -0.4017 -0.0075
  763MOL0     H 5226   2.180   6.408   1.854 -1.2451  0.7105  0.0381
  763MOL0     H 5227   2.196   6.661   1.895 -0.1362  0.2479  1.7891
  763MOL0     H 5228   2.335   6.557   1.872 -1.6245  0.4885 -1.2435
  763MOL0     H 5229   2.397   6.792   1.885  0.4552  1.7682  0.8034
  763MOL0     H 5230   2.321   6.791   2.053 -0.0774  0.4386 -0.8764
  763MOL0     H 5231   2.499   6.676   2.143 -0.4005  2.1077  1.1692
  763MOL0     H 5232   2.570   6.630   1.989 -1.4972 -0.1504 -0.1230
  763MOL0     H 5233   2.593   6.874   1.929 -0.9376 -1.1705  0.4523
  763MOL0     H 5234   2.516   6.925   2.072 -0.9612  0.5861 -1.3105
  763MOL0     H 5235   2.685   6.814   2.207  0.3503 -1.1583 -0.3725
  763MOL0     H 5236   2.753   6.943   2.111 -2.3452  0.9553  0.3705
  763MOL0     H 5237   2.778   6.666   1.993  1.2292  1.1349 -2.2784
  763MOL0     H 5238   2.863   6.819   1.971  0.1957  1.1686  0.9036
  763MOL0     H 5239   2.891   6.635   2.219  0.3942 -0.0230 -0.6159
  763MOL0     H 5240   3.005   6.776   2.185  2.1044 -1.0463  0.9971
  763MOL0     H 5241   3.010   6.524   2.024  1.8714 -0.9215  1.1033
  763MOL0     H 5242   3.087   6.679   1.998  0.9782  1.0825  0.4324
  763MOL0     H 5243   3.259   6.751   2.223  0.9548  0.9360 -0.7143
  763MOL0     H 5244   3.430   6.523   2.480  2.1307  0.8362  1.2217
  763MOL0     H 5245   3.389   6.702   2.458 -0.1847  0.9304 -0.3357
  763MOL0     H 5246   3.637   6.641   2.421 -0.3630  0.1809  0.9699
  763MOL0     H 5247   3.575   6.524   2.312  0.4765  1.2835  0.7112
  763MOL0     H 5248   3.485   6.705   2.168 -2.1514  3.8009  0.4556
  763MOL0     H 5249   3.523   6.835   2.278  1.5316  0.0274  0.6259
  763MOL0     H 5250   3.767   6.763   2.264 -2.4875 -0.0560  1.8202
  763MOL0     H 5251   3.714   6.633   2.158 -1.3842 -0.8711  1.2164
  763MOL0     H 5252   3.925   6.681   2.131  1.3866  1.8115 -0.9726
  763MOL0     H 5253   4.081   6.534   2.108 -0.6042 -2.1642 -1.1335
  763MOL0     H 5254   4.213   6.614   2.018  1.4089 -3.0081  1.3129
  763MOL0     H 5255   4.133   6.475   1.943 -1.2467  0.8296 -1.1469
  763MOL0     H 5256   4.239   6.386   1.582  0.5070  0.3423  2.8284
  763MOL0     H 5257   4.399   6.328   1.411  0.8701 -0.4596  1.5587
  763MOL0     H 5258   4.607   6.276   1.406 -3.2679  2.5527 -1.5165
  763MOL0     H 5259   4.682   6.301   1.254 -0.0439 -2.7172  0.8155
  763MOL0     H 5260   4.791   6.402   1.526  0.9598 -0.1252 -0.3694
  763MOL0     H 5261   4.829   6.239   1.458 -1.5231 -1.5577 -2.6258
  763MOL0     H 5262   5.008   6.437   1.413 -0.7281 -0.4815  2.5916
  763MOL0     H 5263   4.864   6.481   1.308 -1.0335 -2.1040 -0.7704
  763MOL0     H 5264   4.905   6.224   1.227  0.7015 -1.8057  0.9562
  763MOL0     H 5265   5.051   6.239   1.304  0.7882  0.5286 -0.5870
  763MOL0     H 5266   5.066   6.314   1.072  0.4235 -2.2286  2.9300
  763MOL0     H 5267   4.948   6.441   1.093  0.1687  2.6544  2.3893
  763MOL0     H 5268   5.213   6.440   1.231 -2.7408 -1.2533  2.1548
  763MOL0     H 5269   5.095   6.568   1.232 -0.4944  0.7164 -0.7531
  763MOL0     H 5270   5.134   6.610   0.993  1.1238 -1.0971 -3.3929
  763MOL0     H 5271   5.235   6.464   0.987 -1.4118 -0.6301  1.2181
  763MOL0     H 5272   5.378   6.634   0.981 -0.4006 -1.9963 -1.1760
  763MOL0     H 5273   5.409   6.553   1.127 -0.5105 -1.4544 -1.0823
  763MOL0     H 5274   4.615   6.681   1.470  1.2281 -0.3883  0.5220
  763MOL0     H 5275   4.428   6.775   1.610 -0.8716 -1.4673  2.5978
  763MOL0     H 5276   3.918   6.796   1.653  1.9463 -1.6651 -1.3893
  763MOL0     H 5277   3.750   6.903   1.814 -0.2537  1.1938  0.3655
  763MOL0     H 5278   2.134   6.495   2.279  1.1459 -0.8258  0.0655
  763MOL0     H 5279   1.947   6.308   2.282  2.8185 -0.8668  2.2846
  763MOL0     H 5280   1.950   5.778   2.124  0.8591 -0.5660 -0.5068
  763MOL0     H 5281   1.787   5.596   2.123 -0.4469 -0.1035 -1.5494
  763MOL0     H 5282   1.368   5.711   2.169 -0.9358 -0.3788  0.0498
  763MOL0     H 5283   1.361   5.641   2.002 -1.3275  0.2236  0.1755
  763MOL0     H 5284   1.389   5.483   2.258 -1.8930  0.7449  1.1263
  763MOL0     H 5285   1.340   5.418   2.096 -3.2159 -0.0740 -0.4808
  763MOL0     H 5286   1.154   5.436   2.246  2.4387 -0.8991  0.1015
  763MOL0     H 5287   1.178   5.615   2.256  2.7642  0.3217 -0.4436
  763MOL0     H 5288   1.100   5.459   1.998 -3.3486  1.4214 -2.1588
  763MOL0     H 5289   1.126   5.631   2.017  0.1356 -0.3626  0.4038
  763MOL0     H 5290   0.729   5.530   2.135 -0.6701 -2.6800  1.8651
  763MOL0     H 5291   1.472   5.865   2.003 -0.3573  2.3175  0.9712
  763MOL0     H 5292   1.499   6.090   1.975  0.2090  1.2092 -2.4763
  763MOL0     H 5293   1.637   6.173   2.044  0.0183  0.4805 -0.6451
  763MOL0     H 5294   1.656   6.112   1.886 -2.0126  0.1816 -0.1815
  764MOL0     O 5295   0.318   4.800   1.413  0.3779 -0.4742 -0.1457
  764MOL0     C 5296   0.388   4.742   1.329  0.4561  0.1212 -0.3370
  764MOL0     O 5297   0.337   4.682   1.217 -0.0526 -0.1188 -0.1190
  764MOL0     C 5298   0.210   4.690   1.186 -0.2274  0.4513  0.7269
  764MOL0     C 5299   0.169   4.765   1.078  0.3876 -0.6754 -1.2086
  764MOL0     C 5300   0.037   4.766   1.048  1.0356  0.3201 -0.6193
  764MOL0     C 5301  -0.063   4.686   1.118 -0.2207 -0.1186 -0.0654
  764MOL0     O 5302  -0.199   4.686   1.082 -0.3286  0.1798 -0.2098
  764MOL0     C 5303  -0.231   4.736   0.951  0.0784 -0.2780 -0.4826
  764MOL0     C 5304  -0.386   4.735   0.929  0.5495  0.4911 -0.9614
  764MOL0     C 5305  -0.458   4.860   1.001  1.2739  0.2459  0.0050
  764MOL0     C 5306  -0.600   4.876   0.957  0.4701  0.6081 -0.1850
  764MOL0     C 5307  -0.683   4.987   1.033  0.5317 -0.0185 -0.6617
  764MOL0     C 5308  -0.827   4.981   0.976  0.3945 -0.0148 -0.6915
  764MOL0     C 5309  -0.917   5.070   1.068 -0.1543  0.9280 -0.2191
  764MOL0     C 5310  -1.060   5.078   1.027 -0.2494 -0.0340  0.9233
  764MOL0     N 5311  -1.127   4.945   1.025 -0.2790  0.0618 -0.2217
  764MOL0     C 5312  -1.159   4.884   0.907  0.4786 -0.6931  0.0444
  764MOL0     C 5313  -1.232   4.774   0.945  1.2009  0.0854 -0.4572
  764MOL0     C 5314  -1.288   4.674   0.850  0.1076  1.0493  0.7076
  764MOL0     C 5315  -1.420   4.706   0.778 -0.9700  0.8086  0.7087
  764MOL0     C 5316  -1.528   4.771   0.865 -0.4760  0.2309 -0.3048
  764MOL0     C 5317  -1.653   4.792   0.777  0.6424 -0.2751 -0.3871
  764MOL0     O 5318  -1.629   4.901   0.683 -0.4745  0.5876  0.1646
  764MOL0     C 5319  -1.736   4.961   0.622 -0.5411  0.4287 -0.9273
  764MOL0     C 5320  -1.713   5.088   0.583 -0.0828 -0.0937  0.1910
  764MOL0     C 5321  -1.808   5.166   0.521  0.2067  0.2635  0.6586
  764MOL0     C 5322  -1.773   5.304   0.475 -0.0079  0.3594  0.6304
  764MOL0     C 5323  -1.935   5.108   0.507  0.2168 -0.2255  0.1282
  764MOL0     C 5324  -2.051   5.193   0.449 -0.7936  0.9644 -1.0451
  764MOL0     O 5325  -2.166   5.143   0.473 -0.2840  0.1314  0.1880
  764MOL0     C 5326  -2.281   5.203   0.441 -0.6383  0.9365 -0.5863
  764MOL0     C 5327  -2.338   5.295   0.535 -0.2908  0.5645  0.1020
  764MOL0     C 5328  -2.469   5.349   0.507 -0.2991 -0.2918 -0.6661
  764MOL0     C 5329  -2.528   5.335   0.382 -0.1900  0.2824  0.4681
  764MOL0     O 5330  -2.648   5.396   0.352  0.9313  0.5230  0.3202
  764MOL0     C 5331  -2.671   5.538   0.385  0.0457  0.9257  0.0434
  764MOL0     C 5332  -2.793   5.555   0.477 -0.6264 -0.7149 -0.8711
  764MOL0     C 5333  -2.923   5.492   0.411  0.6794  0.0854 -0.0425
  764MOL0     C 5334  -3.049   5.523   0.485  0.3133 -0.6608 -0.4508
  764MOL0     C 5335  -3.117   5.664   0.469 -0.2394 -0.0840  1.2009
  764MOL0     C 5336  -3.253   5.694   0.521  1.0379  0.2433  0.1572
  764MOL0     C 5337  -3.289   5.837   0.552 -0.1070  0.7453  0.1971
  764MOL0     C 5338  -3.440   5.829   0.590  0.2197 -0.2613  0.1530
  764MOL0    Cl 5339  -3.546   5.769   0.460  0.0730 -0.2223 -0.3805
  764MOL0     C 5340  -2.468   5.252   0.293  0.0628 -0.8095 -0.9786
  764MOL0     C 5341  -2.340   5.189   0.319  1.1699  0.2100  0.5983
  764MOL0     O 5342  -2.035   5.291   0.375  0.2669 -0.1516 -0.4907
  764MOL0     C 5343  -1.958   4.978   0.540  0.2064 -0.2344  0.0805
  764MOL0     C 5344  -1.861   4.896   0.602  0.4543 -0.6605  0.0534
  764MOL0     N 5345  -1.269   4.787   1.080  0.2725 -0.2472  0.3948
  764MOL0     N 5346  -1.202   4.890   1.118  0.2293  0.7782 -0.1736
  764MOL0     C 5347  -0.013   4.610   1.224 -0.5509 -0.3513  0.2594
  764MOL0     C 5348   0.121   4.608   1.251 -0.1276  0.4860  0.1792
  764MOL0     C 5349   0.531   4.750   1.345 -0.2315  0.1288 -0.9013
  764MOL0     C 5350   0.584   4.774   1.479  0.3623  0.9650 -0.1100
  764MOL0     C 5351   0.721   4.759   1.508 -0.5153  0.2524  0.4332
  764MOL0     C 5352   0.813   4.754   1.398  0.8741  0.3401 -0.0402
  764MOL0     O 5353   0.946   4.769   1.430  0.6145  0.5265 -0.2360
  764MOL0     C 5354   1.051   4.743   1.330 -0.1425 -0.1530  0.8020
  764MOL0     C 5355   1.069   4.876   1.251 -1.0704 -0.0520  0.3480
  764MOL0     C 5356   1.217   4.882   1.206  0.4634  0.3216  0.9011
  764MOL0     C 5357   1.258   5.018   1.154 -0.1293 -0.2824 -0.0946
  764MOL0     C 5358   1.401   5.030   1.130 -0.5510 -0.3576  0.3426
  764MOL0     C 5359   1.519   5.056   1.105 -0.6199 -0.8470  0.7776
  764MOL0     C 5360   0.760   4.742   1.269  0.0990  0.3753 -0.5732
  764MOL0     C 5361   0.624   4.733   1.250 -0.3979  0.4490  0.8038
  764MOL0     C 5362   0.591   4.729   1.108 -0.3453 -0.1697 -0.0767
  764MOL0     H 5363   0.237   4.833   1.029 -1.3599  0.4891 -2.1173
  764MOL0     H 5364   0.010   4.832   0.966 -3.9703  0.0515  0.4900
  764MOL0     H 5365  -0.180   4.668   0.882  1.7377 -0.7310  1.1078
  764MOL0     H 5366  -0.200   4.841   0.937  0.5606 -0.5105 -1.2654
  764MOL0     H 5367  -0.399   4.730   0.820 -0.1710 -0.2430 -0.8483
  764MOL0     H 5368  -0.425   4.637   0.957  2.4339 -0.2824 -0.9151
  764MOL0     H 5369  -0.470   4.848   1.109  0.5176 -1.8697 -0.2548
  764MOL0     H 5370  -0.412   4.957   0.982 -0.5529  1.9123  3.1285
  764MOL0     H 5371  -0.606   4.875   0.848 -0.8401 -1.9141 -0.1516
  764MOL0     H 5372  -0.646   4.780   0.982  1.2351  0.3658  0.3083
  764MOL0     H 5373  -0.646   5.087   1.009 -0.2742 -0.0723 -2.2975
  764MOL0     H 5374  -0.684   4.967   1.140  0.6220 -1.1947 -0.8566
  764MOL0     H 5375  -0.846   5.025   0.878 -0.7920  1.4623  0.1481
  764MOL0     H 5376  -0.867   4.879   0.966 -1.7336  0.2318  3.1813
  764MOL0     H 5377  -0.876   5.171   1.071  1.5051  0.4185 -2.5250
  764MOL0     H 5378  -0.926   5.027   1.168  0.5590  1.2648 -0.0041
  764MOL0     H 5379  -1.106   5.139   1.106  1.5638  1.3479  0.9844
  764MOL0     H 5380  -1.072   5.130   0.931 -0.9776 -2.2189 -0.2434
  764MOL0     H 5381  -1.127   4.912   0.807  1.4656 -0.2610  0.4600
  764MOL0     H 5382  -1.315   4.591   0.916 -2.1758 -0.1250 -1.5107
  764MOL0     H 5383  -1.206   4.640   0.785 -0.2474  2.0828 -0.3183
  764MOL0     H 5384  -1.394   4.781   0.702  2.8536  1.1816  2.1873
  764MOL0     H 5385  -1.452   4.618   0.722  1.6955 -0.1303  0.5344
  764MOL0     H 5386  -1.562   4.713   0.951 -0.7113  2.1167  0.9337
  764MOL0     H 5387  -1.494   4.868   0.901 -0.1592  0.3380 -0.8786
  764MOL0     H 5388  -1.665   4.702   0.716  0.7848 -1.4824  1.3150
  764MOL0     H 5389  -1.740   4.812   0.840  0.0464 -1.4189 -0.8256
  764MOL0     H 5390  -1.613   5.127   0.599 -0.0134  0.3658 -1.2500
  764MOL0     H 5391  -1.848   5.376   0.510  0.7686  0.5406  1.9802
  764MOL0     H 5392  -1.763   5.295   0.366 -1.0188 -0.1123  0.5649
  764MOL0     H 5393  -1.679   5.331   0.523  1.2990 -2.9095  0.1660
  764MOL0     H 5394  -2.283   5.310   0.627 -0.7997 -1.5946  0.8159
  764MOL0     H 5395  -2.522   5.388   0.593 -0.1275 -1.2043 -0.1386
  764MOL0     H 5396  -2.581   5.580   0.430  0.5278 -1.4918  1.4912
  764MOL0     H 5397  -2.690   5.595   0.293  1.6225 -0.9722 -1.5521
  764MOL0     H 5398  -2.771   5.516   0.576  1.2873 -0.8077 -1.2913
  764MOL0     H 5399  -2.813   5.661   0.493 -0.2160 -0.9560  1.5017
  764MOL0     H 5400  -2.909   5.384   0.399 -1.8350 -0.5813  2.1340
  764MOL0     H 5401  -2.935   5.525   0.307 -2.6515 -1.4256 -0.2538
  764MOL0     H 5402  -3.026   5.513   0.592 -1.7640  1.5861  0.3067
  764MOL0     H 5403  -3.120   5.444   0.457 -0.4843 -0.5042  0.9732
  764MOL0     H 5404  -3.053   5.744   0.508 -1.8148  2.1942 -0.6078
  764MOL0     H 5405  -3.132   5.681   0.362 -1.2000 -1.4198  1.1021
  764MOL0     H 5406  -3.256   5.645   0.618  0.2034  0.5170  0.2829
  764MOL0     H 5407  -3.328   5.644   0.457 -1.8944  2.9424  1.2204
  764MOL0     H 5408  -3.270   5.887   0.457 -0.2128 -1.8489 -1.2624
  764MOL0     H 5409  -3.220   5.877   0.627 -1.3275 -0.3936  2.0158
  764MOL0     H 5410  -3.480   5.929   0.608 -0.6791 -0.3171 -1.3471
  764MOL0     H 5411  -3.446   5.763   0.677  1.9343 -1.9494 -0.9211
  764MOL0     H 5412  -2.515   5.236   0.197 -0.2757  0.1886 -0.9950
  764MOL0     H 5413  -2.308   5.112   0.249 -1.1036 -1.4354  1.2331
  764MOL0     H 5414  -2.057   4.936   0.522 -0.0423 -0.2816  1.4706
  764MOL0     H 5415  -1.889   4.795   0.631  1.0911 -0.0189  3.3352
  764MOL0     H 5416  -0.078   4.554   1.290 -0.1214 -1.2807 -0.0783
  764MOL0     H 5417   0.140   4.548   1.339 -1.4386 -0.4416 -0.1399
  764MOL0     H 5418   0.508   4.778   1.556  0.2658 -2.6390  0.1543
  764MOL0     H 5419   0.741   4.766   1.615 -1.2051 -1.7495  0.7304
  764MOL0     H 5420   1.144   4.721   1.383  0.5866  1.1708  0.1317
  764MOL0     H 5421   1.021   4.660   1.265 -2.4251 -1.2484  3.0700
  764MOL0     H 5422   1.034   4.949   1.325 -1.3703  0.3963 -0.2310
  764MOL0     H 5423   1.009   4.887   1.160  1.7766  1.3634 -1.4952
  764MOL0     H 5424   1.283   4.855   1.289 -0.4586 -2.3244  0.8585
  764MOL0     H 5425   1.223   4.811   1.123 -4.4692  0.5695  0.0326
  764MOL0     H 5426   1.242   5.101   1.223  1.7196 -0.1916  0.2845
  764MOL0     H 5427   1.205   5.041   1.061  1.4945 -1.5184 -1.3957
  764MOL0     H 5428   1.620   5.086   1.084 -0.8507  2.0539  3.1754
  764MOL0     H 5429   0.822   4.747   1.181  0.5994  0.4374 -0.2176
  764MOL0     H 5430   0.566   4.626   1.084  1.7096 -0.2944 -1.9211
  764MOL0     H 5431   0.504   4.795   1.097 -0.4020  0.2282  2.2240
  764MOL0     H 5432   0.659   4.776   1.037  2.1445 -0.9645  1.6446
  765MOL0     O 5433   2.840   5.062   2.850  0.7598 -0.2312 -0.4213
  765MOL0     C 5434   2.738   5.087   2.792  0.5324  0.4228 -0.1426
  765MOL0     O 5435   2.713   5.203   2.728 -0.1518 -0.1917 -0.3755
  765MOL0     C 5436   2.800   5.311   2.734  0.1179 -1.1051 -0.1991
  765MOL0     C 5437   2.792   5.399   2.843  0.3983 -1.0336 -0.1684
  765MOL0     C 5438   2.870   5.518   2.844  0.8002 -0.2915 -0.4245
  765MOL0     C 5439   2.942   5.563   2.722  0.0419 -0.2484 -0.4812
  765MOL0     O 5440   3.013   5.676   2.700  1.0792 -0.8668  0.3115
  765MOL0     C 5441   3.036   5.767   2.809  0.2727 -0.0260  0.0394
  765MOL0     C 5442   3.140   5.868   2.765 -0.4739 -1.0410  0.9003
  765MOL0     C 5443   3.275   5.809   2.753  0.0137  0.0370  0.5212
  765MOL0     C 5444   3.382   5.919   2.747  0.5337 -0.8175  0.4558
  765MOL0     C 5445   3.525   5.875   2.745 -0.6858  1.3705  1.0968
  765MOL0     C 5446   3.615   5.996   2.733 -0.3725  0.3069 -0.6903
  765MOL0     C 5447   3.754   5.945   2.723 -0.0507  0.1189  0.3254
  765MOL0     C 5448   3.851   6.057   2.689  1.5078  0.3864 -0.7564
  765MOL0     N 5449   3.990   5.999   2.682 -0.0677 -0.4792 -0.0631
  765MOL0     C 5450   4.091   6.037   2.768 -0.8553 -0.1147 -0.4866
  765MOL0     C 5451   4.192   5.951   2.739  0.3553 -0.3273  0.4072
  765MOL0     C 5452   4.324   5.934   2.805 -0.4490 -1.0544 -0.0858
  765MOL0     C 5453   4.310   5.873   2.937  0.6455 -0.5326 -0.3646
  765MOL0     C 5454   4.446   5.829   2.994 -0.2796  0.2867  0.3367
  765MOL0     C 5455   4.456   5.686   3.022  0.6196  0.3418 -0.0947
  765MOL0     O 5456   4.420   5.649   3.160 -0.3291 -0.1068 -0.4113
  765MOL0     C 5457   4.487   5.704   3.264  0.2595  1.0563  0.7737
  765MOL0     C 5458   4.403   5.729   3.375 -0.4181 -0.1378  0.1099
  765MOL0     C 5459   4.463   5.776   3.490 -0.4666  0.9273 -1.3118
  765MOL0     C 5460   4.370   5.776   3.610  0.1358 -0.4810  0.9443
  765MOL0     C 5461   4.600   5.798   3.501 -0.0499 -0.3751  0.1285
  765MOL0     C 5462   4.668   5.841   3.627  0.7780  1.0169 -0.3591
  765MOL0     O 5463   4.804   5.832   3.620 -0.0645  0.0313  0.3385
  765MOL0     C 5464   4.879   5.843   3.728 -0.3909 -1.0436  0.0451
  765MOL0     C 5465   4.917   5.972   3.756  0.4860  0.0247 -0.1988
  765MOL0     C 5466   4.978   5.999   3.877  0.2864  0.9234  0.1139
  765MOL0     C 5467   5.002   5.895   3.967 -0.1571  0.5486 -0.4612
  765MOL0     O 5468   5.070   5.908   4.090  0.4090  0.0516  0.3953
  765MOL0     C 5469   5.100   6.044   4.125  0.2674 -0.1128  0.2991
  765MOL0     C 5470   5.156   6.045   4.269  0.0195 -0.1642 -0.7490
  765MOL0     C 5471   5.303   5.998   4.280  0.4946 -0.2501 -0.1499
  765MOL0     C 5472   5.355   5.991   4.431  0.7723 -0.8601  0.6535
  765MOL0     C 5473   5.508   6.012   4.434 -0.0433 -0.5837 -0.4796
  765MOL0     C 5474   5.580   6.029   4.572 -0.3907 -0.1108 -0.3553
  765MOL0     C 5475   5.731   6.029   4.580  0.3681  0.0878  0.0040
  765MOL0     C 5476   5.790   6.125   4.682 -0.2762  0.2113  0.1348
  765MOL0    Cl 5477   5.962   6.099   4.733  0.1534 -0.6094 -0.0096
  765MOL0     C 5478   4.953   5.767   3.930 -0.2756 -0.4667 -0.0101
  765MOL0     C 5479   4.885   5.744   3.818 -0.6742  0.1471  0.2394
  765MOL0     O 5480   4.609   5.873   3.730  0.1363 -0.5100 -0.0696
  765MOL0     C 5481   4.684   5.778   3.390  0.3944  0.0475  0.2381
  765MOL0     C 5482   4.626   5.727   3.279  0.3215  0.0311  0.0456
  765MOL0     N 5483   4.147   5.872   2.634 -0.4135  0.0705  0.1401
  765MOL0     N 5484   4.029   5.903   2.598 -0.6276 -0.5979 -0.6319
  765MOL0     C 5485   2.935   5.472   2.617 -1.5146  0.1721  1.0118
  765MOL0     C 5486   2.869   5.352   2.628 -0.5231  0.3331  0.8047
  765MOL0     C 5487   2.635   4.988   2.773  0.4096 -0.6714 -0.2508
  765MOL0     C 5488   2.581   4.974   2.639  0.9319 -0.0693 -0.6610
  765MOL0     C 5489   2.493   4.868   2.611  0.1745 -0.8075  0.6940
  765MOL0     C 5490   2.457   4.766   2.706 -0.1148 -0.5253  0.7904
  765MOL0     O 5491   2.399   4.643   2.666  0.1357 -0.9459  1.0261
  765MOL0     C 5492   2.392   4.616   2.532  0.4086  0.7388  0.8719
  765MOL0     C 5493   2.355   4.468   2.510  0.0289 -0.4751  0.7085
  765MOL0     C 5494   2.461   4.374   2.573 -0.3580 -0.4360  0.5556
  765MOL0     C 5495   2.436   4.228   2.548 -0.0624 -0.2901  0.7510
  765MOL0     C 5496   2.340   4.170   2.634 -0.0461 -0.3231 -0.4542
  765MOL0     C 5497   2.266   4.120   2.715 -0.6900 -0.4636  0.5009
  765MOL0     C 5498   2.506   4.790   2.834  0.8575  0.0789 -0.4574
  765MOL0     C 5499   2.584   4.900   2.869  0.2493  0.6521  0.0350
  765MOL0     C 5500   2.635   4.904   3.010 -0.0938  0.1185 -0.8773
  765MOL0     H 5501   2.732   5.384   2.932  2.0229  2.7660  1.7638
  765MOL0     H 5502   2.861   5.585   2.930 -2.4072  0.9532 -1.5497
  765MOL0     H 5503   3.084   5.718   2.894 -1.4076  0.1324  1.1254
  765MOL0     H 5504   2.948   5.817   2.850 -0.4129 -0.0264 -1.3753
  765MOL0     H 5505   3.113   5.914   2.670 -1.1116 -0.4147  1.3697
  765MOL0     H 5506   3.141   5.958   2.828 -3.8431  1.5004 -2.2226
  765MOL0     H 5507   3.297   5.746   2.840 -3.1335 -2.2680 -0.1245
  765MOL0     H 5508   3.282   5.747   2.663  2.1877 -1.2486  1.5111
  765MOL0     H 5509   3.363   5.957   2.647 -1.2501  1.8332  1.7037
  765MOL0     H 5510   3.360   5.998   2.819  2.3165  2.3908 -2.2220
  765MOL0     H 5511   3.546   5.797   2.672  0.1881  0.2999  2.4335
  765MOL0     H 5512   3.547   5.825   2.840  0.0720  0.7657  0.6179
  765MOL0     H 5513   3.579   6.061   2.652 -1.5132  0.3356 -0.1758
  765MOL0     H 5514   3.614   6.061   2.820 -0.5406 -0.0281 -0.4399
  765MOL0     H 5515   3.763   5.857   2.660  0.9221  0.8332 -0.5666
  765MOL0     H 5516   3.776   5.904   2.823  0.6100  2.1207  1.0578
  765MOL0     H 5517   3.827   6.112   2.598  0.0961  0.0950 -0.5725
  765MOL0     H 5518   3.847   6.130   2.770 -2.4122  0.2061 -0.6279
  765MOL0     H 5519   4.089   6.107   2.850 -1.4463 -2.1312  1.3232
  765MOL0     H 5520   4.359   6.036   2.821  1.1710 -1.8066  1.4289
  765MOL0     H 5521   4.397   5.882   2.742  1.1105 -1.5940  2.0577
  765MOL0     H 5522   4.265   5.946   3.005  0.3908 -0.3560 -0.7196
  765MOL0     H 5523   4.236   5.792   2.931  0.6152 -0.5908  0.6628
  765MOL0     H 5524   4.530   5.846   2.926  0.0538  0.3764  0.7661
  765MOL0     H 5525   4.447   5.891   3.084 -1.2638  0.8406 -0.0234
  765MOL0     H 5526   4.381   5.640   2.956 -0.1849 -0.2754  1.2162
  765MOL0     H 5527   4.557   5.646   3.005  0.5229 -1.0729  2.2496
  765MOL0     H 5528   4.297   5.705   3.371  0.0642 -2.5112  0.2104
  765MOL0     H 5529   4.275   5.728   3.587  0.6538 -0.4088 -1.6381
  765MOL0     H 5530   4.343   5.881   3.628  0.6160 -0.1020 -0.4453
  765MOL0     H 5531   4.413   5.714   3.689  3.0770 -0.7409 -0.7276
  765MOL0     H 5532   4.896   6.054   3.688 -0.7255 -0.8952 -0.9620
  765MOL0     H 5533   5.018   6.099   3.890 -0.9784  2.1329 -3.8982
  765MOL0     H 5534   5.177   6.079   4.056  0.3211  0.0793  0.4559
  765MOL0     H 5535   5.016   6.113   4.116  1.4344  1.0307 -3.6185
  765MOL0     H 5536   5.145   6.146   4.310  1.9580 -0.4566  0.6691
  765MOL0     H 5537   5.091   5.973   4.318  0.1395 -0.2188 -0.6682
  765MOL0     H 5538   5.360   6.076   4.230 -1.2387 -0.1250 -2.0685
  765MOL0     H 5539   5.320   5.899   4.236 -1.0246 -1.5312  1.9012
  765MOL0     H 5540   5.338   5.892   4.473  0.5258  0.0015  2.6858
  765MOL0     H 5541   5.295   6.065   4.485  0.9580  1.6639 -2.2865
  765MOL0     H 5542   5.556   5.926   4.385  0.3081 -0.7743  0.1899
  765MOL0     H 5543   5.536   6.103   4.380 -1.3284  0.7965  1.0583
  765MOL0     H 5544   5.552   5.942   4.632 -0.1220 -0.1703 -0.3128
  765MOL0     H 5545   5.545   6.120   4.622 -1.4402 -1.6743  1.9430
  765MOL0     H 5546   5.772   6.054   4.482 -0.8834 -1.2420 -0.9013
  765MOL0     H 5547   5.763   5.926   4.601  2.0523  0.8020  1.1924
  765MOL0     H 5548   5.725   6.108   4.769  0.5190 -0.9738  0.5198
  765MOL0     H 5549   5.774   6.224   4.641 -0.6728  0.4615  0.8692
  765MOL0     H 5550   4.969   5.685   4.000  2.1804  0.4511  0.6175
  765MOL0     H 5551   4.843   5.646   3.798  1.2657 -1.0928  1.8853
  765MOL0     H 5552   4.791   5.794   3.389  0.1329  2.1002  0.3828
  765MOL0     H 5553   4.704   5.712   3.204 -0.0747 -0.3665 -0.2918
  765MOL0     H 5554   2.985   5.486   2.523 -0.1736 -2.4503  1.2230
  765MOL0     H 5555   2.872   5.284   2.543 -2.1100  1.0004  0.1762
  765MOL0     H 5556   2.599   5.046   2.560 -1.5410  0.4165 -0.8574
  765MOL0     H 5557   2.472   4.857   2.505  0.9767  1.0892  0.2942
  765MOL0     H 5558   2.311   4.671   2.481 -0.5296 -1.6389 -0.3808
  765MOL0     H 5559   2.481   4.633   2.470 -2.0943  0.5159 -3.1887
  765MOL0     H 5560   2.361   4.442   2.403  2.5414  1.8247  0.1900
  765MOL0     H 5561   2.256   4.454   2.554 -0.6939 -0.1499 -0.7297
  765MOL0     H 5562   2.558   4.397   2.529 -0.6947  0.5322  0.2943
  765MOL0     H 5563   2.471   4.397   2.679  0.1848  1.5428  0.1193
  765MOL0     H 5564   2.527   4.172   2.569 -0.5099 -0.7348  1.5815
  765MOL0     H 5565   2.418   4.220   2.441 -0.7437  0.2528  0.8172
  765MOL0     H 5566   2.201   4.089   2.795 -0.0323 -1.0183  0.8306
  765MOL0     H 5567   2.457   4.734   2.913  0.4932  0.7720 -0.1815
  765MOL0     H 5568   2.635   5.007   3.046  0.4990 -0.5027  1.0224
  765MOL0     H 5569   2.566   4.846   3.072  1.9611  0.7507  2.2202
  765MOL0     H 5570   2.732   4.857   3.029 -1.5779 -2.1832  1.7023
  766MOL0     O 5571   9.781   3.344   9.881 -0.6653 -0.4794  0.2551
  766MOL0     C 5572   9.693   3.349   9.796  0.9358 -0.8926  0.0754
  766MOL0     O 5573   9.718   3.363   9.663 -0.0468  0.4468 -0.3981
  766MOL0     C 5574   9.831   3.302   9.617 -0.1058  0.1973 -0.5003
  766MOL0     C 5575   9.938   3.382   9.591  0.0065  0.2677  0.8620
  766MOL0     C 5576  10.064   3.330   9.573  1.1097 -0.6295  0.1353
  766MOL0     C 5577  10.080   3.193   9.567  0.3962 -0.1195  0.0228
  766MOL0     O 5578  10.207   3.134   9.554 -0.0560  0.4004 -0.8671
  766MOL0     C 5579  10.229   2.993   9.573 -0.0011 -0.2360 -0.3959
  766MOL0     C 5580  10.379   2.979   9.556 -0.4657 -0.4630  0.5171
  766MOL0     C 5581  10.443   2.842   9.570  0.1136  0.3006  0.4802
  766MOL0     C 5582  10.465   2.802   9.717 -1.0929 -0.1848 -0.0165
  766MOL0     C 5583  10.512   2.648   9.716 -0.3065 -0.6252 -0.0363
  766MOL0     C 5584  10.462   2.581   9.844 -0.0052  0.1704 -0.1089
  766MOL0     C 5585  10.540   2.634   9.967  0.8577  0.4504  0.3592
  766MOL0     C 5586  10.688   2.615   9.961  0.2565 -0.4211 -0.2685
  766MOL0     N 5587  10.737   2.629  10.093  0.3013 -0.1480 -0.4246
  766MOL0     C 5588  10.726   2.743  10.166  0.2193 -0.1438 -0.1505
  766MOL0     C 5589  10.818   2.723  10.265 -0.9088 -0.6950  0.1333
  766MOL0     C 5590  10.854   2.814  10.373 -0.5889  0.0882 -0.0697
  766MOL0     C 5591  10.889   2.954  10.322  0.1034 -0.4343  0.1107
  766MOL0     C 5592  11.001   2.947  10.212 -0.3101  0.1470 -0.1222
  766MOL0     C 5593  11.142   2.908  10.268  0.3421 -0.6292  0.5381
  766MOL0     O 5594  11.198   3.015  10.343  0.0509 -0.0742 -0.6238
  766MOL0     C 5595  11.337   3.014  10.334 -0.3135 -0.7577  0.5152
  766MOL0     C 5596  11.397   3.134  10.296 -0.0803 -0.5891  0.0128
  766MOL0     C 5597  11.535   3.163  10.316  0.4214  0.2434  0.0575
  766MOL0     C 5598  11.589   3.306  10.302 -0.5540 -0.5064 -0.2897
  766MOL0     C 5599  11.616   3.061  10.368 -0.3571 -0.2712  0.5125
  766MOL0     C 5600  11.757   3.085  10.415  0.2354 -0.0889  0.4995
  766MOL0     O 5601  11.842   2.990  10.378 -0.5686  0.0916 -0.4615
  766MOL0     C 5602  11.976   2.986  10.420  0.6748 -0.2735  0.2500
  766MOL0     C 5603  12.062   3.085  10.387 -0.6343 -0.0796  0.2270
  766MOL0     C 5604  12.202   3.080  10.407 -0.4993 -0.6129 -0.0819
  766MOL0     C 5605  12.257   2.963  10.469 -0.7593  0.2453  0.3854
  766MOL0     O 5606  12.395   2.943  10.484 -0.0577  0.7016 -0.4565
  766MOL0     C 5607  12.474   3.054  10.452 -0.2240 -0.1102  0.2090
  766MOL0     C 5608  12.622   3.020  10.481  0.6852 -0.7353 -0.1878
  766MOL0     C 5609  12.707   3.123  10.410  0.9008 -0.0995  0.1206
  766MOL0     C 5610  12.848   3.116  10.466  0.1145  0.1587 -0.3327
  766MOL0     C 5611  12.937   2.994  10.441  0.9660  0.0882  0.5655
  766MOL0     C 5612  13.079   3.007  10.494 -0.3165 -0.5215  0.6243
  766MOL0     C 5613  13.096   2.959  10.635 -0.0094 -0.2578  0.6047
  766MOL0     C 5614  13.077   2.806  10.645 -0.0380 -0.3770 -0.0298
  766MOL0    Cl 5615  13.213   2.724  10.557  0.2834  0.3018  0.2174
  766MOL0     C 5616  12.170   2.863  10.509 -0.2637  0.9796  0.3581
  766MOL0     C 5617  12.031   2.865  10.473 -0.1636 -1.5489  0.0059
  766MOL0     O 5618  11.781   3.175  10.489  0.1071  0.0692 -0.1740
  766MOL0     C 5619  11.562   2.925  10.383  0.4401  0.1586  0.1447
  766MOL0     C 5620  11.423   2.912  10.376 -0.3129  0.1954  0.3533
  766MOL0     N 5621  10.867   2.596  10.259 -0.0107 -0.5071  0.2025
  766MOL0     N 5622  10.824   2.541  10.152  0.7068  0.1630 -0.2615
  766MOL0     C 5623   9.962   3.109   9.557  0.4455 -0.6545 -0.1516
  766MOL0     C 5624   9.835   3.170   9.587 -0.0182  0.1706 -1.1820
  766MOL0     C 5625   9.559   3.354   9.853  0.3189 -0.8359 -0.0084
  766MOL0     C 5626   9.542   3.337   9.998  0.0320 -0.3713 -0.1885
  766MOL0     C 5627   9.419   3.339  10.062 -0.2378  0.1207 -0.2062
  766MOL0     C 5628   9.301   3.347   9.976 -0.6022 -0.6132 -0.0158
  766MOL0     O 5629   9.174   3.346  10.031  0.7020  0.4619  0.5207
  766MOL0     C 5630   9.153   3.359  10.171 -0.0875  0.0303  0.1011
  766MOL0     C 5631   9.002   3.358  10.199  0.1808  0.5041 -0.0320
  766MOL0     C 5632   8.932   3.242  10.136  0.1466  0.0533 -0.0205
  766MOL0     C 5633   8.788   3.221  10.181 -0.0909 -0.9085 -0.0176
  766MOL0     C 5634   8.700   3.316  10.111  0.9855  0.0280  0.1041
  766MOL0     C 5635   8.623   3.382  10.049 -0.2049 -0.0290  0.2533
  766MOL0     C 5636   9.315   3.349   9.835  0.6879  0.1213  0.1477
  766MOL0     C 5637   9.438   3.366   9.773  0.7421 -0.0198 -0.1848
  766MOL0     C 5638   9.442   3.398   9.627 -0.4692  0.4276 -0.3664
  766MOL0     H 5639   9.921   3.488   9.583  3.1403  0.9988  2.4177
  766MOL0     H 5640  10.151   3.395   9.569 -0.0169  0.9052 -1.3145
  766MOL0     H 5641  10.182   2.936   9.492 -0.1498  0.7744 -1.0469
  766MOL0     H 5642  10.200   2.960   9.673  2.2387  1.5004  0.9150
  766MOL0     H 5643  10.413   3.011   9.457 -0.6831 -0.0449  0.5736
  766MOL0     H 5644  10.410   3.058   9.625 -1.7633 -0.3806  1.0427
  766MOL0     H 5645  10.384   2.767   9.518  3.1062 -3.4413  1.9872
  766MOL0     H 5646  10.541   2.847   9.523  0.1976  1.8841  0.7650
  766MOL0     H 5647  10.537   2.873   9.758 -1.0477 -1.5266  2.3667
  766MOL0     H 5648  10.362   2.811   9.754 -1.9597 -0.6332 -2.1144
  766MOL0     H 5649  10.621   2.651   9.707 -0.3434 -0.4473 -0.4560
  766MOL0     H 5650  10.469   2.596   9.630 -1.0912 -1.8576  1.0600
  766MOL0     H 5651  10.355   2.602   9.850 -0.5434 -2.3066  0.2630
  766MOL0     H 5652  10.478   2.472   9.837  1.0256  0.3500 -0.8370
  766MOL0     H 5653  10.489   2.577  10.045 -0.4978  0.5781 -0.4169
  766MOL0     H 5654  10.515   2.739   9.984 -0.8667  0.1662 -0.2121
  766MOL0     H 5655  10.715   2.515   9.926 -0.4008 -0.5610 -0.3907
  766MOL0     H 5656  10.736   2.693   9.901 -1.9358  2.5000  1.5178
  766MOL0     H 5657  10.668   2.833  10.147  0.1629 -0.5053 -1.8630
  766MOL0     H 5658  10.925   2.780  10.448 -0.2384  1.1953  0.1197
  766MOL0     H 5659  10.762   2.843  10.425  1.1801  1.4105  2.5227
  766MOL0     H 5660  10.796   2.991  10.278  0.1684  1.0010  1.1081
  766MOL0     H 5661  10.919   3.025  10.400 -1.0540 -0.9610  1.0632
  766MOL0     H 5662  10.976   2.871  10.137 -1.6719  0.3579  0.0836
  766MOL0     H 5663  11.007   3.048  10.170  1.2127  0.4497  0.7386
  766MOL0     H 5664  11.130   2.818  10.329  1.9596  0.3608  2.4236
  766MOL0     H 5665  11.208   2.891  10.183  2.2993 -0.8733  2.0408
  766MOL0     H 5666  11.335   3.216  10.261  0.7852 -0.2064 -0.6494
  766MOL0     H 5667  11.549   3.357  10.214 -1.6491  1.6786  1.4068
  766MOL0     H 5668  11.697   3.313  10.288 -0.9486  1.6235 -3.1195
  766MOL0     H 5669  11.568   3.368  10.389 -1.2786 -0.3491 -0.5721
  766MOL0     H 5670  12.036   3.183  10.350  2.1710  0.5326 -0.3876
  766MOL0     H 5671  12.260   3.168  10.382 -2.3458  1.1031  1.3546
  766MOL0     H 5672  12.460   3.087  10.349 -1.2941  1.7717  0.8992
  766MOL0     H 5673  12.441   3.131  10.523  0.2009 -1.3294  1.7854
  766MOL0     H 5674  12.631   3.033  10.589 -2.9297  4.4646 -0.1246
  766MOL0     H 5675  12.658   2.922  10.451  1.4430 -0.2893 -0.7698
  766MOL0     H 5676  12.666   3.223  10.430  2.1152  0.2641  0.8783
  766MOL0     H 5677  12.695   3.097  10.304 -0.0837  0.5139  0.0597
  766MOL0     H 5678  12.848   3.122  10.575  0.5944  2.8401 -0.4197
  766MOL0     H 5679  12.894   3.207  10.425 -2.4078  0.4545 -2.7412
  766MOL0     H 5680  12.887   2.903  10.475  1.0558 -0.4471 -0.6835
  766MOL0     H 5681  12.936   2.981  10.332 -4.4859  0.9926  0.1988
  766MOL0     H 5682  13.117   3.109  10.479  0.4501 -1.1408 -2.1011
  766MOL0     H 5683  13.140   2.945  10.428 -0.2573  1.6956 -1.5872
  766MOL0     H 5684  13.033   3.016  10.704 -0.4951 -1.5286  1.2440
  766MOL0     H 5685  13.198   2.984  10.668 -0.4083  1.3863  0.6373
  766MOL0     H 5686  12.978   2.780  10.606 -0.7026  3.5705 -1.5377
  766MOL0     H 5687  13.078   2.776  10.750  0.4649  1.1252  0.4191
  766MOL0     H 5688  12.203   2.775  10.564  1.1083  0.9692 -0.4397
  766MOL0     H 5689  11.965   2.784  10.501  1.1901 -1.6033  3.4563
  766MOL0     H 5690  11.619   2.841  10.420 -1.4481 -3.2127 -3.8272
  766MOL0     H 5691  11.376   2.816  10.396  1.6620 -1.2013 -1.2816
  766MOL0     H 5692   9.962   3.002   9.537 -1.8107 -0.2717 -2.6999
  766MOL0     H 5693   9.748   3.108   9.604 -0.0474  0.3897 -0.5144
  766MOL0     H 5694   9.629   3.325  10.063 -0.2659  3.0051  1.0276
  766MOL0     H 5695   9.414   3.329  10.170 -1.3040 -0.3364 -0.2898
  766MOL0     H 5696   9.203   3.278  10.226 -1.1458 -0.5101  0.2961
  766MOL0     H 5697   9.193   3.454  10.207  2.5165 -1.4890  1.5438
  766MOL0     H 5698   8.952   3.451  10.169 -2.6797 -0.9763 -0.2147
  766MOL0     H 5699   8.997   3.349  10.308  0.2878 -0.0430 -0.0707
  766MOL0     H 5700   8.934   3.263  10.029 -0.5265  0.0597 -0.0318
  766MOL0     H 5701   8.991   3.151  10.146  0.7298  0.3016 -1.0379
  766MOL0     H 5702   8.779   3.224  10.290 -0.7705 -2.3518 -0.0199
  766MOL0     H 5703   8.771   3.116  10.158  1.3846 -0.9531 -1.0128
  766MOL0     H 5704   8.556   3.458  10.014  1.9156  0.9994 -1.9649
  766MOL0     H 5705   9.223   3.336   9.779  0.8076  0.7573 -0.2042
  766MOL0     H 5706   9.341   3.405   9.585  0.6502  2.6508 -2.9885
  766MOL0     H 5707   9.494   3.493   9.615 -1.7700  1.0172 -1.4650
  766MOL0     H 5708   9.487   3.316   9.570 -0.7453  1.1571 -1.6623
  767MOL0     O 5709   4.665   2.016   8.954 -0.8165 -0.2179  0.6860
  767MOL0     C 5710   4.679   2.115   9.027  0.2603 -0.6615 -0.4115
  767MOL0     O 5711   4.747   2.233   8.998 -0.1215 -0.7415  0.6720
  767MOL0     C 5712   4.795   2.251   8.874  0.2554 -0.9601 -0.1691
  767MOL0     C 5713   4.753   2.212   8.741 -0.2067 -0.2316 -0.2897
  767MOL0     C 5714   4.834   2.241   8.636 -1.5809  0.6924 -0.3036
  767MOL0     C 5715   4.949   2.326   8.641  0.3339  0.9119 -0.3731
  767MOL0     O 5716   5.007   2.367   8.525 -0.1465  0.2938  0.6866
  767MOL0     C 5717   5.147   2.374   8.541 -0.0576  0.7684  0.2452
  767MOL0     C 5718   5.205   2.381   8.397  1.1507  0.7388 -0.8115
  767MOL0     C 5719   5.158   2.255   8.307 -0.0002  0.2098 -0.6071
  767MOL0     C 5720   5.231   2.132   8.349 -0.1017  0.4557 -0.3380
  767MOL0     C 5721   5.163   2.010   8.280 -0.0401 -0.0522  0.5075
  767MOL0     C 5722   5.202   1.872   8.321  0.7478 -0.1825 -0.2324
  767MOL0     C 5723   5.350   1.841   8.295  0.0161 -0.4736  0.2792
  767MOL0     C 5724   5.374   1.681   8.302  0.1910  0.1634 -0.2518
  767MOL0     N 5725   5.516   1.651   8.296 -0.7460 -0.1858 -0.0474
  767MOL0     C 5726   5.580   1.598   8.188  0.0862  0.9848 -0.0329
  767MOL0     C 5727   5.704   1.568   8.223 -0.5836 -0.4781 -0.1819
  767MOL0     C 5728   5.812   1.507   8.137  0.5202  0.1931 -0.6000
  767MOL0     C 5729   5.937   1.593   8.150 -0.1229 -0.4306  0.2041
  767MOL0     C 5730   6.014   1.555   8.274  0.3026  0.0722 -0.2158
  767MOL0     C 5731   6.152   1.621   8.291 -1.0671  0.4616 -0.5411
  767MOL0     O 5732   6.236   1.580   8.185  0.1423  0.3388  0.5873
  767MOL0     C 5733   6.372   1.604   8.173  0.0147  0.5786  0.1913
  767MOL0     C 5734   6.438   1.675   8.268 -0.6381  0.4306 -0.4633
  767MOL0     C 5735   6.573   1.709   8.249  0.1516  0.3578 -0.2777
  767MOL0     C 5736   6.638   1.779   8.367 -0.6359  0.3163 -0.7204
  767MOL0     C 5737   6.644   1.662   8.137 -0.0925  1.2174 -0.1330
  767MOL0     C 5738   6.786   1.701   8.100  0.3246 -0.1358  0.3166
  767MOL0     O 5739   6.875   1.745   8.197 -0.2855 -0.1120 -0.2840
  767MOL0     C 5740   6.999   1.780   8.162 -0.4821  0.4438  1.6884
  767MOL0     C 5741   7.048   1.904   8.189 -0.1559 -0.0998  0.4112
  767MOL0     C 5742   7.168   1.958   8.140 -0.3122  0.0304 -1.1985
  767MOL0     C 5743   7.256   1.870   8.071 -0.1324 -1.0216  0.2749
  767MOL0     O 5744   7.379   1.908   8.030  0.4880  0.3044  0.3441
  767MOL0     C 5745   7.421   2.044   8.058  0.5334  0.4706  0.2458
  767MOL0     C 5746   7.563   2.064   8.016 -0.1800 -0.2141  0.1401
  767MOL0     C 5747   7.654   1.984   8.107 -0.3850 -0.0126  0.4352
  767MOL0     C 5748   7.793   2.034   8.115  0.1998  0.3429  0.1575
  767MOL0     C 5749   7.817   2.165   8.196 -0.5245  0.0049 -0.2237
  767MOL0     C 5750   7.767   2.159   8.341 -0.6691  0.1592 -0.0131
  767MOL0     C 5751   7.835   2.261   8.430 -1.3616 -0.6452 -0.4796
  767MOL0     C 5752   7.800   2.244   8.579  0.2546  1.1491 -0.3133
  767MOL0    Cl 5753   7.855   2.382   8.675 -0.2326  0.0529 -0.0424
  767MOL0     C 5754   7.212   1.738   8.042 -0.3643 -0.0125  0.3941
  767MOL0     C 5755   7.083   1.694   8.087  0.0484 -0.1284 -0.0406
  767MOL0     O 5756   6.818   1.675   7.983 -0.4519 -0.7457  0.1790
  767MOL0     C 5757   6.567   1.606   8.030 -0.5978 -0.0858 -0.5615
  767MOL0     C 5758   6.430   1.575   8.047 -0.1120  0.3204 -0.6265
  767MOL0     N 5759   5.716   1.601   8.354  0.3583 -0.1463 -0.3622
  767MOL0     N 5760   5.611   1.653   8.395  0.1526  0.4031 -0.1467
  767MOL0     C 5761   4.988   2.370   8.765  0.4804  0.5457  0.3393
  767MOL0     C 5762   4.917   2.325   8.879  0.1545  0.5510 -0.0541
  767MOL0     C 5763   4.638   2.090   9.171  1.1203  0.0644  0.0418
  767MOL0     C 5764   4.696   2.169   9.272  0.8358  0.9755  0.2559
  767MOL0     C 5765   4.672   2.137   9.407  0.1366 -0.1132 -0.2416
  767MOL0     C 5766   4.578   2.036   9.436  0.6927  1.0046  0.5551
  767MOL0     O 5767   4.565   2.015   9.568  0.4934  1.8013  0.8578
  767MOL0     C 5768   4.482   1.908   9.614 -0.2150 -0.4285 -0.8197
  767MOL0     C 5769   4.339   1.968   9.638 -0.2584 -0.0887  0.3361
  767MOL0     C 5770   4.226   1.860   9.662  0.3906  0.9442  0.0041
  767MOL0     C 5771   4.100   1.931   9.702  0.6482  0.1370 -0.5875
  767MOL0     C 5772   3.981   1.859   9.651  0.5005  0.7910 -0.2930
  767MOL0     C 5773   3.884   1.790   9.627 -0.5642 -0.4070  0.4445
  767MOL0     C 5774   4.508   1.974   9.330  0.4836 -0.2609  0.2920
  767MOL0     C 5775   4.547   1.990   9.199  1.3360  0.3064 -0.3246
  767MOL0     C 5776   4.467   1.908   9.096 -0.9849 -0.6356  1.1999
  767MOL0     H 5777   4.666   2.153   8.714 -0.3731 -0.7684  1.3069
  767MOL0     H 5778   4.797   2.218   8.536 -2.0450  1.1161 -0.2318
  767MOL0     H 5779   5.199   2.291   8.590 -0.0386 -0.4558 -1.7242
  767MOL0     H 5780   5.179   2.469   8.583  0.6902  1.6264 -2.1004
  767MOL0     H 5781   5.176   2.477   8.354 -2.1375  0.5582  0.6476
  767MOL0     H 5782   5.314   2.380   8.405  1.1342  3.2284  0.8076
  767MOL0     H 5783   5.056   2.231   8.340  0.3302 -0.9416 -0.4073
  767MOL0     H 5784   5.167   2.267   8.198  2.1916 -0.6457 -0.5532
  767MOL0     H 5785   5.337   2.143   8.322 -0.0784 -0.7539 -0.8367
  767MOL0     H 5786   5.230   2.117   8.457 -1.0710 -1.4804 -0.5632
  767MOL0     H 5787   5.184   2.030   8.175  0.7563  0.6436  0.7868
  767MOL0     H 5788   5.055   2.017   8.294 -0.1335 -0.7368  0.1511
  767MOL0     H 5789   5.186   1.853   8.427 -1.5005  1.5024 -0.2005
  767MOL0     H 5790   5.143   1.799   8.263 -2.8518  2.4450 -0.2492
  767MOL0     H 5791   5.418   1.892   8.363  1.7657 -0.0173 -1.7204
  767MOL0     H 5792   5.386   1.869   8.196 -0.5069  3.0950  0.9712
  767MOL0     H 5793   5.325   1.638   8.391  1.8138  0.8834  1.0469
  767MOL0     H 5794   5.331   1.631   8.215 -2.5153  0.3180  0.8905
  767MOL0     H 5795   5.536   1.590   8.089 -0.3908  4.1139 -0.1825
  767MOL0     H 5796   5.790   1.519   8.031  1.3105  1.0794 -0.6795
  767MOL0     H 5797   5.837   1.404   8.164  0.9637  0.7464  1.2430
  767MOL0     H 5798   6.000   1.584   8.061 -1.4240 -2.6833 -0.5710
  767MOL0     H 5799   5.909   1.699   8.157  1.4008 -0.0391  0.8508
  767MOL0     H 5800   5.957   1.577   8.365 -0.2139  1.7131 -0.8921
  767MOL0     H 5801   6.028   1.447   8.269  0.4853  0.1449 -2.7380
  767MOL0     H 5802   6.144   1.730   8.292  1.4092  0.7311  1.9384
  767MOL0     H 5803   6.188   1.594   8.391 -1.9452 -0.8839 -0.5659
  767MOL0     H 5804   6.390   1.698   8.362  1.0181  0.3419  0.4420
  767MOL0     H 5805   6.564   1.796   8.446  1.8825  1.1282  1.6098
  767MOL0     H 5806   6.690   1.873   8.345  1.8737 -0.2997  1.9514
  767MOL0     H 5807   6.720   1.717   8.404  0.4314  0.5782 -2.5308
  767MOL0     H 5808   6.979   1.971   8.239  2.9027  2.2276  1.8920
  767MOL0     H 5809   7.192   2.062   8.155 -1.0253  0.1406 -0.8048
  767MOL0     H 5810   7.344   2.105   8.010 -0.0901  0.2670  0.9631
  767MOL0     H 5811   7.406   2.067   8.164 -1.4051 -5.0160  1.4552
  767MOL0     H 5812   7.580   2.042   7.910  1.1377 -0.9935  0.4967
  767MOL0     H 5813   7.593   2.169   8.019 -0.6116 -0.0739 -0.2149
  767MOL0     H 5814   7.647   1.879   8.077 -1.9891  0.0147  0.5783
  767MOL0     H 5815   7.610   1.999   8.206 -0.8862  0.5200  0.1409
  767MOL0     H 5816   7.831   2.066   8.018  0.5244  1.5820  0.6757
  767MOL0     H 5817   7.858   1.955   8.155 -2.0000 -1.4932  0.2899
  767MOL0     H 5818   7.926   2.177   8.190 -0.4503 -0.5638 -0.0868
  767MOL0     H 5819   7.765   2.248   8.147 -2.4778 -0.6748  0.5840
  767MOL0     H 5820   7.784   2.054   8.366  0.4292  0.2804 -0.2053
  767MOL0     H 5821   7.659   2.179   8.340 -0.6540  0.2884 -1.9524
  767MOL0     H 5822   7.831   2.362   8.386 -2.0322 -0.4607 -0.0159
  767MOL0     H 5823   7.943   2.242   8.427 -1.2357 -0.5140  1.5950
  767MOL0     H 5824   7.833   2.149   8.621 -1.9597  0.6871  0.5236
  767MOL0     H 5825   7.692   2.231   8.595  0.8954 -0.9407  3.3669
  767MOL0     H 5826   7.278   1.661   8.004 -0.7360 -0.7865  1.2835
  767MOL0     H 5827   7.045   1.593   8.084  1.3488 -0.6356  0.1653
  767MOL0     H 5828   6.608   1.577   7.933  2.4840 -0.8887  0.8440
  767MOL0     H 5829   6.362   1.518   7.985  0.2123 -1.7066  0.7703
  767MOL0     H 5830   5.081   2.423   8.783 -0.0272  1.6565 -0.2428
  767MOL0     H 5831   4.968   2.340   8.974  0.0775 -2.6966  0.6191
  767MOL0     H 5832   4.761   2.251   9.243 -1.1463  2.9380  1.0337
  767MOL0     H 5833   4.714   2.199   9.485 -1.6366  4.6963 -2.7196
  767MOL0     H 5834   4.474   1.830   9.537 -2.3987 -0.0245 -1.0600
  767MOL0     H 5835   4.526   1.864   9.704  1.5999 -0.2591 -1.5788
  767MOL0     H 5836   4.312   2.040   9.559 -1.9282 -0.7074  0.2972
  767MOL0     H 5837   4.351   2.032   9.725  0.1781  0.1016  0.1373
  767MOL0     H 5838   4.196   1.803   9.573 -1.2189 -0.0782  1.1455
  767MOL0     H 5839   4.246   1.780   9.733  0.8818  2.1121  1.2189
  767MOL0     H 5840   4.105   2.030   9.654  2.6345  0.3439 -0.0718
  767MOL0     H 5841   4.099   1.952   9.809  0.0547  1.5892 -0.8513
  767MOL0     H 5842   3.788   1.745   9.613 -0.7108 -0.1208  0.5185
  767MOL0     H 5843   4.432   1.899   9.348 -1.5893  0.9234 -2.8178
  767MOL0     H 5844   4.425   1.971   9.017  0.2029 -3.0559 -1.5718
  767MOL0     H 5845   4.532   1.829   9.057  0.4938  0.6222  1.0346
  767MOL0     H 5846   4.393   1.846   9.148 -1.5060  0.4990  1.8560
  768MOL0     O 5847   5.986   3.236   1.704  0.8968 -0.6985 -0.3911
  768MOL0     C 5848   5.939   3.258   1.592  0.3929  0.2947  0.3670
  768MOL0     O 5849   5.975   3.360   1.505 -0.5314 -0.7613  0.4630
  768MOL0     C 5850   6.092   3.425   1.533  0.0479  0.2518  0.6056
  768MOL0     C 5851   6.118   3.487   1.654  0.0141 -0.6414  0.6693
  768MOL0     C 5852   6.237   3.559   1.668 -0.3161  0.3285  0.9611
  768MOL0     C 5853   6.324   3.573   1.558  0.2081 -0.8511 -0.0832
  768MOL0     O 5854   6.439   3.647   1.576  0.2412  0.6314 -0.3350
  768MOL0     C 5855   6.515   3.706   1.472 -0.3424  0.3952  0.0911
  768MOL0     C 5856   6.608   3.812   1.524 -0.3724  0.2407  0.7436
  768MOL0     C 5857   6.720   3.852   1.422 -0.5015 -0.6891 -0.3861
  768MOL0     C 5858   6.854   3.890   1.491 -0.5133 -0.3266 -0.3735
  768MOL0     C 5859   6.964   3.926   1.394 -0.5517  0.3386 -0.2582
  768MOL0     C 5860   7.104   3.884   1.437  0.3074  0.2868  0.6701
  768MOL0     C 5861   7.147   3.948   1.572 -0.7361 -0.2189 -0.4877
  768MOL0     C 5862   7.299   3.923   1.589 -0.6492  0.1185  0.5861
  768MOL0     N 5863   7.338   3.984   1.716  0.4154 -0.0904  0.1293
  768MOL0     C 5864   7.294   3.942   1.836  0.1123  0.6617 -0.0885
  768MOL0     C 5865   7.369   4.003   1.929  0.3308 -0.1075  0.5535
  768MOL0     C 5866   7.348   3.995   2.085 -0.1266 -0.6025  0.4996
  768MOL0     C 5867   7.197   4.013   2.117 -0.5619 -0.6171 -0.1128
  768MOL0     C 5868   7.168   4.022   2.269  0.5993  0.7353 -0.3577
  768MOL0     C 5869   7.017   4.025   2.290 -0.9402 -0.1085  0.0306
  768MOL0     O 5870   6.964   3.902   2.237 -0.0293 -0.8112  0.0210
  768MOL0     C 5871   6.829   3.897   2.214 -0.0985 -1.0193  0.0373
  768MOL0     C 5872   6.786   3.800   2.121  0.1913  0.3105 -1.0882
  768MOL0     C 5873   6.653   3.791   2.084  0.6435 -0.1642  1.0517
  768MOL0     C 5874   6.606   3.684   1.976  0.3095  0.1213 -0.1154
  768MOL0     C 5875   6.559   3.882   2.143 -0.4930 -0.0259 -0.5617
  768MOL0     C 5876   6.417   3.876   2.115  0.6621 -0.0672  0.9357
  768MOL0     O 5877   6.373   3.824   1.990  0.1595 -0.4041 -0.0109
  768MOL0     C 5878   6.234   3.804   1.983 -0.5429 -0.2758  0.4117
  768MOL0     C 5879   6.172   3.844   1.864 -0.8538  0.2588 -0.5655
  768MOL0     C 5880   6.037   3.817   1.848  0.0840  0.2147 -0.0213
  768MOL0     C 5881   5.962   3.734   1.939 -0.4958  0.2993  0.4089
  768MOL0     O 5882   5.831   3.689   1.900 -0.4758  0.4884  0.7487
  768MOL0     C 5883   5.804   3.547   1.885 -0.0956 -0.2958 -0.0462
  768MOL0     C 5884   5.750   3.520   1.742  0.4252 -0.1886 -0.3859
  768MOL0     C 5885   5.608   3.578   1.726 -0.4980 -0.3315  0.6224
  768MOL0     C 5886   5.533   3.533   1.596  0.1698  0.1002 -0.3562
  768MOL0     C 5887   5.461   3.396   1.612 -0.3204  0.8067 -0.3089
  768MOL0     C 5888   5.413   3.341   1.467  0.5089 -0.8837  0.7653
  768MOL0     C 5889   5.322   3.442   1.405  0.3427  0.3040  0.1011
  768MOL0     C 5890   5.265   3.381   1.275  0.6933 -0.5343  0.0518
  768MOL0    Cl 5891   5.397   3.330   1.163  0.0137 -0.0858  0.1607
  768MOL0     C 5892   6.031   3.682   2.052 -0.3492  0.7142 -0.3001
  768MOL0     C 5893   6.163   3.724   2.076  0.9607  0.2355  0.3764
  768MOL0     O 5894   6.342   3.914   2.202  0.0251 -0.3879 -0.3991
  768MOL0     C 5895   6.608   3.969   2.242 -0.8198 -0.1281 -0.5075
  768MOL0     C 5896   6.741   3.978   2.276 -0.2481  0.1651  0.3560
  768MOL0     N 5897   7.456   4.089   1.859  0.0509 -0.0681 -0.5490
  768MOL0     N 5898   7.436   4.075   1.735 -0.4191  0.0770  0.2147
  768MOL0     C 5899   6.303   3.516   1.434 -0.3572  0.5009  0.2978
  768MOL0     C 5900   6.176   3.449   1.423  0.1032 -0.3864 -0.1000
  768MOL0     C 5901   5.825   3.180   1.543  0.1027 -0.2781 -0.7561
  768MOL0     C 5902   5.763   3.091   1.631  0.2310  0.0150  0.1366
  768MOL0     C 5903   5.656   3.011   1.584  0.5185 -0.0991  0.5335
  768MOL0     C 5904   5.617   3.017   1.449 -0.8548 -0.4632  0.2675
  768MOL0     O 5905   5.513   2.935   1.425  0.5393  0.0606  0.3754
  768MOL0     C 5906   5.441   2.923   1.304 -0.8217  0.6801  0.1642
  768MOL0     C 5907   5.286   2.893   1.304 -0.1601  0.4902  0.4910
  768MOL0     C 5908   5.206   3.001   1.364  0.3300 -0.5688  0.6538
  768MOL0     C 5909   5.060   2.955   1.400  0.1273 -0.5571  0.4724
  768MOL0     C 5910   5.002   3.065   1.476  0.0540 -0.0376  0.0675
  768MOL0     C 5911   4.951   3.164   1.527  0.5094 -0.3275  0.5797
  768MOL0     C 5912   5.677   3.106   1.362 -0.0906  0.4217  0.5932
  768MOL0     C 5913   5.783   3.179   1.400  0.5142 -0.4782  0.8582
  768MOL0     C 5914   5.847   3.258   1.293 -0.1040 -0.1224  0.8291
  768MOL0     H 5915   6.043   3.490   1.733 -1.3817  2.3910 -0.5977
  768MOL0     H 5916   6.264   3.607   1.761  2.9952 -2.5535  1.6609
  768MOL0     H 5917   6.442   3.756   1.408 -2.5495 -1.4111  1.0612
  768MOL0     H 5918   6.580   3.624   1.437  1.2255 -0.0725  3.6951
  768MOL0     H 5919   6.541   3.898   1.529 -0.6699  0.2268 -1.8087
  768MOL0     H 5920   6.638   3.782   1.624 -2.2403 -0.6705  1.0774
  768MOL0     H 5921   6.738   3.770   1.352 -0.2691  0.0049 -1.1510
  768MOL0     H 5922   6.696   3.944   1.369  1.7328 -0.1655 -0.6079
  768MOL0     H 5923   6.849   3.970   1.566  0.1032 -1.4113  0.8614
  768MOL0     H 5924   6.878   3.799   1.548 -0.4136  0.6040  1.1351
  768MOL0     H 5925   6.957   4.032   1.369 -1.7789  0.3404  0.0507
  768MOL0     H 5926   6.949   3.872   1.300  0.7605 -1.0650  0.3020
  768MOL0     H 5927   7.111   3.776   1.449  0.0247  0.4450  2.7030
  768MOL0     H 5928   7.171   3.910   1.354  0.0328  0.2785  0.4455
  768MOL0     H 5929   7.101   3.890   1.653 -0.7620  1.2953  0.6135
  768MOL0     H 5930   7.135   4.056   1.570  2.3468  0.1957 -0.9017
  768MOL0     H 5931   7.318   3.815   1.587  0.7322  0.3388 -1.3294
  768MOL0     H 5932   7.359   3.964   1.507 -1.1409 -4.2967 -2.3489
  768MOL0     H 5933   7.214   3.873   1.858 -0.4374  1.2475 -0.2147
  768MOL0     H 5934   7.419   4.074   2.113 -0.9682  1.3571 -2.4046
  768MOL0     H 5935   7.393   3.900   2.116  1.8823 -0.2407 -1.1104
  768MOL0     H 5936   7.166   4.107   2.071 -2.5937 -0.5175  1.3483
  768MOL0     H 5937   7.136   3.941   2.061 -0.6006  0.4188 -1.4450
  768MOL0     H 5938   7.207   3.934   2.321  1.6952  3.6488  4.3683
  768MOL0     H 5939   7.222   4.111   2.301  1.4679  0.6285 -1.4989
  768MOL0     H 5940   6.996   4.047   2.395 -0.8027  0.5002 -0.0643
  768MOL0     H 5941   6.971   4.109   2.238  1.5714  0.1615 -1.9587
  768MOL0     H 5942   6.857   3.729   2.080  0.3206 -1.9083  2.5333
  768MOL0     H 5943   6.590   3.726   1.876  3.5521  0.8772 -0.4349
  768MOL0     H 5944   6.512   3.641   2.010 -0.5625  1.5092 -0.6922
  768MOL0     H 5945   6.682   3.607   1.962 -2.5243 -3.0818  0.7078
  768MOL0     H 5946   6.225   3.903   1.790  1.7583 -1.9405 -0.6564
  768MOL0     H 5947   5.991   3.844   1.753 -1.1356 -1.0829  0.1721
  768MOL0     H 5948   5.896   3.489   1.897 -1.3138 -1.8997  2.3210
  768MOL0     H 5949   5.733   3.503   1.955  1.4915 -1.3014  1.0082
  768MOL0     H 5950   5.804   3.573   1.662  0.9019 -3.0525 -2.1071
  768MOL0     H 5951   5.758   3.416   1.709  2.5130  1.2003 -5.1754
  768MOL0     H 5952   5.615   3.687   1.716  1.2443 -0.1585  2.9138
  768MOL0     H 5953   5.552   3.555   1.817 -0.3863 -3.1910  0.0472
  768MOL0     H 5954   5.608   3.534   1.517 -0.0670  2.3975 -0.6270
  768MOL0     H 5955   5.451   3.602   1.573  0.9374  1.0261 -0.3721
  768MOL0     H 5956   5.520   3.319   1.662  1.0180  0.6940 -1.9692
  768MOL0     H 5957   5.369   3.418   1.667  0.3489  1.4313  0.6099
  768MOL0     H 5958   5.346   3.256   1.482 -2.3673  1.3764  1.6124
  768MOL0     H 5959   5.495   3.321   1.397 -1.2735 -0.4805 -1.5457
  768MOL0     H 5960   5.378   3.534   1.380  0.3200  0.9985  2.4026
  768MOL0     H 5961   5.243   3.470   1.475  0.8152 -0.9535  1.1781
  768MOL0     H 5962   5.204   3.453   1.219  0.2087 -0.6086  0.4878
  768MOL0     H 5963   5.203   3.293   1.293 -0.2514 -0.0116 -0.5356
  768MOL0     H 5964   5.981   3.609   2.114  0.7509 -0.1041 -0.3462
  768MOL0     H 5965   6.211   3.692   2.167  0.8864  1.8356  1.0200
  768MOL0     H 5966   6.540   4.033   2.296 -1.8484  0.9541 -2.9276
  768MOL0     H 5967   6.753   4.047   2.359 -1.3384 -1.4714  1.9548
  768MOL0     H 5968   6.364   3.524   1.345 -1.3913  0.9387 -0.3915
  768MOL0     H 5969   6.153   3.425   1.319 -4.2742  1.5660  0.2140
  768MOL0     H 5970   5.798   3.085   1.733  0.5020  2.2369  0.2168
  768MOL0     H 5971   5.602   2.949   1.654 -0.7082 -1.7164 -1.7099
  768MOL0     H 5972   5.453   3.014   1.244  0.0021  1.5180  1.5576
  768MOL0     H 5973   5.494   2.849   1.243  1.4543  1.7067  0.8012
  768MOL0     H 5974   5.275   2.801   1.362 -0.8799 -1.0210 -1.9095
  768MOL0     H 5975   5.248   2.872   1.203  2.5219  2.4788 -1.0549
  768MOL0     H 5976   5.260   3.044   1.450 -0.4125 -0.3922  1.0396
  768MOL0     H 5977   5.207   3.075   1.284  1.1391 -2.8875 -1.6306
  768MOL0     H 5978   5.050   2.857   1.447  0.5527 -0.2571  1.2016
  768MOL0     H 5979   5.015   2.939   1.301 -0.3401  0.8386  0.4323
  768MOL0     H 5980   4.893   3.244   1.568 -0.4165 -0.3385 -0.6606
  768MOL0     H 5981   5.645   3.085   1.261  1.9526 -0.2104  0.0426
  768MOL0     H 5982   5.830   3.361   1.323 -2.1186 -0.0011 -0.5345
  768MOL0     H 5983   5.955   3.240   1.282  0.0727 -0.1530  2.4132
  768MOL0     H 5984   5.806   3.235   1.194  0.9954  0.9355  0.1028
  769MOL0     O 5985   1.911   3.529   7.433 -0.3200  0.0663 -0.1921
  769MOL0     C 5986   1.909   3.408   7.459  0.9121  0.3080  0.4799
  769MOL0     O 5987   1.982   3.346   7.552 -0.6166 -0.1938 -0.7994
  769MOL0     C 5988   2.098   3.404   7.594 -0.2450  0.8184  0.5612
  769MOL0     C 5989   2.184   3.466   7.509 -0.7111  0.6730  0.8762
  769MOL0     C 5990   2.306   3.515   7.557  1.5147 -0.2422 -0.6027
  769MOL0     C 5991   2.342   3.499   7.694  1.0131 -0.2887  0.2397
  769MOL0     O 5992   2.451   3.549   7.756  0.2996  0.3537  0.4399
  769MOL0     C 5993   2.546   3.619   7.679 -0.1548  1.0237  0.5266
  769MOL0     C 5994   2.672   3.587   7.751 -0.5012  1.1381  0.3945
  769MOL0     C 5995   2.796   3.643   7.676  0.0066  0.1695  0.1459
  769MOL0     C 5996   2.920   3.589   7.744 -0.5050  0.4488 -1.0359
  769MOL0     C 5997   3.040   3.652   7.672 -0.6047 -0.3676  0.6107
  769MOL0     C 5998   3.178   3.614   7.734  0.1698  0.2408 -0.1455
  769MOL0     C 5999   3.216   3.681   7.864  0.0541 -0.1335 -0.7049
  769MOL0     C 6000   3.348   3.638   7.916  0.0916 -0.6607  0.3706
  769MOL0     N 6001   3.380   3.709   8.037  0.7261  0.0929 -0.4908
  769MOL0     C 6002   3.384   3.667   8.165 -0.8166 -0.4987  0.4519
  769MOL0     C 6003   3.443   3.770   8.237  0.0307  0.2435 -0.1502
  769MOL0     C 6004   3.464   3.773   8.385  0.1375  0.8068  0.3204
  769MOL0     C 6005   3.598   3.706   8.422  0.1790  0.9849  0.2157
  769MOL0     C 6006   3.715   3.787   8.370 -0.1285 -0.8129 -0.4908
  769MOL0     C 6007   3.739   3.925   8.432 -0.3632  0.8606  0.3556
  769MOL0     O 6008   3.844   3.980   8.369 -0.4699 -0.3923 -0.0146
  769MOL0     C 6009   3.904   4.094   8.419 -0.5426  0.3353 -0.1363
  769MOL0     C 6010   3.851   4.170   8.524  0.1495  0.5668  0.6559
  769MOL0     C 6011   3.917   4.284   8.581  0.1288  0.3668  0.5007
  769MOL0     C 6012   3.844   4.355   8.684  0.4043  0.8985  0.3340
  769MOL0     C 6013   4.047   4.316   8.541 -0.3136 -0.5435 -0.0848
  769MOL0     C 6014   4.131   4.436   8.579  0.9328  0.6621  0.0341
  769MOL0     O 6015   4.259   4.416   8.559 -0.8886 -0.1274 -0.3824
  769MOL0     C 6016   4.353   4.514   8.605 -0.5924 -0.0193 -0.0546
  769MOL0     C 6017   4.359   4.644   8.559  0.1987  0.0659 -0.9626
  769MOL0     C 6018   4.456   4.736   8.601 -0.3072 -0.1971  0.2501
  769MOL0     C 6019   4.555   4.693   8.695 -0.3918 -0.1609  0.2264
  769MOL0     O 6020   4.663   4.775   8.739 -0.2661  0.2036 -0.4665
  769MOL0     C 6021   4.662   4.912   8.718  0.5108  0.3409  0.0172
  769MOL0     C 6022   4.756   4.981   8.815 -0.1868  0.6780  0.5853
  769MOL0     C 6023   4.900   4.923   8.799 -0.5326  0.2833 -0.6466
  769MOL0     C 6024   4.944   4.914   8.652  0.0221  0.1271  0.4718
  769MOL0     C 6025   5.099   4.913   8.657 -0.2918 -0.1882 -0.3442
  769MOL0     C 6026   5.153   4.947   8.517 -0.0912  0.4361 -0.6568
  769MOL0     C 6027   5.304   4.956   8.521 -0.6927 -0.4771 -0.2353
  769MOL0     C 6028   5.374   5.010   8.406 -0.0028  0.0884  0.7142
  769MOL0    Cl 6029   5.554   4.973   8.412  0.3499  0.3678 -0.2513
  769MOL0     C 6030   4.552   4.556   8.731 -0.0705 -0.0140 -0.6283
  769MOL0     C 6031   4.445   4.472   8.699 -0.2728 -1.1704 -0.0748
  769MOL0     O 6032   4.084   4.525   8.642 -0.0320 -0.4689  1.0271
  769MOL0     C 6033   4.102   4.230   8.445  0.4114 -0.7926 -1.4952
  769MOL0     C 6034   4.032   4.126   8.385 -0.1707  0.0588  0.1854
  769MOL0     N 6035   3.462   3.872   8.148  0.7206  0.8893  0.0498
  769MOL0     N 6036   3.425   3.838   8.030 -0.9796 -0.3361 -0.3533
  769MOL0     C 6037   2.244   3.446   7.781  0.4201  0.1452 -0.7881
  769MOL0     C 6038   2.130   3.396   7.728 -0.1109  0.0449  0.4497
  769MOL0     C 6039   1.795   3.332   7.408 -0.6204  0.1410  0.0981
  769MOL0     C 6040   1.737   3.245   7.501 -0.5316 -0.5186 -0.0418
  769MOL0     C 6041   1.627   3.162   7.460  0.1693 -0.0453 -0.2658
  769MOL0     C 6042   1.578   3.173   7.330  0.8517 -0.0594 -0.4613
  769MOL0     O 6043   1.477   3.097   7.280 -0.2873 -0.6534 -0.4803
  769MOL0     C 6044   1.363   3.084   7.360  0.4231  0.3179  0.1816
  769MOL0     C 6045   1.246   3.023   7.280  0.0600 -0.9775 -0.3137
  769MOL0     C 6046   1.203   3.120   7.166  0.0940 -0.7310 -0.2180
  769MOL0     C 6047   1.095   3.052   7.079  0.1653  0.5333  0.3325
  769MOL0     C 6048   1.147   2.929   7.013 -0.0570 -0.4287  0.5228
  769MOL0     C 6049   1.184   2.841   6.948  0.0473 -0.2346 -0.8142
  769MOL0     C 6050   1.634   3.270   7.243 -0.8895 -0.2407  0.8837
  769MOL0     C 6051   1.751   3.348   7.273  0.2979 -0.3871  0.9909
  769MOL0     C 6052   1.808   3.435   7.166 -0.4622 -0.7918  0.2177
  769MOL0     H 6053   2.163   3.467   7.402  4.2768 -0.1477 -0.3710
  769MOL0     H 6054   2.363   3.567   7.480  0.2137 -0.2959 -1.6259
  769MOL0     H 6055   2.535   3.728   7.680  2.8888  1.4145  0.8158
  769MOL0     H 6056   2.552   3.583   7.576 -0.5519  0.5600  0.6643
  769MOL0     H 6057   2.675   3.624   7.855  1.1288 -1.0320  1.1766
  769MOL0     H 6058   2.673   3.478   7.746  0.6228  1.2054 -1.9843
  769MOL0     H 6059   2.791   3.616   7.571 -0.0469  1.8200 -0.3046
  769MOL0     H 6060   2.790   3.752   7.680 -1.2904  0.1456 -0.7721
  769MOL0     H 6061   2.920   3.631   7.845  2.4349  0.9214 -1.1562
  769MOL0     H 6062   2.924   3.480   7.741 -2.0694  0.3739 -1.8875
  769MOL0     H 6063   3.033   3.761   7.661 -2.4724 -0.3745  1.3179
  769MOL0     H 6064   3.037   3.622   7.567  0.6461  1.6925 -0.0707
  769MOL0     H 6065   3.174   3.507   7.754  1.4952 -0.1163 -1.5951
  769MOL0     H 6066   3.251   3.624   7.652 -2.2229  0.7023 -2.3757
  769MOL0     H 6067   3.138   3.659   7.938  0.1166 -0.0583 -0.6168
  769MOL0     H 6068   3.219   3.790   7.853 -1.1794  0.3031  2.2097
  769MOL0     H 6069   3.341   3.531   7.933  1.2783 -0.7402  0.4505
  769MOL0     H 6070   3.425   3.657   7.840 -1.3641 -0.1475 -1.0487
  769MOL0     H 6071   3.347   3.571   8.199 -0.7499 -0.9172 -0.6193
  769MOL0     H 6072   3.387   3.717   8.439  0.4477  0.9512  0.9290
  769MOL0     H 6073   3.454   3.871   8.432  1.4045  0.8605  0.5321
  769MOL0     H 6074   3.597   3.686   8.530  1.2132  0.6862  0.1778
  769MOL0     H 6075   3.606   3.607   8.378 -0.7188  1.1171 -0.2541
  769MOL0     H 6076   3.805   3.725   8.379  1.4288  0.9074 -2.8445
  769MOL0     H 6077   3.699   3.797   8.262 -1.3786 -0.7285 -0.3189
  769MOL0     H 6078   3.650   3.989   8.444 -1.6203 -0.8586  0.6396
  769MOL0     H 6079   3.768   3.906   8.536  2.1830 -1.3335 -0.6559
  769MOL0     H 6080   3.751   4.150   8.562  0.1959 -2.0972 -0.4284
  769MOL0     H 6081   3.788   4.278   8.738 -1.0725 -0.4969 -2.8962
  769MOL0     H 6082   3.776   4.421   8.630 -0.2700 -0.4369 -0.4787
  769MOL0     H 6083   3.907   4.405   8.758 -0.3429 -0.6610  2.1123
  769MOL0     H 6084   4.290   4.681   8.484  0.6108  2.4290 -0.2492
  769MOL0     H 6085   4.456   4.833   8.551 -0.8657  0.3592  1.2950
  769MOL0     H 6086   4.686   4.939   8.615 -0.5308  1.1172 -0.0372
  769MOL0     H 6087   4.562   4.950   8.741  0.8712  2.5004 -1.6833
  769MOL0     H 6088   4.759   5.090   8.808  2.7011  0.6491 -0.0576
  769MOL0     H 6089   4.728   4.948   8.915  0.2155 -3.4016 -0.4666
  769MOL0     H 6090   4.907   4.818   8.828  0.4533  0.5315  0.0505
  769MOL0     H 6091   4.960   4.981   8.870 -1.4350 -0.3430  0.6769
  769MOL0     H 6092   4.897   4.991   8.590 -0.6373  0.1032  0.9226
  769MOL0     H 6093   4.908   4.826   8.599 -0.6706  1.4656 -1.3907
  769MOL0     H 6094   5.133   4.997   8.719  0.5897 -0.4445 -0.4798
  769MOL0     H 6095   5.137   4.819   8.696  0.5754  0.8211  1.3649
  769MOL0     H 6096   5.125   5.051   8.495  1.4314  0.7758 -1.0982
  769MOL0     H 6097   5.103   4.880   8.446 -0.0227 -1.2083  0.7931
  769MOL0     H 6098   5.348   4.856   8.519 -1.9605 -1.0450 -1.5487
  769MOL0     H 6099   5.333   5.012   8.610  1.8305  0.1721 -1.3669
  769MOL0     H 6100   5.367   5.118   8.422  0.9092 -0.0651  2.3291
  769MOL0     H 6101   5.332   4.986   8.308  0.6075 -0.3004  0.5436
  769MOL0     H 6102   4.633   4.516   8.791 -0.8930 -0.4950  0.1934
  769MOL0     H 6103   4.443   4.369   8.734 -1.7503 -0.9202  0.6274
  769MOL0     H 6104   4.199   4.256   8.402  0.1840 -2.2148 -2.9564
  769MOL0     H 6105   4.075   4.062   8.309  2.2490  0.4196  1.1745
  769MOL0     H 6106   2.264   3.447   7.888 -1.1064 -0.9739 -0.4664
  769MOL0     H 6107   2.066   3.348   7.801 -0.6423  1.5534  1.0207
  769MOL0     H 6108   1.776   3.231   7.601  0.6070  3.4662  0.2530
  769MOL0     H 6109   1.592   3.086   7.530  1.6505 -1.7590 -1.2700
  769MOL0     H 6110   1.387   3.014   7.440 -3.1148  0.5585  1.6530
  769MOL0     H 6111   1.339   3.179   7.408 -0.9895 -0.7046  1.6303
  769MOL0     H 6112   1.156   3.007   7.341  0.4141 -1.5822  0.0545
  769MOL0     H 6113   1.265   2.922   7.243 -1.3702 -0.8796 -1.3929
  769MOL0     H 6114   1.172   3.215   7.211  0.4143 -0.4207 -0.6370
  769MOL0     H 6115   1.289   3.146   7.103  0.5932 -3.8823 -1.0067
  769MOL0     H 6116   1.040   3.123   7.016  0.5650  0.2355 -0.3612
  769MOL0     H 6117   1.010   3.012   7.136 -0.9276  0.9390 -0.9532
  769MOL0     H 6118   1.226   2.761   6.889  1.0089  0.6313 -1.3309
  769MOL0     H 6119   1.594   3.284   7.143 -0.0340 -1.2960  0.3844
  769MOL0     H 6120   1.739   3.515   7.137 -0.3259 -1.1520 -1.1394
  769MOL0     H 6121   1.901   3.484   7.196 -1.7985  1.6865  0.5947
  769MOL0     H 6122   1.835   3.374   7.080 -3.1541  0.7298 -1.8686
  770MOL0     O 6123   9.311   8.803   3.733  0.4170  0.5606 -0.6147
  770MOL0     C 6124   9.278   8.687   3.711  0.2615  0.4572 -0.2948
  770MOL0     O 6125   9.364   8.586   3.688  0.1119  0.6603  0.5814
  770MOL0     C 6126   9.492   8.606   3.730 -1.2164  0.1760  0.0604
  770MOL0     C 6127   9.594   8.545   3.652  0.5945  0.0727 -0.4764
  770MOL0     C 6128   9.733   8.549   3.688  0.8383 -0.2516 -0.6900
  770MOL0     C 6129   9.771   8.606   3.804  0.6761 -0.0050 -0.0682
  770MOL0     O 6130   9.903   8.609   3.851  0.8648 -0.2169 -0.2515
  770MOL0     C 6131   9.998   8.513   3.799  0.3699 -1.6172  0.8936
  770MOL0     C 6132   9.951   8.374   3.845  0.5452  0.1107 -0.3645
  770MOL0     C 6133  10.068   8.288   3.893 -0.2181 -0.5361  0.0302
  770MOL0     C 6134  10.191   8.289   3.807  0.3000 -1.0636 -0.4216
  770MOL0     C 6135  10.306   8.196   3.849  0.1999 -0.2316  1.0137
  770MOL0     C 6136  10.273   8.045   3.845  0.8325  0.2371  0.1038
  770MOL0     C 6137  10.406   7.967   3.854 -0.4751 -0.0984 -0.7764
  770MOL0     C 6138  10.369   7.823   3.890 -0.3462 -0.3116  0.5091
  770MOL0     N 6139  10.495   7.749   3.878  0.6529  0.3241 -0.1395
  770MOL0     C 6140  10.582   7.730   3.981 -0.4662 -0.4690  0.7683
  770MOL0     C 6141  10.663   7.629   3.934 -0.1145  0.3218 -0.4437
  770MOL0     C 6142  10.772   7.575   4.022 -0.2206 -0.2225  0.4103
  770MOL0     C 6143  10.838   7.458   3.955 -0.8300  0.2458 -0.3344
  770MOL0     C 6144  10.925   7.516   3.839  0.2864  0.1477 -0.6108
  770MOL0     C 6145  11.033   7.423   3.797 -0.7255 -0.1586  0.1017
  770MOL0     O 6146  11.122   7.381   3.909  0.0690  0.7562 -0.7294
  770MOL0     C 6147  11.205   7.274   3.886 -0.3613 -0.3112 -0.0817
  770MOL0     C 6148  11.243   7.195   3.997 -0.2799 -0.4424 -0.2643
  770MOL0     C 6149  11.329   7.089   3.982  0.4277 -0.3401  0.2540
  770MOL0     C 6150  11.357   7.018   4.110  0.0837 -0.0115 -0.3273
  770MOL0     C 6151  11.389   7.054   3.854 -0.7366  0.6918 -0.5104
  770MOL0     C 6152  11.481   6.940   3.832  0.1960 -0.1378  0.1912
  770MOL0     O 6153  11.525   6.934   3.700 -0.0764  0.4922 -0.0245
  770MOL0     C 6154  11.618   6.848   3.647 -0.2574  0.1603 -0.4518
  770MOL0     C 6155  11.604   6.819   3.510  0.6201  0.3643 -0.6311
  770MOL0     C 6156  11.694   6.736   3.451 -0.0334 -0.0914 -0.8898
  770MOL0     C 6157  11.810   6.677   3.522 -0.6409 -0.7220  0.6897
  770MOL0     O 6158  11.925   6.620   3.465  0.5034  0.6512  0.4685
  770MOL0     C 6159  11.976   6.673   3.344 -0.1547  0.3245 -0.9012
  770MOL0     C 6160  12.068   6.794   3.394  0.0961 -0.5727  1.6088
  770MOL0     C 6161  12.201   6.751   3.467 -0.3286  0.5968  0.5247
  770MOL0     C 6162  12.306   6.683   3.377  0.0689  0.3251 -0.4239
  770MOL0     C 6163  12.433   6.663   3.462 -0.3447  1.0392 -0.8381
  770MOL0     C 6164  12.556   6.627   3.383 -0.1488 -1.2156 -0.6807
  770MOL0     C 6165  12.686   6.623   3.466 -0.1002 -0.2979 -0.2233
  770MOL0     C 6166  12.755   6.762   3.495 -0.4995 -0.2092  0.1370
  770MOL0    Cl 6167  12.690   6.861   3.630  0.1980  0.1079 -0.3806
  770MOL0     C 6168  11.805   6.691   3.666  0.4950  0.1960 -0.2908
  770MOL0     C 6169  11.718   6.783   3.725 -0.1146  0.4486  0.0462
  770MOL0     O 6170  11.512   6.867   3.924 -0.1251 -0.2108 -0.5970
  770MOL0     C 6171  11.355   7.134   3.741  0.2611  0.6369 -0.3705
  770MOL0     C 6172  11.272   7.251   3.759 -0.0846 -0.8590  0.0467
  770MOL0     N 6173  10.621   7.587   3.810  0.2901  0.2891 -0.4612
  770MOL0     N 6174  10.514   7.654   3.785  0.0456 -0.3051  0.4895
  770MOL0     C 6175   9.672   8.666   3.884  0.6700 -0.3222 -0.2059
  770MOL0     C 6176   9.534   8.673   3.846  0.1969  0.0224 -0.1432
  770MOL0     C 6177   9.133   8.668   3.698  0.1313 -0.5177 -0.1333
  770MOL0     C 6178   9.091   8.533   3.709  0.3697 -0.2789 -0.3071
  770MOL0     C 6179   8.954   8.505   3.695  0.9880 -0.2386  0.1341
  770MOL0     C 6180   8.859   8.596   3.659 -0.3063  0.0662  0.4124
  770MOL0     O 6181   8.728   8.545   3.644 -0.0325 -0.5677  0.5813
  770MOL0     C 6182   8.631   8.643   3.582  0.6262 -0.2216 -0.3916
  770MOL0     C 6183   8.484   8.593   3.579 -0.7882 -0.1275 -0.1304
  770MOL0     C 6184   8.432   8.590   3.718  0.3922 -0.4391  0.2582
  770MOL0     C 6185   8.280   8.619   3.719  0.5363 -0.0315  0.1840
  770MOL0     C 6186   8.240   8.619   3.865  0.1922  0.9004 -0.0875
  770MOL0     C 6187   8.214   8.625   3.979  0.0164  1.2275 -0.3216
  770MOL0     C 6188   8.905   8.733   3.641 -0.0581 -0.2304  0.7103
  770MOL0     C 6189   9.041   8.766   3.662  1.0491 -0.1921 -0.9010
  770MOL0     C 6190   9.078   8.909   3.637  0.4259 -0.4470  0.3318
  770MOL0     H 6191   9.576   8.500   3.555  1.1682 -3.1696  0.7949
  770MOL0     H 6192   9.810   8.509   3.623  2.4234 -2.1516  2.1349
  770MOL0     H 6193  10.094   8.539   3.846 -0.4274 -0.8148  2.1262
  770MOL0     H 6194  10.005   8.526   3.691 -2.8486 -0.9421  0.6827
  770MOL0     H 6195   9.873   8.378   3.922  1.5782 -1.0400  0.8153
  770MOL0     H 6196   9.912   8.321   3.758 -0.5537  0.3445 -0.0278
  770MOL0     H 6197  10.096   8.314   3.996  2.6466 -1.4475 -0.4456
  770MOL0     H 6198  10.024   8.188   3.898 -0.8708 -0.2414  0.3211
  770MOL0     H 6199  10.164   8.267   3.703 -0.1848 -0.7561 -0.3633
  770MOL0     H 6200  10.226   8.392   3.805 -0.7612 -0.6606  0.5198
  770MOL0     H 6201  10.341   8.225   3.949  2.2447 -1.0257  0.5799
  770MOL0     H 6202  10.388   8.211   3.778  1.0509 -1.8741  1.5949
  770MOL0     H 6203  10.206   8.019   3.927 -0.5605  0.2096 -1.0151
  770MOL0     H 6204  10.220   8.025   3.752  0.7075  0.6007  0.0934
  770MOL0     H 6205  10.475   8.008   3.928 -1.8335  0.8115  0.0229
  770MOL0     H 6206  10.460   7.978   3.760 -0.1375  0.5021 -0.5143
  770MOL0     H 6207  10.339   7.805   3.994  0.1957  1.4723  1.0116
  770MOL0     H 6208  10.292   7.784   3.823 -1.4758  0.8622  1.1005
  770MOL0     H 6209  10.596   7.778   4.078 -2.6833 -0.3106  1.0505
  770MOL0     H 6210  10.743   7.553   4.125 -0.1939  1.2080  0.7495
  770MOL0     H 6211  10.842   7.656   4.043  0.1724 -0.2851 -0.5690
  770MOL0     H 6212  10.887   7.396   4.031 -1.9544 -0.1404  0.1056
  770MOL0     H 6213  10.770   7.394   3.897 -0.2330  0.0830 -0.8699
  770MOL0     H 6214  10.874   7.548   3.747  1.6220 -2.0837 -2.2177
  770MOL0     H 6215  10.976   7.604   3.880  0.1529  1.0697 -2.3268
  770MOL0     H 6216  10.989   7.337   3.745  0.4364 -3.2621  3.7491
  770MOL0     H 6217  11.086   7.478   3.719 -1.5609 -1.3670 -1.3536
  770MOL0     H 6218  11.198   7.219   4.093  1.1836  1.3934  0.0435
  770MOL0     H 6219  11.312   7.061   4.200 -0.7578 -1.6588  0.0703
  770MOL0     H 6220  11.465   7.017   4.128  0.2523  4.6641  0.2381
  770MOL0     H 6221  11.314   6.918   4.107  1.0971 -0.5964  2.2515
  770MOL0     H 6222  11.521   6.857   3.451  1.2073  2.0330 -0.4357
  770MOL0     H 6223  11.694   6.737   3.342 -1.8306  2.3135 -0.9408
  770MOL0     H 6224  12.035   6.590   3.304  1.2106 -1.1687  3.6014
  770MOL0     H 6225  11.899   6.701   3.272  0.0827 -0.0819 -1.3191
  770MOL0     H 6226  12.095   6.848   3.303  0.8532 -3.2981  0.1069
  770MOL0     H 6227  12.008   6.865   3.452 -4.1246 -0.5291 -2.2991
  770MOL0     H 6228  12.181   6.684   3.550 -2.5884  2.0834  1.2993
  770MOL0     H 6229  12.249   6.839   3.510 -0.9989  0.8195  0.8293
  770MOL0     H 6230  12.328   6.751   3.295  0.5967 -1.6022 -1.9747
  770MOL0     H 6231  12.275   6.587   3.334  0.9992 -0.3921  0.4577
  770MOL0     H 6232  12.452   6.750   3.526  0.2976  2.4379 -2.8097
  770MOL0     H 6233  12.405   6.578   3.524  1.1028 -0.0100 -1.5450
  770MOL0     H 6234  12.558   6.706   3.308 -3.0827 -0.6724 -0.3187
  770MOL0     H 6235  12.532   6.530   3.338 -0.9469 -2.3877  2.0323
  770MOL0     H 6236  12.752   6.559   3.407 -0.3400 -3.2893  2.4272
  770MOL0     H 6237  12.663   6.568   3.558  1.0117  0.0093  0.2572
  770MOL0     H 6238  12.743   6.817   3.401  2.2087 -1.3882 -0.9953
  770MOL0     H 6239  12.862   6.754   3.512  0.3166 -0.4461 -4.0364
  770MOL0     H 6240  11.891   6.653   3.721 -1.6394 -0.0171  3.1882
  770MOL0     H 6241  11.727   6.802   3.832 -1.2805 -0.2965  0.2928
  770MOL0     H 6242  11.415   7.123   3.651 -0.2381  1.9457 -0.8962
  770MOL0     H 6243  11.256   7.317   3.675 -0.6610  0.6650  1.2892
  770MOL0     H 6244   9.709   8.715   3.973 -1.7661  4.5168 -1.5402
  770MOL0     H 6245   9.468   8.716   3.921  0.6022  1.2096 -0.4372
  770MOL0     H 6246   9.154   8.445   3.721 -2.2932 -2.0977  1.6595
  770MOL0     H 6247   8.935   8.398   3.703  1.8223 -0.3871  0.2936
  770MOL0     H 6248   8.641   8.739   3.633 -0.8025 -0.8988  1.2606
  770MOL0     H 6249   8.663   8.655   3.478  1.0851  0.3403 -0.1929
  770MOL0     H 6250   8.498   8.494   3.536  1.1208  0.6325 -1.4046
  770MOL0     H 6251   8.423   8.653   3.511 -1.9933  0.8595  1.7260
  770MOL0     H 6252   8.450   8.491   3.762 -1.5450 -0.8808  0.1420
  770MOL0     H 6253   8.474   8.670   3.779  0.5051 -1.2888  1.3253
  770MOL0     H 6254   8.224   8.545   3.661  0.5766  0.9949 -1.2088
  770MOL0     H 6255   8.257   8.715   3.671  1.8338 -0.0149 -0.4345
  770MOL0     H 6256   8.181   8.640   4.080 -1.7578  0.7825 -0.8040
  770MOL0     H 6257   8.836   8.815   3.622  1.3543  0.6824 -0.8111
  770MOL0     H 6258   9.118   8.959   3.726 -0.4220  3.2292 -1.1675
  770MOL0     H 6259   9.146   8.931   3.555 -1.6722 -0.7238 -1.5776
  770MOL0     H 6260   8.986   8.964   3.613 -0.8819 -2.7609 -0.3081
  771MOL0     O 6261   3.040   8.348  11.334 -0.5415  0.1547  0.9232
  771MOL0     C 6262   2.979   8.313  11.231 -0.1997 -0.2767  1.1872
  771MOL0     O 6263   3.029   8.277  11.106 -0.6414 -0.0982  0.0987
  771MOL0     C 6264   3.163   8.306  11.070 -0.9339 -0.0257 -0.2106
  771MOL0     C 6265   3.281   8.333  11.150  0.0007 -0.3037 -0.2852
  771MOL0     C 6266   3.409   8.347  11.091 -0.3526 -0.1255  0.0716
  771MOL0     C 6267   3.429   8.337  10.953  0.0801  0.0311  0.3466
  771MOL0     O 6268   3.559   8.337  10.894  0.3650  0.1595 -0.2050
  771MOL0     C 6269   3.655   8.416  10.955 -0.3925  0.0943  0.2864
  771MOL0     C 6270   3.793   8.405  10.890  0.5416 -0.2719 -0.0484
  771MOL0     C 6271   3.894   8.483  10.974 -0.3066  1.0328 -0.1370
  771MOL0     C 6272   4.020   8.519  10.898 -0.2443  0.0401  0.0471
  771MOL0     C 6273   4.126   8.580  10.993  0.3443  0.3296  0.2126
  771MOL0     C 6274   4.267   8.550  10.945 -0.6438  0.1240 -0.2462
  771MOL0     C 6275   4.357   8.601  11.062 -0.0793 -1.2707  0.3773
  771MOL0     C 6276   4.507   8.592  11.018 -0.2004 -0.1987  0.2069
  771MOL0     N 6277   4.570   8.461  11.043  0.6206 -1.1715 -0.2973
  771MOL0     C 6278   4.627   8.426  11.158 -0.3550  0.1382 -0.9525
  771MOL0     C 6279   4.685   8.310  11.127  0.9165 -0.5094  0.2252
  771MOL0     C 6280   4.773   8.227  11.213 -0.3212 -0.0708  0.4331
  771MOL0     C 6281   4.925   8.258  11.223 -0.5438  0.3964  0.3488
  771MOL0     C 6282   4.943   8.398  11.294 -0.3778 -0.3322 -0.2597
  771MOL0     C 6283   5.092   8.427  11.292 -0.8107 -0.3033  0.0434
  771MOL0     O 6284   5.125   8.483  11.162  0.4006  0.1777 -0.2771
  771MOL0     C 6285   5.249   8.538  11.142  0.4353  0.3342 -0.0820
  771MOL0     C 6286   5.278   8.580  11.006  0.6563 -0.9448  0.0973
  771MOL0     C 6287   5.395   8.622  10.948  0.3626 -0.6137 -0.5961
  771MOL0     C 6288   5.397   8.654  10.806 -0.3143 -0.5233  0.7346
  771MOL0     C 6289   5.508   8.619  11.040  0.4533 -0.5133 -0.0655
  771MOL0     C 6290   5.646   8.626  10.991  1.1937 -0.0303 -0.0778
  771MOL0     O 6291   5.741   8.595  11.086 -0.0143  0.1827  0.3465
  771MOL0     C 6292   5.877   8.623  11.056  0.1821  0.1985  0.1396
  771MOL0     C 6293   5.967   8.528  11.108  0.2630  0.4298  0.5728
  771MOL0     C 6294   6.101   8.538  11.090 -0.4295 -0.3964  0.0919
  771MOL0     C 6295   6.154   8.657  11.019 -0.0492 -0.1821 -0.0189
  771MOL0     O 6296   6.288   8.667  10.984 -0.4360  0.1936 -0.1801
  771MOL0     C 6297   6.379   8.570  11.037 -0.7501 -0.5995  0.0046
  771MOL0     C 6298   6.524   8.593  10.991  0.1816  0.0428 -0.0034
  771MOL0     C 6299   6.626   8.520  11.070  0.6267  0.0689  0.1264
  771MOL0     C 6300   6.762   8.548  11.023 -0.1070 -0.3956  0.2861
  771MOL0     C 6301   6.852   8.488  11.130 -0.0411  0.5460 -0.0323
  771MOL0     C 6302   6.998   8.546  11.126 -0.0949  1.0261 -0.3965
  771MOL0     C 6303   7.067   8.532  10.990  0.4463 -0.9419  0.8922
  771MOL0     C 6304   7.207   8.592  11.006 -0.0782  0.9425  0.3770
  771MOL0    Cl 6305   7.296   8.604  10.848 -0.0259 -0.1107 -0.3065
  771MOL0     C 6306   6.060   8.749  10.979  0.6544 -0.5191 -0.0032
  771MOL0     C 6307   5.919   8.743  10.995 -0.5773 -0.8061  0.5108
  771MOL0     O 6308   5.664   8.690  10.888  0.0600  0.3141  0.1456
  771MOL0     C 6309   5.484   8.594  11.178 -0.4260  0.3674 -0.2844
  771MOL0     C 6310   5.363   8.545  11.221  0.3907  0.7193 -0.2997
  771MOL0     N 6311   4.651   8.275  11.001  0.1145  0.2495 -0.1107
  771MOL0     N 6312   4.595   8.372  10.948  0.4715  0.3886  0.6334
  771MOL0     C 6313   3.321   8.311  10.869  0.0066  0.1291  0.4514
  771MOL0     C 6314   3.194   8.288  10.932 -0.1489 -0.4385  0.5834
  771MOL0     C 6315   2.833   8.279  11.259 -1.1570  0.2804  0.7614
  771MOL0     C 6316   2.802   8.231  11.384 -0.3705 -0.3433 -0.0527
  771MOL0     C 6317   2.672   8.190  11.416 -0.2449  0.4766  0.9165
  771MOL0     C 6318   2.566   8.219  11.331  0.3645 -0.4819  0.5327
  771MOL0     O 6319   2.432   8.185  11.357 -0.3274  0.4571 -0.1542
  771MOL0     C 6320   2.415   8.069  11.438  0.5412 -0.3245 -0.1264
  771MOL0     C 6321   2.277   8.009  11.422  0.2275 -0.5790  0.8847
  771MOL0     C 6322   2.234   7.912  11.531  0.1049  0.9288  1.2453
  771MOL0     C 6323   2.146   7.811  11.463 -0.4029 -0.1154  0.6391
  771MOL0     C 6324   2.089   7.718  11.566  0.2596  0.3001  0.3926
  771MOL0     C 6325   2.032   7.658  11.658  0.6370  0.4397 -0.1608
  771MOL0     C 6326   2.600   8.265  11.208  0.2040  0.2412 -0.0799
  771MOL0     C 6327   2.734   8.281  11.162  0.4646 -0.5384  0.2581
  771MOL0     C 6328   2.749   8.335  11.024  0.2201  0.8646  0.3409
  771MOL0     H 6329   3.268   8.340  11.258  2.5947 -0.0471  0.0611
  771MOL0     H 6330   3.492   8.361  11.159 -0.2741 -0.7319  0.1043
  771MOL0     H 6331   3.670   8.383  11.058  1.6229 -1.2992 -0.3966
  771MOL0     H 6332   3.613   8.518  10.957  0.7439  0.5715  1.6864
  771MOL0     H 6333   3.823   8.301  10.873  0.8426  0.0631 -1.7742
  771MOL0     H 6334   3.781   8.459  10.795 -1.6942  1.3034  1.0597
  771MOL0     H 6335   3.861   8.580  11.011  2.6048  1.6074  1.2477
  771MOL0     H 6336   3.923   8.417  11.055 -0.3519  1.8560  0.5620
  771MOL0     H 6337   4.056   8.424  10.859  1.2033  1.2370 -1.7000
  771MOL0     H 6338   3.976   8.587  10.825 -1.4220  0.9746  1.5564
  771MOL0     H 6339   4.126   8.539  11.094  1.8594  0.6328  0.3586
  771MOL0     H 6340   4.119   8.689  11.006  0.8191  0.0829  3.1875
  771MOL0     H 6341   4.294   8.446  10.926 -0.2781 -0.3285  2.4097
  771MOL0     H 6342   4.284   8.610  10.855 -1.3643  1.3878  0.4266
  771MOL0     H 6343   4.345   8.561  11.163 -3.0491  0.6106  0.8910
  771MOL0     H 6344   4.340   8.707  11.081  1.4309 -0.8602 -0.4370
  771MOL0     H 6345   4.512   8.609  10.910  1.4569  2.0699  0.5525
  771MOL0     H 6346   4.563   8.674  11.064  0.2187 -0.8401  0.8606
  771MOL0     H 6347   4.634   8.473  11.256 -0.7493 -2.2210  0.2758
  771MOL0     H 6348   4.763   8.124  11.178  0.1817 -0.7277  2.1170
  771MOL0     H 6349   4.730   8.234  11.313  0.6686  3.1435  0.7454
  771MOL0     H 6350   4.958   8.180  11.293  0.6640 -1.0227 -1.6857
  771MOL0     H 6351   4.977   8.258  11.127 -0.2592  5.5165  0.2111
  771MOL0     H 6352   4.899   8.472  11.228  0.4880 -0.2501 -0.7633
  771MOL0     H 6353   4.899   8.399  11.394 -1.7963 -0.5266 -0.8541
  771MOL0     H 6354   5.129   8.488  11.375  1.1573  0.1815 -1.1149
  771MOL0     H 6355   5.143   8.331  11.306 -1.5366 -0.8975 -1.2554
  771MOL0     H 6356   5.188   8.571  10.947  0.8693  1.8309 -0.7877
  771MOL0     H 6357   5.467   8.590  10.751  0.9187  0.7408  0.8130
  771MOL0     H 6358   5.428   8.758  10.795 -0.4346 -0.4737  0.8621
  771MOL0     H 6359   5.299   8.629  10.764 -0.3943  0.2426  0.4522
  771MOL0     H 6360   5.933   8.434  11.150  0.7596 -0.3821 -0.7818
  771MOL0     H 6361   6.175   8.468  11.127 -0.3351  0.9659  2.6843
  771MOL0     H 6362   6.370   8.595  11.143  1.0573  0.3289 -0.0152
  771MOL0     H 6363   6.349   8.467  11.016 -1.1155 -0.2364 -1.3713
  771MOL0     H 6364   6.525   8.554  10.889 -2.1062 -1.9730  0.6648
  771MOL0     H 6365   6.546   8.700  10.998  0.1338 -0.0200  1.4247
  771MOL0     H 6366   6.607   8.414  11.050 -0.6396  0.3842 -0.4843
  771MOL0     H 6367   6.618   8.537  11.178  1.0487  0.9427  0.0235
  771MOL0     H 6368   6.786   8.655  11.013  0.7340 -0.5822  0.1738
  771MOL0     H 6369   6.781   8.500  10.927 -1.4638 -0.5711  0.0869
  771MOL0     H 6370   6.817   8.510  11.231  0.8253  1.2341  0.1351
  771MOL0     H 6371   6.849   8.380  11.113  0.9457  0.7969 -2.2588
  771MOL0     H 6372   7.061   8.489  11.196 -0.1290 -0.4719 -1.5443
  771MOL0     H 6373   6.982   8.648  11.161  2.0544  0.4989  2.5429
  771MOL0     H 6374   7.006   8.584  10.915 -0.6943 -3.0290  0.3183
  771MOL0     H 6375   7.071   8.425  10.970 -0.7386 -1.5278  3.4909
  771MOL0     H 6376   7.261   8.523  11.072 -1.1198 -0.9602 -0.6813
  771MOL0     H 6377   7.215   8.692  11.049 -1.4071  2.0597 -1.7918
  771MOL0     H 6378   6.099   8.836  10.926  1.0786 -0.9342 -0.3713
  771MOL0     H 6379   5.858   8.821  10.950 -1.2753 -1.1515  0.8412
  771MOL0     H 6380   5.570   8.595  11.245 -1.6286  2.6700  1.3472
  771MOL0     H 6381   5.365   8.518  11.326 -0.4388 -0.0285 -0.4648
  771MOL0     H 6382   3.338   8.295  10.763  3.2124  1.5852  0.6190
  771MOL0     H 6383   3.102   8.261  10.880 -0.3401  0.9141  0.1662
  771MOL0     H 6384   2.886   8.206  11.448  0.2083  2.0784  0.2358
  771MOL0     H 6385   2.655   8.154  11.517 -0.9969 -1.3653  0.1905
  771MOL0     H 6386   2.483   7.994  11.398  2.4848  2.0429 -1.5582
  771MOL0     H 6387   2.423   8.097  11.543 -1.9841 -1.1184  0.3534
  771MOL0     H 6388   2.264   7.959  11.325  0.5354  0.2085  0.4215
  771MOL0     H 6389   2.206   8.092  11.420  0.0471 -0.6812 -2.0607
  771MOL0     H 6390   2.331   7.875  11.567  0.4621  0.4744 -0.1243
  771MOL0     H 6391   2.188   7.979  11.605  2.1562  2.7215  0.9959
  771MOL0     H 6392   2.205   7.765  11.383  3.4018  0.9709  2.5861
  771MOL0     H 6393   2.061   7.848  11.405 -1.1991 -1.9160  0.6159
  771MOL0     H 6394   1.973   7.595  11.722 -0.4667 -0.9696 -2.4660
  771MOL0     H 6395   2.517   8.287  11.141  0.6589 -0.2889 -0.8398
  771MOL0     H 6396   2.655   8.366  10.978  0.8964 -2.4384 -3.8799
  771MOL0     H 6397   2.815   8.422  11.030  1.4754 -0.1594  2.1682
  771MOL0     H 6398   2.778   8.254  10.956  0.1789  0.4717  0.7893
  772MOL0     O 6399   7.839  11.020   2.033  0.0175 -0.3152 -0.1919
  772MOL0     C 6400   7.814  10.961   2.135 -0.3114 -0.2353  0.4412
  772MOL0     O 6401   7.898  10.908   2.221 -0.1686  0.3934 -0.0736
  772MOL0     C 6402   8.031  10.930   2.206  0.6636  0.2213 -0.4912
  772MOL0     C 6403   8.108  10.958   2.320  0.0526  0.1557 -0.0835
  772MOL0     C 6404   8.248  10.957   2.307 -0.1033 -0.0316 -0.1843
  772MOL0     C 6405   8.311  10.927   2.181 -0.7941 -0.4939 -1.0675
  772MOL0     O 6406   8.449  10.946   2.177  0.7170 -0.0421 -0.4824
  772MOL0     C 6407   8.525  10.906   2.063  0.2578 -0.3740 -1.2411
  772MOL0     C 6408   8.666  10.954   2.095  0.4101  0.5878 -0.1766
  772MOL0     C 6409   8.780  10.856   2.065 -0.4129 -0.4801 -0.0351
  772MOL0     C 6410   8.899  10.919   2.127 -0.7022 -0.8068  0.9044
  772MOL0     C 6411   9.031  10.853   2.092 -0.0659 -0.1055  0.0398
  772MOL0     C 6412   9.149  10.909   2.171  0.7198 -1.3066 -0.2073
  772MOL0     C 6413   9.280  10.861   2.121  0.1041 -0.0729  0.5685
  772MOL0     C 6414   9.383  10.893   2.236  0.0306 -0.4259  0.5340
  772MOL0     N 6415   9.517  10.825   2.201  0.8150 -0.1426  0.3619
  772MOL0     C 6416   9.555  10.691   2.197 -0.0325  0.3482 -0.3546
  772MOL0     C 6417   9.677  10.686   2.132  0.2586 -0.2586  0.5372
  772MOL0     C 6418   9.758  10.564   2.096 -0.1253  0.2408  0.6092
  772MOL0     C 6419   9.909  10.583   2.097 -0.5862 -0.6555  0.0921
  772MOL0     C 6420   9.967  10.452   2.085 -0.0355 -0.4566  1.0537
  772MOL0     C 6421  10.122  10.461   2.091  0.8335  0.4033 -0.0999
  772MOL0     O 6422  10.180  10.344   2.027 -0.1734  0.0571  0.4469
  772MOL0     C 6423  10.312  10.317   2.071 -0.1234  0.2278  0.4803
  772MOL0     C 6424  10.408  10.421   2.064 -0.0020 -0.8060  0.3824
  772MOL0     C 6425  10.543  10.408   2.102  0.9341  0.1853 -0.3106
  772MOL0     C 6426  10.625  10.537   2.115  1.4759  0.9644  0.0085
  772MOL0     C 6427  10.586  10.281   2.150 -0.8660  0.1182 -0.1101
  772MOL0     C 6428  10.712  10.252   2.222 -0.0319  0.4222  0.0315
  772MOL0     O 6429  10.829  10.326   2.188 -0.5100  0.6924 -0.3530
  772MOL0     C 6430  10.944  10.287   2.260  0.3621  0.2332  0.5279
  772MOL0     C 6431  11.040  10.220   2.182  0.2383 -0.1044 -0.4411
  772MOL0     C 6432  11.160  10.178   2.232 -1.0958 -0.3343  0.5769
  772MOL0     C 6433  11.188  10.205   2.367 -0.8306  0.4559 -0.6924
  772MOL0     O 6434  11.305  10.160   2.433  0.5819 -0.2906  0.1872
  772MOL0     C 6435  11.416  10.119   2.358 -0.5520 -0.5817  0.1178
  772MOL0     C 6436  11.488  10.241   2.295  0.7261 -0.3090 -0.8775
  772MOL0     C 6437  11.530  10.340   2.408  0.9316 -0.3045 -0.5948
  772MOL0     C 6438  11.673  10.293   2.459 -0.3087  0.5929 -0.2107
  772MOL0     C 6439  11.735  10.390   2.570  0.7979 -0.4683 -0.7975
  772MOL0     C 6440  11.858  10.338   2.644 -0.2708  0.0887  0.2381
  772MOL0     C 6441  11.956  10.257   2.568 -0.1149 -0.8114  0.6994
  772MOL0     C 6442  12.058  10.351   2.504  0.0002  0.1797 -0.5982
  772MOL0    Cl 6443  12.164  10.243   2.396  0.2472 -0.0617  0.0605
  772MOL0     C 6444  11.093  10.270   2.448  0.1014  0.2596  0.6505
  772MOL0     C 6445  10.979  10.319   2.397 -0.5309 -0.3910 -0.0052
  772MOL0     O 6446  10.695  10.177   2.315  0.2509  0.6271 -0.2993
  772MOL0     C 6447  10.500  10.166   2.133 -0.1727 -0.1859  0.4462
  772MOL0     C 6448  10.363  10.187   2.099 -0.6492  0.5138  0.2658
  772MOL0     N 6449   9.713  10.817   2.102 -1.2190 -0.6579  0.6499
  772MOL0     N 6450   9.626  10.899   2.144  0.2528 -0.3062  0.1412
  772MOL0     C 6451   8.238  10.898   2.063  0.2638 -0.3254 -0.3598
  772MOL0     C 6452   8.094  10.896   2.090 -0.6022  0.3281  0.6847
  772MOL0     C 6453   7.675  10.933   2.173 -0.4473  1.2892  0.5105
  772MOL0     C 6454   7.634  10.809   2.230 -0.0846 -0.2939  0.1117
  772MOL0     C 6455   7.505  10.779   2.249 -0.0070  0.7213  0.0952
  772MOL0     C 6456   7.401  10.866   2.226 -0.7273  0.2611  0.0355
  772MOL0     O 6457   7.266  10.842   2.234  0.2913 -0.5252 -0.1636
  772MOL0     C 6458   7.215  10.713   2.206  0.1796  0.8418 -0.5801
  772MOL0     C 6459   7.224  10.664   2.060 -0.5695  0.5819 -0.0694
  772MOL0     C 6460   7.177  10.519   2.033  0.5976 -0.7132  0.3891
  772MOL0     C 6461   7.244  10.449   1.912  0.1325  0.4109 -0.3379
  772MOL0     C 6462   7.196  10.506   1.788  0.6127 -0.2181  0.6987
  772MOL0     C 6463   7.134  10.541   1.689  0.0746 -0.2956 -0.4485
  772MOL0     C 6464   7.433  10.992   2.174  0.3611 -0.0199 -0.2331
  772MOL0     C 6465   7.567  11.024   2.146 -0.7554  0.3409 -0.3651
  772MOL0     C 6466   7.587  11.152   2.062 -0.2870  0.1965  0.0638
  772MOL0     H 6467   8.067  10.966   2.420 -0.4815  0.5328 -0.3347
  772MOL0     H 6468   8.309  10.968   2.396  0.4064  1.0396 -0.6417
  772MOL0     H 6469   8.488  10.966   1.979  0.9817  0.1461 -1.1965
  772MOL0     H 6470   8.517  10.802   2.032 -1.2028 -0.8399  0.5306
  772MOL0     H 6471   8.684  11.049   2.044  2.3917  0.8084  0.8510
  772MOL0     H 6472   8.676  10.988   2.198  0.1789 -1.2870  0.5064
  772MOL0     H 6473   8.762  10.758   2.111  1.8065 -0.3470  1.2833
  772MOL0     H 6474   8.786  10.856   1.956  3.3637  0.6330  0.0263
  772MOL0     H 6475   8.904  11.026   2.105 -2.2176 -0.6095  1.4475
  772MOL0     H 6476   8.894  10.908   2.236  1.6733  0.4336  1.2002
  772MOL0     H 6477   9.043  10.862   1.983 -0.4947 -1.2534 -0.1158
  772MOL0     H 6478   9.008  10.750   2.119  0.3613  0.1249  1.3367
  772MOL0     H 6479   9.140  11.017   2.183 -0.2387 -1.6408  2.7298
  772MOL0     H 6480   9.141  10.863   2.270  0.2741 -2.1573 -0.6313
  772MOL0     H 6481   9.305  10.927   2.038  1.6494  1.4630  2.1688
  772MOL0     H 6482   9.282  10.754   2.101  1.5478  0.2267 -1.0558
  772MOL0     H 6483   9.391  11.002   2.237  0.1760 -0.3310 -2.5322
  772MOL0     H 6484   9.345  10.862   2.335 -1.5714 -0.5249 -0.0797
  772MOL0     H 6485   9.492  10.610   2.233  0.2538  0.2193 -0.1430
  772MOL0     H 6486   9.731  10.529   1.996  1.1482  2.4267 -0.5909
  772MOL0     H 6487   9.721  10.488   2.165 -2.5110  1.5482  0.8645
  772MOL0     H 6488   9.947  10.642   2.013 -2.0658 -2.3587 -1.8771
  772MOL0     H 6489   9.935  10.625   2.195 -0.9494  1.2821 -0.6007
  772MOL0     H 6490   9.945  10.389   2.171 -0.9821 -0.0932  1.0819
  772MOL0     H 6491   9.920  10.406   1.997 -0.7666 -3.0278  2.6650
  772MOL0     H 6492  10.158  10.549   2.037  1.9830  1.3193  2.0515
  772MOL0     H 6493  10.155  10.468   2.195 -0.5667  1.3024  0.3021
  772MOL0     H 6494  10.381  10.522   2.033 -1.4323 -1.1695  0.3793
  772MOL0     H 6495  10.693  10.539   2.029 -1.5400 -3.4738 -2.9448
  772MOL0     H 6496  10.676  10.561   2.209  2.6312 -0.0365 -0.3340
  772MOL0     H 6497  10.556  10.621   2.102 -0.2240 -0.5299 -1.1412
  772MOL0     H 6498  11.020  10.208   2.076 -0.2313 -0.1602 -0.3493
  772MOL0     H 6499  11.236  10.136   2.167 -1.4256  0.4003 -0.3076
  772MOL0     H 6500  11.492  10.075   2.422 -1.6288 -0.2857  1.6544
  772MOL0     H 6501  11.390  10.046   2.280 -0.8570  0.9082 -1.2384
  772MOL0     H 6502  11.581  10.203   2.252  1.0427 -3.5594  2.2041
  772MOL0     H 6503  11.422  10.280   2.217  0.6350  1.6442  0.1235
  772MOL0     H 6504  11.452  10.344   2.483 -1.0551  0.6456 -2.5860
  772MOL0     H 6505  11.540  10.440   2.365  1.7567 -1.3362 -2.9940
  772MOL0     H 6506  11.744  10.290   2.376 -0.0174  1.6323 -0.0169
  772MOL0     H 6507  11.668  10.194   2.504  0.4070 -0.0823 -1.5380
  772MOL0     H 6508  11.769  10.488   2.534  0.0321 -0.2163 -0.8668
  772MOL0     H 6509  11.661  10.421   2.645  1.2229  2.4515 -1.4433
  772MOL0     H 6510  11.816  10.271   2.719 -1.7264  0.6492 -0.0581
  772MOL0     H 6511  11.898  10.426   2.694 -1.0730  1.0919 -0.8361
  772MOL0     H 6512  11.905  10.207   2.486  0.8330 -0.0003 -0.4299
  772MOL0     H 6513  11.998  10.187   2.641 -0.2334 -0.0125  1.5716
  772MOL0     H 6514  12.126  10.397   2.576 -0.6853  2.7041 -1.4766
  772MOL0     H 6515  12.002  10.432   2.457  0.5963  0.6083 -0.5701
  772MOL0     H 6516  11.118  10.302   2.549 -0.7489  1.9081  0.3671
  772MOL0     H 6517  10.909  10.368   2.464 -1.8856  0.5763 -2.0393
  772MOL0     H 6518  10.526  10.064   2.158  1.1359 -0.6728 -2.5371
  772MOL0     H 6519  10.298  10.100   2.094  0.3936 -0.2276 -1.0140
  772MOL0     H 6520   8.269  10.880   1.961 -0.4829 -2.9355 -0.2048
  772MOL0     H 6521   8.041  10.874   1.998  2.2105  2.1355 -1.5339
  772MOL0     H 6522   7.720  10.744   2.246  1.1869  0.8918 -1.5442
  772MOL0     H 6523   7.478  10.682   2.289  1.4416  0.2746  0.0409
  772MOL0     H 6524   7.266  10.637   2.266 -0.0125  2.1515  1.3100
  772MOL0     H 6525   7.110  10.702   2.236 -0.3268 -1.1587 -2.7762
  772MOL0     H 6526   7.326  10.684   2.026 -1.1008 -0.6989 -2.6748
  772MOL0     H 6527   7.167  10.720   1.986 -1.4033 -0.3464 -0.1625
  772MOL0     H 6528   7.198  10.453   2.118 -2.0475 -2.3549 -0.1160
  772MOL0     H 6529   7.068  10.514   2.037  0.6197 -0.5503  2.7312
  772MOL0     H 6530   7.226  10.342   1.926  3.0533 -0.1883 -0.6701
  772MOL0     H 6531   7.353  10.455   1.913  0.2533 -1.3680 -0.3936
  772MOL0     H 6532   7.074  10.564   1.603  0.4851 -0.9256 -0.9114
  772MOL0     H 6533   7.358  11.062   2.141  3.3533  2.4685 -2.3991
  772MOL0     H 6534   7.652  11.221   2.117 -1.2294 -0.5571  2.2367
  772MOL0     H 6535   7.628  11.125   1.965  0.0560 -1.5563  0.6590
  772MOL0     H 6536   7.492  11.201   2.040 -1.6260 -1.5751  1.6326
  773MOL0     O 6537   9.224  10.266   7.026 -0.2785 -0.7507  0.4958
  773MOL0     C 6538   9.168  10.170   7.071  0.8283  1.2491  0.8350
  773MOL0     O 6539   9.234  10.066   7.132  0.4349  0.1561 -0.3495
  773MOL0     C 6540   9.367  10.042   7.113  0.4143 -0.0174  0.1091
  773MOL0     C 6541   9.436   9.975   7.217  0.4183 -0.5473 -0.2769
  773MOL0     C 6542   9.572   9.939   7.191  0.3479  0.3455 -1.1583
  773MOL0     C 6543   9.641   9.968   7.076 -0.4176 -0.7677  0.6454
  773MOL0     O 6544   9.770   9.927   7.065  0.4754 -0.1532  0.7778
  773MOL0     C 6545   9.848   9.995   6.960 -0.0266 -0.1620 -0.5826
  773MOL0     C 6546   9.989   9.993   7.003  0.1888  0.5609  0.0470
  773MOL0     C 6547  10.082  10.037   6.901 -0.0580 -0.0742 -0.0526
  773MOL0     C 6548  10.209  10.106   6.971  0.5659 -0.6890 -0.1671
  773MOL0     C 6549  10.319  10.108   6.859 -0.5305  0.7883  0.1299
  773MOL0     C 6550  10.396   9.985   6.852  0.1296  0.6326 -0.1815
  773MOL0     C 6551  10.519   9.990   6.745 -0.8111  0.4830 -0.6769
  773MOL0     C 6552  10.476  10.057   6.614 -1.4458  1.3691  0.3126
  773MOL0     N 6553  10.578  10.041   6.509  1.1164 -0.0867  0.1420
  773MOL0     C 6554  10.559   9.950   6.404 -0.6932 -0.0072  0.1148
  773MOL0     C 6555  10.663   9.985   6.325  0.2496 -0.0198 -0.7231
  773MOL0     C 6556  10.704   9.909   6.206  0.1968  1.1998  0.3737
  773MOL0     C 6557  10.757   9.766   6.242  0.3016  0.2733 -0.2138
  773MOL0     C 6558  10.911   9.753   6.234 -0.0915  0.0449  0.1667
  773MOL0     C 6559  10.976   9.766   6.099  0.0570 -0.2058 -0.0123
  773MOL0     O 6560  11.085   9.672   6.071 -0.1355 -0.4908 -1.3401
  773MOL0     C 6561  11.203   9.696   6.142 -0.0319  0.0444  0.1616
  773MOL0     C 6562  11.251   9.601   6.232  0.3278 -0.3790 -0.0214
  773MOL0     C 6563  11.366   9.614   6.311 -0.2006 -0.7925 -0.8585
  773MOL0     C 6564  11.410   9.490   6.386 -0.1307 -0.2442 -0.0306
  773MOL0     C 6565  11.438   9.741   6.294  0.6997 -0.3274 -0.6487
  773MOL0     C 6566  11.553   9.772   6.376 -0.0797 -0.3672  0.4144
  773MOL0     O 6567  11.579   9.903   6.367 -0.1095  0.0922 -0.3948
  773MOL0     C 6568  11.692   9.956   6.427  0.2074 -0.3267  0.8882
  773MOL0     C 6569  11.691  10.010   6.550  0.2534 -0.4106 -0.7760
  773MOL0     C 6570  11.799  10.098   6.590  0.9471 -0.4970  0.1348
  773MOL0     C 6571  11.911  10.112   6.511  0.5967  0.1829 -0.5793
  773MOL0     O 6572  12.003  10.191   6.565  0.1270 -0.8121  0.2202
  773MOL0     C 6573  12.141  10.166   6.533 -0.3806 -0.2538  0.2640
  773MOL0     C 6574  12.237  10.207   6.650 -1.2196  0.5633 -0.2589
  773MOL0     C 6575  12.228  10.362   6.671  0.2291  0.2638 -1.0858
  773MOL0     C 6576  12.350  10.404   6.747  0.0804 -0.3424 -0.1232
  773MOL0     C 6577  12.381  10.553   6.747  1.3511 -0.1632  0.7346
  773MOL0     C 6578  12.460  10.602   6.620  0.8481 -0.5416  0.6776
  773MOL0     C 6579  12.387  10.603   6.485  0.4422 -0.0847 -0.2794
  773MOL0     C 6580  12.465  10.700   6.386  1.4728 -0.4017  0.4904
  773MOL0    Cl 6581  12.638  10.651   6.340  0.0266 -0.1211  0.0069
  773MOL0     C 6582  11.917  10.046   6.397 -1.0778  0.5426  0.2421
  773MOL0     C 6583  11.809   9.970   6.353 -0.3360  0.1699  0.2113
  773MOL0     O 6584  11.623   9.695   6.442  0.0071  1.0084 -0.2141
  773MOL0     C 6585  11.388   9.841   6.205  0.0836 -0.8960  0.9531
  773MOL0     C 6586  11.267   9.819   6.143 -0.3561 -0.6969  0.6134
  773MOL0     N 6587  10.739  10.084   6.377 -0.1618 -0.0923 -0.2126
  773MOL0     N 6588  10.684  10.122   6.489  1.1106  0.4783  0.7533
  773MOL0     C 6589   9.577  10.040   6.981  0.1816  0.2632  0.0770
  773MOL0     C 6590   9.444  10.078   6.999  0.6455  0.3158  0.9042
  773MOL0     C 6591   9.021  10.168   7.045  0.6522  0.2947 -0.1449
  773MOL0     C 6592   8.961  10.264   6.958 -0.3897  0.2283 -0.2307
  773MOL0     C 6593   8.818  10.272   6.947  0.0736  0.0868  0.5474
  773MOL0     C 6594   8.736  10.176   7.006 -0.0355 -0.4596 -0.5856
  773MOL0     O 6595   8.596  10.190   6.979 -0.3932  0.4752  0.1659
  773MOL0     C 6596   8.496  10.118   7.057  0.5774  0.5036 -1.1771
  773MOL0     C 6597   8.489   9.974   7.027  0.6462 -0.3447 -0.2357
  773MOL0     C 6598   8.501   9.955   6.873  0.1483  0.1752 -0.3465
  773MOL0     C 6599   8.473   9.808   6.835  0.6622 -0.0327  0.0558
  773MOL0     C 6600   8.499   9.775   6.692  0.2388  0.7692  0.9106
  773MOL0     C 6601   8.530   9.754   6.578  0.4601  1.0086 -0.0554
  773MOL0     C 6602   8.793  10.079   7.091  0.5533  0.0645  1.1931
  773MOL0     C 6603   8.929  10.080   7.115 -0.0280  0.0511  0.5553
  773MOL0     C 6604   8.979   9.977   7.213  0.0554  0.4625 -0.1339
  773MOL0     H 6605   9.386   9.955   7.312 -1.0632 -0.3180 -0.9829
  773MOL0     H 6606   9.629   9.892   7.271 -1.3835  1.1817  0.6367
  773MOL0     H 6607   9.819  10.099   6.943  1.7929  0.3232 -0.8764
  773MOL0     H 6608   9.844   9.938   6.867  0.9530 -2.3685  0.6507
  773MOL0     H 6609   9.991  10.055   7.093  0.1030 -0.7856  1.0175
  773MOL0     H 6610  10.004   9.890   7.037 -0.6881  0.1288 -0.8224
  773MOL0     H 6611  10.109   9.948   6.843 -1.3042  0.9477 -2.3168
  773MOL0     H 6612  10.032  10.107   6.835 -0.8767  0.7667  1.4103
  773MOL0     H 6613  10.193  10.207   7.007 -0.0582 -0.6982 -0.4074
  773MOL0     H 6614  10.241  10.044   7.056  0.2723 -2.5432 -1.3492
  773MOL0     H 6615  10.388  10.193   6.858  1.5928 -0.8678  0.1095
  773MOL0     H 6616  10.276  10.111   6.758  3.1560 -0.1207 -1.6383
  773MOL0     H 6617  10.434   9.961   6.952 -0.7852  1.2966  0.3372
  773MOL0     H 6618  10.332   9.901   6.824  0.6699 -0.1632  0.9124
  773MOL0     H 6619  10.553   9.888   6.726 -2.0328  0.3218 -2.3375
  773MOL0     H 6620  10.596  10.055   6.785 -1.1301  0.7144 -0.4425
  773MOL0     H 6621  10.384  10.008   6.579  0.3887 -0.0963 -2.9505
  773MOL0     H 6622  10.462  10.165   6.623 -1.6450  1.4169 -0.4853
  773MOL0     H 6623  10.476   9.884   6.382 -0.2079 -0.0910 -1.6111
  773MOL0     H 6624  10.783   9.964   6.155  2.0387 -0.5683  1.1822
  773MOL0     H 6625  10.619   9.895   6.139 -1.3338 -1.2418  2.6218
  773MOL0     H 6626  10.735   9.753   6.349  1.9563  0.6556  0.2007
  773MOL0     H 6627  10.700   9.697   6.180  1.8894 -0.7896 -0.5655
  773MOL0     H 6628  10.943   9.825   6.310 -1.8612  0.2995  0.7133
  773MOL0     H 6629  10.935   9.652   6.270  0.1948  0.2145  0.4593
  773MOL0     H 6630  10.890   9.743   6.036  1.5629 -3.1266 -1.1916
  773MOL0     H 6631  10.992   9.868   6.062 -0.3781  0.2042  0.9055
  773MOL0     H 6632  11.201   9.505   6.229  1.7283 -1.2048  1.5607
  773MOL0     H 6633  11.504   9.454   6.343  0.0303 -0.3591  0.4125
  773MOL0     H 6634  11.338   9.409   6.378 -2.0357  1.4820 -1.5802
  773MOL0     H 6635  11.425   9.517   6.491  1.6999  6.2085 -1.4945
  773MOL0     H 6636  11.610   9.982   6.616  0.5947  2.1726  0.8886
  773MOL0     H 6637  11.804  10.142   6.689 -1.9080 -2.8697  1.4859
  773MOL0     H 6638  12.159  10.060   6.518 -3.9767 -0.9424  0.0258
  773MOL0     H 6639  12.167  10.211   6.437  0.7965 -1.6696 -0.1124
  773MOL0     H 6640  12.203  10.156   6.741 -4.7336 -0.6919 -2.0800
  773MOL0     H 6641  12.339  10.174   6.627 -1.5868  0.0747 -1.2453
  773MOL0     H 6642  12.136  10.383   6.726 -1.0377  0.3986 -3.1619
  773MOL0     H 6643  12.218  10.413   6.574 -1.0636 -0.8224 -1.5546
  773MOL0     H 6644  12.436  10.351   6.705 -0.8329 -0.7533 -1.5032
  773MOL0     H 6645  12.346  10.380   6.854 -0.6905  2.2211  0.5050
  773MOL0     H 6646  12.288  10.609   6.756  1.1390 -0.4839  0.5759
  773MOL0     H 6647  12.429  10.577   6.842  0.9533 -0.1160  0.9240
  773MOL0     H 6648  12.546  10.536   6.604  1.1118  0.2304 -1.4634
  773MOL0     H 6649  12.512  10.695   6.647  0.9013 -0.6791  1.0530
  773MOL0     H 6650  12.281  10.628   6.484 -0.7376 -4.3103 -0.2048
  773MOL0     H 6651  12.382  10.503   6.442  0.8712 -1.2761  2.2117
  773MOL0     H 6652  12.488  10.789   6.445  1.3243  0.7926 -1.1933
  773MOL0     H 6653  12.404  10.713   6.296  0.2574 -4.9592  0.3835
  773MOL0     H 6654  12.012  10.052   6.344 -1.2939  1.2259 -0.0824
  773MOL0     H 6655  11.814   9.937   6.249  1.1626  2.6303 -0.5750
  773MOL0     H 6656  11.434   9.939   6.196  0.6422 -1.2723 -0.5472
  773MOL0     H 6657  11.235   9.894   6.071  2.8008  1.8007  1.5360
  773MOL0     H 6658   9.620  10.062   6.883 -1.5449 -0.3541 -0.8701
  773MOL0     H 6659   9.396  10.122   6.912  1.5366  1.5380  1.0054
  773MOL0     H 6660   9.016  10.336   6.898 -0.4310 -0.9545 -1.7407
  773MOL0     H 6661   8.776  10.352   6.887 -1.2930  0.0369  1.4176
  773MOL0     H 6662   8.504  10.133   7.165 -2.2708 -0.2820 -0.7773
  773MOL0     H 6663   8.401  10.163   7.028 -1.0259 -1.5837  0.5377
  773MOL0     H 6664   8.389   9.942   7.057  0.3132  1.5221  0.8288
  773MOL0     H 6665   8.556   9.913   7.088 -0.3331  2.0912  3.6358
  773MOL0     H 6666   8.426  10.022   6.832  1.1001  1.5921  0.1670
  773MOL0     H 6667   8.605   9.983   6.852  0.1634  1.3302  1.1220
  773MOL0     H 6668   8.369   9.784   6.858  0.7774 -0.3640  0.2360
  773MOL0     H 6669   8.532   9.748   6.905 -1.0022 -2.5115 -0.5416
  773MOL0     H 6670   8.563   9.733   6.478  0.2902 -0.1689  0.1151
  773MOL0     H 6671   8.730  10.008   7.143 -1.4140  1.0918  0.3508
  773MOL0     H 6672   9.023  10.038   7.292  0.4227  1.2902 -0.9588
  773MOL0     H 6673   8.898   9.923   7.262  0.1887  1.9819  1.8812
  773MOL0     H 6674   9.053   9.915   7.160 -0.5468 -0.2535 -0.1615
  774MOL0     O 6675   8.905   3.972   1.514  0.6268  0.2571 -0.0447
  774MOL0     C 6676   8.884   3.871   1.442  0.2052  0.1869 -0.2225
  774MOL0     O 6677   8.985   3.785   1.396  0.0152  0.4488 -0.1001
  774MOL0     C 6678   9.107   3.814   1.443  1.0735 -0.0456 -1.3471
  774MOL0     C 6679   9.134   3.775   1.579 -0.8728  0.4782  1.2114
  774MOL0     C 6680   9.261   3.792   1.633  0.1797 -0.1947 -0.2331
  774MOL0     C 6681   9.371   3.841   1.556 -0.4594  0.4122 -0.3403
  774MOL0     O 6682   9.493   3.858   1.617  0.1173  0.4565 -0.2487
  774MOL0     C 6683   9.589   3.939   1.546  0.6284 -0.0540  0.2367
  774MOL0     C 6684   9.717   3.960   1.630 -0.1784 -0.3832 -0.2285
  774MOL0     C 6685   9.838   3.959   1.534  0.9428 -0.0148 -0.5747
  774MOL0     C 6686   9.959   3.999   1.615  0.0313  0.5214  1.0589
  774MOL0     C 6687  10.089   4.004   1.526 -0.1170 -0.5866 -0.7002
  774MOL0     C 6688  10.216   4.031   1.614  0.4395 -0.3112  0.4894
  774MOL0     C 6689  10.340   4.047   1.522 -0.2061 -0.3274 -0.0517
  774MOL0     C 6690  10.364   4.193   1.472 -0.2804 -1.1858 -0.8308
  774MOL0     N 6691  10.481   4.193   1.381  1.0422 -0.2732 -0.3842
  774MOL0     C 6692  10.470   4.152   1.247 -0.2154  0.5381  0.4280
  774MOL0     C 6693  10.600   4.173   1.201  0.3056  0.1669  0.3805
  774MOL0     C 6694  10.629   4.169   1.051  0.5846 -0.1325  0.1213
  774MOL0     C 6695  10.774   4.186   1.003 -0.7944 -0.4450 -0.0675
  774MOL0     C 6696  10.831   4.326   1.043 -0.6973  0.3144  0.6787
  774MOL0     C 6697  10.981   4.341   1.007  0.2814  0.0791  1.0892
  774MOL0     O 6698  11.061   4.226   1.020 -0.0567 -0.1731 -0.1347
  774MOL0     C 6699  11.193   4.235   0.979 -0.3093 -0.2041 -0.2824
  774MOL0     C 6700  11.260   4.349   0.921  0.3302 -0.2124  0.0146
  774MOL0     C 6701  11.401   4.341   0.885  0.5587  0.2841 -0.6954
  774MOL0     C 6702  11.459   4.470   0.834 -0.8531 -0.5568  0.3726
  774MOL0     C 6703  11.473   4.219   0.886  0.1901  0.1306  1.1605
  774MOL0     C 6704  11.613   4.196   0.837  0.0353 -1.0562  0.0689
  774MOL0     O 6705  11.640   4.074   0.779  0.6511  0.6477 -0.3718
  774MOL0     C 6706  11.758   4.053   0.718 -0.1034  0.0321  0.3509
  774MOL0     C 6707  11.767   4.080   0.578  0.2379  0.1288 -0.1304
  774MOL0     C 6708  11.889   4.077   0.508 -0.0558 -0.5787  0.4535
  774MOL0     C 6709  12.005   4.024   0.574  0.5092  0.0228 -0.3955
  774MOL0     O 6710  12.131   4.017   0.518  0.9506  0.0219  0.0104
  774MOL0     C 6711  12.128   4.000   0.377  0.6271 -0.3331  0.0318
  774MOL0     C 6712  12.261   3.937   0.329 -0.6212 -0.1439  1.2972
  774MOL0     C 6713  12.293   3.803   0.400 -0.2277  0.4668  0.0420
  774MOL0     C 6714  12.423   3.732   0.340  0.1489  0.0371  0.5129
  774MOL0     C 6715  12.468   3.612   0.417 -0.3898 -0.8752 -0.3776
  774MOL0     C 6716  12.621   3.588   0.397  0.0264  0.2585 -0.0161
  774MOL0     C 6717  12.666   3.466   0.480 -0.5503 -0.1200  0.2733
  774MOL0     C 6718  12.792   3.380   0.425 -0.0590 -0.3154  0.3792
  774MOL0    Cl 6719  12.861   3.276   0.549  0.4637  0.0558 -0.1997
  774MOL0     C 6720  11.999   4.005   0.712 -0.1657 -0.6613 -0.1629
  774MOL0     C 6721  11.877   4.013   0.779  0.5977 -1.2863 -0.1193
  774MOL0     O 6722  11.694   4.285   0.846 -0.4638 -0.0533  0.6484
  774MOL0     C 6723  11.405   4.104   0.934  0.5856 -0.4408 -0.4114
  774MOL0     C 6724  11.272   4.118   0.991  0.2153  0.2695  0.0969
  774MOL0     N 6725  10.672   4.219   1.303  0.2674  0.4439  0.0407
  774MOL0     N 6726  10.607   4.218   1.410 -0.7895 -0.1244 -0.0719
  774MOL0     C 6727   9.333   3.881   1.419  0.4252  0.3036  0.0348
  774MOL0     C 6728   9.206   3.877   1.361  0.2980  0.2201  0.7183
  774MOL0     C 6729   8.742   3.846   1.399  0.6309  0.8658  0.2510
  774MOL0     C 6730   8.638   3.873   1.491  0.3553 -1.0651  0.2121
  774MOL0     C 6731   8.502   3.826   1.477 -0.4724 -0.2176  0.0201
  774MOL0     C 6732   8.468   3.756   1.364 -0.4377  0.1169  0.2422
  774MOL0     O 6733   8.345   3.698   1.349  0.4151  0.2411 -0.3152
  774MOL0     C 6734   8.298   3.605   1.449 -0.0586 -0.2472 -0.4489
  774MOL0     C 6735   8.390   3.477   1.456 -0.3112  0.2116 -0.2703
  774MOL0     C 6736   8.376   3.385   1.588  0.3801 -0.1693 -0.5546
  774MOL0     C 6737   8.368   3.245   1.545 -0.2222  0.7110  0.1945
  774MOL0     C 6738   8.246   3.200   1.474  0.1764 -0.3836 -0.0603
  774MOL0     C 6739   8.154   3.179   1.400  0.4276 -0.5780  0.6205
  774MOL0     C 6740   8.563   3.741   1.265 -0.5308 -0.9791  0.2134
  774MOL0     C 6741   8.700   3.780   1.280 -0.2555  1.4303 -0.0959
  774MOL0     C 6742   8.789   3.738   1.173 -0.1755 -0.3325 -0.2421
  774MOL0     H 6743   9.052   3.732   1.634  0.9383 -1.4440  2.5625
  774MOL0     H 6744   9.279   3.765   1.737  1.9493 -1.6058 -0.8575
  774MOL0     H 6745   9.532   4.031   1.533  1.8743  0.4079 -2.8425
  774MOL0     H 6746   9.604   3.891   1.448  1.2841 -0.1365  0.3713
  774MOL0     H 6747   9.702   4.060   1.673  0.7654  1.0077 -2.8803
  774MOL0     H 6748   9.728   3.877   1.699  0.1507 -0.5071 -0.4287
  774MOL0     H 6749   9.835   3.859   1.490 -0.8838 -0.0907 -0.3575
  774MOL0     H 6750   9.825   4.038   1.461 -0.7951 -0.7663 -1.1353
  774MOL0     H 6751   9.946   4.093   1.669  3.6828  1.3291  0.7330
  774MOL0     H 6752   9.975   3.915   1.683  2.1722 -2.6261 -2.9030
  774MOL0     H 6753  10.072   4.087   1.458  2.2697 -0.1546 -0.8369
  774MOL0     H 6754  10.095   3.910   1.469  1.1847 -2.1602  1.8452
  774MOL0     H 6755  10.211   4.122   1.673  0.7779 -0.1982  0.3419
  774MOL0     H 6756  10.230   3.950   1.686 -3.1171  0.0848  1.8171
  774MOL0     H 6757  10.336   3.979   1.436 -4.6093 -0.1719 -0.2332
  774MOL0     H 6758  10.430   4.008   1.569  0.7028 -1.4499 -2.5751
  774MOL0     H 6759  10.276   4.231   1.419 -1.7256  0.8109  2.6428
  774MOL0     H 6760  10.384   4.254   1.561  0.6560  0.3335 -2.0271
  774MOL0     H 6761  10.388   4.118   1.185  0.1923  2.8909 -1.5743
  774MOL0     H 6762  10.575   4.254   1.010  2.3206 -0.0941 -2.2927
  774MOL0     H 6763  10.583   4.080   1.007  1.2483 -0.4807  0.1209
  774MOL0     H 6764  10.825   4.097   1.041 -1.8453 -1.2004 -0.3717
  774MOL0     H 6765  10.789   4.164   0.896  2.5965  0.9287  0.0009
  774MOL0     H 6766  10.776   4.400   0.984 -1.0981  0.2801  0.9943
  774MOL0     H 6767  10.808   4.339   1.150 -0.1174 -0.5756  0.9185
  774MOL0     H 6768  10.980   4.374   0.903 -0.6452  1.7124  1.5822
  774MOL0     H 6769  11.030   4.424   1.059  1.4965  1.5991 -2.2472
  774MOL0     H 6770  11.216   4.448   0.931  1.4925  0.1258  3.0969
  774MOL0     H 6771  11.499   4.442   0.736 -3.3718 -1.4158 -0.4730
  774MOL0     H 6772  11.544   4.506   0.894 -0.2043  0.0261 -0.8612
  774MOL0     H 6773  11.384   4.549   0.824 -0.5519 -0.1466  1.1501
  774MOL0     H 6774  11.675   4.099   0.525 -0.8308 -0.2580  1.5045
  774MOL0     H 6775  11.892   4.114   0.406  1.5551 -1.0331  0.3031
  774MOL0     H 6776  12.048   3.928   0.357  0.7631 -1.2976  2.6592
  774MOL0     H 6777  12.108   4.094   0.323 -1.9207 -0.7762  0.0705
  774MOL0     H 6778  12.276   3.940   0.221  0.7835  3.0369  1.4510
  774MOL0     H 6779  12.343   4.008   0.346  0.0199 -0.7602  0.8570
  774MOL0     H 6780  12.210   3.738   0.374 -1.5899  1.5618  1.4440
  774MOL0     H 6781  12.295   3.805   0.510 -2.5341  0.1971  0.1324
  774MOL0     H 6782  12.500   3.809   0.325 -1.1374  1.3160  0.2610
  774MOL0     H 6783  12.404   3.696   0.239  1.6988  0.5501  0.0131
  774MOL0     H 6784  12.461   3.642   0.522  0.5352  2.2342 -1.1029
  774MOL0     H 6785  12.408   3.524   0.391  0.1660 -0.9638 -1.4212
  774MOL0     H 6786  12.676   3.677   0.429 -0.3691  0.0219  1.3874
  774MOL0     H 6787  12.644   3.581   0.291  0.1242  1.5707 -0.0923
  774MOL0     H 6788  12.586   3.392   0.488  0.7101 -1.6164 -0.3036
  774MOL0     H 6789  12.687   3.510   0.578 -1.4630 -0.7601  0.7756
  774MOL0     H 6790  12.877   3.444   0.403  1.3638 -1.8107  1.2777
  774MOL0     H 6791  12.764   3.316   0.341 -4.4829 -1.6427  2.5479
  774MOL0     H 6792  12.088   4.000   0.773  0.6358  0.4314 -1.1782
  774MOL0     H 6793  11.864   3.995   0.886  0.6002 -0.8460 -0.0432
  774MOL0     H 6794  11.451   4.005   0.936 -0.7667 -1.0823  0.7219
  774MOL0     H 6795  11.229   4.021   1.016 -0.4541  0.3429 -0.7357
  774MOL0     H 6796   9.404   3.928   1.352  1.5683 -0.0491  0.9764
  774MOL0     H 6797   9.202   3.898   1.255  0.0576 -0.2027  0.6397
  774MOL0     H 6798   8.676   3.908   1.586 -0.7958 -2.0791  1.0893
  774MOL0     H 6799   8.423   3.846   1.548 -1.8869  1.6594 -1.9599
  774MOL0     H 6800   8.287   3.654   1.546  1.1297 -3.3885  1.4426
  774MOL0     H 6801   8.192   3.582   1.434  0.6914 -2.3182 -3.3947
  774MOL0     H 6802   8.494   3.511   1.462 -0.4188  0.5069 -0.0630
  774MOL0     H 6803   8.379   3.421   1.363  2.3703 -0.8191 -0.0639
  774MOL0     H 6804   8.460   3.406   1.655 -0.2871 -0.0904  0.2737
  774MOL0     H 6805   8.276   3.411   1.624  0.0924  1.0502 -2.1440
  774MOL0     H 6806   8.369   3.189   1.639  1.6184  0.4819  0.0727
  774MOL0     H 6807   8.458   3.214   1.491 -0.2522  1.9222 -0.5943
  774MOL0     H 6808   8.072   3.163   1.333  0.2718  0.9623  0.4091
  774MOL0     H 6809   8.529   3.684   1.179  0.6181 -2.4527  0.6872
  774MOL0     H 6810   8.889   3.706   1.202  0.3575  0.8182 -0.7606
  774MOL0     H 6811   8.746   3.656   1.114 -0.4560 -0.8379  0.6435
  774MOL0     H 6812   8.793   3.821   1.102 -1.3233 -0.8802 -0.9686
  775MOL0     O 6813   6.553   9.726   9.569 -0.3416 -0.0780  0.3757
  775MOL0     C 6814   6.541   9.608   9.604 -0.0333 -0.1820  0.3745
  775MOL0     O 6815   6.608   9.551   9.698  0.0177  0.7368 -0.0542
  775MOL0     C 6816   6.728   9.594   9.733 -0.1136  0.0022  1.0716
  775MOL0     C 6817   6.766   9.619   9.866 -0.3757  0.4352 -0.3144
  775MOL0     C 6818   6.890   9.677   9.902 -0.5190 -0.0343 -0.6133
  775MOL0     C 6819   6.975   9.711   9.794 -0.7478  0.7935 -0.7879
  775MOL0     O 6820   7.108   9.750   9.821 -0.1212  0.5834  0.5665
  775MOL0     C 6821   7.195   9.781   9.713 -0.1728  0.0590  0.0460
  775MOL0     C 6822   7.329   9.837   9.751  0.4779  0.1171 -0.2295
  775MOL0     C 6823   7.385   9.750   9.869  0.0907  1.3037 -0.1612
  775MOL0     C 6824   7.536   9.784   9.866 -0.6870  0.3421 -0.6193
  775MOL0     C 6825   7.614   9.700   9.968  0.0097 -0.2623  0.2344
  775MOL0     C 6826   7.757   9.744   9.970 -0.0915  0.1132 -0.0166
  775MOL0     C 6827   7.847   9.702  10.087 -0.9445  0.3766 -0.6905
  775MOL0     C 6828   7.780   9.681  10.229  0.0823 -0.1513  0.7571
  775MOL0     N 6829   7.875   9.682  10.342  0.7698  0.1554 -1.0989
  775MOL0     C 6830   7.975   9.769  10.349 -1.0726 -0.5714  0.2212
  775MOL0     C 6831   8.048   9.738  10.460  0.3737  0.2194  0.1620
  775MOL0     C 6832   8.170   9.809  10.505  0.1832  0.0760  0.1719
  775MOL0     C 6833   8.292   9.781  10.403  0.3537  1.5069 -0.1897
  775MOL0     C 6834   8.406   9.864  10.438  0.5844  0.7297 -0.8700
  775MOL0     C 6835   8.531   9.809  10.353 -0.0472 -0.4000 -0.2885
  775MOL0     O 6836   8.587   9.687  10.412  0.3244 -0.0947 -0.1612
  775MOL0     C 6837   8.652   9.699  10.534  0.2654 -0.1339 -0.1528
  775MOL0     C 6838   8.622   9.616  10.637 -0.5092 -1.2408 -0.0473
  775MOL0     C 6839   8.696   9.625  10.756  0.7070 -0.3060 -0.3480
  775MOL0     C 6840   8.652   9.518  10.857  0.5214 -0.2904  0.1564
  775MOL0     C 6841   8.791   9.724  10.776 -0.5544  0.2401  0.1621
  775MOL0     C 6842   8.868   9.737  10.905  0.2492  0.5923  0.3722
  775MOL0     O 6843   8.875   9.855  10.970 -0.7112 -0.3235  0.5735
  775MOL0     C 6844   8.970   9.861  11.072  0.0468 -0.2716 -0.0255
  775MOL0     C 6845   8.953   9.781  11.182  0.0588 -1.2669  0.6144
  775MOL0     C 6846   9.029   9.789  11.294  0.1923 -1.2053  0.6502
  775MOL0     C 6847   9.148   9.869  11.286  0.0005  0.6739 -0.1683
  775MOL0     O 6848   9.245   9.866  11.383 -0.5641 -0.4859  0.1420
  775MOL0     C 6849   9.200   9.877  11.520  0.3867 -0.1060  0.0429
  775MOL0     C 6850   9.288   9.789  11.603 -0.1661  0.3344  0.4819
  775MOL0     C 6851   9.289   9.829  11.744 -0.6006  0.6583  0.0026
  775MOL0     C 6852   9.389   9.937  11.764  0.1657  0.3358 -0.6492
  775MOL0     C 6853   9.389   9.947  11.917 -0.5452 -0.1715 -0.1114
  775MOL0     C 6854   9.497  10.048  11.971 -0.2448 -0.7227  0.4989
  775MOL0     C 6855   9.492  10.046  12.125  0.6653 -0.3180 -0.3334
  775MOL0     C 6856   9.603  10.119  12.192 -0.7437  0.0610  1.0155
  775MOL0    Cl 6857   9.745  10.003  12.194  0.7022  0.1537  0.4333
  775MOL0     C 6858   9.171   9.942  11.171  0.0766  0.2052 -0.2117
  775MOL0     C 6859   9.079   9.946  11.063  0.1212 -0.0631 -1.0566
  775MOL0     O 6860   8.912   9.629  10.946 -0.0114 -0.3396 -0.0982
  775MOL0     C 6861   8.827   9.808  10.670  0.4664 -0.4894 -0.7316
  775MOL0     C 6862   8.761   9.792  10.549  0.5742 -0.0789 -0.0551
  775MOL0     N 6863   7.983   9.628  10.519 -0.4597  0.3586 -0.5028
  775MOL0     N 6864   7.881   9.592  10.445  0.0028  0.0880  1.4459
  775MOL0     C 6865   6.936   9.687   9.666  0.0345  0.6289 -0.6203
  775MOL0     C 6866   6.817   9.633   9.631  0.0228 -1.0866  0.7244
  775MOL0     C 6867   6.437   9.528   9.545  0.5569 -0.4000 -0.2770
  775MOL0     C 6868   6.330   9.602   9.483 -0.3772 -0.8708  0.1939
  775MOL0     C 6869   6.210   9.532   9.446 -0.0596  0.0252  1.0445
  775MOL0     C 6870   6.199   9.394   9.463 -0.1288 -0.2411  0.3212
  775MOL0     O 6871   6.092   9.321   9.428  0.0725  0.0831 -1.2794
  775MOL0     C 6872   5.973   9.383   9.374  0.2944 -0.5361  0.2541
  775MOL0     C 6873   5.853   9.286   9.369  0.1020  0.9230 -0.3402
  775MOL0     C 6874   5.739   9.337   9.285  0.2539  0.2836 -0.1427
  775MOL0     C 6875   5.623   9.237   9.276 -0.1943 -0.5013 -0.1877
  775MOL0     C 6876   5.568   9.204   9.409 -0.9379  0.6648 -0.2486
  775MOL0     C 6877   5.536   9.166   9.518 -0.6580 -0.4836  0.8070
  775MOL0     C 6878   6.311   9.322   9.515 -0.7775  0.1697  0.1830
  775MOL0     C 6879   6.428   9.388   9.563 -0.3985 -0.6866  0.7710
  775MOL0     C 6880   6.533   9.303   9.632 -0.2898  0.7803 -0.2570
  775MOL0     H 6881   6.692   9.603   9.944 -0.3785 -1.5462 -0.6705
  775MOL0     H 6882   6.913   9.704  10.004  1.2073  1.5024 -1.3421
  775MOL0     H 6883   7.145   9.859   9.655 -0.9650  0.8542  1.7344
  775MOL0     H 6884   7.219   9.695   9.649  0.7309  0.4395 -0.1387
  775MOL0     H 6885   7.393   9.818   9.665  0.5619 -3.5850  0.4868
  775MOL0     H 6886   7.310   9.940   9.784  0.2148 -0.4797  1.5870
  775MOL0     H 6887   7.320   9.779   9.952 -2.1787  1.0857 -1.7697
  775MOL0     H 6888   7.371   9.644   9.844 -0.1747  1.6741 -1.6521
  775MOL0     H 6889   7.578   9.782   9.765 -0.5076  2.1790 -0.6008
  775MOL0     H 6890   7.544   9.890   9.891  1.3344  0.3931 -1.3247
  775MOL0     H 6891   7.608   9.596   9.936 -1.3431 -0.5446  1.3024
  775MOL0     H 6892   7.566   9.719  10.065  0.6433  1.5609  0.2418
  775MOL0     H 6893   7.788   9.730   9.866 -2.1462  0.3960 -0.7266
  775MOL0     H 6894   7.757   9.853   9.984 -1.3997 -0.2887  4.5625
  775MOL0     H 6895   7.929   9.774  10.095 -1.6643  1.1689 -0.2455
  775MOL0     H 6896   7.899   9.611  10.055 -0.4991  0.2533  0.3401
  775MOL0     H 6897   7.705   9.759  10.242  0.6846  0.8538 -1.3530
  775MOL0     H 6898   7.729   9.585  10.221  0.9349 -0.6605  1.2268
  775MOL0     H 6899   7.997   9.852  10.284 -0.1932 -1.2531 -0.3767
  775MOL0     H 6900   8.193   9.781  10.608  0.3607  2.0282  0.7091
  775MOL0     H 6901   8.151   9.917  10.507 -2.1299 -0.2576 -0.9252
  775MOL0     H 6902   8.320   9.676  10.407  0.9792  1.4761 -2.9064
  775MOL0     H 6903   8.263   9.810  10.301 -2.3825 -0.5051 -0.0972
  775MOL0     H 6904   8.377   9.966  10.408 -1.5495  0.6645  0.7396
  775MOL0     H 6905   8.415   9.866  10.547  0.9727 -3.4486 -0.6664
  775MOL0     H 6906   8.501   9.806  10.248 -2.6098 -0.5129  0.3738
  775MOL0     H 6907   8.609   9.885  10.352 -0.9126  0.5438  0.8038
  775MOL0     H 6908   8.534   9.553  10.624 -0.5743 -1.1956  0.1791
  775MOL0     H 6909   8.545   9.496  10.860 -0.1094  2.4305  3.1226
  775MOL0     H 6910   8.671   9.541  10.962  0.1567  2.6876 -0.3259
  775MOL0     H 6911   8.708   9.427  10.837 -0.0355 -0.6888  0.4003
  775MOL0     H 6912   8.865   9.717  11.177 -2.1039  1.4218  1.9851
  775MOL0     H 6913   8.997   9.720  11.371  1.3817 -2.5475  0.0018
  775MOL0     H 6914   9.217   9.978  11.557 -0.0677 -0.5131  1.4035
  775MOL0     H 6915   9.094   9.854  11.538  0.3358 -0.1609 -0.3047
  775MOL0     H 6916   9.246   9.688  11.602  0.9258 -0.2064  3.0064
  775MOL0     H 6917   9.383   9.782  11.550 -0.6097  0.5563 -0.3641
  775MOL0     H 6918   9.319   9.745  11.807  0.4029  2.8699  2.7275
  775MOL0     H 6919   9.193   9.869  11.779  0.6368  0.3535  4.3772
  775MOL0     H 6920   9.361  10.028  11.712 -1.8928 -0.0964 -0.3833
  775MOL0     H 6921   9.487   9.903  11.727 -0.2213 -1.1064 -0.4215
  775MOL0     H 6922   9.292   9.989  11.948 -0.7355 -1.0578  0.5153
  775MOL0     H 6923   9.419   9.848  11.952  0.3470  0.0475 -0.2299
  775MOL0     H 6924   9.468  10.147  11.934  1.4626 -0.4532 -0.2402
  775MOL0     H 6925   9.597  10.017  11.941  0.2159 -0.1922  1.4505
  775MOL0     H 6926   9.494   9.946  12.167 -0.6286 -1.5217 -2.9006
  775MOL0     H 6927   9.396  10.085  12.161  0.6219  0.1697 -0.9491
  775MOL0     H 6928   9.567  10.162  12.286  0.9356  3.1929  0.3697
  775MOL0     H 6929   9.635  10.196  12.121  1.5856  0.7378  2.6517
  775MOL0     H 6930   9.266   9.995  11.168  0.4329 -0.2015  2.0003
  775MOL0     H 6931   9.091  10.018  10.983  1.4931  0.6836 -0.2092
  775MOL0     H 6932   8.901   9.887  10.668  0.1670 -0.2264 -2.3571
  775MOL0     H 6933   8.796   9.859  10.472  2.8106 -0.4455  0.5704
  775MOL0     H 6934   6.996   9.707   9.578 -0.0747  1.2668 -0.5511
  775MOL0     H 6935   6.790   9.613   9.528 -0.8788 -1.5510  1.0406
  775MOL0     H 6936   6.354   9.707   9.466  0.5112 -0.8724  1.3221
  775MOL0     H 6937   6.137   9.593   9.393  0.1156 -0.4737  0.2124
  775MOL0     H 6938   5.937   9.469   9.432 -1.7602 -2.0039  1.3107
  775MOL0     H 6939   5.999   9.411   9.272 -2.9098 -1.1393 -0.8496
  775MOL0     H 6940   5.815   9.270   9.471 -2.5356  0.7862 -1.2742
  775MOL0     H 6941   5.880   9.186   9.335 -3.1030 -0.9768  2.1992
  775MOL0     H 6942   5.696   9.431   9.319 -1.2596  0.0334 -1.2509
  775MOL0     H 6943   5.782   9.362   9.187  1.6370  0.6736  0.5406
  775MOL0     H 6944   5.666   9.144   9.241 -0.1997 -0.5519 -0.0588
  775MOL0     H 6945   5.546   9.279   9.209  1.2660  0.9668 -1.0244
  775MOL0     H 6946   5.510   9.135   9.617 -2.5791  1.0106  0.8283
  775MOL0     H 6947   6.307   9.214   9.520  0.4247  0.1450  1.1387
  775MOL0     H 6948   6.535   9.333   9.737 -0.9091  2.3223 -0.6562
  775MOL0     H 6949   6.516   9.196   9.624  2.5659  0.0248  1.9812
  775MOL0     H 6950   6.628   9.317   9.581  0.4333 -0.0591  0.8141
  776MOL0     O 6951   6.082   1.016   2.785  0.3763 -0.2689  0.3063
  776MOL0     C 6952   6.051   1.079   2.883 -0.8756  0.7563  0.5304
  776MOL0     O 6953   6.131   1.182   2.925  0.0796  0.1281 -0.1146
  776MOL0     C 6954   6.251   1.194   2.861  0.1553  0.2070 -0.4501
  776MOL0     C 6955   6.281   1.294   2.764  0.9905 -0.4144 -0.1445
  776MOL0     C 6956   6.406   1.285   2.704  0.2625 -0.4791 -0.5678
  776MOL0     C 6957   6.498   1.184   2.738  0.5360 -0.1468  0.0712
  776MOL0     O 6958   6.622   1.164   2.688 -0.2028  0.4197 -0.9076
  776MOL0     C 6959   6.662   1.238   2.576  0.1656  0.3874  0.3692
  776MOL0     C 6960   6.801   1.180   2.520 -0.0569  0.3720 -0.0895
  776MOL0     C 6961   6.879   1.284   2.441  0.9478 -0.0422 -0.4148
  776MOL0     C 6962   7.020   1.230   2.420 -0.0535 -0.2283  0.2732
  776MOL0     C 6963   7.021   1.139   2.302 -0.0421  0.6337  0.1129
  776MOL0     C 6964   7.152   1.057   2.298  0.0281  0.2247  0.9478
  776MOL0     C 6965   7.161   0.953   2.180  0.9439  0.9729  0.0348
  776MOL0     C 6966   7.110   1.000   2.039 -0.3161 -0.3323 -0.1618
  776MOL0     N 6967   7.174   0.932   1.931 -1.1398  0.4183  0.2068
  776MOL0     C 6968   7.294   0.971   1.882  0.6692 -0.0506  0.7885
  776MOL0     C 6969   7.313   0.892   1.776 -0.0891 -0.0084 -0.8343
  776MOL0     C 6970   7.426   0.896   1.675 -0.8167 -0.5922 -0.2880
  776MOL0     C 6971   7.555   0.846   1.738  0.3110 -0.0222  0.8255
  776MOL0     C 6972   7.658   0.793   1.622 -0.4959 -0.3287  0.1137
  776MOL0     C 6973   7.788   0.755   1.682 -0.2911  0.9608 -0.8068
  776MOL0     O 6974   7.860   0.866   1.735  0.3729  0.2495  0.3844
  776MOL0     C 6975   8.004   0.853   1.735 -0.0786  0.5145 -0.2561
  776MOL0     C 6976   8.064   0.965   1.781 -0.6578  1.0250 -0.0287
  776MOL0     C 6977   8.205   0.969   1.795 -0.4411  0.0558  0.5083
  776MOL0     C 6978   8.252   1.104   1.852  0.7366  1.0376  0.3231
  776MOL0     C 6979   8.285   0.862   1.752  0.9361 -0.1292  0.4304
  776MOL0     C 6980   8.434   0.857   1.760  0.1910 -0.4747 -1.0014
  776MOL0     O 6981   8.498   0.739   1.757  0.9110 -0.0133  0.1214
  776MOL0     C 6982   8.623   0.732   1.812 -0.1075 -0.5622  0.1263
  776MOL0     C 6983   8.662   0.790   1.942  0.0963  0.0620  0.4647
  776MOL0     C 6984   8.795   0.764   1.983 -0.3223  0.2670 -0.9440
  776MOL0     C 6985   8.879   0.671   1.924  0.1816  0.3469 -0.2868
  776MOL0     O 6986   9.009   0.662   1.977 -0.3086 -0.9245  0.2520
  776MOL0     C 6987   9.067   0.538   2.018  0.3709  0.4091 -0.5291
  776MOL0     C 6988   9.189   0.559   2.109  0.2898 -0.4605 -0.7093
  776MOL0     C 6989   9.300   0.622   2.036 -0.6883  0.1858  0.0686
  776MOL0     C 6990   9.425   0.638   2.129  0.4303  0.1574  0.5724
  776MOL0     C 6991   9.478   0.510   2.201  0.4044  0.0396  0.3409
  776MOL0     C 6992   9.602   0.535   2.293 -0.1189 -0.0943 -0.2396
  776MOL0     C 6993   9.643   0.399   2.349 -0.7200  0.0055  0.2964
  776MOL0     C 6994   9.772   0.404   2.431  0.3339 -0.3063  1.1271
  776MOL0    Cl 6995   9.767   0.536   2.547 -0.0646  0.2868 -0.3927
  776MOL0     C 6996   8.831   0.606   1.815 -0.0330  0.4663 -0.8406
  776MOL0     C 6997   8.711   0.638   1.760 -0.0500 -0.7200  0.1770
  776MOL0     O 6998   8.494   0.960   1.767  0.1343  0.2120  1.1948
  776MOL0     C 6999   8.218   0.749   1.692 -1.1004 -0.8459  0.0044
  776MOL0     C 7000   8.083   0.743   1.690 -0.5447  0.0457  0.2069
  776MOL0     N 7001   7.208   0.807   1.769 -0.7269 -0.4889  0.1935
  776MOL0     N 7002   7.122   0.832   1.866  0.1511 -0.6072 -0.0943
  776MOL0     C 7003   6.464   1.092   2.833 -0.1359  0.0050  0.6999
  776MOL0     C 7004   6.340   1.091   2.893 -0.7495 -0.2206  0.0106
  776MOL0     C 7005   5.908   1.073   2.931  0.0493  0.3022 -0.1669
  776MOL0     C 7006   5.843   1.186   2.981 -0.6811 -0.5952  0.1595
  776MOL0     C 7007   5.711   1.179   3.020 -0.5911 -0.2275 -0.1958
  776MOL0     C 7008   5.642   1.058   3.032 -0.2378 -0.6432 -0.4828
  776MOL0     O 7009   5.512   1.047   3.075 -0.3132  0.6671 -0.0735
  776MOL0     C 7010   5.507   1.058   3.218 -0.2771  0.5411  0.5099
  776MOL0     C 7011   5.355   1.093   3.243 -0.0530 -0.4412 -0.3580
  776MOL0     C 7012   5.337   1.090   3.398  0.9737 -0.2716 -0.0154
  776MOL0     C 7013   5.202   1.148   3.449 -0.2646 -0.7032  0.1019
  776MOL0     C 7014   5.090   1.087   3.382 -0.0028 -0.4389  0.4659
  776MOL0     C 7015   5.003   1.024   3.333  0.2597 -0.6035 -0.0667
  776MOL0     C 7016   5.700   0.945   2.980  0.0383  0.0909  0.0315
  776MOL0     C 7017   5.833   0.952   2.927  0.2111  1.0970  0.2301
  776MOL0     C 7018   5.882   0.819   2.869  0.1773  0.1817 -0.4083
  776MOL0     H 7019   6.208   1.362   2.721  2.2241 -0.1012 -1.8691
  776MOL0     H 7020   6.415   1.362   2.628 -1.5294  1.8355  1.3784
  776MOL0     H 7021   6.677   1.344   2.600 -1.2087  0.8552 -0.7472
  776MOL0     H 7022   6.586   1.215   2.501 -1.0326 -1.5075  2.0596
  776MOL0     H 7023   6.863   1.162   2.608 -0.5395  4.2135  1.2285
  776MOL0     H 7024   6.786   1.082   2.473 -0.4288  0.6358 -0.5305
  776MOL0     H 7025   6.823   1.287   2.346 -0.8675 -1.1331  0.5626
  776MOL0     H 7026   6.877   1.384   2.485 -2.3776  0.1121 -0.6570
  776MOL0     H 7027   7.093   1.312   2.412  1.2791 -1.5040 -1.6513
  776MOL0     H 7028   7.052   1.169   2.504 -2.5152 -1.7696  0.1779
  776MOL0     H 7029   7.001   1.196   2.211 -1.0243 -0.5539 -0.4368
  776MOL0     H 7030   6.938   1.069   2.314  1.0956 -0.8864 -0.5695
  776MOL0     H 7031   7.235   1.123   2.274  0.6444 -0.4436  1.2003
  776MOL0     H 7032   7.173   0.997   2.388 -0.3787  0.6995  1.3656
  776MOL0     H 7033   7.113   0.858   2.205 -2.9475  2.6614 -0.3974
  776MOL0     H 7034   7.266   0.923   2.169  0.8358 -0.0529  1.4549
  776MOL0     H 7035   7.002   0.985   2.029 -0.4518 -0.0680  0.8037
  776MOL0     H 7036   7.128   1.107   2.023 -0.5770 -0.3848 -0.8626
  776MOL0     H 7037   7.352   1.057   1.913 -1.3064  2.1161 -1.1924
  776MOL0     H 7038   7.443   0.992   1.627  3.8392 -2.1379 -2.3194
  776MOL0     H 7039   7.401   0.824   1.597  0.7751 -1.7938  0.2580
  776MOL0     H 7040   7.597   0.928   1.796  3.1730 -1.8406  1.5209
  776MOL0     H 7041   7.525   0.773   1.815 -1.1811  0.8357  1.0979
  776MOL0     H 7042   7.612   0.712   1.564 -0.0997 -1.2460  1.0493
  776MOL0     H 7043   7.683   0.877   1.556 -0.4836  1.1436  1.9105
  776MOL0     H 7044   7.764   0.689   1.767 -2.3778  0.7907 -1.4859
  776MOL0     H 7045   7.845   0.698   1.609  0.8039 -2.6389  2.4830
  776MOL0     H 7046   8.001   1.052   1.796  1.1236  2.2148  0.9311
  776MOL0     H 7047   8.283   1.171   1.771  0.7207 -0.3339 -0.8362
  776MOL0     H 7048   8.337   1.072   1.913  0.5298 -2.5898 -1.0839
  776MOL0     H 7049   8.176   1.153   1.915 -0.8264 -1.4983  0.5413
  776MOL0     H 7050   8.591   0.847   2.000 -0.7444 -1.6411  1.1841
  776MOL0     H 7051   8.820   0.823   2.071 -0.7993 -1.0306  0.0959
  776MOL0     H 7052   8.990   0.482   2.072  1.3080 -1.7523 -1.3003
  776MOL0     H 7053   9.088   0.482   1.926  1.5301  0.6523 -0.4363
  776MOL0     H 7054   9.156   0.606   2.203  0.2980 -1.8300  0.0138
  776MOL0     H 7055   9.227   0.461   2.138  0.0379 -0.3224  0.1340
  776MOL0     H 7056   9.274   0.721   1.997 -3.1624 -0.7561 -0.8495
  776MOL0     H 7057   9.332   0.554   1.956  2.2529  0.5952  0.7649
  776MOL0     H 7058   9.404   0.711   2.207 -0.4132  0.3971  0.1325
  776MOL0     H 7059   9.507   0.676   2.069 -0.7782  0.5856 -0.8827
  776MOL0     H 7060   9.394   0.471   2.259 -0.5346 -1.4991 -1.9291
  776MOL0     H 7061   9.498   0.424   2.137 -2.6495 -3.3877  3.4807
  776MOL0     H 7062   9.583   0.596   2.381  0.9542 -0.4084  0.2252
  776MOL0     H 7063   9.681   0.579   2.231 -1.2504  0.1756 -1.5264
  776MOL0     H 7064   9.666   0.329   2.268 -2.1216 -1.0968  0.8277
  776MOL0     H 7065   9.561   0.361   2.409  0.8112  0.5957  2.9515
  776MOL0     H 7066   9.857   0.442   2.373 -1.1661 -0.0143 -1.0285
  776MOL0     H 7067   9.807   0.312   2.478  0.7323 -0.2603  0.9262
  776MOL0     H 7068   8.888   0.522   1.777 -2.7625 -1.7979 -0.2809
  776MOL0     H 7069   8.692   0.591   1.664 -1.1466 -0.8326  0.4374
  776MOL0     H 7070   8.267   0.669   1.637 -0.1414 -0.4082  0.2090
  776MOL0     H 7071   8.032   0.657   1.647 -1.4703  1.3146 -1.3186
  776MOL0     H 7072   6.534   1.020   2.876  2.3294  0.8584 -1.6211
  776MOL0     H 7073   6.331   1.005   2.958  0.8549 -0.1344  0.3783
  776MOL0     H 7074   5.882   1.286   2.966 -1.8719 -0.0891  0.3200
  776MOL0     H 7075   5.653   1.266   3.049 -0.0565  2.2043 -5.2765
  776MOL0     H 7076   5.545   0.971   3.272 -0.0601 -0.6469 -1.4538
  776MOL0     H 7077   5.573   1.140   3.251 -3.3170  2.9463  1.0700
  776MOL0     H 7078   5.291   1.017   3.198  0.7311 -0.1765 -1.9973
  776MOL0     H 7079   5.332   1.192   3.202 -1.0583 -0.7964 -0.6855
  776MOL0     H 7080   5.355   0.988   3.434  1.3216 -0.4337 -0.6462
  776MOL0     H 7081   5.412   1.149   3.451  0.2843  0.7651 -0.1840
  776MOL0     H 7082   5.209   1.256   3.431  1.0807 -0.3992  2.1218
  776MOL0     H 7083   5.191   1.132   3.557 -1.9876 -0.4278 -0.0066
  776MOL0     H 7084   4.922   0.964   3.297  1.4563 -1.6203 -1.1560
  776MOL0     H 7085   5.646   0.851   2.986  0.3389 -0.3099 -2.6144
  776MOL0     H 7086   5.985   0.796   2.899  0.2540  0.8482 -0.1500
  776MOL0     H 7087   5.811   0.738   2.888 -0.3836  0.9566  0.9037
  776MOL0     H 7088   5.885   0.818   2.760  1.4718  0.4722 -0.3980
  777MOL0     O 7089  10.111   6.659   3.439 -0.8043 -0.1548  0.4685
  777MOL0     C 7090  10.023   6.602   3.382 -0.9900 -0.2151  0.9097
  777MOL0     O 7091  10.044   6.510   3.272 -0.6701 -0.6089 -0.2490
  777MOL0     C 7092  10.173   6.493   3.217  0.3074 -0.3960  0.9023
  777MOL0     C 7093  10.206   6.360   3.170 -0.5996  1.2406 -0.4937
  777MOL0     C 7094  10.337   6.329   3.122  0.4809  0.8808  0.8941
  777MOL0     C 7095  10.433   6.436   3.115 -0.8800  0.3971  0.6957
  777MOL0     O 7096  10.568   6.425   3.065  0.1774 -0.5249 -0.2629
  777MOL0     C 7097  10.596   6.345   2.954  0.6093  0.9286  0.1445
  777MOL0     C 7098  10.714   6.399   2.880 -0.0909 -0.0508  0.2078
  777MOL0     C 7099  10.790   6.282   2.809  0.2832  0.0584 -0.0884
  777MOL0     C 7100  10.942   6.302   2.836  0.4666 -0.3860 -0.7107
  777MOL0     C 7101  11.014   6.167   2.814  0.4355 -0.0350  0.0851
  777MOL0     C 7102  11.164   6.194   2.828  0.2353 -0.3581  0.4759
  777MOL0     C 7103  11.255   6.071   2.813  0.8357  0.0029  0.4700
  777MOL0     C 7104  11.407   6.099   2.815  0.6134 -0.5789  0.4112
  777MOL0     N 7105  11.471   5.986   2.742 -0.1439  0.1800  0.3103
  777MOL0     C 7106  11.497   5.975   2.604  0.5216  0.1960  0.1135
  777MOL0     C 7107  11.579   5.873   2.589 -0.3329  0.6932 -0.1382
  777MOL0     C 7108  11.631   5.828   2.453 -0.1609 -0.1157 -0.1118
  777MOL0     C 7109  11.782   5.839   2.432  0.2063 -0.6805  0.1440
  777MOL0     C 7110  11.823   5.988   2.425 -1.3720 -0.4851  0.5575
  777MOL0     C 7111  11.972   5.997   2.396  0.3352 -0.0193 -0.3670
  777MOL0     O 7112  11.977   5.962   2.253  0.6707 -0.5886  0.4320
  777MOL0     C 7113  12.094   5.937   2.197 -0.2720  0.6829  0.6215
  777MOL0     C 7114  12.094   5.967   2.061  0.2105  0.6462 -0.0725
  777MOL0     C 7115  12.204   5.962   1.980 -0.3204 -0.7437  0.1944
  777MOL0     C 7116  12.177   5.999   1.828 -0.1108  0.1668 -0.1922
  777MOL0     C 7117  12.334   5.942   2.045 -0.0195  0.8332  0.1258
  777MOL0     C 7118  12.463   5.961   1.978  0.3255 -1.0181  0.2035
  777MOL0     O 7119  12.466   6.017   1.847  0.3774 -0.1549  0.1346
  777MOL0     C 7120  12.587   6.010   1.783  0.6955  0.0451  0.0457
  777MOL0     C 7121  12.628   5.884   1.734 -0.3708 -0.4804  0.0271
  777MOL0     C 7122  12.755   5.878   1.677 -0.0283 -0.1946  0.1541
  777MOL0     C 7123  12.840   5.987   1.652  0.3252  0.6893 -0.4809
  777MOL0     O 7124  12.949   5.969   1.574 -0.9051  0.1796  0.0103
  777MOL0     C 7125  12.982   6.079   1.479 -0.2681  0.7910 -0.0260
  777MOL0     C 7126  13.063   6.022   1.366 -0.4174 -0.3936  1.0317
  777MOL0     C 7127  13.056   5.878   1.334 -0.7977  0.0204  0.0455
  777MOL0     C 7128  12.947   5.853   1.233  0.3348 -0.7679  0.4741
  777MOL0     C 7129  12.942   5.709   1.193 -0.6336 -0.6538  0.1202
  777MOL0     C 7130  12.847   5.665   1.082 -0.3734 -0.2624  0.7770
  777MOL0     C 7131  12.849   5.518   1.056 -0.7444 -0.9209  0.5067
  777MOL0     C 7132  12.780   5.483   0.918  0.0078 -0.9760 -0.3570
  777MOL0    Cl 7133  12.802   5.320   0.886 -0.1996 -0.1942 -0.1070
  777MOL0     C 7134  12.799   6.106   1.711 -0.0098 -0.0287  0.2956
  777MOL0     C 7135  12.675   6.121   1.768  0.2451 -0.5104  0.4825
  777MOL0     O 7136  12.566   5.949   2.051  0.4941  0.5942  0.3895
  777MOL0     C 7137  12.332   5.899   2.178 -0.4445 -0.3874 -0.6457
  777MOL0     C 7138  12.212   5.892   2.251 -0.4262 -0.2706 -0.4379
  777MOL0     N 7139  11.600   5.818   2.714  0.2657  0.1544  0.2503
  777MOL0     N 7140  11.535   5.883   2.801  0.0887  0.3842  0.4221
  777MOL0     C 7141  10.394   6.568   3.158 -0.8613  1.0447  0.5681
  777MOL0     C 7142  10.267   6.595   3.197  0.2085  0.1366 -0.3111
  777MOL0     C 7143   9.893   6.626   3.436  0.3545 -0.7037 -0.4076
  777MOL0     C 7144   9.789   6.621   3.339 -0.3771 -0.8263  0.3258
  777MOL0     C 7145   9.659   6.658   3.372  0.2349 -0.0368  0.9734
  777MOL0     C 7146   9.625   6.703   3.497 -0.4582 -0.1460 -0.2636
  777MOL0     O 7147   9.503   6.728   3.545  0.5375 -0.4049  0.3979
  777MOL0     C 7148   9.384   6.704   3.466  0.5008 -0.0677  0.6530
  777MOL0     C 7149   9.356   6.556   3.444  0.4123  0.2318 -0.7645
  777MOL0     C 7150   9.243   6.529   3.346  0.1367 -0.3254 -0.8423
  777MOL0     C 7151   9.215   6.378   3.325  0.2174 -0.6265 -0.3710
  777MOL0     C 7152   9.143   6.352   3.197  1.3938  0.1290  0.2657
  777MOL0     C 7153   9.084   6.324   3.096  0.0560  0.9910  0.6165
  777MOL0     C 7154   9.729   6.703   3.603  0.5297  0.0206  1.8304
  777MOL0     C 7155   9.860   6.664   3.571 -1.4545  0.1685  0.1064
  777MOL0     C 7156   9.958   6.666   3.686  0.5287 -0.3468 -0.4351
  777MOL0     H 7157  10.131   6.282   3.174 -0.2617  0.6599 -3.3658
  777MOL0     H 7158  10.346   6.225   3.092  0.5013  0.9303  0.7285
  777MOL0     H 7159  10.511   6.340   2.884  0.4776 -3.4462  0.3502
  777MOL0     H 7160  10.624   6.246   2.989  1.0777  1.4941  1.4403
  777MOL0     H 7161  10.670   6.461   2.801 -2.3213 -1.7957 -0.0196
  777MOL0     H 7162  10.782   6.452   2.947  0.1563  0.7802 -0.6844
  777MOL0     H 7163  10.755   6.185   2.845  2.3255 -0.3173  1.0729
  777MOL0     H 7164  10.766   6.293   2.703  0.9006  0.9523 -0.1544
  777MOL0     H 7165  10.977   6.375   2.763  3.6047 -1.5108 -0.4934
  777MOL0     H 7166  10.974   6.333   2.937  2.6476 -1.2778 -1.0540
  777MOL0     H 7167  10.992   6.129   2.714 -1.2136  1.3773 -0.1348
  777MOL0     H 7168  10.976   6.093   2.885 -2.0786  1.4305  0.4098
  777MOL0     H 7169  11.190   6.261   2.746  2.8570 -2.1976 -0.3379
  777MOL0     H 7170  11.187   6.249   2.920  1.6207  0.8828 -0.5759
  777MOL0     H 7171  11.236   6.009   2.725 -0.4895  1.3016 -0.2075
  777MOL0     H 7172  11.221   6.010   2.897 -1.4369  2.4046  1.4336
  777MOL0     H 7173  11.426   6.193   2.763 -1.0891 -1.8344 -2.7426
  777MOL0     H 7174  11.447   6.113   2.916  0.8766 -3.9626  0.9007
  777MOL0     H 7175  11.471   6.046   2.527 -2.2872 -1.0847 -0.2612
  777MOL0     H 7176  11.565   5.873   2.378 -0.6252  0.0995  0.4152
  777MOL0     H 7177  11.602   5.723   2.445 -3.7791  0.5348  1.9364
  777MOL0     H 7178  11.843   5.790   2.507  2.9170 -1.6653 -2.4870
  777MOL0     H 7179  11.807   5.793   2.335 -0.9394  1.8184 -1.4450
  777MOL0     H 7180  11.766   6.039   2.347  0.5315 -0.2831 -0.7466
  777MOL0     H 7181  11.803   6.031   2.524 -1.4303  0.0733  0.3041
  777MOL0     H 7182  12.003   6.100   2.415 -1.2668  0.3054  0.6879
  777MOL0     H 7183  12.029   5.922   2.452 -2.5264 -2.4695 -0.4747
  777MOL0     H 7184  12.002   6.007   2.019  0.6702  1.2776 -0.5053
  777MOL0     H 7185  12.098   5.942   1.779  0.2695 -0.9838  0.4940
  777MOL0     H 7186  12.265   5.981   1.766 -0.1629 -0.4735 -0.0863
  777MOL0     H 7187  12.156   6.107   1.825  1.3999  0.5271  0.9237
  777MOL0     H 7188  12.562   5.798   1.731 -2.2397  0.8353  0.9436
  777MOL0     H 7189  12.787   5.784   1.632  4.0039  0.6570  0.7755
  777MOL0     H 7190  12.894   6.131   1.438 -0.0655  1.2036  0.0601
  777MOL0     H 7191  13.047   6.153   1.527  1.5588 -1.5218  1.2247
  777MOL0     H 7192  13.055   6.076   1.271  0.2662 -1.5637  0.2778
  777MOL0     H 7193  13.167   6.050   1.386  0.0904 -0.4084 -1.2512
  777MOL0     H 7194  13.058   5.819   1.426 -0.5071 -1.6949 -1.0097
  777MOL0     H 7195  13.157   5.854   1.299 -1.1633 -1.3740 -0.1181
  777MOL0     H 7196  12.953   5.919   1.146 -0.0482 -2.4290 -0.8523
  777MOL0     H 7197  12.852   5.876   1.283 -0.8302 -2.5214 -0.8243
  777MOL0     H 7198  13.046   5.682   1.175 -0.0152  0.7007  1.4645
  777MOL0     H 7199  12.913   5.654   1.283 -2.8563 -1.9086 -1.2527
  777MOL0     H 7200  12.877   5.709   0.987 -1.4892  0.0883  0.5722
  777MOL0     H 7201  12.748   5.703   1.110  0.2937  0.5778  2.1176
  777MOL0     H 7202  12.808   5.470   1.145  1.6504 -2.4060  0.9130
  777MOL0     H 7203  12.956   5.494   1.050 -0.3056  0.9761 -0.3074
  777MOL0     H 7204  12.814   5.548   0.837  1.9386 -3.4529 -1.6792
  777MOL0     H 7205  12.675   5.511   0.933  0.8262  3.8244 -2.0315
  777MOL0     H 7206  12.854   6.199   1.699 -1.2268  1.0767  2.4627
  777MOL0     H 7207  12.653   6.221   1.806  0.4529 -0.1338 -0.3680
  777MOL0     H 7208  12.426   5.872   2.225  1.1080  0.5472 -3.0160
  777MOL0     H 7209  12.219   5.866   2.356  2.8741 -2.2068 -1.0004
  777MOL0     H 7210  10.463   6.651   3.141  0.5429  0.2218  2.0413
  777MOL0     H 7211  10.240   6.696   3.224 -3.0688 -0.9690  1.1430
  777MOL0     H 7212   9.814   6.580   3.242 -1.6268 -0.3857 -0.2054
  777MOL0     H 7213   9.580   6.648   3.298  1.7051  1.1547 -0.8451
  777MOL0     H 7214   9.304   6.753   3.521  1.7293  2.3827  0.3828
  777MOL0     H 7215   9.383   6.753   3.368 -0.8439  0.5977  0.9931
  777MOL0     H 7216   9.343   6.507   3.541  2.9640  2.8023  1.0291
  777MOL0     H 7217   9.443   6.507   3.399  0.3795  0.5629 -1.1867
  777MOL0     H 7218   9.150   6.577   3.378  0.4310  1.0339 -1.9263
  777MOL0     H 7219   9.268   6.573   3.249 -1.6837  0.0455 -1.1838
  777MOL0     H 7220   9.146   6.337   3.398  2.0363 -1.2140  1.0801
  777MOL0     H 7221   9.310   6.326   3.337 -0.4396 -1.5015  1.3079
  777MOL0     H 7222   9.037   6.289   3.007 -0.8243  1.6634  0.8089
  777MOL0     H 7223   9.699   6.726   3.705  0.7336 -2.6483  2.5476
  777MOL0     H 7224  10.052   6.720   3.670  1.0127  0.1604  3.1160
  777MOL0     H 7225   9.910   6.725   3.765 -0.1648  0.8738 -1.7286
  777MOL0     H 7226   9.990   6.569   3.726  2.9922  1.8192  3.6439
  778MOL0     O 7227   4.536   6.907   8.794  0.5304  0.0764 -0.3319
  778MOL0     C 7228   4.448   6.832   8.841 -0.7271 -0.1596  0.4824
  778MOL0     O 7229   4.470   6.700   8.861 -0.4966 -0.7040 -0.4465
  778MOL0     C 7230   4.595   6.649   8.835  0.1838  0.0541 -0.1563
  778MOL0     C 7231   4.638   6.557   8.923  0.1489 -0.1359 -0.1701
  778MOL0     C 7232   4.750   6.486   8.896 -0.5869  0.8054  0.5805
  778MOL0     C 7233   4.823   6.510   8.776  0.0679  0.2407 -0.3309
  778MOL0     O 7234   4.933   6.438   8.732 -0.0854 -0.3552  0.2098
  778MOL0     C 7235   4.951   6.310   8.796 -0.2423 -0.0755 -0.4122
  778MOL0     C 7236   5.073   6.244   8.735 -0.2739  0.4062  0.4738
  778MOL0     C 7237   5.094   6.105   8.791 -0.0768  0.0917  0.2937
  778MOL0     C 7238   5.225   6.042   8.750  0.1193  0.1850 -0.2757
  778MOL0     C 7239   5.252   6.019   8.599 -1.2315  0.5858 -0.3322
  778MOL0     C 7240   5.400   5.978   8.592 -0.4379  0.4982 -0.1352
  778MOL0     C 7241   5.442   5.906   8.463 -0.3258  0.9385 -1.5632
  778MOL0     C 7242   5.594   5.933   8.444 -0.1601  0.1387  0.0237
  778MOL0     N 7243   5.653   5.858   8.332  0.1956  0.2428  0.2654
  778MOL0     C 7244   5.633   5.731   8.297  0.4511 -0.1805 -1.1107
  778MOL0     C 7245   5.708   5.721   8.181 -0.2329 -0.6485 -0.0806
  778MOL0     C 7246   5.718   5.605   8.095 -0.2771  0.1313 -0.1106
  778MOL0     C 7247   5.588   5.546   8.032 -0.7420  0.3602 -0.5061
  778MOL0     C 7248   5.511   5.659   7.960  0.2000 -0.0118  0.3085
  778MOL0     C 7249   5.401   5.600   7.859 -0.2344  0.6972  0.1764
  778MOL0     O 7250   5.293   5.535   7.934 -0.0358  0.7061 -0.2395
  778MOL0     C 7251   5.198   5.602   7.999 -0.0024  0.0466 -0.2812
  778MOL0     C 7252   5.196   5.609   8.144 -0.2666  0.0251  0.6680
  778MOL0     C 7253   5.097   5.687   8.206 -0.2714  0.1844 -0.3681
  778MOL0     C 7254   5.102   5.671   8.351  0.4778 -0.0056 -0.1736
  778MOL0     C 7255   5.009   5.776   8.125 -0.0058 -1.0608 -0.6371
  778MOL0     C 7256   4.905   5.864   8.182 -0.1860 -0.6701  0.4904
  778MOL0     O 7257   4.901   5.857   8.318  0.1653 -0.2307 -0.4837
  778MOL0     C 7258   4.831   5.942   8.397 -0.0658  0.5427  0.3121
  778MOL0     C 7259   4.762   5.892   8.507  0.4001  0.2546 -0.2140
  778MOL0     C 7260   4.699   5.982   8.602  0.3795  0.8591  0.8048
  778MOL0     C 7261   4.691   6.124   8.572  1.0370  0.3078 -0.6165
  778MOL0     O 7262   4.623   6.207   8.661 -0.1762 -0.3137 -0.0603
  778MOL0     C 7263   4.488   6.238   8.614 -0.0456 -0.2685 -0.0598
  778MOL0     C 7264   4.436   6.364   8.682 -0.6333  0.6344  0.6233
  778MOL0     C 7265   4.289   6.345   8.720 -0.4327  0.4892 -0.4195
  778MOL0     C 7266   4.225   6.480   8.728 -0.5457  0.2062  0.6568
  778MOL0     C 7267   4.090   6.489   8.810 -0.1549  0.4079  0.0128
  778MOL0     C 7268   3.989   6.409   8.729 -0.6577  0.1776  0.4941
  778MOL0     C 7269   3.845   6.446   8.770  0.0011  0.5487  0.1487
  778MOL0     C 7270   3.750   6.326   8.765  0.6578 -0.7889  0.7645
  778MOL0    Cl 7271   3.753   6.239   8.605 -0.3511 -0.1181  0.0455
  778MOL0     C 7272   4.765   6.175   8.462  0.6683 -0.1057 -0.9922
  778MOL0     C 7273   4.832   6.083   8.383 -0.0434  0.3210  0.5320
  778MOL0     O 7274   4.825   5.925   8.110 -0.0997 -0.3519 -0.2230
  778MOL0     C 7275   5.012   5.765   7.981 -0.3138 -0.2419  0.1764
  778MOL0     C 7276   5.115   5.685   7.924  0.0921  0.1823  0.4155
  778MOL0     N 7277   5.767   5.843   8.148  0.4224  0.3431 -0.1419
  778MOL0     N 7278   5.723   5.929   8.239 -0.5824  0.2911 -0.3537
  778MOL0     C 7279   4.799   6.619   8.698  0.1619 -0.6443  0.7679
  778MOL0     C 7280   4.674   6.685   8.722 -0.3347 -0.0957 -0.1920
  778MOL0     C 7281   4.325   6.888   8.903  0.3494 -0.2260  0.2406
  778MOL0     C 7282   4.234   6.797   8.959  0.7674 -0.2577 -0.2888
  778MOL0     C 7283   4.110   6.839   9.015 -0.4081 -0.0571  0.3464
  778MOL0     C 7284   4.083   6.976   9.026  0.5627  0.2842  0.9075
  778MOL0     O 7285   3.977   7.029   9.083 -0.0879 -0.2712 -0.3271
  778MOL0     C 7286   3.876   6.944   9.134  0.9978  0.9510 -0.7438
  778MOL0     C 7287   3.784   6.883   9.035 -0.2215 -0.6179  0.7076
  778MOL0     C 7288   3.639   6.856   9.086  0.0272  0.7819  0.0988
  778MOL0     C 7289   3.579   6.745   8.988 -0.0982 -0.1428  0.5737
  778MOL0     C 7290   3.445   6.694   9.034  0.1356 -0.4152  0.6594
  778MOL0     C 7291   3.334   6.656   9.071  0.2656 -0.8533 -0.6186
  778MOL0     C 7292   4.171   7.074   8.977 -1.0135 -0.5124  0.3582
  778MOL0     C 7293   4.286   7.027   8.911 -0.3490 -0.5285  0.3265
  778MOL0     C 7294   4.372   7.136   8.856 -0.1548 -0.0855 -0.2943
  778MOL0     H 7295   4.564   6.550   9.002 -2.2437  2.0384 -2.0425
  778MOL0     H 7296   4.771   6.399   8.958  1.7173  0.1418 -1.0074
  778MOL0     H 7297   4.867   6.241   8.784  1.3031 -1.6963 -2.8965
  778MOL0     H 7298   4.966   6.326   8.903 -0.4344  0.3446 -0.4487
  778MOL0     H 7299   5.050   6.233   8.629 -1.5432 -2.9067  0.9639
  778MOL0     H 7300   5.170   6.291   8.753  0.5351 -0.8719 -0.3938
  778MOL0     H 7301   5.091   6.111   8.900  2.2213 -0.2432  0.4214
  778MOL0     H 7302   5.020   6.033   8.754 -0.2334 -0.0061  0.7852
  778MOL0     H 7303   5.287   6.120   8.796 -0.7964  0.7108  0.1122
  778MOL0     H 7304   5.229   5.946   8.803  0.9694 -2.2444 -4.3487
  778MOL0     H 7305   5.239   6.107   8.535 -2.0275  0.7139  0.0050
  778MOL0     H 7306   5.182   5.939   8.574  0.1299 -1.4369  1.8609
  778MOL0     H 7307   5.463   6.067   8.588 -1.5260  1.2174 -1.9016
  778MOL0     H 7308   5.424   5.918   8.681  0.9011 -0.5294 -1.1460
  778MOL0     H 7309   5.392   5.942   8.372 -0.5962 -0.8233 -2.1455
  778MOL0     H 7310   5.429   5.797   8.465  1.0658  0.7608  1.2669
  778MOL0     H 7311   5.604   6.041   8.430  0.0072  0.4357  2.0831
  778MOL0     H 7312   5.648   5.910   8.536 -0.0400 -0.1766 -0.1264
  778MOL0     H 7313   5.569   5.659   8.347  1.2754  0.2810  0.6924
  778MOL0     H 7314   5.773   5.533   8.156  0.2857  0.9696  0.3857
  778MOL0     H 7315   5.783   5.641   8.015  2.3560  3.3569  3.1708
  778MOL0     H 7316   5.615   5.469   7.960 -5.3962 -0.8523 -1.2935
  778MOL0     H 7317   5.521   5.501   8.106 -2.5244  1.1680 -1.5557
  778MOL0     H 7318   5.478   5.736   8.031 -0.2003  0.8851 -0.8299
  778MOL0     H 7319   5.579   5.711   7.892 -2.1420  2.2382 -0.4699
  778MOL0     H 7320   5.367   5.678   7.790  2.5184  0.5666 -1.4453
  778MOL0     H 7321   5.446   5.521   7.799 -1.9469 -0.2135  0.0220
  778MOL0     H 7322   5.262   5.540   8.195 -0.1782  0.5755  1.2958
  778MOL0     H 7323   5.116   5.770   8.397  0.1461  0.4733 -1.0622
  778MOL0     H 7324   5.182   5.613   8.398 -0.1195  1.3378  2.7283
  778MOL0     H 7325   5.010   5.624   8.387  1.2465 -2.3053 -1.0412
  778MOL0     H 7326   4.773   5.788   8.536 -0.3109  0.2772  0.1576
  778MOL0     H 7327   4.669   5.942   8.698 -0.7346  0.1558  0.1767
  778MOL0     H 7328   4.483   6.240   8.505  0.4328  1.1178 -0.0747
  778MOL0     H 7329   4.429   6.153   8.646  0.0989 -0.1223  0.6144
  778MOL0     H 7330   4.496   6.366   8.773  0.6159 -2.5419  0.0109
  778MOL0     H 7331   4.457   6.450   8.617  1.9733  0.2815  0.8819
  778MOL0     H 7332   4.291   6.293   8.816 -1.1784  0.1457 -0.5843
  778MOL0     H 7333   4.231   6.281   8.652 -0.6035  1.2958 -1.0476
  778MOL0     H 7334   4.215   6.510   8.623  0.9047  1.2923  0.8019
  778MOL0     H 7335   4.299   6.541   8.781  1.7457 -2.2891  0.5450
  778MOL0     H 7336   4.100   6.454   8.913  0.7741  0.9510  0.1272
  778MOL0     H 7337   4.062   6.594   8.818 -0.4455  0.3927 -0.7053
  778MOL0     H 7338   4.024   6.305   8.724  2.5867  1.0993  1.4285
  778MOL0     H 7339   3.990   6.434   8.623 -3.2496 -0.1079  0.3338
  778MOL0     H 7340   3.804   6.534   8.719 -1.7573  0.9926  2.1598
  778MOL0     H 7341   3.843   6.488   8.871  1.4869  0.3545  0.2819
  778MOL0     H 7342   3.651   6.353   8.804  1.5065  1.0477  1.7921
  778MOL0     H 7343   3.787   6.260   8.843  0.0012 -2.1737 -0.0636
  778MOL0     H 7344   4.764   6.280   8.433 -1.5051 -0.0002 -0.6947
  778MOL0     H 7345   4.882   6.126   8.296  0.2163  2.7192  1.7576
  778MOL0     H 7346   4.945   5.815   7.911  1.0257 -0.0378 -0.9932
  778MOL0     H 7347   5.111   5.682   7.816 -1.6676  3.3465  0.2725
  778MOL0     H 7348   4.859   6.647   8.612 -1.2029 -0.1179 -0.0462
  778MOL0     H 7349   4.636   6.752   8.646  2.1553  3.8579  1.7238
  778MOL0     H 7350   4.248   6.690   8.965  1.0889 -0.2122 -0.2456
  778MOL0     H 7351   4.046   6.761   9.057 -0.5080 -0.7160 -0.9783
  778MOL0     H 7352   3.915   6.866   9.201  0.0639 -0.1244 -1.4109
  778MOL0     H 7353   3.808   7.010   9.189 -0.9797  0.3141 -2.3193
  778MOL0     H 7354   3.832   6.789   9.009 -1.7088 -1.1556 -0.1998
  778MOL0     H 7355   3.790   6.942   8.943  1.5491  0.9004  1.7417
  778MOL0     H 7356   3.631   6.814   9.187  0.4142  1.1460  0.2804
  778MOL0     H 7357   3.576   6.946   9.087 -2.1000 -0.6317  0.4657
  778MOL0     H 7358   3.646   6.661   8.972 -1.5886 -1.4335  0.8740
  778MOL0     H 7359   3.570   6.794   8.890 -0.8674 -0.7047  0.3530
  778MOL0     H 7360   3.237   6.618   9.093 -0.8799  0.0379 -3.6793
  778MOL0     H 7361   4.160   7.180   8.997  0.4290 -0.5193  1.3144
  778MOL0     H 7362   4.325   7.235   8.853 -0.0827 -0.0388  0.0272
  778MOL0     H 7363   4.456   7.141   8.926 -1.4019  2.6635  1.1797
  778MOL0     H 7364   4.422   7.117   8.761 -2.0873 -0.9218 -1.2049
  779MOL0     O 7365   1.210  10.561   2.955 -0.9705  0.8081  0.0647
  779MOL0     C 7366   1.292  10.652   2.971 -0.3084  0.3509  0.4844
  779MOL0     O 7367   1.418  10.650   2.924  0.1263 -0.2899 -0.3045
  779MOL0     C 7368   1.491  10.539   2.956  0.7397  0.4189 -0.0209
  779MOL0     C 7369   1.613  10.526   2.880  0.9232 -0.1658  0.1937
  779MOL0     C 7370   1.700  10.418   2.897 -0.4295 -0.9731  0.4139
  779MOL0     C 7371   1.676  10.321   2.993 -0.2143 -0.3494 -0.3105
  779MOL0     O 7372   1.761  10.219   3.002 -0.6236  0.2058  1.1273
  779MOL0     C 7373   1.698  10.094   2.994 -0.0554  0.1946  0.1209
  779MOL0     C 7374   1.741  10.012   3.112 -0.3720 -0.8622  0.6288
  779MOL0     C 7375   1.674   9.877   3.121  0.1966  0.5964  1.0085
  779MOL0     C 7376   1.705   9.812   3.258  0.4035  0.0748 -0.0180
  779MOL0     C 7377   1.674   9.659   3.266 -0.8487  0.3237  0.5668
  779MOL0     C 7378   1.527   9.650   3.287  0.4748 -0.2783 -0.7127
  779MOL0     C 7379   1.477   9.516   3.327  0.0062 -0.2671 -0.3566
  779MOL0     C 7380   1.336   9.510   3.376 -0.1203  0.3885 -0.9980
  779MOL0     N 7381   1.296   9.371   3.410  0.1148  0.3285  0.1890
  779MOL0     C 7382   1.309   9.257   3.336 -0.0801  0.3962 -0.1916
  779MOL0     C 7383   1.252   9.159   3.415 -0.9744 -0.9852  0.7959
  779MOL0     C 7384   1.253   9.016   3.387  0.6761 -0.7950  0.3851
  779MOL0     C 7385   1.383   8.954   3.336 -0.1349  0.3539 -0.0873
  779MOL0     C 7386   1.489   8.943   3.446  0.4150 -0.9962 -0.5584
  779MOL0     C 7387   1.624   8.890   3.397 -0.2352  0.1722 -0.9218
  779MOL0     O 7388   1.666   8.940   3.270  0.4906 -0.6815  0.1570
  779MOL0     C 7389   1.738   9.056   3.258 -0.7539 -0.4018 -0.4242
  779MOL0     C 7390   1.801   9.075   3.136  0.1289 -0.0647  0.1533
  779MOL0     C 7391   1.883   9.187   3.111  0.4605  0.3164 -0.4217
  779MOL0     C 7392   1.938   9.204   2.976 -0.2621 -0.2572  0.0334
  779MOL0     C 7393   1.903   9.280   3.220  0.0075  0.7986 -0.3962
  779MOL0     C 7394   2.000   9.389   3.222  0.2097 -0.3776  0.7797
  779MOL0     O 7395   1.970   9.501   3.300 -0.2296  0.5116 -0.3429
  779MOL0     C 7396   2.069   9.595   3.307  0.3669 -0.5308  0.0218
  779MOL0     C 7397   2.179   9.585   3.394  0.4562 -0.6733 -0.0074
  779MOL0     C 7398   2.266   9.691   3.403 -0.6814 -1.3055  0.2954
  779MOL0     C 7399   2.261   9.808   3.319  0.3488  0.0775 -0.3378
  779MOL0     O 7400   2.353   9.899   3.339 -0.2454  0.5101 -0.7102
  779MOL0     C 7401   2.411   9.939   3.216  1.0426  0.2580 -0.2758
  779MOL0     C 7402   2.508  10.051   3.242 -0.6217 -0.5542  0.0986
  779MOL0     C 7403   2.625   9.993   3.324  0.7520 -0.2878 -0.6192
  779MOL0     C 7404   2.710  10.101   3.404  0.9198  0.3674 -0.0683
  779MOL0     C 7405   2.828  10.032   3.475 -0.5056  0.0555 -0.2217
  779MOL0     C 7406   2.889  10.138   3.561  0.0229 -0.2740 -0.2845
  779MOL0     C 7407   3.020  10.096   3.624  1.2429 -0.9927  0.4917
  779MOL0     C 7408   3.140  10.077   3.526  0.3579  0.3152 -0.3259
  779MOL0    Cl 7409   3.156   9.905   3.482  0.1095  0.0028 -0.2290
  779MOL0     C 7410   2.143   9.814   3.236 -0.6110  0.8597 -0.0906
  779MOL0     C 7411   2.046   9.714   3.234  0.9678  0.4402  0.0955
  779MOL0     O 7412   2.098   9.377   3.147  0.6850 -1.1215 -0.2359
  779MOL0     C 7413   1.857   9.244   3.344 -0.6501 -0.6458  0.7077
  779MOL0     C 7414   1.777   9.135   3.361 -0.7151 -0.3448 -0.7097
  779MOL0     N 7415   1.203   9.226   3.525 -0.1417  0.4217  0.4397
  779MOL0     N 7416   1.227   9.347   3.523 -0.7262  0.3586 -0.0007
  779MOL0     C 7417   1.563  10.334   3.071  0.0319  0.1405 -0.4446
  779MOL0     C 7418   1.463  10.438   3.053 -0.6902  0.3097 -0.1869
  779MOL0     C 7419   1.265  10.756   3.067 -0.8700 -0.1142  0.0176
  779MOL0     C 7420   1.376  10.827   3.113 -0.5936 -1.0976 -0.7037
  779MOL0     C 7421   1.368  10.927   3.214  0.4764  0.0162  0.2428
  779MOL0     C 7422   1.243  10.961   3.264 -0.4615 -0.1533 -0.6261
  779MOL0     O 7423   1.241  11.063   3.355 -0.9271  0.0734 -0.9078
  779MOL0     C 7424   1.126  11.086   3.431 -0.4023  0.8093  0.4852
  779MOL0     C 7425   1.141  11.176   3.553 -1.1438  0.7264  0.4038
  779MOL0     C 7426   1.187  11.112   3.687 -0.2231 -0.1369 -0.1632
  779MOL0     C 7427   1.307  11.019   3.690  0.5118  0.0226 -0.9574
  779MOL0     C 7428   1.420  11.064   3.608 -0.0154 -0.0435 -0.5319
  779MOL0     C 7429   1.519  11.080   3.543  0.1607 -0.0667  0.0124
  779MOL0     C 7430   1.134  10.887   3.216 -0.1705  0.1429 -0.2326
  779MOL0     C 7431   1.139  10.791   3.118  0.3718  0.0076 -0.7314
  779MOL0     C 7432   1.006  10.738   3.078 -0.4593 -0.1339 -0.3034
  779MOL0     H 7433   1.626  10.597   2.799  0.7454 -0.5003 -0.1301
  779MOL0     H 7434   1.776  10.400   2.822 -0.7970  0.4990 -0.3454
  779MOL0     H 7435   1.723  10.045   2.899 -2.6553 -0.4231 -0.3275
  779MOL0     H 7436   1.591  10.098   2.975  0.4147  0.6659 -3.0011
  779MOL0     H 7437   1.849   9.996   3.111 -0.1243  0.1341 -3.2574
  779MOL0     H 7438   1.707  10.070   3.198 -1.9052 -0.8828  0.0630
  779MOL0     H 7439   1.564   9.884   3.123  0.2951  2.8647  1.4149
  779MOL0     H 7440   1.701   9.822   3.031 -3.5650 -0.8883  0.5705
  779MOL0     H 7441   1.807   9.834   3.290  0.5415  1.4151 -1.2788
  779MOL0     H 7442   1.646   9.875   3.325  0.1321  0.4707 -0.6166
  779MOL0     H 7443   1.730   9.630   3.356  2.1183 -1.6615 -1.7448
  779MOL0     H 7444   1.702   9.610   3.173 -2.0639  2.6494 -1.1159
  779MOL0     H 7445   1.512   9.721   3.370 -0.3457 -0.3415 -0.7915
  779MOL0     H 7446   1.466   9.684   3.203 -3.7559 -1.4303  1.5959
  779MOL0     H 7447   1.543   9.488   3.410  0.2129  1.7189  0.1931
  779MOL0     H 7448   1.494   9.448   3.243 -1.3253 -0.5623 -0.3971
  779MOL0     H 7449   1.325   9.570   3.467 -1.1418 -0.3370 -0.6227
  779MOL0     H 7450   1.271   9.547   3.296 -2.4885 -0.8660  0.2275
  779MOL0     H 7451   1.349   9.259   3.235 -1.5746  1.1236 -0.7968
  779MOL0     H 7452   1.179   9.001   3.308 -0.8267  2.6757  0.9645
  779MOL0     H 7453   1.220   8.970   3.481 -2.4008  1.4532  0.5632
  779MOL0     H 7454   1.364   8.850   3.308  0.4544 -0.3108  1.8049
  779MOL0     H 7455   1.421   9.020   3.258 -0.6718  1.7203  0.7697
  779MOL0     H 7456   1.520   9.037   3.492 -0.3711 -1.5682  1.2043
  779MOL0     H 7457   1.447   8.882   3.526 -0.0252  1.9260  1.6302
  779MOL0     H 7458   1.697   8.908   3.477 -0.5664  1.8568 -0.9527
  779MOL0     H 7459   1.616   8.782   3.385  0.7805 -0.1164  0.7070
  779MOL0     H 7460   1.784   8.997   3.063 -1.2873  0.2152  0.1546
  779MOL0     H 7461   2.047   9.196   2.974 -0.2379 -0.1636  0.6854
  779MOL0     H 7462   1.917   9.303   2.934  1.1585 -1.2425 -3.3124
  779MOL0     H 7463   1.899   9.131   2.904 -1.1430  0.4599 -0.2463
  779MOL0     H 7464   2.180   9.505   3.467 -1.1225 -2.0304 -1.3977
  779MOL0     H 7465   2.349   9.669   3.470  0.3431 -1.0934 -0.8598
  779MOL0     H 7466   2.455   9.854   3.165  0.9780  1.6307 -2.7722
  779MOL0     H 7467   2.333   9.981   3.151  0.9464 -0.4235 -0.6073
  779MOL0     H 7468   2.552  10.089   3.150 -0.9932  1.2807  0.6241
  779MOL0     H 7469   2.467  10.138   3.295  2.6137  1.4428 -0.4173
  779MOL0     H 7470   2.696   9.938   3.261  3.1918 -0.1583  1.8381
  779MOL0     H 7471   2.588   9.918   3.393 -2.5890  1.4740 -0.2970
  779MOL0     H 7472   2.637  10.148   3.471 -1.4727  0.2849 -2.4608
  779MOL0     H 7473   2.749  10.176   3.334  1.6244  0.9744  0.9557
  779MOL0     H 7474   2.784   9.956   3.540  0.1361  0.4141  0.6332
  779MOL0     H 7475   2.887   9.976   3.402 -0.4637  0.9653 -0.9055
  779MOL0     H 7476   2.823  10.168   3.642  0.6031  2.4754 -0.6949
  779MOL0     H 7477   2.913  10.230   3.505 -3.2484  1.2545  0.5959
  779MOL0     H 7478   3.002  10.009   3.687  0.7862 -1.5731 -0.4121
  779MOL0     H 7479   3.039  10.182   3.690  1.5325 -1.2700  0.7702
  779MOL0     H 7480   3.236  10.105   3.571  0.7422  3.5016 -2.7825
  779MOL0     H 7481   3.127  10.139   3.437  1.8973 -1.0305 -1.5506
  779MOL0     H 7482   2.125   9.904   3.177  1.4548 -0.0213 -2.2639
  779MOL0     H 7483   1.953   9.717   3.178  1.4351 -1.8391 -0.9536
  779MOL0     H 7484   1.892   9.290   3.436 -1.9846  0.3897  0.7211
  779MOL0     H 7485   1.753   9.109   3.463  1.3973  0.0321 -0.0586
  779MOL0     H 7486   1.545  10.255   3.143  1.7601  1.3492  1.3958
  779MOL0     H 7487   1.373  10.448   3.112 -1.9730 -1.1803 -1.7471
  779MOL0     H 7488   1.478  10.821   3.077 -0.5022 -0.2938 -0.6069
  779MOL0     H 7489   1.452  10.983   3.255  0.7044 -1.2252  1.5679
  779MOL0     H 7490   1.074  11.142   3.353 -2.2171 -0.5798  0.6109
  779MOL0     H 7491   1.079  10.988   3.448  0.7050  0.1601 -0.0675
  779MOL0     H 7492   1.044  11.225   3.565 -2.5397 -1.9454  0.6415
  779MOL0     H 7493   1.215  11.249   3.518 -0.2925 -1.1630 -2.0371
  779MOL0     H 7494   1.216  11.193   3.754 -0.8308  0.0327 -0.1052
  779MOL0     H 7495   1.103  11.066   3.741 -0.6958  0.3076 -0.5169
  779MOL0     H 7496   1.262  10.926   3.653 -0.1156  0.5415 -1.5322
  779MOL0     H 7497   1.332  11.009   3.796  1.0012  3.0726 -0.6919
  779MOL0     H 7498   1.596  11.099   3.471 -0.2815  1.9247  0.0003
  779MOL0     H 7499   1.040  10.919   3.260  0.7884 -1.4036  3.3388
  779MOL0     H 7500   0.975  10.660   3.149  0.6211  0.0392  0.3893
  779MOL0     H 7501   0.934  10.820   3.069  1.2220  1.3597 -0.7162
  779MOL0     H 7502   1.006  10.692   2.979 -0.8354  0.3879 -0.5482
  780MOL0     O 7503   3.982   4.012   8.026 -0.2299 -0.5429 -0.3014
  780MOL0     C 7504   4.037   3.927   7.954 -0.0568  0.2408 -0.4131
  780MOL0     O 7505   4.175   3.914   7.951  0.1728  0.0959 -0.6475
  780MOL0     C 7506   4.252   3.998   8.027  0.4394 -0.4784 -0.0944
  780MOL0     C 7507   4.304   4.110   7.971 -0.3407  0.8979  0.3876
  780MOL0     C 7508   4.405   4.189   8.033  0.2609 -0.0667  0.7903
  780MOL0     C 7509   4.435   4.164   8.174  0.9503  0.1301 -0.5916
  780MOL0     O 7510   4.518   4.244   8.255  0.0405 -0.2902 -0.5013
  780MOL0     C 7511   4.555   4.374   8.200  0.7538 -0.1007  0.4299
  780MOL0     C 7512   4.563   4.480   8.308 -0.5749 -0.6539 -0.1722
  780MOL0     C 7513   4.660   4.449   8.424  0.4890 -0.4658  0.3626
  780MOL0     C 7514   4.798   4.413   8.394  0.2377 -1.1643  0.2850
  780MOL0     C 7515   4.904   4.492   8.471 -0.0612 -0.0073  0.2994
  780MOL0     C 7516   5.055   4.460   8.426  0.0678 -0.6039 -0.1280
  780MOL0     C 7517   5.166   4.492   8.530 -0.0300  0.8446 -0.5581
  780MOL0     C 7518   5.128   4.433   8.674  0.5715  0.1686  0.3431
  780MOL0     N 7519   5.254   4.393   8.733  0.3225  1.0868 -0.0871
  780MOL0     C 7520   5.312   4.265   8.728  0.0862 -0.7938 -0.1239
  780MOL0     C 7521   5.415   4.259   8.814  0.0348 -0.9930 -0.2048
  780MOL0     C 7522   5.503   4.147   8.833  0.4262  0.8137 -0.5048
  780MOL0     C 7523   5.633   4.155   8.754 -0.2144 -0.1495 -0.5057
  780MOL0     C 7524   5.747   4.093   8.837  0.4398 -0.4016 -0.6800
  780MOL0     C 7525   5.871   4.110   8.755 -0.0476  0.2256 -0.6040
  780MOL0     O 7526   5.985   4.057   8.830 -0.4497 -0.6276 -0.0640
  780MOL0     C 7527   6.105   4.071   8.757  0.5256  0.5434 -0.1363
  780MOL0     C 7528   6.219   4.114   8.827  0.1446 -0.1477 -0.5988
  780MOL0     C 7529   6.347   4.123   8.770 -0.4589  1.1992 -0.7087
  780MOL0     C 7530   6.467   4.161   8.860  0.6140 -0.0287  0.8953
  780MOL0     C 7531   6.366   4.095   8.632  0.3617 -0.2045 -0.2817
  780MOL0     C 7532   6.490   4.115   8.553  0.4609 -0.0768 -0.1699
  780MOL0     O 7533   6.512   4.047   8.444 -0.7373  0.4591  0.2152
  780MOL0     C 7534   6.627   4.056   8.364  0.7482  0.3373  0.4206
  780MOL0     C 7535   6.604   4.049   8.217  0.6308  0.3335 -1.2393
  780MOL0     C 7536   6.708   4.054   8.130 -0.6047 -0.6898  0.0033
  780MOL0     C 7537   6.840   4.054   8.180 -0.0877 -0.2740  0.7039
  780MOL0     O 7538   6.938   4.031   8.093 -0.1255  0.3413  0.2863
  780MOL0     C 7539   7.073   4.058   8.130  0.6065 -0.0402  0.4011
  780MOL0     C 7540   7.145   4.075   8.004 -0.3227 -0.6583  0.5651
  780MOL0     C 7541   7.121   4.218   7.946 -0.4721 -0.5389 -0.1975
  780MOL0     C 7542   6.988   4.248   7.870 -0.0360 -0.1445 -0.3167
  780MOL0     C 7543   7.000   4.346   7.752 -0.3298  0.4057  0.2864
  780MOL0     C 7544   7.058   4.488   7.784  0.3732  1.1447 -0.1329
  780MOL0     C 7545   7.053   4.572   7.657 -0.0638  0.5788 -0.1487
  780MOL0     C 7546   7.124   4.702   7.661  0.1051  0.1561  0.1502
  780MOL0    Cl 7547   7.017   4.826   7.759 -0.4266  0.2659 -0.0968
  780MOL0     C 7548   6.860   4.050   8.325  0.2969 -0.3441  0.0048
  780MOL0     C 7549   6.755   4.049   8.414 -0.0520  0.5799  0.2285
  780MOL0     O 7550   6.544   4.219   8.591 -0.1394  0.1705 -0.4115
  780MOL0     C 7551   6.249   4.048   8.561 -0.8175 -0.1330 -0.0615
  780MOL0     C 7552   6.123   4.038   8.622 -0.2493 -0.8505  0.3157
  780MOL0     N 7553   5.406   4.377   8.891  1.0798 -0.6188  0.5839
  780MOL0     N 7554   5.315   4.455   8.833 -0.3569 -0.0731  0.0728
  780MOL0     C 7555   4.373   4.054   8.232  0.7474 -0.4120 -0.1550
  780MOL0     C 7556   4.283   3.974   8.164  0.2445  0.6466  0.7089
  780MOL0     C 7557   3.958   3.823   7.873 -0.1306  0.4180  0.0865
  780MOL0     C 7558   4.026   3.706   7.824  0.2140  0.4840  0.0960
  780MOL0     C 7559   3.958   3.604   7.753 -0.2812 -0.3073 -0.5561
  780MOL0     C 7560   3.821   3.619   7.715 -0.0188 -0.2406  0.5762
  780MOL0     O 7561   3.761   3.513   7.648 -0.6202  0.0437  0.2596
  780MOL0     C 7562   3.658   3.552   7.546  0.5867 -0.1084 -0.1755
  780MOL0     C 7563   3.661   3.432   7.451  0.5405 -0.4561 -0.8107
  780MOL0     C 7564   3.598   3.305   7.520 -0.2187  1.3458  0.9418
  780MOL0     C 7565   3.514   3.215   7.429  0.0702  0.6463  0.9587
  780MOL0     C 7566   3.599   3.165   7.311  0.2330 -0.0771  0.3882
  780MOL0     C 7567   3.667   3.130   7.226  0.3274 -0.1582  0.5900
  780MOL0     C 7568   3.753   3.734   7.760  0.7326 -0.1935  0.3001
  780MOL0     C 7569   3.817   3.828   7.843  0.4554 -0.3138  0.4512
  780MOL0     C 7570   3.738   3.939   7.904  0.7821 -0.2901 -0.5450
  780MOL0     H 7571   4.281   4.120   7.865  0.0760  0.1804  0.2212
  780MOL0     H 7572   4.445   4.257   7.959 -0.8691 -1.3183 -1.0659
  780MOL0     H 7573   4.475   4.407   8.133  0.0083 -1.4160  0.6520
  780MOL0     H 7574   4.641   4.364   8.133 -2.4367 -1.5433 -3.8637
  780MOL0     H 7575   4.593   4.579   8.272 -0.6592  0.5015  2.6690
  780MOL0     H 7576   4.466   4.497   8.356 -0.0828  1.7374  0.1008
  780MOL0     H 7577   4.670   4.547   8.471 -1.0342 -0.2764  0.3419
  780MOL0     H 7578   4.628   4.381   8.503  2.7813 -0.4630  1.3613
  780MOL0     H 7579   4.817   4.305   8.401  2.4029 -0.7494  1.9422
  780MOL0     H 7580   4.817   4.432   8.288 -0.3308 -1.4426  0.1270
  780MOL0     H 7581   4.889   4.478   8.578  1.2166 -0.2235  0.4677
  780MOL0     H 7582   4.882   4.598   8.458 -0.5038 -0.2251 -0.9253
  780MOL0     H 7583   5.061   4.356   8.393  0.1519  0.2255 -3.0589
  780MOL0     H 7584   5.077   4.520   8.337  1.1618  0.3655  0.7559
  780MOL0     H 7585   5.174   4.600   8.544  0.0874  0.5969  1.6117
  780MOL0     H 7586   5.257   4.449   8.489  1.8879  2.5228  1.6797
  780MOL0     H 7587   5.077   4.505   8.739 -4.8614 -1.5531 -1.4333
  780MOL0     H 7588   5.061   4.350   8.653 -1.8675  2.5949 -2.4512
  780MOL0     H 7589   5.290   4.178   8.667 -0.2727 -1.6006  1.1155
  780MOL0     H 7590   5.447   4.055   8.812  0.0140  0.9717 -0.1026
  780MOL0     H 7591   5.526   4.136   8.939 -1.0134 -1.1072 -0.3293
  780MOL0     H 7592   5.624   4.110   8.655  0.3081  0.4554 -0.8347
  780MOL0     H 7593   5.658   4.261   8.740  1.0871 -0.3804 -0.0463
  780MOL0     H 7594   5.759   4.140   8.935 -3.4040 -0.4093 -0.0352
  780MOL0     H 7595   5.734   3.986   8.853  1.3523 -0.5183 -0.6844
  780MOL0     H 7596   5.853   4.044   8.670 -0.0716 -1.7595  0.8987
  780MOL0     H 7597   5.881   4.214   8.720  0.3643 -0.2394 -1.9337
  780MOL0     H 7598   6.209   4.135   8.933  1.1995 -2.0364 -0.0768
  780MOL0     H 7599   6.473   4.271   8.857 -1.0250  0.0827 -1.2569
  780MOL0     H 7600   6.554   4.107   8.823 -0.3305 -0.3188 -1.0251
  780MOL0     H 7601   6.453   4.141   8.966  1.3387  2.6624  1.5752
  780MOL0     H 7602   6.505   4.058   8.172 -0.2056  2.1521  0.8045
  780MOL0     H 7603   6.699   4.054   8.022  0.2869 -0.6574 -0.0801
  780MOL0     H 7604   7.089   4.142   8.199 -1.0950  0.7908 -0.1613
  780MOL0     H 7605   7.104   3.963   8.175  1.3708 -1.8152 -3.4992
  780MOL0     H 7606   7.251   4.068   8.031 -0.5951 -0.7117  1.6791
  780MOL0     H 7607   7.139   4.001   7.924  1.1755 -0.8921  0.6387
  780MOL0     H 7608   7.202   4.235   7.874  0.5489  2.8871  1.5617
  780MOL0     H 7609   7.149   4.293   8.021  2.3660 -3.7258  2.3066
  780MOL0     H 7610   6.903   4.270   7.935 -0.8488 -4.9595  0.6332
  780MOL0     H 7611   6.956   4.156   7.820 -1.1405  0.6273 -1.0808
  780MOL0     H 7612   7.054   4.295   7.672 -0.6660  1.8213 -0.9067
  780MOL0     H 7613   6.895   4.354   7.719 -0.8471  1.3013  2.0436
  780MOL0     H 7614   7.161   4.482   7.821  0.4739 -0.7394 -0.5858
  780MOL0     H 7615   6.989   4.525   7.860 -2.6064 -0.0650 -2.0671
  780MOL0     H 7616   6.952   4.599   7.623 -1.0574  1.2489  3.0019
  780MOL0     H 7617   7.098   4.514   7.576  1.5248 -0.4131  1.3935
  780MOL0     H 7618   7.138   4.740   7.560  2.1033 -2.5025 -0.6811
  780MOL0     H 7619   7.221   4.696   7.712 -0.3851 -0.3702  1.0482
  780MOL0     H 7620   6.961   4.055   8.363  0.9167 -1.8485 -1.3463
  780MOL0     H 7621   6.779   4.046   8.520  0.4469  0.1299  0.1060
  780MOL0     H 7622   6.255   4.020   8.456 -0.1287 -3.6326  0.7805
  780MOL0     H 7623   6.036   4.016   8.561 -0.6118  3.5450 -1.0714
  780MOL0     H 7624   4.388   4.046   8.339 -2.1705  3.2418  0.7264
  780MOL0     H 7625   4.237   3.887   8.208  0.8259 -1.9646 -3.3348
  780MOL0     H 7626   4.131   3.685   7.842  0.0375 -0.8773 -0.3306
  780MOL0     H 7627   4.006   3.511   7.725  0.9112  0.1908 -0.2166
  780MOL0     H 7628   3.557   3.572   7.584  1.2468  0.6661  1.2709
  780MOL0     H 7629   3.692   3.634   7.482  0.9654 -0.0534  0.0898
  780MOL0     H 7630   3.765   3.411   7.426  0.6338 -1.0366  0.0118
  780MOL0     H 7631   3.602   3.456   7.362 -0.0500  1.1914 -0.0238
  780MOL0     H 7632   3.681   3.245   7.557 -0.4952 -1.7001 -2.7434
  780MOL0     H 7633   3.543   3.339   7.608 -2.6808 -1.3524  0.5637
  780MOL0     H 7634   3.422   3.259   7.390  1.6414  1.1691 -2.5188
  780MOL0     H 7635   3.474   3.128   7.483 -0.3759 -0.2524 -0.7660
  780MOL0     H 7636   3.737   3.080   7.163 -0.9782  0.1199 -1.1765
  780MOL0     H 7637   3.648   3.757   7.740  0.7416 -1.2124 -1.1142
  780MOL0     H 7638   3.631   3.936   7.885  0.4865  2.7562  0.1377
  780MOL0     H 7639   3.743   3.935   8.013  2.7054  2.5169 -0.4025
  780MOL0     H 7640   3.779   4.040   7.888 -0.8294  1.1582  3.3575
  781MOL0     O 7641   7.562   0.866  10.722 -0.3512  0.8020 -0.4608
  781MOL0     C 7642   7.461   0.922  10.674 -1.1712 -0.2033 -0.8072
  781MOL0     O 7643   7.439   1.062  10.668  0.3645  0.2195 -0.5979
  781MOL0     C 7644   7.542   1.151  10.681 -0.4170 -0.3847  0.3982
  781MOL0     C 7645   7.529   1.255  10.777  0.1235  0.4556  0.8615
  781MOL0     C 7646   7.640   1.342  10.804  0.3533 -0.0695  0.2959
  781MOL0     C 7647   7.758   1.311  10.745 -0.5649  0.3503  0.0132
  781MOL0     O 7648   7.862   1.381  10.788 -0.4276  0.2049 -0.5229
  781MOL0     C 7649   7.997   1.340  10.777 -1.1526 -0.3376 -0.1860
  781MOL0     C 7650   8.090   1.425  10.864  0.8380  0.0549 -0.7755
  781MOL0     C 7651   8.230   1.398  10.824  0.3417  0.6325  0.0906
  781MOL0     C 7652   8.333   1.466  10.927 -0.7389 -0.2694  0.8932
  781MOL0     C 7653   8.472   1.453  10.867  0.1807 -0.9803  0.0805
  781MOL0     C 7654   8.582   1.532  10.934  0.3014  0.9787 -0.4959
  781MOL0     C 7655   8.705   1.525  10.848  0.5399 -0.3828 -0.6039
  781MOL0     C 7656   8.817   1.615  10.906  0.1418 -0.3489 -1.0509
  781MOL0     N 7657   8.772   1.752  10.922  0.3629  0.6348 -0.2122
  781MOL0     C 7658   8.735   1.818  11.040 -0.3902 -0.1029  0.1164
  781MOL0     C 7659   8.685   1.941  11.010  0.6175 -0.2305  0.6978
  781MOL0     C 7660   8.634   2.044  11.103 -0.0432  0.0120  0.1420
  781MOL0     C 7661   8.737   2.075  11.209  0.7308  0.2394 -0.0131
  781MOL0     C 7662   8.830   2.195  11.179  0.1089  0.5814 -0.2388
  781MOL0     C 7663   8.905   2.190  11.044  0.0207  0.3268  0.0074
  781MOL0     O 7664   8.984   2.310  11.036 -0.4291 -0.1833  0.3925
  781MOL0     C 7665   9.000   2.359  10.909 -0.3269 -0.1136 -0.5497
  781MOL0     C 7666   8.983   2.493  10.890 -0.1747 -0.1747 -0.3569
  781MOL0     C 7667   9.027   2.556  10.776  0.7994 -0.6371  0.4831
  781MOL0     C 7668   9.013   2.709  10.762  1.0656 -0.0854 -0.1916
  781MOL0     C 7669   9.076   2.472  10.670 -0.7147  0.3746 -0.6640
  781MOL0     C 7670   9.120   2.518  10.536 -0.3731 -0.2432 -0.3659
  781MOL0     O 7671   9.191   2.420  10.467  0.1337 -0.5559  1.3177
  781MOL0     C 7672   9.267   2.464  10.350  1.5957 -1.0284 -1.1164
  781MOL0     C 7673   9.384   2.548  10.365  1.2261 -0.3480  0.2051
  781MOL0     C 7674   9.462   2.572  10.249  0.4925 -0.2548 -0.3309
  781MOL0     C 7675   9.426   2.524  10.126 -0.3311 -0.5560  1.1317
  781MOL0     O 7676   9.501   2.562  10.015 -0.3906 -0.2728  0.6649
  781MOL0     C 7677   9.570   2.468   9.930  0.3283 -0.2000 -0.1242
  781MOL0     C 7678   9.708   2.523   9.908 -0.1541  0.4361 -0.5084
  781MOL0     C 7679   9.799   2.500  10.037  0.1979 -0.6276  0.0023
  781MOL0     C 7680   9.898   2.383  10.023 -0.2964  0.3132 -0.6478
  781MOL0     C 7681   9.998   2.397  10.134 -0.3170  0.1960 -1.1535
  781MOL0     C 7682  10.105   2.284  10.117  0.3314 -0.2991  0.2432
  781MOL0     C 7683  10.223   2.277  10.215  0.1598  0.5637  0.2845
  781MOL0     C 7684  10.362   2.305  10.157  0.6856  0.4364 -0.1419
  781MOL0    Cl 7685  10.454   2.313  10.308  0.1136 -0.5079 -0.3094
  781MOL0     C 7686   9.310   2.450  10.114  0.1085 -0.3545 -0.5197
  781MOL0     C 7687   9.232   2.417  10.227  0.0362 -0.3388  1.1326
  781MOL0     O 7688   9.107   2.634  10.497  0.3907  0.9597  0.1406
  781MOL0     C 7689   9.079   2.334  10.687  0.9373 -0.4000 -0.5342
  781MOL0     C 7690   9.045   2.274  10.807 -0.1734 -0.7656 -0.6981
  781MOL0     N 7691   8.706   1.957  10.869  0.1706  1.0850  0.6225
  781MOL0     N 7692   8.754   1.842  10.821 -0.5126  0.8280 -0.0682
  781MOL0     C 7693   7.769   1.203  10.649  0.2782 -0.3545 -0.0047
  781MOL0     C 7694   7.657   1.126  10.615 -0.1837  0.1397  0.6138
  781MOL0     C 7695   7.344   0.842  10.633 -0.6944 -0.5552 -0.4093
  781MOL0     C 7696   7.256   0.899  10.539  0.9777  0.4325  0.3901
  781MOL0     C 7697   7.151   0.832  10.479  0.5057 -0.6105 -0.1731
  781MOL0     C 7698   7.121   0.697  10.527  0.6589 -1.2345 -0.8485
  781MOL0     O 7699   7.017   0.617  10.482  0.3373  0.0396 -0.5472
  781MOL0     C 7700   7.037   0.483  10.434  0.3122 -0.0630 -0.2327
  781MOL0     C 7701   6.890   0.425  10.417  0.1523 -0.3620 -0.3097
  781MOL0     C 7702   6.896   0.273  10.400  0.8363 -0.2008 -0.2695
  781MOL0     C 7703   6.754   0.211  10.441 -0.7026 -0.6469 -0.1040
  781MOL0     C 7704   6.772   0.071  10.432 -0.4671 -0.2411  0.5202
  781MOL0     C 7705   6.760  -0.048  10.427  0.5102  0.1276 -0.1320
  781MOL0     C 7706   7.203   0.650  10.623 -0.0281 -0.3029 -0.1449
  781MOL0     C 7707   7.311   0.719  10.682  0.0984 -0.1974  0.5314
  781MOL0     C 7708   7.388   0.640  10.784  1.3263  0.7860 -0.2702
  781MOL0     H 7709   7.438   1.279  10.831 -1.0487  0.7921 -1.1475
  781MOL0     H 7710   7.622   1.419  10.878 -0.5765 -0.0062  0.0254
  781MOL0     H 7711   8.033   1.355  10.674 -0.5549 -0.1323  0.0440
  781MOL0     H 7712   8.011   1.235  10.806  1.7993 -0.5962 -2.0856
  781MOL0     H 7713   8.065   1.530  10.852  2.0569  0.3412 -0.9494
  781MOL0     H 7714   8.078   1.399  10.970  1.2363  3.1154  0.1050
  781MOL0     H 7715   8.248   1.291  10.807 -2.3259 -0.1434  1.6091
  781MOL0     H 7716   8.256   1.443  10.727  2.3852 -0.0425  0.2796
  781MOL0     H 7717   8.312   1.573  10.939 -0.2299 -0.2021  1.1888
  781MOL0     H 7718   8.335   1.421  11.026 -0.8623 -0.0463  0.9999
  781MOL0     H 7719   8.466   1.492  10.765  0.9554 -3.0412 -0.8079
  781MOL0     H 7720   8.497   1.347  10.874 -0.5460 -1.0698  1.7861
  781MOL0     H 7721   8.556   1.638  10.944 -0.0456  0.9056 -0.6090
  781MOL0     H 7722   8.606   1.500  11.036  0.9923  2.2209 -0.2505
  781MOL0     H 7723   8.675   1.555  10.748 -1.2623  0.6028  0.1796
  781MOL0     H 7724   8.733   1.419  10.843  1.5121 -0.0835 -1.7933
  781MOL0     H 7725   8.864   1.585  11.001 -3.6170  2.3136  1.9756
  781MOL0     H 7726   8.897   1.605  10.833  1.9167 -2.9504  1.0467
  781MOL0     H 7727   8.753   1.764  11.132  1.3122 -0.7715 -0.5686
  781MOL0     H 7728   8.551   2.001  11.160  1.4241  2.2815  4.4436
  781MOL0     H 7729   8.591   2.127  11.046  1.1563 -0.4668 -1.5550
  781MOL0     H 7730   8.689   2.098  11.305  1.3110 -0.5212  0.4736
  781MOL0     H 7731   8.786   1.981  11.234  0.1600 -0.5528 -1.7278
  781MOL0     H 7732   8.787   2.295  11.194  1.3350  1.3750 -1.7382
  781MOL0     H 7733   8.909   2.197  11.254  0.7695  1.9159 -0.9310
  781MOL0     H 7734   8.971   2.103  11.046 -2.7111 -1.8902 -0.5462
  781MOL0     H 7735   8.835   2.181  10.960  0.0498  0.4367 -0.0284
  781MOL0     H 7736   8.944   2.548  10.975  0.4060  0.6696 -0.6260
  781MOL0     H 7737   8.963   2.733  10.667  1.8630  0.5584 -0.4562
  781MOL0     H 7738   9.112   2.754  10.772 -0.1542  2.7115  0.0689
  781MOL0     H 7739   8.943   2.754  10.833 -0.3115 -1.6252 -0.5153
  781MOL0     H 7740   9.418   2.590  10.459  2.6562 -0.2569 -0.3176
  781MOL0     H 7741   9.552   2.632  10.258  0.1044  0.5036 -1.4124
  781MOL0     H 7742   9.579   2.371   9.979  4.2710 -0.9192 -1.9193
  781MOL0     H 7743   9.513   2.454   9.837 -1.5137 -0.0004  0.9344
  781MOL0     H 7744   9.757   2.475   9.823  1.6441  0.1454  0.6355
  781MOL0     H 7745   9.695   2.629   9.884 -0.2108  0.8097  1.0702
  781MOL0     H 7746   9.735   2.470  10.120 -0.5783  0.7781 -0.0548
  781MOL0     H 7747   9.848   2.595  10.060 -1.6824 -0.0537  1.9392
  781MOL0     H 7748   9.951   2.382   9.927 -1.1487 -1.4223 -1.1382
  781MOL0     H 7749   9.853   2.284  10.031 -1.6529  1.0414  2.1886
  781MOL0     H 7750  10.033   2.500  10.132  1.5979 -0.3649  0.3520
  781MOL0     H 7751   9.942   2.382  10.227 -0.9833  1.6451 -1.2964
  781MOL0     H 7752  10.144   2.294  10.016  1.1098  3.1220  0.7694
  781MOL0     H 7753  10.055   2.188  10.133 -0.7379  0.3116  0.6674
  781MOL0     H 7754  10.222   2.182  10.269 -2.5546  1.4249  1.9147
  781MOL0     H 7755  10.202   2.353  10.291  0.2732  0.5043  0.3759
  781MOL0     H 7756  10.357   2.402  10.108 -1.5273  0.2843 -0.3133
  781MOL0     H 7757  10.401   2.227  10.090  1.0409  1.1329 -0.7573
  781MOL0     H 7758   9.281   2.435  10.011  0.6894  2.5349 -1.1893
  781MOL0     H 7759   9.145   2.353  10.223 -0.6236  0.3420  3.0867
  781MOL0     H 7760   9.119   2.265  10.614  3.3771  0.1696  0.1849
  781MOL0     H 7761   9.050   2.166  10.816  1.0286 -0.6411  0.5338
  781MOL0     H 7762   7.865   1.177  10.606 -0.9681 -1.7388 -2.1328
  781MOL0     H 7763   7.665   1.050  10.538 -2.0239  0.5224  0.0021
  781MOL0     H 7764   7.268   1.000  10.501 -1.3135  0.5607 -0.1183
  781MOL0     H 7765   7.101   0.875  10.392 -0.7614  0.7846  1.1869
  781MOL0     H 7766   7.080   0.487  10.333  2.3647 -3.4580  0.3671
  781MOL0     H 7767   7.113   0.433  10.494 -2.2202 -2.7544  0.9560
  781MOL0     H 7768   6.844   0.467  10.327  2.3826  1.2599 -0.7964
  781MOL0     H 7769   6.818   0.455  10.494  0.3216 -0.0153 -0.2811
  781MOL0     H 7770   6.924   0.259  10.295 -0.5261  3.2806 -1.2148
  781MOL0     H 7771   6.977   0.246  10.469  0.6636 -1.1317 -0.4276
  781MOL0     H 7772   6.677   0.242  10.370 -0.5513  0.5451  0.2428
  781MOL0     H 7773   6.717   0.248  10.537  1.3319  1.9078 -0.1937
  781MOL0     H 7774   6.740  -0.152  10.413 -1.0697  0.3542  0.1405
  781MOL0     H 7775   7.179   0.550  10.656  2.4641 -2.0542 -3.1067
  781MOL0     H 7776   7.474   0.597  10.732  1.0465  0.4738 -0.4776
  781MOL0     H 7777   7.416   0.693  10.876 -0.9208  1.2568  0.2005
  781MOL0     H 7778   7.320   0.560  10.815  0.4622  1.1456 -1.1995
  782MOL0     O 7779   7.531  11.015  10.062  0.0698 -0.6466  0.1378
  782MOL0     C 7780   7.503  10.931   9.975  0.1782  0.2211  0.1137
  782MOL0     O 7781   7.597  10.845   9.926 -0.3430 -0.0817 -0.0204
  782MOL0     C 7782   7.721  10.869   9.977 -0.2973  0.7234  0.2660
  782MOL0     C 7783   7.763  10.864  10.116 -0.7390  0.4655 -0.1073
  782MOL0     C 7784   7.895  10.897  10.161  0.0006 -0.2499  0.3709
  782MOL0     C 7785   7.992  10.912  10.060 -0.9716  0.0440  0.0865
  782MOL0     O 7786   8.119  10.946  10.094 -0.4024 -0.8515  0.9955
  782MOL0     C 7787   8.145  11.017  10.222  0.3673 -0.0864 -0.4962
  782MOL0     C 7788   8.290  11.063  10.228  0.4828 -0.1552  0.2988
  782MOL0     C 7789   8.305  11.182  10.130  0.2228 -0.6415  0.4447
  782MOL0     C 7790   8.451  11.229  10.137  0.5844 -0.4483  0.3060
  782MOL0     C 7791   8.472  11.329  10.024  0.8186  1.4672 -0.2013
  782MOL0     C 7792   8.614  11.390  10.021 -0.9093  0.7235  0.8848
  782MOL0     C 7793   8.723  11.278  10.013 -0.2164 -0.2436 -0.0498
  782MOL0     C 7794   8.864  11.344   9.986 -0.0942  0.5945  0.3902
  782MOL0     N 7795   8.981  11.272  10.038  0.4843 -0.3176  0.5784
  782MOL0     C 7796   9.040  11.162   9.982 -0.9120  0.0503 -0.5808
  782MOL0     C 7797   9.145  11.135  10.067  0.1694 -0.0915  0.3678
  782MOL0     C 7798   9.235  11.022  10.028  0.2470 -0.0964 -0.4969
  782MOL0     C 7799   9.322  10.982  10.150  0.4615 -0.2066  0.2867
  782MOL0     C 7800   9.450  11.064  10.171  0.1540  0.8280  0.5661
  782MOL0     C 7801   9.556  10.994  10.246  0.1961 -0.4931 -0.2385
  782MOL0     O 7802   9.608  10.885  10.168  0.3125 -0.4455  0.2238
  782MOL0     C 7803   9.731  10.851  10.225 -0.6280 -0.0553 -1.1565
  782MOL0     C 7804   9.744  10.735  10.309 -0.3694 -0.4244 -0.6437
  782MOL0     C 7805   9.863  10.702  10.371  0.5826  1.0390  0.1616
  782MOL0     C 7806   9.861  10.564  10.451 -0.9817 -0.1542  0.3463
  782MOL0     C 7807   9.983  10.778  10.354 -0.7145 -0.5493 -0.4643
  782MOL0     C 7808  10.118  10.745  10.399  0.6094 -0.5665  0.1420
  782MOL0     O 7809  10.216  10.844  10.375 -0.2385 -0.4602 -0.1924
  782MOL0     C 7810  10.348  10.811  10.366  0.0104 -0.1980  0.1439
  782MOL0     C 7811  10.446  10.908  10.383 -0.3204 -0.2329  0.8427
  782MOL0     C 7812  10.586  10.880  10.364 -0.2534  0.2949 -0.7316
  782MOL0     C 7813  10.628  10.749  10.329  0.4994 -0.3888  0.9679
  782MOL0     O 7814  10.771  10.740  10.313 -0.1127  0.6559 -0.1687
  782MOL0     C 7815  10.821  10.615  10.274  0.5681  0.2242 -0.1854
  782MOL0     C 7816  10.962  10.606  10.344 -0.1823  0.8287  0.4016
  782MOL0     C 7817  11.085  10.626  10.251  0.5800  0.0070  1.2242
  782MOL0     C 7818  11.224  10.601  10.326 -0.2400  0.2170  0.2209
  782MOL0     C 7819  11.344  10.605  10.237  0.6611 -0.4344 -0.4614
  782MOL0     C 7820  11.469  10.612  10.326 -0.2667 -0.4320 -0.8578
  782MOL0     C 7821  11.597  10.645  10.244  0.7308  0.4337 -0.4428
  782MOL0     C 7822  11.722  10.615  10.340  0.1315  0.6126  0.1386
  782MOL0    Cl 7823  11.712  10.718  10.485 -0.2894 -0.2154  0.2967
  782MOL0     C 7824  10.526  10.662  10.293 -0.1380 -0.6811  0.6947
  782MOL0     C 7825  10.392  10.686  10.314  0.7911  0.0166 -0.5536
  782MOL0     O 7826  10.136  10.642  10.461 -0.7258  0.0594 -0.0311
  782MOL0     C 7827   9.967  10.890  10.270  0.7078 -0.1374 -1.1616
  782MOL0     C 7828   9.846  10.928  10.202  0.6932 -0.6484  0.3013
  782MOL0     N 7829   9.164  11.244  10.154  0.6137  0.4872 -0.0417
  782MOL0     N 7830   9.062  11.323  10.134  0.2903  0.0968  0.3155
  782MOL0     C 7831   7.962  10.920   9.924  0.1299  0.5288  0.4514
  782MOL0     C 7832   7.822  10.896   9.887  0.2778  0.5680 -0.3457
  782MOL0     C 7833   7.366  10.908   9.931  0.9695 -0.1094  0.5244
  782MOL0     C 7834   7.349  10.814   9.828  0.1131 -0.2542  0.7442
  782MOL0     C 7835   7.222  10.807   9.755 -0.7401  0.0620  0.0211
  782MOL0     C 7836   7.115  10.874   9.796  0.4907 -0.2111  0.1765
  782MOL0     O 7837   7.000  10.838   9.731  0.1730  0.0817 -0.3132
  782MOL0     C 7838   6.882  10.918   9.758  0.1964 -0.6910 -1.0172
  782MOL0     C 7839   6.762  10.859   9.679 -0.1107  1.1717 -0.6076
  782MOL0     C 7840   6.629  10.896   9.734 -1.0649  0.2003  0.0931
  782MOL0     C 7841   6.524  10.861   9.621 -0.5584 -0.0438 -0.2209
  782MOL0     C 7842   6.428  10.972   9.606  0.3392 -0.2174 -0.2005
  782MOL0     C 7843   6.354  11.070   9.599  0.5908  1.1066  0.5205
  782MOL0     C 7844   7.129  10.960   9.906  0.0100 -0.4395  0.4139
  782MOL0     C 7845   7.254  10.977   9.980 -0.3098  0.5267  0.0797
  782MOL0     C 7846   7.258  11.079  10.094  0.4108  0.2208 -0.0609
  782MOL0     H 7847   7.682  10.830  10.181  0.3523 -0.5491  0.7769
  782MOL0     H 7848   7.927  10.889  10.264  0.5175  0.4805  0.2782
  782MOL0     H 7849   8.127  10.944  10.302 -0.2563 -1.2697 -1.6861
  782MOL0     H 7850   8.073  11.098  10.240 -4.0390 -3.7652  0.0557
  782MOL0     H 7851   8.307  11.097  10.331 -1.1944  0.4208  0.4198
  782MOL0     H 7852   8.363  10.985  10.207  2.4439  1.8866 -0.9742
  782MOL0     H 7853   8.283  11.143  10.030  0.2918  0.8607 -0.1813
  782MOL0     H 7854   8.230  11.260  10.147  0.2121 -0.7671  1.0081
  782MOL0     H 7855   8.473  11.288  10.227 -1.8475  0.3403  0.4415
  782MOL0     H 7856   8.521  11.145  10.136  1.0571 -0.1070  1.6951
  782MOL0     H 7857   8.402  11.409  10.048  1.8521  2.0791  0.8707
  782MOL0     H 7858   8.456  11.275   9.930  1.0928  0.7139  0.1745
  782MOL0     H 7859   8.627  11.442   9.926  4.1364  0.1444  0.9448
  782MOL0     H 7860   8.625  11.459  10.106 -1.1060 -0.1119  1.6050
  782MOL0     H 7861   8.699  11.200   9.940  2.6525 -1.7256  0.4318
  782MOL0     H 7862   8.723  11.230  10.111 -2.9052  0.8198  0.5659
  782MOL0     H 7863   8.860  11.361   9.878 -0.6242 -0.8948  0.1507
  782MOL0     H 7864   8.852  11.439  10.039 -1.5769  0.6088  0.0927
  782MOL0     H 7865   9.015  11.097   9.899  2.2322 -3.1329  0.7120
  782MOL0     H 7866   9.300  11.041   9.942 -1.7109 -0.2369 -2.0622
  782MOL0     H 7867   9.172  10.940   9.993  0.4166  0.0886 -1.2563
  782MOL0     H 7868   9.274  10.978  10.249 -1.7056 -0.8606 -0.7204
  782MOL0     H 7869   9.350  10.878  10.129 -1.0834 -0.5537 -0.1828
  782MOL0     H 7870   9.506  11.083  10.078  0.5273  0.3144  0.6781
  782MOL0     H 7871   9.432  11.153  10.231 -0.4377 -0.6396  2.6899
  782MOL0     H 7872   9.627  11.072  10.274  1.6814 -0.9381 -2.4661
  782MOL0     H 7873   9.511  10.952  10.336  2.1157 -0.3064  0.8726
  782MOL0     H 7874   9.670  10.657  10.322  1.1137 -1.7296  0.3994
  782MOL0     H 7875   9.760  10.543  10.487 -0.8429 -3.8628 -0.9777
  782MOL0     H 7876   9.932  10.565  10.535 -1.2212  0.6635  0.5521
  782MOL0     H 7877   9.877  10.485  10.377 -1.4814 -0.0874  0.1627
  782MOL0     H 7878  10.416  11.002  10.429  0.7395  1.9151 -2.4937
  782MOL0     H 7879  10.654  10.962  10.384 -0.3125  0.5805 -1.6624
  782MOL0     H 7880  10.759  10.537  10.321  3.0654 -1.9693 -0.2829
  782MOL0     H 7881  10.809  10.606  10.166 -0.8788  0.5413 -0.0719
  782MOL0     H 7882  10.975  10.685  10.419 -2.6905  0.4467  1.3518
  782MOL0     H 7883  10.974  10.505  10.383 -1.4380 -0.2929 -1.9304
  782MOL0     H 7884  11.069  10.729  10.217 -1.0427  0.9508  4.4594
  782MOL0     H 7885  11.059  10.559  10.169  1.5769 -0.6047  1.3902
  782MOL0     H 7886  11.211  10.501  10.367 -2.6746  0.0556 -0.7958
  782MOL0     H 7887  11.238  10.669  10.411 -0.7863 -0.2781  0.7218
  782MOL0     H 7888  11.352  10.515  10.176  2.0927  0.1188 -1.1479
  782MOL0     H 7889  11.332  10.688  10.167 -3.4691 -1.6295 -1.4725
  782MOL0     H 7890  11.484  10.512  10.368  0.0383 -0.5166 -1.1625
  782MOL0     H 7891  11.446  10.685  10.405 -0.1451 -1.3495  0.0500
  782MOL0     H 7892  11.604  10.752  10.220  2.1302  0.5676  0.4169
  782MOL0     H 7893  11.603  10.580  10.157 -0.0752 -2.0751  1.2847
  782MOL0     H 7894  11.810  10.647  10.282  0.1064  1.5728  0.6043
  782MOL0     H 7895  11.734  10.509  10.359 -1.5767  0.0769 -1.4298
  782MOL0     H 7896  10.555  10.563  10.259 -1.4384 -1.0909  0.7301
  782MOL0     H 7897  10.323  10.608  10.285  1.1826 -0.1505 -1.0576
  782MOL0     H 7898  10.055  10.950  10.249 -0.2572  0.8649 -2.5657
  782MOL0     H 7899   9.853  11.015  10.137  1.4643 -1.0699 -0.2035
  782MOL0     H 7900   8.028  10.936   9.839 -1.6729  0.4194 -1.0365
  782MOL0     H 7901   7.794  10.899   9.783 -2.3671  0.3593  0.2921
  782MOL0     H 7902   7.426  10.750   9.787 -0.2234  0.6503 -1.4388
  782MOL0     H 7903   7.225  10.742   9.668  3.5454 -0.4781  0.3199
  782MOL0     H 7904   6.862  10.919   9.866 -1.7362  2.5787 -1.2546
  782MOL0     H 7905   6.893  11.020   9.720 -4.2261 -0.3983 -2.1190
  782MOL0     H 7906   6.776  10.751   9.680 -1.6095  0.9302 -1.9299
  782MOL0     H 7907   6.767  10.895   9.576 -3.4057  1.7407 -0.6857
  782MOL0     H 7908   6.610  10.839   9.825 -0.8547  1.5473  0.9929
  782MOL0     H 7909   6.624  10.999   9.768 -1.4786  0.1266  0.2555
  782MOL0     H 7910   6.463  10.774   9.647 -1.7093  0.5602 -0.8212
  782MOL0     H 7911   6.569  10.839   9.523  2.5189 -0.4564  1.1736
  782MOL0     H 7912   6.300  11.162   9.595  4.0856  3.2744 -0.2298
  782MOL0     H 7913   7.042  11.023   9.923 -0.1107 -0.4543 -0.1328
  782MOL0     H 7914   7.311  11.041  10.182 -0.6643  2.5639  1.7169
  782MOL0     H 7915   7.298  11.178  10.073 -3.6238  1.7037 -1.7388
  782MOL0     H 7916   7.154  11.095  10.124 -0.6380 -2.7413 -1.7344
  783MOL0     O 7917   8.173   3.436   8.586 -0.1575 -0.0264 -0.4120
  783MOL0     C 7918   8.194   3.318   8.627  0.2194 -0.1888  0.1311
  783MOL0     O 7919   8.311   3.272   8.679 -0.1591  0.0238 -0.2058
  783MOL0     C 7920   8.409   3.348   8.729  0.1749 -0.7592  0.5725
  783MOL0     C 7921   8.524   3.276   8.763 -0.4985 -0.2465 -0.1282
  783MOL0     C 7922   8.633   3.336   8.826  0.0366 -0.6300  0.1967
  783MOL0     C 7923   8.639   3.475   8.838 -0.1722  0.1650  0.0086
  783MOL0     O 7924   8.735   3.556   8.899  0.4434  0.6765  0.3239
  783MOL0     C 7925   8.751   3.529   9.034  0.5728 -0.3549 -0.1403
  783MOL0     C 7926   8.895   3.551   9.069  0.0118  0.0927  0.0642
  783MOL0     C 7927   8.981   3.450   8.982  0.2839 -0.4735 -0.2313
  783MOL0     C 7928   9.122   3.428   9.036  0.3182 -0.5460  0.1291
  783MOL0     C 7929   9.218   3.536   8.980 -0.5185 -0.1829 -0.7429
  783MOL0     C 7930   9.358   3.550   9.045 -0.7359 -1.1040 -0.1100
  783MOL0     C 7931   9.353   3.626   9.179 -0.2626  0.5501 -1.2160
  783MOL0     C 7932   9.487   3.684   9.227 -0.3939  0.4531 -0.3036
  783MOL0     N 7933   9.588   3.576   9.224 -0.1135  0.6610  0.6852
  783MOL0     C 7934   9.695   3.557   9.146  0.2363  0.3642 -0.1173
  783MOL0     C 7935   9.774   3.467   9.202 -0.6458 -0.0507  0.1055
  783MOL0     C 7936   9.913   3.429   9.144 -0.0298 -0.2301 -0.1210
  783MOL0     C 7937  10.025   3.401   9.243 -0.3680 -0.1230  0.1502
  783MOL0     C 7938  10.164   3.392   9.172  0.0821  1.1912 -0.0191
  783MOL0     C 7939  10.282   3.346   9.259  0.5593 -0.8318 -0.4151
  783MOL0     O 7940  10.398   3.368   9.175 -0.2193  0.2542 -0.9560
  783MOL0     C 7941  10.513   3.314   9.231 -0.8057 -0.0033  0.3062
  783MOL0     C 7942  10.626   3.307   9.144 -0.6341  0.4484  0.2869
  783MOL0     C 7943  10.761   3.277   9.197  0.4400 -0.9631 -0.8947
  783MOL0     C 7944  10.886   3.285   9.108  0.2117 -0.2499  0.2326
  783MOL0     C 7945  10.780   3.259   9.338  0.6003  0.9210  0.5799
  783MOL0     C 7946  10.900   3.215   9.402 -0.6511 -1.2665  0.2311
  783MOL0     O 7947  11.000   3.155   9.330 -0.1535 -0.3832 -0.0605
  783MOL0     C 7948  11.122   3.104   9.371  0.5967  0.3231 -0.0920
  783MOL0     C 7949  11.204   3.041   9.278  0.2520 -0.7471 -0.6144
  783MOL0     C 7950  11.322   2.970   9.314  0.1535 -0.6953  0.4795
  783MOL0     C 7951  11.361   2.971   9.451  0.7299  0.1141  0.8959
  783MOL0     O 7952  11.473   2.900   9.479  0.5158 -0.1206  1.0783
  783MOL0     C 7953  11.486   2.839   9.610 -0.5937  0.2887 -0.5750
  783MOL0     C 7954  11.620   2.765   9.616  0.1157 -0.1895 -0.4151
  783MOL0     C 7955  11.730   2.867   9.602  0.3428  0.1828  0.0682
  783MOL0     C 7956  11.860   2.795   9.599 -0.4499  0.4306  0.3369
  783MOL0     C 7957  11.976   2.891   9.559  0.0617 -0.4851 -0.5230
  783MOL0     C 7958  12.114   2.828   9.549 -0.0509  0.8619 -0.4029
  783MOL0     C 7959  12.228   2.927   9.507  0.1214 -0.0891 -0.1876
  783MOL0     C 7960  12.365   2.869   9.492  0.4939  0.1586  0.8398
  783MOL0    Cl 7961  12.485   2.997   9.456 -0.1273 -0.0137  0.0560
  783MOL0     C 7962  11.283   3.043   9.542  0.1588  0.1231  0.1553
  783MOL0     C 7963  11.168   3.120   9.498 -0.6523 -0.5729 -0.5071
  783MOL0     O 7964  10.900   3.218   9.522 -0.4720  0.6574 -0.3642
  783MOL0     C 7965  10.660   3.254   9.418 -0.7304  0.6800  0.1916
  783MOL0     C 7966  10.536   3.282   9.364 -0.7229  0.1139  0.1704
  783MOL0     N 7967   9.714   3.425   9.316 -0.3159  0.2769 -0.1499
  783MOL0     N 7968   9.598   3.479   9.319  0.2234 -0.2064 -0.0549
  783MOL0     C 7969   8.528   3.548   8.799 -0.7551 -0.3101  0.2288
  783MOL0     C 7970   8.413   3.489   8.753  0.7344 -0.2827  0.8480
  783MOL0     C 7971   8.078   3.221   8.621  0.1169 -0.5866 -0.0179
  783MOL0     C 7972   8.061   3.127   8.720 -0.6945 -0.3449 -0.4131
  783MOL0     C 7973   7.952   3.032   8.717 -1.2322 -0.5492 -0.5498
  783MOL0     C 7974   7.865   3.023   8.616 -0.1553 -0.7765  0.3455
  783MOL0     O 7975   7.756   2.939   8.629 -0.6803 -0.3987  0.3925
  783MOL0     C 7976   7.664   2.923   8.517  0.5623 -0.7867 -0.7425
  783MOL0     C 7977   7.537   2.859   8.580  0.9229 -0.7491 -0.8245
  783MOL0     C 7978   7.475   2.944   8.688  1.1091 -0.4946  0.6060
  783MOL0     C 7979   7.344   2.888   8.739  0.2900 -0.2458  0.1738
  783MOL0     C 7980   7.221   2.926   8.661 -0.3651  0.6348  1.0109
  783MOL0     C 7981   7.125   2.941   8.594  0.6215 -0.4785 -0.3315
  783MOL0     C 7982   7.881   3.117   8.509  0.1646  0.8307 -0.2762
  783MOL0     C 7983   7.987   3.212   8.508  0.3187 -0.5996 -0.8526
  783MOL0     C 7984   8.009   3.295   8.384 -0.0955 -0.6436 -0.0880
  783MOL0     H 7985   8.533   3.169   8.754 -2.6507 -0.4441 -0.3196
  783MOL0     H 7986   8.719   3.281   8.864 -0.6049 -0.5529  1.8311
  783MOL0     H 7987   8.711   3.437   9.077 -0.0440 -1.4904 -2.8773
  783MOL0     H 7988   8.700   3.607   9.092 -0.5941  0.2854 -1.9379
  783MOL0     H 7989   8.920   3.657   9.063  1.5267 -0.2761 -1.0460
  783MOL0     H 7990   8.913   3.520   9.172 -2.6791  0.9378  0.8541
  783MOL0     H 7991   8.936   3.350   8.984  0.3172 -0.4712  0.7151
  783MOL0     H 7992   8.979   3.494   8.882 -3.9928  0.9912  0.2799
  783MOL0     H 7993   9.110   3.444   9.143  0.0400  1.9277 -0.2099
  783MOL0     H 7994   9.162   3.327   9.023  0.4913 -0.5497  0.6650
  783MOL0     H 7995   9.168   3.632   8.993  2.1159  1.1070  0.4922
  783MOL0     H 7996   9.225   3.511   8.874 -0.9657  1.4079 -1.1782
  783MOL0     H 7997   9.407   3.454   9.064  2.9583  1.2403  3.7726
  783MOL0     H 7998   9.416   3.601   8.968 -0.0818  0.0175  1.0931
  783MOL0     H 7999   9.308   3.565   9.258 -0.4932  1.8325 -0.3330
  783MOL0     H 8000   9.283   3.710   9.170  1.8315  2.3903 -1.1584
  783MOL0     H 8001   9.516   3.767   9.163  0.8431 -0.8935 -1.5557
  783MOL0     H 8002   9.483   3.716   9.332  3.6100  1.8768 -0.4215
  783MOL0     H 8003   9.722   3.596   9.048  0.3424 -0.5630 -0.4653
  783MOL0     H 8004   9.954   3.504   9.076  1.6238  1.1806  2.2841
  783MOL0     H 8005   9.901   3.338   9.084  0.3018  0.4078 -1.1901
  783MOL0     H 8006  10.034   3.476   9.323 -1.5918  3.3410 -2.6834
  783MOL0     H 8007  10.007   3.299   9.279  1.7435 -1.4476 -2.1989
  783MOL0     H 8008  10.147   3.321   9.091  0.6698 -1.7960  2.2923
  783MOL0     H 8009  10.194   3.483   9.119  3.1294  0.7535  0.7844
  783MOL0     H 8010  10.285   3.408   9.349 -0.6798 -0.2598 -0.7493
  783MOL0     H 8011  10.274   3.246   9.303  0.6377 -0.7812 -0.2818
  783MOL0     H 8012  10.613   3.331   9.039 -2.8548 -1.0196  0.1582
  783MOL0     H 8013  10.853   3.350   9.026  0.7147 -1.1721 -0.7318
  783MOL0     H 8014  10.919   3.184   9.084  2.2788 -0.2082  2.5356
  783MOL0     H 8015  10.966   3.326   9.169  0.1846 -1.4556  1.1129
  783MOL0     H 8016  11.152   3.027   9.184 -1.9736 -1.0566  0.5919
  783MOL0     H 8017  11.391   2.924   9.244 -2.0229 -0.3019 -2.0692
  783MOL0     H 8018  11.471   2.913   9.690 -0.8875  1.2014 -1.4516
  783MOL0     H 8019  11.411   2.761   9.625  0.0662 -0.0435  1.3523
  783MOL0     H 8020  11.623   2.708   9.709 -3.6698  2.3874  1.5708
  783MOL0     H 8021  11.624   2.698   9.530 -1.2228  0.4539 -1.0096
  783MOL0     H 8022  11.738   2.938   9.685  2.8187 -0.1391  0.1737
  783MOL0     H 8023  11.721   2.926   9.510 -1.9379 -1.3714 -0.8061
  783MOL0     H 8024  11.845   2.726   9.516 -1.1764  3.1578 -1.9535
  783MOL0     H 8025  11.874   2.753   9.699 -0.2552  0.6958  0.4250
  783MOL0     H 8026  11.959   2.934   9.460  1.8110  1.3641 -0.0901
  783MOL0     H 8027  11.987   2.968   9.635 -0.9092  3.3429 -3.9297
  783MOL0     H 8028  12.103   2.742   9.481 -0.6812  1.0623 -0.5709
  783MOL0     H 8029  12.136   2.784   9.646 -2.1335  1.2158  0.2831
  783MOL0     H 8030  12.235   3.000   9.588 -3.0180 -2.4291  2.4833
  783MOL0     H 8031  12.189   2.974   9.416 -1.9403  0.5831  0.9580
  783MOL0     H 8032  12.362   2.795   9.411  0.9484 -1.0459  1.8795
  783MOL0     H 8033  12.395   2.814   9.582 -2.2620 -2.4743  0.3304
  783MOL0     H 8034  11.307   3.050   9.647 -1.6302 -0.9384  0.6949
  783MOL0     H 8035  11.120   3.181   9.574 -1.3011 -2.2173  0.4572
  783MOL0     H 8036  10.662   3.223   9.522 -1.0486  1.2174  0.3598
  783MOL0     H 8037  10.459   3.285   9.440 -2.2444 -1.6396 -1.2168
  783MOL0     H 8038   8.510   3.653   8.822 -1.5661 -0.7212  1.5852
  783MOL0     H 8039   8.323   3.550   8.750 -0.5494 -2.0231  1.6620
  783MOL0     H 8040   8.109   3.135   8.817  0.7002  1.4211 -1.1914
  783MOL0     H 8041   7.939   2.965   8.801  2.0753 -0.6454  0.0547
  783MOL0     H 8042   7.635   3.011   8.459 -0.7399 -0.3195  0.5506
  783MOL0     H 8043   7.694   2.847   8.444 -0.3271 -3.3040  1.3534
  783MOL0     H 8044   7.563   2.760   8.620 -1.2967 -0.4898  1.5399
  783MOL0     H 8045   7.462   2.838   8.502 -2.0114  2.5145  0.8587
  783MOL0     H 8046   7.541   2.962   8.773  0.2363 -0.8164  1.3762
  783MOL0     H 8047   7.460   3.044   8.647  2.5164 -0.3258  0.4866
  783MOL0     H 8048   7.329   2.930   8.838  1.1388 -0.6497  0.4836
  783MOL0     H 8049   7.342   2.779   8.750 -1.1159 -0.2447  0.1182
  783MOL0     H 8050   7.041   2.960   8.531 -1.2465 -2.4451  1.3985
  783MOL0     H 8051   7.831   3.117   8.413  1.4376  0.0993 -0.9623
  783MOL0     H 8052   8.022   3.400   8.409 -2.5457 -0.7797  2.2655
  783MOL0     H 8053   8.103   3.259   8.339  0.9071  1.4714  0.2108
  783MOL0     H 8054   7.922   3.297   8.318  0.3037 -0.9778 -0.6391
  784MOL0     O 8055   1.084   4.607  10.010 -0.5896 -0.9275  0.3015
  784MOL0     C 8056   1.097   4.490  10.050 -0.4441 -0.1974  0.6348
  784MOL0     O 8057   0.993   4.420  10.098 -0.6675  0.3785  0.0711
  784MOL0     C 8058   0.871   4.476  10.100  0.3720 -0.1513 -0.5556
  784MOL0     C 8059   0.776   4.430  10.006 -0.1011 -0.4252  0.0227
  784MOL0     C 8060   0.640   4.468  10.013 -0.0035 -0.1503 -0.9821
  784MOL0     C 8061   0.596   4.533  10.127  0.7559  0.4386 -0.9416
  784MOL0     O 8062   0.466   4.553  10.140  1.0194 -0.6717  0.7011
  784MOL0     C 8063   0.424   4.548  10.272 -0.0176  0.6900 -0.1368
  784MOL0     C 8064   0.270   4.541  10.268 -0.0426  0.2479  1.2637
  784MOL0     C 8065   0.209   4.529  10.406  0.3286 -1.0094 -0.7333
  784MOL0     C 8066   0.262   4.414  10.493 -0.7587 -0.1496  0.2980
  784MOL0     C 8067   0.216   4.419  10.638 -0.5821 -0.3875 -0.0178
  784MOL0     C 8068   0.072   4.376  10.655  0.3089  0.4232 -0.5889
  784MOL0     C 8069   0.022   4.412  10.791 -0.2974  0.1257 -0.0915
  784MOL0     C 8070  -0.002   4.564  10.814 -0.5856  0.0786  0.8457
  784MOL0     N 8071  -0.063   4.594  10.947  1.1020 -0.6609  0.2639
  784MOL0     C 8072  -0.011   4.657  11.052  1.0578 -0.1082 -0.1667
  784MOL0     C 8073  -0.095   4.633  11.156 -0.9854  0.6518  0.0188
  784MOL0     C 8074  -0.083   4.674  11.300 -0.2642 -0.6770 -0.5630
  784MOL0     C 8075   0.052   4.672  11.372  0.3077 -0.0759 -0.6491
  784MOL0     C 8076   0.053   4.707  11.520  0.0982  0.1057 -0.8126
  784MOL0     C 8077   0.187   4.735  11.579 -0.7711 -0.1291  0.3184
  784MOL0     O 8078   0.247   4.851  11.513  0.4388  0.0488  0.6219
  784MOL0     C 8079   0.385   4.856  11.511  0.1274  0.0741  0.2799
  784MOL0     C 8080   0.446   4.949  11.424 -0.5534  0.4073 -0.2571
  784MOL0     C 8081   0.579   4.973  11.416  0.5010  0.9304 -0.2387
  784MOL0     C 8082   0.631   5.061  11.311 -0.3113 -0.1252 -0.2391
  784MOL0     C 8083   0.663   4.894  11.506  0.8309 -0.2096  0.2929
  784MOL0     C 8084   0.798   4.903  11.511 -0.1223 -0.2436  0.2563
  784MOL0     O 8085   0.867   4.780  11.499 -0.1336  0.1867  0.9097
  784MOL0     C 8086   1.006   4.787  11.510 -0.5107 -0.0416  0.0144
  784MOL0     C 8087   1.083   4.841  11.410 -0.3421  0.6894  0.0563
  784MOL0     C 8088   1.219   4.835  11.425  0.5461  0.6005 -0.2149
  784MOL0     C 8089   1.284   4.772  11.532 -0.8169 -0.5090 -0.4371
  784MOL0     O 8090   1.425   4.745  11.544  0.0623 -0.4551 -0.4037
  784MOL0     C 8091   1.502   4.776  11.428  0.5437 -0.8950 -0.2245
  784MOL0     C 8092   1.644   4.747  11.456  0.3606  0.3689  0.3985
  784MOL0     C 8093   1.700   4.605  11.432  1.3429 -0.2373  0.3526
  784MOL0     C 8094   1.711   4.572  11.284  0.3329 -0.2880  0.2786
  784MOL0     C 8095   1.864   4.559  11.235  0.9423  0.5306 -0.5675
  784MOL0     C 8096   1.876   4.539  11.087  0.2722  0.4280  0.4021
  784MOL0     C 8097   2.011   4.478  11.047  0.2694 -0.3505 -0.2139
  784MOL0     C 8098   2.042   4.491  10.904 -0.8002  1.3745 -0.6130
  784MOL0    Cl 8099   2.186   4.389  10.847 -0.0837 -0.1207 -0.4608
  784MOL0     C 8100   1.203   4.721  11.626  0.5748  0.5315 -0.2923
  784MOL0     C 8101   1.065   4.725  11.622 -0.5344 -0.2110  0.4592
  784MOL0     O 8102   0.853   5.011  11.516  0.1994 -0.1081  0.2127
  784MOL0     C 8103   0.606   4.798  11.588 -0.5240  0.4493 -0.3882
  784MOL0     C 8104   0.471   4.775  11.588 -0.3790 -0.1591  0.2977
  784MOL0     N 8105  -0.194   4.545  11.116  0.2621 -0.0336 -0.7031
  784MOL0     N 8106  -0.174   4.533  10.987 -0.0693  0.1506 -0.4330
  784MOL0     C 8107   0.691   4.575  10.222 -0.2059 -0.5474  0.0139
  784MOL0     C 8108   0.826   4.539  10.219 -0.6574  0.3497 -1.5444
  784MOL0     C 8109   1.234   4.436  10.063 -0.2185  0.0020 -0.0731
  784MOL0     C 8110   1.257   4.341  10.157  0.1771  0.5480 -0.3527
  784MOL0     C 8111   1.382   4.277  10.175  0.6261  0.0977 -0.1821
  784MOL0     C 8112   1.488   4.311  10.098 -0.0652 -0.1179 -0.6938
  784MOL0     O 8113   1.599   4.230  10.090  0.0556  0.6409 -0.5244
  784MOL0     C 8114   1.606   4.127  10.189  0.1992  0.6155 -0.0536
  784MOL0     C 8115   1.750   4.073  10.204  0.1640 -0.1330  0.1665
  784MOL0     C 8116   1.853   4.197  10.225  0.4175  0.2514  0.4873
  784MOL0     C 8117   1.995   4.152  10.258 -0.1634 -0.1482 -0.1493
  784MOL0     C 8118   2.071   4.089  10.149 -0.2318 -0.4843 -0.5730
  784MOL0     C 8119   2.117   4.036  10.053 -0.3727 -0.1546 -0.9618
  784MOL0     C 8120   1.471   4.411  10.000  0.0446  0.4878  0.8110
  784MOL0     C 8121   1.343   4.470   9.976 -0.5008 -0.8046 -0.4899
  784MOL0     C 8122   1.333   4.584   9.872  0.1902 -0.6853 -0.1271
  784MOL0     H 8123   0.819   4.383   9.917  0.5152  0.8763 -0.3948
  784MOL0     H 8124   0.562   4.433   9.946 -0.8283  0.6990 -0.4989
  784MOL0     H 8125   0.446   4.627  10.344  1.4478 -0.4162  0.6764
  784MOL0     H 8126   0.477   4.458  10.305 -2.6437 -2.5257 -3.7851
  784MOL0     H 8127   0.234   4.630  10.215  0.1627 -0.3901  0.0185
  784MOL0     H 8128   0.238   4.448  10.220 -1.9857  0.2559  2.4434
  784MOL0     H 8129   0.233   4.622  10.457  2.0461 -1.3031 -0.9200
  784MOL0     H 8130   0.100   4.525  10.400  0.2736 -0.1489 -0.3580
  784MOL0     H 8131   0.241   4.321  10.440  2.2601  0.9083 -3.2485
  784MOL0     H 8132   0.371   4.404  10.491 -0.9591 -2.7880  0.0695
  784MOL0     H 8133   0.225   4.523  10.671  0.1645 -0.5637  0.3587
  784MOL0     H 8134   0.287   4.361  10.698 -1.6430 -0.9090  0.7654
  784MOL0     H 8135   0.009   4.420  10.577  0.9717  0.4107 -1.1435
  784MOL0     H 8136   0.065   4.267  10.648 -1.5901  0.4969 -0.5240
  784MOL0     H 8137   0.097   4.386  10.866 -0.8812  1.5588  1.0485
  784MOL0     H 8138  -0.066   4.357  10.824 -0.6545  1.1744  0.7461
  784MOL0     H 8139   0.090   4.622  10.804  0.0028 -1.1707 -2.2478
  784MOL0     H 8140  -0.061   4.611  10.734 -0.4634  0.2598  0.8610
  784MOL0     H 8141   0.086   4.704  11.043  0.7359  0.5226 -0.4266
  784MOL0     H 8142  -0.136   4.595  11.354  0.8111 -1.8159 -1.1220
  784MOL0     H 8143  -0.123   4.775  11.314  0.3788  0.1295 -3.7623
  784MOL0     H 8144   0.089   4.570  11.364 -3.4145 -1.7587  0.9977
  784MOL0     H 8145   0.112   4.747  11.319  0.6928  1.7160  2.1378
  784MOL0     H 8146  -0.011   4.794  11.540 -0.7946 -1.1327  2.2009
  784MOL0     H 8147   0.009   4.621  11.571 -1.8810  1.9739  0.8781
  784MOL0     H 8148   0.167   4.752  11.685  1.1123  0.5149  0.6035
  784MOL0     H 8149   0.248   4.646  11.566 -0.0845  0.0238  2.1763
  784MOL0     H 8150   0.378   5.021  11.380 -2.8410  0.6842  3.3075
  784MOL0     H 8151   0.630   5.165  11.347 -1.1969 -0.3952  0.5492
  784MOL0     H 8152   0.573   5.050  11.218 -1.3356 -0.9250  0.4704
  784MOL0     H 8153   0.734   5.041  11.280 -0.5889 -0.4087 -1.0048
  784MOL0     H 8154   1.029   4.901  11.338  0.0003  2.1045  0.9494
  784MOL0     H 8155   1.284   4.882  11.351 -0.4971  1.8087 -0.3937
  784MOL0     H 8156   1.478   4.725  11.335  1.7215 -0.7177 -0.6409
  784MOL0     H 8157   1.494   4.884  11.412  3.0898 -0.1709  2.4736
  784MOL0     H 8158   1.693   4.807  11.380 -2.9623  1.2618 -1.2244
  784MOL0     H 8159   1.671   4.783  11.556 -0.4616  0.0943  0.7342
  784MOL0     H 8160   1.650   4.523  11.485 -0.6262  1.0645  0.5928
  784MOL0     H 8161   1.799   4.615  11.478  0.7302 -0.3352  1.7616
  784MOL0     H 8162   1.665   4.652  11.225  1.2536 -1.1151 -1.6790
  784MOL0     H 8163   1.652   4.484  11.255  0.6304 -1.2013  2.2588
  784MOL0     H 8164   1.901   4.658  11.266 -1.7942  0.4190  4.1286
  784MOL0     H 8165   1.910   4.483  11.299 -1.9860 -1.9975 -1.1975
  784MOL0     H 8166   1.862   4.633  11.033 -0.3593  0.2025  0.1685
  784MOL0     H 8167   1.805   4.461  11.057 -1.3613  1.3407  1.7011
  784MOL0     H 8168   2.011   4.374  11.083  0.9283  0.0875  1.1525
  784MOL0     H 8169   2.089   4.534  11.100 -0.7197  2.2310 -1.3369
  784MOL0     H 8170   2.041   4.588  10.854 -0.1808  0.5228 -2.3318
  784MOL0     H 8171   1.960   4.439  10.853 -0.1650 -1.1841  0.8174
  784MOL0     H 8172   1.254   4.672  11.708 -0.2202 -5.6618 -2.9573
  784MOL0     H 8173   1.009   4.678  11.702  0.3975 -0.6753  0.8550
  784MOL0     H 8174   0.676   4.746  11.652  1.1659  0.8197 -1.8527
  784MOL0     H 8175   0.436   4.710  11.667  1.6437 -1.8652 -0.1226
  784MOL0     H 8176   0.650   4.622  10.310 -0.5424 -2.4190  0.9102
  784MOL0     H 8177   0.893   4.555  10.303 -0.7024 -0.6705 -1.3039
  784MOL0     H 8178   1.177   4.307  10.223 -0.3655  1.7279 -0.3759
  784MOL0     H 8179   1.380   4.211  10.261  0.5513  1.5915  0.9869
  784MOL0     H 8180   1.599   4.182  10.284  2.2732  1.9620 -0.6058
  784MOL0     H 8181   1.534   4.045  10.182  0.8260  0.1560 -1.6718
  784MOL0     H 8182   1.763   4.005  10.120 -2.5263  1.1002 -1.3635
  784MOL0     H 8183   1.744   4.006  10.291  0.6293 -1.2793 -0.6589
  784MOL0     H 8184   1.859   4.250  10.129  0.9474 -2.5192 -1.0979
  784MOL0     H 8185   1.818   4.262  10.306 -1.1163 -1.6560  1.4520
  784MOL0     H 8186   1.996   4.076  10.337  2.4883 -0.8586 -0.7834
  784MOL0     H 8187   2.052   4.240  10.289  1.9238 -2.0938  1.9677
  784MOL0     H 8188   2.165   3.997   9.965 -0.7080 -0.6331 -0.9344
  784MOL0     H 8189   1.542   4.440   9.923 -2.4068 -1.3157 -2.3924
  784MOL0     H 8190   1.271   4.554   9.787  1.7478 -1.0193 -1.1822
  784MOL0     H 8191   1.283   4.675   9.908 -0.6009 -0.6315 -1.3206
  784MOL0     H 8192   1.436   4.610   9.844  1.2917 -2.1869  2.1707
  785MOL0     O 8193   4.705  10.282   6.498 -0.0579 -0.5030 -0.8631
  785MOL0     C 8194   4.654  10.287   6.381  0.2452 -0.3570 -0.5656
  785MOL0     O 8195   4.718  10.296   6.273  0.1599 -0.4252  0.6186
  785MOL0     C 8196   4.853  10.282   6.254  0.6981  0.3622 -0.9136
  785MOL0     C 8197   4.940  10.356   6.328 -0.3985 -0.2195 -0.3130
  785MOL0     C 8198   5.077  10.345   6.307  0.6773  0.6588 -0.4527
  785MOL0     C 8199   5.133  10.276   6.200  0.0228  0.1375 -0.1071
  785MOL0     O 8200   5.266  10.277   6.191 -0.0456 -0.2392 -0.1643
  785MOL0     C 8201   5.339  10.169   6.125  0.2207 -0.7303 -0.7368
  785MOL0     C 8202   5.476  10.159   6.187  0.0366  0.3786  0.2912
  785MOL0     C 8203   5.573  10.276   6.161 -0.2034  0.2258  0.1450
  785MOL0     C 8204   5.592  10.311   6.011  0.1622  0.9998  0.3942
  785MOL0     C 8205   5.714  10.389   5.986  0.2771  0.4639  0.2744
  785MOL0     C 8206   5.848  10.321   5.954  0.0616  0.0823  0.1731
  785MOL0     C 8207   5.935  10.309   6.088 -0.7944  0.7422  0.0305
  785MOL0     C 8208   6.068  10.220   6.072 -0.2466  0.0588 -0.6596
  785MOL0     N 8209   6.147  10.241   6.190  0.2828 -0.0695 -0.2726
  785MOL0     C 8210   6.132  10.162   6.304  0.9481 -0.6271 -0.4313
  785MOL0     C 8211   6.227  10.213   6.391 -0.0521 -0.4427 -0.0197
  785MOL0     C 8212   6.255  10.160   6.528  0.8222 -0.0490 -0.1870
  785MOL0     C 8213   6.402  10.187   6.563 -0.0749 -0.5714  0.0359
  785MOL0     C 8214   6.514  10.124   6.484 -0.3120  0.1067 -0.6909
  785MOL0     C 8215   6.654  10.169   6.517  0.4954  0.2625 -0.1565
  785MOL0     O 8216   6.696  10.149   6.655  0.2623 -0.1753 -0.2483
  785MOL0     C 8217   6.817  10.193   6.699  0.0335  0.0898  0.1888
  785MOL0     C 8218   6.892  10.290   6.629 -0.5410  0.5390  0.1123
  785MOL0     C 8219   7.000  10.350   6.690  0.4622  0.3093  0.1154
  785MOL0     C 8220   7.059  10.467   6.625  0.1250  0.2684  0.3870
  785MOL0     C 8221   7.050  10.305   6.820 -0.6062 -0.4514 -0.0944
  785MOL0     C 8222   7.162  10.370   6.901  0.5586  0.4136 -0.8364
  785MOL0     O 8223   7.208  10.301   7.011 -0.3950 -0.2637 -0.1512
  785MOL0     C 8224   7.325  10.342   7.072 -0.4131 -0.2787 -0.3636
  785MOL0     C 8225   7.449  10.331   7.011  0.6185  0.4480 -0.3969
  785MOL0     C 8226   7.566  10.371   7.086  0.5729  0.4540  0.2254
  785MOL0     C 8227   7.568  10.429   7.207  0.5231 -0.9531  0.8727
  785MOL0     O 8228   7.694  10.457   7.263  0.1914 -0.6261  0.7092
  785MOL0     C 8229   7.721  10.416   7.396 -0.1941 -0.5119  0.0908
  785MOL0     C 8230   7.859  10.444   7.451  0.6402 -0.1761 -0.0795
  785MOL0     C 8231   7.896  10.357   7.574  0.2461 -0.4753  0.0246
  785MOL0     C 8232   8.020  10.420   7.647  0.5186 -0.0005 -0.7993
  785MOL0     C 8233   8.052  10.357   7.777  0.2654  0.3626  0.2899
  785MOL0     C 8234   8.106  10.203   7.767 -0.4488  0.2861  0.4367
  785MOL0     C 8235   8.121  10.155   7.903 -0.1459  0.7737 -0.4877
  785MOL0     C 8236   8.229  10.040   7.915  1.1903  0.1631 -0.0688
  785MOL0    Cl 8237   8.379  10.128   7.919  0.1845 -0.1127  0.1913
  785MOL0     C 8238   7.443  10.434   7.271 -0.8481 -0.2505 -0.7271
  785MOL0     C 8239   7.321  10.394   7.204  0.0439  0.3830 -0.7674
  785MOL0     O 8240   7.201  10.483   6.874  0.4905 -0.3876  0.1446
  785MOL0     C 8241   6.969  10.210   6.880 -0.0163 -0.6985  0.7641
  785MOL0     C 8242   6.856  10.155   6.820 -0.4755  0.0036 -0.3780
  785MOL0     N 8243   6.305  10.312   6.329  0.3296 -0.0800  0.6459
  785MOL0     N 8244   6.254  10.328   6.211 -0.3640 -0.7636  0.0770
  785MOL0     C 8245   5.046  10.213   6.104  0.4184  0.2560  0.2083
  785MOL0     C 8246   4.905  10.215   6.139 -0.4381  0.5314 -0.0721
  785MOL0     C 8247   4.502  10.298   6.366 -0.0123  0.8874 -0.5921
  785MOL0     C 8248   4.419  10.273   6.480  0.0750 -0.5659 -0.5100
  785MOL0     C 8249   4.280  10.279   6.471 -0.3513 -0.3417  0.1298
  785MOL0     C 8250   4.223  10.307   6.349 -1.1374  0.5144 -0.3329
  785MOL0     O 8251   4.086  10.304   6.346  0.5435  0.0468 -0.3371
  785MOL0     C 8252   4.024  10.302   6.215  0.6073  0.4568 -0.1477
  785MOL0     C 8253   3.891  10.242   6.240  0.4285 -0.0026 -0.6627
  785MOL0     C 8254   3.780  10.339   6.293  0.0389 -0.0740 -0.8353
  785MOL0     C 8255   3.806  10.400   6.433 -0.5970 -0.6351  0.2172
  785MOL0     C 8256   3.685  10.466   6.484  0.9866 -0.4888  0.1599
  785MOL0     C 8257   3.570  10.494   6.528  1.0655 -0.1269 -0.6694
  785MOL0     C 8258   4.302  10.331   6.235 -0.6678 -0.2063  0.1574
  785MOL0     C 8259   4.438  10.320   6.240 -0.6497 -0.3230  0.1489
  785MOL0     C 8260   4.518  10.353   6.119 -0.0889  0.4513  0.4313
  785MOL0     H 8261   4.900  10.422   6.404 -2.1735 -2.8333  1.1867
  785MOL0     H 8262   5.139  10.402   6.376  0.9021  1.3073 -1.1702
  785MOL0     H 8263   5.355  10.177   6.017  0.2874 -1.6974 -0.8084
  785MOL0     H 8264   5.295  10.071   6.146  0.8421 -0.6566  1.0476
  785MOL0     H 8265   5.476  10.139   6.294  2.4243 -1.8378 -0.0032
  785MOL0     H 8266   5.525  10.073   6.139  1.7620  1.9562 -0.9196
  785MOL0     H 8267   5.545  10.356   6.231 -0.3484 -1.8454  2.5999
  785MOL0     H 8268   5.662  10.240   6.213  1.0140  0.1998 -1.8813
  785MOL0     H 8269   5.597  10.215   5.958  1.2009  0.4359  1.4702
  785MOL0     H 8270   5.507  10.374   5.983 -0.9320 -1.1614 -1.4723
  785MOL0     H 8271   5.722  10.463   6.066 -1.3020  2.7020 -1.4944
  785MOL0     H 8272   5.703  10.454   5.899  3.1508 -0.1799 -0.6697
  785MOL0     H 8273   5.836  10.219   5.917 -1.0877 -0.1045  1.0245
  785MOL0     H 8274   5.907  10.382   5.885 -2.0142 -0.5600 -2.2644
  785MOL0     H 8275   5.865  10.263   6.158  0.0029  0.6990  0.8199
  785MOL0     H 8276   5.961  10.407   6.128  0.7940 -0.4685  2.1669
  785MOL0     H 8277   6.044  10.115   6.059 -2.2477  0.1993  1.2396
  785MOL0     H 8278   6.123  10.242   5.980 -1.0780  1.4897 -0.8496
  785MOL0     H 8279   6.062  10.082   6.324 -0.0746 -0.0392 -1.5404
  785MOL0     H 8280   6.227  10.054   6.535  1.3272 -0.3498 -2.1115
  785MOL0     H 8281   6.201  10.220   6.602  1.6230 -0.7646  1.0193
  785MOL0     H 8282   6.414  10.296   6.566  1.5175 -0.7027 -0.3807
  785MOL0     H 8283   6.422  10.159   6.667  0.6372  0.6391  0.2570
  785MOL0     H 8284   6.517  10.020   6.516  0.6338  0.1980 -0.4557
  785MOL0     H 8285   6.496  10.136   6.377  0.9476  2.9812 -0.6673
  785MOL0     H 8286   6.724  10.107   6.460  0.4532  0.4769 -0.4448
  785MOL0     H 8287   6.655  10.275   6.488  0.9333  0.8085  1.7155
  785MOL0     H 8288   6.866  10.325   6.529 -0.7513  0.9837  0.3215
  785MOL0     H 8289   7.017  10.481   6.526  0.6825 -0.8050 -0.0200
  785MOL0     H 8290   7.162  10.437   6.600  0.1310  0.8735 -0.3291
  785MOL0     H 8291   7.069  10.561   6.679 -1.5256  0.2722  0.7199
  785MOL0     H 8292   7.451  10.302   6.907  0.9814  3.2912 -1.2837
  785MOL0     H 8293   7.659  10.358   7.032 -0.6418 -1.6119 -1.5630
  785MOL0     H 8294   7.651  10.462   7.466  0.2269  0.4834 -0.1324
  785MOL0     H 8295   7.717  10.307   7.403  1.3246 -0.5365  0.9146
  785MOL0     H 8296   7.932  10.431   7.371 -0.3339  1.9576 -1.4207
  785MOL0     H 8297   7.854  10.548   7.487 -1.1403 -0.4162  0.4420
  785MOL0     H 8298   7.908  10.258   7.529  2.2477 -0.8030  1.1165
  785MOL0     H 8299   7.806  10.359   7.636  0.1546 -0.8379 -0.0904
  785MOL0     H 8300   8.004  10.528   7.659 -3.6351 -0.3781 -1.4703
  785MOL0     H 8301   8.106  10.422   7.580  0.8664  0.2387 -0.3559
  785MOL0     H 8302   8.131  10.410   7.831 -1.3522  1.2602  1.8555
  785MOL0     H 8303   7.971  10.361   7.850  0.8261  2.7035  0.8595
  785MOL0     H 8304   8.206  10.192   7.724 -0.2912 -0.4324  0.9745
  785MOL0     H 8305   8.039  10.145   7.703  0.1334  0.8126 -0.6917
  785MOL0     H 8306   8.027  10.110   7.937  0.5450 -0.9760 -0.8038
  785MOL0     H 8307   8.154  10.236   7.970 -0.4652  1.1927 -0.8299
  785MOL0     H 8308   8.225   9.974   7.828  0.7493  1.7108 -1.2628
  785MOL0     H 8309   8.217   9.978   8.005  1.6123 -0.1510 -0.2254
  785MOL0     H 8310   7.442  10.471   7.373 -1.1650 -0.6266 -0.5913
  785MOL0     H 8311   7.233  10.423   7.260  1.1588  2.4523  0.0154
  785MOL0     H 8312   6.996  10.190   6.983 -2.8310  0.8481  1.9356
  785MOL0     H 8313   6.806  10.081   6.881  1.6109 -0.0822  1.3635
  785MOL0     H 8314   5.076  10.157   6.017 -0.9771  2.2937 -1.6842
  785MOL0     H 8315   4.842  10.161   6.068  1.8275 -1.1565 -0.9262
  785MOL0     H 8316   4.463  10.245   6.575 -1.0606  0.0341  0.2160
  785MOL0     H 8317   4.223  10.263   6.562 -0.5076  1.1668  0.3185
  785MOL0     H 8318   4.022  10.396   6.158 -0.1030 -0.5429 -1.8715
  785MOL0     H 8319   4.083  10.233   6.154  1.5952  0.6078  0.6233
  785MOL0     H 8320   3.910  10.162   6.311  1.6966  1.3663  0.6180
  785MOL0     H 8321   3.872  10.202   6.140 -0.3170  1.2695 -1.0643
  785MOL0     H 8322   3.774  10.425   6.226  0.7537  1.1770  0.6589
  785MOL0     H 8323   3.683  10.289   6.301  0.8609 -1.5158  0.8228
  785MOL0     H 8324   3.888  10.471   6.419 -0.6648 -0.0870  2.1707
  785MOL0     H 8325   3.834  10.320   6.503  0.7383  0.4500  0.9630
  785MOL0     H 8326   3.472  10.516   6.565  1.3770 -0.0763  0.1595
  785MOL0     H 8327   4.262  10.356   6.137  1.3159  0.8616 -0.4443
  785MOL0     H 8328   4.584  10.271   6.089  2.4669  2.0443  1.4670
  785MOL0     H 8329   4.455  10.376   6.033  0.9806 -2.4458 -1.2708
  785MOL0     H 8330   4.589  10.434   6.133  1.6503 -0.9256 -0.1071
  786MOL0     O 8331   7.032  10.055   3.944  0.3193 -0.9967  0.0225
  786MOL0     C 8332   7.062   9.960   4.016  0.0386 -0.3901  0.9205
  786MOL0     O 8333   7.186   9.941   4.060 -0.2350  1.1480  0.2127
  786MOL0     C 8334   7.277  10.042   4.038 -0.0047 -0.0474  0.1093
  786MOL0     C 8335   7.390  10.024   3.962  0.3634  0.1150  0.0757
  786MOL0     C 8336   7.498  10.122   3.957 -1.0469 -0.4470 -0.3110
  786MOL0     C 8337   7.495  10.243   4.035  0.3114  0.1002 -1.0767
  786MOL0     O 8338   7.598  10.332   4.050  0.6344 -0.0981  0.4724
  786MOL0     C 8339   7.734  10.288   4.035  1.2165  0.2952 -0.5415
  786MOL0     C 8340   7.833  10.400   4.041  0.8877 -0.4198  0.3234
  786MOL0     C 8341   7.973  10.346   4.058  0.0144  0.5132  0.2062
  786MOL0     C 8342   8.085  10.456   4.073  0.6154 -0.5402  0.1842
  786MOL0     C 8343   8.067  10.543   4.190  0.7876 -0.3489 -0.3974
  786MOL0     C 8344   8.152  10.671   4.178 -0.3100 -0.2143 -0.1428
  786MOL0     C 8345   8.122  10.757   4.308  0.0180  0.1879  0.1853
  786MOL0     C 8346   8.222  10.865   4.322 -1.7253 -0.1439 -0.1341
  786MOL0     N 8347   8.362  10.825   4.353 -0.0885 -0.3828  0.3096
  786MOL0     C 8348   8.400  10.724   4.442 -0.3272  0.1598  0.2134
  786MOL0     C 8349   8.536  10.732   4.447 -0.1122 -0.9878 -0.1828
  786MOL0     C 8350   8.610  10.643   4.535 -0.0447  0.2063 -0.0694
  786MOL0     C 8351   8.726  10.568   4.465 -0.4652 -0.0634  0.0326
  786MOL0     C 8352   8.862  10.633   4.473  0.4852 -0.6215  0.1732
  786MOL0     C 8353   8.960  10.592   4.363 -0.2189  0.3840 -0.0722
  786MOL0     O 8354   9.096  10.599   4.404  0.8500  0.0941 -0.0420
  786MOL0     C 8355   9.177  10.490   4.372 -0.2513 -0.1737 -0.1046
  786MOL0     C 8356   9.159  10.355   4.408  0.2816 -0.4189  0.6729
  786MOL0     C 8357   9.248  10.258   4.360  0.1805  0.4389 -0.1283
  786MOL0     C 8358   9.220  10.112   4.390 -0.8768  0.1017  0.0693
  786MOL0     C 8359   9.363  10.289   4.292  0.1735  0.2202  0.9192
  786MOL0     C 8360   9.464  10.199   4.244 -0.1200  0.2931  0.8166
  786MOL0     O 8361   9.503  10.107   4.343 -0.6380 -0.3005  0.4385
  786MOL0     C 8362   9.557   9.986   4.296 -0.0243 -0.8305 -0.6813
  786MOL0     C 8363   9.494   9.902   4.195  0.4752 -1.3118 -0.2296
  786MOL0     C 8364   9.541   9.774   4.168 -1.5566  0.6030  0.3706
  786MOL0     C 8365   9.659   9.726   4.231  0.5632 -0.1280  0.3866
  786MOL0     O 8366   9.700   9.604   4.195  0.2486  0.1157 -0.1539
  786MOL0     C 8367   9.830   9.566   4.244 -0.0104 -0.3795  0.2845
  786MOL0     C 8368   9.861   9.429   4.196  0.2407  0.0381 -0.1793
  786MOL0     C 8369  10.010   9.398   4.176 -0.0275  0.1248  0.4146
  786MOL0     C 8370  10.084   9.409   4.315 -0.1994 -0.2069  0.1438
  786MOL0     C 8371  10.236   9.382   4.298 -0.3282 -0.3347  0.3800
  786MOL0     C 8372  10.281   9.235   4.288  0.2043 -0.2619 -0.2272
  786MOL0     C 8373  10.428   9.214   4.268  0.4032  0.9110  0.3286
  786MOL0     C 8374  10.445   9.070   4.244 -0.5051 -0.0860  0.0757
  786MOL0    Cl 8375  10.623   9.041   4.222 -0.0016 -0.2624 -0.0571
  786MOL0     C 8376   9.714   9.811   4.325 -0.6085  0.0719 -0.0580
  786MOL0     C 8377   9.664   9.939   4.365  0.7990  0.1749 -0.8848
  786MOL0     O 8378   9.514  10.213   4.131  0.0917  0.4490 -0.1679
  786MOL0     C 8379   9.371  10.419   4.236 -0.3490  0.5963 -0.2605
  786MOL0     C 8380   9.286  10.519   4.284  0.2834 -0.1734  0.5179
  786MOL0     N 8381   8.583  10.818   4.352 -0.2829 -0.2372 -0.0320
  786MOL0     N 8382   8.475  10.875   4.307 -0.4216 -0.4777 -0.8497
  786MOL0     C 8383   7.374  10.258   4.109  0.6185  0.5966  0.0488
  786MOL0     C 8384   7.273  10.161   4.107  0.7571  0.1624  1.2101
  786MOL0     C 8385   6.956   9.867   4.050  0.0381 -0.1142  0.0580
  786MOL0     C 8386   6.983   9.783   4.159 -0.2918 -0.1049  0.1375
  786MOL0     C 8387   6.891   9.689   4.205 -0.3572  0.4122 -0.2398
  786MOL0     C 8388   6.768   9.668   4.137 -0.6735 -0.5771 -0.3293
  786MOL0     O 8389   6.694   9.562   4.180  0.0283  0.2440 -0.0074
  786MOL0     C 8390   6.634   9.486   4.080  0.1125  0.5809  0.4350
  786MOL0     C 8391   6.506   9.539   4.026  0.1136  0.0586  0.7131
  786MOL0     C 8392   6.403   9.414   4.033 -0.5432  0.4887  0.5369
  786MOL0     C 8393   6.264   9.467   3.986 -0.0455 -0.5524 -0.5578
  786MOL0     C 8394   6.152   9.384   4.020  0.4033  0.8335  0.0778
  786MOL0     C 8395   6.054   9.311   4.037 -0.7731 -0.4940  1.0333
  786MOL0     C 8396   6.730   9.765   4.034 -1.0233  0.0373 -0.4962
  786MOL0     C 8397   6.832   9.850   3.980 -0.2313 -0.4205 -0.1147
  786MOL0     C 8398   6.791   9.931   3.862 -0.2951 -0.1587  0.8469
  786MOL0     H 8399   7.401   9.933   3.904 -0.1769  1.6897 -2.6534
  786MOL0     H 8400   7.587  10.103   3.898 -1.0962 -2.7137  0.2733
  786MOL0     H 8401   7.749  10.235   3.941 -1.3604  0.4661 -1.1257
  786MOL0     H 8402   7.737  10.221   4.122 -0.7698  0.4976 -0.2523
  786MOL0     H 8403   7.837  10.468   3.955  2.2729 -1.6894 -0.6926
  786MOL0     H 8404   7.787  10.466   4.115 -1.5023  0.2921 -1.6642
  786MOL0     H 8405   7.972  10.276   4.141  1.2832  1.6320  1.2063
  786MOL0     H 8406   7.997  10.286   3.970 -0.7427 -0.0230  0.3531
  786MOL0     H 8407   8.178  10.399   4.070  0.8712 -0.1399 -2.9775
  786MOL0     H 8408   8.073  10.524   3.987  0.0259  1.4705  1.7775
  786MOL0     H 8409   8.092  10.498   4.287 -1.5680 -1.0277 -0.0255
  786MOL0     H 8410   7.964  10.578   4.201  0.9688 -0.5696  3.1923
  786MOL0     H 8411   8.258  10.643   4.173 -0.4422 -0.5393 -1.2131
  786MOL0     H 8412   8.132  10.720   4.083  0.1837 -0.3438 -0.3158
  786MOL0     H 8413   8.120  10.695   4.397  1.4425  2.8155  2.1666
  786MOL0     H 8414   8.025  10.808   4.301  0.6147  1.3815  0.5027
  786MOL0     H 8415   8.225  10.930   4.234  0.3154 -0.5886 -0.4559
  786MOL0     H 8416   8.199  10.923   4.412 -1.3645 -2.0296  1.2412
  786MOL0     H 8417   8.339  10.652   4.497  0.7189 -1.1982 -0.3311
  786MOL0     H 8418   8.538  10.575   4.582  0.6155  1.0602  2.2761
  786MOL0     H 8419   8.645  10.706   4.617 -2.3713  0.5710  0.7263
  786MOL0     H 8420   8.732  10.472   4.518 -1.0058  0.8117  1.7420
  786MOL0     H 8421   8.699  10.550   4.360 -1.2293  1.8077 -0.1368
  786MOL0     H 8422   8.862  10.743   4.477  2.6615 -0.5739  0.1788
  786MOL0     H 8423   8.898  10.614   4.575 -1.4465  2.2478  1.5419
  786MOL0     H 8424   8.927  10.494   4.326  2.1560 -0.3039 -0.5382
  786MOL0     H 8425   8.939  10.657   4.277  0.4083 -0.3257 -0.7789
  786MOL0     H 8426   9.072  10.309   4.454  0.9592 -2.8335 -0.3068
  786MOL0     H 8427   9.253  10.047   4.309  0.5747  1.9400 -0.9143
  786MOL0     H 8428   9.115  10.084   4.403 -0.5194 -2.1322 -1.3488
  786MOL0     H 8429   9.280  10.090   4.479  0.7134 -0.0989 -1.0160
  786MOL0     H 8430   9.405   9.941   4.148  1.4425  3.2856  1.2632
  786MOL0     H 8431   9.493   9.717   4.090  1.2718 -0.3609 -0.7748
  786MOL0     H 8432   9.907   9.637   4.213  2.0790 -2.7084 -0.1388
  786MOL0     H 8433   9.825   9.549   4.352 -1.2710  0.6961  0.4338
  786MOL0     H 8434   9.817   9.374   4.280 -0.6515  0.6634 -0.2195
  786MOL0     H 8435   9.803   9.400   4.107 -0.3989  1.1097 -0.1244
  786MOL0     H 8436  10.060   9.453   4.096 -1.4112 -0.3955 -0.8639
  786MOL0     H 8437  10.018   9.296   4.137 -0.6669 -0.7753  2.4572
  786MOL0     H 8438  10.035   9.341   4.385 -0.0888  0.2604  0.6756
  786MOL0     H 8439  10.078   9.512   4.350 -1.1569  0.1343 -0.9604
  786MOL0     H 8440  10.263   9.443   4.211 -2.2791 -0.7172 -0.5480
  786MOL0     H 8441  10.293   9.425   4.381  0.9741  4.3129 -2.5095
  786MOL0     H 8442  10.211   9.167   4.238  0.6383 -1.4127  0.6608
  786MOL0     H 8443  10.253   9.195   4.386  0.9147 -0.2985 -0.0338
  786MOL0     H 8444  10.476   9.256   4.357 -1.0286  2.5346  0.3972
  786MOL0     H 8445  10.450   9.253   4.168  0.9394 -0.9770 -0.3335
  786MOL0     H 8446  10.386   9.034   4.160 -4.2057  0.0347  2.3841
  786MOL0     H 8447  10.408   9.007   4.325  1.0596 -0.9955  0.1187
  786MOL0     H 8448   9.812   9.786   4.364  0.5933 -0.9420 -3.4476
  786MOL0     H 8449   9.715  10.002   4.437  0.4922  0.0064 -0.5182
  786MOL0     H 8450   9.449  10.432   4.162  0.5892 -0.8804  0.4125
  786MOL0     H 8451   9.283  10.620   4.246 -3.5618 -0.0610  0.7461
  786MOL0     H 8452   7.366  10.339   4.180 -1.7127  0.6849 -0.2364
  786MOL0     H 8453   7.184  10.173   4.168  0.9171 -2.7341  2.1861
  786MOL0     H 8454   7.077   9.790   4.214 -0.5358  0.6713  0.4820
  786MOL0     H 8455   6.902   9.624   4.292 -1.1993  1.4430  0.6695
  786MOL0     H 8456   6.701   9.468   3.995  0.2837 -0.0245  0.6894
  786MOL0     H 8457   6.622   9.381   4.108  1.0419 -0.0830 -1.4627
  786MOL0     H 8458   6.528   9.568   3.922 -1.0056  0.3681  0.5527
  786MOL0     H 8459   6.461   9.622   4.080 -0.4262 -2.7166  5.0757
  786MOL0     H 8460   6.425   9.328   3.969 -1.1504  1.2120 -0.6842
  786MOL0     H 8461   6.396   9.373   4.134  4.8456 -1.2673  0.5138
  786MOL0     H 8462   6.266   9.475   3.877 -2.1682  3.3389 -0.4683
  786MOL0     H 8463   6.240   9.567   4.023  0.2609 -0.8171  0.3686
  786MOL0     H 8464   5.982   9.237   4.062  0.8039 -1.6609  2.3483
  786MOL0     H 8465   6.635   9.757   3.983 -1.7501 -0.7920  0.9074
  786MOL0     H 8466   6.724   9.872   3.799 -0.7924  0.1573  1.0736
  786MOL0     H 8467   6.733  10.011   3.908 -0.2026 -0.8017  2.1351
  786MOL0     H 8468   6.866   9.965   3.790 -0.8262 -0.6150  0.0687
  787MOL0     O 8469   5.556   2.599   2.781 -0.2303  0.0239  0.0275
  787MOL0     C 8470   5.538   2.647   2.662  1.2590  0.2112 -0.4898
  787MOL0     O 8471   5.632   2.697   2.583  0.0931  0.3429 -0.4008
  787MOL0     C 8472   5.762   2.687   2.630  0.2548  0.2452  0.3657
  787MOL0     C 8473   5.845   2.576   2.597 -0.5206 -0.7963  0.1234
  787MOL0     C 8474   5.984   2.573   2.626  0.4511 -0.5342 -0.2998
  787MOL0     C 8475   6.033   2.676   2.710 -0.1918  0.6244 -0.5141
  787MOL0     O 8476   6.164   2.676   2.745  0.6237  0.0580 -0.6429
  787MOL0     C 8477   6.220   2.550   2.786  1.0121  0.6302 -0.1191
  787MOL0     C 8478   6.358   2.541   2.720 -0.6692  0.3954 -0.0239
  787MOL0     C 8479   6.351   2.537   2.561  0.2208  1.0735 -0.2493
  787MOL0     C 8480   6.481   2.573   2.491 -0.8126  0.2383 -0.6255
  787MOL0     C 8481   6.611   2.529   2.561 -0.1208  0.1694 -0.9000
  787MOL0     C 8482   6.728   2.529   2.473 -0.5150 -0.4252  0.4419
  787MOL0     C 8483   6.849   2.480   2.552 -0.9811  0.2347 -0.2529
  787MOL0     C 8484   6.889   2.582   2.660 -0.4460  0.5219 -0.1542
  787MOL0     N 8485   7.026   2.560   2.694  0.1652  0.5736 -0.1001
  787MOL0     C 8486   7.077   2.439   2.734 -0.1181 -0.1421 -0.9704
  787MOL0     C 8487   7.204   2.464   2.749 -0.1500  0.5037 -0.8049
  787MOL0     C 8488   7.319   2.371   2.788 -0.4197 -0.6038  0.0950
  787MOL0     C 8489   7.390   2.329   2.663  0.2965  0.1784  0.1680
  787MOL0     C 8490   7.502   2.226   2.694 -0.9266 -0.2855  0.1937
  787MOL0     C 8491   7.440   2.083   2.703 -0.1569 -0.1790  0.0756
  787MOL0     O 8492   7.495   1.981   2.613  0.2802  0.5513 -0.3964
  787MOL0     C 8493   7.622   1.944   2.645 -0.5085 -0.1234  1.1420
  787MOL0     C 8494   7.664   1.872   2.757 -0.5425  0.5538  0.0083
  787MOL0     C 8495   7.800   1.851   2.783 -0.6632  0.3395  0.0675
  787MOL0     C 8496   7.833   1.786   2.917  1.1097 -0.0571  1.3065
  787MOL0     C 8497   7.900   1.916   2.703 -0.1735  0.1389  0.8183
  787MOL0     C 8498   8.044   1.885   2.718 -0.3729  0.4782  0.2754
  787MOL0     O 8499   8.125   1.982   2.667 -0.0721  0.6151 -0.1446
  787MOL0     C 8500   8.260   1.968   2.702 -0.3085  0.2311 -0.3255
  787MOL0     C 8501   8.306   2.003   2.827 -0.3765  0.7086 -0.8161
  787MOL0     C 8502   8.444   1.999   2.853 -0.9109  0.1940  0.4949
  787MOL0     C 8503   8.536   1.969   2.758 -0.3391 -0.3607  0.0982
  787MOL0     O 8504   8.673   1.975   2.782 -0.7639  0.4991 -0.0339
  787MOL0     C 8505   8.763   2.021   2.675  0.0307 -0.5988 -0.1992
  787MOL0     C 8506   8.848   1.913   2.615  0.0536 -0.0258  0.5418
  787MOL0     C 8507   8.926   1.962   2.493  0.8074 -0.3038 -0.4484
  787MOL0     C 8508   9.034   1.858   2.453  0.0164  1.0143  0.8335
  787MOL0     C 8509   9.047   1.878   2.300  0.2134  0.3679  0.3129
  787MOL0     C 8510   9.144   1.768   2.249 -0.6898 -0.1604  0.2285
  787MOL0     C 8511   9.297   1.790   2.276 -0.6571 -0.0217  0.8251
  787MOL0     C 8512   9.366   1.908   2.189  0.8401  0.4969 -0.2446
  787MOL0    Cl 8513   9.541   1.921   2.212  0.1131  0.0456 -0.3439
  787MOL0     C 8514   8.489   1.941   2.632  0.1925  0.3784  0.2713
  787MOL0     C 8515   8.354   1.939   2.606  0.5432 -1.0543 -0.5893
  787MOL0     O 8516   8.083   1.783   2.776 -0.3906 -0.5759 -0.0598
  787MOL0     C 8517   7.860   1.982   2.586  0.7143 -0.0576  0.0431
  787MOL0     C 8518   7.721   1.994   2.557  0.7192 -0.2428 -0.4333
  787MOL0     N 8519   7.231   2.590   2.712 -0.3635  0.0696 -0.5858
  787MOL0     N 8520   7.121   2.650   2.683 -0.3367  0.2866  0.5224
  787MOL0     C 8521   5.957   2.792   2.737  0.2810  0.1374  0.1705
  787MOL0     C 8522   5.818   2.791   2.701  0.2591 -0.5538 -0.1382
  787MOL0     C 8523   5.398   2.664   2.619 -0.5851  0.8879  0.8188
  787MOL0     C 8524   5.378   2.652   2.481  0.0444 -0.3921  0.0645
  787MOL0     C 8525   5.255   2.647   2.419 -0.1572  0.1082 -0.7186
  787MOL0     C 8526   5.141   2.647   2.497 -0.4129 -0.7763 -0.0947
  787MOL0     O 8527   5.024   2.619   2.434  0.6501 -0.0360 -0.3072
  787MOL0     C 8528   4.913   2.605   2.523  0.0557  0.2809  0.6063
  787MOL0     C 8529   4.804   2.541   2.449  1.0361  0.3144  0.3843
  787MOL0     C 8530   4.661   2.548   2.522  0.1012 -0.2731 -0.9820
  787MOL0     C 8531   4.647   2.462   2.649 -0.4790 -0.0807 -0.1570
  787MOL0     C 8532   4.689   2.320   2.635  0.9369  0.4809  0.5441
  787MOL0     C 8533   4.712   2.199   2.637  0.2394 -0.5472 -0.4566
  787MOL0     C 8534   5.155   2.671   2.635  0.0315 -0.8509 -0.9892
  787MOL0     C 8535   5.280   2.677   2.697 -0.4403  0.1109 -0.4387
  787MOL0     C 8536   5.283   2.706   2.849  0.5570 -0.5410  0.2243
  787MOL0     H 8537   5.799   2.502   2.533 -0.3169 -1.5749  0.8499
  787MOL0     H 8538   6.045   2.491   2.590 -0.2807 -1.0296 -0.4343
  787MOL0     H 8539   6.162   2.461   2.758 -0.1133  1.4199 -0.3644
  787MOL0     H 8540   6.224   2.554   2.895  0.4055  1.0133 -0.1061
  787MOL0     H 8541   6.421   2.630   2.731 -0.5420  1.2624 -5.0286
  787MOL0     H 8542   6.408   2.456   2.767 -0.4523  0.4992 -0.0652
  787MOL0     H 8543   6.333   2.433   2.530  2.3181  0.2105  1.1676
  787MOL0     H 8544   6.263   2.591   2.526  0.7671  3.0878  1.3128
  787MOL0     H 8545   6.485   2.526   2.393  3.9019 -2.0541  0.3581
  787MOL0     H 8546   6.495   2.681   2.478  0.3077 -0.0174 -1.7638
  787MOL0     H 8547   6.592   2.427   2.598  1.9202  0.4623  1.1191
  787MOL0     H 8548   6.623   2.601   2.642  3.6815  0.8199 -1.8895
  787MOL0     H 8549   6.712   2.465   2.386 -3.7377  0.4363  0.2591
  787MOL0     H 8550   6.744   2.629   2.430 -0.1708 -1.9504 -3.4106
  787MOL0     H 8551   6.931   2.483   2.480 -1.4802 -1.8389 -0.9784
  787MOL0     H 8552   6.834   2.379   2.591 -0.3199 -0.8281 -2.5843
  787MOL0     H 8553   6.878   2.688   2.635  0.7137 -0.0871 -3.9135
  787MOL0     H 8554   6.834   2.568   2.754  0.4420  2.5258  0.7207
  787MOL0     H 8555   7.019   2.350   2.754  1.3742 -1.0295 -0.3698
  787MOL0     H 8556   7.276   2.285   2.840 -0.5842 -0.2743  0.5207
  787MOL0     H 8557   7.385   2.426   2.856  0.6694 -1.8676  0.0815
  787MOL0     H 8558   7.320   2.301   2.584  2.0032  1.3143 -1.8468
  787MOL0     H 8559   7.422   2.426   2.624 -0.7240 -0.1489 -1.6040
  787MOL0     H 8560   7.571   2.242   2.611 -1.6499  1.0552 -0.1677
  787MOL0     H 8561   7.551   2.249   2.789 -0.7560 -2.8763  0.8233
  787MOL0     H 8562   7.445   2.055   2.809  2.0870 -0.0302  0.0539
  787MOL0     H 8563   7.332   2.085   2.686 -0.2632  2.3063  0.6989
  787MOL0     H 8564   7.593   1.825   2.825  0.1908  1.3029  1.3448
  787MOL0     H 8565   7.733   1.758   2.953  1.8168 -4.5284  0.3925
  787MOL0     H 8566   7.886   1.862   2.975  0.6014  1.2605  0.0936
  787MOL0     H 8567   7.887   1.691   2.905 -2.4383 -2.1811  0.6986
  787MOL0     H 8568   8.244   2.025   2.913  0.7443  1.1678 -0.1034
  787MOL0     H 8569   8.475   2.012   2.957 -1.1143 -2.8058  1.0359
  787MOL0     H 8570   8.706   2.083   2.605  1.1686  2.9760  1.7785
  787MOL0     H 8571   8.837   2.085   2.723 -0.5095  0.7289 -1.0979
  787MOL0     H 8572   8.925   1.891   2.690  0.4918  0.0821  0.1255
  787MOL0     H 8573   8.798   1.820   2.587 -0.6481  0.2066  1.0201
  787MOL0     H 8574   8.981   2.054   2.518  1.1000  0.1844 -2.6261
  787MOL0     H 8575   8.865   1.989   2.406  0.9987 -4.7546 -2.2073
  787MOL0     H 8576   8.992   1.757   2.464  0.7255  0.5178 -0.6636
  787MOL0     H 8577   9.130   1.872   2.503  2.3438 -1.9868 -2.2746
  787MOL0     H 8578   8.953   1.870   2.245  0.6910 -1.0386 -0.3512
  787MOL0     H 8579   9.091   1.976   2.278 -0.1184  0.5874  0.6278
  787MOL0     H 8580   9.133   1.766   2.140  5.0718 -0.4556 -0.6235
  787MOL0     H 8581   9.117   1.669   2.286 -0.3799 -1.2191 -2.2028
  787MOL0     H 8582   9.339   1.691   2.256 -0.0598  0.2936  0.4766
  787MOL0     H 8583   9.312   1.803   2.384  1.3762  2.5898  0.3528
  787MOL0     H 8584   9.310   1.997   2.218 -2.2740 -1.2667 -0.4145
  787MOL0     H 8585   9.329   1.885   2.089  0.1343 -2.6957  0.6338
  787MOL0     H 8586   8.562   1.914   2.557 -0.9164 -0.1262 -0.6470
  787MOL0     H 8587   8.321   1.907   2.508 -0.6172  0.0384 -0.5855
  787MOL0     H 8588   7.932   2.021   2.514  0.1715 -0.5466 -0.7827
  787MOL0     H 8589   7.696   2.032   2.459  1.9827  0.3661 -0.5417
  787MOL0     H 8590   5.989   2.883   2.788 -1.0112  0.7192 -0.0127
  787MOL0     H 8591   5.756   2.876   2.730  0.6948 -0.6517  1.0962
  787MOL0     H 8592   5.461   2.643   2.413 -0.1795 -1.7201 -0.0529
  787MOL0     H 8593   5.248   2.633   2.312 -0.7489 -2.1768 -0.4302
  787MOL0     H 8594   4.942   2.540   2.605 -0.1194  1.1973  1.4071
  787MOL0     H 8595   4.880   2.700   2.566 -1.7169  0.0722 -0.2011
  787MOL0     H 8596   4.828   2.439   2.417 -0.6703  0.1427 -0.4624
  787MOL0     H 8597   4.802   2.587   2.350 -2.2170 -0.9465 -0.2484
  787MOL0     H 8598   4.641   2.651   2.553  1.3774 -0.6469  1.3508
  787MOL0     H 8599   4.587   2.509   2.452  1.0602 -2.1109 -1.0457
  787MOL0     H 8600   4.543   2.456   2.681 -0.5939  0.0890 -0.5026
  787MOL0     H 8601   4.701   2.512   2.730 -0.5045 -0.3478  0.0271
  787MOL0     H 8602   4.736   2.096   2.656  1.4167  0.2410  3.2986
  787MOL0     H 8603   5.070   2.677   2.702 -0.1418  1.2805 -1.3373
  787MOL0     H 8604   5.299   2.608   2.896  1.2500 -0.1218  0.8660
  787MOL0     H 8605   5.365   2.772   2.877 -0.6009 -0.8320  5.1004
  787MOL0     H 8606   5.189   2.757   2.870  0.8807  0.1789 -0.0459
  788MOL0     O 8607   0.941   4.829   8.058  0.0493 -0.0160  0.3654
  788MOL0     C 8608   0.923   4.933   7.992  0.6516  1.0240  0.4482
  788MOL0     O 8609   0.820   4.943   7.910 -0.6046  0.2611  0.8327
  788MOL0     C 8610   0.736   4.836   7.899 -0.2530 -0.4278 -0.6105
  788MOL0     C 8611   0.770   4.722   7.827 -0.2951  0.1290  0.5343
  788MOL0     C 8612   0.676   4.615   7.819  0.2253 -0.5058  0.1299
  788MOL0     C 8613   0.548   4.624   7.882  0.1889  0.3999  0.3618
  788MOL0     O 8614   0.456   4.520   7.856 -0.2286 -0.8791  0.2129
  788MOL0     C 8615   0.312   4.548   7.865  0.7280  0.5344 -0.8589
  788MOL0     C 8616   0.249   4.453   7.761  0.7866  0.3909 -0.3449
  788MOL0     C 8617   0.240   4.515   7.620  0.1415 -0.1416 -0.2193
  788MOL0     C 8618   0.162   4.420   7.525 -0.1112 -0.5437  0.4139
  788MOL0     C 8619   0.175   4.466   7.369  0.9391  0.7319 -1.1053
  788MOL0     C 8620   0.115   4.600   7.343 -0.0651  0.3859 -1.1936
  788MOL0     C 8621   0.151   4.665   7.213  0.5386 -0.5867  0.0370
  788MOL0     C 8622   0.024   4.734   7.139  0.2850  0.5089  0.4654
  788MOL0     N 8623  -0.080   4.637   7.099  0.1471 -0.1389  0.0624
  788MOL0     C 8624  -0.085   4.562   6.991 -0.0717  0.1874  0.6387
  788MOL0     C 8625  -0.216   4.519   6.983  0.1781  0.1320 -0.0074
  788MOL0     C 8626  -0.280   4.438   6.873  0.2996 -0.7363  0.9111
  788MOL0     C 8627  -0.335   4.310   6.930  0.2717  0.1850  0.6041
  788MOL0     C 8628  -0.228   4.216   6.995 -0.2580  0.0752  0.1220
  788MOL0     C 8629  -0.287   4.107   7.087  0.2350 -1.3496 -0.5881
  788MOL0     O 8630  -0.210   3.989   7.078  0.1482 -0.2123  0.3835
  788MOL0     C 8631  -0.081   3.992   7.132 -0.7138 -0.3750  0.4524
  788MOL0     C 8632  -0.001   3.890   7.086 -0.1141 -0.2337  0.2678
  788MOL0     C 8633   0.133   3.882   7.125 -0.1499  1.3392 -0.4715
  788MOL0     C 8634   0.207   3.766   7.071 -0.0893  0.7066 -0.0960
  788MOL0     C 8635   0.190   3.984   7.200  0.8070  0.5298  0.6968
  788MOL0     C 8636   0.325   3.987   7.264  0.4514 -0.3462 -0.1397
  788MOL0     O 8637   0.339   4.073   7.374  0.1458  0.0254 -0.1651
  788MOL0     C 8638   0.466   4.096   7.429  0.7184 -0.9297 -0.9192
  788MOL0     C 8639   0.489   4.213   7.503 -0.1851 -0.7578  0.1307
  788MOL0     C 8640   0.619   4.253   7.564 -0.1500 -0.5426  0.0211
  788MOL0     C 8641   0.715   4.157   7.550 -0.0467 -0.3702 -0.5155
  788MOL0     O 8642   0.841   4.194   7.595 -0.7641 -0.9718  1.0040
  788MOL0     C 8643   0.950   4.122   7.552  0.2064 -0.6843  0.4892
  788MOL0     C 8644   1.067   4.180   7.625 -0.0172  0.2350  0.0119
  788MOL0     C 8645   1.189   4.096   7.602 -0.5944 -0.2330  0.1143
  788MOL0     C 8646   1.300   4.172   7.674 -0.0655  0.4327  0.2099
  788MOL0     C 8647   1.418   4.073   7.700 -0.1671  0.0605 -0.3392
  788MOL0     C 8648   1.519   4.152   7.791  0.1181 -0.4448 -0.0942
  788MOL0     C 8649   1.483   4.145   7.944  0.2621  0.6302  0.2375
  788MOL0     C 8650   1.594   4.106   8.043  0.1843 -0.4250 -0.2746
  788MOL0    Cl 8651   1.719   4.233   8.057 -0.3035  0.0844 -0.5946
  788MOL0     C 8652   0.694   4.039   7.483 -0.7565 -0.3872 -0.4430
  788MOL0     C 8653   0.576   4.006   7.431  0.1164  0.8876  0.3416
  788MOL0     O 8654   0.412   3.915   7.211  0.1367 -0.0972 -0.0619
  788MOL0     C 8655   0.105   4.092   7.240  0.2125  0.6256 -0.0685
  788MOL0     C 8656  -0.029   4.093   7.208 -0.1362  0.2888  0.3666
  788MOL0     N 8657  -0.286   4.558   7.094  0.0469 -0.2280 -0.6452
  788MOL0     N 8658  -0.204   4.637   7.149 -0.5504 -0.0454 -0.9676
  788MOL0     C 8659   0.525   4.745   7.949  0.8358  0.1626  0.3918
  788MOL0     C 8660   0.618   4.845   7.965  0.3348  0.7534 -0.0236
  788MOL0     C 8661   1.011   5.055   8.002 -0.7989  0.3589  0.0696
  788MOL0     C 8662   0.973   5.165   7.920 -0.1142 -0.6718 -0.1674
  788MOL0     C 8663   1.043   5.285   7.920  0.2852  0.9470 -0.2193
  788MOL0     C 8664   1.151   5.298   8.004  0.2945 -0.2538  0.8998
  788MOL0     O 8665   1.201   5.426   8.011  0.0466 -0.1823  0.8622
  788MOL0     C 8666   1.326   5.456   8.072 -0.7474 -0.3894 -0.3526
  788MOL0     C 8667   1.332   5.605   8.104  0.1954  0.2376  0.2145
  788MOL0     C 8668   1.459   5.658   8.165  0.2277 -0.1136 -0.8437
  788MOL0     C 8669   1.497   5.589   8.295  0.3288 -0.3685 -0.0147
  788MOL0     C 8670   1.573   5.456   8.278  0.5696 -0.6004 -0.2553
  788MOL0     C 8671   1.623   5.354   8.260 -0.0671  0.2377 -0.3069
  788MOL0     C 8672   1.192   5.195   8.089 -0.3495  0.1950 -0.2765
  788MOL0     C 8673   1.120   5.071   8.086 -0.0324  0.7488 -0.4251
  788MOL0     C 8674   1.153   4.970   8.194 -0.1503 -0.3339 -1.2649
  788MOL0     H 8675   0.861   4.720   7.768 -0.3321 -2.7920  0.4381
  788MOL0     H 8676   0.700   4.526   7.762  0.0615  0.0236 -0.8004
  788MOL0     H 8677   0.281   4.651   7.846  0.1779  0.2874 -1.3184
  788MOL0     H 8678   0.274   4.521   7.964 -0.4307  0.7789 -1.2260
  788MOL0     H 8679   0.308   4.360   7.759 -0.3321 -0.3352 -2.4062
  788MOL0     H 8680   0.158   4.420   7.811  1.1412 -0.1213 -0.0169
  788MOL0     H 8681   0.196   4.614   7.625  1.9704  0.8011 -1.4288
  788MOL0     H 8682   0.340   4.532   7.578  0.5383 -1.6060  0.0706
  788MOL0     H 8683   0.209   4.321   7.536 -0.4001 -0.5851  1.4251
  788MOL0     H 8684   0.060   4.398   7.559 -0.8901 -0.8215 -1.9471
  788MOL0     H 8685   0.141   4.388   7.300  3.0812  0.1643 -1.6136
  788MOL0     H 8686   0.282   4.468   7.345  1.1670 -3.1032 -1.0794
  788MOL0     H 8687   0.007   4.583   7.348 -0.0622 -0.0502 -2.2990
  788MOL0     H 8688   0.142   4.667   7.424  0.2346  0.7554 -1.5937
  788MOL0     H 8689   0.206   4.590   7.157  0.5993 -1.1035  0.7806
  788MOL0     H 8690   0.222   4.747   7.233 -1.2566  0.9404  0.4519
  788MOL0     H 8691  -0.014   4.805   7.213  1.5794 -0.4708  2.1406
  788MOL0     H 8692   0.059   4.794   7.053 -0.0038  0.1314  0.0810
  788MOL0     H 8693  -0.012   4.536   6.915 -0.6041 -0.2973  0.2907
  788MOL0     H 8694  -0.207   4.409   6.797  2.4139 -1.6141  3.1303
  788MOL0     H 8695  -0.354   4.499   6.820  2.5669  0.0509 -1.5659
  788MOL0     H 8696  -0.407   4.331   7.010  1.6496 -0.9905  2.2288
  788MOL0     H 8697  -0.386   4.258   6.849  0.3904 -2.5401  2.1617
  788MOL0     H 8698  -0.158   4.174   6.922  3.7305  1.2786  2.9112
  788MOL0     H 8699  -0.171   4.275   7.067 -0.6178  0.5239  0.0439
  788MOL0     H 8700  -0.275   4.153   7.186 -2.1413  2.3201 -1.8011
  788MOL0     H 8701  -0.395   4.094   7.075 -0.0149 -0.6786  0.7134
  788MOL0     H 8702  -0.036   3.809   7.023 -2.9038  1.5745 -0.7162
  788MOL0     H 8703   0.142   3.690   7.028 -1.8850  0.3830  2.8709
  788MOL0     H 8704   0.261   3.713   7.150  1.8610 -0.3630 -2.0535
  788MOL0     H 8705   0.283   3.806   7.003  0.0815  0.0182 -0.3125
  788MOL0     H 8706   0.418   4.294   7.511  1.7701  0.9269  1.4507
  788MOL0     H 8707   0.627   4.342   7.626 -1.3416  0.1685 -0.7893
  788MOL0     H 8708   0.935   4.015   7.571  2.5884 -0.9202  1.3272
  788MOL0     H 8709   0.976   4.128   7.446  0.9507 -0.3376  0.6902
  788MOL0     H 8710   1.080   4.285   7.597  2.7485  0.7071  2.5045
  788MOL0     H 8711   1.036   4.174   7.730 -1.2501 -0.4524 -0.3752
  788MOL0     H 8712   1.205   4.090   7.494  1.4992  0.8405  0.3174
  788MOL0     H 8713   1.174   3.993   7.637 -0.3984  0.0675  1.1347
  788MOL0     H 8714   1.262   4.191   7.775  0.7837 -0.5865  0.7376
  788MOL0     H 8715   1.334   4.264   7.625  1.5586 -1.1017 -1.7007
  788MOL0     H 8716   1.389   3.977   7.745 -0.3470 -0.2635 -1.1362
  788MOL0     H 8717   1.462   4.042   7.605 -0.7027 -1.9031 -0.0054
  788MOL0     H 8718   1.525   4.255   7.755 -1.9432 -0.2569 -0.0255
  788MOL0     H 8719   1.616   4.102   7.780  0.0688 -0.4952 -0.3150
  788MOL0     H 8720   1.409   4.065   7.957  2.2284 -1.7844 -2.3675
  788MOL0     H 8721   1.444   4.243   7.974 -0.0092  0.6465 -0.1633
  788MOL0     H 8722   1.639   4.008   8.019 -1.2182 -1.5469  1.4225
  788MOL0     H 8723   1.549   4.108   8.143 -0.2693  1.6950 -0.4853
  788MOL0     H 8724   0.776   3.968   7.479  2.5417  2.9734  1.0835
  788MOL0     H 8725   0.572   3.914   7.374  0.1537  2.0264 -1.5907
  788MOL0     H 8726   0.139   4.171   7.306  3.1437 -0.9190  0.4535
  788MOL0     H 8727  -0.086   4.176   7.249 -2.0497 -0.9957  0.4172
  788MOL0     H 8728   0.427   4.752   7.996 -1.4028  0.6021 -3.8811
  788MOL0     H 8729   0.595   4.932   8.027  2.9102  1.7209 -0.3241
  788MOL0     H 8730   0.875   5.163   7.873 -0.3742  0.2962  0.3080
  788MOL0     H 8731   1.009   5.367   7.858  0.0739  2.8157  2.1977
  788MOL0     H 8732   1.346   5.396   8.161 -0.1438  0.0318 -0.2000
  788MOL0     H 8733   1.407   5.436   8.001  1.4779 -1.1155  2.2140
  788MOL0     H 8734   1.249   5.633   8.168 -1.0944  0.7041 -1.5762
  788MOL0     H 8735   1.318   5.659   8.010 -1.7651  2.5248  1.7282
  788MOL0     H 8736   1.535   5.649   8.086 -0.6416 -1.9887 -1.5168
  788MOL0     H 8737   1.433   5.762   8.187  0.0833 -0.8878  3.3760
  788MOL0     H 8738   1.412   5.560   8.357  0.5116  0.7008  0.7717
  788MOL0     H 8739   1.561   5.656   8.353  1.9446 -0.4271 -1.6406
  788MOL0     H 8740   1.671   5.260   8.242  1.1015  0.2489  2.3180
  788MOL0     H 8741   1.274   5.199   8.159  0.1187  2.4447 -0.8653
  788MOL0     H 8742   1.188   4.872   8.160  0.8886 -1.1379  1.7873
  788MOL0     H 8743   1.238   5.008   8.251  0.2996  0.5601 -2.4784
  788MOL0     H 8744   1.066   4.952   8.258 -0.7940  3.8570 -0.6726
  789MOL0     O 8745   5.065  10.812   0.713 -0.5975  0.3600 -0.4650
  789MOL0     C 8746   5.007  10.917   0.713 -0.1566 -0.0832  0.1521
  789MOL0     O 8747   5.052  11.032   0.644  0.2989 -0.7414  0.4674
  789MOL0     C 8748   5.176  11.030   0.594 -0.3475  0.7870 -0.5298
  789MOL0     C 8749   5.284  11.070   0.672  0.0888  0.4911 -0.0703
  789MOL0     C 8750   5.423  11.065   0.626  0.3015 -0.7213 -0.4100
  789MOL0     C 8751   5.446  11.029   0.500 -0.0804  0.3193 -0.0332
  789MOL0     O 8752   5.574  11.009   0.456  0.0070  0.9537 -0.1413
  789MOL0     C 8753   5.609  10.986   0.315 -0.1468  0.4268  0.4140
  789MOL0     C 8754   5.762  11.011   0.314 -0.7550  0.5084 -0.4342
  789MOL0     C 8755   5.840  10.920   0.216 -0.2675  0.7113 -1.2506
  789MOL0     C 8756   5.787  10.939   0.072 -0.0677  0.2609  0.1483
  789MOL0     C 8757   5.870  10.855  -0.022  0.3570  0.9455  0.1467
  789MOL0     C 8758   6.021  10.907  -0.038  0.3786 -0.0944 -0.7223
  789MOL0     C 8759   6.086  10.829  -0.153 -0.4453 -0.5940 -0.2107
  789MOL0     C 8760   6.233  10.868  -0.176 -0.0218  0.6410 -0.0617
  789MOL0     N 8761   6.241  11.009  -0.215 -0.4027 -0.3615 -0.3360
  789MOL0     C 8762   6.265  11.105  -0.119 -0.7091  0.3520  0.2935
  789MOL0     C 8763   6.274  11.215  -0.186 -0.7538  0.2358 -0.5667
  789MOL0     C 8764   6.317  11.345  -0.129 -1.3055 -0.7527 -0.1725
  789MOL0     C 8765   6.454  11.385  -0.194 -0.7006 -0.3181 -0.7713
  789MOL0     C 8766   6.538  11.483  -0.102  0.1696 -0.0394  0.9131
  789MOL0     C 8767   6.607  11.412   0.010  0.4662  0.4845  0.0454
  789MOL0     O 8768   6.660  11.499   0.111 -0.3453 -0.1134 -0.1028
  789MOL0     C 8769   6.771  11.568   0.073  0.0176  0.7344 -0.1767
  789MOL0     C 8770   6.818  11.678   0.149  0.3536  0.3959  0.2050
  789MOL0     C 8771   6.929  11.757   0.113  0.9927 -0.1306 -0.5023
  789MOL0     C 8772   6.947  11.878   0.196 -0.0671 -0.1333  0.2177
  789MOL0     C 8773   7.005  11.725   0.003 -0.6198  0.4789  0.4856
  789MOL0     C 8774   7.117  11.811  -0.054  0.4332  0.8397  0.1028
  789MOL0     O 8775   7.146  11.926   0.004  0.1415 -0.8787  0.0057
  789MOL0     C 8776   7.240  12.010  -0.058  0.3262 -0.3019  0.1094
  789MOL0     C 8777   7.371  11.976  -0.107 -0.5846 -0.2035 -0.8808
  789MOL0     C 8778   7.452  12.074  -0.160  0.3971 -0.7029  0.0301
  789MOL0     C 8779   7.409  12.206  -0.162  0.2588 -0.4490  0.1332
  789MOL0     O 8780   7.476  12.319  -0.217  0.0454  0.4623 -0.1824
  789MOL0     C 8781   7.601  12.292  -0.273  0.2244  0.5251 -0.0125
  789MOL0     C 8782   7.688  12.409  -0.305 -0.1864  0.1061  0.1277
  789MOL0     C 8783   7.824  12.353  -0.361  0.7114 -0.0025  0.2517
  789MOL0     C 8784   7.912  12.351  -0.246  0.4988 -0.4730  0.0865
  789MOL0     C 8785   8.048  12.318  -0.294  0.1555  0.6404 -0.4240
  789MOL0     C 8786   8.136  12.280  -0.169  0.4574 -0.7306 -0.6992
  789MOL0     C 8787   8.158  12.395  -0.065 -0.1828  0.4335  0.0706
  789MOL0     C 8788   8.216  12.517  -0.137 -0.8239  0.0097 -1.2466
  789MOL0    Cl 8789   8.368  12.470  -0.214  0.2164  0.4437 -0.0666
  789MOL0     C 8790   7.295  12.237  -0.095  0.2035  0.3872  0.1294
  789MOL0     C 8791   7.198  12.140  -0.054 -0.0143 -0.4229 -0.1808
  789MOL0     O 8792   7.154  11.781  -0.166 -0.3674  1.0435 -0.8306
  789MOL0     C 8793   6.968  11.605  -0.066 -0.1165 -0.6821  0.1258
  789MOL0     C 8794   6.859  11.529  -0.027 -0.7266 -0.3298  0.0397
  789MOL0     N 8795   6.254  11.197  -0.325 -0.0955  0.2008 -0.3322
  789MOL0     N 8796   6.234  11.072  -0.336 -0.3350  0.0743  0.3824
  789MOL0     C 8797   5.339  10.980   0.416 -0.2884 -0.3514  0.1511
  789MOL0     C 8798   5.205  10.987   0.462 -0.0359  0.3731 -0.2614
  789MOL0     C 8799   4.871  10.926   0.772  0.3453 -0.1460 -0.3571
  789MOL0     C 8800   4.794  11.046   0.740 -0.7198  0.0126  0.2695
  789MOL0     C 8801   4.676  11.069   0.797  0.2744 -0.3010  0.3618
  789MOL0     C 8802   4.623  10.983   0.884  0.5810 -0.2076 -0.3254
  789MOL0     O 8803   4.503  11.021   0.924  0.0217  0.5872 -0.1483
  789MOL0     C 8804   4.436  10.938   1.026 -0.2725  1.1265  0.0492
  789MOL0     C 8805   4.364  10.817   0.968  0.5614 -0.2342  0.2800
  789MOL0     C 8806   4.275  10.844   0.853  0.1941  0.3210  0.3633
  789MOL0     C 8807   4.199  10.716   0.807 -0.4894  0.4443  0.4670
  789MOL0     C 8808   4.106  10.673   0.910  1.4141 -1.3053  0.2757
  789MOL0     C 8809   4.042  10.636   1.011 -0.9973 -1.0419  0.8349
  789MOL0     C 8810   4.692  10.867   0.921  0.3715  0.0433  0.4993
  789MOL0     C 8811   4.816  10.832   0.862  0.0529 -0.0422 -0.1625
  789MOL0     C 8812   4.885  10.711   0.910 -0.2077  1.0132 -0.4567
  789MOL0     H 8813   5.272  11.103   0.775  1.5494  0.0203  0.2756
  789MOL0     H 8814   5.505  11.084   0.693  0.6345 -0.8460 -0.7766
  789MOL0     H 8815   5.561  11.053   0.243 -0.0287  0.4885  0.3923
  789MOL0     H 8816   5.588  10.882   0.290  1.0100  0.4814 -0.9305
  789MOL0     H 8817   5.787  11.115   0.290  0.6211 -0.4339 -3.7189
  789MOL0     H 8818   5.804  10.979   0.410 -3.8587 -0.4722  0.7160
  789MOL0     H 8819   5.946  10.945   0.215  0.4766 -1.8534 -4.9678
  789MOL0     H 8820   5.844  10.815   0.247 -0.1364 -0.1089 -3.8157
  789MOL0     H 8821   5.679  10.923   0.071 -0.0524 -0.7519  3.3906
  789MOL0     H 8822   5.804  11.044   0.044 -0.8551  0.3740  0.0687
  789MOL0     H 8823   5.832  10.859  -0.124 -2.7983 -1.9188  1.0265
  789MOL0     H 8824   5.881  10.749   0.004  2.0522 -0.0968 -4.0028
  789MOL0     H 8825   6.021  11.015  -0.057  2.6654  0.3083  1.1447
  789MOL0     H 8826   6.078  10.895   0.054  2.1848  0.0347 -1.7959
  789MOL0     H 8827   6.029  10.848  -0.245 -3.8374 -0.9962  1.6607
  789MOL0     H 8828   6.085  10.723  -0.125  0.7792  0.1797  3.1497
  789MOL0     H 8829   6.298  10.852  -0.090  0.8921 -1.0041 -1.0173
  789MOL0     H 8830   6.271  10.810  -0.261 -0.3075 -1.9676  1.4688
  789MOL0     H 8831   6.304  11.081  -0.021 -0.7006 -1.6012 -0.1413
  789MOL0     H 8832   6.324  11.331  -0.021 -0.1439 -4.4809 -0.5735
  789MOL0     H 8833   6.240  11.417  -0.158  0.8055  1.5507 -0.3500
  789MOL0     H 8834   6.513  11.294  -0.204 -0.9647 -0.6485  0.4338
  789MOL0     H 8835   6.450  11.426  -0.295  1.1547 -2.1264 -1.6399
  789MOL0     H 8836   6.620  11.536  -0.150  0.2641  0.3441  1.4846
  789MOL0     H 8837   6.474  11.561  -0.059 -0.1423  0.4566 -0.4144
  789MOL0     H 8838   6.530  11.351   0.057 -0.2608  1.0742 -0.3419
  789MOL0     H 8839   6.671  11.329  -0.021 -2.0482 -1.1756 -1.1209
  789MOL0     H 8840   6.757  11.714   0.232 -0.4872 -0.4959 -0.0118
  789MOL0     H 8841   6.870  11.895   0.272 -3.4644  2.1065 -3.2933
  789MOL0     H 8842   6.933  11.965   0.131 -0.5993  0.9602  1.7277
  789MOL0     H 8843   7.044  11.876   0.245 -0.2247  1.6427  0.6879
  789MOL0     H 8844   7.411  11.875  -0.110 -0.7386 -0.3048  0.0975
  789MOL0     H 8845   7.550  12.038  -0.191  1.7439 -1.3587  4.3154
  789MOL0     H 8846   7.655  12.225  -0.206  1.5890  0.3456 -1.2257
  789MOL0     H 8847   7.577  12.244  -0.369 -2.7632  0.9541  0.4267
  789MOL0     H 8848   7.637  12.471  -0.379 -1.4887  0.2092  1.0957
  789MOL0     H 8849   7.708  12.470  -0.216  1.6591 -1.5543  0.9376
  789MOL0     H 8850   7.862  12.419  -0.440 -2.8207  0.2929 -1.4284
  789MOL0     H 8851   7.810  12.255  -0.407 -2.2608  0.2962  0.3210
  789MOL0     H 8852   7.882  12.271  -0.177  2.1727 -2.4931 -1.3991
  789MOL0     H 8853   7.920  12.446  -0.192 -0.4260  0.5515 -1.5135
  789MOL0     H 8854   8.039  12.229  -0.358  1.4527  1.1064 -1.2796
  789MOL0     H 8855   8.093  12.401  -0.349 -0.0737  1.2139  0.2472
  789MOL0     H 8856   8.233  12.247  -0.209  0.0273 -0.1445 -2.3090
  789MOL0     H 8857   8.095  12.193  -0.118 -3.3249 -0.0150 -2.2077
  789MOL0     H 8858   8.224  12.351   0.011  0.6524  0.0163 -0.8810
  789MOL0     H 8859   8.065  12.421  -0.013 -0.3652  0.1522 -0.1139
  789MOL0     H 8860   8.232  12.597  -0.064 -2.3700 -0.1915 -0.6326
  789MOL0     H 8861   8.137  12.550  -0.205 -2.6432  0.1995  0.8341
  789MOL0     H 8862   7.265  12.340  -0.083 -3.4076 -0.5655  0.3117
  789MOL0     H 8863   7.105  12.169  -0.006 -1.7222 -0.0385 -3.4443
  789MOL0     H 8864   7.019  11.562  -0.152 -0.6626 -1.2143  0.0603
  789MOL0     H 8865   6.852  11.437  -0.084  2.5422 -1.3686  1.0831
  789MOL0     H 8866   5.352  10.941   0.316 -1.3468  0.6785 -0.4139
  789MOL0     H 8867   5.123  10.956   0.397 -0.1787 -2.6557  1.1980
  789MOL0     H 8868   4.837  11.115   0.668  0.2903  1.0158  1.7799
  789MOL0     H 8869   4.619  11.154   0.760  0.9479 -0.3460 -0.8599
  789MOL0     H 8870   4.506  10.901   1.101 -0.6106  0.7996  0.2087
  789MOL0     H 8871   4.362  10.995   1.083  1.8813  2.5335  1.5775
  789MOL0     H 8872   4.299  10.775   1.045  3.4876 -0.6945  2.6832
  789MOL0     H 8873   4.442  10.746   0.940 -0.0402 -0.2537 -1.4279
  789MOL0     H 8874   4.196  10.913   0.884 -2.5942 -1.4564 -2.1141
  789MOL0     H 8875   4.320  10.889   0.764 -1.2292  0.7723 -0.1574
  789MOL0     H 8876   4.262  10.631   0.778 -2.0830 -0.0166 -1.8696
  789MOL0     H 8877   4.133  10.736   0.723 -0.2085 -1.2962 -0.2053
  789MOL0     H 8878   3.981  10.618   1.097 -1.0707  0.0468  1.0317
  789MOL0     H 8879   4.656  10.802   1.000 -1.9351 -0.0421 -0.5228
  789MOL0     H 8880   4.861  10.628   0.843  0.8732  0.0484  0.3228
  789MOL0     H 8881   4.991  10.732   0.927 -0.6382  1.9906  1.2122
  789MOL0     H 8882   4.858  10.682   1.012 -0.3988  2.2524 -0.1338
  790MOL0     O 8883  10.523   5.600  11.036 -0.4222  0.0823 -0.2102
  790MOL0     C 8884  10.470   5.626  11.141 -0.5801 -0.8655  0.6574
  790MOL0     O 8885  10.539   5.645  11.262  0.1328 -0.2245  0.3490
  790MOL0     C 8886  10.664   5.598  11.256  0.2969  0.0569 -0.0454
  790MOL0     C 8887  10.768   5.655  11.182  0.7072 -0.7293  0.3836
  790MOL0     C 8888  10.903   5.621  11.203  0.4705 -0.3077 -0.4270
  790MOL0     C 8889  10.933   5.535  11.297 -0.6237 -0.0033  0.3148
  790MOL0     O 8890  11.058   5.501  11.329 -0.4961 -0.8045 -0.2507
  790MOL0     C 8891  11.167   5.562  11.266 -0.4409  0.7872 -0.1924
  790MOL0     C 8892  11.297   5.514  11.334 -0.2430  0.7907 -0.0887
  790MOL0     C 8893  11.409   5.582  11.266  0.2394  0.0364 -0.0908
  790MOL0     C 8894  11.541   5.540  11.324  0.8479  0.2763  0.4872
  790MOL0     C 8895  11.660   5.598  11.260  0.2119  0.2158 -0.0424
  790MOL0     C 8896  11.788   5.527  11.284 -0.6759  0.6694  0.9746
  790MOL0     C 8897  11.905   5.602  11.231  0.3008  0.1111  0.8120
  790MOL0     C 8898  12.028   5.524  11.266 -0.4779  0.4154  0.3619
  790MOL0     N 8899  12.123   5.528  11.151 -0.3106 -0.8692 -0.4161
  790MOL0     C 8900  12.195   5.641  11.112  0.3967 -0.1438  0.4514
  790MOL0     C 8901  12.292   5.595  11.032 -0.5843  0.5154 -0.5316
  790MOL0     C 8902  12.391   5.681  10.970 -0.6514 -0.0082 -0.1873
  790MOL0     C 8903  12.324   5.792  10.893 -0.0179  0.0562 -0.1664
  790MOL0     C 8904  12.253   5.742  10.770  0.2525 -0.4183 -0.5553
  790MOL0     C 8905  12.113   5.685  10.786 -0.7943  0.7012  0.3586
  790MOL0     O 8906  12.028   5.763  10.861 -0.4808  0.4001 -0.0425
  790MOL0     C 8907  11.890   5.742  10.866 -0.4580 -0.4507 -0.1136
  790MOL0     C 8908  11.815   5.837  10.944 -0.6784 -0.9424 -0.4772
  790MOL0     C 8909  11.675   5.834  10.938  0.8647 -0.4678  0.2069
  790MOL0     C 8910  11.609   5.941  11.019 -0.3309 -0.3523 -0.1769
  790MOL0     C 8911  11.606   5.737  10.864 -0.2886  0.4982 -0.4541
  790MOL0     C 8912  11.460   5.746  10.855  0.1211 -0.1568  0.0254
  790MOL0     O 8913  11.380   5.747  10.970 -0.6196 -0.2241 -0.1081
  790MOL0     C 8914  11.253   5.753  10.948  0.1880 -0.0853  0.1826
  790MOL0     C 8915  11.181   5.631  10.927 -0.1734 -0.8081 -0.1036
  790MOL0     C 8916  11.048   5.631  10.886  0.5609 -0.4162 -0.1238
  790MOL0     C 8917  10.983   5.757  10.873  0.2927 -0.4712  0.0877
  790MOL0     O 8918  10.860   5.786  10.813 -0.1338  1.0358  0.4145
  790MOL0     C 8919  10.789   5.669  10.760  0.4909 -0.0144 -0.4475
  790MOL0     C 8920  10.639   5.710  10.720 -0.1983  0.8895 -0.5057
  790MOL0     C 8921  10.634   5.780  10.581 -0.4568 -1.2212  0.2844
  790MOL0     C 8922  10.710   5.918  10.587  0.1339 -0.5651 -0.3144
  790MOL0     C 8923  10.673   6.016  10.474  0.1350  0.2298  0.0780
  790MOL0     C 8924  10.722   5.968  10.338 -1.0286 -0.8548  0.2720
  790MOL0     C 8925  10.613   6.003  10.241  0.4202  0.0149  0.6211
  790MOL0     C 8926  10.651   5.984  10.089  1.0561 -1.0039 -0.1215
  790MOL0    Cl 8927  10.807   6.079  10.057 -0.4957  0.0062 -0.4709
  790MOL0     C 8928  11.051   5.878  10.902  0.3741  0.2861 -0.3074
  790MOL0     C 8929  11.184   5.870  10.941 -0.1749  0.2026  0.7728
  790MOL0     O 8930  11.420   5.731  10.736  0.7608  0.0460 -0.2432
  790MOL0     C 8931  11.682   5.650  10.790 -0.4526 -0.7033  0.5892
  790MOL0     C 8932  11.820   5.653  10.788 -0.3183 -0.5216  0.8964
  790MOL0     N 8933  12.282   5.453  11.021 -0.4616 -0.2846  0.1376
  790MOL0     N 8934  12.182   5.423  11.092 -0.0793 -0.3241 -0.2135
  790MOL0     C 8935  10.835   5.472  11.368 -0.0578  0.0131  0.4553
  790MOL0     C 8936  10.696   5.499  11.341 -1.1396  0.1680 -0.1088
  790MOL0     C 8937  10.326   5.667  11.136  0.4514  0.1587  0.1187
  790MOL0     C 8938  10.280   5.713  11.259  0.2069  0.0116 -0.0835
  790MOL0     C 8939  10.142   5.751  11.276  0.8651  0.0963  0.1050
  790MOL0     C 8940  10.054   5.749  11.166  0.4038 -0.5117  0.1154
  790MOL0     O 8941   9.926   5.791  11.182  0.1602  0.1173  0.2119
  790MOL0     C 8942   9.883   5.855  11.060  1.1359  0.3066 -0.1566
  790MOL0     C 8943   9.743   5.914  11.096  0.3662  0.5058 -0.2106
  790MOL0     C 8944   9.739   5.989  11.228  0.0694 -0.3627  0.3891
  790MOL0     C 8945   9.611   6.061  11.250 -0.1326  0.1801  0.9520
  790MOL0     C 8946   9.608   6.140  11.376 -0.7449 -0.4667  0.2664
  790MOL0     C 8947   9.621   6.237  11.547  0.0089 -0.2261 -0.2320
  790MOL0     C 8948  10.113   5.705  11.043  0.1654  0.1760 -0.2596
  790MOL0     C 8949  10.240   5.664  11.025 -0.6832 -0.1931 -0.6270
  790MOL0     C 8950  10.292   5.630  10.879  0.4655 -0.7625  0.0314
  790MOL0     H 8951  10.752   5.744  11.121 -1.7838 -0.1778  1.6876
  790MOL0     H 8952  10.978   5.661  11.135 -0.3260  1.2064 -0.4631
  790MOL0     H 8953  11.167   5.671  11.276  1.0575  0.5691  3.2585
  790MOL0     H 8954  11.153   5.522  11.165 -0.1906  1.1726 -0.3787
  790MOL0     H 8955  11.293   5.540  11.440  3.6383  1.5590  0.0192
  790MOL0     H 8956  11.322   5.407  11.326  0.1822  0.8857 -0.0313
  790MOL0     H 8957  11.400   5.558  11.159  0.9465 -0.1628 -0.1160
  790MOL0     H 8958  11.391   5.689  11.274  0.8734  0.3561 -2.2455
  790MOL0     H 8959  11.538   5.563  11.431 -1.3006 -1.7709  0.9573
  790MOL0     H 8960  11.542   5.431  11.310  0.8517  0.3617 -0.1972
  790MOL0     H 8961  11.674   5.706  11.270 -2.3524  0.7614 -1.5150
  790MOL0     H 8962  11.643   5.577  11.154  0.6189 -4.2271  0.5633
  790MOL0     H 8963  11.791   5.500  11.390 -0.9132  0.2887  0.8865
  790MOL0     H 8964  11.784   5.428  11.237 -2.8655  0.9580  0.4332
  790MOL0     H 8965  11.898   5.699  11.282 -1.9778 -0.1429  1.1093
  790MOL0     H 8966  11.885   5.616  11.125  2.4401  1.5642  0.5416
  790MOL0     H 8967  12.077   5.575  11.349  1.7697  0.1899 -0.7577
  790MOL0     H 8968  12.001   5.421  11.291 -0.3204  0.0787 -0.7761
  790MOL0     H 8969  12.163   5.739  11.144 -1.2327 -0.4286 -0.1792
  790MOL0     H 8970  12.455   5.627  10.900 -1.5585  0.1969 -1.1966
  790MOL0     H 8971  12.455   5.723  11.047 -1.9051 -0.4004  1.1265
  790MOL0     H 8972  12.251   5.838  10.961  0.2714 -2.3175  1.9320
  790MOL0     H 8973  12.395   5.867  10.859 -2.9232  2.7547 -0.7811
  790MOL0     H 8974  12.238   5.830  10.706  0.8374 -1.9494 -2.9208
  790MOL0     H 8975  12.324   5.685  10.709  1.3859 -1.3806  1.5566
  790MOL0     H 8976  12.073   5.687  10.684 -3.7302  0.2794  1.4046
  790MOL0     H 8977  12.107   5.582  10.823  2.6968  1.0972  2.4347
  790MOL0     H 8978  11.874   5.908  11.002 -1.4545 -1.0927  0.5223
  790MOL0     H 8979  11.684   6.004  11.068 -1.5431 -0.4662  1.9511
  790MOL0     H 8980  11.555   5.885  11.096  0.9000  2.5299  2.9907
  790MOL0     H 8981  11.538   6.004  10.964  2.2103  2.0264 -0.9547
  790MOL0     H 8982  11.245   5.544  10.940 -1.0906 -1.6963 -1.3001
  790MOL0     H 8983  10.992   5.543  10.858 -1.1825  0.2882  0.9919
  790MOL0     H 8984  10.833   5.639  10.664 -1.8376  0.5907 -1.7768
  790MOL0     H 8985  10.779   5.580  10.823 -1.7814 -0.1803 -0.9534
  790MOL0     H 8986  10.579   5.622  10.695  1.6031  0.4102 -3.6805
  790MOL0     H 8987  10.593   5.767  10.801 -0.5955 -0.3509  0.1561
  790MOL0     H 8988  10.528   5.802  10.561 -0.2963 -1.8264 -1.4971
  790MOL0     H 8989  10.673   5.718  10.500  0.4529  0.8506 -0.9465
  790MOL0     H 8990  10.815   5.890  10.575  0.7927  2.2672 -2.2661
  790MOL0     H 8991  10.699   5.966  10.685 -0.2959  0.4247 -0.8280
  790MOL0     H 8992  10.563   6.017  10.483  0.2662 -0.5430  2.8331
  790MOL0     H 8993  10.707   6.117  10.500  0.8097  0.1921 -0.6511
  790MOL0     H 8994  10.758   5.865  10.342  0.7329 -0.2223  2.1803
  790MOL0     H 8995  10.807   6.028  10.306 -1.9047 -1.1735 -3.1143
  790MOL0     H 8996  10.582   6.106  10.260  1.1846  0.9588 -2.5613
  790MOL0     H 8997  10.526   5.938  10.255 -1.0140  1.5438 -0.6832
  790MOL0     H 8998  10.575   6.022  10.021  0.0837  0.2774  1.5839
  790MOL0     H 8999  10.671   5.877  10.076  0.3977 -1.3323  1.3664
  790MOL0     H 9000  10.999   5.972  10.890 -1.7198 -0.7568  0.1074
  790MOL0     H 9001  11.236   5.964  10.956 -2.4724  2.3498 -3.0907
  790MOL0     H 9002  11.637   5.571  10.732  0.2486  0.4554 -1.6417
  790MOL0     H 9003  11.871   5.582  10.723 -1.0949  1.9978 -2.7250
  790MOL0     H 9004  10.855   5.393  11.439 -1.4462  0.3283  1.2387
  790MOL0     H 9005  10.614   5.453  11.396 -0.8713 -2.4657 -1.7268
  790MOL0     H 9006  10.343   5.727  11.347 -1.3077 -0.9503  1.2090
  790MOL0     H 9007  10.103   5.790  11.369 -2.6427  0.1014 -1.1995
  790MOL0     H 9008   9.951   5.938  11.036  1.3008 -0.0114 -0.8140
  790MOL0     H 9009   9.859   5.784  10.980  0.7059 -0.1213  0.3452
  790MOL0     H 9010   9.665   5.837  11.091  0.7985  0.0068  0.5671
  790MOL0     H 9011   9.726   5.982  11.012 -0.5451  0.8257  0.2218
  790MOL0     H 9012   9.746   5.917  11.310 -1.0659 -0.3162  0.5377
  790MOL0     H 9013   9.826   6.055  11.221  1.2373 -1.5413  2.5746
  790MOL0     H 9014   9.523   5.996  11.256 -1.3438  1.5508 -0.8218
  790MOL0     H 9015   9.591   6.125  11.163  0.4539  2.1944  2.2252
  790MOL0     H 9016   9.635   6.293  11.638  0.8253 -0.8518  0.0371
  790MOL0     H 9017  10.058   5.695  10.950  0.0774  0.5800 -0.2533
  790MOL0     H 9018  10.213   5.645  10.804 -0.1704 -1.1092  0.6198
  790MOL0     H 9019  10.372   5.697  10.847  1.4743 -2.8423 -2.1476
  790MOL0     H 9020  10.334   5.532  10.857  0.9733 -0.0971 -2.3447
  791MOL0     O 9021  10.332   2.642   7.277  0.1017  0.7204 -0.4767
  791MOL0     C 9022  10.299   2.656   7.163  0.4673 -0.3243  0.7864
  791MOL0     O 9023  10.366   2.739   7.069  0.6877 -1.2046  0.0993
  791MOL0     C 9024  10.478   2.810   7.089  0.4180 -0.3494 -0.0672
  791MOL0     C 9025  10.528   2.850   7.213  0.4066 -0.1711 -0.6888
  791MOL0     C 9026  10.649   2.920   7.225 -0.6871  0.6967 -0.2042
  791MOL0     C 9027  10.718   2.953   7.106  0.4926  0.2567  0.4757
  791MOL0     O 9028  10.840   3.015   7.099  0.4606 -0.5760 -0.6225
  791MOL0     C 9029  10.907   3.040   7.227 -0.1999 -0.2501  0.4793
  791MOL0     C 9030  11.037   3.101   7.203  0.5210  0.1638 -0.0618
  791MOL0     C 9031  11.146   3.001   7.166  0.0793  0.7900  0.4992
  791MOL0     C 9032  11.279   3.045   7.123  0.5273  0.1050  0.1840
  791MOL0     C 9033  11.381   2.937   7.093 -1.0842 -0.3957 -0.0404
  791MOL0     C 9034  11.527   2.983   7.115  0.5304  0.7622  0.1338
  791MOL0     C 9035  11.574   2.955   7.253 -0.6729 -0.2309  0.2770
  791MOL0     C 9036  11.720   2.997   7.291  0.4064 -0.3099 -0.1094
  791MOL0     N 9037  11.809   2.949   7.195 -0.4036 -0.3411  0.2805
  791MOL0     C 9038  11.852   2.826   7.160  0.6660 -0.0159  0.0963
  791MOL0     C 9039  11.946   2.841   7.061  0.0582 -0.2130  1.2674
  791MOL0     C 9040  12.025   2.734   6.991  0.7360 -0.5312  0.0923
  791MOL0     C 9041  12.175   2.754   7.000  0.9074 -0.3769  0.1442
  791MOL0     C 9042  12.276   2.645   6.948 -0.2156  0.6098  0.1480
  791MOL0     C 9043  12.276   2.516   7.038 -0.4794  0.3930  0.6559
  791MOL0     O 9044  12.300   2.552   7.177 -0.1408  0.5339 -0.5745
  791MOL0     C 9045  12.426   2.580   7.222 -0.3418 -0.2661 -0.0203
  791MOL0     C 9046  12.445   2.630   7.355 -0.7942 -0.2768  0.2069
  791MOL0     C 9047  12.565   2.671   7.407  0.2677  0.3558  0.1527
  791MOL0     C 9048  12.579   2.711   7.548  0.3650 -0.1417  0.4375
  791MOL0     C 9049  12.683   2.671   7.320  0.1149  0.1360  0.3107
  791MOL0     C 9050  12.815   2.716   7.359 -0.1987 -0.7125 -0.8360
  791MOL0     O 9051  12.849   2.723   7.488  0.5870 -0.4587 -0.1409
  791MOL0     C 9052  12.957   2.789   7.552 -0.0172  0.3640 -0.6312
  791MOL0     C 9053  12.949   2.811   7.688 -0.7734  0.2594 -0.4491
  791MOL0     C 9054  13.054   2.878   7.750 -0.2955 -0.0079  0.1984
  791MOL0     C 9055  13.170   2.909   7.693  0.2993  0.1995  0.0219
  791MOL0     O 9056  13.277   2.950   7.765  0.2454 -0.7542  0.2778
  791MOL0     C 9057  13.396   2.982   7.706 -0.1388  0.4023  0.2156
  791MOL0     C 9058  13.476   3.025   7.831 -0.7569 -0.0658  0.3551
  791MOL0     C 9059  13.619   3.047   7.799  0.5059  0.0768  0.6487
  791MOL0     C 9060  13.698   3.080   7.927 -0.1812 -0.0322  0.1201
  791MOL0     C 9061  13.830   3.155   7.893  0.5878 -0.5008  0.0339
  791MOL0     C 9062  13.870   3.221   8.020  0.0663  0.2324  0.5159
  791MOL0     C 9063  13.905   3.116   8.132 -0.0150 -0.1940  0.4063
  791MOL0     C 9064  13.955   3.180   8.257  0.6129 -0.0170 -0.3557
  791MOL0    Cl 9065  13.827   3.269   8.350  0.0375  0.1888 -0.0105
  791MOL0     C 9066  13.179   2.888   7.555 -0.1518  0.3049  0.1629
  791MOL0     C 9067  13.071   2.838   7.482 -0.1278  0.0704  0.2768
  791MOL0     O 9068  12.892   2.742   7.267  0.3712  0.8632 -0.3970
  791MOL0     C 9069  12.656   2.631   7.186 -0.8455  0.0643 -1.3703
  791MOL0     C 9070  12.539   2.581   7.136  0.4281  0.7473 -0.3115
  791MOL0     N 9071  11.962   2.973   7.041  0.7988 -0.4061  0.3039
  791MOL0     N 9072  11.886   3.036   7.127 -0.2341  0.2534  0.0209
  791MOL0     C 9073  10.662   2.910   6.987 -0.0529 -0.2993  0.1402
  791MOL0     C 9074  10.540   2.850   6.973  0.1090  0.4198  1.0629
  791MOL0     C 9075  10.184   2.583   7.114  1.1918 -0.3906 -0.3829
  791MOL0     C 9076  10.125   2.636   6.995  0.9269  0.0934  0.5073
  791MOL0     C 9077  10.009   2.580   6.944  0.3444 -0.3074 -0.5169
  791MOL0     C 9078   9.949   2.471   7.004  0.6986 -0.9915 -0.3645
  791MOL0     O 9079   9.831   2.414   6.961  0.4374  0.0982  0.1005
  791MOL0     C 9080   9.746   2.475   6.868 -0.3679  0.2029  0.4974
  791MOL0     C 9081   9.614   2.398   6.857  0.4607  0.7841  0.2702
  791MOL0     C 9082   9.527   2.434   6.732 -0.3752  0.0345 -0.6531
  791MOL0     C 9083   9.455   2.307   6.670  0.0792  0.1201  0.6413
  791MOL0     C 9084   9.362   2.341   6.562 -0.3591 -0.6097  0.4630
  791MOL0     C 9085   9.294   2.360   6.464 -0.3812  1.0433 -0.4769
  791MOL0     C 9086  10.000   2.420   7.123 -0.7588 -1.0239 -0.4222
  791MOL0     C 9087  10.115   2.478   7.179 -0.3568  0.5458 -0.3729
  791MOL0     C 9088  10.178   2.416   7.308 -0.4910  0.4405  0.1194
  791MOL0     H 9089  10.469   2.832   7.303  0.7814  1.4791 -0.0742
  791MOL0     H 9090  10.680   2.939   7.327 -0.0166 -3.6993  0.6225
  791MOL0     H 9091  10.938   2.948   7.277  2.5349  1.1251  1.5493
  791MOL0     H 9092  10.849   3.106   7.293  1.5076  2.1416 -0.2467
  791MOL0     H 9093  11.019   3.181   7.130 -0.5867  4.1351  4.1205
  791MOL0     H 9094  11.071   3.148   7.296  2.9023 -1.9362  0.2299
  791MOL0     H 9095  11.166   2.932   7.249 -1.0910 -0.1359  0.0330
  791MOL0     H 9096  11.110   2.942   7.082  3.6506 -1.2633  0.2535
  791MOL0     H 9097  11.274   3.115   7.040 -1.4565  1.7192  1.5642
  791MOL0     H 9098  11.321   3.097   7.210  0.4887  1.3695 -0.5375
  791MOL0     H 9099  11.367   2.921   6.986 -1.6646  1.1420 -0.2168
  791MOL0     H 9100  11.367   2.842   7.144 -0.3267 -0.1888  0.5671
  791MOL0     H 9101  11.589   2.917   7.053  0.0541 -1.6870  2.1141
  791MOL0     H 9102  11.547   3.086   7.084 -0.4144  1.0930  0.5790
  791MOL0     H 9103  11.565   2.847   7.264 -0.2690 -0.8017 -3.4717
  791MOL0     H 9104  11.506   3.016   7.313  0.3268  2.8836 -1.5302
  791MOL0     H 9105  11.723   3.107   7.287  1.8509 -0.2932  0.7633
  791MOL0     H 9106  11.750   2.966   7.391 -0.0757 -0.0653  0.1121
  791MOL0     H 9107  11.820   2.730   7.200  0.5352  0.5995  1.5246
  791MOL0     H 9108  11.999   2.734   6.885  0.6798  1.7627  0.0441
  791MOL0     H 9109  11.994   2.638   7.033 -1.5860  0.3424  0.5417
  791MOL0     H 9110  12.204   2.845   6.946  1.6324  0.3815  1.7474
  791MOL0     H 9111  12.187   2.779   7.106 -2.5052  2.7974  0.0176
  791MOL0     H 9112  12.242   2.619   6.848  0.7837 -5.6074  1.0296
  791MOL0     H 9113  12.377   2.685   6.936  0.3714 -0.4795  1.2144
  791MOL0     H 9114  12.172   2.484   7.025 -0.2683 -0.9590  1.9128
  791MOL0     H 9115  12.341   2.436   7.000 -1.7262  0.1024 -0.9944
  791MOL0     H 9116  12.358   2.630   7.421 -0.8417 -2.1570  0.1961
  791MOL0     H 9117  12.483   2.709   7.600  0.1912  1.1329  0.1891
  791MOL0     H 9118  12.626   2.809   7.559  2.0898 -0.6756 -1.5032
  791MOL0     H 9119  12.635   2.628   7.593  1.4739 -0.4435 -1.4148
  791MOL0     H 9120  12.857   2.792   7.742  0.1113 -1.6841  0.4723
  791MOL0     H 9121  13.038   2.906   7.854 -2.0617  1.4775 -0.4161
  791MOL0     H 9122  13.444   2.895   7.660  0.4735  1.1635 -0.6206
  791MOL0     H 9123  13.389   3.062   7.632  0.9145  2.2397  1.9883
  791MOL0     H 9124  13.431   3.111   7.881 -2.4635 -1.3681  1.1864
  791MOL0     H 9125  13.478   2.948   7.909 -0.8894  0.5298  0.9526
  791MOL0     H 9126  13.624   3.123   7.719  1.9004 -2.7686 -2.1944
  791MOL0     H 9127  13.661   2.955   7.757 -0.0529 -0.9467  2.2481
  791MOL0     H 9128  13.735   2.988   7.974 -1.9967 -1.3808 -0.9643
  791MOL0     H 9129  13.638   3.145   7.991  1.0487  2.0416 -0.7098
  791MOL0     H 9130  13.905   3.089   7.848 -1.0048 -0.3950 -3.0418
  791MOL0     H 9131  13.817   3.232   7.816 -0.2507 -2.4320 -1.8617
  791MOL0     H 9132  13.791   3.286   8.060 -0.1844 -0.1681  0.6759
  791MOL0     H 9133  13.953   3.288   7.996  0.9119  0.2410  3.1687
  791MOL0     H 9134  13.972   3.039   8.093  0.1438  0.1783 -0.0625
  791MOL0     H 9135  13.811   3.065   8.154 -0.2201  0.9848  2.5692
  791MOL0     H 9136  14.031   3.255   8.233 -0.3998  0.5019 -2.0945
  791MOL0     H 9137  13.994   3.105   8.327 -3.1269  0.1409  2.2130
  791MOL0     H 9138  13.278   2.896   7.511 -0.2788 -2.8889 -0.9758
  791MOL0     H 9139  13.077   2.817   7.376 -0.2468 -0.0505  0.2929
  791MOL0     H 9140  12.745   2.631   7.124 -0.3666 -2.9129 -0.8548
  791MOL0     H 9141  12.535   2.540   7.036 -0.3461 -1.7449  0.6399
  791MOL0     H 9142  10.726   2.920   6.900  1.6628  0.8865  1.4604
  791MOL0     H 9143  10.498   2.821   6.877 -0.1303  0.2288  1.2252
  791MOL0     H 9144  10.179   2.712   6.940  3.1209 -1.5725  0.2389
  791MOL0     H 9145   9.967   2.612   6.849 -0.6040  0.3048  0.0898
  791MOL0     H 9146   9.722   2.576   6.904 -0.1945  0.5696 -0.3733
  791MOL0     H 9147   9.802   2.480   6.774 -1.7209  2.1288 -0.2940
  791MOL0     H 9148   9.554   2.412   6.947 -0.2944  1.6780 -0.3584
  791MOL0     H 9149   9.647   2.295   6.845 -0.1595  0.7364 -1.1334
  791MOL0     H 9150   9.449   2.498   6.774 -0.2675 -0.8785  1.0609
  791MOL0     H 9151   9.595   2.490   6.669  0.9955  0.4965  1.1514
  791MOL0     H 9152   9.390   2.254   6.740  0.2343  0.6093  1.1569
  791MOL0     H 9153   9.532   2.246   6.621 -0.4285 -1.8578  2.1924
  791MOL0     H 9154   9.234   2.386   6.379 -4.1368 -0.0846  1.6355
  791MOL0     H 9155   9.956   2.328   7.160 -1.1575 -0.9572 -0.7240
  791MOL0     H 9156  10.284   2.430   7.328 -0.5644  3.9286 -1.1357
  791MOL0     H 9157  10.130   2.461   7.396  1.6314 -0.2447  1.7037
  791MOL0     H 9158  10.154   2.309   7.311  3.1187 -0.4776  2.2140
  792MOL0     O 9159   7.725   7.962   1.836  0.3099 -0.3926 -0.3105
  792MOL0     C 9160   7.660   7.875   1.776 -0.1681 -0.9771 -0.6330
  792MOL0     O 9161   7.692   7.748   1.750  0.1371  0.3785  0.2542
  792MOL0     C 9162   7.829   7.710   1.759  0.1972 -1.1750 -0.6311
  792MOL0     C 9163   7.946   7.793   1.762 -0.0725  0.6759 -0.1859
  792MOL0     C 9164   8.076   7.747   1.788 -0.3855  0.1449 -0.4344
  792MOL0     C 9165   8.097   7.607   1.811  0.2545 -0.8052 -0.3993
  792MOL0     O 9166   8.223   7.565   1.793 -0.1850 -0.0894  0.6390
  792MOL0     C 9167   8.265   7.436   1.842  0.9771 -0.0165  0.2623
  792MOL0     C 9168   8.409   7.412   1.810  0.0249 -0.6631  0.4011
  792MOL0     C 9169   8.420   7.412   1.653 -0.1617  0.0217  0.2753
  792MOL0     C 9170   8.557   7.456   1.601  1.3986 -1.0701  0.2329
  792MOL0     C 9171   8.679   7.399   1.675 -0.4067  0.4690 -0.0419
  792MOL0     C 9172   8.706   7.253   1.645 -0.1013 -0.2505  0.6092
  792MOL0     C 9173   8.817   7.195   1.747 -0.0171 -0.2613 -0.4734
  792MOL0     C 9174   8.963   7.229   1.710  0.2471  0.1790  0.2593
  792MOL0     N 9175   8.996   7.173   1.584 -0.3174  0.2648 -0.1900
  792MOL0     C 9176   8.980   7.247   1.474 -0.1110  0.0482  0.0903
  792MOL0     C 9177   9.048   7.176   1.382 -0.6901  0.3474  0.7133
  792MOL0     C 9178   9.047   7.215   1.245 -0.5027 -0.4915  0.1940
  792MOL0     C 9179   9.183   7.215   1.191 -0.6816  0.9504  0.7040
  792MOL0     C 9180   9.285   7.320   1.243 -0.3097  0.3451  0.0383
  792MOL0     C 9181   9.407   7.319   1.154  0.3844 -0.3859 -0.0396
  792MOL0     O 9182   9.483   7.197   1.191  0.4498 -0.1416 -0.1671
  792MOL0     C 9183   9.600   7.168   1.137 -0.0267  0.2637  0.0364
  792MOL0     C 9184   9.661   7.235   1.030  0.1595  0.0174 -0.0416
  792MOL0     C 9185   9.787   7.194   0.972  0.2521 -0.9442 -0.1326
  792MOL0     C 9186   9.840   7.279   0.858  0.4873  0.3006  0.2732
  792MOL0     C 9187   9.848   7.075   1.022  0.3545 -0.1049 -0.2810
  792MOL0     C 9188   9.971   7.007   0.966  0.2416  0.0644 -0.6280
  792MOL0     O 9189  10.019   6.891   1.023 -0.1473 -0.1008 -0.5956
  792MOL0     C 9190  10.135   6.830   0.966  0.0960  0.6627  0.3388
  792MOL0     C 9191  10.116   6.743   0.850 -0.1695 -0.2010  0.4458
  792MOL0     C 9192  10.228   6.681   0.798  0.4027  0.3373  0.7269
  792MOL0     C 9193  10.354   6.698   0.847  0.1493  0.6554 -0.3720
  792MOL0     O 9194  10.467   6.636   0.794 -0.2334 -0.2500  0.1544
  792MOL0     C 9195  10.543   6.699   0.694 -0.4961  0.0414 -0.2811
  792MOL0     C 9196  10.685   6.689   0.741  0.0323 -0.4014  0.4793
  792MOL0     C 9197  10.781   6.754   0.643  0.6519 -1.0891 -0.2567
  792MOL0     C 9198  10.921   6.758   0.703 -0.1875 -0.4851  0.5790
  792MOL0     C 9199  11.026   6.835   0.620  0.0338 -0.0100 -0.3461
  792MOL0     C 9200  11.158   6.846   0.694 -0.5936  0.1063  0.5825
  792MOL0     C 9201  11.284   6.874   0.598 -0.5689 -0.3331  0.0788
  792MOL0     C 9202  11.394   6.961   0.664 -0.5460  0.0882 -0.0347
  792MOL0    Cl 9203  11.339   7.105   0.745  0.1062 -0.0791 -0.1347
  792MOL0     C 9204  10.364   6.779   0.961 -1.2340 -0.3609 -0.8875
  792MOL0     C 9205  10.264   6.842   1.018  0.2597  0.6556 -0.7758
  792MOL0     O 9206  10.037   7.075   0.890  0.1809  0.2198 -0.4158
  792MOL0     C 9207   9.783   7.005   1.123 -0.6908 -0.2822 -0.9296
  792MOL0     C 9208   9.665   7.051   1.180 -0.5850 -0.0638  0.2396
  792MOL0     N 9209   9.106   7.065   1.437  0.2208 -0.1588 -0.2877
  792MOL0     N 9210   9.080   7.068   1.564 -0.2388 -0.5286  0.4825
  792MOL0     C 9211   7.983   7.526   1.816 -0.5741 -0.1321  0.1139
  792MOL0     C 9212   7.856   7.574   1.788 -0.1091 -0.8293  0.9400
  792MOL0     C 9213   7.529   7.927   1.728 -0.3184 -0.1756 -0.3110
  792MOL0     C 9214   7.440   7.836   1.677 -0.4151  0.7702 -0.1062
  792MOL0     C 9215   7.326   7.878   1.610  0.9322  0.5448 -0.3584
  792MOL0     C 9216   7.289   8.013   1.609 -0.4722  0.1822 -0.6372
  792MOL0     O 9217   7.169   8.039   1.562  0.1389 -0.8250  0.2974
  792MOL0     C 9218   7.126   8.176   1.521 -0.8367  0.1781 -0.0898
  792MOL0     C 9219   7.002   8.185   1.440  0.4352 -0.4170  0.3799
  792MOL0     C 9220   6.899   8.078   1.486  0.5191  0.0672 -0.2282
  792MOL0     C 9221   6.764   8.077   1.413  0.4215 -0.2696 -0.2814
  792MOL0     C 9222   6.674   7.975   1.472  0.2862  0.6021 -0.4705
  792MOL0     C 9223   6.618   7.886   1.532  0.2589  0.4569 -0.8498
  792MOL0     C 9224   7.374   8.106   1.673 -0.3119 -0.3920  0.2193
  792MOL0     C 9225   7.498   8.065   1.729 -0.2300  0.0788  0.6962
  792MOL0     C 9226   7.571   8.171   1.785  0.5724  0.2822  0.5899
  792MOL0     H 9227   7.940   7.901   1.755 -1.1952  0.7253  1.1143
  792MOL0     H 9228   8.162   7.810   1.770  0.8997 -1.8982 -1.8456
  792MOL0     H 9229   8.206   7.353   1.802 -0.0425  1.3108 -1.0747
  792MOL0     H 9230   8.260   7.430   1.952 -0.4427  0.0142  0.2198
  792MOL0     H 9231   8.470   7.493   1.852 -1.0631  1.4886 -1.9442
  792MOL0     H 9232   8.449   7.319   1.852  0.1969 -0.6268  0.3190
  792MOL0     H 9233   8.409   7.311   1.612  0.5937  0.1393 -0.2378
  792MOL0     H 9234   8.344   7.470   1.599 -0.3091 -1.5435 -1.2634
  792MOL0     H 9235   8.566   7.447   1.492 -0.5854  0.2135 -0.0971
  792MOL0     H 9236   8.558   7.565   1.613  2.4772 -1.2383  1.9420
  792MOL0     H 9237   8.683   7.409   1.784 -0.0007 -3.4402  0.4457
  792MOL0     H 9238   8.762   7.454   1.631  0.7421 -2.6845 -2.1807
  792MOL0     H 9239   8.619   7.192   1.672  1.2313 -2.5544  0.0372
  792MOL0     H 9240   8.725   7.233   1.539  1.1220 -3.1560  1.2728
  792MOL0     H 9241   8.807   7.086   1.746 -1.3701 -0.1567 -0.2191
  792MOL0     H 9242   8.802   7.227   1.850 -0.2793 -0.0439 -0.5759
  792MOL0     H 9243   8.968   7.338   1.703 -1.8812  0.2436 -1.2979
  792MOL0     H 9244   9.037   7.188   1.780  2.6133  1.0480 -1.6118
  792MOL0     H 9245   8.925   7.337   1.451 -2.7757 -2.2800 -3.6490
  792MOL0     H 9246   8.997   7.312   1.239 -3.0715 -1.3965  4.0310
  792MOL0     H 9247   8.979   7.153   1.186 -2.1379  1.9540 -0.6590
  792MOL0     H 9248   9.211   7.113   1.218 -2.7859  0.8009  2.6236
  792MOL0     H 9249   9.187   7.228   1.082  2.0687  0.9393  0.7146
  792MOL0     H 9250   9.238   7.418   1.252 -1.4433 -0.0972 -0.7624
  792MOL0     H 9251   9.302   7.286   1.345  1.2603  1.1245  0.0637
  792MOL0     H 9252   9.383   7.300   1.049 -0.7158 -1.9456  0.4532
  792MOL0     H 9253   9.460   7.414   1.167 -3.0307  1.7531 -0.4015
  792MOL0     H 9254   9.610   7.324   0.992 -1.1911 -0.8540 -0.3498
  792MOL0     H 9255   9.941   7.310   0.888  1.0908 -3.3722  2.6481
  792MOL0     H 9256   9.778   7.368   0.847  0.3274  0.1031 -0.5050
  792MOL0     H 9257   9.852   7.228   0.763 -0.9404  2.7484 -1.3385
  792MOL0     H 9258  10.014   6.730   0.814  0.4081  1.3320 -2.0293
  792MOL0     H 9259  10.210   6.619   0.711  1.6055  1.2936 -0.2358
  792MOL0     H 9260  10.540   6.649   0.596 -2.1840  0.4968 -0.4887
  792MOL0     H 9261  10.519   6.806   0.692  0.5796  0.4566  3.1104
  792MOL0     H 9262  10.700   6.741   0.837  0.8263  1.1699 -0.4510
  792MOL0     H 9263  10.706   6.582   0.749 -4.5809 -1.4746  0.7766
  792MOL0     H 9264  10.741   6.855   0.629 -1.3494 -1.9233 -0.8705
  792MOL0     H 9265  10.786   6.702   0.547  3.3787 -1.2128 -0.1323
  792MOL0     H 9266  10.954   6.655   0.723  0.7831 -0.5160 -1.0201
  792MOL0     H 9267  10.921   6.810   0.800  2.1897  0.5976  0.0690
  792MOL0     H 9268  11.028   6.796   0.518 -3.4446  2.1136 -1.4072
  792MOL0     H 9269  10.986   6.936   0.616 -1.4192 -0.1359  4.5529
  792MOL0     H 9270  11.178   6.749   0.740  1.3757 -1.0755 -2.4620
  792MOL0     H 9271  11.149   6.920   0.774  0.0297  0.1908  0.5802
  792MOL0     H 9272  11.244   6.941   0.520 -1.6702 -1.4287 -0.3323
  792MOL0     H 9273  11.322   6.782   0.552 -0.9836 -0.0341 -0.8899
  792MOL0     H 9274  11.465   6.983   0.584  0.8443  2.5612  1.7461
  792MOL0     H 9275  11.442   6.896   0.737  0.0229 -1.3738 -1.6335
  792MOL0     H 9276  10.462   6.809   0.998 -2.1659  0.2716  1.1789
  792MOL0     H 9277  10.280   6.899   1.109 -1.6516  0.1819 -0.0968
  792MOL0     H 9278   9.821   6.903   1.133  1.1276  0.4260 -0.2781
  792MOL0     H 9279   9.618   7.002   1.264 -0.5016 -0.8664 -0.1698
  792MOL0     H 9280   7.997   7.424   1.850  0.6475  0.6556  2.2154
  792MOL0     H 9281   7.776   7.502   1.780  1.4623 -2.4456 -1.9484
  792MOL0     H 9282   7.457   7.729   1.671 -3.4069  0.2061 -0.2087
  792MOL0     H 9283   7.256   7.800   1.583 -0.1252  1.7329 -1.1955
  792MOL0     H 9284   7.111   8.228   1.616  0.4894  0.9153 -0.2551
  792MOL0     H 9285   7.205   8.236   1.475  0.5741 -0.4732  1.3887
  792MOL0     H 9286   7.023   8.181   1.333  0.9356  0.6213  0.4299
  792MOL0     H 9287   6.948   8.279   1.455  0.4989 -0.3351  0.1051
  792MOL0     H 9288   6.942   7.978   1.477 -0.1686 -0.4036  1.3484
  792MOL0     H 9289   6.870   8.092   1.591  0.0841  1.0025 -0.4668
  792MOL0     H 9290   6.786   8.061   1.307  4.3725  2.0167  0.0105
  792MOL0     H 9291   6.715   8.174   1.412  2.8939  1.0519 -0.6048
  792MOL0     H 9292   6.564   7.809   1.584  1.6992 -1.3980 -1.9935
  792MOL0     H 9293   7.349   8.211   1.687  0.1847 -0.0648 -1.1701
  792MOL0     H 9294   7.579   8.168   1.894  0.0530  4.2311  0.8820
  792MOL0     H 9295   7.675   8.180   1.752  0.4629  1.5939  0.5445
  792MOL0     H 9296   7.532   8.270   1.758 -0.9984  0.0415  1.8818
  793MOL0     O 9297   8.373   9.895   0.434 -0.1238 -0.5398 -0.4914
  793MOL0     C 9298   8.342   9.923   0.322 -0.1803  0.7829 -0.2008
  793MOL0     O 9299   8.344  10.059   0.276 -0.0833 -0.3712 -0.0119
  793MOL0     C 9300   8.377  10.154   0.368 -0.4313 -0.4064  0.0527
  793MOL0     C 9301   8.509  10.152   0.414  0.0744  0.4919  0.1607
  793MOL0     C 9302   8.543  10.243   0.513 -0.2251 -0.0337  0.1859
  793MOL0     C 9303   8.452  10.350   0.554 -0.8586 -0.0735  0.4718
  793MOL0     O 9304   8.507  10.432   0.650 -0.6554  0.3896  0.2261
  793MOL0     C 9305   8.429  10.487   0.754  0.1602  0.1951 -0.1678
  793MOL0     C 9306   8.408  10.635   0.724  0.1959 -0.3984 -0.3967
  793MOL0     C 9307   8.547  10.704   0.751  0.1836 -1.2675 -0.3841
  793MOL0     C 9308   8.538  10.865   0.740  0.0235  0.1402  0.2476
  793MOL0     C 9309   8.665  10.924   0.782  0.2451 -0.5593  0.2157
  793MOL0     C 9310   8.655  11.073   0.757 -0.1142  0.2291  0.3862
  793MOL0     C 9311   8.797  11.125   0.772  0.3799  0.1973  0.0521
  793MOL0     C 9312   8.804  11.271   0.738 -0.1562 -0.4839  0.1387
  793MOL0     N 9313   8.926  11.328   0.771  0.1958  1.0038 -0.6146
  793MOL0     C 9314   8.989  11.317   0.889 -0.5899  0.6997 -0.1696
  793MOL0     C 9315   9.102  11.381   0.882 -0.1424  0.0304 -0.5033
  793MOL0     C 9316   9.211  11.371   0.994 -0.0030 -0.1455  0.1715
  793MOL0     C 9317   9.334  11.443   0.960  0.1405 -0.2331  0.8264
  793MOL0     C 9318   9.330  11.596   0.965  0.2288 -0.2310  0.2190
  793MOL0     C 9319   9.463  11.646   0.901  0.2946 -1.1636  0.1308
  793MOL0     O 9320   9.576  11.615   0.986 -0.9189 -0.1682  0.1107
  793MOL0     C 9321   9.691  11.556   0.915  0.3781 -0.2363  0.0870
  793MOL0     C 9322   9.758  11.637   0.827 -0.2235 -0.2934  0.2020
  793MOL0     C 9323   9.868  11.581   0.764  0.0441  0.0696  0.4011
  793MOL0     C 9324   9.937  11.670   0.666  1.0228  0.1567  0.5834
  793MOL0     C 9325   9.904  11.448   0.781  0.5279  0.4007  1.1938
  793MOL0     C 9326  10.026  11.391   0.725 -0.5764 -0.2408  0.5948
  793MOL0     O 9327  10.089  11.457   0.625  0.8589  0.8228  0.7168
  793MOL0     C 9328  10.188  11.391   0.556 -0.1118  0.4206  0.3916
  793MOL0     C 9329  10.156  11.293   0.467 -0.4567 -0.2243  0.7342
  793MOL0     C 9330  10.250  11.224   0.392 -0.1817 -0.5481  0.0939
  793MOL0     C 9331  10.388  11.262   0.416  0.3343 -0.6535  0.0428
  793MOL0     O 9332  10.494  11.222   0.343  1.0169  0.3219  0.2685
  793MOL0     C 9333  10.472  11.124   0.239 -0.8362 -0.3969  0.1919
  793MOL0     C 9334  10.609  11.109   0.168  0.3906 -0.0757  0.0913
  793MOL0     C 9335  10.709  11.026   0.245  0.3111 -0.3875 -0.5022
  793MOL0     C 9336  10.845  11.030   0.168  0.2479 -0.0292  0.6471
  793MOL0     C 9337  10.910  10.890   0.158  0.4565 -0.4487 -0.2247
  793MOL0     C 9338  11.060  10.890   0.111  0.0092  0.3733  0.3061
  793MOL0     C 9339  11.161  10.989   0.160 -0.4907 -0.1711 -0.0562
  793MOL0     C 9340  11.311  10.960   0.131  0.8419  0.1248  0.5031
  793MOL0    Cl 9341  11.355  10.958  -0.041  0.0969  0.1139  0.0908
  793MOL0     C 9342  10.424  11.352   0.514 -0.5312  0.0896 -1.0034
  793MOL0     C 9343  10.324  11.416   0.585  0.4439 -0.6423 -0.0276
  793MOL0     O 9344  10.063  11.286   0.770 -0.4414 -0.3359 -0.6942
  793MOL0     C 9345   9.838  11.371   0.878 -0.3836  0.0847 -0.3941
  793MOL0     C 9346   9.724  11.426   0.935 -0.4340  0.3015  0.7922
  793MOL0     N 9347   9.102  11.446   0.762 -0.2259 -0.5643  0.3085
  793MOL0     N 9348   8.996  11.410   0.697 -0.3859  0.2477 -0.1491
  793MOL0     C 9349   8.321  10.366   0.499 -0.3097  1.0870  0.1275
  793MOL0     C 9350   8.288  10.261   0.406  1.2819 -0.3526 -0.7516
  793MOL0     C 9351   8.278   9.830   0.231  0.3818  0.3799 -0.3580
  793MOL0     C 9352   8.234   9.869   0.102 -0.5842  0.1605  0.2516
  793MOL0     C 9353   8.167   9.780   0.017 -0.0472 -0.3972 -0.1523
  793MOL0     C 9354   8.137   9.650   0.056  0.4689  0.5479  0.1792
  793MOL0     O 9355   8.060   9.555  -0.012  0.4276 -0.1698 -0.1246
  793MOL0     C 9356   7.979   9.589  -0.126  0.2649 -0.5214 -0.6325
  793MOL0     C 9357   7.862   9.691  -0.095 -0.9156 -0.5813  0.5123
  793MOL0     C 9358   7.803   9.670   0.039  0.1346 -0.2410  0.4326
  793MOL0     C 9359   7.734   9.532   0.050  0.6639 -0.0342 -0.3041
  793MOL0     C 9360   7.612   9.537  -0.035  0.3377 -0.1283 -0.2319
  793MOL0     C 9361   7.514   9.550  -0.103  0.0139  0.1685 -0.8209
  793MOL0     C 9362   8.201   9.607   0.172  0.0585 -0.3078 -1.2791
  793MOL0     C 9363   8.257   9.689   0.263  0.1944 -0.0056 -0.0843
  793MOL0     C 9364   8.301   9.627   0.393  0.1346 -0.6197  0.2796
  793MOL0     H 9365   8.579  10.070   0.397  0.4414  0.5020  1.5271
  793MOL0     H 9366   8.641  10.248   0.559 -0.4498  0.5544  0.6197
  793MOL0     H 9367   8.481  10.490   0.850  1.7983  0.6065 -1.0419
  793MOL0     H 9368   8.332  10.437   0.750  1.5420 -2.9030  1.3964
  793MOL0     H 9369   8.376  10.646   0.620  0.7018 -1.6282 -0.7026
  793MOL0     H 9370   8.335  10.685   0.788  0.1126  4.7107 -3.8847
  793MOL0     H 9371   8.567  10.681   0.856 -2.4954  1.2424  0.8123
  793MOL0     H 9372   8.628  10.670   0.686  1.9293 -0.0223  1.0468
  793MOL0     H 9373   8.512  10.888   0.636 -1.0743 -0.0091  0.4725
  793MOL0     H 9374   8.451  10.896   0.799 -0.4576 -2.6530  1.1687
  793MOL0     H 9375   8.743  10.869   0.728 -1.7129 -1.8498 -1.4789
  793MOL0     H 9376   8.677  10.898   0.887  2.1118 -0.1459  0.1468
  793MOL0     H 9377   8.615  11.095   0.658  2.1683 -0.3040 -0.7134
  793MOL0     H 9378   8.592  11.117   0.835  1.1785 -0.5208  1.9212
  793MOL0     H 9379   8.863  11.065   0.708  0.1253 -0.9987  0.8732
  793MOL0     H 9380   8.828  11.112   0.876 -0.5641 -0.6919  0.2418
  793MOL0     H 9381   8.782  11.283   0.631  0.8193 -3.0293 -0.4291
  793MOL0     H 9382   8.740  11.338   0.796  3.4064  0.6683  3.0812
  793MOL0     H 9383   8.963  11.262   0.979 -0.4500  1.5217  0.3811
  793MOL0     H 9384   9.233  11.268   1.023  1.8225  0.0813 -0.2914
  793MOL0     H 9385   9.176  11.415   1.088 -0.5099  0.6466 -0.3729
  793MOL0     H 9386   9.415  11.397   1.016  0.5872 -1.9682 -1.0974
  793MOL0     H 9387   9.347  11.420   0.853 -1.7890 -2.8410  1.0529
  793MOL0     H 9388   9.246  11.642   0.913 -0.8998 -2.5014 -0.1101
  793MOL0     H 9389   9.328  11.632   1.068  3.1093 -2.0120  1.0122
  793MOL0     H 9390   9.470  11.605   0.800  1.8843 -4.5157  1.4667
  793MOL0     H 9391   9.445  11.754   0.889 -1.4697 -1.4428 -0.0844
  793MOL0     H 9392   9.730  11.739   0.805  0.6915 -0.0797 -0.0219
  793MOL0     H 9393   9.939  11.627   0.566  3.2977 -2.9104  1.7940
  793MOL0     H 9394  10.038  11.691   0.702  0.3120  0.7718  2.3809
  793MOL0     H 9395   9.897  11.772   0.673  0.8621  0.1919 -0.7037
  793MOL0     H 9396  10.053  11.265   0.448 -1.1482  2.6739 -0.3307
  793MOL0     H 9397  10.220  11.152   0.316  0.5799  1.2091 -1.9593
  793MOL0     H 9398  10.460  11.026   0.286 -2.8742 -1.3803 -2.1685
  793MOL0     H 9399  10.402  11.152   0.160  2.2322  0.1135 -2.5324
  793MOL0     H 9400  10.591  11.082   0.064  2.7190  3.4892 -1.4204
  793MOL0     H 9401  10.651  11.209   0.154  0.4813 -0.0229  0.7147
  793MOL0     H 9402  10.660  10.929   0.253 -2.3049  0.9849  2.7578
  793MOL0     H 9403  10.724  11.067   0.346 -4.0581 -1.2122  0.7174
  793MOL0     H 9404  10.916  11.101   0.213  2.1134 -0.1788 -1.8417
  793MOL0     H 9405  10.827  11.071   0.068 -2.5002 -1.0088  0.6518
  793MOL0     H 9406  10.902  10.831   0.250  0.5867 -1.7271 -1.0184
  793MOL0     H 9407  10.849  10.831   0.090 -0.3427  0.8455 -0.6822
  793MOL0     H 9408  11.060  10.893   0.002  1.2501 -0.1574  0.2710
  793MOL0     H 9409  11.103  10.795   0.145 -1.8772 -0.7966 -0.4469
  793MOL0     H 9410  11.159  11.008   0.267  2.9779 -0.0565  0.0936
  793MOL0     H 9411  11.142  11.090   0.120  2.1476 -0.0209 -1.1373
  793MOL0     H 9412  11.338  10.865   0.178  0.7202 -0.0139  0.2916
  793MOL0     H 9413  11.368  11.040   0.180 -1.5094  1.3242  1.4416
  793MOL0     H 9414  10.531  11.368   0.526 -0.4685 -0.9986  0.2431
  793MOL0     H 9415  10.346  11.492   0.659  0.9609 -1.4043  0.6253
  793MOL0     H 9416   9.862  11.268   0.905 -0.2316  0.2396  0.0590
  793MOL0     H 9417   9.682  11.362   1.013 -2.1049  1.2402  0.7006
  793MOL0     H 9418   8.249  10.440   0.532 -0.1299  0.9604  0.8351
  793MOL0     H 9419   8.188  10.254   0.363  1.2029  1.9582 -1.0833
  793MOL0     H 9420   8.275   9.962   0.065 -1.0550  0.6949  1.0473
  793MOL0     H 9421   8.129   9.808  -0.081 -0.1458  0.2649  0.0682
  793MOL0     H 9422   8.040   9.632  -0.206 -0.6183  0.0870 -1.0004
  793MOL0     H 9423   7.924   9.499  -0.156  1.7478 -1.3866 -0.8619
  793MOL0     H 9424   7.786   9.681  -0.174 -0.1368  0.9223 -0.4809
  793MOL0     H 9425   7.908   9.789  -0.081  1.9619 -1.8029  0.3483
  793MOL0     H 9426   7.878   9.684   0.117 -0.4115  0.3049  0.8658
  793MOL0     H 9427   7.729   9.748   0.058 -0.7878 -0.6670 -1.1947
  793MOL0     H 9428   7.691   9.516   0.150 -1.6377  1.7607 -0.9116
  793MOL0     H 9429   7.796   9.447   0.019 -3.6009 -3.1637 -1.2641
  793MOL0     H 9430   7.426   9.566  -0.162  0.5210  0.0512 -1.6310
  793MOL0     H 9431   8.181   9.508   0.213 -3.2033  0.0983 -1.5912
  793MOL0     H 9432   8.408   9.644   0.388  0.2012 -1.3226 -2.7417
  793MOL0     H 9433   8.258   9.681   0.478  1.2237  1.6644 -0.5508
  793MOL0     H 9434   8.284   9.520   0.407  0.1420 -0.2979  3.6365
  794MOL0     O 9435   6.820   2.893   8.132 -0.1251 -0.3363 -0.1509
  794MOL0     C 9436   6.823   3.020   8.123  0.8564 -0.0709 -0.1364
  794MOL0     O 9437   6.714   3.105   8.089 -0.2020 -0.1302  0.5393
  794MOL0     C 9438   6.586   3.066   8.099  0.6577 -0.3960 -0.5766
  794MOL0     C 9439   6.550   2.932   8.090 -0.0623  0.6750 -0.5919
  794MOL0     C 9440   6.414   2.900   8.102 -0.1032 -0.8947  0.4992
  794MOL0     C 9441   6.315   3.001   8.107  1.0176 -0.0761  0.1619
  794MOL0     O 9442   6.177   2.983   8.112 -0.1320  0.8632 -0.2975
  794MOL0     C 9443   6.129   2.866   8.038 -0.6000  0.7141 -0.5575
  794MOL0     C 9444   6.000   2.905   7.970  0.4297 -1.5006 -0.3345
  794MOL0     C 9445   5.892   2.898   8.068 -0.0060 -0.5354 -0.6332
  794MOL0     C 9446   5.764   2.932   7.990 -0.4452 -0.1791  0.5485
  794MOL0     C 9447   5.636   2.921   8.077 -0.4937  0.6451 -0.1639
  794MOL0     C 9448   5.606   2.769   8.111 -0.1506 -0.3839 -1.4793
  794MOL0     C 9449   5.471   2.762   8.182 -0.4136  0.3596 -0.3902
  794MOL0     C 9450   5.462   2.635   8.262 -0.4459 -0.1621 -0.4761
  794MOL0     N 9451   5.472   2.507   8.185  0.8014  1.0826  0.4530
  794MOL0     C 9452   5.573   2.414   8.186  0.1079 -0.5392  0.0463
  794MOL0     C 9453   5.533   2.323   8.098  0.0576 -0.1970  0.4689
  794MOL0     C 9454   5.611   2.202   8.054  0.3120  0.5231  0.4211
  794MOL0     C 9455   5.622   2.109   8.170  0.6481 -0.2038  0.3192
  794MOL0     C 9456   5.688   1.979   8.128 -1.2523  0.9362  0.0425
  794MOL0     C 9457   5.844   1.985   8.164 -0.0305  0.0689 -0.5096
  794MOL0     O 9458   5.894   2.118   8.138 -0.0113  0.2246 -0.3217
  794MOL0     C 9459   6.011   2.151   8.200 -0.1413 -0.8663 -0.2143
  794MOL0     C 9460   6.114   2.063   8.243  0.1081 -0.1890 -0.1308
  794MOL0     C 9461   6.232   2.113   8.294  0.2929 -0.5028  0.1875
  794MOL0     C 9462   6.341   2.011   8.321 -1.0446  0.1622 -0.6968
  794MOL0     C 9463   6.264   2.255   8.293  0.2046  0.1256  1.1603
  794MOL0     C 9464   6.401   2.317   8.316 -0.0912  0.1104 -0.5135
  794MOL0     O 9465   6.514   2.234   8.339  0.4400 -0.2833 -1.0152
  794MOL0     C 9466   6.630   2.295   8.382 -0.1222  0.4477  0.0384
  794MOL0     C 9467   6.750   2.245   8.343 -0.1957  0.6152 -0.7778
  794MOL0     C 9468   6.873   2.301   8.391  0.8986  0.2880  0.2702
  794MOL0     C 9469   6.864   2.398   8.488 -0.7780 -0.2080 -0.0855
  794MOL0     O 9470   6.989   2.438   8.536  0.5413  0.5357 -0.5964
  794MOL0     C 9471   7.031   2.575   8.527  0.7152 -0.2924 -0.4367
  794MOL0     C 9472   7.039   2.634   8.383  0.2066 -0.3133  0.1078
  794MOL0     C 9473   7.135   2.556   8.291  0.4174  0.4184  0.9415
  794MOL0     C 9474   7.280   2.545   8.336  0.4512 -1.1033  0.2469
  794MOL0     C 9475   7.363   2.520   8.212 -0.6389 -0.6293  0.6821
  794MOL0     C 9476   7.506   2.507   8.268  0.1658 -1.0008 -0.1325
  794MOL0     C 9477   7.615   2.514   8.155 -0.0748 -0.1475  0.5554
  794MOL0     C 9478   7.645   2.657   8.110 -0.0247  0.1557 -1.1054
  794MOL0    Cl 9479   7.544   2.703   7.964 -0.0094 -0.4252 -0.2215
  794MOL0     C 9480   6.739   2.437   8.536  0.5665  0.5960 -0.8142
  794MOL0     C 9481   6.620   2.391   8.478 -0.4888  0.1490  0.0225
  794MOL0     O 9482   6.411   2.436   8.299 -1.1438 -0.6444  0.1107
  794MOL0     C 9483   6.157   2.344   8.254 -0.5387 -0.1248  0.7412
  794MOL0     C 9484   6.036   2.291   8.211 -0.4726 -0.5087 -0.2825
  794MOL0     N 9485   5.416   2.358   8.038 -0.0743 -0.6517 -0.4345
  794MOL0     N 9486   5.378   2.462   8.095  0.0856 -0.0638 -0.6121
  794MOL0     C 9487   6.353   3.132   8.107  0.5566 -0.9619  0.8301
  794MOL0     C 9488   6.490   3.166   8.107  0.5206  0.1348  0.4639
  794MOL0     C 9489   6.945   3.091   8.168 -0.8779  0.2530  0.0352
  794MOL0     C 9490   7.047   3.015   8.236 -0.4493 -0.4272  0.7816
  794MOL0     C 9491   7.159   3.084   8.280 -0.7295  0.8750 -0.4337
  794MOL0     C 9492   7.182   3.216   8.255 -0.3640 -0.3330  1.0192
  794MOL0     O 9493   7.284   3.292   8.304  0.3390 -0.0765 -0.1903
  794MOL0     C 9494   7.359   3.237   8.408 -1.1393  0.1726 -0.2419
  794MOL0     C 9495   7.475   3.324   8.462 -0.4464 -0.2332  0.2315
  794MOL0     C 9496   7.575   3.367   8.352 -0.7547  0.3398 -0.4657
  794MOL0     C 9497   7.649   3.494   8.373 -0.5942  0.3540 -0.0179
  794MOL0     C 9498   7.736   3.472   8.489  0.3963 -0.0536 -0.2962
  794MOL0     C 9499   7.793   3.460   8.594  0.5954  0.3985 -0.0174
  794MOL0     C 9500   7.094   3.286   8.177  0.5650 -0.5477 -0.1612
  794MOL0     C 9501   6.968   3.229   8.138 -0.4842 -0.0971  0.1038
  794MOL0     C 9502   6.886   3.316   8.044  0.0977 -0.5168  0.1870
  794MOL0     H 9503   6.613   2.846   8.069 -1.2655 -0.2806 -0.3967
  794MOL0     H 9504   6.386   2.795   8.107 -1.1221 -0.9083 -2.9875
  794MOL0     H 9505   6.119   2.778   8.102 -0.7792  0.3206 -1.1148
  794MOL0     H 9506   6.204   2.839   7.963  1.9405 -0.9912  2.3665
  794MOL0     H 9507   6.017   3.003   7.924  0.9454 -1.5062 -0.1608
  794MOL0     H 9508   5.973   2.836   7.889  1.4898 -0.8679 -1.2475
  794MOL0     H 9509   5.889   2.801   8.119 -1.8088 -0.1085  0.1476
  794MOL0     H 9510   5.910   2.978   8.140  0.5395  0.2012 -1.5511
  794MOL0     H 9511   5.773   3.033   7.949 -1.4458  0.0038  0.7440
  794MOL0     H 9512   5.748   2.861   7.908 -0.0223  1.5714 -1.1138
  794MOL0     H 9513   5.550   2.959   8.021 -0.3804 -1.2193 -1.7101
  794MOL0     H 9514   5.642   2.985   8.165  2.3058 -1.5673  1.4309
  794MOL0     H 9515   5.606   2.709   8.020  1.2919 -0.5172 -1.4157
  794MOL0     H 9516   5.682   2.739   8.184  0.8911  0.4322 -2.2050
  794MOL0     H 9517   5.390   2.761   8.109 -0.3144  1.3604 -0.5243
  794MOL0     H 9518   5.460   2.841   8.258 -0.2901  1.1146 -1.1388
  794MOL0     H 9519   5.548   2.631   8.331  0.8494  1.3761 -1.9091
  794MOL0     H 9520   5.365   2.639   8.311 -2.2444  0.3025 -3.8066
  794MOL0     H 9521   5.659   2.438   8.247 -0.5293  0.0830  0.7148
  794MOL0     H 9522   5.715   2.224   8.026  0.2507  1.8955  1.1677
  794MOL0     H 9523   5.563   2.151   7.970 -1.5080 -0.1100  1.7942
  794MOL0     H 9524   5.667   2.158   8.257  1.3003 -0.3761  0.0868
  794MOL0     H 9525   5.524   2.074   8.204  0.9435 -1.5989 -0.2085
  794MOL0     H 9526   5.657   1.885   8.176  2.0638 -0.5500 -0.4154
  794MOL0     H 9527   5.686   1.976   8.019  0.4325 -0.0811  0.0050
  794MOL0     H 9528   5.859   1.967   8.271 -0.8434  1.8799 -0.0475
  794MOL0     H 9529   5.892   1.904   8.107 -1.3476 -1.6854  0.7376
  794MOL0     H 9530   6.093   1.957   8.247  1.3079 -0.4105  0.8881
  794MOL0     H 9531   6.419   2.018   8.245 -1.2219 -1.4280 -1.0652
  794MOL0     H 9532   6.308   1.907   8.312  0.4971 -0.4499  0.5226
  794MOL0     H 9533   6.374   2.025   8.424 -1.6550  1.1462 -0.6190
  794MOL0     H 9534   6.745   2.162   8.272 -1.1724 -1.3112  1.4061
  794MOL0     H 9535   6.967   2.258   8.359  0.2544  0.7454 -2.4449
  794MOL0     H 9536   6.966   2.636   8.589  1.8851  2.0209 -1.3865
  794MOL0     H 9537   7.132   2.588   8.567  0.9042 -0.1521 -0.9469
  794MOL0     H 9538   6.942   2.646   8.334  1.0963 -1.9389 -2.2546
  794MOL0     H 9539   7.083   2.734   8.392  0.3947 -0.2113 -1.5036
  794MOL0     H 9540   7.134   2.614   8.198 -0.7706 -0.8328  0.1341
  794MOL0     H 9541   7.091   2.456   8.280 -2.2881  1.2790  2.8070
  794MOL0     H 9542   7.301   2.479   8.422 -1.1317  0.4942  1.9351
  794MOL0     H 9543   7.303   2.645   8.372  2.2189 -0.4847 -2.3079
  794MOL0     H 9544   7.322   2.430   8.164 -3.8818 -0.7184  3.3157
  794MOL0     H 9545   7.346   2.599   8.138 -0.6709  0.2158  1.5817
  794MOL0     H 9546   7.514   2.404   8.302  3.2041 -0.9039 -0.3058
  794MOL0     H 9547   7.528   2.574   8.351 -2.5433 -2.8202  2.2349
  794MOL0     H 9548   7.590   2.447   8.071  1.0982 -0.1654  0.2003
  794MOL0     H 9549   7.707   2.477   8.201  0.0639 -2.2014 -1.1720
  794MOL0     H 9550   7.752   2.661   8.086  0.9102 -3.3369  1.6465
  794MOL0     H 9551   7.617   2.724   8.192 -0.3115 -1.2599 -0.0027
  794MOL0     H 9552   6.719   2.501   8.622 -3.1015 -0.0703 -0.9878
  794MOL0     H 9553   6.527   2.430   8.516 -0.5656 -0.3695  0.3837
  794MOL0     H 9554   6.170   2.450   8.237  0.6441 -0.2624  0.6994
  794MOL0     H 9555   5.954   2.356   8.181  1.1051  1.1423 -1.2123
  794MOL0     H 9556   6.275   3.204   8.129 -1.1691 -1.9340 -1.5431
  794MOL0     H 9557   6.530   3.266   8.118 -2.8419  1.4766  1.6501
  794MOL0     H 9558   7.019   2.914   8.263  0.5352 -0.9271 -0.0103
  794MOL0     H 9559   7.226   3.025   8.342 -1.4772  1.1320  0.6573
  794MOL0     H 9560   7.291   3.196   8.484 -0.9014  0.8178  0.3320
  794MOL0     H 9561   7.418   3.148   8.381  3.8891  3.4752 -1.5422
  794MOL0     H 9562   7.520   3.275   8.549 -0.9010 -1.8924 -0.4254
  794MOL0     H 9563   7.429   3.416   8.500  0.5145  1.0636 -1.5948
  794MOL0     H 9564   7.647   3.285   8.342 -1.2664 -0.2732  0.7524
  794MOL0     H 9565   7.515   3.370   8.261 -1.4003 -2.2285 -0.1919
  794MOL0     H 9566   7.575   3.571   8.397 -0.7344  1.2725 -3.0537
  794MOL0     H 9567   7.710   3.524   8.288  0.1516 -0.6062  0.1616
  794MOL0     H 9568   7.847   3.447   8.686  0.7672 -2.5785 -0.4280
  794MOL0     H 9569   7.130   3.385   8.151 -1.3294  0.7459  1.7518
  794MOL0     H 9570   6.811   3.371   8.102  0.6413  1.1339 -0.6146
  794MOL0     H 9571   6.959   3.386   8.003 -0.1507  0.3953  1.2497
  794MOL0     H 9572   6.834   3.264   7.962  2.5238 -0.8460 -1.2266
  795MOL0     O 9573   5.608   1.254   1.185 -0.0575 -0.5405 -0.1806
  795MOL0     C 9574   5.596   1.131   1.201 -0.2811 -0.5923 -0.2877
  795MOL0     O 9575   5.692   1.040   1.209  0.2078  0.4848  0.7239
  795MOL0     C 9576   5.827   1.073   1.232  0.7029  0.4086 -0.0731
  795MOL0     C 9577   5.895   1.173   1.165 -0.0292  1.6274  0.0022
  795MOL0     C 9578   6.029   1.192   1.177 -0.2026 -1.2889 -0.0512
  795MOL0     C 9579   6.106   1.109   1.262 -0.8411  0.0075  0.7097
  795MOL0     O 9580   6.245   1.113   1.276  0.5042 -0.1309  0.0837
  795MOL0     C 9581   6.308   1.220   1.208  0.6692  0.1361 -0.8623
  795MOL0     C 9582   6.459   1.204   1.219 -0.0891  0.3150  0.0909
  795MOL0     C 9583   6.510   1.070   1.171  0.5199 -0.7606  0.2851
  795MOL0     C 9584   6.667   1.058   1.176  0.1032 -0.3114 -0.6722
  795MOL0     C 9585   6.731   1.139   1.065 -0.1050  0.0646 -0.6035
  795MOL0     C 9586   6.874   1.093   1.058  0.7420 -0.6760 -0.2905
  795MOL0     C 9587   6.927   1.144   0.920  0.0460  0.0340 -0.5358
  795MOL0     C 9588   7.073   1.094   0.899 -0.2075  0.3292  0.1450
  795MOL0     N 9589   7.142   1.138   0.774  0.0754 -0.4238  0.1165
  795MOL0     C 9590   7.164   1.267   0.738 -0.4573 -0.2792  0.1700
  795MOL0     C 9591   7.259   1.258   0.644 -0.0200  0.8313 -0.6250
  795MOL0     C 9592   7.329   1.368   0.562 -0.1068  0.9978  0.6540
  795MOL0     C 9593   7.487   1.357   0.569 -0.0181 -0.2252  1.4544
  795MOL0     C 9594   7.551   1.384   0.706 -0.2656  0.6253  0.2916
  795MOL0     C 9595   7.699   1.344   0.697  0.0808  0.0752  0.1749
  795MOL0     O 9596   7.746   1.349   0.834 -0.0682 -0.6704  0.9498
  795MOL0     C 9597   7.869   1.404   0.870  0.0502 -0.3522  0.2418
  795MOL0     C 9598   7.957   1.478   0.782  0.7257  0.8228 -0.5447
  795MOL0     C 9599   8.088   1.508   0.819 -0.5702  0.7367 -0.6795
  795MOL0     C 9600   8.182   1.559   0.711  0.7586 -0.4859  0.3457
  795MOL0     C 9601   8.123   1.474   0.948 -0.6708 -1.2971  0.8105
  795MOL0     C 9602   8.254   1.492   1.008  0.8371  0.4232  0.4488
  795MOL0     O 9603   8.349   1.436   0.931 -0.3106 -0.2889 -0.2066
  795MOL0     C 9604   8.481   1.457   0.955  0.0317  0.5381  0.3312
  795MOL0     C 9605   8.552   1.540   0.869  0.5013  0.1964  0.4513
  795MOL0     C 9606   8.685   1.559   0.903 -0.6753  0.3270  0.4458
  795MOL0     C 9607   8.751   1.490   1.012  0.3209  0.1265 -0.4395
  795MOL0     O 9608   8.882   1.515   1.043 -0.2158 -0.4679  0.0072
  795MOL0     C 9609   8.916   1.527   1.182 -0.3340  1.0473 -0.0914
  795MOL0     C 9610   9.052   1.591   1.191 -0.0898  0.7259  0.5672
  795MOL0     C 9611   9.122   1.611   1.321  0.6215 -0.1883 -0.7713
  795MOL0     C 9612   9.183   1.496   1.399 -0.5834  0.8289  0.1719
  795MOL0     C 9613   9.259   1.554   1.517 -0.1997  0.5212 -0.7490
  795MOL0     C 9614   9.411   1.576   1.494 -0.6404 -0.3013 -0.1635
  795MOL0     C 9615   9.476   1.442   1.477 -0.2843  0.0065  1.2449
  795MOL0     C 9616   9.566   1.440   1.346 -0.5203 -0.5136  0.1066
  795MOL0    Cl 9617   9.703   1.544   1.355 -0.2682  0.2366 -0.0690
  795MOL0     C 9618   8.674   1.413   1.100 -0.1031 -0.2648 -0.5346
  795MOL0     C 9619   8.545   1.399   1.065  0.5063  0.1900 -0.1455
  795MOL0     O 9620   8.273   1.562   1.106 -1.0276  0.0861 -0.6041
  795MOL0     C 9621   8.034   1.410   1.038  0.1473  0.3821 -0.0485
  795MOL0     C 9622   7.903   1.382   1.000  0.3044  0.2523  0.0196
  795MOL0     N 9623   7.298   1.127   0.623 -0.4684 -0.4598  0.4913
  795MOL0     N 9624   7.224   1.053   0.703  0.6137  0.3567  0.5716
  795MOL0     C 9625   6.045   0.995   1.318  0.0904 -0.3074  0.0657
  795MOL0     C 9626   5.906   0.978   1.300 -0.0529 -0.2416 -0.6741
  795MOL0     C 9627   5.465   1.080   1.208  0.0577 -0.7032 -0.4168
  795MOL0     C 9628   5.444   0.959   1.282 -0.2830 -0.1631 -0.0499
  795MOL0     C 9629   5.317   0.903   1.293  0.2063 -0.0659  0.0305
  795MOL0     C 9630   5.206   0.971   1.243  0.8888  0.5038 -0.2268
  795MOL0     O 9631   5.079   0.916   1.251  0.2379  0.2133 -0.4411
  795MOL0     C 9632   5.046   0.908   1.392 -0.0753  0.5473 -0.0405
  795MOL0     C 9633   4.890   0.857   1.399 -0.2069  0.1150 -0.6822
  795MOL0     C 9634   4.800   0.960   1.342  0.1882  0.4457 -0.1258
  795MOL0     C 9635   4.653   0.928   1.358 -0.1296 -0.5120  0.5239
  795MOL0     C 9636   4.576   1.047   1.318 -1.1788 -0.3850  0.1421
  795MOL0     C 9637   4.529   1.153   1.283 -0.5705  0.2574 -0.0144
  795MOL0     C 9638   5.227   1.087   1.167 -0.3524  0.8790 -0.7961
  795MOL0     C 9639   5.353   1.148   1.148  0.3542 -0.0992  0.2143
  795MOL0     C 9640   5.351   1.261   1.049  0.6059 -0.5437 -0.6995
  795MOL0     H 9641   5.837   1.225   1.089 -0.9041 -1.2653 -1.4435
  795MOL0     H 9642   6.067   1.281   1.129  1.0140 -0.2968  2.5522
  795MOL0     H 9643   6.279   1.317   1.249 -0.9035 -0.8762  0.5914
  795MOL0     H 9644   6.281   1.225   1.102  0.4635 -0.4513 -0.8432
  795MOL0     H 9645   6.522   1.283   1.178  2.4937 -0.7315  1.7752
  795MOL0     H 9646   6.493   1.205   1.323  3.3765 -1.4312 -0.8601
  795MOL0     H 9647   6.462   0.999   1.238 -0.7039 -0.1948  0.0479
  795MOL0     H 9648   6.473   1.056   1.070  0.2039 -2.1952  0.5910
  795MOL0     H 9649   6.696   1.087   1.277 -5.3343  3.3284  0.2614
  795MOL0     H 9650   6.684   0.951   1.156 -0.8224 -0.6309  0.2093
  795MOL0     H 9651   6.728   1.245   1.095  1.9057  0.4124 -1.4671
  795MOL0     H 9652   6.668   1.119   0.978  1.6354  0.5771 -2.0479
  795MOL0     H 9653   6.928   1.132   1.145 -2.5039  2.4870  0.5516
  795MOL0     H 9654   6.882   0.984   1.050  2.4122 -0.5098 -1.5131
  795MOL0     H 9655   6.930   1.252   0.909  2.7444 -0.0544 -1.3831
  795MOL0     H 9656   6.858   1.106   0.844  0.5321 -1.6076 -0.1953
  795MOL0     H 9657   7.128   1.132   0.986  1.1873  0.6573 -0.8575
  795MOL0     H 9658   7.082   0.985   0.905 -0.5229  0.0526 -2.9060
  795MOL0     H 9659   7.125   1.358   0.782  0.7588 -0.8269  2.5094
  795MOL0     H 9660   7.306   1.466   0.604 -1.0766  0.6397  0.9815
  795MOL0     H 9661   7.302   1.367   0.456  2.6885 -0.2897 -0.1398
  795MOL0     H 9662   7.520   1.272   0.509 -1.9420  1.9811 -3.3064
  795MOL0     H 9663   7.522   1.437   0.503 -1.9440  0.5293  1.2786
  795MOL0     H 9664   7.543   1.490   0.732 -1.1760  0.2910  1.4737
  795MOL0     H 9665   7.508   1.324   0.787  1.8262 -0.9275  0.3489
  795MOL0     H 9666   7.706   1.240   0.666  0.3531  0.8930 -2.8168
  795MOL0     H 9667   7.752   1.403   0.622 -2.5288  1.2239 -0.8736
  795MOL0     H 9668   7.921   1.493   0.681 -0.3627 -1.8180 -0.6398
  795MOL0     H 9669   8.116   1.622   0.650 -0.0379 -0.6033  1.0614
  795MOL0     H 9670   8.226   1.470   0.664  0.5676 -0.2034 -0.3820
  795MOL0     H 9671   8.256   1.628   0.752  0.1030 -0.7172  2.0068
  795MOL0     H 9672   8.503   1.588   0.785 -2.4411  0.5144  2.1940
  795MOL0     H 9673   8.749   1.617   0.837 -0.9076  0.3609  0.2471
  795MOL0     H 9674   8.842   1.588   1.234  0.2714  0.9854  0.8720
  795MOL0     H 9675   8.922   1.428   1.228  3.1080  0.3356 -1.7613
  795MOL0     H 9676   9.109   1.529   1.121  1.1634  1.2973  1.0577
  795MOL0     H 9677   9.043   1.688   1.142 -0.8755  0.2504 -0.2680
  795MOL0     H 9678   9.065   1.671   1.393  2.3641  1.0204 -0.3340
  795MOL0     H 9679   9.202   1.679   1.291 -1.3766  3.1854  1.0419
  795MOL0     H 9680   9.248   1.433   1.338 -0.8375  1.0552 -0.3405
  795MOL0     H 9681   9.101   1.437   1.440  0.7686 -2.4738 -1.5178
  795MOL0     H 9682   9.220   1.654   1.538  1.5912  1.2542 -0.7241
  795MOL0     H 9683   9.239   1.495   1.608  2.1310 -1.9751 -1.7344
  795MOL0     H 9684   9.448   1.627   1.584  0.2471  1.2442 -1.3586
  795MOL0     H 9685   9.435   1.633   1.404  1.2740  1.7890  1.5708
  795MOL0     H 9686   9.404   1.360   1.469 -0.7522 -0.0508  4.7619
  795MOL0     H 9687   9.536   1.417   1.565  2.9816 -2.1080 -1.3242
  795MOL0     H 9688   9.508   1.487   1.266 -1.6928  0.3664  1.4471
  795MOL0     H 9689   9.597   1.340   1.315  0.6230 -0.4088  0.8489
  795MOL0     H 9690   8.721   1.361   1.182  0.2483 -0.1679 -0.6723
  795MOL0     H 9691   8.489   1.328   1.125  0.4377 -0.1529 -0.6026
  795MOL0     H 9692   8.064   1.387   1.140 -1.2708  0.0584  0.3175
  795MOL0     H 9693   7.839   1.326   1.068  2.7699 -1.7677  0.8642
  795MOL0     H 9694   6.106   0.928   1.377  0.2414 -0.7759 -0.6085
  795MOL0     H 9695   5.859   0.898   1.357  0.9126  0.6246  1.4619
  795MOL0     H 9696   5.528   0.910   1.330  0.5286  0.8553 -0.3957
  795MOL0     H 9697   5.309   0.829   1.371  1.6614 -0.0135  0.2698
  795MOL0     H 9698   5.110   0.847   1.457 -0.4130  0.1918 -0.0392
  795MOL0     H 9699   5.051   1.008   1.435 -0.8393  0.9901 -0.9453
  795MOL0     H 9700   4.875   0.838   1.506 -3.0508  2.2507 -0.5870
  795MOL0     H 9701   4.872   0.759   1.353  1.7548 -0.0697 -1.1692
  795MOL0     H 9702   4.817   1.060   1.384  2.2108 -0.6049  1.7504
  795MOL0     H 9703   4.835   0.969   1.238  0.8374  0.5252  0.0967
  795MOL0     H 9704   4.618   0.909   1.460  0.3800 -0.3161  0.7365
  795MOL0     H 9705   4.627   0.840   1.299 -1.6037 -0.1697  0.6026
  795MOL0     H 9706   4.489   1.245   1.247 -2.3812 -1.4683 -2.7954
  795MOL0     H 9707   5.136   1.134   1.132 -0.2473  0.3164 -1.8737
  795MOL0     H 9708   5.252   1.263   1.003 -0.7700  1.0369  2.1183
  795MOL0     H 9709   5.379   1.354   1.100  1.0301 -2.2901  2.5141
  795MOL0     H 9710   5.422   1.223   0.974  1.7742  1.6136 -0.7572
  796MOL0     O 9711  10.337  11.185   6.998 -0.1250  0.0990  0.0281
  796MOL0     C 9712  10.323  11.063   7.011 -0.2906 -1.0419 -0.7184
  796MOL0     O 9713  10.421  10.978   7.030 -0.0646  0.3325 -0.1373
  796MOL0     C 9714  10.534  11.009   7.108  0.5623 -0.0221 -0.5827
  796MOL0     C 9715  10.658  10.959   7.068  0.4696  0.0310 -0.2930
  796MOL0     C 9716  10.778  10.996   7.124 -0.3640  0.3829  0.2647
  796MOL0     C 9717  10.777  11.100   7.223  0.4092 -0.4935  0.3462
  796MOL0     O 9718  10.898  11.145   7.267 -0.0729  0.5856 -0.5308
  796MOL0     C 9719  10.904  11.204   7.398 -0.6712  0.1552  0.3070
  796MOL0     C 9720  11.049  11.228   7.423  0.2018 -0.8429  0.7267
  796MOL0     C 9721  11.089  11.349   7.335  0.4035  0.5004  0.4499
  796MOL0     C 9722  11.228  11.393   7.362 -0.5679 -0.1331 -0.6430
  796MOL0     C 9723  11.285  11.498   7.263 -0.3097  0.2789 -0.4328
  796MOL0     C 9724  11.408  11.574   7.322 -0.1210 -0.5423 -0.0318
  796MOL0     C 9725  11.481  11.644   7.211 -0.3543 -0.4004  0.2012
  796MOL0     C 9726  11.569  11.554   7.113 -0.1568 -0.1721 -0.2984
  796MOL0     N 9727  11.663  11.635   7.035  0.2478  0.2744 -0.5538
  796MOL0     C 9728  11.757  11.582   6.955  0.0698 -0.0575  0.2328
  796MOL0     C 9729  11.841  11.681   6.906  0.7493  0.2291 -0.0886
  796MOL0     C 9730  11.949  11.655   6.809  0.8994 -0.4679 -0.1081
  796MOL0     C 9731  12.078  11.610   6.871 -1.3000  0.2109 -0.4492
  796MOL0     C 9732  12.140  11.719   6.962  0.2072  0.1329  0.2912
  796MOL0     C 9733  12.296  11.711   6.971 -0.6090  0.8563 -0.8031
  796MOL0     O 9734  12.367  11.701   6.849 -0.3676 -0.3082 -0.0932
  796MOL0     C 9735  12.505  11.715   6.861  0.1095  0.2649 -0.2483
  796MOL0     C 9736  12.567  11.662   6.756  0.2116  1.0318  1.0793
  796MOL0     C 9737  12.714  11.657   6.741  0.5299  0.0595  0.0176
  796MOL0     C 9738  12.758  11.596   6.611 -0.1403 -0.6861  0.0760
  796MOL0     C 9739  12.790  11.696   6.851  0.0301 -0.1965 -0.2480
  796MOL0     C 9740  12.936  11.698   6.846  0.3191  0.6101  0.5007
  796MOL0     O 9741  12.997  11.727   6.732 -0.6162 -0.3533  0.0237
  796MOL0     C 9742  13.131  11.705   6.711  0.0378  0.3382  0.2395
  796MOL0     C 9743  13.208  11.789   6.635 -0.3639 -0.0854  0.0830
  796MOL0     C 9744  13.321  11.746   6.562 -0.5266  0.8582 -0.4176
  796MOL0     C 9745  13.368  11.609   6.576  0.5286  0.1629 -0.2134
  796MOL0     O 9746  13.483  11.550   6.525 -0.1972  0.1915  0.3266
  796MOL0     C 9747  13.534  11.616   6.408  0.5828 -0.5986 -1.2225
  796MOL0     C 9748  13.632  11.524   6.328  0.4106 -0.4357 -0.2417
  796MOL0     C 9749  13.559  11.414   6.252  0.5930  0.7864  0.4135
  796MOL0     C 9750  13.477  11.474   6.136  0.4473 -0.1406  0.8486
  796MOL0     C 9751  13.396  11.364   6.058  0.1613  0.5450  0.1323
  796MOL0     C 9752  13.311  11.410   5.933 -0.1828  0.3425 -0.3380
  796MOL0     C 9753  13.227  11.296   5.881  0.5715 -0.1293  0.0957
  796MOL0     C 9754  13.232  11.291   5.732  0.4521 -0.3296  0.1440
  796MOL0    Cl 9755  13.397  11.294   5.654 -0.0152  0.5560 -0.3119
  796MOL0     C 9756  13.291  11.523   6.666 -1.0694  0.2608 -0.5542
  796MOL0     C 9757  13.175  11.576   6.730  0.2755  0.7789  0.0800
  796MOL0     O 9758  12.995  11.682   6.950  0.1599  0.1754  0.2701
  796MOL0     C 9759  12.726  11.724   6.970  0.6723  0.4940 -0.2510
  796MOL0     C 9760  12.587  11.744   6.968  0.6213  0.0072 -0.0028
  796MOL0     N 9761  11.805  11.797   6.972  0.5174 -0.3585  0.5881
  796MOL0     N 9762  11.699  11.771   7.050 -0.0821 -0.3407 -0.2971
  796MOL0     C 9763  10.649  11.143   7.269  0.1850  0.1068  0.1073
  796MOL0     C 9764  10.530  11.092   7.223  0.1152 -0.2290  0.7387
  796MOL0     C 9765  10.188  11.011   6.981 -0.1972 -0.1702  0.0443
  796MOL0     C 9766  10.080  11.100   6.968 -0.6619 -0.4165 -0.2820
  796MOL0     C 9767   9.951  11.064   6.959  0.5140  0.2662 -0.2737
  796MOL0     C 9768   9.918  10.927   6.951 -0.2203  0.1354 -0.7659
  796MOL0     O 9769   9.794  10.877   6.931  0.2716 -0.3639 -0.5405
  796MOL0     C 9770   9.712  10.930   6.833  0.0174  0.4264 -0.0874
  796MOL0     C 9771   9.570  10.865   6.844 -0.4690  0.1072 -0.0472
  796MOL0     C 9772   9.448  10.933   6.779  0.1839 -0.3605  0.2465
  796MOL0     C 9773   9.330  10.845   6.782 -0.0517  0.0920 -0.2944
  796MOL0     C 9774   9.245  10.906   6.682  0.6220 -0.2037  0.6342
  796MOL0     C 9775   9.175  10.960   6.596  0.4660 -0.0626  0.0609
  796MOL0     C 9776  10.023  10.833   6.960 -0.5728 -0.5741 -0.0200
  796MOL0     C 9777  10.156  10.871   6.973 -0.4939 -1.0122 -0.3943
  796MOL0     C 9778  10.244  10.757   7.005  0.2753  0.0203  0.2744
  796MOL0     H 9779  10.656  10.905   6.974 -0.6796  1.2053 -0.9861
  796MOL0     H 9780  10.862  10.965   7.063  0.3340  1.2007  0.7933
  796MOL0     H 9781  10.867  11.134   7.474  0.3362  1.2099  1.8110
  796MOL0     H 9782  10.851  11.299   7.404 -1.5732 -0.3445  0.4895
  796MOL0     H 9783  11.062  11.260   7.527 -0.3778  1.4565  0.1625
  796MOL0     H 9784  11.111  11.141   7.401  1.8631  0.8472 -1.8496
  796MOL0     H 9785  11.083  11.332   7.227  0.4191  0.9220  0.3803
  796MOL0     H 9786  11.017  11.428   7.359  0.2136  0.1238  1.1279
  796MOL0     H 9787  11.210  11.446   7.456 -1.3337  2.6653 -2.2589
  796MOL0     H 9788  11.294  11.307   7.378  1.2587  1.3910  0.4053
  796MOL0     H 9789  11.212  11.577   7.242  0.2694  0.9003 -0.1442
  796MOL0     H 9790  11.303  11.448   7.168 -0.1054 -0.1872 -0.1515
  796MOL0     H 9791  11.377  11.650   7.393  2.2766 -0.2513  0.7818
  796MOL0     H 9792  11.478  11.515   7.382  0.2580  2.2246  2.3981
  796MOL0     H 9793  11.557  11.706   7.260 -0.0590 -0.4967 -0.1295
  796MOL0     H 9794  11.413  11.698   7.145 -0.6067  2.5653  2.6621
  796MOL0     H 9795  11.634  11.494   7.178  0.7680  0.8836 -0.2113
  796MOL0     H 9796  11.511  11.492   7.045  2.5067 -2.1797 -0.9295
  796MOL0     H 9797  11.757  11.477   6.927 -1.2762  0.5700 -2.4646
  796MOL0     H 9798  11.975  11.746   6.754  1.1258  1.2051  2.5505
  796MOL0     H 9799  11.914  11.574   6.745  2.2961 -0.8617 -0.4061
  796MOL0     H 9800  12.055  11.515   6.921  0.2384 -0.9404 -1.7696
  796MOL0     H 9801  12.152  11.595   6.790 -3.4996 -2.3800 -2.1725
  796MOL0     H 9802  12.111  11.814   6.917 -2.0893  0.0286  1.4045
  796MOL0     H 9803  12.102  11.710   7.064  0.9764  2.1975  0.8085
  796MOL0     H 9804  12.329  11.801   7.025  5.0967  0.6028 -3.1395
  796MOL0     H 9805  12.325  11.616   7.018  1.9571  1.4932 -0.9555
  796MOL0     H 9806  12.508  11.617   6.677 -0.2576  1.3973  1.2163
  796MOL0     H 9807  12.820  11.668   6.555  0.8197  0.4244  2.4218
  796MOL0     H 9808  12.671  11.561   6.555 -1.1137 -2.0013  2.2745
  796MOL0     H 9809  12.830  11.519   6.639 -1.6781 -1.6294  1.5934
  796MOL0     H 9810  13.174  11.890   6.612  2.2494  0.8983  0.2365
  796MOL0     H 9811  13.379  11.818   6.504  2.0487  0.6579  1.6695
  796MOL0     H 9812  13.455  11.664   6.349  0.3037  0.5207  0.0257
  796MOL0     H 9813  13.593  11.700   6.446  1.3409 -1.5660 -0.2110
  796MOL0     H 9814  13.693  11.586   6.262  0.9395 -2.0135 -1.2921
  796MOL0     H 9815  13.701  11.469   6.393 -1.6157 -3.0680 -0.1620
  796MOL0     H 9816  13.495  11.366   6.327  1.8457 -1.8297 -0.0612
  796MOL0     H 9817  13.623  11.335   6.212  1.3725  1.6820 -0.1521
  796MOL0     H 9818  13.554  11.522   6.075 -0.0404 -0.8016 -0.3244
  796MOL0     H 9819  13.398  11.543   6.166 -1.4976 -2.0369  0.3229
  796MOL0     H 9820  13.466  11.285   6.029 -2.3038 -0.6118 -3.3000
  796MOL0     H 9821  13.333  11.312   6.131  0.3228  0.6889  0.3784
  796MOL0     H 9822  13.369  11.451   5.850 -1.0841 -1.7606 -2.1171
  796MOL0     H 9823  13.236  11.487   5.954 -2.4606 -2.1098  1.1777
  796MOL0     H 9824  13.120  11.302   5.905 -0.1106 -1.4019 -2.2751
  796MOL0     H 9825  13.265  11.201   5.919 -2.6580 -1.4984  0.1892
  796MOL0     H 9826  13.170  11.372   5.693 -1.9194 -2.4841 -0.8104
  796MOL0     H 9827  13.170  11.202   5.716  0.2489 -0.2382  0.4222
  796MOL0     H 9828  13.321  11.423   6.695  0.2336  0.7893  0.0156
  796MOL0     H 9829  13.123  11.511   6.799  1.3749  2.5758  2.7765
  796MOL0     H 9830  12.773  11.742   7.066 -2.0282 -0.1588  1.3030
  796MOL0     H 9831  12.534  11.771   7.058  0.2859 -0.5320 -0.0317
  796MOL0     H 9832  10.645  11.212   7.353  2.9228 -0.4984  0.8510
  796MOL0     H 9833  10.443  11.141   7.265  1.4009  0.9075  2.1794
  796MOL0     H 9834  10.097  11.207   6.964  2.1198 -0.7837 -0.4259
  796MOL0     H 9835   9.878  11.144   6.947  1.0702  0.7599 -0.4186
  796MOL0     H 9836   9.714  11.039   6.838  0.1149  0.3809  1.5195
  796MOL0     H 9837   9.743  10.895   6.734 -2.2222  1.9131 -1.3913
  796MOL0     H 9838   9.550  10.863   6.952  0.5704  1.2583  0.1789
  796MOL0     H 9839   9.571  10.759   6.818 -2.5062 -0.6870  2.5645
  796MOL0     H 9840   9.416  11.024   6.830  0.8451  0.0225 -0.0260
  796MOL0     H 9841   9.478  10.946   6.675 -0.1929  0.5714  0.2488
  796MOL0     H 9842   9.287  10.846   6.882  1.9241  2.4069  0.6454
  796MOL0     H 9843   9.364  10.745   6.750  0.9374  0.0654  0.7820
  796MOL0     H 9844   9.127  11.004   6.511 -1.4299  0.0424  1.1171
  796MOL0     H 9845   9.993  10.729   6.946 -1.1889 -0.2378 -1.3465
  796MOL0     H 9846  10.278  10.774   7.108  3.0764  2.3576 -0.8961
  796MOL0     H 9847  10.197  10.659   7.001 -0.0741  0.2255 -2.6752
  796MOL0     H 9848  10.333  10.758   6.941  0.0257  1.0568 -0.0763
  797MOL0     O 9849  11.251   6.206   9.238 -0.6798  0.1342  0.3230
  797MOL0     C 9850  11.201   6.105   9.295 -0.2667  0.3497 -0.2146
  797MOL0     O 9851  11.252   6.043   9.406  0.2444 -0.3269 -0.0139
  797MOL0     C 9852  11.383   6.069   9.436 -0.1018 -0.2892 -0.3606
  797MOL0     C 9853  11.487   5.986   9.387  0.1843  0.1001 -0.1299
  797MOL0     C 9854  11.621   5.996   9.427 -0.4516  0.1296 -0.3485
  797MOL0     C 9855  11.654   6.097   9.516  0.3415  0.8727 -0.5487
  797MOL0     O 9856  11.787   6.102   9.554 -0.4169  0.0360  0.0104
  797MOL0     C 9857  11.805   6.080   9.694 -0.2174 -0.9096  0.0480
  797MOL0     C 9858  11.939   6.017   9.716 -0.8988 -0.2432 -0.2987
  797MOL0     C 9859  11.988   6.024   9.866  1.8086 -0.0508  0.8395
  797MOL0     C 9860  12.138   5.976   9.874  0.2203  0.1257 -0.0040
  797MOL0     C 9861  12.161   5.837   9.820  0.6911  0.0682  0.1747
  797MOL0     C 9862  12.295   5.781   9.860  0.1951  0.4698  0.4524
  797MOL0     C 9863  12.419   5.875   9.867 -0.2135 -0.0600 -0.6796
  797MOL0     C 9864  12.464   5.927   9.731 -1.1413 -0.4616 -0.2877
  797MOL0     N 9865  12.606   5.978   9.744 -1.1199 -0.3259 -0.0478
  797MOL0     C 9866  12.708   5.922   9.675  0.4061 -0.1588 -0.1638
  797MOL0     C 9867  12.823   5.992   9.704 -0.2742 -0.8240  0.7093
  797MOL0     C 9868  12.960   5.958   9.660 -0.4992  1.0234  0.4983
  797MOL0     C 9869  13.067   5.996   9.760 -0.5138 -0.4543  0.6053
  797MOL0     C 9870  13.192   5.904   9.747  0.1875  0.4674  0.8084
  797MOL0     C 9871  13.272   5.932   9.621  0.1110  0.5259 -0.6561
  797MOL0     O 9872  13.351   5.815   9.589 -0.3416  0.2241 -0.5309
  797MOL0     C 9873  13.467   5.782   9.662 -0.5766  0.3038  0.1897
  797MOL0     C 9874  13.540   5.873   9.732  0.3678  0.2969 -0.3467
  797MOL0     C 9875  13.670   5.849   9.790  0.7991 -0.1621 -1.0151
  797MOL0     C 9876  13.730   5.972   9.855 -0.2550  0.6695  0.2683
  797MOL0     C 9877  13.727   5.720   9.776  0.8364 -0.1037  0.2282
  797MOL0     C 9878  13.859   5.678   9.836 -0.4839 -0.2857 -0.0419
  797MOL0     O 9879  13.937   5.769   9.906 -0.3853 -0.1474  0.0356
  797MOL0     C 9880  14.035   5.741  10.003  0.8105 -0.7421  0.1593
  797MOL0     C 9881  14.120   5.856  10.017  0.5587 -0.2340  0.3654
  797MOL0     C 9882  14.217   5.862  10.112 -0.3696  0.3227  0.2090
  797MOL0     C 9883  14.244   5.747  10.196  0.3234  0.1266  0.4929
  797MOL0     O 9884  14.348   5.759  10.285  0.0552  0.1116  0.3049
  797MOL0     C 9885  14.396   5.643  10.351 -0.5766 -0.0955  0.0953
  797MOL0     C 9886  14.514   5.690  10.434  0.0488 -0.3071  0.6559
  797MOL0     C 9887  14.621   5.758  10.351  0.0820 -0.5865  0.1532
  797MOL0     C 9888  14.750   5.770  10.438 -0.2883 -0.2021  0.3329
  797MOL0     C 9889  14.868   5.806  10.351  0.1516  0.6213 -0.2293
  797MOL0     C 9890  14.988   5.818  10.449 -0.0769 -0.2402 -0.5586
  797MOL0     C 9891  15.038   5.680  10.498 -0.2502 -0.8145 -0.3856
  797MOL0     C 9892  15.144   5.683  10.603 -0.7046 -0.9203 -0.2322
  797MOL0    Cl 9893  15.301   5.711  10.524  0.0869  0.0400 -0.4612
  797MOL0     C 9894  14.137   5.647  10.200 -0.2956  0.3673  0.0589
  797MOL0     C 9895  14.043   5.637  10.097 -0.4096 -0.5458 -0.0683
  797MOL0     O 9896  13.894   5.556   9.821  0.0498 -0.2935 -1.2542
  797MOL0     C 9897  13.653   5.626   9.701 -0.0733  0.7165  0.1279
  797MOL0     C 9898  13.525   5.657   9.647  0.4629 -0.1903  0.3785
  797MOL0     N 9899  12.783   6.092   9.795  0.2314  0.4251 -0.1508
  797MOL0     N 9900  12.650   6.080   9.821 -0.6844 -0.5046  0.3535
  797MOL0     C 9901  11.552   6.177   9.561  0.0712 -0.2815 -1.4257
  797MOL0     C 9902  11.421   6.169   9.523  0.1765  0.3937 -0.1506
  797MOL0     C 9903  11.075   6.043   9.233  0.0070 -0.5984  0.9281
  797MOL0     C 9904  10.984   5.963   9.314 -0.8335 -0.2692  0.0336
  797MOL0     C 9905  10.864   5.909   9.261 -0.3129  0.0156 -0.4151
  797MOL0     C 9906  10.827   5.937   9.133  0.2371  0.3063 -0.4819
  797MOL0     O 9907  10.707   5.877   9.093  0.1497  0.3865 -1.1108
  797MOL0     C 9908  10.666   5.873   8.958  0.1169  0.0978 -0.5377
  797MOL0     C 9909  10.751   5.771   8.877 -0.3040 -0.7753 -0.3212
  797MOL0     C 9910  10.798   5.650   8.959 -0.3253  0.4979  0.3046
  797MOL0     C 9911  10.699   5.545   9.007  0.2709 -0.5268 -0.1984
  797MOL0     C 9912  10.669   5.455   8.893 -0.0422 -0.4047 -0.1885
  797MOL0     C 9913  10.670   5.384   8.791 -0.2427  0.5204 -0.7420
  797MOL0     C 9914  10.902   6.021   9.052  0.3962  0.6053  1.0794
  797MOL0     C 9915  11.032   6.059   9.092 -1.1805  0.1129 -0.3498
  797MOL0     C 9916  11.120   6.116   8.980  0.6204  0.5032 -0.3747
  797MOL0     H 9917  11.458   5.907   9.318  2.4405  2.8983 -4.7637
  797MOL0     H 9918  11.701   5.932   9.390  0.4812  0.4306  1.0556
  797MOL0     H 9919  11.730   6.018   9.745 -0.5807 -2.8218 -2.6016
  797MOL0     H 9920  11.806   6.176   9.746 -2.6281 -1.2567  0.8392
  797MOL0     H 9921  11.933   5.910   9.696  0.2563 -0.1296 -1.3930
  797MOL0     H 9922  12.017   6.053   9.648 -0.4922  2.0340  1.2498
  797MOL0     H 9923  11.987   6.127   9.900 -0.8071 -0.4558  2.2304
  797MOL0     H 9924  11.913   5.972   9.926  1.2969  0.9265  1.0485
  797MOL0     H 9925  12.198   6.058   9.832  1.3976 -0.7238 -0.0292
  797MOL0     H 9926  12.166   5.979   9.980  1.2373  1.0163 -0.2722
  797MOL0     H 9927  12.149   5.849   9.711  1.0939  4.0312  0.4250
  797MOL0     H 9928  12.082   5.770   9.855  1.1179  0.1442  1.2997
  797MOL0     H 9929  12.284   5.731   9.957  1.2459  0.5604  0.6285
  797MOL0     H 9930  12.307   5.701   9.787 -1.7659 -0.6483  1.2832
  797MOL0     H 9931  12.501   5.818   9.912 -2.4713 -1.9404  1.2842
  797MOL0     H 9932  12.389   5.946   9.944  2.1572 -0.4042  0.6694
  797MOL0     H 9933  12.455   5.843   9.662 -0.8488  1.1396 -2.3953
  797MOL0     H 9934  12.393   6.001   9.694  0.7256  2.8434  2.1682
  797MOL0     H 9935  12.714   5.839   9.604 -0.2255  0.7963 -1.3847
  797MOL0     H 9936  12.973   6.009   9.564 -2.2316 -1.1147 -0.9776
  797MOL0     H 9937  12.960   5.849   9.647 -1.4282  0.9177  1.2547
  797MOL0     H 9938  13.098   6.101   9.757 -4.5270  0.9113  1.0477
  797MOL0     H 9939  13.029   5.970   9.859  0.4110 -0.9450  0.8401
  797MOL0     H 9940  13.260   5.921   9.831 -0.8498  0.9252  1.5707
  797MOL0     H 9941  13.157   5.801   9.737 -0.3290  0.8664 -2.5972
  797MOL0     H 9942  13.221   5.953   9.526  0.1343 -0.4425 -0.9025
  797MOL0     H 9943  13.336   6.020   9.633 -0.1036  0.3478  2.2870
  797MOL0     H 9944  13.502   5.974   9.739  0.6625  0.5103 -1.7020
  797MOL0     H 9945  13.838   5.973   9.835 -0.0528 -0.5345  1.1925
  797MOL0     H 9946  13.729   5.965   9.964 -0.0523  0.4723  0.2591
  797MOL0     H 9947  13.675   6.063   9.830 -0.1625  0.2700 -1.5140
  797MOL0     H 9948  14.099   5.947   9.962  0.6854  0.3371  1.2339
  797MOL0     H 9949  14.285   5.945  10.132 -0.2237 -0.5116  4.0462
  797MOL0     H 9950  14.328   5.588  10.415 -0.1025 -3.2076 -1.8867
  797MOL0     H 9951  14.438   5.568  10.284  2.0821 -1.1160  2.6678
  797MOL0     H 9952  14.482   5.752  10.517  0.1793  2.2462 -1.0808
  797MOL0     H 9953  14.566   5.603  10.474  1.9919  1.4075  2.0637
  797MOL0     H 9954  14.581   5.854  10.319  2.4334  0.3760 -0.1155
  797MOL0     H 9955  14.641   5.700  10.261  1.7040  2.3381 -1.4977
  797MOL0     H 9956  14.766   5.674  10.489 -0.5765  1.1517  3.1911
  797MOL0     H 9957  14.740   5.841  10.521  1.2747 -0.3033  0.6457
  797MOL0     H 9958  14.890   5.735  10.271 -2.9231 -0.1061 -0.5452
  797MOL0     H 9959  14.843   5.903  10.308  0.6677  1.6223  1.6246
  797MOL0     H 9960  14.960   5.876  10.537  2.6465  2.1248 -1.1012
  797MOL0     H 9961  15.071   5.879  10.412  0.2388 -0.9267 -1.0169
  797MOL0     H 9962  15.073   5.611  10.421 -1.4934 -0.3738 -1.3730
  797MOL0     H 9963  14.948   5.629  10.535 -0.9850 -1.6596 -3.0648
  797MOL0     H 9964  15.159   5.598  10.670 -2.5373 -0.3444  1.0007
  797MOL0     H 9965  15.124   5.770  10.667  1.5727 -0.4846 -0.0292
  797MOL0     H 9966  14.138   5.560  10.264 -0.3060 -2.1226 -3.0446
  797MOL0     H 9967  13.978   5.550  10.097 -2.2956  0.7932  1.4105
  797MOL0     H 9968  13.691   5.525   9.689  0.3568  0.8637  0.2184
  797MOL0     H 9969  13.465   5.584   9.592 -1.0293  0.6434  0.8405
  797MOL0     H 9970  11.572   6.246   9.642  0.3146 -1.9900  0.0433
  797MOL0     H 9971  11.351   6.243   9.560  0.4042 -1.0832  3.7598
  797MOL0     H 9972  11.012   5.934   9.415  2.3209  0.0179 -0.6439
  797MOL0     H 9973  10.823   5.827   9.319  0.9182 -0.3842 -0.0618
  797MOL0     H 9974  10.565   5.833   8.946  1.1267 -4.6922  3.3645
  797MOL0     H 9975  10.680   5.968   8.908  0.2023  0.5923  0.3977
  797MOL0     H 9976  10.842   5.822   8.845 -0.7290  0.2429  0.0217
  797MOL0     H 9977  10.695   5.733   8.792 -2.7721 -0.1600  0.9349
  797MOL0     H 9978  10.882   5.608   8.903  0.9608  1.9431  1.0736
  797MOL0     H 9979  10.853   5.689   9.045  0.2250  1.0288 -0.2694
  797MOL0     H 9980  10.618   5.602   9.054  0.7642 -0.3427  0.4467
  797MOL0     H 9981  10.748   5.493   9.090 -1.1452 -0.9359  0.4092
  797MOL0     H 9982  10.649   5.332   8.700  3.4951 -0.5194 -1.1587
  797MOL0     H 9983  10.877   6.055   8.952  1.9085  0.3422  0.5738
  797MOL0     H 9984  11.222   6.080   8.995 -0.0791 -1.3380  0.2337
  797MOL0     H 9985  11.087   6.091   8.879  0.7935 -1.6222  0.0617
  797MOL0     H 9986  11.131   6.224   8.995  0.3060  0.3690  1.0278
  798MOL0     O 9987   2.283   8.093   6.371  0.3504  0.1845 -0.5224
  798MOL0     C 9988   2.371   8.014   6.345 -0.4283  0.2113 -0.0141
  798MOL0     O 9989   2.376   7.931   6.235 -0.5828 -0.0487 -0.2063
  798MOL0     C 9990   2.275   7.934   6.143 -0.1467  0.0332  0.1690
  798MOL0     C 9991   2.212   8.050   6.096  1.1030  0.0106  0.1991
  798MOL0     C 9992   2.091   8.036   6.026  0.0146 -1.1160  0.1855
  798MOL0     C 9993   2.035   7.917   5.982 -0.0688 -0.3498 -0.4188
  798MOL0     O 9994   1.911   7.921   5.925 -0.1580 -0.2168  0.6118
  798MOL0     C 9995   1.802   7.979   6.000 -0.1276  0.9118 -0.8240
  798MOL0     C 9996   1.696   8.041   5.905 -0.2977  0.2823  0.1334
  798MOL0     C 9997   1.769   8.135   5.798  0.7042 -0.0600  0.6974
  798MOL0     C 9998   1.671   8.250   5.768 -0.7076 -0.6070 -0.1770
  798MOL0     C 9999   1.723   8.341   5.649  0.6603  0.8275  0.2559
  798MOL0     C10000   1.620   8.452   5.615  0.3660  0.3110 -1.1610
  798MOL0     C10001   1.652   8.543   5.501  0.4319  0.5804  0.4212
  798MOL0     C10002   1.660   8.461   5.368 -0.1226 -0.4509  0.3652
  798MOL0     N10003   1.659   8.540   5.251 -0.1070 -0.4926 -0.3820
  798MOL0     C10004   1.543   8.580   5.189  0.0801 -0.3589 -0.5021
  798MOL0     C10005   1.590   8.657   5.088  0.2120  0.6444 -0.3993
  798MOL0     C10006   1.528   8.733   4.971  0.2293  0.4163 -0.1520
  798MOL0     C10007   1.382   8.761   4.990  0.7111  0.0690 -0.7091
  798MOL0     C10008   1.350   8.841   5.119  0.2124 -0.1311  0.8277
  798MOL0     C10009   1.197   8.866   5.124 -0.6642 -0.3254  0.0040
  798MOL0     O10010   1.118   8.757   5.192  0.3891  0.0113  0.1966
  798MOL0     C10011   1.161   8.715   5.319 -0.0804 -0.0793  0.2318
  798MOL0     C10012   1.137   8.581   5.351 -0.2129 -0.0483 -0.1317
  798MOL0     C10013   1.175   8.524   5.472 -0.6457  0.5152  0.2010
  798MOL0     C10014   1.169   8.370   5.484  0.2172 -0.6231 -0.0872
  798MOL0     C10015   1.235   8.607   5.580  0.5421  0.0677  0.6266
  798MOL0     C10016   1.290   8.562   5.711  0.3091  0.1423  0.9601
  798MOL0     O10017   1.276   8.434   5.744  0.0857  0.3324 -0.0632
  798MOL0     C10018   1.317   8.375   5.863  0.0144 -0.4372  0.2641
  798MOL0     C10019   1.387   8.443   5.972  0.2672 -0.1825 -0.5655
  798MOL0     C10020   1.421   8.359   6.084 -0.4804  0.5914  0.0303
  798MOL0     C10021   1.394   8.220   6.092 -0.2598 -0.3073 -0.9061
  798MOL0     O10022   1.435   8.140   6.199  0.1592 -0.6352 -0.0695
  798MOL0     C10023   1.541   8.197   6.275 -1.0593  0.0853 -0.5989
  798MOL0     C10024   1.611   8.080   6.346 -0.0538  0.6628 -0.1353
  798MOL0     C10025   1.717   8.131   6.449  0.0430  0.1081  0.7272
  798MOL0     C10026   1.811   8.017   6.489 -0.3317  0.0115  1.1302
  798MOL0     C10027   1.899   7.959   6.369  0.4683 -0.4904 -0.3564
  798MOL0     C10028   1.983   7.848   6.410 -1.0322 -0.2184 -0.0735
  798MOL0     C10029   2.066   7.884   6.534 -0.9401 -0.0587  0.6011
  798MOL0     C10030   2.182   7.787   6.547 -0.1073 -0.2624 -0.5505
  798MOL0    Cl10031   2.118   7.631   6.623  0.1183 -0.2794  0.0154
  798MOL0     C10032   1.316   8.155   5.990  0.3750 -0.5311 -0.3984
  798MOL0     C10033   1.281   8.232   5.876 -0.2121  0.0748  0.1210
  798MOL0     O10034   1.313   8.655   5.790  0.1556 -0.0105  0.5854
  798MOL0     C10035   1.254   8.745   5.544  0.0637  0.1720 -0.4987
  798MOL0     C10036   1.218   8.799   5.417 -0.2689 -0.2620 -0.1428
  798MOL0     N10037   1.726   8.674   5.104  0.0055 -0.4929 -0.0750
  798MOL0     N10038   1.764   8.609   5.202  1.1543 -0.4365 -0.0365
  798MOL0     C10039   2.110   7.802   6.008 -0.4361  0.3588 -0.2079
  798MOL0     C10040   2.227   7.808   6.100  0.0872 -0.3879  0.5839
  798MOL0     C10041   2.489   8.024   6.428 -0.8435  0.7295 -0.4273
  798MOL0     C10042   2.463   8.027   6.566 -0.1338 -0.5623 -0.2670
  798MOL0     C10043   2.564   8.032   6.659 -0.2484 -0.6180  0.0667
  798MOL0     C10044   2.696   8.042   6.612  0.5578  0.1526  0.0937
  798MOL0     O10045   2.807   8.065   6.686  0.5915 -0.0281  0.2928
  798MOL0     C10046   2.787   8.121   6.815  0.9746  0.0032  0.3988
  798MOL0     C10047   2.916   8.146   6.882  0.8265 -0.3013  0.4420
  798MOL0     C10048   2.981   8.279   6.840 -0.2630  0.5365  0.5616
  798MOL0     C10049   3.129   8.285   6.880 -0.1187 -0.5296 -0.4488
  798MOL0     C10050   3.206   8.225   6.768 -0.0653 -0.1813 -0.7486
  798MOL0     C10051   3.253   8.160   6.684  1.0128  0.0033  0.4762
  798MOL0     C10052   2.726   8.025   6.478 -0.3639 -0.8169  0.8103
  798MOL0     C10053   2.622   8.018   6.378  0.5497 -0.0729 -0.5138
  798MOL0     C10054   2.661   8.007   6.233 -0.6787  0.0888 -0.0079
  798MOL0     H10055   2.264   8.143   6.115  1.2648  0.4005 -1.9252
  798MOL0     H10056   2.034   8.124   5.997  2.2775  0.5109  0.3468
  798MOL0     H10057   1.834   8.059   6.068 -2.3903  1.2704 -0.0811
  798MOL0     H10058   1.760   7.902   6.066  1.7426 -0.0312 -0.6728
  798MOL0     H10059   1.644   7.957   5.858 -0.3061  1.1197 -1.4210
  798MOL0     H10060   1.624   8.097   5.966 -0.6840  0.8735 -0.8405
  798MOL0     H10061   1.864   8.173   5.838  1.0745  2.0333 -1.8544
  798MOL0     H10062   1.796   8.074   5.711  0.1265 -0.0444  0.5004
  798MOL0     H10063   1.576   8.206   5.734 -1.2026 -0.4661  0.9833
  798MOL0     H10064   1.654   8.303   5.862  1.8849  3.3957 -1.7217
  798MOL0     H10065   1.732   8.259   5.576  2.2150 -0.0861  1.4066
  798MOL0     H10066   1.817   8.386   5.682 -0.2411  2.8758  0.1380
  798MOL0     H10067   1.529   8.393   5.601  1.2809 -0.8940 -2.3062
  798MOL0     H10068   1.592   8.507   5.705 -2.9030 -0.9870 -1.2639
  798MOL0     H10069   1.747   8.596   5.513  1.4950 -1.1730  0.0855
  798MOL0     H10070   1.576   8.621   5.489 -0.9348 -1.0923 -3.2377
  798MOL0     H10071   1.749   8.397   5.360  0.6683  0.6772 -0.2203
  798MOL0     H10072   1.573   8.396   5.375 -1.5351  1.3252 -0.1020
  798MOL0     H10073   1.440   8.550   5.208 -0.7129  1.7725 -1.1906
  798MOL0     H10074   1.552   8.680   4.878 -0.3770 -2.5255  1.2559
  798MOL0     H10075   1.575   8.832   4.967 -0.2992  0.6337 -2.3318
  798MOL0     H10076   1.339   8.824   4.911  1.3345  1.4408  0.0034
  798MOL0     H10077   1.321   8.671   5.000 -1.9852  1.7744 -0.8839
  798MOL0     H10078   1.401   8.792   5.203  2.5786 -0.0207 -0.4699
  798MOL0     H10079   1.389   8.941   5.098 -0.9353 -0.3513 -3.1836
  798MOL0     H10080   1.181   8.957   5.183  2.8182  2.1983 -2.5331
  798MOL0     H10081   1.150   8.887   5.027  0.2881  1.2282 -0.1463
  798MOL0     H10082   1.086   8.522   5.275  1.2343 -0.1248 -1.0628
  798MOL0     H10083   1.267   8.322   5.490 -0.9101 -2.8441  2.3286
  798MOL0     H10084   1.116   8.321   5.401  3.3349  0.6432 -3.0924
  798MOL0     H10085   1.124   8.345   5.580 -2.5668  0.8165 -0.8775
  798MOL0     H10086   1.423   8.545   5.973  0.2582 -0.1641 -1.4329
  798MOL0     H10087   1.470   8.415   6.163  3.2666 -0.1392 -1.5618
  798MOL0     H10088   1.615   8.252   6.215  1.0274  0.3808  2.0311
  798MOL0     H10089   1.515   8.281   6.340  1.0262 -0.9370  1.7572
  798MOL0     H10090   1.531   8.034   6.405  0.4429 -0.1303 -0.0676
  798MOL0     H10091   1.649   8.001   6.281 -1.2147  0.9535 -1.2156
  798MOL0     H10092   1.659   8.169   6.534  0.7453 -0.6398  1.5536
  798MOL0     H10093   1.780   8.207   6.401  1.6870 -1.1768  0.7692
  798MOL0     H10094   1.750   7.930   6.514 -0.6544 -0.4821 -1.1518
  798MOL0     H10095   1.881   8.041   6.569 -0.3548 -0.5904  1.3349
  798MOL0     H10096   1.834   7.931   6.286 -1.5623  0.4922  0.8251
  798MOL0     H10097   1.954   8.050   6.348 -0.1372 -0.2014 -0.7319
  798MOL0     H10098   2.041   7.817   6.322 -0.0954  0.5235  0.2611
  798MOL0     H10099   1.914   7.767   6.436 -1.6420  0.3516  0.0979
  798MOL0     H10100   2.005   7.883   6.625 -0.9447 -0.8542  0.5950
  798MOL0     H10101   2.104   7.986   6.519  0.6814 -0.8637 -1.1126
  798MOL0     H10102   2.254   7.833   6.615 -0.3624  2.0554 -1.7467
  798MOL0     H10103   2.238   7.759   6.457 -0.2450  0.8386 -0.9978
  798MOL0     H10104   1.296   8.049   5.991  1.1552 -0.7535 -2.8680
  798MOL0     H10105   1.228   8.199   5.787  0.5509 -0.7821 -0.0367
  798MOL0     H10106   1.304   8.818   5.607 -3.0390  1.9604  0.0855
  798MOL0     H10107   1.235   8.905   5.404  1.5968 -0.6708 -1.5335
  798MOL0     H10108   2.062   7.707   5.985  0.4352  0.3361 -2.0821
  798MOL0     H10109   2.268   7.719   6.148  2.6715  0.5170  0.2390
  798MOL0     H10110   2.367   8.007   6.612  0.2339 -1.8106 -0.0170
  798MOL0     H10111   2.550   8.047   6.766 -0.1579  3.5103 -0.3372
  798MOL0     H10112   2.732   8.214   6.802  1.1938  0.2328  1.0562
  798MOL0     H10113   2.731   8.054   6.881 -1.0129 -0.1600 -1.3828
  798MOL0     H10114   2.990   8.071   6.854  0.1636 -0.1773 -1.8186
  798MOL0     H10115   2.903   8.160   6.990  4.6673 -1.4584  1.1850
  798MOL0     H10116   2.952   8.300   6.737 -2.1978 -1.3523  0.6380
  798MOL0     H10117   2.923   8.354   6.895  0.3231 -0.7636  3.1161
  798MOL0     H10118   3.155   8.235   6.974 -2.1547  1.7998  1.5093
  798MOL0     H10119   3.156   8.390   6.890 -0.7837 -0.5809  3.2155
  798MOL0     H10120   3.301   8.105   6.606  0.3172 -0.4487  0.3605
  798MOL0     H10121   2.830   8.043   6.453 -0.0273  1.0184  3.1919
  798MOL0     H10122   2.649   7.903   6.200 -0.9063  0.6706 -1.8713
  798MOL0     H10123   2.598   8.072   6.172  0.8501  1.4373 -0.2114
  798MOL0     H10124   2.760   8.047   6.208 -0.3570 -1.7469 -2.0275
  799MOL0     O10125   2.061   0.049   3.683  0.0176 -0.5831 -0.3892
  799MOL0     C10126   2.030   0.096   3.574  0.3855  0.2445  0.0467
  799MOL0     O10127   2.065   0.222   3.526 -0.4139  0.8616  0.5112
  799MOL0     C10128   2.152   0.294   3.610  0.3270  0.0442 -0.6534
  799MOL0     C10129   2.097   0.397   3.684 -0.8531 -0.3131 -0.5494
  799MOL0     C10130   2.173   0.469   3.779 -0.0019 -0.0942  0.5652
  799MOL0     C10131   2.310   0.443   3.783 -0.2987 -0.4568  0.1450
  799MOL0     O10132   2.389   0.513   3.869  0.3687  0.0443  0.2291
  799MOL0     C10133   2.372   0.492   4.008 -0.0120  1.2129 -0.2853
  799MOL0     C10134   2.490   0.427   4.072 -0.2168  0.5666  0.7010
  799MOL0     C10135   2.606   0.515   4.037  0.1997  0.2415  0.0778
  799MOL0     C10136   2.744   0.448   4.086 -0.0190  0.7371  0.5000
  799MOL0     C10137   2.862   0.527   4.014  0.1138 -0.0135 -0.4875
  799MOL0     C10138   2.999   0.459   4.049  0.7928  0.1194  0.0575
  799MOL0     C10139   3.106   0.535   3.976  1.0031  0.0059  0.6141
  799MOL0     C10140   3.240   0.471   3.984 -0.5550  0.0645 -0.1408
  799MOL0     N10141   3.319   0.493   4.108  1.0554 -0.0152  0.3537
  799MOL0     C10142   3.446   0.541   4.114 -1.1416 -0.0349 -0.9550
  799MOL0     C10143   3.459   0.551   4.254 -0.3493  0.6674  0.9168
  799MOL0     C10144   3.583   0.599   4.322  0.1642 -0.3283  0.4939
  799MOL0     C10145   3.668   0.479   4.358  0.2977  0.3898  0.3669
  799MOL0     C10146   3.630   0.429   4.500 -0.7660 -0.4611  0.2739
  799MOL0     C10147   3.750   0.362   4.565 -0.3601  0.0265 -0.5830
  799MOL0     O10148   3.860   0.446   4.594  0.6837 -0.0713 -1.0322
  799MOL0     C10149   3.978   0.377   4.636  0.5031  0.7253 -0.0692
  799MOL0     C10150   4.088   0.443   4.596 -0.8170  0.5036  0.5136
  799MOL0     C10151   4.215   0.394   4.634  0.1037 -0.0995 -1.1781
  799MOL0     C10152   4.343   0.474   4.590 -0.2119 -0.3697 -0.5784
  799MOL0     C10153   4.227   0.270   4.703 -1.3169 -0.5486  0.0124
  799MOL0     C10154   4.357   0.209   4.726 -1.4947  1.4309 -0.1987
  799MOL0     O10155   4.366   0.121   4.829  0.5867  0.4353 -0.2936
  799MOL0     C10156   4.485   0.061   4.867  0.6912  0.2117  0.0965
  799MOL0     C10157   4.609   0.131   4.872 -0.0381 -0.8250 -0.1604
  799MOL0     C10158   4.724   0.066   4.920 -0.7086  0.1911 -1.1207
  799MOL0     C10159   4.720  -0.061   4.973 -0.2906  1.0933 -0.6185
  799MOL0     O10160   4.826  -0.133   5.021 -0.3899 -1.2311 -0.4457
  799MOL0     C10161   4.956  -0.068   5.032  1.1351 -0.3567  0.9835
  799MOL0     C10162   5.054  -0.158   5.100 -0.5463 -0.0299 -0.1286
  799MOL0     C10163   5.194  -0.108   5.087  0.5203 -0.3278  0.0265
  799MOL0     C10164   5.287  -0.196   5.161 -0.0359  0.3028  1.2129
  799MOL0     C10165   5.435  -0.171   5.131 -0.0206 -0.1541 -0.2362
  799MOL0     C10166   5.485  -0.027   5.171 -0.4278  0.6640  0.6023
  799MOL0     C10167   5.637  -0.017   5.153  0.0332  0.0923 -0.2452
  799MOL0     C10168   5.693   0.121   5.187 -0.2469 -0.2994  0.1923
  799MOL0    Cl10169   5.855   0.144   5.106  0.3715 -0.1757 -0.5274
  799MOL0     C10170   4.600  -0.121   4.973 -0.4037 -0.3686 -0.3474
  799MOL0     C10171   4.483  -0.069   4.917 -0.4157 -0.8656 -0.0321
  799MOL0     O10172   4.456   0.231   4.646  0.1506  0.7901  0.4033
  799MOL0     C10173   4.108   0.202   4.746 -0.3655  0.0451 -0.3665
  799MOL0     C10174   3.989   0.251   4.707  0.3196  0.0653 -0.0381
  799MOL0     N10175   3.344   0.507   4.317  0.4601  0.6672 -0.1725
  799MOL0     N10176   3.260   0.483   4.228 -0.7201  0.1968 -0.5243
  799MOL0     C10177   2.363   0.334   3.709 -0.8810  0.5953 -0.4446
  799MOL0     C10178   2.283   0.253   3.628  0.1308  0.2048 -0.3442
  799MOL0     C10179   1.929   0.032   3.498 -0.1531 -0.4283 -0.8041
  799MOL0     C10180   1.791   0.039   3.543 -0.2136  0.2450 -0.0568
  799MOL0     C10181   1.687  -0.002   3.464  0.1436  0.2400  0.4436
  799MOL0     C10182   1.715  -0.029   3.331  0.0600  0.1287 -0.0904
  799MOL0     O10183   1.624  -0.065   3.229 -0.4504  0.4028  0.2411
  799MOL0     C10184   1.480  -0.072   3.255 -0.3697 -0.0379 -0.1334
  799MOL0     C10185   1.408  -0.007   3.134 -0.8775  0.0182  0.0014
  799MOL0     C10186   1.374  -0.101   3.010 -0.0435  0.4762  0.1412
  799MOL0     C10187   1.489  -0.199   2.975 -0.3388 -0.1829 -0.1140
  799MOL0     C10188   1.458  -0.290   2.861 -0.2902 -0.9850  0.3770
  799MOL0     C10189   1.414  -0.363   2.776  1.0750 -0.5477  1.0285
  799MOL0     C10190   1.844  -0.045   3.288  0.5000 -0.1727 -0.3782
  799MOL0     C10191   1.949  -0.012   3.372 -0.3837 -0.8197 -0.3059
  799MOL0     C10192   2.091  -0.010   3.320 -0.3032  0.0750 -0.0143
  799MOL0     H10193   1.994   0.428   3.668 -0.4281  0.4940 -1.8722
  799MOL0     H10194   2.138   0.552   3.840 -0.9741 -1.5915  2.1432
  799MOL0     H10195   2.280   0.442   4.037 -0.7951  2.5095 -0.4747
  799MOL0     H10196   2.361   0.590   4.057  0.0398  0.4551  1.3126
  799MOL0     H10197   2.480   0.415   4.180 -0.1788 -1.3139  0.5205
  799MOL0     H10198   2.512   0.328   4.032  0.3565  1.5638 -1.6346
  799MOL0     H10199   2.616   0.532   3.929  0.4583  1.9839  0.3456
  799MOL0     H10200   2.597   0.616   4.078  3.3042  1.1561 -1.1722
  799MOL0     H10201   2.768   0.460   4.192  0.1622  0.1480  0.5267
  799MOL0     H10202   2.748   0.342   4.061  2.7435  0.7033  0.7380
  799MOL0     H10203   2.851   0.634   4.037 -1.2875 -0.3456  0.5594
  799MOL0     H10204   2.856   0.518   3.905 -1.3304 -1.3403 -0.3430
  799MOL0     H10205   3.021   0.463   4.156  0.1955  1.3611  0.1564
  799MOL0     H10206   2.998   0.354   4.018  1.5639  0.4481 -1.1191
  799MOL0     H10207   3.100   0.639   4.010 -0.3920 -0.0334  0.5780
  799MOL0     H10208   3.071   0.529   3.872 -0.1076 -2.6692  1.0655
  799MOL0     H10209   3.227   0.365   3.962  0.7625 -0.2022  0.2515
  799MOL0     H10210   3.298   0.517   3.903  0.5284 -2.5759 -0.9595
  799MOL0     H10211   3.521   0.561   4.038  0.0590  3.1024  0.8672
  799MOL0     H10212   3.551   0.653   4.412  2.5435 -1.2995  2.0190
  799MOL0     H10213   3.642   0.667   4.261  1.1134 -0.0323  1.7048
  799MOL0     H10214   3.677   0.397   4.286  1.5017  0.9150 -0.1025
  799MOL0     H10215   3.771   0.513   4.374  1.1097 -0.7538 -1.9299
  799MOL0     H10216   3.585   0.506   4.564 -0.7177  0.1932 -0.4723
  799MOL0     H10217   3.557   0.350   4.479  0.3092 -1.0663 -1.4281
  799MOL0     H10218   3.720   0.308   4.656  0.7267 -0.7274 -0.6512
  799MOL0     H10219   3.779   0.283   4.495 -0.0140 -1.6931  1.3867
  799MOL0     H10220   4.089   0.529   4.530 -1.3167  1.2051  1.4081
  799MOL0     H10221   4.319   0.574   4.554  1.8820 -0.0620 -1.2728
  799MOL0     H10222   4.395   0.431   4.504  1.9033  0.4159  0.2399
  799MOL0     H10223   4.422   0.478   4.665  0.6785  0.1472 -1.5276
  799MOL0     H10224   4.616   0.231   4.833 -3.4257 -0.3159  0.2159
  799MOL0     H10225   4.810   0.131   4.920 -2.0445  2.0371 -0.3303
  799MOL0     H10226   5.003  -0.043   4.936  0.2042 -3.1339 -0.2775
  799MOL0     H10227   4.938   0.020   5.095 -3.5347 -0.3303 -0.0752
  799MOL0     H10228   5.026  -0.170   5.205  1.3186 -4.0505  0.0914
  799MOL0     H10229   5.054  -0.258   5.056 -0.8229 -0.5365  0.9973
  799MOL0     H10230   5.200  -0.008   5.130  4.6080 -0.1016 -0.6244
  799MOL0     H10231   5.214  -0.097   4.980  0.2047 -1.8828 -0.2223
  799MOL0     H10232   5.266  -0.301   5.138 -1.4390  0.7312  0.4324
  799MOL0     H10233   5.271  -0.186   5.268  1.7771 -0.4506  1.5914
  799MOL0     H10234   5.502  -0.234   5.191  1.8516  0.7283 -1.3040
  799MOL0     H10235   5.445  -0.199   5.026 -2.0543  1.0584 -0.8107
  799MOL0     H10236   5.459   0.002   5.273 -2.2660  3.4679 -0.5397
  799MOL0     H10237   5.445   0.049   5.103  1.2801 -0.0571 -1.3383
  799MOL0     H10238   5.672  -0.054   5.056 -0.8935 -2.2898  0.2388
  799MOL0     H10239   5.688  -0.086   5.222 -3.3625 -0.3624  2.0438
  799MOL0     H10240   5.708   0.141   5.294  1.8256  1.1459 -0.2945
  799MOL0     H10241   5.634   0.200   5.142  2.5297  0.4519 -2.4749
  799MOL0     H10242   4.595  -0.213   5.029 -2.3461 -0.3538 -0.4290
  799MOL0     H10243   4.388  -0.123   4.918 -1.1634  0.4155  0.1569
  799MOL0     H10244   4.113   0.120   4.818  1.1250  0.3109 -0.1287
  799MOL0     H10245   3.897   0.204   4.740  1.2604 -1.8002  0.1126
  799MOL0     H10246   2.463   0.296   3.723 -1.8136 -2.6754 -1.8266
  799MOL0     H10247   2.325   0.167   3.577 -0.2310 -0.6812  0.8000
  799MOL0     H10248   1.761   0.062   3.645 -2.0025 -0.0878 -0.4838
  799MOL0     H10249   1.584   0.009   3.497 -0.9031  1.2732 -2.7489
  799MOL0     H10250   1.451  -0.177   3.244  1.4476 -0.6682  0.6533
  799MOL0     H10251   1.446  -0.016   3.343  0.7230 -0.1451  0.3794
  799MOL0     H10252   1.475   0.072   3.097  0.3734 -0.7580  0.5466
  799MOL0     H10253   1.319   0.049   3.165 -1.2460  0.3184 -1.5154
  799MOL0     H10254   1.289  -0.164   3.036  0.3714 -0.9192 -1.6657
  799MOL0     H10255   1.334  -0.044   2.925  0.5318  2.3863  1.0928
  799MOL0     H10256   1.499  -0.265   3.061  1.7234  1.8042  1.3167
  799MOL0     H10257   1.586  -0.149   2.959 -1.6771  3.1063  1.0837
  799MOL0     H10258   1.354  -0.432   2.721  0.2958  0.6417  0.3416
  799MOL0     H10259   1.866  -0.074   3.186  1.2167 -1.7054  0.1911
  799MOL0     H10260   2.091  -0.046   3.217  0.6674 -1.1829  0.3943
  799MOL0     H10261   2.142   0.087   3.322  3.2302 -1.4956 -2.4090
  799MOL0     H10262   2.144  -0.078   3.387 -0.3287  0.9113  0.8884
  800MOL0     O10263   4.349   8.258   6.899 -0.0738  0.1067 -0.5449
  800MOL0     C10264   4.271   8.185   6.961 -0.4335 -0.5232  0.5799
  800MOL0     O10265   4.315   8.081   7.037 -0.4129 -0.1806  0.5965
  800MOL0     C10266   4.451   8.076   7.073  0.8807  0.3420 -0.4213
  800MOL0     C10267   4.550   8.051   6.987 -0.6224 -0.4151 -0.1882
  800MOL0     C10268   4.688   8.050   7.023  0.6334 -0.6676  0.4034
  800MOL0     C10269   4.725   8.082   7.153  0.4227  0.6115 -0.3081
  800MOL0     O10270   4.859   8.057   7.188  0.0639 -0.4711  0.8360
  800MOL0     C10271   4.898   8.092   7.323  0.0309 -0.3797  0.2833
  800MOL0     C10272   5.042   8.046   7.330  0.3552 -0.7895  0.7055
  800MOL0     C10273   5.103   8.077   7.463 -0.2801 -0.3512 -0.0651
  800MOL0     C10274   5.256   8.029   7.477 -0.6749 -0.1410  0.7898
  800MOL0     C10275   5.308   8.042   7.620  0.2247  0.8433  0.4010
  800MOL0     C10276   5.260   7.918   7.702 -0.0914  0.4902  0.0485
  800MOL0     C10277   5.336   7.914   7.840  0.0881 -0.4743  0.0947
  800MOL0     C10278   5.281   7.805   7.933  0.4891 -0.0227 -0.2592
  800MOL0     N10279   5.364   7.769   8.047 -0.1662 -0.8070  0.6443
  800MOL0     C10280   5.472   7.692   8.035  0.0228 -0.2785 -0.8743
  800MOL0     C10281   5.530   7.693   8.161  0.3442  0.2452 -0.8394
  800MOL0     C10282   5.659   7.629   8.212 -0.1076  0.6283  0.0254
  800MOL0     C10283   5.781   7.723   8.222  0.6389 -0.3228  0.0411
  800MOL0     C10284   5.897   7.642   8.277 -1.0710 -0.1382  0.5038
  800MOL0     C10285   5.916   7.648   8.431  0.2625  0.1858  0.1520
  800MOL0     O10286   6.027   7.565   8.471  0.3480  1.0889 -0.1389
  800MOL0     C10287   6.156   7.610   8.456  0.1655  0.3852  0.3231
  800MOL0     C10288   6.251   7.505   8.445 -1.0586  0.2361  0.5705
  800MOL0     C10289   6.395   7.523   8.431 -0.4146 -0.4531 -1.2087
  800MOL0     C10290   6.495   7.409   8.410  0.5551 -0.4888 -0.3028
  800MOL0     C10291   6.433   7.665   8.430  0.1633  0.2432 -0.3500
  800MOL0     C10292   6.572   7.705   8.393 -0.9786 -0.1771 -0.2266
  800MOL0     O10293   6.586   7.827   8.346  0.5111 -0.9444  0.8547
  800MOL0     C10294   6.712   7.883   8.335 -0.3393  0.8949  0.0253
  800MOL0     C10295   6.738   7.971   8.228  0.8863  0.2667 -1.1637
  800MOL0     C10296   6.866   8.021   8.208  0.1692  0.3512  0.5649
  800MOL0     C10297   6.958   8.014   8.316  0.4041  0.2095  0.1655
  800MOL0     O10298   7.079   8.074   8.317 -0.0701  0.1299  0.2666
  800MOL0     C10299   7.147   8.057   8.192  0.3257  0.5194 -0.5828
  800MOL0     C10300   7.289   8.104   8.209  0.3485  0.6774 -0.2052
  800MOL0     C10301   7.364   8.000   8.286 -0.0385  0.4379  0.2000
  800MOL0     C10302   7.515   8.029   8.280 -0.0806 -0.6041 -0.1748
  800MOL0     C10303   7.587   7.891   8.308 -0.2106 -0.3003 -0.0752
  800MOL0     C10304   7.740   7.904   8.301  0.4373  1.3350  0.1394
  800MOL0     C10305   7.821   7.781   8.343 -0.0819 -0.0456 -0.2900
  800MOL0     C10306   7.971   7.815   8.363  0.0702 -0.4956 -0.5382
  800MOL0    Cl10307   8.006   7.919   8.507 -0.4234 -0.0831 -0.1615
  800MOL0     C10308   6.926   7.946   8.426  0.4684  1.0569 -0.1634
  800MOL0     C10309   6.805   7.879   8.438  0.6074  0.6707  0.6479
  800MOL0     O10310   6.669   7.630   8.413 -0.3309  0.5052 -0.2686
  800MOL0     C10311   6.333   7.765   8.421  0.0040 -0.0201  0.2164
  800MOL0     C10312   6.202   7.748   8.440  0.3167 -0.7732  0.3594
  800MOL0     N10313   5.455   7.773   8.250 -0.3151 -0.3894  0.1689
  800MOL0     N10314   5.361   7.829   8.174 -0.3195  0.6500  0.1799
  800MOL0     C10315   4.624   8.100   7.247  0.1765 -0.0937  0.1229
  800MOL0     C10316   4.484   8.089   7.207 -0.4472  0.2046  0.2561
  800MOL0     C10317   4.129   8.218   6.950 -0.2553  0.2606 -0.3649
  800MOL0     C10318   4.033   8.130   7.012 -1.0553 -0.7848  0.3203
  800MOL0     C10319   3.897   8.159   6.997 -0.4093 -0.0511  0.7476
  800MOL0     C10320   3.856   8.276   6.932 -0.2057  0.0124 -0.4796
  800MOL0     O10321   3.719   8.304   6.927 -0.0617  0.6864 -0.5780
  800MOL0     C10322   3.658   8.393   6.831 -0.2485  0.3282  0.2182
  800MOL0     C10323   3.671   8.320   6.699  0.1802  0.2807  0.4043
  800MOL0     C10324   3.561   8.235   6.660  0.3687 -0.5606 -0.0262
  800MOL0     C10325   3.594   8.126   6.562 -0.4773  0.5570 -0.1773
  800MOL0     C10326   3.665   8.011   6.618  0.0692 -0.6741 -0.4920
  800MOL0     C10327   3.723   7.903   6.637  0.0881 -1.0124 -0.1820
  800MOL0     C10328   3.951   8.358   6.877  0.0946  0.4594 -0.3180
  800MOL0     C10329   4.082   8.328   6.875  1.0446 -0.4792 -0.7253
  800MOL0     C10330   4.162   8.417   6.784  0.3679  0.8579  0.3779
  800MOL0     H10331   4.509   8.033   6.888 -0.1273  2.0263 -0.8955
  800MOL0     H10332   4.767   8.032   6.951  0.2772  4.7818 -1.8214
  800MOL0     H10333   4.840   8.029   7.391 -0.7958  1.4731  1.4050
  800MOL0     H10334   4.883   8.200   7.334  0.5624 -0.0324 -1.8635
  800MOL0     H10335   5.057   7.944   7.294  1.6404 -0.0378 -1.0306
  800MOL0     H10336   5.093   8.110   7.257 -1.2432  0.4025  0.5603
  800MOL0     H10337   5.104   8.185   7.481  0.7564 -0.3130 -0.2494
  800MOL0     H10338   5.045   8.031   7.543  0.9686 -1.5622  0.1924
  800MOL0     H10339   5.261   7.924   7.447 -2.5354  0.4881 -2.0547
  800MOL0     H10340   5.330   8.085   7.419  0.3612 -0.0739  2.1232
  800MOL0     H10341   5.267   8.132   7.667  1.0947  1.0723  0.7375
  800MOL0     H10342   5.417   8.038   7.629  0.0665  1.3424  4.5812
  800MOL0     H10343   5.153   7.929   7.725 -0.5460 -2.5259 -0.2403
  800MOL0     H10344   5.278   7.823   7.651  0.3609  0.2700  0.6117
  800MOL0     H10345   5.327   8.012   7.888  0.0966 -0.9680  1.1281
  800MOL0     H10346   5.444   7.904   7.822  0.6623  2.5573  1.2482
  800MOL0     H10347   5.185   7.851   7.961  0.4490 -0.7353  0.8347
  800MOL0     H10348   5.252   7.717   7.875  2.5171 -0.3510 -0.8318
  800MOL0     H10349   5.524   7.644   7.953  1.7584 -1.0780  0.6273
  800MOL0     H10350   5.684   7.551   8.140  0.5805  1.1551 -0.3159
  800MOL0     H10351   5.634   7.588   8.311 -1.6242 -2.4523 -1.4900
  800MOL0     H10352   5.788   7.762   8.120 -3.8136  1.2646  0.1265
  800MOL0     H10353   5.757   7.808   8.287  1.6996  1.4910 -1.8137
  800MOL0     H10354   5.885   7.538   8.244 -0.0449  0.4511 -1.9470
  800MOL0     H10355   5.978   7.681   8.215 -2.8045  1.1039 -1.0888
  800MOL0     H10356   5.930   7.754   8.455 -0.6237  1.1729 -3.0975
  800MOL0     H10357   5.823   7.614   8.478 -0.4516 -0.5883 -1.6959
  800MOL0     H10358   6.239   7.398   8.450 -1.0754  0.2064 -0.0271
  800MOL0     H10359   6.551   7.388   8.502  2.2965  2.3507 -0.6096
  800MOL0     H10360   6.562   7.420   8.324 -0.2091 -1.4251 -1.0379
  800MOL0     H10361   6.440   7.315   8.396  0.6008 -0.5803  0.1120
  800MOL0     H10362   6.673   7.992   8.144  1.8762 -0.2176 -2.0824
  800MOL0     H10363   6.886   8.082   8.121  0.6855  0.7760  0.9723
  800MOL0     H10364   7.144   7.954   8.153  0.0983  0.0216  0.6878
  800MOL0     H10365   7.096   8.124   8.122 -0.1507 -1.2690 -2.0383
  800MOL0     H10366   7.332   8.104   8.108  0.7582 -1.1460 -0.0589
  800MOL0     H10367   7.291   8.208   8.242  0.7196  1.0466 -1.3456
  800MOL0     H10368   7.342   7.906   8.235 -1.3337  2.0692 -2.4389
  800MOL0     H10369   7.336   8.002   8.392 -0.8453  0.1819 -0.0068
  800MOL0     H10370   7.543   8.112   8.346  2.5008 -2.1041  0.7484
  800MOL0     H10371   7.532   8.063   8.177 -2.5848  2.9536  0.3889
  800MOL0     H10372   7.560   7.847   8.404  2.6704 -1.3574  0.3439
  800MOL0     H10373   7.555   7.827   8.225 -2.4834  1.1334 -0.3922
  800MOL0     H10374   7.757   7.982   8.376 -0.7477  0.0622  1.7852
  800MOL0     H10375   7.772   7.941   8.202  2.4736  0.4692  0.4234
  800MOL0     H10376   7.806   7.711   8.260  0.3499  0.9437 -1.2243
  800MOL0     H10377   7.777   7.722   8.424  0.3841 -1.7491 -1.2253
  800MOL0     H10378   8.009   7.869   8.276 -0.6029  0.5329 -0.2166
  800MOL0     H10379   8.028   7.724   8.381  1.5459  0.6084  0.6111
  800MOL0     H10380   7.002   7.928   8.502  1.1559 -0.2993 -1.1321
  800MOL0     H10381   6.780   7.818   8.525 -0.1802  0.2173  0.1134
  800MOL0     H10382   6.357   7.869   8.401 -0.7839 -0.0327 -0.8689
  800MOL0     H10383   6.142   7.838   8.435  2.4775  0.8973  2.2418
  800MOL0     H10384   4.641   8.121   7.352  1.1485 -1.3682  0.2408
  800MOL0     H10385   4.406   8.111   7.279  1.5439  0.6831  2.3797
  800MOL0     H10386   4.053   8.042   7.072 -1.0092  0.6952  2.5989
  800MOL0     H10387   3.824   8.088   7.035 -2.3340 -0.2675 -2.8761
  800MOL0     H10388   3.553   8.415   6.854 -0.0924  0.0092  1.3313
  800MOL0     H10389   3.708   8.491   6.826 -0.0490  0.1613 -1.2532
  800MOL0     H10390   3.769   8.273   6.691  0.1057 -0.1243  1.7437
  800MOL0     H10391   3.666   8.403   6.628  0.3575  1.3485  1.5960
  800MOL0     H10392   3.518   8.186   6.748 -0.2149  0.2249  0.1412
  800MOL0     H10393   3.489   8.302   6.614  1.4015  1.7890  1.5588
  800MOL0     H10394   3.632   8.171   6.470 -2.7842  2.3412 -0.3518
  800MOL0     H10395   3.497   8.096   6.522 -0.5012 -0.0388  0.3291
  800MOL0     H10396   3.760   7.808   6.671 -2.2873 -1.5962  1.0098
  800MOL0     H10397   3.916   8.449   6.829 -0.2407  0.3537 -0.2773
  800MOL0     H10398   4.095   8.456   6.707 -0.0320 -2.8251 -1.3750
  800MOL0     H10399   4.209   8.501   6.836  2.1348  1.0440 -1.3632
  800MOL0     H10400   4.235   8.359   6.727 -0.0167  1.9368 -1.2807
  801MOL0     O10401   8.690   1.162   0.404 -0.3515 -0.3049  0.4025
  801MOL0     C10402   8.645   1.207   0.510 -0.1401 -0.4887 -0.2573
  801MOL0     O10403   8.725   1.246   0.608  0.3406  1.0230  0.1024
  801MOL0     C10404   8.852   1.293   0.588  1.2332 -0.2108  1.0373
  801MOL0     C10405   8.924   1.330   0.474 -0.0524  1.2327  0.0516
  801MOL0     C10406   9.041   1.398   0.484 -0.0753  0.1554  0.5415
  801MOL0     C10407   9.104   1.405   0.613 -0.2604 -0.7931 -1.0336
  801MOL0     O10408   9.226   1.462   0.645 -0.2714  0.4384  0.5323
  801MOL0     C10409   9.314   1.502   0.536  0.5824  0.3678 -0.3719
  801MOL0     C10410   9.428   1.584   0.600  0.2324  0.0283 -0.6708
  801MOL0     C10411   9.501   1.499   0.707 -0.0371  0.7090  0.1829
  801MOL0     C10412   9.592   1.581   0.791 -0.4835 -0.3760  0.0147
  801MOL0     C10413   9.668   1.499   0.897 -0.1294  0.2207 -0.2036
  801MOL0     C10414   9.769   1.407   0.832 -0.0655  0.6940  0.0029
  801MOL0     C10415   9.857   1.463   0.723  0.5472 -0.6083 -1.3216
  801MOL0     C10416  10.010   1.431   0.722 -0.2010 -1.2907 -0.2486
  801MOL0     N10417  10.040   1.290   0.686 -0.1941 -0.2276 -1.3881
  801MOL0     C10418  10.033   1.236   0.562 -0.1645  0.2752  0.8310
  801MOL0     C10419  10.026   1.101   0.574  0.3400  0.2775 -0.1744
  801MOL0     C10420   9.979   1.010   0.458  0.4663 -0.6112 -1.1240
  801MOL0     C10421  10.067   0.893   0.433  0.1443  0.1166  0.2322
  801MOL0     C10422   9.996   0.787   0.346  1.2366  0.4422 -0.2664
  801MOL0     C10423  10.076   0.658   0.317  0.0688  0.3877 -0.3820
  801MOL0     O10424  10.092   0.605   0.454 -0.2291  0.1732 -0.0998
  801MOL0     C10425  10.206   0.529   0.481  0.5928  1.3895 -0.0884
  801MOL0     C10426  10.238   0.506   0.617 -0.5683  0.2569  0.0713
  801MOL0     C10427  10.358   0.440   0.654  0.5341 -0.8017 -0.3827
  801MOL0     C10428  10.403   0.432   0.794  0.3942  1.4200 -1.0727
  801MOL0     C10429  10.447   0.394   0.554 -0.2696  0.4320 -0.0351
  801MOL0     C10430  10.576   0.321   0.579  0.2231  0.0600  0.7434
  801MOL0     O10431  10.673   0.324   0.484 -0.1927  0.4046 -0.3993
  801MOL0     C10432  10.784   0.242   0.519  0.1638 -0.2664  0.5465
  801MOL0     C10433  10.855   0.247   0.636  0.5284 -0.2594  0.8745
  801MOL0     C10434  10.956   0.156   0.659 -0.1118 -0.2523 -0.5190
  801MOL0     C10435  11.001   0.053   0.574 -0.2250 -1.0350  0.0697
  801MOL0     O10436  11.112  -0.022   0.614 -0.3027 -0.5967  0.1337
  801MOL0     C10437  11.136  -0.151   0.558  0.8028 -0.3039  0.3465
  801MOL0     C10438  11.264  -0.145   0.478 -0.4394 -0.1871 -0.7117
  801MOL0     C10439  11.383  -0.105   0.575  0.0841  0.2943 -0.5988
  801MOL0     C10440  11.515  -0.117   0.502 -0.7968 -0.0624 -0.6455
  801MOL0     C10441  11.635  -0.094   0.606 -0.6122 -0.3298  0.3588
  801MOL0     C10442  11.772  -0.090   0.535 -0.5531 -0.0707  0.0195
  801MOL0     C10443  11.835  -0.232   0.528  1.1998  0.4823  0.1109
  801MOL0     C10444  11.942  -0.253   0.423 -0.1254  0.0944  0.4865
  801MOL0    Cl10445  12.053  -0.113   0.416  0.3411 -0.4787 -0.2441
  801MOL0     C10446  10.924   0.041   0.455 -0.0387 -0.9034 -0.1256
  801MOL0     C10447  10.821   0.140   0.420  0.1496 -0.2249 -0.3607
  801MOL0     O10448  10.566   0.252   0.682 -0.2198  0.4087 -0.5227
  801MOL0     C10449  10.400   0.399   0.418 -0.4855 -0.2190 -0.7593
  801MOL0     C10450  10.289   0.465   0.380 -0.4127 -0.3448  0.3029
  801MOL0     N10451  10.042   1.079   0.711  0.3729  0.6319  0.0138
  801MOL0     N10452  10.043   1.190   0.781  0.4152  0.7256 -0.4623
  801MOL0     C10453   9.039   1.363   0.726  0.2403 -0.1658 -0.2332
  801MOL0     C10454   8.910   1.306   0.714  0.4465  0.0263  0.8282
  801MOL0     C10455   8.500   1.223   0.528 -0.5217 -1.0223  0.1861
  801MOL0     C10456   8.454   1.221   0.666  0.7896 -0.2883  0.4718
  801MOL0     C10457   8.315   1.211   0.680 -0.4873  0.4614 -0.3363
  801MOL0     C10458   8.227   1.210   0.571  0.0249 -0.3876  0.3148
  801MOL0     O10459   8.093   1.181   0.586  0.1067 -0.0947  0.3488
  801MOL0     C10460   8.032   1.131   0.704  0.1614 -0.0283  0.4237
  801MOL0     C10461   8.083   0.997   0.744 -0.6260 -1.0018  0.4516
  801MOL0     C10462   8.005   0.917   0.843  0.1179  0.4222 -0.7669
  801MOL0     C10463   7.986   0.986   0.976  0.6623 -0.2434 -0.9509
  801MOL0     C10464   8.095   0.978   1.073 -0.7337  0.0818  0.6779
  801MOL0     C10465   8.188   0.976   1.152 -0.4108  0.4926 -0.7964
  801MOL0     C10466   8.279   1.243   0.447 -0.0602  0.2670  0.4376
  801MOL0     C10467   8.414   1.238   0.420  0.5530  0.0588 -0.5393
  801MOL0     C10468   8.454   1.276   0.278  0.7619  0.3769  0.4109
  801MOL0     H10469   8.879   1.330   0.375 -0.0118 -3.4405 -0.2026
  801MOL0     H10470   9.099   1.427   0.398 -0.1616  1.3286  0.8583
  801MOL0     H10471   9.258   1.555   0.458 -0.2226  2.0266  1.2646
  801MOL0     H10472   9.362   1.409   0.502 -0.8863 -0.4280 -0.3595
  801MOL0     H10473   9.494   1.619   0.521 -0.6884  1.1726 -0.9517
  801MOL0     H10474   9.390   1.676   0.644 -0.7135 -1.5080  1.9905
  801MOL0     H10475   9.427   1.453   0.773  0.2266 -2.3014 -1.4230
  801MOL0     H10476   9.555   1.420   0.653 -1.3227  1.0469 -1.7374
  801MOL0     H10477   9.650   1.642   0.721 -0.8007  1.0406  0.9497
  801MOL0     H10478   9.531   1.656   0.842 -0.9455  0.6525 -1.9475
  801MOL0     H10479   9.597   1.443   0.959 -0.7258 -1.1468 -2.0625
  801MOL0     H10480   9.714   1.574   0.963 -1.0968  1.6185 -1.0784
  801MOL0     H10481   9.841   1.369   0.905  1.2976  0.6506 -1.3092
  801MOL0     H10482   9.714   1.318   0.801 -0.5860  0.4743  1.5142
  801MOL0     H10483   9.861   1.572   0.735 -2.1944 -0.6950  1.9974
  801MOL0     H10484   9.821   1.458   0.620  0.9137  0.0290 -1.4891
  801MOL0     H10485  10.061   1.499   0.654  0.1360 -0.7053  0.5678
  801MOL0     H10486  10.042   1.451   0.825  2.1146 -0.0101 -1.1668
  801MOL0     H10487  10.008   1.291   0.471  1.1157  3.4501  2.2604
  801MOL0     H10488   9.964   1.070   0.368  1.3914  1.0064 -0.2491
  801MOL0     H10489   9.884   0.973   0.497  0.0779  0.8794 -0.5841
  801MOL0     H10490  10.155   0.920   0.374 -1.3937 -0.3061 -2.3875
  801MOL0     H10491  10.107   0.864   0.531 -0.1212  0.2348  0.3754
  801MOL0     H10492   9.905   0.750   0.393  0.4700 -1.2092 -2.8453
  801MOL0     H10493   9.965   0.825   0.248 -0.8665 -0.3574  0.0311
  801MOL0     H10494  10.020   0.585   0.259 -1.4603  0.2427  1.2121
  801MOL0     H10495  10.167   0.690   0.265 -0.0225  1.1185 -0.1029
  801MOL0     H10496  10.170   0.559   0.684 -3.5505 -3.2366  0.1231
  801MOL0     H10497  10.508   0.448   0.822  0.4225 -2.4031  1.9062
  801MOL0     H10498  10.360   0.339   0.831  1.0787  0.7802 -1.8604
  801MOL0     H10499  10.357   0.515   0.848  1.3135  1.7075 -0.7125
  801MOL0     H10500  10.817   0.320   0.706  1.3340 -0.2133  1.2707
  801MOL0     H10501  11.005   0.163   0.755 -1.0996  1.4097 -0.1031
  801MOL0     H10502  11.149  -0.225   0.638  0.3957  0.8039  1.4768
  801MOL0     H10503  11.051  -0.184   0.496 -0.2409  0.5309  1.2947
  801MOL0     H10504  11.301  -0.244   0.449  1.9573 -0.1658  1.8828
  801MOL0     H10505  11.250  -0.074   0.396  0.0999  0.8397  0.0601
  801MOL0     H10506  11.378  -0.178   0.657 -0.8092 -0.0624 -0.9539
  801MOL0     H10507  11.363  -0.007   0.618  0.6570  0.1479  0.0066
  801MOL0     H10508  11.520  -0.043   0.422 -1.4656 -0.8487 -1.4304
  801MOL0     H10509  11.524  -0.215   0.456 -0.0299 -0.0715 -0.4975
  801MOL0     H10510  11.619   0.003   0.652  3.2097  0.4890  0.3023
  801MOL0     H10511  11.652  -0.169   0.683  2.4367 -2.8805 -2.4519
  801MOL0     H10512  11.846  -0.035   0.595  0.1065 -1.8413  0.9173
  801MOL0     H10513  11.761  -0.035   0.441 -0.3545  1.0210  0.6100
  801MOL0     H10514  11.750  -0.301   0.526 -1.2904  3.3508 -0.0827
  801MOL0     H10515  11.883  -0.261   0.622  2.8253 -0.5917 -1.0031
  801MOL0     H10516  11.903  -0.263   0.321 -1.0424  2.2877  0.5842
  801MOL0     H10517  12.000  -0.341   0.453 -0.3668  0.0491  0.8242
  801MOL0     H10518  10.958  -0.032   0.382  0.7692 -0.6536 -0.0113
  801MOL0     H10519  10.756   0.141   0.333 -2.3926 -1.9667  1.3847
  801MOL0     H10520  10.455   0.330   0.356  2.1589 -0.7026  1.8626
  801MOL0     H10521  10.261   0.472   0.275 -1.4467 -1.2499  0.4983
  801MOL0     H10522   9.084   1.375   0.824 -1.6019 -1.2834  0.8130
  801MOL0     H10523   8.858   1.284   0.807 -3.0712  0.0792 -0.9597
  801MOL0     H10524   8.515   1.224   0.755 -1.8603  3.5880  2.4233
  801MOL0     H10525   8.263   1.199   0.774  1.3157 -2.8741  0.3777
  801MOL0     H10526   8.040   1.199   0.790 -0.2395  1.9592 -1.0354
  801MOL0     H10527   7.926   1.114   0.683  0.7687 -0.5963 -2.5863
  801MOL0     H10528   8.187   1.001   0.780 -1.0785 -0.6062  1.7493
  801MOL0     H10529   8.098   0.933   0.656 -1.2073 -0.5082 -0.0175
  801MOL0     H10530   7.905   0.885   0.811 -0.2416  0.5395  0.2058
  801MOL0     H10531   8.073   0.836   0.870  1.2039  1.6710  0.3919
  801MOL0     H10532   7.897   0.946   1.025  0.3256  2.2262  0.6744
  801MOL0     H10533   7.959   1.092   0.970 -0.6581 -0.0159  4.2279
  801MOL0     H10534   8.276   0.968   1.213 -0.4029 -2.1324 -1.0104
  801MOL0     H10535   8.208   1.255   0.366 -1.0041 -0.9068  1.0620
  801MOL0     H10536   8.548   1.330   0.261 -0.3419  2.3007  0.1192
  801MOL0     H10537   8.457   1.193   0.207 -0.3390  2.6610 -2.4721
  801MOL0     H10538   8.389   1.351   0.233  1.8059  1.2363  0.3047
  802MOL0     O10539   4.855   2.876   4.403  0.6155 -0.1157  0.5560
  802MOL0     C10540   4.775   2.819   4.476 -0.7167  0.5458 -0.6519
  802MOL0     O10541   4.778   2.684   4.512  0.4326  0.3427  0.0202
  802MOL0     C10542   4.893   2.613   4.505  0.0363  0.7247  0.1570
  802MOL0     C10543   4.883   2.478   4.469 -0.6259 -0.1332  0.2602
  802MOL0     C10544   4.997   2.393   4.461 -0.6778 -0.1183  1.3844
  802MOL0     C10545   5.127   2.447   4.473 -0.3387 -0.0751 -0.5874
  802MOL0     O10546   5.242   2.379   4.458 -0.0121 -0.0091 -0.3799
  802MOL0     C10547   5.339   2.433   4.364  0.0675 -0.1137  0.0774
  802MOL0     C10548   5.477   2.370   4.412  0.2007 -0.2926  0.4744
  802MOL0     C10549   5.506   2.399   4.564 -0.6146 -0.4233  0.2842
  802MOL0     C10550   5.645   2.364   4.600 -0.5863 -0.3213  0.7404
  802MOL0     C10551   5.685   2.394   4.743 -0.0590 -0.1589 -0.2301
  802MOL0     C10552   5.713   2.549   4.763 -0.0468  0.0641 -0.2088
  802MOL0     C10553   5.759   2.563   4.908 -0.4631  0.1591 -0.3196
  802MOL0     C10554   5.753   2.716   4.943 -0.5452  0.6585 -0.4835
  802MOL0     N10555   5.791   2.751   5.083 -0.7256  0.4417  0.3129
  802MOL0     C10556   5.917   2.726   5.136  0.4888 -0.6564 -1.4262
  802MOL0     C10557   5.895   2.746   5.273 -0.5277  0.1369 -0.5967
  802MOL0     C10558   5.982   2.713   5.389  0.1925  0.2309 -0.2892
  802MOL0     C10559   6.093   2.820   5.410  0.4088 -1.0796  0.3050
  802MOL0     C10560   6.192   2.835   5.295 -0.1204 -0.5370 -0.5877
  802MOL0     C10561   6.284   2.721   5.276  0.2078 -0.5943  0.4635
  802MOL0     O10562   6.372   2.686   5.391  0.2343  0.6219 -1.0078
  802MOL0     C10563   6.487   2.759   5.410 -0.4050  0.2816 -0.6237
  802MOL0     C10564   6.538   2.874   5.339 -0.7039  0.0452  0.8561
  802MOL0     C10565   6.653   2.940   5.387  0.9115 -0.5213  0.4138
  802MOL0     C10566   6.708   3.058   5.303 -0.1217  0.3605  0.2030
  802MOL0     C10567   6.716   2.903   5.509 -0.4209 -0.1491  0.3053
  802MOL0     C10568   6.826   2.986   5.580 -0.1543  0.5637 -0.4476
  802MOL0     O10569   6.925   2.922   5.645 -0.2216  0.3202 -0.6070
  802MOL0     C10570   7.042   2.983   5.689  0.1795 -0.0561  0.6357
  802MOL0     C10571   7.112   2.891   5.765 -0.1095  0.1578  0.6563
  802MOL0     C10572   7.224   2.941   5.833 -0.8485  0.8495  0.1881
  802MOL0     C10573   7.274   3.075   5.821 -0.6040  0.2569  0.7534
  802MOL0     O10574   7.393   3.121   5.881  1.4752  0.5178  0.3619
  802MOL0     C10575   7.401   3.260   5.923 -0.1933  0.7864  0.4745
  802MOL0     C10576   7.497   3.257   6.042  1.0995  0.1963  1.1513
  802MOL0     C10577   7.521   3.385   6.115 -0.0270 -0.1567 -0.1069
  802MOL0     C10578   7.390   3.453   6.155  0.8090  0.8613 -0.1349
  802MOL0     C10579   7.413   3.593   6.220 -0.5847  0.1269  0.5519
  802MOL0     C10580   7.291   3.673   6.254 -0.0772  0.0379 -0.2771
  802MOL0     C10581   7.315   3.821   6.270 -0.2726 -0.8812  0.8956
  802MOL0     C10582   7.198   3.888   6.333  0.6883 -0.5324  0.8431
  802MOL0    Cl10583   7.196   3.858   6.508 -0.1280 -0.0978 -0.1565
  802MOL0     C10584   7.201   3.156   5.733  0.2775 -0.4811  0.5170
  802MOL0     C10585   7.086   3.114   5.671  0.6423  0.5644  0.4402
  802MOL0     O10586   6.799   3.107   5.591 -0.3105 -0.2517 -0.5818
  802MOL0     C10587   6.670   2.789   5.565  0.3536  0.6607 -0.6108
  802MOL0     C10588   6.555   2.724   5.522 -0.9050  0.3457  0.9253
  802MOL0     N10589   5.762   2.782   5.297 -0.2791  0.6937  0.4683
  802MOL0     N10590   5.701   2.782   5.182  0.7871 -0.6765 -0.2189
  802MOL0     C10591   5.140   2.587   4.516  0.7319 -0.1591  0.5358
  802MOL0     C10592   5.022   2.670   4.532  0.1558  0.9389  0.3147
  802MOL0     C10593   4.638   2.880   4.497 -0.9167  0.7985 -0.3450
  802MOL0     C10594   4.530   2.788   4.509 -0.4853 -0.4686  0.4935
  802MOL0     C10595   4.399   2.837   4.519  0.4603 -0.8304 -0.7922
  802MOL0     C10596   4.378   2.977   4.540 -0.2652  0.0130 -0.2374
  802MOL0     O10597   4.252   3.032   4.565  0.4943  0.3705  0.5116
  802MOL0     C10598   4.132   2.953   4.559  0.4279  0.3487 -0.7599
  802MOL0     C10599   4.013   3.045   4.556  0.5565  0.2634  0.2051
  802MOL0     C10600   3.987   3.136   4.681 -0.0149 -0.3725 -0.6875
  802MOL0     C10601   4.077   3.254   4.679 -0.0330 -0.5931 -0.2183
  802MOL0     C10602   4.054   3.342   4.798 -0.4588 -0.7128 -0.0078
  802MOL0     C10603   4.027   3.410   4.898  0.0017  0.0882  0.6947
  802MOL0     C10604   4.485   3.066   4.539  0.8317 -0.7255 -0.0131
  802MOL0     C10605   4.613   3.016   4.509 -0.1061  0.0806 -1.3739
  802MOL0     C10606   4.718   3.116   4.513 -0.0282 -0.4162  0.0458
  802MOL0     H10607   4.783   2.437   4.460 -0.0752 -1.3367 -0.7671
  802MOL0     H10608   4.980   2.286   4.449 -1.7151 -0.2230  3.3808
  802MOL0     H10609   5.362   2.539   4.371  0.4382 -0.3012  2.5240
  802MOL0     H10610   5.317   2.418   4.257  1.4301  1.3897 -0.4424
  802MOL0     H10611   5.469   2.261   4.397 -1.9769  0.1610 -2.5519
  802MOL0     H10612   5.566   2.403   4.357  1.1492 -1.4729  1.2207
  802MOL0     H10613   5.502   2.508   4.575  0.2652 -0.1588 -1.5539
  802MOL0     H10614   5.437   2.354   4.636 -0.5437 -1.0905 -0.0582
  802MOL0     H10615   5.667   2.262   4.568  0.7333 -0.5634  2.3042
  802MOL0     H10616   5.716   2.425   4.544 -1.1420  0.7949  1.2298
  802MOL0     H10617   5.776   2.341   4.771 -1.1546 -1.3268  1.2571
  802MOL0     H10618   5.604   2.361   4.808  0.2940  2.6579  1.8051
  802MOL0     H10619   5.771   2.601   4.687  0.6703  1.2332  1.1112
  802MOL0     H10620   5.619   2.604   4.753  0.8017  1.3387 -1.5914
  802MOL0     H10621   5.865   2.537   4.914 -0.3490  0.9129  3.2474
  802MOL0     H10622   5.711   2.497   4.981  3.6695  0.6575  3.2550
  802MOL0     H10623   5.811   2.766   4.865  0.2540  0.4937  0.0010
  802MOL0     H10624   5.645   2.736   4.936 -1.7846 -4.3289  0.2140
  802MOL0     H10625   6.010   2.680   5.104  0.6530 -3.0284  1.8746
  802MOL0     H10626   6.029   2.615   5.378  2.0506  1.1192 -0.6364
  802MOL0     H10627   5.919   2.704   5.478  0.9377  2.6763  0.5818
  802MOL0     H10628   6.045   2.915   5.436  2.6293  0.2487 -0.2055
  802MOL0     H10629   6.146   2.790   5.501  0.7328  1.1780  0.9214
  802MOL0     H10630   6.137   2.843   5.200  1.4705 -2.7363 -1.7855
  802MOL0     H10631   6.254   2.924   5.310 -0.9694 -0.2666  1.7360
  802MOL0     H10632   6.229   2.628   5.262  1.4842 -1.3592  0.3579
  802MOL0     H10633   6.352   2.728   5.191 -0.4164  0.1269  0.0068
  802MOL0     H10634   6.478   2.903   5.253 -1.9176  0.3506  1.7768
  802MOL0     H10635   6.648   3.149   5.301  1.3433  1.3643  0.5669
  802MOL0     H10636   6.706   3.030   5.197 -0.6599 -1.0317  0.5496
  802MOL0     H10637   6.816   3.072   5.316  0.0229 -1.5231  1.4415
  802MOL0     H10638   7.076   2.789   5.778 -0.2557 -0.0495 -1.1427
  802MOL0     H10639   7.278   2.871   5.896  1.2162  2.2612  0.1107
  802MOL0     H10640   7.440   3.322   5.842  0.3554 -0.0749  0.0693
  802MOL0     H10641   7.304   3.304   5.949  0.3968  2.5964 -0.1875
  802MOL0     H10642   7.464   3.186   6.119  2.6718 -0.6601  1.0540
  802MOL0     H10643   7.595   3.221   6.013  0.3563  0.5851 -2.2357
  802MOL0     H10644   7.570   3.463   6.056 -0.7991  2.4380  2.4692
  802MOL0     H10645   7.573   3.361   6.207 -1.7551 -0.3410  0.8659
  802MOL0     H10646   7.330   3.385   6.214  1.2274  0.8234  0.2507
  802MOL0     H10647   7.332   3.477   6.065  0.5682 -2.4775 -0.9771
  802MOL0     H10648   7.487   3.589   6.300  2.5594 -0.7368 -2.1628
  802MOL0     H10649   7.472   3.655   6.150  0.3503  1.7988  2.7077
  802MOL0     H10650   7.248   3.642   6.350  0.8358  1.1889  0.5430
  802MOL0     H10651   7.213   3.654   6.180 -1.8004  2.9173  0.5941
  802MOL0     H10652   7.330   3.851   6.166  1.8434 -4.3557  0.0371
  802MOL0     H10653   7.405   3.843   6.328  0.0952 -1.0940  0.4044
  802MOL0     H10654   7.101   3.863   6.289  0.1922  1.3583  0.7883
  802MOL0     H10655   7.218   3.995   6.321  1.5152 -0.6636  0.9631
  802MOL0     H10656   7.232   3.258   5.712  1.0946 -0.3329  2.2499
  802MOL0     H10657   7.029   3.186   5.613  0.1021  0.1044  0.3858
  802MOL0     H10658   6.718   2.741   5.649 -2.5714 -2.1017 -0.3238
  802MOL0     H10659   6.518   2.635   5.572  2.7512 -2.0578 -0.2038
  802MOL0     H10660   5.242   2.622   4.528 -0.0165  2.3633  0.0973
  802MOL0     H10661   5.032   2.774   4.562  1.5127  0.2704  2.4251
  802MOL0     H10662   4.529   2.680   4.503 -0.3722 -0.4195 -0.5587
  802MOL0     H10663   4.315   2.770   4.533  1.0571 -1.2330  1.1995
  802MOL0     H10664   4.130   2.882   4.476  1.2406 -1.7026  0.8820
  802MOL0     H10665   4.131   2.894   4.651 -0.0600 -2.1131 -2.2497
  802MOL0     H10666   3.927   2.978   4.544  0.4648 -0.3303  3.3522
  802MOL0     H10667   4.024   3.113   4.471  0.7952 -1.8388 -1.5239
  802MOL0     H10668   3.884   3.169   4.697 -0.4622 -2.3347  0.8296
  802MOL0     H10669   4.017   3.086   4.774  1.6807 -0.1693 -1.0857
  802MOL0     H10670   4.054   3.318   4.594 -2.5395 -0.8745  0.1803
  802MOL0     H10671   4.184   3.230   4.670  0.7106  1.3269  2.2728
  802MOL0     H10672   3.999   3.467   4.984  2.4861  1.3766  0.7490
  802MOL0     H10673   4.471   3.172   4.557 -0.3448 -0.6180 -1.3405
  802MOL0     H10674   4.777   3.101   4.422  1.3475  0.8156  0.6984
  802MOL0     H10675   4.682   3.219   4.514 -0.1230 -0.4477 -0.0328
  802MOL0     H10676   4.782   3.094   4.599  0.2077  0.1957  0.0282
  803MOL0     O10677  10.643   9.304   8.057 -0.5995  0.2236  0.6359
  803MOL0     C10678  10.528   9.276   8.089 -0.5734  0.5774  0.5764
  803MOL0     O10679  10.465   9.175   8.046  0.3543 -0.1725  0.1106
  803MOL0     C10680  10.525   9.087   7.964  0.0853  0.2243 -0.0731
  803MOL0     C10681  10.577   8.967   8.013  0.2931  0.1965 -0.3157
  803MOL0     C10682  10.625   8.868   7.924  0.2427  0.0579 -0.3254
  803MOL0     C10683  10.636   8.889   7.787  0.1968 -0.1815  0.0586
  803MOL0     O10684  10.676   8.781   7.712  0.0897 -0.3312 -0.0116
  803MOL0     C10685  10.780   8.834   7.632 -0.2762  0.5761 -0.2214
  803MOL0     C10686  10.859   8.715   7.587 -0.7814 -0.7734  1.4787
  803MOL0     C10687  10.985   8.737   7.495  0.2500  0.2754 -0.4352
  803MOL0     C10688  11.070   8.615   7.506 -0.4312  0.2370  0.0012
  803MOL0     C10689  11.186   8.604   7.398  0.1672 -0.1499  0.0265
  803MOL0     C10690  11.319   8.659   7.440  0.0888  0.2498 -0.2768
  803MOL0     C10691  11.431   8.638   7.342 -0.0913 -0.8850 -0.6026
  803MOL0     C10692  11.565   8.706   7.395  0.1775  0.0309 -0.2964
  803MOL0     N10693  11.632   8.611   7.488 -0.1833 -0.0404  0.1296
  803MOL0     C10694  11.679   8.482   7.470  0.0036  0.0964 -0.2659
  803MOL0     C10695  11.711   8.437   7.594  0.5752 -0.3219 -0.2652
  803MOL0     C10696  11.773   8.306   7.631 -0.6232 -0.3485  0.7010
  803MOL0     C10697  11.914   8.322   7.691 -0.8260 -0.9722  0.2431
  803MOL0     C10698  12.008   8.410   7.603  0.8391 -0.0959 -0.3507
  803MOL0     C10699  12.137   8.448   7.663  0.0606  0.5510 -0.1367
  803MOL0     O10700  12.199   8.330   7.720  0.4324  0.4356 -0.1892
  803MOL0     C10701  12.333   8.333   7.737  0.2084  0.1339 -0.0662
  803MOL0     C10702  12.399   8.209   7.747 -0.2082 -0.6724 -0.7589
  803MOL0     C10703  12.537   8.206   7.769  0.1499 -0.5563 -0.0359
  803MOL0     C10704  12.595   8.073   7.795  0.3175 -0.3483 -0.4289
  803MOL0     C10705  12.616   8.326   7.768 -0.1624 -0.1938 -0.0945
  803MOL0     C10706  12.759   8.330   7.781  0.5326 -0.2967 -0.4388
  803MOL0     O10707  12.816   8.437   7.844 -0.6549  1.0889 -0.5760
  803MOL0     C10708  12.947   8.447   7.874  0.1832 -0.2825  0.6074
  803MOL0     C10709  13.029   8.339   7.916  0.3291 -0.1750  0.7477
  803MOL0     C10710  13.168   8.358   7.921 -0.1092 -0.0085 -0.2564
  803MOL0     C10711  13.219   8.484   7.879  0.3828 -0.2953  0.0003
  803MOL0     O10712  13.346   8.519   7.833 -0.4193 -0.0521  0.5977
  803MOL0     C10713  13.461   8.432   7.856  0.2109 -0.1293 -0.4874
  803MOL0     C10714  13.587   8.502   7.808 -0.1259  0.0671  1.0956
  803MOL0     C10715  13.712   8.441   7.873  0.6504 -0.4497  0.8082
  803MOL0     C10716  13.831   8.463   7.785 -0.6814  0.1948  0.1828
  803MOL0     C10717  13.958   8.400   7.834  0.0941 -0.5880 -0.3670
  803MOL0     C10718  14.078   8.442   7.752 -1.0903  1.1394 -0.0866
  803MOL0     C10719  14.204   8.372   7.827 -0.2991 -0.5544  1.0193
  803MOL0     C10720  14.279   8.467   7.927  0.4547  0.6754 -1.1609
  803MOL0    Cl10721  14.166   8.592   7.988 -0.3527  0.1428  0.1375
  803MOL0     C10722  13.132   8.589   7.857 -0.5174  0.6181  0.3263
  803MOL0     C10723  12.993   8.575   7.859 -0.7128  0.1809  0.1525
  803MOL0     O10724  12.822   8.237   7.741 -0.7581  0.4113 -0.0169
  803MOL0     C10725  12.549   8.452   7.760  0.6918 -0.5452 -0.3454
  803MOL0     C10726  12.407   8.450   7.742  0.0426 -0.5193  0.4235
  803MOL0     N10727  11.681   8.536   7.684  0.2051 -1.0584  0.6061
  803MOL0     N10728  11.642   8.638   7.620 -0.8321 -0.0003  0.2836
  803MOL0     C10729  10.590   9.010   7.744 -0.3658  0.4728 -0.0672
  803MOL0     C10730  10.539   9.109   7.825  0.3617 -0.1644  0.5814
  803MOL0     C10731  10.444   9.365   8.167  0.1863  0.4260  0.5670
  803MOL0     C10732  10.301   9.359   8.154 -0.2433  0.3468  0.1520
  803MOL0     C10733  10.218   9.430   8.232 -0.4755  0.0513  0.3075
  803MOL0     C10734  10.265   9.504   8.343  0.2230  0.7867 -0.3506
  803MOL0     O10735  10.176   9.565   8.428  0.4790  0.8175 -0.4546
  803MOL0     C10736  10.034   9.526   8.434 -0.0039 -0.9430 -0.6474
  803MOL0     C10737   9.979   9.625   8.541  0.5414 -0.3841  0.3891
  803MOL0     C10738   9.825   9.630   8.528 -0.1383  0.2543  0.4888
  803MOL0     C10739   9.779   9.719   8.641  1.1260 -0.2821 -0.3199
  803MOL0     C10740   9.639   9.757   8.616 -0.3813 -0.2733 -0.3023
  803MOL0     C10741   9.527   9.787   8.619  0.5802  1.1389  0.1901
  803MOL0     C10742  10.404   9.513   8.366  0.4442  0.3919 -0.2415
  803MOL0     C10743  10.489   9.437   8.281 -0.7574 -0.1131 -0.6819
  803MOL0     C10744  10.632   9.415   8.329  0.8691 -0.8909 -0.2550
  803MOL0     H10745  10.565   8.935   8.116 -4.0383 -1.7814 -1.1891
  803MOL0     H10746  10.662   8.776   7.969 -1.3952 -0.0340  0.9151
  803MOL0     H10747  10.851   8.899   7.682  0.3114  0.4793 -0.9116
  803MOL0     H10748  10.748   8.891   7.544 -2.2385 -1.5509 -0.9869
  803MOL0     H10749  10.894   8.672   7.681  0.0725 -1.2702  0.9473
  803MOL0     H10750  10.790   8.649   7.533 -0.1120 -0.6651  0.4675
  803MOL0     H10751  10.951   8.744   7.391  1.6831  0.6385 -0.8941
  803MOL0     H10752  11.031   8.833   7.522  0.7415 -0.3536  1.0483
  803MOL0     H10753  11.114   8.616   7.606  1.5407 -1.3303 -0.7746
  803MOL0     H10754  11.000   8.531   7.500  0.2365 -0.4307  1.0701
  803MOL0     H10755  11.152   8.661   7.311 -0.9434  0.7368  1.0108
  803MOL0     H10756  11.195   8.498   7.374  1.1435 -0.0783  0.0022
  803MOL0     H10757  11.315   8.764   7.469 -0.8428 -0.3849  2.1140
  803MOL0     H10758  11.344   8.601   7.529  2.8671 -2.0930 -2.3538
  803MOL0     H10759  11.414   8.696   7.251 -1.5238 -0.6646 -0.2056
  803MOL0     H10760  11.441   8.531   7.319 -0.3314 -0.6088 -2.1252
  803MOL0     H10761  11.629   8.715   7.306  1.2371 -1.3654  0.2926
  803MOL0     H10762  11.559   8.807   7.437  4.2906  0.3151  0.0102
  803MOL0     H10763  11.691   8.418   7.383  2.3322 -0.4164  0.3481
  803MOL0     H10764  11.772   8.239   7.544  1.4095  1.6912 -1.0014
  803MOL0     H10765  11.723   8.251   7.711  2.2923 -1.9312  1.6051
  803MOL0     H10766  11.905   8.376   7.785 -1.7943 -1.5613  0.4939
  803MOL0     H10767  11.958   8.224   7.709  0.2458 -0.8421 -1.3418
  803MOL0     H10768  12.031   8.344   7.519 -2.5000 -3.1484  0.8623
  803MOL0     H10769  11.951   8.497   7.570  0.1442 -0.0169  0.9820
  803MOL0     H10770  12.196   8.495   7.584 -2.4386  1.1124 -1.7723
  803MOL0     H10771  12.131   8.528   7.738 -2.3528 -1.2570  1.7635
  803MOL0     H10772  12.348   8.114   7.755  0.8071 -1.0848  5.5601
  803MOL0     H10773  12.518   8.021   7.852  1.6795  0.2692  2.1465
  803MOL0     H10774  12.682   8.068   7.861  0.4939 -1.6426 -0.7376
  803MOL0     H10775  12.626   8.020   7.705  0.1245 -2.2780  0.6044
  803MOL0     H10776  12.989   8.239   7.932 -2.8042  1.1679  2.0330
  803MOL0     H10777  13.245   8.289   7.953 -1.2364 -0.5661  1.3580
  803MOL0     H10778  13.470   8.417   7.964  1.5850 -2.0376 -0.8200
  803MOL0     H10779  13.452   8.339   7.800 -2.9961 -0.2361  0.0213
  803MOL0     H10780  13.603   8.498   7.700  2.3100 -3.2330  1.3980
  803MOL0     H10781  13.575   8.607   7.836  1.4249  0.4148  0.5622
  803MOL0     H10782  13.701   8.333   7.888  0.2159 -1.1492 -3.4405
  803MOL0     H10783  13.726   8.489   7.971 -0.8199  1.9302 -0.0533
  803MOL0     H10784  13.853   8.567   7.758  1.5734 -0.2890 -0.0780
  803MOL0     H10785  13.805   8.412   7.692 -1.1496 -1.6121  1.2717
  803MOL0     H10786  13.978   8.438   7.935  1.2399 -1.5931 -0.1957
  803MOL0     H10787  13.931   8.295   7.843 -2.1707 -0.0024  0.4465
  803MOL0     H10788  14.093   8.549   7.737 -2.1960  1.0991 -1.7589
  803MOL0     H10789  14.058   8.409   7.649 -2.1048 -2.5351  1.1190
  803MOL0     H10790  14.281   8.345   7.753  0.3927  0.2238  1.4429
  803MOL0     H10791  14.181   8.280   7.882  0.7927 -1.0884  0.6281
  803MOL0     H10792  14.358   8.524   7.878  2.0087 -1.9565 -1.9153
  803MOL0     H10793  14.312   8.407   8.012 -0.2333 -1.7925 -2.5428
  803MOL0     H10794  13.169   8.690   7.846 -3.3983  1.8909  1.2887
  803MOL0     H10795  12.933   8.661   7.831  2.2277  1.7667 -1.9069
  803MOL0     H10796  12.592   8.548   7.786 -2.5920  1.7255 -2.5426
  803MOL0     H10797  12.364   8.549   7.735 -1.0051 -0.9921  0.0518
  803MOL0     H10798  10.578   9.033   7.639  1.2570  1.6768 -0.0178
  803MOL0     H10799  10.497   9.200   7.783 -0.8299 -0.3329  1.3693
  803MOL0     H10800  10.258   9.306   8.069 -1.9738  2.6075 -0.4707
  803MOL0     H10801  10.113   9.438   8.205 -0.9846  0.3399  2.2563
  803MOL0     H10802   9.983   9.552   8.341 -1.6329  1.1241  0.7377
  803MOL0     H10803  10.025   9.422   8.469 -2.1603 -0.2630  1.0435
  803MOL0     H10804  10.009   9.727   8.513  2.0222 -0.5887  1.1288
  803MOL0     H10805  10.007   9.619   8.646 -4.2842 -0.6449  1.9135
  803MOL0     H10806   9.796   9.671   8.431 -0.3668 -1.4271 -0.1922
  803MOL0     H10807   9.784   9.529   8.539  1.2074 -0.1764  1.9898
  803MOL0     H10808   9.837   9.811   8.648 -0.4755  0.9025 -1.7964
  803MOL0     H10809   9.783   9.669   8.738 -1.3560  2.7524  1.5099
  803MOL0     H10810   9.420   9.789   8.616  0.4956 -0.9456 -2.3839
  803MOL0     H10811  10.437   9.569   8.453 -1.7515  0.8415  0.3894
  803MOL0     H10812  10.645   9.433   8.436 -5.6262 -2.0312  1.1672
  803MOL0     H10813  10.667   9.315   8.302  1.5538 -0.4270 -1.1512
  803MOL0     H10814  10.699   9.478   8.270  0.4496 -0.6562 -0.4894
  804MOL0     O10815   8.851   9.929   1.579 -1.0321 -0.3486 -0.3614
  804MOL0     C10816   8.890   9.825   1.526 -0.7789 -0.2996 -0.3411
  804MOL0     O10817   9.014   9.762   1.545 -0.0858 -1.1702 -0.0651
  804MOL0     C10818   9.112   9.820   1.626  0.3169  0.2372 -0.0611
  804MOL0     C10819   9.086   9.895   1.746 -0.4673  0.9261  0.0819
  804MOL0     C10820   9.192   9.942   1.828  0.1771  0.0784  0.2684
  804MOL0     C10821   9.324   9.898   1.800  0.3413 -0.1137  0.3166
  804MOL0     O10822   9.424   9.944   1.882  0.0824  0.1969 -0.8815
  804MOL0     C10823   9.560   9.925   1.863 -1.0597  1.2048  0.2297
  804MOL0     C10824   9.629  10.033   1.945  0.3276 -0.5497 -1.5310
  804MOL0     C10825   9.778  10.043   1.944  0.2088 -0.6491 -1.2285
  804MOL0     C10826   9.829  10.126   1.827  0.2106  0.2923  0.1747
  804MOL0     C10827   9.981  10.113   1.815 -0.3502 -0.3887  0.3452
  804MOL0     C10828  10.042  10.197   1.699  0.4923 -0.0526 -0.1847
  804MOL0     C10829  10.190  10.183   1.685 -0.1253  0.4123  0.1345
  804MOL0     C10830  10.248  10.279   1.580  0.0658 -0.3109 -0.5490
  804MOL0     N10831  10.394  10.261   1.595 -0.3006  0.5454  1.1374
  804MOL0     C10832  10.467  10.311   1.699  0.3358  0.7235  0.7317
  804MOL0     C10833  10.593  10.260   1.676 -0.4417 -0.1111 -0.1395
  804MOL0     C10834  10.708  10.276   1.763 -0.5476 -0.2774  0.6913
  804MOL0     C10835  10.838  10.195   1.717  0.8888  0.6359  0.3511
  804MOL0     C10836  10.958  10.226   1.809  0.6967 -0.3697 -0.1869
  804MOL0     C10837  11.089  10.144   1.779 -0.9866 -0.2672  0.3165
  804MOL0     O10838  11.200  10.200   1.857  0.2754 -0.1425 -0.0881
  804MOL0     C10839  11.292  10.116   1.909  0.1050 -0.0751 -0.1837
  804MOL0     C10840  11.272   9.980   1.949  0.4349  0.0900 -0.5873
  804MOL0     C10841  11.380   9.919   2.011  0.1387  0.2170 -0.0801
  804MOL0     C10842  11.358   9.778   2.052  0.2559  0.3695 -0.2680
  804MOL0     C10843  11.504   9.983   2.035 -0.7317 -0.3351 -0.5049
  804MOL0     C10844  11.620   9.911   2.092 -0.6787 -0.1821 -1.1609
  804MOL0     O10845  11.733   9.988   2.131 -0.2715 -0.0298 -0.0820
  804MOL0     C10846  11.830   9.911   2.195  0.0826 -1.0234 -0.6215
  804MOL0     C10847  11.849   9.914   2.331  0.8749 -0.3034 -0.3770
  804MOL0     C10848  11.960   9.851   2.386  0.4193  0.2189  0.2081
  804MOL0     C10849  12.055   9.778   2.310  0.3927 -0.2525 -0.1517
  804MOL0     O10850  12.164   9.726   2.372  0.0921  0.1577 -0.0037
  804MOL0     C10851  12.288   9.766   2.313 -0.4058  0.8183 -0.2921
  804MOL0     C10852  12.309   9.916   2.336 -0.2407 -0.1238 -0.9026
  804MOL0     C10853  12.461   9.956   2.320  0.4269  0.1634 -0.5052
  804MOL0     C10854  12.485  10.106   2.314  0.3319  0.3019 -0.7331
  804MOL0     C10855  12.622  10.143   2.247  0.3004  0.3295  0.0318
  804MOL0     C10856  12.743  10.061   2.283 -0.1888  0.0459  0.1612
  804MOL0     C10857  12.860  10.124   2.213 -0.9495  0.3674 -0.0298
  804MOL0     C10858  12.990  10.034   2.228 -0.2622 -0.4715  0.8748
  804MOL0    Cl10859  13.133  10.108   2.161  0.3599  0.0275  0.1659
  804MOL0     C10860  12.040   9.794   2.168  0.4277 -0.7657 -0.1373
  804MOL0     C10861  11.927   9.861   2.113 -0.1089  0.1356  0.6838
  804MOL0     O10862  11.605   9.790   2.118 -0.6576 -0.5945  0.3798
  804MOL0     C10863  11.514  10.121   2.005  0.0060 -0.0503 -0.0854
  804MOL0     C10864  11.413  10.186   1.936  0.4459 -0.3386 -0.3044
  804MOL0     N10865  10.596  10.186   1.556 -0.4227  0.4657  0.8035
  804MOL0     N10866  10.475  10.189   1.509 -0.7288  0.9486 -0.4089
  804MOL0     C10867   9.352   9.811   1.691  0.5787  0.3248  0.3969
  804MOL0     C10868   9.246   9.781   1.603 -0.1746 -1.0307  0.0754
  804MOL0     C10869   8.796   9.744   1.449 -0.2675 -0.3038  0.6964
  804MOL0     C10870   8.656   9.749   1.467  0.1422 -0.0651  0.0130
  804MOL0     C10871   8.568   9.674   1.392  0.0760 -0.3129 -0.6750
  804MOL0     C10872   8.607   9.616   1.273 -0.4552 -0.7336  0.2870
  804MOL0     O10873   8.508   9.557   1.198  0.6655 -0.6792 -0.2670
  804MOL0     C10874   8.544   9.510   1.068 -0.4928 -0.9257  0.7173
  804MOL0     C10875   8.408   9.491   0.994 -0.2218  0.0286 -0.0705
  804MOL0     C10876   8.439   9.502   0.844 -0.2859  0.4657  0.3127
  804MOL0     C10877   8.318   9.474   0.743 -0.6527  0.1679 -0.1285
  804MOL0     C10878   8.207   9.562   0.749 -0.4197 -0.1320 -0.0831
  804MOL0     C10879   8.107   9.624   0.781 -0.6222  1.4385 -0.2102
  804MOL0     C10880   8.747   9.613   1.249 -0.6351  0.0068  0.0881
  804MOL0     C10881   8.837   9.672   1.336 -0.6996 -0.4422 -0.3857
  804MOL0     C10882   8.982   9.665   1.290  0.3111 -0.8639  0.1687
  804MOL0     H10883   8.980   9.906   1.768 -0.2918  0.9632  0.9578
  804MOL0     H10884   9.177   9.996   1.921  2.5294  4.5561 -1.6364
  804MOL0     H10885   9.599   9.931   1.761  0.2768 -2.0338  0.4210
  804MOL0     H10886   9.597   9.826   1.894  1.7633  1.9609 -0.4411
  804MOL0     H10887   9.584  10.129   1.917 -0.4190 -0.3861  0.1433
  804MOL0     H10888   9.600  10.024   2.050 -0.6129  2.1112 -1.4774
  804MOL0     H10889   9.819  10.088   2.035  2.9495 -0.0888 -2.6248
  804MOL0     H10890   9.814   9.940   1.942 -1.1162 -1.1808  0.1081
  804MOL0     H10891   9.775  10.091   1.738  0.3735 -1.3718  0.7023
  804MOL0     H10892   9.812  10.231   1.853  1.6468  0.1149  1.9945
  804MOL0     H10893  10.004  10.007   1.804  0.3700 -0.0232 -2.5026
  804MOL0     H10894  10.029  10.151   1.905  1.1059 -1.5402  0.0857
  804MOL0     H10895   9.990  10.173   1.606  3.3629 -0.4000 -1.8391
  804MOL0     H10896  10.014  10.302   1.705  2.6892  0.7603 -2.2497
  804MOL0     H10897  10.208  10.079   1.660  3.9352  1.4502 -2.1924
  804MOL0     H10898  10.230  10.196   1.785  0.4185  2.6399 -0.3114
  804MOL0     H10899  10.205  10.270   1.480  0.8686 -0.3005 -0.9062
  804MOL0     H10900  10.228  10.382   1.612  2.5749 -0.3695  1.5344
  804MOL0     H10901  10.427  10.372   1.780  2.7059  1.7455  1.2143
  804MOL0     H10902  10.685  10.278   1.870  0.8448  2.8056  1.0391
  804MOL0     H10903  10.737  10.381   1.751  3.2980 -1.2592 -0.2255
  804MOL0     H10904  10.806  10.090   1.713  0.8225  0.6842 -1.7496
  804MOL0     H10905  10.861  10.224   1.614 -1.1655  1.0703 -0.0236
  804MOL0     H10906  10.982  10.332   1.801 -0.0322 -0.1245  0.6856
  804MOL0     H10907  10.926  10.199   1.910 -0.4286  0.5136 -0.2824
  804MOL0     H10908  11.078  10.035   1.780  0.9951 -0.5142  0.8097
  804MOL0     H10909  11.108  10.178   1.677 -0.1246  1.1443  0.9140
  804MOL0     H10910  11.178   9.928   1.938 -1.1867  1.3066  4.6173
  804MOL0     H10911  11.431   9.711   2.004  0.4191 -0.4506  1.0674
  804MOL0     H10912  11.258   9.753   2.018  0.4506  0.4915 -0.9510
  804MOL0     H10913  11.368   9.747   2.156  0.1719  0.6623 -0.1720
  804MOL0     H10914  11.779   9.963   2.398  2.2311 -2.2431  2.7183
  804MOL0     H10915  11.968   9.840   2.494  0.8797 -4.4584 -0.0766
  804MOL0     H10916  12.371   9.708   2.355 -2.5465 -2.0646  0.2558
  804MOL0     H10917  12.304   9.746   2.207 -2.4174 -1.2920 -0.2722
  804MOL0     H10918  12.257   9.977   2.261 -1.7892  2.5811  2.0971
  804MOL0     H10919  12.271   9.943   2.436  1.8183 -0.8202  0.1303
  804MOL0     H10920  12.499   9.910   2.228  0.3823 -1.0776  0.0729
  804MOL0     H10921  12.520   9.923   2.406  1.8686 -1.9536 -2.2063
  804MOL0     H10922  12.478  10.151   2.413 -1.6644 -1.7829  0.1753
  804MOL0     H10923  12.404  10.146   2.251 -0.9433  3.1185  2.4041
  804MOL0     H10924  12.608  10.141   2.139 -1.3162 -0.8415  0.2236
  804MOL0     H10925  12.637  10.246   2.280 -1.8648  0.5895  0.3821
  804MOL0     H10926  12.725   9.955   2.260  1.0096 -1.0581  3.7120
  804MOL0     H10927  12.752  10.052   2.391 -1.1174 -1.9847  0.1237
  804MOL0     H10928  12.893  10.216   2.263  1.0731  1.5174 -3.1393
  804MOL0     H10929  12.845  10.146   2.107  1.6863 -1.6600 -0.9240
  804MOL0     H10930  12.975   9.946   2.164  1.4791 -1.2607  1.5064
  804MOL0     H10931  13.007   9.999   2.330 -0.9719 -2.3087  0.4105
  804MOL0     H10932  12.110   9.760   2.092  3.6705  3.2543  0.7097
  804MOL0     H10933  11.923   9.874   2.005 -1.7238 -0.1340  0.6967
  804MOL0     H10934  11.601  10.181   2.028 -1.8093  2.1505  1.5858
  804MOL0     H10935  11.424  10.287   1.897  1.6543 -0.8284 -1.2851
  804MOL0     H10936   9.450   9.767   1.679  0.7141  0.6359  0.3511
  804MOL0     H10937   9.260   9.724   1.512 -1.0184 -0.4471 -0.4383
  804MOL0     H10938   8.618   9.790   1.560  2.1325  0.1097  0.7814
  804MOL0     H10939   8.465   9.657   1.425  0.2212 -0.4457 -0.2836
  804MOL0     H10940   8.609   9.586   1.024 -1.5669  0.4004  1.3235
  804MOL0     H10941   8.605   9.420   1.067  0.6226 -0.3646  4.3588
  804MOL0     H10942   8.345   9.579   1.012  0.7492  0.8399 -0.5246
  804MOL0     H10943   8.356   9.401   1.029 -0.4767 -0.2293 -1.0806
  804MOL0     H10944   8.477   9.603   0.826 -0.2547  0.3559 -0.2686
  804MOL0     H10945   8.515   9.428   0.817 -0.7416 -0.2109  0.8394
  804MOL0     H10946   8.266   9.377   0.751 -3.5347  1.6473  0.5530
  804MOL0     H10947   8.360   9.473   0.642 -1.6020 -0.1661 -0.5354
  804MOL0     H10948   8.013   9.662   0.818 -2.0449  0.0741 -2.1722
  804MOL0     H10949   8.790   9.579   1.156  0.6680  0.4027  0.5273
  804MOL0     H10950   8.987   9.624   1.188  1.4748  0.6930 -0.4412
  804MOL0     H10951   9.037   9.759   1.295 -2.5721  1.0528 -1.3342
  804MOL0     H10952   9.026   9.589   1.355  0.6658 -1.2199 -0.4742
  805MOL0     O10953   0.528   3.236   8.663  0.2687  0.1886  0.2412
  805MOL0     C10954   0.510   3.243   8.543  0.2128 -0.3341  0.5992
  805MOL0     O10955   0.608   3.228   8.452  0.1365 -0.5464  0.5915
  805MOL0     C10956   0.734   3.203   8.496 -0.1438  0.0366 -0.7921
  805MOL0     C10957   0.804   3.261   8.604  0.0956 -0.0139  0.4864
  805MOL0     C10958   0.927   3.197   8.639  0.3877  0.0485 -0.7389
  805MOL0     C10959   0.981   3.087   8.571 -0.1268  0.3933  0.0619
  805MOL0     O10960   1.092   3.044   8.637 -0.3500 -0.2404 -0.3690
  805MOL0     C10961   1.139   2.914   8.584  0.4840 -0.8886 -0.0759
  805MOL0     C10962   1.243   2.849   8.670  0.3588 -0.0886  0.0628
  805MOL0     C10963   1.366   2.938   8.704 -0.4532  0.3213 -0.0852
  805MOL0     C10964   1.430   2.901   8.834  0.4264  0.3044 -0.2625
  805MOL0     C10965   1.572   2.950   8.858 -0.4531 -0.6080 -0.4072
  805MOL0     C10966   1.681   2.901   8.755  0.5594  1.1139 -0.3079
  805MOL0     C10967   1.802   2.849   8.820  0.3607 -1.1736  0.4799
  805MOL0     C10968   1.911   2.805   8.719  0.0374 -0.1494  0.1899
  805MOL0     N10969   2.040   2.767   8.774  0.3686  0.3042  0.1423
  805MOL0     C10970   2.142   2.855   8.808 -0.1483  0.4070  1.1267
  805MOL0     C10971   2.242   2.777   8.857  0.1124 -0.2295  0.1975
  805MOL0     C10972   2.378   2.836   8.902  0.2236 -0.1613 -0.9756
  805MOL0     C10973   2.385   2.870   9.054 -0.0346 -0.4059 -1.1292
  805MOL0     C10974   2.502   2.964   9.091  0.0923 -0.0176 -0.0897
  805MOL0     C10975   2.640   2.896   9.076  0.4888 -0.0218  0.1281
  805MOL0     O10976   2.747   2.995   9.085 -0.6972  0.0555 -0.2116
  805MOL0     C10977   2.788   3.065   8.969  0.1571 -0.5224 -0.5907
  805MOL0     C10978   2.720   3.059   8.847 -0.4534  0.3156 -0.4938
  805MOL0     C10979   2.754   3.139   8.740 -0.1206 -0.4797  0.6026
  805MOL0     C10980   2.672   3.128   8.618 -0.5847 -0.2925 -0.0380
  805MOL0     C10981   2.859   3.235   8.749 -0.4534 -0.8512  0.1866
  805MOL0     C10982   2.880   3.342   8.647  0.4864  0.4088  0.3641
  805MOL0     O10983   2.919   3.460   8.692 -0.6613 -0.2054  0.7427
  805MOL0     C10984   2.974   3.550   8.608 -0.3004 -0.7188  0.5048
  805MOL0     C10985   2.968   3.677   8.667 -0.2582 -0.0710 -0.4371
  805MOL0     C10986   3.021   3.787   8.597  0.0489 -0.6529 -0.7505
  805MOL0     C10987   3.093   3.766   8.476 -0.1020 -0.6305 -0.1508
  805MOL0     O10988   3.140   3.878   8.411  0.2176 -1.0292  0.6219
  805MOL0     C10989   3.101   3.897   8.273  0.8031  0.1705 -0.4224
  805MOL0     C10990   2.996   4.004   8.254 -0.3345  0.5980 -0.1250
  805MOL0     C10991   2.869   3.984   8.342  0.1014 -0.2920 -0.6767
  805MOL0     C10992   2.750   4.064   8.283 -0.0392  0.0686 -0.1822
  805MOL0     C10993   2.622   4.064   8.364  0.1776  0.4955  0.0102
  805MOL0     C10994   2.518   4.156   8.301 -0.1698  0.1517  0.5607
  805MOL0     C10995   2.559   4.303   8.311  0.1580 -0.1099  0.7247
  805MOL0     C10996   2.444   4.409   8.310 -0.4301  0.7417  0.8289
  805MOL0    Cl10997   2.510   4.574   8.282  0.3661  0.8677 -0.3936
  805MOL0     C10998   3.104   3.635   8.422  0.5129 -0.2146 -0.5988
  805MOL0     C10999   3.044   3.527   8.485  0.7288 -0.0138 -0.3961
  805MOL0     O11000   2.865   3.311   8.529  0.7825 -0.1423 -0.2919
  805MOL0     C11001   2.936   3.232   8.866 -0.4303 -0.0182  0.2322
  805MOL0     C11002   2.893   3.158   8.974 -0.4942  0.2477 -0.0707
  805MOL0     N11003   2.202   2.642   8.863 -0.0477  0.2053  0.3187
  805MOL0     N11004   2.086   2.643   8.798  0.0748 -0.3059 -0.1680
  805MOL0     C11005   0.925   3.044   8.449  0.7439 -0.1302  0.4696
  805MOL0     C11006   0.797   3.100   8.428  0.3392 -0.8505  0.5023
  805MOL0     C11007   0.378   3.283   8.488  0.3470 -0.6963  0.4470
  805MOL0     C11008   0.348   3.237   8.358  0.0560 -0.9262  1.3598
  805MOL0     C11009   0.217   3.260   8.309 -0.0110  0.0435 -0.0052
  805MOL0     C11010   0.120   3.319   8.387  0.2767 -0.1545  0.7448
  805MOL0     O11011  -0.007   3.330   8.334  1.0473 -0.2325  1.0493
  805MOL0     C11012  -0.076   3.455   8.353  0.3049 -0.0651  0.3303
  805MOL0     C11013  -0.210   3.477   8.297  0.0680  0.5126  0.1251
  805MOL0     C11014  -0.218   3.431   8.149  0.1019  0.1357  0.6377
  805MOL0     C11015  -0.359   3.431   8.107  0.4704  0.2588 -0.4482
  805MOL0     C11016  -0.366   3.391   7.965  0.0386  0.4111  0.1973
  805MOL0     C11017  -0.372   3.360   7.853 -0.2816 -0.1828  0.1877
  805MOL0     C11018   0.155   3.373   8.506 -0.4933  0.5643 -0.2916
  805MOL0     C11019   0.284   3.358   8.556  1.1901  0.1965  0.0597
  805MOL0     C11020   0.304   3.402   8.705 -0.2806  0.5925  1.1880
  805MOL0     H11021   0.762   3.344   8.661  0.7812  0.4540  0.3229
  805MOL0     H11022   0.979   3.236   8.726  1.2192 -1.3406 -0.5950
  805MOL0     H11023   1.185   2.937   8.488  1.6384  3.8181  1.3561
  805MOL0     H11024   1.061   2.838   8.576 -0.0187 -0.1474 -4.3058
  805MOL0     H11025   1.187   2.813   8.757 -1.7201  0.3314 -1.0263
  805MOL0     H11026   1.283   2.761   8.619  1.0593  0.6767 -0.7388
  805MOL0     H11027   1.443   2.919   8.629 -0.2436 -2.2956  0.6906
  805MOL0     H11028   1.347   3.046   8.703  1.7893  0.7547 -0.3335
  805MOL0     H11029   1.371   2.940   8.918  1.9932  0.0517  0.9940
  805MOL0     H11030   1.435   2.792   8.846 -1.7655  0.3378  1.8066
  805MOL0     H11031   1.607   2.920   8.958 -1.5186  0.5388  0.3347
  805MOL0     H11032   1.563   3.059   8.859 -1.4317 -0.5947 -2.9261
  805MOL0     H11033   1.648   2.816   8.695 -0.3958  0.1875  1.4589
  805MOL0     H11034   1.700   2.988   8.691  2.7394 -0.0024 -1.2729
  805MOL0     H11035   1.779   2.767   8.889  1.1289 -0.0261  2.1874
  805MOL0     H11036   1.848   2.927   8.881  1.3218 -0.0853 -1.5606
  805MOL0     H11037   1.872   2.720   8.662  0.0850 -0.1548  0.1652
  805MOL0     H11038   1.925   2.888   8.649 -0.2376 -0.5877 -0.3951
  805MOL0     H11039   2.150   2.961   8.786  1.6488 -0.3388 -2.5633
  805MOL0     H11040   2.402   2.926   8.845 -0.0431  1.6751  1.5898
  805MOL0     H11041   2.453   2.758   8.888 -1.4406 -3.2374  4.3244
  805MOL0     H11042   2.297   2.925   9.086  1.3235  1.5054 -0.4694
  805MOL0     H11043   2.394   2.778   9.113 -2.0715  1.9041  3.2016
  805MOL0     H11044   2.502   3.055   9.030 -1.4961  0.3776  0.4492
  805MOL0     H11045   2.487   2.989   9.196 -4.5512  2.1054 -0.9864
  805MOL0     H11046   2.637   2.834   9.166 -1.9070 -2.1162 -1.2508
  805MOL0     H11047   2.642   2.829   8.989 -0.7849  0.0658  0.0135
  805MOL0     H11048   2.617   3.024   8.841 -1.6836  3.2641  1.2787
  805MOL0     H11049   2.729   3.086   8.535 -2.2195  0.2312 -1.4884
  805MOL0     H11050   2.631   3.227   8.597  3.2596  1.7221  1.0772
  805MOL0     H11051   2.589   3.059   8.638 -0.8229  0.8373  3.5727
  805MOL0     H11052   2.916   3.682   8.763 -1.3763 -2.1505 -0.8882
  805MOL0     H11053   3.001   3.881   8.647 -1.6775 -0.5870 -1.4640
  805MOL0     H11054   3.187   3.929   8.213  0.5112  1.1412 -0.3309
  805MOL0     H11055   3.060   3.802   8.237 -1.8207  0.2785  1.9193
  805MOL0     H11056   3.043   4.101   8.272  2.5037 -0.7664  0.3700
  805MOL0     H11057   2.965   4.011   8.149 -1.2520 -4.4537 -0.4276
  805MOL0     H11058   2.878   4.017   8.445 -1.2953 -0.3536 -0.5133
  805MOL0     H11059   2.850   3.876   8.334 -1.0743 -0.2195  0.6690
  805MOL0     H11060   2.733   4.035   8.178 -0.8681  0.3294 -0.1265
  805MOL0     H11061   2.788   4.167   8.284  3.0158 -0.7744 -3.8531
  805MOL0     H11062   2.581   3.967   8.394  0.5486  0.9961  2.3601
  805MOL0     H11063   2.650   4.095   8.465  1.3373  0.2209 -0.2110
  805MOL0     H11064   2.421   4.133   8.345 -2.0516 -0.8927 -3.6829
  805MOL0     H11065   2.501   4.143   8.194  2.3659  2.9561 -0.3247
  805MOL0     H11066   2.623   4.320   8.224  0.5140  3.0429  1.4757
  805MOL0     H11067   2.616   4.325   8.401 -2.4456  1.1882  2.1707
  805MOL0     H11068   2.386   4.398   8.402  1.5482  0.2036  2.0850
  805MOL0     H11069   2.374   4.387   8.229 -1.4415 -1.2132  2.1620
  805MOL0     H11070   3.158   3.612   8.331  1.5683 -1.9081  0.3880
  805MOL0     H11071   3.064   3.433   8.435  2.3080  1.2192 -2.2260
  805MOL0     H11072   3.023   3.296   8.875  0.0148 -0.2122 -2.1361
  805MOL0     H11073   2.948   3.171   9.067  0.0178  1.6501 -0.5413
  805MOL0     H11074   0.964   2.968   8.383 -2.5406 -0.5218 -1.2306
  805MOL0     H11075   0.755   3.064   8.335  1.2230 -1.0404  0.1580
  805MOL0     H11076   0.412   3.177   8.294  1.3376  0.4540  1.2873
  805MOL0     H11077   0.195   3.230   8.207  1.4245 -2.4422  0.3469
  805MOL0     H11078  -0.089   3.473   8.460  0.1782  3.5481 -0.1649
  805MOL0     H11079  -0.007   3.526   8.307  1.0154 -2.4942 -2.6175
  805MOL0     H11080  -0.241   3.582   8.304  1.1558  0.8459  0.1231
  805MOL0     H11081  -0.263   3.419   8.373 -2.8174 -0.5302 -2.4836
  805MOL0     H11082  -0.154   3.494   8.087 -2.1866  1.4236 -0.5609
  805MOL0     H11083  -0.182   3.329   8.166 -0.1824 -0.1021 -0.1578
  805MOL0     H11084  -0.403   3.530   8.121 -1.5925 -0.9471  2.4820
  805MOL0     H11085  -0.412   3.358   8.169 -0.8129  0.7200 -0.9671
  805MOL0     H11086  -0.362   3.320   7.755  0.9159 -0.3100  0.3432
  805MOL0     H11087   0.082   3.408   8.577 -0.3839 -1.5083  0.9321
  805MOL0     H11088   0.209   3.447   8.737 -1.6583 -1.4780  0.2405
  805MOL0     H11089   0.306   3.315   8.772 -1.3221 -1.2365 -1.0359
  805MOL0     H11090   0.387   3.473   8.707 -0.1728  0.8554 -3.1799
  806MOL0     O11091   5.989   8.783   5.600 -0.0173  0.3828 -1.2389
  806MOL0     C11092   6.031   8.822   5.710  0.1828  0.4855  0.4458
  806MOL0     O11093   5.984   8.928   5.770 -0.0952 -0.1345 -0.0607
  806MOL0     C11094   5.862   8.991   5.757 -0.2762 -0.0003 -0.2791
  806MOL0     C11095   5.750   8.915   5.723 -0.0148  0.4760 -0.0271
  806MOL0     C11096   5.630   8.971   5.696  0.2126  0.2600 -0.3340
  806MOL0     C11097   5.617   9.112   5.690 -0.3904 -0.8812  0.3303
  806MOL0     O11098   5.493   9.170   5.663  0.1434 -0.0482  0.4444
  806MOL0     C11099   5.486   9.263   5.554 -0.3827  0.2136 -0.3475
  806MOL0     C11100   5.383   9.376   5.560 -0.2518  0.3409  0.7339
  806MOL0     C11101   5.400   9.465   5.681  0.6960  0.9158  0.3398
  806MOL0     C11102   5.276   9.554   5.690 -0.3054  0.6820  0.0080
  806MOL0     C11103   5.242   9.601   5.838 -0.1457  0.4069  0.3646
  806MOL0     C11104   5.343   9.688   5.906  0.3802  0.1741 -1.0621
  806MOL0     C11105   5.293   9.766   6.029  0.7218 -0.1658 -0.1031
  806MOL0     C11106   5.253   9.692   6.158 -0.2442 -0.6463 -0.0443
  806MOL0     N11107   5.363   9.612   6.214 -0.8109  0.1859 -0.3368
  806MOL0     C11108   5.362   9.478   6.228 -0.3295 -0.5375  0.7293
  806MOL0     C11109   5.478   9.455   6.293 -0.4907  0.2695  0.2097
  806MOL0     C11110   5.512   9.325   6.346 -0.7311 -0.0923  1.2134
  806MOL0     C11111   5.652   9.320   6.419 -0.8979  0.1084  0.2889
  806MOL0     C11112   5.667   9.180   6.467 -0.3387 -0.5282  0.6656
  806MOL0     C11113   5.770   9.178   6.580  0.4888  0.0931  0.0844
  806MOL0     O11114   5.884   9.259   6.556  0.2234  0.3529 -0.1441
  806MOL0     C11115   6.000   9.233   6.627  0.9326 -0.3813 -0.6361
  806MOL0     C11116   6.108   9.211   6.553 -1.1125  0.0754  0.6846
  806MOL0     C11117   6.240   9.208   6.612 -0.0653  0.1096  0.2536
  806MOL0     C11118   6.355   9.191   6.510  0.3971  0.6409  0.1246
  806MOL0     C11119   6.258   9.210   6.754 -0.1360  1.2081  1.3952
  806MOL0     C11120   6.388   9.197   6.826  0.1923  0.6447 -0.2415
  806MOL0     O11121   6.374   9.215   6.960  0.0441  0.0248 -0.4140
  806MOL0     C11122   6.489   9.220   7.035 -1.2599  0.0438 -0.6073
  806MOL0     C11123   6.604   9.300   7.010  0.0442 -0.0941 -0.3071
  806MOL0     C11124   6.709   9.314   7.101 -0.6487  0.3215  0.1700
  806MOL0     C11125   6.704   9.249   7.225 -0.6215 -0.9640 -0.2044
  806MOL0     O11126   6.796   9.268   7.323 -0.1707 -0.2830 -0.6027
  806MOL0     C11127   6.942   9.271   7.285  0.3984 -0.2059 -0.1240
  806MOL0     C11128   7.028   9.225   7.395 -0.1663 -0.0619  0.0368
  806MOL0     C11129   7.170   9.236   7.364  0.5382 -0.6092 -0.2135
  806MOL0     C11130   7.261   9.238   7.495 -0.3463  0.8934  0.3434
  806MOL0     C11131   7.404   9.283   7.449  0.1473  0.8593 -0.7829
  806MOL0     C11132   7.499   9.285   7.573 -1.0250 -0.0241  0.0058
  806MOL0     C11133   7.627   9.349   7.542  0.2658 -0.1711 -0.4602
  806MOL0     C11134   7.735   9.321   7.646 -0.2687 -0.0448 -0.1660
  806MOL0    Cl11135   7.850   9.469   7.678  0.0807 -0.1930  0.3028
  806MOL0     C11136   6.586   9.175   7.251 -0.0465  0.2552 -0.5621
  806MOL0     C11137   6.479   9.163   7.157  0.4872 -0.4537 -0.5666
  806MOL0     O11138   6.496   9.180   6.765  0.0030  0.0093  0.0281
  806MOL0     C11139   6.135   9.218   6.828 -0.4873  0.0266 -0.0017
  806MOL0     C11140   6.006   9.239   6.770  0.0445 -0.2290 -0.2944
  806MOL0     N11141   5.545   9.575   6.317 -0.4664  0.0971 -0.2636
  806MOL0     N11142   5.476   9.669   6.270  0.5677  0.1715  0.8414
  806MOL0     C11143   5.727   9.188   5.734  0.0194 -0.7845 -0.2023
  806MOL0     C11144   5.847   9.127   5.767 -0.6684 -0.0984 -0.2057
  806MOL0     C11145   6.153   8.756   5.777  0.2585  0.0893  0.9269
  806MOL0     C11146   6.234   8.840   5.850 -0.3224 -0.1828 -0.2215
  806MOL0     C11147   6.353   8.788   5.907  0.0364  0.9874 -0.0819
  806MOL0     C11148   6.394   8.659   5.884 -0.0583  0.6691  0.4186
  806MOL0     O11149   6.495   8.600   5.955 -0.2653  0.0033  0.0900
  806MOL0     C11150   6.620   8.674   5.949  0.1836 -0.7464 -1.1710
  806MOL0     C11151   6.740   8.594   5.891 -0.5398 -0.5178  0.5575
  806MOL0     C11152   6.760   8.471   5.976 -0.1759  0.0645 -0.4790
  806MOL0     C11153   6.840   8.352   5.909  0.1252  0.0282 -0.3026
  806MOL0     C11154   6.970   8.403   5.877 -0.5004  0.3027 -0.3291
  806MOL0     C11155   7.073   8.458   5.844  0.4081  0.0910  0.0650
  806MOL0     C11156   6.312   8.577   5.810  0.3333  0.0543  0.3345
  806MOL0     C11157   6.194   8.617   5.751 -0.0034  0.9045 -0.2550
  806MOL0     C11158   6.123   8.511   5.659 -0.6107 -0.2167  0.4879
  806MOL0     H11159   5.756   8.807   5.725 -0.3499  0.4611  1.5220
  806MOL0     H11160   5.545   8.906   5.679  1.0307 -0.7571 -0.6294
  806MOL0     H11161   5.464   9.206   5.464  0.7805  0.4023 -0.7766
  806MOL0     H11162   5.585   9.310   5.543  1.8232 -3.3553  2.1092
  806MOL0     H11163   5.397   9.435   5.469 -1.5870  0.6767  0.7253
  806MOL0     H11164   5.280   9.341   5.552 -0.5921  1.2899  0.8677
  806MOL0     H11165   5.407   9.402   5.770  0.9913  0.1745 -0.1934
  806MOL0     H11166   5.486   9.531   5.666 -0.3445  2.1035 -0.6541
  806MOL0     H11167   5.290   9.643   5.629  1.9821  1.1903  1.1665
  806MOL0     H11168   5.186   9.504   5.655 -1.0954  2.2736 -0.3185
  806MOL0     H11169   5.210   9.520   5.905 -1.3781 -1.4883 -2.3020
  806MOL0     H11170   5.155   9.664   5.818 -0.5676 -0.2127  0.2172
  806MOL0     H11171   5.419   9.613   5.929  0.8551  0.1481 -2.6189
  806MOL0     H11172   5.381   9.764   5.838  1.4770 -0.2235 -0.9120
  806MOL0     H11173   5.202   9.818   5.996 -0.5545 -0.4660  2.6551
  806MOL0     H11174   5.372   9.834   6.064  0.6803 -1.7284  3.4171
  806MOL0     H11175   5.224   9.763   6.237 -2.0049 -1.4124  0.0326
  806MOL0     H11176   5.162   9.633   6.141 -0.2654 -1.3709  2.2006
  806MOL0     H11177   5.289   9.414   6.179  2.1849 -0.9532 -2.9038
  806MOL0     H11178   5.512   9.246   6.270 -0.7430  2.5788 -1.7523
  806MOL0     H11179   5.430   9.292   6.410 -2.0044 -1.7735 -1.1102
  806MOL0     H11180   5.742   9.343   6.360  0.4997 -1.5231  1.6672
  806MOL0     H11181   5.658   9.391   6.502  1.7698  2.6242 -1.8255
  806MOL0     H11182   5.570   9.139   6.495 -0.4053  0.2171  1.5879
  806MOL0     H11183   5.716   9.115   6.394 -1.1121 -1.9455  1.3657
  806MOL0     H11184   5.722   9.210   6.673  1.4394  1.5030  0.1197
  806MOL0     H11185   5.813   9.078   6.591 -1.9142 -1.1931 -1.3315
  806MOL0     H11186   6.093   9.197   6.447 -2.0343 -3.8022  1.1692
  806MOL0     H11187   6.314   9.196   6.408 -2.8096 -1.7151  1.1419
  806MOL0     H11188   6.401   9.093   6.521 -2.2932 -0.9950 -1.9678
  806MOL0     H11189   6.432   9.268   6.519 -0.1381  1.0180  1.6921
  806MOL0     H11190   6.600   9.362   6.920  0.4370 -0.2557 -0.4371
  806MOL0     H11191   6.786   9.389   7.083  0.5068 -0.7390  0.5920
  806MOL0     H11192   6.960   9.211   7.195  1.1800  0.4632 -0.4256
  806MOL0     H11193   6.959   9.376   7.263 -3.4336  1.1504  2.4081
  806MOL0     H11194   7.004   9.288   7.482 -0.0875 -0.5660  0.4320
  806MOL0     H11195   7.001   9.122   7.420 -1.8522 -0.9741 -4.5869
  806MOL0     H11196   7.183   9.326   7.303  1.4164 -2.2506 -2.6031
  806MOL0     H11197   7.189   9.150   7.299  0.7351  0.2671 -1.3572
  806MOL0     H11198   7.260   9.142   7.549 -2.8453  1.4539  1.4448
  806MOL0     H11199   7.232   9.316   7.566  1.4952  2.6998 -0.7751
  806MOL0     H11200   7.435   9.207   7.377 -0.3166  2.1385 -2.3832
  806MOL0     H11201   7.400   9.376   7.392  2.5394  0.8092 -1.1420
  806MOL0     H11202   7.517   9.186   7.617 -2.6912  0.2838  1.4851
  806MOL0     H11203   7.453   9.352   7.646 -0.6266  1.2757 -0.8938
  806MOL0     H11204   7.616   9.457   7.537 -0.9004 -0.2959 -0.7124
  806MOL0     H11205   7.655   9.308   7.444 -1.8664  2.8758 -2.5116
  806MOL0     H11206   7.783   9.234   7.601 -3.4354 -0.8209 -2.3552
  806MOL0     H11207   7.699   9.293   7.746 -0.4624 -1.8771 -0.7113
  806MOL0     H11208   6.564   9.127   7.346 -3.0693  1.8405 -0.3399
  806MOL0     H11209   6.389   9.110   7.185  0.8939 -0.2726  1.1719
  806MOL0     H11210   6.139   9.211   6.936  2.7848 -1.5631 -0.1136
  806MOL0     H11211   5.909   9.261   6.815 -0.5570  0.6345 -1.9150
  806MOL0     H11212   5.724   9.296   5.743 -0.7655 -0.9318  1.7252
  806MOL0     H11213   5.928   9.192   5.799 -3.0679  2.4668  1.1664
  806MOL0     H11214   6.203   8.944   5.860  1.3131  0.6372 -2.6201
  806MOL0     H11215   6.417   8.839   5.978  1.0574  0.5980 -0.6962
  806MOL0     H11216   6.609   8.762   5.885 -2.3227  3.2861  4.0270
  806MOL0     H11217   6.646   8.714   6.047  0.5076  1.1788 -2.0090
  806MOL0     H11218   6.836   8.646   5.878  1.0861 -3.6691 -1.4523
  806MOL0     H11219   6.712   8.564   5.789  2.2794 -0.6607 -0.2627
  806MOL0     H11220   6.817   8.494   6.066 -1.2634 -1.3554  0.6214
  806MOL0     H11221   6.664   8.425   6.002 -0.6484 -0.2236 -2.5119
  806MOL0     H11222   6.788   8.333   5.814  0.8581 -2.0591 -0.3295
  806MOL0     H11223   6.835   8.263   5.973 -0.2732 -0.5059 -1.0567
  806MOL0     H11224   7.174   8.490   5.827  0.8479 -1.0198  0.4383
  806MOL0     H11225   6.353   8.477   5.798  2.1472  0.7701  0.2782
  806MOL0     H11226   6.167   8.411   5.657 -1.9366 -0.8151 -1.4892
  806MOL0     H11227   6.025   8.496   5.705  0.3531 -1.9108  2.1438
  806MOL0     H11228   6.131   8.543   5.555  0.3352 -2.3815 -0.1489
  807MOL0     O11229   5.017   2.595   1.388  0.3612  0.1679 -0.2188
  807MOL0     C11230   4.950   2.566   1.493  0.0800 -0.5353  1.1997
  807MOL0     O11231   5.003   2.538   1.611  0.3198 -0.6758 -0.3180
  807MOL0     C11232   5.127   2.572   1.634 -0.4808 -0.3365 -0.4156
  807MOL0     C11233   5.176   2.705   1.645 -0.2402 -0.6043  0.2442
  807MOL0     C11234   5.312   2.736   1.653 -0.5099  0.1538 -0.6938
  807MOL0     C11235   5.403   2.632   1.661  0.1872 -0.3919  0.4931
  807MOL0     O11236   5.536   2.682   1.658  0.7845 -0.1443  0.6474
  807MOL0     C11237   5.637   2.591   1.666 -0.0414 -0.5105  0.2554
  807MOL0     C11238   5.771   2.658   1.650  0.5019  0.0482 -0.0560
  807MOL0     C11239   5.818   2.737   1.774  1.4068 -0.2020  0.2287
  807MOL0     C11240   5.948   2.814   1.754 -0.7358 -0.1488  0.3286
  807MOL0     C11241   5.999   2.873   1.883 -0.4198 -0.8399  0.5553
  807MOL0     C11242   6.120   2.960   1.867 -0.2400  0.0249  0.4290
  807MOL0     C11243   6.226   2.934   1.975  0.1998  1.0892 -0.2954
  807MOL0     C11244   6.332   3.036   1.993 -0.1901 -0.1842  0.9461
  807MOL0     N11245   6.413   3.065   1.875  0.5243  0.6309  0.0218
  807MOL0     C11246   6.418   3.183   1.807 -0.4127 -1.2079 -0.6731
  807MOL0     C11247   6.532   3.181   1.746 -0.0700 -0.0303  0.1670
  807MOL0     C11248   6.587   3.294   1.657  0.3840  0.6416  0.0400
  807MOL0     C11249   6.729   3.332   1.687 -0.3895 -0.3162 -0.2240
  807MOL0     C11250   6.772   3.461   1.615  0.1646  0.4103  0.0816
  807MOL0     C11251   6.915   3.501   1.638 -0.6835 -0.0209 -0.9230
  807MOL0     O11252   6.945   3.541   1.771  0.3263  0.3645 -0.4147
  807MOL0     C11253   7.080   3.555   1.804  0.3727  0.1014 -0.2446
  807MOL0     C11254   7.103   3.593   1.937  0.6320  0.4622 -0.8153
  807MOL0     C11255   7.227   3.614   1.982  0.2754  0.3112  0.2747
  807MOL0     C11256   7.235   3.623   2.138  0.0202 -0.5729 -0.2278
  807MOL0     C11257   7.341   3.599   1.887 -0.4576 -0.2085  0.4620
  807MOL0     C11258   7.480   3.615   1.946  0.1595  0.5977 -0.3372
  807MOL0     O11259   7.500   3.712   2.037 -0.2551  0.0808 -0.8180
  807MOL0     C11260   7.625   3.708   2.102 -0.1255 -0.3265 -0.2822
  807MOL0     C11261   7.703   3.819   2.106 -0.7506 -0.5310 -0.1368
  807MOL0     C11262   7.822   3.821   2.185  0.1150 -0.0147 -0.4275
  807MOL0     C11263   7.860   3.711   2.261  0.9487  0.9111 -0.2043
  807MOL0     O11264   7.964   3.699   2.348  0.1995  0.3572 -0.6031
  807MOL0     C11265   8.084   3.777   2.320 -0.3900  0.9411 -0.4369
  807MOL0     C11266   8.174   3.757   2.438  1.1238  0.6446  0.1564
  807MOL0     C11267   8.121   3.805   2.571 -0.2663  0.4116  0.0749
  807MOL0     C11268   8.222   3.796   2.689  0.7882  0.7309  0.7465
  807MOL0     C11269   8.187   3.903   2.784 -0.3148  0.8956  0.3229
  807MOL0     C11270   8.283   3.899   2.916  0.0811 -0.5397  0.3299
  807MOL0     C11271   8.337   4.043   2.962  0.4704 -0.9375  0.4422
  807MOL0     C11272   8.440   4.030   3.077  0.1631  0.0907  0.7166
  807MOL0    Cl11273   8.586   3.963   3.012 -0.2540 -0.2689  0.0473
  807MOL0     C11274   7.768   3.600   2.268 -0.6372  0.3966 -0.1595
  807MOL0     C11275   7.660   3.598   2.177 -0.4010  0.5746  0.4988
  807MOL0     O11276   7.563   3.538   1.898  0.4777 -0.1935  0.2180
  807MOL0     C11277   7.315   3.565   1.753  0.4885 -0.2116 -0.9058
  807MOL0     C11278   7.181   3.552   1.709  0.1685 -0.4057  0.2048
  807MOL0     N11279   6.593   3.059   1.757  0.3964  0.3413 -0.3218
  807MOL0     N11280   6.515   2.986   1.831  1.0205  0.1825  1.3991
  807MOL0     C11281   5.358   2.497   1.656  0.9584  0.2009 -0.0763
  807MOL0     C11282   5.215   2.471   1.642  0.1638 -0.4111  0.1817
  807MOL0     C11283   4.799   2.536   1.477 -0.7486  0.6189 -0.6880
  807MOL0     C11284   4.747   2.459   1.580 -0.4672 -0.1716  0.1011
  807MOL0     C11285   4.612   2.414   1.576 -0.3814 -0.6679 -0.3484
  807MOL0     C11286   4.526   2.448   1.469 -0.8905  0.2092  0.1101
  807MOL0     O11287   4.395   2.413   1.459 -0.1693  0.0126  0.2690
  807MOL0     C11288   4.340   2.343   1.574  0.8751 -0.1830  0.0600
  807MOL0     C11289   4.185   2.347   1.545 -0.2566  0.0927 -0.3711
  807MOL0     C11290   4.121   2.214   1.497  0.1321  0.1214  0.2456
  807MOL0     C11291   3.966   2.231   1.493  0.8245 -0.3293 -0.6341
  807MOL0     C11292   3.882   2.119   1.441 -0.4184 -0.6995 -0.7041
  807MOL0     C11293   3.831   2.014   1.408  0.3651 -0.3756 -0.7053
  807MOL0     C11294   4.586   2.521   1.366  0.4536  0.4547  0.3488
  807MOL0     C11295   4.719   2.565   1.369  0.1153 -0.2543  0.3006
  807MOL0     C11296   4.750   2.653   1.252 -0.4207  0.0250 -0.7732
  807MOL0     H11297   5.100   2.783   1.637  0.2811 -0.1923 -0.9168
  807MOL0     H11298   5.345   2.839   1.660 -1.1351  0.4433 -1.8402
  807MOL0     H11299   5.631   2.523   1.580  0.9577 -0.1285 -0.1353
  807MOL0     H11300   5.635   2.533   1.759 -1.1259 -0.1833  0.4538
  807MOL0     H11301   5.843   2.576   1.649  0.6595  0.1296  1.3610
  807MOL0     H11302   5.786   2.715   1.558 -0.1714 -0.6501 -0.5995
  807MOL0     H11303   5.755   2.822   1.802  2.2546 -0.4867  3.4997
  807MOL0     H11304   5.822   2.673   1.862 -0.0946 -0.7267 -0.0646
  807MOL0     H11305   6.024   2.759   1.698 -2.1441  0.7726 -2.7228
  807MOL0     H11306   5.942   2.899   1.685  1.3159 -1.4364 -1.5723
  807MOL0     H11307   6.025   2.784   1.942  0.3320 -0.0903  1.3645
  807MOL0     H11308   5.915   2.923   1.931  0.2318 -1.1006  2.0138
  807MOL0     H11309   6.173   2.929   1.776  0.5664 -0.4291  1.0351
  807MOL0     H11310   6.084   3.063   1.858  0.4180  0.3895  1.6378
  807MOL0     H11311   6.274   2.839   1.952  1.3880  1.1397  1.7713
  807MOL0     H11312   6.164   2.924   2.064 -0.4699 -0.6010 -0.9175
  807MOL0     H11313   6.273   3.124   2.020 -1.7114 -0.6915 -0.5316
  807MOL0     H11314   6.407   3.007   2.067 -0.4313  3.2405  2.7212
  807MOL0     H11315   6.339   3.256   1.822  0.6630 -0.2139  0.3788
  807MOL0     H11316   6.510   3.372   1.665  0.0094  0.1645  1.4858
  807MOL0     H11317   6.591   3.250   1.556  1.5587  3.4534 -1.2272
  807MOL0     H11318   6.735   3.351   1.795 -0.3471 -0.0804 -0.2694
  807MOL0     H11319   6.790   3.244   1.663 -1.2609 -0.6955 -1.1198
  807MOL0     H11320   6.759   3.455   1.507  1.2846  0.3586 -0.0660
  807MOL0     H11321   6.706   3.546   1.637 -0.0991  0.2030  0.0882
  807MOL0     H11322   6.977   3.417   1.605  0.6286 -0.6633  2.6873
  807MOL0     H11323   6.943   3.585   1.574  1.2541 -0.8918 -1.2758
  807MOL0     H11324   7.023   3.598   2.010  1.5431 -0.5618  0.2876
  807MOL0     H11325   7.292   3.712   2.167  0.0647 -0.2692 -1.2035
  807MOL0     H11326   7.288   3.534   2.174  0.0674 -1.1918 -1.7544
  807MOL0     H11327   7.135   3.620   2.183  0.5724 -0.8280  1.0130
  807MOL0     H11328   7.671   3.907   2.050 -0.9463  0.2312  1.1294
  807MOL0     H11329   7.881   3.912   2.195 -1.5371  0.9737  0.7247
  807MOL0     H11330   8.134   3.730   2.235 -2.2825 -2.6452  0.2371
  807MOL0     H11331   8.061   3.883   2.306  2.8175  1.8244  0.3013
  807MOL0     H11332   8.209   3.654   2.443 -0.0876  0.0859 -1.8499
  807MOL0     H11333   8.254   3.826   2.411  2.5852 -0.6613  1.0249
  807MOL0     H11334   8.026   3.758   2.600  0.5728 -0.6173  1.2353
  807MOL0     H11335   8.079   3.905   2.555 -3.2166 -1.1193 -3.2274
  807MOL0     H11336   8.322   3.807   2.647  0.0600  2.5544 -0.6290
  807MOL0     H11337   8.203   3.702   2.741 -1.9397  1.1584  0.7044
  807MOL0     H11338   8.207   3.998   2.734  0.0712  1.0230  0.7046
  807MOL0     H11339   8.084   3.882   2.813 -0.8868  1.7196 -1.0217
  807MOL0     H11340   8.367   3.833   2.890  0.8059  0.9375 -1.3751
  807MOL0     H11341   8.233   3.860   3.005 -1.1223 -0.0353 -0.1006
  807MOL0     H11342   8.244   4.081   3.005 -1.4572  0.4212 -4.3111
  807MOL0     H11343   8.370   4.102   2.876  0.2569 -0.6647  0.5479
  807MOL0     H11344   8.394   3.973   3.158  0.2186 -2.5146 -0.9508
  807MOL0     H11345   8.453   4.126   3.127 -3.4767  0.0299  2.1130
  807MOL0     H11346   7.794   3.510   2.323  0.8340 -1.1969 -3.2252
  807MOL0     H11347   7.593   3.513   2.180  1.2933 -0.8022  1.6620
  807MOL0     H11348   7.392   3.550   1.678  1.3344 -0.6037  0.0317
  807MOL0     H11349   7.144   3.527   1.609 -1.7769  0.0766  0.7621
  807MOL0     H11350   5.431   2.418   1.671  0.1695 -0.4128  0.6130
  807MOL0     H11351   5.185   2.368   1.629  1.4100 -0.6928 -0.7464
  807MOL0     H11352   4.808   2.423   1.662  3.6615 -2.1303 -3.4660
  807MOL0     H11353   4.576   2.362   1.664 -0.8014 -1.6783 -1.0952
  807MOL0     H11354   4.368   2.238   1.577  1.2423 -0.0568  1.5203
  807MOL0     H11355   4.359   2.381   1.674 -1.7974  0.1085  0.5404
  807MOL0     H11356   4.161   2.429   1.477 -4.1164 -0.4696  0.1054
  807MOL0     H11357   4.127   2.368   1.636 -0.3826 -0.4795 -0.3174
  807MOL0     H11358   4.159   2.180   1.401  2.3333  0.6769  0.8730
  807MOL0     H11359   4.144   2.135   1.570  0.5906  0.5060  0.5208
  807MOL0     H11360   3.934   2.312   1.429 -0.8743 -2.4826 -2.6672
  807MOL0     H11361   3.927   2.247   1.594 -1.1045  0.5703 -1.4796
  807MOL0     H11362   3.793   1.919   1.374  0.5674 -1.2443  1.3361
  807MOL0     H11363   4.519   2.541   1.283 -0.0859 -2.1731  0.0694
  807MOL0     H11364   4.679   2.632   1.172 -0.7807  1.0847 -0.7504
  807MOL0     H11365   4.755   2.761   1.270  2.0646 -0.0845 -0.3701
  807MOL0     H11366   4.849   2.624   1.215 -0.2650 -0.6997  0.1894
  808MOL0     O11367   6.481   6.456   5.482  0.5874  0.4792 -0.6923
  808MOL0     C11368   6.417   6.561   5.482  0.3601  0.5422 -0.2877
  808MOL0     O11369   6.481   6.682   5.499  0.4257  0.2530  0.1489
  808MOL0     C11370   6.609   6.682   5.444 -0.2850 -0.2402  0.1009
  808MOL0     C11371   6.644   6.646   5.316 -0.2015  0.0711  0.7265
  808MOL0     C11372   6.776   6.635   5.270 -0.5002 -0.6619 -0.2048
  808MOL0     C11373   6.888   6.675   5.351 -0.9163  0.2662  1.1903
  808MOL0     O11374   7.018   6.656   5.308  0.2897  0.3270  0.1146
  808MOL0     C11375   7.084   6.565   5.384 -0.6984  0.0497 -0.2918
  808MOL0     C11376   7.214   6.645   5.438  0.7983 -0.0615 -0.4115
  808MOL0     C11377   7.315   6.679   5.330 -0.4612  0.4498  0.7458
  808MOL0     C11378   7.423   6.755   5.392 -0.0428  0.3626 -0.4644
  808MOL0     C11379   7.560   6.731   5.328 -0.9517  0.3984 -0.1586
  808MOL0     C11380   7.666   6.817   5.402 -0.0674  0.4903 -1.0470
  808MOL0     C11381   7.801   6.813   5.347 -0.3300  0.1537  1.0210
  808MOL0     C11382   7.811   6.896   5.219 -1.0435 -0.2793  0.6110
  808MOL0     N11383   7.950   6.895   5.172 -0.0259  0.2528  0.0740
  808MOL0     C11384   8.039   6.999   5.165 -0.2880 -0.0417 -0.6055
  808MOL0     C11385   8.149   6.959   5.099 -0.6450  1.1076 -0.3179
  808MOL0     C11386   8.285   7.022   5.064  0.5814  0.1362 -0.1827
  808MOL0     C11387   8.394   6.955   5.146 -0.0768 -0.5792  0.0207
  808MOL0     C11388   8.524   7.014   5.090  0.8115  0.3407  0.7447
  808MOL0     C11389   8.632   6.983   5.187 -0.4950  1.2924 -0.2167
  808MOL0     O11390   8.677   6.846   5.171  0.9243 -0.5622 -0.3816
  808MOL0     C11391   8.793   6.804   5.230 -0.4537  0.2774  0.8169
  808MOL0     C11392   8.857   6.872   5.330  0.0677  0.2314 -0.0297
  808MOL0     C11393   8.988   6.824   5.364 -0.0922  0.1640  0.3065
  808MOL0     C11394   9.056   6.899   5.474  0.2124 -0.8942 -0.0732
  808MOL0     C11395   9.044   6.715   5.312 -0.5686  0.2080 -0.1424
  808MOL0     C11396   9.181   6.660   5.347  0.5285  0.4864  0.3776
  808MOL0     O11397   9.201   6.528   5.303  0.1819 -0.2600 -0.7813
  808MOL0     C11398   9.334   6.490   5.307 -0.1712 -0.0333 -0.3275
  808MOL0     C11399   9.437   6.548   5.229 -0.1949 -0.3586  0.1465
  808MOL0     C11400   9.576   6.522   5.242  0.1585  0.5653  1.1473
  808MOL0     C11401   9.622   6.434   5.340 -0.0708  0.7337 -0.0128
  808MOL0     O11402   9.751   6.423   5.371  0.2577 -0.1095  0.4303
  808MOL0     C11403   9.787   6.293   5.416 -0.2731  0.0261 -0.2839
  808MOL0     C11404   9.940   6.266   5.396 -0.1074 -0.8244 -0.7072
  808MOL0     C11405   9.993   6.275   5.254 -0.6169  1.1061 -0.4560
  808MOL0     C11406  10.010   6.153   5.175 -0.2666 -0.4713 -1.4763
  808MOL0     C11407  10.054   6.170   5.032 -0.9450  0.4182 -0.2823
  808MOL0     C11408  10.081   6.034   4.959  0.2103 -0.4189 -0.1665
  808MOL0     C11409   9.958   5.955   4.908  0.2542 -0.5799  0.0323
  808MOL0     C11410   9.980   5.835   4.822  0.2615  0.6517 -0.0571
  808MOL0    Cl11411  10.067   5.888   4.675 -0.1873  0.0709  0.1707
  808MOL0     C11412   9.519   6.362   5.413 -0.0445  0.1973 -0.3162
  808MOL0     C11413   9.380   6.393   5.397  0.8190  0.4959  0.6833
  808MOL0     O11414   9.261   6.727   5.408  0.7241 -0.2728 -1.0508
  808MOL0     C11415   8.970   6.641   5.221 -0.3361 -0.3490  0.2596
  808MOL0     C11416   8.846   6.687   5.175  0.1825 -0.1344 -0.5065
  808MOL0     N11417   8.121   6.836   5.050  0.2288  0.0434  0.9589
  808MOL0     N11418   8.008   6.799   5.099  0.0661  0.1932 -0.1314
  808MOL0     C11419   6.855   6.730   5.475  0.1842  0.9250 -0.1879
  808MOL0     C11420   6.717   6.734   5.516 -1.2902 -0.2387 -0.5449
  808MOL0     C11421   6.282   6.534   5.497  0.3710  0.0097  0.3569
  808MOL0     C11422   6.228   6.568   5.619 -0.0860  0.3458  0.3463
  808MOL0     C11423   6.091   6.565   5.631  0.2090  0.0658 -0.1233
  808MOL0     C11424   6.008   6.537   5.523  0.4235  0.6221 -0.0093
  808MOL0     O11425   5.871   6.543   5.530  0.3603  0.7791  0.1649
  808MOL0     C11426   5.809   6.549   5.661 -0.2281 -0.4079 -0.0026
  808MOL0     C11427   5.653   6.552   5.639 -0.1964 -0.3063 -0.2227
  808MOL0     C11428   5.600   6.498   5.503  0.0848 -0.0954  1.0314
  808MOL0     C11429   5.453   6.518   5.476  0.2796  0.3821 -0.1003
  808MOL0     C11430   5.418   6.481   5.337  0.0055  0.0494 -0.0198
  808MOL0     C11431   5.390   6.448   5.223 -0.1281  0.8595 -0.2205
  808MOL0     C11432   6.057   6.502   5.401 -0.0198  0.4514 -0.4211
  808MOL0     C11433   6.200   6.493   5.388  0.5077  0.3710  0.1091
  808MOL0     C11434   6.263   6.472   5.252  0.5658  0.9880 -0.5889
  808MOL0     H11435   6.556   6.622   5.257  2.6611 -0.3030 -3.8909
  808MOL0     H11436   6.793   6.599   5.169 -3.9320 -3.7369  0.1244
  808MOL0     H11437   7.110   6.482   5.319 -1.8969  0.0212 -0.7626
  808MOL0     H11438   7.031   6.544   5.477  1.0622  2.8831  1.5233
  808MOL0     H11439   7.186   6.737   5.489 -0.7410 -0.0694 -1.1877
  808MOL0     H11440   7.260   6.572   5.505  0.0740 -0.8392 -0.7401
  808MOL0     H11441   7.342   6.585   5.280 -0.1163  0.5015  0.8284
  808MOL0     H11442   7.269   6.746   5.256 -1.7351 -1.6823 -0.4999
  808MOL0     H11443   7.411   6.864   5.394  0.6342  0.4330  0.8569
  808MOL0     H11444   7.438   6.730   5.497  2.0091  1.1495 -0.5363
  808MOL0     H11445   7.556   6.761   5.222 -0.1129 -0.4289 -0.4387
  808MOL0     H11446   7.586   6.626   5.335  2.0381  1.0958  0.4611
  808MOL0     H11447   7.615   6.913   5.413 -1.1098 -0.0496 -1.0609
  808MOL0     H11448   7.674   6.781   5.505  1.9830 -0.9894 -1.6589
  808MOL0     H11449   7.822   6.709   5.322  0.0731  0.2847  0.7993
  808MOL0     H11450   7.873   6.837   5.427  0.1959 -0.3444  0.7043
  808MOL0     H11451   7.761   6.841   5.139 -0.0698 -0.3483  0.0418
  808MOL0     H11452   7.775   6.999   5.231  0.8266  0.8563 -2.5606
  808MOL0     H11453   8.015   7.090   5.218 -1.1664 -0.6454  0.0846
  808MOL0     H11454   8.291   7.127   5.095  2.2039  0.2290 -0.7062
  808MOL0     H11455   8.300   7.009   4.957  0.7187 -0.2303 -0.1187
  808MOL0     H11456   8.399   6.970   5.254  3.9296 -1.5245  0.1239
  808MOL0     H11457   8.386   6.846   5.149  0.4396 -0.6175  0.2598
  808MOL0     H11458   8.554   6.973   4.993 -0.3643 -1.4344  1.0896
  808MOL0     H11459   8.518   7.122   5.076 -0.0743 -0.0795 -3.4760
  808MOL0     H11460   8.720   7.043   5.161  1.3215 -1.1985 -0.2060
  808MOL0     H11461   8.600   7.003   5.290 -0.4470 -1.1715  0.3330
  808MOL0     H11462   8.821   6.961   5.381 -0.3414  0.0008  0.0849
  808MOL0     H11463   9.156   6.931   5.443  0.0216  2.4767  2.2053
  808MOL0     H11464   9.076   6.838   5.562  4.3835 -0.3323 -0.4501
  808MOL0     H11465   9.008   6.991   5.508  1.7430 -0.1484  0.1479
  808MOL0     H11466   9.417   6.627   5.158 -0.2198 -2.3146 -2.1657
  808MOL0     H11467   9.649   6.574   5.182 -0.7777 -1.0594 -1.6049
  808MOL0     H11468   9.768   6.268   5.520  0.1471 -2.3247 -0.7152
  808MOL0     H11469   9.747   6.212   5.353  0.3802 -1.9868  1.7538
  808MOL0     H11470   9.995   6.339   5.456  0.1393  0.2841 -2.2270
  808MOL0     H11471   9.960   6.165   5.433 -4.0522 -2.3946 -2.2367
  808MOL0     H11472  10.094   6.317   5.255 -0.5951  1.1157 -1.6848
  808MOL0     H11473   9.922   6.331   5.193 -1.1737  0.5483 -0.3269
  808MOL0     H11474   9.919   6.093   5.172 -0.9877  0.2972  1.8159
  808MOL0     H11475  10.081   6.085   5.224  0.5834  1.4352  0.0581
  808MOL0     H11476   9.983   6.234   4.978 -0.9180  0.2873 -0.4736
  808MOL0     H11477  10.152   6.219   5.040  0.3437 -2.1475  0.7583
  808MOL0     H11478  10.140   5.964   5.020  2.1996  0.3709 -1.1064
  808MOL0     H11479  10.142   6.058   4.872 -0.3603  1.1832 -0.1510
  808MOL0     H11480   9.879   6.012   4.859  0.1382 -0.9422 -0.2072
  808MOL0     H11481   9.910   5.926   5.002  0.5608  1.8864  1.0164
  808MOL0     H11482   9.881   5.793   4.806 -0.8459  3.0985 -0.0699
  808MOL0     H11483  10.032   5.753   4.872  0.0343  1.5242  1.7083
  808MOL0     H11484   9.541   6.282   5.482 -0.1649  0.2613 -0.2017
  808MOL0     H11485   9.310   6.337   5.458  1.0880 -0.5069  0.0921
  808MOL0     H11486   8.994   6.541   5.186  0.5314 -1.0071  2.5356
  808MOL0     H11487   8.799   6.625   5.099  2.1503 -1.1015 -1.0034
  808MOL0     H11488   6.932   6.762   5.544  1.0297  3.4923 -2.1413
  808MOL0     H11489   6.697   6.759   5.619  1.5501  2.8937 -0.6110
  808MOL0     H11490   6.288   6.620   5.693  0.3349  4.0574 -2.2758
  808MOL0     H11491   6.058   6.591   5.732 -1.4515 -1.6028 -0.1693
  808MOL0     H11492   5.833   6.459   5.717  1.9430  0.5755  0.7452
  808MOL0     H11493   5.849   6.630   5.723  1.8894 -0.6316 -0.9839
  808MOL0     H11494   5.616   6.652   5.664 -0.5742 -0.2986 -0.7977
  808MOL0     H11495   5.606   6.491   5.717  1.1873 -2.0710 -0.6846
  808MOL0     H11496   5.642   6.566   5.429  1.0031 -0.4062  1.2450
  808MOL0     H11497   5.640   6.398   5.483  1.5889  0.7620 -0.5426
  808MOL0     H11498   5.426   6.624   5.486 -1.0691 -0.0448  1.1430
  808MOL0     H11499   5.392   6.452   5.539 -0.8305  1.0732 -0.4111
  808MOL0     H11500   5.399   6.433   5.117  0.9984  0.4958 -0.0882
  808MOL0     H11501   5.987   6.488   5.320 -2.1636  0.5697  1.3137
  808MOL0     H11502   6.336   6.391   5.259 -0.1118  0.5320  2.5982
  808MOL0     H11503   6.189   6.447   5.175 -2.8155  2.8909  1.7681
  808MOL0     H11504   6.310   6.565   5.219  2.4074 -0.0759 -1.1325
  809MOL0     O11505   2.222   8.126   3.737 -0.4786  0.5051  0.4060
  809MOL0     C11506   2.150   8.138   3.835 -0.4154 -0.9065 -0.7922
  809MOL0     O11507   2.147   8.254   3.908 -0.1222 -0.5022 -0.4550
  809MOL0     C11508   2.210   8.359   3.849 -0.1603 -0.6215 -0.8975
  809MOL0     C11509   2.142   8.472   3.808 -1.5426 -0.5529 -0.9668
  809MOL0     C11510   2.209   8.571   3.735  0.0135  0.0557 -0.0097
  809MOL0     C11511   2.350   8.563   3.706 -0.1943  0.8829  0.7246
  809MOL0     O11512   2.427   8.669   3.670  1.3414  0.2172  1.0083
  809MOL0     C11513   2.360   8.780   3.609 -1.3217 -0.0022  0.3947
  809MOL0     C11514   2.454   8.891   3.552  0.5206 -0.1155  0.2453
  809MOL0     C11515   2.545   8.934   3.666  0.1927 -0.0987 -0.6266
  809MOL0     C11516   2.666   9.015   3.625  0.7540 -1.2012 -0.0693
  809MOL0     C11517   2.775   9.038   3.733  0.4910  0.3705 -0.1793
  809MOL0     C11518   2.878   9.144   3.694 -0.2393 -0.1340  0.9047
  809MOL0     C11519   2.956   9.119   3.564  0.5937  0.0287 -0.3849
  809MOL0     C11520   2.901   9.211   3.462 -0.6138 -0.0828 -0.6245
  809MOL0     N11521   2.989   9.216   3.344  0.5592  0.0034  1.1144
  809MOL0     C11522   2.966   9.125   3.241 -1.1197 -0.0173 -0.0188
  809MOL0     C11523   3.043   9.159   3.139 -0.2070 -0.3144 -0.6199
  809MOL0     C11524   3.073   9.087   3.011  0.2040 -0.3998  1.0649
  809MOL0     C11525   3.216   9.116   2.960  0.5132  0.1718 -0.7762
  809MOL0     C11526   3.227   9.091   2.803  0.1572 -0.4960 -0.2798
  809MOL0     C11527   3.378   9.055   2.767 -0.6395 -0.0028  0.7369
  809MOL0     O11528   3.446   9.181   2.760 -0.0948 -0.1973  0.4580
  809MOL0     C11529   3.576   9.163   2.746  0.3226 -0.4889 -0.4998
  809MOL0     C11530   3.634   9.090   2.653  0.2584 -0.0033 -0.3706
  809MOL0     C11531   3.771   9.076   2.641 -0.5614 -0.0658 -0.5425
  809MOL0     C11532   3.827   8.973   2.551 -0.5115  0.4155  0.1898
  809MOL0     C11533   3.854   9.163   2.725 -0.0808 -0.1340  0.0798
  809MOL0     C11534   4.002   9.156   2.714  0.5599  0.3310 -0.1551
  809MOL0     O11535   4.056   9.280   2.705  0.2723  0.0820  0.2068
  809MOL0     C11536   4.189   9.283   2.683 -0.7146  0.8903 -0.3527
  809MOL0     C11537   4.267   9.267   2.798  0.2161 -0.5189 -0.0395
  809MOL0     C11538   4.404   9.268   2.779  0.1058 -0.0516  0.0837
  809MOL0     C11539   4.461   9.287   2.658  1.0998 -0.3142  0.0178
  809MOL0     O11540   4.601   9.296   2.645  0.8527  0.0403  0.1376
  809MOL0     C11541   4.655   9.373   2.531  0.6679  0.7102 -0.8722
  809MOL0     C11542   4.789   9.434   2.590 -0.1935  0.2659  0.1897
  809MOL0     C11543   4.886   9.456   2.475 -0.4477  0.6434  0.2614
  809MOL0     C11544   4.841   9.551   2.364 -0.1903  0.6659  0.0080
  809MOL0     C11545   4.969   9.595   2.288  0.3228 -0.1483 -0.3905
  809MOL0     C11546   4.922   9.655   2.158  0.4543  0.1119 -0.0857
  809MOL0     C11547   5.027   9.679   2.049 -0.1724 -0.3719 -0.1929
  809MOL0     C11548   5.096   9.815   2.067  0.4455 -0.5602 -0.0089
  809MOL0    Cl11549   5.271   9.786   2.033  0.1963 -0.0169 -0.2311
  809MOL0     C11550   4.376   9.309   2.545  0.2249  0.2269 -0.1863
  809MOL0     C11551   4.241   9.308   2.556  0.3511  0.3762  0.3239
  809MOL0     O11552   4.066   9.047   2.712 -0.4738 -0.1789 -0.0594
  809MOL0     C11553   3.791   9.262   2.804  0.1130  0.3290 -0.4104
  809MOL0     C11554   3.654   9.259   2.818  0.4290  0.2062 -0.2248
  809MOL0     N11555   3.113   9.272   3.188  0.1983 -0.0687 -0.0548
  809MOL0     N11556   3.081   9.301   3.307 -0.0135  0.4730 -0.4252
  809MOL0     C11557   2.421   8.460   3.759 -0.3403 -0.5375  0.3871
  809MOL0     C11558   2.355   8.363   3.832 -0.7634 -0.2589 -0.2892
  809MOL0     C11559   2.088   8.009   3.891 -0.4541 -1.1504  0.9903
  809MOL0     C11560   1.999   8.029   4.003 -0.2787 -0.5082  0.4158
  809MOL0     C11561   1.924   7.924   4.054  0.2445 -0.4584 -0.0427
  809MOL0     C11562   1.936   7.792   4.003  0.5125  0.5875 -0.3335
  809MOL0     O11563   1.872   7.685   4.066 -0.2998 -0.6913 -0.1735
  809MOL0     C11564   1.728   7.680   4.061 -0.1626  0.4382 -0.0920
  809MOL0     C11565   1.664   7.641   4.195 -0.4663 -0.2539  0.4851
  809MOL0     C11566   1.512   7.604   4.191  0.0132  0.2304  0.2672
  809MOL0     C11567   1.469   7.546   4.327  0.8780 -0.4642  0.8265
  809MOL0     C11568   1.447   7.650   4.435  0.0659 -0.2447  0.2417
  809MOL0     C11569   1.426   7.735   4.518  0.1153 -0.3434  0.7135
  809MOL0     C11570   2.016   7.770   3.890  0.2641 -0.2249  0.4433
  809MOL0     C11571   2.088   7.876   3.833 -0.4467 -0.3693 -0.3407
  809MOL0     C11572   2.171   7.841   3.708  0.0277 -0.3569  0.1281
  809MOL0     H11573   2.037   8.485   3.832 -1.0723  1.4683  0.2208
  809MOL0     H11574   2.144   8.653   3.706 -0.6605 -0.8052 -1.0086
  809MOL0     H11575   2.301   8.835   3.683 -1.5404  0.3208 -0.0153
  809MOL0     H11576   2.301   8.749   3.521  1.2316 -0.2985 -1.3192
  809MOL0     H11577   2.509   8.858   3.463  0.1402 -0.4067  0.1144
  809MOL0     H11578   2.392   8.975   3.518 -1.9838 -2.1075 -0.4153
  809MOL0     H11579   2.488   9.001   3.732 -0.6235 -0.5163 -0.8928
  809MOL0     H11580   2.589   8.859   3.732  1.4731 -1.5390 -3.0268
  809MOL0     H11581   2.706   8.973   3.532 -0.1767  1.3361 -1.7004
  809MOL0     H11582   2.631   9.112   3.589 -0.4251 -1.9710 -1.0852
  809MOL0     H11583   2.826   8.944   3.756  0.5869  0.2082 -1.0221
  809MOL0     H11584   2.725   9.067   3.826  1.4853  1.4414  0.0473
  809MOL0     H11585   2.832   9.243   3.693  0.9437  0.4680 -1.3008
  809MOL0     H11586   2.953   9.151   3.773  0.5171  3.4256  0.0585
  809MOL0     H11587   2.933   9.017   3.533 -2.8310  0.5239  0.1789
  809MOL0     H11588   3.062   9.132   3.587  0.3837 -2.4195  2.5970
  809MOL0     H11589   2.798   9.175   3.451 -0.6074 -1.3898  2.4880
  809MOL0     H11590   2.900   9.311   3.504  0.4862 -0.5621  0.6263
  809MOL0     H11591   2.897   9.042   3.235 -1.8408  0.4969  0.7767
  809MOL0     H11592   2.989   9.113   2.946 -0.5454 -1.2937  1.6489
  809MOL0     H11593   3.056   8.980   3.030 -1.2629 -0.2705  0.6007
  809MOL0     H11594   3.246   9.218   2.987  2.3805 -0.4968 -0.1344
  809MOL0     H11595   3.289   9.045   3.003  0.3243 -1.6596 -3.2575
  809MOL0     H11596   3.165   9.006   2.772  0.6404 -1.0369  0.2123
  809MOL0     H11597   3.186   9.168   2.736  2.0494 -0.0218 -0.9656
  809MOL0     H11598   3.417   8.987   2.844 -3.1627 -2.7910 -0.2535
  809MOL0     H11599   3.371   8.999   2.673 -1.1089 -2.4924  2.1575
  809MOL0     H11600   3.584   9.024   2.583  1.2533  0.4182 -1.4930
  809MOL0     H11601   3.910   9.017   2.495 -0.1830 -0.3104  0.1037
  809MOL0     H11602   3.752   8.932   2.483  0.6457  2.0359 -2.2187
  809MOL0     H11603   3.869   8.888   2.605  1.6289  0.9299 -0.5496
  809MOL0     H11604   4.217   9.252   2.893  2.7787 -0.4095  1.4173
  809MOL0     H11605   4.468   9.259   2.866  1.3526 -3.5499 -1.0110
  809MOL0     H11606   4.667   9.310   2.443 -0.1527 -0.1344 -0.3984
  809MOL0     H11607   4.586   9.454   2.507 -0.4696 -0.0038 -0.1183
  809MOL0     H11608   4.761   9.520   2.652 -4.4405 -1.5501  1.1356
  809MOL0     H11609   4.845   9.361   2.649  0.5610  1.3568  0.8540
  809MOL0     H11610   4.908   9.364   2.421  2.2600  1.7373 -0.6413
  809MOL0     H11611   4.984   9.488   2.511 -0.5086  1.6784 -0.4347
  809MOL0     H11612   4.795   9.643   2.403 -3.8655 -0.0937 -2.1203
  809MOL0     H11613   4.769   9.504   2.298  1.1437  0.5438 -1.4175
  809MOL0     H11614   5.025   9.651   2.364  0.2432 -4.2446  3.0486
  809MOL0     H11615   5.034   9.511   2.260  2.5089  1.0277  0.8531
  809MOL0     H11616   4.865   9.745   2.183 -0.7714 -0.9295  1.0361
  809MOL0     H11617   4.846   9.589   2.117  1.2494 -1.0610  0.2830
  809MOL0     H11618   4.969   9.686   1.957 -1.0387 -1.6554  0.2288
  809MOL0     H11619   5.094   9.593   2.054 -1.4925 -1.3699  1.2762
  809MOL0     H11620   5.080   9.862   2.164  0.3154 -0.5376 -0.0395
  809MOL0     H11621   5.047   9.880   1.994  0.7062 -2.2686 -1.8020
  809MOL0     H11622   4.425   9.321   2.449  2.3642 -0.3014  0.7816
  809MOL0     H11623   4.169   9.319   2.476 -0.1141  1.7046  0.8985
  809MOL0     H11624   3.853   9.338   2.851  0.2193  1.0110 -1.6222
  809MOL0     H11625   3.599   9.335   2.873  0.8486  2.2324 -2.4084
  809MOL0     H11626   2.529   8.459   3.751 -0.4024  0.4401 -0.8668
  809MOL0     H11627   2.405   8.278   3.876  0.5873  1.0332  0.7937
  809MOL0     H11628   2.000   8.127   4.051 -3.1881  0.6362 -1.5603
  809MOL0     H11629   1.876   7.947   4.148 -1.3436 -1.7300 -0.4796
  809MOL0     H11630   1.683   7.776   4.034 -1.4995  0.0196  0.5664
  809MOL0     H11631   1.697   7.606   3.986 -1.2988  0.9179 -0.1073
  809MOL0     H11632   1.679   7.725   4.262 -1.6838 -0.6745  1.3248
  809MOL0     H11633   1.723   7.560   4.239 -0.7466  0.3697  2.0880
  809MOL0     H11634   1.444   7.684   4.164 -0.8754 -0.2559  1.0175
  809MOL0     H11635   1.491   7.522   4.122 -1.0002  0.3544  0.4172
  809MOL0     H11636   1.538   7.470   4.365  0.0826 -2.5130 -1.5852
  809MOL0     H11637   1.372   7.498   4.317 -0.0657  1.4916  0.1353
  809MOL0     H11638   1.398   7.808   4.591 -1.4456  0.7782 -0.9339
  809MOL0     H11639   2.023   7.679   3.831 -0.3548  0.8471 -1.3525
  809MOL0     H11640   2.137   7.914   3.635  0.5389 -1.4868 -1.2794
  809MOL0     H11641   2.277   7.862   3.718  0.5576 -2.2945 -0.9257
  809MOL0     H11642   2.153   7.742   3.663  0.6819  0.0376 -1.0329
  810MOL0     O11643   2.117   7.015   6.200  0.1271 -0.8472 -0.1736
  810MOL0     C11644   2.109   7.045   6.082  0.1815  0.8938  0.8177
  810MOL0     O11645   1.992   7.069   6.016 -0.3930  0.4171 -0.0852
  810MOL0     C11646   1.873   7.063   6.088 -0.4314  0.5454  0.6372
  810MOL0     C11647   1.807   7.189   6.111  0.1760 -0.2835  0.4888
  810MOL0     C11648   1.683   7.198   6.170 -0.4503  0.6701  0.2783
  810MOL0     C11649   1.627   7.080   6.224  0.1241  0.0626  0.5952
  810MOL0     O11650   1.514   7.076   6.302 -0.2887  0.1901  0.9494
  810MOL0     C11651   1.452   7.200   6.327  0.1268 -2.1066  0.2809
  810MOL0     C11652   1.334   7.190   6.423  0.5926 -0.3057  0.8504
  810MOL0     C11653   1.220   7.104   6.359 -1.0312  0.0395 -0.0020
  810MOL0     C11654   1.126   7.054   6.476  0.8540  0.4577 -0.0120
  810MOL0     C11655   1.008   6.986   6.421 -0.8514 -0.7700 -0.2685
  810MOL0     C11656   0.896   7.092   6.391  0.2552 -0.5318  1.4443
  810MOL0     C11657   0.768   7.009   6.359 -0.0276  0.4727 -0.3278
  810MOL0     C11658   0.776   6.936   6.218  0.1842  0.3302 -0.3202
  810MOL0     N11659   0.651   6.866   6.186 -0.1933 -0.4704  1.0061
  810MOL0     C11660   0.606   6.752   6.242  0.1550  0.5127 -0.3627
  810MOL0     C11661   0.489   6.722   6.180 -0.4782  0.4430 -0.0352
  810MOL0     C11662   0.395   6.610   6.190 -0.3467 -0.0176  0.8774
  810MOL0     C11663   0.338   6.582   6.334 -0.4016  0.1845  0.0236
  810MOL0     C11664   0.238   6.698   6.367  0.2983  0.1289  0.2286
  810MOL0     C11665   0.164   6.688   6.504 -0.3422 -0.3726  0.1195
  810MOL0     O11666   0.211   6.621   6.610  0.1843  0.0926 -1.0395
  810MOL0     C11667   0.338   6.649   6.658  0.0493 -1.0034  0.1209
  810MOL0     C11668   0.423   6.548   6.698  0.2273  0.2946 -0.8320
  810MOL0     C11669   0.552   6.562   6.761 -0.0086 -0.1004  0.1082
  810MOL0     C11670   0.634   6.440   6.793  0.7992  0.2345 -0.3609
  810MOL0     C11671   0.597   6.697   6.759 -0.6012  0.1456 -0.3562
  810MOL0     C11672   0.727   6.741   6.814  0.6325 -0.1471 -0.5196
  810MOL0     O11673   0.792   6.825   6.739 -0.3065  0.5310 -0.4272
  810MOL0     C11674   0.908   6.881   6.793  0.0216  0.5563 -0.6569
  810MOL0     C11675   0.920   7.019   6.817 -0.3199  0.7210 -0.0414
  810MOL0     C11676   1.040   7.072   6.866  0.4428 -0.6988 -0.3654
  810MOL0     C11677   1.144   6.979   6.888  0.2599  0.0438 -0.0315
  810MOL0     O11678   1.261   7.033   6.930 -0.1154  0.0391 -0.3741
  810MOL0     C11679   1.351   7.083   6.833  0.0162  0.0383 -0.1909
  810MOL0     C11680   1.490   7.092   6.891 -0.9128 -0.6732 -0.1268
  810MOL0     C11681   1.602   7.144   6.801  0.7523 -0.8012 -0.7129
  810MOL0     C11682   1.634   7.064   6.680 -0.4526 -0.0275 -0.5137
  810MOL0     C11683   1.755   7.113   6.595 -0.0432  0.2365  0.7519
  810MOL0     C11684   1.890   7.113   6.676  0.5678 -0.1835 -0.1345
  810MOL0     C11685   2.006   7.134   6.567 -0.3346  0.7107  0.5836
  810MOL0     C11686   2.138   7.179   6.630 -1.1865  0.1924  0.0680
  810MOL0    Cl11687   2.222   7.048   6.717 -0.2065 -0.0259 -0.2622
  810MOL0     C11688   1.136   6.847   6.868  0.8501 -0.1203 -0.1373
  810MOL0     C11689   1.015   6.799   6.831 -1.0630 -0.4403  0.7023
  810MOL0     O11690   0.767   6.693   6.919  0.4357 -0.1935 -0.0263
  810MOL0     C11691   0.517   6.804   6.710  0.1479 -0.0924 -0.3984
  810MOL0     C11692   0.386   6.782   6.654  0.5810  0.2983 -0.5049
  810MOL0     N11693   0.464   6.816   6.078  0.1180 -0.1771 -0.0045
  810MOL0     N11694   0.569   6.901   6.086 -0.1296  0.4142  0.5838
  810MOL0     C11695   1.699   6.957   6.217 -0.7584  0.3175  0.6952
  810MOL0     C11696   1.820   6.955   6.143 -0.3885 -0.1565 -0.9731
  810MOL0     C11697   2.231   7.051   5.989  0.0087  0.1484 -0.8211
  810MOL0     C11698   2.218   7.077   5.843  1.2055 -0.1982  0.2739
  810MOL0     C11699   2.329   7.065   5.761 -0.4165  0.5638 -0.5015
  810MOL0     C11700   2.458   7.049   5.814  0.2415 -0.3074  0.2915
  810MOL0     O11701   2.572   7.028   5.745 -0.6992  0.7224  0.5797
  810MOL0     C11702   2.589   7.104   5.629 -0.4536 -0.2359  0.3523
  810MOL0     C11703   2.577   7.012   5.510 -0.1741 -0.4557 -0.8652
  810MOL0     C11704   2.580   7.093   5.375  0.8150 -0.1226  0.3479
  810MOL0     C11705   2.455   7.182   5.345  0.0194 -0.0770  0.4249
  810MOL0     C11706   2.331   7.094   5.349  0.0004  0.9398  0.2625
  810MOL0     C11707   2.232   7.020   5.338 -0.9017  0.2974  0.1932
  810MOL0     C11708   2.465   7.046   5.953  0.5142 -0.2201 -0.0954
  810MOL0     C11709   2.362   7.038   6.046  0.0223  0.7669 -0.3831
  810MOL0     C11710   2.396   7.023   6.198  0.4434 -0.1167 -0.1410
  810MOL0     H11711   1.852   7.267   6.050 -0.2873  1.6857  2.5188
  810MOL0     H11712   1.634   7.295   6.184 -1.1584  0.2506  0.7794
  810MOL0     H11713   1.418   7.255   6.240 -1.2627  3.7557  3.9705
  810MOL0     H11714   1.516   7.272   6.380 -1.2936 -0.9928  0.5498
  810MOL0     H11715   1.367   7.133   6.510  2.8390  0.8455  0.8210
  810MOL0     H11716   1.302   7.290   6.456  1.7313  0.2838  0.2480
  810MOL0     H11717   1.164   7.146   6.275  1.5662 -0.9854 -2.3943
  810MOL0     H11718   1.262   7.013   6.314 -0.8801 -0.7582  1.6787
  810MOL0     H11719   1.183   6.993   6.546  0.9441  0.2165 -0.2909
  810MOL0     H11720   1.082   7.131   6.539  0.4099 -0.8058  1.2742
  810MOL0     H11721   0.972   6.917   6.498  0.3018 -1.4456 -0.3062
  810MOL0     H11722   1.034   6.913   6.343  0.7968 -0.0339 -0.4581
  810MOL0     H11723   0.878   7.165   6.471  0.8830 -0.2008  1.2864
  810MOL0     H11724   0.926   7.141   6.298  0.2317  0.8644  2.1389
  810MOL0     H11725   0.685   7.080   6.360  0.0224  0.5220  0.3739
  810MOL0     H11726   0.755   6.937   6.441  0.9889  0.5765 -0.0612
  810MOL0     H11727   0.796   7.008   6.138  1.9713  2.3072  1.7544
  810MOL0     H11728   0.855   6.860   6.226 -0.0250 -0.0812 -1.9378
  810MOL0     H11729   0.648   6.701   6.328 -1.1311  2.2600  1.4023
  810MOL0     H11730   0.455   6.523   6.163 -1.6044 -2.1827  4.4207
  810MOL0     H11731   0.320   6.619   6.111 -0.4399  0.3646  1.0087
  810MOL0     H11732   0.285   6.486   6.329 -2.6681  1.3053  1.1526
  810MOL0     H11733   0.421   6.581   6.405 -1.0349  2.6582  0.8894
  810MOL0     H11734   0.293   6.792   6.362  2.6033 -1.2150 -3.2248
  810MOL0     H11735   0.163   6.708   6.288 -0.6448 -0.3508  1.0422
  810MOL0     H11736   0.143   6.791   6.535 -0.1287  0.3510 -1.9892
  810MOL0     H11737   0.063   6.648   6.488 -1.5383  0.1100  4.8537
  810MOL0     H11738   0.381   6.448   6.696 -0.3196  0.5261 -1.8757
  810MOL0     H11739   0.743   6.450   6.792  0.8756  0.4374  2.4411
  810MOL0     H11740   0.590   6.355   6.739  0.2620  0.6797 -0.6225
  810MOL0     H11741   0.618   6.414   6.898  0.9199  0.4426 -0.2907
  810MOL0     H11742   0.839   7.085   6.788 -1.3621 -0.2407  0.5976
  810MOL0     H11743   1.038   7.180   6.883 -3.9696 -0.3996 -1.7204
  810MOL0     H11744   1.351   7.018   6.745 -2.3984  0.2768 -0.4544
  810MOL0     H11745   1.326   7.183   6.795  0.8831  0.4616  0.3101
  810MOL0     H11746   1.482   7.152   6.981  0.5814  0.5999 -0.8073
  810MOL0     H11747   1.523   6.996   6.930  0.8659 -0.4397 -0.9510
  810MOL0     H11748   1.688   7.156   6.867  0.0423  4.4767 -0.3084
  810MOL0     H11749   1.567   7.246   6.782  0.1639 -0.5965  1.2505
  810MOL0     H11750   1.547   7.059   6.614 -0.9362 -0.6329  0.1596
  810MOL0     H11751   1.634   6.960   6.716 -2.6047  0.0522 -0.1521
  810MOL0     H11752   1.757   7.048   6.507 -1.4767  0.5282  0.4685
  810MOL0     H11753   1.743   7.217   6.561 -1.4487 -0.6592 -1.8127
  810MOL0     H11754   1.910   7.031   6.745  3.0375  0.2713 -0.2145
  810MOL0     H11755   1.880   7.197   6.745  0.3413 -1.7854  1.8740
  810MOL0     H11756   1.980   7.210   6.493  0.8729 -1.3041 -2.0893
  810MOL0     H11757   2.033   7.036   6.525 -1.6004 -0.0885  1.5659
  810MOL0     H11758   2.114   7.263   6.696  0.4873  0.7308  0.0299
  810MOL0     H11759   2.212   7.213   6.557 -2.2665  0.6868 -0.8386
  810MOL0     H11760   1.220   6.781   6.884 -0.2777 -2.0719 -1.6641
  810MOL0     H11761   1.021   6.694   6.802  1.3175  0.5023 -2.8647
  810MOL0     H11762   0.555   6.903   6.686 -0.5543  0.1634 -0.4825
  810MOL0     H11763   0.332   6.868   6.616 -0.9779  0.2441  1.4309
  810MOL0     H11764   1.661   6.871   6.271  0.9467 -0.9119  0.0406
  810MOL0     H11765   1.866   6.858   6.130  2.5240  0.1992  4.1626
  810MOL0     H11766   2.119   7.090   5.802  0.2115 -3.5605  1.2575
  810MOL0     H11767   2.316   7.053   5.654 -0.8276 -2.4536 -0.1992
  810MOL0     H11768   2.525   7.193   5.623  0.1952  0.1813 -0.7362
  810MOL0     H11769   2.694   7.138   5.630 -0.6371  0.3460  2.2145
  810MOL0     H11770   2.492   6.947   5.531 -0.2945 -0.1030 -0.2405
  810MOL0     H11771   2.671   6.957   5.506  0.1085  0.0515 -1.8859
  810MOL0     H11772   2.669   7.157   5.379 -0.4084  1.8251 -1.2030
  810MOL0     H11773   2.588   7.024   5.291 -1.6860  2.3030 -2.0997
  810MOL0     H11774   2.464   7.239   5.252 -0.9268 -0.4210  0.1077
  810MOL0     H11775   2.439   7.254   5.425  0.4429  1.9968 -1.2862
  810MOL0     H11776   2.157   6.945   5.353 -1.0980  0.9201  2.6355
  810MOL0     H11777   2.569   7.054   5.984  0.0082  0.5831  1.5234
  810MOL0     H11778   2.502   7.001   6.208  0.3273 -0.4036  0.4673
  810MOL0     H11779   2.360   7.111   6.253 -0.6791 -0.5225 -0.2056
  810MOL0     H11780   2.352   6.934   6.242  1.7798 -1.3695 -1.2411
  811MOL0     O11781   2.146   8.866   5.237 -0.4657  0.2009  0.1640
  811MOL0     C11782   2.183   8.902   5.131  0.7581 -0.4201 -0.0275
  811MOL0     O11783   2.304   8.957   5.107 -0.0680 -0.1949 -0.0220
  811MOL0     C11784   2.398   8.965   5.204 -0.3402  0.3148 -1.3911
  811MOL0     C11785   2.443   9.087   5.255  0.2287 -0.1637  0.0276
  811MOL0     C11786   2.516   9.098   5.371 -0.4236 -0.0374 -0.2060
  811MOL0     C11787   2.550   8.982   5.450  0.7884 -0.5731 -0.6372
  811MOL0     O11788   2.617   8.971   5.574  0.9996 -0.0888  0.0900
  811MOL0     C11789   2.584   9.079   5.663  0.6833 -0.0127 -0.1386
  811MOL0     C11790   2.694   9.192   5.663 -0.0111 -0.7362 -0.0942
  811MOL0     C11791   2.822   9.158   5.740  1.3272  0.3305 -0.0420
  811MOL0     C11792   2.907   9.035   5.691 -0.3954 -0.0943  0.4815
  811MOL0     C11793   3.053   9.034   5.740  0.6191  0.5580  0.4587
  811MOL0     C11794   3.107   8.892   5.752 -0.1182 -0.2072  0.4419
  811MOL0     C11795   3.111   8.815   5.615 -0.6525 -0.2119 -0.9242
  811MOL0     C11796   3.208   8.877   5.504 -0.3578 -0.6440 -0.6317
  811MOL0     N11797   3.240   8.764   5.415  0.1653  0.2180  0.5723
  811MOL0     C11798   3.169   8.733   5.300 -0.2007  0.2951  0.5337
  811MOL0     C11799   3.241   8.635   5.249 -0.6921  0.0931 -0.2967
  811MOL0     C11800   3.240   8.567   5.114  0.0261 -0.0332  0.9476
  811MOL0     C11801   3.186   8.660   5.001  0.2979  0.0676 -0.4501
  811MOL0     C11802   3.234   8.632   4.860 -0.0697 -0.1946  0.1875
  811MOL0     C11803   3.185   8.749   4.756 -0.9007 -0.4180  0.2586
  811MOL0     O11804   3.195   8.719   4.624 -0.0522  0.1612 -0.3149
  811MOL0     C11805   3.321   8.721   4.560  0.7335 -0.1668 -0.2945
  811MOL0     C11806   3.443   8.774   4.616  0.3086  0.6015  0.7081
  811MOL0     C11807   3.549   8.788   4.534  0.6809  0.2922 -0.4217
  811MOL0     C11808   3.679   8.849   4.595 -0.7504  0.5451  0.1648
  811MOL0     C11809   3.535   8.771   4.397 -1.0659 -0.4068  0.2910
  811MOL0     C11810   3.649   8.788   4.296 -0.7279 -0.9491 -0.1618
  811MOL0     O11811   3.628   8.828   4.161  0.1961  0.1442 -0.4616
  811MOL0     C11812   3.726   8.879   4.077 -0.5196  0.6228  0.4982
  811MOL0     C11813   3.853   8.918   4.121  0.5637  0.0011 -0.0174
  811MOL0     C11814   3.945   8.971   4.026  0.2907  1.0627 -0.6386
  811MOL0     C11815   3.923   8.966   3.888  0.1718 -0.3589 -0.6753
  811MOL0     O11816   4.030   8.999   3.815  0.2315  0.1610  0.4725
  811MOL0     C11817   4.020   9.014   3.674  0.0338 -0.6067  0.4465
  811MOL0     C11818   3.956   9.150   3.639  0.8681 -0.1056 -0.8832
  811MOL0     C11819   3.908   9.142   3.491 -0.2122 -0.2339 -0.0512
  811MOL0     C11820   4.023   9.189   3.402 -0.0010  0.5146 -0.0316
  811MOL0     C11821   3.991   9.181   3.249  0.3682  1.1774  0.5969
  811MOL0     C11822   3.967   9.032   3.199 -0.3520 -0.2795  0.0577
  811MOL0     C11823   3.899   9.029   3.056  0.2244  0.1732  0.3458
  811MOL0     C11824   3.872   8.893   3.001  0.0644 -0.3574 -0.3726
  811MOL0    Cl11825   3.748   8.817   3.105  0.1288 -0.2536 -0.0629
  811MOL0     C11826   3.803   8.923   3.839  0.5771  0.7125  0.1725
  811MOL0     C11827   3.705   8.883   3.934 -0.3389 -1.0414  0.3831
  811MOL0     O11828   3.750   8.738   4.348 -0.4943 -0.0890  0.0777
  811MOL0     C11829   3.415   8.726   4.346  0.4665  0.0948  0.1249
  811MOL0     C11830   3.316   8.679   4.426  0.0929 -0.4627 -0.0657
  811MOL0     N11831   3.352   8.608   5.329  0.8774  0.2255 -0.3595
  811MOL0     N11832   3.347   8.686   5.430  0.2023 -0.8089 -0.4127
  811MOL0     C11833   2.508   8.860   5.401  0.2068  0.2604 -0.1799
  811MOL0     C11834   2.440   8.854   5.281  0.5129  0.1834 -0.6196
  811MOL0     C11835   2.095   8.891   5.010  0.0427  0.3325  0.3391
  811MOL0     C11836   2.066   9.008   4.925  0.7876 -0.4695 -0.0001
  811MOL0     C11837   1.976   8.992   4.822 -0.1831 -0.2126 -0.2390
  811MOL0     C11838   1.921   8.870   4.793 -0.2364  0.7023 -0.0093
  811MOL0     O11839   1.847   8.861   4.679  0.1024  0.0934 -0.8093
  811MOL0     C11840   1.735   8.765   4.677 -0.7657 -0.2437  0.5634
  811MOL0     C11841   1.677   8.747   4.540 -0.1758  0.4063  0.1668
  811MOL0     C11842   1.560   8.652   4.540  0.3421 -0.3327  0.6636
  811MOL0     C11843   1.512   8.601   4.398 -0.4471 -0.4730 -0.3158
  811MOL0     C11844   1.604   8.500   4.348  0.0395  0.0600  0.5820
  811MOL0     C11845   1.685   8.424   4.304  0.2192 -0.2312  0.1648
  811MOL0     C11846   1.944   8.767   4.879 -0.4803 -0.2057 -0.5396
  811MOL0     C11847   2.034   8.767   4.980 -0.4349 -1.2791 -0.3479
  811MOL0     C11848   2.054   8.637   5.053  0.0585 -0.2187  0.5700
  811MOL0     H11849   2.396   9.169   5.203 -0.7155 -2.2200 -2.5436
  811MOL0     H11850   2.548   9.197   5.403 -1.1233  0.6002 -1.4125
  811MOL0     H11851   2.569   9.049   5.767 -0.2991  0.4868 -0.1322
  811MOL0     H11852   2.487   9.116   5.630  0.3640 -0.8974 -0.2350
  811MOL0     H11853   2.722   9.218   5.561  0.7373  1.9550  0.7080
  811MOL0     H11854   2.650   9.282   5.708 -2.2008 -2.0159  0.4848
  811MOL0     H11855   2.885   9.247   5.736 -1.7959  2.7229 -0.4790
  811MOL0     H11856   2.799   9.146   5.846 -1.5333  0.5256 -0.5669
  811MOL0     H11857   2.861   8.939   5.718 -1.3741  0.0559 -0.6029
  811MOL0     H11858   2.906   9.029   5.582 -0.7855  0.2945  0.4611
  811MOL0     H11859   3.069   9.086   5.835 -1.2890  1.0788  0.5409
  811MOL0     H11860   3.111   9.092   5.667 -0.6950  2.2683  0.6985
  811MOL0     H11861   3.207   8.899   5.794  0.3731  2.4228 -0.8966
  811MOL0     H11862   3.042   8.838   5.822  1.5172 -3.5235 -0.3845
  811MOL0     H11863   3.009   8.807   5.576 -0.8811  3.0351 -1.3294
  811MOL0     H11864   3.148   8.718   5.648  1.9125  1.0815  0.3017
  811MOL0     H11865   3.152   8.954   5.451  0.4823 -0.0030 -0.6175
  811MOL0     H11866   3.295   8.926   5.549 -1.5471  0.3815  0.6277
  811MOL0     H11867   3.085   8.774   5.244  0.1259 -0.3745 -0.4748
  811MOL0     H11868   3.170   8.483   5.124 -2.9551  2.4121  2.2840
  811MOL0     H11869   3.340   8.530   5.090  0.3283 -0.4962  2.7765
  811MOL0     H11870   3.078   8.642   4.993  0.2969 -0.1082 -0.0540
  811MOL0     H11871   3.196   8.765   5.030 -2.3027 -0.1348  1.6498
  811MOL0     H11872   3.342   8.620   4.852  0.5023  4.3998 -3.9893
  811MOL0     H11873   3.201   8.537   4.817  2.1283 -0.8924 -0.0869
  811MOL0     H11874   3.081   8.777   4.774  0.0754  2.2069  2.5388
  811MOL0     H11875   3.239   8.841   4.782  0.0055 -1.2054  1.2504
  811MOL0     H11876   3.442   8.819   4.714 -2.3351  1.8704  0.1830
  811MOL0     H11877   3.700   8.947   4.550 -0.3126 -0.6601 -2.4294
  811MOL0     H11878   3.765   8.783   4.584 -1.1229 -0.2101  1.6051
  811MOL0     H11879   3.667   8.845   4.704 -0.0916 -1.8982  0.1906
  811MOL0     H11880   3.873   8.897   4.226  1.5290  2.5790  0.3850
  811MOL0     H11881   4.036   9.013   4.069  0.5292 -1.5653  1.6626
  811MOL0     H11882   4.119   9.026   3.628 -0.0169  0.3463  0.5792
  811MOL0     H11883   3.972   8.928   3.626 -2.2660  0.2667  1.0850
  811MOL0     H11884   3.870   9.172   3.702  2.6142  1.8648  0.9571
  811MOL0     H11885   4.027   9.229   3.664  0.9753 -1.0125  1.9836
  811MOL0     H11886   3.834   9.222   3.482  2.9807  2.7556 -2.6201
  811MOL0     H11887   3.868   9.043   3.464 -2.3577  0.3889  0.5933
  811MOL0     H11888   4.114   9.136   3.433  0.3150  2.0502  1.7972
  811MOL0     H11889   4.045   9.292   3.429  0.7607  0.6831 -1.2025
  811MOL0     H11890   3.904   9.245   3.232 -0.6041 -0.6485 -2.1723
  811MOL0     H11891   4.071   9.221   3.187 -0.6712  0.7109 -1.1399
  811MOL0     H11892   3.910   8.975   3.273  0.6066 -0.8193  0.3940
  811MOL0     H11893   4.064   8.983   3.199  0.1830  0.7064  2.0593
  811MOL0     H11894   3.974   9.086   3.000  0.9926  0.8690  2.0029
  811MOL0     H11895   3.802   9.079   3.059  1.2307  2.2292  0.3764
  811MOL0     H11896   3.963   8.834   2.991  0.7798  0.8062 -0.9768
  811MOL0     H11897   3.828   8.906   2.902 -3.7282  2.1674  1.3645
  811MOL0     H11898   3.784   8.906   3.734  0.8775 -0.4849  0.3021
  811MOL0     H11899   3.613   8.837   3.899 -1.3252  0.0594  1.4361
  811MOL0     H11900   3.406   8.688   4.244  1.7241 -3.1031  1.0797
  811MOL0     H11901   3.227   8.631   4.387  0.6646  0.2236 -2.3884
  811MOL0     H11902   2.535   8.762   5.439  2.4235 -0.1867 -2.5827
  811MOL0     H11903   2.419   8.752   5.252 -2.8230  0.7664 -0.6006
  811MOL0     H11904   2.093   9.110   4.950  1.8373 -0.8635  0.5522
  811MOL0     H11905   1.936   9.084   4.780  0.1340 -1.1789 -2.9052
  811MOL0     H11906   1.773   8.670   4.715 -0.3581 -0.6148 -0.7412
  811MOL0     H11907   1.655   8.808   4.738 -0.2888  1.4069  0.1014
  811MOL0     H11908   1.753   8.707   4.472  0.2863  0.2748  0.7568
  811MOL0     H11909   1.647   8.843   4.497  2.2355 -0.0785 -3.0046
  811MOL0     H11910   1.574   8.565   4.606  2.2210 -1.8049 -1.4924
  811MOL0     H11911   1.476   8.704   4.585 -0.2411 -0.8666  0.2165
  811MOL0     H11912   1.508   8.681   4.324 -0.1945 -0.3934 -0.2445
  811MOL0     H11913   1.408   8.568   4.399 -1.6998  3.0452 -1.5385
  811MOL0     H11914   1.744   8.341   4.271 -1.2707  0.0560 -3.7526
  811MOL0     H11915   1.896   8.674   4.849 -0.7497  0.0462 -0.8913
  811MOL0     H11916   1.997   8.554   5.012 -2.7254  1.8544 -0.0938
  811MOL0     H11917   2.157   8.601   5.049 -1.1031 -4.0076  1.0011
  811MOL0     H11918   2.025   8.644   5.158  1.0498 -0.7920  0.8957
  812MOL0     O11919   0.012  10.888   9.742  0.2284 -0.3832 -0.2933
  812MOL0     C11920   0.002  10.775   9.789  0.1893 -0.0671  0.3756
  812MOL0     O11921   0.098  10.676   9.777  0.1712  0.4864 -0.1570
  812MOL0     C11922   0.224  10.712   9.733 -0.0258  0.4223 -0.3384
  812MOL0     C11923   0.328  10.693   9.821 -1.3754 -0.0934  0.2562
  812MOL0     C11924   0.458  10.721   9.776  0.7393 -0.8147 -0.3227
  812MOL0     C11925   0.485  10.773   9.648  0.6645  0.3401  0.4811
  812MOL0     O11926   0.619  10.784   9.614  0.5545  0.1068  0.0657
  812MOL0     C11927   0.640  10.894   9.520 -0.0723  0.4675  0.6461
  812MOL0     C11928   0.771  10.961   9.562  0.0152 -0.1203  0.4949
  812MOL0     C11929   0.888  10.877   9.597  0.8129 -0.8545 -0.0576
  812MOL0     C11930   1.009  10.925   9.527 -0.0691 -0.2993 -1.1264
  812MOL0     C11931   1.124  10.831   9.547  0.9793 -0.0001 -0.6805
  812MOL0     C11932   1.253  10.874   9.505  0.2186 -0.3903  0.8080
  812MOL0     C11933   1.356  10.763   9.497  0.0164  0.1422  1.0307
  812MOL0     C11934   1.379  10.706   9.354  0.1270 -0.0665 -0.5405
  812MOL0     N11935   1.418  10.803   9.256  0.4131  0.2149  0.5601
  812MOL0     C11936   1.544  10.865   9.248  0.1471 -0.1304 -0.3507
  812MOL0     C11937   1.525  10.980   9.176 -0.9547 -0.9193  0.5447
  812MOL0     C11938   1.616  11.090   9.153  0.1554 -0.6234 -0.2200
  812MOL0     C11939   1.772  11.065   9.154 -0.0919 -0.4586  0.2558
  812MOL0     C11940   1.849  11.199   9.147  0.1577  0.4422 -0.0255
  812MOL0     C11941   2.004  11.182   9.142  0.2865  0.2879  0.9130
  812MOL0     O11942   2.035  11.070   9.056 -0.7999 -0.4952  0.0279
  812MOL0     C11943   2.160  11.055   9.004 -0.0822 -0.3639 -0.1550
  812MOL0     C11944   2.174  10.964   8.905  0.6661 -0.6936 -0.1983
  812MOL0     C11945   2.291  10.935   8.836  1.4285 -0.0357  0.2603
  812MOL0     C11946   2.274  10.837   8.716  0.4089 -0.4960 -0.4410
  812MOL0     C11947   2.410  11.003   8.883  0.0509 -0.2132  0.4227
  812MOL0     C11948   2.544  10.976   8.811 -0.1565 -0.4185 -0.1819
  812MOL0     O11949   2.561  10.926   8.686  0.1269 -0.3011 -0.7390
  812MOL0     C11950   2.690  10.898   8.658  0.0451  0.7404  0.2137
  812MOL0     C11951   2.729  10.767   8.673 -0.0599 -0.5056  0.2795
  812MOL0     C11952   2.863  10.724   8.640 -0.0090  0.0875 -0.1134
  812MOL0     C11953   2.956  10.818   8.590 -0.0324  0.1239  0.2015
  812MOL0     O11954   3.083  10.777   8.557 -0.6061  0.4669  0.2320
  812MOL0     C11955   3.136  10.664   8.631  0.1952 -0.0850  0.4414
  812MOL0     C11956   3.289  10.631   8.604 -0.6180  0.7515  0.1633
  812MOL0     C11957   3.401  10.733   8.640 -0.3107 -0.1700  0.2918
  812MOL0     C11958   3.549  10.692   8.604  0.1089  0.5353 -0.0517
  812MOL0     C11959   3.644  10.805   8.633 -0.1422 -0.7941  0.1356
  812MOL0     C11960   3.624  10.941   8.561 -0.1012  0.7255 -0.0191
  812MOL0     C11961   3.710  11.048   8.616 -0.6792  0.4214 -0.8634
  812MOL0     C11962   3.788  11.121   8.502 -0.5826 -0.0899  0.3979
  812MOL0    Cl11963   3.681  11.211   8.397  0.5746  0.2660 -0.0475
  812MOL0     C11964   2.909  10.945   8.574 -0.2085 -0.4364  0.5698
  812MOL0     C11965   2.780  10.991   8.610  0.0764 -0.6766 -0.2862
  812MOL0     O11966   2.634  11.008   8.885 -0.9140  0.5729 -0.2311
  812MOL0     C11967   2.395  11.094   8.984 -0.2829  0.3179 -0.6471
  812MOL0     C11968   2.275  11.114   9.046 -0.4572  0.6475 -0.5875
  812MOL0     N11969   1.397  10.968   9.129 -0.5906  0.6015  0.8042
  812MOL0     N11970   1.335  10.860   9.170 -0.0933 -0.5033  0.5733
  812MOL0     C11971   0.375  10.787   9.558 -0.8378  0.1475 -0.2779
  812MOL0     C11972   0.245  10.759   9.603  0.5976  0.2266  0.0055
  812MOL0     C11973  -0.120  10.720   9.840 -0.2818  0.5414 -0.6092
  812MOL0     C11974  -0.146  10.584   9.813 -0.0706 -0.4461 -0.1870
  812MOL0     C11975  -0.264  10.530   9.855 -0.5848 -0.3884  0.7570
  812MOL0     C11976  -0.368  10.602   9.907 -0.1771 -0.3659  1.1346
  812MOL0     O11977  -0.489  10.559   9.953  0.5353 -0.2350 -0.1593
  812MOL0     C11978  -0.557  10.459   9.889 -0.4915 -0.1571  0.4778
  812MOL0     C11979  -0.647  10.512   9.782 -0.2353 -0.0749 -0.1215
  812MOL0     C11980  -0.784  10.555   9.835 -0.5626 -0.8349 -0.2321
  812MOL0     C11981  -0.777  10.662   9.940  0.2275 -1.3404  0.1529
  812MOL0     C11982  -0.911  10.714   9.974 -1.3878 -0.1410  0.5264
  812MOL0     C11983  -1.020  10.767   9.997 -0.3541  0.4378  0.2098
  812MOL0     C11984  -0.335  10.732   9.936 -0.2927 -0.1161 -0.1866
  812MOL0     C11985  -0.216  10.801   9.910  0.0295  0.5394  0.2385
  812MOL0     C11986  -0.202  10.952   9.938 -0.5730 -0.1051  0.1325
  812MOL0     H11987   0.310  10.654   9.921 -0.5679  0.3863  0.5975
  812MOL0     H11988   0.547  10.710   9.837  1.2530  1.6140 -0.5379
  812MOL0     H11989   0.569  10.976   9.529 -1.9825 -0.9224 -0.7823
  812MOL0     H11990   0.632  10.858   9.417  2.1993 -2.1629  1.2678
  812MOL0     H11991   0.796  11.036   9.487 -1.8574  0.5180  0.4604
  812MOL0     H11992   0.748  11.017   9.654  1.6554 -2.7187  2.6231
  812MOL0     H11993   0.899  10.889   9.706 -0.1897  1.5800 -0.1442
  812MOL0     H11994   0.874  10.772   9.571 -2.4699 -0.3166 -0.8933
  812MOL0     H11995   0.983  10.933   9.421 -1.9373  1.6224 -0.6028
  812MOL0     H11996   1.035  11.021   9.572  0.9907 -1.7689  1.6213
  812MOL0     H11997   1.100  10.737   9.497 -2.0864  1.2588 -1.8309
  812MOL0     H11998   1.129  10.821   9.656 -2.0014 -0.5501 -0.5140
  812MOL0     H11999   1.244  10.922   9.407 -1.3061 -1.8234  0.1955
  812MOL0     H12000   1.292  10.940   9.584  2.5797 -2.6857  1.7097
  812MOL0     H12001   1.321  10.684   9.564 -0.5751 -3.0039 -2.6625
  812MOL0     H12002   1.452  10.809   9.521 -0.0036  0.4901  0.4695
  812MOL0     H12003   1.444  10.618   9.357 -3.3302 -2.7960  0.1387
  812MOL0     H12004   1.284  10.662   9.326 -0.9187  0.1256  2.3653
  812MOL0     H12005   1.627  10.829   9.309  0.9767  0.1580 -1.2810
  812MOL0     H12006   1.596  11.174   9.221  1.0434 -1.4978  1.1583
  812MOL0     H12007   1.604  11.129   9.051  1.7564  1.0825  0.1762
  812MOL0     H12008   1.801  11.004   9.240  1.1459 -3.6820 -2.2423
  812MOL0     H12009   1.790  11.015   9.059 -0.6134 -0.3935  0.1170
  812MOL0     H12010   1.809  11.260   9.065  0.3447  2.8767  1.6008
  812MOL0     H12011   1.834  11.256   9.239  3.3764  2.2893 -0.4771
  812MOL0     H12012   2.045  11.273   9.097 -0.7737 -0.0084 -0.7405
  812MOL0     H12013   2.045  11.164   9.241 -0.4768 -2.9441  0.7758
  812MOL0     H12014   2.078  10.917   8.888 -0.8252  1.2077  2.3013
  812MOL0     H12015   2.169  10.809   8.701  0.9982 -2.2972 -1.4910
  812MOL0     H12016   2.326  10.744   8.743 -0.6237 -0.4769  1.8674
  812MOL0     H12017   2.315  10.869   8.620 -0.2184 -0.4480 -0.6946
  812MOL0     H12018   2.663  10.690   8.713  1.2646 -2.1702 -0.5696
  812MOL0     H12019   2.887  10.618   8.638 -1.7114 -0.3350 -3.0620
  812MOL0     H12020   3.122  10.693   8.735  3.5660  4.4239 -0.0645
  812MOL0     H12021   3.082  10.576   8.595 -0.2478 -0.1764  1.3173
  812MOL0     H12022   3.304  10.539   8.661 -1.9611  0.2580 -0.2517
  812MOL0     H12023   3.297  10.621   8.496 -1.7054 -0.2762  0.1619
  812MOL0     H12024   3.404  10.758   8.746  3.5814 -0.0383  0.3007
  812MOL0     H12025   3.385  10.824   8.581 -0.8409  0.2350  1.0414
  812MOL0     H12026   3.555  10.666   8.498 -2.1372  1.7466 -0.5390
  812MOL0     H12027   3.575  10.599   8.656 -1.7073  0.7270  1.2825
  812MOL0     H12028   3.643  10.820   8.741 -0.6874 -0.1235  0.0455
  812MOL0     H12029   3.746  10.769   8.614  0.8179  1.6059  0.3797
  812MOL0     H12030   3.519  10.966   8.576 -0.6622 -1.1990 -0.4459
  812MOL0     H12031   3.639  10.927   8.454  0.1253 -1.6725  0.2705
  812MOL0     H12032   3.781  11.002   8.685 -1.7216  0.8498  0.5500
  812MOL0     H12033   3.648  11.120   8.671 -0.3466  1.2318 -1.5111
  812MOL0     H12034   3.842  11.040   8.453 -0.3785 -0.7813  1.7082
  812MOL0     H12035   3.873  11.179   8.536  1.0140 -3.0555  1.8832
  812MOL0     H12036   2.976  11.015   8.526 -0.5322 -0.4327  0.1248
  812MOL0     H12037   2.749  11.095   8.614 -2.7892 -1.4949  1.3939
  812MOL0     H12038   2.489  11.128   9.027  0.8215 -2.0939 -1.0098
  812MOL0     H12039   2.270  11.164   9.143  0.7875 -2.5028  1.2573
  812MOL0     H12040   0.395  10.835   9.462  1.1626 -0.0163  0.0212
  812MOL0     H12041   0.170  10.790   9.530  1.5465  1.2939 -0.5444
  812MOL0     H12042  -0.081  10.515   9.761  0.2962 -0.3701  0.1710
  812MOL0     H12043  -0.290  10.427   9.835 -4.0824  0.7247 -1.3596
  812MOL0     H12044  -0.491  10.384   9.844  0.5339  0.9828  0.0169
  812MOL0     H12045  -0.614  10.410   9.968 -0.8240  2.1765  1.7919
  812MOL0     H12046  -0.661  10.441   9.699 -0.0912  0.3300 -0.4982
  812MOL0     H12047  -0.593  10.595   9.735  1.6972 -0.7117  0.8684
  812MOL0     H12048  -0.842  10.576   9.744  2.2017  0.8070 -1.7443
  812MOL0     H12049  -0.838  10.470   9.878 -2.4833  0.3659 -0.1523
  812MOL0     H12050  -0.734  10.747   9.886  0.3252 -1.0818  0.6416
  812MOL0     H12051  -0.728  10.646  10.036 -0.5579 -1.5104  0.5334
  812MOL0     H12052  -1.110  10.815  10.031 -1.0936  0.3171 -1.4681
  812MOL0     H12053  -0.413  10.782   9.993 -0.8602  0.1397 -1.1608
  812MOL0     H12054  -0.250  11.002   9.854  0.1864 -0.3178 -0.4427
  812MOL0     H12055  -0.260  10.991  10.022 -0.5584 -0.9297  0.5427
  812MOL0     H12056  -0.095  10.973   9.946 -0.5701  1.5959 -3.0814
  813MOL0     O12057   9.347  11.014   1.129 -0.2952 -0.3196  0.4294
  813MOL0     C12058   9.271  11.031   1.224 -0.5499 -0.0010 -0.5101
  813MOL0     O12059   9.284  11.141   1.313 -0.0952  0.6531 -0.1395
  813MOL0     C12060   9.396  11.214   1.308 -0.1103  0.1523 -0.3265
  813MOL0     C12061   9.389  11.351   1.305 -0.1976  0.7358 -0.5332
  813MOL0     C12062   9.503  11.429   1.318 -0.5268 -0.1564  0.1808
  813MOL0     C12063   9.630  11.364   1.326 -0.2562 -0.2831 -0.3181
  813MOL0     O12064   9.756  11.424   1.333  0.0250 -0.4099  0.3994
  813MOL0     C12065   9.751  11.560   1.345  0.3066 -0.0714  0.4941
  813MOL0     C12066   9.877  11.621   1.408  0.1109 -0.0353  0.1999
  813MOL0     C12067   9.912  11.563   1.542  0.2194 -0.0681 -0.0385
  813MOL0     C12068  10.067  11.598   1.566 -0.1642  0.5989  0.4778
  813MOL0     C12069  10.103  11.553   1.706 -0.3332  0.1768 -0.7817
  813MOL0     C12070  10.248  11.598   1.734 -0.3946 -0.2045  0.6633
  813MOL0     C12071  10.295  11.533   1.863  0.1857  0.3006 -0.0889
  813MOL0     C12072  10.439  11.555   1.878  0.4799  1.8071  0.1039
  813MOL0     N12073  10.471  11.693   1.911  0.7629 -0.1297  0.7676
  813MOL0     C12074  10.449  11.761   2.030  0.4268  0.1901 -0.2300
  813MOL0     C12075  10.523  11.871   2.016  0.2445 -0.3080 -0.7193
  813MOL0     C12076  10.536  12.004   2.100 -0.0295  0.3933 -0.2298
  813MOL0     C12077  10.660  12.001   2.190 -0.6602  0.1773 -0.2801
  813MOL0     C12078  10.630  11.940   2.328 -0.5449  0.0605 -0.0027
  813MOL0     C12079  10.737  11.938   2.446  0.0520 -0.0366  0.4511
  813MOL0     O12080  10.774  12.069   2.491  0.1243 -0.0460  0.1903
  813MOL0     C12081  10.910  12.098   2.489 -0.4892  0.1583 -1.0546
  813MOL0     C12082  11.001  12.035   2.569 -1.1122  0.5583 -0.2197
  813MOL0     C12083  11.139  12.070   2.567 -0.1459 -0.7695  0.0335
  813MOL0     C12084  11.229  11.990   2.648 -0.3970  0.9593  1.0570
  813MOL0     C12085  11.185  12.163   2.469  0.0803  0.3646 -0.3590
  813MOL0     C12086  11.328  12.205   2.450  0.0396 -0.3980  0.0688
  813MOL0     O12087  11.429  12.129   2.507 -0.3822  0.6403  0.1322
  813MOL0     C12088  11.545  12.196   2.534 -0.1221  0.3774 -0.4493
  813MOL0     C12089  11.663  12.152   2.473 -0.1576  0.1168 -0.2884
  813MOL0     C12090  11.787  12.208   2.508  0.4839  0.4928 -0.1450
  813MOL0     C12091  11.802  12.303   2.604  0.3798  0.6046  0.2999
  813MOL0     O12092  11.931  12.359   2.618  0.3466 -0.0881 -0.5755
  813MOL0     C12093  11.944  12.502   2.617  0.2121 -0.8350  0.9194
  813MOL0     C12094  11.956  12.560   2.755  0.1004 -0.6003 -0.4530
  813MOL0     C12095  12.086  12.535   2.828 -0.5618 -0.0838  0.7706
  813MOL0     C12096  12.081  12.407   2.920  0.1066 -0.0556  0.8373
  813MOL0     C12097  12.188  12.429   3.036  0.1804 -0.2180 -0.2203
  813MOL0     C12098  12.330  12.449   2.994 -0.2602  0.2098 -0.2032
  813MOL0     C12099  12.381  12.333   2.909 -1.1310  0.4105 -0.8832
  813MOL0     C12100  12.530  12.330   2.880  0.4132  0.9109 -0.1804
  813MOL0    Cl12101  12.564  12.456   2.760 -0.1903  0.4465  0.3419
  813MOL0     C12102  11.686  12.334   2.677 -0.1058 -0.6759 -0.4597
  813MOL0     C12103  11.561  12.284   2.639  0.1922  0.5380  0.9935
  813MOL0     O12104  11.349  12.318   2.403 -0.3070  0.0314 -0.1260
  813MOL0     C12105  11.090  12.219   2.381  0.6062  0.0364  0.1152
  813MOL0     C12106  10.955  12.189   2.400 -0.4880  0.2369  0.4796
  813MOL0     N12107  10.586  11.879   1.894  0.1093  0.8226  0.1855
  813MOL0     N12108  10.565  11.762   1.830  0.3898 -0.0307 -1.2014
  813MOL0     C12109   9.643  11.226   1.333 -0.2930  0.0267  0.5501
  813MOL0     C12110   9.523  11.152   1.325  0.2592 -0.1137  0.0435
  813MOL0     C12111   9.156  10.942   1.231 -0.9359  0.2895  0.2148
  813MOL0     C12112   9.036  10.995   1.284 -0.8185 -0.5950 -0.9665
  813MOL0     C12113   8.919  10.917   1.273  0.7787 -0.1508  0.5290
  813MOL0     C12114   8.912  10.794   1.218 -0.3954 -0.1409 -0.1210
  813MOL0     O12115   8.788  10.731   1.209  0.0801 -0.2193 -0.1357
  813MOL0     C12116   8.780  10.586   1.201  0.1531  0.0135 -1.0442
  813MOL0     C12117   8.645  10.519   1.248  0.5308 -0.6414  0.2925
  813MOL0     C12118   8.534  10.562   1.159 -0.1430  0.5016 -0.1370
  813MOL0     C12119   8.410  10.471   1.148  0.5576 -0.5231 -0.0619
  813MOL0     C12120   8.286  10.531   1.090  0.2253  0.1075 -0.0728
  813MOL0     C12121   8.191  10.577   1.033  0.1592  0.9058 -1.5011
  813MOL0     C12122   9.027  10.743   1.162  0.3351  0.0636 -0.3265
  813MOL0     C12123   9.151  10.815   1.168  0.1849  0.0616 -0.5481
  813MOL0     C12124   9.276  10.750   1.106  0.2326  0.6444  0.3228
  813MOL0     H12125   9.296  11.407   1.296  1.3571  3.3437 -1.8085
  813MOL0     H12126   9.484  11.535   1.301 -0.0032 -0.5347 -3.6745
  813MOL0     H12127   9.670  11.603   1.406  1.0748  0.9259  0.8500
  813MOL0     H12128   9.735  11.604   1.246  0.4962  1.5703  1.1557
  813MOL0     H12129   9.955  11.604   1.334  0.5436 -0.7650  0.8102
  813MOL0     H12130   9.868  11.730   1.418 -0.0341  0.2211 -2.3065
  813MOL0     H12131   9.846  11.606   1.618  0.2888 -0.1197  0.0525
  813MOL0     H12132   9.900  11.455   1.561  2.0021 -0.0327  1.7595
  813MOL0     H12133  10.117  11.545   1.484 -3.2620 -4.5805  1.5128
  813MOL0     H12134  10.088  11.704   1.544 -0.9444  0.3670 -1.5990
  813MOL0     H12135  10.100  11.444   1.717  0.6696  0.2214  0.1661
  813MOL0     H12136  10.036  11.597   1.781  0.4515 -1.4916  1.0070
  813MOL0     H12137  10.313  11.563   1.653 -0.9424 -0.6981  0.4338
  813MOL0     H12138  10.257  11.706   1.742 -0.4770  0.1249 -2.5447
  813MOL0     H12139  10.261  11.428   1.861 -2.2362  0.9272  2.0810
  813MOL0     H12140  10.242  11.565   1.953 -0.3812  0.3332 -0.4320
  813MOL0     H12141  10.462  11.491   1.964  0.0116 -0.8167 -1.6091
  813MOL0     H12142  10.495  11.523   1.790  0.7702  0.3682  0.7816
  813MOL0     H12143  10.388  11.740   2.118  1.9946 -0.8869  0.6533
  813MOL0     H12144  10.449  12.022   2.164  1.2545  0.4653  1.5662
  813MOL0     H12145  10.531  12.090   2.032  0.7276 -0.2026 -1.0589
  813MOL0     H12146  10.741  11.943   2.146 -0.7814 -1.8243  1.9007
  813MOL0     H12147  10.691  12.106   2.203 -6.0969  2.2094 -1.1181
  813MOL0     H12148  10.535  11.980   2.365  0.4427  0.6834  2.0099
  813MOL0     H12149  10.613  11.834   2.308 -1.2554  0.1429  0.1347
  813MOL0     H12150  10.693  11.879   2.528 -2.5083  0.8534 -0.1752
  813MOL0     H12151  10.824  11.891   2.400  1.8718  1.2976  2.3581
  813MOL0     H12152  10.972  11.957   2.638 -1.3819  1.6415  0.9213
  813MOL0     H12153  11.301  12.054   2.699 -2.0254  1.1041  3.2971
  813MOL0     H12154  11.277  11.918   2.580 -2.8681 -2.7095  2.8633
  813MOL0     H12155  11.175  11.938   2.728 -0.5692 -0.8350 -0.1687
  813MOL0     H12156  11.666  12.070   2.401 -1.1696  1.7018 -2.2229
  813MOL0     H12157  11.868  12.176   2.443  0.7607 -1.0761  0.9176
  813MOL0     H12158  12.032  12.534   2.561 -2.3694  1.9706 -1.9575
  813MOL0     H12159  11.858  12.547   2.566  0.2705  1.0230  2.3626
  813MOL0     H12160  11.950  12.668   2.734  1.4503 -0.2408  0.8541
  813MOL0     H12161  11.871  12.539   2.821  0.4579  2.8265  1.3277
  813MOL0     H12162  12.103  12.628   2.883 -1.0610  0.8388 -0.5830
  813MOL0     H12163  12.163  12.524   2.751 -1.0488  1.4796  0.0186
  813MOL0     H12164  12.108  12.320   2.859 -0.3896  0.5151 -0.2194
  813MOL0     H12165  11.980  12.393   2.958 -0.6591 -1.9645 -1.6013
  813MOL0     H12166  12.157  12.514   3.097  1.0821 -0.8952  1.2620
  813MOL0     H12167  12.201  12.343   3.103  2.5265  0.9069  0.9088
  813MOL0     H12168  12.382  12.459   3.089 -0.0804 -0.0630 -0.2696
  813MOL0     H12169  12.345  12.537   2.930 -0.0295  0.9812  0.8942
  813MOL0     H12170  12.335  12.332   2.810 -2.2124 -0.9311 -0.3952
  813MOL0     H12171  12.347  12.238   2.951  1.2569  0.2746  0.9526
  813MOL0     H12172  12.565  12.234   2.841 -1.5305 -0.5984  1.5680
  813MOL0     H12173  12.584  12.367   2.967  2.1084  0.3358 -0.9455
  813MOL0     H12174  11.690  12.409   2.756  1.0798 -0.6609 -0.5232
  813MOL0     H12175  11.472  12.316   2.693 -0.5427 -0.0299  0.1419
  813MOL0     H12176  11.119  12.297   2.311  0.2408  1.7466  1.7608
  813MOL0     H12177  10.881  12.233   2.334  0.1369 -2.5666 -2.3563
  813MOL0     H12178   9.736  11.174   1.354 -0.4841 -0.9560 -0.9000
  813MOL0     H12179   9.532  11.044   1.333 -2.2435 -0.4261 -0.3442
  813MOL0     H12180   9.034  11.095   1.325  1.0319 -0.9260  0.0679
  813MOL0     H12181   8.832  10.968   1.313 -0.6047 -1.0748 -1.2065
  813MOL0     H12182   8.802  10.575   1.094  2.0533 -0.8423 -0.6012
  813MOL0     H12183   8.864  10.537   1.251  0.0148 -0.4686 -1.2741
  813MOL0     H12184   8.615  10.552   1.348 -1.0572  1.7041 -0.8651
  813MOL0     H12185   8.653  10.410   1.243  0.7142 -0.7758  2.5187
  813MOL0     H12186   8.496  10.657   1.199 -1.6287  0.6428 -1.7674
  813MOL0     H12187   8.570  10.582   1.057 -1.0356 -1.0983 -0.8036
  813MOL0     H12188   8.378  10.445   1.249 -0.4779  2.3034  0.4335
  813MOL0     H12189   8.431  10.382   1.088  2.8684  1.4044 -2.3674
  813MOL0     H12190   8.117  10.605   0.960 -2.2193 -1.1103 -0.0095
  813MOL0     H12191   9.022  10.662   1.091  2.6388  0.7793 -1.3979
  813MOL0     H12192   9.365  10.757   1.169  0.9844  0.7012 -0.7297
  813MOL0     H12193   9.262  10.643   1.087 -2.1961  0.4884  2.4016
  813MOL0     H12194   9.288  10.810   1.015 -0.9431  2.2861  1.1863
  814MOL0     O12195   4.803   5.890   7.009 -0.5520  0.2939  0.1316
  814MOL0     C12196   4.866   5.848   6.912 -0.3759  0.4174 -0.0753
  814MOL0     O12197   4.817   5.786   6.806  0.2974 -0.0493  0.0660
  814MOL0     C12198   4.700   5.835   6.759 -0.5491 -0.1317 -0.6415
  814MOL0     C12199   4.693   5.888   6.637 -0.1562  0.0172  0.7141
  814MOL0     C12200   4.577   5.935   6.575 -0.7345 -0.4525  0.0152
  814MOL0     C12201   4.452   5.915   6.628 -0.6847 -0.6598  0.1221
  814MOL0     O12202   4.327   5.951   6.584 -1.4858 -0.4832 -0.4998
  814MOL0     C12203   4.332   6.039   6.474  0.3030  0.0561  0.4085
  814MOL0     C12204   4.236   6.147   6.500  0.1161 -0.3000 -0.1776
  814MOL0     C12205   4.086   6.104   6.487  0.1931 -0.1415  0.9116
  814MOL0     C12206   3.978   6.209   6.511  0.6946  0.4450  0.0446
  814MOL0     C12207   3.849   6.191   6.431  0.8768  0.8672 -0.7467
  814MOL0     C12208   3.738   6.288   6.472  0.2969 -0.2992  0.2530
  814MOL0     C12209   3.674   6.281   6.608 -0.7282  0.0640 -0.7914
  814MOL0     C12210   3.568   6.392   6.625  0.1953  0.0699 -0.0170
  814MOL0     N12211   3.510   6.397   6.760  0.4386 -0.3685 -0.7498
  814MOL0     C12212   3.371   6.414   6.777  0.1769 -0.2176  0.4899
  814MOL0     C12213   3.360   6.448   6.902  0.7218  0.2770  0.1232
  814MOL0     C12214   3.229   6.466   6.976  0.8296 -0.3326  0.7619
  814MOL0     C12215   3.148   6.338   6.994 -0.0468 -0.2638 -0.8627
  814MOL0     C12216   3.231   6.231   7.063  0.2106  0.0510 -0.3941
  814MOL0     C12217   3.151   6.096   7.064  0.4846 -0.1941 -0.4058
  814MOL0     O12218   3.213   5.983   7.119 -0.4019  0.3918 -0.6860
  814MOL0     C12219   3.347   5.963   7.115  0.2376  0.3940  0.4085
  814MOL0     C12220   3.424   5.997   6.999  0.0010 -0.0199  0.6174
  814MOL0     C12221   3.569   5.994   6.999  1.2000 -0.1701 -0.1038
  814MOL0     C12222   3.634   6.062   6.888 -0.0004 -0.9005  0.5191
  814MOL0     C12223   3.642   5.927   7.104 -0.3568  0.3608  0.7866
  814MOL0     C12224   3.788   5.900   7.112  0.4100 -0.4885 -0.2324
  814MOL0     O12225   3.840   5.850   7.226 -0.9597 -0.0806 -0.8901
  814MOL0     C12226   3.979   5.847   7.239 -0.1361  0.0359  0.3814
  814MOL0     C12227   4.061   5.925   7.325  0.2476 -0.0431  0.6183
  814MOL0     C12228   4.198   5.917   7.311 -0.5503  0.0591 -0.0913
  814MOL0     C12229   4.256   5.827   7.227 -0.6498  0.7260  0.7494
  814MOL0     O12230   4.389   5.819   7.192  0.2430  0.5131 -0.0467
  814MOL0     C12231   4.484   5.871   7.288 -0.3210  0.7108  0.0153
  814MOL0     C12232   4.525   6.012   7.274 -0.0855  0.5190  0.7679
  814MOL0     C12233   4.606   6.051   7.402 -0.0814  0.3872  0.3585
  814MOL0     C12234   4.691   6.181   7.390 -0.0645 -0.3070  0.5669
  814MOL0     C12235   4.731   6.225   7.527 -0.1204 -0.2798 -0.7636
  814MOL0     C12236   4.828   6.112   7.585 -0.6557  0.7197 -0.0648
  814MOL0     C12237   4.958   6.095   7.502 -0.7710  0.5924 -0.0969
  814MOL0     C12238   5.072   6.050   7.595  0.7205  0.0059  0.6325
  814MOL0    Cl12239   5.100   6.162   7.729  0.1955  0.0193  0.3964
  814MOL0     C12240   4.183   5.737   7.154  0.2796  0.8540  0.0762
  814MOL0     C12241   4.042   5.742   7.163 -0.0608  0.1124 -0.0033
  814MOL0     O12242   3.851   5.939   7.013 -0.3892  0.6137 -0.1806
  814MOL0     C12243   3.562   5.870   7.206 -0.1339 -0.3085 -0.3866
  814MOL0     C12244   3.421   5.893   7.211 -0.1447  0.9012  0.5843
  814MOL0     N12245   3.481   6.456   6.958 -0.5687  0.1255  0.3634
  814MOL0     N12246   3.567   6.433   6.873  0.1878  0.1853 -0.0310
  814MOL0     C12247   4.452   5.839   6.753 -0.8661 -0.4980  0.3111
  814MOL0     C12248   4.573   5.807   6.820 -0.8640  0.6054  0.9273
  814MOL0     C12249   5.016   5.837   6.933 -0.4420 -0.6883  0.0008
  814MOL0     C12250   5.091   5.818   6.815 -0.0691  0.1236 -0.2004
  814MOL0     C12251   5.227   5.830   6.821  0.2109 -0.3067  0.0484
  814MOL0     C12252   5.292   5.837   6.942  0.1363  0.7978 -0.2281
  814MOL0     O12253   5.430   5.813   6.947  0.1089 -0.8328  0.1559
  814MOL0     C12254   5.513   5.798   7.062 -0.3202 -0.0155  0.9905
  814MOL0     C12255   5.656   5.734   7.047  0.3338 -0.6652 -0.7158
  814MOL0     C12256   5.734   5.815   6.944 -0.2554  0.2071  0.1367
  814MOL0     C12257   5.753   5.754   6.804  0.3286  0.0279 -0.1098
  814MOL0     C12258   5.839   5.631   6.818 -0.5879  0.0593 -0.3843
  814MOL0     C12259   5.907   5.526   6.820  0.1700 -0.0175  0.0091
  814MOL0     C12260   5.225   5.855   7.068  0.1769 -0.2585 -0.6150
  814MOL0     C12261   5.084   5.867   7.063 -0.5532  0.0611 -0.9004
  814MOL0     C12262   5.010   5.890   7.190 -0.1673  0.1990 -0.9185
  814MOL0     H12263   4.794   5.916   6.607  0.6174 -1.1530  2.1305
  814MOL0     H12264   4.582   5.985   6.479  0.5590  0.2412  0.4073
  814MOL0     H12265   4.321   5.991   6.376 -0.8315  1.3430 -0.1291
  814MOL0     H12266   4.427   6.094   6.481  1.4969 -1.5537 -1.7528
  814MOL0     H12267   4.249   6.189   6.600 -0.8757  0.6568 -0.4326
  814MOL0     H12268   4.262   6.226   6.430 -0.1213  0.2275  0.3222
  814MOL0     H12269   4.064   6.076   6.384 -0.8131 -1.0055  1.3387
  814MOL0     H12270   4.061   6.011   6.539 -0.3733  0.1664  1.2098
  814MOL0     H12271   3.954   6.212   6.617  2.2911 -0.0101  0.4498
  814MOL0     H12272   4.006   6.309   6.480 -0.0154  0.8191  0.5809
  814MOL0     H12273   3.812   6.089   6.444 -0.1592  1.3502  0.3814
  814MOL0     H12274   3.867   6.194   6.323  1.4122  1.1810 -0.6531
  814MOL0     H12275   3.772   6.388   6.443 -0.1671 -0.8703 -2.5752
  814MOL0     H12276   3.664   6.270   6.393  1.7930  0.6853 -1.4347
  814MOL0     H12277   3.751   6.305   6.681 -1.2395  0.5639 -0.4083
  814MOL0     H12278   3.635   6.183   6.635  2.3690 -0.4202  2.6695
  814MOL0     H12279   3.608   6.487   6.588 -2.8765  2.4837  2.2836
  814MOL0     H12280   3.494   6.364   6.549 -1.2229  1.1537  0.9041
  814MOL0     H12281   3.283   6.400   6.715  0.9668  1.0191 -0.9554
  814MOL0     H12282   3.169   6.542   6.926  0.0248 -1.7464 -0.5171
  814MOL0     H12283   3.262   6.507   7.072  0.4518  1.5999  0.1123
  814MOL0     H12284   3.061   6.367   7.054  0.9841 -0.5684  0.8252
  814MOL0     H12285   3.120   6.308   6.892  1.6019  0.6848 -1.6328
  814MOL0     H12286   3.329   6.214   7.017 -0.3752 -1.8347 -1.0383
  814MOL0     H12287   3.235   6.273   7.164 -0.7997  2.4557 -1.2736
  814MOL0     H12288   3.053   6.109   7.110  0.4685 -1.6191  0.0056
  814MOL0     H12289   3.125   6.061   6.963 -0.5445 -2.6396  0.6180
  814MOL0     H12290   3.373   6.048   6.918 -1.2048 -0.1297  1.2810
  814MOL0     H12291   3.698   6.144   6.923 -0.3137 -0.2149 -0.4602
  814MOL0     H12292   3.563   6.118   6.826 -0.8764 -1.4569  1.0167
  814MOL0     H12293   3.700   5.997   6.828  2.4322  1.7563  0.0694
  814MOL0     H12294   4.016   5.987   7.402  3.2412 -1.8376  4.1223
  814MOL0     H12295   4.262   5.983   7.369  1.0448 -1.8866  0.5171
  814MOL0     H12296   4.444   5.847   7.387 -0.1912 -1.6602 -0.4504
  814MOL0     H12297   4.567   5.802   7.270 -0.4573  0.0062  1.8466
  814MOL0     H12298   4.592   6.019   7.188  0.4757 -1.9257  0.9551
  814MOL0     H12299   4.434   6.073   7.276 -0.9664 -0.7517  0.3859
  814MOL0     H12300   4.678   5.969   7.405 -3.4633 -3.0033 -1.5901
  814MOL0     H12301   4.541   6.050   7.490 -0.5106  0.4570  0.0437
  814MOL0     H12302   4.633   6.259   7.339 -1.6868 -1.3622  0.7324
  814MOL0     H12303   4.777   6.162   7.326  0.4015  1.4619  0.6050
  814MOL0     H12304   4.773   6.326   7.527 -1.9781  0.5257 -0.4144
  814MOL0     H12305   4.642   6.235   7.589  0.3641  0.7640 -0.2061
  814MOL0     H12306   4.771   6.018   7.590 -2.4387  1.8289  2.6058
  814MOL0     H12307   4.845   6.132   7.691  0.9032 -0.2450 -0.1063
  814MOL0     H12308   4.977   6.195   7.461 -1.9729  1.3244  1.0126
  814MOL0     H12309   4.943   6.016   7.428  1.5557  0.1770 -0.1777
  814MOL0     H12310   5.164   6.032   7.540 -0.1060 -0.3476 -0.6851
  814MOL0     H12311   5.043   5.950   7.628 -0.5315 -0.1601 -0.8463
  814MOL0     H12312   4.233   5.669   7.085 -0.5888 -0.9840  1.1767
  814MOL0     H12313   3.971   5.682   7.106 -0.6278  3.0088 -2.6246
  814MOL0     H12314   3.607   5.804   7.280 -2.4726  0.1756  1.6126
  814MOL0     H12315   3.360   5.846   7.288 -0.2413 -0.9909 -0.5982
  814MOL0     H12316   4.361   5.813   6.806 -0.0726 -0.6923  1.6216
  814MOL0     H12317   4.574   5.771   6.923 -0.2437 -2.0793  0.0627
  814MOL0     H12318   5.048   5.799   6.718  0.5520 -2.5025 -0.0412
  814MOL0     H12319   5.293   5.820   6.734  0.7749  1.5543  0.2322
  814MOL0     H12320   5.513   5.892   7.117 -0.6264 -0.0568  1.0629
  814MOL0     H12321   5.465   5.731   7.133 -0.4044 -1.7204 -0.5990
  814MOL0     H12322   5.642   5.632   7.010 -0.3499 -0.6184 -0.6022
  814MOL0     H12323   5.716   5.733   7.138  0.1049 -0.2382 -0.5517
  814MOL0     H12324   5.689   5.915   6.934  0.3243  0.6424  1.6141
  814MOL0     H12325   5.838   5.824   6.978  0.0321  0.6627 -0.8159
  814MOL0     H12326   5.802   5.823   6.735  2.8571 -0.2428  1.2813
  814MOL0     H12327   5.655   5.732   6.760  0.8208 -1.8790 -0.3642
  814MOL0     H12328   5.958   5.436   6.850 -0.6097  0.0291  1.6002
  814MOL0     H12329   5.283   5.859   7.159  0.7053  1.3706 -0.9814
  814MOL0     H12330   4.948   5.980   7.179  1.3414  1.2943 -0.7003
  814MOL0     H12331   4.944   5.809   7.222 -0.9857  0.9350 -0.6894
  814MOL0     H12332   5.081   5.902   7.273 -0.7487 -0.3973 -0.3265
  815MOL0     O12333   2.195   0.739   9.944  0.6793 -0.0619  1.1393
  815MOL0     C12334   2.168   0.760  10.060  0.7163 -0.4918 -0.1248
  815MOL0     O12335   2.253   0.731  10.161 -0.1702  0.4496  0.2928
  815MOL0     C12336   2.386   0.697  10.133  0.6394  0.3284 -0.3593
  815MOL0     C12337   2.477   0.794  10.106 -0.3176 -0.5217  0.3348
  815MOL0     C12338   2.612   0.759  10.086  0.3660  0.0225 -0.2848
  815MOL0     C12339   2.659   0.630  10.121  0.0633  0.1230  0.0699
  815MOL0     O12340   2.793   0.606  10.111 -0.3138  0.7602  0.8616
  815MOL0     C12341   2.845   0.490  10.185  0.4951  0.1199 -0.6077
  815MOL0     C12342   2.994   0.479  10.185 -0.1713  1.1118 -0.2866
  815MOL0     C12343   3.052   0.448  10.047  0.0249 -0.5940  0.7588
  815MOL0     C12344   3.207   0.431  10.046 -0.1309 -0.6057 -0.1034
  815MOL0     C12345   3.255   0.414   9.903 -1.1448  0.8043 -0.0746
  815MOL0     C12346   3.277   0.547   9.831  0.3352 -0.1657 -0.5914
  815MOL0     C12347   3.347   0.542   9.693 -0.1699  0.3619 -0.2090
  815MOL0     C12348   3.352   0.680   9.628  0.3273  0.2290  0.1995
  815MOL0     N12349   3.424   0.673   9.504  0.0972 -0.3106  0.8322
  815MOL0     C12350   3.367   0.666   9.378  0.2046  1.0073 -0.5802
  815MOL0     C12351   3.473   0.672   9.289  0.2945 -0.2470 -0.1486
  815MOL0     C12352   3.467   0.667   9.141  0.1584 -0.7869 -0.0355
  815MOL0     C12353   3.328   0.646   9.084 -0.2230 -0.0273  0.4466
  815MOL0     C12354   3.327   0.664   8.933  0.5727 -0.1289 -0.5321
  815MOL0     C12355   3.412   0.556   8.869 -0.3304 -0.0445 -0.7292
  815MOL0     O12356   3.546   0.607   8.866 -0.4845  0.1153 -0.0801
  815MOL0     C12357   3.647   0.514   8.856 -0.0432 -0.2403 -0.5330
  815MOL0     C12358   3.636   0.382   8.810 -0.0657  0.0396 -0.6066
  815MOL0     C12359   3.752   0.304   8.792 -0.5478 -0.1583 -0.1347
  815MOL0     C12360   3.713   0.161   8.752 -0.3967  0.1012 -0.1836
  815MOL0     C12361   3.879   0.353   8.840  0.7146  0.3477  0.0036
  815MOL0     C12362   4.005   0.271   8.849  0.3611  0.2500 -0.7624
  815MOL0     O12363   4.119   0.334   8.879  0.1254  0.0028  0.0476
  815MOL0     C12364   4.238   0.288   8.823  0.2104  0.3139  0.1804
  815MOL0     C12365   4.281   0.341   8.695  0.5116  0.5191 -0.3670
  815MOL0     C12366   4.397   0.281   8.643 -0.2399  0.1289  0.1753
  815MOL0     C12367   4.466   0.176   8.700 -0.4694  0.3896 -0.2402
  815MOL0     O12368   4.577   0.122   8.645 -0.2011 -0.4978  0.1145
  815MOL0     C12369   4.557   0.004   8.562  0.0409 -0.5500  0.3114
  815MOL0     C12370   4.684  -0.078   8.547 -0.5482  0.4527  0.1682
  815MOL0     C12371   4.794   0.002   8.477  0.6134  0.1103 -0.2189
  815MOL0     C12372   4.925  -0.072   8.474 -0.2484  0.1978 -0.4799
  815MOL0     C12373   4.923  -0.199   8.398 -0.2559  0.2536 -0.7070
  815MOL0     C12374   5.060  -0.228   8.344 -0.3901  0.4586  0.0356
  815MOL0     C12375   5.060  -0.355   8.258 -0.1548 -0.1044 -0.5352
  815MOL0     C12376   5.191  -0.436   8.279  0.2839  0.2559 -0.3969
  815MOL0    Cl12377   5.199  -0.520   8.443  0.3820 -0.1633  0.0424
  815MOL0     C12378   4.432   0.133   8.826 -0.3877  0.2565  0.1712
  815MOL0     C12379   4.315   0.188   8.882 -0.6820 -0.0458 -0.3447
  815MOL0     O12380   3.996   0.150   8.848  0.0905 -0.7095  0.4213
  815MOL0     C12381   3.891   0.490   8.866 -0.4640 -0.8113 -1.1495
  815MOL0     C12382   3.775   0.574   8.870 -0.1179 -0.3959 -0.5651
  815MOL0     N12383   3.588   0.660   9.363  0.0762 -0.2143 -0.2637
  815MOL0     N12384   3.559   0.664   9.496  0.5723 -0.0339 -0.2933
  815MOL0     C12385   2.565   0.533  10.161  0.3748 -0.4144 -1.0955
  815MOL0     C12386   2.432   0.568  10.165 -0.5411 -0.0764  1.1188
  815MOL0     C12387   2.051   0.837  10.087 -0.7091 -0.3430 -0.5026
  815MOL0     C12388   1.924   0.799  10.032  0.2853 -0.2366  0.2437
  815MOL0     C12389   1.812   0.874  10.054  0.1588 -0.1328 -0.1112
  815MOL0     C12390   1.812   0.979  10.147  0.0017 -0.3508 -0.4642
  815MOL0     O12391   1.699   1.052  10.164 -0.2943  0.0387 -0.2139
  815MOL0     C12392   1.664   1.074  10.304  0.1307  0.6888 -0.7354
  815MOL0     C12393   1.509   1.089  10.289 -0.6764 -1.0340 -0.7403
  815MOL0     C12394   1.458   1.117  10.439  0.2051  0.4288  0.5634
  815MOL0     C12395   1.307   1.141  10.455 -0.0186  1.0079 -0.1777
  815MOL0     C12396   1.210   1.042  10.407  0.0402 -0.3979 -0.2415
  815MOL0     C12397   1.128   0.965  10.365 -0.4344 -0.3083  0.5656
  815MOL0     C12398   1.927   1.011  10.220 -0.0042  0.4924 -0.5563
  815MOL0     C12399   2.049   0.945  10.188  0.4874 -0.3911 -0.3104
  815MOL0     C12400   2.169   1.008  10.238 -0.3002 -0.1398  0.5687
  815MOL0     H12401   2.437   0.894  10.097  0.4270 -0.3436 -1.5657
  815MOL0     H12402   2.682   0.834  10.052 -0.1136  0.5687 -0.0857
  815MOL0     H12403   2.808   0.394  10.148  2.3167 -1.6849  1.8831
  815MOL0     H12404   2.819   0.505  10.291 -0.2613 -1.5343 -0.5313
  815MOL0     H12405   3.042   0.569  10.226  1.3295 -0.1520  0.8706
  815MOL0     H12406   3.017   0.392  10.247  1.2908  0.2935 -1.8836
  815MOL0     H12407   3.012   0.350  10.020 -2.4984  0.2664  1.1367
  815MOL0     H12408   3.019   0.523   9.975 -0.3226  0.7001  2.2162
  815MOL0     H12409   3.265   0.511  10.091  1.4926 -2.4160  1.1573
  815MOL0     H12410   3.232   0.339  10.099 -0.4491 -1.1934 -0.9497
  815MOL0     H12411   3.203   0.343   9.838 -0.1134 -1.7009  1.6782
  815MOL0     H12412   3.350   0.367   9.929 -1.0250  1.0288 -0.1010
  815MOL0     H12413   3.178   0.591   9.819 -0.2882 -1.7124 -1.2774
  815MOL0     H12414   3.335   0.600   9.907 -2.0870  1.6402  0.1321
  815MOL0     H12415   3.293   0.481   9.620  0.2249  2.8320 -2.7327
  815MOL0     H12416   3.451   0.510   9.704  0.3039  2.1398  0.8165
  815MOL0     H12417   3.256   0.725   9.602  0.3100 -0.7312 -1.4847
  815MOL0     H12418   3.409   0.744   9.697 -1.0767  0.8015  0.8767
  815MOL0     H12419   3.261   0.672   9.354  0.2557 -0.3512 -1.2195
  815MOL0     H12420   3.530   0.582   9.116 -0.6633 -0.9678 -1.6124
  815MOL0     H12421   3.523   0.752   9.099 -1.6774  0.4873 -0.0484
  815MOL0     H12422   3.282   0.550   9.108  0.2586 -0.0817  1.1757
  815MOL0     H12423   3.254   0.714   9.127 -2.7136 -1.8833 -0.6279
  815MOL0     H12424   3.228   0.627   8.903  1.0524 -0.3881 -1.8977
  815MOL0     H12425   3.349   0.768   8.906 -2.5768  1.5057  2.3914
  815MOL0     H12426   3.406   0.464   8.928  2.3320 -0.2382 -0.6087
  815MOL0     H12427   3.376   0.537   8.768 -1.6575  1.0440 -0.4981
  815MOL0     H12428   3.535   0.356   8.779 -0.1179  0.0200 -0.4222
  815MOL0     H12429   3.701   0.106   8.846 -3.0257 -2.8751 -2.0596
  815MOL0     H12430   3.789   0.115   8.689  1.0949  1.0139  0.8700
  815MOL0     H12431   3.617   0.158   8.699  0.7239 -1.0358 -2.2388
  815MOL0     H12432   4.222   0.413   8.639 -2.1877 -0.9694  0.3613
  815MOL0     H12433   4.437   0.322   8.551  3.7519 -1.9576  0.7855
  815MOL0     H12434   4.475  -0.055   8.606 -1.2930  1.0530  0.0611
  815MOL0     H12435   4.523   0.041   8.465  1.7618  0.8087  0.1891
  815MOL0     H12436   4.722  -0.106   8.647  1.1262 -1.3176 -0.8806
  815MOL0     H12437   4.665  -0.172   8.494 -0.3147 -0.3477  1.4317
  815MOL0     H12438   4.813   0.097   8.528 -0.6798  1.1880 -1.6372
  815MOL0     H12439   4.763   0.022   8.374 -1.1173  0.0850  0.2583
  815MOL0     H12440   4.963  -0.095   8.574 -0.9167  0.5952 -0.1292
  815MOL0     H12441   4.996  -0.001   8.431 -0.7508  0.9899 -0.0220
  815MOL0     H12442   4.900  -0.281   8.467 -1.5619  1.7059  0.6408
  815MOL0     H12443   4.850  -0.201   8.317 -0.4624  0.0410 -0.5158
  815MOL0     H12444   5.138  -0.231   8.421  0.0192 -2.2131 -0.3593
  815MOL0     H12445   5.093  -0.146   8.280 -0.1157  2.0112  2.0859
  815MOL0     H12446   5.051  -0.320   8.155  3.3535  0.5456 -0.7369
  815MOL0     H12447   4.966  -0.408   8.279  0.3603 -1.1958 -0.8714
  815MOL0     H12448   5.279  -0.372   8.261  1.9017 -1.7405  0.0460
  815MOL0     H12449   5.197  -0.508   8.197  1.4148 -0.6357  0.4334
  815MOL0     H12450   4.485   0.049   8.869 -0.1101  0.4363  0.1836
  815MOL0     H12451   4.287   0.156   8.982 -0.1704  0.4805 -0.0219
  815MOL0     H12452   3.981   0.543   8.896 -1.1082  0.2467 -1.0186
  815MOL0     H12453   3.782   0.681   8.889  0.2299 -0.6226  0.6605
  815MOL0     H12454   2.592   0.434  10.196  2.5948  1.0997  1.9857
  815MOL0     H12455   2.362   0.492  10.199 -0.2936 -0.7748  0.1198
  815MOL0     H12456   1.905   0.719   9.961  0.6411  0.3515 -0.5352
  815MOL0     H12457   1.724   0.855   9.994  0.1836  1.3210 -0.6565
  815MOL0     H12458   1.693   0.996  10.376 -2.5234 -2.3469 -2.6471
  815MOL0     H12459   1.710   1.168  10.334 -2.8363  2.5625 -1.6992
  815MOL0     H12460   1.470   0.994  10.252 -1.0201 -1.4958  0.7729
  815MOL0     H12461   1.482   1.168  10.218 -0.6991 -0.4569 -0.0972
  815MOL0     H12462   1.478   1.032  10.506  0.1787 -1.1687 -1.3614
  815MOL0     H12463   1.504   1.207  10.481  0.4316  0.7170 -0.2755
  815MOL0     H12464   1.287   1.238  10.409 -1.1479  0.6093 -0.5406
  815MOL0     H12465   1.285   1.148  10.562  2.1757  2.2805  0.2723
  815MOL0     H12466   1.054   0.904  10.318 -0.7019  0.4507 -0.0294
  815MOL0     H12467   1.918   1.097  10.286 -0.6374  0.0499 -0.0585
  815MOL0     H12468   2.211   0.947  10.319 -0.7118  1.5882  2.1398
  815MOL0     H12469   2.238   1.016  10.153 -2.3659  0.1944 -1.1601
  815MOL0     H12470   2.154   1.111  10.270  2.0229  0.1951  0.7943
  816MOL0     O12471   7.446  11.034   3.003  1.0775  0.1289 -0.3171
  816MOL0     C12472   7.457  10.979   2.900  0.1417  0.7376  0.3600
  816MOL0     O12473   7.553  10.892   2.871  0.0723 -0.3109 -0.3911
  816MOL0     C12474   7.630  10.834   2.971 -0.0410 -0.4586  0.1655
  816MOL0     C12475   7.627  10.850   3.116 -0.5189  0.2373 -0.0274
  816MOL0     C12476   7.712  10.770   3.194 -0.2988  0.0421  0.3147
  816MOL0     C12477   7.800  10.681   3.127  0.2459  0.3419 -0.0042
  816MOL0     O12478   7.871  10.605   3.219  0.1613 -0.0695  0.0641
  816MOL0     C12479   7.964  10.507   3.166  0.8528  0.0797  0.6020
  816MOL0     C12480   8.030  10.429   3.286 -0.5939  0.0758  0.2744
  816MOL0     C12481   8.184  10.441   3.295 -0.2049 -0.2358 -0.2752
  816MOL0     C12482   8.224  10.583   3.342  0.1410 -0.6198  0.5409
  816MOL0     C12483   8.370  10.606   3.341 -0.1006 -0.3426 -0.6351
  816MOL0     C12484   8.450  10.537   3.453  0.2177 -0.2672 -0.7018
  816MOL0     C12485   8.597  10.541   3.425  1.1205 -0.6068 -0.1534
  816MOL0     C12486   8.671  10.501   3.556  0.2489 -0.5755 -0.2365
  816MOL0     N12487   8.815  10.520   3.533  0.4500 -0.6239  0.4400
  816MOL0     C12488   8.881  10.626   3.478 -0.1031  0.0153  0.0644
  816MOL0     C12489   9.012  10.597   3.483 -0.1837  0.4923 -0.0589
  816MOL0     C12490   9.129  10.684   3.446  0.2001  0.1654  0.1065
  816MOL0     C12491   9.268  10.628   3.489 -0.5712 -0.0306 -0.5812
  816MOL0     C12492   9.380  10.702   3.421  0.3187 -0.2785  0.0965
  816MOL0     C12493   9.515  10.623   3.419  0.7010  0.5260  0.7295
  816MOL0     O12494   9.550  10.611   3.563 -0.6922  0.0388 -0.1341
  816MOL0     C12495   9.673  10.547   3.584  0.0227  0.3479  0.0586
  816MOL0     C12496   9.748  10.486   3.484 -0.6954 -0.3050 -0.3371
  816MOL0     C12497   9.875  10.437   3.511 -0.5148  0.1279  0.1977
  816MOL0     C12498   9.941  10.364   3.391  0.2793  0.4279  0.4609
  816MOL0     C12499   9.930  10.443   3.637 -1.1652  0.3449 -0.7216
  816MOL0     C12500  10.063  10.394   3.667  0.4590 -0.4233  0.1145
  816MOL0     O12501  10.096  10.380   3.802  0.1666 -0.9748  0.3494
  816MOL0     C12502  10.197  10.295   3.835 -0.1595  0.4748  0.2219
  816MOL0     C12503  10.208  10.172   3.766  0.5004 -0.2034 -1.0648
  816MOL0     C12504  10.302  10.076   3.801  0.3479 -0.2412  0.4971
  816MOL0     C12505  10.381  10.097   3.913  0.1971  1.2752 -0.0760
  816MOL0     O12506  10.446   9.983   3.957  0.7075  0.6346 -0.5462
  816MOL0     C12507  10.571  10.011   4.021  0.7200  0.4261 -0.1852
  816MOL0     C12508  10.645   9.877   4.004  0.0743  0.1865 -0.1472
  816MOL0     C12509  10.579   9.756   4.076  0.0024 -0.2412 -0.9761
  816MOL0     C12510  10.675   9.645   4.080 -0.5027 -0.0729  0.1386
  816MOL0     C12511  10.615   9.513   4.103 -0.0454  0.3074  0.4509
  816MOL0     C12512  10.721   9.402   4.084 -0.2632  0.3334  0.2119
  816MOL0     C12513  10.811   9.384   4.200  0.8446  0.7951 -0.4272
  816MOL0     C12514  10.928   9.280   4.184  0.4844  0.4531  0.1592
  816MOL0    Cl12515  11.022   9.256   4.331 -0.5003 -1.0216 -0.0970
  816MOL0     C12516  10.372  10.222   3.988 -0.3834  0.4075 -0.0016
  816MOL0     C12517  10.270  10.313   3.953  0.1389 -0.2061  0.4159
  816MOL0     O12518  10.145  10.379   3.574 -0.5263  0.0334 -0.6675
  816MOL0     C12519   9.856  10.496   3.740  0.3265 -0.1416 -0.1574
  816MOL0     C12520   9.726  10.545   3.717  0.1524 -0.3481  0.3196
  816MOL0     N12521   9.023  10.470   3.546 -0.5434  0.1184 -0.9533
  816MOL0     N12522   8.905  10.428   3.577 -0.3471 -0.8705 -0.1002
  816MOL0     C12523   7.808  10.682   2.993 -0.4710 -0.7910  1.4751
  816MOL0     C12524   7.728  10.760   2.911 -0.5079  0.2266 -1.0879
  816MOL0     C12525   7.364  11.015   2.783 -0.4460  0.1514  0.5918
  816MOL0     C12526   7.303  11.138   2.784 -0.1751  1.4332 -0.9716
  816MOL0     C12527   7.214  11.176   2.681  0.3895  0.0320 -0.3191
  816MOL0     C12528   7.180  11.095   2.577  0.6257 -0.5654 -0.1680
  816MOL0     O12529   7.088  11.149   2.494  0.3354  0.0711 -0.4412
  816MOL0     C12530   7.071  11.086   2.365 -0.5677 -0.2447  0.7523
  816MOL0     C12531   6.983  11.153   2.262 -0.4011  0.8589 -0.5787
  816MOL0     C12532   7.016  11.106   2.120  0.6558 -0.3725  0.1465
  816MOL0     C12533   6.965  10.961   2.092  0.0467 -0.3079 -0.0179
  816MOL0     C12534   6.817  10.954   2.105 -0.6891 -0.6141 -0.0792
  816MOL0     C12535   6.696  10.950   2.102  0.3772 -0.3687 -0.0213
  816MOL0     C12536   7.247  10.976   2.568 -1.0900  0.4689 -0.6577
  816MOL0     C12537   7.330  10.931   2.673  0.5438 -0.1860  0.0734
  816MOL0     C12538   7.377  10.794   2.652 -0.5796 -0.1071 -0.5590
  816MOL0     H12539   7.545  10.903   3.163  1.2345  2.8166  0.3370
  816MOL0     H12540   7.705  10.766   3.302 -4.7081  1.6900  0.2920
  816MOL0     H12541   8.035  10.549   3.095  1.6323 -0.9252  0.7530
  816MOL0     H12542   7.904  10.430   3.117  0.6666  0.5828  0.0361
  816MOL0     H12543   7.990  10.474   3.377  0.7036  1.6295  0.1223
  816MOL0     H12544   8.008  10.324   3.262 -0.1482  0.1078 -0.2975
  816MOL0     H12545   8.219  10.373   3.374 -0.6624  1.3877  1.3834
  816MOL0     H12546   8.229  10.403   3.203 -0.0755 -1.2934  0.2130
  816MOL0     H12547   8.165  10.645   3.274 -2.1755 -1.2447  1.8865
  816MOL0     H12548   8.188  10.595   3.444  1.1105 -1.5481  1.0019
  816MOL0     H12549   8.379  10.713   3.362  0.7112 -0.7014  0.9736
  816MOL0     H12550   8.406  10.580   3.241 -0.8017  0.9179 -1.2458
  816MOL0     H12551   8.422  10.594   3.542 -2.2222  1.5666 -2.4792
  816MOL0     H12552   8.422  10.432   3.463  0.0499 -0.3591 -1.9906
  816MOL0     H12553   8.639  10.633   3.382  1.9894 -1.3409 -0.9439
  816MOL0     H12554   8.604  10.466   3.346 -1.5489 -2.8802  1.5906
  816MOL0     H12555   8.639  10.574   3.630  1.6955  1.7509 -1.7526
  816MOL0     H12556   8.647  10.404   3.602 -0.0464  0.5283  2.0540
  816MOL0     H12557   8.840  10.720   3.441  1.3342 -0.3591 -2.8035
  816MOL0     H12558   9.121  10.782   3.492 -0.8911 -0.3567  1.0727
  816MOL0     H12559   9.125  10.691   3.337  2.6892 -0.6262 -0.1013
  816MOL0     H12560   9.284  10.626   3.598  0.5274  0.4004 -0.7251
  816MOL0     H12561   9.270  10.522   3.460 -0.0380 -0.1621 -0.0910
  816MOL0     H12562   9.352  10.735   3.320  1.4551 -1.1246 -0.5196
  816MOL0     H12563   9.401  10.790   3.482  0.9133  0.1131 -0.6517
  816MOL0     H12564   9.497  10.530   3.364  2.3302  0.4521  0.2719
  816MOL0     H12565   9.602  10.665   3.369  1.3246 -2.4645 -0.9681
  816MOL0     H12566   9.707  10.467   3.385  0.1910  0.7577 -0.9312
  816MOL0     H12567   9.978  10.268   3.431 -1.5997  0.7451  3.2891
  816MOL0     H12568  10.028  10.416   3.352 -1.3194  1.5623 -1.8115
  816MOL0     H12569   9.872  10.351   3.307 -0.4311 -0.2898  1.1296
  816MOL0     H12570  10.136  10.147   3.689 -0.0221  1.2559 -1.0758
  816MOL0     H12571  10.302   9.985   3.740  1.8102 -0.0085  0.1065
  816MOL0     H12572  10.616  10.105   3.985 -1.0489  1.4734  0.2357
  816MOL0     H12573  10.558  10.015   4.129 -1.3798  0.9800 -0.4216
  816MOL0     H12574  10.673   9.846   3.904  0.0345 -0.8723  0.1549
  816MOL0     H12575  10.740   9.886   4.058 -0.5752  3.5619  0.7314
  816MOL0     H12576  10.501   9.719   4.009  0.8467 -0.6141 -1.7882
  816MOL0     H12577  10.539   9.792   4.171  2.0155 -3.2613  1.1950
  816MOL0     H12578  10.760   9.672   4.144  1.2937 -0.5628 -1.9344
  816MOL0     H12579  10.705   9.633   3.976 -0.0669  1.0314  0.1171
  816MOL0     H12580  10.557   9.499   4.195 -0.1334  2.4937  0.7692
  816MOL0     H12581  10.555   9.499   4.012  2.5074  1.2338 -1.5022
  816MOL0     H12582  10.783   9.420   3.996 -0.7677 -0.3726 -0.3011
  816MOL0     H12583  10.666   9.308   4.075 -0.6372  0.6189 -0.6191
  816MOL0     H12584  10.747   9.345   4.280  1.6013 -2.5523 -1.2975
  816MOL0     H12585  10.848   9.485   4.220 -1.6875  1.7151  0.0364
  816MOL0     H12586  10.998   9.319   4.109 -2.0809 -1.4398 -3.5286
  816MOL0     H12587  10.882   9.184   4.159  0.3359 -0.0686  2.3022
  816MOL0     H12588  10.431  10.238   4.077  0.3502  1.3757 -0.6393
  816MOL0     H12589  10.251  10.410   3.999  0.3670  0.7423 -1.3783
  816MOL0     H12590   9.891  10.494   3.842 -0.0576  2.0421  0.0635
  816MOL0     H12591   9.668  10.597   3.792 -0.9446 -2.3600  0.9322
  816MOL0     H12592   7.883  10.622   2.943  1.7841  2.4983  0.5581
  816MOL0     H12593   7.749  10.755   2.804  0.8746 -0.8908 -0.8017
  816MOL0     H12594   7.323  11.213   2.861  1.2782  0.2582 -0.1582
  816MOL0     H12595   7.176  11.276   2.701 -2.5708 -1.0407 -0.0070
  816MOL0     H12596   7.166  11.080   2.313 -2.6142 -2.1624 -3.2231
  816MOL0     H12597   7.042  10.980   2.373 -1.0883 -0.4924 -2.8955
  816MOL0     H12598   7.003  11.261   2.269  0.6712  0.6780 -0.6788
  816MOL0     H12599   6.879  11.139   2.291 -0.1071 -1.6651 -0.5165
  816MOL0     H12600   6.953  11.170   2.057 -1.5042 -0.6887  1.8571
  816MOL0     H12601   7.120  11.109   2.087  0.1772 -0.7421 -1.5225
  816MOL0     H12602   7.011  10.890   2.161  1.4103 -0.3786 -0.9675
  816MOL0     H12603   6.997  10.939   1.989  2.9143  3.1868 -0.0581
  816MOL0     H12604   6.590  10.939   2.096  0.5438 -1.4219 -1.8421
  816MOL0     H12605   7.230  10.908   2.485 -1.8303  0.2844 -0.3622
  816MOL0     H12606   7.378  10.756   2.755 -0.4272 -0.8439 -0.8257
  816MOL0     H12607   7.316  10.731   2.587  0.4208 -3.3578  1.3893
  816MOL0     H12608   7.481  10.794   2.619 -0.6216  0.2225 -0.6940
  817MOL0     O12609   8.225   0.140  11.292  0.1738  0.1264 -0.6626
  817MOL0     C12610   8.197   0.066  11.390 -0.1130  0.4266  0.7256
  817MOL0     O12611   8.281   0.042  11.495  0.9692 -0.2254 -0.1386
  817MOL0     C12612   8.409   0.089  11.490  0.0553  0.4950 -0.6150
  817MOL0     C12613   8.451   0.221  11.522  1.1095  0.3485  0.6446
  817MOL0     C12614   8.588   0.250  11.523  0.9100 -0.5603 -0.3685
  817MOL0     C12615   8.678   0.166  11.459  0.6886 -0.1682 -0.2150
  817MOL0     O12616   8.812   0.195  11.429  0.0450 -0.2591 -0.3898
  817MOL0     C12617   8.883   0.282  11.526  0.3214 -0.6906 -0.3727
  817MOL0     C12618   9.027   0.268  11.501 -0.3576 -0.2196 -0.3000
  817MOL0     C12619   9.108   0.362  11.585 -0.1052 -0.5729 -0.2918
  817MOL0     C12620   9.086   0.345  11.737 -0.8104 -0.0617 -0.2844
  817MOL0     C12621   9.181   0.428  11.818  0.0324  0.8708  0.8117
  817MOL0     C12622   9.151   0.398  11.966  0.7420 -0.4151 -0.3410
  817MOL0     C12623   9.216   0.491  12.072 -0.3886 -0.1269 -0.1859
  817MOL0     C12624   9.172   0.637  12.049  0.1181  0.1270  0.4167
  817MOL0     N12625   9.204   0.731  12.160 -0.3830  0.4666 -0.5461
  817MOL0     C12626   9.321   0.720  12.233 -0.2826  0.4763 -0.0530
  817MOL0     C12627   9.283   0.750  12.358 -0.4689  0.2255 -0.2607
  817MOL0     C12628   9.365   0.743  12.478  0.5656  0.0634  0.7731
  817MOL0     C12629   9.469   0.639  12.484  0.4043  0.0660  0.0153
  817MOL0     C12630   9.524   0.628  12.632  0.1315  0.2077 -0.4805
  817MOL0     C12631   9.653   0.549  12.650 -0.5884  0.6918 -0.0960
  817MOL0     O12632   9.759   0.628  12.611 -0.2895 -0.2221 -0.0157
  817MOL0     C12633   9.882   0.563  12.605 -0.1018 -0.1096  1.5927
  817MOL0     C12634   9.906   0.453  12.522 -0.1455  0.4865  0.3320
  817MOL0     C12635  10.036   0.390  12.536  0.5285 -0.4101 -0.6618
  817MOL0     C12636  10.068   0.271  12.451 -0.5691 -0.0152  0.2367
  817MOL0     C12637  10.138   0.439  12.632 -0.5999 -0.1905 -0.2244
  817MOL0     C12638  10.260   0.371  12.676  1.4233  0.2855 -0.1970
  817MOL0     O12639  10.353   0.430  12.750 -0.1207 -0.4495  0.6116
  817MOL0     C12640  10.478   0.377  12.759  0.3537  0.4905  0.7618
  817MOL0     C12641  10.538   0.282  12.676  0.1944  0.1930 -0.3593
  817MOL0     C12642  10.655   0.218  12.714  0.0224  1.0517 -0.2846
  817MOL0     C12643  10.729   0.258  12.827 -0.2449 -0.0065  0.6973
  817MOL0     O12644  10.863   0.220  12.860  0.0259  0.0043 -0.7069
  817MOL0     C12645  10.933   0.122  12.781 -0.3160  0.0827  0.5403
  817MOL0     C12646  11.064   0.073  12.852 -0.3596 -0.5575 -1.0665
  817MOL0     C12647  11.110  -0.046  12.770  0.6345 -0.1378  0.7828
  817MOL0     C12648  11.260  -0.084  12.795  0.0295 -0.0125 -0.2423
  817MOL0     C12649  11.300  -0.087  12.942  0.1817  0.1082  0.2667
  817MOL0     C12650  11.439  -0.130  12.963 -0.5526 -0.0827 -0.6794
  817MOL0     C12651  11.540  -0.006  12.974  0.0174  1.5625 -0.7061
  817MOL0     C12652  11.677  -0.057  13.026 -0.1445 -1.5878  0.9512
  817MOL0    Cl12653  11.763  -0.167  12.911 -0.1879  0.3610 -0.2431
  817MOL0     C12654  10.667   0.360  12.898 -0.0116 -0.4136  0.9766
  817MOL0     C12655  10.550   0.420  12.866  0.4263  0.0754  0.5009
  817MOL0     O12656  10.255   0.250  12.654  0.1171  0.0925 -0.1721
  817MOL0     C12657  10.104   0.557  12.698  0.1436 -1.0699  0.1758
  817MOL0     C12658   9.977   0.607  12.691  0.2970 -0.1304 -0.1411
  817MOL0     N12659   9.149   0.779  12.368  0.1260 -0.4300  0.4732
  817MOL0     N12660   9.099   0.761  12.250 -0.1467 -0.6699  0.2463
  817MOL0     C12661   8.640   0.037  11.424  0.6935  0.0322 -0.7167
  817MOL0     C12662   8.504  -0.002  11.443 -0.6259 -0.8245  0.7339
  817MOL0     C12663   8.072  -0.011  11.387 -0.2059 -1.1537  0.5471
  817MOL0     C12664   8.083  -0.141  11.434 -0.1168  0.5931 -1.5489
  817MOL0     C12665   7.971  -0.228  11.425  0.5897 -0.3435  0.3594
  817MOL0     C12666   7.844  -0.185  11.379  0.0716 -0.1151  0.6596
  817MOL0     O12667   7.735  -0.266  11.372  0.5330  0.1744 -0.7337
  817MOL0     C12668   7.740  -0.403  11.424 -0.0220 -0.0545  0.2499
  817MOL0     C12669   7.612  -0.471  11.429  0.2315  0.9812 -0.8714
  817MOL0     C12670   7.527  -0.475  11.303  1.4006 -0.0596  0.1899
  817MOL0     C12671   7.385  -0.543  11.319 -0.4529 -0.4144 -0.1875
  817MOL0     C12672   7.283  -0.452  11.379 -0.4174 -0.6611  0.6448
  817MOL0     C12673   7.197  -0.373  11.412 -0.8450  0.0130 -1.3817
  817MOL0     C12674   7.842  -0.052  11.333 -0.2252  0.4758  0.6414
  817MOL0     C12675   7.946   0.040  11.344 -0.3168  0.1362  0.0801
  817MOL0     C12676   7.914   0.184  11.315 -0.1842 -0.3605 -0.8706
  817MOL0     H12677   8.382   0.297  11.558  2.9892  2.8712 -0.7485
  817MOL0     H12678   8.631   0.346  11.552 -0.2846 -0.6213  1.8037
  817MOL0     H12679   8.859   0.241  11.624  0.1374 -1.0585 -0.5697
  817MOL0     H12680   8.865   0.390  11.513  1.4495 -0.4896 -0.3830
  817MOL0     H12681   9.063   0.168  11.528  0.6513  0.2990  0.3435
  817MOL0     H12682   9.052   0.271  11.394  0.2404 -1.8000 -0.2363
  817MOL0     H12683   9.215   0.357  11.564 -0.6755 -1.0018 -3.7494
  817MOL0     H12684   9.084   0.466  11.559 -1.5810 -1.1913 -1.6106
  817MOL0     H12685   8.983   0.368  11.765 -0.9764 -0.9608 -0.1426
  817MOL0     H12686   9.089   0.239  11.763  0.2126 -0.3553 -1.4913
  817MOL0     H12687   9.160   0.529  11.781 -0.9638  0.8211  1.2059
  817MOL0     H12688   9.281   0.388  11.798 -1.5815 -1.7584 -2.9549
  817MOL0     H12689   9.043   0.390  11.985  1.0302 -1.6229  0.9060
  817MOL0     H12690   9.203   0.307  11.997  1.9854  0.2126 -0.5198
  817MOL0     H12691   9.324   0.472  12.064 -0.8022 -4.0082  1.0646
  817MOL0     H12692   9.186   0.459  12.172  0.2600 -0.7965 -0.1917
  817MOL0     H12693   9.221   0.674  11.958 -1.1397  2.5631  0.6628
  817MOL0     H12694   9.066   0.641  12.025  0.3442 -2.4995 -1.4350
  817MOL0     H12695   9.419   0.680  12.208 -0.6917 -0.9356  0.5031
  817MOL0     H12696   9.290   0.717  12.553  0.0082 -4.3411 -1.0308
  817MOL0     H12697   9.418   0.837  12.500  2.7045  0.0351 -3.2771
  817MOL0     H12698   9.428   0.542  12.454  0.7799  0.2527 -1.1626
  817MOL0     H12699   9.552   0.680  12.426 -0.1011  1.2311  0.0917
  817MOL0     H12700   9.540   0.728  12.674  1.9752 -0.3378  0.2129
  817MOL0     H12701   9.447   0.584  12.695 -0.0911  2.5748  1.0194
  817MOL0     H12702   9.656   0.543  12.759 -1.7404 -0.5589 -0.1061
  817MOL0     H12703   9.661   0.448  12.611  2.5569 -0.1346  2.2921
  817MOL0     H12704   9.825   0.412  12.464  1.6475 -0.8743 -1.3432
  817MOL0     H12705  10.010   0.277  12.358 -0.5527 -0.4542  0.1938
  817MOL0     H12706  10.037   0.182  12.507 -1.1209 -0.6008 -0.9499
  817MOL0     H12707  10.171   0.265  12.414 -1.0987 -3.1892 -1.0736
  817MOL0     H12708  10.478   0.246  12.593 -2.0385  2.9658 -0.0865
  817MOL0     H12709  10.691   0.127  12.666 -0.6298 -1.1483  3.1012
  817MOL0     H12710  10.865   0.037  12.770 -0.9570  0.8210 -1.6883
  817MOL0     H12711  10.956   0.155  12.679 -1.4965  1.4465  0.6903
  817MOL0     H12712  11.136   0.155  12.839 -0.6451 -0.2292 -0.5762
  817MOL0     H12713  11.048   0.051  12.958  0.1967 -0.5208 -0.9673
  817MOL0     H12714  11.101  -0.036  12.661  1.2197  0.0433  0.7463
  817MOL0     H12715  11.048  -0.131  12.799 -0.8270  0.9678  0.9800
  817MOL0     H12716  11.325  -0.007  12.752  1.3737  0.2224  2.0206
  817MOL0     H12717  11.282  -0.181  12.749 -1.8705  0.2742 -1.8832
  817MOL0     H12718  11.284   0.006  12.998 -0.0587 -0.2700  0.8408
  817MOL0     H12719  11.236  -0.156  12.999 -1.7486  1.8589  0.3559
  817MOL0     H12720  11.472  -0.189  12.877  1.1828  2.3531 -1.7931
  817MOL0     H12721  11.444  -0.197  13.050 -0.2846 -0.0639 -0.6790
  817MOL0     H12722  11.508   0.079  13.035  1.6729  1.7135 -0.0042
  817MOL0     H12723  11.542   0.027  12.869  2.8574  1.7021 -0.6732
  817MOL0     H12724  11.662  -0.110  13.121  0.1774 -0.8460  1.4260
  817MOL0     H12725  11.733   0.036  13.039 -1.7011 -0.0207 -2.4396
  817MOL0     H12726  10.719   0.400  12.985  0.4928  2.0022 -0.3383
  817MOL0     H12727  10.513   0.505  12.922 -0.2482  1.0121 -1.2659
  817MOL0     H12728  10.165   0.602  12.775 -1.1612  0.4341  0.3772
  817MOL0     H12729   9.960   0.693  12.756 -1.8864  0.0717 -0.8850
  817MOL0     H12730   8.716  -0.023  11.376  1.4802  0.8681 -0.5399
  817MOL0     H12731   8.471  -0.099  11.407  0.0911 -1.1291  0.9010
  817MOL0     H12732   8.167  -0.183  11.489 -0.6032  0.2582 -1.0471
  817MOL0     H12733   7.985  -0.318  11.482  1.2868  0.2687  1.1756
  817MOL0     H12734   7.800  -0.462  11.355  0.7972 -0.2050  1.0804
  817MOL0     H12735   7.798  -0.406  11.516  0.3327  2.2797  0.1605
  817MOL0     H12736   7.547  -0.440  11.511 -1.5602 -2.7897 -0.6320
  817MOL0     H12737   7.635  -0.576  11.451 -1.5619  0.3323 -1.9189
  817MOL0     H12738   7.506  -0.370  11.279 -1.2602  0.5119  4.0570
  817MOL0     H12739   7.584  -0.526  11.225  2.3946  0.0893  0.8078
  817MOL0     H12740   7.376  -0.642  11.366  0.2351 -0.9836 -1.1995
  817MOL0     H12741   7.360  -0.557  11.213  0.0171  1.2274 -0.5385
  817MOL0     H12742   7.121  -0.304  11.445 -2.8308 -2.4101 -0.5742
  817MOL0     H12743   7.746  -0.021  11.293 -0.2934  2.5807  2.2145
  817MOL0     H12744   7.999   0.253  11.318  0.8520 -1.6309 -0.0103
  817MOL0     H12745   7.881   0.182  11.210  1.3816  0.0708 -1.3907
  817MOL0     H12746   7.827   0.217  11.372  0.6186 -0.2393  0.3146
  818MOL0     O12747   3.893   4.914   8.897  0.4514 -0.3528  0.0538
  818MOL0     C12748   3.777   4.880   8.931 -0.7092 -0.2140 -0.0191
  818MOL0     O12749   3.741   4.786   9.032 -0.8982 -0.7202  0.3955
  818MOL0     C12750   3.858   4.727   9.091  0.1322  0.0572  0.1218
  818MOL0     C12751   3.928   4.627   9.024 -0.9689 -0.4547 -0.3567
  818MOL0     C12752   4.026   4.557   9.092  0.2931 -0.6195 -0.3142
  818MOL0     C12753   4.048   4.578   9.232 -0.5696  0.0493 -0.8294
  818MOL0     O12754   4.145   4.505   9.291 -0.8074 -0.2485  0.2051
  818MOL0     C12755   4.187   4.539   9.428  0.9705 -0.3191  0.6928
  818MOL0     C12756   4.301   4.440   9.463 -0.1568 -0.2092 -0.3694
  818MOL0     C12757   4.362   4.467   9.602  0.2055  0.2074 -0.0489
  818MOL0     C12758   4.508   4.418   9.607  0.2388  0.0666 -0.2170
  818MOL0     C12759   4.576   4.412   9.753  0.1212 -0.7334  0.3558
  818MOL0     C12760   4.729   4.414   9.746 -0.0341  0.0160  0.4749
  818MOL0     C12761   4.794   4.362   9.878  0.2892  0.0084  0.1602
  818MOL0     C12762   4.823   4.213   9.880 -0.1031  0.3485 -0.7627
  818MOL0     N12763   4.920   4.163   9.981  0.8068  0.3898  0.1666
  818MOL0     C12764   5.049   4.148   9.951  0.5729  0.3669  0.0128
  818MOL0     C12765   5.100   4.074  10.047 -0.1324  0.4022  0.0961
  818MOL0     C12766   5.248   4.038  10.062 -0.2297  0.6540 -0.4684
  818MOL0     C12767   5.327   4.136  10.155 -0.4325  0.0167  0.0383
  818MOL0     C12768   5.467   4.098  10.165 -0.3816 -0.3658  0.4656
  818MOL0     C12769   5.512   3.979  10.242  0.2951 -0.4764  0.0497
  818MOL0     O12770   5.651   3.961  10.226 -0.0621  0.1905  0.5081
  818MOL0     C12771   5.721   3.881  10.312  0.2590  0.3964  0.7005
  818MOL0     C12772   5.855   3.863  10.275 -0.1580 -0.3533 -0.5414
  818MOL0     C12773   5.946   3.792  10.353 -0.8717  0.5479  0.4789
  818MOL0     C12774   6.089   3.792  10.287  0.2945 -0.2386  0.7153
  818MOL0     C12775   5.903   3.715  10.473  0.5032 -0.9419  0.6967
  818MOL0     C12776   5.988   3.624  10.545 -0.0022 -0.0343 -0.4085
  818MOL0     O12777   6.120   3.607  10.507 -0.1926 -0.4210 -0.2273
  818MOL0     C12778   6.197   3.497  10.545  0.6966  0.0361  0.3168
  818MOL0     C12779   6.333   3.506  10.575  0.1513  0.0401 -0.9355
  818MOL0     C12780   6.410   3.386  10.594  0.8063 -0.1800  0.0651
  818MOL0     C12781   6.351   3.257  10.599 -0.5186 -0.3372 -0.1227
  818MOL0     O12782   6.429   3.146  10.610  0.8174 -0.4385 -0.5291
  818MOL0     C12783   6.430   3.061  10.492  0.5636 -0.0892 -0.5633
  818MOL0     C12784   6.344   2.934  10.512 -0.4436 -0.0235  0.8118
  818MOL0     C12785   6.352   2.845  10.385  0.0614  0.6777  0.3339
  818MOL0     C12786   6.239   2.877  10.283 -0.1634 -0.2186  0.8580
  818MOL0     C12787   6.265   2.803  10.151 -1.1443  0.6993  1.2561
  818MOL0     C12788   6.145   2.796  10.061 -0.5422 -0.1632  0.4479
  818MOL0     C12789   6.175   2.742   9.914  0.0554  0.4929  0.8591
  818MOL0     C12790   6.046   2.706   9.845  0.3270 -0.3577  0.2752
  818MOL0    Cl12791   5.983   2.551   9.891  0.1443 -0.1423  0.0283
  818MOL0     C12792   6.207   3.252  10.572  0.3783  0.1649  0.0614
  818MOL0     C12793   6.141   3.365  10.541  0.3498 -0.4703 -0.2314
  818MOL0     O12794   5.935   3.558  10.637  0.2123 -0.2149 -0.2946
  818MOL0     C12795   5.757   3.732  10.499 -0.6479 -0.5590 -0.2435
  818MOL0     C12796   5.669   3.810  10.428 -0.3606 -0.2728 -0.0206
  818MOL0     N12797   4.995   4.032  10.132 -0.5131  0.2220 -0.3805
  818MOL0     N12798   4.885   4.081  10.087 -0.1732  0.7322  0.0773
  818MOL0     C12799   3.971   4.680   9.301 -0.7423 -0.8543  0.2512
  818MOL0     C12800   3.872   4.750   9.229 -0.6234  0.4209  0.3952
  818MOL0     C12801   3.658   4.933   8.854  0.1217 -1.0623 -0.1029
  818MOL0     C12802   3.536   4.866   8.867  0.0603 -0.2605  0.3142
  818MOL0     C12803   3.426   4.896   8.791  0.2964 -0.6033  0.1231
  818MOL0     C12804   3.429   4.996   8.694 -0.0737 -0.0657 -0.4024
  818MOL0     O12805   3.318   5.040   8.626  0.1573  0.0265  0.3469
  818MOL0     C12806   3.234   5.126   8.707 -0.1179  0.3206 -0.4843
  818MOL0     C12807   3.119   5.193   8.629 -1.2551  0.2559  0.1950
  818MOL0     C12808   3.181   5.301   8.535 -0.0400 -0.5682  0.3799
  818MOL0     C12809   3.061   5.385   8.470  0.2292  0.1311  0.2668
  818MOL0     C12810   3.096   5.516   8.406  1.1134  0.3492 -0.2024
  818MOL0     C12811   3.122   5.628   8.382  1.0113 -0.6509 -0.8763
  818MOL0     C12812   3.544   5.068   8.684  0.4275 -0.5984  0.1874
  818MOL0     C12813   3.650   5.046   8.770  0.0191  0.5511  0.2814
  818MOL0     C12814   3.765   5.152   8.778 -0.5784 -1.0068  0.4248
  818MOL0     H12815   3.906   4.612   8.919 -0.6339  0.5603 -0.5887
  818MOL0     H12816   4.100   4.486   9.055  1.0724 -1.4020  2.5398
  818MOL0     H12817   4.100   4.536   9.495 -0.0108  1.5264 -0.4211
  818MOL0     H12818   4.225   4.641   9.442  0.9202 -0.2363  0.2266
  818MOL0     H12819   4.258   4.340   9.451 -2.2627  0.9223 -4.2134
  818MOL0     H12820   4.383   4.462   9.394  0.6909  1.2525  1.0386
  818MOL0     H12821   4.360   4.575   9.618 -2.1560  0.5924 -2.2210
  818MOL0     H12822   4.300   4.414   9.675  3.6953 -1.1318  2.2514
  818MOL0     H12823   4.529   4.321   9.561  2.6467  0.7113 -0.6012
  818MOL0     H12824   4.557   4.495   9.546  1.3037 -1.8865 -1.9444
  818MOL0     H12825   4.543   4.319   9.801  0.2344 -0.1188  1.6541
  818MOL0     H12826   4.548   4.494   9.819 -1.0772 -0.4126 -0.5238
  818MOL0     H12827   4.770   4.360   9.660  1.2354 -0.1229  1.1369
  818MOL0     H12828   4.757   4.519   9.735 -3.1831  0.7702 -1.5433
  818MOL0     H12829   4.721   4.376   9.958 -0.2654 -2.1710  0.1076
  818MOL0     H12830   4.890   4.410   9.897  1.2692 -0.0347 -3.7695
  818MOL0     H12831   4.729   4.157   9.891  0.5242 -0.7448 -0.7424
  818MOL0     H12832   4.853   4.185   9.779  0.4763  0.1026 -0.5273
  818MOL0     H12833   5.102   4.190   9.867  5.8800  0.0552  2.7294
  818MOL0     H12834   5.302   4.040   9.967  0.4671 -3.2047 -0.3201
  818MOL0     H12835   5.260   3.934  10.095 -1.1802  0.2441 -1.3574
  818MOL0     H12836   5.327   4.237  10.112  0.6644 -0.2148 -0.5240
  818MOL0     H12837   5.288   4.137  10.258  0.4198 -1.1459  0.3917
  818MOL0     H12838   5.499   4.081  10.061 -2.3404 -2.2437  0.1118
  818MOL0     H12839   5.521   4.187  10.200 -2.2292 -0.0410  2.7157
  818MOL0     H12840   5.512   4.011  10.347 -0.5122  0.7954 -0.3111
  818MOL0     H12841   5.449   3.891  10.227 -0.8843  0.3993 -0.2931
  818MOL0     H12842   5.883   3.919  10.186  0.6806  0.8763  0.4441
  818MOL0     H12843   6.094   3.839  10.189  0.4012  1.3021  1.4185
  818MOL0     H12844   6.120   3.688  10.278  1.7793  0.1075  1.5159
  818MOL0     H12845   6.165   3.839  10.351 -0.6512  2.0645  0.2548
  818MOL0     H12846   6.365   3.609  10.576 -2.4950  0.9559 -1.4011
  818MOL0     H12847   6.515   3.400  10.616  1.4766 -1.9818 -1.7353
  818MOL0     H12848   6.396   3.108  10.400  0.5299 -1.5806 -1.3486
  818MOL0     H12849   6.538   3.040  10.485  0.3682 -1.6056  0.3253
  818MOL0     H12850   6.382   2.881  10.599 -1.9039 -3.0206 -0.2461
  818MOL0     H12851   6.237   2.956  10.517 -0.2925  1.0671 -0.2812
  818MOL0     H12852   6.350   2.738  10.407  0.8486  0.3069 -1.2609
  818MOL0     H12853   6.442   2.865  10.327  0.3046  0.6071  0.6804
  818MOL0     H12854   6.245   2.984  10.262  2.6518 -0.8961 -2.7371
  818MOL0     H12855   6.138   2.849  10.317 -0.6136  0.9539  0.5246
  818MOL0     H12856   6.351   2.853  10.106 -0.6619 -0.2056  1.1357
  818MOL0     H12857   6.299   2.700  10.168  1.6443  0.8189 -2.4133
  818MOL0     H12858   6.103   2.897  10.054 -2.6155 -1.0666 -1.3860
  818MOL0     H12859   6.072   2.729  10.107  0.1328 -0.8201  0.5731
  818MOL0     H12860   6.245   2.658   9.910  0.1510  0.4598  2.4338
  818MOL0     H12861   6.230   2.821   9.862  1.2558 -2.9818 -3.7330
  818MOL0     H12862   6.051   2.714   9.736 -1.7868 -0.4191  0.1332
  818MOL0     H12863   5.967   2.779   9.868  1.7066  0.6739  2.0652
  818MOL0     H12864   6.154   3.157  10.570 -0.0173  0.3842 -0.4270
  818MOL0     H12865   6.034   3.357  10.525  0.7431 -2.9658 -2.2779
  818MOL0     H12866   5.710   3.680  10.582 -0.9086  1.4788  0.9570
  818MOL0     H12867   5.566   3.802  10.460 -0.7509 -0.8090 -1.3359
  818MOL0     H12868   3.983   4.689   9.408  0.7860 -1.3251  0.1342
  818MOL0     H12869   3.805   4.825   9.270 -1.7038 -0.6646  0.6949
  818MOL0     H12870   3.518   4.791   8.943  2.8253 -0.1981  1.1161
  818MOL0     H12871   3.335   4.837   8.802 -1.6718  1.3266 -3.6259
  818MOL0     H12872   3.187   5.066   8.785 -0.9230 -4.3009 -4.0817
  818MOL0     H12873   3.294   5.198   8.763  1.2291 -1.4658  0.4624
  818MOL0     H12874   3.058   5.247   8.703 -0.3216  1.4424  0.1230
  818MOL0     H12875   3.065   5.113   8.577 -1.4415  0.6901 -0.2858
  818MOL0     H12876   3.257   5.360   8.587 -0.5849  2.9970 -2.4452
  818MOL0     H12877   3.237   5.252   8.455 -2.1712 -2.0656 -0.2805
  818MOL0     H12878   2.985   5.413   8.543 -0.4682  2.0639 -1.1245
  818MOL0     H12879   3.011   5.331   8.389  0.9108 -0.2417  0.0809
  818MOL0     H12880   3.129   5.731   8.356 -2.3126  0.8851  3.1711
  818MOL0     H12881   3.543   5.152   8.614 -2.5083 -0.2316  0.5102
  818MOL0     H12882   3.865   5.127   8.742 -0.4005  0.0411  0.1426
  818MOL0     H12883   3.736   5.247   8.733 -0.2622 -0.2130  1.8270
  818MOL0     H12884   3.771   5.180   8.884  2.0806 -1.0740  0.3479
  819MOL0     O12885   0.483   2.177  10.083  0.6205 -0.2196  0.1312
  819MOL0     C12886   0.508   2.069  10.139 -0.6016 -0.0660  0.9681
  819MOL0     O12887   0.634   2.021  10.167  0.4497 -0.3786 -0.6676
  819MOL0     C12888   0.744   2.074  10.113  0.6905  0.6641 -0.1051
  819MOL0     C12889   0.847   1.989  10.071 -0.2471  1.0565 -0.4111
  819MOL0     C12890   0.967   2.036  10.021  0.3464  0.1931 -0.1337
  819MOL0     C12891   0.991   2.182  10.018 -0.5670 -0.1832 -0.1232
  819MOL0     O12892   1.112   2.251   9.983  0.1850  0.4333 -0.2537
  819MOL0     C12893   1.227   2.169   9.982 -0.1194  0.0001 -0.8677
  819MOL0     C12894   1.354   2.248   9.929 -0.2992  0.1961 -0.2844
  819MOL0     C12895   1.487   2.176   9.971  0.6666 -0.1215  0.5312
  819MOL0     C12896   1.491   2.031   9.926 -1.0112 -0.4286 -0.4807
  819MOL0     C12897   1.606   1.955   9.993 -0.0062  1.2152  0.4578
  819MOL0     C12898   1.596   1.940  10.144 -0.0891  0.0395  0.3846
  819MOL0     C12899   1.478   1.862  10.206  0.1162  0.1570 -0.5828
  819MOL0     C12900   1.445   1.728  10.127 -0.2348 -0.0949 -0.0998
  819MOL0     N12901   1.529   1.611  10.164  0.8460 -0.4003  0.5853
  819MOL0     C12902   1.658   1.574  10.111  0.8853 -0.2164 -0.1916
  819MOL0     C12903   1.711   1.491  10.210 -0.5052  0.1398  0.4288
  819MOL0     C12904   1.857   1.436  10.208  0.9192 -0.9463 -0.4400
  819MOL0     C12905   1.943   1.508  10.304 -0.1743 -0.5629 -0.3188
  819MOL0     C12906   2.071   1.428  10.303 -0.3447 -0.0325  0.0388
  819MOL0     C12907   2.169   1.495  10.382 -0.1159  0.2634 -0.6115
  819MOL0     O12908   2.224   1.606  10.313  0.2648 -0.1579  0.0548
  819MOL0     C12909   2.337   1.654  10.361  0.2883 -0.3813  0.0123
  819MOL0     C12910   2.333   1.774  10.433 -0.1554  0.3783 -0.5378
  819MOL0     C12911   2.447   1.833  10.491  0.0685 -0.3085  0.0078
  819MOL0     C12912   2.421   1.956  10.582 -0.1051 -1.0252  0.3989
  819MOL0     C12913   2.577   1.774  10.462  0.1285  0.1639 -0.6670
  819MOL0     C12914   2.695   1.848  10.481 -0.2767  1.0615 -0.2831
  819MOL0     O12915   2.802   1.787  10.531 -0.1923  0.0488  0.0129
  819MOL0     C12916   2.933   1.838  10.523  0.3207  0.0710 -0.6609
  819MOL0     C12917   2.994   1.905  10.419 -0.2550 -0.4096  0.8923
  819MOL0     C12918   3.127   1.944  10.428  0.4705  0.9285 -0.2743
  819MOL0     C12919   3.206   1.901  10.534  0.3737  0.5216 -0.0693
  819MOL0     O12920   3.334   1.929  10.562  0.0539  0.1569 -0.4784
  819MOL0     C12921   3.410   1.999  10.471  0.1622 -0.1600 -0.2549
  819MOL0     C12922   3.451   1.916  10.348  0.5410  0.4379  0.2901
  819MOL0     C12923   3.537   1.790  10.371 -0.4703  0.0627  0.7187
  819MOL0     C12924   3.677   1.828  10.434  0.3543  0.2239  0.5091
  819MOL0     C12925   3.746   1.695  10.456  0.4609  0.9553  0.4117
  819MOL0     C12926   3.849   1.661  10.345 -0.0724 -0.0939  0.8105
  819MOL0     C12927   3.926   1.533  10.371 -0.4903 -0.5651 -0.1564
  819MOL0     C12928   3.995   1.479  10.245  0.0141  0.3708 -0.1749
  819MOL0    Cl12929   4.019   1.303  10.244  0.0987 -0.4168  0.1105
  819MOL0     C12930   3.150   1.823  10.638  0.6252 -0.7031 -0.3350
  819MOL0     C12931   3.011   1.794  10.628 -1.2940  0.1260 -0.8456
  819MOL0     O12932   2.696   1.967  10.451  0.3067  0.2465 -1.1662
  819MOL0     C12933   2.582   1.646  10.397  0.5511  0.2744 -0.0778
  819MOL0     C12934   2.462   1.590  10.344  0.4330  0.1226  0.0818
  819MOL0     N12935   1.617   1.482  10.309  0.3180  0.7771  0.0268
  819MOL0     N12936   1.512   1.548  10.284  0.2676  0.3050  0.2929
  819MOL0     C12937   0.883   2.266  10.054  0.2614 -0.3576  0.4364
  819MOL0     C12938   0.767   2.216  10.108  0.1092 -0.9810  0.2537
  819MOL0     C12939   0.394   1.982  10.176  0.8467  0.1648 -0.0098
  819MOL0     C12940   0.422   1.859  10.234 -0.1573  0.4868 -0.3941
  819MOL0     C12941   0.315   1.766  10.262 -0.0278  0.4237  0.4747
  819MOL0     C12942   0.183   1.796  10.245 -0.4901  0.4699  0.3556
  819MOL0     O12943   0.077   1.706  10.280  0.0535 -0.0009 -1.2264
  819MOL0     C12944   0.102   1.568  10.295 -0.1842 -0.0272  0.8169
  819MOL0     C12945  -0.018   1.485  10.248  0.4262  0.6244 -0.4102
  819MOL0     C12946  -0.152   1.499  10.334  0.4265 -0.4579 -0.0420
  819MOL0     C12947  -0.261   1.392  10.305  0.5722  0.2931  0.1805
  819MOL0     C12948  -0.360   1.378  10.414  0.6465 -0.0851  0.6020
  819MOL0     C12949  -0.441   1.351  10.502 -0.5298 -0.3189  0.0544
  819MOL0     C12950   0.156   1.920  10.192  0.0694  0.3827  0.5633
  819MOL0     C12951   0.255   2.015  10.155  0.2110  0.2699 -0.1091
  819MOL0     C12952   0.204   2.136  10.077  0.3665  0.4434 -1.1997
  819MOL0     H12953   0.840   1.882  10.085  1.2948  0.8373 -1.1627
  819MOL0     H12954   1.040   1.961   9.992  0.0938  0.3468 -1.2033
  819MOL0     H12955   1.222   2.080   9.919 -1.4219  0.6367 -1.7104
  819MOL0     H12956   1.252   2.143  10.085 -0.3471  2.6070 -0.0901
  819MOL0     H12957   1.357   2.266   9.821 -2.0867  2.5093 -0.0228
  819MOL0     H12958   1.348   2.348   9.973 -1.2613  0.0233 -0.0195
  819MOL0     H12959   1.567   2.231   9.920 -0.9466  3.8398  1.8946
  819MOL0     H12960   1.508   2.187  10.078  2.0485 -0.2002  0.2944
  819MOL0     H12961   1.400   1.977   9.953 -0.8074 -0.2512  0.6333
  819MOL0     H12962   1.507   2.012   9.820  0.6375  1.0190 -0.5366
  819MOL0     H12963   1.693   2.004   9.949  0.1713 -0.9399 -1.8753
  819MOL0     H12964   1.619   1.855   9.950 -1.0164  2.0242 -1.9069
  819MOL0     H12965   1.686   1.885  10.174 -0.3355 -1.3914 -1.3330
  819MOL0     H12966   1.603   2.044  10.176 -2.5082  0.9369 -1.7378
  819MOL0     H12967   1.393   1.930  10.214  2.2474  2.8121  1.4291
  819MOL0     H12968   1.507   1.844  10.310 -0.4078  2.0879 -0.0614
  819MOL0     H12969   1.345   1.716  10.170 -1.3862  0.4272 -2.4808
  819MOL0     H12970   1.448   1.736  10.018 -0.8594 -0.0710 -0.1165
  819MOL0     H12971   1.688   1.608  10.013  1.3617 -0.9800 -0.3238
  819MOL0     H12972   1.890   1.451  10.105 -1.2618  1.5766 -0.8636
  819MOL0     H12973   1.853   1.332  10.242 -1.9184 -0.0911  2.3778
  819MOL0     H12974   1.959   1.609  10.266  0.5507 -0.7215 -0.4514
  819MOL0     H12975   1.890   1.498  10.400 -1.5840  0.7283 -0.9316
  819MOL0     H12976   2.047   1.326  10.336  1.9623 -2.1127 -3.9361
  819MOL0     H12977   2.113   1.423  10.203 -0.0166  1.3148  0.0932
  819MOL0     H12978   2.149   1.535  10.482  1.9902  2.1010 -0.8318
  819MOL0     H12979   2.249   1.422  10.393  2.2200  2.5691 -1.1725
  819MOL0     H12980   2.233   1.815  10.444 -1.1450 -1.5329 -1.7786
  819MOL0     H12981   2.329   1.964  10.640 -0.5161  1.8381 -0.4920
  819MOL0     H12982   2.405   2.046  10.522  0.0764  0.8333  2.9692
  819MOL0     H12983   2.507   1.975  10.648  0.6381 -0.8026 -0.6099
  819MOL0     H12984   2.940   1.941  10.332  2.8663  0.0097 -1.0231
  819MOL0     H12985   3.165   1.996  10.340 -3.3193 -1.6917 -3.8724
  819MOL0     H12986   3.350   2.082  10.434 -0.0853  1.3145  3.0744
  819MOL0     H12987   3.502   2.037  10.517  1.1282 -0.4604 -1.8711
  819MOL0     H12988   3.363   1.886  10.290  0.5791 -0.0363  0.4671
  819MOL0     H12989   3.503   1.993  10.291 -0.7080  1.2169  0.1766
  819MOL0     H12990   3.554   1.755  10.269 -2.9547  1.3883 -0.2290
  819MOL0     H12991   3.481   1.711  10.421  0.6773 -0.3999  1.3033
  819MOL0     H12992   3.675   1.879  10.531  0.5931  1.6231 -0.1928
  819MOL0     H12993   3.744   1.890  10.374  0.5798  0.1962  0.7296
  819MOL0     H12994   3.808   1.700  10.546 -1.5486  0.5888  1.8926
  819MOL0     H12995   3.685   1.604  10.466  1.0582  0.5286  0.2548
  819MOL0     H12996   3.921   1.743  10.335 -1.6881  1.1228 -2.3926
  819MOL0     H12997   3.791   1.657  10.252  0.5391 -0.9026  0.4594
  819MOL0     H12998   3.861   1.449  10.400  1.5173 -3.2162 -2.6324
  819MOL0     H12999   4.010   1.545  10.439 -1.4645  0.7071  0.8646
  819MOL0     H13000   4.090   1.533  10.244 -1.3383  2.8806 -1.4753
  819MOL0     H13001   3.938   1.505  10.156 -0.1924  1.3686  0.2365
  819MOL0     H13002   3.207   1.783  10.722 -2.4491 -0.6241  1.9386
  819MOL0     H13003   2.970   1.727  10.704 -2.1306  0.6734 -0.8050
  819MOL0     H13004   2.680   1.608  10.372  1.3583  4.0117 -3.8259
  819MOL0     H13005   2.458   1.490  10.301 -1.1351 -0.8256  2.2434
  819MOL0     H13006   0.908   2.371  10.048 -2.6061  0.3886 -0.0183
  819MOL0     H13007   0.698   2.290  10.146  2.4732  1.6746 -0.2631
  819MOL0     H13008   0.519   1.834  10.276  0.5694  0.8338 -1.8129
  819MOL0     H13009   0.339   1.677  10.319 -0.1341  0.6795  0.9174
  819MOL0     H13010   0.175   1.532  10.221  0.5527 -0.4914  1.7558
  819MOL0     H13011   0.125   1.544  10.399 -1.3950 -0.6152  0.9744
  819MOL0     H13012   0.011   1.379  10.246  1.0755  0.7535  0.9663
  819MOL0     H13013  -0.043   1.514  10.146  0.3039 -1.2740 -0.9616
  819MOL0     H13014  -0.142   1.486  10.442 -1.2533 -1.4669  0.0145
  819MOL0     H13015  -0.190   1.602  10.327 -0.1061 -0.6542 -0.0031
  819MOL0     H13016  -0.214   1.296  10.283 -1.3836 -0.3372 -1.4841
  819MOL0     H13017  -0.314   1.427  10.216  1.1419 -1.5676 -0.9332
  819MOL0     H13018  -0.526   1.333  10.565  0.2594  0.9892  1.5846
  819MOL0     H13019   0.051   1.939  10.173 -0.3731 -0.9331  1.5403
  819MOL0     H13020   0.260   2.134   9.983 -0.7184 -1.9186 -1.8688
  819MOL0     H13021   0.098   2.139  10.051  0.0140 -0.3596  0.0625
  819MOL0     H13022   0.227   2.224  10.137 -2.7585  0.0395  0.7918
  820MOL0     O13023  10.626   1.964   4.424 -0.3073  0.3201 -0.3030
  820MOL0     C13024  10.540   1.996   4.507 -0.3410  0.4802 -0.7544
  820MOL0     O13025  10.568   2.031   4.638  0.2649  0.1373  0.7296
  820MOL0     C13026  10.687   2.021   4.696 -0.3995 -0.0681 -0.1241
  820MOL0     C13027  10.790   1.937   4.668  0.0261 -0.2623  0.6073
  820MOL0     C13028  10.913   1.947   4.725  0.3298 -0.7014  0.0373
  820MOL0     C13029  10.928   2.032   4.836 -1.0155  0.0180  0.1679
  820MOL0     O13030  11.058   2.040   4.879 -0.7806 -0.2161 -0.7579
  820MOL0     C13031  11.092   2.079   5.013  0.0317 -0.0259  0.5816
  820MOL0     C13032  11.045   1.981   5.126  0.2235 -0.1937 -0.4222
  820MOL0     C13033  11.130   1.842   5.113  0.5032  0.1756 -0.3313
  820MOL0     C13034  11.272   1.852   5.185 -0.0822 -0.3784  0.9629
  820MOL0     C13035  11.319   1.721   5.230  0.1317 -0.3713 -0.1004
  820MOL0     C13036  11.425   1.737   5.337 -0.7028  0.2273 -0.0807
  820MOL0     C13037  11.556   1.797   5.298  0.5495 -0.9601 -0.5746
  820MOL0     C13038  11.572   1.960   5.295 -0.4680  0.2929 -0.1296
  820MOL0     N13039  11.705   2.009   5.254  0.3673  0.3143  0.1485
  820MOL0     C13040  11.792   1.946   5.167  0.4740 -0.8781  0.6299
  820MOL0     C13041  11.916   1.989   5.202 -0.1749  0.9708  0.3897
  820MOL0     C13042  12.043   1.936   5.151  0.3318  0.1941  0.1537
  820MOL0     C13043  12.067   1.993   5.010  0.1556 -0.4304 -0.0807
  820MOL0     C13044  12.203   1.940   4.960  0.4082 -0.3044 -0.3954
  820MOL0     C13045  12.321   1.994   5.049 -0.1645  0.3177 -0.9216
  820MOL0     O13046  12.430   1.990   4.961 -0.6782 -0.2238 -0.1006
  820MOL0     C13047  12.555   1.951   5.006  0.1301 -0.0646 -0.2004
  820MOL0     C13048  12.622   1.853   4.936  0.4907  0.0492  0.5842
  820MOL0     C13049  12.759   1.815   4.972  1.2991 -0.0967  0.1995
  820MOL0     C13050  12.827   1.731   4.865 -0.0486 -0.5448  0.1242
  820MOL0     C13051  12.820   1.879   5.083 -0.0107 -0.6433 -0.2517
  820MOL0     C13052  12.964   1.881   5.103 -0.3114 -0.2468  0.1386
  820MOL0     O13053  13.015   1.976   5.183  1.1082 -0.0424  0.5592
  820MOL0     C13054  13.139   1.959   5.232 -0.7056  0.0128  0.0891
  820MOL0     C13055  13.239   2.051   5.201  0.6003  1.1522  0.6250
  820MOL0     C13056  13.367   2.039   5.263  0.5044  0.0231  0.1404
  820MOL0     C13057  13.406   1.931   5.343  0.4750  0.1893  0.4512
  820MOL0     O13058  13.532   1.910   5.386  0.1025 -0.6909 -0.1100
  820MOL0     C13059  13.623   2.018   5.416  0.0149 -0.2328 -0.0905
  820MOL0     C13060  13.743   1.973   5.498  0.2599  0.0076  0.4986
  820MOL0     C13061  13.843   2.078   5.522 -0.1319 -0.2202  0.5212
  820MOL0     C13062  13.958   2.022   5.599 -0.1319 -0.0857 -0.0846
  820MOL0     C13063  14.060   2.137   5.617 -0.4912 -0.3200  0.3084
  820MOL0     C13064  14.182   2.084   5.694  0.4118  0.2991 -0.0395
  820MOL0     C13065  14.304   2.181   5.676  0.7971  0.2188  0.1693
  820MOL0     C13066  14.400   2.155   5.789 -0.1904  0.4392  0.5137
  820MOL0    Cl13067  14.538   2.272   5.776 -0.1808  0.0383 -0.0450
  820MOL0     C13068  13.308   1.833   5.370  0.3336  0.0181 -0.5583
  820MOL0     C13069  13.176   1.852   5.319  0.2999  0.1181  0.1489
  820MOL0     O13070  13.024   1.782   5.061 -0.2983  0.7316  0.2146
  820MOL0     C13071  12.735   1.971   5.158  0.7696  0.0289  0.4926
  820MOL0     C13072  12.604   2.007   5.123 -0.3227 -0.3400 -0.0387
  820MOL0     N13073  11.908   2.069   5.316 -0.1056  0.0666 -0.3868
  820MOL0     N13074  11.784   2.083   5.339  0.5597  0.1385 -0.9033
  820MOL0     C13075  10.820   2.113   4.882  0.5405  0.1743  0.3656
  820MOL0     C13076  10.703   2.111   4.810  0.3526 -0.1247 -0.4419
  820MOL0     C13077  10.395   1.998   4.474 -0.3867  0.0473 -0.2862
  820MOL0     C13078  10.295   1.981   4.581 -0.3997  0.3305 -1.3353
  820MOL0     C13079  10.156   1.987   4.552 -0.2474 -0.0639 -0.3533
  820MOL0     C13080  10.114   1.997   4.414  0.3486  0.2776  0.1258
  820MOL0     O13081   9.989   1.982   4.364  0.1489  0.3516  0.5370
  820MOL0     C13082   9.883   1.983   4.463 -0.7048 -0.0813  0.2802
  820MOL0     C13083   9.743   1.930   4.408 -0.0485  0.2546 -0.2387
  820MOL0     C13084   9.630   2.029   4.375 -0.2167  0.5437  0.0658
  820MOL0     C13085   9.574   2.092   4.501 -0.0505  0.1836  1.1583
  820MOL0     C13086   9.653   2.210   4.545  0.1324 -0.2143 -0.4479
  820MOL0     C13087   9.722   2.301   4.590  0.0708 -1.1634 -0.2218
  820MOL0     C13088  10.211   2.007   4.314  0.2816  0.2610  0.5682
  820MOL0     C13089  10.347   2.018   4.340 -0.2240  0.3602 -0.1563
  820MOL0     C13090  10.436   2.025   4.217  0.7663 -0.3231  0.1678
  820MOL0     H13091  10.790   1.879   4.576 -1.2433  1.7197 -0.7318
  820MOL0     H13092  10.996   1.883   4.700  0.5404 -0.7226  0.7813
  820MOL0     H13093  11.055   2.181   5.025 -1.8680 -0.6156  0.1183
  820MOL0     H13094  11.201   2.075   5.015  0.0396 -1.3474 -0.7343
  820MOL0     H13095  11.072   2.026   5.222 -1.9981 -1.5330  0.9089
  820MOL0     H13096  10.938   1.960   5.133 -0.0278  1.2616  0.8142
  820MOL0     H13097  11.083   1.752   5.155  1.7575 -1.0692 -1.4682
  820MOL0     H13098  11.146   1.822   5.007 -0.6766 -0.8868 -0.3422
  820MOL0     H13099  11.342   1.895   5.113 -1.8343  3.7968  1.4706
  820MOL0     H13100  11.260   1.923   5.268  2.6568 -1.8986  2.8302
  820MOL0     H13101  11.348   1.655   5.149  0.1539 -0.9314  0.3569
  820MOL0     H13102  11.237   1.683   5.291 -0.9259  1.9403  0.0362
  820MOL0     H13103  11.385   1.785   5.426  0.7073  1.6567 -0.1658
  820MOL0     H13104  11.447   1.640   5.384 -2.0963  1.2524  2.9044
  820MOL0     H13105  11.588   1.761   5.200 -1.5892 -0.8980 -1.3524
  820MOL0     H13106  11.617   1.757   5.379  0.1275 -1.9081 -0.7057
  820MOL0     H13107  11.493   2.001   5.232 -0.9611 -0.2004  0.1572
  820MOL0     H13108  11.560   2.005   5.394 -0.4157  0.2893 -0.1215
  820MOL0     H13109  11.760   1.882   5.086  1.0534  3.6422 -3.6058
  820MOL0     H13110  12.032   1.827   5.152  0.9241  0.1302  1.3630
  820MOL0     H13111  12.127   1.969   5.213  0.1595 -0.7724  0.9224
  820MOL0     H13112  11.990   1.967   4.937  0.5345  0.2007 -0.7200
  820MOL0     H13113  12.082   2.101   5.015 -1.2859  0.2601 -4.8367
  820MOL0     H13114  12.204   1.831   4.955 -2.7044 -0.3928 -0.8244
  820MOL0     H13115  12.221   1.980   4.860 -0.8923  1.1401 -0.0802
  820MOL0     H13116  12.303   2.095   5.084  0.8273 -0.4863  2.1750
  820MOL0     H13117  12.338   1.918   5.126  2.5456  0.1972 -1.5554
  820MOL0     H13118  12.555   1.810   4.863 -1.4976  0.7413  1.8942
  820MOL0     H13119  12.900   1.796   4.816  0.5717  0.1813  1.9290
  820MOL0     H13120  12.754   1.688   4.795  2.1750 -2.4947 -1.1864
  820MOL0     H13121  12.883   1.647   4.908  0.4497  0.6341  1.8635
  820MOL0     H13122  13.222   2.140   5.142 -0.0671  1.2143  0.9034
  820MOL0     H13123  13.441   2.117   5.248 -1.5544  2.4809  1.9057
  820MOL0     H13124  13.670   2.055   5.324  0.2764  0.1469  0.1966
  820MOL0     H13125  13.567   2.087   5.479  0.3210 -2.5021  2.8633
  820MOL0     H13126  13.700   1.926   5.587 -1.2600 -0.6615 -0.5373
  820MOL0     H13127  13.791   1.893   5.440  1.0196  0.5381  0.3850
  820MOL0     H13128  13.801   2.159   5.581 -0.8748 -0.2058 -0.0193
  820MOL0     H13129  13.882   2.118   5.428  1.1580 -1.2834  0.5654
  820MOL0     H13130  14.003   1.942   5.540  2.0010  0.9528  0.0441
  820MOL0     H13131  13.939   1.985   5.700 -0.0816 -0.9336 -0.3769
  820MOL0     H13132  14.091   2.169   5.517 -0.9813  0.7877  0.4999
  820MOL0     H13133  14.015   2.221   5.669  2.0728  0.8874  0.7534
  820MOL0     H13134  14.198   1.982   5.659  0.7231  0.5257 -0.5679
  820MOL0     H13135  14.159   2.077   5.801 -1.0144  2.2651 -0.1679
  820MOL0     H13136  14.275   2.286   5.681  2.7655  0.8729 -0.9765
  820MOL0     H13137  14.352   2.155   5.581  0.4141 -0.3883  0.1384
  820MOL0     H13138  14.444   2.055   5.781 -0.9572 -0.0386  1.8258
  820MOL0     H13139  14.362   2.165   5.891  1.0139 -0.8178  1.1134
  820MOL0     H13140  13.343   1.751   5.431 -0.4338  1.8669  2.6295
  820MOL0     H13141  13.114   1.764   5.334  1.9236 -1.1290 -0.2525
  820MOL0     H13142  12.777   2.028   5.240 -0.3749 -0.5299  1.4960
  820MOL0     H13143  12.546   2.084   5.173  0.7516 -0.1295  0.9055
  820MOL0     H13144  10.823   2.188   4.960 -0.6811 -0.9949  1.6043
  820MOL0     H13145  10.635   2.195   4.822  2.1853  1.4031 -0.3911
  820MOL0     H13146  10.319   1.953   4.683  0.0008  0.1090 -1.4898
  820MOL0     H13147  10.085   1.976   4.633  0.8145  2.0055  0.9611
  820MOL0     H13148   9.911   1.905   4.534  0.3788 -0.2127 -0.2825
  820MOL0     H13149   9.878   2.086   4.498  2.6069 -0.3575  1.8485
  820MOL0     H13150   9.698   1.854   4.473 -1.4135 -1.2916 -2.8444
  820MOL0     H13151   9.755   1.883   4.311 -2.3587 -0.4983 -0.2316
  820MOL0     H13152   9.670   2.106   4.309  2.7599 -0.7884  0.1542
  820MOL0     H13153   9.545   1.985   4.323 -2.9259  3.9004  1.2652
  820MOL0     H13154   9.553   2.018   4.579  2.3874 -2.0197 -0.0967
  820MOL0     H13155   9.476   2.122   4.463 -0.3900 -3.4759 -1.4534
  820MOL0     H13156   9.769   2.389   4.627 -1.2953  0.1223 -1.4287
  820MOL0     H13157  10.171   2.014   4.213  0.7989 -0.5781  0.3035
  820MOL0     H13158  10.376   2.030   4.125  0.2619  0.3750  0.5274
  820MOL0     H13159  10.508   2.108   4.223 -0.8369  1.0676  1.3056
  820MOL0     H13160  10.491   1.931   4.209 -0.2965 -0.9948  0.6411
  821MOL0     O13161   0.067   9.275   9.462  0.7885  0.1346 -0.1008
  821MOL0     C13162   0.072   9.164   9.398 -0.0548 -0.4956 -0.8710
  821MOL0     O13163   0.167   9.139   9.305 -0.0483 -0.0840  0.6918
  821MOL0     C13164   0.256   9.238   9.269  0.4489 -0.1393 -0.6436
  821MOL0     C13165   0.383   9.226   9.320  0.5718 -0.6711 -0.2457
  821MOL0     C13166   0.480   9.329   9.286  0.3243  0.0302 -0.3826
  821MOL0     C13167   0.442   9.436   9.205  0.4693 -0.4602  0.5296
  821MOL0     O13168   0.547   9.531   9.177  0.3295 -0.1101  0.1589
  821MOL0     C13169   0.526   9.660   9.116 -0.3914  0.5745 -0.1226
  821MOL0     C13170   0.640   9.755   9.164  0.0571  0.9794 -0.5641
  821MOL0     C13171   0.785   9.715   9.127 -0.2363 -0.1222 -0.9716
  821MOL0     C13172   0.872   9.837   9.159 -0.3770 -0.1340  0.7606
  821MOL0     C13173   1.020   9.788   9.168 -0.0759  0.6414  0.3375
  821MOL0     C13174   1.054   9.699   9.289  0.2990 -0.1945  0.0591
  821MOL0     C13175   0.993   9.759   9.416  0.6512 -0.4824 -0.8458
  821MOL0     C13176   1.054   9.702   9.542 -0.4396  0.2136 -0.9544
  821MOL0     N13177   1.196   9.718   9.544 -0.9031 -0.5463  0.8277
  821MOL0     C13178   1.284   9.616   9.507 -0.7617 -0.4571  0.0418
  821MOL0     C13179   1.403   9.675   9.520 -0.4052 -0.6570  0.0885
  821MOL0     C13180   1.538   9.625   9.512  0.1068  0.6399 -0.3605
  821MOL0     C13181   1.567   9.553   9.639  0.1205 -1.4409 -0.6070
  821MOL0     C13182   1.584   9.651   9.756 -0.2073  0.7507 -0.1240
  821MOL0     C13183   1.598   9.594   9.897  0.1924 -0.9202  0.4271
  821MOL0     O13184   1.700   9.497   9.903 -0.5889 -0.5882 -0.0871
  821MOL0     C13185   1.832   9.527   9.881 -0.0178 -0.7242  0.1467
  821MOL0     C13186   1.913   9.424   9.840 -0.0753 -0.5117  0.6473
  821MOL0     C13187   2.048   9.451   9.818 -0.3674  0.6305  0.3969
  821MOL0     C13188   2.133   9.326   9.790  0.1381 -0.3044 -0.3494
  821MOL0     C13189   2.109   9.584   9.815  0.3037 -0.0610 -0.0042
  821MOL0     C13190   2.253   9.620   9.775 -0.1587 -0.2810 -0.1493
  821MOL0     O13191   2.293   9.748   9.809  0.3076  0.7307 -0.0066
  821MOL0     C13192   2.412   9.796   9.758  0.3039  0.9229 -0.5567
  821MOL0     C13193   2.506   9.850   9.842 -0.2854 -0.7884 -0.2226
  821MOL0     C13194   2.624   9.898   9.798  0.6457  0.1596  0.7420
  821MOL0     C13195   2.658   9.898   9.661  0.6695  0.0778  0.4191
  821MOL0     O13196   2.778   9.946   9.615 -0.2411  0.9068 -0.6871
  821MOL0     C13197   2.815  10.075   9.664  0.0208 -0.0839 -0.3072
  821MOL0     C13198   2.965  10.092   9.652 -0.5565 -0.7485 -0.2269
  821MOL0     C13199   2.990  10.097   9.499 -0.8324  0.4814  0.3859
  821MOL0     C13200   3.109  10.181   9.463 -0.2277 -0.5923  0.2205
  821MOL0     C13201   3.150  10.184   9.315 -0.0211  0.1934  0.5704
  821MOL0     C13202   3.267  10.289   9.301  0.3461 -1.0529  0.1351
  821MOL0     C13203   3.409  10.251   9.341  0.5681  1.0043  0.1205
  821MOL0     C13204   3.509  10.338   9.265  0.1262 -0.3571 -0.0308
  821MOL0    Cl13205   3.534  10.283   9.099 -0.4796 -0.1399 -0.2841
  821MOL0     C13206   2.556   9.850   9.569 -0.1531 -0.0502 -0.0358
  821MOL0     C13207   2.437   9.799   9.615 -0.0936 -0.2316 -0.4392
  821MOL0     O13208   2.324   9.541   9.716 -0.0566 -0.5959  0.0843
  821MOL0     C13209   2.021   9.678   9.875 -0.5991 -0.2329  0.1178
  821MOL0     C13210   1.886   9.654   9.910 -1.3671  0.3703 -0.2711
  821MOL0     N13211   1.386   9.816   9.558  0.7181  0.9036  0.5026
  821MOL0     N13212   1.263   9.828   9.577  0.7749  0.2933 -0.4608
  821MOL0     C13213   0.313   9.447   9.156  0.4897 -0.0659 -0.2470
  821MOL0     C13214   0.222   9.346   9.184  0.8968  0.5694  0.2953
  821MOL0     C13215  -0.037   9.053   9.410  1.5435  1.0103 -0.8809
  821MOL0     C13216   0.000   8.927   9.463  0.7440 -0.0832  0.5338
  821MOL0     C13217  -0.100   8.829   9.474 -0.0357  0.3174 -0.5146
  821MOL0     C13218  -0.224   8.856   9.432  0.5948 -0.4479  0.0587
  821MOL0     O13219  -0.303   8.746   9.438  0.4038 -0.0345 -0.1543
  821MOL0     C13220  -0.417   8.753   9.519  0.3898 -0.3267 -0.6667
  821MOL0     C13221  -0.381   8.701   9.659  0.8351 -0.0667  0.3069
  821MOL0     C13222  -0.503   8.671   9.753  0.0175  0.0188  0.0260
  821MOL0     C13223  -0.561   8.803   9.818 -0.1747 -0.5472 -0.8196
  821MOL0     C13224  -0.699   8.776   9.857  0.2764 -0.2134  0.9388
  821MOL0     C13225  -0.815   8.743   9.889 -0.2142  0.4289  0.3303
  821MOL0     C13226  -0.264   8.989   9.375  0.8227  0.3977 -0.8401
  821MOL0     C13227  -0.172   9.095   9.380 -1.0486  0.9920 -0.3463
  821MOL0     C13228  -0.203   9.228   9.318  0.8463  0.5694  0.1349
  821MOL0     H13229   0.405   9.139   9.381  0.6627 -1.5287 -1.4677
  821MOL0     H13230   0.574   9.304   9.333 -0.1555 -0.8617  0.1438
  821MOL0     H13231   0.440   9.704   9.166 -0.8612  0.9805 -1.2537
  821MOL0     H13232   0.514   9.656   9.007  0.9520  1.0448 -0.3015
  821MOL0     H13233   0.614   9.852   9.120 -6.0063 -0.7145 -1.6050
  821MOL0     H13234   0.634   9.755   9.274 -0.5674 -5.6378 -0.1884
  821MOL0     H13235   0.802   9.636   9.201 -1.2776  0.4589 -0.0836
  821MOL0     H13236   0.804   9.685   9.024  0.7132 -2.5311 -0.1789
  821MOL0     H13237   0.853   9.916   9.086 -1.8044  0.2831  1.5323
  821MOL0     H13238   0.844   9.891   9.250 -1.0028  1.3643 -0.2657
  821MOL0     H13239   1.081   9.878   9.177 -0.4430  0.9089  0.1655
  821MOL0     H13240   1.056   9.735   9.079 -0.6809 -0.1492  0.5523
  821MOL0     H13241   1.011   9.600   9.268 -1.0892  1.0359 -3.7789
  821MOL0     H13242   1.163   9.689   9.294  0.1455 -1.5285  2.1752
  821MOL0     H13243   0.887   9.737   9.402  0.5731 -0.4173 -0.3730
  821MOL0     H13244   1.010   9.867   9.413 -0.8136 -0.1895  0.3369
  821MOL0     H13245   1.009   9.751   9.630 -1.1530  1.4454 -1.9711
  821MOL0     H13246   1.043   9.593   9.544  1.7847 -0.0564 -0.0798
  821MOL0     H13247   1.262   9.514   9.476  0.4751 -0.8534  0.4117
  821MOL0     H13248   1.609   9.706   9.492  0.0334  1.1716  1.3905
  821MOL0     H13249   1.541   9.558   9.425  0.0791  0.1965 -0.0196
  821MOL0     H13250   1.484   9.486   9.664 -2.1591  1.9143  1.6874
  821MOL0     H13251   1.656   9.490   9.631  0.3503 -1.1994 -0.0025
  821MOL0     H13252   1.677   9.708   9.749  0.6887 -0.6819 -0.2492
  821MOL0     H13253   1.498   9.719   9.760 -1.7144 -1.1122  1.0991
  821MOL0     H13254   1.609   9.674   9.972 -0.1222  0.7269 -1.2066
  821MOL0     H13255   1.502   9.549   9.921 -0.1464  0.7203  2.4788
  821MOL0     H13256   1.872   9.324   9.826 -0.7808 -0.2054  0.4643
  821MOL0     H13257   2.220   9.339   9.855  1.0553  2.3855 -1.9545
  821MOL0     H13258   2.165   9.334   9.685  0.6461 -1.3328 -0.2842
  821MOL0     H13259   2.088   9.230   9.815 -0.2177 -0.8038 -2.6542
  821MOL0     H13260   2.479   9.844   9.947  0.8290 -0.1395  0.1160
  821MOL0     H13261   2.690   9.936   9.876 -0.8688 -0.1905  2.2351
  821MOL0     H13262   2.760  10.154   9.612 -0.7621 -1.2330 -1.2512
  821MOL0     H13263   2.789  10.091   9.769  1.1317 -0.3195  0.0184
  821MOL0     H13264   2.988  10.187   9.702 -0.4151 -2.0052  2.2238
  821MOL0     H13265   3.026  10.013   9.698  0.6124 -0.5178 -1.3181
  821MOL0     H13266   2.912  10.139   9.435  2.9449  3.9512 -2.4802
  821MOL0     H13267   2.992   9.992   9.467 -2.2575  0.7246 -0.6127
  821MOL0     H13268   3.191  10.131   9.515 -0.7734 -2.3895 -0.5652
  821MOL0     H13269   3.099  10.280   9.507 -1.6289 -1.7369  2.6867
  821MOL0     H13270   3.192  10.088   9.284  1.8147  1.3612 -0.8106
  821MOL0     H13271   3.061  10.212   9.258  0.5843  3.1184  0.8753
  821MOL0     H13272   3.229  10.378   9.353 -4.5191 -1.3967 -2.2072
  821MOL0     H13273   3.279  10.318   9.196 -3.6866 -0.6014 -0.3894
  821MOL0     H13274   3.417  10.143   9.350 -2.3252  0.6506 -0.4565
  821MOL0     H13275   3.417  10.287   9.445 -5.4590  2.3275  0.4911
  821MOL0     H13276   3.598  10.328   9.327  0.5405  0.1358 -0.5424
  821MOL0     H13277   3.474  10.442   9.261  0.5047 -0.0496  2.7304
  821MOL0     H13278   2.568   9.854   9.461  0.0576 -0.2304 -0.0190
  821MOL0     H13279   2.370   9.763   9.538 -2.5410  2.1285  0.4339
  821MOL0     H13280   2.050   9.782   9.889 -1.8599  0.0373  0.8468
  821MOL0     H13281   1.837   9.740   9.955  2.4466  2.0425  1.1106
  821MOL0     H13282   0.286   9.537   9.102 -0.0623 -0.1886 -0.1761
  821MOL0     H13283   0.119   9.353   9.151  1.4049 -1.3213 -1.9194
  821MOL0     H13284   0.105   8.901   9.472  0.4153 -1.6558  0.1625
  821MOL0     H13285  -0.082   8.726   9.505 -1.0394  0.3073  0.0953
  821MOL0     H13286  -0.458   8.853   9.534 -1.4652 -1.4614  3.1718
  821MOL0     H13287  -0.506   8.700   9.484 -1.3198  2.4163 -0.7980
  821MOL0     H13288  -0.325   8.783   9.704 -1.8786  1.5906  0.9369
  821MOL0     H13289  -0.325   8.607   9.657 -2.4586 -2.4164  3.8117
  821MOL0     H13290  -0.584   8.612   9.710  0.1830 -1.1908  1.2873
  821MOL0     H13291  -0.460   8.605   9.828 -0.6759 -0.2297  0.2097
  821MOL0     H13292  -0.554   8.888   9.749  3.0578 -0.3453 -0.4112
  821MOL0     H13293  -0.506   8.840   9.905 -1.8198  2.3880 -0.8639
  821MOL0     H13294  -0.917   8.731   9.918 -0.5090  1.7325 -0.0940
  821MOL0     H13295  -0.359   8.997   9.322  0.1744 -1.9676 -0.1499
  821MOL0     H13296  -0.192   9.301   9.399  0.3818  2.1013 -1.1417
  821MOL0     H13297  -0.153   9.246   9.223 -3.0919 -1.8875 -2.7380
  821MOL0     H13298  -0.311   9.229   9.303  0.7317 -1.9479  0.2433
  822MOL0     O13299   7.646   8.703  10.540 -0.0358 -0.6945 -0.6583
  822MOL0     C13300   7.559   8.617  10.550  0.3267  0.6183  0.1805
  822MOL0     O13301   7.577   8.490  10.601  0.0606 -0.5924  0.0685
  822MOL0     C13302   7.707   8.441  10.618  0.1981  0.3744 -0.2130
  822MOL0     C13303   7.801   8.415  10.513  0.0292 -0.3329  0.3512
  822MOL0     C13304   7.932   8.378  10.548  0.1336 -0.4278 -0.1277
  822MOL0     C13305   7.971   8.359  10.686 -0.0396 -0.4520 -0.1348
  822MOL0     O13306   8.098   8.331  10.736 -0.1355 -0.0247 -0.2633
  822MOL0     C13307   8.208   8.373  10.650 -0.6978 -0.4065  0.2516
  822MOL0     C13308   8.333   8.388  10.731  0.0925  0.1139 -0.3011
  822MOL0     C13309   8.461   8.408  10.647  0.4572 -0.2940  0.9357
  822MOL0     C13310   8.486   8.277  10.562  0.1838 -0.1929  1.0780
  822MOL0     C13311   8.620   8.240  10.507 -0.2269  0.1541 -1.1746
  822MOL0     C13312   8.714   8.207  10.625 -0.4921  0.5814 -0.1148
  822MOL0     C13313   8.856   8.166  10.587 -0.7116  0.0362  0.1767
  822MOL0     C13314   8.951   8.256  10.512  0.2231  0.4395  0.7764
  822MOL0     N13315   9.082   8.193  10.502 -0.9191  0.0690  0.1923
  822MOL0     C13316   9.132   8.121  10.401 -0.6402  0.7548 -0.4433
  822MOL0     C13317   9.268   8.107  10.429  0.0290 -0.2233 -0.4477
  822MOL0     C13318   9.374   8.040  10.357  0.1916  0.0478  0.5625
  822MOL0     C13319   9.467   8.133  10.291  1.0719  0.1260 -0.3043
  822MOL0     C13320   9.563   8.213  10.383 -0.2083 -0.8643 -0.3781
  822MOL0     C13321   9.695   8.253  10.310 -0.6957  0.3814 -0.2606
  822MOL0     O13322   9.780   8.321  10.399 -0.0236  0.5992  0.2909
  822MOL0     C13323   9.876   8.407  10.366 -0.3703  0.6216 -0.0070
  822MOL0     C13324   9.914   8.447  10.234  0.5049  0.4811 -0.1199
  822MOL0     C13325  10.040   8.500  10.213 -0.4013  0.1134 -0.0417
  822MOL0     C13326  10.077   8.523  10.063  0.6333 -0.5988 -1.2067
  822MOL0     C13327  10.122   8.529  10.324 -0.4067  0.4904 -0.0464
  822MOL0     C13328  10.260   8.588  10.302  0.7714  0.4819 -0.1886
  822MOL0     O13329  10.271   8.721  10.331  0.2919  0.0869 -0.0072
  822MOL0     C13330  10.371   8.806  10.281 -1.5213  0.6242  0.6117
  822MOL0     C13331  10.347   8.944  10.294  0.3479 -0.5160 -0.0312
  822MOL0     C13332  10.440   9.037  10.253  0.1443  0.8040  0.4274
  822MOL0     C13333  10.553   9.007  10.186 -0.9211  1.0422 -0.2317
  822MOL0     O13334  10.639   9.107  10.172  0.0248  0.1542  0.1936
  822MOL0     C13335  10.763   9.088  10.102 -0.3067 -0.3616 -0.4051
  822MOL0     C13336  10.844   9.218  10.078 -0.6777 -0.6665 -0.6495
  822MOL0     C13337  10.974   9.180  10.006  0.1504  0.3652  0.2870
  822MOL0     C13338  11.061   9.298   9.981 -0.2217  0.2816  0.6969
  822MOL0     C13339  11.194   9.260   9.909  0.1190 -0.0984  0.0293
  822MOL0     C13340  11.286   9.379   9.890 -0.9065 -1.1818  0.7398
  822MOL0     C13341  11.414   9.339   9.810 -0.5129  0.1236 -0.4566
  822MOL0     C13342  11.504   9.462   9.806 -0.1443 -0.2402 -0.3457
  822MOL0    Cl13343  11.559   9.515   9.969  0.2258 -0.0321 -0.2888
  822MOL0     C13344  10.586   8.877  10.171 -0.2499  0.2451  0.6419
  822MOL0     C13345  10.497   8.772  10.213  0.2845  0.3653 -0.2185
  822MOL0     O13346  10.343   8.520  10.245 -0.0360  0.0205 -0.4713
  822MOL0     C13347  10.077   8.505  10.452 -0.1208 -0.0075  0.6032
  822MOL0     C13348   9.958   8.441  10.472  0.3828  0.4819  0.5099
  822MOL0     N13349   9.290   8.184  10.547 -0.0971  0.6535  0.8429
  822MOL0     N13350   9.182   8.229  10.591  0.3219 -0.1470 -0.3715
  822MOL0     C13351   7.882   8.391  10.782  0.3720  0.7839  0.1881
  822MOL0     C13352   7.746   8.416  10.748  0.3030  0.0085  0.2990
  822MOL0     C13353   7.420   8.645  10.497  0.0419 -1.1919 -0.3215
  822MOL0     C13354   7.325   8.551  10.513 -0.0020  0.0177  0.0981
  822MOL0     C13355   7.195   8.565  10.458  0.2070 -0.3136 -0.9811
  822MOL0     C13356   7.167   8.690  10.391  0.1659  0.2754 -0.5519
  822MOL0     O13357   7.038   8.696  10.341 -1.3441 -0.5214  0.5605
  822MOL0     C13358   6.984   8.817  10.287 -0.5067  0.9259  0.0437
  822MOL0     C13359   7.041   8.843  10.147  0.0457 -0.1173  0.6540
  822MOL0     C13360   6.988   8.980  10.088  0.5583  0.6676 -0.1107
  822MOL0     C13361   6.847   8.963  10.020  0.9405  1.3782  0.7121
  822MOL0     C13362   6.806   9.082   9.954 -0.3254 -0.1689 -0.0870
  822MOL0     C13363   6.785   9.196   9.905  0.4216  0.5004  0.4880
  822MOL0     C13364   7.259   8.792  10.395 -0.5099  0.2721 -0.3177
  822MOL0     C13365   7.387   8.774  10.447  0.2418 -0.0745  0.1933
  822MOL0     C13366   7.472   8.899  10.441 -0.9224  0.0626  0.4651
  822MOL0     H13367   7.772   8.450  10.414 -2.3226  4.5811  2.4983
  822MOL0     H13368   8.018   8.385  10.483  0.4093 -0.2828  0.2481
  822MOL0     H13369   8.191   8.469  10.601 -2.2158 -1.2650 -1.0344
  822MOL0     H13370   8.219   8.292  10.577 -2.7979 -1.3951  0.9546
  822MOL0     H13371   8.318   8.471  10.801 -1.7566 -0.8068  0.4554
  822MOL0     H13372   8.343   8.303  10.799 -0.1318 -2.9571 -3.8052
  822MOL0     H13373   8.443   8.495  10.583 -1.0958 -0.8673  0.5537
  822MOL0     H13374   8.547   8.426  10.713  1.9699 -2.2007 -0.4090
  822MOL0     H13375   8.459   8.196  10.630 -1.3555 -0.9456 -0.3340
  822MOL0     H13376   8.421   8.275  10.473  0.0414  0.5234  1.1597
  822MOL0     H13377   8.665   8.322  10.450 -0.7669 -0.0960 -1.9664
  822MOL0     H13378   8.609   8.160  10.434 -2.7820  1.7352 -2.6676
  822MOL0     H13379   8.736   8.290  10.694 -0.6380 -0.3999  1.1503
  822MOL0     H13380   8.666   8.130  10.687 -1.0962 -1.1368 -2.5976
  822MOL0     H13381   8.839   8.078  10.524 -3.4684  0.8900 -0.3533
  822MOL0     H13382   8.907   8.123  10.675  0.2066  1.4122  0.3437
  822MOL0     H13383   8.906   8.288  10.417 -0.3064  0.0655  0.8986
  822MOL0     H13384   8.970   8.339  10.581  0.7894 -1.2129  2.7047
  822MOL0     H13385   9.087   8.071  10.316  2.0190 -2.4302 -0.1968
  822MOL0     H13386   9.320   7.977  10.286 -0.5624 -1.0021  1.9969
  822MOL0     H13387   9.429   7.987  10.436  0.4235  0.5471  0.7423
  822MOL0     H13388   9.529   8.065  10.233  0.7990 -1.7097  1.4478
  822MOL0     H13389   9.415   8.201  10.223  0.2762  0.0696  0.2347
  822MOL0     H13390   9.514   8.305  10.417  0.3604 -0.7862  0.2487
  822MOL0     H13391   9.599   8.152  10.466 -0.6158  0.0230  0.4616
  822MOL0     H13392   9.749   8.167  10.269  0.0303  0.4001  0.6352
  822MOL0     H13393   9.669   8.315  10.224 -0.7128 -1.7068 -1.8496
  822MOL0     H13394   9.849   8.420  10.152  2.1526  1.1213 -1.7164
  822MOL0     H13395  10.126   8.620  10.049 -0.1557  0.3909  2.0480
  822MOL0     H13396   9.990   8.528   9.996 -0.9776  0.9875  0.8780
  822MOL0     H13397  10.146   8.445  10.029 -1.1059 -1.8129 -2.1138
  822MOL0     H13398  10.254   8.972  10.342  0.7082 -1.5434  1.3294
  822MOL0     H13399  10.422   9.142  10.275  1.4552  1.2216 -0.3733
  822MOL0     H13400  10.827   9.012  10.148 -0.6989 -1.0367 -0.9684
  822MOL0     H13401  10.735   9.049  10.004 -0.1195 -1.2658 -0.1037
  822MOL0     H13402  10.786   9.294  10.026 -0.2480 -0.5554 -0.9705
  822MOL0     H13403  10.874   9.263  10.173  0.4140 -2.5603 -0.0342
  822MOL0     H13404  10.945   9.136   9.910  1.0222  0.3360  0.0268
  822MOL0     H13405  11.026   9.109  10.070  0.8090 -0.2042 -0.8499
  822MOL0     H13406  11.085   9.347  10.076  4.2110 -1.7258  0.8534
  822MOL0     H13407  11.013   9.372   9.916  4.1686  2.0096 -0.9051
  822MOL0     H13408  11.232   9.193   9.987 -0.4745  2.9005  3.1594
  822MOL0     H13409  11.181   9.217   9.809  1.4378 -0.3331 -0.0634
  822MOL0     H13410  11.306   9.411   9.992 -0.4632 -1.0214  0.6035
  822MOL0     H13411  11.233   9.458   9.836  1.4971  0.0758  0.0981
  822MOL0     H13412  11.390   9.309   9.707  2.6233 -1.3488 -0.8842
  822MOL0     H13413  11.472   9.261   9.860  0.5327  0.6741 -0.7648
  822MOL0     H13414  11.450   9.543   9.755 -1.6365  0.1069  1.6653
  822MOL0     H13415  11.587   9.434   9.740  0.7655  1.0523  0.2058
  822MOL0     H13416  10.678   8.843  10.124 -1.0198  1.1259 -1.6906
  822MOL0     H13417  10.525   8.668  10.199  2.3809  0.4045  2.7993
  822MOL0     H13418  10.143   8.522  10.536  1.2194  0.6257 -0.5418
  822MOL0     H13419   9.931   8.412  10.573 -0.5457  1.7751  0.6599
  822MOL0     H13420   7.902   8.377  10.888 -1.5940  1.9467  0.7521
  822MOL0     H13421   7.675   8.421  10.830 -4.1152 -0.1866 -3.1223
  822MOL0     H13422   7.345   8.459  10.566 -0.7961  0.2621  0.8576
  822MOL0     H13423   7.122   8.485  10.470 -0.5769  0.5954  0.7391
  822MOL0     H13424   6.875   8.804  10.279 -0.6377  0.3201  2.2380
  822MOL0     H13425   6.996   8.908  10.347 -1.5028  1.2325 -0.1870
  822MOL0     H13426   7.028   8.758  10.080  1.1555  0.9393 -0.9706
  822MOL0     H13427   7.150   8.853  10.155  0.0407  0.4006  0.1139
  822MOL0     H13428   6.984   9.050  10.171  0.1064 -1.3774  1.6893
  822MOL0     H13429   7.059   9.023  10.016 -0.7634  2.3919 -0.4472
  822MOL0     H13430   6.768   8.934  10.090  0.2086 -0.3208 -0.7421
  822MOL0     H13431   6.854   8.882   9.946  0.0952  2.3094 -0.4202
  822MOL0     H13432   6.785   9.287   9.849  0.9711 -0.0876 -0.4967
  822MOL0     H13433   7.242   8.896  10.370  1.0344  0.3377 -1.2699
  822MOL0     H13434   7.510   8.934  10.537 -2.6595  0.3090  1.0986
  822MOL0     H13435   7.549   8.882  10.365 -0.8146  1.0202  0.3451
  822MOL0     H13436   7.413   8.988  10.417 -0.6217  1.3875  4.0303
  823MOL0     O13437   2.912   3.005   6.659 -0.2378 -0.9747  0.2879
  823MOL0     C13438   2.907   3.045   6.541  0.8999 -0.4186  0.0576
  823MOL0     O13439   3.004   3.113   6.482  0.4709 -0.4891  0.9316
  823MOL0     C13440   3.122   3.144   6.544  0.8547  0.1844  0.0097
  823MOL0     C13441   3.170   3.270   6.550  0.7509  0.5747 -0.1722
  823MOL0     C13442   3.283   3.300   6.624  0.5476  0.2827  0.7655
  823MOL0     C13443   3.368   3.199   6.663 -0.2820 -0.3839 -0.7088
  823MOL0     O13444   3.500   3.209   6.707  0.4387 -0.5500 -0.5066
  823MOL0     C13445   3.546   3.341   6.744  0.8918  0.6433 -0.0473
  823MOL0     C13446   3.699   3.343   6.750 -0.6229 -0.0485 -0.6436
  823MOL0     C13447   3.769   3.231   6.838 -0.5997 -0.8498  0.0015
  823MOL0     C13448   3.927   3.220   6.836 -0.4804 -1.1491  0.9327
  823MOL0     C13449   3.956   3.080   6.891 -0.5659  0.4775 -0.5179
  823MOL0     C13450   4.105   3.050   6.894  0.0087  0.2405  0.2818
  823MOL0     C13451   4.197   3.151   6.978  0.0997  0.5913  0.3152
  823MOL0     C13452   4.179   3.162   7.128 -0.0643  0.9877  0.5690
  823MOL0     N13453   4.163   3.035   7.204 -0.5905  0.0539 -0.5679
  823MOL0     C13454   4.072   3.012   7.310 -0.1888  0.1665 -0.1738
  823MOL0     C13455   4.121   2.897   7.370  0.0757  0.1900  0.5315
  823MOL0     C13456   4.076   2.815   7.492  1.0095  0.1483 -0.5647
  823MOL0     C13457   3.923   2.837   7.526 -0.4004 -0.6478  0.3911
  823MOL0     C13458   3.829   2.814   7.399 -0.6370 -0.5814  0.6118
  823MOL0     C13459   3.685   2.839   7.448 -0.4560  0.6808  0.4226
  823MOL0     O13460   3.592   2.781   7.354  0.1707 -0.4430  0.5480
  823MOL0     C13461   3.457   2.785   7.396  0.1656 -0.3487  0.0937
  823MOL0     C13462   3.355   2.752   7.299  0.6866 -0.4036 -0.4269
  823MOL0     C13463   3.220   2.764   7.337  1.2201  0.0399 -0.4099
  823MOL0     C13464   3.132   2.717   7.224 -0.7994  0.7978  0.1808
  823MOL0     C13465   3.174   2.796   7.469  0.4806 -0.5738  0.6367
  823MOL0     C13466   3.031   2.813   7.506  0.4857 -0.1837  0.1110
  823MOL0     O13467   2.923   2.787   7.418  0.3862  0.6200 -0.0931
  823MOL0     C13468   2.791   2.822   7.438  0.1203  0.6740 -0.6197
  823MOL0     C13469   2.691   2.778   7.350 -0.2404 -0.1577  0.7037
  823MOL0     C13470   2.559   2.814   7.370 -0.3206 -0.2772  0.0997
  823MOL0     C13471   2.520   2.889   7.478  0.0611 -0.8526  0.1292
  823MOL0     O13472   2.389   2.919   7.496 -0.1445 -0.0057  0.3056
  823MOL0     C13473   2.286   2.852   7.420  0.2999  0.2903  0.1907
  823MOL0     C13474   2.274   2.708   7.486  0.0177  0.2295 -0.2473
  823MOL0     C13475   2.149   2.645   7.450 -0.1064  0.7758 -0.6845
  823MOL0     C13476   2.143   2.502   7.488 -0.1618 -0.1822  0.1032
  823MOL0     C13477   2.000   2.451   7.488  0.1118 -0.7745 -0.3337
  823MOL0     C13478   1.918   2.481   7.360 -0.6591 -0.6997 -0.2411
  823MOL0     C13479   1.765   2.436   7.375  0.5921  0.3858  0.0492
  823MOL0     C13480   1.708   2.369   7.243  0.2347  0.0776 -0.1837
  823MOL0    Cl13481   1.533   2.364   7.255  0.2063  0.1589  0.2443
  823MOL0     C13482   2.612   2.927   7.562 -0.5059  0.9174  0.2173
  823MOL0     C13483   2.746   2.885   7.552  0.2279 -0.1196 -1.1040
  823MOL0     O13484   3.019   2.829   7.625 -0.4639 -0.3358  0.6356
  823MOL0     C13485   3.275   2.810   7.563 -0.4054 -0.0779 -0.3549
  823MOL0     C13486   3.414   2.810   7.525  0.6424 -0.5910 -0.0793
  823MOL0     N13487   4.231   2.862   7.302 -0.4286  0.8313  0.4341
  823MOL0     N13488   4.255   2.942   7.207 -0.0367  0.3162  0.0482
  823MOL0     C13489   3.323   3.064   6.648  0.5979  0.1591 -0.5739
  823MOL0     C13490   3.193   3.038   6.607  0.4077 -0.7749  0.7670
  823MOL0     C13491   2.771   3.048   6.469  0.2438 -0.0962 -0.1071
  823MOL0     C13492   2.680   2.965   6.520 -0.0147 -0.3701 -0.5320
  823MOL0     C13493   2.549   2.948   6.473 -0.0717  0.3297  0.3905
  823MOL0     C13494   2.517   3.013   6.356 -0.2089  0.3366 -0.9072
  823MOL0     O13495   2.398   3.002   6.294 -0.0954  0.1305  0.1864
  823MOL0     C13496   2.288   2.930   6.354 -0.2097  0.6873 -0.3867
  823MOL0     C13497   2.180   2.911   6.249  0.1596 -0.4191 -0.4231
  823MOL0     C13498   2.118   2.769   6.278  0.3459 -0.4678  0.2457
  823MOL0     C13499   1.985   2.763   6.203 -0.4005  0.0013 -0.1948
  823MOL0     C13500   1.890   2.670   6.267  0.5908 -0.2812  0.3586
  823MOL0     C13501   1.787   2.611   6.315  0.0707 -0.3657 -0.1150
  823MOL0     C13502   2.610   3.096   6.289 -0.8980 -0.2946  0.7050
  823MOL0     C13503   2.738   3.118   6.353 -0.4811 -0.9138  0.5194
  823MOL0     C13504   2.817   3.232   6.289 -0.0792  0.4774  0.1802
  823MOL0     H13505   3.105   3.353   6.524  2.5034  1.7016 -1.2034
  823MOL0     H13506   3.306   3.407   6.627 -0.0275  0.5223 -1.4534
  823MOL0     H13507   3.506   3.369   6.842  3.9909  1.8374  1.0085
  823MOL0     H13508   3.517   3.412   6.666  0.6961  1.0570  0.3958
  823MOL0     H13509   3.744   3.335   6.650 -1.5716 -1.8324 -0.9682
  823MOL0     H13510   3.722   3.446   6.780 -3.4782  1.1215 -2.0765
  823MOL0     H13511   3.730   3.255   6.938 -0.9406 -2.1108  0.1896
  823MOL0     H13512   3.716   3.138   6.814 -2.9092  0.6336 -0.9627
  823MOL0     H13513   3.970   3.235   6.737 -3.3365  2.0602 -0.0337
  823MOL0     H13514   3.977   3.297   6.895  2.4606  0.8099 -3.6193
  823MOL0     H13515   3.908   3.001   6.832  0.0389 -1.0415  0.9438
  823MOL0     H13516   3.919   3.084   6.994  1.7115  1.6495  0.3149
  823MOL0     H13517   4.130   2.948   6.927 -5.1620 -0.4485  3.0053
  823MOL0     H13518   4.130   3.056   6.787 -1.1993 -2.7814 -0.2983
  823MOL0     H13519   4.188   3.251   6.935  1.4182 -0.5582 -2.9234
  823MOL0     H13520   4.302   3.132   6.956  0.7557  2.6617  1.4296
  823MOL0     H13521   4.261   3.222   7.169  0.6943  0.3202  0.0648
  823MOL0     H13522   4.082   3.211   7.143 -1.8903 -2.4022  0.7119
  823MOL0     H13523   3.995   3.082   7.339  2.1699  3.7357 -1.9047
  823MOL0     H13524   4.131   2.853   7.579  0.6896 -1.1831  0.2617
  823MOL0     H13525   4.098   2.708   7.483  1.8448  0.2041  0.5894
  823MOL0     H13526   3.893   2.769   7.606  1.1749 -1.1374  0.6035
  823MOL0     H13527   3.918   2.937   7.570  1.4581 -1.5846  2.9331
  823MOL0     H13528   3.856   2.874   7.312  1.2959  0.4796  1.8608
  823MOL0     H13529   3.835   2.707   7.375  1.0516 -0.5847  0.9143
  823MOL0     H13530   3.676   2.780   7.539  0.2833 -3.7008 -2.0678
  823MOL0     H13531   3.672   2.948   7.458 -2.2579  0.6405 -1.1081
  823MOL0     H13532   3.379   2.713   7.201 -0.9126 -2.4790 -0.0814
  823MOL0     H13533   3.079   2.626   7.253 -2.9052  1.2984 -1.8689
  823MOL0     H13534   3.177   2.692   7.127 -0.1692 -2.9203  1.2636
  823MOL0     H13535   3.051   2.789   7.212  0.6915  2.4390 -0.5252
  823MOL0     H13536   2.706   2.701   7.275 -3.4994  0.0127 -0.2945
  823MOL0     H13537   2.497   2.767   7.295 -0.2241 -0.8064  0.3428
  823MOL0     H13538   2.194   2.911   7.435 -1.6598 -2.5170  0.0630
  823MOL0     H13539   2.297   2.855   7.311  0.9253  1.7036  0.2713
  823MOL0     H13540   2.362   2.651   7.455  0.4881 -2.0332  4.3780
  823MOL0     H13541   2.276   2.717   7.595 -2.2177  1.1135 -0.2310
  823MOL0     H13542   2.126   2.661   7.345 -0.0211  0.1317 -0.8052
  823MOL0     H13543   2.068   2.686   7.512 -0.4220 -1.2183  0.3194
  823MOL0     H13544   2.183   2.485   7.588  1.1061 -0.2114 -0.3892
  823MOL0     H13545   2.208   2.447   7.419  3.4708 -0.6485  3.5435
  823MOL0     H13546   2.016   2.345   7.508  0.4118 -0.5739  0.5302
  823MOL0     H13547   1.945   2.489   7.574  0.2332  3.5907 -1.9218
  823MOL0     H13548   1.966   2.429   7.276  0.0359  0.8245 -0.8262
  823MOL0     H13549   1.916   2.587   7.333 -1.4556 -1.2196 -2.4664
  823MOL0     H13550   1.716   2.529   7.407  1.1526 -0.0519  2.3508
  823MOL0     H13551   1.741   2.364   7.453 -0.9888  1.4166  0.5672
  823MOL0     H13552   1.753   2.269   7.242  1.2945  0.4523  2.1200
  823MOL0     H13553   1.741   2.435   7.162 -0.1971  0.2672 -0.2029
  823MOL0     H13554   2.578   2.986   7.646 -0.7889 -0.6493  1.2353
  823MOL0     H13555   2.804   2.923   7.636  1.6698 -0.3097 -1.9917
  823MOL0     H13556   3.254   2.842   7.665  3.1257  0.8877  0.2204
  823MOL0     H13557   3.486   2.823   7.605  0.5680  1.6971 -0.3349
  823MOL0     H13558   3.390   2.983   6.674 -0.2893  0.5512  3.7987
  823MOL0     H13559   3.164   2.934   6.601  2.0216 -1.3040  1.6500
  823MOL0     H13560   2.706   2.909   6.609 -1.7193 -2.5406 -1.3076
  823MOL0     H13561   2.482   2.883   6.527  1.8634 -1.6644  0.5438
  823MOL0     H13562   2.307   2.829   6.391 -3.0188 -1.1766 -3.5021
  823MOL0     H13563   2.253   2.984   6.442  0.3941 -1.7203  1.4314
  823MOL0     H13564   2.221   2.921   6.148 -2.8992  1.6581 -1.6174
  823MOL0     H13565   2.102   2.987   6.254  0.2488 -0.3492 -0.0785
  823MOL0     H13566   2.187   2.690   6.247 -0.7499 -0.9606 -1.0285
  823MOL0     H13567   2.105   2.757   6.386  0.4922 -2.7122  0.0605
  823MOL0     H13568   2.003   2.738   6.098 -0.8335 -1.0686 -0.0320
  823MOL0     H13569   1.940   2.863   6.204  2.6692  1.5027 -0.8598
  823MOL0     H13570   1.697   2.554   6.320  0.6387 -1.6576 -2.7676
  823MOL0     H13571   2.573   3.144   6.199 -0.6870  0.1063  0.8291
  823MOL0     H13572   2.753   3.290   6.223 -1.2213 -0.3379  0.5387
  823MOL0     H13573   2.857   3.298   6.367 -1.2927  2.2420 -0.6289
  823MOL0     H13574   2.895   3.186   6.228 -0.6063  1.1678 -1.0372
  824MOL0     O13575   2.158   4.953   1.688  0.1897 -0.0862 -0.4793
  824MOL0     C13576   2.151   5.054   1.623  0.0259  0.1210 -0.0509
  824MOL0     O13577   2.058   5.062   1.522  0.1143  0.1540 -0.6577
  824MOL0     C13578   1.933   4.997   1.528 -0.1694  0.9240 -0.0629
  824MOL0     C13579   1.846   5.025   1.631  0.5910  0.3252  0.3288
  824MOL0     C13580   1.720   4.957   1.649  0.9046  0.3437  0.9535
  824MOL0     C13581   1.690   4.856   1.549  0.1530 -0.6910  0.6971
  824MOL0     O13582   1.577   4.776   1.542  0.1001 -0.0772  0.1781
  824MOL0     C13583   1.486   4.800   1.649 -0.5527 -0.0842 -1.1409
  824MOL0     C13584   1.360   4.712   1.626 -0.5305  0.0004  0.1010
  824MOL0     C13585   1.257   4.744   1.735 -0.0526  0.2743 -1.0171
  824MOL0     C13586   1.130   4.657   1.726 -0.7980 -0.4306 -0.6241
  824MOL0     C13587   0.997   4.712   1.785 -0.7741 -0.1695 -0.8060
  824MOL0     C13588   0.898   4.591   1.797  0.1137 -0.2151 -0.0827
  824MOL0     C13589   0.772   4.636   1.889  0.8269  0.7155 -0.2459
  824MOL0     C13590   0.652   4.546   1.864 -0.4208 -0.2592 -0.0107
  824MOL0     N13591   0.653   4.411   1.933 -0.2142 -0.2679  0.2612
  824MOL0     C13592   0.744   4.307   1.913  0.4588 -0.4206 -0.3332
  824MOL0     C13593   0.695   4.214   1.988  0.3820  0.2087 -1.0809
  824MOL0     C13594   0.752   4.074   1.980 -0.3548  0.0530 -0.7276
  824MOL0     C13595   0.748   4.007   2.121  1.0049  0.2965  0.4244
  824MOL0     C13596   0.836   4.069   2.237 -0.8111  0.5193 -0.3235
  824MOL0     C13597   0.984   4.087   2.211 -1.0748  0.0504 -0.2065
  824MOL0     O13598   1.040   3.953   2.197 -0.1734 -0.3061  0.4737
  824MOL0     C13599   1.166   3.931   2.148 -0.2306 -0.3080 -0.6346
  824MOL0     C13600   1.277   4.017   2.168  0.6120  0.0171 -0.6536
  824MOL0     C13601   1.409   3.989   2.115  0.1393 -0.6519 -0.3183
  824MOL0     C13602   1.510   4.097   2.123 -0.1681  0.8493  0.1888
  824MOL0     C13603   1.428   3.866   2.041  0.0945  0.1081  0.2045
  824MOL0     C13604   1.563   3.822   1.990 -0.0607  0.0208 -1.0752
  824MOL0     O13605   1.583   3.685   1.981  0.6880 -0.5456 -0.4683
  824MOL0     C13606   1.699   3.634   1.927 -0.1639  0.8913  0.1960
  824MOL0     C13607   1.737   3.647   1.791 -0.3263  0.3933  0.5292
  824MOL0     C13608   1.866   3.605   1.747 -0.6283  0.5083  0.3465
  824MOL0     C13609   1.955   3.528   1.832 -0.1754 -0.3568 -1.0622
  824MOL0     O13610   2.083   3.488   1.799 -0.9201  0.1383 -0.6905
  824MOL0     C13611   2.147   3.539   1.676 -0.5920  0.1081 -0.0046
  824MOL0     C13612   2.287   3.485   1.681 -0.0120 -0.5002  0.1519
  824MOL0     C13613   2.377   3.515   1.564  0.2379  0.7054  0.6049
  824MOL0     C13614   2.529   3.479   1.591  0.7932  0.6015 -0.2095
  824MOL0     C13615   2.584   3.351   1.519  0.1783 -0.6496 -0.1853
  824MOL0     C13616   2.617   3.380   1.370  0.7941 -0.4364  0.1130
  824MOL0     C13617   2.720   3.286   1.321  0.0585  0.1453 -0.8293
  824MOL0     C13618   2.666   3.146   1.303 -0.2719  0.1952  1.4084
  824MOL0    Cl13619   2.800   3.040   1.266  0.2062 -0.1692 -0.1836
  824MOL0     C13620   1.905   3.502   1.957 -0.1563  1.2304 -0.0393
  824MOL0     C13621   1.786   3.556   2.008  1.1030  0.7791  1.0809
  824MOL0     O13622   1.643   3.896   1.942  0.0273  0.7951  0.1792
  824MOL0     C13623   1.312   3.783   2.021 -0.6425  0.0587 -0.5377
  824MOL0     C13624   1.186   3.826   2.063  0.0769  0.2705 -0.0434
  824MOL0     N13625   0.580   4.255   2.057 -0.6150  0.1209  0.1162
  824MOL0     N13626   0.555   4.375   2.024  0.5199 -0.6593 -0.0209
  824MOL0     C13627   1.779   4.844   1.443  0.5186  0.1803 -1.0923
  824MOL0     C13628   1.898   4.908   1.429 -0.2480 -0.1478 -0.1309
  824MOL0     C13629   2.243   5.169   1.643  0.0867  0.2643 -0.2571
  824MOL0     C13630   2.212   5.291   1.592 -0.0375  0.7926 -0.8464
  824MOL0     C13631   2.292   5.404   1.616  0.3469  0.4799  0.5743
  824MOL0     C13632   2.402   5.397   1.695  0.3908 -0.2337 -0.0911
  824MOL0     O13633   2.484   5.506   1.727  0.0467  0.0683 -0.0292
  824MOL0     C13634   2.450   5.644   1.703 -0.1592  0.5296 -0.7950
  824MOL0     C13635   2.495   5.702   1.572 -0.8818  0.4314 -0.0166
  824MOL0     C13636   2.635   5.762   1.573 -0.4301 -0.6703  0.1338
  824MOL0     C13637   2.675   5.813   1.426  0.3945  0.3791  0.2282
  824MOL0     C13638   2.821   5.830   1.415  0.1737 -0.1288 -0.6678
  824MOL0     C13639   2.944   5.830   1.408  1.0981 -0.1103 -0.2699
  824MOL0     C13640   2.440   5.271   1.746  0.1086  0.1630  0.8941
  824MOL0     C13641   2.371   5.159   1.707 -0.3760  0.0667  0.2430
  824MOL0     C13642   2.429   5.024   1.750 -0.1732  0.6024 -0.0938
  824MOL0     H13643   1.862   5.098   1.710 -3.0366  1.5091  0.1180
  824MOL0     H13644   1.651   4.974   1.731 -0.5612 -2.4406  0.4117
  824MOL0     H13645   1.456   4.905   1.646  1.5536  0.5644 -0.8105
  824MOL0     H13646   1.530   4.765   1.743 -2.4501 -0.8139 -0.4512
  824MOL0     H13647   1.322   4.760   1.535 -0.8388 -3.0334 -1.4981
  824MOL0     H13648   1.377   4.604   1.621 -2.3617 -0.2492 -1.8305
  824MOL0     H13649   1.311   4.720   1.827  2.6706  1.0320 -2.2880
  824MOL0     H13650   1.242   4.852   1.727  1.5431  0.4938 -1.4069
  824MOL0     H13651   1.117   4.647   1.617  0.0581  1.0930 -0.8895
  824MOL0     H13652   1.152   4.559   1.770  0.5161  0.7956  1.6201
  824MOL0     H13653   0.961   4.785   1.712  2.2399  1.2091 -1.0265
  824MOL0     H13654   1.017   4.770   1.876  2.1613  1.6352 -2.4360
  824MOL0     H13655   0.867   4.530   1.712  2.1994 -4.4871  1.8837
  824MOL0     H13656   0.950   4.522   1.865 -0.0161  1.4537  1.7968
  824MOL0     H13657   0.750   4.737   1.853 -2.1447 -0.7102 -2.8735
  824MOL0     H13658   0.795   4.645   1.995 -0.0995  1.5038 -0.0983
  824MOL0     H13659   0.563   4.584   1.915  0.3011  1.0938  0.2797
  824MOL0     H13660   0.633   4.541   1.756  0.9773 -3.2876 -0.2414
  824MOL0     H13661   0.827   4.313   1.843  0.7105  2.2953  0.0915
  824MOL0     H13662   0.858   4.078   1.952  0.1520  0.7511  1.0783
  824MOL0     H13663   0.691   4.026   1.904 -1.2239  3.7707 -2.5709
  824MOL0     H13664   0.643   4.008   2.153  1.6086 -1.6414  2.7405
  824MOL0     H13665   0.761   3.899   2.112 -1.8598 -0.0802 -0.3609
  824MOL0     H13666   0.783   4.162   2.258 -3.3224 -1.6054  4.3864
  824MOL0     H13667   0.821   4.010   2.328 -2.6790 -0.0729 -0.9713
  824MOL0     H13668   1.006   4.145   2.120  2.6455 -1.3994 -0.4038
  824MOL0     H13669   1.032   4.139   2.294 -0.7963  0.5718 -0.6838
  824MOL0     H13670   1.254   4.109   2.220 -1.5855 -1.9525  2.1292
  824MOL0     H13671   1.541   4.138   2.027 -0.4229  1.0307  0.1828
  824MOL0     H13672   1.598   4.049   2.168 -0.1034 -0.1335 -0.9675
  824MOL0     H13673   1.477   4.181   2.186 -2.3460 -0.7210  1.2641
  824MOL0     H13674   1.664   3.703   1.733 -0.1154  0.6248  0.4841
  824MOL0     H13675   1.894   3.633   1.646  0.2918  1.1354  0.7564
  824MOL0     H13676   2.087   3.500   1.593 -1.1732  0.2269  0.3529
  824MOL0     H13677   2.151   3.648   1.673 -0.0370  0.0954  0.2158
  824MOL0     H13678   2.329   3.506   1.780  0.2807 -0.5616  0.0406
  824MOL0     H13679   2.285   3.376   1.684  0.0475 -0.4867  1.0564
  824MOL0     H13680   2.375   3.624   1.552 -0.8294  0.8491  1.8853
  824MOL0     H13681   2.335   3.459   1.479  1.3321  2.1051 -0.9232
  824MOL0     H13682   2.534   3.452   1.697 -0.9612  0.8044 -0.0458
  824MOL0     H13683   2.591   3.567   1.573  0.8502  0.4933 -0.5400
  824MOL0     H13684   2.675   3.319   1.572  0.7348 -0.1583 -0.8256
  824MOL0     H13685   2.522   3.261   1.531 -1.6424  0.6986  0.9761
  824MOL0     H13686   2.650   3.484   1.362 -3.9584  1.4692  1.5441
  824MOL0     H13687   2.530   3.375   1.304  1.0007 -4.6307 -0.1045
  824MOL0     H13688   2.798   3.275   1.397 -2.7008 -2.9111  1.9316
  824MOL0     H13689   2.760   3.327   1.228  1.8277  4.5427  1.5581
  824MOL0     H13690   2.609   3.148   1.210  1.6607  1.0017  0.1689
  824MOL0     H13691   2.612   3.105   1.389 -0.6541 -1.3540  0.4846
  824MOL0     H13692   1.965   3.437   2.020 -0.8004  0.3966 -0.2865
  824MOL0     H13693   1.756   3.543   2.112  2.2454  3.4459  1.8290
  824MOL0     H13694   1.308   3.690   1.966  1.4386 -1.0282  0.9851
  824MOL0     H13695   1.112   3.751   2.040  2.0617 -1.4238 -1.2791
  824MOL0     H13696   1.745   4.778   1.364 -0.9889  2.4301 -2.4713
  824MOL0     H13697   1.963   4.897   1.342  3.2459 -3.0366  2.5082
  824MOL0     H13698   2.117   5.314   1.544  0.3324  0.1654 -1.8948
  824MOL0     H13699   2.268   5.501   1.571  1.6552  0.9865  0.9483
  824MOL0     H13700   2.341   5.653   1.714 -0.5597 -2.4413 -1.5442
  824MOL0     H13701   2.498   5.689   1.790  2.9222 -0.6596 -1.7279
  824MOL0     H13702   2.417   5.775   1.548 -0.9014  0.1614 -0.8083
  824MOL0     H13703   2.486   5.630   1.490  0.0300 -1.3043  1.3486
  824MOL0     H13704   2.633   5.847   1.642  0.1778  0.7025 -1.4803
  824MOL0     H13705   2.716   5.691   1.594 -1.2042 -1.3195  1.0321
  824MOL0     H13706   2.619   5.901   1.392 -1.1073 -2.1313 -4.7096
  824MOL0     H13707   2.651   5.736   1.352  1.1327 -0.7072  1.0941
  824MOL0     H13708   3.051   5.829   1.415  1.2303 -1.7565 -1.8430
  824MOL0     H13709   2.520   5.259   1.819  1.1113 -0.2752 -0.2486
  824MOL0     H13710   2.417   4.945   1.676 -2.5149  0.5259  0.2878
  824MOL0     H13711   2.534   5.031   1.780 -0.6415 -0.8049  2.1909
  824MOL0     H13712   2.368   4.996   1.837 -1.2986  0.4860 -0.9006
  825MOL0     O13713   2.634   8.009   1.757  0.1124 -0.1805  0.2725
  825MOL0     C13714   2.577   8.120   1.771  0.2895 -0.0858  0.7379
  825MOL0     O13715   2.639   8.235   1.784 -0.0473  0.7574  0.0499
  825MOL0     C13716   2.770   8.244   1.771  0.0725 -1.4580 -0.3473
  825MOL0     C13717   2.827   8.207   1.652  0.3996 -0.5425  0.5207
  825MOL0     C13718   2.966   8.214   1.631  0.5451 -0.0661 -0.0657
  825MOL0     C13719   3.050   8.266   1.726  0.9261  0.4931  0.3488
  825MOL0     O13720   3.189   8.261   1.701  0.5292  0.5390 -0.2209
  825MOL0     C13721   3.278   8.248   1.818 -0.0995 -0.1907 -0.2846
  825MOL0     C13722   3.385   8.147   1.786 -0.3101  0.7626 -0.0548
  825MOL0     C13723   3.333   8.007   1.764  0.2870  0.4125  0.6544
  825MOL0     C13724   3.262   7.940   1.881 -0.3901 -0.0934 -0.3793
  825MOL0     C13725   3.347   7.932   2.004  0.0813 -0.3643 -0.0796
  825MOL0     C13726   3.466   7.843   1.976  0.0521  0.4351 -0.5233
  825MOL0     C13727   3.530   7.776   2.103  0.4076  1.0323 -0.4939
  825MOL0     C13728   3.580   7.871   2.219  0.5417 -0.1128 -0.0707
  825MOL0     N13729   3.643   7.997   2.163 -0.2402  0.3861 -0.2636
  825MOL0     C13730   3.739   8.002   2.061 -0.1699 -0.6320 -0.2978
  825MOL0     C13731   3.722   8.124   2.014 -0.8884 -0.4604  0.5977
  825MOL0     C13732   3.807   8.184   1.905  0.3288  0.4286 -0.5376
  825MOL0     C13733   3.930   8.242   1.954 -0.8301  0.2939  0.5926
  825MOL0     C13734   4.034   8.256   1.846  0.3353  0.4033 -0.2692
  825MOL0     C13735   4.173   8.296   1.896  0.3768 -0.8583 -0.3263
  825MOL0     O13736   4.182   8.437   1.914  0.5307  0.6110 -0.4036
  825MOL0     C13737   4.311   8.492   1.927  0.0013  0.0530  0.6550
  825MOL0     C13738   4.311   8.632   1.942 -0.2936  0.1487 -0.5288
  825MOL0     C13739   4.423   8.707   1.965 -0.0131 -0.4555 -0.0699
  825MOL0     C13740   4.403   8.850   1.958 -0.9458 -0.3865  0.0610
  825MOL0     C13741   4.547   8.638   1.984  0.1629  0.6797 -0.0917
  825MOL0     C13742   4.678   8.709   2.019  0.0587 -0.7169  0.3129
  825MOL0     O13743   4.789   8.629   2.016 -0.1927  0.4465 -0.5179
  825MOL0     C13744   4.912   8.671   2.061  0.4387 -0.1023  0.5581
  825MOL0     C13745   4.973   8.778   2.002 -0.2307 -0.1402 -0.5726
  825MOL0     C13746   5.101   8.814   2.050  0.3894 -0.3191  0.1498
  825MOL0     C13747   5.176   8.741   2.144  0.0997  0.4611  0.9211
  825MOL0     O13748   5.293   8.782   2.202 -0.6822  0.2746 -0.0512
  825MOL0     C13749   5.362   8.900   2.148 -0.3893 -0.2427 -0.2362
  825MOL0     C13750   5.499   8.927   2.215 -0.0590  0.6237 -1.0026
  825MOL0     C13751   5.597   8.807   2.199 -0.1623 -0.1896  0.2409
  825MOL0     C13752   5.678   8.831   2.067  0.1232 -0.5679 -0.6728
  825MOL0     C13753   5.789   8.723   2.042 -0.7778  0.6698  0.0904
  825MOL0     C13754   5.913   8.735   2.134  0.6389 -0.9235  0.3001
  825MOL0     C13755   6.031   8.644   2.118 -0.2613 -0.3866 -0.3459
  825MOL0     C13756   6.123   8.684   1.992 -0.5851  0.7538 -0.7990
  825MOL0    Cl13757   6.220   8.546   1.938 -0.4194 -0.0594 -0.0395
  825MOL0     C13758   5.103   8.640   2.209 -0.0741  0.2129 -0.0251
  825MOL0     C13759   4.977   8.604   2.168  0.6025 -0.2214  0.1668
  825MOL0     O13760   4.683   8.820   2.066 -0.7756  0.1445 -0.1130
  825MOL0     C13761   4.547   8.495   1.970  0.6043 -1.3173  0.3101
  825MOL0     C13762   4.429   8.424   1.942  0.6615 -0.0719  0.6172
  825MOL0     N13763   3.628   8.194   2.092 -0.1983 -0.0915  0.8637
  825MOL0     N13764   3.580   8.115   2.173  0.1505  0.4229  0.3975
  825MOL0     C13765   2.991   8.305   1.845 -0.5869 -0.2666 -1.1993
  825MOL0     C13766   2.854   8.300   1.869 -0.6235 -0.2162 -0.5392
  825MOL0     C13767   2.429   8.110   1.778 -0.1114  0.1024  0.1398
  825MOL0     C13768   2.358   8.019   1.856 -0.5689 -0.3862 -0.0330
  825MOL0     C13769   2.228   7.992   1.853 -0.1161  0.5277 -0.3671
  825MOL0     C13770   2.146   8.077   1.780 -0.0233  0.2669 -0.5204
  825MOL0     O13771   2.011   8.065   1.801 -0.7913  0.3745 -0.0105
  825MOL0     C13772   1.925   8.122   1.705 -0.5864 -0.4874  0.5485
  825MOL0     C13773   1.785   8.056   1.720 -0.5418 -0.5108  0.3106
  825MOL0     C13774   1.726   8.058   1.858 -0.5577 -1.8225  0.7475
  825MOL0     C13775   1.584   8.003   1.856 -0.2515  0.0438 -0.3092
  825MOL0     C13776   1.521   8.026   1.982  0.7435  0.0658 -0.1719
  825MOL0     C13777   1.476   8.035   2.091  0.3192  0.4121 -0.4444
  825MOL0     C13778   2.206   8.175   1.700  0.9145 -0.2801 -0.5932
  825MOL0     C13779   2.345   8.198   1.706  0.3872 -0.3524  1.1365
  825MOL0     C13780   2.409   8.303   1.627  0.2784 -0.6880 -0.1840
  825MOL0     H13781   2.762   8.155   1.583  0.2767 -1.6015  1.4057
  825MOL0     H13782   3.001   8.156   1.546  1.4333  1.0559 -0.5023
  825MOL0     H13783   3.230   8.205   1.907  0.4628  0.6709  0.4589
  825MOL0     H13784   3.325   8.344   1.842  2.0404 -1.3307  0.3198
  825MOL0     H13785   3.426   8.189   1.694  1.0983 -1.9181 -0.7204
  825MOL0     H13786   3.465   8.150   1.860  0.2892 -3.4803 -0.3179
  825MOL0     H13787   3.263   7.997   1.680 -1.5455 -0.7048  2.2370
  825MOL0     H13788   3.421   7.943   1.749 -0.6591 -1.2453  1.8720
  825MOL0     H13789   3.170   7.999   1.894  1.4662  2.5331  2.3698
  825MOL0     H13790   3.239   7.838   1.851 -2.5961 -0.0151  0.8357
  825MOL0     H13791   3.290   7.887   2.086 -1.2593  1.6186  0.1359
  825MOL0     H13792   3.381   8.031   2.036  2.0106 -1.8157  2.8873
  825MOL0     H13793   3.430   7.760   1.913 -1.3710  0.2019  0.5308
  825MOL0     H13794   3.539   7.910   1.932  0.6174 -0.8032 -1.5396
  825MOL0     H13795   3.612   7.712   2.070 -2.6116 -3.3096 -0.4303
  825MOL0     H13796   3.458   7.704   2.144 -1.1258  2.2334 -0.9800
  825MOL0     H13797   3.504   7.900   2.292 -1.9819  0.8054 -2.8582
  825MOL0     H13798   3.641   7.819   2.293  0.9890  4.3739  3.1340
  825MOL0     H13799   3.804   7.922   2.027 -1.0503 -1.7437  0.5869
  825MOL0     H13800   3.751   8.268   1.861 -0.6553  0.4765  0.7670
  825MOL0     H13801   3.821   8.115   1.821 -1.4241 -0.0867 -0.4523
  825MOL0     H13802   3.911   8.345   1.988  2.0436  1.5353 -1.1928
  825MOL0     H13803   3.976   8.199   2.044  2.0606  1.1090 -0.3818
  825MOL0     H13804   4.044   8.154   1.809 -2.2687 -1.2151  3.0343
  825MOL0     H13805   4.009   8.326   1.765 -1.5040 -0.7531 -0.7457
  825MOL0     H13806   4.190   8.248   1.993  1.5552 -1.4558 -0.8121
  825MOL0     H13807   4.250   8.257   1.829  3.4203 -0.7271  2.7659
  825MOL0     H13808   4.214   8.677   1.928 -1.0452  0.0793  3.4182
  825MOL0     H13809   4.427   8.901   2.052  0.8315 -1.4132  0.2059
  825MOL0     H13810   4.297   8.869   1.941 -1.4653  0.5813  3.5281
  825MOL0     H13811   4.467   8.893   1.880 -0.4223 -0.0947  0.6428
  825MOL0     H13812   4.933   8.832   1.916  0.6724 -0.5843 -1.2916
  825MOL0     H13813   5.153   8.893   1.997 -2.0121  1.8766  0.9008
  825MOL0     H13814   5.370   8.889   2.040 -1.3740 -0.3978 -0.3057
  825MOL0     H13815   5.299   8.988   2.165 -0.9679 -0.8000  0.6331
  825MOL0     H13816   5.551   9.015   2.177  2.9991 -1.4604 -1.9760
  825MOL0     H13817   5.484   8.941   2.323  3.9363 -1.3846  0.0072
  825MOL0     H13818   5.550   8.709   2.188  1.2804 -0.9418  0.5150
  825MOL0     H13819   5.666   8.811   2.284 -0.3458  1.2247  0.3446
  825MOL0     H13820   5.736   8.922   2.083  1.2569 -1.2705 -0.7004
  825MOL0     H13821   5.623   8.835   1.973  0.6669  0.2066 -0.9643
  825MOL0     H13822   5.748   8.622   2.042 -1.9886  1.1474 -0.5209
  825MOL0     H13823   5.814   8.742   1.938 -1.3988 -1.2652 -0.4452
  825MOL0     H13824   5.868   8.719   2.233 -3.4744 -0.1610 -1.2195
  825MOL0     H13825   5.946   8.839   2.132 -1.3698 -0.2451 -1.0185
  825MOL0     H13826   5.985   8.548   2.094 -3.2188  0.5246  1.1802
  825MOL0     H13827   6.097   8.630   2.204 -0.1377 -2.6942 -0.7508
  825MOL0     H13828   6.193   8.759   2.030  0.1086  0.0896 -0.7477
  825MOL0     H13829   6.069   8.721   1.905  1.4901  4.4416 -0.7158
  825MOL0     H13830   5.133   8.582   2.295 -0.6314 -1.0377 -0.6469
  825MOL0     H13831   4.926   8.522   2.218 -0.3517 -1.1179 -2.1628
  825MOL0     H13832   4.642   8.446   1.984  0.9785  0.1836  4.6064
  825MOL0     H13833   4.429   8.316   1.936  1.4181 -0.0010 -1.1900
  825MOL0     H13834   3.065   8.330   1.921  0.7577 -0.3976 -2.4101
  825MOL0     H13835   2.821   8.316   1.971  1.8877 -0.9314  0.4529
  825MOL0     H13836   2.407   7.941   1.913  0.0151 -0.7230 -0.9699
  825MOL0     H13837   2.196   7.915   1.923  2.5507  0.5754  1.0385
  825MOL0     H13838   1.901   8.228   1.714 -0.9565 -0.6231  1.2719
  825MOL0     H13839   1.971   8.108   1.607  3.6359 -2.3996  2.5384
  825MOL0     H13840   1.799   7.954   1.683 -1.9391  0.5867 -3.7862
  825MOL0     H13841   1.712   8.092   1.647 -0.3977 -0.2428  0.2954
  825MOL0     H13842   1.782   8.000   1.933 -0.8902 -1.8554  0.9770
  825MOL0     H13843   1.714   8.160   1.895  0.1622 -1.3452 -0.2980
  825MOL0     H13844   1.584   7.896   1.833  1.1264 -0.1012  0.2792
  825MOL0     H13845   1.527   8.040   1.770  0.1294 -0.6496 -0.8629
  825MOL0     H13846   1.420   8.033   2.183 -1.8310 -2.8065 -1.6379
  825MOL0     H13847   2.142   8.229   1.631 -1.9736 -1.2909  1.1142
  825MOL0     H13848   2.351   8.362   1.555 -0.9537 -0.3522  1.0378
  825MOL0     H13849   2.451   8.380   1.693 -0.2894 -0.0318 -0.5632
  825MOL0     H13850   2.479   8.248   1.564  0.5920  1.6866 -2.0614
  826MOL0     O13851   4.987  10.778   7.024 -0.5358 -0.3800  0.8068
  826MOL0     C13852   4.895  10.858   7.024 -0.1633 -0.3236  0.4080
  826MOL0     O13853   4.888  10.977   6.954  0.0032 -0.2972  0.4619
  826MOL0     C13854   5.002  11.027   6.894  0.2121 -0.1160 -0.6441
  826MOL0     C13855   5.080  11.118   6.973  0.8936  0.1025  0.1548
  826MOL0     C13856   5.200  11.160   6.914  0.4268 -0.3464 -0.1895
  826MOL0     C13857   5.237  11.119   6.789 -0.6683  0.5537  0.3228
  826MOL0     O13858   5.348  11.155   6.723  0.4017 -0.9422  0.5137
  826MOL0     C13859   5.472  11.146   6.791 -0.4249  0.1902 -0.7889
  826MOL0     C13860   5.518  11.001   6.814  0.8021  0.1736  0.9773
  826MOL0     C13861   5.636  10.981   6.904 -0.7350  0.0533 -0.7147
  826MOL0     C13862   5.671  10.841   6.921 -0.0430 -0.1544  0.0666
  826MOL0     C13863   5.778  10.819   7.035 -0.5333 -0.4173 -0.0552
  826MOL0     C13864   5.928  10.858   7.008 -0.3256 -0.4228  0.6940
  826MOL0     C13865   6.012  10.822   7.125 -0.4274 -0.6192  0.3705
  826MOL0     C13866   6.158  10.823   7.074 -0.5796 -0.2049  0.1593
  826MOL0     N13867   6.252  10.770   7.185  0.0754 -0.6321 -0.0738
  826MOL0     C13868   6.338  10.664   7.174  1.0609  0.3746  0.3830
  826MOL0     C13869   6.397  10.642   7.297 -0.4874  0.0532  0.0808
  826MOL0     C13870   6.489  10.529   7.315 -1.0504 -0.3782 -0.0861
  826MOL0     C13871   6.411  10.423   7.387 -0.5651 -0.4653 -0.0257
  826MOL0     C13872   6.501  10.297   7.401  0.5789  0.9098 -0.3073
  826MOL0     C13873   6.595  10.301   7.520 -0.0465  0.4698  0.2433
  826MOL0     O13874   6.711  10.209   7.503 -0.2407  0.4193  0.3078
  826MOL0     C13875   6.806  10.187   7.604  0.1105  0.0476  0.4656
  826MOL0     C13876   6.791  10.256   7.725 -0.2702  0.2189 -0.0336
  826MOL0     C13877   6.898  10.253   7.819  1.3837  0.5911 -0.1346
  826MOL0     C13878   6.882  10.340   7.942  0.1312 -0.2289  0.1107
  826MOL0     C13879   6.995  10.148   7.809 -0.1467  0.1996  0.2131
  826MOL0     C13880   7.098  10.115   7.913  0.5390 -0.6360  0.4631
  826MOL0     O13881   7.104  10.196   8.027 -0.5946  0.4053 -0.1635
  826MOL0     C13882   7.197  10.174   8.127 -0.2673  0.3486  0.2274
  826MOL0     C13883   7.160  10.228   8.245  0.7230  0.1595  0.5334
  826MOL0     C13884   7.238  10.221   8.359  0.6372  0.3737  0.3978
  826MOL0     C13885   7.366  10.164   8.357  0.8049 -0.4954 -0.3429
  826MOL0     O13886   7.434  10.161   8.481  0.0948  0.5480  0.5277
  826MOL0     C13887   7.572  10.122   8.483  0.2323  0.6940 -0.4888
  826MOL0     C13888   7.611  10.139   8.622 -0.0154  1.3523  0.5971
  826MOL0     C13889   7.746  10.061   8.634  0.9086  0.2191  0.2805
  826MOL0     C13890   7.865  10.153   8.590  0.0664 -0.1351  0.5772
  826MOL0     C13891   8.003  10.087   8.631 -0.3104  0.3565  0.4669
  826MOL0     C13892   8.040  10.107   8.779  0.1949 -0.2445 -0.0782
  826MOL0     C13893   8.160  10.011   8.817  0.1045  1.4441 -0.7818
  826MOL0     C13894   8.195  10.002   8.972 -0.6619 -0.1715 -0.0715
  826MOL0    Cl13895   8.279  10.154   9.019 -0.1289 -0.2702 -0.0200
  826MOL0     C13896   7.408  10.109   8.241  0.4952 -0.0944 -0.7343
  826MOL0     C13897   7.326  10.114   8.124  0.0552 -0.3708 -0.4939
  826MOL0     O13898   7.167  10.018   7.899  0.2426  0.4596  0.8443
  826MOL0     C13899   7.007  10.076   7.685  0.9388  0.3386 -0.3779
  826MOL0     C13900   6.915  10.097   7.580 -0.1844 -1.0108 -0.2089
  826MOL0     N13901   6.334  10.730   7.385 -0.4275  0.4591 -0.2638
  826MOL0     N13902   6.257  10.815   7.319  0.3919 -0.2606 -0.0118
  826MOL0     C13903   5.152  11.038   6.711 -0.0539 -0.5781 -0.1855
  826MOL0     C13904   5.033  10.991   6.766  0.3349 -0.2594  0.0900
  826MOL0     C13905   4.782  10.803   7.102 -0.0408 -0.7601 -0.4470
  826MOL0     C13906   4.659  10.840   7.053  0.4725  0.1770 -0.2560
  826MOL0     C13907   4.540  10.800   7.119  0.2061  0.0568  0.0992
  826MOL0     C13908   4.535  10.717   7.234  0.5549 -0.1179 -0.3754
  826MOL0     O13909   4.417  10.680   7.294 -0.4003  0.0940  0.1112
  826MOL0     C13910   4.411  10.579   7.395  0.1413  0.7607  0.2756
  826MOL0     C13911   4.280  10.510   7.417  1.1465 -0.0062 -0.3116
  826MOL0     C13912   4.177  10.599   7.483 -0.0214 -0.4688 -0.2206
  826MOL0     C13913   4.184  10.592   7.636 -0.7783 -0.3973 -0.4959
  826MOL0     C13914   4.100  10.480   7.682  0.5900  0.3298  0.9918
  826MOL0     C13915   4.027  10.395   7.727  0.6635 -0.3011  0.1395
  826MOL0     C13916   4.659  10.682   7.282 -0.6913 -0.4714  0.8233
  826MOL0     C13917   4.782  10.727   7.224  1.3054 -0.0884 -0.4001
  826MOL0     C13918   4.908  10.707   7.306 -0.0440 -1.1336 -0.8273
  826MOL0     H13919   5.047  11.161   7.067  1.0100 -3.1743  1.8584
  826MOL0     H13920   5.264  11.223   6.975 -0.4078 -1.4834  1.9397
  826MOL0     H13921   5.469  11.188   6.893  0.0261 -0.8689 -0.3256
  826MOL0     H13922   5.546  11.203   6.734  0.3767  0.3708  0.3854
  826MOL0     H13923   5.436  10.953   6.869 -0.3901 -1.3305 -1.9006
  826MOL0     H13924   5.529  10.950   6.718 -2.0230  2.7046 -0.8633
  826MOL0     H13925   5.717  11.027   6.848  0.1964  0.5596  0.9732
  826MOL0     H13926   5.623  11.028   7.002  1.6089  1.3222 -0.9572
  826MOL0     H13927   5.583  10.783   6.952 -0.6614 -0.3520 -1.9235
  826MOL0     H13928   5.701  10.806   6.822  2.8605  0.4961  0.6281
  826MOL0     H13929   5.785  10.712   7.058 -0.0149  0.0801  2.3536
  826MOL0     H13930   5.758  10.880   7.123  0.3396 -1.4608  0.8941
  826MOL0     H13931   5.966  10.796   6.926  2.0729  0.8924  0.7015
  826MOL0     H13932   5.933  10.965   6.988 -0.1995  0.1283  3.3579
  826MOL0     H13933   5.987  10.724   7.166 -0.4239 -1.0001 -0.5240
  826MOL0     H13934   5.994  10.899   7.200  0.9516 -0.3813  0.4914
  826MOL0     H13935   6.170  10.751   6.992  0.9815 -1.3208  1.3016
  826MOL0     H13936   6.189  10.921   7.035 -0.7794 -0.1905  0.0346
  826MOL0     H13937   6.359  10.603   7.087 -0.4144  1.9218 -1.1419
  826MOL0     H13938   6.574  10.555   7.378 -1.8092  1.6941  0.1385
  826MOL0     H13939   6.535  10.481   7.228  2.0687  0.7968  0.7840
  826MOL0     H13940   6.371  10.462   7.481  1.8675 -2.2583  1.8814
  826MOL0     H13941   6.321  10.407   7.325  0.6889  1.5968 -2.5709
  826MOL0     H13942   6.441  10.208   7.419  2.2044 -0.1864 -0.0639
  826MOL0     H13943   6.566  10.279   7.315  1.8399  0.2209  0.7495
  826MOL0     H13944   6.641  10.400   7.513  1.0943 -0.1414 -1.3912
  826MOL0     H13945   6.536  10.289   7.611 -1.3440  2.3516 -0.2641
  826MOL0     H13946   6.711  10.329   7.731 -1.2874 -0.8133 -0.5457
  826MOL0     H13947   6.806  10.418   7.935  0.2008 -0.0584  1.1067
  826MOL0     H13948   6.977  10.387   7.972  0.7496 -1.6601  0.4711
  826MOL0     H13949   6.849  10.278   8.026  1.2519 -2.9723 -1.3574
  826MOL0     H13950   7.060  10.270   8.256  0.4488 -0.5355  0.7243
  826MOL0     H13951   7.189  10.271   8.442 -1.5217 -0.3055 -0.3935
  826MOL0     H13952   7.593  10.020   8.450 -0.6126 -0.3489  1.9421
  826MOL0     H13953   7.628  10.194   8.422 -0.9073  2.6967  0.6959
  826MOL0     H13954   7.623  10.240   8.662 -0.8704  0.8797  2.1454
  826MOL0     H13955   7.536  10.099   8.691 -0.0716  0.4807  0.0508
  826MOL0     H13956   7.752   9.967   8.580  0.0117 -0.8192  1.9038
  826MOL0     H13957   7.763  10.029   8.738 -1.2412  2.5013  1.4454
  826MOL0     H13958   7.850  10.258   8.618 -0.0957  0.5191 -1.7226
  826MOL0     H13959   7.869  10.141   8.482 -1.9319  1.0361  0.3185
  826MOL0     H13960   8.014   9.983   8.598 -0.5986  0.2476  0.7160
  826MOL0     H13961   8.080  10.148   8.583 -2.3393 -0.2592 -3.9876
  826MOL0     H13962   7.957  10.067   8.838 -1.5369  2.5141 -0.4703
  826MOL0     H13963   8.062  10.211   8.803  1.5962  0.1568 -2.7088
  826MOL0     H13964   8.250  10.043   8.763  1.5028  1.3607  1.3314
  826MOL0     H13965   8.136   9.905   8.801 -1.6770  1.6291  0.4691
  826MOL0     H13966   8.253   9.910   8.981  0.4432  0.5868  0.9930
  826MOL0     H13967   8.110   9.992   9.040 -0.4907 -1.2266  0.0085
  826MOL0     H13968   7.507  10.067   8.249  1.0786  1.4415  0.5424
  826MOL0     H13969   7.364  10.054   8.042  0.6385 -1.8784  0.8409
  826MOL0     H13970   7.086  10.001   7.679  0.5609 -0.2128  0.9996
  826MOL0     H13971   6.925  10.033   7.494 -2.2597 -1.2808 -0.2956
  826MOL0     H13972   5.181  11.018   6.608  0.9331  1.3747 -0.3322
  826MOL0     H13973   4.952  10.933   6.722 -0.5428  0.6780  0.4117
  826MOL0     H13974   4.656  10.896   6.960  0.5482  1.1976  0.3550
  826MOL0     H13975   4.442  10.817   7.075  0.0706 -2.4427 -0.6922
  826MOL0     H13976   4.480  10.499   7.367 -1.0315 -0.9356  1.9500
  826MOL0     H13977   4.453  10.620   7.487  5.2789 -0.6087 -1.1448
  826MOL0     H13978   4.291  10.420   7.479 -1.9671 -0.3055 -0.0212
  826MOL0     H13979   4.246  10.464   7.324  3.3661 -2.7288  0.0868
  826MOL0     H13980   4.194  10.703   7.456 -0.2835 -0.7981 -1.7149
  826MOL0     H13981   4.074  10.571   7.457  0.3760 -1.2589 -0.9771
  826MOL0     H13982   4.148  10.683   7.685  1.2037  1.4959 -2.3222
  826MOL0     H13983   4.289  10.566   7.658 -0.7955 -2.1765 -2.2348
  826MOL0     H13984   3.972  10.318   7.779 -2.3756  1.3616 -0.3728
  826MOL0     H13985   4.664  10.618   7.370  2.4027 -3.6916 -1.3715
  826MOL0     H13986   5.000  10.756   7.271  0.5296 -1.4581  0.1757
  826MOL0     H13987   4.890  10.760   7.400  2.7013  1.3782 -1.5506
  826MOL0     H13988   4.923  10.600   7.321 -0.3071 -0.8976  1.3783
  827MOL0     O13989   4.298   8.933   6.635 -0.4025 -0.1495  0.2640
  827MOL0     C13990   4.304   8.978   6.747  0.7368 -0.6123 -0.1406
  827MOL0     O13991   4.226   8.945   6.856 -0.6471  0.3063  0.4077
  827MOL0     C13992   4.090   8.919   6.828  0.5332 -0.7637 -0.1503
  827MOL0     C13993   4.008   8.855   6.921  0.4626  0.5201 -0.1240
  827MOL0     C13994   3.870   8.851   6.908  0.0211  0.4325 -0.2297
  827MOL0     C13995   3.799   8.910   6.796 -0.4283  0.2966  0.8440
  827MOL0     O13996   3.662   8.904   6.791 -0.4313  0.4383  0.6214
  827MOL0     C13997   3.597   8.964   6.679  0.1618  0.3209  0.3350
  827MOL0     C13998   3.447   8.936   6.677 -0.0551  0.5183  0.5958
  827MOL0     C13999   3.375   8.973   6.813 -0.3198  0.0752  0.1399
  827MOL0     C14000   3.399   9.118   6.863 -0.0378 -0.2477 -0.5480
  827MOL0     C14001   3.280   9.180   6.942 -1.1019 -0.2654 -0.6236
  827MOL0     C14002   3.269   9.118   7.080  0.5295  0.7080  0.1935
  827MOL0     C14003   3.203   9.191   7.188  0.1336  0.1779 -0.3237
  827MOL0     C14004   3.301   9.299   7.243  0.4392  0.7099  0.4071
  827MOL0     N14005   3.421   9.235   7.308 -0.4686 -0.0072 -0.8658
  827MOL0     C14006   3.415   9.173   7.434 -0.0559 -0.4254  0.0016
  827MOL0     C14007   3.543   9.140   7.452 -0.1319  0.5093 -0.4969
  827MOL0     C14008   3.613   9.099   7.570 -0.3170  0.1332  0.7239
  827MOL0     C14009   3.710   8.979   7.552 -0.1052  0.0155 -0.2837
  827MOL0     C14010   3.795   8.962   7.681 -1.0781 -0.2032 -0.1224
  827MOL0     C14011   3.923   9.043   7.675  0.0440  0.1399 -0.1975
  827MOL0     O14012   4.005   9.015   7.793  0.1298  0.1925 -0.5678
  827MOL0     C14013   4.134   9.057   7.788  0.3966  0.1794 -0.2025
  827MOL0     C14014   4.199   9.135   7.690  0.1655 -0.5458  0.5289
  827MOL0     C14015   4.327   9.178   7.711 -0.3036  0.6559  0.1402
  827MOL0     C14016   4.391   9.269   7.599  0.5734  0.3248  0.0602
  827MOL0     C14017   4.406   9.140   7.824  0.0849 -0.7753 -0.6176
  827MOL0     C14018   4.542   9.190   7.859 -0.3880  0.1034  0.1789
  827MOL0     O14019   4.579   9.311   7.816  0.1382  0.2759 -0.5315
  827MOL0     C14020   4.695   9.368   7.864 -1.0247  0.2846 -0.7175
  827MOL0     C14021   4.701   9.508   7.877  0.5559 -0.2260  0.3809
  827MOL0     C14022   4.822   9.567   7.897  0.0301 -0.3474 -0.1283
  827MOL0     C14023   4.937   9.498   7.908 -0.1135 -0.1495  0.5348
  827MOL0     O14024   5.043   9.585   7.936  0.0226 -0.2753  0.4340
  827MOL0     C14025   5.179   9.535   7.937  0.6091  0.5544  0.4728
  827MOL0     C14026   5.231   9.478   7.810  0.1049 -0.1882  0.6654
  827MOL0     C14027   5.379   9.432   7.808 -0.0614 -0.0361  0.8794
  827MOL0     C14028   5.397   9.297   7.868 -0.5491  0.7772  0.4166
  827MOL0     C14029   5.536   9.218   7.851 -0.0138  0.1858  0.3328
  827MOL0     C14030   5.658   9.299   7.871  0.3016  0.3286 -1.0375
  827MOL0     C14031   5.648   9.363   8.008 -1.2614 -0.3727 -0.3077
  827MOL0     C14032   5.779   9.383   8.085  0.3507 -0.3729 -1.0322
  827MOL0    Cl14033   5.874   9.235   8.119  0.3799 -0.1130 -0.1889
  827MOL0     C14034   4.932   9.360   7.899 -1.4168  0.0685  0.9848
  827MOL0     C14035   4.816   9.298   7.868 -1.0310  0.6818 -0.9349
  827MOL0     O14036   4.611   9.109   7.924  0.0824 -0.1464 -0.1546
  827MOL0     C14037   4.343   9.055   7.915  0.1466 -0.0098  0.4553
  827MOL0     C14038   4.208   9.012   7.899  0.0808  0.4639 -0.0358
  827MOL0     N14039   3.617   9.177   7.342  0.0014  0.1903  0.5646
  827MOL0     N14040   3.541   9.233   7.258  0.9285 -0.5371  0.2199
  827MOL0     C14041   3.880   8.981   6.702 -0.1062 -0.6928 -0.5677
  827MOL0     C14042   4.015   8.980   6.724  0.3446  0.3972  0.5387
  827MOL0     C14043   4.401   9.088   6.768  0.9925  0.3421 -0.1069
  827MOL0     C14044   4.351   9.220   6.780  0.3019  0.0732 -0.1176
  827MOL0     C14045   4.444   9.323   6.794 -0.7896  0.1422  0.4484
  827MOL0     C14046   4.580   9.307   6.809 -0.5393 -0.6432 -0.0802
  827MOL0     O14047   4.663   9.416   6.845 -0.3052 -0.0981 -0.3501
  827MOL0     C14048   4.676   9.527   6.755 -0.2656  0.8035 -1.2474
  827MOL0     C14049   4.748   9.469   6.629  0.7812  0.3217 -0.4010
  827MOL0     C14050   4.790   9.591   6.537  0.3582  0.0972 -0.1531
  827MOL0     C14051   4.833   9.550   6.397 -0.4637  0.5728  0.6207
  827MOL0     C14052   4.956   9.470   6.402  0.7288  0.4694  1.2321
  827MOL0     C14053   5.059   9.417   6.383 -0.1228 -0.2806  0.2445
  827MOL0     C14054   4.632   9.171   6.811  1.0023 -0.7058 -0.2832
  827MOL0     C14055   4.543   9.063   6.788 -0.2805 -0.8631 -0.6655
  827MOL0     C14056   4.597   8.929   6.840 -0.1105  0.0669  0.2971
  827MOL0     H14057   4.057   8.823   7.012  1.9953  1.2503 -0.6423
  827MOL0     H14058   3.821   8.796   6.987 -1.2951  1.5324 -0.2466
  827MOL0     H14059   3.642   8.943   6.582  0.8648  2.6049  0.1159
  827MOL0     H14060   3.611   9.072   6.682  1.0899  0.1884  1.0601
  827MOL0     H14061   3.397   8.999   6.602 -1.5985 -1.4566 -0.1381
  827MOL0     H14062   3.433   8.830   6.653 -0.4325  0.2738  1.7944
  827MOL0     H14063   3.269   8.949   6.797  0.2087 -3.0699  0.7016
  827MOL0     H14064   3.418   8.903   6.885 -0.4120 -1.4478 -1.2288
  827MOL0     H14065   3.484   9.121   6.932 -0.4376  1.6376 -0.0865
  827MOL0     H14066   3.425   9.181   6.778 -1.0791 -0.6180 -1.1628
  827MOL0     H14067   3.196   9.168   6.873  0.3497 -0.2319 -2.4997
  827MOL0     H14068   3.311   9.283   6.959 -1.8485 -0.5228  2.9244
  827MOL0     H14069   3.213   9.024   7.069 -1.0714  1.7304 -0.9606
  827MOL0     H14070   3.364   9.085   7.123 -0.6977 -0.7698  1.9258
  827MOL0     H14071   3.186   9.119   7.269  0.7630  0.9629  0.5233
  827MOL0     H14072   3.105   9.232   7.163  0.2677 -0.0060 -1.1745
  827MOL0     H14073   3.330   9.368   7.163  0.5301 -0.7057 -0.8185
  827MOL0     H14074   3.250   9.344   7.329  0.0281 -2.8851  2.2519
  827MOL0     H14075   3.326   9.176   7.497  0.5308 -0.1076  0.8311
  827MOL0     H14076   3.538   9.089   7.648  0.1680  0.2662  1.2180
  827MOL0     H14077   3.675   9.185   7.598  0.1250  0.4571 -1.1033
  827MOL0     H14078   3.648   8.889   7.552 -1.5026  0.9475  0.1532
  827MOL0     H14079   3.770   8.986   7.460 -2.6491 -0.1485 -2.0611
  827MOL0     H14080   3.729   8.989   7.764  2.0514  0.3306  2.3754
  827MOL0     H14081   3.814   8.857   7.705 -0.9664 -0.0497  0.4932
  827MOL0     H14082   3.977   9.015   7.584  4.0307  0.3171  1.9014
  827MOL0     H14083   3.896   9.149   7.678 -1.2818 -0.1533 -0.6941
  827MOL0     H14084   4.151   9.169   7.599  2.7633  0.5049 -0.5472
  827MOL0     H14085   4.400   9.374   7.629  1.3769  0.0587  0.7801
  827MOL0     H14086   4.333   9.283   7.507  0.1167  0.7222  0.3990
  827MOL0     H14087   4.486   9.217   7.586  0.4593  0.4858 -1.7227
  827MOL0     H14088   4.617   9.576   7.864  1.6567  1.3734  1.2230
  827MOL0     H14089   4.812   9.675   7.894 -1.7364 -0.4949 -1.4981
  827MOL0     H14090   5.241   9.622   7.964  1.8722  0.8071 -2.8087
  827MOL0     H14091   5.198   9.455   8.009 -1.8711  0.0995  0.7112
  827MOL0     H14092   5.164   9.397   7.779 -0.2948  1.0712 -1.9478
  827MOL0     H14093   5.214   9.553   7.732 -1.9457  0.4945  1.7035
  827MOL0     H14094   5.454   9.503   7.844 -1.0545  0.2297  2.5411
  827MOL0     H14095   5.398   9.410   7.703  1.0140 -1.0240  1.2645
  827MOL0     H14096   5.325   9.230   7.820  1.3696 -0.2871 -1.1607
  827MOL0     H14097   5.374   9.306   7.974 -0.0504  3.1108  0.3749
  827MOL0     H14098   5.536   9.138   7.926 -1.7138 -1.0869 -0.9172
  827MOL0     H14099   5.547   9.172   7.752 -0.4980  0.2251  0.2557
  827MOL0     H14100   5.672   9.372   7.791  1.8678  0.1619 -0.9278
  827MOL0     H14101   5.739   9.226   7.876 -0.8990 -0.9668  1.3527
  827MOL0     H14102   5.585   9.305   8.077 -1.7811 -1.3501 -1.5713
  827MOL0     H14103   5.603   9.462   7.998  0.7380  0.9209  2.2461
  827MOL0     H14104   5.754   9.433   8.179 -0.6858  0.2766 -1.6309
  827MOL0     H14105   5.833   9.455   8.023 -1.3238  2.3366  0.4459
  827MOL0     H14106   5.021   9.300   7.916  0.6975  3.0521  1.2724
  827MOL0     H14107   4.829   9.192   7.852 -2.0114  0.4457 -0.2799
  827MOL0     H14108   4.382   9.040   8.015  0.4141 -1.2328  0.1857
  827MOL0     H14109   4.160   8.944   7.969 -0.6474  0.2730 -0.7121
  827MOL0     H14110   3.851   9.036   6.613  1.0360 -0.2175 -0.6681
  827MOL0     H14111   4.059   9.023   6.635  0.9156  0.7898  1.0029
  827MOL0     H14112   4.248   9.252   6.773 -1.2952 -4.3643 -0.1530
  827MOL0     H14113   4.404   9.423   6.797 -0.6304  0.3389 -2.0224
  827MOL0     H14114   4.592   9.580   6.710 -0.3292 -0.2286 -2.3987
  827MOL0     H14115   4.733   9.605   6.807  1.7379 -0.5411 -1.2994
  827MOL0     H14116   4.682   9.405   6.570  0.2553  0.8030 -0.3362
  827MOL0     H14117   4.839   9.418   6.662  1.3614 -0.3125 -2.7488
  827MOL0     H14118   4.706   9.661   6.526  1.5746  1.7701  0.6637
  827MOL0     H14119   4.868   9.644   6.591 -0.7526 -0.1073  1.7308
  827MOL0     H14120   4.838   9.638   6.332 -2.0815  1.4965  1.6627
  827MOL0     H14121   4.751   9.489   6.359  0.2558 -0.5377  0.8032
  827MOL0     H14122   5.147   9.359   6.362  0.1969 -0.5008  2.0418
  827MOL0     H14123   4.734   9.138   6.829  1.4023 -0.3423 -1.7380
  827MOL0     H14124   4.696   8.907   6.796 -0.4810  0.1617 -0.6187
  827MOL0     H14125   4.622   8.925   6.946 -0.9387 -4.0291  0.5014
  827MOL0     H14126   4.537   8.847   6.800 -3.0715  1.8192  0.9209
  828MOL0     O14127  10.243   6.674  10.753 -0.9541 -0.2112 -1.1926
  828MOL0     C14128  10.160   6.734  10.824 -0.8077 -0.6089  0.4330
  828MOL0     O14129  10.186   6.777  10.950 -0.2786  0.8227 -0.3993
  828MOL0     C14130  10.317   6.763  11.004 -0.1018  1.0001  0.5703
  828MOL0     C14131  10.388   6.877  11.041  0.6427 -0.1763  0.4155
  828MOL0     C14132  10.516   6.868  11.091 -0.3106 -0.3984  0.1385
  828MOL0     C14133  10.586   6.738  11.085  0.3898 -1.0024 -0.2318
  828MOL0     O14134  10.715   6.719  11.134 -0.0309 -0.5971  0.2250
  828MOL0     C14135  10.789   6.829  11.193 -1.0558  0.2876 -0.6457
  828MOL0     C14136  10.889   6.758  11.283 -0.1974 -0.3035  0.3734
  828MOL0     C14137  11.034   6.828  11.297  0.0360  0.1424  0.0210
  828MOL0     C14138  11.110   6.860  11.168  0.4707 -0.1772  0.0253
  828MOL0     C14139  11.255   6.889  11.198 -0.0537  0.0551  0.6534
  828MOL0     C14140  11.327   6.948  11.082 -0.7961  0.1110  0.5448
  828MOL0     C14141  11.469   6.994  11.123  0.9939  0.0473  0.2569
  828MOL0     C14142  11.536   7.081  11.017 -0.0958 -0.0627 -0.2837
  828MOL0     N14143  11.678   7.103  11.039  0.7223  0.0138 -0.8061
  828MOL0     C14144  11.776   7.037  10.975  0.0394 -0.2567 -0.7945
  828MOL0     C14145  11.893   7.074  11.031  0.1743  0.1241  0.6119
  828MOL0     C14146  12.023   7.013  10.981 -0.4149 -0.0412  0.1963
  828MOL0     C14147  12.123   7.129  10.952  0.4038  0.2187  0.0543
  828MOL0     C14148  12.251   7.080  10.885 -0.5250 -0.8166 -0.3622
  828MOL0     C14149  12.363   7.177  10.907 -0.0323  0.2773  0.2131
  828MOL0     O14150  12.478   7.121  10.838  0.1343  0.3368  0.0457
  828MOL0     C14151  12.595   7.193  10.842 -0.1140 -0.3124 -0.0907
  828MOL0     C14152  12.611   7.295  10.933 -0.0881  0.8788 -0.6048
  828MOL0     C14153  12.726   7.370  10.931  0.3861  0.0057 -0.5909
  828MOL0     C14154  12.736   7.479  11.035 -0.1016  1.0646  0.3648
  828MOL0     C14155  12.824   7.343  10.841  0.0252  0.7007 -0.1227
  828MOL0     C14156  12.947   7.420  10.819 -0.4508  0.6628 -0.2147
  828MOL0     O14157  13.000   7.409  10.698 -0.1163  0.1438  0.1218
  828MOL0     C14158  13.128   7.446  10.684 -0.5736 -0.6091  0.5834
  828MOL0     C14159  13.216   7.344  10.649 -0.3203 -0.2323  0.6799
  828MOL0     C14160  13.343   7.373  10.609 -0.7715  0.2189 -0.1321
  828MOL0     C14161  13.379   7.503  10.610 -1.1945 -0.2147  0.5220
  828MOL0     O14162  13.513   7.537  10.605 -0.3448 -0.2150  0.0471
  828MOL0     C14163  13.569   7.490  10.481 -0.6975  0.6703 -0.4828
  828MOL0     C14164  13.531   7.582  10.365  0.4257 -0.0386  0.8811
  828MOL0     C14165  13.573   7.726  10.382  0.0802 -0.4605  0.7526
  828MOL0     C14166  13.546   7.814  10.255  0.3689 -0.5654 -0.1445
  828MOL0     C14167  13.588   7.959  10.284  0.1480  0.0780 -0.1054
  828MOL0     C14168  13.739   7.974  10.308 -0.4546  0.2357 -0.4838
  828MOL0     C14169  13.786   8.114  10.298 -0.1844 -0.3590 -0.9305
  828MOL0     C14170  13.924   8.132  10.355  0.2652  0.0816  0.4945
  828MOL0    Cl14171  14.031   8.012  10.258  0.1215 -0.1235  0.3874
  828MOL0     C14172  13.294   7.609  10.640  0.6004 -0.9783  0.5969
  828MOL0     C14173  13.165   7.580  10.682  0.2860 -0.1376 -0.1458
  828MOL0     O14174  13.014   7.464  10.914 -0.4558  0.2479 -0.2410
  828MOL0     C14175  12.817   7.231  10.756  0.3892 -0.2332 -0.6960
  828MOL0     C14176  12.699   7.158  10.757  0.4199 -0.5252  0.7390
  828MOL0     N14177  11.869   7.163  11.133 -0.2624 -0.4697 -0.1724
  828MOL0     N14178  11.738   7.180  11.129  0.5447  0.1308  1.1058
  828MOL0     C14179  10.519   6.629  11.041  0.2879 -0.5013  0.3851
  828MOL0     C14180  10.384   6.630  11.001  0.0446 -0.0167 -1.3107
  828MOL0     C14181  10.020   6.738  10.770 -0.1129  0.0764  0.5861
  828MOL0     C14182   9.925   6.801  10.849  0.3515  0.6237 -0.0578
  828MOL0     C14183   9.792   6.819  10.813 -0.0957  0.1335  0.8158
  828MOL0     C14184   9.752   6.767  10.683 -1.0280  0.2138  1.5033
  828MOL0     O14185   9.632   6.795  10.629 -0.3706  0.2255 -0.2304
  828MOL0     C14186   9.531   6.830  10.720  0.6708 -0.6314 -0.2377
  828MOL0     C14187   9.397   6.801  10.660  0.0546  0.8944  0.5095
  828MOL0     C14188   9.349   6.905  10.552  0.1333 -0.5540 -0.2351
  828MOL0     C14189   9.224   6.860  10.481 -0.0550  0.1842 -0.1523
  828MOL0     C14190   9.099   6.837  10.568  0.2447  1.2961  0.5790
  828MOL0     C14191   8.998   6.812  10.637 -0.3203 -0.4167 -0.3739
  828MOL0     C14192   9.850   6.700  10.600 -0.3232 -0.2480 -0.3087
  828MOL0     C14193   9.983   6.681  10.643  0.4503  0.1347  0.1048
  828MOL0     C14194  10.073   6.615  10.546  0.0910 -0.3533  0.1068
  828MOL0     H14195  10.339   6.973  11.030 -0.0292 -0.6104 -0.4625
  828MOL0     H14196  10.566   6.954  11.135 -1.8632  0.7767 -0.3147
  828MOL0     H14197  10.727   6.894  11.256  1.0141  0.6842  1.0947
  828MOL0     H14198  10.842   6.888  11.118  0.8901 -1.0952 -0.4427
  828MOL0     H14199  10.849   6.757  11.384  1.6287  2.2875  1.2353
  828MOL0     H14200  10.903   6.655  11.249  0.7715 -0.6297  1.6693
  828MOL0     H14201  11.025   6.923  11.350  1.6069  0.5727 -0.4411
  828MOL0     H14202  11.096   6.762  11.358 -0.5275  0.8602  1.4240
  828MOL0     H14203  11.105   6.779  11.095  0.8556  0.8910 -1.2407
  828MOL0     H14204  11.062   6.947  11.122  2.1700  0.5155 -0.5471
  828MOL0     H14205  11.296   6.794  11.234  1.9591  0.7276  0.2452
  828MOL0     H14206  11.258   6.963  11.278 -0.3811  2.3914 -1.3429
  828MOL0     H14207  11.322   6.889  10.990 -3.2817 -1.5021  1.6107
  828MOL0     H14208  11.273   7.039  11.052  0.2429  0.3927 -0.5403
  828MOL0     H14209  11.526   6.901  11.134 -0.9427 -1.3699 -0.9128
  828MOL0     H14210  11.473   7.047  11.218  0.8980  2.6206 -1.0873
  828MOL0     H14211  11.535   7.032  10.919 -0.2884  0.4408 -0.5320
  828MOL0     H14212  11.489   7.180  11.012  1.2062  0.7059  1.5610
  828MOL0     H14213  11.769   6.976  10.885 -2.0998  0.7758 -1.3955
  828MOL0     H14214  12.015   6.953  10.890  1.5279  0.0300 -0.0616
  828MOL0     H14215  12.052   6.950  11.066 -3.1521 -1.4111  0.2559
  828MOL0     H14216  12.067   7.208  10.902 -1.9715 -1.0933  0.4803
  828MOL0     H14217  12.156   7.163  11.050 -1.4754 -0.8754  1.1311
  828MOL0     H14218  12.281   6.992  10.942  2.6689  1.3032  1.5134
  828MOL0     H14219  12.222   7.064  10.780  0.6118  2.1795 -1.2387
  828MOL0     H14220  12.337   7.276  10.870  1.1963  0.5206 -0.0514
  828MOL0     H14221  12.375   7.174  11.016  0.2134 -1.8448  0.1714
  828MOL0     H14222  12.533   7.312  11.007 -0.0182  0.7436 -0.5013
  828MOL0     H14223  12.840   7.491  11.065  0.6809 -0.9565 -1.3167
  828MOL0     H14224  12.682   7.441  11.123  0.9870 -1.1778  0.1188
  828MOL0     H14225  12.697   7.575  10.999  0.3242  2.9750  4.4553
  828MOL0     H14226  13.186   7.240  10.654  1.9158 -1.0834 -1.7612
  828MOL0     H14227  13.413   7.293  10.591 -0.6752  0.3565 -0.3725
  828MOL0     H14228  13.674   7.498  10.510 -0.9940 -3.2686  2.5304
  828MOL0     H14229  13.559   7.385  10.454  2.3284  0.0683  0.3508
  828MOL0     H14230  13.568   7.551  10.267 -0.2289  0.5982  0.4146
  828MOL0     H14231  13.422   7.584  10.349  0.5388 -1.0759 -0.1267
  828MOL0     H14232  13.682   7.729  10.397  0.6753  0.1212 -2.8217
  828MOL0     H14233  13.519   7.776  10.463  0.4719  1.8436 -0.3168
  828MOL0     H14234  13.441   7.817  10.223  1.2564  0.2612 -3.3683
  828MOL0     H14235  13.598   7.783  10.164 -1.1451  1.1906 -1.6966
  828MOL0     H14236  13.562   8.021  10.198 -3.4287 -1.1229 -0.0854
  828MOL0     H14237  13.525   7.992  10.367 -0.4879 -1.2306 -0.0229
  828MOL0     H14238  13.791   7.905  10.241 -0.1935 -1.8663  1.7173
  828MOL0     H14239  13.760   7.939  10.410 -0.6198  2.3584  0.3179
  828MOL0     H14240  13.717   8.182  10.348  0.7231 -1.0362  1.3358
  828MOL0     H14241  13.793   8.142  10.192  1.7484  1.0653 -0.4695
  828MOL0     H14242  13.933   8.102  10.460  1.2073  0.9040  0.6613
  828MOL0     H14243  13.966   8.232  10.343  2.7723 -0.9036  0.3360
  828MOL0     H14244  13.332   7.709  10.621 -0.5548 -0.5847  0.2915
  828MOL0     H14245  13.082   7.650  10.694 -0.2291 -0.4562 -1.5433
  828MOL0     H14246  12.893   7.203  10.684 -0.6071 -1.2341 -1.3931
  828MOL0     H14247  12.692   7.072  10.692 -2.0235 -1.1019  1.6549
  828MOL0     H14248  10.565   6.531  11.037  1.3785  0.0334 -0.7114
  828MOL0     H14249  10.336   6.544  10.957 -0.3392  0.7443 -2.4176
  828MOL0     H14250   9.959   6.832  10.946  1.3344  0.1849 -0.2504
  828MOL0     H14251   9.718   6.873  10.871 -2.4086 -0.6265 -1.2765
  828MOL0     H14252   9.527   6.775  10.815  2.1031  1.5568  1.1911
  828MOL0     H14253   9.546   6.933  10.754  1.6720 -0.3674 -1.3894
  828MOL0     H14254   9.317   6.794  10.733 -0.7750 -1.2688 -0.4959
  828MOL0     H14255   9.399   6.702  10.613 -1.5746 -0.3052  2.7691
  828MOL0     H14256   9.323   6.997  10.605 -0.1634  0.0503 -1.4017
  828MOL0     H14257   9.413   6.928  10.467 -2.0444  0.1562 -1.7789
  828MOL0     H14258   9.242   6.770  10.422 -1.3753 -1.0528  1.2331
  828MOL0     H14259   9.196   6.935  10.406  0.8083  1.1433  0.4551
  828MOL0     H14260   8.915   6.783  10.698  0.1063 -0.8643  0.0046
  828MOL0     H14261   9.825   6.679  10.496 -1.4112  0.0963 -0.1263
  828MOL0     H14262  10.029   6.615  10.446 -1.6381 -2.0712  0.8126
  828MOL0     H14263  10.163   6.677  10.538 -2.4052  3.7355  0.9662
  828MOL0     H14264  10.095   6.513  10.579 -0.2564 -1.3369 -2.4549
  829MOL0     O14265   1.075   2.536   8.587  0.5143 -0.2672 -0.3064
  829MOL0     C14266   0.995   2.488   8.669  0.2620  0.3999 -0.0037
  829MOL0     O14267   1.032   2.422   8.782 -0.9797 -0.5081  0.3564
  829MOL0     C14268   1.162   2.418   8.822  0.7356  0.3609 -0.5727
  829MOL0     C14269   1.184   2.314   8.913  0.2184 -0.8470  0.2871
  829MOL0     C14270   1.305   2.289   8.967 -1.1080 -0.7300 -0.3344
  829MOL0     C14271   1.407   2.380   8.953 -0.4465  0.2270 -0.1009
  829MOL0     O14272   1.526   2.351   9.027 -0.5682  0.3601 -0.1456
  829MOL0     C14273   1.645   2.432   8.999  0.5222 -0.9049  0.2446
  829MOL0     C14274   1.765   2.380   9.075 -0.6507  0.8068  0.1309
  829MOL0     C14275   1.777   2.222   9.065 -0.7631 -0.2719  0.2191
  829MOL0     C14276   1.876   2.179   9.175  0.6781 -0.7604  0.1395
  829MOL0     C14277   2.021   2.167   9.127 -0.0051  0.3571 -0.4624
  829MOL0     C14278   2.084   2.303   9.091  0.2051  0.2981 -0.3714
  829MOL0     C14279   2.244   2.292   9.100  0.4543 -0.3543  0.5929
  829MOL0     C14280   2.314   2.404   9.019 -0.1884 -0.3795 -0.7438
  829MOL0     N14281   2.456   2.425   9.053 -1.0539 -0.6769  0.0552
  829MOL0     C14282   2.560   2.340   9.028 -0.1172 -1.2186  0.9534
  829MOL0     C14283   2.667   2.405   9.077  0.7890 -0.1778  0.3710
  829MOL0     C14284   2.803   2.348   9.086  0.3456 -0.8525 -0.8029
  829MOL0     C14285   2.868   2.308   8.949 -0.0251 -0.0555  0.5124
  829MOL0     C14286   2.948   2.184   8.978  0.2127 -0.0360  1.0281
  829MOL0     C14287   3.007   2.125   8.847  0.2494  0.6266 -0.8227
  829MOL0     O14288   3.078   2.207   8.762 -0.6350  0.8464 -0.2760
  829MOL0     C14289   3.188   2.277   8.809 -0.0534 -0.6037  0.7884
  829MOL0     C14290   3.255   2.251   8.928  0.2843  0.3552  0.1704
  829MOL0     C14291   3.361   2.338   8.968 -0.1101  0.6811 -0.4718
  829MOL0     C14292   3.435   2.295   9.090 -0.7501 -0.1997 -0.1370
  829MOL0     C14293   3.395   2.454   8.895 -0.5311 -0.1306  0.4809
  829MOL0     C14294   3.478   2.562   8.956  0.3383 -0.5239  0.8188
  829MOL0     O14295   3.570   2.629   8.879  0.3735  0.4209  0.3131
  829MOL0     C14296   3.606   2.753   8.920 -0.1461  0.2137  0.2238
  829MOL0     C14297   3.557   2.870   8.857  0.3485 -0.2571  0.6920
  829MOL0     C14298   3.595   3.004   8.903  0.6397  0.4065  0.1441
  829MOL0     C14299   3.690   3.010   8.998 -0.8199  0.4979  0.1406
  829MOL0     O14300   3.716   3.142   9.032  0.6236  0.0727 -0.4904
  829MOL0     C14301   3.850   3.173   9.056  0.0844  0.4152  0.2320
  829MOL0     C14302   3.855   3.325   9.104 -0.3396  0.2561 -0.1835
  829MOL0     C14303   3.996   3.389   9.129  0.3291  0.0130  1.4481
  829MOL0     C14304   4.095   3.363   9.017 -0.4603  0.3720  0.1409
  829MOL0     C14305   4.229   3.446   9.029 -0.4225 -0.0011 -0.1995
  829MOL0     C14306   4.334   3.410   8.928  0.5580 -0.2419  0.1003
  829MOL0     C14307   4.448   3.516   8.925  0.2644  0.0723  0.0258
  829MOL0     C14308   4.547   3.480   8.812 -0.3651 -0.2509 -0.1844
  829MOL0    Cl14309   4.690   3.601   8.816  0.2275  0.6031  0.1612
  829MOL0     C14310   3.742   2.893   9.054 -0.6153 -0.3678  1.0702
  829MOL0     C14311   3.703   2.767   9.013 -0.4621 -1.0469 -0.0975
  829MOL0     O14312   3.438   2.602   9.062  0.2463 -0.0279 -1.2142
  829MOL0     C14313   3.331   2.472   8.775  0.0648  0.0585  0.2825
  829MOL0     C14314   3.232   2.383   8.728  1.0820  0.0874  0.1519
  829MOL0     N14315   2.627   2.539   9.125  0.8535  0.2403 -0.1806
  829MOL0     N14316   2.502   2.541   9.114  0.6855 -0.3204  0.9899
  829MOL0     C14317   1.388   2.488   8.859  0.1928  0.4189  0.1463
  829MOL0     C14318   1.262   2.503   8.802 -0.8402 -0.6586  0.3751
  829MOL0     C14319   0.846   2.492   8.641  0.0655 -1.1138 -0.0193
  829MOL0     C14320   0.761   2.426   8.736  0.2682 -0.5301  0.1853
  829MOL0     C14321   0.625   2.422   8.718  0.9737  0.4527 -0.4773
  829MOL0     C14322   0.572   2.466   8.603 -0.0323 -0.1066  0.2522
  829MOL0     O14323   0.440   2.448   8.568 -0.4966 -0.1019 -0.2771
  829MOL0     C14324   0.382   2.319   8.577  0.2476 -0.1307 -1.1679
  829MOL0     C14325   0.308   2.276   8.445  0.0891  0.0277  0.0018
  829MOL0     C14326   0.215   2.388   8.388 -0.8222 -0.0906 -0.0750
  829MOL0     C14327   0.117   2.443   8.491 -0.0696  0.3726 -0.3704
  829MOL0     C14328   0.012   2.519   8.429 -0.6879  0.4005  0.8142
  829MOL0     C14329  -0.067   2.600   8.377  0.0273 -0.5614  0.1548
  829MOL0     C14330   0.653   2.530   8.504 -0.3430 -0.0477 -0.8158
  829MOL0     C14331   0.787   2.545   8.526  0.1135 -0.1912  0.5023
  829MOL0     C14332   0.863   2.611   8.408  1.2252  0.4912  0.1877
  829MOL0     H14333   1.097   2.254   8.937 -0.4888 -1.4458 -3.2333
  829MOL0     H14334   1.313   2.201   9.030 -2.1963 -0.7195 -0.1667
  829MOL0     H14335   1.622   2.538   9.011 -0.5083 -0.6891 -2.6746
  829MOL0     H14336   1.676   2.428   8.894  1.2974 -1.0370  0.4748
  829MOL0     H14337   1.861   2.420   9.043  0.5489 -2.6816 -1.1235
  829MOL0     H14338   1.753   2.411   9.179  1.6727  0.6054  0.5060
  829MOL0     H14339   1.680   2.174   9.074 -1.0810  0.5748  1.5714
  829MOL0     H14340   1.826   2.191   8.972 -3.5515 -2.0305 -0.8022
  829MOL0     H14341   1.889   2.252   9.255  1.4583  0.8917 -1.4217
  829MOL0     H14342   1.840   2.084   9.216 -0.8189  1.5499  4.8186
  829MOL0     H14343   2.020   2.108   9.035  0.7137  0.2603 -0.4134
  829MOL0     H14344   2.092   2.118   9.195  1.8207  2.3164 -0.8173
  829MOL0     H14345   2.052   2.333   8.991  0.3399  0.5379 -0.3455
  829MOL0     H14346   2.053   2.385   9.157  0.8761  0.5458 -0.3537
  829MOL0     H14347   2.280   2.195   9.064  2.1839  0.5558 -0.2455
  829MOL0     H14348   2.275   2.313   9.203 -0.0548  0.5713  0.5636
  829MOL0     H14349   2.292   2.384   8.914 -3.6650 -1.1725 -0.0129
  829MOL0     H14350   2.260   2.497   9.040  0.2850  0.4169 -2.8536
  829MOL0     H14351   2.558   2.244   8.978  1.0013  0.8645 -3.5695
  829MOL0     H14352   2.799   2.268   9.161 -1.4873  1.5248  1.8773
  829MOL0     H14353   2.876   2.413   9.134  0.0730 -2.7332  2.4892
  829MOL0     H14354   2.786   2.295   8.879 -0.1975  4.6782 -0.5269
  829MOL0     H14355   2.938   2.389   8.928 -0.0632 -0.3219 -0.6926
  829MOL0     H14356   3.021   2.202   9.056  1.0186 -1.9438  0.7774
  829MOL0     H14357   2.887   2.107   9.027  0.4093  0.0995  1.4870
  829MOL0     H14358   3.062   2.031   8.861  0.7686  0.9508 -0.6668
  829MOL0     H14359   2.920   2.102   8.785  1.5193  0.7819 -2.7609
  829MOL0     H14360   3.232   2.175   9.001  2.1123 -0.7611 -0.3526
  829MOL0     H14361   3.535   2.340   9.085  0.1691 -1.9861  0.9058
  829MOL0     H14362   3.445   2.186   9.098  1.5730 -0.0401  0.0222
  829MOL0     H14363   3.393   2.331   9.185 -0.5828 -0.7820  0.1646
  829MOL0     H14364   3.483   2.863   8.777  0.3329 -0.3529  0.7142
  829MOL0     H14365   3.549   3.091   8.857 -0.6493 -0.3136  0.0074
  829MOL0     H14366   3.892   3.119   9.141 -0.0119  1.1429  0.7538
  829MOL0     H14367   3.906   3.154   8.963 -0.6015 -0.4768 -0.0208
  829MOL0     H14368   3.790   3.378   9.034 -0.7985  1.2738  0.9883
  829MOL0     H14369   3.802   3.331   9.199 -0.7674  0.3222 -0.4220
  829MOL0     H14370   4.040   3.352   9.222  1.1116 -2.4395  0.1909
  829MOL0     H14371   3.985   3.497   9.139 -0.0359  0.2769 -1.1037
  829MOL0     H14372   4.038   3.393   8.929  2.5400  1.8628 -1.4611
  829MOL0     H14373   4.124   3.258   9.025  1.7157  1.0612  3.3192
  829MOL0     H14374   4.199   3.551   9.022  0.1258  0.2809  1.4153
  829MOL0     H14375   4.266   3.429   9.130 -2.4758 -1.4100  0.3810
  829MOL0     H14376   4.290   3.411   8.828 -0.4221  1.6319  0.5101
  829MOL0     H14377   4.355   3.309   8.966 -0.5123  0.1438  1.8198
  829MOL0     H14378   4.488   3.515   9.027 -1.7462 -1.8676  0.8893
  829MOL0     H14379   4.414   3.616   8.897  2.9315  2.2787  3.7805
  829MOL0     H14380   4.489   3.498   8.722 -1.3783 -0.7280  0.3563
  829MOL0     H14381   4.583   3.377   8.822 -1.6883 -0.6752  0.3896
  829MOL0     H14382   3.822   2.913   9.124  2.5090 -1.4097 -1.9203
  829MOL0     H14383   3.746   2.677   9.057  0.4107 -0.3858  0.4193
  829MOL0     H14384   3.366   2.551   8.710  3.8287 -1.0180  0.7459
  829MOL0     H14385   3.179   2.409   8.638  0.7410  0.8253  0.5634
  829MOL0     H14386   1.467   2.561   8.842  0.9449 -0.3269  0.3684
  829MOL0     H14387   1.255   2.594   8.742 -2.8966 -2.2456 -2.0153
  829MOL0     H14388   0.803   2.375   8.822  1.4754 -0.3891 -0.2883
  829MOL0     H14389   0.555   2.369   8.782  0.0669 -0.1777 -1.9466
  829MOL0     H14390   0.463   2.250   8.602 -0.0784 -0.4514 -0.9934
  829MOL0     H14391   0.324   2.313   8.669  0.7443 -0.9366 -0.8988
  829MOL0     H14392   0.250   2.186   8.464  1.3264 -0.5285  1.2928
  829MOL0     H14393   0.378   2.251   8.364  1.1251  0.8334  0.6105
  829MOL0     H14394   0.263   2.483   8.364 -2.1271  0.5623 -0.1898
  829MOL0     H14395   0.178   2.350   8.292 -0.5218 -0.1945 -0.1491
  829MOL0     H14396   0.178   2.510   8.553 -2.5412  1.5278  0.9668
  829MOL0     H14397   0.066   2.369   8.554  2.7868 -0.0674  1.6430
  829MOL0     H14398  -0.140   2.652   8.318 -0.7769 -0.2964  1.3422
  829MOL0     H14399   0.596   2.570   8.420  0.4469  0.9629 -0.8868
  829MOL0     H14400   0.918   2.697   8.449  2.3603 -1.2768  2.5817
  829MOL0     H14401   0.937   2.545   8.362  2.3038  1.9700 -0.2638
  829MOL0     H14402   0.806   2.660   8.328  1.1980  0.6871  0.3243
  830MOL0     O14403   7.477   4.582   1.421 -0.2952  0.4473 -0.1894
  830MOL0     C14404   7.375   4.539   1.366 -0.7107 -0.1290 -0.0860
  830MOL0     O14405   7.358   4.409   1.329  1.1591  0.2166 -0.6656
  830MOL0     C14406   7.471   4.331   1.316 -0.4197  1.5170 -0.1440
  830MOL0     C14407   7.600   4.370   1.265 -0.2814 -0.2463 -0.5249
  830MOL0     C14408   7.710   4.288   1.254 -0.7285 -0.4172 -0.3596
  830MOL0     C14409   7.704   4.154   1.307  0.2943 -0.5662 -0.9110
  830MOL0     O14410   7.808   4.071   1.307 -0.3019  0.3785  0.4194
  830MOL0     C14411   7.902   4.070   1.193  0.3589 -1.0897  0.1717
  830MOL0     C14412   7.991   3.950   1.193  0.0663  0.9335  0.3928
  830MOL0     C14413   8.086   3.949   1.311 -0.1497 -0.8906  0.4115
  830MOL0     C14414   8.199   4.051   1.305  0.3008 -0.2116  0.7576
  830MOL0     C14415   8.198   4.149   1.423 -0.1448  0.7870  0.4989
  830MOL0     C14416   8.106   4.274   1.396 -0.5517 -0.2502  0.2420
  830MOL0     C14417   8.090   4.373   1.509  0.1749  0.4063  0.6180
  830MOL0     C14418   8.220   4.426   1.562 -0.0983 -0.1544 -0.0066
  830MOL0     N14419   8.211   4.567   1.624 -0.1322  0.2211 -0.4352
  830MOL0     C14420   8.207   4.691   1.564  0.2999  0.4077 -0.0568
  830MOL0     C14421   8.195   4.775   1.673 -0.3886  0.4321 -0.1071
  830MOL0     C14422   8.197   4.923   1.670  0.2508 -0.0767  0.2284
  830MOL0     C14423   8.055   4.977   1.685 -0.3379 -1.0517 -0.0201
  830MOL0     C14424   8.061   5.137   1.673  0.8025 -0.0827 -0.4027
  830MOL0     C14425   7.916   5.196   1.677  0.0744 -0.2243  0.9208
  830MOL0     O14426   7.877   5.181   1.814  0.7229  0.3123 -0.5221
  830MOL0     C14427   7.755   5.246   1.841  0.4741  0.1468  0.0577
  830MOL0     C14428   7.677   5.327   1.748  0.1844  0.6051  0.0791
  830MOL0     C14429   7.561   5.386   1.774  0.5569 -0.6204  0.4287
  830MOL0     C14430   7.482   5.454   1.672 -0.5589 -0.4220  0.4080
  830MOL0     C14431   7.503   5.376   1.899 -1.6898 -0.3958  0.2762
  830MOL0     C14432   7.362   5.415   1.933  0.6185  0.2294  0.4759
  830MOL0     O14433   7.317   5.352   2.048 -0.2393 -1.0558 -0.1973
  830MOL0     C14434   7.196   5.360   2.110  0.0564  0.7297 -0.2589
  830MOL0     C14435   7.073   5.400   2.051 -0.5757 -0.0596  0.0437
  830MOL0     C14436   6.953   5.414   2.131 -0.0925 -1.2984 -0.2208
  830MOL0     C14437   6.954   5.390   2.266  1.2128  0.3498  0.5853
  830MOL0     O14438   6.837   5.398   2.334  0.2104 -0.1037 -0.3624
  830MOL0     C14439   6.826   5.391   2.476 -0.3229 -0.4625 -0.7442
  830MOL0     C14440   6.679   5.399   2.510 -0.0314 -0.3100 -0.2913
  830MOL0     C14441   6.597   5.293   2.435  0.3352  0.2192 -0.2215
  830MOL0     C14442   6.447   5.290   2.471 -0.3188 -0.2186 -1.3351
  830MOL0     C14443   6.354   5.245   2.360  0.0331 -0.5676 -1.2965
  830MOL0     C14444   6.212   5.301   2.396  0.6889 -0.3846  0.2919
  830MOL0     C14445   6.107   5.275   2.294  0.6515 -0.3367  0.4175
  830MOL0     C14446   5.964   5.281   2.361  0.0187 -0.7941  0.2131
  830MOL0    Cl14447   5.934   5.427   2.450  0.3022 -0.0242  0.0623
  830MOL0     C14448   7.071   5.342   2.327 -0.2900 -0.9082 -0.3604
  830MOL0     C14449   7.187   5.318   2.247 -0.2440  0.1370  0.6927
  830MOL0     O14450   7.314   5.508   1.882 -0.4204 -0.7113  0.2515
  830MOL0     C14451   7.579   5.305   1.997 -0.3111  0.3294 -0.4546
  830MOL0     C14452   7.702   5.237   1.969  0.2650  0.3767  0.0919
  830MOL0     N14453   8.197   4.709   1.794 -0.0545  0.5098  0.0006
  830MOL0     N14454   8.217   4.583   1.757  0.6028  0.2255 -0.7315
  830MOL0     C14455   7.574   4.108   1.356 -0.7767  0.1635 -1.3329
  830MOL0     C14456   7.469   4.196   1.368  0.2525 -0.5457 -0.1856
  830MOL0     C14457   7.257   4.630   1.348  0.9690  0.0105 -0.2084
  830MOL0     C14458   7.133   4.574   1.324  0.3180 -0.1152  0.0891
  830MOL0     C14459   7.028   4.659   1.289  0.4815 -0.2120 -0.7083
  830MOL0     C14460   7.037   4.799   1.290 -0.7670 -0.0963 -0.8953
  830MOL0     O14461   6.942   4.890   1.280 -0.1584 -0.0919 -0.0413
  830MOL0     C14462   6.864   4.888   1.159  0.8368 -0.0315 -0.5488
  830MOL0     C14463   6.954   4.924   1.052  0.1067  0.0103 -0.0209
  830MOL0     C14464   6.979   5.078   1.053 -0.2708  0.0684  0.3348
  830MOL0     C14465   7.100   5.116   0.952 -0.4789 -0.4328  0.1604
  830MOL0     C14466   7.235   5.096   1.015 -0.1893 -0.2077  0.0434
  830MOL0     C14467   7.354   5.089   1.049 -0.1359 -0.1720  0.1915
  830MOL0     C14468   7.161   4.850   1.316  0.0755 -0.4559 -0.0042
  830MOL0     C14469   7.269   4.768   1.353  0.1926 -0.0233  0.2167
  830MOL0     C14470   7.397   4.851   1.356 -0.0239 -0.6655  0.5145
  830MOL0     H14471   7.615   4.466   1.217 -0.2551 -1.2725 -2.6891
  830MOL0     H14472   7.799   4.337   1.217 -1.2898  1.1791  0.3322
  830MOL0     H14473   7.952   4.168   1.194 -1.0478 -0.3066  2.2506
  830MOL0     H14474   7.843   4.062   1.101  1.5700  1.4121 -0.9104
  830MOL0     H14475   7.927   3.861   1.198 -2.5036  2.5254 -1.8640
  830MOL0     H14476   8.032   3.942   1.092 -2.2839 -1.7874 -0.4978
  830MOL0     H14477   8.027   3.949   1.402 -1.3739 -2.1693 -0.3503
  830MOL0     H14478   8.139   3.854   1.327  4.7428  1.4005 -0.1835
  830MOL0     H14479   8.300   4.013   1.289 -0.5195 -2.0122 -0.5341
  830MOL0     H14480   8.193   4.116   1.217  0.5071 -0.7433  0.3401
  830MOL0     H14481   8.301   4.181   1.433 -0.2804  1.6565 -0.6871
  830MOL0     H14482   8.162   4.094   1.510 -0.9805 -1.5126 -1.1756
  830MOL0     H14483   8.161   4.330   1.320 -0.4126 -0.8437 -0.1077
  830MOL0     H14484   8.003   4.248   1.369 -0.9103 -1.6167  2.6546
  830MOL0     H14485   8.046   4.322   1.596  0.4241 -1.1275 -0.1166
  830MOL0     H14486   8.034   4.457   1.469  3.2693  0.5865 -4.1330
  830MOL0     H14487   8.276   4.361   1.630  2.2772  2.3901  0.6558
  830MOL0     H14488   8.276   4.438   1.469  0.8251 -1.7125  0.3196
  830MOL0     H14489   8.228   4.715   1.460 -0.7367  1.4110 -0.0614
  830MOL0     H14490   8.237   4.967   1.578 -0.4619  1.5138  0.6360
  830MOL0     H14491   8.265   4.966   1.745  0.9326 -0.5532 -0.0995
  830MOL0     H14492   7.997   4.944   1.598 -2.0310  0.5966  0.4093
  830MOL0     H14493   8.002   4.949   1.777 -2.7318 -0.0954 -1.0247
  830MOL0     H14494   8.103   5.176   1.766  0.8465 -1.9268  0.3962
  830MOL0     H14495   8.123   5.177   1.592 -0.1412  2.3412 -0.0251
  830MOL0     H14496   7.918   5.301   1.645  0.2390 -0.6480 -0.4961
  830MOL0     H14497   7.869   5.128   1.606  2.8932  0.7893 -2.1669
  830MOL0     H14498   7.706   5.328   1.644 -1.1975 -1.3822 -0.3876
  830MOL0     H14499   7.547   5.460   1.584 -1.0586 -0.8531 -0.0039
  830MOL0     H14500   7.460   5.557   1.704  1.7881 -0.7524  3.4578
  830MOL0     H14501   7.388   5.401   1.650  0.4371 -1.8593 -0.5692
  830MOL0     H14502   7.080   5.439   1.950  1.9590 -0.0871  0.1295
  830MOL0     H14503   6.865   5.452   2.080  1.1644 -0.9637 -2.2613
  830MOL0     H14504   6.862   5.294   2.513 -0.0341  0.6740  2.2844
  830MOL0     H14505   6.884   5.470   2.524 -2.3143  1.3327 -1.1563
  830MOL0     H14506   6.671   5.380   2.618  0.1452  0.2990 -0.1654
  830MOL0     H14507   6.642   5.500   2.489 -0.9040 -0.6095 -0.2177
  830MOL0     H14508   6.635   5.195   2.464 -1.4006  0.2870  2.6618
  830MOL0     H14509   6.615   5.316   2.329  0.8614 -1.5085 -0.5359
  830MOL0     H14510   6.421   5.393   2.500  3.5330  0.3932  0.6134
  830MOL0     H14511   6.423   5.233   2.561 -1.1640  2.4686  0.2633
  830MOL0     H14512   6.389   5.282   2.263 -1.3766 -0.1854 -1.6706
  830MOL0     H14513   6.347   5.136   2.357 -3.2874 -0.8311  3.7811
  830MOL0     H14514   6.213   5.410   2.398 -0.6537 -0.3276 -0.4078
  830MOL0     H14515   6.174   5.257   2.489  0.3304 -1.6782 -0.4368
  830MOL0     H14516   6.111   5.176   2.247  1.3812  0.6130 -1.6524
  830MOL0     H14517   6.110   5.351   2.216  0.0367 -1.0796 -0.3471
  830MOL0     H14518   5.959   5.197   2.431  0.1012 -0.0207  1.1656
  830MOL0     H14519   5.881   5.259   2.292  0.7770 -2.4258 -0.2451
  830MOL0     H14520   7.067   5.331   2.435 -0.8733  1.2206 -0.1123
  830MOL0     H14521   7.271   5.263   2.287 -0.2968  0.1413  0.8108
  830MOL0     H14522   7.535   5.285   2.094  0.0209 -0.1822 -0.4095
  830MOL0     H14523   7.763   5.178   2.037 -2.7495 -1.4170  1.4427
  830MOL0     H14524   7.547   4.009   1.392 -1.3568 -0.0696 -2.3851
  830MOL0     H14525   7.373   4.167   1.411  0.5528  0.9916  1.6254
  830MOL0     H14526   7.124   4.466   1.333  3.0632 -0.2891  2.2682
  830MOL0     H14527   6.927   4.625   1.268  0.5476 -1.1101  0.3244
  830MOL0     H14528   6.812   4.792   1.154  1.1363 -0.2930  0.8620
  830MOL0     H14529   6.788   4.965   1.174  1.4702  0.8046 -1.5275
  830MOL0     H14530   6.909   4.890   0.958  0.0739  2.3978 -0.9181
  830MOL0     H14531   7.049   4.869   1.048  1.2112  1.9016 -1.5353
  830MOL0     H14532   6.892   5.137   1.023 -0.3021 -1.5906 -3.3751
  830MOL0     H14533   7.017   5.111   1.150  1.9699 -0.3532 -0.3439
  830MOL0     H14534   7.090   5.221   0.922 -2.0008 -0.7263 -0.4725
  830MOL0     H14535   7.103   5.052   0.864 -1.1176 -0.0772 -0.1230
  830MOL0     H14536   7.461   5.094   1.056  0.1235 -1.5455 -1.9271
  830MOL0     H14537   7.168   4.957   1.300 -0.4302 -0.2588  1.0059
  830MOL0     H14538   7.476   4.811   1.293  0.6671 -2.0753  2.1939
  830MOL0     H14539   7.391   4.958   1.335 -0.4292  0.0330  3.6121
  830MOL0     H14540   7.449   4.838   1.452  2.7009 -0.3130 -0.8421
  831MOL0     O14541   5.390   4.632   0.957 -0.4064 -0.0753  0.6775
  831MOL0     C14542   5.370   4.622   0.835  0.6969  0.1900  0.3385
  831MOL0     O14543   5.464   4.630   0.739 -0.1156  0.0237  0.4354
  831MOL0     C14544   5.600   4.604   0.767  0.5700 -0.1798  0.1380
  831MOL0     C14545   5.692   4.710   0.784  0.1447  0.1853 -0.2418
  831MOL0     C14546   5.824   4.687   0.815  0.2995  0.1949  0.6385
  831MOL0     C14547   5.864   4.551   0.836 -0.2209  0.0106  0.4754
  831MOL0     O14548   5.979   4.507   0.887  0.6132  0.3802  0.6836
  831MOL0     C14549   6.084   4.597   0.908  0.6070  0.0420 -0.4323
  831MOL0     C14550   6.202   4.518   0.929 -0.0922  0.2712 -0.3278
  831MOL0     C14551   6.258   4.429   0.814  0.8422  0.5292  0.1557
  831MOL0     C14552   6.396   4.373   0.830 -0.1771 -0.3773  0.1520
  831MOL0     C14553   6.460   4.308   0.698 -0.5376 -0.7081 -1.0533
  831MOL0     C14554   6.368   4.188   0.654 -0.0454  0.2927 -0.7459
  831MOL0     C14555   6.450   4.084   0.573  1.3088  0.0200  0.1103
  831MOL0     C14556   6.518   4.139   0.452  0.3245  0.3112 -0.5590
  831MOL0     N14557   6.421   4.199   0.359  0.4704  0.2749  0.5368
  831MOL0     C14558   6.304   4.142   0.314 -0.0444 -0.1992  0.0153
  831MOL0     C14559   6.240   4.239   0.249  0.5276  0.0003 -0.6603
  831MOL0     C14560   6.110   4.252   0.186  0.5132 -0.5378  0.1254
  831MOL0     C14561   6.116   4.208   0.038 -0.5320  0.0335  0.2249
  831MOL0     C14562   5.973   4.224  -0.021  0.2231 -0.4785  0.4063
  831MOL0     C14563   5.957   4.203  -0.176  0.5999  0.5602 -0.8140
  831MOL0     O14564   6.030   4.300  -0.245  0.3465  0.0363 -0.2541
  831MOL0     C14565   6.158   4.283  -0.284 -0.5721  0.2451  0.1789
  831MOL0     C14566   6.214   4.396  -0.345 -0.0678  0.3550 -0.5772
  831MOL0     C14567   6.344   4.390  -0.389  0.6398 -1.0217 -0.0883
  831MOL0     C14568   6.387   4.507  -0.468  0.3561 -0.5226  0.0432
  831MOL0     C14569   6.431   4.283  -0.367  0.0792 -0.7886 -0.2955
  831MOL0     C14570   6.570   4.276  -0.414  0.4977 -1.2433  0.4405
  831MOL0     O14571   6.649   4.186  -0.361  0.5078 -0.7691  0.3195
  831MOL0     C14572   6.781   4.178  -0.404  0.5988  0.3129 -0.8725
  831MOL0     C14573   6.834   4.152  -0.537 -1.0229 -0.2313 -0.2885
  831MOL0     C14574   6.977   4.139  -0.549 -0.5704  0.1634 -0.0047
  831MOL0     C14575   7.058   4.153  -0.434  0.1457  0.3684  0.4194
  831MOL0     O14576   7.196   4.136  -0.428 -0.5206  0.2682  0.2666
  831MOL0     C14577   7.271   4.101  -0.549 -0.4914  0.4392 -0.6074
  831MOL0     C14578   7.417   4.092  -0.506 -1.0965  0.4877  0.0887
  831MOL0     C14579   7.502   3.988  -0.588  0.3625  1.0846 -0.1178
  831MOL0     C14580   7.649   3.996  -0.543 -0.5650 -0.6589  1.0494
  831MOL0     C14581   7.723   3.908  -0.648 -1.0579  1.2778  0.1087
  831MOL0     C14582   7.856   3.870  -0.596  0.4708  0.3998 -0.8820
  831MOL0     C14583   7.906   3.752  -0.678  0.0464 -0.2749  0.0374
  831MOL0     C14584   8.045   3.709  -0.635  0.0514  0.2403 -0.5468
  831MOL0    Cl14585   8.168   3.835  -0.645 -0.7325  0.1555 -0.5931
  831MOL0     C14586   7.001   4.172  -0.308  0.0103  0.2774  1.0696
  831MOL0     C14587   6.870   4.189  -0.296  0.0957  0.4318  0.3546
  831MOL0     O14588   6.602   4.346  -0.503  0.3436 -0.8223  0.5586
  831MOL0     C14589   6.372   4.165  -0.308  0.2908 -0.7424  0.5103
  831MOL0     C14590   6.236   4.165  -0.266 -0.4222  0.0423 -0.1451
  831MOL0     N14591   6.313   4.358   0.257 -0.4268  1.3381 -0.5577
  831MOL0     N14592   6.424   4.327   0.318  0.1856  0.8495 -0.7785
  831MOL0     C14593   5.776   4.442   0.809 -0.3176 -0.0320  0.4405
  831MOL0     C14594   5.637   4.468   0.775 -0.5584 -0.3028 -0.3235
  831MOL0     C14595   5.233   4.637   0.781  0.3181 -0.8064 -0.4236
  831MOL0     C14596   5.214   4.687   0.650  0.0392  0.0813 -0.9698
  831MOL0     C14597   5.085   4.717   0.615  0.0668  0.1432  0.2010
  831MOL0     C14598   4.973   4.700   0.694 -0.1087  0.0874 -0.3434
  831MOL0     O14599   4.847   4.735   0.658  0.8036  0.1949 -0.3863
  831MOL0     C14600   4.832   4.814   0.540  0.0689  0.5989  0.1582
  831MOL0     C14601   4.686   4.852   0.539  0.0996  0.1741  0.5101
  831MOL0     C14602   4.633   4.926   0.655  0.7553  0.3458 -0.9303
  831MOL0     C14603   4.480   4.906   0.669 -1.4207  0.3780 -0.4879
  831MOL0     C14604   4.415   5.010   0.756  0.0479  0.3424  0.3253
  831MOL0     C14605   4.354   5.075   0.834 -0.7650 -0.2197 -0.5849
  831MOL0     C14606   4.989   4.647   0.818  0.3097  0.1367 -0.0796
  831MOL0     C14607   5.115   4.611   0.870  0.1283 -0.3661  0.6465
  831MOL0     C14608   5.124   4.565   1.013 -0.0767 -0.1998 -0.9328
  831MOL0     H14609   5.645   4.808   0.773 -0.1518  0.2271  1.1986
  831MOL0     H14610   5.891   4.771   0.829 -1.4198  1.8545 -0.6308
  831MOL0     H14611   6.059   4.672   0.983  2.1346 -0.0656  0.2269
  831MOL0     H14612   6.102   4.644   0.810 -3.2109 -1.5731 -2.0968
  831MOL0     H14613   6.290   4.578   0.955  0.4977 -0.9132  0.5466
  831MOL0     H14614   6.170   4.455   1.013 -2.1200  0.0453 -1.2343
  831MOL0     H14615   6.186   4.351   0.786 -0.6122  1.4512  1.1623
  831MOL0     H14616   6.256   4.490   0.723  1.1488 -1.6874 -1.4031
  831MOL0     H14617   6.456   4.462   0.854 -2.9808  1.2191  1.7795
  831MOL0     H14618   6.401   4.302   0.913  1.1520 -2.6613 -1.7506
  831MOL0     H14619   6.556   4.267   0.729 -0.3235 -0.2309 -1.0755
  831MOL0     H14620   6.462   4.389   0.624 -0.6338  1.4355  1.1422
  831MOL0     H14621   6.319   4.146   0.743 -3.1364  3.0851 -0.9433
  831MOL0     H14622   6.293   4.231   0.587  1.2833  0.7940 -1.9466
  831MOL0     H14623   6.380   4.009   0.534  0.8039  0.9534 -0.8058
  831MOL0     H14624   6.518   4.030   0.639  1.7736  1.6952  1.0590
  831MOL0     H14625   6.580   4.220   0.490 -0.5135  0.1050  1.3288
  831MOL0     H14626   6.576   4.060   0.401 -0.5911  0.2354 -1.5192
  831MOL0     H14627   6.275   4.038   0.315  2.3921 -0.9514  1.6069
  831MOL0     H14628   6.064   4.350   0.198 -1.7351 -1.7213  2.0806
  831MOL0     H14629   6.043   4.193   0.250  0.7338 -0.8370  0.0850
  831MOL0     H14630   6.181   4.272  -0.022 -0.7167 -1.2669 -1.4512
  831MOL0     H14631   6.159   4.108   0.027  0.5617 -0.0359  3.7939
  831MOL0     H14632   5.907   4.155   0.031 -0.8692  1.0087  1.0639
  831MOL0     H14633   5.934   4.325  -0.008  0.8084  0.0255 -1.3615
  831MOL0     H14634   5.972   4.101  -0.211  0.3273  0.6560 -1.2245
  831MOL0     H14635   5.852   4.215  -0.204 -0.4812  0.8319  2.9251
  831MOL0     H14636   6.142   4.476  -0.360 -0.0780  0.7580  1.3802
  831MOL0     H14637   6.420   4.481  -0.569  3.6878 -0.1366  0.8860
  831MOL0     H14638   6.476   4.546  -0.417 -0.1910 -1.6267  1.9645
  831MOL0     H14639   6.307   4.581  -0.469 -2.7130 -3.5742  1.3678
  831MOL0     H14640   6.769   4.146  -0.624 -0.4801 -0.1591 -0.7079
  831MOL0     H14641   7.012   4.114  -0.649 -2.5386 -0.4072 -0.5771
  831MOL0     H14642   7.252   4.001  -0.589  0.6033 -1.1176  2.4751
  831MOL0     H14643   7.255   4.159  -0.641 -0.9184 -0.0406 -0.8427
  831MOL0     H14644   7.480   4.181  -0.517  0.9743 -0.7364  1.3167
  831MOL0     H14645   7.419   4.052  -0.404 -0.6749 -1.0504 -0.4890
  831MOL0     H14646   7.507   3.994  -0.697  0.3542 -2.6505 -0.4554
  831MOL0     H14647   7.467   3.887  -0.568  1.1186  1.0131  0.9293
  831MOL0     H14648   7.661   3.952  -0.444  0.2938 -1.9461  0.4076
  831MOL0     H14649   7.706   4.088  -0.526  0.1252 -0.9214  0.2503
  831MOL0     H14650   7.654   3.824  -0.661  0.1421  0.5846 -2.5186
  831MOL0     H14651   7.737   3.960  -0.744  1.3129  0.1210 -0.2433
  831MOL0     H14652   7.845   3.834  -0.493 -1.6025  1.5042 -0.6567
  831MOL0     H14653   7.928   3.952  -0.598 -0.0824  0.9089 -0.3290
  831MOL0     H14654   7.917   3.775  -0.784  2.4896  1.2353  0.5602
  831MOL0     H14655   7.844   3.662  -0.683 -0.4935  0.1331 -4.6721
  831MOL0     H14656   8.067   3.623  -0.699  2.2196 -0.8493  1.4754
  831MOL0     H14657   8.049   3.670  -0.533  0.5275  2.1168  0.1989
  831MOL0     H14658   7.060   4.178  -0.217  0.7722 -0.0005  0.6045
  831MOL0     H14659   6.837   4.207  -0.194 -0.2724  0.8873  0.1575
  831MOL0     H14660   6.434   4.077  -0.293  1.2629  0.0025  1.0187
  831MOL0     H14661   6.192   4.074  -0.226  1.6910 -0.6155  0.8206
  831MOL0     H14662   5.794   4.335   0.808 -1.3765 -0.2258 -1.0306
  831MOL0     H14663   5.565   4.389   0.757  0.3904 -1.2331 -0.1244
  831MOL0     H14664   5.295   4.719   0.585  0.7130  1.5118  0.5020
  831MOL0     H14665   5.074   4.744   0.510 -3.7840  0.3032  0.4987
  831MOL0     H14666   4.895   4.902   0.534  0.0181  0.5429 -1.8606
  831MOL0     H14667   4.870   4.759   0.454  1.9162  1.8434  0.1379
  831MOL0     H14668   4.636   4.756   0.532  1.0408 -0.3569  0.9100
  831MOL0     H14669   4.657   4.906   0.448  2.1821 -0.2543 -0.4832
  831MOL0     H14670   4.673   4.879   0.746 -0.3029 -1.8070 -1.5004
  831MOL0     H14671   4.657   5.032   0.654 -2.1421  1.0956 -0.6606
  831MOL0     H14672   4.460   4.805   0.705 -2.8117  0.4621 -0.9878
  831MOL0     H14673   4.435   4.899   0.570 -1.0996  1.1767 -0.6999
  831MOL0     H14674   4.299   5.121   0.913 -3.2021 -0.2803 -2.1347
  831MOL0     H14675   4.900   4.629   0.878 -1.4010  2.1574 -1.8672
  831MOL0     H14676   5.159   4.462   1.021  0.4341 -0.0497 -1.1982
  831MOL0     H14677   5.187   4.632   1.072  0.8467 -0.8737 -1.1404
  831MOL0     H14678   5.024   4.581   1.056 -1.2599  1.2675 -3.9222
  832MOL0     O14679   6.249  11.319   5.127  0.6482 -0.2572  0.1712
  832MOL0     C14680   6.356  11.320   5.182  0.7561 -0.0683 -0.7621
  832MOL0     O14681   6.371  11.265   5.313  0.3566 -0.2549  0.5158
  832MOL0     C14682   6.279  11.184   5.371 -0.2560 -0.5141  0.1734
  832MOL0     C14683   6.300  11.165   5.510  0.6806 -1.1283  0.0409
  832MOL0     C14684   6.204  11.101   5.594 -0.9673 -1.3951 -0.2257
  832MOL0     C14685   6.090  11.043   5.539 -0.7820 -0.1373  0.0943
  832MOL0     O14686   5.986  10.990   5.604  0.0026 -0.2713 -0.4091
  832MOL0     C14687   5.996  10.982   5.748  0.1437  0.0816  0.2159
  832MOL0     C14688   5.882  10.898   5.784 -0.0814 -0.0403 -0.1061
  832MOL0     C14689   5.859  10.770   5.691 -0.2258 -0.4220 -0.2622
  832MOL0     C14690   5.970  10.668   5.693 -0.4023  0.4302  0.0094
  832MOL0     C14691   5.939  10.540   5.622  0.0260  0.0215 -0.0748
  832MOL0     C14692   6.050  10.436   5.616 -0.7682 -0.7015 -0.2315
  832MOL0     C14693   6.028  10.342   5.496 -0.0572  0.6726  0.4392
  832MOL0     C14694   6.091  10.195   5.511  0.7217  0.9567  0.5541
  832MOL0     N14695   6.026  10.118   5.624  0.2641 -0.7015 -0.1852
  832MOL0     C14696   5.898  10.068   5.639  0.4444  0.3385 -1.1418
  832MOL0     C14697   5.906   9.986   5.742  0.2726  0.2471  0.0021
  832MOL0     C14698   5.781   9.908   5.780  0.8624  0.1353 -0.9217
  832MOL0     C14699   5.768   9.917   5.940 -0.5502  0.0944 -0.1179
  832MOL0     C14700   5.665   9.815   5.998 -0.3576 -0.3076 -0.2028
  832MOL0     C14701   5.724   9.672   6.021 -0.5510  0.9431 -0.5017
  832MOL0     O14702   5.763   9.596   5.903  0.1022  0.6159  0.6263
  832MOL0     C14703   5.875   9.512   5.898  0.3751  0.1333  0.6986
  832MOL0     C14704   5.915   9.442   6.012  0.2174  0.2847  0.3556
  832MOL0     C14705   6.032   9.362   6.018 -0.6047 -0.8500 -0.3575
  832MOL0     C14706   6.043   9.259   6.127  0.1667  0.0187  0.2310
  832MOL0     C14707   6.110   9.355   5.902 -0.3630 -0.3239 -0.3019
  832MOL0     C14708   6.230   9.264   5.881  0.4947 -0.0022 -0.3503
  832MOL0     O14709   6.326   9.242   5.974  0.0169 -0.0294 -0.6491
  832MOL0     C14710   6.442   9.162   5.957  0.1292 -1.3050 -0.2510
  832MOL0     C14711   6.515   9.134   5.841 -0.1049  0.2004  0.5511
  832MOL0     C14712   6.625   9.041   5.837 -1.1492  0.4068 -0.9248
  832MOL0     C14713   6.685   8.999   5.958 -0.0698 -0.1250 -0.7868
  832MOL0     O14714   6.800   8.922   5.950 -0.4174 -0.1182  0.8937
  832MOL0     C14715   6.897   8.940   6.056 -0.2132  0.2101 -0.3845
  832MOL0     C14716   7.036   8.880   6.013  0.2444 -0.3771  0.6147
  832MOL0     C14717   7.092   8.945   5.879  0.3219  1.0754 -0.4839
  832MOL0     C14718   7.049   8.876   5.753  0.5895  0.0294  0.2183
  832MOL0     C14719   7.050   8.995   5.643  0.5216  0.5535 -0.0631
  832MOL0     C14720   7.183   9.070   5.634 -0.1085  0.5350 -0.4303
  832MOL0     C14721   7.198   9.151   5.510  0.0356  0.0908 -0.5856
  832MOL0     C14722   7.084   9.240   5.477 -0.2224  0.3910 -0.3588
  832MOL0    Cl14723   7.141   9.364   5.363 -0.1785  0.0776  0.4555
  832MOL0     C14724   6.623   9.042   6.078  0.1382 -1.0546 -0.7105
  832MOL0     C14725   6.500   9.116   6.081  0.3631 -0.1631 -0.4525
  832MOL0     O14726   6.232   9.203   5.776 -0.0621 -0.1560 -0.9693
  832MOL0     C14727   6.077   9.428   5.787  0.5788 -0.3714 -0.5458
  832MOL0     C14728   5.958   9.506   5.781 -0.1952 -0.1637 -1.0045
  832MOL0     N14729   6.034   9.989   5.795  0.3496 -0.2687 -0.3319
  832MOL0     N14730   6.099  10.076   5.730  0.0747  0.0294 -0.3943
  832MOL0     C14731   6.070  11.048   5.402 -0.8691  0.2623 -1.0201
  832MOL0     C14732   6.172  11.104   5.317 -0.6790 -0.2612  0.0789
  832MOL0     C14733   6.475  11.361   5.112  0.3643  0.8652 -0.1691
  832MOL0     C14734   6.592  11.290   5.145 -0.4876 -0.8282  0.0771
  832MOL0     C14735   6.715  11.328   5.105 -0.4568  0.1017 -0.3645
  832MOL0     C14736   6.725  11.431   5.006 -0.5693 -0.0751  0.5304
  832MOL0     O14737   6.834  11.473   4.929 -0.1394  0.2213  0.3603
  832MOL0     C14738   6.962  11.406   4.944  0.0834  0.0328 -0.1985
  832MOL0     C14739   7.073  11.480   4.860  0.0721 -1.0712 -0.6445
  832MOL0     C14740   7.214  11.445   4.906 -0.8560  0.1421  0.6602
  832MOL0     C14741   7.285  11.345   4.805  0.2332 -0.0628  0.0369
  832MOL0     C14742   7.319  11.418   4.681  0.4417 -0.2352  0.0395
  832MOL0     C14743   7.341  11.475   4.580 -1.6587  0.1536  0.7911
  832MOL0     C14744   6.602  11.481   4.959  0.1780 -0.2459 -0.0067
  832MOL0     C14745   6.480  11.456   5.017 -0.9336 -0.1594  0.5440
  832MOL0     C14746   6.359  11.535   4.971 -1.2928  0.6093 -0.1770
  832MOL0     H14747   6.387  11.203   5.563  0.3636  0.9990 -0.8836
  832MOL0     H14748   6.220  11.105   5.701 -0.1779  0.9750 -0.3881
  832MOL0     H14749   5.985  11.080   5.796  0.6298 -0.4201  1.3983
  832MOL0     H14750   6.086  10.927   5.774  0.6532  0.8136  0.0335
  832MOL0     H14751   5.908  10.861   5.883  4.6297 -1.4572 -1.6240
  832MOL0     H14752   5.787  10.953   5.777  0.0582  0.0583 -1.5361
  832MOL0     H14753   5.769  10.721   5.728 -0.5238 -1.7290 -2.5806
  832MOL0     H14754   5.833  10.800   5.589 -0.2346 -3.6613 -1.3183
  832MOL0     H14755   6.065  10.708   5.657  1.8168 -3.6110  0.7272
  832MOL0     H14756   5.991  10.645   5.798 -0.3536  1.8191  0.3165
  832MOL0     H14757   5.900  10.563   5.522  1.8840 -2.1074 -1.3825
  832MOL0     H14758   5.861  10.490   5.681  0.0313 -1.3630 -1.1772
  832MOL0     H14759   6.145  10.490   5.607 -2.1935  1.6333 -3.5352
  832MOL0     H14760   6.063  10.378   5.708 -0.9401 -0.8359 -0.2924
  832MOL0     H14761   6.072  10.392   5.409  2.2587 -2.1296 -0.1861
  832MOL0     H14762   5.923  10.324   5.471  0.8142 -0.7720 -2.6807
  832MOL0     H14763   6.066  10.137   5.421 -1.3090 -0.3958  1.8842
  832MOL0     H14764   6.199  10.196   5.524  0.8955 -2.1783  0.3066
  832MOL0     H14765   5.806  10.093   5.587  0.0073 -0.9223 -0.9949
  832MOL0     H14766   5.780   9.803   5.749  1.1409 -0.3784  0.6870
  832MOL0     H14767   5.687   9.950   5.743  0.5150 -1.3327 -1.7687
  832MOL0     H14768   5.867   9.902   5.984 -0.5457  0.1669 -0.1052
  832MOL0     H14769   5.733  10.016   5.969 -0.9115  0.1216 -0.6316
  832MOL0     H14770   5.617   9.865   6.082 -0.2109 -1.1693  0.3998
  832MOL0     H14771   5.584   9.807   5.925  1.3554 -2.7834 -2.0110
  832MOL0     H14772   5.798   9.675   6.102 -2.5536  1.4094  1.4221
  832MOL0     H14773   5.646   9.604   6.059 -1.1288  0.3315 -2.6474
  832MOL0     H14774   5.849   9.440   6.099 -1.5874 -0.4440 -0.9728
  832MOL0     H14775   5.982   9.291   6.212  0.7347  2.4689 -0.2177
  832MOL0     H14776   6.148   9.250   6.156 -0.0539 -1.0900  0.7277
  832MOL0     H14777   6.010   9.158   6.101  2.0305 -1.2283  2.3274
  832MOL0     H14778   6.476   9.175   5.748  0.0273  0.6648  0.7011
  832MOL0     H14779   6.689   9.013   5.754  0.9199  1.7317  0.1420
  832MOL0     H14780   6.921   9.045   6.074  0.6439  0.2968 -1.9097
  832MOL0     H14781   6.879   8.887   6.150  1.4809  1.2590  0.5950
  832MOL0     H14782   7.104   8.904   6.095  0.1987  0.5652  0.3977
  832MOL0     H14783   7.037   8.771   6.004  2.8524 -0.4391  0.8913
  832MOL0     H14784   7.202   8.941   5.881  0.3635 -3.2098  1.9573
  832MOL0     H14785   7.055   9.047   5.871 -1.2254  0.4403 -2.1374
  832MOL0     H14786   6.950   8.828   5.756  1.4955 -1.8960  1.2557
  832MOL0     H14787   7.118   8.799   5.719 -1.1807 -0.5075 -2.4741
  832MOL0     H14788   7.035   8.949   5.545  1.8294  1.2317 -0.6060
  832MOL0     H14789   6.966   9.064   5.655 -0.3777 -0.8587  2.4857
  832MOL0     H14790   7.259   8.993   5.648  1.1460  1.5627 -1.3829
  832MOL0     H14791   7.194   9.138   5.718 -1.0414 -0.7906  0.8149
  832MOL0     H14792   7.208   9.081   5.427 -3.0480 -2.9832  1.3289
  832MOL0     H14793   7.284   9.218   5.514  2.3539 -2.1174 -5.2281
  832MOL0     H14794   7.041   9.301   5.557 -0.8401  1.3017 -1.3545
  832MOL0     H14795   7.001   9.180   5.439 -0.2882 -1.1489  2.0494
  832MOL0     H14796   6.657   9.015   6.177  0.6929 -1.1068 -0.9129
  832MOL0     H14797   6.447   9.138   6.173 -0.6722  1.3637 -1.3609
  832MOL0     H14798   6.144   9.429   5.701  0.4639 -2.5758 -0.7323
  832MOL0     H14799   5.933   9.553   5.686 -0.1870  4.4429  0.9991
  832MOL0     H14800   5.974  11.013   5.365 -0.8008 -2.1085  0.7723
  832MOL0     H14801   6.148  11.091   5.212 -2.0547 -1.6689  0.5327
  832MOL0     H14802   6.584  11.204   5.211 -0.5411 -2.0625 -1.4780
  832MOL0     H14803   6.805  11.279   5.138  0.8569  1.8886 -1.0836
  832MOL0     H14804   6.991  11.412   5.050 -0.7970  1.8243 -0.0266
  832MOL0     H14805   6.948  11.303   4.911 -3.3516  0.5812 -0.7480
  832MOL0     H14806   7.065  11.588   4.874 -0.3472 -1.1954  0.1205
  832MOL0     H14807   7.054  11.457   4.755 -1.6455  2.1096 -1.1572
  832MOL0     H14808   7.283  11.529   4.921  2.6003 -2.1133 -1.3159
  832MOL0     H14809   7.214  11.392   5.001  1.0398 -0.6571  0.2690
  832MOL0     H14810   7.222  11.260   4.775 -0.1142 -0.2705  1.2950
  832MOL0     H14811   7.376  11.314   4.856 -0.2387  1.8211  2.1607
  832MOL0     H14812   7.366  11.526   4.489  2.5449 -2.0618  0.4267
  832MOL0     H14813   6.608  11.560   4.885 -2.5921  0.4345  0.3779
  832MOL0     H14814   6.395  11.609   4.900 -0.5288 -0.2071 -0.6691
  832MOL0     H14815   6.280  11.478   4.920 -2.1278  1.7966 -0.2488
  832MOL0     H14816   6.304  11.574   5.057 -2.1561 -1.2856  0.1926
  833MOL0     O14817   8.728   4.580   5.265 -0.3181  0.3368 -0.5459
  833MOL0     C14818   8.627   4.527   5.298 -0.2508 -0.3396 -0.3469
  833MOL0     O14819   8.609   4.398   5.347 -0.9052 -0.2643  0.1139
  833MOL0     C14820   8.711   4.304   5.341  0.3280  0.1569 -0.4569
  833MOL0     C14821   8.852   4.333   5.342  0.3972  0.7707  0.8594
  833MOL0     C14822   8.940   4.222   5.342  0.2792 -0.3288 -0.2863
  833MOL0     C14823   8.902   4.088   5.342 -1.3992  0.2823 -0.3301
  833MOL0     O14824   8.979   3.975   5.335  0.3734 -0.2702 -0.3782
  833MOL0     C14825   9.123   3.987   5.329 -0.2815  0.9591 -0.1151
  833MOL0     C14826   9.183   3.994   5.472 -0.2291 -0.4225  0.6383
  833MOL0     C14827   9.138   3.866   5.545 -0.2618  0.3470 -0.4930
  833MOL0     C14828   9.164   3.879   5.697 -0.5092  1.0967  0.0925
  833MOL0     C14829   9.309   3.907   5.737 -0.3966 -1.0996 -0.0893
  833MOL0     C14830   9.321   3.909   5.881  0.1437 -0.5439 -0.8039
  833MOL0     C14831   9.469   3.923   5.927 -0.3736 -0.2092  0.0388
  833MOL0     C14832   9.457   3.965   6.076  0.3644  0.2099 -0.9434
  833MOL0     N14833   9.589   3.977   6.143 -0.3838  0.3740 -0.2624
  833MOL0     C14834   9.631   3.900   6.254  0.2888  0.3950 -0.2304
  833MOL0     C14835   9.754   3.956   6.278  0.7910 -0.5587 -0.2940
  833MOL0     C14836   9.831   3.901   6.396 -0.6846 -1.3019  0.6597
  833MOL0     C14837   9.959   3.822   6.343  0.4955 -0.7596 -0.1440
  833MOL0     C14838  10.062   3.926   6.294 -0.7044 -0.1992 -0.6006
  833MOL0     C14839  10.182   3.882   6.204  1.0325 -0.6823 -0.2767
  833MOL0     O14840  10.252   3.782   6.275 -0.8382  0.9550  0.0060
  833MOL0     C14841  10.345   3.705   6.200 -0.3291  0.1957 -0.7611
  833MOL0     C14842  10.387   3.734   6.073  0.0107 -0.6143  0.4808
  833MOL0     C14843  10.468   3.647   6.006 -0.5177  0.5619  0.3769
  833MOL0     C14844  10.515   3.675   5.865  0.4844  0.4108 -0.5241
  833MOL0     C14845  10.522   3.531   6.067 -0.6733  0.0298 -0.0663
  833MOL0     C14846  10.616   3.428   6.006 -0.5989 -0.2036 -0.6691
  833MOL0     O14847  10.628   3.311   6.079 -0.2552  0.1316 -0.5649
  833MOL0     C14848  10.723   3.223   6.045 -0.2180  0.7557  0.4579
  833MOL0     C14849  10.839   3.215   6.126 -0.4676 -0.5743 -0.4223
  833MOL0     C14850  10.930   3.111   6.113  1.2407  0.3851 -0.4543
  833MOL0     C14851  10.911   3.011   6.011 -0.3429 -0.3587 -0.3575
  833MOL0     O14852  11.001   2.911   5.995 -0.0275  0.3287  0.0757
  833MOL0     C14853  11.062   2.895   5.861  0.0884 -0.1515  0.1766
  833MOL0     C14854  11.212   2.884   5.863  1.1563  0.4066 -0.1272
  833MOL0     C14855  11.280   2.994   5.950  1.3318  0.1872  0.2436
  833MOL0     C14856  11.428   2.978   5.950 -0.5161 -0.3994  0.2986
  833MOL0     C14857  11.508   3.072   6.042  0.4239 -0.4525 -0.4999
  833MOL0     C14858  11.654   3.066   6.004 -0.0226  0.3446  0.3291
  833MOL0     C14859  11.742   3.162   6.093  0.9438  0.2055  0.0152
  833MOL0     C14860  11.891   3.159   6.087 -0.0563 -0.5007 -0.1098
  833MOL0    Cl14861  11.960   3.252   5.947 -0.2504  0.1686  0.1511
  833MOL0     C14862  10.809   3.034   5.924  0.9165 -0.1425 -0.1165
  833MOL0     C14863  10.707   3.125   5.949  0.4015  0.4204  0.0229
  833MOL0     O14864  10.688   3.453   5.915  0.0060  0.2780  0.0261
  833MOL0     C14865  10.489   3.506   6.202  0.0957 -0.1882  0.3489
  833MOL0     C14866  10.403   3.594   6.262  0.4219 -0.2485 -0.4910
  833MOL0     N14867   9.776   4.064   6.194  0.5341 -0.2312  0.3862
  833MOL0     N14868   9.673   4.084   6.121 -0.0981  0.4312 -0.4813
  833MOL0     C14869   8.764   4.063   5.341 -0.8794 -0.3623 -0.0962
  833MOL0     C14870   8.675   4.169   5.345 -0.0592  0.3131  0.0306
  833MOL0     C14871   8.503   4.603   5.265 -0.1213  0.0126 -0.4753
  833MOL0     C14872   8.400   4.520   5.223  0.3773  1.3072  0.9840
  833MOL0     C14873   8.280   4.585   5.175  0.1697 -1.2426  0.9310
  833MOL0     C14874   8.265   4.724   5.175  0.2953 -0.9320  0.7509
  833MOL0     O14875   8.157   4.774   5.109 -0.5534  0.3180 -0.9831
  833MOL0     C14876   8.116   4.907   5.146 -0.2206 -0.0522 -0.6015
  833MOL0     C14877   7.978   4.937   5.066  0.1870 -0.2790 -0.4257
  833MOL0     C14878   7.918   5.068   5.126 -0.6324  0.3310  0.0034
  833MOL0     C14879   7.766   5.077   5.102 -0.0325  0.6163  0.1104
  833MOL0     C14880   7.725   5.214   5.144 -0.0864  0.1854  0.3963
  833MOL0     C14881   7.703   5.327   5.175  0.4385 -0.2747  0.4259
  833MOL0     C14882   8.374   4.803   5.220 -0.5492  0.2352 -0.7973
  833MOL0     C14883   8.493   4.744   5.265  0.5999 -0.0003 -0.0552
  833MOL0     C14884   8.605   4.836   5.316 -0.0513  0.2234  0.4484
  833MOL0     H14885   8.897   4.430   5.328  0.0136  0.9438  0.8226
  833MOL0     H14886   9.045   4.252   5.343  0.0700  0.4680 -1.0598
  833MOL0     H14887   9.157   4.078   5.279  0.7145  1.4631  1.3974
  833MOL0     H14888   9.161   3.898   5.279  0.6668  1.8623 -1.0238
  833MOL0     H14889   9.292   4.000   5.467 -0.2801 -0.3173 -1.2674
  833MOL0     H14890   9.153   4.085   5.524 -0.5465  0.0762 -0.3821
  833MOL0     H14891   9.031   3.849   5.531 -0.5405  0.7205  1.0432
  833MOL0     H14892   9.190   3.785   5.493 -0.9988 -0.7164  0.4006
  833MOL0     H14893   9.104   3.962   5.735  1.7430  2.6406  0.5260
  833MOL0     H14894   9.135   3.787   5.749  1.5367 -0.0940 -0.7430
  833MOL0     H14895   9.335   4.006   5.698  0.4028 -0.6855  1.3958
  833MOL0     H14896   9.375   3.833   5.690 -1.3471 -1.6629 -0.5446
  833MOL0     H14897   9.259   3.987   5.927  1.9719  1.2064 -1.1837
  833MOL0     H14898   9.276   3.813   5.909  0.7849 -0.6990 -0.2821
  833MOL0     H14899   9.521   3.984   5.852  1.2081 -0.6296  0.7518
  833MOL0     H14900   9.517   3.825   5.931  2.5655  1.1536  2.1620
  833MOL0     H14901   9.406   4.062   6.085 -3.0730 -1.4438 -1.0562
  833MOL0     H14902   9.388   3.895   6.123  2.7547 -1.1981  0.7270
  833MOL0     H14903   9.579   3.834   6.322 -0.8322  3.9756  2.7665
  833MOL0     H14904   9.763   3.825   6.434 -2.7508 -0.4060 -1.0559
  833MOL0     H14905   9.846   3.978   6.472  1.9997 -0.9797 -0.0956
  833MOL0     H14906  10.002   3.749   6.413  1.8753 -0.1554 -0.3139
  833MOL0     H14907   9.919   3.766   6.258  0.3996  3.2242 -3.0001
  833MOL0     H14908  10.004   4.008   6.251  0.1075  0.9841  0.4867
  833MOL0     H14909  10.105   3.967   6.386  0.9075 -1.1678 -0.8813
  833MOL0     H14910  10.148   3.846   6.107  0.0380 -3.6412  1.0435
  833MOL0     H14911  10.251   3.966   6.190 -0.5721  0.4440 -1.8675
  833MOL0     H14912  10.352   3.824   6.024  2.2678  0.1657  0.1721
  833MOL0     H14913  10.475   3.598   5.798 -0.9094 -1.6116  2.4052
  833MOL0     H14914  10.621   3.701   5.857  0.5243  0.6012  0.5239
  833MOL0     H14915  10.477   3.772   5.832  1.6898  2.0569  2.5723
  833MOL0     H14916  10.847   3.290   6.205  2.5264 -2.3385  1.1414
  833MOL0     H14917  11.017   3.112   6.178  0.8226  0.3085  0.1042
  833MOL0     H14918  11.025   2.808   5.806 -0.4574 -0.0858  0.4349
  833MOL0     H14919  11.035   2.982   5.801 -0.4572  0.1315  0.8162
  833MOL0     H14920  11.233   2.783   5.898 -0.1827  0.8686  2.2948
  833MOL0     H14921  11.245   2.887   5.759 -0.1157 -0.0015 -0.5640
  833MOL0     H14922  11.247   3.003   6.053  1.0779 -1.6470  0.3554
  833MOL0     H14923  11.251   3.090   5.905  1.6928  0.6844  1.0548
  833MOL0     H14924  11.456   2.990   5.845  1.9423 -2.8147  0.5372
  833MOL0     H14925  11.453   2.874   5.973 -1.1397 -0.2697  1.7123
  833MOL0     H14926  11.478   3.177   6.041  4.7000  0.9606 -1.0877
  833MOL0     H14927  11.484   3.037   6.143  1.7839  1.8384  0.6836
  833MOL0     H14928  11.662   3.104   5.902 -0.2419 -0.1048  0.1379
  833MOL0     H14929  11.684   2.961   6.011  0.0939  0.4836  3.0667
  833MOL0     H14930  11.720   3.149   6.199  1.8042  2.4739  0.5162
  833MOL0     H14931  11.722   3.266   6.066 -1.3897 -0.4099 -0.9133
  833MOL0     H14932  11.933   3.058   6.090 -0.3208 -0.6391  3.2749
  833MOL0     H14933  11.922   3.202   6.183 -1.7993  0.1602  0.1907
  833MOL0     H14934  10.792   2.964   5.842 -0.0692 -0.0319 -0.0201
  833MOL0     H14935  10.617   3.120   5.888  0.1729  1.7342  0.2358
  833MOL0     H14936  10.519   3.418   6.258  0.6425  1.2408  2.3948
  833MOL0     H14937  10.364   3.581   6.363 -2.4821  0.1148 -1.4805
  833MOL0     H14938   8.731   3.959   5.344 -3.5187  0.3817 -0.4906
  833MOL0     H14939   8.570   4.142   5.350 -0.0071  0.0072 -0.3853
  833MOL0     H14940   8.402   4.412   5.215 -3.3166  1.2763 -2.9163
  833MOL0     H14941   8.196   4.538   5.126 -0.1273  2.7973 -3.0896
  833MOL0     H14942   8.094   4.907   5.253 -0.4541 -1.7044 -0.6093
  833MOL0     H14943   8.186   4.985   5.115 -0.2930  0.3881  0.3264
  833MOL0     H14944   7.913   4.852   5.089  0.9158 -0.5563  0.7112
  833MOL0     H14945   8.004   4.940   4.960 -0.6610 -0.6293 -0.6553
  833MOL0     H14946   7.938   5.086   5.231 -1.1030  0.5214  0.0637
  833MOL0     H14947   7.966   5.150   5.073 -2.8144 -0.4921 -3.6359
  833MOL0     H14948   7.707   5.002   5.157  2.0568 -2.8770 -2.0348
  833MOL0     H14949   7.745   5.059   4.996  1.3511  2.2895 -0.4913
  833MOL0     H14950   7.678   5.427   5.204 -1.7639 -0.1507 -1.5589
  833MOL0     H14951   8.364   4.911   5.215  0.2568  0.4067  0.7081
  833MOL0     H14952   8.608   4.832   5.426 -0.9114 -1.3385  0.4421
  833MOL0     H14953   8.702   4.821   5.269 -0.8265  1.1199 -1.5368
  833MOL0     H14954   8.583   4.939   5.286  0.6069 -0.1675 -1.4827
  834MOL0     O14955   6.500  10.359   7.919  0.0715 -0.4505  0.6577
  834MOL0     C14956   6.406  10.382   7.993  0.2171 -0.0270 -0.0179
  834MOL0     O14957   6.401  10.356   8.129  0.3264  0.3598  0.2454
  834MOL0     C14958   6.505  10.290   8.196 -0.2375 -0.0114 -0.0651
  834MOL0     C14959   6.504  10.305   8.333 -0.8329 -0.3335  0.2110
  834MOL0     C14960   6.600  10.251   8.416 -0.2875  0.0075 -0.2280
  834MOL0     C14961   6.703  10.168   8.361 -0.3364  0.0604  0.3811
  834MOL0     O14962   6.792  10.098   8.439 -0.9254  0.3863 -0.3182
  834MOL0     C14963   6.770  10.094   8.584 -0.1641  0.1809  0.2585
  834MOL0     C14964   6.857   9.982   8.639 -0.3613  0.1609 -0.4789
  834MOL0     C14965   6.995  10.033   8.661 -0.7032  0.3093  1.0380
  834MOL0     C14966   7.093   9.917   8.688 -0.1982  0.2369 -0.0499
  834MOL0     C14967   7.245   9.947   8.704 -0.8944  0.6314 -0.0268
  834MOL0     C14968   7.280  10.040   8.826 -0.1512  0.4310  0.0248
  834MOL0     C14969   7.238   9.972   8.954  0.3428 -0.2909  0.2117
  834MOL0     C14970   7.281  10.036   9.091 -0.2730 -0.0119 -1.6671
  834MOL0     N14971   7.428  10.016   9.116  0.7042 -0.7073 -0.4571
  834MOL0     C14972   7.531  10.095   9.066  0.8516  0.5048  0.3635
  834MOL0     C14973   7.643  10.032   9.106  0.8185  0.4339  0.0914
  834MOL0     C14974   7.785  10.078   9.081  0.4808  0.6625 -0.8649
  834MOL0     C14975   7.860  10.131   9.198  0.3979 -0.3682  0.1590
  834MOL0     C14976   7.912  10.025   9.300  0.1600 -1.1256  0.5170
  834MOL0     C14977   7.978  10.091   9.420 -0.4231 -0.8580  0.2835
  834MOL0     O14978   8.114  10.102   9.382  0.0688  0.0101  0.2947
  834MOL0     C14979   8.201  10.160   9.469 -0.1521 -0.2999  0.1217
  834MOL0     C14980   8.334  10.176   9.423 -0.4514  0.6000  0.0513
  834MOL0     C14981   8.423  10.245   9.503 -0.3024 -0.5842 -0.3827
  834MOL0     C14982   8.563  10.260   9.443 -0.0050  0.2611 -0.4074
  834MOL0     C14983   8.385  10.304   9.624 -0.4602 -0.1228  0.2435
  834MOL0     C14984   8.476  10.383   9.712  0.9863 -0.1281 -0.0868
  834MOL0     O14985   8.414  10.421   9.836 -0.5491 -0.5747  0.1673
  834MOL0     C14986   8.486  10.521   9.900  1.2056 -0.0954 -0.0851
  834MOL0     C14987   8.605  10.491   9.953 -0.1018  0.0377 -0.5498
  834MOL0     C14988   8.667  10.588  10.037 -0.0636  0.4763  0.6753
  834MOL0     C14989   8.622  10.713  10.060 -0.1392 -0.7759  0.1048
  834MOL0     O14990   8.675  10.812  10.134 -0.2576  0.0313 -0.1029
  834MOL0     C14991   8.816  10.799  10.162 -0.4603 -0.2322 -0.4465
  834MOL0     C14992   8.875  10.928  10.210  0.2792  1.1233 -0.0273
  834MOL0     C14993   8.794  10.984  10.328 -0.2775  0.3037  0.4813
  834MOL0     C14994   8.861  11.114  10.358  0.3930 -0.3782 -0.1765
  834MOL0     C14995   8.792  11.178  10.479  0.4231  0.1457 -0.5574
  834MOL0     C14996   8.856  11.305  10.522  0.3796 -0.2337  0.3450
  834MOL0     C14997   8.801  11.410  10.421  0.1391  1.0623  0.1317
  834MOL0     C14998   8.880  11.541  10.419 -0.6339 -0.5105  0.0295
  834MOL0    Cl14999   8.894  11.631  10.574 -0.3338 -0.0882  0.3203
  834MOL0     C15000   8.502  10.742   9.999  0.5629 -0.3623 -0.0367
  834MOL0     C15001   8.428  10.645   9.925  0.4025  0.0601  0.2966
  834MOL0     O15002   8.590  10.419   9.684 -0.3606 -0.2003  0.5660
  834MOL0     C15003   8.250  10.284   9.664 -0.5774  0.6396  0.4232
  834MOL0     C15004   8.158  10.222   9.588 -0.0573  0.0861 -0.1350
  834MOL0     N15005   7.606   9.919   9.178 -0.3698 -0.3544 -0.2259
  834MOL0     N15006   7.482   9.913   9.186  0.4444  0.2590  0.4140
  834MOL0     C15007   6.705  10.155   8.221 -0.6168 -0.3455 -0.2344
  834MOL0     C15008   6.611  10.219   8.136  0.1511 -0.2208 -0.2791
  834MOL0     C15009   6.283  10.431   7.928  0.2198  0.8387  0.4732
  834MOL0     C15010   6.167  10.405   8.007 -0.9455 -0.1991 -0.1456
  834MOL0     C15011   6.046  10.450   7.971 -0.1782  0.4975  0.1789
  834MOL0     C15012   6.027  10.515   7.844 -0.9968 -0.1314 -0.3552
  834MOL0     O15013   5.900  10.567   7.805 -0.3034 -0.2497 -0.2362
  834MOL0     C15014   5.772  10.510   7.849 -1.0552  0.0110  0.2971
  834MOL0     C15015   5.712  10.587   7.964 -0.4452 -0.9703  0.0213
  834MOL0     C15016   5.585  10.522   8.012  0.9373  0.5783 -0.3056
  834MOL0     C15017   5.469  10.537   7.918 -0.0607 -0.3917 -0.5449
  834MOL0     C15018   5.353  10.469   7.983 -0.9088  0.4846  0.3880
  834MOL0     C15019   5.294  10.402   8.066 -0.5986 -0.4373  0.4892
  834MOL0     C15020   6.138  10.547   7.766 -0.0050 -0.5911  0.5582
  834MOL0     C15021   6.267  10.503   7.810  0.5151 -0.6080  0.0827
  834MOL0     C15022   6.384  10.556   7.728 -0.9431 -0.2333  0.5908
  834MOL0     H15023   6.423  10.364   8.376 -0.5607 -0.7069  1.2696
  834MOL0     H15024   6.591  10.252   8.524 -1.2936 -3.8004 -0.1242
  834MOL0     H15025   6.666  10.064   8.602  0.4310 -2.2769 -0.0441
  834MOL0     H15026   6.794  10.189   8.633  0.6557 -1.2136  2.7034
  834MOL0     H15027   6.817   9.953   8.737 -0.0366  1.8574  0.1888
  834MOL0     H15028   6.856   9.903   8.563  0.8755 -0.1488 -0.1859
  834MOL0     H15029   7.032  10.077   8.568 -1.0005 -2.0178 -0.2514
  834MOL0     H15030   6.990  10.114   8.735 -0.6515  0.7007  0.6194
  834MOL0     H15031   7.051   9.856   8.769  1.5010 -1.4212 -0.3653
  834MOL0     H15032   7.088   9.851   8.601  0.9293 -0.6589  0.5402
  834MOL0     H15033   7.288   9.991   8.613  1.1116 -1.8246 -0.3709
  834MOL0     H15034   7.293   9.850   8.718  0.4532  1.5065  1.7971
  834MOL0     H15035   7.387  10.057   8.837 -0.5200  1.9830  1.8333
  834MOL0     H15036   7.233  10.136   8.802 -0.0944  0.6479  0.7533
  834MOL0     H15037   7.268   9.867   8.951 -0.0518 -0.3948 -0.6420
  834MOL0     H15038   7.129   9.976   8.948  0.2074 -1.4774  1.4365
  834MOL0     H15039   7.271  10.144   9.095 -0.3512 -0.0322  1.5050
  834MOL0     H15040   7.217   9.994   9.170 -0.1654  2.2371 -0.3244
  834MOL0     H15041   7.526  10.176   8.994 -1.4040 -1.2803 -1.6970
  834MOL0     H15042   7.780  10.151   9.001  0.2722 -1.2073 -2.6505
  834MOL0     H15043   7.838   9.994   9.034 -0.9997  0.7871 -2.8667
  834MOL0     H15044   7.944  10.194   9.164  0.2929 -0.0492  0.4882
  834MOL0     H15045   7.804  10.203   9.258  2.4515  1.8317 -0.4071
  834MOL0     H15046   7.831   9.962   9.338 -0.1423 -1.6192 -0.8587
  834MOL0     H15047   7.977   9.953   9.249 -0.5158 -1.3547 -0.0480
  834MOL0     H15048   7.937  10.190   9.438 -0.5428 -0.6578 -0.9610
  834MOL0     H15049   7.957  10.023   9.503  2.3733  0.2030  1.9845
  834MOL0     H15050   8.358  10.151   9.320 -0.3969  1.2529 -0.0980
  834MOL0     H15051   8.571  10.369   9.433  1.0618  0.2030 -0.3011
  834MOL0     H15052   8.578  10.209   9.347  2.3060  0.7547 -0.3721
  834MOL0     H15053   8.647  10.229   9.506 -1.2792 -1.0684  0.6894
  834MOL0     H15054   8.648  10.391   9.951 -3.0548 -1.4605  2.2364
  834MOL0     H15055   8.759  10.556  10.084  0.3865 -1.2812 -1.2666
  834MOL0     H15056   8.835  10.725  10.240  0.6689  1.7469  1.2584
  834MOL0     H15057   8.870  10.771  10.071  1.1661 -2.5530  1.1422
  834MOL0     H15058   8.983  10.912  10.216  0.2897  0.1826 -1.9053
  834MOL0     H15059   8.866  10.999  10.127 -4.0190 -0.2638 -0.9651
  834MOL0     H15060   8.797  10.912  10.410 -0.6498 -3.1787 -2.3278
  834MOL0     H15061   8.690  11.003  10.301 -0.6685 -2.4119 -0.1958
  834MOL0     H15062   8.870  11.184  10.274 -0.6543  1.1288  0.9076
  834MOL0     H15063   8.961  11.086  10.392  0.1969 -1.0830 -0.1570
  834MOL0     H15064   8.688  11.194  10.447  1.0333  1.4629 -2.0123
  834MOL0     H15065   8.784  11.110  10.564 -0.5836  2.3616  1.2312
  834MOL0     H15066   8.963  11.293  10.541  0.7096  1.8562  0.0278
  834MOL0     H15067   8.829  11.341  10.621  2.2345 -1.3164  1.3107
  834MOL0     H15068   8.697  11.428  10.452  0.3212  1.3486  0.5938
  834MOL0     H15069   8.806  11.373  10.319  2.2391  2.4002 -0.3081
  834MOL0     H15070   8.845  11.606  10.338  2.8128  0.3489 -0.9346
  834MOL0     H15071   8.983  11.524  10.385 -1.3920 -0.7758 -2.3799
  834MOL0     H15072   8.465  10.843  10.014  2.1434  0.2202  0.1305
  834MOL0     H15073   8.339  10.675   9.871 -0.3211  1.0263  1.9666
  834MOL0     H15074   8.220  10.324   9.761  0.2878 -0.1754  1.0360
  834MOL0     H15075   8.055  10.214   9.622 -1.3113  0.4711 -3.4597
  834MOL0     H15076   6.782  10.092   8.179 -0.1642  0.8932 -1.3272
  834MOL0     H15077   6.611  10.199   8.029  0.6790  0.1606 -0.3570
  834MOL0     H15078   6.185  10.343   8.093  2.0206  0.9286  0.1641
  834MOL0     H15079   5.970  10.446   8.048 -0.3081 -1.5859 -0.0088
  834MOL0     H15080   5.697  10.508   7.769  0.0705 -1.8794 -0.7892
  834MOL0     H15081   5.788  10.409   7.888 -3.3521 -0.3038  0.5388
  834MOL0     H15082   5.686  10.686   7.925 -0.0126 -2.0249 -3.1902
  834MOL0     H15083   5.792  10.605   8.038 -1.9924  2.7255  1.0324
  834MOL0     H15084   5.605  10.415   8.017  0.2682  0.4785  0.3825
  834MOL0     H15085   5.567  10.549   8.117  1.3128  0.5931 -0.2406
  834MOL0     H15086   5.480  10.497   7.817  0.3994 -3.3406  0.5885
  834MOL0     H15087   5.449  10.645   7.918 -0.7457 -0.3446  3.5922
  834MOL0     H15088   5.224  10.345   8.123 -2.9546 -1.1161 -2.7549
  834MOL0     H15089   6.112  10.597   7.674  2.6468  1.6063  0.8605
  834MOL0     H15090   6.461  10.605   7.788 -2.4465  1.7399  1.0181
  834MOL0     H15091   6.427  10.470   7.675 -0.7734 -0.4525  1.0760
  834MOL0     H15092   6.352  10.625   7.650  1.5238 -0.3453 -0.6039
  835MOL0     O15093   2.397   1.207   5.127 -0.9408 -0.3382  0.3639
  835MOL0     C15094   2.339   1.207   5.235 -1.0525  0.3632  0.3502
  835MOL0     O15095   2.390   1.173   5.357 -0.3077 -0.6192 -0.0990
  835MOL0     C15096   2.517   1.108   5.374 -0.3317 -0.4079 -0.9109
  835MOL0     C15097   2.611   1.055   5.281 -0.2073 -0.2730  0.1262
  835MOL0     C15098   2.727   0.990   5.325  0.3176  0.5464  0.1114
  835MOL0     C15099   2.766   0.995   5.463 -0.3811  0.2205  0.4409
  835MOL0     O15100   2.871   0.913   5.510 -0.0113  0.0914  0.5051
  835MOL0     C15101   2.985   0.893   5.426 -0.4037  0.1036  0.0653
  835MOL0     C15102   3.109   0.879   5.508 -0.3404  0.1415  0.2339
  835MOL0     C15103   3.228   0.882   5.417 -0.8333  0.2266 -0.9527
  835MOL0     C15104   3.356   0.895   5.514 -0.4559  0.5112  0.1629
  835MOL0     C15105   3.477   0.848   5.439 -0.4230  0.1698  0.4048
  835MOL0     C15106   3.598   0.819   5.537 -0.4826 -0.6252  0.3631
  835MOL0     C15107   3.716   0.775   5.459 -1.2346 -1.3063  0.4625
  835MOL0     C15108   3.848   0.736   5.539 -0.3135 -0.0879  0.5716
  835MOL0     N15109   3.963   0.700   5.463 -0.6451 -0.8692 -0.7756
  835MOL0     C15110   4.024   0.780   5.368 -0.0473 -0.1255  0.1749
  835MOL0     C15111   4.153   0.737   5.360  0.2833  0.3375 -0.7008
  835MOL0     C15112   4.260   0.805   5.284 -0.1501  0.9615 -0.7060
  835MOL0     C15113   4.408   0.779   5.335  1.0270  0.5415  0.3053
  835MOL0     C15114   4.519   0.886   5.298 -0.2380  0.0592 -0.9393
  835MOL0     C15115   4.483   1.030   5.324  1.1754  0.2962 -0.8320
  835MOL0     O15116   4.445   1.061   5.466 -0.0447 -0.0061 -0.1894
  835MOL0     C15117   4.540   1.102   5.554  0.1355  0.1250  1.0966
  835MOL0     C15118   4.677   1.086   5.529 -0.0335  0.0686  0.2790
  835MOL0     C15119   4.771   1.122   5.628  0.8199  0.0982 -0.1564
  835MOL0     C15120   4.912   1.136   5.588  0.3468 -0.1772  0.4786
  835MOL0     C15121   4.726   1.167   5.757 -0.3686 -0.3502 -0.7686
  835MOL0     C15122   4.814   1.187   5.878  0.1599  0.4171  0.5139
  835MOL0     O15123   4.929   1.109   5.882 -0.3815 -0.1150 -0.0662
  835MOL0     C15124   5.021   1.111   5.987  0.3047 -0.4466  0.6437
  835MOL0     C15125   5.099   0.993   6.001  0.5727 -0.1897  0.0042
  835MOL0     C15126   5.195   0.970   6.100  1.0309  0.4040 -0.0637
  835MOL0     C15127   5.224   1.068   6.192  0.1350 -0.5059 -1.0107
  835MOL0     O15128   5.319   1.052   6.300 -0.1260 -0.0134  0.6743
  835MOL0     C15129   5.406   0.941   6.307 -0.2833  0.4633 -0.4951
  835MOL0     C15130   5.490   0.954   6.434 -0.6468 -0.6341 -0.6775
  835MOL0     C15131   5.604   0.848   6.432  0.0304  0.2913  0.7412
  835MOL0     C15132   5.716   0.904   6.526 -0.3067  0.6499 -0.1213
  835MOL0     C15133   5.829   0.804   6.555 -0.4766 -0.4939 -1.0753
  835MOL0     C15134   5.923   0.803   6.431  0.1542  0.0753  0.4727
  835MOL0     C15135   6.058   0.741   6.468 -1.1431  0.1481 -0.6414
  835MOL0     C15136   6.175   0.737   6.358 -0.2830 -0.1051 -0.1605
  835MOL0    Cl15137   6.202   0.898   6.275 -0.0472  0.3316  0.2500
  835MOL0     C15138   5.153   1.186   6.179 -0.0881 -0.8199  0.3607
  835MOL0     C15139   5.051   1.210   6.084  0.1163 -0.3209  0.1720
  835MOL0     O15140   4.776   1.262   5.970  0.3454 -0.6453  0.8649
  835MOL0     C15141   4.590   1.192   5.765  0.3377  0.3319  0.4051
  835MOL0     C15142   4.497   1.156   5.672  0.1251 -0.0593  0.9279
  835MOL0     N15143   4.173   0.633   5.444 -0.4551  0.0065  0.1291
  835MOL0     N15144   4.060   0.611   5.502  0.2440  0.5146 -0.5617
  835MOL0     C15145   2.673   1.040   5.560 -0.5978 -0.0406  0.0933
  835MOL0     C15146   2.555   1.100   5.513  0.8608  0.2913 -0.2099
  835MOL0     C15147   2.196   1.246   5.242 -1.0222 -0.1569 -0.2988
  835MOL0     C15148   2.133   1.270   5.376 -0.8845 -0.2364  0.9341
  835MOL0     C15149   1.998   1.300   5.386 -0.3130  0.1824  0.1157
  835MOL0     C15150   1.917   1.294   5.272  0.0490 -0.3889 -0.2934
  835MOL0     O15151   1.784   1.305   5.280  0.5609  0.3417  0.5973
  835MOL0     C15152   1.730   1.431   5.324  0.8206 -0.4458 -0.4377
  835MOL0     C15153   1.585   1.409   5.311  0.0072  0.0410 -0.0511
  835MOL0     C15154   1.537   1.376   5.166 -0.5269 -0.2002 -0.0688
  835MOL0     C15155   1.396   1.421   5.140 -0.8231 -0.4890  0.5918
  835MOL0     C15156   1.354   1.408   4.999  0.9251  0.4197 -0.7009
  835MOL0     C15157   1.316   1.403   4.881  0.0661  0.4097 -0.0267
  835MOL0     C15158   1.971   1.269   5.149 -0.1379  0.0434 -0.1632
  835MOL0     C15159   2.109   1.240   5.126  1.1911  0.6205  0.5614
  835MOL0     C15160   2.154   1.208   4.985 -0.0348 -0.1751 -0.2786
  835MOL0     H15161   2.590   1.038   5.176  1.3304 -3.4026  0.1988
  835MOL0     H15162   2.788   0.942   5.249 -0.0017 -0.1837  0.3012
  835MOL0     H15163   2.999   0.979   5.359 -0.2482 -2.4300 -3.4226
  835MOL0     H15164   2.969   0.818   5.348 -1.1560  0.3156  0.0108
  835MOL0     H15165   3.114   0.960   5.581  0.5577 -0.0131  0.3535
  835MOL0     H15166   3.095   0.786   5.564  0.1232  0.2834  0.5915
  835MOL0     H15167   3.230   0.789   5.359  0.8356  0.0741 -0.7000
  835MOL0     H15168   3.233   0.970   5.352  2.5729  1.5434  0.8597
  835MOL0     H15169   3.370   0.992   5.562 -1.9604 -0.8106  3.5842
  835MOL0     H15170   3.339   0.821   5.592 -1.0996  0.7054  0.2132
  835MOL0     H15171   3.506   0.911   5.355 -0.4458  2.8284  2.2982
  835MOL0     H15172   3.443   0.757   5.388  1.0561 -0.0683 -0.2119
  835MOL0     H15173   3.622   0.913   5.588  0.1517  0.0496 -1.1419
  835MOL0     H15174   3.565   0.737   5.601 -0.2393 -1.5812 -0.7118
  835MOL0     H15175   3.742   0.853   5.386 -0.3758 -1.6968  0.3318
  835MOL0     H15176   3.706   0.687   5.395  2.1159 -0.8011 -0.9680
  835MOL0     H15177   3.862   0.821   5.607  0.3512  0.4491 -0.2189
  835MOL0     H15178   3.815   0.648   5.597 -3.0796  0.5383  0.1097
  835MOL0     H15179   3.987   0.867   5.316  0.4055  1.1945  1.9664
  835MOL0     H15180   4.242   0.913   5.280 -3.6960  0.4787 -0.9775
  835MOL0     H15181   4.251   0.764   5.183  1.2462 -0.7411 -0.1942
  835MOL0     H15182   4.399   0.791   5.443 -0.0455  1.2585  0.1543
  835MOL0     H15183   4.437   0.675   5.317 -1.3999  0.0515 -1.2787
  835MOL0     H15184   4.606   0.863   5.359 -2.3629 -0.6178  2.0397
  835MOL0     H15185   4.537   0.885   5.190 -2.1902 -1.0931 -1.3116
  835MOL0     H15186   4.564   1.089   5.280  2.0794  1.5109  2.1619
  835MOL0     H15187   4.400   1.055   5.257  0.9814 -0.6748 -0.9646
  835MOL0     H15188   4.710   1.040   5.437 -2.9614  2.0182 -1.9584
  835MOL0     H15189   4.956   1.043   5.624  1.2672  0.6917  1.6643
  835MOL0     H15190   4.972   1.217   5.629  2.8262 -1.6503 -0.0504
  835MOL0     H15191   4.915   1.144   5.479  3.1189 -0.1078  0.4912
  835MOL0     H15192   5.075   0.911   5.934 -0.2023 -0.1049  0.1688
  835MOL0     H15193   5.248   0.876   6.095  0.0831 -0.1184 -0.5001
  835MOL0     H15194   5.352   0.846   6.309  0.5511 -0.0031  0.3793
  835MOL0     H15195   5.470   0.958   6.221  1.3099  1.6146  0.8635
  835MOL0     H15196   5.523   1.058   6.444  0.2870 -1.0840  1.4556
  835MOL0     H15197   5.437   0.934   6.528 -1.8763 -1.8485 -1.5872
  835MOL0     H15198   5.637   0.835   6.328  2.6648  0.5996  1.4664
  835MOL0     H15199   5.567   0.754   6.473 -1.3326  0.6060  0.3063
  835MOL0     H15200   5.662   0.930   6.618 -0.4074 -1.6085  0.5076
  835MOL0     H15201   5.749   0.997   6.478  1.0140 -2.0390 -5.0342
  835MOL0     H15202   5.894   0.849   6.630  0.6186  2.8597 -3.7415
  835MOL0     H15203   5.803   0.704   6.591  0.5577 -0.0825  0.9715
  835MOL0     H15204   5.928   0.907   6.399 -3.2197 -0.0098 -0.7834
  835MOL0     H15205   5.876   0.749   6.348  0.2161 -0.7098  0.9428
  835MOL0     H15206   6.041   0.641   6.508  1.4166  0.6633  2.1207
  835MOL0     H15207   6.090   0.806   6.550  0.2952  0.4472 -1.4100
  835MOL0     H15208   6.165   0.661   6.280  2.0112  2.0877 -2.7835
  835MOL0     H15209   6.267   0.722   6.414  1.2799  0.6535 -2.3899
  835MOL0     H15210   5.175   1.274   6.239  0.4656 -1.5853  1.3055
  835MOL0     H15211   5.008   1.309   6.072 -1.0595 -0.9408 -0.9974
  835MOL0     H15212   4.557   1.236   5.858  1.2054 -3.6568  2.8299
  835MOL0     H15213   4.392   1.184   5.678  0.2861  1.0381 -0.6928
  835MOL0     H15214   2.699   1.038   5.666  4.1970  0.6906 -0.8370
  835MOL0     H15215   2.486   1.141   5.587  1.0058  0.8737 -0.3950
  835MOL0     H15216   2.204   1.267   5.459 -0.4062 -2.3947  0.5033
  835MOL0     H15217   1.956   1.311   5.485  2.0784 -0.3072  1.2610
  835MOL0     H15218   1.763   1.452   5.426  2.9434 -1.7629 -0.7876
  835MOL0     H15219   1.759   1.511   5.255 -0.5388 -0.3443 -0.9073
  835MOL0     H15220   1.536   1.505   5.334 -1.0487 -0.1107 -1.5092
  835MOL0     H15221   1.554   1.334   5.385  1.7231  0.3169  1.0047
  835MOL0     H15222   1.600   1.433   5.097 -1.6233  2.1462  0.7412
  835MOL0     H15223   1.554   1.270   5.147  1.2361  0.3531 -1.9313
  835MOL0     H15224   1.392   1.526   5.169 -0.4472 -0.1370 -0.5782
  835MOL0     H15225   1.329   1.364   5.205 -2.3585 -1.6987 -1.9116
  835MOL0     H15226   1.300   1.383   4.777  3.3399 -0.1423 -0.5208
  835MOL0     H15227   1.902   1.279   5.066  0.1467  0.6872 -0.3255
  835MOL0     H15228   2.067   1.203   4.918 -0.2723 -0.8830  0.0767
  835MOL0     H15229   2.228   1.281   4.953  1.8590 -0.9201  2.1345
  835MOL0     H15230   2.198   1.108   4.987 -1.2604 -0.7403 -0.6329
  836MOL0     O15231   7.995  10.066   4.864 -0.3462  0.2417 -0.2859
  836MOL0     C15232   7.979  10.154   4.944 -0.1260  0.8576 -0.4981
  836MOL0     O15233   8.076  10.196   5.031  0.0325  0.4977 -0.7843
  836MOL0     C15234   8.203  10.141   5.040  0.0492 -0.3947  0.6568
  836MOL0     C15235   8.301  10.216   5.111  0.1210 -0.1393  0.4182
  836MOL0     C15236   8.425  10.164   5.131 -0.3648 -0.3732  0.3168
  836MOL0     C15237   8.464  10.030   5.100 -0.3088 -0.2693  0.0101
  836MOL0     O15238   8.583   9.964   5.132  0.3486 -0.1274 -0.2696
  836MOL0     C15239   8.681  10.031   5.208  0.3108 -0.3248 -0.0261
  836MOL0     C15240   8.812   9.954   5.211  0.4307  0.5820 -0.3223
  836MOL0     C15241   8.912  10.032   5.297 -0.3249 -0.5314  0.2002
  836MOL0     C15242   9.049   9.968   5.275  1.0347  0.6661  0.0247
  836MOL0     C15243   9.156  10.065   5.335  0.5290 -0.0892 -0.7985
  836MOL0     C15244   9.300  10.011   5.350 -0.6206 -0.3230 -0.2978
  836MOL0     C15245   9.399  10.120   5.389 -0.4530  0.2305 -0.4686
  836MOL0     C15246   9.426  10.224   5.277 -0.0982 -0.9728 -0.4462
  836MOL0     N15247   9.482  10.355   5.315 -1.0670 -0.1199 -0.8533
  836MOL0     C15248   9.587  10.382   5.405 -0.6438  0.4977 -0.9380
  836MOL0     C15249   9.611  10.513   5.401 -0.5161 -0.9500 -0.5440
  836MOL0     C15250   9.719  10.604   5.457  0.0848 -0.1515 -0.0509
  836MOL0     C15251   9.860  10.566   5.400  0.3638  0.2093 -0.9780
  836MOL0     C15252   9.962  10.655   5.451 -1.1731 -0.2583  0.7923
  836MOL0     C15253   9.961  10.807   5.413 -0.2442  0.2632 -1.1785
  836MOL0     O15254   9.994  10.824   5.267  0.4856  0.0635  0.3981
  836MOL0     C15255  10.117  10.859   5.231  0.7344 -0.5144  0.3443
  836MOL0     C15256  10.157  10.998   5.228 -0.5659  0.0449 -0.8095
  836MOL0     C15257  10.295  11.034   5.192  0.2123  0.0785 -0.8470
  836MOL0     C15258  10.337  11.180   5.225 -0.2445  0.5169 -0.6641
  836MOL0     C15259  10.383  10.939   5.141 -0.0436 -0.0583  0.4934
  836MOL0     C15260  10.526  10.961   5.100  0.1079  0.2757 -0.2673
  836MOL0     O15261  10.593  10.848   5.049  0.2894  0.3568  0.3015
  836MOL0     C15262  10.733  10.850   5.030  0.2392  0.0184 -0.2879
  836MOL0     C15263  10.818  10.888   5.133 -0.2662 -0.2722  0.2388
  836MOL0     C15264  10.951  10.890   5.128  0.7448 -0.8387 -0.1901
  836MOL0     C15265  11.016  10.853   5.009 -0.5224 -0.1564 -0.0817
  836MOL0     O15266  11.156  10.854   5.015  0.8145  0.7962 -0.0759
  836MOL0     C15267  11.231  10.829   4.895  0.4022  0.0784 -1.2239
  836MOL0     C15268  11.375  10.849   4.919  0.9944  0.1153  0.4005
  836MOL0     C15269  11.400  10.996   4.954 -0.3747  0.0759  0.0798
  836MOL0     C15270  11.552  11.017   4.985  0.5392  0.9167  0.1012
  836MOL0     C15271  11.630  11.020   4.859 -0.5221  0.8981 -0.3014
  836MOL0     C15272  11.786  11.036   4.889  0.2876 -0.2229 -0.3167
  836MOL0     C15273  11.856  11.048   4.758  1.2062 -0.4398  0.2326
  836MOL0     C15274  11.878  10.903   4.695  0.1655 -0.4753 -0.0077
  836MOL0    Cl15275  12.005  10.903   4.563 -0.0433  0.4513  0.0705
  836MOL0     C15276  10.935  10.814   4.900 -0.6086  0.5985 -0.6482
  836MOL0     C15277  10.793  10.805   4.907 -0.0616 -0.3851 -0.0585
  836MOL0     O15278  10.574  11.067   5.123 -0.2610 -0.4689 -0.5078
  836MOL0     C15279  10.335  10.809   5.137  0.2305 -0.4292 -0.0511
  836MOL0     C15280  10.208  10.770   5.184 -0.1324 -0.4814  0.4019
  836MOL0     N15281   9.512  10.571   5.326 -0.6990 -0.4693  0.3621
  836MOL0     N15282   9.430  10.476   5.281  0.4776 -0.1222 -0.8214
  836MOL0     C15283   8.366   9.961   5.032  0.0736  0.3615  0.0333
  836MOL0     C15284   8.238  10.009   5.005 -0.6873  0.5386  0.5279
  836MOL0     C15285   7.846  10.217   4.960 -0.8810 -0.6960 -0.2738
  836MOL0     C15286   7.832  10.337   5.028 -0.6343  0.0653 -0.0315
  836MOL0     C15287   7.710  10.405   5.047 -0.0120 -0.5654  0.2516
  836MOL0     C15288   7.599  10.366   4.978 -0.8102  0.0779 -0.0420
  836MOL0     O15289   7.486  10.435   5.014 -0.5110 -0.4307  0.9332
  836MOL0     C15290   7.363  10.375   4.960 -0.7951  0.3288 -0.5241
  836MOL0     C15291   7.260  10.488   4.943 -0.6000 -0.4396  0.3277
  836MOL0     C15292   7.206  10.535   5.076  0.8300 -0.8209 -1.3326
  836MOL0     C15293   7.300  10.629   5.156 -0.3045 -0.0405 -0.1350
  836MOL0     C15294   7.333  10.751   5.097  0.5994  0.1691 -0.1433
  836MOL0     C15295   7.351  10.862   5.054  0.7746 -0.1744 -0.1501
  836MOL0     C15296   7.613  10.245   4.906 -0.4728 -0.2593  0.4942
  836MOL0     C15297   7.728  10.164   4.908 -0.1557  0.1947 -0.6079
  836MOL0     C15298   7.718  10.029   4.837  0.4440  0.3264 -0.2644
  836MOL0     H15299   8.275  10.315   5.144  1.2672  1.1911 -2.3414
  836MOL0     H15300   8.496  10.232   5.178  0.2771 -1.7987  1.5024
  836MOL0     H15301   8.639  10.034   5.309  2.5560  1.1076  0.9489
  836MOL0     H15302   8.700  10.132   5.168 -1.1660  0.5230  1.3259
  836MOL0     H15303   8.795   9.857   5.259 -1.3029  0.0424 -1.9208
  836MOL0     H15304   8.854   9.934   5.112  1.4753 -0.3383  0.2745
  836MOL0     H15305   8.917  10.135   5.262 -1.2100 -0.0550  1.4008
  836MOL0     H15306   8.871  10.024   5.398 -1.2566 -0.1046 -0.1440
  836MOL0     H15307   9.057   9.867   5.317 -0.5498 -0.3897 -1.9747
  836MOL0     H15308   9.063   9.946   5.169 -2.0812 -1.4485 -0.1061
  836MOL0     H15309   9.132  10.105   5.434  2.2991  0.7630 -0.6687
  836MOL0     H15310   9.149  10.153   5.270 -2.1066  0.7325  0.4538
  836MOL0     H15311   9.291   9.929   5.422  3.6170 -0.9686 -0.2253
  836MOL0     H15312   9.337   9.972   5.254  2.2168  1.6166 -0.1317
  836MOL0     H15313   9.490  10.066   5.419  0.0243  1.0358 -0.4368
  836MOL0     H15314   9.373  10.172   5.481  0.3785  0.6644 -0.4650
  836MOL0     H15315   9.498  10.182   5.207  0.1168 -1.8517  0.2810
  836MOL0     H15316   9.336  10.249   5.221 -1.1421 -1.8483  0.7843
  836MOL0     H15317   9.643  10.303   5.453 -1.3279 -1.2491 -2.8566
  836MOL0     H15318   9.710  10.611   5.566  0.2568  2.0518 -0.1467
  836MOL0     H15319   9.700  10.706   5.424  1.1408  0.0096 -0.2182
  836MOL0     H15320   9.886  10.469   5.444 -0.2667 -0.1461 -1.3645
  836MOL0     H15321   9.880  10.550   5.293  2.6767  1.4246 -0.7793
  836MOL0     H15322   9.975  10.646   5.559 -0.6766 -1.3580  0.6453
  836MOL0     H15323  10.055  10.611   5.414 -0.0908  2.2836  0.2921
  836MOL0     H15324   9.859  10.840   5.437 -0.9527 -0.9358 -2.3624
  836MOL0     H15325  10.032  10.862   5.475  0.6185 -1.5803 -0.4733
  836MOL0     H15326  10.085  11.062   5.277  2.9201  0.6420  4.3169
  836MOL0     H15327  10.434  11.181   5.276  0.2951 -2.0991 -1.4548
  836MOL0     H15328  10.266  11.230   5.291 -0.1801  2.1915 -1.8138
  836MOL0     H15329  10.345  11.242   5.135  0.1245  2.5706  0.7171
  836MOL0     H15330  10.767  10.927   5.221 -3.4859  0.3081 -1.6961
  836MOL0     H15331  11.013  10.931   5.207 -2.2155  2.2081  0.8074
  836MOL0     H15332  11.220  10.726   4.861  2.8600 -1.7581  2.8169
  836MOL0     H15333  11.207  10.899   4.814  0.6735  1.0280 -0.5106
  836MOL0     H15334  11.408  10.781   4.997 -2.6296 -0.3328  1.7417
  836MOL0     H15335  11.414  10.825   4.820  0.4969  1.3066 -0.1057
  836MOL0     H15336  11.355  11.021   5.050  2.0761  1.4752  0.9628
  836MOL0     H15337  11.366  11.068   4.879 -0.0886  2.4361  2.0964
  836MOL0     H15338  11.577  10.934   5.051  0.3126  1.8172  1.3629
  836MOL0     H15339  11.568  11.112   5.036  2.2589  0.5444  0.3273
  836MOL0     H15340  11.614  10.926   4.804 -1.1924  1.6810 -1.4905
  836MOL0     H15341  11.603  11.106   4.797  0.0662  1.1886 -0.1616
  836MOL0     H15342  11.826  10.950   4.943 -0.6526 -0.4470  0.0333
  836MOL0     H15343  11.796  11.119   4.960  1.8045 -1.3428  0.8444
  836MOL0     H15344  11.953  11.098   4.763  0.0863  1.9093 -0.2821
  836MOL0     H15345  11.791  11.102   4.690 -1.1162 -3.7668 -0.4291
  836MOL0     H15346  11.781  10.866   4.660  0.3302 -3.2294  2.1347
  836MOL0     H15347  11.903  10.845   4.784  1.8575  1.8524  1.1510
  836MOL0     H15348  10.987  10.778   4.812 -0.5734  1.0164 -0.7963
  836MOL0     H15349  10.733  10.765   4.825  1.3448  0.4723 -1.5612
  836MOL0     H15350  10.396  10.726   5.104  0.6227  0.2231 -1.0349
  836MOL0     H15351  10.174  10.669   5.164  0.1441 -1.5411  4.3297
  836MOL0     H15352   8.388   9.858   5.003  1.1087  0.4623  0.4390
  836MOL0     H15353   8.173   9.930   4.968  2.1775 -1.3097 -0.9141
  836MOL0     H15354   7.923  10.383   5.064 -0.0012 -0.3486 -1.0517
  836MOL0     H15355   7.701  10.493   5.110 -2.6089  0.6402 -1.6231
  836MOL0     H15356   7.382  10.339   4.858  1.3326  0.6842 -0.2915
  836MOL0     H15357   7.331  10.290   5.020  0.5390 -0.7240 -1.2625
  836MOL0     H15358   7.181  10.457   4.874 -0.2294 -1.0749  0.1799
  836MOL0     H15359   7.310  10.569   4.890 -0.4519 -2.1863 -2.4166
  836MOL0     H15360   7.119  10.598   5.052  0.2039 -1.8236 -1.7444
  836MOL0     H15361   7.184  10.448   5.138  3.3143  0.6607  1.8940
  836MOL0     H15362   7.392  10.577   5.184 -2.0628 -2.5457  1.4072
  836MOL0     H15363   7.251  10.650   5.251 -0.5799  3.0113 -0.8714
  836MOL0     H15364   7.373  10.960   5.017 -0.1160  1.2751  2.9197
  836MOL0     H15365   7.520  10.208   4.863 -1.5087 -0.3665  2.6667
  836MOL0     H15366   7.616   9.990   4.837  0.5842 -0.1970 -2.5532
  836MOL0     H15367   7.748  10.039   4.732  0.7144  1.8266 -0.0626
  836MOL0     H15368   7.788   9.958   4.882 -0.1646  1.7309  3.1567
  837MOL0     O15369   5.418   0.109   6.384  0.1722 -0.5313 -0.7077
  837MOL0     C15370   5.364   0.003   6.403  0.4455  0.7911 -0.1044
  837MOL0     O15371   5.422  -0.111   6.439  0.9286  0.0344 -0.4295
  837MOL0     C15372   5.558  -0.147   6.438  0.4808 -0.3600  0.7165
  837MOL0     C15373   5.589  -0.282   6.467 -0.2863  0.7466  0.2335
  837MOL0     C15374   5.718  -0.323   6.491 -0.3858 -0.8672 -0.7279
  837MOL0     C15375   5.821  -0.233   6.485  0.0752  0.2949 -0.7506
  837MOL0     O15376   5.947  -0.288   6.493 -0.1108  0.2305 -0.0249
  837MOL0     C15377   6.047  -0.224   6.572 -1.0072 -0.3317  0.5455
  837MOL0     C15378   6.131  -0.336   6.634 -0.6924  0.0734 -0.8852
  837MOL0     C15379   6.220  -0.278   6.752  0.1158 -0.6518 -0.4663
  837MOL0     C15380   6.338  -0.365   6.779 -0.1818 -0.6777 -0.4257
  837MOL0     C15381   6.414  -0.302   6.908  0.1834  0.1150 -0.4228
  837MOL0     C15382   6.493  -0.427   6.957  0.1391  0.3772 -0.2586
  837MOL0     C15383   6.560  -0.387   7.086 -0.6956 -0.3799 -0.3811
  837MOL0     C15384   6.652  -0.488   7.148 -0.0337  0.6102  0.7027
  837MOL0     N15385   6.708  -0.437   7.272 -0.1365 -0.4640  0.7854
  837MOL0     C15386   6.838  -0.449   7.313  0.6696  0.8305 -0.2727
  837MOL0     C15387   6.848  -0.372   7.424  0.3122  0.1072  0.2896
  837MOL0     C15388   6.979  -0.341   7.487 -0.2049 -0.7863 -0.3252
  837MOL0     C15389   7.092  -0.344   7.387 -0.2117  0.8358 -0.6862
  837MOL0     C15390   7.217  -0.259   7.409 -0.0936  0.5323 -0.0767
  837MOL0     C15391   7.269  -0.283   7.549 -0.5711 -0.4744 -0.7350
  837MOL0     O15392   7.380  -0.187   7.569  0.1743  0.2806  0.1451
  837MOL0     C15393   7.467  -0.210   7.669  0.6223 -0.4762  0.4814
  837MOL0     C15394   7.477  -0.313   7.768  0.0948 -0.1553  0.8820
  837MOL0     C15395   7.580  -0.314   7.866 -0.1952  0.2875  0.3879
  837MOL0     C15396   7.568  -0.424   7.972  0.1712 -0.0601  0.6226
  837MOL0     C15397   7.679  -0.217   7.862  1.1516 -0.8479  0.9953
  837MOL0     C15398   7.788  -0.209   7.960  0.5812 -0.1413  0.6484
  837MOL0     O15399   7.887  -0.112   7.932  0.1039  0.0604 -0.0914
  837MOL0     C15400   8.014  -0.095   7.998  0.6796  0.1629 -0.2540
  837MOL0     C15401   8.054  -0.160   8.119 -0.1671 -0.0597  0.2724
  837MOL0     C15402   8.186  -0.139   8.174 -0.3050 -0.3903 -0.5380
  837MOL0     C15403   8.270  -0.046   8.115  0.3295  0.6043 -1.1064
  837MOL0     O15404   8.393  -0.024   8.162  0.3790 -0.6201 -0.9537
  837MOL0     C15405   8.482   0.091   8.123  0.2777  0.9403  0.3436
  837MOL0     C15406   8.619   0.066   8.191 -0.2083  0.1083  0.5641
  837MOL0     C15407   8.708  -0.031   8.106 -0.8418  0.4000 -0.3756
  837MOL0     C15408   8.857   0.015   8.096  0.2259 -0.2511  0.2902
  837MOL0     C15409   8.912  -0.057   7.969 -0.7980  0.2399 -0.2592
  837MOL0     C15410   9.064  -0.059   7.977 -0.3920 -0.3122  0.3323
  837MOL0     C15411   9.128  -0.133   7.855 -0.0513  0.3294 -0.4383
  837MOL0     C15412   9.273  -0.152   7.866 -0.9462  1.0632  0.4366
  837MOL0    Cl15413   9.361   0.008   7.879  0.5304 -0.1467 -0.1741
  837MOL0     C15414   8.235   0.011   7.997 -0.7889 -0.0668  0.6591
  837MOL0     C15415   8.111  -0.020   7.937 -0.3139 -1.0603  0.1511
  837MOL0     O15416   7.782  -0.286   8.058 -0.3659  0.1384 -0.3995
  837MOL0     C15417   7.670  -0.110   7.766 -0.2873  0.2427  0.6038
  837MOL0     C15418   7.552  -0.103   7.681 -0.9307 -0.3344  0.2681
  837MOL0     N15419   6.724  -0.319   7.458  0.2666  0.2814 -0.6754
  837MOL0     N15420   6.644  -0.355   7.364 -0.4762  0.1485 -0.1087
  837MOL0     C15421   5.800  -0.103   6.448  0.2890  0.0053  0.3594
  837MOL0     C15422   5.662  -0.063   6.435  0.4407 -0.7843  0.4222
  837MOL0     C15423   5.214  -0.003   6.383  0.9086 -0.0822 -0.0021
  837MOL0     C15424   5.140  -0.107   6.451 -0.9967 -0.4992  0.8471
  837MOL0     C15425   5.000  -0.128   6.433  0.6484  0.6149 -0.5535
  837MOL0     C15426   4.924  -0.033   6.370 -1.1206  0.3980  0.6723
  837MOL0     O15427   4.790  -0.017   6.365  0.4261  0.0673 -0.5159
  837MOL0     C15428   4.703  -0.115   6.435  0.3071  0.3399 -0.3729
  837MOL0     C15429   4.556  -0.099   6.432  0.0135  0.6148  0.3770
  837MOL0     C15430   4.514   0.018   6.524 -0.3786 -0.1358 -0.3643
  837MOL0     C15431   4.366   0.018   6.531 -0.0164 -0.2476 -0.2447
  837MOL0     C15432   4.301   0.144   6.571 -0.5139  0.2592 -0.5012
  837MOL0     C15433   4.236   0.237   6.607  0.1701  0.0620  0.1571
  837MOL0     C15434   4.993   0.072   6.305 -1.0114 -0.9645 -0.4386
  837MOL0     C15435   5.134   0.089   6.314  0.4575 -0.5528 -0.5293
  837MOL0     C15436   5.191   0.206   6.240 -0.0141  0.3437 -0.2628
  837MOL0     H15437   5.517  -0.362   6.450  1.8328 -1.4179  0.8747
  837MOL0     H15438   5.755  -0.424   6.507  3.7533  0.1323 -2.6738
  837MOL0     H15439   6.008  -0.160   6.651  0.0346 -0.3740  1.1087
  837MOL0     H15440   6.113  -0.156   6.517  0.2478 -0.3369  1.9740
  837MOL0     H15441   6.072  -0.415   6.681  1.6448  0.2458  2.7547
  837MOL0     H15442   6.194  -0.382   6.556 -0.2986 -1.1955  0.1348
  837MOL0     H15443   6.256  -0.180   6.718 -1.3905 -0.2505 -0.9531
  837MOL0     H15444   6.166  -0.263   6.845  0.7120 -3.6321  0.4606
  837MOL0     H15445   6.297  -0.464   6.803 -0.0945 -0.6868 -0.3130
  837MOL0     H15446   6.411  -0.382   6.701 -2.7331 -0.6072 -2.9879
  837MOL0     H15447   6.344  -0.259   6.981 -2.6376 -1.6129 -1.9381
  837MOL0     H15448   6.484  -0.223   6.880 -0.2896  0.2003 -1.4136
  837MOL0     H15449   6.421  -0.508   6.971 -0.2203  0.2576 -2.4031
  837MOL0     H15450   6.561  -0.481   6.892 -0.1285 -0.7756  0.3976
  837MOL0     H15451   6.485  -0.366   7.163  2.5181  1.1432  2.6228
  837MOL0     H15452   6.616  -0.294   7.069 -1.8276  1.0622  2.9407
  837MOL0     H15453   6.599  -0.578   7.179  3.2897 -1.3119  1.3418
  837MOL0     H15454   6.729  -0.509   7.073 -1.7870 -0.2016 -0.9476
  837MOL0     H15455   6.919  -0.508   7.270  2.6612  0.2756  3.7307
  837MOL0     H15456   6.996  -0.411   7.570 -1.9149 -0.9253 -0.0574
  837MOL0     H15457   6.979  -0.244   7.539 -1.5027 -2.7548  3.8125
  837MOL0     H15458   7.127  -0.444   7.361  1.7266  1.9386 -2.7458
  837MOL0     H15459   7.046  -0.308   7.295 -1.5876 -1.3980 -0.9202
  837MOL0     H15460   7.299  -0.292   7.345  0.3526 -0.8899  1.1686
  837MOL0     H15461   7.188  -0.156   7.388 -0.1308  0.5726  0.1750
  837MOL0     H15462   7.194  -0.259   7.626  2.1416 -0.2839  2.0097
  837MOL0     H15463   7.311  -0.383   7.563  0.7687  0.0720 -0.7075
  837MOL0     H15464   7.400  -0.390   7.767  1.6867 -1.8319  0.0510
  837MOL0     H15465   7.645  -0.501   7.964 -1.1129 -1.4360  1.0402
  837MOL0     H15466   7.468  -0.464   7.949  0.1297  0.8410 -0.9052
  837MOL0     H15467   7.574  -0.404   8.079  0.2637 -1.7656  0.9731
  837MOL0     H15468   7.978  -0.222   8.166 -1.4016  0.4210 -1.0159
  837MOL0     H15469   8.217  -0.189   8.265  0.9837 -0.6412 -1.1010
  837MOL0     H15470   8.500   0.099   8.016 -0.2516 -0.7052  0.0924
  837MOL0     H15471   8.429   0.178   8.163 -0.7632  1.2493 -1.5833
  837MOL0     H15472   8.673   0.161   8.202  1.1008 -0.6168  0.5590
  837MOL0     H15473   8.602   0.025   8.291  0.0430 -0.3167  0.4337
  837MOL0     H15474   8.667  -0.039   8.004 -2.0788 -0.1083  0.1454
  837MOL0     H15475   8.704  -0.132   8.147  0.4776  1.3747  2.4156
  837MOL0     H15476   8.918  -0.012   8.183 -0.1995  0.0979  0.7002
  837MOL0     H15477   8.867   0.122   8.078 -2.1705  0.5353  2.9910
  837MOL0     H15478   8.865  -0.155   7.958 -1.8534  0.4752  1.7053
  837MOL0     H15479   8.881   0.006   7.885 -0.1919  1.3332  0.3123
  837MOL0     H15480   9.101  -0.114   8.064  1.5788  1.5422  0.7368
  837MOL0     H15481   9.091   0.046   7.974 -1.7176  0.0292 -0.7587
  837MOL0     H15482   9.104  -0.068   7.771 -0.1358  1.5576  0.5125
  837MOL0     H15483   9.082  -0.232   7.840 -0.0584  0.5392 -1.9165
  837MOL0     H15484   9.307  -0.196   7.772  1.7759 -0.0367  1.8212
  837MOL0     H15485   9.301  -0.217   7.949 -0.1441 -0.6695 -1.1378
  837MOL0     H15486   8.314   0.068   7.948  0.8818 -3.0501 -0.3589
  837MOL0     H15487   8.101   0.031   7.841  0.4106 -1.3989 -0.1194
  837MOL0     H15488   7.740  -0.027   7.775 -3.2995  2.9107  1.3845
  837MOL0     H15489   7.555  -0.016   7.617 -0.9550  0.3875  1.2268
  837MOL0     H15490   5.885  -0.035   6.441  0.5540 -0.3586  0.0348
  837MOL0     H15491   5.641   0.041   6.415 -0.9572 -1.1687 -0.2213
  837MOL0     H15492   5.189  -0.185   6.509  1.8835  1.2498  0.9534
  837MOL0     H15493   4.950  -0.217   6.471  0.5085  0.9531  0.0769
  837MOL0     H15494   4.724  -0.211   6.388 -5.2548 -1.8428  0.9207
  837MOL0     H15495   4.737  -0.117   6.539  1.0481  1.4766 -0.5622
  837MOL0     H15496   4.503  -0.193   6.445  2.4296 -0.8761  0.0340
  837MOL0     H15497   4.529  -0.065   6.331  0.6951  0.8396  0.2660
  837MOL0     H15498   4.553   0.008   6.625 -1.1358 -1.0116 -0.1418
  837MOL0     H15499   4.555   0.112   6.485  0.4348 -0.5166 -0.4447
  837MOL0     H15500   4.332  -0.062   6.598  3.0699 -1.6286 -0.1473
  837MOL0     H15501   4.320  -0.013   6.437 -0.5964  0.5041 -0.2093
  837MOL0     H15502   4.179   0.315   6.654 -0.5535  0.0699 -0.6922
  837MOL0     H15503   4.938   0.153   6.259  1.6432  1.7484  0.7925
  837MOL0     H15504   5.254   0.268   6.305 -0.9158 -1.2840  2.3523
  837MOL0     H15505   5.246   0.166   6.155 -0.8901 -3.3830  0.7320
  837MOL0     H15506   5.112   0.270   6.201 -0.2693  0.2483  0.0931
  838MOL0     O15507   0.071   2.863   7.559  1.1169 -0.3644 -0.1577
  838MOL0     C15508  -0.028   2.813   7.500  0.2795  0.4834  0.2129
  838MOL0     O15509  -0.021   2.695   7.429 -0.0660 -0.3218 -0.2126
  838MOL0     C15510   0.094   2.630   7.426  0.5369  0.8153  0.3108
  838MOL0     C15511   0.166   2.584   7.545  0.8997 -0.6032  0.7704
  838MOL0     C15512   0.280   2.505   7.527  0.2520  0.0443  0.3335
  838MOL0     C15513   0.313   2.453   7.406 -0.9076  0.5655  0.1030
  838MOL0     O15514   0.427   2.371   7.401 -0.0376 -0.4838  0.8831
  838MOL0     C15515   0.501   2.389   7.279 -0.3721  0.2234 -0.3700
  838MOL0     C15516   0.623   2.300   7.297 -0.3401  0.1311  0.2925
  838MOL0     C15517   0.720   2.341   7.409  0.6158 -0.3358  0.9136
  838MOL0     C15518   0.824   2.231   7.435 -0.6429  0.1033 -0.9674
  838MOL0     C15519   0.907   2.207   7.310  0.8997 -0.6843 -0.2526
  838MOL0     C15520   1.059   2.176   7.344  0.7221 -0.2241 -0.4483
  838MOL0     C15521   1.142   2.107   7.240  0.3114 -1.9747  0.4725
  838MOL0     C15522   1.135   2.203   7.113  0.2869  0.4639 -0.2455
  838MOL0     N15523   1.209   2.142   7.003  1.0215  0.0167 -0.1395
  838MOL0     C15524   1.348   2.153   6.986  0.7256 -0.3767  0.6664
  838MOL0     C15525   1.365   2.110   6.858  0.7815  0.4452  0.4485
  838MOL0     C15526   1.493   2.087   6.791 -0.5041 -1.0992  0.0260
  838MOL0     C15527   1.617   2.132   6.880  0.5051 -0.5034  0.1915
  838MOL0     C15528   1.744   2.090   6.819  0.0531 -0.4551  0.2007
  838MOL0     C15529   1.874   2.149   6.885  0.2444  0.4606 -0.5994
  838MOL0     O15530   1.890   2.098   7.018 -0.3189  0.0794  0.3638
  838MOL0     C15531   1.991   2.145   7.099 -0.1434  0.7499 -0.0462
  838MOL0     C15532   1.993   2.083   7.223  0.4605  0.6212 -0.1652
  838MOL0     C15533   2.088   2.108   7.326  0.4523  0.0555  0.9427
  838MOL0     C15534   2.092   2.034   7.453  1.5694 -0.1777  0.4055
  838MOL0     C15535   2.200   2.187   7.287 -0.4513  0.0104 -0.3426
  838MOL0     C15536   2.327   2.208   7.367 -1.1778 -1.0629 -0.1922
  838MOL0     O15537   2.438   2.273   7.302  0.8377 -0.0004 -0.4129
  838MOL0     C15538   2.560   2.272   7.356 -0.7433  0.1583 -0.0346
  838MOL0     C15539   2.605   2.396   7.403  0.1829  0.9582 -0.6110
  838MOL0     C15540   2.732   2.403   7.466  0.4926 -0.5582  0.1523
  838MOL0     C15541   2.816   2.289   7.460 -0.5950  0.2460  0.5497
  838MOL0     O15542   2.941   2.301   7.516  0.1879 -0.3941  0.0027
  838MOL0     C15543   3.002   2.426   7.543 -1.1833 -0.3698  0.0696
  838MOL0     C15544   3.143   2.408   7.607 -0.5308  1.4285 -0.2088
  838MOL0     C15545   3.254   2.412   7.494 -0.4589  0.2889 -0.3522
  838MOL0     C15546   3.399   2.368   7.555  0.3661 -0.5677  1.0630
  838MOL0     C15547   3.490   2.377   7.439 -1.4796 -0.7809  0.8960
  838MOL0     C15548   3.636   2.352   7.484  0.8096  0.2706 -0.0814
  838MOL0     C15549   3.733   2.363   7.369  0.4840 -0.2844 -0.1242
  838MOL0     C15550   3.880   2.358   7.435 -0.3470 -0.2757 -0.1046
  838MOL0    Cl15551   3.909   2.209   7.526 -0.2042 -0.4632  0.1806
  838MOL0     C15552   2.769   2.166   7.410  0.3621 -0.0499  0.1029
  838MOL0     C15553   2.640   2.152   7.365  0.1098 -0.6330  0.0609
  838MOL0     O15554   2.330   2.172   7.478 -0.6731  0.3108 -0.1854
  838MOL0     C15555   2.188   2.257   7.161  0.2143 -0.1011 -0.5118
  838MOL0     C15556   2.084   2.240   7.070 -0.4357  0.1656 -0.2755
  838MOL0     N15557   1.236   2.073   6.804 -0.1881 -1.0946  0.7566
  838MOL0     N15558   1.148   2.091   6.895  0.6702 -0.5020  0.2733
  838MOL0     C15559   0.237   2.484   7.294  0.5522 -0.8597 -0.1449
  838MOL0     C15560   0.129   2.570   7.303 -0.8723 -0.6127  0.2514
  838MOL0     C15561  -0.162   2.849   7.541  0.2994  0.1066  0.4049
  838MOL0     C15562  -0.265   2.752   7.549  0.3037  0.3951 -0.0810
  838MOL0     C15563  -0.398   2.786   7.588  0.0216 -0.5127  0.0056
  838MOL0     C15564  -0.435   2.924   7.613 -0.8800 -0.5241  0.3835
  838MOL0     O15565  -0.561   2.977   7.632  0.3492  0.5103 -0.0857
  838MOL0     C15566  -0.640   2.883   7.719  0.1186 -0.6649 -0.2972
  838MOL0     C15567  -0.786   2.925   7.728  0.4215 -0.0262 -0.0108
  838MOL0     C15568  -0.815   3.029   7.838 -0.2712 -0.3139  0.1163
  838MOL0     C15569  -0.939   3.112   7.830 -0.0054  0.5067 -0.5761
  838MOL0     C15570  -1.056   3.026   7.861  0.0774 -0.0290  0.8967
  838MOL0     C15571  -1.151   2.958   7.886 -0.2678  0.4339  0.9271
  838MOL0     C15572  -0.334   3.021   7.599 -0.5161  0.0798 -0.4959
  838MOL0     C15573  -0.202   2.985   7.562 -0.6885 -0.2992 -0.4446
  838MOL0     C15574  -0.111   3.098   7.526  0.0545 -0.0132 -0.2403
  838MOL0     H15575   0.152   2.628   7.644 -0.3966 -1.3418  0.9427
  838MOL0     H15576   0.353   2.489   7.605 -0.6759  0.7105  1.3645
  838MOL0     H15577   0.530   2.494   7.273 -0.6969  0.9104  5.0512
  838MOL0     H15578   0.447   2.344   7.196 -0.9428 -2.4171  1.2981
  838MOL0     H15579   0.589   2.199   7.321 -0.3526  0.4926  1.8926
  838MOL0     H15580   0.685   2.296   7.208  3.5085 -2.1507  2.8009
  838MOL0     H15581   0.779   2.427   7.376  1.2174 -1.1474 -0.1883
  838MOL0     H15582   0.669   2.368   7.501  0.7197  0.3250  0.7779
  838MOL0     H15583   0.899   2.254   7.512 -0.7795 -2.1468 -0.0872
  838MOL0     H15584   0.776   2.138   7.466  2.3907 -0.8858  1.2295
  838MOL0     H15585   0.913   2.299   7.252  0.4188 -0.1626  0.4948
  838MOL0     H15586   0.853   2.134   7.248 -0.3258  1.1017 -1.3835
  838MOL0     H15587   1.108   2.272   7.363 -1.9581  1.3750 -1.1603
  838MOL0     H15588   1.059   2.115   7.435 -0.5235 -1.5019 -1.2727
  838MOL0     H15589   1.116   2.004   7.214  0.6200 -1.5537 -1.6492
  838MOL0     H15590   1.245   2.104   7.276  0.4843 -0.1828  0.2021
  838MOL0     H15591   1.032   2.203   7.077 -0.9003 -2.3436  2.6684
  838MOL0     H15592   1.172   2.303   7.137 -0.7353  1.4002 -2.3445
  838MOL0     H15593   1.428   2.174   7.056  1.9930  0.1809 -0.8950
  838MOL0     H15594   1.500   2.138   6.694  0.3569 -1.6001 -0.1904
  838MOL0     H15595   1.506   1.979   6.780 -1.2653 -1.3524  1.4519
  838MOL0     H15596   1.615   2.241   6.888  2.0466 -0.4561  0.2429
  838MOL0     H15597   1.614   2.083   6.977 -0.7193 -1.9380 -0.5403
  838MOL0     H15598   1.740   1.982   6.833  1.2248 -0.4407  0.7202
  838MOL0     H15599   1.745   2.103   6.710  1.2759  1.3429  0.3812
  838MOL0     H15600   1.963   2.129   6.825 -1.2033  0.1222 -2.7634
  838MOL0     H15601   1.865   2.258   6.888 -0.1721  0.4538  3.0422
  838MOL0     H15602   1.907   2.020   7.245  0.4192  0.8352  0.2917
  838MOL0     H15603   2.172   1.960   7.444 -0.9649 -3.1012  0.3445
  838MOL0     H15604   2.005   1.968   7.459  0.2333  1.0991 -2.6776
  838MOL0     H15605   2.102   2.104   7.536 -0.9578 -0.1119  0.7282
  838MOL0     H15606   2.537   2.481   7.404  0.5078  1.2208 -0.1252
  838MOL0     H15607   2.755   2.491   7.524 -2.1716  0.8605 -0.7684
  838MOL0     H15608   3.007   2.480   7.449 -3.6576 -0.6549 -0.2816
  838MOL0     H15609   2.945   2.491   7.610 -0.6400 -0.0088  0.1916
  838MOL0     H15610   3.163   2.484   7.683 -0.1282  1.4062 -0.2919
  838MOL0     H15611   3.159   2.314   7.660 -5.8861  0.2948  0.0029
  838MOL0     H15612   3.264   2.509   7.443  4.3349 -0.2041 -0.8140
  838MOL0     H15613   3.232   2.332   7.423 -0.1558  1.3314 -1.6612
  838MOL0     H15614   3.412   2.272   7.605 -1.1197 -2.1712 -1.3945
  838MOL0     H15615   3.419   2.447   7.628  1.6144 -0.7471  0.9355
  838MOL0     H15616   3.461   2.294   7.373 -1.7391 -0.8337  1.0724
  838MOL0     H15617   3.482   2.474   7.388 -0.5796 -2.4368 -2.7306
  838MOL0     H15618   3.637   2.251   7.525 -1.2349  0.0590 -0.4651
  838MOL0     H15619   3.661   2.419   7.566  1.5590  3.3353 -2.6249
  838MOL0     H15620   3.717   2.455   7.311 -0.8060 -1.6095 -2.0050
  838MOL0     H15621   3.721   2.286   7.292 -1.7003  2.6617 -3.0036
  838MOL0     H15622   3.904   2.445   7.496  5.2500 -0.9596 -0.8024
  838MOL0     H15623   3.947   2.349   7.349  0.4645  3.3215 -0.0062
  838MOL0     H15624   2.843   2.086   7.407 -1.9157 -2.3097  0.7689
  838MOL0     H15625   2.600   2.056   7.334 -1.8577 -0.5849  2.1720
  838MOL0     H15626   2.271   2.324   7.138  2.7563 -2.7070  0.3978
  838MOL0     H15627   2.078   2.286   6.972 -2.1349 -3.5227 -2.1232
  838MOL0     H15628   0.258   2.436   7.199  0.0757 -1.9182  0.2761
  838MOL0     H15629   0.082   2.598   7.210  1.5229  1.6539 -0.4282
  838MOL0     H15630  -0.254   2.644   7.541 -2.4111  0.1298 -1.1795
  838MOL0     H15631  -0.462   2.698   7.595  0.0523 -0.4547  1.3971
  838MOL0     H15632  -0.638   2.784   7.671 -4.0014  0.1958 -2.7095
  838MOL0     H15633  -0.605   2.885   7.823  0.4563 -0.5340 -0.4144
  838MOL0     H15634  -0.843   2.836   7.759 -0.4871  0.3202 -0.6587
  838MOL0     H15635  -0.822   2.956   7.630 -1.2451  1.0236  0.8932
  838MOL0     H15636  -0.808   2.985   7.938  0.8770  0.2324  0.2844
  838MOL0     H15637  -0.741   3.108   7.830 -2.3746  1.8556  0.7561
  838MOL0     H15638  -0.954   3.154   7.730 -0.0261  0.2603 -0.6749
  838MOL0     H15639  -0.923   3.186   7.909  3.4469  0.0110 -0.6719
  838MOL0     H15640  -1.225   2.886   7.912  1.9665 -2.7686 -0.9175
  838MOL0     H15641  -0.372   3.122   7.609  2.1087  1.2497 -1.4478
  838MOL0     H15642  -0.053   3.074   7.437  0.4163  0.7428 -0.2171
  838MOL0     H15643  -0.162   3.193   7.510 -0.5609 -0.3990 -0.6063
  838MOL0     H15644  -0.026   3.113   7.593  0.2675  0.5152 -0.6229
  839MOL0     O15645   9.562   1.358   8.861 -0.4718  0.1088 -0.4129
  839MOL0     C15646   9.514   1.441   8.783  0.1409  0.1436  0.6644
  839MOL0     O15647   9.575   1.543   8.723 -0.2763 -0.7977 -0.1556
  839MOL0     C15648   9.690   1.586   8.786 -0.4402  0.8271  0.5878
  839MOL0     C15649   9.809   1.570   8.718 -0.0337  0.3616  0.1920
  839MOL0     C15650   9.932   1.597   8.786  0.0241 -1.1405  0.4127
  839MOL0     C15651   9.931   1.659   8.915 -0.1215 -0.7145  0.3446
  839MOL0     O15652  10.047   1.692   8.983 -0.1549  0.2016  0.0994
  839MOL0     C15653  10.173   1.647   8.935 -0.2040  0.0480 -0.0823
  839MOL0     C15654  10.275   1.650   9.045 -0.3637 -0.0725 -0.4874
  839MOL0     C15655  10.396   1.565   9.006  0.7492  0.4749 -0.2315
  839MOL0     C15656  10.526   1.608   9.079  0.3643  0.1446  0.6940
  839MOL0     C15657  10.649   1.533   9.062  0.2233  0.8516  0.0520
  839MOL0     C15658  10.673   1.470   8.927 -0.4205 -0.3454 -1.0330
  839MOL0     C15659  10.790   1.372   8.938  0.8831 -0.7499  0.1308
  839MOL0     C15660  10.921   1.445   8.955  0.0711  0.0269  0.2219
  839MOL0     N15661  10.974   1.423   9.089  0.0997 -0.0155 -0.0238
  839MOL0     C15662  10.996   1.524   9.185 -0.2251  0.1516  0.7036
  839MOL0     C15663  11.037   1.455   9.293 -0.2816  0.5985 -0.0199
  839MOL0     C15664  11.093   1.519   9.416  0.4365  0.0701  0.0652
  839MOL0     C15665  11.245   1.535   9.393  0.3316  0.0616 -0.1317
  839MOL0     C15666  11.324   1.568   9.530  0.1066  0.2212  0.9961
  839MOL0     C15667  11.475   1.581   9.513 -0.0730 -0.3499  0.1763
  839MOL0     O15668  11.541   1.468   9.447 -0.4818  0.3614  0.0855
  839MOL0     C15669  11.678   1.458   9.455 -0.2693 -0.2230 -0.3797
  839MOL0     C15670  11.738   1.383   9.362 -0.7804  0.1890  0.0877
  839MOL0     C15671  11.873   1.351   9.364  0.2938  0.0575 -0.0985
  839MOL0     C15672  11.916   1.256   9.257 -0.1214  0.0073 -0.0245
  839MOL0     C15673  11.956   1.414   9.467 -0.2778 -0.0587  0.2801
  839MOL0     C15674  12.104   1.416   9.465 -0.4965  0.5127 -0.6015
  839MOL0     O15675  12.176   1.345   9.380  0.7815  0.0204  0.5325
  839MOL0     C15676  12.303   1.382   9.365 -0.2932 -0.0739  0.0160
  839MOL0     C15677  12.349   1.424   9.238  0.1026 -0.4135 -0.4663
  839MOL0     C15678  12.485   1.441   9.216  1.1008  0.0833 -0.2237
  839MOL0     C15679  12.578   1.407   9.317  0.0544  1.0453 -0.5160
  839MOL0     O15680  12.710   1.404   9.287 -0.1680  0.2435 -0.6467
  839MOL0     C15681  12.814   1.340   9.358 -0.6318  0.1397 -0.6843
  839MOL0     C15682  12.948   1.344   9.286  0.2318 -0.0510  0.0774
  839MOL0     C15683  13.065   1.308   9.375 -1.1750 -0.3258  0.0156
  839MOL0     C15684  13.202   1.314   9.293  0.4817 -0.9124  0.0441
  839MOL0     C15685  13.311   1.248   9.376 -0.0155  0.3534 -0.2384
  839MOL0     C15686  13.451   1.294   9.329 -0.3860  0.4368  0.6473
  839MOL0     C15687  13.481   1.241   9.182  0.1214 -1.1622  0.6115
  839MOL0     C15688  13.598   1.306   9.104  0.0310  0.0320  0.2680
  839MOL0    Cl15689  13.756   1.291   9.190  0.0084  0.4128  0.0214
  839MOL0     C15690  12.534   1.359   9.442 -0.2829 -0.6206  0.6064
  839MOL0     C15691  12.395   1.348   9.462  0.6001  0.1757  0.0785
  839MOL0     O15692  12.150   1.504   9.541 -0.0719 -0.0632 -0.1437
  839MOL0     C15693  11.886   1.491   9.558 -1.3138 -0.4381 -0.3553
  839MOL0     C15694  11.748   1.504   9.563 -0.2996  0.4831 -0.7240
  839MOL0     N15695  11.047   1.319   9.263  1.0542  0.9327 -0.6373
  839MOL0     N15696  11.018   1.300   9.139 -0.4131 -0.7695  0.6066
  839MOL0     C15697   9.806   1.684   8.972  0.2097  0.2489  0.5151
  839MOL0     C15698   9.686   1.644   8.911  0.1229 -1.2320  1.3222
  839MOL0     C15699   9.367   1.434   8.750  0.1947  0.4175 -1.1480
  839MOL0     C15700   9.316   1.467   8.623 -0.3737  0.2194 -0.1216
  839MOL0     C15701   9.185   1.492   8.598  0.8933  0.4503 -0.0467
  839MOL0     C15702   9.093   1.480   8.702 -0.3494  0.3072  0.2378
  839MOL0     O15703   8.969   1.508   8.664  0.9184  0.4092 -0.6229
  839MOL0     C15704   8.873   1.526   8.770 -0.3441  0.2781 -0.1001
  839MOL0     C15705   8.733   1.577   8.716 -0.2534  0.1192  0.8215
  839MOL0     C15706   8.645   1.621   8.830 -0.2843  0.6409 -1.0866
  839MOL0     C15707   8.501   1.641   8.780 -0.6252  0.8634  0.0273
  839MOL0     C15708   8.420   1.706   8.882  0.7604  0.1023 -0.9007
  839MOL0     C15709   8.353   1.749   8.974  0.1647  0.1875 -0.0089
  839MOL0     C15710   9.144   1.444   8.833 -0.5096  0.6348  0.7085
  839MOL0     C15711   9.276   1.414   8.854  0.1599  0.5200  0.5036
  839MOL0     C15712   9.307   1.366   8.990 -0.2364  0.0167 -0.5486
  839MOL0     H15713   9.808   1.519   8.622  0.4992 -4.5287  2.5202
  839MOL0     H15714  10.020   1.584   8.724 -1.2269 -2.4105 -1.1795
  839MOL0     H15715  10.207   1.717   8.858  0.5427  0.7498  0.8584
  839MOL0     H15716  10.171   1.546   8.895 -0.9202 -0.1194  0.3564
  839MOL0     H15717  10.296   1.750   9.084  0.2303 -0.1710 -0.5460
  839MOL0     H15718  10.235   1.591   9.128  1.8640 -2.0578 -0.7091
  839MOL0     H15719  10.375   1.461   9.030  2.1824  0.4637  1.1604
  839MOL0     H15720  10.420   1.577   8.900 -0.0628 -1.7270 -0.7070
  839MOL0     H15721  10.545   1.715   9.061  1.7933  0.1106  1.7877
  839MOL0     H15722  10.512   1.595   9.187  1.5400 -1.3104  0.6963
  839MOL0     H15723  10.640   1.451   9.133  0.5352 -0.8130 -1.7603
  839MOL0     H15724  10.737   1.591   9.092 -0.3055  1.1619  1.0576
  839MOL0     H15725  10.584   1.409   8.907  0.3417 -2.0778  0.5478
  839MOL0     H15726  10.695   1.539   8.845 -2.2614 -1.0468 -2.1924
  839MOL0     H15727  10.796   1.312   8.846  2.2505 -1.1171  0.4417
  839MOL0     H15728  10.775   1.300   9.019  0.6287 -0.5380  0.2712
  839MOL0     H15729  10.993   1.398   8.887 -1.0312 -0.1507 -0.8709
  839MOL0     H15730  10.906   1.551   8.930  0.5953  0.0402 -0.0683
  839MOL0     H15731  10.986   1.631   9.169  1.4842  0.5312  1.9115
  839MOL0     H15732  11.072   1.445   9.494 -3.1853 -1.1884 -1.8610
  839MOL0     H15733  11.048   1.614   9.444  0.9745  0.6013 -0.8351
  839MOL0     H15734  11.291   1.439   9.365  0.9007  0.4981 -0.6984
  839MOL0     H15735  11.265   1.607   9.313  1.2575  0.4709  0.4562
  839MOL0     H15736  11.273   1.660   9.562 -1.4816  1.1634 -3.4735
  839MOL0     H15737  11.299   1.495   9.608 -3.1535  0.0741 -0.0322
  839MOL0     H15738  11.499   1.668   9.451 -1.2462  0.2507  0.5305
  839MOL0     H15739  11.522   1.609   9.608 -1.6731  1.4171  0.5000
  839MOL0     H15740  11.671   1.317   9.308  2.8455 -2.8710 -1.2129
  839MOL0     H15741  11.835   1.203   9.206 -0.4470  0.8884 -0.4554
  839MOL0     H15742  11.979   1.179   9.302  1.0357 -0.2154 -1.9054
  839MOL0     H15743  11.972   1.310   9.180  1.6784 -1.4077  0.2312
  839MOL0     H15744  12.276   1.445   9.160 -1.2367 -0.6387  0.6815
  839MOL0     H15745  12.517   1.465   9.115 -0.1449 -4.6304 -2.0001
  839MOL0     H15746  12.829   1.390   9.454 -0.8113 -0.1040 -0.5278
  839MOL0     H15747  12.791   1.234   9.371 -1.7572  0.5283  0.9260
  839MOL0     H15748  12.934   1.281   9.198 -1.7501  1.4076 -0.7279
  839MOL0     H15749  12.969   1.446   9.254  1.0437  0.1374  1.1481
  839MOL0     H15750  13.049   1.214   9.429  0.5196  0.5942  2.2641
  839MOL0     H15751  13.066   1.381   9.456  0.2663 -0.2200 -0.0650
  839MOL0     H15752  13.216   1.422   9.277 -3.5160  0.0996  2.1523
  839MOL0     H15753  13.194   1.258   9.199  2.6927 -3.2731  1.1387
  839MOL0     H15754  13.299   1.282   9.480  0.7427 -0.1703  0.0297
  839MOL0     H15755  13.309   1.140   9.360  3.0926  0.4414 -1.8654
  839MOL0     H15756  13.530   1.256   9.394  0.2920  0.0317 -0.3931
  839MOL0     H15757  13.449   1.403   9.327 -2.4330  0.4504  0.8710
  839MOL0     H15758  13.392   1.255   9.118 -0.2524  2.4973  1.7078
  839MOL0     H15759  13.512   1.137   9.176  2.5719 -0.4129 -1.5433
  839MOL0     H15760  13.576   1.411   9.084  0.9878  0.2224  0.1718
  839MOL0     H15761  13.603   1.263   9.003 -1.2285 -1.2127  0.7007
  839MOL0     H15762  12.594   1.321   9.523  1.2335 -0.6275 -0.4693
  839MOL0     H15763  12.365   1.329   9.565 -0.1618  1.2580  0.0739
  839MOL0     H15764  11.938   1.535   9.643 -3.7839  1.5070  0.2512
  839MOL0     H15765  11.724   1.564   9.650  0.7423  0.7723 -0.6193
  839MOL0     H15766   9.807   1.742   9.064  0.8279 -0.3633  0.9136
  839MOL0     H15767   9.595   1.664   8.967  0.5311  0.9793  1.2605
  839MOL0     H15768   9.386   1.492   8.543  1.1732 -0.3547  0.9976
  839MOL0     H15769   9.153   1.524   8.499  1.6346  0.7098 -0.2133
  839MOL0     H15770   8.856   1.434   8.826  0.9930  1.4562  2.3954
  839MOL0     H15771   8.901   1.602   8.843  1.5733 -1.4581  1.0798
  839MOL0     H15772   8.682   1.513   8.644 -2.1780  3.1287 -0.6845
  839MOL0     H15773   8.760   1.667   8.659 -0.9497 -0.3755 -0.3292
  839MOL0     H15774   8.651   1.548   8.912 -1.0273  1.8808  0.1054
  839MOL0     H15775   8.690   1.712   8.870 -0.6289  0.4074 -0.1538
  839MOL0     H15776   8.454   1.547   8.750  0.5663 -0.1814  1.3250
  839MOL0     H15777   8.508   1.701   8.688  0.9505 -2.5236 -2.2639
  839MOL0     H15778   8.302   1.782   9.062  3.2857  2.9119  0.9769
  839MOL0     H15779   9.079   1.454   8.919 -0.1608  2.9864  0.7728
  839MOL0     H15780   9.223   1.356   9.059 -0.2145  1.6853 -0.2213
  839MOL0     H15781   9.345   1.265   8.973 -1.0363 -0.6784  1.5164
  839MOL0     H15782   9.378   1.440   9.030  1.4917 -0.1450 -3.0756
  840MOL0     O15783   5.021   4.550   5.069 -1.2837  0.0301  0.7871
  840MOL0     C15784   4.951   4.463   5.021  0.2255 -0.4732 -0.2685
  840MOL0     O15785   4.984   4.368   4.937  0.6506 -0.2086  0.0584
  840MOL0     C15786   5.121   4.335   4.923 -0.2425 -0.3347  0.3781
  840MOL0     C15787   5.198   4.300   5.037  0.4979  0.0214 -0.4232
  840MOL0     C15788   5.333   4.266   5.013  0.1044 -0.0615  0.0197
  840MOL0     C15789   5.389   4.256   4.890 -0.4802  0.4122  0.8383
  840MOL0     O15790   5.522   4.226   4.862 -0.3158 -0.4293  0.9570
  840MOL0     C15791   5.620   4.199   4.964  0.5402  0.1433  0.6667
  840MOL0     C15792   5.745   4.149   4.889 -0.1187  0.2244  0.5142
  840MOL0     C15793   5.853   4.090   4.975 -0.4308  0.0394  0.3892
  840MOL0     C15794   5.978   4.079   4.911 -0.4209  0.0527 -0.1935
  840MOL0     C15795   6.091   3.973   4.955  0.1092  0.3910 -0.2466
  840MOL0     C15796   6.162   3.898   4.844  0.0322 -0.0556 -0.5033
  840MOL0     C15797   6.258   3.793   4.899  0.3636  0.3216 -0.1111
  840MOL0     C15798   6.366   3.867   4.978 -0.3463  0.2514  0.4192
  840MOL0     N15799   6.483   3.788   4.999 -0.3853  0.3956  0.0286
  840MOL0     C15800   6.588   3.786   4.905  0.2539 -0.2269 -0.8893
  840MOL0     C15801   6.662   3.686   4.943  0.2538 -0.6598 -1.1450
  840MOL0     C15802   6.785   3.632   4.877 -0.4494  0.0519 -0.4653
  840MOL0     C15803   6.899   3.616   4.977 -0.2318 -0.5435  0.2346
  840MOL0     C15804   7.022   3.562   4.884  0.4111  0.7243  0.1984
  840MOL0     C15805   7.152   3.530   4.962  0.3479  0.2097 -0.2759
  840MOL0     O15806   7.240   3.461   4.872  0.3734  0.4642 -0.4947
  840MOL0     C15807   7.370   3.426   4.912 -0.1750 -0.1285  0.7191
  840MOL0     C15808   7.462   3.402   4.812 -0.4580  0.5347 -0.4810
  840MOL0     C15809   7.600   3.346   4.833  0.3349 -0.7348  0.1764
  840MOL0     C15810   7.679   3.301   4.710 -0.7741 -0.1869  0.2154
  840MOL0     C15811   7.640   3.326   4.966  0.9054  0.2803  0.5356
  840MOL0     C15812   7.761   3.250   4.994 -0.1966  0.8465 -0.3212
  840MOL0     O15813   7.750   3.156   5.092  0.0098 -0.2081  0.4215
  840MOL0     C15814   7.868   3.093   5.120 -0.4391 -0.5539  0.4135
  840MOL0     C15815   7.938   3.102   5.238  0.3691  0.5901  0.1409
  840MOL0     C15816   8.054   3.031   5.273 -0.0571 -0.7358 -0.1266
  840MOL0     C15817   8.120   2.962   5.169  0.2831  0.2187 -0.2914
  840MOL0     O15818   8.237   2.906   5.200  0.5717  0.2741 -0.0845
  840MOL0     C15819   8.317   2.843   5.106 -0.1609  0.4066 -0.6739
  840MOL0     C15820   8.470   2.849   5.155  0.7518 -0.1059 -0.1646
  840MOL0     C15821   8.540   2.987   5.146 -0.6317 -0.4618  1.0569
  840MOL0     C15822   8.510   3.090   5.255 -0.6652  0.6185  0.1123
  840MOL0     C15823   8.553   3.229   5.221 -0.0872 -0.4273 -0.5551
  840MOL0     C15824   8.485   3.301   5.111  0.0032  0.8866 -0.1353
  840MOL0     C15825   8.339   3.266   5.099  0.3165  0.4230 -0.5856
  840MOL0     C15826   8.257   3.370   5.034 -0.4758  0.3094  0.2066
  840MOL0    Cl15827   8.261   3.524   5.119 -0.1941  0.3673 -0.2406
  840MOL0     C15828   8.039   2.928   5.059 -0.7910 -0.0425  0.1140
  840MOL0     C15829   7.916   2.993   5.033 -0.2884 -0.1198  0.2420
  840MOL0     O15830   7.864   3.286   4.930  0.1330  0.1330  0.1445
  840MOL0     C15831   7.543   3.355   5.064  0.4502 -0.3811 -0.4930
  840MOL0     C15832   7.417   3.414   5.038  0.1117 -0.1689  0.2144
  840MOL0     N15833   6.600   3.626   5.054  0.0368 -0.4461  0.2583
  840MOL0     N15834   6.492   3.687   5.090 -0.1588  0.3599 -0.1247
  840MOL0     C15835   5.303   4.283   4.778  0.3627  0.2162  0.1493
  840MOL0     C15836   5.171   4.322   4.797 -0.5683  1.0634  0.1817
  840MOL0     C15837   4.809   4.483   5.035 -0.1264  0.4851 -0.2386
  840MOL0     C15838   4.766   4.616   5.045  0.6685 -0.0543 -0.7589
  840MOL0     C15839   4.628   4.640   5.064  0.5225 -0.7280 -0.0647
  840MOL0     C15840   4.535   4.535   5.083 -1.1301 -0.4596  0.1220
  840MOL0     O15841   4.405   4.541   5.119 -0.3802 -0.2700 -0.5129
  840MOL0     C15842   4.358   4.661   5.189 -0.6152 -0.7470 -0.8629
  840MOL0     C15843   4.205   4.674   5.205  0.1325 -0.1158 -0.7061
  840MOL0     C15844   4.129   4.552   5.262 -0.6061 -0.5231 -0.5537
  840MOL0     C15845   4.100   4.581   5.412  0.1207  0.8801  0.0155
  840MOL0     C15846   4.214   4.561   5.499 -0.7653  0.6702 -0.2793
  840MOL0     C15847   4.317   4.551   5.555  0.3272  0.2556 -0.8228
  840MOL0     C15848   4.586   4.404   5.070  0.2867 -0.7719  0.3697
  840MOL0     C15849   4.723   4.372   5.048 -0.3884  0.7011  0.0389
  840MOL0     C15850   4.765   4.236   5.023  0.6509 -0.0665  0.5608
  840MOL0     H15851   5.149   4.291   5.133  0.8610  2.2170  0.0173
  840MOL0     H15852   5.397   4.244   5.097 -0.5582  0.0386  0.5566
  840MOL0     H15853   5.575   4.129   5.035 -2.2078  2.0772  0.9746
  840MOL0     H15854   5.642   4.297   5.007  1.0482  1.4674 -2.3595
  840MOL0     H15855   5.715   4.065   4.825 -1.3883  0.9028  0.1779
  840MOL0     H15856   5.784   4.236   4.835  2.6456  0.0879  2.1240
  840MOL0     H15857   5.863   4.139   5.072 -2.9765  0.0604  0.7108
  840MOL0     H15858   5.815   3.991   5.001 -1.0951  0.0614 -0.4727
  840MOL0     H15859   5.953   4.054   4.808 -0.7868 -1.0337  0.1539
  840MOL0     H15860   6.015   4.183   4.907 -0.4556  0.1071  0.7641
  840MOL0     H15861   6.042   3.908   5.028  0.9492 -0.2274 -0.2156
  840MOL0     H15862   6.164   4.021   5.021  0.9188 -0.7877 -0.2480
  840MOL0     H15863   6.082   3.849   4.788 -1.1842  0.8293  0.4038
  840MOL0     H15864   6.213   3.963   4.773 -0.7494 -0.4460 -1.4422
  840MOL0     H15865   6.314   3.759   4.812 -0.7608 -0.2834 -0.6156
  840MOL0     H15866   6.218   3.703   4.947 -0.1283  0.9855  0.7614
  840MOL0     H15867   6.398   3.966   4.942 -2.4064  0.6486 -0.5065
  840MOL0     H15868   6.330   3.889   5.079  1.4274  1.3106  0.8657
  840MOL0     H15869   6.606   3.835   4.810  0.3327 -1.9571 -1.8043
  840MOL0     H15870   6.811   3.695   4.791  0.7354  0.4684  0.1720
  840MOL0     H15871   6.756   3.542   4.822 -0.2901  0.2622 -0.9017
  840MOL0     H15872   6.931   3.714   5.014  2.5070 -0.2626 -2.4523
  840MOL0     H15873   6.868   3.544   5.053 -0.0626 -4.1481 -2.8141
  840MOL0     H15874   6.990   3.474   4.828  1.3061 -1.3570  2.7485
  840MOL0     H15875   7.057   3.632   4.808 -0.4468 -1.3712 -2.2650
  840MOL0     H15876   7.194   3.625   4.996 -0.6481  1.1807 -1.6499
  840MOL0     H15877   7.122   3.464   5.043 -0.4990  2.0890  0.9994
  840MOL0     H15878   7.417   3.412   4.714 -1.9843  1.6426  0.2727
  840MOL0     H15879   7.762   3.366   4.681 -0.5093 -0.8284 -0.4843
  840MOL0     H15880   7.606   3.300   4.629 -2.3931 -1.0193  1.6151
  840MOL0     H15881   7.721   3.202   4.727  2.2945  0.5929 -1.9434
  840MOL0     H15882   7.907   3.175   5.313  1.8940  0.0887  1.3108
  840MOL0     H15883   8.087   3.041   5.375  1.0396 -1.3385 -0.4034
  840MOL0     H15884   8.284   2.739   5.094  0.7849 -0.1458  1.1300
  840MOL0     H15885   8.311   2.899   5.012  0.0003  0.7783 -0.4644
  840MOL0     H15886   8.462   2.793   5.249 -1.2563  1.3633  0.6178
  840MOL0     H15887   8.522   2.792   5.077 -1.1024  0.8769 -2.2242
  840MOL0     H15888   8.518   3.022   5.045 -0.3796  0.2296  1.2378
  840MOL0     H15889   8.649   2.977   5.149 -0.6302 -1.5281 -1.0363
  840MOL0     H15890   8.553   3.048   5.346  0.5942 -2.2588 -1.6750
  840MOL0     H15891   8.401   3.088   5.269 -0.4389 -0.4356  2.0311
  840MOL0     H15892   8.536   3.286   5.313  0.8195  1.0360 -1.2733
  840MOL0     H15893   8.662   3.229   5.214 -0.0667 -0.4891 -0.2752
  840MOL0     H15894   8.523   3.266   5.015 -0.6173  0.8216 -0.3620
  840MOL0     H15895   8.500   3.410   5.117 -0.1486  0.9897 -1.3822
  840MOL0     H15896   8.301   3.259   5.202  2.7856 -2.3637  0.2872
  840MOL0     H15897   8.327   3.166   5.055  1.0021  0.1928 -0.2650
  840MOL0     H15898   8.151   3.344   5.024 -0.4004  0.3278 -0.7219
  840MOL0     H15899   8.294   3.384   4.932  1.2265  0.5592  0.8324
  840MOL0     H15900   8.067   2.845   4.995  0.1469  1.0922 -1.0203
  840MOL0     H15901   7.851   2.968   4.950 -1.4819 -0.9198  1.3669
  840MOL0     H15902   7.572   3.318   5.162  1.3726 -0.0400 -0.6296
  840MOL0     H15903   7.348   3.424   5.122  0.1986  0.5352  0.2142
  840MOL0     H15904   5.344   4.271   4.678 -2.4602  0.5320 -1.1442
  840MOL0     H15905   5.102   4.317   4.713 -1.7094 -0.9082  1.1686
  840MOL0     H15906   4.834   4.700   5.038 -1.6187  1.8712 -1.4163
  840MOL0     H15907   4.596   4.743   5.079  1.8462 -0.2362 -0.4216
  840MOL0     H15908   4.406   4.660   5.287 -2.7225 -1.2353  0.2402
  840MOL0     H15909   4.381   4.753   5.135  1.0160 -0.6302 -0.0166
  840MOL0     H15910   4.153   4.683   5.109 -2.2830  1.3554  0.6600
  840MOL0     H15911   4.179   4.762   5.263 -1.0770 -2.0771  1.9352
  840MOL0     H15912   4.034   4.531   5.212 -0.7826  1.1134 -0.9844
  840MOL0     H15913   4.188   4.460   5.252 -0.7610 -0.5581 -1.1990
  840MOL0     H15914   4.015   4.519   5.442  2.0876 -3.5371 -2.5242
  840MOL0     H15915   4.071   4.685   5.425  0.9790  0.9557  1.5794
  840MOL0     H15916   4.410   4.540   5.607 -0.4527  2.7917  1.3557
  840MOL0     H15917   4.507   4.331   5.087  0.7983 -1.2317  0.8088
  840MOL0     H15918   4.784   4.224   4.916 -3.1826  0.3939 -0.3160
  840MOL0     H15919   4.855   4.207   5.078  0.5695 -0.7132  0.3639
  840MOL0     H15920   4.683   4.166   5.042  0.0199  0.4148 -0.3052
  841MOL0     O15921  11.164   0.653   1.475  0.5006  0.0641  0.1177
  841MOL0     C15922  11.128   0.739   1.557 -0.5920  0.0554  0.3877
  841MOL0     O15923  11.214   0.816   1.631 -0.0008  0.5329 -0.4922
  841MOL0     C15924  11.344   0.774   1.636 -0.1819  0.4784 -0.6170
  841MOL0     C15925  11.391   0.672   1.726  0.5791  0.1226 -0.5094
  841MOL0     C15926  11.533   0.644   1.717  0.3816  0.6840 -0.8713
  841MOL0     C15927  11.615   0.706   1.631  0.0797  0.0820 -0.6682
  841MOL0     O15928  11.745   0.679   1.619  0.3517 -0.4331 -0.0562
  841MOL0     C15929  11.830   0.738   1.710  0.3417 -0.0935 -0.5230
  841MOL0     C15930  11.963   0.764   1.642 -0.2226 -0.1065  0.0847
  841MOL0     C15931  12.046   0.644   1.619 -0.3760  0.0434  0.0894
  841MOL0     C15932  12.183   0.684   1.558 -0.0986  0.1613  0.0750
  841MOL0     C15933  12.285   0.571   1.554  0.0011  0.4791 -0.9550
  841MOL0     C15934  12.424   0.626   1.510 -0.3232  0.4317  0.4067
  841MOL0     C15935  12.485   0.717   1.617 -0.3647  0.2125 -1.0135
  841MOL0     C15936  12.627   0.766   1.591  0.3438  0.7139  0.6472
  841MOL0     N15937  12.721   0.650   1.589 -0.3194 -0.7704  0.1501
  841MOL0     C15938  12.753   0.569   1.687  0.0642  0.8717  0.0644
  841MOL0     C15939  12.858   0.490   1.634  0.3018  0.2287  0.0448
  841MOL0     C15940  12.929   0.393   1.709 -0.1450  0.2908 -0.3863
  841MOL0     C15941  13.029   0.316   1.622  0.5229 -0.6567  0.2401
  841MOL0     C15942  13.102   0.210   1.696  0.2942  0.1221 -0.0765
  841MOL0     C15943  13.248   0.247   1.756  0.6598  0.4479 -0.4474
  841MOL0     O15944  13.269   0.143   1.854 -0.9843  0.7413  0.1447
  841MOL0     C15945  13.392   0.156   1.917 -0.4581 -0.1513  0.8037
  841MOL0     C15946  13.392   0.102   2.044 -0.0391  0.2012  0.9941
  841MOL0     C15947  13.511   0.111   2.133  1.3045  0.5974  0.0398
  841MOL0     C15948  13.487   0.048   2.266 -0.4019  0.8638  0.5575
  841MOL0     C15949  13.625   0.172   2.081  0.1314 -0.4523  0.1934
  841MOL0     C15950  13.745   0.184   2.161  0.8974 -0.1513 -0.4583
  841MOL0     O15951  13.856   0.186   2.079 -0.7028 -0.1351 -0.5787
  841MOL0     C15952  13.990   0.189   2.110  0.9182  0.0192 -0.7239
  841MOL0     C15953  14.079   0.175   2.004 -0.2433 -0.4621 -0.3261
  841MOL0     C15954  14.221   0.183   2.033 -0.4243  0.2500 -0.6718
  841MOL0     C15955  14.268   0.184   2.162  0.0884  0.4518  0.0313
  841MOL0     O15956  14.399   0.205   2.185  0.1616 -0.5453 -0.5845
  841MOL0     C15957  14.491   0.124   2.107  0.6063 -0.1154  0.1978
  841MOL0     C15958  14.621   0.083   2.180  0.1890  0.2184  0.8394
  841MOL0     C15959  14.681   0.196   2.264  1.1892 -0.2499 -0.2969
  841MOL0     C15960  14.824   0.167   2.306 -0.3772  0.5458  1.0755
  841MOL0     C15961  14.886   0.238   2.429 -0.2545  0.2204  0.8697
  841MOL0     C15962  15.027   0.186   2.473 -0.3873 -0.1437  1.0437
  841MOL0     C15963  15.015   0.047   2.527 -0.8569 -0.5827 -0.6357
  841MOL0     C15964  15.138  -0.016   2.582 -0.1107  0.1519  0.3866
  841MOL0    Cl15965  15.099  -0.161   2.684 -0.4315  0.1997 -0.0453
  841MOL0     C15966  14.178   0.194   2.265  0.1783  0.3851 -0.1141
  841MOL0     C15967  14.037   0.202   2.238  0.5400 -0.7668 -0.6090
  841MOL0     O15968  13.743   0.200   2.286  0.1146  0.2072  0.7867
  841MOL0     C15969  13.616   0.229   1.954 -0.6887  1.1253  0.4497
  841MOL0     C15970  13.506   0.225   1.876  1.5189  0.0053 -0.6433
  841MOL0     N15971  12.885   0.537   1.508  0.1948 -0.1510 -0.3510
  841MOL0     N15972  12.796   0.627   1.481  0.3815 -0.0475 -0.2845
  841MOL0     C15973  11.561   0.785   1.543 -0.8157  0.1463 -0.4889
  841MOL0     C15974  11.433   0.832   1.549  0.3364 -0.0881 -1.4081
  841MOL0     C15975  10.992   0.790   1.572  0.2865  0.4830  0.3663
  841MOL0     C15976  10.964   0.907   1.647 -0.0254 -0.3761 -0.0167
  841MOL0     C15977  10.835   0.957   1.679 -0.0258 -0.3343 -0.7561
  841MOL0     C15978  10.723   0.875   1.647  0.3062 -0.0317  0.4876
  841MOL0     O15979  10.596   0.917   1.685  0.0674  0.6419  0.1479
  841MOL0     C15980  10.495   0.813   1.694 -0.6104 -0.4093  0.2235
  841MOL0     C15981  10.372   0.880   1.748 -0.6569 -0.0675  0.0620
  841MOL0     C15982  10.268   0.777   1.770  0.1970  1.2028 -0.4020
  841MOL0     C15983  10.224   0.699   1.639 -0.5143 -0.5300 -0.6094
  841MOL0     C15984  10.120   0.601   1.670 -0.3220  0.4520  0.0602
  841MOL0     C15985  10.039   0.519   1.693  0.3654  0.5785  0.5055
  841MOL0     C15986  10.754   0.765   1.561 -0.0264 -1.6706 -0.3902
  841MOL0     C15987  10.877   0.724   1.523  0.2463 -0.3148  0.3622
  841MOL0     C15988  10.880   0.599   1.428 -0.4080 -0.5471 -0.6427
  841MOL0     H15989  11.332   0.614   1.797 -2.5685  1.0547 -2.2257
  841MOL0     H15990  11.574   0.571   1.786  0.4234 -0.5787 -2.1785
  841MOL0     H15991  11.848   0.678   1.799 -1.2263 -0.5464 -0.4884
  841MOL0     H15992  11.781   0.829   1.747 -0.6590 -0.3328 -1.2158
  841MOL0     H15993  11.949   0.823   1.551  1.9932  0.3833  0.0066
  841MOL0     H15994  12.022   0.842   1.692 -0.2944  1.2463 -1.8326
  841MOL0     H15995  12.067   0.577   1.703  0.1366 -1.1420 -0.9495
  841MOL0     H15996  11.995   0.578   1.549  0.8768 -1.1117  0.2376
  841MOL0     H15997  12.168   0.732   1.461  1.8245 -0.2310 -0.4531
  841MOL0     H15998  12.205   0.772   1.620  0.1742  1.6714 -2.0316
  841MOL0     H15999  12.248   0.497   1.482 -3.1907 -1.3124  2.2239
  841MOL0     H16000  12.298   0.524   1.651  3.0696  2.6895 -0.1454
  841MOL0     H16001  12.485   0.538   1.490 -0.4901  0.3670  0.1743
  841MOL0     H16002  12.419   0.682   1.416 -0.9589 -2.8871 -1.6978
  841MOL0     H16003  12.481   0.665   1.713 -0.0294 -0.6697 -1.4663
  841MOL0     H16004  12.424   0.808   1.625 -0.6576 -0.0169 -0.5603
  841MOL0     H16005  12.632   0.821   1.497 -0.0434  2.1994  1.4531
  841MOL0     H16006  12.653   0.836   1.672  1.4825  0.3444  0.6218
  841MOL0     H16007  12.704   0.555   1.783 -1.2633  0.1215 -0.6836
  841MOL0     H16008  12.858   0.325   1.757 -0.5391  1.3354  0.5593
  841MOL0     H16009  12.989   0.445   1.784  2.2694  1.4302 -2.9421
  841MOL0     H16010  12.973   0.263   1.544  0.5648  1.1704 -1.1232
  841MOL0     H16011  13.102   0.380   1.572 -0.0678  0.0619  0.2805
  841MOL0     H16012  13.029   0.183   1.773  0.1484 -0.2354 -0.3367
  841MOL0     H16013  13.110   0.123   1.630  2.3279  0.3570 -0.2283
  841MOL0     H16014  13.318   0.243   1.673  0.5242 -0.3907 -0.5276
  841MOL0     H16015  13.251   0.347   1.801 -1.5287  1.4762 -2.3950
  841MOL0     H16016  13.297   0.057   2.072  0.8154 -1.8795  0.7560
  841MOL0     H16017  13.404  -0.024   2.262  0.1305  0.1321  1.8924
  841MOL0     H16018  13.461   0.117   2.347  0.7627 -1.5418  3.1406
  841MOL0     H16019  13.579   0.003   2.305  1.5871  5.4557  1.9018
  841MOL0     H16020  14.040   0.171   1.902  1.2172 -0.1874 -0.9291
  841MOL0     H16021  14.294   0.201   1.955  0.5494  0.8591  0.3537
  841MOL0     H16022  14.438   0.035   2.069 -1.3218  2.7439 -4.7629
  841MOL0     H16023  14.510   0.181   2.015 -0.7943 -0.1890 -0.1650
  841MOL0     H16024  14.608  -0.004   2.244  1.8790 -3.0703 -2.8923
  841MOL0     H16025  14.691   0.061   2.099 -0.7133  1.6920 -0.4175
  841MOL0     H16026  14.623   0.209   2.356 -1.6743 -0.1720 -2.0106
  841MOL0     H16027  14.666   0.285   2.202 -0.0985 -0.8867 -0.9359
  841MOL0     H16028  14.887   0.176   2.217 -1.7422 -0.0113  0.0067
  841MOL0     H16029  14.819   0.058   2.319  1.1675  0.4427  0.9617
  841MOL0     H16030  14.907   0.342   2.403  2.5512  0.3563  3.1138
  841MOL0     H16031  14.808   0.222   2.505 -1.5471 -0.6488 -0.5853
  841MOL0     H16032  15.071   0.256   2.544  1.1306  0.7203 -0.6764
  841MOL0     H16033  15.083   0.173   2.380 -2.3112  0.7927 -0.3042
  841MOL0     H16034  14.982  -0.020   2.446 -0.1232 -2.1417  0.3046
  841MOL0     H16035  14.942   0.038   2.608 -2.3332  0.9741 -1.7172
  841MOL0     H16036  15.184   0.062   2.645  0.8050  0.7738 -0.9984
  841MOL0     H16037  15.205  -0.044   2.500 -1.2345 -1.1421 -0.1085
  841MOL0     H16038  14.219   0.191   2.366 -1.0246  1.2730  0.4259
  841MOL0     H16039  13.965   0.213   2.318  0.8904 -2.0074 -0.1058
  841MOL0     H16040  13.701   0.286   1.917 -2.1822  3.0457 -0.2361
  841MOL0     H16041  13.514   0.289   1.788 -2.7882  2.1282  0.2193
  841MOL0     H16042  11.633   0.821   1.469  1.5327  0.1506  1.6466
  841MOL0     H16043  11.394   0.907   1.482 -0.4826  2.2309  1.4826
  841MOL0     H16044  11.045   0.976   1.668 -0.7461  0.5756 -0.2995
  841MOL0     H16045  10.817   1.049   1.733  1.0055  0.1261 -1.1667
  841MOL0     H16046  10.484   0.771   1.594  1.3985 -2.6328  0.8501
  841MOL0     H16047  10.523   0.743   1.774  2.3853  0.7435  0.3140
  841MOL0     H16048  10.345   0.955   1.673 -1.0574  0.3809  0.6453
  841MOL0     H16049  10.388   0.927   1.845  1.2318  0.7788 -0.6168
  841MOL0     H16050  10.300   0.706   1.847  0.3784  1.7635  0.0479
  841MOL0     H16051  10.175   0.824   1.802  0.8129  1.3148  1.3241
  841MOL0     H16052  10.299   0.636   1.591  0.3138 -0.2884  0.3171
  841MOL0     H16053  10.185   0.777   1.572 -0.4781  3.5536  3.5441
  841MOL0     H16054   9.961   0.447   1.708  1.1715  0.0207  2.2241
  841MOL0     H16055  10.670   0.707   1.524  0.1175 -2.2879  0.2181
  841MOL0     H16056  10.949   0.614   1.344  0.2187 -0.3167 -0.0936
  841MOL0     H16057  10.915   0.513   1.486  0.8380 -0.4963 -1.2852
  841MOL0     H16058  10.785   0.566   1.384 -0.1776 -0.5245 -1.1598
  842MOL0     O16059   7.119   4.398   8.229 -0.4100 -0.0620 -0.5733
  842MOL0     C16060   7.069   4.508   8.204  0.3511  0.1079 -0.5644
  842MOL0     O16061   7.137   4.611   8.145  0.2918  0.3903  0.2460
  842MOL0     C16062   7.280   4.598   8.129  0.6421 -1.4340  0.4196
  842MOL0     C16063   7.369   4.519   8.196 -0.2756  0.1454 -0.0051
  842MOL0     C16064   7.497   4.499   8.144 -0.7141  0.2063  0.5801
  842MOL0     C16065   7.553   4.578   8.040  0.2417 -0.4903  0.0601
  842MOL0     O16066   7.686   4.551   8.012  0.0464  0.4926  0.3604
  842MOL0     C16067   7.739   4.594   7.884  0.1152 -0.6281  0.0954
  842MOL0     C16068   7.880   4.648   7.910  0.3725 -0.3383  0.2874
  842MOL0     C16069   7.975   4.533   7.939  0.4872  0.0127  0.6559
  842MOL0     C16070   8.129   4.571   7.957 -0.1527 -0.7731  0.1039
  842MOL0     C16071   8.220   4.455   8.016 -0.3709  0.2586  0.6734
  842MOL0     C16072   8.259   4.362   7.901 -0.1841  0.0408  0.0867
  842MOL0     C16073   8.355   4.265   7.949  0.0773 -0.2622 -0.5564
  842MOL0     C16074   8.291   4.136   8.001 -0.2711  0.7665 -0.2857
  842MOL0     N16075   8.389   4.028   8.031  0.3643 -0.0289  0.2450
  842MOL0     C16076   8.355   3.903   8.064  0.0081  1.3694  1.0264
  842MOL0     C16077   8.472   3.831   8.061 -0.5777 -0.5067 -0.3303
  842MOL0     C16078   8.489   3.681   8.075 -0.4096 -0.1037 -0.3753
  842MOL0     C16079   8.635   3.634   8.104 -0.2713 -0.2713 -0.7394
  842MOL0     C16080   8.653   3.488   8.035  0.1970  0.1542 -1.5003
  842MOL0     C16081   8.778   3.407   8.091 -0.2830 -0.6729  0.1243
  842MOL0     O16082   8.795   3.295   8.008 -0.3106  0.2184 -0.7889
  842MOL0     C16083   8.890   3.208   8.064  0.8540  0.0977 -0.6252
  842MOL0     C16084   8.980   3.233   8.167  0.0343 -0.3262 -0.5060
  842MOL0     C16085   9.055   3.129   8.233  0.8055  0.7379 -0.3736
  842MOL0     C16086   9.145   3.170   8.347 -0.4702 -0.1741  0.0356
  842MOL0     C16087   9.028   3.000   8.187  0.1819  0.5325 -0.5113
  842MOL0     C16088   9.088   2.880   8.251 -0.3370  0.1710  0.4269
  842MOL0     O16089   9.028   2.755   8.236 -0.4504 -0.2580  1.0872
  842MOL0     C16090   9.086   2.650   8.297 -0.6326  0.2335  0.1116
  842MOL0     C16091   9.154   2.551   8.232 -0.4561  0.4607  0.2598
  842MOL0     C16092   9.197   2.432   8.307 -1.4471 -0.2921 -0.3882
  842MOL0     C16093   9.186   2.429   8.445 -0.3954  0.0357  0.1958
  842MOL0     O16094   9.220   2.312   8.504 -0.2242  0.3407  0.3779
  842MOL0     C16095   9.249   2.316   8.645 -0.4667 -0.6654 -0.7721
  842MOL0     C16096   9.124   2.284   8.728 -0.5184 -0.4772 -0.0460
  842MOL0     C16097   9.143   2.313   8.876  0.3220  0.7050  0.4599
  842MOL0     C16098   9.013   2.283   8.952 -0.5825 -0.1518  0.5831
  842MOL0     C16099   8.988   2.142   8.988  0.3938 -0.3785 -0.0855
  842MOL0     C16100   8.839   2.103   9.012  0.8766 -0.2555  0.1714
  842MOL0     C16101   8.827   1.954   9.030 -0.8840 -0.0857 -0.6973
  842MOL0     C16102   8.688   1.923   9.088  0.1848  0.1566  0.0657
  842MOL0    Cl16103   8.682   1.751   9.137 -0.2446 -0.3055  0.2190
  842MOL0     C16104   9.118   2.537   8.510 -0.2837  0.5228  0.9244
  842MOL0     C16105   9.073   2.642   8.434  0.4362 -0.4157  0.1350
  842MOL0     O16106   9.202   2.897   8.288 -0.8713 -0.1567 -0.2074
  842MOL0     C16107   8.961   2.983   8.062 -0.2701  0.2500 -0.0778
  842MOL0     C16108   8.887   3.086   8.009 -0.1110 -0.4141 -0.4562
  842MOL0     N16109   8.574   3.919   8.035 -0.2893  0.7785 -0.6582
  842MOL0     N16110   8.525   4.039   8.023 -0.0421  0.3501  0.1414
  842MOL0     C16111   7.459   4.661   7.975  0.1882 -0.7043 -0.0542
  842MOL0     C16112   7.329   4.669   8.019  1.2666  0.5653  0.3736
  842MOL0     C16113   6.930   4.533   8.250  0.4213  0.7835  0.5670
  842MOL0     C16114   6.855   4.430   8.318 -0.7366  0.1685 -0.3792
  842MOL0     C16115   6.718   4.444   8.354 -0.1806  0.5140  0.3888
  842MOL0     C16116   6.647   4.556   8.319 -0.3061 -0.2355 -0.0429
  842MOL0     O16117   6.511   4.573   8.329  0.9429  0.3638 -0.3912
  842MOL0     C16118   6.421   4.464   8.363 -0.1713  0.6588  0.5354
  842MOL0     C16119   6.426   4.373   8.242 -0.3515 -0.3314  0.4851
  842MOL0     C16120   6.363   4.424   8.116  0.2911 -0.2799  0.2780
  842MOL0     C16121   6.206   4.437   8.126  0.2311 -0.0899 -0.1779
  842MOL0     C16122   6.172   4.467   7.993  0.1075 -0.3319  0.2629
  842MOL0     C16123   6.131   4.489   7.884 -0.9780 -0.5989 -0.3989
  842MOL0     C16124   6.722   4.655   8.259 -0.0372 -0.2480  0.5725
  842MOL0     C16125   6.858   4.647   8.218 -0.3148 -0.2731  0.7335
  842MOL0     C16126   6.910   4.777   8.156  0.8126 -0.3277 -0.5580
  842MOL0     H16127   7.341   4.463   8.285  2.9857 -0.6548  0.6487
  842MOL0     H16128   7.567   4.436   8.199  1.6581  1.4735 -0.8108
  842MOL0     H16129   7.677   4.665   7.828 -1.5252 -1.8393  0.3080
  842MOL0     H16130   7.745   4.507   7.818  1.5307  0.5354 -1.4095
  842MOL0     H16131   7.908   4.705   7.821  1.0200 -3.6642 -1.7888
  842MOL0     H16132   7.875   4.709   8.001  0.8685 -1.6365  1.2221
  842MOL0     H16133   7.930   4.485   8.026 -1.6135 -2.2420 -1.5308
  842MOL0     H16134   7.969   4.458   7.860 -1.0966  1.0083 -0.2271
  842MOL0     H16135   8.167   4.619   7.866  1.0129  0.9340  1.4062
  842MOL0     H16136   8.118   4.644   8.038 -1.4549 -2.3333  1.3853
  842MOL0     H16137   8.169   4.400   8.096 -2.7161  1.5868  0.1889
  842MOL0     H16138   8.312   4.504   8.051  0.9602 -1.1844 -0.6564
  842MOL0     H16139   8.168   4.312   7.865 -0.5677 -0.6162  1.8721
  842MOL0     H16140   8.299   4.431   7.826 -3.3823  0.9070 -0.9892
  842MOL0     H16141   8.423   4.302   8.027  1.7310  0.3870 -2.2313
  842MOL0     H16142   8.419   4.236   7.865 -0.3975 -0.1600 -0.9578
  842MOL0     H16143   8.233   4.161   8.091  0.7804  4.5278 -0.5066
  842MOL0     H16144   8.225   4.091   7.927  3.2424 -2.8082 -1.6404
  842MOL0     H16145   8.252   3.870   8.072 -0.0945  1.3973 -0.0507
  842MOL0     H16146   8.461   3.631   7.982  1.0309  0.4231 -1.1319
  842MOL0     H16147   8.432   3.632   8.154  0.8284  1.7230  1.7750
  842MOL0     H16148   8.713   3.703   8.072  0.1609  1.0734  2.7596
  842MOL0     H16149   8.650   3.608   8.210  0.9463  2.4475 -0.1588
  842MOL0     H16150   8.564   3.426   8.052 -0.4375  1.1018 -1.2684
  842MOL0     H16151   8.662   3.486   7.926  1.9812 -0.4813 -1.3735
  842MOL0     H16152   8.871   3.465   8.087  0.7452 -2.2181  0.5214
  842MOL0     H16153   8.769   3.380   8.197 -0.1613  0.1431  0.3459
  842MOL0     H16154   8.974   3.331   8.214 -2.9597 -0.7064  0.1276
  842MOL0     H16155   9.139   3.093   8.424 -2.2878 -0.5956 -0.4660
  842MOL0     H16156   9.115   3.267   8.389 -1.7426 -1.1135  1.4264
  842MOL0     H16157   9.248   3.164   8.311 -0.6523 -0.5579 -0.4292
  842MOL0     H16158   9.169   2.574   8.127 -3.8963  1.7536 -0.0551
  842MOL0     H16159   9.257   2.357   8.258 -0.1029  0.3300  0.2579
  842MOL0     H16160   9.319   2.234   8.666 -1.1257 -1.4039 -1.4116
  842MOL0     H16161   9.299   2.407   8.680  1.5198 -2.5746  1.8649
  842MOL0     H16162   9.041   2.348   8.697  0.0889 -0.2092 -1.1823
  842MOL0     H16163   9.088   2.183   8.704  0.5643 -1.5307  2.4476
  842MOL0     H16164   9.162   2.419   8.899 -0.0922  1.0402 -0.6559
  842MOL0     H16165   9.231   2.257   8.907 -0.4289 -3.0413 -3.3449
  842MOL0     H16166   8.934   2.326   8.890  0.6282  0.0449 -0.8978
  842MOL0     H16167   9.010   2.342   9.044 -2.8980  0.9844 -0.1267
  842MOL0     H16168   9.016   2.073   8.907 -0.1218 -2.0546  1.1172
  842MOL0     H16169   9.048   2.103   9.070 -1.1473 -1.6748  0.4912
  842MOL0     H16170   8.771   2.136   8.933  1.7061 -0.4480 -0.6349
  842MOL0     H16171   8.809   2.136   9.113  0.8679 -2.0301  0.7796
  842MOL0     H16172   8.900   1.922   9.105 -0.4649  6.5545  2.4485
  842MOL0     H16173   8.840   1.902   8.934 -2.6353 -3.2696  0.6367
  842MOL0     H16174   8.612   1.958   9.018 -1.2752 -0.4665  1.2779
  842MOL0     H16175   8.675   1.985   9.177  1.5282 -1.8276  1.7285
  842MOL0     H16176   9.109   2.535   8.618  2.0701 -1.3569  1.1811
  842MOL0     H16177   9.020   2.722   8.485 -1.9078 -1.5659 -0.3320
  842MOL0     H16178   8.947   2.884   8.020  0.1918 -0.0209  0.4006
  842MOL0     H16179   8.825   3.058   7.924 -0.9447  0.4702 -0.1606
  842MOL0     H16180   7.473   4.727   7.890  0.3579 -0.9230 -0.2010
  842MOL0     H16181   7.259   4.723   7.956  1.6834  2.1168  1.1954
  842MOL0     H16182   6.911   4.343   8.350 -0.1959  0.9763  0.9578
  842MOL0     H16183   6.676   4.360   8.407 -0.9735  0.2750 -0.6015
  842MOL0     H16184   6.460   4.416   8.454  0.4966  0.7520  0.3014
  842MOL0     H16185   6.320   4.502   8.380 -1.3113 -0.4715 -2.9398
  842MOL0     H16186   6.377   4.276   8.255  2.0276 -1.8845 -1.3357
  842MOL0     H16187   6.529   4.341   8.223 -1.0454 -1.1196 -2.5415
  842MOL0     H16188   6.411   4.520   8.094 -1.5675  0.5662 -0.3325
  842MOL0     H16189   6.372   4.351   8.035  2.6009  0.6212 -0.3770
  842MOL0     H16190   6.164   4.514   8.192  0.7188  1.5900 -1.7522
  842MOL0     H16191   6.150   4.350   8.162 -0.1727  0.9488  1.8852
  842MOL0     H16192   6.084   4.528   7.795 -1.8957  3.9752  1.7925
  842MOL0     H16193   6.661   4.738   8.223  0.3723  1.6027  3.7624
  842MOL0     H16194   6.995   4.813   8.215  0.6308  0.5624 -0.8259
  842MOL0     H16195   6.929   4.780   8.048  2.4554  1.3172 -0.2801
  842MOL0     H16196   6.833   4.848   8.188  0.6233 -0.2980 -1.0684
  843MOL0     O16197   2.206   8.325   8.923 -0.6485  1.2286 -0.6317
  843MOL0     C16198   2.119   8.247   8.884  0.6428 -0.1575 -0.4357
  843MOL0     O16199   1.984   8.277   8.895 -0.5303 -0.3275 -0.6837
  843MOL0     C16200   1.945   8.396   8.956  0.2485  1.0120 -0.1215
  843MOL0     C16201   1.962   8.519   8.902 -0.3934  0.3238  0.0281
  843MOL0     C16202   1.925   8.643   8.966  0.4490  0.7065 -0.4505
  843MOL0     C16203   1.871   8.635   9.097  0.3646  0.6789 -0.3159
  843MOL0     O16204   1.845   8.755   9.159  0.7429  0.2025 -0.5311
  843MOL0     C16205   1.801   8.766   9.299 -0.3541  0.9766 -0.8496
  843MOL0     C16206   1.821   8.910   9.348 -0.6904 -0.3023  0.8191
  843MOL0     C16207   1.960   8.959   9.306 -0.2955 -0.5348  0.3089
  843MOL0     C16208   2.003   9.083   9.381  0.0568  0.1444 -0.1875
  843MOL0     C16209   2.145   9.135   9.325  0.1045  0.2258  0.6520
  843MOL0     C16210   2.198   9.246   9.420  0.0159 -0.1440 -0.4127
  843MOL0     C16211   2.334   9.313   9.393 -0.0070  0.1286  1.9724
  843MOL0     C16212   2.445   9.231   9.434 -0.5451 -0.3199 -0.5543
  843MOL0     N16213   2.574   9.305   9.440  0.3110 -0.4832 -0.4210
  843MOL0     C16214   2.594   9.425   9.501  0.3370  0.2986 -0.1409
  843MOL0     C16215   2.718   9.446   9.454  0.3305 -0.5194 -0.0563
  843MOL0     C16216   2.807   9.564   9.487 -0.4015 -0.4287  0.5488
  843MOL0     C16217   2.958   9.545   9.488 -0.4895  0.3629 -0.8887
  843MOL0     C16218   3.038   9.679   9.503 -0.1647  0.2464 -0.1749
  843MOL0     C16219   3.060   9.752   9.369  0.2733  0.1957  0.5558
  843MOL0     O16220   3.145   9.671   9.281 -0.3093  0.3648  0.0408
  843MOL0     C16221   3.280   9.671   9.303 -0.1017 -0.5957  0.5130
  843MOL0     C16222   3.358   9.766   9.372  0.0820 -0.0432 -0.2117
  843MOL0     C16223   3.495   9.751   9.389  0.6032  0.1115  0.6260
  843MOL0     C16224   3.570   9.876   9.437 -0.0050  0.6170 -0.4023
  843MOL0     C16225   3.564   9.639   9.339  0.3881 -0.1992 -0.0920
  843MOL0     C16226   3.718   9.612   9.358  0.5567  0.3223  0.7814
  843MOL0     O16227   3.757   9.506   9.282  0.0018  0.3711 -0.1042
  843MOL0     C16228   3.898   9.493   9.249  0.2961  0.5513 -0.7510
  843MOL0     C16229   3.956   9.367   9.226  0.7215 -0.9278 -0.0538
  843MOL0     C16230   4.086   9.361   9.183  0.5129  0.1136 -0.2128
  843MOL0     C16231   4.166   9.474   9.171  0.2575  0.9036 -0.2138
  843MOL0     O16232   4.293   9.474   9.126  0.2309 -0.8507 -0.3052
  843MOL0     C16233   4.366   9.359   9.156 -0.4792 -1.4193 -0.5608
  843MOL0     C16234   4.505   9.369   9.088 -0.0830  0.1348  0.6283
  843MOL0     C16235   4.613   9.437   9.174  0.1087  0.1244  0.1893
  843MOL0     C16236   4.754   9.430   9.122  0.2392 -0.1337  0.2856
  843MOL0     C16237   4.859   9.522   9.200  0.6185 -0.3694 -0.4621
  843MOL0     C16238   4.985   9.517   9.117  0.1059 -0.0370  1.2732
  843MOL0     C16239   5.112   9.583   9.172 -0.0866  0.3218 -0.1118
  843MOL0     C16240   5.171   9.498   9.284  0.1694  0.4516 -0.5012
  843MOL0    Cl16241   5.320   9.565   9.336 -0.3266 -0.0140 -0.2611
  843MOL0     C16242   4.116   9.597   9.205  0.1478  0.3032  1.0690
  843MOL0     C16243   3.984   9.609   9.233 -0.2187  0.5946 -0.3904
  843MOL0     O16244   3.787   9.668   9.440  0.0131 -0.1127  0.1123
  843MOL0     C16245   3.488   9.552   9.257  0.0121 -0.0724 -1.1772
  843MOL0     C16246   3.352   9.561   9.249  0.7915 -0.8697 -0.2430
  843MOL0     N16247   2.771   9.349   9.372 -0.1964 -0.7305 -0.7771
  843MOL0     N16248   2.686   9.253   9.378  0.3427 -0.1363 -0.7689
  843MOL0     C16249   1.863   8.508   9.157  0.1790 -0.5105 -0.0710
  843MOL0     C16250   1.894   8.391   9.081 -0.3765  0.0098 -0.1384
  843MOL0     C16251   2.145   8.129   8.798 -0.2842 -0.6674 -0.5784
  843MOL0     C16252   2.033   8.061   8.755  0.4479  0.8471  0.3181
  843MOL0     C16253   2.039   7.948   8.672  0.1079  0.5431 -0.1227
  843MOL0     C16254   2.164   7.899   8.630 -0.2925 -0.2530 -0.2515
  843MOL0     O16255   2.196   7.782   8.566 -0.2588 -0.2520 -0.5053
  843MOL0     C16256   2.093   7.694   8.520  0.3224  0.0679 -0.3688
  843MOL0     C16257   2.015   7.750   8.402 -0.0618  0.1338  0.4463
  843MOL0     C16258   2.116   7.731   8.281  0.4498 -0.6399 -0.8153
  843MOL0     C16259   2.061   7.756   8.139  0.0587  0.2396 -0.3119
  843MOL0     C16260   1.961   7.654   8.100 -0.6806 -0.2002 -0.7299
  843MOL0     C16261   1.885   7.564   8.081 -0.1334  0.4022 -0.8836
  843MOL0     C16262   2.280   7.974   8.659  0.5816 -0.1424 -0.2795
  843MOL0     C16263   2.271   8.086   8.751 -0.2823  0.5430  0.0586
  843MOL0     C16264   2.402   8.144   8.790 -1.3663 -0.6116 -0.4851
  843MOL0     H16265   2.004   8.525   8.802 -1.1642 -0.6344 -0.3800
  843MOL0     H16266   1.933   8.742   8.922 -1.2411  1.9852  1.9020
  843MOL0     H16267   1.840   8.691   9.369 -1.2040 -1.0026 -2.4073
  843MOL0     H16268   1.694   8.743   9.295  0.0005 -2.2709  2.6590
  843MOL0     H16269   1.748   8.979   9.305 -4.3186 -1.8235  3.9444
  843MOL0     H16270   1.804   8.906   9.456 -2.9785 -0.1313  0.5094
  843MOL0     H16271   2.036   8.883   9.324  1.5152  0.8517 -1.0988
  843MOL0     H16272   1.958   8.984   9.199  0.0225 -0.4691  0.3170
  843MOL0     H16273   1.926   9.160   9.382 -0.7422 -0.6399  0.7379
  843MOL0     H16274   2.020   9.049   9.483  0.4913 -0.1744 -0.3593
  843MOL0     H16275   2.135   9.171   9.223  0.8404  0.5509  0.6820
  843MOL0     H16276   2.216   9.052   9.329 -0.5061 -0.2748  2.9939
  843MOL0     H16277   2.132   9.333   9.413  1.8648  1.4735  1.0095
  843MOL0     H16278   2.190   9.203   9.520 -1.8509 -0.9348 -0.8554
  843MOL0     H16279   2.332   9.405   9.453 -0.0670 -0.4654  2.9082
  843MOL0     H16280   2.335   9.330   9.285 -1.8604 -2.0615  1.5195
  843MOL0     H16281   2.427   9.203   9.539  1.1729  0.9137  0.1246
  843MOL0     H16282   2.445   9.143   9.369  0.8995 -1.3881  0.7813
  843MOL0     H16283   2.537   9.489   9.568  0.8912  2.2485 -1.4231
  843MOL0     H16284   2.785   9.608   9.585  1.9470  2.3159  0.0021
  843MOL0     H16285   2.773   9.637   9.413  1.1900 -2.4592 -2.4238
  843MOL0     H16286   2.974   9.486   9.578 -1.9339  1.1943 -0.0524
  843MOL0     H16287   2.989   9.493   9.397 -1.8764  0.8100 -1.6554
  843MOL0     H16288   2.980   9.748   9.566 -1.8030 -1.4177  0.2221
  843MOL0     H16289   3.132   9.648   9.547 -1.0739 -2.1479  0.2349
  843MOL0     H16290   2.960   9.759   9.325  0.6488  0.8539 -0.2249
  843MOL0     H16291   3.103   9.853   9.374  2.6978 -0.7263 -0.4104
  843MOL0     H16292   3.311   9.856   9.411 -1.1169 -1.1773  1.0416
  843MOL0     H16293   3.616   9.934   9.357 -3.6703  2.1706 -1.6273
  843MOL0     H16294   3.655   9.850   9.501 -0.3096  1.0186  0.1813
  843MOL0     H16295   3.513   9.943   9.502  2.0401  1.0230  1.0645
  843MOL0     H16296   3.905   9.273   9.237  1.6991 -2.0159 -3.4231
  843MOL0     H16297   4.119   9.261   9.157  0.2421 -0.7622  2.5204
  843MOL0     H16298   4.379   9.349   9.265  1.4956  0.2913 -0.5789
  843MOL0     H16299   4.318   9.272   9.109 -3.9013 -0.1562  0.3322
  843MOL0     H16300   4.542   9.271   9.058  0.6891 -0.9472  4.5204
  843MOL0     H16301   4.500   9.427   8.996  1.6821 -2.1341 -1.0201
  843MOL0     H16302   4.613   9.381   9.267 -0.1716 -0.2980 -0.0617
  843MOL0     H16303   4.592   9.541   9.202  0.8207  0.0358  1.0842
  843MOL0     H16304   4.757   9.465   9.018  1.2432  2.4477  1.1030
  843MOL0     H16305   4.775   9.322   9.120 -3.2095 -0.9110 -0.0069
  843MOL0     H16306   4.812   9.620   9.208  1.1022 -0.1966  0.2874
  843MOL0     H16307   4.877   9.487   9.302  0.7535  1.0415  0.0212
  843MOL0     H16308   4.967   9.560   9.018  1.1757 -0.9800  0.6505
  843MOL0     H16309   5.009   9.411   9.106 -0.8023 -0.2366  1.1458
  843MOL0     H16310   5.085   9.681   9.212 -2.7518 -0.3745 -0.0305
  843MOL0     H16311   5.190   9.605   9.098 -0.1704  0.5202 -0.1420
  843MOL0     H16312   5.185   9.395   9.249 -1.8264  0.4355 -1.3705
  843MOL0     H16313   5.096   9.480   9.363 -1.9755 -0.0496 -2.5499
  843MOL0     H16314   4.192   9.674   9.200  2.0879 -1.4743  1.7646
  843MOL0     H16315   3.946   9.710   9.246 -0.1356  0.5405  0.2536
  843MOL0     H16316   3.533   9.465   9.210 -2.5913 -0.8542 -2.4434
  843MOL0     H16317   3.298   9.474   9.215  2.9381 -1.4150 -2.5505
  843MOL0     H16318   1.818   8.502   9.255 -1.8182  0.0257 -0.9067
  843MOL0     H16319   1.876   8.298   9.135  1.4935  1.4160  3.2549
  843MOL0     H16320   1.928   8.084   8.770 -0.4212 -1.2993 -1.8804
  843MOL0     H16321   1.954   7.892   8.635 -0.3360  0.4082  1.0612
  843MOL0     H16322   2.141   7.597   8.501  2.1024  0.1675  2.9548
  843MOL0     H16323   2.025   7.674   8.603  0.8569 -1.7339 -0.3235
  843MOL0     H16324   1.979   7.854   8.404  1.7256  0.9477 -2.6862
  843MOL0     H16325   1.934   7.677   8.391  2.1633 -2.5089  0.6387
  843MOL0     H16326   2.202   7.798   8.294 -1.1716  1.6026 -0.9208
  843MOL0     H16327   2.155   7.629   8.283 -0.6210 -1.1075 -2.1338
  843MOL0     H16328   2.145   7.750   8.068  0.3284 -0.1864  0.0373
  843MOL0     H16329   2.013   7.854   8.136  2.1114  1.3365  0.8124
  843MOL0     H16330   1.820   7.482   8.056 -0.1735  0.5680 -1.3405
  843MOL0     H16331   2.373   7.933   8.620  0.9099  0.7018 -0.4172
  843MOL0     H16332   2.401   8.175   8.895  0.0322 -0.6565 -0.4340
  843MOL0     H16333   2.485   8.074   8.787 -1.5029 -0.8625  0.7736
  843MOL0     H16334   2.426   8.235   8.734  0.6951 -0.1103  1.0989
  844MOL0     O16335   0.762   4.936   7.549  0.1352  0.4100  0.0575
  844MOL0     C16336   0.776   4.944   7.431  0.5038 -0.0222  0.7664
  844MOL0     O16337   0.869   5.020   7.373 -0.0756  0.2513  0.7019
  844MOL0     C16338   0.951   5.105   7.447  0.4099  0.1133 -0.0568
  844MOL0     C16339   1.092   5.094   7.445  0.4136  0.2854  0.2408
  844MOL0     C16340   1.167   5.204   7.489  0.1247  0.4670  0.0716
  844MOL0     C16341   1.109   5.319   7.541 -0.3026 -0.4205 -0.3808
  844MOL0     O16342   1.186   5.423   7.575 -0.4606 -0.8242  0.3802
  844MOL0     C16343   1.130   5.551   7.621  0.0675  0.5058 -0.3074
  844MOL0     C16344   1.236   5.655   7.604  0.3952  0.5040 -1.0231
  844MOL0     C16345   1.188   5.794   7.654  0.3675  1.0674 -0.3577
  844MOL0     C16346   1.285   5.910   7.621 -0.0839 -0.1758  0.3824
  844MOL0     C16347   1.433   5.891   7.666 -0.1185  0.1606  0.2262
  844MOL0     C16348   1.522   6.010   7.630 -0.4198 -0.4000 -0.3419
  844MOL0     C16349   1.665   5.993   7.661  0.6434  0.3376  0.2363
  844MOL0     C16350   1.754   6.093   7.578  0.5781  0.3231 -0.6164
  844MOL0     N16351   1.881   6.121   7.650  0.8784 -0.5916 -0.1401
  844MOL0     C16352   1.944   6.246   7.665 -0.6274 -0.2784  0.5245
  844MOL0     C16353   2.069   6.213   7.708 -0.4215 -0.5727  0.5095
  844MOL0     C16354   2.180   6.317   7.719  0.2043  0.4418  0.2780
  844MOL0     C16355   2.231   6.316   7.862  0.4636 -0.2726  0.0191
  844MOL0     C16356   2.337   6.418   7.889  0.1320 -0.3882 -0.1230
  844MOL0     C16357   2.431   6.394   8.008  0.1319 -0.2224  0.5636
  844MOL0     O16358   2.479   6.257   8.011  0.3154  0.0466  0.9744
  844MOL0     C16359   2.578   6.224   8.092  0.4335  0.0268  0.3752
  844MOL0     C16360   2.616   6.095   8.111  0.2852 -0.0317  0.6115
  844MOL0     C16361   2.710   6.053   8.214  0.5392  0.1908  0.3752
  844MOL0     C16362   2.747   5.913   8.228  0.1221 -0.1701  0.9377
  844MOL0     C16363   2.764   6.150   8.294  0.0028 -0.6337 -0.4654
  844MOL0     C16364   2.873   6.114   8.385  0.0923  0.6015 -0.5691
  844MOL0     O16365   2.971   6.044   8.329  0.0886 -0.3722  0.1071
  844MOL0     C16366   3.075   6.027   8.415 -0.3341  0.5415  0.1904
  844MOL0     C16367   3.074   5.933   8.524 -0.4365  0.2846 -0.0516
  844MOL0     C16368   3.190   5.914   8.607 -0.1337 -0.3169 -0.0117
  844MOL0     C16369   3.308   5.983   8.584 -0.9124  0.1654  0.5691
  844MOL0     O16370   3.422   5.965   8.664  0.0183 -0.7846  0.1963
  844MOL0     C16371   3.421   5.857   8.767 -0.2105 -0.3707  0.0518
  844MOL0     C16372   3.534   5.874   8.865  0.0660  0.3625 -0.4622
  844MOL0     C16373   3.667   5.895   8.803 -0.6484  0.0563  0.6066
  844MOL0     C16374   3.777   5.872   8.911  0.4450 -0.0427  0.7791
  844MOL0     C16375   3.917   5.918   8.856  0.7481  1.4723  0.4166
  844MOL0     C16376   4.034   5.873   8.939  0.2677  0.2983 -0.9478
  844MOL0     C16377   4.175   5.910   8.898 -0.6088 -0.6165 -0.3913
  844MOL0     C16378   4.216   5.848   8.759  0.0709 -0.9667 -0.8087
  844MOL0    Cl16379   4.363   5.925   8.693 -0.2056  0.3368 -0.2918
  844MOL0     C16380   3.308   6.080   8.481  0.4324 -0.3931  0.3940
  844MOL0     C16381   3.192   6.101   8.402 -0.6726 -0.5370  0.6205
  844MOL0     O16382   2.864   6.143   8.500 -0.2424 -0.0041 -0.5012
  844MOL0     C16383   2.731   6.289   8.270  0.8026  0.2081 -0.4635
  844MOL0     C16384   2.633   6.322   8.177  0.2242 -0.2322  0.0945
  844MOL0     N16385   2.079   6.080   7.721 -0.4498 -0.5988 -0.3754
  844MOL0     N16386   1.965   6.023   7.689  0.2236 -0.2332 -0.0949
  844MOL0     C16387   0.969   5.313   7.558 -1.0392  0.0265 -0.0892
  844MOL0     C16388   0.894   5.211   7.512 -0.6856 -0.9969 -0.2425
  844MOL0     C16389   0.694   4.865   7.336  1.0010 -0.4131 -0.6542
  844MOL0     C16390   0.722   4.865   7.194  0.5337 -0.8538  0.3108
  844MOL0     C16391   0.653   4.780   7.115  0.1119  0.4044  0.2297
  844MOL0     C16392   0.548   4.693   7.162 -0.6190 -1.0615 -0.6508
  844MOL0     O16393   0.491   4.594   7.086  0.0922 -0.0908 -0.2380
  844MOL0     C16394   0.557   4.546   6.972  0.4373 -0.7164 -0.3442
  844MOL0     C16395   0.501   4.412   6.946  0.0939 -0.0903  0.0910
  844MOL0     C16396   0.358   4.418   6.900 -0.5399  0.3238  0.1739
  844MOL0     C16397   0.334   4.474   6.753 -1.0624  0.2690 -0.8032
  844MOL0     C16398   0.194   4.471   6.721  0.4013 -0.7680  0.2169
  844MOL0     C16399   0.083   4.444   6.683 -0.7993 -0.5856 -0.5511
  844MOL0     C16400   0.513   4.705   7.296  0.0391  0.1858 -0.2285
  844MOL0     C16401   0.575   4.799   7.380 -0.0992  1.0008 -0.2058
  844MOL0     C16402   0.524   4.812   7.525  0.2741  0.6734 -0.3223
  844MOL0     H16403   1.132   5.005   7.399  0.0641 -1.2311  2.7039
  844MOL0     H16404   1.275   5.196   7.487  0.0784 -0.2895 -2.2705
  844MOL0     H16405   1.087   5.541   7.721  0.9088  3.1356  0.4016
  844MOL0     H16406   1.049   5.580   7.553 -0.0546 -1.5956 -1.1078
  844MOL0     H16407   1.329   5.627   7.655  0.7189 -0.4019 -2.0840
  844MOL0     H16408   1.264   5.657   7.499  2.6049  3.4410 -0.5005
  844MOL0     H16409   1.086   5.806   7.617 -0.3934 -3.0673 -0.0410
  844MOL0     H16410   1.176   5.791   7.763  1.3180  0.1879 -0.2633
  844MOL0     H16411   1.293   5.923   7.513  0.2563 -2.1253  0.1371
  844MOL0     H16412   1.241   6.005   7.654  1.9691 -0.1409  3.3999
  844MOL0     H16413   1.470   5.807   7.606  0.4240  1.4290 -1.2669
  844MOL0     H16414   1.432   5.859   7.771  4.7403 -1.9819 -0.1335
  844MOL0     H16415   1.509   6.022   7.522  0.1825 -1.3907 -0.5331
  844MOL0     H16416   1.494   6.097   7.691  0.4829 -0.7051  0.5394
  844MOL0     H16417   1.699   5.890   7.649 -3.9384 -1.4737  0.8048
  844MOL0     H16418   1.686   6.019   7.766  0.7033 -2.7252  1.0712
  844MOL0     H16419   1.770   6.054   7.478  1.1224  0.3815 -0.5576
  844MOL0     H16420   1.702   6.187   7.562 -2.6944 -1.4887 -1.4347
  844MOL0     H16421   1.895   6.338   7.636 -2.5304 -0.8957  1.6299
  844MOL0     H16422   2.138   6.415   7.698  1.1707  0.8430  0.1952
  844MOL0     H16423   2.260   6.295   7.648 -1.6007  0.5685 -1.8845
  844MOL0     H16424   2.143   6.329   7.925  1.5135  0.9736  1.2897
  844MOL0     H16425   2.274   6.216   7.875 -0.8316 -1.2645 -2.5650
  844MOL0     H16426   2.398   6.430   7.798  0.6179  0.8520  0.3387
  844MOL0     H16427   2.285   6.514   7.902 -0.8144 -0.6197 -1.8219
  844MOL0     H16428   2.515   6.464   8.001  0.9187 -0.9153  2.3291
  844MOL0     H16429   2.372   6.421   8.097  1.8585  3.6337  0.7433
  844MOL0     H16430   2.580   6.028   8.033 -0.9783  0.2104  0.9565
  844MOL0     H16431   2.839   5.884   8.176 -1.1967  0.2661 -1.8133
  844MOL0     H16432   2.676   5.849   8.174 -0.1508  1.6977 -1.0240
  844MOL0     H16433   2.755   5.875   8.330  4.3885 -2.2573  0.0564
  844MOL0     H16434   2.983   5.877   8.544  0.6931 -2.2199 -1.4784
  844MOL0     H16435   3.175   5.840   8.685 -0.6360  0.8583  1.0631
  844MOL0     H16436   3.330   5.859   8.827  0.4443 -0.7591  1.0738
  844MOL0     H16437   3.434   5.756   8.727 -2.9361 -1.6948  2.2255
  844MOL0     H16438   3.501   5.962   8.920 -0.4751 -0.3155  0.3171
  844MOL0     H16439   3.544   5.791   8.936 -0.5669  2.7567  2.6027
  844MOL0     H16440   3.678   5.998   8.768  2.1876 -0.9460 -1.8892
  844MOL0     H16441   3.675   5.829   8.716 -1.0284 -0.9003  1.2784
  844MOL0     H16442   3.783   5.766   8.936  0.6669 -1.2558 -3.5901
  844MOL0     H16443   3.756   5.937   8.997  1.5619 -0.6381  1.5198
  844MOL0     H16444   3.929   5.883   8.753  0.1072  1.4221  0.3558
  844MOL0     H16445   3.912   6.027   8.846  1.5611  2.2910  5.7403
  844MOL0     H16446   4.026   5.764   8.947 -0.4408  0.4783  1.2509
  844MOL0     H16447   4.022   5.908   9.041 -0.0157 -3.2558  0.3950
  844MOL0     H16448   4.249   5.881   8.974 -0.7172  0.7613  0.2635
  844MOL0     H16449   4.177   6.018   8.882 -2.8564 -0.8315 -2.6436
  844MOL0     H16450   4.133   5.862   8.689 -1.7100  1.6655  1.5814
  844MOL0     H16451   4.221   5.740   8.777  0.1100 -1.0010 -1.0245
  844MOL0     H16452   3.402   6.129   8.457  0.3399 -1.1678 -1.7742
  844MOL0     H16453   3.199   6.155   8.308 -0.5450 -1.5737  0.0189
  844MOL0     H16454   2.774   6.366   8.333 -1.9047  1.2967  0.1899
  844MOL0     H16455   2.626   6.430   8.164  0.0485 -0.2794 -0.2074
  844MOL0     H16456   0.914   5.394   7.605  0.3703  1.0604 -0.1407
  844MOL0     H16457   0.786   5.209   7.521 -1.1668  1.8271 -3.3396
  844MOL0     H16458   0.803   4.927   7.156  0.9964  0.7868  3.5666
  844MOL0     H16459   0.688   4.774   7.012 -2.8256 -1.7516 -0.7793
  844MOL0     H16460   0.541   4.607   6.883  0.9283 -0.2007 -0.0882
  844MOL0     H16461   0.665   4.539   6.984  0.3391 -0.4594  0.8468
  844MOL0     H16462   0.513   4.352   7.036  0.3582  2.4255  1.8274
  844MOL0     H16463   0.555   4.360   6.866 -2.6700  0.8020 -2.5422
  844MOL0     H16464   0.322   4.316   6.886 -0.9986  0.5323 -0.1993
  844MOL0     H16465   0.310   4.473   6.982 -1.9199 -0.8923  0.2276
  844MOL0     H16466   0.391   4.415   6.681 -2.5091  0.0249 -1.7751
  844MOL0     H16467   0.369   4.578   6.748  1.1092 -0.1776  2.1531
  844MOL0     H16468  -0.018   4.428   6.651 -0.5193 -4.0798 -0.1480
  844MOL0     H16469   0.435   4.639   7.333  0.6730 -1.0009 -0.9296
  844MOL0     H16470   0.529   4.917   7.558 -2.6682  1.2444 -1.3461
  844MOL0     H16471   0.420   4.778   7.528  0.6058 -0.2654  0.7598
  844MOL0     H16472   0.593   4.749   7.581  2.1541  3.1971  0.4139
  845MOL0     O16473  10.677   6.075   9.668  0.4059 -0.0934 -0.4451
  845MOL0     C16474  10.674   5.962   9.623  0.3279  0.8489  0.4279
  845MOL0     O16475  10.782   5.873   9.602  0.2611  0.2232  0.7939
  845MOL0     C16476  10.893   5.878   9.683  0.5757 -0.4912  0.3063
  845MOL0     C16477  10.966   5.991   9.691 -0.1209 -0.5652  0.0722
  845MOL0     C16478  11.087   5.993   9.763 -1.1122 -0.2862  0.5591
  845MOL0     C16479  11.136   5.882   9.829  0.6706  0.3081 -0.8418
  845MOL0     O16480  11.264   5.864   9.879  0.3178 -0.6438 -1.1088
  845MOL0     C16481  11.364   5.968   9.872 -0.4299 -0.0472  1.2937
  845MOL0     C16482  11.485   5.918   9.951 -1.0674  0.0087  0.1510
  845MOL0     C16483  11.558   5.823   9.859 -0.1687 -0.0329  0.5262
  845MOL0     C16484  11.678   5.771   9.947 -0.0653 -0.3634 -0.0716
  845MOL0     C16485  11.760   5.660   9.876  1.8716 -0.0428  0.0057
  845MOL0     C16486  11.844   5.568   9.968 -0.9137  0.2774  0.4021
  845MOL0     C16487  11.855   5.427   9.901 -0.0191  0.2611 -0.5605
  845MOL0     C16488  11.913   5.315   9.999 -0.3310  0.6058  0.3226
  845MOL0     N16489  12.061   5.324  10.008  0.1464  0.6525 -0.2641
  845MOL0     C16490  12.153   5.305   9.911  0.2170 -0.5020  0.1254
  845MOL0     C16491  12.275   5.327   9.957  0.6051 -1.1196  0.0195
  845MOL0     C16492  12.404   5.306   9.886 -0.0572  0.5773 -0.1486
  845MOL0     C16493  12.447   5.434   9.817  0.3915 -0.1834 -0.7547
  845MOL0     C16494  12.584   5.408   9.758 -0.3859  0.4607 -0.2426
  845MOL0     C16495  12.636   5.533   9.688 -0.0523  0.7074 -1.1015
  845MOL0     O16496  12.692   5.634   9.774  1.1007 -0.5170  0.0294
  845MOL0     C16497  12.820   5.624   9.832  0.4510  0.2962  1.0177
  845MOL0     C16498  12.915   5.524   9.794 -0.3677 -0.4192 -0.2416
  845MOL0     C16499  13.042   5.514   9.865 -0.1646 -0.4123  0.3890
  845MOL0     C16500  13.133   5.406   9.824  0.1685 -0.4686  0.3512
  845MOL0     C16501  13.074   5.598   9.970  0.3585 -0.6482 -0.4711
  845MOL0     C16502  13.204   5.609  10.047 -0.2668  0.1711  0.4210
  845MOL0     O16503  13.242   5.739  10.090  0.0405 -0.2701 -0.0017
  845MOL0     C16504  13.362   5.745  10.157  0.3785  0.0011 -0.2757
  845MOL0     C16505  13.481   5.736  10.085 -0.0610 -0.1404 -0.5194
  845MOL0     C16506  13.610   5.763  10.140 -0.5710  0.3261  0.1295
  845MOL0     C16507  13.619   5.798  10.277  0.0597  0.0545 -0.5527
  845MOL0     O16508  13.726   5.847  10.344  0.2161 -0.4692  0.1971
  845MOL0     C16509  13.843   5.895  10.272  0.4048  0.2896 -0.2371
  845MOL0     C16510  13.940   5.963  10.366 -0.2214  0.3239  0.4228
  845MOL0     C16511  13.999   5.866  10.465 -0.1301  0.1831 -0.3728
  845MOL0     C16512  14.121   5.915  10.546  0.0428 -0.2381  0.3749
  845MOL0     C16513  14.156   5.826  10.673  0.0221 -0.2008  0.5846
  845MOL0     C16514  14.232   5.904  10.775  0.2994 -0.2251  0.2525
  845MOL0     C16515  14.234   5.806  10.900 -0.1417 -1.1098 -0.7010
  845MOL0     C16516  14.319   5.857  11.018  0.0221  0.3925 -0.2182
  845MOL0    Cl16517  14.500   5.874  10.967 -0.1667 -0.1622  0.1266
  845MOL0     C16518  13.499   5.803  10.346 -1.0593 -0.8022  0.1841
  845MOL0     C16519  13.369   5.774  10.294 -0.0306  0.7501 -0.5852
  845MOL0     O16520  13.272   5.506  10.055 -0.5558 -0.0929 -0.0017
  845MOL0     C16521  12.983   5.703  10.000  0.3601  0.0424 -0.1755
  845MOL0     C16522  12.861   5.708   9.931  0.3233 -0.8720  0.4235
  845MOL0     N16523  12.256   5.362  10.089  0.2557  0.1409  0.0083
  845MOL0     N16524  12.130   5.357  10.118 -1.0221 -1.1966  0.0474
  845MOL0     C16525  11.048   5.767   9.816  0.0955 -0.4120  0.2049
  845MOL0     C16526  10.925   5.767   9.751  0.8772  0.0485 -1.1149
  845MOL0     C16527  10.554   5.903   9.557  0.1112  0.0734  0.6300
  845MOL0     C16528  10.532   5.930   9.426  0.1801 -0.1501 -0.7626
  845MOL0     C16529  10.432   5.869   9.356  0.0935 -0.1797  1.1221
  845MOL0     C16530  10.339   5.785   9.423 -0.9495  1.2910  0.0748
  845MOL0     O16531  10.231   5.725   9.365  0.2179 -0.1036  0.2308
  845MOL0     C16532  10.205   5.723   9.222 -0.3376  0.6786 -0.4752
  845MOL0     C16533  10.301   5.642   9.134  0.5135  0.5224  0.5501
  845MOL0     C16534  10.236   5.521   9.075 -0.1115  0.3970 -0.7310
  845MOL0     C16535  10.334   5.449   8.989  0.1713  0.1397  0.7559
  845MOL0     C16536  10.332   5.508   8.852  0.0087 -0.8946  0.1316
  845MOL0     C16537  10.335   5.568   8.742 -0.4240  0.5737 -0.6131
  845MOL0     C16538  10.358   5.770   9.559 -0.2037  0.1460  0.4887
  845MOL0     C16539  10.471   5.817   9.627 -0.6993 -0.2197  0.8093
  845MOL0     C16540  10.489   5.777   9.772 -0.2633  0.5693 -0.0264
  845MOL0     H16541  10.942   6.081   9.635 -2.0702 -1.4614 -0.6391
  845MOL0     H16542  11.139   6.088   9.757 -0.0680 -0.8218  0.8850
  845MOL0     H16543  11.319   6.059   9.912  3.5346  2.8543 -0.2422
  845MOL0     H16544  11.383   5.996   9.768 -1.8524  3.2237  1.8061
  845MOL0     H16545  11.542   6.007   9.978 -1.0164 -0.7367  2.7941
  845MOL0     H16546  11.456   5.866  10.043 -0.6952  0.0953  0.3176
  845MOL0     H16547  11.483   5.746   9.845 -2.2864  1.6014  2.1935
  845MOL0     H16548  11.598   5.867   9.767  0.7185  2.5937  2.0454
  845MOL0     H16549  11.746   5.851   9.977  0.4169 -0.7855 -0.0293
  845MOL0     H16550  11.631   5.731  10.038 -1.8164 -1.6175 -1.4571
  845MOL0     H16551  11.825   5.716   9.808 -1.5221  1.1153 -2.5996
  845MOL0     H16552  11.695   5.610   9.804  1.0215  2.0877 -0.7885
  845MOL0     H16553  11.949   5.599   9.979 -0.0456 -1.3660 -2.4179
  845MOL0     H16554  11.793   5.555  10.063  0.9217 -2.5170  1.1267
  845MOL0     H16555  11.917   5.441   9.812 -1.5122 -0.6080 -1.7914
  845MOL0     H16556  11.758   5.389   9.868 -1.1089  1.2290  1.3380
  845MOL0     H16557  11.859   5.325  10.094 -1.4856  0.1995 -0.2827
  845MOL0     H16558  11.894   5.216   9.958  2.6119 -0.7024  1.8075
  845MOL0     H16559  12.130   5.283   9.807 -1.8293  1.8476 -0.0025
  845MOL0     H16560  12.394   5.221   9.817  0.4628 -0.8095  1.4059
  845MOL0     H16561  12.482   5.281   9.959  0.6652  1.3912 -0.6255
  845MOL0     H16562  12.370   5.469   9.748 -0.2078  0.9921  0.4723
  845MOL0     H16563  12.459   5.508   9.896 -0.2760  0.4955 -1.2780
  845MOL0     H16564  12.656   5.383   9.836 -2.4279 -0.6117  1.4009
  845MOL0     H16565  12.571   5.329   9.683 -0.2641  0.5837 -0.3955
  845MOL0     H16566  12.712   5.500   9.617 -0.0907  0.7126 -1.1453
  845MOL0     H16567  12.556   5.576   9.628  0.4377  3.2847 -0.0471
  845MOL0     H16568  12.899   5.459   9.708  0.1930 -0.4656 -0.3161
  845MOL0     H16569  13.126   5.318   9.888 -1.1144 -0.6293  0.0200
  845MOL0     H16570  13.231   5.451   9.807 -1.1525  2.4568 -0.1307
  845MOL0     H16571  13.104   5.369   9.725  1.3363  0.0205 -0.1902
  845MOL0     H16572  13.471   5.715   9.979  2.1777  1.0372 -1.0385
  845MOL0     H16573  13.694   5.767  10.072 -1.5030 -2.2431 -1.3182
  845MOL0     H16574  13.883   5.804  10.225 -3.5121 -1.7390 -0.0597
  845MOL0     H16575  13.810   5.957  10.189 -0.0380 -2.3606 -2.1813
  845MOL0     H16576  14.023   6.012  10.315  3.1536 -4.2813  0.9189
  845MOL0     H16577  13.878   6.032  10.423 -1.1204 -1.1520  1.3045
  845MOL0     H16578  14.025   5.767  10.427  0.2001  0.4944 -0.9612
  845MOL0     H16579  13.919   5.843  10.537 -1.7074  0.7244 -1.8945
  845MOL0     H16580  14.100   6.019  10.573  1.6631  0.7800 -1.9979
  845MOL0     H16581  14.209   5.927  10.482 -0.4165  3.5368  0.2329
  845MOL0     H16582  14.060   5.791  10.712 -0.0466  0.5729  1.1176
  845MOL0     H16583  14.226   5.747  10.642  3.3495  1.9728  2.0140
  845MOL0     H16584  14.170   5.989  10.806  0.0531 -0.7029  1.1162
  845MOL0     H16585  14.331   5.937  10.743 -0.4372  2.6633  0.7359
  845MOL0     H16586  14.266   5.706  10.872 -2.6743 -2.3948  0.6156
  845MOL0     H16587  14.132   5.799  10.940  0.1910 -2.3166 -0.0256
  845MOL0     H16588  14.316   5.795  11.108  2.3940  1.8859  1.0070
  845MOL0     H16589  14.279   5.951  11.056  3.7204  3.0991 -2.3398
  845MOL0     H16590  13.504   5.854  10.442  0.4375 -0.3298 -0.1272
  845MOL0     H16591  13.289   5.801  10.362 -0.3599  3.0216 -1.7699
  845MOL0     H16592  13.008   5.778  10.074 -0.2575 -1.2223  1.3603
  845MOL0     H16593  12.789   5.785   9.960  2.2001  0.4799  1.7347
  845MOL0     H16594  11.075   5.670   9.857 -1.7680 -1.3952 -0.7759
  845MOL0     H16595  10.859   5.681   9.762 -3.2472  3.0692  0.4977
  845MOL0     H16596  10.600   5.998   9.376 -2.9882  2.2453 -2.1797
  845MOL0     H16597  10.423   5.880   9.248  1.0090 -1.1158  0.9373
  845MOL0     H16598  10.105   5.683   9.205 -0.1484 -1.5963  2.9039
  845MOL0     H16599  10.211   5.829   9.198 -1.0888  1.1912  1.4319
  845MOL0     H16600  10.388   5.618   9.198  0.9828  1.1673  0.1587
  845MOL0     H16601  10.333   5.709   9.055 -1.4698  2.1251  1.0331
  845MOL0     H16602  10.216   5.464   9.166  0.6819  0.1194 -0.7179
  845MOL0     H16603  10.152   5.550   9.012 -0.7409  1.9888  0.7672
  845MOL0     H16604  10.307   5.346   8.966  1.4366  0.1268 -0.8966
  845MOL0     H16605  10.436   5.448   9.029  1.1323 -0.8415 -1.5184
  845MOL0     H16606  10.342   5.622   8.650  2.3927  0.0291 -0.8016
  845MOL0     H16607  10.282   5.710   9.608 -1.3993  0.4235 -0.9415
  845MOL0     H16608  10.589   5.756   9.809 -0.9034 -1.8885  0.5328
  845MOL0     H16609  10.477   5.863   9.839  0.4486  0.1696  0.6198
  845MOL0     H16610  10.423   5.693   9.798  1.1860 -0.2262  1.2173
  846MOL0     O16611  10.956   0.293   3.663 -0.2515 -0.4458 -0.5167
  846MOL0     C16612  10.955   0.334   3.774 -0.6833  0.9674 -0.6893
  846MOL0     O16613  11.062   0.306   3.864  0.3776 -0.2975 -0.6420
  846MOL0     C16614  11.172   0.234   3.828  0.0376 -0.5270 -0.3697
  846MOL0     C16615  11.178   0.114   3.753  0.3393  0.3367 -0.2158
  846MOL0     C16616  11.301   0.041   3.738  0.5801  0.4505 -0.0396
  846MOL0     C16617  11.421   0.086   3.802  1.2172  0.1696 -0.1475
  846MOL0     O16618  11.532   0.007   3.790 -0.0780  0.0877  0.2475
  846MOL0     C16619  11.656   0.064   3.821 -0.1751  0.8012  0.7758
  846MOL0     C16620  11.761  -0.050   3.800 -0.4452  0.3768 -0.6785
  846MOL0     C16621  11.904  -0.019   3.859  0.1066 -0.2395 -0.3669
  846MOL0     C16622  12.006  -0.132   3.822  0.1249  0.5305  0.0424
  846MOL0     C16623  12.152  -0.096   3.872 -0.1196  0.2632  0.2882
  846MOL0     C16624  12.237  -0.019   3.777 -0.3395  0.4721  0.5106
  846MOL0     C16625  12.372   0.018   3.826 -0.0071 -0.5045 -1.1903
  846MOL0     C16626  12.440   0.126   3.729 -0.5361  0.8317  0.5150
  846MOL0     N16627  12.584   0.134   3.763  0.2004  0.0033 -1.1966
  846MOL0     C16628  12.640   0.177   3.882 -0.0888 -0.1938  0.6591
  846MOL0     C16629  12.776   0.171   3.875 -0.9456  0.0590  0.4636
  846MOL0     C16630  12.874   0.235   3.975  0.0435  0.0857  0.1487
  846MOL0     C16631  13.015   0.185   3.942  0.1868  0.4988  0.1894
  846MOL0     C16632  13.116   0.249   4.040 -0.1758 -0.1873 -0.1616
  846MOL0     C16633  13.258   0.195   4.015 -0.2509 -0.0684 -0.6863
  846MOL0     O16634  13.342   0.242   4.121 -0.2606  0.0067  0.0693
  846MOL0     C16635  13.472   0.208   4.132  0.3405  0.3823 -0.6103
  846MOL0     C16636  13.525   0.225   4.256  0.2459 -0.5742  0.2219
  846MOL0     C16637  13.663   0.189   4.280  0.6290  0.5949 -0.1636
  846MOL0     C16638  13.710   0.216   4.414  0.2929  0.1180 -0.8257
  846MOL0     C16639  13.738   0.127   4.178 -0.3329  0.7194 -0.0231
  846MOL0     C16640  13.874   0.076   4.194  0.0638  0.2686  0.3757
  846MOL0     O16641  13.928   0.068   4.319 -0.2676 -0.7338  0.0582
  846MOL0     C16642  14.056   0.032   4.327  0.0517 -0.9359  0.2336
  846MOL0     C16643  14.092  -0.098   4.348 -0.1311  0.2286  0.6568
  846MOL0     C16644  14.226  -0.132   4.385 -0.3322  0.3817 -0.4890
  846MOL0     C16645  14.318  -0.027   4.398  0.0527 -0.3057  0.5817
  846MOL0     O16646  14.443  -0.077   4.435 -0.4328 -0.0971  0.3156
  846MOL0     C16647  14.546   0.003   4.494 -0.8156  0.0469 -0.6094
  846MOL0     C16648  14.666  -0.093   4.525 -0.2758 -0.1861  1.1010
  846MOL0     C16649  14.787  -0.015   4.587 -0.5468  0.0116  0.3676
  846MOL0     C16650  14.901  -0.086   4.517  0.9044 -0.5654 -0.7545
  846MOL0     C16651  15.030  -0.047   4.584 -0.8066 -0.4379  0.0035
  846MOL0     C16652  15.148  -0.104   4.502  0.2625  0.4174 -0.0593
  846MOL0     C16653  15.283  -0.108   4.579  0.3690  0.3577  1.1198
  846MOL0     C16654  15.390  -0.128   4.472  0.2380 -0.3403  0.0050
  846MOL0    Cl16655  15.548  -0.100   4.563 -0.1133 -0.0985 -0.3292
  846MOL0     C16656  14.285   0.102   4.352  0.8406  0.4500 -0.5440
  846MOL0     C16657  14.149   0.136   4.332 -0.4040 -0.3864  0.1558
  846MOL0     O16658  13.931   0.049   4.084 -0.5843 -1.1214  0.2542
  846MOL0     C16659  13.675   0.102   4.061  0.3287  0.3152  0.1777
  846MOL0     C16660  13.546   0.133   4.034  0.2631  0.0628 -0.9597
  846MOL0     N16661  12.805   0.117   3.749 -0.6178  0.1356  0.1293
  846MOL0     N16662  12.689   0.085   3.697 -0.0718  0.2243 -0.1457
  846MOL0     C16663  11.415   0.205   3.876 -0.6408  0.3298  1.1003
  846MOL0     C16664  11.294   0.272   3.888  0.4249 -0.6157  0.2683
  846MOL0     C16665  10.839   0.408   3.843 -0.6291 -0.4146  0.4170
  846MOL0     C16666  10.866   0.488   3.950 -0.3209 -1.0594  0.3964
  846MOL0     C16667  10.764   0.550   4.022  0.0167 -0.3571  0.0063
  846MOL0     C16668  10.631   0.529   3.985 -0.1183 -0.6687 -0.4869
  846MOL0     O16669  10.529   0.591   4.066  0.1087 -0.0213  0.5927
  846MOL0     C16670  10.415   0.505   4.098 -1.3661  0.1873  0.4564
  846MOL0     C16671  10.450   0.427   4.219 -0.5875  0.3244 -0.1051
  846MOL0     C16672  10.341   0.328   4.257 -0.5653 -0.7245 -1.7673
  846MOL0     C16673  10.362   0.291   4.406  0.1192  0.0955  0.2702
  846MOL0     C16674  10.481   0.214   4.431 -0.1889 -0.0749 -0.4820
  846MOL0     C16675  10.579   0.145   4.454  0.5743 -0.2491 -0.0316
  846MOL0     C16676  10.608   0.455   3.873 -0.4173 -0.3713 -0.4339
  846MOL0     C16677  10.706   0.395   3.801  0.7210 -0.2120 -0.4712
  846MOL0     C16678  10.675   0.319   3.671  0.3504  0.5476 -0.3910
  846MOL0     H16679  11.092   0.078   3.698  1.6930 -0.3421 -1.9844
  846MOL0     H16680  11.313  -0.046   3.675 -1.2196 -0.6914  1.0987
  846MOL0     H16681  11.669   0.101   3.923  0.7550  1.1315  0.5487
  846MOL0     H16682  11.685   0.144   3.752  1.0884  1.5774  2.1444
  846MOL0     H16683  11.731  -0.142   3.851  2.2279 -0.3981 -0.3414
  846MOL0     H16684  11.781  -0.079   3.697  0.8336 -0.4364 -0.2135
  846MOL0     H16685  11.929   0.080   3.820 -1.2035 -0.7886 -2.7971
  846MOL0     H16686  11.903  -0.006   3.968 -0.8302 -1.1795 -0.2396
  846MOL0     H16687  11.975  -0.227   3.866  0.1682 -0.1172 -1.2713
  846MOL0     H16688  11.995  -0.145   3.714  0.2909  0.3492  0.0458
  846MOL0     H16689  12.207  -0.190   3.886 -1.7302 -1.2391 -2.4776
  846MOL0     H16690  12.144  -0.042   3.967  2.0247  0.5542  0.3408
  846MOL0     H16691  12.234  -0.060   3.675 -2.7467 -0.6840  0.9773
  846MOL0     H16692  12.192   0.076   3.749  0.1256  0.3022 -0.8784
  846MOL0     H16693  12.434  -0.072   3.837 -3.1230 -2.5881  1.5552
  846MOL0     H16694  12.360   0.072   3.920  0.9799 -1.8057 -0.2628
  846MOL0     H16695  12.439   0.100   3.623 -0.2574  1.3644  0.3730
  846MOL0     H16696  12.388   0.223   3.731 -0.7534  0.8110  4.6493
  846MOL0     H16697  12.586   0.213   3.969  1.9280  0.4093  1.7198
  846MOL0     H16698  12.849   0.213   4.079  1.3618  1.8889  0.8943
  846MOL0     H16699  12.866   0.344   3.970 -2.0186 -0.0635 -0.8038
  846MOL0     H16700  13.015   0.075   3.948 -2.2473  0.2405 -2.2171
  846MOL0     H16701  13.039   0.207   3.838  3.7962 -2.6026  0.1567
  846MOL0     H16702  13.112   0.357   4.024  0.3645 -0.0891  0.3626
  846MOL0     H16703  13.089   0.226   4.143 -1.8897  1.3573 -0.2041
  846MOL0     H16704  13.260   0.086   4.009 -0.7210 -0.1058 -0.2729
  846MOL0     H16705  13.297   0.234   3.921  0.1686 -1.3042 -1.0474
  846MOL0     H16706  13.454   0.269   4.325  0.5397  0.6918 -0.2546
  846MOL0     H16707  13.802   0.274   4.403  1.2146 -1.6114 -2.9165
  846MOL0     H16708  13.731   0.117   4.455  0.2273 -0.9142 -3.1537
  846MOL0     H16709  13.640   0.273   4.477 -0.2659 -1.0150 -0.3831
  846MOL0     H16710  14.030  -0.185   4.328  1.8261 -1.0707 -0.1555
  846MOL0     H16711  14.265  -0.231   4.405  1.1865  0.2614 -3.4411
  846MOL0     H16712  14.581   0.083   4.429 -0.3969 -1.3648 -2.1978
  846MOL0     H16713  14.507   0.042   4.588  0.3478 -0.6002  0.1681
  846MOL0     H16714  14.641  -0.173   4.594 -1.2328 -1.2368 -0.3849
  846MOL0     H16715  14.689  -0.144   4.431 -1.0476 -0.0819  0.8464
  846MOL0     H16716  14.790  -0.027   4.695 -0.0194  2.7856  0.7231
  846MOL0     H16717  14.795   0.088   4.552  2.7808 -0.3714 -0.3672
  846MOL0     H16718  14.902  -0.062   4.410  0.8152  0.9433 -0.4495
  846MOL0     H16719  14.890  -0.194   4.526  0.4061 -0.7205 -2.7728
  846MOL0     H16720  15.030   0.062   4.593  0.1601 -0.3699 -0.6121
  846MOL0     H16721  15.032  -0.080   4.688 -2.6223  0.2298  0.2762
  846MOL0     H16722  15.152  -0.057   4.403  0.2776 -1.8223 -1.1702
  846MOL0     H16723  15.117  -0.205   4.476 -1.1346  0.7661  0.1522
  846MOL0     H16724  15.276  -0.190   4.650 -1.5829  0.5051  1.1574
  846MOL0     H16725  15.299  -0.016   4.636 -0.8178  2.8547 -2.1767
  846MOL0     H16726  15.384  -0.051   4.395  0.0148 -0.1106  0.2495
  846MOL0     H16727  15.384  -0.229   4.430  0.8982 -0.1897 -0.4623
  846MOL0     H16728  14.353   0.178   4.314  3.8965 -0.7592  2.1155
  846MOL0     H16729  14.128   0.243   4.328 -0.3247 -0.4143 -1.7795
  846MOL0     H16730  13.731   0.063   3.976  0.4032  0.4051  0.1845
  846MOL0     H16731  13.502   0.107   3.939 -1.9640 -1.0906  0.2961
  846MOL0     H16732  11.506   0.238   3.926  1.1897 -1.2753 -0.9680
  846MOL0     H16733  11.289   0.362   3.948  1.2741 -0.1204 -0.3790
  846MOL0     H16734  10.964   0.495   3.997  0.3655 -1.9444 -0.8146
  846MOL0     H16735  10.781   0.604   4.114  0.3478  1.7961 -1.2348
  846MOL0     H16736  10.333   0.573   4.125  0.4823  2.9858 -0.5218
  846MOL0     H16737  10.381   0.443   4.015  1.4287 -0.1098 -0.5853
  846MOL0     H16738  10.467   0.498   4.301  2.4095  0.1227 -0.4332
  846MOL0     H16739  10.546   0.374   4.223 -0.3063  0.8813  1.8324
  846MOL0     H16740  10.239   0.365   4.245 -1.0614 -1.7278 -0.8601
  846MOL0     H16741  10.350   0.230   4.208 -2.8799 -3.0006  1.8544
  846MOL0     H16742  10.284   0.219   4.431  0.1839  0.4585  1.5981
  846MOL0     H16743  10.353   0.380   4.468  0.5705  0.4496 -0.1597
  846MOL0     H16744  10.653   0.068   4.461 -0.5430 -1.1928  3.1056
  846MOL0     H16745  10.504   0.443   3.846 -0.2726 -0.8495 -0.7804
  846MOL0     H16746  10.706   0.214   3.673 -0.3705  0.3442  0.4117
  846MOL0     H16747  10.568   0.305   3.650  0.2958 -3.3254  1.5543
  846MOL0     H16748  10.723   0.362   3.582  0.7939 -0.1841 -0.5150
  847MOL0     O16749   1.576   9.340   2.875  0.1298  0.6553 -0.2204
  847MOL0     C16750   1.511   9.439   2.907  0.1292  0.1553  0.3565
  847MOL0     O16751   1.554   9.568   2.880  0.0913 -0.1667  0.4621
  847MOL0     C16752   1.685   9.590   2.853 -0.1191 -0.1440 -0.2449
  847MOL0     C16753   1.710   9.700   2.769  0.0844  0.6662 -0.3941
  847MOL0     C16754   1.840   9.755   2.750 -0.7655 -0.3004  0.3560
  847MOL0     C16755   1.949   9.706   2.825  0.5865  1.2781  0.2909
  847MOL0     O16756   2.071   9.766   2.815  0.3205 -0.1690  0.3516
  847MOL0     C16757   2.186   9.680   2.819  0.2710  0.0529 -0.0147
  847MOL0     C16758   2.311   9.744   2.750  0.3562 -0.5862  0.3263
  847MOL0     C16759   2.366   9.849   2.849  0.4925 -0.4267 -0.0047
  847MOL0     C16760   2.495   9.921   2.808  0.0668 -0.0445 -0.1229
  847MOL0     C16761   2.629   9.830   2.837 -0.0675  0.4036  0.1951
  847MOL0     C16762   2.757   9.891   2.785 -0.7450  0.1229  0.4102
  847MOL0     C16763   2.790  10.033   2.840 -0.0150 -0.0038 -0.2064
  847MOL0     C16764   2.925  10.088   2.792  0.5117  0.3726  1.0842
  847MOL0     N16765   3.045  10.035   2.858  0.1705 -0.1379  0.3608
  847MOL0     C16766   3.127  10.091   2.951 -0.6513  0.4035 -0.3518
  847MOL0     C16767   3.238  10.009   2.962 -0.2909  0.2513  0.7474
  847MOL0     C16768   3.368  10.024   3.033  0.9073  0.0654  0.6665
  847MOL0     C16769   3.357   9.979   3.174  0.3033  0.4748 -0.0145
  847MOL0     C16770   3.463  10.027   3.269 -0.7556  0.3961 -0.5655
  847MOL0     C16771   3.600  10.026   3.204  0.5750  0.0693  0.6040
  847MOL0     O16772   3.691  10.073   3.298 -1.0516  0.5202 -0.4513
  847MOL0     C16773   3.828  10.047   3.284  0.7791  0.0400  0.1873
  847MOL0     C16774   3.904  10.074   3.396  0.5174  0.3237  0.3188
  847MOL0     C16775   4.048  10.065   3.387 -0.1916  0.1003 -0.4877
  847MOL0     C16776   4.116  10.119   3.512 -0.6429  0.2345 -0.4786
  847MOL0     C16777   4.105  10.035   3.263 -0.6717  0.7998 -0.8491
  847MOL0     C16778   4.250  10.046   3.242 -0.0295  0.1549 -0.3315
  847MOL0     O16779   4.339  10.042   3.349 -0.2271 -0.5857  0.6177
  847MOL0     C16780   4.474  10.059   3.331 -0.7731  0.5668 -0.7870
  847MOL0     C16781   4.540  10.137   3.241  0.2100  1.1339  0.1976
  847MOL0     C16782   4.677  10.161   3.264  0.1769  0.3802  0.2839
  847MOL0     C16783   4.749  10.113   3.374  0.3315  0.6552  0.8050
  847MOL0     O16784   4.884  10.150   3.376  0.3586  0.0002  0.0630
  847MOL0     C16785   4.955  10.111   3.490 -0.5072  0.1853  0.0139
  847MOL0     C16786   5.090  10.187   3.490 -0.2175  0.0827 -0.0305
  847MOL0     C16787   5.171  10.172   3.626  0.4507  0.1593  1.1449
  847MOL0     C16788   5.315  10.220   3.608  0.0336  0.0619 -0.2625
  847MOL0     C16789   5.377  10.220   3.747 -0.2584 -0.2799 -0.3603
  847MOL0     C16790   5.531  10.215   3.717 -0.6080 -0.6856  0.1622
  847MOL0     C16791   5.608  10.185   3.844 -0.8222  0.0428 -0.4344
  847MOL0     C16792   5.766  10.186   3.826 -0.2183 -0.7510  0.7288
  847MOL0    Cl16793   5.826  10.319   3.715  0.0096  0.5471  0.0115
  847MOL0     C16794   4.682  10.033   3.463  0.5319  0.1746  0.1293
  847MOL0     C16795   4.543  10.018   3.447  1.2007  0.0441  0.7979
  847MOL0     O16796   4.283  10.060   3.124  0.4143  0.4838  0.1993
  847MOL0     C16797   4.015  10.003   3.157 -0.6174  0.7498  0.4796
  847MOL0     C16798   3.878  10.006   3.164 -0.0570 -0.4143  0.4027
  847MOL0     N16799   3.221   9.904   2.871  0.2888  0.2021  0.1803
  847MOL0     N16800   3.108   9.923   2.816 -0.6071 -0.1028 -0.1260
  847MOL0     C16801   1.922   9.601   2.910  0.1000  0.9137 -0.0276
  847MOL0     C16802   1.794   9.539   2.932  0.1280  0.4875  0.5038
  847MOL0     C16803   1.382   9.412   2.961  0.1803 -0.4008 -0.0086
  847MOL0     C16804   1.316   9.528   3.008  0.0602  0.1479  0.0183
  847MOL0     C16805   1.190   9.515   3.060  0.8037 -0.5011 -0.0275
  847MOL0     C16806   1.122   9.395   3.073 -0.0980  0.1289  0.7678
  847MOL0     O16807   0.998   9.395   3.113  0.1852 -0.0498 -0.4305
  847MOL0     C16808   0.973   9.291   3.217 -0.2307 -0.2109  0.6022
  847MOL0     C16809   0.932   9.344   3.353 -0.9629 -0.3704 -0.0844
  847MOL0     C16810   0.866   9.232   3.423  0.1772 -0.1224 -0.5848
  847MOL0     C16811   0.825   9.258   3.564  0.1672  0.0013  0.0811
  847MOL0     C16812   0.701   9.338   3.588  0.4885 -0.4013 -0.0878
  847MOL0     C16813   0.602   9.406   3.611 -0.3559 -0.8228 -0.4154
  847MOL0     C16814   1.190   9.279   3.034  0.0839 -0.7495 -0.1832
  847MOL0     C16815   1.311   9.286   2.977  0.1376  0.4295 -0.3901
  847MOL0     C16816   1.384   9.158   2.956  0.1479 -0.3306 -0.3274
  847MOL0     H16817   1.632   9.764   2.730 -1.4578 -0.2764  1.0324
  847MOL0     H16818   1.844   9.850   2.699  0.6073 -1.0030 -0.9325
  847MOL0     H16819   2.164   9.584   2.773 -1.1161 -0.2782  1.2677
  847MOL0     H16820   2.224   9.661   2.919  0.4058 -0.2271 -0.1187
  847MOL0     H16821   2.389   9.668   2.740  0.5176 -0.1105 -4.0322
  847MOL0     H16822   2.298   9.780   2.648  3.0909 -2.9573 -1.0100
  847MOL0     H16823   2.286   9.924   2.849 -2.3551 -3.1934  2.4279
  847MOL0     H16824   2.378   9.813   2.951 -2.6214 -0.7956  0.3265
  847MOL0     H16825   2.493   9.958   2.705 -0.4850 -0.1349 -0.1464
  847MOL0     H16826   2.513  10.009   2.870  4.5254  0.5339 -1.8688
  847MOL0     H16827   2.619   9.728   2.800 -0.2489  0.4130  0.2209
  847MOL0     H16828   2.642   9.816   2.945 -0.4858  0.3997  0.2459
  847MOL0     H16829   2.842   9.827   2.809 -2.8625 -3.3954 -0.7102
  847MOL0     H16830   2.744   9.899   2.677 -1.5260 -2.5940  0.2168
  847MOL0     H16831   2.792  10.035   2.950 -3.7352  0.5572 -0.0096
  847MOL0     H16832   2.717  10.108   2.807 -0.0257  0.0621 -0.0348
  847MOL0     H16833   2.942  10.076   2.684 -0.2905 -0.8762  1.0905
  847MOL0     H16834   2.927  10.196   2.809  0.2378  0.5180  0.2254
  847MOL0     H16835   3.107  10.174   3.018  0.9008 -0.4953  1.3113
  847MOL0     H16836   3.400  10.129   3.024  1.0449 -0.1628 -4.0094
  847MOL0     H16837   3.439   9.960   2.980 -1.6860 -1.8452 -0.7163
  847MOL0     H16838   3.259  10.009   3.214  1.2967  2.6315  0.9843
  847MOL0     H16839   3.372   9.871   3.172 -2.5518  0.0023 -1.7831
  847MOL0     H16840   3.441  10.126   3.312 -0.6573 -0.0705  0.5915
  847MOL0     H16841   3.463   9.952   3.349  1.2717  2.2987  1.3782
  847MOL0     H16842   3.627   9.928   3.165 -2.1880 -1.6931  2.7514
  847MOL0     H16843   3.601  10.089   3.114 -0.2805  0.6612  0.9902
  847MOL0     H16844   3.852  10.114   3.482  0.0065 -0.7453  0.5195
  847MOL0     H16845   4.049  10.162   3.587 -1.6826 -0.0200 -1.2373
  847MOL0     H16846   4.173  10.202   3.469 -1.3555  1.6782  1.2139
  847MOL0     H16847   4.170  10.042   3.566 -2.5963  0.8700  2.6317
  847MOL0     H16848   4.504  10.183   3.150 -1.5466  0.6442  0.6174
  847MOL0     H16849   4.730  10.219   3.190  0.4980  1.1842  1.1256
  847MOL0     H16850   4.889  10.142   3.572 -2.5071 -0.1549 -1.3914
  847MOL0     H16851   4.977  10.006   3.512 -1.4885  0.3699  2.1688
  847MOL0     H16852   5.156  10.155   3.409 -1.2168  0.8111 -1.1692
  847MOL0     H16853   5.065  10.293   3.477 -1.2241 -0.0387  0.7793
  847MOL0     H16854   5.180  10.071   3.667 -0.9496 -0.1118  0.8368
  847MOL0     H16855   5.119  10.238   3.696  0.8469 -0.2812  1.8648
  847MOL0     H16856   5.322  10.318   3.559 -2.4524  0.2201 -0.4285
  847MOL0     H16857   5.357  10.147   3.538  0.0650  0.4421 -0.6479
  847MOL0     H16858   5.355  10.299   3.819  4.1349  0.3489  0.6390
  847MOL0     H16859   5.353  10.124   3.795 -0.2023 -1.7987 -3.1269
  847MOL0     H16860   5.556  10.315   3.680  0.3418 -0.5297  1.1544
  847MOL0     H16861   5.554  10.138   3.643 -0.0884  2.6426 -3.4162
  847MOL0     H16862   5.567  10.097   3.894 -3.4581  1.0336 -0.7129
  847MOL0     H16863   5.591  10.262   3.919  0.7502 -0.4873  0.5252
  847MOL0     H16864   5.795  10.091   3.782 -1.0407 -0.5864 -0.1778
  847MOL0     H16865   5.819  10.197   3.922  0.2451 -0.5903  0.4557
  847MOL0     H16866   4.739   9.980   3.538  0.2939  0.5320  0.5690
  847MOL0     H16867   4.494   9.958   3.523  1.8170  1.4329  2.3316
  847MOL0     H16868   4.052   9.991   3.055 -1.0117  3.8111 -0.1392
  847MOL0     H16869   3.828   9.989   3.070 -1.5355 -0.0676  1.0955
  847MOL0     H16870   2.004   9.563   2.969 -0.0165 -2.5155 -1.8649
  847MOL0     H16871   1.778   9.463   3.008 -1.6357  0.4134  0.1112
  847MOL0     H16872   1.353   9.628   2.988 -1.3026  0.3234 -1.9014
  847MOL0     H16873   1.137   9.603   3.096  2.1524 -0.2749  1.4626
  847MOL0     H16874   0.890   9.227   3.183 -1.0022 -0.0138  2.0379
  847MOL0     H16875   1.059   9.225   3.230 -0.3741 -0.7133 -0.7760
  847MOL0     H16876   0.862   9.428   3.341 -0.9178  0.1146  2.4244
  847MOL0     H16877   1.021   9.382   3.405  0.1571 -0.7345 -1.6702
  847MOL0     H16878   0.779   9.207   3.362  0.7652 -0.4729 -1.2964
  847MOL0     H16879   0.934   9.147   3.429  1.5285  0.9498 -0.2040
  847MOL0     H16880   0.914   9.299   3.613  0.9529  0.9771 -2.0255
  847MOL0     H16881   0.799   9.162   3.610 -0.6620  0.0484 -0.2644
  847MOL0     H16882   0.536   9.486   3.636  0.6710 -0.4603  1.3195
  847MOL0     H16883   1.139   9.184   3.030  0.7553 -1.0729 -1.3101
  847MOL0     H16884   1.327   9.075   2.998 -1.3997  1.1268  0.5748
  847MOL0     H16885   1.395   9.141   2.848 -2.2025 -0.9092 -0.5362
  847MOL0     H16886   1.481   9.155   3.007 -0.0475 -0.8666  0.0127
  848MOL0     O16887   2.231   0.406   8.390  0.1602 -0.3138 -0.4124
  848MOL0     C16888   2.144   0.436   8.308 -0.3152  0.1474  0.1688
  848MOL0     O16889   2.168   0.440   8.167  0.0568  0.6895 -0.8594
  848MOL0     C16890   2.275   0.384   8.110 -1.2043  1.0273 -0.2594
  848MOL0     C16891   2.372   0.302   8.177  0.7161  0.1449  0.8388
  848MOL0     C16892   2.486   0.277   8.106  0.4729  0.3042 -0.4175
  848MOL0     C16893   2.507   0.319   7.973 -0.3654  0.1335  0.2628
  848MOL0     O16894   2.613   0.262   7.910  0.6570  0.6477  0.1811
  848MOL0     C16895   2.695   0.347   7.835  0.5108 -0.2676  0.6524
  848MOL0     C16896   2.694   0.312   7.685  0.6833 -0.5313  0.2665
  848MOL0     C16897   2.761   0.428   7.605  0.5596  0.4576  0.3900
  848MOL0     C16898   2.915   0.421   7.613  0.2884  0.5600 -0.5697
  848MOL0     C16899   2.977   0.494   7.500 -0.4532  0.9112  0.0383
  848MOL0     C16900   3.122   0.549   7.531  1.2599  0.0048 -0.1955
  848MOL0     C16901   3.180   0.592   7.399 -0.2881 -0.0212  0.5026
  848MOL0     C16902   3.318   0.649   7.418  0.3154 -0.4675  0.2974
  848MOL0     N16903   3.433   0.559   7.443  0.1391  0.1733 -0.0592
  848MOL0     C16904   3.454   0.423   7.420 -0.2410  0.1729  0.5883
  848MOL0     C16905   3.573   0.397   7.467 -0.6647  0.3889  1.2349
  848MOL0     C16906   3.648   0.266   7.489 -0.5216  1.0579 -0.0212
  848MOL0     C16907   3.696   0.195   7.372 -0.2233  0.1081  0.9230
  848MOL0     C16908   3.734   0.045   7.395 -0.3262  0.4230 -0.3756
  848MOL0     C16909   3.789  -0.012   7.261 -0.1075  0.2620 -0.3863
  848MOL0     O16910   3.915   0.058   7.224 -0.4518 -0.4604 -0.5281
  848MOL0     C16911   3.989  -0.004   7.133  0.3273  0.3767 -0.8785
  848MOL0     C16912   3.963   0.010   7.000  0.4530 -0.0973 -0.7810
  848MOL0     C16913   4.021  -0.059   6.900 -0.8693  0.5642  0.2449
  848MOL0     C16914   3.966  -0.055   6.763 -0.7838 -0.2590 -0.2344
  848MOL0     C16915   4.136  -0.131   6.932 -0.8402  0.4582  0.7316
  848MOL0     C16916   4.219  -0.207   6.835 -0.5488 -0.2714  0.1177
  848MOL0     O16917   4.353  -0.209   6.872 -0.3337 -0.3015  0.4746
  848MOL0     C16918   4.430  -0.318   6.821 -0.1268 -1.2042  0.2818
  848MOL0     C16919   4.375  -0.449   6.796 -1.0351 -0.0205 -0.7837
  848MOL0     C16920   4.443  -0.539   6.718  0.5264  0.5349  0.1882
  848MOL0     C16921   4.577  -0.509   6.674  0.1986  0.1384  0.1433
  848MOL0     O16922   4.666  -0.601   6.623  0.0890  0.0915  0.0326
  848MOL0     C16923   4.651  -0.734   6.673 -0.0014  0.8237 -0.3522
  848MOL0     C16924   4.780  -0.809   6.642 -0.1812  0.1680 -0.2673
  848MOL0     C16925   4.912  -0.736   6.695 -1.0673 -0.2258 -0.7373
  848MOL0     C16926   5.046  -0.796   6.654  0.5097 -0.2716 -0.3431
  848MOL0     C16927   5.165  -0.744   6.738 -0.5256 -0.2106 -0.3733
  848MOL0     C16928   5.301  -0.807   6.697 -0.0814 -0.3118 -0.7175
  848MOL0     C16929   5.410  -0.770   6.797 -0.2640  0.0354 -0.8132
  848MOL0     C16930   5.550  -0.808   6.732  0.7961 -0.3806 -1.1621
  848MOL0    Cl16931   5.587  -0.695   6.595 -0.0052  0.5987 -0.3102
  848MOL0     C16932   4.622  -0.378   6.694 -0.0423  0.3754  0.4604
  848MOL0     C16933   4.558  -0.286   6.772  0.0937  0.0768 -0.2320
  848MOL0     O16934   4.172  -0.252   6.731 -0.3227  0.2055  0.1931
  848MOL0     C16935   4.171  -0.137   7.066 -0.1109  0.7229  0.1790
  848MOL0     C16936   4.096  -0.082   7.167  0.8734  0.4799 -0.3452
  848MOL0     N16937   3.632   0.512   7.512 -1.2766 -0.0137  0.2760
  848MOL0     N16938   3.545   0.601   7.499 -0.4167 -1.3945  0.5390
  848MOL0     C16939   2.415   0.401   7.908  0.8774 -0.1489 -0.0459
  848MOL0     C16940   2.296   0.432   7.980  0.1048  0.8199 -0.0698
  848MOL0     C16941   2.009   0.441   8.355  0.1215  0.0650  0.1715
  848MOL0     C16942   1.916   0.393   8.259 -0.0183 -0.3997  0.1086
  848MOL0     C16943   1.787   0.373   8.295 -0.3289 -0.2627  0.8536
  848MOL0     C16944   1.748   0.410   8.424  0.4616 -0.2916  0.1312
  848MOL0     O16945   1.620   0.400   8.477 -0.1869 -0.3988  0.8321
  848MOL0     C16946   1.532   0.305   8.414  0.0052  0.0735  0.4615
  848MOL0     C16947   1.410   0.304   8.502  0.1007  0.7014  0.2039
  848MOL0     C16948   1.327   0.430   8.505 -0.6658  1.0896 -0.2619
  848MOL0     C16949   1.180   0.415   8.514 -0.3087 -1.2659 -0.1724
  848MOL0     C16950   1.145   0.365   8.645 -0.3783 -0.1359  0.0245
  848MOL0     C16951   1.093   0.316   8.744  0.4186  0.0539 -0.2915
  848MOL0     C16952   1.841   0.466   8.511  0.2055  0.7682  0.4977
  848MOL0     C16953   1.972   0.483   8.484 -0.9278 -0.1154  0.1504
  848MOL0     C16954   2.067   0.543   8.589  0.2339 -0.4158  0.4392
  848MOL0     H16955   2.379   0.265   8.279 -0.5244 -0.7159  0.6393
  848MOL0     H16956   2.560   0.209   8.149  0.3662  2.0630  2.9079
  848MOL0     H16957   2.788   0.323   7.887  0.7668 -0.2763  0.1909
  848MOL0     H16958   2.664   0.450   7.852 -1.2025 -0.6347 -0.0230
  848MOL0     H16959   2.748   0.218   7.672  1.7742  0.3097 -1.6745
  848MOL0     H16960   2.590   0.295   7.654  0.4542  0.2228  0.5931
  848MOL0     H16961   2.722   0.426   7.502 -4.6680 -1.2489  2.0867
  848MOL0     H16962   2.725   0.518   7.655 -2.4450 -0.3599 -0.0436
  848MOL0     H16963   2.940   0.473   7.706  1.5045 -2.5399  1.0063
  848MOL0     H16964   2.949   0.318   7.623 -0.1940  0.3724 -0.8093
  848MOL0     H16965   2.907   0.567   7.459 -0.0786 -0.2904 -2.9924
  848MOL0     H16966   2.995   0.422   7.420 -1.6921 -0.9116  1.3184
  848MOL0     H16967   3.110   0.638   7.594  0.8009 -0.9570  1.1050
  848MOL0     H16968   3.178   0.478   7.591  2.3626  0.9580 -0.0718
  848MOL0     H16969   3.110   0.655   7.344  0.2279  0.4418  0.3607
  848MOL0     H16970   3.192   0.501   7.339  1.7956 -0.4930  1.5438
  848MOL0     H16971   3.350   0.688   7.321  0.4567 -1.1174  0.0798
  848MOL0     H16972   3.315   0.737   7.483  1.4816 -0.4463  0.3494
  848MOL0     H16973   3.380   0.351   7.386 -0.6352  0.4157  0.9247
  848MOL0     H16974   3.570   0.211   7.542 -1.5386  1.3583 -1.1767
  848MOL0     H16975   3.722   0.281   7.569 -1.8290 -0.7016  1.6161
  848MOL0     H16976   3.615   0.202   7.298 -2.0166  4.1879  2.9443
  848MOL0     H16977   3.779   0.253   7.329 -2.4662  1.3273 -2.1945
  848MOL0     H16978   3.807   0.024   7.473 -1.4009 -1.6214  0.1544
  848MOL0     H16979   3.640  -0.004   7.425 -0.8014  1.6581  0.2157
  848MOL0     H16980   3.818  -0.117   7.263 -1.7516 -0.3160 -2.6770
  848MOL0     H16981   3.722   0.002   7.176  0.7492  0.8561 -0.9854
  848MOL0     H16982   3.880   0.075   6.973  1.4437  1.3472 -0.4751
  848MOL0     H16983   4.050  -0.027   6.698  0.2951  1.2315  1.6881
  848MOL0     H16984   3.894   0.027   6.751  1.9826  2.1379 -1.8982
  848MOL0     H16985   3.924  -0.149   6.725 -0.2316  0.2342 -2.2071
  848MOL0     H16986   4.286  -0.486   6.846  2.4262 -5.4903  2.3484
  848MOL0     H16987   4.409  -0.637   6.685 -1.1145  1.2809 -0.4494
  848MOL0     H16988   4.638  -0.737   6.782 -0.4041  2.4463 -0.3302
  848MOL0     H16989   4.563  -0.787   6.637 -0.4015  1.2191  0.0434
  848MOL0     H16990   4.774  -0.908   6.689 -0.9240 -0.2350 -1.1785
  848MOL0     H16991   4.783  -0.812   6.533 -1.2037  2.2724 -0.3976
  848MOL0     H16992   4.905  -0.746   6.803 -2.1029 -1.1028 -0.8684
  848MOL0     H16993   4.905  -0.630   6.669  0.0032  0.2243  0.7292
  848MOL0     H16994   5.062  -0.778   6.547  0.7107  3.6133  0.2221
  848MOL0     H16995   5.037  -0.905   6.666  2.3659 -0.3549  0.5465
  848MOL0     H16996   5.175  -0.635   6.747  2.8232 -0.5124  0.6632
  848MOL0     H16997   5.142  -0.767   6.843  0.8569 -0.1114 -0.0376
  848MOL0     H16998   5.326  -0.773   6.595 -0.6416  1.8043 -0.2063
  848MOL0     H16999   5.279  -0.913   6.681  0.3948 -0.3341 -1.3029
  848MOL0     H17000   5.393  -0.826   6.889  1.9492 -0.4047 -0.6344
  848MOL0     H17001   5.413  -0.663   6.823 -1.5098 -0.0444 -0.2619
  848MOL0     H17002   5.531  -0.910   6.696 -2.3372 -1.2959  2.3591
  848MOL0     H17003   5.623  -0.805   6.814 -2.8011 -1.7077  2.3890
  848MOL0     H17004   4.718  -0.351   6.651  0.8923 -2.0654  0.8625
  848MOL0     H17005   4.606  -0.191   6.797 -1.7045  1.4211 -1.6313
  848MOL0     H17006   4.265  -0.185   7.091  0.5162  1.0339 -1.4360
  848MOL0     H17007   4.122  -0.104   7.270 -1.0237 -0.6312 -0.0561
  848MOL0     H17008   2.430   0.418   7.802  3.3407  0.2813  0.3268
  848MOL0     H17009   2.210   0.481   7.935 -2.4541 -1.0940  2.3500
  848MOL0     H17010   1.939   0.354   8.161  1.1779 -1.0724  0.6350
  848MOL0     H17011   1.723   0.320   8.225  2.4233  0.4648 -2.4652
  848MOL0     H17012   1.496   0.345   8.319  0.9506 -1.0765 -0.4169
  848MOL0     H17013   1.576   0.206   8.403 -0.3751  0.0103 -0.6421
  848MOL0     H17014   1.445   0.275   8.602  3.6635  4.5889  0.3704
  848MOL0     H17015   1.345   0.234   8.449  0.5944 -0.2010  0.7756
  848MOL0     H17016   1.356   0.497   8.586  1.8465  1.4218 -1.3303
  848MOL0     H17017   1.354   0.486   8.415 -0.6230  0.2365 -0.7899
  848MOL0     H17018   1.150   0.351   8.430 -1.5536  1.0262 -1.5821
  848MOL0     H17019   1.142   0.518   8.512 -0.6376 -1.2644  2.7158
  848MOL0     H17020   1.043   0.270   8.826 -2.4549 -0.7015 -2.3235
  848MOL0     H17021   1.798   0.493   8.607  0.4540 -0.9994  1.1385
  848MOL0     H17022   2.128   0.626   8.552 -0.1921  0.4268  1.5876
  848MOL0     H17023   2.011   0.595   8.667  0.4971  1.7687 -0.7474
  848MOL0     H17024   2.133   0.471   8.636  2.2595  1.5116  0.6903
  849MOL0     O17025   7.665   2.886  11.295 -0.3278 -0.7933  0.4839
  849MOL0     C17026   7.589   2.980  11.292  0.0876 -0.4492  0.0182
  849MOL0     O17027   7.602   3.096  11.366  0.2672  0.3364  0.1293
  849MOL0     C17028   7.718   3.143  11.431  0.1906  0.1844  0.1627
  849MOL0     C17029   7.848   3.123  11.378  0.1516  0.7638 -0.8675
  849MOL0     C17030   7.961   3.175  11.442 -0.0012 -0.4882 -0.0136
  849MOL0     C17031   7.946   3.252  11.557  0.3743 -1.0467  0.2721
  849MOL0     O17032   8.055   3.291  11.629 -0.0865 -0.6673 -0.1031
  849MOL0     C17033   8.166   3.333  11.558  0.1671 -0.1029 -0.3026
  849MOL0     C17034   8.223   3.451  11.644 -0.0233  0.1806  0.3658
  849MOL0     C17035   8.363   3.485  11.609 -0.5716 -0.7216  0.0338
  849MOL0     C17036   8.427   3.571  11.715 -0.2652  0.2868  0.0832
  849MOL0     C17037   8.572   3.606  11.666  0.6642  0.2885 -0.4360
  849MOL0     C17038   8.674   3.494  11.683  0.8976  0.0720 -0.4787
  849MOL0     C17039   8.801   3.532  11.749 -0.5016 -0.7524  0.0631
  849MOL0     C17040   8.887   3.627  11.654 -0.1500 -0.5312  0.3238
  849MOL0     N17041   9.011   3.684  11.704 -0.3749  0.0565 -0.2698
  849MOL0     C17042   9.097   3.598  11.773  0.3000 -0.1583 -0.5692
  849MOL0     C17043   9.171   3.686  11.848  0.1500 -0.6890  0.6593
  849MOL0     C17044   9.277   3.663  11.949  0.1099  0.2104 -0.3989
  849MOL0     C17045   9.413   3.621  11.902  0.0581  0.6680 -0.1638
  849MOL0     C17046   9.493   3.584  12.028  0.2631  0.5832 -0.0107
  849MOL0     C17047   9.633   3.569  11.993  0.0229  0.3389  0.2546
  849MOL0     O17048   9.708   3.581  12.119  0.1686  0.2687 -0.2800
  849MOL0     C17049   9.834   3.534  12.134 -0.3992  0.6950 -0.5205
  849MOL0     C17050   9.880   3.487  12.262 -1.1770 -0.9643 -0.4714
  849MOL0     C17051  10.010   3.441  12.290  0.2782 -0.9328 -0.4201
  849MOL0     C17052  10.037   3.408  12.435 -0.6414 -0.3685  0.1469
  849MOL0     C17053  10.092   3.420  12.185 -0.3567  0.3016  0.8217
  849MOL0     C17054  10.227   3.339  12.193 -0.3426 -0.2139 -0.2306
  849MOL0     O17055  10.320   3.368  12.095 -0.4523 -0.2692  0.0983
  849MOL0     C17056  10.437   3.292  12.103  0.0523  0.9016  0.2171
  849MOL0     C17057  10.559   3.359  12.102  1.0211 -0.0454 -0.0247
  849MOL0     C17058  10.678   3.291  12.098 -0.1332 -0.2443  0.1667
  849MOL0     C17059  10.680   3.155  12.075  0.3669  0.4287  0.6587
  849MOL0     O17060  10.792   3.077  12.060 -0.3125  0.0809 -0.8517
  849MOL0     C17061  10.911   3.140  12.017 -0.6791 -0.1270 -0.9939
  849MOL0     C17062  11.024   3.040  11.987  1.1914  0.2890 -0.0106
  849MOL0     C17063  11.157   3.091  11.938 -0.3008  0.6881  0.2162
  849MOL0     C17064  11.253   2.976  11.910 -0.6896  0.7819 -0.2824
  849MOL0     C17065  11.388   3.022  11.879 -0.1141 -0.0554 -0.3863
  849MOL0     C17066  11.480   2.897  11.846 -0.7422  0.1171  0.0171
  849MOL0     C17067  11.625   2.950  11.842  0.4043 -1.0122  0.3261
  849MOL0     C17068  11.713   2.831  11.821 -1.0270  0.2313 -0.0056
  849MOL0    Cl17069  11.683   2.773  11.652 -0.0171  0.3128  0.3595
  849MOL0     C17070  10.560   3.079  12.070 -0.2487  0.1299  0.4404
  849MOL0     C17071  10.439   3.147  12.093  0.2029 -0.2335 -0.4170
  849MOL0     O17072  10.255   3.296  12.297 -0.1788  0.1055  0.0440
  849MOL0     C17073  10.047   3.465  12.055 -0.0606 -0.2650  0.8445
  849MOL0     C17074   9.926   3.527  12.027 -0.1447  0.2226 -1.2079
  849MOL0     N17075   9.152   3.813  11.803  0.2014  0.3436  0.1429
  849MOL0     N17076   9.050   3.808  11.717 -0.0233 -0.3024 -0.1155
  849MOL0     C17077   7.822   3.263  11.618  0.4733  0.0398 -0.5190
  849MOL0     C17078   7.710   3.216  11.552  0.4089  0.7289 -0.1898
  849MOL0     C17079   7.479   2.980  11.195 -0.5351  0.7881  0.2365
  849MOL0     C17080   7.428   3.106  11.153  0.5406  0.0077  0.1997
  849MOL0     C17081   7.312   3.114  11.071 -1.3214 -0.2446 -0.9042
  849MOL0     C17082   7.249   2.991  11.037 -0.7901  0.0915  0.2864
  849MOL0     O17083   7.133   2.984  10.964 -0.4815  0.1883 -0.0246
  849MOL0     C17084   7.120   3.074  10.854 -0.7434  0.0013  0.2646
  849MOL0     C17085   6.998   3.053  10.775  0.1737  0.5816 -0.3398
  849MOL0     C17086   6.998   2.927  10.694 -0.2649  0.6289  0.2218
  849MOL0     C17087   6.874   2.911  10.602 -0.7333  0.0014  0.5956
  849MOL0     C17088   6.757   2.899  10.696  0.0227 -0.1776 -0.7986
  849MOL0     C17089   6.675   2.908  10.785 -0.4459 -0.2174 -0.4235
  849MOL0     C17090   7.308   2.868  11.077  0.3871 -0.2700  0.4453
  849MOL0     C17091   7.423   2.859  11.150 -0.1757 -0.0735  0.1935
  849MOL0     C17092   7.475   2.718  11.178 -0.4229 -0.2632  0.0575
  849MOL0     H17093   7.867   3.066  11.288 -1.3520 -1.2541 -0.0013
  849MOL0     H17094   8.058   3.167  11.395 -0.6876  0.9122 -1.8036
  849MOL0     H17095   8.152   3.362  11.453 -0.4464  1.8061  0.2532
  849MOL0     H17096   8.243   3.256  11.553 -0.9043 -1.1469 -1.1706
  849MOL0     H17097   8.154   3.535  11.632  2.7864  2.7868  1.0010
  849MOL0     H17098   8.215   3.428  11.751 -0.8462  0.9437  0.4806
  849MOL0     H17099   8.423   3.401  11.574  1.6324  1.6447 -2.3859
  849MOL0     H17100   8.354   3.552  11.523  3.8089 -1.8945 -1.6166
  849MOL0     H17101   8.371   3.663  11.734  0.1554  0.6325 -0.3160
  849MOL0     H17102   8.434   3.520  11.811 -2.2572  0.5164  0.3781
  849MOL0     H17103   8.613   3.682  11.733  4.8993  0.4208 -2.8253
  849MOL0     H17104   8.569   3.670  11.578  0.7918 -0.3676 -0.9228
  849MOL0     H17105   8.629   3.415  11.743  1.5792  0.8103  1.0608
  849MOL0     H17106   8.695   3.440  11.590 -0.4820 -0.9311 -0.2374
  849MOL0     H17107   8.861   3.442  11.762  1.3353  0.6505  1.8389
  849MOL0     H17108   8.782   3.577  11.847  2.1208  1.8096 -0.4908
  849MOL0     H17109   8.906   3.574  11.560 -1.9449 -0.2213 -0.2509
  849MOL0     H17110   8.840   3.724  11.638  2.0743  0.6282  0.3605
  849MOL0     H17111   9.093   3.489  11.778 -1.5100 -0.0718  1.8503
  849MOL0     H17112   9.243   3.585  12.017  2.5011 -1.0651 -0.5660
  849MOL0     H17113   9.268   3.756  12.005 -4.2761 -0.1891 -0.0873
  849MOL0     H17114   9.405   3.536  11.833 -0.9937  0.6307 -0.0078
  849MOL0     H17115   9.467   3.695  11.843  0.8514  0.2666  0.0393
  849MOL0     H17116   9.483   3.668  12.097 -0.2682  0.5094 -0.0009
  849MOL0     H17117   9.469   3.488  12.074  0.5665 -0.4843 -1.9728
  849MOL0     H17118   9.642   3.467  11.956 -1.6515 -0.9702  3.0655
  849MOL0     H17119   9.667   3.642  11.919  2.4301 -3.6967 -3.0285
  849MOL0     H17120   9.809   3.503  12.343  0.1281 -1.2206  0.7795
  849MOL0     H17121  10.138   3.446  12.453 -1.2761  1.4099  0.1445
  849MOL0     H17122  10.031   3.300  12.452 -0.5373 -0.5700 -1.0296
  849MOL0     H17123   9.966   3.462  12.499 -2.7326 -1.0314 -1.4930
  849MOL0     H17124  10.556   3.468  12.102 -1.6688 -0.0524 -0.3882
  849MOL0     H17125  10.762   3.358  12.108 -1.3184  2.0803 -3.4689
  849MOL0     H17126  10.880   3.183  11.922 -0.2496  0.8044 -0.7203
  849MOL0     H17127  10.949   3.219  12.082  1.7339 -2.0600  0.1335
  849MOL0     H17128  11.043   2.978  12.075  2.1625 -1.5394 -1.4419
  849MOL0     H17129  10.981   2.974  11.911 -0.1702 -1.4965  2.1911
  849MOL0     H17130  11.201   3.157  12.013  1.6541 -0.0696 -0.1787
  849MOL0     H17131  11.158   3.145  11.844  4.4069  0.7334  0.0337
  849MOL0     H17132  11.216   2.922  11.822 -0.5242  1.0634 -0.5270
  849MOL0     H17133  11.247   2.904  11.991 -1.5894 -1.3887 -2.1582
  849MOL0     H17134  11.381   3.091  11.794 -1.0534  1.1100  0.5877
  849MOL0     H17135  11.426   3.081  11.963  1.3915 -1.0959 -0.2925
  849MOL0     H17136  11.452   2.835  11.760  1.0435  0.9729 -1.2337
  849MOL0     H17137  11.472   2.828  11.930 -2.2839 -0.6378 -0.7074
  849MOL0     H17138  11.658   3.000  11.933  0.8046 -0.7005  0.0149
  849MOL0     H17139  11.644   3.014  11.755  1.0736 -1.3287  0.2309
  849MOL0     H17140  11.689   2.759  11.900 -1.2067  1.0074  0.6648
  849MOL0     H17141  11.818   2.857  11.831 -0.3839 -1.8249 -0.8176
  849MOL0     H17142  10.562   2.971  12.058 -0.7287  0.2773 -1.1480
  849MOL0     H17143  10.341   3.104  12.079  0.0475 -0.0681  0.1418
  849MOL0     H17144  10.108   3.455  11.966 -0.5578  1.7875  0.2301
  849MOL0     H17145   9.905   3.572  11.930  2.6045  1.4134 -1.3325
  849MOL0     H17146   7.819   3.303  11.719 -3.7399 -1.1639  0.0455
  849MOL0     H17147   7.617   3.229  11.606  1.6590  1.3600  1.9219
  849MOL0     H17148   7.473   3.201  11.182 -0.0427 -0.1917  1.8573
  849MOL0     H17149   7.285   3.211  11.030  1.6446  1.6124  1.1021
  849MOL0     H17150   7.110   3.176  10.894  0.0123  0.0801  0.2619
  849MOL0     H17151   7.210   3.069  10.792 -0.1387  0.1973  1.0978
  849MOL0     H17152   6.972   3.140  10.714 -1.1044  0.9204  0.6474
  849MOL0     H17153   6.910   3.060  10.840  0.3845  0.5229 -0.0443
  849MOL0     H17154   7.086   2.934  10.630 -1.5226  0.1270 -1.6167
  849MOL0     H17155   7.012   2.845  10.766  0.7770 -1.0017 -1.7255
  849MOL0     H17156   6.887   2.827  10.533  1.8859 -0.6448  1.7579
  849MOL0     H17157   6.866   2.999  10.537 -1.2899 -1.0883 -0.8453
  849MOL0     H17158   6.594   2.913  10.855 -2.3009  2.4121 -2.5305
  849MOL0     H17159   7.249   2.780  11.053 -0.0996  0.4380 -1.0971
  849MOL0     H17160   7.421   2.641  11.123  0.9789 -1.8847  0.8544
  849MOL0     H17161   7.579   2.704  11.148 -0.0411  0.0433  1.1663
  849MOL0     H17162   7.466   2.702  11.286 -0.5823  0.4859  0.1594
  850MOL0     O17163   4.005   2.897   1.237  0.4865 -0.1546  0.0523
  850MOL0     C17164   4.098   2.958   1.180  0.1929  0.6056  0.8261
  850MOL0     O17165   4.193   3.036   1.242 -0.7579  0.5222  0.0637
  850MOL0     C17166   4.173   3.060   1.376  0.3047  0.3723 -0.8033
  850MOL0     C17167   4.273   3.037   1.474  0.1952 -0.8781  0.2612
  850MOL0     C17168   4.244   3.055   1.614  0.3486  0.9380 -0.2055
  850MOL0     C17169   4.115   3.102   1.652  0.8109  0.1499  0.6732
  850MOL0     O17170   4.085   3.130   1.781  0.2596 -0.1099 -0.4721
  850MOL0     C17171   4.011   3.244   1.811 -0.0882 -0.3789 -0.1667
  850MOL0     C17172   4.002   3.259   1.962 -0.5164 -0.4740 -0.3000
  850MOL0     C17173   4.126   3.245   2.037  0.5450 -0.6990  0.4391
  850MOL0     C17174   4.141   3.325   2.168  0.1220 -0.1466  0.5488
  850MOL0     C17175   4.270   3.292   2.247 -0.9737  0.0772  0.4808
  850MOL0     C17176   4.397   3.369   2.182  0.7520 -0.7114  0.3440
  850MOL0     C17177   4.520   3.320   2.262 -0.2463  0.0299 -0.2304
  850MOL0     C17178   4.652   3.398   2.219 -0.3911 -0.1371  0.0982
  850MOL0     N17179   4.663   3.515   2.303  0.2921 -0.6892  0.5837
  850MOL0     C17180   4.693   3.647   2.269 -0.0929  0.0586 -0.1161
  850MOL0     C17181   4.717   3.714   2.384  0.2561  0.0187 -0.7108
  850MOL0     C17182   4.734   3.867   2.395 -0.2883  0.1708  0.4326
  850MOL0     C17183   4.883   3.916   2.396  0.0363  0.3402 -0.1889
  850MOL0     C17184   4.957   3.841   2.286 -0.2421 -0.9165 -0.1579
  850MOL0     C17185   5.100   3.896   2.271  0.2234  0.4404  0.2156
  850MOL0     O17186   5.161   3.900   2.399  0.1232  0.6451  0.2531
  850MOL0     C17187   5.279   3.966   2.401  0.4015 -0.3098 -1.2504
  850MOL0     C17188   5.300   4.098   2.353  0.2795  0.4974  0.0638
  850MOL0     C17189   5.427   4.159   2.366  0.5277  0.0646 -0.3022
  850MOL0     C17190   5.441   4.291   2.296 -0.5348  0.0146 -0.2540
  850MOL0     C17191   5.532   4.096   2.444 -0.8341 -0.4896 -0.1556
  850MOL0     C17192   5.661   4.163   2.475  0.9210 -0.1464  0.6501
  850MOL0     O17193   5.677   4.301   2.479 -0.5720  0.4922 -0.2042
  850MOL0     C17194   5.801   4.337   2.533  0.3825  0.6786  0.6064
  850MOL0     C17195   5.897   4.420   2.475  0.0753 -0.2623 -0.0530
  850MOL0     C17196   6.025   4.438   2.530  0.2127 -0.1762 -0.2599
  850MOL0     C17197   6.049   4.384   2.664 -0.0420  0.9082  0.2887
  850MOL0     O17198   6.162   4.402   2.731 -0.8829  0.5421 -0.0919
  850MOL0     C17199   6.152   4.516   2.818 -0.2651  0.2949 -0.6613
  850MOL0     C17200   6.288   4.539   2.887 -0.7259  0.8756 -0.6953
  850MOL0     C17201   6.399   4.550   2.789 -0.3453 -0.5522  0.3366
  850MOL0     C17202   6.533   4.577   2.862  0.3504  0.5890  0.7445
  850MOL0     C17203   6.650   4.525   2.772 -0.8720 -0.1953 -1.1476
  850MOL0     C17204   6.790   4.543   2.844  0.4481  0.3265  0.2150
  850MOL0     C17205   6.906   4.516   2.747 -0.0144  0.3469  0.4830
  850MOL0     C17206   7.043   4.553   2.807  0.0387 -0.0308 -0.6521
  850MOL0    Cl17207   7.169   4.485   2.705 -0.3277  0.2096  0.1055
  850MOL0     C17208   5.942   4.323   2.727 -0.3561 -0.2412  0.0727
  850MOL0     C17209   5.824   4.289   2.656 -1.1417 -0.2953 -0.0352
  850MOL0     O17210   5.757   4.081   2.484  0.0026  0.0164  0.2611
  850MOL0     C17211   5.508   3.966   2.496  0.7016 -0.4724  0.5829
  850MOL0     C17212   5.378   3.906   2.485 -0.4914 -0.6221  0.7544
  850MOL0     N17213   4.700   3.624   2.490 -0.5112  0.3038  0.6561
  850MOL0     N17214   4.672   3.515   2.435  0.5370  0.5864 -0.6635
  850MOL0     C17215   4.020   3.129   1.550  0.1743 -0.3708 -0.2094
  850MOL0     C17216   4.052   3.107   1.419  0.5759  0.1549 -0.0008
  850MOL0     C17217   4.116   2.939   1.027  0.4714 -0.2848 -0.1737
  850MOL0     C17218   4.180   3.044   0.966 -0.2803 -0.1991  1.0409
  850MOL0     C17219   4.216   3.044   0.832  0.1941 -0.3783  1.0904
  850MOL0     C17220   4.186   2.926   0.757  0.3952 -0.5856 -0.9100
  850MOL0     O17221   4.206   2.931   0.618  0.3861  0.0930  0.5409
  850MOL0     C17222   4.149   3.035   0.543  0.5269 -0.4297  0.8201
  850MOL0     C17223   4.057   2.967   0.442  1.0194 -0.4340 -0.2240
  850MOL0     C17224   4.043   3.057   0.317  0.8793  0.0917 -0.2626
  850MOL0     C17225   3.972   2.986   0.208  0.6577  0.5010  0.1374
  850MOL0     C17226   3.934   3.069   0.098  0.2629  0.6155  1.2228
  850MOL0     C17227   3.913   3.155   0.005  0.4327 -0.2801 -1.2286
  850MOL0     C17228   4.127   2.817   0.820  0.3505  0.0366 -0.2615
  850MOL0     C17229   4.092   2.819   0.954 -1.7343  0.2780 -0.3496
  850MOL0     C17230   4.013   2.708   1.014 -0.2901  0.0437 -0.4664
  850MOL0     H17231   4.377   3.020   1.448  1.0703  3.5383  0.0113
  850MOL0     H17232   4.326   3.032   1.681  0.6253  0.9121 -0.5524
  850MOL0     H17233   3.911   3.255   1.768 -0.1625  2.5365  0.5159
  850MOL0     H17234   4.064   3.333   1.775  1.0332 -1.5061 -1.4354
  850MOL0     H17235   3.959   3.356   1.988  1.5586  0.2662  0.5264
  850MOL0     H17236   3.932   3.183   1.999  0.1196 -1.4718 -1.0875
  850MOL0     H17237   4.143   3.147   2.083  1.9306 -0.0792  1.3119
  850MOL0     H17238   4.208   3.269   1.969 -0.8984 -1.0971 -1.5302
  850MOL0     H17239   4.145   3.429   2.134  2.2648 -1.1179 -2.6785
  850MOL0     H17240   4.056   3.298   2.232  2.3964 -3.1594  2.5724
  850MOL0     H17241   4.287   3.184   2.245  2.8679  0.5315  0.6186
  850MOL0     H17242   4.254   3.314   2.353  2.1424 -0.3658  1.1459
  850MOL0     H17243   4.414   3.341   2.078 -0.9168 -0.0445 -0.1389
  850MOL0     H17244   4.391   3.477   2.194  0.8418 -0.7707  0.9698
  850MOL0     H17245   4.536   3.215   2.238  0.5386 -0.0078  0.3996
  850MOL0     H17246   4.503   3.327   2.370  2.1340  2.4510  0.1053
  850MOL0     H17247   4.742   3.336   2.223 -0.1872  0.1583  0.1033
  850MOL0     H17248   4.637   3.429   2.115 -0.7694  4.0328  1.2000
  850MOL0     H17249   4.689   3.687   2.168 -1.5024  0.7861  0.2037
  850MOL0     H17250   4.700   3.902   2.493  0.9828  1.5946  0.4204
  850MOL0     H17251   4.664   3.917   2.328 -1.6689 -1.7163  0.4002
  850MOL0     H17252   4.891   4.024   2.385 -2.1598  0.4193 -1.6761
  850MOL0     H17253   4.924   3.888   2.493  1.8551  1.7958 -0.4872
  850MOL0     H17254   4.959   3.732   2.287  0.0281 -1.1622 -4.8811
  850MOL0     H17255   4.903   3.872   2.196 -0.0481  0.5643  0.2001
  850MOL0     H17256   5.165   3.832   2.211  2.0389  2.3646 -0.0102
  850MOL0     H17257   5.096   3.995   2.225 -0.7377 -0.2052 -1.1533
  850MOL0     H17258   5.225   4.159   2.304 -2.2591 -0.4396  2.5045
  850MOL0     H17259   5.532   4.289   2.236 -0.7044 -0.8731 -0.4922
  850MOL0     H17260   5.447   4.368   2.374  0.7360 -1.4513  1.1802
  850MOL0     H17261   5.362   4.313   2.224  0.2211  0.6634 -0.8902
  850MOL0     H17262   5.878   4.460   2.376 -1.2881  1.8964  0.9867
  850MOL0     H17263   6.103   4.496   2.480 -0.6636  0.6446 -0.6980
  850MOL0     H17264   6.127   4.604   2.758  1.1650 -0.0789 -1.8579
  850MOL0     H17265   6.074   4.512   2.894  2.4174  2.9550  2.5720
  850MOL0     H17266   6.281   4.625   2.954  0.8232  0.6903 -0.2725
  850MOL0     H17267   6.307   4.453   2.951  0.6433  1.0732 -0.8081
  850MOL0     H17268   6.384   4.627   2.713  1.4083 -0.7569 -0.2498
  850MOL0     H17269   6.402   4.457   2.732  1.8807 -1.0389  1.1332
  850MOL0     H17270   6.534   4.524   2.957 -1.5775  0.4831  0.7552
  850MOL0     H17271   6.537   4.684   2.886  0.5069  0.5939  0.6947
  850MOL0     H17272   6.639   4.422   2.737  0.1956 -0.3104 -1.1702
  850MOL0     H17273   6.646   4.590   2.685 -0.9002 -0.4625 -1.3456
  850MOL0     H17274   6.805   4.469   2.924  0.7688  0.6364  0.4491
  850MOL0     H17275   6.793   4.644   2.886 -1.3263  0.4012  0.2249
  850MOL0     H17276   6.894   4.573   2.655  0.5592  2.8753  1.8788
  850MOL0     H17277   6.909   4.411   2.714  1.6558  0.6079 -0.3261
  850MOL0     H17278   7.064   4.500   2.900 -1.1295  0.8634  0.1484
  850MOL0     H17279   7.048   4.661   2.824 -3.2138  0.2109 -0.5965
  850MOL0     H17280   5.951   4.299   2.832 -0.2767 -4.4501 -0.7311
  850MOL0     H17281   5.745   4.231   2.702 -0.8675 -0.6126  0.0355
  850MOL0     H17282   5.582   3.920   2.560  0.8630  0.0264  0.7615
  850MOL0     H17283   5.356   3.807   2.524 -2.7545 -1.5004 -2.3565
  850MOL0     H17284   3.918   3.164   1.564 -1.0797 -2.1869 -3.5477
  850MOL0     H17285   3.973   3.128   1.348  0.5155  0.7130  0.2287
  850MOL0     H17286   4.190   3.136   1.023  0.1123 -0.2063  0.9877
  850MOL0     H17287   4.261   3.131   0.785 -1.1679  1.1911  2.5255
  850MOL0     H17288   4.087   3.106   0.599 -2.0764  0.4574 -2.8313
  850MOL0     H17289   4.223   3.083   0.479 -0.6430 -1.7995 -1.7187
  850MOL0     H17290   3.960   2.936   0.481  0.6053 -1.5491 -2.0018
  850MOL0     H17291   4.101   2.871   0.412  0.3921 -0.9795  0.5647
  850MOL0     H17292   3.978   3.140   0.344  0.0522 -0.7143  0.2493
  850MOL0     H17293   4.139   3.102   0.289  2.3847 -1.0106  2.6173
  850MOL0     H17294   3.878   2.941   0.240  0.1943  1.7050  0.5651
  850MOL0     H17295   4.026   2.900   0.169  0.6636  0.3396  0.5009
  850MOL0     H17296   3.883   3.243  -0.049  0.4532  0.2594 -0.3829
  850MOL0     H17297   4.097   2.746   0.744 -2.4082  0.4303  0.3529
  850MOL0     H17298   4.044   2.675   1.114 -0.5692  1.4710  0.1342
  850MOL0     H17299   3.907   2.736   1.023  0.3431  2.0132  2.0419
  850MOL0     H17300   4.011   2.626   0.943 -0.9653 -0.9155  0.6195
  851MOL0     O17301   2.924  10.284   0.005 -0.2773  0.1537  0.0449
  851MOL0     C17302   2.893  10.171   0.039  0.5098  0.1583  0.9273
  851MOL0     O17303   2.982  10.061   0.037 -0.3664  0.0967  0.0011
  851MOL0     C17304   3.111  10.077   0.012 -0.2758  0.7076 -0.0124
  851MOL0     C17305   3.195  10.149   0.100 -0.4177  0.2132  0.2049
  851MOL0     C17306   3.329  10.167   0.060  1.0995  0.5844  0.7123
  851MOL0     C17307   3.389  10.106  -0.051 -0.4727 -0.1058 -0.5568
  851MOL0     O17308   3.520  10.129  -0.099 -0.4008 -0.0783 -0.0988
  851MOL0     C17309   3.626  10.215  -0.050 -0.7631 -0.2816 -0.3895
  851MOL0     C17310   3.759  10.154  -0.094 -0.0246  0.5471  0.9515
  851MOL0     C17311   3.781  10.000  -0.062 -0.3345 -0.9633 -0.1726
  851MOL0     C17312   3.921   9.943  -0.123 -0.1792  0.2777 -0.1136
  851MOL0     C17313   3.953   9.800  -0.099  0.5704  0.0625  0.3864
  851MOL0     C17314   3.825   9.712  -0.122 -0.8650  0.1868  0.0214
  851MOL0     C17315   3.860   9.567  -0.112 -0.0472  0.0176  0.7453
  851MOL0     C17316   3.904   9.529   0.034  0.3489 -0.2682  0.3467
  851MOL0     N17317   4.045   9.532   0.064 -0.3060  0.4603 -0.3707
  851MOL0     C17318   4.145   9.516  -0.029  0.1332  0.5095 -0.0363
  851MOL0     C17319   4.255   9.522   0.048 -0.5835 -1.7998 -0.2958
  851MOL0     C17320   4.394   9.521  -0.001 -0.5597 -0.5066  0.1165
  851MOL0     C17321   4.476   9.403   0.054 -0.1243  0.1666 -0.1957
  851MOL0     C17322   4.539   9.433   0.188 -0.4009  0.1233  0.0080
  851MOL0     C17323   4.586   9.305   0.250  0.4395 -0.8047  0.4016
  851MOL0     O17324   4.685   9.234   0.170  0.6975 -0.0346 -0.8372
  851MOL0     C17325   4.814   9.259   0.183 -0.9150  0.2520 -0.4395
  851MOL0     C17326   4.876   9.338   0.282  0.0728 -0.6096  0.3267
  851MOL0     C17327   5.020   9.356   0.292  0.3976  0.3075 -0.6887
  851MOL0     C17328   5.051   9.444   0.404  0.5764  0.3651 -0.2861
  851MOL0     C17329   5.107   9.288   0.208  0.6703  0.3883  0.9161
  851MOL0     C17330   5.253   9.289   0.225  0.2866  0.0211  0.1113
  851MOL0     O17331   5.310   9.308   0.345 -0.0072  0.4844  0.5136
  851MOL0     C17332   5.447   9.287   0.353 -0.4097 -0.0591  0.0035
  851MOL0     C17333   5.535   9.387   0.325 -0.4658 -0.2503  0.3569
  851MOL0     C17334   5.673   9.372   0.333  0.0847 -0.0066  0.2247
  851MOL0     C17335   5.724   9.253   0.381  0.8401 -0.4721 -0.3551
  851MOL0     O17336   5.858   9.236   0.394 -0.0613 -0.2126 -0.0037
  851MOL0     C17337   5.938   9.114   0.424  0.3241  0.4394 -0.3402
  851MOL0     C17338   6.046   9.154   0.514 -0.8594 -0.3116  0.8534
  851MOL0     C17339   6.144   9.242   0.435 -0.1480 -0.0886  0.1185
  851MOL0     C17340   6.263   9.282   0.536  0.5734 -0.3499  0.3169
  851MOL0     C17341   6.363   9.383   0.485 -0.7955 -0.1145 -0.8317
  851MOL0     C17342   6.441   9.335   0.369  0.0215 -0.7740  0.3171
  851MOL0     C17343   6.564   9.428   0.352 -0.8759  0.0513  0.1628
  851MOL0     C17344   6.674   9.358   0.286 -0.5325 -0.6416  0.9842
  851MOL0    Cl17345   6.620   9.293   0.126 -0.1477 -0.3729  0.1966
  851MOL0     C17346   5.628   9.148   0.413  0.6975  0.0577  0.1722
  851MOL0     C17347   5.496   9.170   0.401  0.2161  0.0583 -0.0775
  851MOL0     O17348   5.306   9.264   0.122  0.5877  0.3296 -0.4490
  851MOL0     C17349   5.045   9.195   0.115  0.7619  0.0322 -0.1256
  851MOL0     C17350   4.905   9.184   0.095  0.0901  0.5719  0.3021
  851MOL0     N17351   4.224   9.528   0.182 -0.0650 -0.4942  0.0915
  851MOL0     N17352   4.095   9.541   0.188 -0.4409  0.4891  0.3450
  851MOL0     C17353   3.306  10.018  -0.126 -0.0680 -0.2465  0.0615
  851MOL0     C17354   3.167  10.004  -0.092  0.1710 -0.1330 -0.3674
  851MOL0     C17355   2.747  10.129   0.056  0.3889 -0.4860 -0.0064
  851MOL0     C17356   2.714   9.993   0.035 -0.6646  0.3434 -0.2023
  851MOL0     C17357   2.585   9.950   0.024  0.2687 -0.3613 -0.2916
  851MOL0     C17358   2.474  10.034   0.060 -0.4987  0.5656 -0.0086
  851MOL0     O17359   2.357   9.982   0.033  0.8185  0.4917 -0.3362
  851MOL0     C17360   2.246  10.068   0.035 -0.9542 -0.6579 -0.6628
  851MOL0     C17361   2.129   9.988  -0.018  0.1496  0.1150 -0.0857
  851MOL0     C17362   2.086   9.884   0.079  0.6884 -0.3647 -0.5776
  851MOL0     C17363   1.941   9.833   0.052  0.1452  0.5533  0.0843
  851MOL0     C17364   1.845   9.940   0.079 -0.1904 -0.1860 -0.7750
  851MOL0     C17365   1.781  10.037   0.082 -0.1049  0.3178  0.6252
  851MOL0     C17366   2.500  10.166   0.094 -0.2842 -0.3927 -1.0742
  851MOL0     C17367   2.635  10.215   0.090  0.5906  0.0660  0.6654
  851MOL0     C17368   2.666  10.353   0.122 -0.2185 -0.0126  0.4052
  851MOL0     H17369   3.141  10.204   0.177 -2.8566 -2.1491  0.3155
  851MOL0     H17370   3.397  10.230   0.116  1.9650  0.8081 -0.5444
  851MOL0     H17371   3.630  10.203   0.058  0.2470 -2.2750 -0.6121
  851MOL0     H17372   3.618  10.322  -0.075 -0.1656  0.5934  2.7571
  851MOL0     H17373   3.764  10.161  -0.203 -3.0252 -3.6277  0.2976
  851MOL0     H17374   3.843  10.216  -0.060 -0.9064  1.1455  2.1237
  851MOL0     H17375   3.773   9.989   0.046 -2.6751  2.6219  0.2161
  851MOL0     H17376   3.698   9.956  -0.118  1.0450  0.8859 -4.0590
  851MOL0     H17377   3.930   9.977  -0.227 -0.2580  1.7680  0.3367
  851MOL0     H17378   4.003   9.998  -0.077 -0.5889 -0.9833  2.3164
  851MOL0     H17379   3.978   9.788   0.007 -1.9463  0.0894  1.0600
  851MOL0     H17380   4.041   9.772  -0.157 -0.2055  1.3670 -1.5160
  851MOL0     H17381   3.746   9.739  -0.052 -2.9962 -1.6029 -1.5730
  851MOL0     H17382   3.781   9.735  -0.220  0.0574  0.4259 -0.3579
  851MOL0     H17383   3.944   9.550  -0.181 -0.5026 -1.2368  0.4718
  851MOL0     H17384   3.779   9.504  -0.149  0.7955 -0.2155 -0.8281
  851MOL0     H17385   3.849   9.584   0.112  0.0166 -1.5191  1.0278
  851MOL0     H17386   3.877   9.423   0.043  0.1226 -0.4432 -1.8151
  851MOL0     H17387   4.146   9.513  -0.138  1.1409  0.3547 -0.0338
  851MOL0     H17388   4.453   9.612   0.014 -0.9409 -0.2170 -0.1499
  851MOL0     H17389   4.390   9.507  -0.109  0.1013 -0.1300  0.0402
  851MOL0     H17390   4.402   9.327   0.081  0.3820  0.4860  2.3539
  851MOL0     H17391   4.551   9.366  -0.016 -0.3680  0.3831 -0.5714
  851MOL0     H17392   4.622   9.504   0.194  0.5692 -1.0401  0.7038
  851MOL0     H17393   4.466   9.471   0.260 -2.6267  0.6743 -2.3901
  851MOL0     H17394   4.632   9.321   0.348  4.4544  0.6152 -1.4973
  851MOL0     H17395   4.501   9.238   0.266 -1.2844  1.1344 -0.2072
  851MOL0     H17396   4.815   9.389   0.356  0.2845  1.5095 -0.8923
  851MOL0     H17397   5.105   9.538   0.383 -0.1288  1.1050  1.0967
  851MOL0     H17398   5.112   9.385   0.473  1.2246  0.2616 -0.9315
  851MOL0     H17399   4.960   9.478   0.453 -0.7049  0.6138 -2.7311
  851MOL0     H17400   5.497   9.483   0.293  0.0337 -0.1782 -0.0224
  851MOL0     H17401   5.735   9.458   0.310 -1.2843  0.4454 -1.9546
  851MOL0     H17402   5.869   9.038   0.462  0.6751  1.2136  2.0321
  851MOL0     H17403   5.972   9.067   0.331 -1.8859 -1.2529 -0.3742
  851MOL0     H17404   6.005   9.214   0.596  0.0016  0.1632  0.9428
  851MOL0     H17405   6.100   9.070   0.559  2.2282  0.2208 -1.5909
  851MOL0     H17406   6.091   9.329   0.395 -0.6722  0.0889  1.1774
  851MOL0     H17407   6.188   9.186   0.352 -2.0675  0.7946 -1.5721
  851MOL0     H17408   6.323   9.194   0.562  2.3956  0.4376 -1.0485
  851MOL0     H17409   6.222   9.314   0.633 -4.1893 -0.4259 -1.4153
  851MOL0     H17410   6.321   9.480   0.459  3.1051  1.6241 -1.2937
  851MOL0     H17411   6.433   9.411   0.564  0.3774 -0.4887 -1.7108
  851MOL0     H17412   6.387   9.340   0.274  1.1543  3.1026 -0.2826
  851MOL0     H17413   6.473   9.231   0.383  2.0894  0.0842  3.0206
  851MOL0     H17414   6.604   9.454   0.451 -0.6128 -3.3276  1.0887
  851MOL0     H17415   6.529   9.515   0.296 -2.4646 -0.8422 -0.2832
  851MOL0     H17416   6.705   9.275   0.350 -1.2624 -0.6459  1.3377
  851MOL0     H17417   6.751   9.435   0.272 -2.1539  1.4581  2.8336
  851MOL0     H17418   5.657   9.052   0.453 -0.8982 -0.2785  0.5694
  851MOL0     H17419   5.419   9.096   0.425 -0.0012 -0.3016 -1.7412
  851MOL0     H17420   5.111   9.134   0.054  2.3065 -0.0810  1.5466
  851MOL0     H17421   4.868   9.107   0.027 -0.4930 -0.2803  1.5449
  851MOL0     H17422   3.340   9.976  -0.220 -1.3975  0.9960 -1.0230
  851MOL0     H17423   3.107   9.934  -0.149 -1.6805  2.1339 -1.2992
  851MOL0     H17424   2.792   9.920   0.013 -1.5687 -0.2092 -1.6639
  851MOL0     H17425   2.557   9.849  -0.004 -2.6408 -0.0098  0.9873
  851MOL0     H17426   2.236  10.090   0.142  2.8948 -1.2043 -0.0579
  851MOL0     H17427   2.265  10.153  -0.032  0.2909 -1.7810 -1.7896
  851MOL0     H17428   2.147   9.939  -0.114 -0.9118 -2.7459  1.0698
  851MOL0     H17429   2.043  10.055  -0.032 -0.4834 -0.5436  0.5808
  851MOL0     H17430   2.153   9.797   0.068  0.6019 -0.3932 -0.9008
  851MOL0     H17431   2.089   9.929   0.178 -0.7118 -0.2847 -0.5603
  851MOL0     H17432   1.911   9.749   0.116 -0.6127 -1.2623 -2.4869
  851MOL0     H17433   1.931   9.787  -0.047 -1.5003  0.1457  0.4130
  851MOL0     H17434   1.727  10.129   0.087 -0.4736  0.4275 -2.7629
  851MOL0     H17435   2.417  10.236   0.105 -0.1605 -0.2828 -0.8169
  851MOL0     H17436   2.681  10.412   0.032 -0.7811  1.7723  1.4372
  851MOL0     H17437   2.579  10.400   0.168 -0.2586  3.3338 -2.6980
  851MOL0     H17438   2.752  10.361   0.190  0.1362  1.6989 -0.2003
  852MOL0     O17439   3.827   4.756   6.534 -0.1164 -0.2473 -0.3016
  852MOL0     C17440   3.776   4.715   6.430 -0.1391 -0.5912  0.6316
  852MOL0     O17441   3.838   4.655   6.324 -0.5712 -0.7413 -0.1108
  852MOL0     C17442   3.979   4.630   6.330  0.7050  0.2337  0.1964
  852MOL0     C17443   4.063   4.682   6.231  0.3261  0.0953 -0.8955
  852MOL0     C17444   4.197   4.658   6.242  0.7697  0.0145  0.4045
  852MOL0     C17445   4.248   4.569   6.340 -0.1832 -0.1912  0.0424
  852MOL0     O17446   4.385   4.547   6.330 -0.3944 -0.5572  0.1204
  852MOL0     C17447   4.478   4.652   6.386  1.2269 -0.9639 -0.8739
  852MOL0     C17448   4.575   4.573   6.479  0.2741 -0.8551  0.6083
  852MOL0     C17449   4.665   4.473   6.411  0.1335 -0.1350  0.3274
  852MOL0     C17450   4.738   4.393   6.510 -0.1683 -0.0828  0.1528
  852MOL0     C17451   4.822   4.274   6.456 -0.7980 -0.4283 -0.4780
  852MOL0     C17452   4.928   4.241   6.556  0.7377 -0.1153 -0.4842
  852MOL0     C17453   5.026   4.131   6.491  0.3228 -0.0506 -0.8786
  852MOL0     C17454   5.153   4.198   6.438  0.4461 -0.7885  0.0254
  852MOL0     N17455   5.132   4.277   6.318 -0.5087  0.3731  0.8275
  852MOL0     C17456   5.169   4.231   6.186 -0.2038  0.2125 -0.1247
  852MOL0     C17457   5.179   4.341   6.119  0.0275 -0.1325 -0.6713
  852MOL0     C17458   5.227   4.351   5.979 -0.1889  0.5000 -0.2935
  852MOL0     C17459   5.365   4.436   5.971  0.3293  0.3988 -0.2636
  852MOL0     C17460   5.481   4.365   6.046 -0.5413  0.4542 -0.1614
  852MOL0     C17461   5.539   4.244   5.975 -0.6937 -0.4150  0.7841
  852MOL0     O17462   5.445   4.141   5.985 -0.1383  0.0834 -0.4460
  852MOL0     C17463   5.483   4.023   5.951  0.8506  0.0501 -0.3760
  852MOL0     C17464   5.592   3.980   5.883  0.0073  0.0709  0.2645
  852MOL0     C17465   5.618   3.850   5.840  1.2948 -0.2150  0.5277
  852MOL0     C17466   5.748   3.827   5.760  0.0726 -0.0315 -0.1161
  852MOL0     C17467   5.528   3.746   5.882 -0.2861  0.2159 -1.3224
  852MOL0     C17468   5.551   3.603   5.854  0.0466  0.5867 -0.4468
  852MOL0     O17469   5.449   3.519   5.895  0.1703  0.1679  0.1806
  852MOL0     C17470   5.457   3.381   5.897 -0.4540  0.1723  0.0225
  852MOL0     C17471   5.388   3.296   5.813 -0.1139 -0.3220  0.6737
  852MOL0     C17472   5.424   3.164   5.805  1.1271 -0.2494 -0.2993
  852MOL0     C17473   5.498   3.100   5.901 -0.6935 -0.2737 -0.2683
  852MOL0     O17474   5.516   2.962   5.883 -0.0262  0.1209  0.3058
  852MOL0     C17475   5.568   2.885   5.994  0.8928 -0.2033  0.5727
  852MOL0     C17476   5.560   2.731   5.946 -0.5981 -0.0926  0.3038
  852MOL0     C17477   5.656   2.670   6.049 -0.9166 -0.0296  0.4476
  852MOL0     C17478   5.656   2.519   6.017  0.1528 -0.3795  0.0123
  852MOL0     C17479   5.717   2.452   6.139 -0.3986 -0.7211 -0.0672
  852MOL0     C17480   5.714   2.295   6.121  1.2425  0.2690 -0.5124
  852MOL0     C17481   5.770   2.208   6.221  0.2007 -0.0396  0.0129
  852MOL0     C17482   5.909   2.244   6.244 -0.1719  0.1869  0.3423
  852MOL0    Cl17483   5.986   2.101   6.321 -0.3380 -0.0572 -0.1349
  852MOL0     C17484   5.557   3.181   6.004 -0.9279  0.0937  0.2632
  852MOL0     C17485   5.538   3.326   5.998  0.0840 -0.2950 -0.2737
  852MOL0     O17486   5.664   3.566   5.822  0.3742  0.1698  0.0546
  852MOL0     C17487   5.413   3.788   5.948  0.9228 -0.0519  0.0202
  852MOL0     C17488   5.387   3.922   5.975 -0.0547  0.0738  0.0368
  852MOL0     N17489   5.137   4.449   6.196  0.5505 -1.0164 -0.4363
  852MOL0     N17490   5.120   4.411   6.319  0.4056 -0.3179 -0.5484
  852MOL0     C17491   4.167   4.522   6.439 -0.0863  0.4037 -0.0631
  852MOL0     C17492   4.027   4.542   6.429  0.3202 -0.4003  0.7283
  852MOL0     C17493   3.630   4.710   6.420  0.2915  0.5913  0.2224
  852MOL0     C17494   3.565   4.623   6.329  0.4045  0.3966  0.7545
  852MOL0     C17495   3.430   4.596   6.334  0.3686  0.1513 -0.1741
  852MOL0     C17496   3.344   4.670   6.417  0.3171 -0.1700 -0.4439
  852MOL0     O17497   3.207   4.668   6.433  0.9920  0.1531 -0.1705
  852MOL0     C17498   3.140   4.549   6.386 -0.1968  0.5434 -0.7957
  852MOL0     C17499   3.069   4.584   6.268  0.2200  0.5586  0.2308
  852MOL0     C17500   2.968   4.482   6.232 -0.0224 -0.7729 -0.6497
  852MOL0     C17501   2.882   4.517   6.109  0.4921  0.5072 -0.0554
  852MOL0     C17502   2.811   4.641   6.110 -0.0191  0.4543 -0.7324
  852MOL0     C17503   2.751   4.742   6.115  0.2059  0.2716  0.5836
  852MOL0     C17504   3.408   4.769   6.506 -0.0956  0.6411 -0.2029
  852MOL0     C17505   3.543   4.786   6.511  0.7892  0.5475  0.5793
  852MOL0     C17506   3.590   4.882   6.615  0.7094 -0.7850  0.5183
  852MOL0     H17507   4.016   4.748   6.159 -2.1218 -1.1154 -0.5133
  852MOL0     H17508   4.270   4.696   6.171  0.0343 -1.3891 -1.1696
  852MOL0     H17509   4.422   4.728   6.441  2.2033  0.2447 -1.5087
  852MOL0     H17510   4.532   4.702   6.305  0.6609  0.3201 -0.4760
  852MOL0     H17511   4.638   4.651   6.521  0.7041  2.2108 -4.8524
  852MOL0     H17512   4.512   4.526   6.556  0.7234  1.0424  2.1896
  852MOL0     H17513   4.604   4.408   6.347 -0.3991  1.0114 -0.3604
  852MOL0     H17514   4.727   4.533   6.342 -1.7163 -1.2274 -2.4606
  852MOL0     H17515   4.803   4.466   6.559  1.4044  0.1203 -2.1003
  852MOL0     H17516   4.673   4.343   6.583  0.3133 -2.4518 -0.9478
  852MOL0     H17517   4.874   4.313   6.368 -0.8976 -2.5414 -1.5409
  852MOL0     H17518   4.755   4.191   6.432 -2.3789  0.2870  1.2363
  852MOL0     H17519   4.975   4.334   6.587 -3.3206  3.5982 -4.0548
  852MOL0     H17520   4.891   4.197   6.649 -0.6295 -0.7774 -1.3026
  852MOL0     H17521   4.987   4.071   6.409  0.0081 -0.8541 -0.1484
  852MOL0     H17522   5.059   4.051   6.558  0.0709  0.5220 -0.0674
  852MOL0     H17523   5.200   4.266   6.509 -0.3836 -0.1422 -0.0201
  852MOL0     H17524   5.221   4.118   6.407  0.9183  0.1634 -1.4893
  852MOL0     H17525   5.186   4.127   6.158 -1.8028  0.1610 -1.0304
  852MOL0     H17526   5.150   4.405   5.924 -0.4464  0.0763 -0.3503
  852MOL0     H17527   5.231   4.260   5.919 -0.1142  1.2475 -1.4733
  852MOL0     H17528   5.395   4.455   5.868  2.6365 -1.5571 -0.0531
  852MOL0     H17529   5.339   4.524   6.030 -1.3088 -0.7525  0.8528
  852MOL0     H17530   5.560   4.438   6.065 -1.0773  0.5239  2.2334
  852MOL0     H17531   5.462   4.341   6.151 -1.2188 -0.0865 -0.4041
  852MOL0     H17532   5.562   4.267   5.871  0.2837  0.9332  1.2649
  852MOL0     H17533   5.635   4.222   6.023  0.3997 -1.2551 -1.6498
  852MOL0     H17534   5.656   4.065   5.860 -1.9528  1.4637 -0.2967
  852MOL0     H17535   5.713   3.776   5.670  0.4951  1.5678 -1.2312
  852MOL0     H17536   5.819   3.758   5.807  0.0045 -0.0540 -0.0461
  852MOL0     H17537   5.798   3.924   5.757 -0.6537  0.3827  0.8078
  852MOL0     H17538   5.316   3.323   5.736 -0.5700 -0.1311  1.1615
  852MOL0     H17539   5.381   3.100   5.729  1.3147  1.6242 -2.1042
  852MOL0     H17540   5.673   2.915   6.002  0.5745  1.2429 -0.4472
  852MOL0     H17541   5.521   2.893   6.093 -0.4071  0.7029 -0.0962
  852MOL0     H17542   5.462   2.685   5.960  0.1752 -1.5399  1.1337
  852MOL0     H17543   5.597   2.716   5.844 -0.1830  1.3142  0.2179
  852MOL0     H17544   5.615   2.687   6.149 -2.9175  2.4185 -0.6864
  852MOL0     H17545   5.757   2.713   6.051  0.7039 -3.5088  1.7897
  852MOL0     H17546   5.700   2.496   5.919  2.0714 -1.1405  0.9975
  852MOL0     H17547   5.549   2.499   6.013  0.2082 -0.5166 -1.4490
  852MOL0     H17548   5.822   2.483   6.143 -0.2381 -0.5648 -2.9428
  852MOL0     H17549   5.662   2.476   6.230 -1.4295 -0.7270 -0.6760
  852MOL0     H17550   5.774   2.278   6.031  2.6836 -1.2481  0.6830
  852MOL0     H17551   5.608   2.270   6.109  1.1245  0.6933 -0.3770
  852MOL0     H17552   5.775   2.112   6.168 -1.1542  1.7422 -3.6906
  852MOL0     H17553   5.716   2.205   6.315  1.3555  0.3283  0.7084
  852MOL0     H17554   5.906   2.336   6.304 -1.9017  0.0439  0.5280
  852MOL0     H17555   5.951   2.256   6.144  1.3630 -1.5438  0.7239
  852MOL0     H17556   5.629   3.128   6.066 -2.7956 -1.7861  0.9617
  852MOL0     H17557   5.590   3.389   6.069  0.8422 -0.9816 -0.1999
  852MOL0     H17558   5.335   3.714   5.963  2.2433 -1.2694  1.1680
  852MOL0     H17559   5.289   3.944   6.016  0.1077  0.4178  0.2389
  852MOL0     H17560   4.209   4.455   6.512 -1.5835 -1.6952 -1.0181
  852MOL0     H17561   3.963   4.482   6.492  0.3548 -0.2783  0.8794
  852MOL0     H17562   3.616   4.563   6.255  0.3739  0.4397  0.6984
  852MOL0     H17563   3.395   4.524   6.259  3.4652 -0.2082 -1.4250
  852MOL0     H17564   3.206   4.464   6.369 -0.0687  0.5617 -0.4035
  852MOL0     H17565   3.063   4.519   6.458 -0.3181 -0.7487 -1.4333
  852MOL0     H17566   3.141   4.595   6.187  1.4525 -0.8067  1.0903
  852MOL0     H17567   3.019   4.681   6.272 -1.5228 -0.2540 -0.6183
  852MOL0     H17568   3.013   4.386   6.207  1.1945 -0.9822  2.0140
  852MOL0     H17569   2.902   4.463   6.318 -1.3102 -2.2235 -1.8996
  852MOL0     H17570   2.803   4.443   6.088 -0.0913  0.1555  2.9528
  852MOL0     H17571   2.944   4.514   6.019 -1.2655 -1.1462 -1.3041
  852MOL0     H17572   2.679   4.821   6.121 -0.3264 -0.1406 -0.3219
  852MOL0     H17573   3.346   4.828   6.573  1.3740  1.7413  0.2211
  852MOL0     H17574   3.681   4.925   6.573 -0.7298 -2.0842 -4.5807
  852MOL0     H17575   3.527   4.970   6.630  1.6831 -0.0500  0.4345
  852MOL0     H17576   3.604   4.825   6.708 -0.7595  0.3596  1.4868
  853MOL0     O17577   3.867  11.227   9.669 -0.0292 -0.2765 -0.7303
  853MOL0     C17578   3.799  11.123   9.673 -0.5388  0.3423 -0.5002
  853MOL0     O17579   3.820  11.014   9.755  0.0966  0.4379  0.0797
  853MOL0     C17580   3.939  11.011   9.818 -0.1053 -0.4816  0.6664
  853MOL0     C17581   4.041  10.925   9.780 -0.5179  0.3634 -0.3770
  853MOL0     C17582   4.164  10.932   9.848  0.3018 -0.9691 -0.2952
  853MOL0     C17583   4.176  11.022   9.957 -0.8274 -0.1545  0.1429
  853MOL0     O17584   4.295  11.025  10.028 -0.1884 -0.0538 -0.6213
  853MOL0     C17585   4.334  11.134  10.118  0.1036 -0.2559 -0.2869
  853MOL0     C17586   4.488  11.139  10.129 -0.4000 -1.2095 -0.1252
  853MOL0     C17587   4.533  11.013  10.216  0.7762 -0.1809  0.1434
  853MOL0     C17588   4.684  11.002  10.238 -0.2272  0.3761 -0.2358
  853MOL0     C17589   4.748  10.964  10.104 -0.0371 -0.8812  0.7308
  853MOL0     C17590   4.898  10.973  10.127 -0.1487 -0.4426 -1.1865
  853MOL0     C17591   4.965  10.921   9.998  0.4695 -0.4408  0.1398
  853MOL0     C17592   5.114  10.878  10.037 -0.2181 -0.0096 -0.1171
  853MOL0     N17593   5.170  10.995  10.109 -0.2534 -0.3479 -0.2154
  853MOL0     C17594   5.227  11.098  10.046  0.1830  0.4969 -0.0098
  853MOL0     C17595   5.280  11.179  10.142 -0.0136  0.0769 -0.6498
  853MOL0     C17596   5.363  11.309  10.130 -0.0899 -0.3525  0.1475
  853MOL0     C17597   5.313  11.414  10.236 -0.1499 -0.8479  0.2889
  853MOL0     C17598   5.176  11.464  10.195  0.1313 -0.1873  0.6261
  853MOL0     C17599   5.136  11.591  10.272 -0.2517  0.4054  0.1044
  853MOL0     O17600   5.018  11.659  10.218  0.3225  0.0965 -0.1125
  853MOL0     C17601   4.889  11.616  10.241 -1.2990 -0.2451 -0.4334
  853MOL0     C17602   4.810  11.621  10.131 -0.6178  0.4042  0.5136
  853MOL0     C17603   4.672  11.590  10.138 -0.4792  0.1475 -0.3046
  853MOL0     C17604   4.581  11.624  10.029 -0.0268 -0.1186  0.6568
  853MOL0     C17605   4.628  11.530  10.259  0.3723 -0.0399 -0.1995
  853MOL0     C17606   4.483  11.495  10.303 -0.9654  0.1637  0.0623
  853MOL0     O17607   4.449  11.516  10.430 -0.1972 -0.0239 -0.0719
  853MOL0     C17608   4.344  11.442  10.475 -0.1073 -0.1439 -0.1168
  853MOL0     C17609   4.216  11.487  10.502  0.3706 -0.2497 -1.2963
  853MOL0     C17610   4.117  11.397  10.557 -0.2640  0.3698 -0.0831
  853MOL0     C17611   4.157  11.274  10.610  0.3535 -0.2735  0.6060
  853MOL0     O17612   4.044  11.208  10.658  0.1303  0.0916 -0.0650
  853MOL0     C17613   4.074  11.084  10.718  0.9943  0.1478 -0.3485
  853MOL0     C17614   3.941  11.005  10.740 -0.3627 -0.3632 -0.1668
  853MOL0     C17615   3.948  10.868  10.806 -0.4312  0.6873 -0.1736
  853MOL0     C17616   3.938  10.873  10.961 -0.0626 -0.3628 -0.5930
  853MOL0     C17617   3.958  10.734  11.020  0.7503  0.3259 -0.6393
  853MOL0     C17618   3.934  10.717  11.166  0.1143 -0.0594  0.8603
  853MOL0     C17619   3.964  10.571  11.202  0.3561 -0.5327  0.0256
  853MOL0     C17620   3.916  10.536  11.341  0.5162  0.1990 -0.0555
  853MOL0    Cl17621   4.012  10.397  11.402 -0.1439  0.2972  0.2090
  853MOL0     C17622   4.280  11.224  10.590 -0.2381  0.7443  0.4114
  853MOL0     C17623   4.374  11.301  10.515  0.5566 -0.9276 -0.0446
  853MOL0     O17624   4.405  11.470  10.209 -0.2450  0.1978 -0.7541
  853MOL0     C17625   4.725  11.500  10.359  0.2054  0.0631 -0.4479
  853MOL0     C17626   4.849  11.543  10.353 -0.4346  0.6936 -0.0419
  853MOL0     N17627   5.251  11.118  10.262  0.2962  0.1769  0.1393
  853MOL0     N17628   5.190  11.007  10.243 -0.0077 -0.0411 -0.0113
  853MOL0     C17629   4.070  11.093  10.006  0.5954  0.7795  0.0585
  853MOL0     C17630   3.952  11.089   9.934 -0.1462  0.5823  0.3008
  853MOL0     C17631   3.682  11.120   9.581 -0.3688  0.4453  0.2812
  853MOL0     C17632   3.575  11.043   9.623  0.0275 -0.1771  0.7327
  853MOL0     C17633   3.458  11.049   9.553 -0.3139 -0.2058  1.0911
  853MOL0     C17634   3.444  11.133   9.440  0.1598  0.3754  0.5836
  853MOL0     O17635   3.330  11.134   9.363 -0.4059  0.0288 -0.2539
  853MOL0     C17636   3.211  11.068   9.393  0.5865 -0.2611  0.1897
  853MOL0     C17637   3.114  11.076   9.280  0.4820 -0.5698  1.0314
  853MOL0     C17638   2.984  10.990   9.281 -1.0821 -0.5619 -0.4326
  853MOL0     C17639   2.886  11.026   9.173 -0.1300  0.4628  0.3422
  853MOL0     C17640   2.792  11.127   9.225  0.1404 -0.5257 -0.3122
  853MOL0     C17641   2.721  11.213   9.263  0.5351 -0.2209 -0.2805
  853MOL0     C17642   3.554  11.200   9.393  0.2855 -0.6097 -0.3665
  853MOL0     C17643   3.677  11.195   9.459  0.3740 -0.7558 -0.1786
  853MOL0     C17644   3.782  11.266   9.393  0.2212  0.1755 -0.7454
  853MOL0     H17645   4.036  10.849   9.703 -3.3692 -1.3233  1.2898
  853MOL0     H17646   4.248  10.868   9.822 -0.3315 -0.7381 -3.2958
  853MOL0     H17647   4.291  11.127  10.218  0.0532  0.7982 -0.2257
  853MOL0     H17648   4.312  11.233  10.077  0.0440  0.2383  0.9074
  853MOL0     H17649   4.543  11.131  10.034  2.7397 -0.4895  1.5129
  853MOL0     H17650   4.531  11.228  10.175 -0.4068 -0.3535 -1.6875
  853MOL0     H17651   4.489  11.029  10.315  2.3330  0.4259  0.7751
  853MOL0     H17652   4.487  10.918  10.185 -2.8533  0.5293  2.7655
  853MOL0     H17653   4.722  11.098  10.274 -0.4794  0.5517 -0.4335
  853MOL0     H17654   4.713  10.928  10.313  2.2002 -0.8642 -2.2527
  853MOL0     H17655   4.734  11.040  10.026  0.5204  1.0636  2.4060
  853MOL0     H17656   4.718  10.868  10.063  2.2173 -1.7665  1.0015
  853MOL0     H17657   4.933  11.074  10.150  2.4082 -1.5594  0.2532
  853MOL0     H17658   4.920  10.906  10.210  2.1932  0.8077 -0.7165
  853MOL0     H17659   4.951  10.990   9.914 -0.6456 -0.6087  0.1721
  853MOL0     H17660   4.913  10.829   9.971 -4.0069  0.9183  3.0651
  853MOL0     H17661   5.115  10.793  10.106 -1.1346 -0.8152 -1.0777
  853MOL0     H17662   5.184  10.856   9.956 -3.1045  0.9419 -3.0318
  853MOL0     H17663   5.241  11.110   9.939 -1.2760 -1.0303 -0.4072
  853MOL0     H17664   5.354  11.354  10.031 -1.3514  0.5492  0.6564
  853MOL0     H17665   5.471  11.295  10.136  0.1934  1.4958 -0.2870
  853MOL0     H17666   5.307  11.371  10.336 -1.5151  3.1608  2.1106
  853MOL0     H17667   5.387  11.493  10.247 -0.8394 -0.0770 -0.4310
  853MOL0     H17668   5.167  11.499  10.091  1.3711 -1.2958  0.1071
  853MOL0     H17669   5.114  11.374  10.196 -1.0676  0.5488 -1.3180
  853MOL0     H17670   5.115  11.570  10.378 -3.5731 -1.7398 -0.8097
  853MOL0     H17671   5.217  11.662  10.253 -0.7228  1.1665  0.8504
  853MOL0     H17672   4.854  11.684  10.054 -0.3840  0.7513  0.9258
  853MOL0     H17673   4.527  11.537   9.990  0.5891 -0.3599  0.3251
  853MOL0     H17674   4.641  11.660   9.945  1.7716 -0.3302  1.7917
  853MOL0     H17675   4.511  11.696  10.072  0.1878  0.6190 -0.2028
  853MOL0     H17676   4.196  11.591  10.480 -0.4978 -0.1745 -0.1981
  853MOL0     H17677   4.017  11.436  10.574 -0.2752  0.1503  0.3836
  853MOL0     H17678   4.143  11.020  10.664 -0.7763 -2.9654  0.7830
  853MOL0     H17679   4.113  11.097  10.819 -3.9949 -3.0783  2.4807
  853MOL0     H17680   3.868  11.069  10.791  0.4678  2.9748 -2.7847
  853MOL0     H17681   3.912  10.984  10.637  3.6602 -0.5365 -1.4425
  853MOL0     H17682   4.044  10.824  10.778  0.4347  1.1753  1.8958
  853MOL0     H17683   3.859  10.809  10.785 -1.7231  1.4906  2.5599
  853MOL0     H17684   3.837  10.913  10.974  0.1571  0.0177 -0.0150
  853MOL0     H17685   4.015  10.942  10.997  0.5643 -1.4476  0.2128
  853MOL0     H17686   3.897  10.666  10.960 -0.8138  2.2560 -1.3614
  853MOL0     H17687   4.060  10.703  10.994  0.9180  0.2023  0.1496
  853MOL0     H17688   3.828  10.739  11.182  0.4309  1.0100  1.5972
  853MOL0     H17689   4.002  10.783  11.220  1.5108 -0.6455 -0.1304
  853MOL0     H17690   4.073  10.573  11.205  0.3514 -0.1506 -0.0904
  853MOL0     H17691   3.930  10.495  11.131  0.7184  1.0499 -1.9161
  853MOL0     H17692   3.810  10.511  11.350 -0.1019  1.5110 -2.7459
  853MOL0     H17693   3.950  10.620  11.402  0.2930  0.2771 -0.0387
  853MOL0     H17694   4.306  11.124  10.622  0.6069 -0.2137 -2.8793
  853MOL0     H17695   4.478  11.272  10.510  0.4413 -1.2114 -0.8285
  853MOL0     H17696   4.693  11.439  10.444  2.2479  1.2426  1.2728
  853MOL0     H17697   4.922  11.511  10.427  1.0605  0.4317 -1.5774
  853MOL0     H17698   4.063  11.158  10.093 -1.2992  1.4414 -0.5278
  853MOL0     H17699   3.868  11.145   9.974  0.9249 -0.6655  4.9619
  853MOL0     H17700   3.584  10.976   9.708 -0.1453 -0.3502  0.6151
  853MOL0     H17701   3.372  10.989   9.580 -0.6058  0.4943  1.7615
  853MOL0     H17702   3.229  10.960   9.402 -1.8018 -0.6938  0.2627
  853MOL0     H17703   3.178  11.109   9.488  0.5802 -1.7908  0.8836
  853MOL0     H17704   3.162  11.037   9.189 -1.0951  0.0855 -0.1198
  853MOL0     H17705   3.092  11.181   9.260 -0.0443 -1.2002 -2.2249
  853MOL0     H17706   3.020  10.887   9.273  0.0446 -0.4586  2.1633
  853MOL0     H17707   2.937  10.996   9.380 -0.6331  2.3340 -0.3061
  853MOL0     H17708   2.831  10.940   9.134  1.6937 -0.2977 -0.6927
  853MOL0     H17709   2.931  11.060   9.079 -3.3537 -0.5908 -1.7455
  853MOL0     H17710   2.643  11.278   9.297  0.4327 -0.6746  0.3667
  853MOL0     H17711   3.543  11.262   9.304 -0.6017 -0.2100  0.0158
  853MOL0     H17712   3.790  11.371   9.422  0.7612 -0.5433  1.9469
  853MOL0     H17713   3.872  11.220   9.435 -0.6546  1.1105  2.4722
  853MOL0     H17714   3.774  11.259   9.284 -1.3989 -2.8834 -0.5484
  854MOL0     O17715  10.321   2.295  10.712  0.1712 -0.0564 -0.1569
  854MOL0     C17716  10.274   2.183  10.705  0.3843 -0.2160 -0.7229
  854MOL0     O17717  10.332   2.078  10.762 -0.2046  0.2880  0.3037
  854MOL0     C17718  10.460   2.073  10.815  0.2820 -0.3205 -0.2017
  854MOL0     C17719  10.481   1.960  10.891 -0.4117 -0.0525  0.0941
  854MOL0     C17720  10.597   1.931  10.962  0.0258  0.0120  0.1861
  854MOL0     C17721  10.709   2.011  10.944  0.1538  0.1204  0.7092
  854MOL0     O17722  10.819   1.973  11.005  0.0568  0.2679  0.4381
  854MOL0     C17723  10.929   2.054  10.996  0.1267  0.1176 -1.2324
  854MOL0     C17724  11.042   2.002  11.093  0.5070  0.0205  0.1602
  854MOL0     C17725  11.139   1.908  11.032 -1.0584  0.9318 -0.6409
  854MOL0     C17726  11.267   1.901  11.117  0.9396  0.2418  0.7502
  854MOL0     C17727  11.365   1.800  11.057 -0.5862  0.4373  0.5234
  854MOL0     C17728  11.508   1.823  11.084 -0.3868  0.0852  0.0160
  854MOL0     C17729  11.595   1.710  11.015  0.5870 -0.6533 -0.2876
  854MOL0     C17730  11.748   1.750  11.026 -0.1910 -0.4401 -0.0591
  854MOL0     N17731  11.824   1.635  10.994 -0.6721  0.3356  0.2189
  854MOL0     C17732  11.813   1.562  10.877 -0.1756 -0.5284  0.3214
  854MOL0     C17733  11.910   1.462  10.901  0.2333 -0.7336 -0.1051
  854MOL0     C17734  11.967   1.361  10.799  0.0830  0.0843  0.0222
  854MOL0     C17735  12.040   1.438  10.695 -0.1974  0.3131 -0.0048
  854MOL0     C17736  12.153   1.524  10.733  0.1294  0.1767  0.2677
  854MOL0     C17737  12.248   1.474  10.839 -0.5784 -0.9768 -0.4985
  854MOL0     O17738  12.322   1.370  10.777  0.5201 -0.1336  0.1969
  854MOL0     C17739  12.457   1.379  10.786  0.0255  0.0974 -0.3065
  854MOL0     C17740  12.520   1.302  10.883  0.4181  0.9765  0.0666
  854MOL0     C17741  12.655   1.308  10.892 -0.0963  0.1016  0.3577
  854MOL0     C17742  12.706   1.198  10.981  0.1839  0.2351 -0.4333
  854MOL0     C17743  12.742   1.375  10.800 -0.7673 -0.7150  0.2931
  854MOL0     C17744  12.894   1.359  10.794  0.4882  0.8360  0.2196
  854MOL0     O17745  12.957   1.462  10.731  1.1503 -0.2190 -0.2262
  854MOL0     C17746  13.092   1.445  10.719  0.9104  0.2352 -0.5030
  854MOL0     C17747  13.169   1.356  10.642 -0.2148  0.1028  0.1859
  854MOL0     C17748  13.311   1.372  10.637  0.4727 -0.5808  0.3348
  854MOL0     C17749  13.378   1.463  10.721  0.3340 -0.1209  0.3079
  854MOL0     O17750  13.512   1.486  10.721  0.0288  0.3213 -0.5062
  854MOL0     C17751  13.602   1.398  10.779 -0.0131  0.3229 -0.3445
  854MOL0     C17752  13.736   1.421  10.715 -0.4592 -1.1112  0.8879
  854MOL0     C17753  13.845   1.356  10.783 -0.6749 -0.0621 -0.1680
  854MOL0     C17754  13.969   1.320  10.685 -1.0850  0.2420 -0.3823
  854MOL0     C17755  14.102   1.299  10.762  0.4637 -0.3049 -0.5362
  854MOL0     C17756  14.216   1.244  10.668  0.5634  0.1219  0.0997
  854MOL0     C17757  14.344   1.206  10.747 -0.0086  0.6786 -0.2663
  854MOL0     C17758  14.458   1.155  10.655 -0.3018 -0.7511 -0.9925
  854MOL0    Cl17759  14.599   1.124  10.761  0.5330 -0.3087 -0.4166
  854MOL0     C17760  13.300   1.540  10.805  0.9527 -0.0826  0.0886
  854MOL0     C17761  13.162   1.532  10.802  0.6332 -0.5047 -1.2941
  854MOL0     O17762  12.948   1.259  10.844 -0.0313 -0.0032  0.6614
  854MOL0     C17763  12.675   1.467  10.712 -0.4660  0.8740  0.5708
  854MOL0     C17764  12.530   1.464  10.701 -0.1294 -0.3949 -0.0708
  854MOL0     N17765  11.963   1.479  11.026 -0.4650 -0.1177 -0.5560
  854MOL0     N17766  11.915   1.583  11.082 -0.2575 -0.1557  0.2020
  854MOL0     C17767  10.690   2.123  10.857  0.2254  0.5925 -0.4289
  854MOL0     C17768  10.568   2.158  10.797  0.2692  0.2794  0.5357
  854MOL0     C17769  10.144   2.160  10.638 -0.4058  0.6270  0.2943
  854MOL0     C17770  10.103   2.022  10.626 -0.6647  0.0312  0.4306
  854MOL0     C17771   9.981   1.989  10.576  0.4889 -0.2551  0.2706
  854MOL0     C17772   9.895   2.081  10.515 -0.0139 -1.0278 -0.5299
  854MOL0     O17773   9.784   2.066  10.444  0.5168  0.3581 -0.6247
  854MOL0     C17774   9.725   1.936  10.435  0.0895  0.2769  0.1650
  854MOL0     C17775   9.653   1.895  10.566  0.0039  0.5388  0.1517
  854MOL0     C17776   9.568   1.771  10.539 -0.7445  0.8465 -0.8686
  854MOL0     C17777   9.505   1.732  10.674  0.3416  0.4038  0.3959
  854MOL0     C17778   9.417   1.618  10.649  0.0024 -0.5805  0.2910
  854MOL0     C17779   9.344   1.522  10.631 -0.5783  0.5322  0.6336
  854MOL0     C17780   9.936   2.214  10.515 -0.3698  0.2471  0.0621
  854MOL0     C17781  10.063   2.256  10.575  0.9319  0.1148  0.2466
  854MOL0     C17782  10.080   2.412  10.595  0.5848  0.4997 -0.0250
  854MOL0     H17783  10.408   1.880  10.892  0.3146 -0.7243  0.1040
  854MOL0     H17784  10.606   1.831  11.001 -1.5260 -0.1455  0.1819
  854MOL0     H17785  10.899   2.157  11.016 -1.8006 -1.0185  2.6817
  854MOL0     H17786  10.967   2.058  10.893 -0.8930  1.3902 -1.5788
  854MOL0     H17787  11.096   2.087  11.135  1.2673  0.0904 -0.9211
  854MOL0     H17788  10.981   1.960  11.173  2.3667  0.9053  2.1480
  854MOL0     H17789  11.093   1.809  11.024  2.4592 -0.7918 -1.5820
  854MOL0     H17790  11.164   1.937  10.929 -2.6212 -3.6856 -2.5942
  854MOL0     H17791  11.315   1.998  11.136  0.8124  0.6836 -1.0369
  854MOL0     H17792  11.229   1.862  11.212  0.9254 -2.5569 -0.3102
  854MOL0     H17793  11.354   1.803  10.948 -0.0024  0.4177  0.4578
  854MOL0     H17794  11.322   1.706  11.093 -1.1263  1.1816  1.8571
  854MOL0     H17795  11.536   1.926  11.058  3.1177 -0.7517 -0.1019
  854MOL0     H17796  11.535   1.816  11.189  1.5775  0.1788 -0.4431
  854MOL0     H17797  11.577   1.706  10.907  1.2681  2.1373 -0.5716
  854MOL0     H17798  11.570   1.617  11.068  1.0317 -0.6819 -0.1273
  854MOL0     H17799  11.787   1.831  10.965  1.4686  1.3428  3.0812
  854MOL0     H17800  11.772   1.775  11.130  2.2277  3.2555 -1.3186
  854MOL0     H17801  11.755   1.586  10.789 -0.2587 -0.1142  0.4875
  854MOL0     H17802  11.892   1.296  10.753 -0.0048 -1.1065  1.7251
  854MOL0     H17803  12.037   1.295  10.851  1.1951  0.3125 -1.1529
  854MOL0     H17804  12.072   1.362  10.624 -0.6657  0.2595 -0.1634
  854MOL0     H17805  11.969   1.499  10.639 -1.7051 -1.8509 -0.5837
  854MOL0     H17806  12.203   1.531  10.636  1.2430 -0.9029  0.7240
  854MOL0     H17807  12.117   1.623  10.760 -1.2589 -0.2748  0.1283
  854MOL0     H17808  12.304   1.562  10.871 -0.9646  0.3661 -3.2243
  854MOL0     H17809  12.194   1.443  10.929  0.9731 -1.0908  0.4252
  854MOL0     H17810  12.455   1.236  10.940  0.1287  0.4389 -0.8634
  854MOL0     H17811  12.786   1.234  11.045  1.0058 -1.4045 -0.5117
  854MOL0     H17812  12.740   1.110  10.926 -3.2246 -1.1145 -0.6560
  854MOL0     H17813  12.629   1.171  11.054  0.3014 -0.6053 -0.6142
  854MOL0     H17814  13.126   1.279  10.579  4.5976 -1.5760 -1.4183
  854MOL0     H17815  13.359   1.309  10.563 -1.0778  0.1742 -1.3604
  854MOL0     H17816  13.614   1.420  10.886 -0.4861  0.0163 -0.2290
  854MOL0     H17817  13.578   1.293  10.762 -4.1958  1.3366 -1.9859
  854MOL0     H17818  13.723   1.394  10.610 -3.9360 -1.1937  1.2103
  854MOL0     H17819  13.763   1.527  10.717  1.7482 -1.5808 -0.5572
  854MOL0     H17820  13.808   1.261  10.825  0.1104  0.2979  1.4231
  854MOL0     H17821  13.875   1.426  10.861 -2.6040 -0.3753  0.9209
  854MOL0     H17822  13.976   1.408  10.621 -1.8939  1.1303  0.6940
  854MOL0     H17823  13.952   1.229  10.627  2.0959 -2.1171  2.0196
  854MOL0     H17824  14.127   1.399  10.798 -5.7768  2.9022 -3.4601
  854MOL0     H17825  14.087   1.235  10.849  1.7693 -2.1228 -1.5858
  854MOL0     H17826  14.235   1.328  10.601  0.4573  0.6022  0.6591
  854MOL0     H17827  14.189   1.162  10.601  2.6620 -1.6222  1.2591
  854MOL0     H17828  14.321   1.134  10.826  2.3278  0.8807  0.7031
  854MOL0     H17829  14.381   1.296  10.798 -0.1272  0.0615  0.9309
  854MOL0     H17830  14.475   1.222  10.571  0.0285 -2.8502 -2.6937
  854MOL0     H17831  14.425   1.058  10.615 -1.3725 -0.5686 -0.5875
  854MOL0     H17832  13.338   1.610  10.880 -0.7179  1.7166 -0.6560
  854MOL0     H17833  13.107   1.594  10.873  2.9756 -0.6975  0.8349
  854MOL0     H17834  12.737   1.518  10.638 -0.4521 -0.4870 -0.4012
  854MOL0     H17835  12.484   1.524  10.623 -2.0780  0.5148  1.6798
  854MOL0     H17836  10.769   2.191  10.825 -1.8335  1.7788 -3.4374
  854MOL0     H17837  10.581   2.249  10.740  0.5453 -1.9341 -3.2773
  854MOL0     H17838  10.167   1.938  10.655  0.7894  0.6410 -0.8428
  854MOL0     H17839   9.956   1.885  10.592  3.5701 -0.6718  3.3111
  854MOL0     H17840   9.652   1.929  10.354  2.4563 -0.4215 -2.0435
  854MOL0     H17841   9.801   1.862  10.409 -1.7101 -1.6936  0.3070
  854MOL0     H17842   9.580   1.969  10.600  0.0056  0.7749 -0.3516
  854MOL0     H17843   9.722   1.880  10.650  0.0478  2.2523  0.4623
  854MOL0     H17844   9.492   1.804  10.469  0.0788  0.7698 -1.8184
  854MOL0     H17845   9.627   1.687  10.502  0.9861  1.4538  0.3403
  854MOL0     H17846   9.445   1.812  10.717  0.2432  0.0276  0.9647
  854MOL0     H17847   9.576   1.711  10.754 -1.4860  1.1299  2.2948
  854MOL0     H17848   9.294   1.428  10.619  1.1755 -0.4994  1.0822
  854MOL0     H17849   9.871   2.291  10.474 -1.7031  0.5003  2.4508
  854MOL0     H17850  10.172   2.454  10.554  0.8309 -0.6989 -0.7363
  854MOL0     H17851   9.997   2.472  10.557  0.2719  0.3913  0.4714
  854MOL0     H17852  10.070   2.432  10.702 -0.9291  0.0905 -0.0570
  855MOL0     O17853   3.812  10.038   5.781  0.4029  0.2685 -0.5787
  855MOL0     C17854   3.734   9.945   5.761  0.4001 -0.6615  0.3134
  855MOL0     O17855   3.773   9.815   5.731 -0.0248  0.1661 -0.4618
  855MOL0     C17856   3.901   9.800   5.682  0.4681 -0.2025 -0.3936
  855MOL0     C17857   3.982   9.702   5.731  0.4017 -0.9533 -0.4896
  855MOL0     C17858   4.113   9.688   5.691 -0.9151  0.5505  0.1340
  855MOL0     C17859   4.159   9.773   5.584 -0.2424 -0.2015 -0.1462
  855MOL0     O17860   4.288   9.773   5.531 -0.3289  0.0778  0.2759
  855MOL0     C17861   4.395   9.723   5.613  0.7069  0.2790 -0.4510
  855MOL0     C17862   4.521   9.794   5.567  0.4865 -0.5351  0.1756
  855MOL0     C17863   4.542   9.762   5.421  0.4832  0.5148  0.9171
  855MOL0     C17864   4.684   9.761   5.381 -0.4001 -0.8683  0.2557
  855MOL0     C17865   4.726   9.906   5.336  0.0777  1.2218 -0.8830
  855MOL0     C17866   4.883   9.902   5.308  0.0646  0.5795  1.0427
  855MOL0     C17867   4.921  10.032   5.240  0.5255  0.1405 -0.0549
  855MOL0     C17868   5.069  10.048   5.224 -0.1276  1.0035 -0.1339
  855MOL0     N17869   5.151  10.062   5.340  0.2580 -0.0807 -0.2426
  855MOL0     C17870   5.202   9.973   5.429  0.1374  0.1537  0.9375
  855MOL0     C17871   5.250  10.043   5.537 -0.6713  0.1435 -0.2464
  855MOL0     C17872   5.313   9.985   5.657  0.2344  0.0357 -0.5790
  855MOL0     C17873   5.241  10.034   5.780  0.0724  0.3497 -0.1696
  855MOL0     C17874   5.097   9.980   5.778 -0.4451  1.2359 -0.7221
  855MOL0     C17875   5.001  10.086   5.719 -0.1806  0.4526 -0.6714
  855MOL0     O17876   4.876  10.079   5.792  0.2052 -0.3108  0.5438
  855MOL0     C17877   4.763  10.139   5.727 -0.3312 -0.9959 -0.4452
  855MOL0     C17878   4.646  10.130   5.792  0.2076 -0.8359 -0.1657
  855MOL0     C17879   4.516  10.164   5.747 -0.0754  0.0175  0.8917
  855MOL0     C17880   4.404  10.139   5.844 -0.2524 -0.4069  0.4900
  855MOL0     C17881   4.507  10.218   5.611 -0.0558  0.5129  0.0763
  855MOL0     C17882   4.381  10.224   5.529  0.2134  0.3014 -0.4556
  855MOL0     O17883   4.270  10.261   5.601  0.0376  0.2316 -0.1381
  855MOL0     C17884   4.153  10.286   5.537 -0.3235 -0.0087  0.6142
  855MOL0     C17885   4.133  10.347   5.414 -0.4675  0.0875  0.6608
  855MOL0     C17886   4.015  10.353   5.346  0.2122  1.0104  0.2748
  855MOL0     C17887   3.899  10.299   5.401  0.8594  0.5570  0.4948
  855MOL0     O17888   3.773  10.319   5.342 -0.3368 -0.0314 -0.9051
  855MOL0     C17889   3.664  10.269   5.416  1.0984 -0.4622 -0.5930
  855MOL0     C17890   3.545  10.328   5.345 -0.3433 -0.4781 -0.2168
  855MOL0     C17891   3.411  10.273   5.398  0.0381 -0.0697  0.0058
  855MOL0     C17892   3.294  10.308   5.303 -0.3890 -0.5145 -0.1734
  855MOL0     C17893   3.163  10.238   5.355  0.0656  0.4518  0.5461
  855MOL0     C17894   3.041  10.251   5.269 -0.0533 -1.1118 -0.0928
  855MOL0     C17895   2.930  10.151   5.288  0.5311  0.4053  0.0767
  855MOL0     C17896   2.873  10.156   5.423 -0.1023  0.8040 -0.0468
  855MOL0    Cl17897   2.718  10.084   5.401 -0.0272 -0.5154 -0.0127
  855MOL0     C17898   3.917  10.240   5.532  0.5312 -0.3165 -0.1955
  855MOL0     C17899   4.037  10.232   5.599  0.3723 -0.7393  0.7908
  855MOL0     O17900   4.387  10.203   5.404 -0.7281 -0.9202 -0.0505
  855MOL0     C17901   4.633  10.238   5.548  0.5171  0.6803 -0.8727
  855MOL0     C17902   4.758  10.214   5.607  0.0727  0.0098 -0.3839
  855MOL0     N17903   5.234  10.184   5.520  0.7170 -0.0308  1.1688
  855MOL0     N17904   5.179  10.189   5.392  0.5861  0.9521 -0.3232
  855MOL0     C17905   4.076   9.877   5.544  1.0765 -0.1934 -0.2160
  855MOL0     C17906   3.944   9.884   5.584  0.4396 -0.0183  0.3498
  855MOL0     C17907   3.582   9.971   5.768  0.3398 -0.2638 -0.5876
  855MOL0     C17908   3.497   9.901   5.686 -0.3404  0.2441  0.5401
  855MOL0     C17909   3.361   9.927   5.677 -0.3897 -0.5732  0.4198
  855MOL0     C17910   3.302  10.029   5.755 -0.3179 -0.2606 -0.0203
  855MOL0     O17911   3.162  10.052   5.756 -0.1892  0.0912 -0.5445
  855MOL0     C17912   3.110  10.175   5.813 -0.3423  0.2524  0.2264
  855MOL0     C17913   2.957  10.172   5.804 -0.4029 -0.6315  0.1284
  855MOL0     C17914   2.882  10.076   5.894  0.5124 -0.0241  0.2958
  855MOL0     C17915   2.933  10.067   6.045  0.7432 -0.3563 -0.2997
  855MOL0     C17916   2.961  10.206   6.098 -0.6235 -0.1840  0.1673
  855MOL0     C17917   2.994  10.325   6.117 -0.2650 -0.2268 -0.0178
  855MOL0     C17918   3.383  10.094   5.840  1.0313  0.0289 -0.1017
  855MOL0     C17919   3.519  10.063   5.851  0.9625 -0.4766 -0.4576
  855MOL0     C17920   3.602  10.139   5.959 -0.4898  0.6215  0.2682
  855MOL0     H17921   3.950   9.649   5.821 -0.1760 -0.0683 -0.1621
  855MOL0     H17922   4.180   9.609   5.723 -1.6874 -0.6760 -1.1083
  855MOL0     H17923   4.394   9.615   5.602 -0.8376  0.1772  0.3852
  855MOL0     H17924   4.374   9.757   5.715 -2.2070 -2.8155  0.1758
  855MOL0     H17925   4.503   9.901   5.578 -0.4945 -0.7418  0.7320
  855MOL0     H17926   4.606   9.773   5.632  0.1934 -0.1751  0.6850
  855MOL0     H17927   4.520   9.657   5.399  1.8421  0.0439  1.7032
  855MOL0     H17928   4.474   9.814   5.353 -1.6028  0.8928  3.1830
  855MOL0     H17929   4.737   9.723   5.469 -0.5757  0.2198  0.8409
  855MOL0     H17930   4.698   9.689   5.300  2.5369 -0.5347  0.3568
  855MOL0     H17931   4.703   9.977   5.417  1.1438  0.7816 -0.1679
  855MOL0     H17932   4.655   9.933   5.258 -2.2816 -2.6481 -0.3134
  855MOL0     H17933   4.930   9.897   5.407 -2.0448  0.9001  2.1115
  855MOL0     H17934   4.921   9.813   5.257 -1.1585 -1.4075  3.3678
  855MOL0     H17935   4.877  10.110   5.302 -1.2314 -2.1086  1.7279
  855MOL0     H17936   4.872  10.041   5.142 -0.5175 -1.0514  0.3321
  855MOL0     H17937   5.106   9.957   5.174 -1.2338  0.0068  0.8043
  855MOL0     H17938   5.086  10.140   5.167 -0.6974  0.8657 -0.5356
  855MOL0     H17939   5.195   9.867   5.408  2.1077  0.6587 -3.1095
  855MOL0     H17940   5.416  10.021   5.663  1.4103 -3.2544  1.7303
  855MOL0     H17941   5.317   9.876   5.661  1.6620  0.1176  2.0406
  855MOL0     H17942   5.290   9.994   5.869 -0.9871 -2.0890 -0.5950
  855MOL0     H17943   5.243  10.144   5.781  0.2903  0.3824 -1.8868
  855MOL0     H17944   5.100   9.890   5.715 -0.1153  0.0652  0.9208
  855MOL0     H17945   5.063   9.949   5.877 -0.8758 -0.0420 -1.2342
  855MOL0     H17946   5.041  10.185   5.739  1.7351 -0.5611  0.8645
  855MOL0     H17947   5.006  10.067   5.612  3.2750 -0.7858 -0.4226
  855MOL0     H17948   4.649  10.083   5.890 -0.2816  0.2799  0.4001
  855MOL0     H17949   4.359  10.230   5.885  1.2884  1.2286 -1.2576
  855MOL0     H17950   4.427  10.075   5.930 -1.1700 -1.3628  0.0482
  855MOL0     H17951   4.331  10.081   5.787 -1.4548  3.2592 -2.0304
  855MOL0     H17952   4.216  10.394   5.363  0.7035 -5.0652 -3.1086
  855MOL0     H17953   4.004  10.380   5.242  1.4439 -3.0460 -1.1060
  855MOL0     H17954   3.655  10.161   5.431  3.4325 -0.8800 -1.7008
  855MOL0     H17955   3.666  10.307   5.519 -1.2474  0.6775 -0.9069
  855MOL0     H17956   3.544  10.436   5.358  1.6722 -0.1459 -2.1217
  855MOL0     H17957   3.557  10.294   5.241  2.3036  1.2668 -0.5828
  855MOL0     H17958   3.383  10.310   5.497 -0.2660 -0.9153  0.2431
  855MOL0     H17959   3.426  10.165   5.407  1.0617  0.0423 -0.1559
  855MOL0     H17960   3.313  10.276   5.200  0.3139 -1.3242  0.1949
  855MOL0     H17961   3.272  10.415   5.297 -2.8343 -0.8098  1.5842
  855MOL0     H17962   3.192  10.133   5.363  1.7932  1.0465  3.6085
  855MOL0     H17963   3.153  10.280   5.456  1.0149  2.8078 -0.2720
  855MOL0     H17964   3.071  10.240   5.164  0.0598  1.5904 -0.4385
  855MOL0     H17965   2.998  10.352   5.272  1.0161 -0.6205 -0.6692
  855MOL0     H17966   2.973  10.056   5.255  2.3363  0.6660  1.4909
  855MOL0     H17967   2.853  10.176   5.214  3.6794  4.4438 -2.2520
  855MOL0     H17968   2.857  10.252   5.473 -2.5682  0.3790  0.1042
  855MOL0     H17969   2.932  10.088   5.486 -3.2198 -1.3956  0.7205
  855MOL0     H17970   3.841  10.179   5.580  0.2099  0.3089  0.0992
  855MOL0     H17971   4.044  10.186   5.696 -2.0477 -1.5599  0.6532
  855MOL0     H17972   4.641  10.280   5.448  4.0401 -0.1811 -1.0740
  855MOL0     H17973   4.848  10.239   5.552 -2.4288  0.9562 -4.3990
  855MOL0     H17974   4.107   9.937   5.459  0.5852  0.6965  0.2180
  855MOL0     H17975   3.877   9.955   5.535  0.0936  0.1999  1.1299
  855MOL0     H17976   3.529   9.816   5.627 -0.6102  0.3420  0.2469
  855MOL0     H17977   3.294   9.866   5.617 -1.9546 -0.7339  2.2295
  855MOL0     H17978   3.144  10.203   5.913 -0.6446  0.7718  0.1859
  855MOL0     H17979   3.148  10.251   5.745  2.9193 -0.9588  0.5282
  855MOL0     H17980   2.920  10.154   5.702 -1.2238  0.4916  0.2008
  855MOL0     H17981   2.918  10.274   5.819  0.1725 -0.4821  0.6568
  855MOL0     H17982   2.776  10.104   5.897  0.1385 -1.4107  2.3985
  855MOL0     H17983   2.896   9.977   5.850 -1.4925  0.8539 -2.6392
  855MOL0     H17984   3.024  10.006   6.048  0.5649 -0.5640  1.2757
  855MOL0     H17985   2.862  10.011   6.106 -1.5354  1.5677 -1.0610
  855MOL0     H17986   3.023  10.424   6.147 -1.2833  0.4106 -1.0896
  855MOL0     H17987   3.345  10.182   5.891 -2.1999 -0.5209 -1.3485
  855MOL0     H17988   3.694  10.184   5.921  0.1000  0.5180  1.5099
  855MOL0     H17989   3.551  10.221   6.011  1.5351  0.4016  2.8032
  855MOL0     H17990   3.633  10.065   6.034 -2.2926  0.4162  0.8632
  856MOL0     O17991   5.168   3.731   0.795  1.2753 -0.1174 -0.9034
  856MOL0     C17992   5.086   3.716   0.708 -0.2318 -0.1569  0.9996
  856MOL0     O17993   4.984   3.626   0.714  0.3460 -0.2348 -0.0106
  856MOL0     C17994   4.928   3.597   0.838  0.3631  0.6825  0.6121
  856MOL0     C17995   4.807   3.530   0.817 -0.5773  0.8935 -0.2494
  856MOL0     C17996   4.724   3.492   0.929  0.2517 -0.1532 -0.3264
  856MOL0     C17997   4.762   3.522   1.063 -0.5493 -0.8445  0.0047
  856MOL0     O17998   4.673   3.482   1.164  0.0501  0.1035 -0.2334
  856MOL0     C17999   4.711   3.503   1.302  0.0193 -0.0237 -0.7128
  856MOL0     C18000   4.612   3.421   1.388 -0.1307  0.1140  0.2120
  856MOL0     C18001   4.645   3.444   1.530  0.5830 -0.1797 -0.0671
  856MOL0     C18002   4.554   3.352   1.616 -0.0389 -0.6251  0.2861
  856MOL0     C18003   4.413   3.404   1.638 -0.2099  0.2706  0.7826
  856MOL0     C18004   4.405   3.521   1.727 -0.8826 -0.2976  0.8783
  856MOL0     C18005   4.266   3.544   1.781 -0.1743 -0.1463  0.2816
  856MOL0     C18006   4.231   3.694   1.808 -0.2823 -0.2334 -0.2835
  856MOL0     N18007   4.329   3.763   1.906 -0.0551  0.3093  0.1706
  856MOL0     C18008   4.391   3.881   1.882  0.1314 -0.3722 -0.4560
  856MOL0     C18009   4.485   3.880   1.974  0.1629 -0.3722  0.0853
  856MOL0     C18010   4.568   3.999   2.004 -0.4597  0.6306  0.2578
  856MOL0     C18011   4.713   3.988   1.951  0.1713 -0.1665  0.0279
  856MOL0     C18012   4.789   4.107   2.014 -0.2290 -0.2279 -0.0385
  856MOL0     C18013   4.919   4.128   1.935 -1.2340  0.4153 -0.5310
  856MOL0     O18014   5.031   4.151   2.020  0.3160 -0.0379 -0.1002
  856MOL0     C18015   5.138   4.217   1.964  0.2825  0.1410  0.2449
  856MOL0     C18016   5.114   4.346   1.925 -0.0702 -0.1017  0.5862
  856MOL0     C18017   5.216   4.436   1.882  0.2619  0.5051  0.1765
  856MOL0     C18018   5.179   4.579   1.840  0.0866 -0.0051 -0.4598
  856MOL0     C18019   5.344   4.380   1.864 -0.8042 -0.4751  0.3070
  856MOL0     C18020   5.462   4.459   1.829 -0.0498 -0.4468  0.2866
  856MOL0     O18021   5.579   4.384   1.827 -0.3017  0.2098  0.6488
  856MOL0     C18022   5.692   4.450   1.798  0.1746 -0.1970  0.0525
  856MOL0     C18023   5.726   4.484   1.667 -0.1804  0.7893 -0.1030
  856MOL0     C18024   5.851   4.545   1.652  0.7179 -0.4129  0.4269
  856MOL0     C18025   5.931   4.587   1.754 -0.0015  0.5360  0.4491
  856MOL0     O18026   6.044   4.659   1.733 -0.4574  0.5530 -0.3365
  856MOL0     C18027   6.110   4.645   1.607 -0.7123  0.5179 -0.4684
  856MOL0     C18028   6.254   4.662   1.643 -0.1649 -0.1393  0.2829
  856MOL0     C18029   6.302   4.540   1.716 -0.1866 -0.4747  0.0214
  856MOL0     C18030   6.444   4.568   1.785  0.7813 -0.2804 -0.5184
  856MOL0     C18031   6.545   4.609   1.671  0.3747  0.5137 -0.2201
  856MOL0     C18032   6.681   4.642   1.728 -0.1910  0.5835 -0.0129
  856MOL0     C18033   6.782   4.653   1.611  0.2296  0.3244 -0.4902
  856MOL0     C18034   6.927   4.660   1.659  0.3520  0.3763 -0.1471
  856MOL0    Cl18035   6.949   4.804   1.768 -0.2729 -0.0266  0.2756
  856MOL0     C18036   5.885   4.574   1.887  0.2078 -0.1419 -0.0420
  856MOL0     C18037   5.766   4.510   1.910 -0.4036 -0.1898  0.4335
  856MOL0     O18038   5.454   4.587   1.822 -0.7318 -1.0770  0.7882
  856MOL0     C18039   5.363   4.244   1.899 -0.4800 -0.1278 -0.2309
  856MOL0     C18040   5.261   4.164   1.958 -0.4836  0.7888 -0.1581
  856MOL0     N18041   4.470   3.770   2.054 -0.7404 -1.0153  0.3995
  856MOL0     N18042   4.374   3.701   2.021 -0.0588  0.5712 -0.0341
  856MOL0     C18043   4.890   3.582   1.078  0.8556  0.3825  0.9235
  856MOL0     C18044   4.972   3.616   0.969  0.0584 -1.0575 -0.1139
  856MOL0     C18045   5.104   3.780   0.574 -0.2248 -0.2908  0.3174
  856MOL0     C18046   5.224   3.845   0.556 -0.5300  0.5056  0.9155
  856MOL0     C18047   5.257   3.908   0.432  0.1056  0.5306  0.0584
  856MOL0     C18048   5.179   3.912   0.321  0.1236 -0.0795  1.2751
  856MOL0     O18049   5.207   3.960   0.196 -0.2678  0.1340 -0.0312
  856MOL0     C18050   5.337   4.024   0.174 -0.2460  0.8865 -0.6079
  856MOL0     C18051   5.343   4.103   0.052  0.3521  1.0128 -0.0592
  856MOL0     C18052   5.487   4.129  -0.012  0.3517 -0.1154 -0.5502
  856MOL0     C18053   5.596   4.184   0.086 -0.4095 -0.4393  0.2167
  856MOL0     C18054   5.564   4.287   0.184  0.2660  0.3297  0.5669
  856MOL0     C18055   5.536   4.381   0.256 -0.3882 -1.0601  0.6452
  856MOL0     C18056   5.054   3.854   0.343 -0.5634  0.2676 -0.8890
  856MOL0     C18057   5.012   3.786   0.462  0.7925  0.4068 -0.4420
  856MOL0     C18058   4.881   3.716   0.471  0.1690 -0.6132 -0.2788
  856MOL0     H18059   4.768   3.511   0.718  2.0080  4.6383 -2.2131
  856MOL0     H18060   4.624   3.455   0.909 -1.1984  2.6135  1.1419
  856MOL0     H18061   4.701   3.611   1.312  0.6671 -0.1092  1.6870
  856MOL0     H18062   4.816   3.474   1.318  0.7776  2.1792 -1.3719
  856MOL0     H18063   4.506   3.441   1.367  0.4468  0.7910 -2.3024
  856MOL0     H18064   4.619   3.316   1.359 -2.0343  0.0984 -0.3660
  856MOL0     H18065   4.751   3.422   1.546  0.2721 -0.9647  1.0677
  856MOL0     H18066   4.632   3.548   1.562 -0.3577 -0.4112  0.3515
  856MOL0     H18067   4.559   3.247   1.584  2.1041 -0.7102  0.7213
  856MOL0     H18068   4.609   3.347   1.711  0.7445 -2.6407 -0.2083
  856MOL0     H18069   4.356   3.323   1.685 -2.3237 -0.6610 -3.0051
  856MOL0     H18070   4.360   3.422   1.544  2.2364 -0.7709 -0.9303
  856MOL0     H18071   4.477   3.506   1.807 -0.6579  0.5363  0.8360
  856MOL0     H18072   4.432   3.600   1.657 -0.5595  1.5001  2.9514
  856MOL0     H18073   4.256   3.494   1.877  0.8590 -1.9412 -0.4918
  856MOL0     H18074   4.196   3.489   1.718 -1.8218 -3.6383  4.6990
  856MOL0     H18075   4.220   3.747   1.712  0.3003  1.0327  0.3194
  856MOL0     H18076   4.134   3.694   1.858  1.0661 -0.9402  2.5226
  856MOL0     H18077   4.371   3.957   1.807  0.9666  0.2448 -0.0748
  856MOL0     H18078   4.568   4.009   2.113 -1.2390 -1.1167  0.4605
  856MOL0     H18079   4.522   4.088   1.961 -0.3232  1.4593  1.7514
  856MOL0     H18080   4.758   3.895   1.988  1.3597 -0.3754 -1.8022
  856MOL0     H18081   4.716   3.990   1.842 -0.6409 -0.3086 -0.0011
  856MOL0     H18082   4.724   4.194   2.005  0.1070 -0.0610 -1.0995
  856MOL0     H18083   4.810   4.090   2.120  1.9712 -2.9682 -0.7773
  856MOL0     H18084   4.939   4.030   1.890 -2.7996 -1.0017  1.6585
  856MOL0     H18085   4.915   4.205   1.858  0.8750  0.1962 -0.9208
  856MOL0     H18086   5.016   4.394   1.929 -0.4711 -0.4297 -2.4261
  856MOL0     H18087   5.236   4.611   1.752 -0.1744 -1.2135 -1.0856
  856MOL0     H18088   5.196   4.651   1.921 -0.4278  0.3014 -0.6171
  856MOL0     H18089   5.076   4.590   1.805  0.8097  1.3971 -2.3466
  856MOL0     H18090   5.663   4.464   1.581 -0.3263  1.4784 -0.1698
  856MOL0     H18091   5.887   4.572   1.553 -1.2404 -1.8296 -0.7416
  856MOL0     H18092   6.093   4.549   1.558 -3.7392 -0.4207  2.0794
  856MOL0     H18093   6.068   4.725   1.545 -2.7410  0.3455  0.6165
  856MOL0     H18094   6.310   4.699   1.557 -0.4880 -0.4372 -0.0542
  856MOL0     H18095   6.260   4.747   1.713 -1.5329  1.2409 -1.1817
  856MOL0     H18096   6.314   4.462   1.641 -0.7961  0.8848 -1.5427
  856MOL0     H18097   6.227   4.514   1.791 -1.9568  0.4544 -1.3582
  856MOL0     H18098   6.480   4.483   1.844  0.2124 -0.3490 -0.2697
  856MOL0     H18099   6.433   4.661   1.841 -0.9567 -1.4243  1.1531
  856MOL0     H18100   6.555   4.528   1.598  0.7128 -2.0101  2.4718
  856MOL0     H18101   6.515   4.695   1.610 -0.1817  0.6916  0.2987
  856MOL0     H18102   6.715   4.559   1.791  0.1617 -0.3866 -1.4181
  856MOL0     H18103   6.674   4.736   1.782  1.5988  1.6809 -1.5693
  856MOL0     H18104   6.773   4.733   1.538  4.2442 -0.0269 -1.6081
  856MOL0     H18105   6.780   4.560   1.553 -3.1820 -0.7320  1.0693
  856MOL0     H18106   6.998   4.649   1.576 -0.3085  0.6089 -0.7499
  856MOL0     H18107   6.942   4.574   1.725 -2.4588  1.8591  2.6970
  856MOL0     H18108   5.948   4.610   1.967 -1.3170 -1.2017  1.7245
  856MOL0     H18109   5.726   4.499   2.010 -1.5693  0.2159  0.0344
  856MOL0     H18110   5.460   4.194   1.895 -0.5220 -0.1511 -1.5831
  856MOL0     H18111   5.286   4.066   1.997  3.3423  2.3992  2.0484
  856MOL0     H18112   4.924   3.605   1.179 -0.5312  3.1618  0.8474
  856MOL0     H18113   5.056   3.680   0.994 -0.0545  0.1730 -2.6353
  856MOL0     H18114   5.307   3.854   0.625  2.0317 -1.0047 -1.7642
  856MOL0     H18115   5.361   3.941   0.431  0.5224 -0.4487  2.4047
  856MOL0     H18116   5.363   4.097   0.251 -0.1858 -0.8955  1.1253
  856MOL0     H18117   5.414   3.946   0.176 -0.3845  0.7577 -0.3814
  856MOL0     H18118   5.309   4.205   0.072  0.0756  0.9796 -0.3483
  856MOL0     H18119   5.274   4.056  -0.019  0.1551  1.5576 -0.2396
  856MOL0     H18120   5.525   4.040  -0.063 -2.7198 -1.1108 -1.3400
  856MOL0     H18121   5.477   4.200  -0.095  1.1142 -1.5631 -1.9630
  856MOL0     H18122   5.680   4.234   0.035 -2.1913  2.9876  0.3472
  856MOL0     H18123   5.626   4.106   0.156 -2.6193  0.1496  1.9102
  856MOL0     H18124   5.503   4.457   0.324 -0.2823  1.1113 -1.5613
  856MOL0     H18125   4.989   3.851   0.256  0.0822  1.9078 -1.4760
  856MOL0     H18126   4.811   3.750   0.549 -0.5089  0.3094 -1.2566
  856MOL0     H18127   4.829   3.723   0.375  2.3338  0.4004 -1.4458
  856MOL0     H18128   4.894   3.609   0.492 -0.6237 -0.1389  3.2706
  857MOL0     O18129   0.623   5.108   8.232 -0.4957  0.6285 -0.2724
  857MOL0     C18130   0.633   5.183   8.332 -0.0286 -0.8729 -0.0651
  857MOL0     O18131   0.536   5.286   8.358  0.1215  0.2878 -0.3324
  857MOL0     C18132   0.429   5.284   8.270 -0.1995  0.8605 -0.5342
  857MOL0     C18133   0.425   5.366   8.157 -0.0091  0.4543  0.6744
  857MOL0     C18134   0.319   5.360   8.070  0.8988 -0.1698  0.3019
  857MOL0     C18135   0.206   5.287   8.106 -0.5251  0.3667 -0.2296
  857MOL0     O18136   0.090   5.296   8.030 -0.6537  0.7327 -0.6996
  857MOL0     C18137   0.068   5.384   7.924 -0.4078  0.0749 -0.0653
  857MOL0     C18138  -0.082   5.381   7.883 -0.6167  0.8575 -0.2448
  857MOL0     C18139  -0.133   5.242   7.845  0.2518 -0.4145 -0.2449
  857MOL0     C18140  -0.266   5.247   7.770 -0.3693 -0.8515 -0.3844
  857MOL0     C18141  -0.352   5.120   7.782 -0.4403  0.6088 -0.3017
  857MOL0     C18142  -0.415   5.108   7.924  0.1148 -0.7663  0.4967
  857MOL0     C18143  -0.516   4.991   7.916  0.0995 -0.4039 -0.1141
  857MOL0     C18144  -0.582   4.952   8.048  0.1804 -0.3880 -0.0349
  857MOL0     N18145  -0.491   4.878   8.135 -0.5278 -0.3485  0.5093
  857MOL0     C18146  -0.386   4.933   8.207  0.4854  0.1100 -0.1191
  857MOL0     C18147  -0.330   4.822   8.265  0.8242  0.2644  0.6619
  857MOL0     C18148  -0.206   4.827   8.347  0.0516 -0.4574  0.6759
  857MOL0     C18149  -0.222   4.906   8.479  0.7847  0.1668  0.0954
  857MOL0     C18150  -0.100   4.868   8.566  0.2662 -0.0082 -0.5287
  857MOL0     C18151   0.025   4.946   8.530  0.4759  0.5421  1.0635
  857MOL0     O18152   0.002   5.089   8.519 -0.3341 -0.3382 -0.4999
  857MOL0     C18153   0.060   5.169   8.611 -0.4113  0.1789  0.2367
  857MOL0     C18154   0.099   5.295   8.571 -0.3665  0.0185 -0.5674
  857MOL0     C18155   0.175   5.376   8.658 -0.0594 -0.1942  0.0972
  857MOL0     C18156   0.220   5.515   8.618  0.6083 -0.1341  0.5518
  857MOL0     C18157   0.207   5.322   8.789 -0.3479 -0.3700  0.8319
  857MOL0     C18158   0.281   5.406   8.884 -0.4019 -1.0030  0.5298
  857MOL0     O18159   0.370   5.500   8.842 -0.1204 -0.3095  0.1766
  857MOL0     C18160   0.424   5.599   8.918 -1.0841  0.2161 -0.4358
  857MOL0     C18161   0.344   5.675   9.005  0.2966  0.2974  1.0855
  857MOL0     C18162   0.399   5.783   9.080  0.7377  0.4335 -0.1607
  857MOL0     C18163   0.532   5.813   9.058  0.7897  0.2443  0.8313
  857MOL0     O18164   0.585   5.929   9.115 -0.1761  0.2905  0.7662
  857MOL0     C18165   0.689   5.909   9.214  0.3946  0.0891 -0.5339
  857MOL0     C18166   0.688   6.049   9.289 -0.4513  0.2802  0.0992
  857MOL0     C18167   0.811   6.064   9.375 -0.3423  0.7587  1.2174
  857MOL0     C18168   0.932   6.121   9.288  0.3824  0.3879 -0.8504
  857MOL0     C18169   1.059   6.121   9.372  0.5371  0.4008 -0.9735
  857MOL0     C18170   1.182   6.182   9.300  0.3198  0.4891  0.1978
  857MOL0     C18171   1.315   6.163   9.377  0.6317 -0.8856  0.5557
  857MOL0     C18172   1.434   6.218   9.302  0.2131 -0.0541 -0.7316
  857MOL0    Cl18173   1.590   6.203   9.389 -0.2110 -0.0502  0.1208
  857MOL0     C18174   0.616   5.739   8.979 -0.0796  0.2226 -0.6525
  857MOL0     C18175   0.567   5.624   8.909  0.6099  0.9687 -0.2894
  857MOL0     O18176   0.268   5.382   9.003 -0.1886 -0.0327 -0.3452
  857MOL0     C18177   0.169   5.196   8.818  0.0171  0.1264 -0.2078
  857MOL0     C18178   0.087   5.120   8.740 -0.4183  0.1158 -0.6400
  857MOL0     N18179  -0.405   4.704   8.230 -0.2480 -0.1073  0.2600
  857MOL0     N18180  -0.492   4.743   8.145  0.3342  0.3779  1.0144
  857MOL0     C18181   0.211   5.208   8.220  0.5037  0.5680 -0.1775
  857MOL0     C18182   0.318   5.195   8.302  0.5192 -0.0837  0.1777
  857MOL0     C18183   0.744   5.163   8.430 -0.1228  0.3901  0.0074
  857MOL0     C18184   0.845   5.063   8.401  0.6644  0.7086 -0.4332
  857MOL0     C18185   0.941   5.016   8.498 -0.2712 -0.2208 -0.3020
  857MOL0     C18186   0.947   5.080   8.616 -0.0741 -0.0761  0.2767
  857MOL0     O18187   1.041   5.028   8.699 -0.8107 -0.3304 -0.2440
  857MOL0     C18188   1.051   5.089   8.832 -0.3223  0.0488 -0.3423
  857MOL0     C18189   1.158   5.014   8.918 -0.1298 -0.7095  0.0240
  857MOL0     C18190   1.213   5.123   9.022 -0.2305  0.7841  0.5150
  857MOL0     C18191   1.341   5.058   9.090  0.2822  0.2722  0.0264
  857MOL0     C18192   1.412   5.143   9.181 -0.5605 -0.4123  0.8526
  857MOL0     C18193   1.471   5.215   9.255  0.6115 -0.8936 -0.3140
  857MOL0     C18194   0.854   5.182   8.645  0.0580  0.8671 -0.2865
  857MOL0     C18195   0.750   5.219   8.559 -0.5603  0.8769  0.6047
  857MOL0     C18196   0.662   5.328   8.602  0.0674 -0.1775 -0.2865
  857MOL0     H18197   0.499   5.444   8.150 -1.2067  1.4938 -1.1647
  857MOL0     H18198   0.313   5.446   8.005 -0.7180 -0.2483  0.3125
  857MOL0     H18199   0.134   5.358   7.841  0.5157 -0.0900  0.7022
  857MOL0     H18200   0.087   5.486   7.959 -1.2526  0.3450 -0.3594
  857MOL0     H18201  -0.141   5.430   7.962  1.2335  0.4858  1.4444
  857MOL0     H18202  -0.085   5.433   7.787  0.5522  0.0768 -0.7163
  857MOL0     H18203  -0.067   5.189   7.775 -2.7035 -0.9404 -2.8851
  857MOL0     H18204  -0.147   5.197   7.943 -0.4333  1.1999  0.4228
  857MOL0     H18205  -0.323   5.337   7.799  0.2249 -0.9479  1.1506
  857MOL0     H18206  -0.248   5.257   7.662 -1.6806  2.3097 -0.4454
  857MOL0     H18207  -0.289   5.034   7.760  0.2757 -0.1542  3.8135
  857MOL0     H18208  -0.441   5.112   7.719 -0.9966  1.2451  0.3745
  857MOL0     H18209  -0.332   5.089   7.992  0.7915 -1.0370 -0.3781
  857MOL0     H18210  -0.464   5.199   7.959  0.4681 -1.3694  2.6805
  857MOL0     H18211  -0.459   4.902   7.889  1.5665  0.0595  1.2647
  857MOL0     H18212  -0.590   5.012   7.838 -0.2847  0.9520  0.5749
  857MOL0     H18213  -0.606   5.052   8.085  3.0343  0.3586  0.0094
  857MOL0     H18214  -0.671   4.890   8.035 -0.4616  0.3511  0.6793
  857MOL0     H18215  -0.359   5.037   8.222  2.0972 -0.1559 -0.9724
  857MOL0     H18216  -0.116   4.859   8.294 -1.1970  0.4705 -1.0104
  857MOL0     H18217  -0.193   4.723   8.378  0.0308 -0.2740  1.3208
  857MOL0     H18218  -0.239   5.013   8.464 -1.0830  0.3996  2.9487
  857MOL0     H18219  -0.311   4.860   8.522  0.7385 -0.9102 -1.1265
  857MOL0     H18220  -0.120   4.906   8.666  1.4192 -0.3717 -0.1553
  857MOL0     H18221  -0.093   4.759   8.575 -0.7395 -0.0172  0.4058
  857MOL0     H18222   0.105   4.914   8.598 -0.0786  0.2613  1.5859
  857MOL0     H18223   0.054   4.904   8.433 -0.3387  1.9705  0.1738
  857MOL0     H18224   0.077   5.337   8.474 -0.9695 -0.4115 -0.6273
  857MOL0     H18225   0.186   5.584   8.696 -0.0846  0.6626 -0.4187
  857MOL0     H18226   0.181   5.537   8.518 -0.0696 -1.7624  0.4351
  857MOL0     H18227   0.328   5.515   8.605  0.5398  0.2347 -0.0765
  857MOL0     H18228   0.239   5.648   9.011 -0.7072  3.5679  0.2608
  857MOL0     H18229   0.336   5.843   9.144 -0.2121 -1.0577  0.3424
  857MOL0     H18230   0.674   5.834   9.292  3.0945  0.1265  0.1535
  857MOL0     H18231   0.785   5.885   9.167 -0.4783 -1.8657 -1.3827
  857MOL0     H18232   0.680   6.134   9.220 -2.5969  0.9642  1.1248
  857MOL0     H18233   0.595   6.060   9.344 -1.4350 -1.1419 -1.1842
  857MOL0     H18234   0.849   5.968   9.412  1.7532  0.4408 -1.4254
  857MOL0     H18235   0.781   6.130   9.456 -0.5643 -0.0163  1.7764
  857MOL0     H18236   0.905   6.223   9.260  1.8539  0.9234 -0.4005
  857MOL0     H18237   0.933   6.050   9.205 -1.6459  0.0736 -0.6724
  857MOL0     H18238   1.039   6.176   9.464  0.2800  0.7383 -1.2262
  857MOL0     H18239   1.078   6.016   9.393 -1.1076 -0.0329 -1.5080
  857MOL0     H18240   1.164   6.288   9.281 -1.2577  0.4519  1.3917
  857MOL0     H18241   1.204   6.140   9.201 -0.4795 -1.5683  0.8383
  857MOL0     H18242   1.332   6.056   9.397 -1.3483 -0.7258  3.7489
  857MOL0     H18243   1.307   6.212   9.474 -0.6141  3.2814 -1.4447
  857MOL0     H18244   1.429   6.326   9.287  1.0185  0.2520  1.0149
  857MOL0     H18245   1.445   6.176   9.201  2.2065  0.4495 -0.7736
  857MOL0     H18246   0.722   5.759   8.976 -0.0750  0.5674  0.7401
  857MOL0     H18247   0.625   5.568   8.836 -0.8357  0.3831 -1.0444
  857MOL0     H18248   0.196   5.150   8.912 -0.9484  0.5537  0.2877
  857MOL0     H18249   0.077   5.021   8.782  2.6350  1.1205  3.0937
  857MOL0     H18250   0.114   5.173   8.253 -0.3063  1.6762 -1.3303
  857MOL0     H18251   0.318   5.138   8.395  0.9729 -1.6591 -0.7612
  857MOL0     H18252   0.860   5.009   8.308  0.4708  2.4828 -1.5438
  857MOL0     H18253   0.998   4.924   8.486  0.2759 -0.1235  1.2322
  857MOL0     H18254   1.080   5.192   8.814  0.4255 -0.0848  0.0844
  857MOL0     H18255   0.952   5.076   8.877 -1.2179 -2.7380 -2.7925
  857MOL0     H18256   1.241   4.978   8.856  1.2452 -0.1690  1.4722
  857MOL0     H18257   1.109   4.931   8.969 -2.1377  1.2510  1.5022
  857MOL0     H18258   1.236   5.219   8.974  0.8445  1.0214  1.4685
  857MOL0     H18259   1.138   5.140   9.100 -0.9019  0.5542 -0.0616
  857MOL0     H18260   1.403   5.041   9.002  2.0028 -0.6038  1.3725
  857MOL0     H18261   1.308   4.967   9.140  1.4484  0.2088  0.7045
  857MOL0     H18262   1.516   5.290   9.317  0.1160 -1.1183  0.3259
  857MOL0     H18263   0.858   5.231   8.742  0.6452 -0.6238  0.4870
  857MOL0     H18264   0.702   5.371   8.695 -1.2568 -1.6802  1.0440
  857MOL0     H18265   0.660   5.406   8.526  0.7170  1.1091  0.9745
  857MOL0     H18266   0.562   5.296   8.634  1.0004 -1.4524  1.6047
  858MOL0     O18267   7.747   0.936   5.825  0.3191 -0.3372 -0.2495
  858MOL0     C18268   7.648   1.003   5.814 -0.4439  0.0813 -0.0202
  858MOL0     O18269   7.658   1.136   5.784  0.0481 -0.3586 -0.4968
  858MOL0     C18270   7.769   1.208   5.824  0.4564 -0.3667  0.5112
  858MOL0     C18271   7.807   1.304   5.724 -0.3976  0.1109  0.0527
  858MOL0     C18272   7.906   1.396   5.759 -0.6227 -0.2740 -0.4130
  858MOL0     C18273   7.978   1.377   5.878 -0.2866 -0.1494 -0.8809
  858MOL0     O18274   8.096   1.453   5.904 -0.4734  0.3509  0.5328
  858MOL0     C18275   8.222   1.400   5.850 -0.8228 -0.1897  0.1159
  858MOL0     C18276   8.326   1.501   5.869  0.1634 -0.4572 -0.4336
  858MOL0     C18277   8.474   1.454   5.864  0.0208  0.6380 -0.4456
  858MOL0     C18278   8.558   1.495   5.994 -1.1083 -0.1321 -0.5948
  858MOL0     C18279   8.710   1.455   5.987  0.1667 -0.6805  0.1396
  858MOL0     C18280   8.795   1.498   6.107  0.3924 -0.1342 -0.6424
  858MOL0     C18281   8.946   1.489   6.079 -0.3560 -1.1333 -1.3865
  858MOL0     C18282   9.046   1.483   6.204  0.0157 -0.1415 -0.0362
  858MOL0     N18283   9.178   1.470   6.133  0.0268 -0.1621 -0.1580
  858MOL0     C18284   9.255   1.582   6.112 -0.2654 -0.6237  0.1488
  858MOL0     C18285   9.375   1.540   6.068  1.0357 -1.0466  0.0090
  858MOL0     C18286   9.498   1.630   6.045 -0.3622  0.9962  0.0399
  858MOL0     C18287   9.613   1.556   5.979 -0.8827  0.2352  0.0775
  858MOL0     C18288   9.581   1.543   5.831  0.5833  0.6853  0.0297
  858MOL0     C18289   9.678   1.440   5.768 -0.0471 -0.9952 -0.0668
  858MOL0     O18290   9.657   1.423   5.626 -0.7525 -0.4723  0.1854
  858MOL0     C18291   9.550   1.356   5.582  0.1878 -0.4676 -0.3624
  858MOL0     C18292   9.537   1.337   5.443 -0.7611  0.1813  0.1428
  858MOL0     C18293   9.427   1.271   5.384  0.1642  1.2285 -0.2199
  858MOL0     C18294   9.422   1.270   5.236  0.0050  0.4721  0.2261
  858MOL0     C18295   9.333   1.211   5.475  1.0583  0.1595 -0.0773
  858MOL0     C18296   9.211   1.130   5.435 -0.8348 -0.2081 -0.2854
  858MOL0     O18297   9.113   1.101   5.524 -0.6956  0.5021 -0.1162
  858MOL0     C18298   9.017   1.011   5.477 -0.4030 -0.7824 -0.8906
  858MOL0     C18299   9.022   0.873   5.492 -0.9466  0.0692 -0.0245
  858MOL0     C18300   8.914   0.790   5.454  1.1276 -0.4661 -0.8202
  858MOL0     C18301   8.793   0.849   5.398  0.0708  0.3763 -0.9155
  858MOL0     O18302   8.679   0.782   5.364 -0.6021 -0.1533 -0.7620
  858MOL0     C18303   8.675   0.642   5.404 -0.0143 -0.8043  0.5713
  858MOL0     C18304   8.533   0.590   5.410  0.1476 -0.2496  0.5275
  858MOL0     C18305   8.426   0.692   5.438 -0.4399 -0.6679  0.2587
  858MOL0     C18306   8.288   0.618   5.457  0.7504 -0.2402  0.1114
  858MOL0     C18307   8.182   0.703   5.530  0.5247  0.1177  0.0809
  858MOL0     C18308   8.044   0.630   5.509  0.0702  1.1273 -0.3292
  858MOL0     C18309   7.931   0.710   5.573  0.1970 -0.0652  0.2668
  858MOL0     C18310   7.812   0.619   5.612 -0.1807  0.2304  0.5207
  858MOL0    Cl18311   7.860   0.496   5.738 -0.1617 -0.0417  0.0876
  858MOL0     C18312   8.796   0.987   5.386  0.2057 -1.0324 -1.1647
  858MOL0     C18313   8.906   1.073   5.415  0.4491  0.2215  0.5720
  858MOL0     O18314   9.213   1.092   5.315 -0.5968  0.6308 -0.2545
  858MOL0     C18315   9.354   1.212   5.611  0.5157 -0.8828  0.2242
  858MOL0     C18316   9.465   1.287   5.669  1.2518  0.1620  1.0266
  858MOL0     N18317   9.368   1.404   6.067  0.5166  0.4818  0.5698
  858MOL0     N18318   9.251   1.360   6.108  0.5193  0.7447 -0.0061
  858MOL0     C18319   7.932   1.289   5.980 -0.6231  0.0338  0.0007
  858MOL0     C18320   7.829   1.201   5.953  0.1427 -0.3132 -0.0933
  858MOL0     C18321   7.518   0.927   5.788  0.6468  0.0707 -0.2165
  858MOL0     C18322   7.503   0.792   5.818 -0.6942  0.6248  0.6144
  858MOL0     C18323   7.393   0.711   5.805  0.5428 -0.4033 -1.1911
  858MOL0     C18324   7.267   0.766   5.749 -0.3174 -0.4797 -0.1309
  858MOL0     O18325   7.165   0.674   5.724  0.3395 -0.8388  0.1152
  858MOL0     C18326   7.049   0.737   5.668  0.1387  0.6378  0.4307
  858MOL0     C18327   6.961   0.631   5.605 -0.7716 -0.0656  0.3968
  858MOL0     C18328   6.840   0.695   5.547 -0.2089  0.9237 -0.5540
  858MOL0     C18329   6.735   0.592   5.501 -0.7137 -0.8522  0.4555
  858MOL0     C18330   6.656   0.658   5.394  0.0228  0.0640  1.7245
  858MOL0     C18331   6.624   0.718   5.292  0.3579 -0.2325  0.2061
  858MOL0     C18332   7.278   0.901   5.714  1.0164  1.0307  0.3705
  858MOL0     C18333   7.400   0.979   5.725  0.8284  0.2850  0.4193
  858MOL0     C18334   7.392   1.125   5.686 -0.1181  0.8826  0.1043
  858MOL0     H18335   7.775   1.307   5.621  0.1100 -0.3811 -0.1243
  858MOL0     H18336   7.946   1.471   5.690  0.4819  1.1702  1.6763
  858MOL0     H18337   8.218   1.387   5.742 -1.2626  0.8257  0.0029
  858MOL0     H18338   8.245   1.303   5.895 -2.2974 -1.1136 -1.0165
  858MOL0     H18339   8.320   1.590   5.806  0.7532 -0.0960  0.0082
  858MOL0     H18340   8.322   1.538   5.972  0.9604  0.7913 -0.8235
  858MOL0     H18341   8.482   1.345   5.851  2.7570  0.8800 -1.5885
  858MOL0     H18342   8.525   1.501   5.780 -1.3793 -2.0877 -3.0367
  858MOL0     H18343   8.553   1.601   6.019  0.7943 -0.7211  2.9137
  858MOL0     H18344   8.510   1.439   6.075  0.6599 -2.8244 -1.2662
  858MOL0     H18345   8.749   1.503   5.896 -1.1081 -2.2114 -1.2781
  858MOL0     H18346   8.725   1.347   5.980 -0.8770 -0.8351  0.0475
  858MOL0     H18347   8.778   1.606   6.120  0.3611 -0.0754 -1.1455
  858MOL0     H18348   8.760   1.439   6.191 -2.8091 -0.4207 -2.0382
  858MOL0     H18349   8.971   1.574   6.015 -1.6171 -1.2464 -2.0685
  858MOL0     H18350   8.974   1.397   6.025  1.3153 -2.5310  1.6155
  858MOL0     H18351   9.031   1.568   6.271 -1.2501 -0.1413 -0.2942
  858MOL0     H18352   9.024   1.401   6.273  3.7084  1.4465  3.4146
  858MOL0     H18353   9.227   1.683   6.139  2.3770 -0.3549  2.2150
  858MOL0     H18354   9.527   1.663   6.145 -0.2138  0.6243  0.1219
  858MOL0     H18355   9.475   1.729   6.007  1.0569  1.5536  0.5502
  858MOL0     H18356   9.703   1.612   6.007 -1.0115 -0.9773  3.3314
  858MOL0     H18357   9.624   1.457   6.025  0.8294  0.7134  0.8032
  858MOL0     H18358   9.479   1.504   5.827  1.6091 -3.1441  3.7943
  858MOL0     H18359   9.589   1.634   5.771 -0.1267 -2.0964 -4.8301
  858MOL0     H18360   9.773   1.492   5.788 -1.3423  1.8880 -0.8074
  858MOL0     H18361   9.674   1.348   5.827 -4.5005 -0.2654  1.1630
  858MOL0     H18362   9.612   1.379   5.376 -1.1430 -1.4493 -1.3892
  858MOL0     H18363   9.407   1.167   5.203  1.0729  0.5390 -0.5253
  858MOL0     H18364   9.516   1.300   5.190  1.1406 -1.2472  1.3181
  858MOL0     H18365   9.333   1.326   5.204 -0.2613 -1.3030 -2.4947
  858MOL0     H18366   9.114   0.831   5.530 -1.4695 -0.7606  0.3494
  858MOL0     H18367   8.926   0.684   5.474 -0.4008 -0.3991  0.6955
  858MOL0     H18368   8.743   0.586   5.340  0.4385 -0.8789  1.1122
  858MOL0     H18369   8.711   0.641   5.507  3.0459 -2.1023 -0.3893
  858MOL0     H18370   8.517   0.525   5.324 -0.4754  0.0846  0.3822
  858MOL0     H18371   8.535   0.513   5.488 -2.6579 -3.0226 -1.8681
  858MOL0     H18372   8.419   0.753   5.347  1.9982 -2.6545 -1.3876
  858MOL0     H18373   8.435   0.749   5.531 -0.9917 -2.3126  1.3575
  858MOL0     H18374   8.305   0.524   5.510  1.5901 -1.8624 -2.7968
  858MOL0     H18375   8.244   0.585   5.363  0.6454 -1.0666  0.4452
  858MOL0     H18376   8.207   0.716   5.636  1.0862  3.8301 -0.3758
  858MOL0     H18377   8.171   0.800   5.482  1.2503  0.1152 -0.1004
  858MOL0     H18378   8.039   0.529   5.549 -4.0452  1.0149 -0.7257
  858MOL0     H18379   8.014   0.619   5.404 -1.6567 -1.1939  0.3413
  858MOL0     H18380   7.897   0.786   5.502  0.5420 -0.2869 -0.1415
  858MOL0     H18381   7.963   0.759   5.665 -0.4394 -1.2469  1.1474
  858MOL0     H18382   7.766   0.567   5.528 -0.4961 -0.1802  0.9434
  858MOL0     H18383   7.728   0.679   5.648 -2.0845 -2.2897  0.5622
  858MOL0     H18384   8.710   1.038   5.343  0.6538  3.0607  2.1464
  858MOL0     H18385   8.894   1.181   5.403  1.2854  0.5727  2.6195
  858MOL0     H18386   9.295   1.167   5.690 -1.0355 -0.6923 -0.7924
  858MOL0     H18387   9.468   1.299   5.777 -1.3920  4.1653  0.8452
  858MOL0     H18388   7.985   1.270   6.072 -3.4117 -3.0431  1.1780
  858MOL0     H18389   7.784   1.139   6.030 -0.7015  1.2121  0.7067
  858MOL0     H18390   7.573   0.720   5.859 -3.1008 -1.4784  1.2635
  858MOL0     H18391   7.391   0.609   5.841  3.8662 -0.7903 -1.8226
  858MOL0     H18392   6.990   0.789   5.744 -1.3673 -1.2738  0.6454
  858MOL0     H18393   7.074   0.805   5.586 -0.2301 -0.7879 -0.9155
  858MOL0     H18394   6.924   0.555   5.674  0.6715  0.8160  2.2493
  858MOL0     H18395   7.022   0.583   5.527 -3.4431 -0.9910 -1.2619
  858MOL0     H18396   6.794   0.768   5.614 -0.4197 -1.1295  1.6709
  858MOL0     H18397   6.880   0.740   5.455  0.9496 -0.1460 -0.5967
  858MOL0     H18398   6.672   0.572   5.588 -0.6113  1.7125  1.2233
  858MOL0     H18399   6.779   0.503   5.455 -0.8971  0.3991 -2.3796
  858MOL0     H18400   6.604   0.759   5.195 -0.6714 -2.8326 -0.7876
  858MOL0     H18401   7.207   0.958   5.656 -0.8204 -1.1209  0.3519
  858MOL0     H18402   7.300   1.155   5.635  0.7900  0.6580 -1.7607
  858MOL0     H18403   7.398   1.191   5.774 -1.2701 -0.4665  1.2258
  858MOL0     H18404   7.481   1.142   5.625  0.0537 -2.2335 -0.6694
  859MOL0     O18405   1.842  11.265  10.025 -0.0594  0.0673 -0.2113
  859MOL0     C18406   1.852  11.323  10.133  0.3364  0.1653  0.1493
  859MOL0     O18407   1.762  11.415  10.189 -0.0294  0.0428  0.0425
  859MOL0     C18408   1.635  11.424  10.139  0.5461 -0.6441  0.0021
  859MOL0     C18409   1.540  11.482  10.226  0.1708  1.4064 -0.3249
  859MOL0     C18410   1.411  11.511  10.193  0.4919 -0.6315  0.2662
  859MOL0     C18411   1.368  11.490  10.061 -0.8231  0.7616  0.7362
  859MOL0     O18412   1.241  11.539  10.030 -0.3150 -0.1082  0.1148
  859MOL0     C18413   1.209  11.550   9.887  0.7373 -0.8900 -0.5898
  859MOL0     C18414   1.065  11.622   9.878 -0.5544  0.1086  0.3031
  859MOL0     C18415   1.045  11.740   9.985  0.0881 -0.6632  0.2392
  859MOL0     C18416   0.907  11.799   9.969  0.4228 -0.5298  0.8725
  859MOL0     C18417   0.916  11.907   9.849  0.8261  0.0921  0.0729
  859MOL0     C18418   0.798  11.985   9.848  0.2804 -0.3232 -0.1201
  859MOL0     C18419   0.668  11.917   9.808 -1.2005  0.7973 -0.6852
  859MOL0     C18420   0.551  12.015   9.814 -0.5948  0.3217  0.4592
  859MOL0     N18421   0.417  11.949   9.778 -0.5672  1.0541 -0.3013
  859MOL0     C18422   0.296  12.008   9.792 -0.0669  0.1216 -0.9689
  859MOL0     C18423   0.202  11.912   9.791  0.8460 -0.0197  0.4245
  859MOL0     C18424   0.051  11.930   9.820  0.2278  1.3194  0.2353
  859MOL0     C18425   0.017  12.059   9.902 -0.6632 -0.4159  0.2184
  859MOL0     C18426   0.031  12.038  10.054  0.0613  0.0765 -0.0367
  859MOL0     C18427   0.171  12.054  10.110  0.1562  0.0295 -0.2361
  859MOL0     O18428   0.216  12.186  10.072 -0.6448  0.1072  0.5695
  859MOL0     C18429   0.353  12.208  10.062 -0.3537 -0.7936 -0.2030
  859MOL0     C18430   0.436  12.157  10.150  0.0532  0.7361 -0.2088
  859MOL0     C18431   0.568  12.198  10.160 -0.8562  0.1895  0.1502
  859MOL0     C18432   0.652  12.116  10.254  0.3857 -0.6358 -0.9904
  859MOL0     C18433   0.617  12.308  10.085  0.5958  0.4161 -0.0257
  859MOL0     C18434   0.768  12.340  10.078 -0.5141  0.1354 -0.2218
  859MOL0     O18435   0.790  12.452  10.002  0.5026  0.3328  0.3000
  859MOL0     C18436   0.919  12.476   9.968 -0.5032 -0.2998  0.1300
  859MOL0     C18437   1.020  12.497  10.063 -0.1153 -0.3242 -0.8125
  859MOL0     C18438   1.154  12.530  10.038  0.6932 -0.2569  0.5000
  859MOL0     C18439   1.180  12.559   9.903 -0.3691  0.6217  0.0735
  859MOL0     O18440   1.305  12.595   9.850 -0.0840  0.0994 -0.1102
  859MOL0     C18441   1.368  12.703   9.924  0.1747 -0.9738 -0.8024
  859MOL0     C18442   1.484  12.763   9.846 -0.5882  0.3577 -0.2444
  859MOL0     C18443   1.585  12.659   9.796 -1.1111  0.2551 -0.4321
  859MOL0     C18444   1.728  12.718   9.798 -0.1894  0.4750  0.3346
  859MOL0     C18445   1.835  12.610   9.783  0.0890  0.1884  0.1301
  859MOL0     C18446   1.973  12.671   9.810  0.7639 -0.9564  0.7169
  859MOL0     C18447   2.089  12.571   9.783  0.4389 -0.7800  0.3171
  859MOL0     C18448   2.206  12.586   9.870  0.2212  0.0575 -0.1430
  859MOL0    Cl18449   2.269  12.753   9.877 -0.2104 -0.2806  0.4563
  859MOL0     C18450   1.085  12.546   9.804  0.2807  0.0356  1.3901
  859MOL0     C18451   0.956  12.506   9.834 -0.2821 -0.4289 -0.4228
  859MOL0     O18452   0.854  12.258  10.110  0.2094 -0.0474  0.1679
  859MOL0     C18453   0.526  12.368   9.997  0.7734 -0.2228  0.1933
  859MOL0     C18454   0.394  12.319   9.979 -0.8217  0.9112  0.0312
  859MOL0     N18455   0.264  11.791   9.784  0.1597  0.6805 -0.2437
  859MOL0     N18456   0.395  11.811   9.778  0.2315  0.2780  0.4791
  859MOL0     C18457   1.459  11.435   9.970  0.1285 -0.8188 -0.2716
  859MOL0     C18458   1.596  11.408  10.001  0.1764  0.4076  0.0860
  859MOL0     C18459   1.977  11.303  10.208 -0.8199 -0.6485 -0.4187
  859MOL0     C18460   1.977  11.346  10.342 -0.2908  0.5683  0.7077
  859MOL0     C18461   2.090  11.322  10.420  0.6330  0.6137 -0.1325
  859MOL0     C18462   2.200  11.247  10.377  0.3366 -0.0275 -0.2141
  859MOL0     O18463   2.304  11.238  10.467 -0.0114 -0.0553 -0.1342
  859MOL0     C18464   2.288  11.136  10.561 -0.5573  1.2636 -0.0114
  859MOL0     C18465   2.364  11.004  10.541  0.8689 -0.4623  0.3773
  859MOL0     C18466   2.516  11.015  10.559  0.1743  0.2542  0.2218
  859MOL0     C18467   2.590  11.127  10.476  0.3128 -0.3970 -0.7891
  859MOL0     C18468   2.737  11.126  10.487  0.8727 -0.1333 -0.5697
  859MOL0     C18469   2.857  11.122  10.486 -1.0547  0.8643 -0.1564
  859MOL0     C18470   2.195  11.209  10.243 -0.2846  0.3483 -0.7163
  859MOL0     C18471   2.094  11.237  10.158  0.0677  0.5960 -0.3614
  859MOL0     C18472   2.112  11.207  10.011 -0.3367  0.1971 -1.0187
  859MOL0     H18473   1.565  11.485  10.331 -4.7606 -2.3894  1.3599
  859MOL0     H18474   1.338  11.550  10.264  0.3138  0.5116 -0.5093
  859MOL0     H18475   1.203  11.455   9.831  2.4915  0.1805 -2.7550
  859MOL0     H18476   1.281  11.618   9.841  0.8236 -1.6958 -1.6995
  859MOL0     H18477   1.066  11.665   9.778 -0.7150 -1.5210 -0.4181
  859MOL0     H18478   0.994  11.539   9.878 -0.6406  0.1739 -0.5272
  859MOL0     H18479   1.050  11.678  10.075 -0.7509 -1.3790 -0.1887
  859MOL0     H18480   1.125  11.814   9.990 -1.3294  0.8469  1.6381
  859MOL0     H18481   0.833  11.722   9.947  3.3361 -3.9677  2.1135
  859MOL0     H18482   0.866  11.859  10.052 -1.9751  1.6519 -1.6848
  859MOL0     H18483   0.951  11.867   9.753  2.0226  1.2493 -0.0032
  859MOL0     H18484   1.000  11.971   9.878 -0.5448  2.2607 -0.4583
  859MOL0     H18485   0.785  12.034   9.946  3.5718  0.5001  0.0250
  859MOL0     H18486   0.823  12.066   9.779  2.9933  0.4829  1.6429
  859MOL0     H18487   0.651  11.830   9.872 -0.4457  0.2331 -1.2307
  859MOL0     H18488   0.688  11.884   9.706  0.7480 -4.0262  0.9449
  859MOL0     H18489   0.544  12.057   9.915 -1.4190 -1.3040  1.1072
  859MOL0     H18490   0.571  12.100   9.748 -0.1183  1.8648  2.4798
  859MOL0     H18491   0.276  12.114   9.797  0.2589  0.1104  1.4269
  859MOL0     H18492   0.015  11.843   9.875 -0.0870  0.9334 -0.5604
  859MOL0     H18493  -0.009  11.931   9.728 -1.1562 -2.6273  0.9015
  859MOL0     H18494   0.084  12.134   9.860 -0.9139  0.5855  1.5307
  859MOL0     H18495  -0.088  12.089   9.897 -0.6199  0.5750  3.0806
  859MOL0     H18496  -0.026  12.117  10.105 -0.3132  0.8216 -1.5365
  859MOL0     H18497  -0.017  11.942  10.075  0.6530 -0.0058  1.0015
  859MOL0     H18498   0.168  12.039  10.218  0.6638  2.1380  0.1216
  859MOL0     H18499   0.237  11.973  10.080  0.4307 -0.2928  1.1948
  859MOL0     H18500   0.397  12.076  10.211  0.0830  1.7196  1.1801
  859MOL0     H18501   0.721  12.177  10.313 -0.0535 -2.7984  1.9567
  859MOL0     H18502   0.717  12.048  10.197  0.3109 -0.3266 -1.4542
  859MOL0     H18503   0.595  12.065  10.332  3.7519 -0.8439  1.5666
  859MOL0     H18504   0.981  12.484  10.163  1.2799  1.3291  0.0041
  859MOL0     H18505   1.233  12.539  10.111 -0.3866  2.1241  1.4932
  859MOL0     H18506   1.296  12.778   9.959 -0.6013 -0.8777 -2.5137
  859MOL0     H18507   1.426  12.658  10.006  5.4154 -0.1394 -3.6242
  859MOL0     H18508   1.450  12.824   9.761 -2.0838 -2.3112 -1.7255
  859MOL0     H18509   1.533  12.834   9.913 -0.3043  2.3233 -2.3709
  859MOL0     H18510   1.550  12.613   9.703  0.8760 -4.7656  0.9693
  859MOL0     H18511   1.579  12.570   9.859 -2.5150 -0.8370 -2.0141
  859MOL0     H18512   1.746  12.777   9.888  1.7172  0.2799  0.1135
  859MOL0     H18513   1.733  12.791   9.716 -2.0837  1.3926  0.9585
  859MOL0     H18514   1.814  12.526   9.850 -1.7571 -0.3038 -1.0015
  859MOL0     H18515   1.829  12.573   9.681 -0.2587  0.5570  0.0167
  859MOL0     H18516   1.971  12.709   9.912 -3.4786  2.8873 -0.4642
  859MOL0     H18517   1.982  12.752   9.737  0.7239 -1.4832  0.1133
  859MOL0     H18518   2.117  12.570   9.677  2.6867 -2.8110  0.8481
  859MOL0     H18519   2.052  12.475   9.820  2.4683 -1.1224  1.6050
  859MOL0     H18520   2.282  12.518   9.830  0.2666 -0.1772  0.3361
  859MOL0     H18521   2.174  12.549   9.968 -0.4549  0.6412 -0.1373
  859MOL0     H18522   1.107  12.572   9.701  0.6044 -2.3297  0.8088
  859MOL0     H18523   0.873  12.495   9.765  0.8833  0.1060 -1.9830
  859MOL0     H18524   0.563  12.457   9.946 -0.9541  2.5854  3.4365
  859MOL0     H18525   0.330  12.368   9.906 -1.2176 -1.4687 -1.3402
  859MOL0     H18526   1.438  11.430   9.863  0.2835  4.5611 -0.7989
  859MOL0     H18527   1.661  11.384   9.918 -1.4354  0.3368 -1.2053
  859MOL0     H18528   1.893  11.396  10.387 -1.6334  0.0567 -1.0872
  859MOL0     H18529   2.081  11.344  10.526  0.6858 -0.4185  0.0984
  859MOL0     H18530   2.323  11.180  10.654  1.9760 -0.7951  0.1084
  859MOL0     H18531   2.182  11.109  10.571 -0.3544 -0.4291 -1.6928
  859MOL0     H18532   2.346  10.970  10.439 -1.4916 -1.8789  1.1814
  859MOL0     H18533   2.325  10.921  10.600  2.7604 -2.0373 -0.4494
  859MOL0     H18534   2.536  11.035  10.664 -0.0267 -1.2014  0.5686
  859MOL0     H18535   2.546  10.913  10.533  1.0309  0.8504 -1.2661
  859MOL0     H18536   2.565  11.231  10.499  0.9373  0.2492 -2.8071
  859MOL0     H18537   2.565  11.098  10.374  0.4138 -0.2844 -0.8449
  859MOL0     H18538   2.963  11.133  10.472 -0.7670  0.4374  1.4952
  859MOL0     H18539   2.290  11.167  10.212  1.7734  0.9844  3.8021
  859MOL0     H18540   2.078  11.296   9.956 -0.2667  0.5751 -0.4593
  859MOL0     H18541   2.217  11.196   9.983  0.0251  0.0781  0.3172
  859MOL0     H18542   2.061  11.120   9.969  0.5743 -0.3327 -1.0699
  860MOL0     O18543   5.343   8.688   3.317  0.4860 -0.8130  0.5326
  860MOL0     C18544   5.255   8.674   3.231  0.3581  0.2981 -0.0543
  860MOL0     O18545   5.243   8.567   3.144  0.2279 -0.5094  0.5397
  860MOL0     C18546   5.343   8.472   3.132 -0.1052  0.2568  0.2384
  860MOL0     C18547   5.338   8.359   3.206 -0.1982  0.6358  0.9997
  860MOL0     C18548   5.442   8.265   3.197 -1.0412 -0.1403 -0.5411
  860MOL0     C18549   5.550   8.278   3.105 -0.2500 -0.4977 -0.1012
  860MOL0     O18550   5.656   8.190   3.098 -0.0260 -0.2303  0.8253
  860MOL0     C18551   5.664   8.083   3.191 -0.3534  0.0197 -0.9265
  860MOL0     C18552   5.815   8.034   3.180  0.2170  0.3454 -0.1668
  860MOL0     C18553   5.913   8.123   3.272  0.7964 -0.4496  0.8505
  860MOL0     C18554   6.061   8.082   3.243  0.4992 -0.6391  0.4370
  860MOL0     C18555   6.153   8.116   3.361  0.0965 -0.3437  0.2753
  860MOL0     C18556   6.298   8.118   3.315 -1.0004 -0.5872  0.1163
  860MOL0     C18557   6.395   8.171   3.426 -0.1907 -1.3503  0.2059
  860MOL0     C18558   6.532   8.226   3.386  0.2258  0.0033 -0.4568
  860MOL0     N18559   6.620   8.148   3.295 -0.2148  0.0982 -0.2081
  860MOL0     C18560   6.677   8.023   3.332  0.6655  0.0050  0.5379
  860MOL0     C18561   6.748   7.976   3.224 -0.2925 -0.6510  0.2810
  860MOL0     C18562   6.818   7.851   3.200  0.1399  0.5731  0.2192
  860MOL0     C18563   6.965   7.878   3.238 -0.5103  0.0046 -0.1329
  860MOL0     C18564   7.028   7.739   3.267  0.2085  0.2702 -0.1629
  860MOL0     C18565   7.182   7.748   3.245  0.3797 -0.2532  0.2700
  860MOL0     O18566   7.253   7.825   3.339 -0.3317  0.3665  0.3435
  860MOL0     C18567   7.394   7.813   3.331 -0.1339  0.0977  0.9172
  860MOL0     C18568   7.466   7.742   3.233  0.6334 -0.4214  0.2254
  860MOL0     C18569   7.607   7.739   3.228 -0.6479 -0.7248  0.0829
  860MOL0     C18570   7.667   7.681   3.108  0.7441 -0.2130  0.1795
  860MOL0     C18571   7.682   7.801   3.329  0.0596  0.3661 -0.8254
  860MOL0     C18572   7.820   7.801   3.321  0.4957 -0.9456  0.3107
  860MOL0     O18573   7.889   7.680   3.323  0.2998 -0.2424 -0.2567
  860MOL0     C18574   8.020   7.686   3.302  0.8645  0.1397 -0.0111
  860MOL0     C18575   8.103   7.652   3.404  0.4397 -0.4923 -0.4739
  860MOL0     C18576   8.242   7.634   3.389  0.3860 -0.1587 -0.0748
  860MOL0     C18577   8.298   7.661   3.262  1.1247 -0.3070 -0.2606
  860MOL0     O18578   8.434   7.662   3.247 -0.2488  0.1669  0.1863
  860MOL0     C18579   8.487   7.647   3.114 -0.6206 -0.1270  0.1532
  860MOL0     C18580   8.638   7.634   3.122  0.3829  0.0249 -0.2319
  860MOL0     C18581   8.710   7.696   3.003 -0.1001  0.0127  0.1800
  860MOL0     C18582   8.868   7.692   3.014  0.4657 -0.1634 -0.7094
  860MOL0     C18583   8.945   7.791   2.927  0.7415  1.0774  0.7105
  860MOL0     C18584   9.097   7.774   2.937  0.2819 -0.0320  0.4964
  860MOL0     C18585   9.159   7.888   2.861  0.0535  0.7744  0.3074
  860MOL0     C18586   9.160   7.882   2.714 -1.0003 -0.0640  0.2536
  860MOL0    Cl18587   9.238   7.736   2.649 -0.2580  0.0356  0.8656
  860MOL0     C18588   8.207   7.687   3.154 -0.6216  0.2478 -0.4126
  860MOL0     C18589   8.071   7.695   3.171 -0.1025 -0.1667  0.5307
  860MOL0     O18590   7.874   7.908   3.310  0.4361 -1.1486 -0.0425
  860MOL0     C18591   7.608   7.870   3.436  0.0110  0.4583  0.7291
  860MOL0     C18592   7.471   7.870   3.432  0.9320  0.3243  0.0375
  860MOL0     N18593   6.738   8.074   3.126  0.6925 -0.0241  0.0505
  860MOL0     N18594   6.662   8.174   3.168  0.7347 -0.3108 -0.4074
  860MOL0     C18595   5.559   8.397   3.030  0.2480 -0.2883 -0.1200
  860MOL0     C18596   5.454   8.495   3.046  0.9260  0.0499 -0.0840
  860MOL0     C18597   5.166   8.795   3.204  0.1390 -0.5032 -0.2758
  860MOL0     C18598   5.059   8.776   3.112  0.5320  0.0587 -0.5731
  860MOL0     C18599   4.968   8.881   3.080  0.2045 -0.0770  0.3165
  860MOL0     C18600   4.983   9.007   3.142 -0.4107  0.0953 -0.2128
  860MOL0     O18601   4.905   9.120   3.134 -0.1817  0.3621  0.0151
  860MOL0     C18602   4.786   9.118   3.049  0.4751 -0.1518  0.1012
  860MOL0     C18603   4.666   9.064   3.115 -0.2478 -0.5179  0.1944
  860MOL0     C18604   4.618   9.147   3.228  0.0871  0.2499 -0.3588
  860MOL0     C18605   4.494   9.095   3.293 -0.3758  0.1463 -0.1115
  860MOL0     C18606   4.389   9.090   3.193 -0.5553  0.3606 -0.1388
  860MOL0     C18607   4.313   9.069   3.100  0.4863  0.3630 -0.3448
  860MOL0     C18608   5.099   9.026   3.227 -0.2751  0.8325  0.2162
  860MOL0     C18609   5.191   8.923   3.258 -0.2833  0.3622 -0.4284
  860MOL0     C18610   5.307   8.967   3.348  0.8019  1.4365  0.0919
  860MOL0     H18611   5.259   8.345   3.279 -1.2528  1.7932  0.1175
  860MOL0     H18612   5.446   8.180   3.264  2.1209  1.6585  1.7748
  860MOL0     H18613   5.599   7.998   3.170 -0.7077 -0.7680  2.6429
  860MOL0     H18614   5.648   8.116   3.295 -1.5749 -0.1451 -1.0431
  860MOL0     H18615   5.820   7.929   3.210 -0.1590  0.6676  1.0567
  860MOL0     H18616   5.848   8.046   3.076 -0.7597 -0.3615 -0.5777
  860MOL0     H18617   5.897   8.227   3.240  0.9954 -0.9724 -1.0517
  860MOL0     H18618   5.891   8.112   3.378  3.0457 -2.0076  1.2122
  860MOL0     H18619   6.059   7.973   3.239 -0.9150 -0.6485  0.9361
  860MOL0     H18620   6.106   8.123   3.152 -0.9824 -3.9462 -2.0421
  860MOL0     H18621   6.136   8.036   3.434  0.8020  0.9190  1.8778
  860MOL0     H18622   6.126   8.213   3.404  0.7009 -0.7309  1.5721
  860MOL0     H18623   6.337   8.018   3.294  0.5832 -0.0093  0.1592
  860MOL0     H18624   6.300   8.182   3.227 -1.7046  0.7777  1.0599
  860MOL0     H18625   6.413   8.083   3.489 -0.6586 -2.5038 -1.1992
  860MOL0     H18626   6.333   8.242   3.481  2.6001  1.2941  0.2213
  860MOL0     H18627   6.515   8.318   3.330 -3.5652 -1.2261 -1.6266
  860MOL0     H18628   6.587   8.244   3.479  0.7475 -0.7840 -0.6024
  860MOL0     H18629   6.649   7.964   3.418 -2.8599  0.7925  0.0851
  860MOL0     H18630   6.809   7.811   3.099  1.6103 -0.2464  0.3865
  860MOL0     H18631   6.770   7.775   3.263 -0.5806  1.7926  1.1807
  860MOL0     H18632   7.020   7.933   3.161 -1.0825  0.7068 -0.0471
  860MOL0     H18633   6.989   7.923   3.334  4.0603 -1.6025 -0.3139
  860MOL0     H18634   7.015   7.715   3.373  0.8632  1.9580  0.3416
  860MOL0     H18635   6.993   7.656   3.205 -1.1454  2.1269 -1.9971
  860MOL0     H18636   7.219   7.646   3.231 -5.4622 -2.4773 -1.8153
  860MOL0     H18637   7.192   7.802   3.150 -0.3702  0.5554  0.6331
  860MOL0     H18638   7.413   7.711   3.143 -0.3419  2.8873 -0.4802
  860MOL0     H18639   7.599   7.674   3.023 -2.3563  0.3843  2.4202
  860MOL0     H18640   7.707   7.581   3.127  1.2301  0.0816  0.7503
  860MOL0     H18641   7.748   7.743   3.070 -0.7654  1.1416 -0.9424
  860MOL0     H18642   8.070   7.655   3.507  1.3358  0.6228 -0.2039
  860MOL0     H18643   8.302   7.611   3.477  1.3365 -0.9729 -0.9162
  860MOL0     H18644   8.440   7.564   3.061  1.0409 -0.0675 -1.4993
  860MOL0     H18645   8.472   7.740   3.058  1.5504 -0.8537 -1.7665
  860MOL0     H18646   8.688   7.674   3.211  1.1363 -3.6767  1.2018
  860MOL0     H18647   8.648   7.525   3.130  2.2356  0.1855  0.1921
  860MOL0     H18648   8.687   7.801   2.983  2.7031  0.9156  1.1246
  860MOL0     H18649   8.686   7.633   2.917 -1.1746  0.6402 -0.0038
  860MOL0     H18650   8.905   7.592   2.990 -0.6433 -0.9615  0.7476
  860MOL0     H18651   8.910   7.717   3.113  2.9724 -2.3145 -1.1287
  860MOL0     H18652   8.924   7.780   2.820 -0.6379  2.0347  0.8593
  860MOL0     H18653   8.908   7.890   2.955  1.0041  0.8319  1.9643
  860MOL0     H18654   9.120   7.673   2.902 -2.1261 -0.2137 -0.8066
  860MOL0     H18655   9.118   7.772   3.044  2.2193  2.3838  0.2437
  860MOL0     H18656   9.264   7.892   2.893 -0.7193 -1.1292  3.3869
  860MOL0     H18657   9.100   7.978   2.881 -1.4251 -0.3440  1.1544
  860MOL0     H18658   9.207   7.972   2.672  0.1344 -0.2786  1.0381
  860MOL0     H18659   9.055   7.889   2.683 -1.5791  1.1676  2.2525
  860MOL0     H18660   8.242   7.702   3.053 -2.8701 -0.6735 -1.3906
  860MOL0     H18661   7.996   7.715   3.094 -1.2402  2.6033  2.2080
  860MOL0     H18662   7.656   7.921   3.519 -1.4932  0.3220  1.7266
  860MOL0     H18663   7.416   7.930   3.504 -0.4509  0.8880 -1.4361
  860MOL0     H18664   5.641   8.420   2.963  0.2375  1.6188  0.4648
  860MOL0     H18665   5.450   8.592   2.999 -0.4847 -0.6975 -1.6140
  860MOL0     H18666   5.037   8.684   3.058 -3.9204  1.3662 -1.4439
  860MOL0     H18667   4.887   8.866   3.008 -0.3690  0.5886  0.8215
  860MOL0     H18668   4.760   9.216   3.008  3.4593  0.5938 -0.2972
  860MOL0     H18669   4.807   9.061   2.958 -2.8135  1.9523 -2.2054
  860MOL0     H18670   4.693   8.963   3.145  0.2059 -0.3176  0.4640
  860MOL0     H18671   4.590   9.051   3.038 -1.1795 -0.2165  1.0336
  860MOL0     H18672   4.695   9.159   3.304 -1.7665  0.5968  1.5463
  860MOL0     H18673   4.611   9.249   3.190  3.2441  1.0629  0.9442
  860MOL0     H18674   4.465   9.161   3.376 -0.8472 -0.4433  0.1923
  860MOL0     H18675   4.515   8.993   3.326  2.3588  0.5378 -0.3510
  860MOL0     H18676   4.254   9.048   3.012 -0.5031 -0.4209  0.4726
  860MOL0     H18677   5.116   9.123   3.272  2.9010  1.3327 -1.7533
  860MOL0     H18678   5.396   8.915   3.313  1.2394  2.6538 -0.6669
  860MOL0     H18679   5.331   9.073   3.337  1.6579  1.3092  0.7264
  860MOL0     H18680   5.294   8.952   3.455  1.9476 -0.9282 -0.0462
  861MOL0     O18681   9.101   5.261   0.990  0.1042 -0.1590  0.2485
  861MOL0     C18682   9.106   5.368   1.045  0.9077  0.3130 -0.3399
  861MOL0     O18683   9.213   5.450   1.051  0.5994  0.2294  0.0706
  861MOL0     C18684   9.330   5.412   0.999  0.2522  0.5237 -0.0204
  861MOL0     C18685   9.349   5.364   0.862 -0.1813 -0.1608 -0.3135
  861MOL0     C18686   9.473   5.319   0.811 -0.8988 -0.6794 -0.2302
  861MOL0     C18687   9.579   5.303   0.897 -0.1566 -0.2836  0.4344
  861MOL0     O18688   9.703   5.253   0.848  0.4327  0.3624 -0.1825
  861MOL0     C18689   9.769   5.148   0.924 -0.0201 -0.5231 -0.0280
  861MOL0     C18690   9.917   5.158   0.894 -0.5017 -0.2825 -0.2630
  861MOL0     C18691   9.993   5.255   0.984  0.7333  0.0631 -1.1267
  861MOL0     C18692   9.984   5.401   0.931 -0.6498  0.5890  0.0655
  861MOL0     C18693  10.013   5.488   1.054 -0.3501 -0.2653 -0.5498
  861MOL0     C18694  10.003   5.632   1.011 -0.2333  0.0818 -0.5582
  861MOL0     C18695  10.012   5.737   1.127 -0.4110 -0.2826 -0.0509
  861MOL0     C18696  10.011   5.880   1.080 -1.0630  0.6771 -0.3189
  861MOL0     N18697   9.879   5.926   1.036 -0.0991  0.8046  0.1086
  861MOL0     C18698   9.768   5.951   1.114 -0.0908  0.8620  0.7275
  861MOL0     C18699   9.672   5.991   1.022  0.2182 -0.1343 -0.7333
  861MOL0     C18700   9.526   6.016   1.058  0.5708 -0.6257  0.8361
  861MOL0     C18701   9.465   5.890   1.099  0.3895  0.0800  0.2784
  861MOL0     C18702   9.451   5.893   1.256 -0.0659 -1.2828 -0.6192
  861MOL0     C18703   9.425   5.752   1.316 -0.2150 -0.0668 -0.0984
  861MOL0     O18704   9.512   5.652   1.282  0.5366 -0.0423 -0.0163
  861MOL0     C18705   9.632   5.636   1.349  0.3317 -1.2223  0.1806
  861MOL0     C18706   9.677   5.720   1.453 -0.9657  0.1025 -0.1235
  861MOL0     C18707   9.800   5.705   1.519 -0.3498  0.9930  0.3814
  861MOL0     C18708   9.823   5.776   1.651  0.6425  0.5260 -0.3894
  861MOL0     C18709   9.886   5.603   1.482  0.2959  0.2714  0.5386
  861MOL0     C18710  10.013   5.567   1.535  0.4866 -0.3922 -0.7277
  861MOL0     O18711  10.075   5.662   1.619  0.0433 -0.1623  0.6644
  861MOL0     C18712  10.180   5.624   1.698 -0.0711  0.2668 -0.2162
  861MOL0     C18713  10.297   5.705   1.688 -0.0243 -0.5068  1.1893
  861MOL0     C18714  10.404   5.679   1.760 -0.7838  0.6166 -0.0909
  861MOL0     C18715  10.413   5.567   1.843  0.2135 -0.1665 -0.2291
  861MOL0     O18716  10.523   5.556   1.927  0.5187 -0.2715 -0.3086
  861MOL0     C18717  10.547   5.426   1.984 -0.1147 -0.4027  0.2488
  861MOL0     C18718  10.585   5.325   1.871  0.4677  0.4737  0.3693
  861MOL0     C18719  10.727   5.356   1.805 -0.6107 -0.1421 -0.8076
  861MOL0     C18720  10.793   5.238   1.726 -0.9087 -0.2397  0.2106
  861MOL0     C18721  10.923   5.289   1.655 -0.2633 -0.6594  0.5785
  861MOL0     C18722  10.979   5.177   1.568  0.2481 -1.0301 -0.3048
  861MOL0     C18723  11.105   5.214   1.479 -0.1669  0.4711 -0.2110
  861MOL0     C18724  11.235   5.238   1.559 -0.0460 -0.0914 -1.0131
  861MOL0    Cl18725  11.382   5.256   1.447 -0.8597  0.6274 -0.4700
  861MOL0     C18726  10.298   5.487   1.860 -0.2431 -0.0504 -0.9449
  861MOL0     C18727  10.180   5.516   1.789 -0.0164 -0.1576  0.3272
  861MOL0     O18728  10.067   5.462   1.505 -0.1362  0.1456  0.4079
  861MOL0     C18729   9.847   5.519   1.379  0.5195  0.3446  0.2603
  861MOL0     C18730   9.722   5.531   1.311 -0.0724 -0.5760 -0.3494
  861MOL0     N18731   9.728   5.986   0.906  0.9247  0.4225 -0.3993
  861MOL0     N18732   9.849   5.951   0.905  0.0032 -0.1136 -0.5248
  861MOL0     C18733   9.562   5.345   1.029 -0.5547 -0.0583 -0.9697
  861MOL0     C18734   9.438   5.395   1.079 -0.2825 -0.4563  0.4715
  861MOL0     C18735   8.975   5.421   1.084  0.6206 -0.0431 -0.2672
  861MOL0     C18736   8.973   5.549   1.157 -0.0251 -0.2173 -0.2074
  861MOL0     C18737   8.858   5.612   1.199 -0.2560 -0.4040  0.1771
  861MOL0     C18738   8.737   5.556   1.171 -0.0903 -0.2955 -0.1920
  861MOL0     O18739   8.608   5.592   1.208 -0.3460 -0.9811 -0.2658
  861MOL0     C18740   8.609   5.718   1.275  0.2780 -0.3221 -0.5075
  861MOL0     C18741   8.469   5.781   1.301 -0.0024 -0.3929  0.2821
  861MOL0     C18742   8.396   5.803   1.165 -0.1092  0.0678 -0.2682
  861MOL0     C18743   8.267   5.886   1.168 -0.1059 -1.3161  1.1706
  861MOL0     C18744   8.207   5.887   1.035 -0.2580 -0.5065  0.3376
  861MOL0     C18745   8.149   5.875   0.927  0.6437 -0.8719  0.7216
  861MOL0     C18746   8.743   5.428   1.118 -0.0760 -0.0518  0.8368
  861MOL0     C18747   8.847   5.362   1.068 -0.1853  0.3844  0.3616
  861MOL0     C18748   8.820   5.235   0.982 -0.0967 -0.6677 -0.1658
  861MOL0     H18749   9.264   5.377   0.796 -1.8456 -2.2383  1.2531
  861MOL0     H18750   9.482   5.302   0.704  0.3556 -2.0773  0.0687
  861MOL0     H18751   9.740   5.051   0.882 -0.3424 -1.1730  1.6249
  861MOL0     H18752   9.744   5.147   1.030  1.8623  0.1585  0.4589
  861MOL0     H18753   9.969   5.064   0.915 -0.8603 -0.5704 -0.6222
  861MOL0     H18754   9.936   5.183   0.789 -0.9780  1.0221 -0.0529
  861MOL0     H18755   9.937   5.250   1.078 -0.6166  0.8194 -1.8488
  861MOL0     H18756  10.095   5.223   1.004  1.5812  2.4362 -1.3701
  861MOL0     H18757  10.067   5.418   0.863  1.2435 -1.0139  1.8551
  861MOL0     H18758   9.888   5.437   0.891  0.0768  2.4065 -0.1591
  861MOL0     H18759  10.104   5.471   1.113 -2.5468 -2.8295  2.5010
  861MOL0     H18760   9.932   5.461   1.123 -1.0697  0.1287 -1.2262
  861MOL0     H18761  10.089   5.643   0.944  0.5626  0.0990  0.4503
  861MOL0     H18762   9.914   5.656   0.951  0.0182 -0.6185 -1.2314
  861MOL0     H18763  10.103   5.722   1.186 -0.1239 -3.1742 -1.0434
  861MOL0     H18764   9.931   5.727   1.200  1.7556  0.3147  2.5995
  861MOL0     H18765  10.045   5.941   1.165  0.5629 -0.6523  0.0407
  861MOL0     H18766  10.079   5.884   0.994 -0.3717 -0.5488  0.1471
  861MOL0     H18767   9.759   5.931   1.220 -1.0694  0.1485  0.5346
  861MOL0     H18768   9.476   6.059   0.971  0.9300 -0.5767  0.6529
  861MOL0     H18769   9.518   6.094   1.135 -1.2991  0.4231 -0.3479
  861MOL0     H18770   9.368   5.864   1.055 -0.5317  1.3406  1.4825
  861MOL0     H18771   9.537   5.809   1.080  1.1689  0.8549 -0.1335
  861MOL0     H18772   9.536   5.944   1.302 -0.1010 -0.1936 -1.6848
  861MOL0     H18773   9.362   5.950   1.284  1.1301 -0.9282  2.8078
  861MOL0     H18774   9.422   5.750   1.426  0.7734  1.2199 -0.0266
  861MOL0     H18775   9.328   5.715   1.283 -0.7058 -0.1190  1.3412
  861MOL0     H18776   9.634   5.811   1.491  0.1101 -0.2833  2.2001
  861MOL0     H18777   9.837   5.706   1.733 -1.5829 -0.5747 -0.8880
  861MOL0     H18778   9.742   5.845   1.678  0.3825 -0.1979  0.7154
  861MOL0     H18779   9.917   5.832   1.645  1.5712 -1.1021 -2.5597
  861MOL0     H18780  10.289   5.788   1.618  0.0230  0.8417  2.7299
  861MOL0     H18781  10.493   5.742   1.757 -0.3043 -0.0563 -0.3862
  861MOL0     H18782  10.626   5.441   2.058  0.8182 -0.9647 -0.6058
  861MOL0     H18783  10.457   5.394   2.038  1.0628 -0.2540  2.4231
  861MOL0     H18784  10.579   5.227   1.918  0.8761  1.3156  2.2699
  861MOL0     H18785  10.507   5.310   1.796  0.1495 -3.2790  1.2639
  861MOL0     H18786  10.782   5.387   1.894 -2.1023  2.9883 -0.8533
  861MOL0     H18787  10.724   5.442   1.738 -3.3116 -0.1475 -0.7805
  861MOL0     H18788  10.731   5.192   1.648  0.4274  0.7710 -1.5079
  861MOL0     H18789  10.822   5.159   1.795  1.2458  1.1328  0.9485
  861MOL0     H18790  10.897   5.369   1.586  4.3721  0.2984 -0.3796
  861MOL0     H18791  10.997   5.330   1.725 -1.2563 -1.9528  2.4583
  861MOL0     H18792  10.908   5.140   1.493  2.2939  0.4865 -3.1875
  861MOL0     H18793  11.005   5.096   1.636  1.5701  1.0955  1.8661
  861MOL0     H18794  11.095   5.304   1.419  0.9427  0.8487  0.1537
  861MOL0     H18795  11.117   5.126   1.414 -2.8901 -1.2405  1.4062
  861MOL0     H18796  11.245   5.160   1.635 -0.5635  1.3610  0.6022
  861MOL0     H18797  11.224   5.332   1.615  0.8483 -0.7877  0.3922
  861MOL0     H18798  10.301   5.389   1.907 -1.4734  0.2096 -0.2905
  861MOL0     H18799  10.087   5.460   1.796 -0.7843  1.2411  1.9191
  861MOL0     H18800   9.911   5.437   1.350  1.3594  1.1237 -0.1465
  861MOL0     H18801   9.707   5.461   1.230  0.6819  0.3970 -1.3593
  861MOL0     H18802   9.636   5.328   1.106 -2.7604 -1.4752  1.0067
  861MOL0     H18803   9.422   5.431   1.180 -0.7557  0.7816 -0.0145
  861MOL0     H18804   9.067   5.593   1.187 -0.8204  1.2418  0.2637
  861MOL0     H18805   8.870   5.701   1.259  2.2765 -1.1532  0.9064
  861MOL0     H18806   8.653   5.712   1.375 -0.3042  0.3718 -0.1967
  861MOL0     H18807   8.668   5.784   1.210  1.8292 -0.6453  0.5070
  861MOL0     H18808   8.496   5.873   1.355  1.7604 -0.3588 -0.5800
  861MOL0     H18809   8.412   5.721   1.371  0.4847 -1.0384  0.1356
  861MOL0     H18810   8.474   5.843   1.100  0.0598 -2.6479 -1.8966
  861MOL0     H18811   8.375   5.703   1.127  2.7716 -1.0749  0.9145
  861MOL0     H18812   8.291   5.992   1.184  0.7115 -0.9357 -1.9066
  861MOL0     H18813   8.186   5.856   1.234 -2.4537 -0.4952 -1.1704
  861MOL0     H18814   8.090   5.859   0.839 -1.9439  0.5046  2.0689
  861MOL0     H18815   8.645   5.383   1.118  0.7768 -2.0736 -0.8202
  861MOL0     H18816   8.715   5.224   0.953  0.4278  0.4159 -2.7956
  861MOL0     H18817   8.884   5.244   0.893  1.6128 -0.3104  1.0527
  861MOL0     H18818   8.848   5.146   1.038  0.5334 -1.6830 -2.0083
  862MOL0     O18819   3.792   1.513   2.864 -0.7281 -0.9267 -0.1340
  862MOL0     C18820   3.718   1.426   2.915  0.3562  0.5032  0.2991
  862MOL0     O18821   3.747   1.345   3.027 -0.4190  0.3588  0.1074
  862MOL0     C18822   3.875   1.328   3.085  0.0110 -0.3347 -0.2317
  862MOL0     C18823   3.990   1.298   3.002 -0.1503 -0.5529 -0.6305
  862MOL0     C18824   4.119   1.296   3.055  0.0924  0.4016  0.6690
  862MOL0     C18825   4.128   1.302   3.203 -0.1152  0.3434  0.4868
  862MOL0     O18826   4.251   1.281   3.268  0.2839  0.2518 -0.3165
  862MOL0     C18827   4.240   1.204   3.388 -0.9121  0.4298 -0.9426
  862MOL0     C18828   4.369   1.132   3.431  0.0001  0.0849  0.4575
  862MOL0     C18829   4.485   1.218   3.482 -0.3662  0.1444  0.9108
  862MOL0     C18830   4.613   1.142   3.500  0.0076  0.0053 -0.4369
  862MOL0     C18831   4.724   1.238   3.561  0.2515 -0.1885  0.7144
  862MOL0     C18832   4.810   1.313   3.451  0.6131 -0.1495  0.2063
  862MOL0     C18833   4.931   1.379   3.520  0.3404 -0.1457  0.4412
  862MOL0     C18834   5.015   1.457   3.417  1.4083 -0.0984  0.2299
  862MOL0     N18835   5.120   1.548   3.484  0.1966 -0.2100  0.2775
  862MOL0     C18836   5.243   1.523   3.531 -0.4457  0.3877  0.5886
  862MOL0     C18837   5.297   1.639   3.577  0.9010  0.0927 -0.3038
  862MOL0     C18838   5.433   1.657   3.624  0.1314 -0.0799 -0.5745
  862MOL0     C18839   5.521   1.619   3.505  0.7956 -0.0170 -0.1124
  862MOL0     C18840   5.663   1.637   3.553 -1.0453 -0.0547  0.3959
  862MOL0     C18841   5.765   1.656   3.440  0.5631  0.0240  0.1481
  862MOL0     O18842   5.735   1.552   3.343  0.1798 -0.2668 -0.4854
  862MOL0     C18843   5.795   1.429   3.348  0.2879  0.1126 -0.1422
  862MOL0     C18844   5.743   1.321   3.409 -0.5985 -0.2974 -0.6996
  862MOL0     C18845   5.799   1.195   3.407 -0.7235  0.2624  0.2480
  862MOL0     C18846   5.723   1.077   3.479  0.0727  0.2872  0.1906
  862MOL0     C18847   5.920   1.177   3.334 -0.1074 -0.2968 -1.2825
  862MOL0     C18848   5.990   1.046   3.331 -0.1045 -0.5978  0.1539
  862MOL0     O18849   6.126   1.050   3.318 -0.1804 -0.0354 -0.1243
  862MOL0     C18850   6.187   0.930   3.304 -0.4812  0.9256  0.3364
  862MOL0     C18851   6.179   0.847   3.191 -0.6053 -0.1424  0.1923
  862MOL0     C18852   6.249   0.729   3.178 -0.4521 -0.1602 -0.1836
  862MOL0     C18853   6.324   0.683   3.287 -0.3017  0.4382  0.6395
  862MOL0     O18854   6.387   0.565   3.267 -0.4049  0.7536 -0.3028
  862MOL0     C18855   6.442   0.488   3.376  0.2541 -0.4103  0.4330
  862MOL0     C18856   6.584   0.526   3.404  0.2928  0.1562 -0.3659
  862MOL0     C18857   6.687   0.452   3.329  0.4371 -0.0100  0.1418
  862MOL0     C18858   6.827   0.501   3.327  0.0509  0.1001 -0.3256
  862MOL0     C18859   6.891   0.476   3.463 -0.5536 -1.1329 -0.0599
  862MOL0     C18860   7.043   0.505   3.450  0.2089 -0.7588 -0.0357
  862MOL0     C18861   7.125   0.429   3.562  0.9703 -0.2017 -0.1120
  862MOL0     C18862   7.260   0.400   3.499 -0.5762  0.7727  0.5557
  862MOL0    Cl18863   7.364   0.308   3.606 -0.3260  0.0033 -0.0307
  862MOL0     C18864   6.327   0.753   3.405  0.6026  0.4726 -0.0199
  862MOL0     C18865   6.254   0.871   3.414 -0.3308 -0.6454  0.4831
  862MOL0     O18866   5.923   0.946   3.348  0.1954  0.0788 -0.3508
  862MOL0     C18867   5.973   1.285   3.268  0.1865 -0.3585  0.5956
  862MOL0     C18868   5.905   1.407   3.271 -0.7434  0.5038 -0.4265
  862MOL0     N18869   5.193   1.731   3.572 -0.2827  0.4241  0.3981
  862MOL0     N18870   5.092   1.676   3.511  0.5301  0.6172 -0.8470
  862MOL0     C18871   4.013   1.321   3.282  0.9131 -0.1269  0.5871
  862MOL0     C18872   3.889   1.343   3.224 -0.1412  0.0762 -0.0776
  862MOL0     C18873   3.586   1.387   2.847  0.4225 -0.1448  0.6161
  862MOL0     C18874   3.538   1.255   2.857  0.2141  0.2694 -0.7008
  862MOL0     C18875   3.425   1.210   2.792 -0.8707 -0.3083 -0.0435
  862MOL0     C18876   3.348   1.301   2.718 -0.5076 -0.0520 -0.6380
  862MOL0     O18877   3.230   1.257   2.665  0.8978  0.0282 -0.0211
  862MOL0     C18878   3.154   1.345   2.586 -0.8018  0.5427  0.0043
  862MOL0     C18879   3.041   1.267   2.527  1.0247 -0.2359  0.1896
  862MOL0     C18880   2.983   1.345   2.408 -0.0370  0.4209 -0.1581
  862MOL0     C18881   2.847   1.294   2.368  0.0254  1.0173  0.2252
  862MOL0     C18882   2.802   1.385   2.267 -0.2273 -0.3567  0.4026
  862MOL0     C18883   2.756   1.462   2.188 -0.9915 -0.2867 -0.0702
  862MOL0     C18884   3.404   1.434   2.692  0.7870 -0.3018  0.1486
  862MOL0     C18885   3.518   1.473   2.754 -0.4477 -0.8624  1.1312
  862MOL0     C18886   3.567   1.610   2.712 -0.5606 -0.4169 -0.5446
  862MOL0     H18887   3.976   1.298   2.894 -0.6703  3.2135 -0.7125
  862MOL0     H18888   4.212   1.274   3.003 -0.0451  1.2007  0.0625
  862MOL0     H18889   4.171   1.119   3.380 -0.2484 -0.2862  0.5180
  862MOL0     H18890   4.221   1.267   3.475 -1.1356 -1.2633  0.2914
  862MOL0     H18891   4.356   1.050   3.503  0.5500 -2.4632 -2.1714
  862MOL0     H18892   4.400   1.084   3.339 -3.5555 -2.1461  0.2409
  862MOL0     H18893   4.506   1.308   3.423  2.4408 -1.0727 -0.1467
  862MOL0     H18894   4.459   1.256   3.581 -1.3432 -0.3532  0.8557
  862MOL0     H18895   4.598   1.059   3.571 -0.9314 -0.1126 -0.7587
  862MOL0     H18896   4.649   1.117   3.400 -1.0880  0.2307 -0.9065
  862MOL0     H18897   4.782   1.170   3.624  1.5384 -2.1481 -2.3483
  862MOL0     H18898   4.681   1.318   3.622  3.7845  0.0481  3.2166
  862MOL0     H18899   4.840   1.248   3.368 -3.0613 -1.1527 -0.5257
  862MOL0     H18900   4.755   1.398   3.410  1.5563 -0.0142 -0.8184
  862MOL0     H18901   4.991   1.295   3.556  0.7512 -0.5298 -1.0594
  862MOL0     H18902   4.891   1.438   3.603 -1.1051  0.2291 -0.4867
  862MOL0     H18903   5.060   1.391   3.342 -0.0016  0.2826 -1.0060
  862MOL0     H18904   4.953   1.531   3.366  0.7266 -1.4262 -0.9373
  862MOL0     H18905   5.306   1.435   3.517  0.1370  0.7787  0.7373
  862MOL0     H18906   5.455   1.594   3.711  1.7099 -0.9508 -1.5678
  862MOL0     H18907   5.448   1.763   3.644  1.3440 -0.1495 -1.0254
  862MOL0     H18908   5.501   1.520   3.463 -1.1408  0.1003  0.4646
  862MOL0     H18909   5.504   1.692   3.425 -0.7349 -1.5048 -1.2163
  862MOL0     H18910   5.666   1.733   3.605 -0.9282  0.6089 -0.7877
  862MOL0     H18911   5.704   1.557   3.615 -1.1164 -0.2218  0.2283
  862MOL0     H18912   5.750   1.754   3.394  0.3392 -1.0156 -2.1339
  862MOL0     H18913   5.866   1.653   3.482  1.8406  1.9233 -2.5150
  862MOL0     H18914   5.655   1.333   3.471 -0.2326  0.3702 -0.2938
  862MOL0     H18915   5.801   1.042   3.547  2.3902  4.4193  0.0069
  862MOL0     H18916   5.691   1.007   3.402 -3.1119 -0.3755  1.9193
  862MOL0     H18917   5.634   1.107   3.536 -1.0658 -2.4668  0.0016
  862MOL0     H18918   6.115   0.894   3.117 -1.4710 -0.8973  0.4403
  862MOL0     H18919   6.234   0.677   3.084  0.7797  0.2309 -0.6193
  862MOL0     H18920   6.381   0.490   3.467 -0.4932 -1.4985 -0.0270
  862MOL0     H18921   6.432   0.383   3.345  0.5308 -0.1500 -0.5664
  862MOL0     H18922   6.599   0.633   3.390  0.4770  0.3870  1.4084
  862MOL0     H18923   6.611   0.506   3.508  0.9091  1.1278 -0.3269
  862MOL0     H18924   6.663   0.435   3.224 -2.8207 -0.5683  0.8827
  862MOL0     H18925   6.683   0.354   3.377  0.1259  0.1039  0.3504
  862MOL0     H18926   6.832   0.605   3.293  0.6254 -0.5175 -2.2515
  862MOL0     H18927   6.878   0.442   3.251  0.4991  0.6745 -0.4787
  862MOL0     H18928   6.850   0.551   3.532  1.0334 -1.2198  1.0382
  862MOL0     H18929   6.875   0.373   3.494  1.9940 -1.8026 -0.7329
  862MOL0     H18930   7.054   0.614   3.455 -1.6425 -0.5750  3.4922
  862MOL0     H18931   7.080   0.469   3.354  2.4642  2.4588 -0.5231
  862MOL0     H18932   7.075   0.339   3.599 -0.2424  0.5353  0.0826
  862MOL0     H18933   7.153   0.501   3.639  0.7523  0.5476 -0.7100
  862MOL0     H18934   7.306   0.494   3.467 -1.4171  1.1581  0.4591
  862MOL0     H18935   7.248   0.350   3.403 -0.0091  3.1825 -0.8489
  862MOL0     H18936   6.384   0.701   3.482  2.0420  0.7477 -0.8659
  862MOL0     H18937   6.254   0.927   3.507  0.5535  0.3780 -0.1224
  862MOL0     H18938   6.053   1.282   3.195  1.1974  0.6853  1.6176
  862MOL0     H18939   5.939   1.498   3.222 -2.0145 -0.0168 -2.4032
  862MOL0     H18940   4.029   1.333   3.389  0.2065  0.0672  0.6790
  862MOL0     H18941   3.802   1.366   3.285 -1.9387 -2.7501 -1.3641
  862MOL0     H18942   3.608   1.186   2.905 -0.5325  0.3123  0.4783
  862MOL0     H18943   3.389   1.108   2.795 -0.5038 -0.4646 -0.7050
  862MOL0     H18944   3.099   1.421   2.643 -1.7116 -0.5030  0.5579
  862MOL0     H18945   3.215   1.393   2.509  0.0578  2.4841  1.7856
  862MOL0     H18946   2.975   1.243   2.611  1.2460  0.9158  0.7141
  862MOL0     H18947   3.085   1.173   2.494 -0.8288 -1.5947  1.3319
  862MOL0     H18948   2.966   1.443   2.452  0.5479  0.7889 -0.7383
  862MOL0     H18949   3.055   1.351   2.327 -0.8169  0.0405 -0.9036
  862MOL0     H18950   2.774   1.294   2.449  1.4591 -2.1437  1.6953
  862MOL0     H18951   2.855   1.193   2.324 -0.6136  0.4706  1.3292
  862MOL0     H18952   2.712   1.532   2.121  1.0655  0.7237 -0.4705
  862MOL0     H18953   3.352   1.505   2.628  1.5173  1.1176  1.0797
  862MOL0     H18954   3.660   1.602   2.655  1.2529 -0.5808  2.2512
  862MOL0     H18955   3.494   1.666   2.652 -0.0898  0.9814  0.1282
  862MOL0     H18956   3.595   1.670   2.799 -0.3433 -0.3763 -0.6417
  863MOL0     O18957   4.675   2.559  11.381 -0.1647 -0.4857 -0.7566
  863MOL0     C18958   4.601   2.467  11.417 -0.4062 -0.6807  0.3644
  863MOL0     O18959   4.622   2.378  11.518 -0.0106  0.5997 -0.2604
  863MOL0     C18960   4.742   2.374  11.578 -0.0913 -0.2376 -0.0363
  863MOL0     C18961   4.856   2.322  11.524 -0.3578  0.1983  0.6821
  863MOL0     C18962   4.982   2.346  11.579 -0.9488 -0.4698 -0.4147
  863MOL0     C18963   4.994   2.421  11.695  0.2761  0.3231 -0.6447
  863MOL0     O18964   5.127   2.454  11.735  0.6206 -0.1755 -0.5427
  863MOL0     C18965   5.159   2.430  11.873 -0.0377  1.0513 -0.2859
  863MOL0     C18966   5.272   2.334  11.875  0.3092  1.6120  0.5835
  863MOL0     C18967   5.408   2.394  11.832  0.6284  0.1162  0.5290
  863MOL0     C18968   5.457   2.467  11.966 -0.1731 -0.2306  0.1234
  863MOL0     C18969   5.613   2.486  11.965 -0.1104  0.0759  0.2865
  863MOL0     C18970   5.711   2.365  11.963 -0.1657  0.2695  0.6929
  863MOL0     C18971   5.847   2.394  11.894 -0.0733 -0.1873 -0.4411
  863MOL0     C18972   5.926   2.519  11.944 -0.1597 -0.1289 -0.4834
  863MOL0     N18973   5.958   2.509  12.092 -0.6649  0.3388  0.3029
  863MOL0     C18974   6.048   2.414  12.144  0.5799  0.8306  0.2113
  863MOL0     C18975   6.042   2.425  12.276 -0.0563  0.6275  0.0559
  863MOL0     C18976   6.108   2.332  12.373 -0.2577  0.0815  0.6276
  863MOL0     C18977   6.254   2.378  12.391  0.4941  0.2103  0.3417
  863MOL0     C18978   6.262   2.529  12.426 -0.3891 -0.7710  0.4496
  863MOL0     C18979   6.413   2.562  12.444 -0.0947  0.1694 -0.6576
  863MOL0     O18980   6.461   2.500  12.561 -0.4478  0.7961 -0.1083
  863MOL0     C18981   6.588   2.531  12.596 -0.3822 -0.1143 -0.0173
  863MOL0     C18982   6.617   2.613  12.702  0.0490 -0.2723 -0.0400
  863MOL0     C18983   6.741   2.646  12.748 -0.0403  0.0582 -0.0843
  863MOL0     C18984   6.757   2.710  12.887  0.2102 -0.2198 -0.3745
  863MOL0     C18985   6.856   2.601  12.672  0.6343 -0.3662  0.2448
  863MOL0     C18986   6.994   2.630  12.720 -0.0587  0.5055 -0.0502
  863MOL0     O18987   7.090   2.534  12.703 -0.4334 -0.2249  0.0106
  863MOL0     C18988   7.212   2.537  12.770 -0.0041  0.0027 -0.1103
  863MOL0     C18989   7.317   2.466  12.707  0.1873  0.2534 -0.4870
  863MOL0     C18990   7.442   2.469  12.756 -0.0253  0.4442  0.0938
  863MOL0     C18991   7.478   2.534  12.875  0.1312  0.0866  0.4947
  863MOL0     O18992   7.600   2.528  12.930 -0.1702  0.2253 -0.3996
  863MOL0     C18993   7.617   2.495  13.068 -0.3568  0.3014  0.2628
  863MOL0     C18994   7.738   2.400  13.083  0.0715  0.3420  0.2801
  863MOL0     C18995   7.868   2.458  13.023 -0.5491  0.2428 -0.3183
  863MOL0     C18996   7.945   2.520  13.135 -0.0743 -0.3730 -0.4524
  863MOL0     C18997   8.087   2.571  13.104  0.4061 -0.5639 -0.2532
  863MOL0     C18998   8.140   2.644  13.226 -0.4027  1.3583 -0.5791
  863MOL0     C18999   8.089   2.791  13.242 -0.1406  0.0879  0.6346
  863MOL0     C19000   8.150   2.891  13.149 -0.0247 -0.3737 -0.1581
  863MOL0    Cl19001   8.094   3.064  13.172 -0.0758  0.2026 -0.1665
  863MOL0     C19002   7.368   2.598  12.949  0.3596  0.1393 -0.3033
  863MOL0     C19003   7.235   2.605  12.890 -0.2201  0.3922 -0.2932
  863MOL0     O19004   7.013   2.742  12.763 -0.3984  0.2620  0.0958
  863MOL0     C19005   6.832   2.526  12.559  0.0719  0.4920 -0.0517
  863MOL0     C19006   6.699   2.485  12.527 -0.8468  0.6444  0.0515
  863MOL0     N19007   5.960   2.532  12.308  0.0160  0.0273  1.0273
  863MOL0     N19008   5.913   2.576  12.199  0.2005  0.4874  0.6612
  863MOL0     C19009   4.882   2.463  11.763 -1.1742 -0.0536  1.0053
  863MOL0     C19010   4.750   2.446  11.706 -0.5177 -0.6459 -0.0981
  863MOL0     C19011   4.480   2.444  11.328  0.0358 -0.2196  0.0421
  863MOL0     C19012   4.403   2.321  11.350 -1.3780  0.5981  0.1811
  863MOL0     C19013   4.303   2.272  11.266  0.6432 -0.3342  1.1060
  863MOL0     C19014   4.261   2.339  11.154  0.6625 -0.3453  0.6216
  863MOL0     O19015   4.166   2.279  11.079  0.3426  0.5025 -0.1538
  863MOL0     C19016   4.135   2.335  10.956 -0.0061 -0.3050 -0.3720
  863MOL0     C19017   4.033   2.260  10.883  0.2251  0.5585  0.3795
  863MOL0     C19018   3.903   2.329  10.882  1.0047  0.5231 -0.1725
  863MOL0     C19019   3.846   2.333  11.025  0.4796 -0.1866 -0.4750
  863MOL0     C19020   3.723   2.414  11.040 -0.0477 -0.5321  0.4355
  863MOL0     C19021   3.631   2.491  11.060 -0.7516 -0.0254 -0.2531
  863MOL0     C19022   4.336   2.463  11.123 -0.6448  0.1842  0.1288
  863MOL0     C19023   4.435   2.517  11.213 -0.5179  0.4914  0.7267
  863MOL0     C19024   4.485   2.655  11.183 -0.7407 -0.3388 -0.1821
  863MOL0     H19025   4.836   2.274  11.429  0.7422 -1.5597  1.3032
  863MOL0     H19026   5.070   2.312  11.525 -0.1401 -2.8359  2.1211
  863MOL0     H19027   5.076   2.374  11.917  1.3939  0.0028  1.1960
  863MOL0     H19028   5.187   2.525  11.919 -0.5081  0.8872  0.3373
  863MOL0     H19029   5.270   2.293  11.976  1.2398  2.2241  0.8691
  863MOL0     H19030   5.250   2.249  11.809  5.0754  0.5647  0.0096
  863MOL0     H19031   5.485   2.321  11.806  4.3241  3.7713  0.0646
  863MOL0     H19032   5.406   2.458  11.744 -0.8303 -2.9157 -1.8013
  863MOL0     H19033   5.419   2.569  11.978 -1.0422 -0.7591  2.3994
  863MOL0     H19034   5.421   2.426  12.061  0.1114 -0.6677  0.0435
  863MOL0     H19035   5.631   2.528  12.065 -2.8078 -1.5258  1.5552
  863MOL0     H19036   5.636   2.550  11.880  2.0927 -0.0454  0.7345
  863MOL0     H19037   5.726   2.336  12.067 -0.6815 -0.8171  0.4727
  863MOL0     H19038   5.671   2.276  11.913  0.8483  0.4439 -0.4945
  863MOL0     H19039   5.818   2.415  11.790 -1.6276  0.8487  0.1683
  863MOL0     H19040   5.919   2.313  11.904 -0.0207  0.0695  1.5907
  863MOL0     H19041   6.029   2.519  11.907  1.0966 -3.7604  2.3413
  863MOL0     H19042   5.875   2.613  11.923  0.3791  0.3181  0.1460
  863MOL0     H19043   6.107   2.343  12.087  1.9846  0.2686  2.2369
  863MOL0     H19044   6.105   2.233  12.326  0.1466  0.5152 -0.3413
  863MOL0     H19045   6.051   2.303  12.462  0.9665 -3.9164  0.3247
  863MOL0     H19046   6.289   2.319  12.476  0.4193  1.3406  1.1687
  863MOL0     H19047   6.324   2.357  12.309  1.4581 -1.7105  1.5992
  863MOL0     H19048   6.229   2.588  12.339  0.8147 -0.7294  0.0011
  863MOL0     H19049   6.203   2.552  12.514  2.2185  2.1393  1.6453
  863MOL0     H19050   6.470   2.529  12.357  0.7395 -0.6277  0.1689
  863MOL0     H19051   6.439   2.668  12.435  1.6286 -0.0299  1.1425
  863MOL0     H19052   6.534   2.646  12.763 -2.1656 -0.7675 -2.5944
  863MOL0     H19053   6.797   2.811  12.884  1.6250 -0.7685 -0.6738
  863MOL0     H19054   6.820   2.657  12.959  0.2514 -0.7162 -0.7639
  863MOL0     H19055   6.659   2.715  12.935  0.4113  2.3155 -0.1124
  863MOL0     H19056   7.295   2.415  12.614 -0.8747  0.9774 -0.6531
  863MOL0     H19057   7.517   2.420  12.695 -0.6237 -0.1269 -0.1945
  863MOL0     H19058   7.654   2.586  13.116  0.4781 -0.0661  0.3341
  863MOL0     H19059   7.531   2.452  13.120 -0.1794 -0.9851 -0.4821
  863MOL0     H19060   7.755   2.382  13.189 -0.9278 -0.0464  0.3791
  863MOL0     H19061   7.721   2.302  13.037  0.8164 -0.2090  1.1271
  863MOL0     H19062   7.847   2.535  12.947 -2.4057  0.4872  0.3837
  863MOL0     H19063   7.923   2.377  12.976  0.9767 -0.1966  2.0658
  863MOL0     H19064   7.960   2.463  13.227 -0.3291  0.7399  0.3029
  863MOL0     H19065   7.881   2.606  13.159  2.4785  1.6729 -0.5441
  863MOL0     H19066   8.147   2.485  13.072 -1.2054 -1.6719 -0.4054
  863MOL0     H19067   8.086   2.640  13.019  0.6238 -1.6126 -1.1395
  863MOL0     H19068   8.248   2.649  13.208 -0.3326  0.6005 -0.4147
  863MOL0     H19069   8.120   2.586  13.317  0.3125 -0.1631 -1.3584
  863MOL0     H19070   8.110   2.823  13.345 -5.1377 -1.3450  2.3863
  863MOL0     H19071   7.981   2.797  13.225 -0.0840 -0.2408  0.1629
  863MOL0     H19072   8.123   2.860  13.047  2.5727  0.7197 -1.2562
  863MOL0     H19073   8.258   2.891  13.163 -0.3500 -0.7100  2.9002
  863MOL0     H19074   7.377   2.631  13.052 -1.9341  0.9437 -0.3017
  863MOL0     H19075   7.152   2.644  12.949 -0.5030  0.1349 -0.5202
  863MOL0     H19076   6.917   2.489  12.503  0.2199  1.5426 -0.5383
  863MOL0     H19077   6.678   2.417  12.446 -0.1548  0.6956 -0.1791
  863MOL0     H19078   4.889   2.496  11.866 -1.7825 -1.8410  1.6609
  863MOL0     H19079   4.660   2.483  11.755 -0.1930 -2.9094  2.4108
  863MOL0     H19080   4.440   2.261  11.433  0.1127  0.7207 -0.3872
  863MOL0     H19081   4.261   2.175  11.293  0.8053 -0.5478  0.5988
  863MOL0     H19082   4.102   2.436  10.982 -0.3177 -0.9307  1.8886
  863MOL0     H19083   4.225   2.338  10.893 -1.3922  3.0199 -2.4658
  863MOL0     H19084   4.021   2.158  10.922  0.4477 -0.5308 -2.1819
  863MOL0     H19085   4.070   2.253  10.781 -0.8729  2.1808 -0.1753
  863MOL0     H19086   3.920   2.433  10.854  2.8139  0.4825  0.6468
  863MOL0     H19087   3.845   2.268  10.811  1.5653  0.1300 -0.2957
  863MOL0     H19088   3.921   2.371  11.094  1.1852 -1.0962 -0.7290
  863MOL0     H19089   3.817   2.230  11.052 -1.6689  0.3243 -0.6256
  863MOL0     H19090   3.545   2.547  11.092 -0.7306  0.3197 -0.7857
  863MOL0     H19091   4.313   2.527  11.038  0.8712  0.5844 -0.0032
  863MOL0     H19092   4.426   2.711  11.110  0.6351 -0.0684 -1.1340
  863MOL0     H19093   4.492   2.705  11.279  1.0234 -3.2497  1.3335
  863MOL0     H19094   4.585   2.664  11.139 -1.1566  3.3157 -0.6646
  864MOL0     O19095   9.566   8.828   4.212  0.2000 -0.2254  0.1916
  864MOL0     C19096   9.490   8.735   4.207 -0.1666  0.2566 -0.5090
  864MOL0     O19097   9.521   8.606   4.168  0.8055 -1.3156 -0.1135
  864MOL0     C19098   9.633   8.545   4.214 -0.5583  0.0022  0.8307
  864MOL0     C19099   9.685   8.448   4.127  0.4507  0.5087 -0.5260
  864MOL0     C19100   9.781   8.357   4.178  0.1237  0.4733  0.7554
  864MOL0     C19101   9.836   8.363   4.309  0.5290 -0.1441  1.1266
  864MOL0     O19102   9.944   8.284   4.340 -0.0354  0.5096 -0.0450
  864MOL0     C19103   9.915   8.146   4.353  0.5764 -0.2983  0.4873
  864MOL0     C19104  10.015   8.063   4.268 -0.7971 -0.2064  0.0579
  864MOL0     C19105  10.148   8.046   4.344 -0.0728  0.4868  0.6666
  864MOL0     C19106  10.251   7.951   4.268 -0.2397 -0.4935  0.3205
  864MOL0     C19107  10.347   7.906   4.367 -0.5894  0.1396 -0.0878
  864MOL0     C19108  10.474   7.840   4.312  0.2105 -0.0558  0.6451
  864MOL0     C19109  10.584   7.809   4.418 -0.6657 -0.8204  0.3061
  864MOL0     C19110  10.537   7.707   4.517  0.3703  0.1255  0.2425
  864MOL0     N19111  10.640   7.656   4.602 -0.3561  0.6887  0.1128
  864MOL0     C19112  10.698   7.723   4.704 -0.1387  0.2508 -0.3406
  864MOL0     C19113  10.768   7.627   4.765  0.0027  0.7551 -0.5128
  864MOL0     C19114  10.867   7.646   4.872  1.0049 -0.3754  0.0274
  864MOL0     C19115  11.012   7.618   4.804 -0.0634  0.0088  0.1488
  864MOL0     C19116  11.044   7.712   4.676  0.0358  0.2362 -0.9951
  864MOL0     C19117  11.029   7.859   4.715  0.6087 -0.7732 -0.2660
  864MOL0     O19118  11.111   7.880   4.831  0.5401  0.1460  0.2927
  864MOL0     C19119  11.157   8.007   4.848  0.7468  0.4038 -0.3583
  864MOL0     C19120  11.250   8.011   4.944 -0.5446 -0.8474 -0.0498
  864MOL0     C19121  11.323   8.125   4.973 -0.6516  0.8928  0.4176
  864MOL0     C19122  11.432   8.107   5.078  0.1580  0.4944 -0.0598
  864MOL0     C19123  11.306   8.247   4.897 -0.0334 -1.1016 -0.1238
  864MOL0     C19124  11.379   8.382   4.925 -0.0272  0.2127  0.5433
  864MOL0     O19125  11.360   8.482   4.841  0.2928 -0.7681  0.3037
  864MOL0     C19126  11.448   8.588   4.832 -0.3476 -0.0463 -0.5598
  864MOL0     C19127  11.408   8.719   4.849 -0.1769 -0.1213  0.0205
  864MOL0     C19128  11.497   8.824   4.852 -0.4750  0.6415 -0.3938
  864MOL0     C19129  11.636   8.803   4.846  0.2015  0.0420  0.3301
  864MOL0     O19130  11.733   8.902   4.850 -0.4238  0.0907  0.1055
  864MOL0     C19131  11.702   9.037   4.818 -0.4251  0.4555 -0.1837
  864MOL0     C19132  11.656   9.124   4.933  0.0123 -0.1669 -0.3846
  864MOL0     C19133  11.736   9.263   4.934  1.2084  0.0058  0.2376
  864MOL0     C19134  11.703   9.333   5.063 -0.4118  0.5354 -0.2614
  864MOL0     C19135  11.782   9.457   5.092 -0.2250  0.7053  0.3922
  864MOL0     C19136  11.725   9.547   5.196 -0.0888 -0.8832  0.0957
  864MOL0     C19137  11.820   9.651   5.250  0.7381 -0.1806  0.2362
  864MOL0     C19138  11.895   9.592   5.376  0.2959 -0.2223  0.5901
  864MOL0    Cl19139  12.034   9.696   5.406 -0.1455 -0.4803 -0.1174
  864MOL0     C19140  11.682   8.671   4.833  0.6997 -0.7862 -0.4879
  864MOL0     C19141  11.594   8.563   4.822 -0.0019 -0.2607 -0.0873
  864MOL0     O19142  11.449   8.386   5.027 -0.2775 -0.2837 -0.8397
  864MOL0     C19143  11.219   8.233   4.789  0.1171  1.0494 -0.0076
  864MOL0     C19144  11.149   8.114   4.763 -0.2372  0.7074 -0.2102
  864MOL0     N19145  10.766   7.507   4.693  0.0143  0.1141 -0.1486
  864MOL0     N19146  10.678   7.524   4.597 -0.6550  0.0422 -0.3454
  864MOL0     C19147   9.785   8.468   4.384  0.8082  0.9884 -1.1094
  864MOL0     C19148   9.690   8.559   4.341  0.1218  1.0705  0.1556
  864MOL0     C19149   9.348   8.769   4.204 -0.8306 -0.6653 -0.5517
  864MOL0     C19150   9.294   8.850   4.101 -0.3114 -0.0270 -0.0508
  864MOL0     C19151   9.154   8.862   4.096  0.6874  0.0273  0.2047
  864MOL0     C19152   9.061   8.787   4.181 -0.8206  0.2015 -0.3242
  864MOL0     O19153   8.928   8.794   4.177 -0.2846 -0.5634 -0.2301
  864MOL0     C19154   8.860   8.858   4.064  0.5346  0.2294 -0.0480
  864MOL0     C19155   8.713   8.798   4.050 -0.2575  0.2386 -0.2775
  864MOL0     C19156   8.641   8.836   4.183  0.1393  0.3781  0.6709
  864MOL0     C19157   8.485   8.829   4.172 -0.9332  0.3924  0.0067
  864MOL0     C19158   8.444   8.827   4.312  0.4722  0.3527  1.0192
  864MOL0     C19159   8.399   8.821   4.419  0.4744 -0.1005 -0.9357
  864MOL0     C19160   9.126   8.718   4.285  0.1282 -0.4100 -0.7400
  864MOL0     C19161   9.266   8.713   4.305  0.3426 -0.7134  1.5261
  864MOL0     C19162   9.316   8.631   4.423  0.8587 -0.6056  0.5052
  864MOL0     H19163   9.634   8.429   4.033 -0.7281  0.8371  0.0329
  864MOL0     H19164   9.831   8.288   4.111  1.6593 -0.3113  2.5973
  864MOL0     H19165   9.820   8.125   4.303 -0.0800  1.2480  0.9966
  864MOL0     H19166   9.906   8.116   4.458  1.8542  1.0257  1.0124
  864MOL0     H19167   9.975   7.967   4.237 -0.7767  0.3500 -1.7681
  864MOL0     H19168  10.057   8.114   4.181 -1.0524  1.6672  0.9825
  864MOL0     H19169  10.199   8.137   4.374 -0.2241  1.0628 -0.7357
  864MOL0     H19170  10.117   8.000   4.439 -0.5956  0.6659  0.5862
  864MOL0     H19171  10.195   7.867   4.226 -1.6444  0.5758 -0.0229
  864MOL0     H19172  10.300   7.995   4.181  0.2291 -2.5111 -0.5048
  864MOL0     H19173  10.301   7.835   4.436  3.1486 -0.9882  1.5499
  864MOL0     H19174  10.369   7.996   4.426 -0.2893  0.6874 -1.0158
  864MOL0     H19175  10.453   7.751   4.252 -1.5429  1.5285 -1.2728
  864MOL0     H19176  10.508   7.918   4.244 -0.6710 -1.1755 -1.1526
  864MOL0     H19177  10.598   7.900   4.478 -0.6206 -2.9455  3.7989
  864MOL0     H19178  10.672   7.778   4.361  0.2640  0.2227  1.1152
  864MOL0     H19179  10.458   7.754   4.576  1.5185  3.6519 -0.7153
  864MOL0     H19180  10.486   7.629   4.459 -0.9320  1.9344 -1.2081
  864MOL0     H19181  10.694   7.830   4.721 -0.7133  0.2865 -0.6462
  864MOL0     H19182  10.843   7.572   4.948  1.2663 -2.3859 -1.7653
  864MOL0     H19183  10.858   7.747   4.914 -1.5196 -0.5239 -0.0431
  864MOL0     H19184  11.092   7.631   4.877  0.6665  0.8667 -0.7993
  864MOL0     H19185  11.020   7.514   4.770  1.3621 -0.4636  1.7537
  864MOL0     H19186  11.146   7.698   4.638  0.2652 -2.7906  0.4180
  864MOL0     H19187  10.979   7.674   4.597 -2.9442 -1.2314  1.9273
  864MOL0     H19188  11.060   7.922   4.631  2.4039 -0.4237  0.6123
  864MOL0     H19189  10.927   7.885   4.744  0.1943  0.6478 -2.7318
  864MOL0     H19190  11.250   7.924   5.009  0.1468 -1.2581 -0.5924
  864MOL0     H19191  11.529   8.143   5.043  0.5375 -1.0075 -0.6457
  864MOL0     H19192  11.444   8.002   5.109  1.3687  0.5692 -0.2212
  864MOL0     H19193  11.404   8.170   5.163  2.3984  1.5023 -0.0092
  864MOL0     H19194  11.304   8.746   4.862 -0.2022  1.1680 -2.2792
  864MOL0     H19195  11.461   8.927   4.853 -3.8334 -0.3283 -2.5413
  864MOL0     H19196  11.787   9.079   4.764 -0.2115  0.7810  0.3993
  864MOL0     H19197  11.620   9.038   4.745 -0.6978 -0.5583  0.0949
  864MOL0     H19198  11.548   9.136   4.922 -0.0365  2.6814  2.0091
  864MOL0     H19199  11.672   9.076   5.030 -0.7421 -1.1566 -0.7309
  864MOL0     H19200  11.696   9.329   4.857 -3.1150 -0.3851  1.8546
  864MOL0     H19201  11.845   9.255   4.929  1.5914  3.6708 -0.1505
  864MOL0     H19202  11.707   9.258   5.142  2.0440  0.5963 -0.2577
  864MOL0     H19203  11.596   9.355   5.061 -1.1249 -2.4244  0.1759
  864MOL0     H19204  11.886   9.438   5.118  0.0482  1.7319  0.0989
  864MOL0     H19205  11.779   9.515   4.999 -1.1397  1.2534  0.7548
  864MOL0     H19206  11.690   9.487   5.280  3.4441 -0.5787  1.9946
  864MOL0     H19207  11.639   9.597   5.150 -0.7689 -0.3161  1.8932
  864MOL0     H19208  11.769   9.742   5.283  0.0997 -0.0659 -1.0344
  864MOL0     H19209  11.880   9.683   5.164 -0.0513 -2.4055 -1.2305
  864MOL0     H19210  11.928   9.490   5.355  1.7669  0.3705 -0.1870
  864MOL0     H19211  11.835   9.591   5.467  1.4905  0.8929  1.4353
  864MOL0     H19212  11.788   8.665   4.809  1.0797  3.0076 -0.2829
  864MOL0     H19213  11.627   8.463   4.796 -1.0707 -0.8221  0.6164
  864MOL0     H19214  11.204   8.322   4.729  1.2807  1.7050  0.6301
  864MOL0     H19215  11.089   8.112   4.673  1.0042  0.7029 -1.0679
  864MOL0     H19216   9.824   8.477   4.485 -0.4326  0.1312 -0.5221
  864MOL0     H19217   9.632   8.620   4.409 -1.1650 -2.9542  3.0080
  864MOL0     H19218   9.364   8.901   4.035 -1.0300  2.1211  0.7679
  864MOL0     H19219   9.114   8.902   4.003 -2.2158 -2.9233 -0.0077
  864MOL0     H19220   8.858   8.967   4.076 -0.6408  0.3097 -0.8156
  864MOL0     H19221   8.906   8.835   3.967 -1.3704 -4.3537 -0.0945
  864MOL0     H19222   8.716   8.689   4.038 -0.1034  0.3207 -1.0083
  864MOL0     H19223   8.663   8.846   3.966 -1.3521 -1.0954 -0.4208
  864MOL0     H19224   8.676   8.760   4.253 -0.6533 -0.4447  0.1901
  864MOL0     H19225   8.673   8.933   4.223  1.9345  0.0087  0.1954
  864MOL0     H19226   8.452   8.733   4.130 -0.0989 -1.1884  2.7056
  864MOL0     H19227   8.444   8.922   4.132  0.6168  1.8500  1.6282
  864MOL0     H19228   8.364   8.794   4.517 -0.4967 -2.5859 -1.8853
  864MOL0     H19229   9.076   8.660   4.363  1.0708 -0.3448 -0.0714
  864MOL0     H19230   9.236   8.620   4.497  0.1694 -0.7405 -0.2348
  864MOL0     H19231   9.347   8.533   4.385  0.7142 -0.8130  0.9257
  864MOL0     H19232   9.397   8.682   4.474 -0.5072  1.6861  0.5101
  865MOL0     O19233   4.164   6.561   9.208  0.2273  0.7118  0.2581
  865MOL0     C19234   4.148   6.609   9.317 -0.8782 -0.2449 -0.4012
  865MOL0     O19235   4.246   6.676   9.393  0.3562  0.2444 -0.8254
  865MOL0     C19236   4.381   6.633   9.395 -0.4153  0.1775 -0.1372
  865MOL0     C19237   4.423   6.548   9.495  0.5505 -0.1811 -0.5710
  865MOL0     C19238   4.551   6.504   9.509  1.0226  0.0516  0.1348
  865MOL0     C19239   4.642   6.531   9.401  0.6138 -0.6474  0.1069
  865MOL0     O19240   4.774   6.486   9.412  0.3032  0.2315 -0.4553
  865MOL0     C19241   4.790   6.352   9.457 -0.0892  0.1352  0.0280
  865MOL0     C19242   4.941   6.301   9.449  0.0890  0.0289  0.3667
  865MOL0     C19243   5.002   6.294   9.305 -0.3776  0.0477 -0.4708
  865MOL0     C19244   5.143   6.235   9.296  0.0390  0.7007 -0.2561
  865MOL0     C19245   5.178   6.193   9.148 -0.2406 -0.6170  0.0883
  865MOL0     C19246   5.329   6.178   9.117  0.3555 -0.6236  0.2400
  865MOL0     C19247   5.399   6.099   9.228 -0.0277 -0.6161 -0.4136
  865MOL0     C19248   5.541   6.049   9.187  0.4205 -0.4519 -0.5647
  865MOL0     N19249   5.543   5.930   9.100 -0.5513  0.4879  0.9792
  865MOL0     C19250   5.486   5.813   9.143 -0.4321  0.1063 -0.3033
  865MOL0     C19251   5.438   5.759   9.037 -0.0874  0.2739 -0.3430
  865MOL0     C19252   5.372   5.631   9.035 -0.7792  0.2895  0.1061
  865MOL0     C19253   5.226   5.648   8.972 -0.4893 -0.2575  0.4627
  865MOL0     C19254   5.145   5.759   9.033  0.0729 -0.1287 -0.4557
  865MOL0     C19255   4.998   5.778   8.983  0.1674 -0.0853  0.0927
  865MOL0     O19256   4.985   5.739   8.847  0.0807  0.2158  0.8107
  865MOL0     C19257   4.870   5.675   8.807 -0.5419  0.4479  1.5498
  865MOL0     C19258   4.745   5.691   8.862  0.1327  0.4590  0.7134
  865MOL0     C19259   4.631   5.624   8.816  0.4240  0.6429 -0.5401
  865MOL0     C19260   4.507   5.647   8.892 -0.1597 -0.2230 -0.5052
  865MOL0     C19261   4.643   5.543   8.700 -0.5043 -0.6644  0.4644
  865MOL0     C19262   4.535   5.471   8.627  0.0122  0.6874  0.1354
  865MOL0     O19263   4.564   5.372   8.529 -0.6473 -0.2923  0.0650
  865MOL0     C19264   4.475   5.265   8.523  0.5599 -0.8625 -0.3053
  865MOL0     C19265   4.433   5.222   8.390  0.7906  0.1872 -0.5842
  865MOL0     C19266   4.342   5.121   8.378 -0.6242  0.6113 -0.3676
  865MOL0     C19267   4.298   5.056   8.492  0.3518  0.9082  0.1993
  865MOL0     O19268   4.204   4.956   8.476 -0.1429 -0.1091  0.3768
  865MOL0     C19269   4.072   4.981   8.525 -0.2283  0.5656  0.6512
  865MOL0     C19270   4.001   4.850   8.533  0.1291 -0.1892 -0.0491
  865MOL0     C19271   3.839   4.857   8.523  0.3790  0.5040  0.0481
  865MOL0     C19272   3.772   4.718   8.524 -0.7551 -0.2558  0.3960
  865MOL0     C19273   3.623   4.720   8.540  0.1763  0.2978 -0.4122
  865MOL0     C19274   3.552   4.788   8.426 -0.4669 -0.2991 -0.0629
  865MOL0     C19275   3.405   4.745   8.426  0.1878  0.2585 -0.1660
  865MOL0     C19276   3.322   4.834   8.337 -0.5185  0.2928 -0.9520
  865MOL0    Cl19277   3.346   4.810   8.160  0.1294  0.4325  0.3847
  865MOL0     C19278   4.346   5.086   8.619  0.0161  0.1374 -0.0314
  865MOL0     C19279   4.437   5.190   8.639 -0.1209  0.1837  0.0767
  865MOL0     O19280   4.419   5.497   8.668  0.2913  0.5126 -0.2388
  865MOL0     C19281   4.765   5.533   8.639  0.2196 -0.0338 -0.1045
  865MOL0     C19282   4.876   5.594   8.697  0.4609 -0.1156  0.5858
  865MOL0     N19283   5.474   5.821   8.927 -1.1562  0.1348 -1.0794
  865MOL0     N19284   5.538   5.927   8.964 -0.3625 -0.1366  0.5999
  865MOL0     C19285   4.606   6.615   9.298  0.0158  0.6472  0.5069
  865MOL0     C19286   4.477   6.667   9.292  0.6185  0.2307  0.6054
  865MOL0     C19287   4.006   6.632   9.363  0.3909  0.2305  0.3968
  865MOL0     C19288   3.910   6.538   9.327  0.3359 -0.0535 -0.4739
  865MOL0     C19289   3.773   6.551   9.358 -0.0223 -0.1443  0.0234
  865MOL0     C19290   3.739   6.658   9.434  0.4640 -0.4645  0.7319
  865MOL0     O19291   3.617   6.684   9.479 -0.3293  0.3705  0.2668
  865MOL0     C19292   3.502   6.615   9.410 -0.6311  0.1347 -0.2265
  865MOL0     C19293   3.366   6.698   9.434 -0.0429  0.0104  0.3243
  865MOL0     C19294   3.343   6.828   9.359  0.4392  0.4859 -0.1415
  865MOL0     C19295   3.350   6.950   9.448  0.3324  0.5748 -0.1141
  865MOL0     C19296   3.475   6.985   9.515 -0.0803 -0.2751 -0.6909
  865MOL0     C19297   3.576   7.032   9.567 -0.5142 -0.0944 -0.2050
  865MOL0     C19298   3.830   6.755   9.477  0.3710  0.7736  0.9735
  865MOL0     C19299   3.959   6.748   9.426 -0.2635  0.0281 -0.0963
  865MOL0     C19300   4.049   6.860   9.462  0.5031  0.3656 -0.1887
  865MOL0     H19301   4.355   6.525   9.577 -1.2162  2.5281 -1.1278
  865MOL0     H19302   4.583   6.457   9.602 -2.1614 -0.0109  1.3243
  865MOL0     H19303   4.734   6.289   9.387 -1.7044 -0.4394  1.7740
  865MOL0     H19304   4.763   6.340   9.562  1.8053 -1.2210  0.4307
  865MOL0     H19305   5.008   6.369   9.502 -3.4950  3.2454  1.1624
  865MOL0     H19306   4.932   6.201   9.494 -0.0779 -0.0158  0.2341
  865MOL0     H19307   4.943   6.224   9.246 -0.3188 -1.4164  1.1150
  865MOL0     H19308   5.002   6.382   9.241  2.5986 -0.8455 -1.9217
  865MOL0     H19309   5.219   6.303   9.335 -1.5061  1.7049  1.1529
  865MOL0     H19310   5.136   6.148   9.362 -0.1370  2.3586  2.0508
  865MOL0     H19311   5.130   6.266   9.083  1.6325 -0.4028 -1.1361
  865MOL0     H19312   5.130   6.096   9.131 -0.1089 -0.4572 -1.3416
  865MOL0     H19313   5.335   6.127   9.020 -0.6618 -1.4484  0.5913
  865MOL0     H19314   5.374   6.278   9.125  3.8663 -2.1514  1.1979
  865MOL0     H19315   5.341   6.008   9.245 -0.8791 -1.2720 -5.4471
  865MOL0     H19316   5.407   6.155   9.322  1.3504 -0.7148 -0.4513
  865MOL0     H19317   5.589   6.139   9.147 -3.8340  2.0665 -0.6166
  865MOL0     H19318   5.588   6.033   9.284 -0.5524 -0.0076 -0.0022
  865MOL0     H19319   5.489   5.786   9.248  2.8246 -1.0174 -0.5855
  865MOL0     H19320   5.368   5.591   9.137 -2.4405  1.7552  0.6650
  865MOL0     H19321   5.430   5.563   8.971  0.8410  3.5795 -2.2108
  865MOL0     H19322   5.242   5.666   8.865  3.3008  0.2941  0.9853
  865MOL0     H19323   5.170   5.554   8.979 -2.3204  0.7128 -0.3229
  865MOL0     H19324   5.153   5.745   9.141 -1.8777  1.0216 -0.1174
  865MOL0     H19325   5.198   5.854   9.022 -1.7518  1.3494  2.3563
  865MOL0     H19326   4.934   5.719   9.050  2.1939 -0.9433  1.3754
  865MOL0     H19327   4.967   5.882   8.997 -0.4288 -0.4772  2.1111
  865MOL0     H19328   4.747   5.753   8.952 -0.1036 -1.2365  1.9335
  865MOL0     H19329   4.426   5.681   8.828  0.2051 -0.8154 -1.2922
  865MOL0     H19330   4.539   5.718   8.969  0.4533 -2.2066  1.1642
  865MOL0     H19331   4.486   5.559   8.953  1.3276 -0.4546 -0.2921
  865MOL0     H19332   4.468   5.270   8.299  0.3817  0.0218 -0.8297
  865MOL0     H19333   4.312   5.086   8.280  0.4792 -1.5795  0.0097
  865MOL0     H19334   4.069   5.027   8.624 -1.5972 -3.1748  2.5116
  865MOL0     H19335   4.020   5.048   8.456 -1.1796 -0.7838  0.0078
  865MOL0     H19336   4.040   4.799   8.445 -1.6452  0.3992 -1.2263
  865MOL0     H19337   4.030   4.800   8.626  0.2502  0.7871  0.4515
  865MOL0     H19338   3.824   4.916   8.432  1.5707 -1.1672 -1.3022
  865MOL0     H19339   3.794   4.905   8.610 -0.0046 -2.2743  1.5165
  865MOL0     H19340   3.807   4.667   8.614  1.1240  1.9160  1.0050
  865MOL0     H19341   3.795   4.669   8.429  1.5297  0.6628  0.3945
  865MOL0     H19342   3.600   4.614   8.531  1.3034 -0.0927  0.8622
  865MOL0     H19343   3.587   4.751   8.639  2.1248 -1.9162  1.0983
  865MOL0     H19344   3.597   4.781   8.327  2.0970 -0.2482  1.0193
  865MOL0     H19345   3.565   4.895   8.443 -0.0537 -0.2787 -0.4703
  865MOL0     H19346   3.366   4.751   8.528  0.8828 -0.6803  0.1739
  865MOL0     H19347   3.389   4.645   8.386 -1.9406  0.4264  0.1684
  865MOL0     H19348   3.337   4.937   8.371 -2.1017  0.8540 -1.8558
  865MOL0     H19349   3.218   4.810   8.359 -0.7588  0.8210 -1.4794
  865MOL0     H19350   4.311   5.032   8.706 -3.6553  0.7557 -0.9588
  865MOL0     H19351   4.469   5.213   8.740  1.3034  2.0088 -0.7377
  865MOL0     H19352   4.774   5.471   8.550 -1.1134  0.2255 -0.4273
  865MOL0     H19353   4.969   5.585   8.641 -0.2724  1.5736 -1.0463
  865MOL0     H19354   4.683   6.639   9.225  1.0991  0.5095  1.5628
  865MOL0     H19355   4.449   6.718   9.200  3.5464 -1.4462 -1.3693
  865MOL0     H19356   3.933   6.450   9.268 -1.4477 -0.6732 -0.2999
  865MOL0     H19357   3.696   6.488   9.315  1.2388 -1.6572 -0.1107
  865MOL0     H19358   3.520   6.607   9.303 -1.5888  2.3182 -0.6073
  865MOL0     H19359   3.486   6.516   9.454  0.8918  0.0857  0.2677
  865MOL0     H19360   3.362   6.731   9.538  0.3152  1.8491 -0.2071
  865MOL0     H19361   3.283   6.632   9.406  0.3664 -0.8421  1.0797
  865MOL0     H19362   3.425   6.834   9.288  0.7879 -0.2786  0.1846
  865MOL0     H19363   3.243   6.814   9.317  0.3739  1.4532 -0.3324
  865MOL0     H19364   3.271   6.935   9.523  0.3347 -0.8085 -0.3598
  865MOL0     H19365   3.328   7.038   9.387  0.6494  1.2283  0.6874
  865MOL0     H19366   3.672   7.062   9.602 -0.6083  0.6040 -0.5279
  865MOL0     H19367   3.801   6.824   9.555 -1.0365 -0.2109  1.3626
  865MOL0     H19368   4.129   6.826   9.529 -2.6322 -3.8807  1.8628
  865MOL0     H19369   4.094   6.897   9.369  1.0137 -0.9603 -0.4945
  865MOL0     H19370   3.984   6.935   9.508  1.4789 -0.0182  1.9865
  866MOL0     O19371   3.408   4.509   2.617  0.5219 -0.3535  0.7625
  866MOL0     C19372   3.328   4.520   2.711  0.3673  0.4522  0.0200
  866MOL0     O19373   3.331   4.616   2.813  0.0995  0.1613 -0.2546
  866MOL0     C19374   3.428   4.709   2.799 -0.7991 -0.4954 -0.0224
  866MOL0     C19375   3.401   4.818   2.722 -0.2052 -0.4032 -0.7376
  866MOL0     C19376   3.502   4.904   2.701 -0.2309 -0.8220 -0.0367
  866MOL0     C19377   3.630   4.896   2.754  0.1442  0.4558 -1.0215
  866MOL0     O19378   3.723   4.994   2.716  0.0085  0.0500  0.0905
  866MOL0     C19379   3.861   4.954   2.700 -1.0518  0.4851  0.1542
  866MOL0     C19380   3.894   4.969   2.546 -0.1372  0.3248  0.0863
  866MOL0     C19381   3.794   4.896   2.460 -0.4223 -0.3996 -0.2768
  866MOL0     C19382   3.818   4.746   2.468  0.1604  0.7739  0.0111
  866MOL0     C19383   3.728   4.673   2.366 -0.0351  0.1947 -0.0778
  866MOL0     C19384   3.747   4.523   2.381 -0.1309  0.1525 -0.7254
  866MOL0     C19385   3.639   4.434   2.308 -0.2093  0.2614  0.2410
  866MOL0     C19386   3.609   4.305   2.376  0.6243 -0.3600 -0.3297
  866MOL0     N19387   3.717   4.209   2.383  0.5084 -0.8218  0.4141
  866MOL0     C19388   3.832   4.220   2.459  0.5001  0.2636 -0.3515
  866MOL0     C19389   3.893   4.097   2.451 -0.6870  0.5896 -0.2319
  866MOL0     C19390   4.029   4.065   2.518 -0.3526 -0.1860 -0.1060
  866MOL0     C19391   4.105   3.946   2.466  0.2469 -0.2013  0.2055
  866MOL0     C19392   4.240   3.916   2.539  0.3176  0.3478 -0.3692
  866MOL0     C19393   4.294   3.787   2.477 -0.4556 -0.2081  0.6647
  866MOL0     O19394   4.210   3.677   2.499 -0.1594 -0.2740 -0.2092
  866MOL0     C19395   4.226   3.619   2.623 -0.2862  0.0324  0.4902
  866MOL0     C19396   4.337   3.539   2.648  0.8374  0.2756 -0.0222
  866MOL0     C19397   4.347   3.470   2.776  0.3387 -1.3921 -0.0503
  866MOL0     C19398   4.482   3.418   2.801 -0.2143 -0.0273 -0.0100
  866MOL0     C19399   4.244   3.484   2.879 -0.6574 -0.6876  0.2066
  866MOL0     C19400   4.256   3.421   3.012 -0.1411 -0.3067 -0.4474
  866MOL0     O19401   4.136   3.414   3.079 -0.3550  0.9497 -0.0299
  866MOL0     C19402   4.146   3.308   3.171  0.0659 -0.2150 -0.4125
  866MOL0     C19403   4.097   3.180   3.131 -0.3932  0.6048 -0.0185
  866MOL0     C19404   4.112   3.065   3.210 -0.1149  0.5615 -0.0308
  866MOL0     C19405   4.171   3.086   3.335  0.9335  0.6099  0.3972
  866MOL0     O19406   4.190   2.970   3.410 -0.3750 -0.4197 -0.2386
  866MOL0     C19407   4.314   2.946   3.484  0.7928  0.8437  0.4813
  866MOL0     C19408   4.331   2.800   3.539  0.7577 -0.9343  0.0049
  866MOL0     C19409   4.360   2.711   3.428  0.3093 -0.1988 -0.2164
  866MOL0     C19410   4.325   2.574   3.463 -0.0366  0.1498 -0.1340
  866MOL0     C19411   4.383   2.482   3.363 -0.0174  0.8412 -0.0634
  866MOL0     C19412   4.344   2.336   3.375  0.5428  0.2146  0.1217
  866MOL0     C19413   4.365   2.275   3.514  0.3386  0.3784 -0.3531
  866MOL0     C19414   4.352   2.119   3.500 -1.7387 -1.0448  0.1283
  866MOL0    Cl19415   4.185   2.076   3.484 -0.1975  0.1582 -0.2392
  866MOL0     C19416   4.216   3.215   3.390  0.2073  0.4854  0.5553
  866MOL0     C19417   4.199   3.327   3.299  0.0855 -0.1129 -0.2870
  866MOL0     O19418   4.364   3.407   3.067 -0.4369  0.5729  0.2547
  866MOL0     C19419   4.133   3.563   2.840  0.0877  0.0059  1.2321
  866MOL0     C19420   4.121   3.617   2.709 -0.4339 -0.7589 -0.6806
  866MOL0     N19421   3.814   4.013   2.378 -0.2752  0.0057  0.0447
  866MOL0     N19422   3.710   4.079   2.343 -0.1955  0.9941  0.6709
  866MOL0     C19423   3.651   4.786   2.841 -0.4047  0.2017 -0.5618
  866MOL0     C19424   3.554   4.693   2.857 -0.0862  0.6122  0.2838
  866MOL0     C19425   3.222   4.410   2.732 -0.5486  0.1615  0.5961
  866MOL0     C19426   3.124   4.422   2.838 -0.2002  0.6325 -0.3238
  866MOL0     C19427   3.039   4.315   2.869  0.5293 -0.7953 -0.5695
  866MOL0     C19428   3.025   4.197   2.791 -0.2398 -0.1220  0.3760
  866MOL0     O19429   2.927   4.105   2.814 -0.3348 -0.4715  0.3130
  866MOL0     C19430   2.811   4.137   2.751  1.8514  0.0390 -0.3704
  866MOL0     C19431   2.702   4.147   2.856 -0.6488 -0.0922 -0.0010
  866MOL0     C19432   2.653   4.007   2.891  0.8082 -0.4438 -0.2130
  866MOL0     C19433   2.740   3.919   2.978 -0.5063  0.4531 -0.1885
  866MOL0     C19434   2.661   3.797   2.980  0.2280  0.1266 -0.6511
  866MOL0     C19435   2.602   3.691   2.986 -0.1160 -0.1398  0.7567
  866MOL0     C19436   3.124   4.182   2.694 -0.9915  0.1079 -0.7514
  866MOL0     C19437   3.216   4.286   2.662  1.0710  0.1331 -0.1640
  866MOL0     C19438   3.305   4.256   2.544  0.3511  0.7780 -0.4146
  866MOL0     H19439   3.302   4.828   2.678 -1.3850 -1.2878  1.5402
  866MOL0     H19440   3.486   4.991   2.637  3.7191  1.9266  2.2282
  866MOL0     H19441   3.888   4.852   2.729  1.3121  1.2321  0.8608
  866MOL0     H19442   3.930   5.015   2.759  0.2286 -0.3735 -0.4100
  866MOL0     H19443   3.893   5.077   2.527  0.6601 -0.0918 -2.6331
  866MOL0     H19444   3.996   4.932   2.531 -0.3965  0.2758 -1.7993
  866MOL0     H19445   3.694   4.933   2.482  0.1376  0.7404  0.4691
  866MOL0     H19446   3.817   4.929   2.359 -1.7128 -2.2139 -1.2203
  866MOL0     H19447   3.921   4.714   2.451 -1.1066 -3.6947 -0.5252
  866MOL0     H19448   3.798   4.711   2.570 -1.9844 -0.2398 -0.7189
  866MOL0     H19449   3.770   4.705   2.270 -2.2745  0.7226 -0.9397
  866MOL0     H19450   3.623   4.703   2.368 -0.7244 -1.5416 -3.1073
  866MOL0     H19451   3.846   4.487   2.350 -0.0781 -1.4016  1.0397
  866MOL0     H19452   3.737   4.491   2.485  1.5579  0.2054 -0.5144
  866MOL0     H19453   3.653   4.421   2.200  0.3594  2.3631  0.0149
  866MOL0     H19454   3.548   4.494   2.304  0.6034  1.4777 -1.2750
  866MOL0     H19455   3.582   4.328   2.480 -1.2128 -4.0794  0.2016
  866MOL0     H19456   3.533   4.247   2.322  1.7239 -0.6957 -1.5540
  866MOL0     H19457   3.869   4.303   2.518  1.3085  0.0178 -0.5030
  866MOL0     H19458   4.023   4.057   2.627 -0.5185  1.8507  0.0730
  866MOL0     H19459   4.090   4.149   2.483 -1.7208  0.1715 -1.8005
  866MOL0     H19460   4.042   3.857   2.469 -1.7092  1.0967  3.9454
  866MOL0     H19461   4.122   3.970   2.361 -0.8865 -0.3555 -0.0199
  866MOL0     H19462   4.317   3.993   2.534  0.1721  0.6891  1.8048
  866MOL0     H19463   4.212   3.901   2.644  0.3917 -2.9500 -0.7256
  866MOL0     H19464   4.323   3.797   2.372 -2.5685 -0.4976 -0.0013
  866MOL0     H19465   4.392   3.778   2.525 -0.5796  3.0839  1.7807
  866MOL0     H19466   4.410   3.549   2.568  0.1424  0.4454 -0.6509
  866MOL0     H19467   4.537   3.469   2.881  1.0055  1.5807 -1.7631
  866MOL0     H19468   4.548   3.429   2.714 -0.4327 -1.0908 -0.3208
  866MOL0     H19469   4.475   3.312   2.828 -0.8168 -0.1715 -0.7140
  866MOL0     H19470   4.037   3.183   3.041 -1.3772  0.9917  0.6257
  866MOL0     H19471   4.066   2.975   3.171  1.5696  1.0379 -3.4867
  866MOL0     H19472   4.401   2.965   3.421  1.6840 -0.3390  1.3158
  866MOL0     H19473   4.317   3.002   3.578  1.7579 -0.0353  0.9897
  866MOL0     H19474   4.411   2.804   3.614 -0.6900 -0.6554  1.5906
  866MOL0     H19475   4.239   2.778   3.592 -0.0524  2.0592  0.0221
  866MOL0     H19476   4.464   2.727   3.397 -0.2760 -0.8190 -2.7345
  866MOL0     H19477   4.300   2.740   3.341 -0.8197 -0.7042  0.3743
  866MOL0     H19478   4.216   2.562   3.471  0.1205 -0.3218  2.3659
  866MOL0     H19479   4.358   2.545   3.564  1.4812 -0.6007 -0.8127
  866MOL0     H19480   4.349   2.510   3.263  1.0366 -2.4582 -1.4892
  866MOL0     H19481   4.493   2.480   3.364 -0.0108 -1.5906  1.2621
  866MOL0     H19482   4.404   2.275   3.307 -1.5592 -1.5046 -0.2993
  866MOL0     H19483   4.237   2.325   3.352  0.6662  0.8369 -0.8224
  866MOL0     H19484   4.288   2.305   3.586  2.4713 -0.1639  2.3339
  866MOL0     H19485   4.468   2.296   3.545 -0.3111 -0.6058  2.8240
  866MOL0     H19486   4.388   2.078   3.595  2.6978  0.7197 -0.5396
  866MOL0     H19487   4.406   2.084   3.412 -1.0940 -1.1890  0.5781
  866MOL0     H19488   4.249   3.212   3.493  0.9961 -0.9028  0.2929
  866MOL0     H19489   4.232   3.426   3.328  2.4586 -0.4930 -1.4361
  866MOL0     H19490   4.040   3.578   2.894 -1.4670  1.9424 -1.6672
  866MOL0     H19491   4.035   3.676   2.681 -0.3218 -0.3242 -0.1268
  866MOL0     H19492   3.742   4.755   2.891  1.4108  2.2000 -2.4444
  866MOL0     H19493   3.566   4.607   2.922 -3.5846 -1.0262 -0.9887
  866MOL0     H19494   3.109   4.515   2.893  2.8423 -1.0341  3.8741
  866MOL0     H19495   2.974   4.345   2.951  1.9310  1.4685 -0.1880
  866MOL0     H19496   2.803   4.233   2.699 -2.1676  0.2923  0.3728
  866MOL0     H19497   2.772   4.059   2.685  0.7270  0.8489 -0.7024
  866MOL0     H19498   2.610   4.191   2.814 -1.0600 -1.7454 -0.9325
  866MOL0     H19499   2.739   4.201   2.943  0.5705 -1.8444  0.6199
  866MOL0     H19500   2.560   4.015   2.948  2.2371  0.2020  2.1970
  866MOL0     H19501   2.640   3.957   2.795 -2.2736  2.4992 -1.5594
  866MOL0     H19502   2.764   3.956   3.077  1.6410 -1.1150 -0.0440
  866MOL0     H19503   2.832   3.897   2.923  2.8836  2.0778  4.2937
  866MOL0     H19504   2.553   3.597   2.975  1.9304 -1.0836 -1.2192
  866MOL0     H19505   3.118   4.089   2.637 -3.5442  1.3020 -2.6569
  866MOL0     H19506   3.296   4.333   2.467 -0.5264  0.4766 -0.6219
  866MOL0     H19507   3.410   4.248   2.574  0.5670 -0.3870 -1.4084
  866MOL0     H19508   3.284   4.162   2.493  1.7446  0.1170  0.1844
  867MOL0     O19509   5.867   8.210   6.341  0.5227 -0.0128 -0.0726
  867MOL0     C19510   5.788   8.269   6.410 -0.7932 -1.4433 -0.5337
  867MOL0     O19511   5.827   8.349   6.518 -0.1769  1.2180  0.4255
  867MOL0     C19512   5.957   8.362   6.565  0.0091  0.2276 -0.3040
  867MOL0     C19513   6.053   8.250   6.562  0.2444 -0.8261  1.0524
  867MOL0     C19514   6.183   8.282   6.601  0.0522  0.7800 -0.5606
  867MOL0     C19515   6.214   8.410   6.651  0.2724  0.3898  0.3890
  867MOL0     O19516   6.346   8.448   6.689  0.9029  0.0645 -0.4663
  867MOL0     C19517   6.452   8.360   6.643 -0.3425 -0.8587  0.2966
  867MOL0     C19518   6.588   8.426   6.690  0.9876  0.4228 -0.2249
  867MOL0     C19519   6.586   8.447   6.842  0.0318  0.8304 -0.5421
  867MOL0     C19520   6.715   8.524   6.890 -0.0535  0.6208  0.4487
  867MOL0     C19521   6.853   8.446   6.866 -0.3216 -0.5914 -0.2767
  867MOL0     C19522   6.874   8.315   6.933 -0.0515 -0.1258 -0.5326
  867MOL0     C19523   6.996   8.224   6.906 -0.1095  0.1005  0.5843
  867MOL0     C19524   7.140   8.273   6.959  0.8248 -0.2457  0.3021
  867MOL0     N19525   7.131   8.302   7.103  0.1751  0.1594 -0.0047
  867MOL0     C19526   7.172   8.207   7.198 -0.3659 -0.8580  0.4678
  867MOL0     C19527   7.178   8.277   7.315  0.5093 -0.0435  0.0602
  867MOL0     C19528   7.221   8.223   7.445  0.7683 -0.1480 -0.5817
  867MOL0     C19529   7.371   8.248   7.475 -0.1846 -0.8243 -0.4818
  867MOL0     C19530   7.416   8.254   7.624  0.0556 -0.1828  1.1575
  867MOL0     C19531   7.393   8.120   7.703 -0.1799  0.2314  0.9940
  867MOL0     O19532   7.476   8.110   7.812  0.2362  0.2709 -0.0064
  867MOL0     C19533   7.610   8.123   7.803 -0.0447  1.0314 -0.0075
  867MOL0     C19534   7.683   8.186   7.903 -0.7368 -0.3329  0.4802
  867MOL0     C19535   7.826   8.197   7.903 -0.0796 -0.0621 -0.3216
  867MOL0     C19536   7.894   8.268   8.016 -0.4678  0.3258  0.6553
  867MOL0     C19537   7.903   8.152   7.795  0.7273  0.3513  0.3229
  867MOL0     C19538   8.046   8.160   7.766  0.0137 -0.5329 -0.2541
  867MOL0     O19539   8.130   8.126   7.870 -0.3007 -0.0973 -0.9213
  867MOL0     C19540   8.265   8.138   7.845 -0.0611  0.8427 -0.7713
  867MOL0     C19541   8.347   8.238   7.904 -0.6869 -0.0488 -0.6431
  867MOL0     C19542   8.484   8.248   7.873 -0.7395  0.3408  0.2459
  867MOL0     C19543   8.542   8.140   7.804  0.5786  0.1608 -0.0682
  867MOL0     O19544   8.674   8.121   7.778 -0.1716  0.0095  0.2269
  867MOL0     C19545   8.776   8.192   7.857 -0.8338  1.1684  0.0200
  867MOL0     C19546   8.908   8.124   7.804  0.0288  0.4892  0.1037
  867MOL0     C19547   9.036   8.148   7.881 -0.4363  0.6208  0.2009
  867MOL0     C19548   9.083   8.292   7.884 -0.4727 -0.5007 -0.1127
  867MOL0     C19549   9.233   8.301   7.881 -0.3791 -0.0553  0.7035
  867MOL0     C19550   9.322   8.225   7.989  0.1561  0.6040 -0.3912
  867MOL0     C19551   9.481   8.247   7.962 -0.0473 -0.1724  0.4885
  867MOL0     C19552   9.551   8.200   8.088  1.0201 -0.1756 -0.9392
  867MOL0    Cl19553   9.628   8.349   8.167  0.0639  0.7722 -0.2532
  867MOL0     C19554   8.464   8.033   7.761  0.0696 -0.8455  0.1603
  867MOL0     C19555   8.329   8.028   7.788  0.1947 -0.4760 -0.3690
  867MOL0     O19556   8.082   8.189   7.651 -0.1964 -0.5986 -0.2652
  867MOL0     C19557   7.824   8.084   7.696 -0.0809 -1.1212 -0.1112
  867MOL0     C19558   7.686   8.069   7.699  0.5075 -0.0755  0.4568
  867MOL0     N19559   7.119   8.398   7.294  0.0434 -0.3935 -0.1238
  867MOL0     N19560   7.094   8.422   7.170 -0.0054  0.3651 -0.7742
  867MOL0     C19561   6.121   8.508   6.663 -0.0658  0.3747 -0.0234
  867MOL0     C19562   5.991   8.483   6.620 -0.1747  0.1569  0.6468
  867MOL0     C19563   5.647   8.264   6.359  0.1776  0.5921 -0.2275
  867MOL0     C19564   5.575   8.385   6.371 -0.2530  0.2439 -0.6471
  867MOL0     C19565   5.442   8.390   6.325  0.1861 -0.0135  0.4169
  867MOL0     C19566   5.383   8.276   6.263  0.1208  0.6057 -1.3833
  867MOL0     O19567   5.257   8.300   6.227  0.1459 -0.0665 -0.2477
  867MOL0     C19568   5.177   8.179   6.183  0.0930  0.2975  0.6205
  867MOL0     C19569   5.039   8.222   6.132 -0.9620 -0.5517 -0.0972
  867MOL0     C19570   4.949   8.290   6.235  0.4357  0.1707  0.2476
  867MOL0     C19571   4.822   8.365   6.181 -0.2727 -0.6316 -0.6447
  867MOL0     C19572   4.777   8.467   6.275  0.4508 -0.0342 -0.0492
  867MOL0     C19573   4.738   8.565   6.340  0.0179 -0.0330  0.3744
  867MOL0     C19574   5.460   8.155   6.250 -0.1614  0.3492 -0.1021
  867MOL0     C19575   5.589   8.149   6.291  0.7260 -0.4822  0.1230
  867MOL0     C19576   5.664   8.014   6.262 -0.1147  0.1611  0.8086
  867MOL0     H19577   6.020   8.157   6.516 -1.1427 -0.0773  0.4628
  867MOL0     H19578   6.260   8.206   6.601  0.6944  1.4124  0.4241
  867MOL0     H19579   6.460   8.357   6.534 -0.5450 -0.1118  0.2580
  867MOL0     H19580   6.447   8.258   6.682  1.6945 -1.2446 -0.3331
  867MOL0     H19581   6.661   8.352   6.655 -0.2367 -0.8820 -0.1366
  867MOL0     H19582   6.590   8.528   6.649 -1.0694  1.2524  1.5657
  867MOL0     H19583   6.494   8.500   6.869  0.3816  0.4872  1.4247
  867MOL0     H19584   6.581   8.349   6.890  0.2619  0.2885 -1.5778
  867MOL0     H19585   6.717   8.612   6.825 -2.1126  0.9128  0.7327
  867MOL0     H19586   6.703   8.548   6.996 -1.9553  0.9619  0.1920
  867MOL0     H19587   6.941   8.495   6.910 -1.0350 -0.0724  0.5934
  867MOL0     H19588   6.875   8.447   6.759 -1.9235  0.3425 -0.6347
  867MOL0     H19589   6.858   8.322   7.041 -1.8432  1.1020 -0.8275
  867MOL0     H19590   6.785   8.258   6.902 -0.4731 -1.4412  2.6873
  867MOL0     H19591   7.002   8.211   6.798  0.8317 -0.0114  0.6461
  867MOL0     H19592   6.984   8.127   6.955  0.5051 -0.0558  0.4340
  867MOL0     H19593   7.209   8.190   6.938  0.7372  0.0718 -1.3944
  867MOL0     H19594   7.165   8.359   6.896 -0.2855 -0.6365 -0.7223
  867MOL0     H19595   7.200   8.104   7.179  0.2003 -0.4682 -0.9104
  867MOL0     H19596   7.194   8.118   7.454  2.5852 -0.5982 -0.0476
  867MOL0     H19597   7.167   8.276   7.524 -0.4315 -0.5616 -1.0958
  867MOL0     H19598   7.430   8.165   7.434  2.2726  0.5191  0.2029
  867MOL0     H19599   7.392   8.344   7.429 -2.4721 -0.3765 -0.7433
  867MOL0     H19600   7.523   8.273   7.609 -0.3777  1.0784 -0.6861
  867MOL0     H19601   7.376   8.344   7.671  1.0601  2.2405 -2.2630
  867MOL0     H19602   7.286   8.105   7.719 -0.5476 -1.8118 -2.4630
  867MOL0     H19603   7.419   8.038   7.636 -0.9579  0.1377  0.7990
  867MOL0     H19604   7.628   8.232   7.985 -0.8408 -0.4466  0.4738
  867MOL0     H19605   7.992   8.305   7.984 -0.3178 -1.0879 -0.6110
  867MOL0     H19606   7.895   8.205   8.106 -0.3422  0.7269  0.9375
  867MOL0     H19607   7.834   8.356   8.040 -0.1126  1.1335 -1.2395
  867MOL0     H19608   8.299   8.315   7.963 -1.5628 -1.1885  0.1618
  867MOL0     H19609   8.542   8.337   7.898 -1.3054  0.5587  0.8075
  867MOL0     H19610   8.782   8.301   7.853  1.3564  1.0926  0.5404
  867MOL0     H19611   8.764   8.154   7.959  0.1753  0.5315 -0.0891
  867MOL0     H19612   8.898   8.015   7.808  1.1883  0.4112  3.0713
  867MOL0     H19613   8.932   8.153   7.701  0.6026 -0.5486 -0.0721
  867MOL0     H19614   9.110   8.088   7.828 -1.3364 -0.6444  0.3462
  867MOL0     H19615   9.033   8.109   7.983  0.1630  1.0996  0.4088
  867MOL0     H19616   9.054   8.335   7.980  2.8753 -0.2928  0.9156
  867MOL0     H19617   9.042   8.361   7.810  0.4764  2.7465  2.1545
  867MOL0     H19618   9.262   8.267   7.781 -2.7555 -0.1926 -0.0200
  867MOL0     H19619   9.267   8.403   7.902  2.3398 -0.7197 -0.0530
  867MOL0     H19620   9.297   8.119   7.977  0.0259  0.0758  3.2871
  867MOL0     H19621   9.299   8.255   8.092 -0.7826 -2.6833  0.4862
  867MOL0     H19622   9.492   8.352   7.933 -0.4333  0.3751  2.2090
  867MOL0     H19623   9.513   8.191   7.874  0.1656 -0.2063  0.5874
  867MOL0     H19624   9.628   8.126   8.065 -1.1810 -1.9868 -3.1423
  867MOL0     H19625   9.481   8.158   8.160 -1.2628  0.7940 -2.4494
  867MOL0     H19626   8.515   7.955   7.706  2.5319  1.7364 -1.5171
  867MOL0     H19627   8.278   7.938   7.756  0.2384 -0.1705 -1.3181
  867MOL0     H19628   7.876   8.038   7.612  1.6636 -0.0558  0.3298
  867MOL0     H19629   7.639   8.016   7.617 -1.5803  0.0080  1.5353
  867MOL0     H19630   6.157   8.601   6.704  0.4304  0.7541 -1.2675
  867MOL0     H19631   5.915   8.561   6.620 -1.5043 -0.6224 -5.5962
  867MOL0     H19632   5.612   8.473   6.422  0.5149 -0.9249  0.8634
  867MOL0     H19633   5.377   8.476   6.331  0.4164  0.2420 -0.6291
  867MOL0     H19634   5.221   8.130   6.096 -4.5134  1.3594 -2.6744
  867MOL0     H19635   5.163   8.107   6.263 -1.0089  0.5135  0.6343
  867MOL0     H19636   4.996   8.133   6.086 -3.6085 -0.1571  1.4014
  867MOL0     H19637   5.057   8.278   6.039  0.4550 -1.3183 -0.3084
  867MOL0     H19638   4.912   8.209   6.298 -0.7836  0.6508  0.1832
  867MOL0     H19639   4.997   8.356   6.307  0.7058 -0.3050  0.5019
  867MOL0     H19640   4.743   8.291   6.168 -0.5587 -0.1260 -1.9411
  867MOL0     H19641   4.836   8.406   6.081  2.5410  1.5994  0.5178
  867MOL0     H19642   4.703   8.653   6.390  1.1189  1.4737 -1.4193
  867MOL0     H19643   5.407   8.072   6.203 -3.6262  0.8317  2.4984
  867MOL0     H19644   5.600   7.968   6.187  0.6512 -1.1828  0.9511
  867MOL0     H19645   5.766   8.030   6.227 -0.5379  1.2484 -0.0146
  867MOL0     H19646   5.663   7.961   6.358  0.4164  1.5016  1.5873
  868MOL0     O19647   2.163   1.210  11.121 -0.1088  0.5788  0.1596
  868MOL0     C19648   2.141   1.323  11.150  0.3490 -0.4538 -0.9106
  868MOL0     O19649   2.230   1.415  11.210  0.3890  0.2138 -0.4180
  868MOL0     C19650   2.353   1.365  11.229 -0.8676 -0.8096 -0.1161
  868MOL0     C19651   2.375   1.266  11.331 -0.6508 -0.1263 -0.1993
  868MOL0     C19652   2.505   1.232  11.357  1.3053 -0.4863 -0.9314
  868MOL0     C19653   2.613   1.274  11.276  0.3964 -0.2863  0.3937
  868MOL0     O19654   2.732   1.224  11.293  0.4075 -0.0820 -0.3820
  868MOL0     C19655   2.846   1.275  11.218 -0.4767 -0.1507  0.1062
  868MOL0     C19656   2.965   1.202  11.276  0.1752  0.1934  0.3056
  868MOL0     C19657   3.100   1.260  11.227  0.5070  0.7675 -0.3314
  868MOL0     C19658   3.214   1.179  11.284  0.1089 -0.1919 -0.5757
  868MOL0     C19659   3.343   1.249  11.249 -0.9669  0.0640  0.6027
  868MOL0     C19660   3.467   1.193  11.318  0.1448  0.1239 -0.2419
  868MOL0     C19661   3.487   1.047  11.273  0.0012 -0.1766  0.5207
  868MOL0     C19662   3.608   0.977  11.352  0.0623  0.3146  0.7403
  868MOL0     N19663   3.736   1.036  11.303  0.2555  0.2494 -0.2087
  868MOL0     C19664   3.805   1.129  11.376  0.1043  0.6589  0.4063
  868MOL0     C19665   3.921   1.148  11.315  0.2461  0.4569 -0.3738
  868MOL0     C19666   4.044   1.215  11.364  0.5765  0.0093 -0.0493
  868MOL0     C19667   4.117   1.156  11.479 -1.1134  0.2298 -0.2832
  868MOL0     C19668   4.260   1.214  11.506  0.1833 -1.0934 -0.3064
  868MOL0     C19669   4.340   1.138  11.609  0.4306  0.3345 -0.3802
  868MOL0     O19670   4.484   1.158  11.582 -0.6881  0.5072 -0.9693
  868MOL0     C19671   4.567   1.099  11.678  0.4683  0.3023 -0.1690
  868MOL0     C19672   4.523   1.022  11.792  0.0481  0.3698  0.2449
  868MOL0     C19673   4.615   0.967  11.882 -0.7753 -0.0828 -0.4430
  868MOL0     C19674   4.570   0.893  11.999  0.7241  0.7968 -0.9044
  868MOL0     C19675   4.754   0.980  11.872  0.7169  0.1596  0.7487
  868MOL0     C19676   4.855   0.941  11.973  0.2479  0.1007  0.2315
  868MOL0     O19677   4.978   0.910  11.923  0.3443  0.3781 -0.1338
  868MOL0     C19678   5.094   0.934  11.989  1.1289 -0.3313 -0.2885
  868MOL0     C19679   5.203   0.916  11.906  0.2877  0.4304  0.5083
  868MOL0     C19680   5.331   0.967  11.944  0.1740  0.3169 -0.6194
  868MOL0     C19681   5.354   1.017  12.078  0.1705  0.0035  0.4412
  868MOL0     O19682   5.474   1.068  12.107  0.5151  0.2625  0.0368
  868MOL0     C19683   5.592   0.995  12.102 -0.2345 -0.4076 -0.5056
  868MOL0     C19684   5.711   1.084  12.100  0.1152 -0.1104  0.7786
  868MOL0     C19685   5.839   1.017  12.141  0.2548  0.2424 -0.2757
  868MOL0     C19686   5.950   1.120  12.111 -0.2638 -0.1992  0.7346
  868MOL0     C19687   6.087   1.077  12.170  0.2736  0.8410 -0.6584
  868MOL0     C19688   6.196   1.163  12.115 -0.2023  0.5264  0.7961
  868MOL0     C19689   6.206   1.301  12.195  0.5534 -0.3900 -0.7112
  868MOL0     C19690   6.329   1.371  12.148  0.6490  0.3989 -0.3770
  868MOL0    Cl19691   6.481   1.297  12.189  0.5937  0.1066  0.1341
  868MOL0     C19692   5.245   1.028  12.167  0.1650  0.9835 -0.6652
  868MOL0     C19693   5.115   0.990  12.118 -0.1868  0.8245  0.1189
  868MOL0     O19694   4.827   0.939  12.093  0.3004 -0.4205 -0.2618
  868MOL0     C19695   4.792   1.038  11.760  0.8761 -0.3641  0.0135
  868MOL0     C19696   4.702   1.102  11.663 -0.1271  0.4417 -0.0437
  868MOL0     N19697   3.921   1.062  11.205  0.1708 -0.2866 -0.7400
  868MOL0     N19698   3.808   1.005  11.193 -0.0059  0.1995  0.2960
  868MOL0     C19699   2.591   1.362  11.172 -0.4905 -0.2362  0.0998
  868MOL0     C19700   2.459   1.408  11.153 -0.1085  0.5236 -0.3000
  868MOL0     C19701   1.994   1.376  11.124 -0.2338 -1.2305  0.0552
  868MOL0     C19702   1.976   1.513  11.162 -0.6206 -0.2097 -0.4905
  868MOL0     C19703   1.853   1.568  11.182 -0.0626 -0.2938  0.1973
  868MOL0     C19704   1.742   1.489  11.161  0.2409  0.1723 -0.5965
  868MOL0     O19705   1.627   1.551  11.199  0.5271 -0.1975 -0.2559
  868MOL0     C19706   1.508   1.478  11.191  0.5949 -0.2857 -0.2942
  868MOL0     C19707   1.405   1.562  11.262 -0.4319 -0.1941 -0.0684
  868MOL0     C19708   1.265   1.513  11.221 -0.1841 -0.4499 -0.5366
  868MOL0     C19709   1.151   1.595  11.281  0.7864  0.2539  0.1037
  868MOL0     C19710   1.019   1.551  11.236  0.0982 -0.0515  0.4913
  868MOL0     C19711   0.914   1.509  11.191 -0.1872  0.1683 -0.4862
  868MOL0     C19712   1.753   1.359  11.111  0.0625  0.5724  0.3130
  868MOL0     C19713   1.878   1.301  11.078  0.8190 -1.0501  0.1346
  868MOL0     C19714   1.882   1.162  11.018  0.0096 -0.4042  0.4266
  868MOL0     H19715   2.280   1.231  11.369 -1.1745  0.0917 -1.2772
  868MOL0     H19716   2.517   1.154  11.432 -1.7257 -0.6593 -0.4816
  868MOL0     H19717   2.876   1.379  11.234 -0.0284 -0.0727 -1.1331
  868MOL0     H19718   2.846   1.249  11.112  0.1071 -3.1525  0.7540
  868MOL0     H19719   2.964   1.200  11.385  1.8893 -1.0551  0.3327
  868MOL0     H19720   2.956   1.097  11.249  0.0966 -0.2451  1.9436
  868MOL0     H19721   3.096   1.246  11.119 -0.1168 -1.2056 -0.0880
  868MOL0     H19722   3.122   1.363  11.256 -0.5120  1.0998 -0.7029
  868MOL0     H19723   3.202   1.163  11.391 -0.3354 -1.0234 -0.7382
  868MOL0     H19724   3.210   1.084  11.230 -3.1262 -2.5327  3.3034
  868MOL0     H19725   3.326   1.354  11.271 -0.0015  0.1432  1.0049
  868MOL0     H19726   3.358   1.236  11.141 -0.1842 -0.1360  0.7267
  868MOL0     H19727   3.558   1.245  11.287  1.9848 -1.8779  1.4642
  868MOL0     H19728   3.461   1.191  11.427  1.2220 -3.2171 -0.1174
  868MOL0     H19729   3.510   1.056  11.166  0.1130 -0.2522  0.5378
  868MOL0     H19730   3.400   0.982  11.276 -1.1522  1.2466 -0.6115
  868MOL0     H19731   3.599   0.978  11.461  2.2028  1.5889  0.9719
  868MOL0     H19732   3.620   0.877  11.308  1.0400 -0.7717  3.2622
  868MOL0     H19733   3.787   1.179  11.470  0.5989 -1.4543  1.6988
  868MOL0     H19734   4.019   1.320  11.381  0.3259  0.2575 -1.8100
  868MOL0     H19735   4.115   1.223  11.281  2.2792 -0.8285  1.2518
  868MOL0     H19736   4.057   1.176  11.569 -0.6196 -1.1163  0.3727
  868MOL0     H19737   4.128   1.048  11.472  2.2873 -0.1186  4.9950
  868MOL0     H19738   4.317   1.214  11.413  2.6640 -0.4442  1.1270
  868MOL0     H19739   4.246   1.313  11.551  2.6889 -0.6736 -0.3293
  868MOL0     H19740   4.303   1.170  11.707 -1.5397  0.6372 -1.1844
  868MOL0     H19741   4.319   1.032  11.593 -1.3519  0.5550  0.3203
  868MOL0     H19742   4.418   1.012  11.817  0.0037 -0.7131 -0.3256
  868MOL0     H19743   4.463   0.870  11.997  0.8006 -0.4072  2.2919
  868MOL0     H19744   4.589   0.958  12.085  0.3331 -1.5041  1.0329
  868MOL0     H19745   4.623   0.799  12.013  0.5418  0.6934 -0.9084
  868MOL0     H19746   5.185   0.883  11.804 -4.0343 -1.1852  1.5604
  868MOL0     H19747   5.403   0.992  11.867  1.0089  0.3493  0.1521
  868MOL0     H19748   5.595   0.934  12.193  1.6041  1.2348  0.6121
  868MOL0     H19749   5.591   0.928  12.016 -1.0979  0.3023 -1.0614
  868MOL0     H19750   5.723   1.112  11.995 -0.4087 -0.9752  0.4800
  868MOL0     H19751   5.696   1.176  12.158  3.5175  1.5691 -0.7045
  868MOL0     H19752   5.854   0.923  12.087  1.1588 -1.5634  2.8146
  868MOL0     H19753   5.842   0.974  12.242 -1.1813 -2.8801 -1.4548
  868MOL0     H19754   5.931   1.220  12.151  0.8005  0.7422 -0.9511
  868MOL0     H19755   5.955   1.137  12.003 -2.1482  3.0835  1.0234
  868MOL0     H19756   6.075   1.094  12.278 -2.4353  1.7203 -1.0160
  868MOL0     H19757   6.115   0.973  12.154  0.9214  0.8848  0.1211
  868MOL0     H19758   6.192   1.174  12.006  1.8886 -1.9109  0.3574
  868MOL0     H19759   6.294   1.115  12.128 -0.1688 -0.5187 -2.4304
  868MOL0     H19760   6.189   1.302  12.303  0.7956  1.9875 -0.6516
  868MOL0     H19761   6.121   1.362  12.165  1.2047  2.0759  1.9976
  868MOL0     H19762   6.334   1.476  12.179 -0.1850  0.9592 -1.9860
  868MOL0     H19763   6.333   1.379  12.038  1.2125 -0.1108 -0.3955
  868MOL0     H19764   5.251   1.080  12.262  0.9782  2.5504 -1.5288
  868MOL0     H19765   5.031   1.022  12.180  1.1199  1.0627  1.8531
  868MOL0     H19766   4.894   1.041  11.723 -0.1248  0.1529 -2.9524
  868MOL0     H19767   4.745   1.153  11.577  0.0579  2.6978  1.2924
  868MOL0     H19768   2.665   1.397  11.100 -1.8804  1.3571 -0.6503
  868MOL0     H19769   2.437   1.480  11.075 -1.2391  0.0883 -0.4014
  868MOL0     H19770   2.053   1.576  11.205 -0.6991 -3.2346  5.1434
  868MOL0     H19771   1.839   1.660  11.238  0.2696  0.1378 -0.4219
  868MOL0     H19772   1.480   1.468  11.086  0.9476  0.1940 -0.4357
  868MOL0     H19773   1.506   1.378  11.236 -2.3294  0.0947  0.6853
  868MOL0     H19774   1.413   1.666  11.228  3.6239  0.0588  1.1270
  868MOL0     H19775   1.425   1.552  11.369  0.2837  1.3909 -0.0344
  868MOL0     H19776   1.254   1.513  11.112 -2.0136  0.9089 -0.3872
  868MOL0     H19777   1.241   1.412  11.254 -0.4413  0.0828  0.9955
  868MOL0     H19778   1.148   1.696  11.239 -2.1161  0.0421 -0.4500
  868MOL0     H19779   1.162   1.595  11.389  0.7764  5.0324  0.3098
  868MOL0     H19780   0.820   1.461  11.168 -0.1503 -0.1395 -0.0056
  868MOL0     H19781   1.666   1.299  11.087 -0.8011  2.2542 -0.9044
  868MOL0     H19782   1.841   1.172  10.916 -1.1791 -0.0068  0.9210
  868MOL0     H19783   1.980   1.114  11.024 -0.2116 -1.5146 -2.8095
  868MOL0     H19784   1.810   1.097  11.069 -0.8858  0.0212 -0.2534
  869MOL0     O19785   3.312   9.065   8.284  1.0313  0.3137  0.5615
  869MOL0     C19786   3.288   8.954   8.237 -0.3318 -0.2738  0.7510
  869MOL0     O19787   3.381   8.878   8.178  0.7069  0.0932  0.6143
  869MOL0     C19788   3.510   8.909   8.196 -1.3387  0.8921  0.4740
  869MOL0     C19789   3.597   8.904   8.081  0.2106 -0.2845 -0.7850
  869MOL0     C19790   3.732   8.928   8.095  0.5450 -0.1861  0.3277
  869MOL0     C19791   3.790   8.976   8.211 -0.7556 -0.7808 -0.9442
  869MOL0     O19792   3.910   9.038   8.200 -0.0404  0.5045  0.1907
  869MOL0     C19793   4.009   9.034   8.301  0.0785 -0.1724 -0.3719
  869MOL0     C19794   4.155   9.023   8.254  0.9026  0.0974 -0.6094
  869MOL0     C19795   4.247   9.076   8.363 -0.1997  0.1058  0.0944
  869MOL0     C19796   4.393   9.069   8.311  0.6234 -0.2417 -0.1658
  869MOL0     C19797   4.503   9.086   8.424 -0.0420 -0.3804 -0.3618
  869MOL0     C19798   4.643   9.110   8.357 -0.2831  0.1635  0.0581
  869MOL0     C19799   4.760   9.121   8.454 -0.1642 -0.2634  0.1041
  869MOL0     C19800   4.739   9.220   8.569  0.1296  0.4325  0.2391
  869MOL0     N19801   4.849   9.209   8.676 -0.2773 -0.0903  0.3609
  869MOL0     C19802   4.967   9.143   8.659 -0.9582  0.3424 -0.5232
  869MOL0     C19803   5.032   9.167   8.779  0.5207  0.3901 -0.0959
  869MOL0     C19804   5.166   9.118   8.823  0.2723  0.0177  0.3574
  869MOL0     C19805   5.269   9.205   8.739  0.5291 -0.0507  0.3293
  869MOL0     C19806   5.285   9.343   8.798 -0.6648 -0.0715 -0.3293
  869MOL0     C19807   5.372   9.431   8.703 -0.7869  1.4180 -1.2006
  869MOL0     O19808   5.374   9.563   8.755  0.9003  0.0248  0.2021
  869MOL0     C19809   5.476   9.603   8.842  0.8418  0.5404 -0.5859
  869MOL0     C19810   5.599   9.654   8.796 -0.5663  0.6778  0.1514
  869MOL0     C19811   5.700   9.698   8.882  0.1876 -0.8705  0.6521
  869MOL0     C19812   5.818   9.767   8.810 -0.4873  1.0047  0.1761
  869MOL0     C19813   5.682   9.686   9.023 -0.9596  0.4164  0.0300
  869MOL0     C19814   5.796   9.722   9.114  0.1636 -0.1850  1.3241
  869MOL0     O19815   5.851   9.847   9.102  0.1771 -0.5027 -0.0276
  869MOL0     C19816   5.956   9.887   9.174 -0.3218 -0.4493 -0.4747
  869MOL0     C19817   6.054   9.958   9.108 -0.5354 -0.2664 -0.4464
  869MOL0     C19818   6.157  10.024   9.174  0.7599  0.5978 -0.0154
  869MOL0     C19819   6.173  10.009   9.313 -0.4642 -0.2883  0.4281
  869MOL0     O19820   6.269  10.067   9.393  0.2932 -0.3391 -0.3503
  869MOL0     C19821   6.377  10.127   9.321 -0.1658  0.2342  0.0177
  869MOL0     C19822   6.477  10.197   9.415  0.3558 -0.2693 -0.3116
  869MOL0     C19823   6.422  10.323   9.492  0.0635 -0.2319 -1.0610
  869MOL0     C19824   6.384  10.438   9.401  0.2040  0.4259  0.4226
  869MOL0     C19825   6.309  10.552   9.465  0.7232 -0.1279  0.0249
  869MOL0     C19826   6.293  10.675   9.383 -0.5983  0.4000 -0.1409
  869MOL0     C19827   6.199  10.772   9.449  0.8411 -0.8306 -1.0844
  869MOL0     C19828   6.044  10.734   9.429  0.1712 -0.3562  0.1438
  869MOL0    Cl19829   6.005  10.721   9.258  0.0542  0.1000 -0.0361
  869MOL0     C19830   6.094   9.921   9.380 -0.2041 -0.3137 -0.4576
  869MOL0     C19831   5.984   9.858   9.310  0.3700  0.0879  0.0690
  869MOL0     O19832   5.822   9.628   9.187 -0.3273 -0.4955 -0.1073
  869MOL0     C19833   5.560   9.631   9.073 -0.8601  0.2392 -0.7684
  869MOL0     C19834   5.455   9.592   8.984 -0.8507  0.8323  0.1006
  869MOL0     N19835   4.950   9.239   8.869  0.1451  0.1304 -0.5499
  869MOL0     N19836   4.839   9.270   8.796 -0.1699  0.4630 -0.0850
  869MOL0     C19837   3.713   8.988   8.327  0.1523  0.1334  0.9550
  869MOL0     C19838   3.574   8.946   8.323 -0.3891  0.2047  0.1816
  869MOL0     C19839   3.146   8.908   8.247 -0.3867  0.4593  0.3522
  869MOL0     C19840   3.056   9.013   8.276  0.4121  0.3960 -0.6006
  869MOL0     C19841   2.924   8.979   8.299  0.3749  0.1063  0.6741
  869MOL0     C19842   2.872   8.851   8.304 -0.7087  1.0366 -0.4352
  869MOL0     O19843   2.743   8.819   8.342 -0.0221  0.1809 -0.1738
  869MOL0     C19844   2.629   8.906   8.339  1.1051  0.2371 -0.3086
  869MOL0     C19845   2.523   8.854   8.246 -0.3487  0.7124  0.6217
  869MOL0     C19846   2.580   8.834   8.106 -0.5612  0.1919  0.0054
  869MOL0     C19847   2.490   8.767   8.001 -0.2545  0.3318  0.5120
  869MOL0     C19848   2.359   8.827   8.012 -0.0356  0.5901 -0.1259
  869MOL0     C19849   2.246   8.870   8.010 -0.6515  1.1222 -0.2863
  869MOL0     C19850   2.966   8.753   8.274 -0.2435 -0.6573 -0.0390
  869MOL0     C19851   3.107   8.774   8.252  0.7405  0.0699  0.8412
  869MOL0     C19852   3.203   8.660   8.236 -1.0037 -0.8322 -0.1345
  869MOL0     H19853   3.560   8.878   7.982 -1.1242  0.8233 -0.6051
  869MOL0     H19854   3.800   8.919   8.010 -1.4914 -2.1490 -1.2268
  869MOL0     H19855   3.995   8.947   8.366  1.5408  0.6091  1.0476
  869MOL0     H19856   3.989   9.129   8.351 -2.9887 -1.5249  1.3359
  869MOL0     H19857   4.175   8.918   8.228 -2.0404  0.0055 -3.1364
  869MOL0     H19858   4.175   9.079   8.162 -0.1996 -0.0566 -0.9647
  869MOL0     H19859   4.227   9.181   8.389 -1.6760  0.0216 -0.6052
  869MOL0     H19860   4.216   9.017   8.449 -1.2859 -1.2115 -1.1568
  869MOL0     H19861   4.401   8.976   8.253 -5.0851 -1.1413 -0.0975
  869MOL0     H19862   4.397   9.145   8.232 -3.3630 -1.2537 -1.5400
  869MOL0     H19863   4.516   8.990   8.475  0.9989 -0.1613 -0.1973
  869MOL0     H19864   4.465   9.161   8.495 -0.9572 -0.2689 -0.9460
  869MOL0     H19865   4.659   9.021   8.296 -1.3559 -0.2392  0.3462
  869MOL0     H19866   4.642   9.199   8.292 -1.7787 -0.5566 -0.9621
  869MOL0     H19867   4.853   9.146   8.403  0.5916  0.0463  1.5937
  869MOL0     H19868   4.775   9.022   8.497  1.2213  0.4369  1.2990
  869MOL0     H19869   4.752   9.321   8.530 -0.4238  0.7830  0.9306
  869MOL0     H19870   4.645   9.215   8.625 -0.9226  0.0530 -1.5178
  869MOL0     H19871   5.026   9.096   8.581  2.5752  0.3014  1.8965
  869MOL0     H19872   5.184   9.016   8.790  0.8007  0.2444 -0.0786
  869MOL0     H19873   5.180   9.125   8.931  2.6534 -1.7980  0.2237
  869MOL0     H19874   5.368   9.161   8.759 -0.7543 -1.8438  3.3306
  869MOL0     H19875   5.253   9.206   8.631 -2.6192  3.1648  0.6595
  869MOL0     H19876   5.192   9.394   8.827 -0.3830 -0.1239  0.7232
  869MOL0     H19877   5.338   9.325   8.892 -0.0376 -1.9418 -0.9975
  869MOL0     H19878   5.475   9.395   8.706 -0.8552  1.2722  1.0984
  869MOL0     H19879   5.330   9.440   8.602  0.7753 -0.3614 -2.0574
  869MOL0     H19880   5.608   9.652   8.688 -0.5075  0.5953  0.1589
  869MOL0     H19881   5.817   9.755   8.702  0.0240  0.4354  0.2309
  869MOL0     H19882   5.919   9.732   8.835 -0.1309  0.5134 -1.8369
  869MOL0     H19883   5.814   9.875   8.828 -1.6135  0.7184  1.8671
  869MOL0     H19884   6.052   9.971   9.000 -0.6435  0.6154 -0.3480
  869MOL0     H19885   6.220  10.066   9.097 -0.5367  0.5757 -1.1195
  869MOL0     H19886   6.432  10.045   9.273 -0.9468 -1.4384  1.7807
  869MOL0     H19887   6.333  10.190   9.244  1.1590  0.0682 -0.9173
  869MOL0     H19888   6.515  10.122   9.485 -0.4228 -0.3821 -0.0038
  869MOL0     H19889   6.564  10.239   9.365  0.7443 -0.8064 -0.0952
  869MOL0     H19890   6.494  10.351   9.569 -0.6414 -3.0048  0.7869
  869MOL0     H19891   6.334  10.292   9.549  1.8194 -0.4503  1.7516
  869MOL0     H19892   6.318  10.393   9.326 -2.3802  0.0745  2.7286
  869MOL0     H19893   6.476  10.475   9.356 -0.6327  1.3209 -0.5914
  869MOL0     H19894   6.206  10.521   9.485  1.1158 -0.0073  2.5952
  869MOL0     H19895   6.356  10.585   9.558  0.2376  4.2309 -1.0653
  869MOL0     H19896   6.257  10.647   9.284 -2.4764  0.5811  0.4521
  869MOL0     H19897   6.397  10.707   9.374 -0.5010  0.2619  0.4249
  869MOL0     H19898   6.202  10.870   9.400 -1.6110  0.3666  0.9641
  869MOL0     H19899   6.232  10.783   9.553 -0.8432 -0.4929 -0.5625
  869MOL0     H19900   5.991  10.824   9.463  0.6747  0.8386 -2.0487
  869MOL0     H19901   6.022  10.645   9.489  0.6469 -0.6881 -0.1680
  869MOL0     H19902   6.116   9.900   9.484  2.1920  1.5710 -0.4960
  869MOL0     H19903   5.921   9.785   9.361  0.1144 -0.6227 -1.2239
  869MOL0     H19904   5.549   9.610   9.179  0.5235  0.8724 -0.4806
  869MOL0     H19905   5.374   9.528   9.019 -0.2876 -1.2020 -2.0877
  869MOL0     H19906   3.752   9.034   8.417 -0.0701  2.4680 -0.0696
  869MOL0     H19907   3.503   8.953   8.405 -1.7415 -0.0431 -0.9158
  869MOL0     H19908   3.073   9.114   8.310 -0.7196  0.0390  1.1809
  869MOL0     H19909   2.872   9.060   8.347  0.0842 -0.0778  0.6702
  869MOL0     H19910   2.581   8.897   8.437  3.4328  0.4440  0.9247
  869MOL0     H19911   2.664   9.009   8.327  0.2493  0.9402  2.4985
  869MOL0     H19912   2.431   8.913   8.237 -1.2029 -0.6498  0.2818
  869MOL0     H19913   2.499   8.757   8.289  2.1795 -0.1017  0.3754
  869MOL0     H19914   2.599   8.938   8.077  0.3052  0.4098  1.2461
  869MOL0     H19915   2.672   8.776   8.101 -0.1559  0.6361  1.6784
  869MOL0     H19916   2.487   8.662   8.032 -1.9901  0.0755 -0.4161
  869MOL0     H19917   2.521   8.760   7.897  1.2260 -2.5467  1.0431
  869MOL0     H19918   2.146   8.907   8.017 -1.2737 -0.1980 -1.6752
  869MOL0     H19919   2.933   8.650   8.278  0.9058 -1.0055  1.7821
  869MOL0     H19920   3.265   8.654   8.146  1.6013 -0.8976  1.5306
  869MOL0     H19921   3.276   8.652   8.318 -2.1610  2.3084  1.3814
  869MOL0     H19922   3.139   8.571   8.238 -1.2422 -0.6548  0.1761
  870MOL0     O19923   2.994   4.906   9.326 -0.0706  0.1113 -0.3778
  870MOL0     C19924   3.014   4.798   9.277  0.4369  0.3050 -0.9502
  870MOL0     O19925   3.135   4.744   9.252 -0.0235 -0.4462 -0.5556
  870MOL0     C19926   3.247   4.820   9.258  0.5187  0.7760  0.1639
  870MOL0     C19927   3.277   4.908   9.161 -0.5470 -0.3671  0.1714
  870MOL0     C19928   3.390   4.996   9.179 -0.5976  0.3147 -0.2270
  870MOL0     C19929   3.465   4.992   9.300  0.1463 -0.5477  0.6486
  870MOL0     O19930   3.562   5.096   9.316  0.5116 -0.5520  0.2957
  870MOL0     C19931   3.628   5.111   9.446 -0.6001  0.3498  0.1728
  870MOL0     C19932   3.718   5.236   9.445 -0.0252 -0.0850  0.6091
  870MOL0     C19933   3.778   5.280   9.309 -0.1314 -0.3191  0.6246
  870MOL0     C19934   3.878   5.180   9.256 -0.4455  0.9847 -0.4196
  870MOL0     C19935   3.943   5.225   9.124  0.5123  0.7565 -0.1927
  870MOL0     C19936   4.069   5.306   9.146  0.4301  0.5954  0.1309
  870MOL0     C19937   4.137   5.322   9.009  0.8561  0.1237  0.0013
  870MOL0     C19938   4.169   5.193   8.931  0.2306  0.1259  0.6776
  870MOL0     N19939   4.257   5.095   9.000 -0.4700 -0.9331 -0.2074
  870MOL0     C19940   4.225   4.971   9.041 -0.0811  0.8264  0.7052
  870MOL0     C19941   4.337   4.916   9.092 -0.2485 -0.6133 -0.8517
  870MOL0     C19942   4.358   4.777   9.138  0.0236 -0.2107  0.1641
  870MOL0     C19943   4.413   4.697   9.021  0.2014 -0.6326  0.5440
  870MOL0     C19944   4.451   4.552   9.066 -0.0428 -0.4100  0.1989
  870MOL0     C19945   4.572   4.547   9.150  0.4123 -0.7214  1.2424
  870MOL0     O19946   4.635   4.420   9.150 -0.2675  0.0348  0.1003
  870MOL0     C19947   4.730   4.410   9.247  0.4045  0.0259 -1.0058
  870MOL0     C19948   4.734   4.284   9.308 -0.0118 -0.0879 -0.0794
  870MOL0     C19949   4.828   4.260   9.412 -0.4228  0.4257 -0.1527
  870MOL0     C19950   4.826   4.113   9.453  0.5089 -0.4714 -0.1546
  870MOL0     C19951   4.923   4.358   9.451  0.1206 -0.3218  0.3914
  870MOL0     C19952   5.030   4.334   9.550 -0.3025  0.6813  0.3565
  870MOL0     O19953   5.078   4.450   9.604  0.0259 -0.3542  0.1647
  870MOL0     C19954   5.185   4.442   9.692  0.3024 -0.5573  0.3656
  870MOL0     C19955   5.307   4.387   9.646 -0.4560  0.1547 -0.1681
  870MOL0     C19956   5.417   4.381   9.726  0.0093  0.2170 -0.2940
  870MOL0     C19957   5.415   4.456   9.850 -0.1859  0.4064 -0.5146
  870MOL0     O19958   5.522   4.477   9.940 -0.3296  0.0585  0.4419
  870MOL0     C19959   5.637   4.390   9.924  0.4375  0.4945  0.0245
  870MOL0     C19960   5.746   4.421  10.028  0.0909 -0.5673 -0.2499
  870MOL0     C19961   5.699   4.463  10.166 -0.5720  1.0987  0.5024
  870MOL0     C19962   5.802   4.442  10.275 -0.0704 -0.2004  0.7828
  870MOL0     C19963   5.806   4.301  10.330 -0.8512 -0.6641  0.3524
  870MOL0     C19964   5.917   4.287  10.440 -0.0129 -0.4044  0.1434
  870MOL0     C19965   6.054   4.351  10.402 -0.3941  0.2839  0.2838
  870MOL0     C19966   6.162   4.309  10.502 -0.5211 -0.3060 -0.9097
  870MOL0    Cl19967   6.118   4.344  10.672  0.4687  0.8659  0.3642
  870MOL0     C19968   5.292   4.500   9.894 -0.7286 -0.1239  0.4807
  870MOL0     C19969   5.180   4.495   9.815 -0.4493  0.4048  0.2469
  870MOL0     O19970   5.061   4.219   9.585 -0.1839 -0.4479 -0.3049
  870MOL0     C19971   4.908   4.483   9.389 -0.1581 -0.2772 -0.4778
  870MOL0     C19972   4.818   4.512   9.294  1.6748  0.6059 -0.0241
  870MOL0     N19973   4.433   5.017   9.095 -0.2506  0.7531  0.3514
  870MOL0     N19974   4.387   5.118   9.038  0.1901 -0.5804 -0.0648
  870MOL0     C19975   3.432   4.898   9.409 -0.5512  0.1670  0.2197
  870MOL0     C19976   3.315   4.823   9.382 -0.1491 -0.6344  0.4056
  870MOL0     C19977   2.895   4.719   9.236  0.2340  0.2025 -0.4868
  870MOL0     C19978   2.790   4.773   9.158  0.7429 -0.0730 -0.4953
  870MOL0     C19979   2.680   4.695   9.121  0.6629  0.6178  0.4493
  870MOL0     C19980   2.660   4.567   9.162  0.9747 -0.0320 -1.4144
  870MOL0     O19981   2.556   4.488   9.114  0.6381 -0.6097 -0.4377
  870MOL0     C19982   2.441   4.536   9.043 -0.3853  0.2556  0.7223
  870MOL0     C19983   2.472   4.493   8.894 -0.1677  0.7482  0.4059
  870MOL0     C19984   2.347   4.524   8.818 -0.4614 -1.4672 -0.4460
  870MOL0     C19985   2.363   4.470   8.669  0.5090  0.0971 -0.0634
  870MOL0     C19986   2.244   4.498   8.588  0.5760  0.1023  0.2152
  870MOL0     C19987   2.147   4.528   8.526 -0.1849  0.5381  0.3034
  870MOL0     C19988   2.760   4.511   9.241  0.6987  0.9967  0.4352
  870MOL0     C19989   2.872   4.583   9.280  0.6391 -0.1842 -0.7240
  870MOL0     C19990   2.966   4.528   9.381  0.4487 -0.0833 -0.3735
  870MOL0     H19991   3.225   4.899   9.067  0.2008 -2.4016 -0.0957
  870MOL0     H19992   3.422   5.057   9.095  1.0980  0.3391  0.4025
  870MOL0     H19993   3.682   5.016   9.459 -0.4873  0.6732  2.5995
  870MOL0     H19994   3.555   5.122   9.527  2.0155  0.8780  2.6242
  870MOL0     H19995   3.656   5.318   9.483  0.4646  0.2047  0.7942
  870MOL0     H19996   3.799   5.223   9.518  0.9753  2.0627 -0.0309
  870MOL0     H19997   3.703   5.276   9.229  0.8657 -1.5480 -0.2872
  870MOL0     H19998   3.810   5.383   9.325 -1.4278 -0.2316  3.1204
  870MOL0     H19999   3.945   5.169   9.342 -1.3597 -0.9047  0.1053
  870MOL0     H20000   3.821   5.087   9.247  0.6840  0.0965  1.0228
  870MOL0     H20001   3.866   5.272   9.064 -1.2558 -2.0909 -0.3556
  870MOL0     H20002   3.968   5.129   9.077 -3.4546 -1.0813  1.0591
  870MOL0     H20003   4.042   5.396   9.202 -1.9942 -1.7044  3.0765
  870MOL0     H20004   4.140   5.257   9.213 -0.5819  0.9316  1.4884
  870MOL0     H20005   4.235   5.369   9.029  1.2393  0.4302 -2.3205
  870MOL0     H20006   4.078   5.392   8.949 -1.2771 -1.0682  0.6453
  870MOL0     H20007   4.078   5.142   8.901 -0.3755  1.8462 -0.5924
  870MOL0     H20008   4.208   5.225   8.834 -0.2548 -1.1105  0.0655
  870MOL0     H20009   4.128   4.925   9.022  0.2622  1.0062 -1.9854
  870MOL0     H20010   4.268   4.736   9.184 -0.4630  0.0936 -0.5047
  870MOL0     H20011   4.438   4.778   9.213 -1.1468  0.0440  1.4388
  870MOL0     H20012   4.339   4.700   8.941  1.1680  0.6081 -0.3457
  870MOL0     H20013   4.501   4.742   8.975  0.9034 -1.0089  1.4772
  870MOL0     H20014   4.368   4.516   9.127 -0.8142  0.4636 -0.3026
  870MOL0     H20015   4.455   4.478   8.985 -2.0608 -2.6391  1.9967
  870MOL0     H20016   4.647   4.612   9.104 -0.9043 -0.0675 -0.0309
  870MOL0     H20017   4.541   4.571   9.252 -1.7809 -3.4472  1.3205
  870MOL0     H20018   4.664   4.208   9.275  1.9053 -1.4950 -1.1161
  870MOL0     H20019   4.866   4.100   9.554 -0.8756  0.5409  0.5640
  870MOL0     H20020   4.888   4.069   9.375 -1.2535 -2.3013 -0.6230
  870MOL0     H20021   4.722   4.078   9.455  0.3637 -0.0274  1.1855
  870MOL0     H20022   5.313   4.335   9.550  0.0419  0.6709 -0.4253
  870MOL0     H20023   5.507   4.340   9.681  2.4738  1.6981  2.8673
  870MOL0     H20024   5.604   4.287   9.941  1.6959  0.1398  0.4257
  870MOL0     H20025   5.687   4.404   9.828 -1.0069  1.8166 -0.5816
  870MOL0     H20026   5.807   4.331  10.041 -0.5839 -0.9781  0.1955
  870MOL0     H20027   5.811   4.500   9.991  0.0905  1.1185  2.9530
  870MOL0     H20028   5.604   4.413  10.189 -0.8527  0.8970 -0.9450
  870MOL0     H20029   5.671   4.568  10.158 -0.3307  1.1969  0.9577
  870MOL0     H20030   5.785   4.512  10.357  1.9181  0.8162  0.3862
  870MOL0     H20031   5.898   4.482  10.240  0.0313 -1.3807 -0.3780
  870MOL0     H20032   5.711   4.265  10.372 -1.5487  1.2507  0.5078
  870MOL0     H20033   5.828   4.235  10.246  0.6232 -2.2708  1.9113
  870MOL0     H20034   5.933   4.180  10.453  1.2080 -0.1855  0.5490
  870MOL0     H20035   5.888   4.324  10.539  2.7809  0.1740  0.8306
  870MOL0     H20036   6.044   4.460  10.406 -0.4023  0.4578 -2.4695
  870MOL0     H20037   6.087   4.327  10.300 -0.1527  0.7442  0.2506
  870MOL0     H20038   6.255   4.364  10.483 -1.3427  1.6442  0.3043
  870MOL0     H20039   6.191   4.204  10.498 -1.8753 -0.6700 -1.3151
  870MOL0     H20040   5.281   4.539   9.996  1.7880  0.9763  0.4045
  870MOL0     H20041   5.086   4.538   9.851 -0.7479  0.6608 -0.8157
  870MOL0     H20042   4.971   4.569   9.410  0.0994 -0.8086  1.0093
  870MOL0     H20043   4.814   4.612   9.253 -2.2702  0.2139 -1.0174
  870MOL0     H20044   3.478   4.903   9.507 -1.2266 -3.2279  0.8634
  870MOL0     H20045   3.281   4.764   9.467 -1.6262  1.1020  1.0952
  870MOL0     H20046   2.806   4.879   9.139  0.1410  0.3228  1.0829
  870MOL0     H20047   2.614   4.755   9.059  1.4254  1.8346  0.7743
  870MOL0     H20048   2.358   4.473   9.076  0.2949 -2.2158 -1.8361
  870MOL0     H20049   2.426   4.644   9.054 -1.7565 -0.0335  1.8546
  870MOL0     H20050   2.489   4.385   8.882 -0.8245  0.8234 -1.5688
  870MOL0     H20051   2.563   4.538   8.853  0.4469  1.4120  2.3881
  870MOL0     H20052   2.259   4.479   8.865  0.8699 -2.6330  1.0388
  870MOL0     H20053   2.327   4.631   8.814  1.3812 -0.9283  2.6417
  870MOL0     H20054   2.371   4.361   8.673 -2.2498 -0.1549  2.0789
  870MOL0     H20055   2.455   4.506   8.623 -0.3840  1.9439 -0.4857
  870MOL0     H20056   2.065   4.547   8.460 -0.9453  1.8375  1.5815
  870MOL0     H20057   2.757   4.409   9.277 -0.2994  0.5513 -0.8552
  870MOL0     H20058   3.000   4.604   9.451 -2.9094 -0.4357  1.8653
  870MOL0     H20059   2.929   4.453   9.452  0.8861  1.5648  1.6740
  870MOL0     H20060   3.042   4.467   9.331 -1.1541 -0.6513 -2.2975
  871MOL0     O20061   5.907   5.192   7.881  0.1769  0.1467  0.1021
  871MOL0     C20062   5.809   5.112   7.875 -0.2530 -0.8194  0.2674
  871MOL0     O20063   5.813   4.998   7.798 -0.5151  0.2482  0.6209
  871MOL0     C20064   5.933   4.960   7.742 -0.2005  0.1776 -0.5623
  871MOL0     C20065   6.037   4.926   7.823 -0.0796 -0.3914 -0.6835
  871MOL0     C20066   6.155   4.877   7.771  0.8906  0.6672  0.5291
  871MOL0     C20067   6.185   4.866   7.636 -0.8517 -0.6687 -0.6015
  871MOL0     O20068   6.310   4.823   7.598  0.4301  0.2165  0.2241
  871MOL0     C20069   6.331   4.815   7.459  0.9763 -0.2243 -0.4152
  871MOL0     C20070   6.466   4.739   7.443 -0.3022  0.9099 -0.1935
  871MOL0     C20071   6.585   4.823   7.485 -0.5025  0.0884  0.1479
  871MOL0     C20072   6.715   4.760   7.438 -0.0615 -0.3895 -1.3930
  871MOL0     C20073   6.814   4.875   7.430 -0.8986  0.6569  0.4546
  871MOL0     C20074   6.951   4.833   7.363  0.2364  1.0901 -0.0939
  871MOL0     C20075   7.052   4.947   7.377  1.0243 -0.0118 -0.1138
  871MOL0     C20076   7.001   5.078   7.314  0.2110 -0.0668 -0.7173
  871MOL0     N20077   7.104   5.176   7.284  0.0484  0.3668  0.2063
  871MOL0     C20078   7.096   5.313   7.311  0.8565 -0.7532  1.1986
  871MOL0     C20079   7.219   5.364   7.289 -0.0372 -0.4929 -0.2534
  871MOL0     C20080   7.275   5.507   7.305  0.8330  0.6087  0.4266
  871MOL0     C20081   7.412   5.505   7.384 -0.2193 -0.1711  0.4242
  871MOL0     C20082   7.457   5.648   7.416  0.0457 -0.5217 -0.3275
  871MOL0     C20083   7.614   5.674   7.423  0.4906  0.1317  0.2125
  871MOL0     O20084   7.647   5.814   7.431  0.4656  0.6851 -0.3213
  871MOL0     C20085   7.776   5.852   7.460 -0.1096  0.4831  0.2112
  871MOL0     C20086   7.886   5.761   7.468 -0.8062  0.2860  0.5146
  871MOL0     C20087   8.015   5.803   7.506 -0.3754 -0.6915  1.0976
  871MOL0     C20088   8.123   5.703   7.528  0.4975 -0.1261  0.1766
  871MOL0     C20089   8.030   5.939   7.544  0.1438 -0.3890  0.4252
  871MOL0     C20090   8.160   5.998   7.583  0.5020  0.2765 -0.4386
  871MOL0     O20091   8.270   5.930   7.571 -0.0517  0.4459  0.4846
  871MOL0     C20092   8.387   5.971   7.639  0.7695 -0.5702  1.0053
  871MOL0     C20093   8.395   5.987   7.779  0.3221  0.3132  1.7958
  871MOL0     C20094   8.512   6.043   7.831 -0.2161 -0.4302 -0.7155
  871MOL0     C20095   8.618   6.081   7.763  0.2407  0.0627  0.3273
  871MOL0     O20096   8.736   6.135   7.818 -0.0444 -0.0159 -0.2705
  871MOL0     C20097   8.785   6.060   7.923 -0.7951  0.4112  0.2074
  871MOL0     C20098   8.918   6.125   7.970  0.3924  1.3299 -0.1626
  871MOL0     C20099   9.007   6.155   7.850  0.7618  0.2613  0.0986
  871MOL0     C20100   9.155   6.183   7.890  0.0031 -0.3310  0.1480
  871MOL0     C20101   9.172   6.270   8.009  0.8145  0.0815  0.3640
  871MOL0     C20102   9.299   6.351   8.003  0.3720 -0.3905  0.0910
  871MOL0     C20103   9.425   6.266   8.009 -0.9744 -1.3572 -0.5767
  871MOL0     C20104   9.542   6.351   8.000 -0.1864 -0.1428  0.5431
  871MOL0    Cl20105   9.587   6.376   7.826  0.1611  0.4329  0.1067
  871MOL0     C20106   8.615   6.048   7.625  0.0537  0.4035 -0.4803
  871MOL0     C20107   8.502   5.995   7.563 -1.2390 -0.2953  0.3173
  871MOL0     O20108   8.164   6.113   7.606 -0.0752 -0.4671  0.1646
  871MOL0     C20109   7.924   6.033   7.518  0.3837  0.3205 -0.3879
  871MOL0     C20110   7.801   5.986   7.484  1.0890 -0.7229 -0.0643
  871MOL0     N20111   7.292   5.263   7.238  0.2329  0.5787 -0.4331
  871MOL0     N20112   7.234   5.152   7.241  0.9235 -0.2278 -0.3688
  871MOL0     C20113   6.080   4.907   7.554 -0.1410  0.3844  0.5416
  871MOL0     C20114   5.957   4.951   7.602  0.2161  0.7526 -0.7592
  871MOL0     C20115   5.688   5.147   7.955  0.0688  0.4103 -0.1806
  871MOL0     C20116   5.571   5.146   7.880 -0.5829 -0.1253 -0.2164
  871MOL0     C20117   5.451   5.190   7.931  0.4457  0.7432 -0.4794
  871MOL0     C20118   5.444   5.217   8.068 -0.3235  0.2715  0.2529
  871MOL0     O20119   5.335   5.269   8.130 -0.0834  0.2206  0.0764
  871MOL0     C20120   5.206   5.222   8.075 -0.4679 -0.3400  0.1171
  871MOL0     C20121   5.093   5.274   8.156  0.1821 -0.4407  0.5492
  871MOL0     C20122   5.130   5.293   8.302  0.1604  0.7032 -0.2149
  871MOL0     C20123   5.003   5.344   8.380  0.2538 -0.2623  0.2627
  871MOL0     C20124   4.893   5.245   8.394 -0.0564  0.2128  0.4845
  871MOL0     C20125   4.799   5.176   8.423 -0.2296  0.4963 -0.1184
  871MOL0     C20126   5.558   5.219   8.148 -0.3408 -0.1637  0.5840
  871MOL0     C20127   5.679   5.169   8.092  0.5484  0.1770  0.2562
  871MOL0     C20128   5.799   5.152   8.185 -0.6337  0.5062  0.4541
  871MOL0     H20129   6.025   4.929   7.931  1.0465 -1.9064 -0.4752
  871MOL0     H20130   6.231   4.838   7.837  2.2179 -0.2654 -1.4588
  871MOL0     H20131   6.330   4.911   7.405 -3.7378 -0.7937 -1.7696
  871MOL0     H20132   6.257   4.749   7.414 -0.5299 -1.8648  3.9832
  871MOL0     H20133   6.466   4.649   7.505 -1.4238 -0.3785 -1.9459
  871MOL0     H20134   6.473   4.704   7.339  0.5776 -1.0822  0.4693
  871MOL0     H20135   6.572   4.924   7.445 -0.9020  0.1015  0.3046
  871MOL0     H20136   6.589   4.839   7.593 -2.0457 -1.8146  0.5496
  871MOL0     H20137   6.738   4.682   7.512 -1.0754  1.5481  1.1443
  871MOL0     H20138   6.703   4.713   7.340 -0.3374 -1.5849 -0.8090
  871MOL0     H20139   6.834   4.913   7.531 -2.3071  2.1896  0.2128
  871MOL0     H20140   6.784   4.969   7.382  0.9455  1.7564  1.3491
  871MOL0     H20141   6.994   4.747   7.416 -1.9708 -1.2621 -1.8829
  871MOL0     H20142   6.942   4.792   7.262 -1.3413 -2.7652  1.3987
  871MOL0     H20143   7.147   4.915   7.334 -0.2089 -1.3042 -2.0332
  871MOL0     H20144   7.070   4.964   7.484  0.2927  0.5070 -0.0662
  871MOL0     H20145   6.958   5.044   7.219 -0.4486 -1.2841 -0.0211
  871MOL0     H20146   6.918   5.128   7.366  1.1512  0.8629 -0.0835
  871MOL0     H20147   7.009   5.362   7.353 -0.0172 -0.3466 -0.9555
  871MOL0     H20148   7.199   5.568   7.353 -1.3613 -2.0524  0.5714
  871MOL0     H20149   7.289   5.556   7.208 -1.7013  3.3351  1.2916
  871MOL0     H20150   7.395   5.437   7.468 -1.4735 -0.4687 -0.0455
  871MOL0     H20151   7.490   5.463   7.319  2.2488  0.0568  3.0329
  871MOL0     H20152   7.418   5.715   7.339 -1.2426  1.7163  2.1155
  871MOL0     H20153   7.410   5.691   7.505  1.7149  0.6063  0.0532
  871MOL0     H20154   7.632   5.619   7.516 -0.0125  0.7140  0.6601
  871MOL0     H20155   7.661   5.626   7.336  1.9257 -0.2605  1.1718
  871MOL0     H20156   7.875   5.658   7.438 -1.6064  0.3145  0.7003
  871MOL0     H20157   8.159   5.703   7.631  0.0948  1.3987  0.3396
  871MOL0     H20158   8.212   5.720   7.467 -0.5145  1.3999 -0.9647
  871MOL0     H20159   8.083   5.602   7.512  1.9277 -0.9244  1.3837
  871MOL0     H20160   8.302   5.970   7.832 -0.5866 -1.5773 -0.2584
  871MOL0     H20161   8.514   6.047   7.940 -1.4093  1.0739 -0.7190
  871MOL0     H20162   8.710   6.058   8.003  0.6242  0.2838  1.5818
  871MOL0     H20163   8.803   5.956   7.895  1.6260  0.4496  1.3583
  871MOL0     H20164   8.895   6.220   8.019 -0.5734  1.3469 -0.6186
  871MOL0     H20165   8.965   6.056   8.041  0.2024  0.2879 -1.0316
  871MOL0     H20166   8.973   6.248   7.802 -1.2841  0.0690  1.1004
  871MOL0     H20167   9.007   6.074   7.776 -0.0432  1.8145 -1.6818
  871MOL0     H20168   9.197   6.223   7.797  0.1034 -3.8454 -1.4963
  871MOL0     H20169   9.210   6.095   7.923  2.0987  0.8181 -0.1228
  871MOL0     H20170   9.089   6.341   8.018  1.1023  0.6200 -1.0057
  871MOL0     H20171   9.170   6.205   8.097 -0.0263  0.9865  1.0379
  871MOL0     H20172   9.297   6.415   8.092  2.6839  0.9169 -0.6933
  871MOL0     H20173   9.293   6.417   7.915 -1.7971  0.5002  0.8287
  871MOL0     H20174   9.432   6.193   7.928  0.2942 -0.3997 -1.3676
  871MOL0     H20175   9.423   6.219   8.108 -2.0906 -1.6851 -0.7415
  871MOL0     H20176   9.624   6.307   8.058 -1.4037 -1.0421  1.6269
  871MOL0     H20177   9.530   6.447   8.051  1.0434  0.8055 -0.8635
  871MOL0     H20178   8.699   6.076   7.562  0.2183  0.5457 -0.2039
  871MOL0     H20179   8.502   5.983   7.455  0.1749 -0.5419  0.3276
  871MOL0     H20180   7.937   6.138   7.542 -2.4105  0.6962 -0.2173
  871MOL0     H20181   7.724   6.062   7.469  3.1117  1.5990  0.6561
  871MOL0     H20182   6.088   4.898   7.446 -2.6050 -3.3342  0.4684
  871MOL0     H20183   5.874   4.975   7.536 -0.6590  1.1535  0.4453
  871MOL0     H20184   5.570   5.111   7.778  0.2016  2.6131 -1.2787
  871MOL0     H20185   5.366   5.189   7.864  0.6439 -2.7006 -0.8725
  871MOL0     H20186   5.193   5.252   7.970 -0.3315  0.1706  0.2474
  871MOL0     H20187   5.201   5.112   8.073  0.4756 -0.4159  1.2026
  871MOL0     H20188   5.011   5.202   8.147 -0.7135  0.6741 -0.4371
  871MOL0     H20189   5.059   5.366   8.108  1.9079 -0.5857 -1.0896
  871MOL0     H20190   5.152   5.193   8.342  2.1747 -0.0041 -2.7903
  871MOL0     H20191   5.213   5.362   8.315 -0.9675  1.7258  2.2114
  871MOL0     H20192   4.960   5.430   8.329  0.2594 -2.0599 -3.0071
  871MOL0     H20193   5.031   5.383   8.478  1.5397  0.3211 -0.3217
  871MOL0     H20194   4.712   5.115   8.440  0.5461 -0.6884 -0.2517
  871MOL0     H20195   5.555   5.240   8.254  0.3395  3.3946  0.0254
  871MOL0     H20196   5.769   5.198   8.280  0.6225 -2.0202  2.1758
  871MOL0     H20197   5.823   5.047   8.206 -1.5724  0.3213  0.6777
  871MOL0     H20198   5.881   5.213   8.147 -0.7827  0.0936 -0.5702
  872MOL0     O20199  11.196   5.765   5.762  0.4516 -0.1472  0.0229
  872MOL0     C20200  11.095   5.694   5.769  0.0665 -0.1099 -0.1849
  872MOL0     O20201  11.097   5.567   5.826  0.0023 -0.1091  0.0205
  872MOL0     C20202  11.207   5.517   5.888  0.8556 -0.0845 -0.3383
  872MOL0     C20203  11.331   5.513   5.826 -0.1385 -0.8694 -0.6377
  872MOL0     C20204  11.437   5.446   5.895  0.5075  0.1485 -0.2337
  872MOL0     C20205  11.415   5.391   6.023  0.3387 -0.2569  0.7252
  872MOL0     O20206  11.526   5.318   6.071  0.0719 -0.5842 -0.5128
  872MOL0     C20207  11.505   5.216   6.170 -0.3256  0.2943  0.0727
  872MOL0     C20208  11.626   5.126   6.168  0.1084  0.5121 -0.4829
  872MOL0     C20209  11.625   5.030   6.290 -0.3075 -0.0201 -0.1129
  872MOL0     C20210  11.764   5.013   6.349  1.0208  0.2219 -0.1630
  872MOL0     C20211  11.795   5.123   6.454  0.1338 -0.4551 -0.4155
  872MOL0     C20212  11.921   5.110   6.537 -0.5814  0.1295 -0.0505
  872MOL0     C20213  11.973   5.249   6.582 -0.2525 -0.1092  0.0528
  872MOL0     C20214  12.114   5.252   6.659 -0.5522  0.5952 -0.5197
  872MOL0     N20215  12.231   5.214   6.579 -0.9733  0.4493  0.6691
  872MOL0     C20216  12.251   5.243   6.453  0.2734  0.2518  0.5450
  872MOL0     C20217  12.360   5.165   6.421 -1.0109  0.0764 -0.0838
  872MOL0     C20218  12.411   5.151   6.284  0.0580  0.3601  0.6250
  872MOL0     C20219  12.330   5.044   6.201  0.5352 -0.3381  0.3698
  872MOL0     C20220  12.394   5.005   6.065 -0.6300 -0.4993  1.2969
  872MOL0     C20221  12.398   5.127   5.962  0.3462  0.0636 -0.0150
  872MOL0     O20222  12.461   5.116   5.840  0.3597  0.4477 -0.1003
  872MOL0     C20223  12.589   5.066   5.845  0.2582 -0.2999  0.3247
  872MOL0     C20224  12.645   5.004   5.726 -0.2318 -0.8708  0.4393
  872MOL0     C20225  12.771   4.952   5.710 -0.8556 -0.4459  0.2251
  872MOL0     C20226  12.790   4.882   5.576  1.3334 -0.2119 -0.0046
  872MOL0     C20227  12.862   4.979   5.805  0.2393  0.0333  0.9296
  872MOL0     C20228  13.014   4.953   5.793 -0.0130  0.8196  0.9906
  872MOL0     O20229  13.087   4.943   5.911 -0.1277  0.1468 -0.1920
  872MOL0     C20230  13.222   4.949   5.899  0.1471  0.0615 -0.8167
  872MOL0     C20231  13.293   4.866   5.807 -0.0426  0.3079  0.5971
  872MOL0     C20232  13.430   4.883   5.803  0.0086 -0.0842 -0.2323
  872MOL0     C20233  13.504   4.967   5.887 -0.2439 -0.2985  0.2612
  872MOL0     O20234  13.640   4.959   5.877 -0.1767 -0.7580  0.1753
  872MOL0     C20235  13.725   5.009   5.986 -0.3015  0.2760 -0.0009
  872MOL0     C20236  13.863   4.986   5.954  0.0836 -0.2484 -0.6096
  872MOL0     C20237  13.909   5.009   5.812 -0.0459 -0.6073 -0.7079
  872MOL0     C20238  14.038   4.943   5.790 -0.0795  0.8371  0.7200
  872MOL0     C20239  14.056   4.940   5.635 -0.8785 -0.3081 -0.2424
  872MOL0     C20240  14.212   4.912   5.613 -0.3852 -0.4569 -0.2114
  872MOL0     C20241  14.238   4.937   5.463  0.1449 -0.2382 -0.1245
  872MOL0     C20242  14.390   4.960   5.409 -0.3765  0.0120 -1.0259
  872MOL0    Cl20243  14.380   5.050   5.259 -0.7294  0.3503 -0.0584
  872MOL0     C20244  13.433   5.038   5.985 -0.6130 -1.0931 -0.1696
  872MOL0     C20245  13.292   5.036   5.987 -0.0867  0.9127 -0.2506
  872MOL0     O20246  13.066   4.965   5.680  0.0610 -0.3053 -0.8886
  872MOL0     C20247  12.822   5.047   5.923 -0.4337  0.4935  0.8864
  872MOL0     C20248  12.689   5.081   5.945 -0.7110  0.5938  0.3813
  872MOL0     N20249  12.409   5.095   6.530 -0.3735  0.2690  0.3820
  872MOL0     N20250  12.325   5.117   6.617  0.0868  0.2058 -1.0275
  872MOL0     C20251  11.288   5.392   6.076  0.2331  0.1720  0.2390
  872MOL0     C20252  11.185   5.457   6.013  0.7285  0.3145 -0.0210
  872MOL0     C20253  10.960   5.736   5.708 -0.3453  0.1448  0.2368
  872MOL0     C20254  10.848   5.650   5.719  0.0342 -0.0186  0.4972
  872MOL0     C20255  10.735   5.679   5.651  0.0824 -0.2813 -0.0312
  872MOL0     C20256  10.712   5.805   5.589 -0.3069 -0.6561  1.0073
  872MOL0     O20257  10.595   5.839   5.519 -0.2179 -0.8999 -0.7038
  872MOL0     C20258  10.494   5.738   5.527  0.3437  0.1231 -0.2602
  872MOL0     C20259  10.357   5.800   5.488  0.3324  0.0606  0.4064
  872MOL0     C20260  10.361   5.892   5.371  0.5972  0.6132  0.5190
  872MOL0     C20261  10.395   5.820   5.244 -0.2578  0.1272  0.9046
  872MOL0     C20262  10.289   5.728   5.192 -0.1151  0.0062  0.5116
  872MOL0     C20263  10.187   5.666   5.159 -0.4012 -0.7699 -0.1290
  872MOL0     C20264  10.819   5.893   5.597 -0.0582  0.4959 -0.7560
  872MOL0     C20265  10.945   5.857   5.642  0.1264  0.7387 -0.3308
  872MOL0     C20266  11.057   5.950   5.605 -0.5227 -0.8343 -0.8422
  872MOL0     H20267  11.358   5.559   5.731  1.4283  0.3680  0.3469
  872MOL0     H20268  11.534   5.459   5.849  0.7006 -1.4714 -0.3215
  872MOL0     H20269  11.412   5.163   6.148 -1.6872  2.2265  0.8615
  872MOL0     H20270  11.496   5.266   6.267  1.1514  1.2338 -0.2491
  872MOL0     H20271  11.624   5.065   6.077  0.2356  0.5367 -0.5023
  872MOL0     H20272  11.712   5.192   6.182  0.3211 -0.0990  1.4514
  872MOL0     H20273  11.554   5.051   6.371  0.0180  0.6731  0.0012
  872MOL0     H20274  11.600   4.939   6.235 -1.8934  0.4096 -0.1683
  872MOL0     H20275  11.764   4.910   6.386 -3.0491  0.9230  2.4299
  872MOL0     H20276  11.842   5.003   6.273  0.7556 -0.6065 -0.3300
  872MOL0     H20277  11.705   5.123   6.517 -1.2232 -3.3940 -2.1335
  872MOL0     H20278  11.780   5.219   6.405 -3.4838 -0.6840 -0.0741
  872MOL0     H20279  11.905   5.057   6.631  1.5786 -0.8941 -0.1834
  872MOL0     H20280  11.999   5.058   6.480 -1.0384  0.6331 -1.1767
  872MOL0     H20281  11.900   5.288   6.653 -1.3953 -1.3477 -0.3935
  872MOL0     H20282  11.973   5.325   6.503 -2.3533 -1.7170 -1.6119
  872MOL0     H20283  12.148   5.348   6.699 -0.6005  0.1716  0.5652
  872MOL0     H20284  12.098   5.192   6.749  3.1205 -1.2459 -0.9407
  872MOL0     H20285  12.202   5.310   6.383  0.8361  0.1279  0.0281
  872MOL0     H20286  12.515   5.118   6.292  0.2097  1.1398  2.1028
  872MOL0     H20287  12.412   5.249   6.236  1.3400  1.3832  2.6029
  872MOL0     H20288  12.316   4.955   6.263 -2.3598 -0.4637 -0.3022
  872MOL0     H20289  12.230   5.085   6.183  0.2203 -1.6852 -1.1602
  872MOL0     H20290  12.490   4.967   6.100  1.2961  2.4719 -0.3622
  872MOL0     H20291  12.335   4.928   6.015 -3.5393  0.8556  2.4022
  872MOL0     H20292  12.290   5.147   5.958 -0.5854 -2.9930  3.8151
  872MOL0     H20293  12.451   5.210   6.009 -0.6348  1.9645 -2.1162
  872MOL0     H20294  12.584   4.993   5.637 -0.6806  0.6114  0.5296
  872MOL0     H20295  12.728   4.792   5.569  0.5796  0.3836 -1.4351
  872MOL0     H20296  12.887   4.841   5.548 -0.8592 -4.0965 -3.0682
  872MOL0     H20297  12.758   4.955   5.501 -0.6602 -1.3943 -0.3985
  872MOL0     H20298  13.245   4.809   5.729  2.8203  0.2394 -1.2745
  872MOL0     H20299  13.482   4.833   5.722 -0.6155  1.3239 -1.5441
  872MOL0     H20300  13.714   5.117   6.002  0.1901  0.1703  1.1531
  872MOL0     H20301  13.696   4.964   6.081 -2.2292  1.3293 -0.0338
  872MOL0     H20302  13.920   5.052   6.019 -2.1252  2.7962 -1.5537
  872MOL0     H20303  13.883   4.881   5.978  1.2212 -0.5457 -2.6238
  872MOL0     H20304  13.926   5.115   5.793  4.5110 -1.1854 -1.0266
  872MOL0     H20305  13.840   4.973   5.735  0.3034 -3.0324  0.0304
  872MOL0     H20306  14.024   4.840   5.824  0.6935  0.2094 -0.7809
  872MOL0     H20307  14.119   4.991   5.846 -0.7726  2.5922  0.2760
  872MOL0     H20308  13.985   4.879   5.579  0.0865 -0.8447 -0.8962
  872MOL0     H20309  14.032   5.042   5.603 -1.7752  0.2447  1.9749
  872MOL0     H20310  14.227   4.806   5.636  2.4047 -0.0852 -0.0211
  872MOL0     H20311  14.265   4.986   5.673 -1.0186 -0.2496  0.1015
  872MOL0     H20312  14.185   5.022   5.420  2.4931  2.0799  1.2257
  872MOL0     H20313  14.207   4.844   5.415  0.2047 -0.3203 -0.0058
  872MOL0     H20314  14.449   4.869   5.397 -0.0214 -0.1115  1.1453
  872MOL0     H20315  14.445   5.029   5.473 -2.1903 -0.5374  1.2839
  872MOL0     H20316  13.476   5.090   6.069 -1.8040 -0.1084 -0.1406
  872MOL0     H20317  13.239   5.090   6.066 -3.4625 -2.9853  0.5219
  872MOL0     H20318  12.902   5.063   5.995  0.2335 -0.2026  0.3273
  872MOL0     H20319  12.665   5.122   6.043 -1.1534  0.1839  0.4472
  872MOL0     H20320  11.269   5.327   6.160 -0.9891 -2.4535 -1.9488
  872MOL0     H20321  11.087   5.465   6.059  2.1206  1.3382  3.0797
  872MOL0     H20322  10.847   5.551   5.763 -0.5831  0.1485  0.8675
  872MOL0     H20323  10.661   5.603   5.627 -0.2501 -0.4338  1.3941
  872MOL0     H20324  10.512   5.651   5.463  0.4688 -0.8067  1.0063
  872MOL0     H20325  10.488   5.704   5.631  1.0422  2.4348  0.5840
  872MOL0     H20326  10.326   5.852   5.579  0.9801  0.0670  0.6313
  872MOL0     H20327  10.281   5.725   5.464 -0.2254  1.8327 -4.3159
  872MOL0     H20328  10.271   5.953   5.365 -0.7691 -1.4331 -1.5417
  872MOL0     H20329  10.441   5.964   5.392  2.2485 -0.8265 -0.5688
  872MOL0     H20330  10.488   5.762   5.248 -0.7465 -0.6565  1.1488
  872MOL0     H20331  10.413   5.891   5.163 -0.8762  1.2395  1.7171
  872MOL0     H20332  10.094   5.622   5.131  0.1077 -1.3620 -0.9574
  872MOL0     H20333  10.812   5.995   5.559 -0.8104  0.6986 -0.0983
  872MOL0     H20334  11.026   6.032   5.540 -2.7944 -1.6906 -0.9208
  872MOL0     H20335  11.098   5.988   5.699 -2.4548  2.0993 -1.0693
  872MOL0     H20336  11.141   5.898   5.558  0.1992 -0.9723  0.5439
  873MOL0     O20337   4.294   7.217   5.624  0.5481 -0.2878  0.1766
  873MOL0     C20338   4.234   7.280   5.540  0.2476 -0.3663  0.8937
  873MOL0     O20339   4.285   7.390   5.469  0.4415  0.2592  0.3624
  873MOL0     C20340   4.424   7.408   5.484 -0.3510  0.3100  0.0273
  873MOL0     C20341   4.472   7.503   5.575 -0.0392 -0.2980 -0.3476
  873MOL0     C20342   4.602   7.530   5.584 -0.8037 -0.2150  0.3992
  873MOL0     C20343   4.697   7.456   5.515  0.3487  0.0329 -0.4205
  873MOL0     O20344   4.826   7.497   5.531 -0.1919  0.0449 -0.5634
  873MOL0     C20345   4.930   7.418   5.464  0.3877  0.0613  0.1131
  873MOL0     C20346   5.066   7.440   5.529 -0.1449 -0.1487  0.3586
  873MOL0     C20347   5.103   7.589   5.529  0.0389 -0.2585  0.4655
  873MOL0     C20348   5.233   7.602   5.611  0.0745  0.2808 -0.1252
  873MOL0     C20349   5.301   7.717   5.550  0.4146 -0.6870  0.0095
  873MOL0     C20350   5.410   7.769   5.646 -0.1047  0.0157  0.1874
  873MOL0     C20351   5.469   7.908   5.615  0.0592 -0.0214 -0.3542
  873MOL0     C20352   5.544   7.903   5.486  0.3002 -0.7123 -0.5261
  873MOL0     N20353   5.646   7.800   5.469  0.3631  0.3084  0.4986
  873MOL0     C20354   5.630   7.697   5.376 -0.1012  0.2112  0.2764
  873MOL0     C20355   5.739   7.620   5.386  0.5596 -0.1610 -0.1828
  873MOL0     C20356   5.769   7.493   5.306 -0.1071 -0.2635 -0.8808
  873MOL0     C20357   5.917   7.480   5.268  0.4060  0.2817  0.9186
  873MOL0     C20358   5.960   7.361   5.174 -0.9887 -0.2904 -0.1116
  873MOL0     C20359   5.931   7.223   5.227  0.4100  0.1802 -0.6295
  873MOL0     O20360   6.023   7.189   5.333 -0.1419 -0.3063  0.1636
  873MOL0     C20361   6.155   7.154   5.294  0.0642  0.3695 -0.0158
  873MOL0     C20362   6.194   7.040   5.227  0.4899  0.2028 -0.0487
  873MOL0     C20363   6.326   7.002   5.195  0.7042 -0.1283 -0.0909
  873MOL0     C20364   6.355   6.883   5.105  0.7642  0.2007  0.1875
  873MOL0     C20365   6.427   7.101   5.227  0.6486 -0.0411 -0.1671
  873MOL0     C20366   6.572   7.088   5.193  0.9365  0.2036  0.3483
  873MOL0     O20367   6.656   7.146   5.279 -1.0281 -0.1266  0.2305
  873MOL0     C20368   6.792   7.148   5.252 -0.1387  0.2523 -1.0678
  873MOL0     C20369   6.862   7.263   5.269 -0.3590  0.4976  0.1567
  873MOL0     C20370   7.002   7.262   5.247 -0.2329 -0.4385 -0.3050
  873MOL0     C20371   7.081   7.151   5.213  0.0703  0.2102  0.0007
  873MOL0     O20372   7.207   7.177   5.178 -0.6138 -0.3127 -0.1503
  873MOL0     C20373   7.283   7.069   5.125  0.2933 -0.9914 -0.0022
  873MOL0     C20374   7.433   7.097   5.141 -0.0851 -0.6830 -0.7087
  873MOL0     C20375   7.484   7.217   5.073 -0.4150  0.7354  0.6798
  873MOL0     C20376   7.636   7.222   5.082  0.0326  0.5469 -0.9648
  873MOL0     C20377   7.689   7.339   5.009  0.3901 -0.3352  0.2636
  873MOL0     C20378   7.843   7.318   4.984  0.3611 -0.0451  0.5813
  873MOL0     C20379   7.901   7.435   4.908 -0.5157 -0.2967  0.2048
  873MOL0     C20380   8.047   7.412   4.861  0.7561  0.3449 -0.0931
  873MOL0    Cl20381   8.167   7.432   4.992  0.3822  0.1063  0.5203
  873MOL0     C20382   7.009   7.025   5.217  0.1535 -0.1328 -0.0210
  873MOL0     C20383   6.866   7.027   5.236  0.7008  0.5855 -0.4069
  873MOL0     O20384   6.600   7.044   5.081  0.2733  0.2221  0.5533
  873MOL0     C20385   6.393   7.217   5.305 -0.1987  0.9436  0.4464
  873MOL0     C20386   6.259   7.232   5.336  0.0384  0.4344  0.2385
  873MOL0     N20387   5.821   7.681   5.484 -0.1771  0.2992 -0.1820
  873MOL0     N20388   5.771   7.785   5.528  0.2980 -0.5070 -0.6145
  873MOL0     C20389   4.657   7.359   5.424  0.0441 -0.1625  0.0210
  873MOL0     C20390   4.518   7.333   5.412  0.5132  0.0420  0.3422
  873MOL0     C20391   4.090   7.241   5.519  0.0661  0.0642 -0.4681
  873MOL0     C20392   4.008   7.313   5.429  0.2200 -0.1359  0.5293
  873MOL0     C20393   3.870   7.284   5.400  0.1857 -0.3629  0.7032
  873MOL0     C20394   3.819   7.175   5.463  0.0218 -0.2455 -0.3662
  873MOL0     O20395   3.687   7.130   5.455  0.1317 -0.4502  0.4808
  873MOL0     C20396   3.597   7.204   5.371 -0.0565  0.1011  0.1327
  873MOL0     C20397   3.460   7.134   5.358 -0.2610  0.2266  0.4294
  873MOL0     C20398   3.363   7.200   5.254  0.5197 -0.3007  0.0574
  873MOL0     C20399   3.318   7.355   5.268  0.2581  0.4650  0.4820
  873MOL0     C20400   3.282   7.397   5.404  0.0264 -0.3071  0.5552
  873MOL0     C20401   3.253   7.428   5.513  0.2182 -0.7826 -0.1846
  873MOL0     C20402   3.898   7.094   5.539 -0.4517 -0.1700  0.1580
  873MOL0     C20403   4.028   7.122   5.573  0.1742 -0.3254  0.4862
  873MOL0     C20404   4.095   7.031   5.671 -0.2223 -0.2506 -0.4438
  873MOL0     H20405   4.412   7.566   5.640 -0.5794 -0.1583 -0.9772
  873MOL0     H20406   4.627   7.618   5.643  0.8837  0.9009 -1.8354
  873MOL0     H20407   4.924   7.448   5.359 -2.8599  0.0330  0.1952
  873MOL0     H20408   4.908   7.310   5.463  2.1343 -0.3367 -1.5335
  873MOL0     H20409   5.059   7.400   5.631  1.0149 -3.7429 -0.8239
  873MOL0     H20410   5.144   7.389   5.472 -2.0563 -1.0916 -1.5462
  873MOL0     H20411   5.126   7.625   5.428 -1.2710 -0.3975  0.0934
  873MOL0     H20412   5.028   7.659   5.567  1.1487  1.0360  0.3257
  873MOL0     H20413   5.212   7.620   5.717 -1.6526 -1.6461 -0.0709
  873MOL0     H20414   5.286   7.507   5.596 -0.9246 -0.0452 -1.8876
  873MOL0     H20415   5.230   7.799   5.537  0.1111 -1.2070 -1.9180
  873MOL0     H20416   5.340   7.692   5.451 -1.6658 -2.7682 -0.3684
  873MOL0     H20417   5.371   7.777   5.747  0.0905 -0.9799  0.3437
  873MOL0     H20418   5.493   7.700   5.661  0.6213  1.1317  1.5748
  873MOL0     H20419   5.535   7.946   5.693 -2.3798  0.5200  1.5642
  873MOL0     H20420   5.382   7.974   5.613  0.4078  0.6396  2.5240
  873MOL0     H20421   5.466   7.878   5.413 -1.4448  0.0802  0.9842
  873MOL0     H20422   5.600   7.995   5.463 -1.1523  0.3180 -0.0717
  873MOL0     H20423   5.545   7.681   5.310  0.0527 -2.5465  0.6616
  873MOL0     H20424   5.700   7.480   5.222 -0.1066  2.2549 -1.3519
  873MOL0     H20425   5.747   7.416   5.381  0.2630  0.4423 -0.0177
  873MOL0     H20426   5.942   7.566   5.205 -0.1907 -1.5476 -2.0211
  873MOL0     H20427   5.977   7.482   5.360 -0.7592 -2.4461  1.8343
  873MOL0     H20428   5.909   7.377   5.079  1.1572  1.6418 -1.0520
  873MOL0     H20429   6.066   7.363   5.147 -0.6094 -2.3033  1.0561
  873MOL0     H20430   5.826   7.225   5.259  0.6842  0.2536  0.3083
  873MOL0     H20431   5.943   7.153   5.145 -1.4622 -1.2577  0.2445
  873MOL0     H20432   6.112   6.975   5.198  1.8902 -1.0407 -1.4055
  873MOL0     H20433   6.267   6.819   5.113 -0.6382  2.0455  0.3633
  873MOL0     H20434   6.450   6.839   5.135 -0.4486 -1.2806  2.0593
  873MOL0     H20435   6.363   6.924   5.004  2.7158  0.1419  0.2875
  873MOL0     H20436   6.804   7.353   5.292 -3.3032 -0.5709 -2.3422
  873MOL0     H20437   7.042   7.363   5.237  1.2313 -1.1154 -1.8531
  873MOL0     H20438   7.266   6.972   5.172 -0.9743 -1.4284 -1.2826
  873MOL0     H20439   7.257   7.059   5.019 -0.7483 -0.0229  0.1445
  873MOL0     H20440   7.459   7.105   5.247 -2.6376  2.3644 -0.1540
  873MOL0     H20441   7.488   7.011   5.103  2.0663 -0.3857  1.4178
  873MOL0     H20442   7.450   7.310   5.119  0.8933  2.1810 -1.0874
  873MOL0     H20443   7.455   7.222   4.967  0.8142 -0.4128  0.2481
  873MOL0     H20444   7.668   7.128   5.035 -1.7890 -0.5327 -0.1796
  873MOL0     H20445   7.670   7.225   5.185  1.9325  1.3248 -1.5783
  873MOL0     H20446   7.633   7.341   4.915  0.9801  0.2232 -0.0832
  873MOL0     H20447   7.685   7.432   5.066  1.4473  0.5802 -1.0930
  873MOL0     H20448   7.858   7.228   4.924 -2.9775  0.6522 -1.5658
  873MOL0     H20449   7.899   7.301   5.076 -0.7115  0.2006  1.2980
  873MOL0     H20450   7.901   7.528   4.966  0.0009  0.1274 -0.4483
  873MOL0     H20451   7.838   7.451   4.820  1.2473  2.2674 -0.7286
  873MOL0     H20452   8.061   7.482   4.778  0.6849 -1.5248 -1.7730
  873MOL0     H20453   8.058   7.307   4.833 -0.4139 -0.1307  1.1162
  873MOL0     H20454   7.056   6.930   5.193  0.2350 -0.5147  1.5756
  873MOL0     H20455   6.808   6.937   5.224  1.0601  0.2779  0.1314
  873MOL0     H20456   6.467   7.293   5.326 -2.0739  2.8961  0.3068
  873MOL0     H20457   6.233   7.323   5.389 -0.6658 -0.0587  0.7617
  873MOL0     H20458   4.731   7.311   5.361  0.7125  1.7398 -0.7230
  873MOL0     H20459   4.492   7.265   5.332 -1.0374  1.2134 -0.2159
  873MOL0     H20460   4.055   7.391   5.370 -1.7471  0.6387 -0.1080
  873MOL0     H20461   3.822   7.352   5.330 -0.3440 -2.5774 -1.2054
  873MOL0     H20462   3.578   7.304   5.412 -1.7398  0.1655 -0.7060
  873MOL0     H20463   3.639   7.223   5.271 -1.1289 -0.7780 -0.5194
  873MOL0     H20464   3.414   7.132   5.457 -2.3864 -0.2656 -0.5331
  873MOL0     H20465   3.476   7.033   5.320  0.0518  0.6434 -0.5974
  873MOL0     H20466   3.398   7.185   5.151 -3.0188  2.1806 -1.7060
  873MOL0     H20467   3.274   7.136   5.261 -0.4710  1.2179  2.3401
  873MOL0     H20468   3.228   7.355   5.205 -0.7856  0.1998  1.9216
  873MOL0     H20469   3.391   7.418   5.217  1.5942 -2.2135 -1.1144
  873MOL0     H20470   3.248   7.457   5.616  0.8146  0.2583 -0.4307
  873MOL0     H20471   3.846   7.007   5.578  0.5016 -1.3859 -1.1721
  873MOL0     H20472   4.045   6.934   5.671 -2.4714  0.8288  0.6170
  873MOL0     H20473   4.195   7.000   5.639  1.6236  3.2675  1.2616
  873MOL0     H20474   4.122   7.082   5.764  1.2753  0.5522 -1.2673
  874MOL0     O20475   1.638   6.990   4.553 -0.4329  0.1740  0.7453
  874MOL0     C20476   1.579   7.031   4.462  0.0529 -0.4742  1.1511
  874MOL0     O20477   1.618   7.140   4.386  0.1235  0.2736  0.7009
  874MOL0     C20478   1.742   7.204   4.395  0.4569  0.5405 -0.6487
  874MOL0     C20479   1.836   7.209   4.503  0.0766 -0.9491  0.1856
  874MOL0     C20480   1.952   7.286   4.494 -0.1352 -0.6374  0.1251
  874MOL0     C20481   1.981   7.361   4.375  0.0416  0.2393  0.4364
  874MOL0     O20482   2.090   7.438   4.369  0.2832 -0.6181  0.7739
  874MOL0     C20483   2.101   7.548   4.284 -0.0930 -0.0175  0.1374
  874MOL0     C20484   2.239   7.527   4.228  0.0575 -0.5225  0.1947
  874MOL0     C20485   2.259   7.617   4.100  0.3203  1.0412  0.0922
  874MOL0     C20486   2.398   7.600   4.044  0.0657 -1.2230  0.5725
  874MOL0     C20487   2.445   7.454   4.024 -0.4447 -0.1281 -0.4713
  874MOL0     C20488   2.595   7.450   3.995  0.0421 -0.2868  0.5466
  874MOL0     C20489   2.653   7.310   3.961 -0.1800 -0.6016  0.2368
  874MOL0     C20490   2.801   7.316   3.922 -0.1074 -0.3825  0.4371
  874MOL0     N20491   2.903   7.377   4.004 -0.5970 -0.0722 -0.0563
  874MOL0     C20492   2.905   7.384   4.142 -0.2668 -0.2252  0.0223
  874MOL0     C20493   3.028   7.435   4.172  0.1271  0.2503  0.3167
  874MOL0     C20494   3.100   7.477   4.294  0.0954  0.1078 -0.1062
  874MOL0     C20495   3.052   7.388   4.410 -0.2090  0.2784  0.5429
  874MOL0     C20496   3.165   7.411   4.516  0.2732  0.1580 -0.0813
  874MOL0     C20497   3.119   7.360   4.653 -1.4078  0.1839 -0.3913
  874MOL0     O20498   3.220   7.412   4.743  0.4518  0.1067  0.3988
  874MOL0     C20499   3.336   7.341   4.777  0.1210 -0.0816  0.0829
  874MOL0     C20500   3.431   7.420   4.847  0.5669 -0.3666  0.2735
  874MOL0     C20501   3.561   7.381   4.879  0.2324 -0.3955 -0.9130
  874MOL0     C20502   3.636   7.493   4.960 -0.2969 -0.4204 -0.1895
  874MOL0     C20503   3.589   7.248   4.848 -0.9869  0.7705 -0.0572
  874MOL0     C20504   3.717   7.177   4.893  0.2812  0.0913  1.2167
  874MOL0     O20505   3.739   7.044   4.873 -0.0017  0.3499  0.7582
  874MOL0     C20506   3.823   6.993   4.965  0.0580 -0.4437  0.4050
  874MOL0     C20507   3.954   6.959   4.932 -0.2397  0.2265  0.2799
  874MOL0     C20508   4.042   6.901   5.024  0.1284 -1.2040  0.5915
  874MOL0     C20509   4.006   6.897   5.160 -0.5235  0.6487 -0.3013
  874MOL0     O20510   4.088   6.856   5.267  0.4619 -0.1955  0.6957
  874MOL0     C20511   4.231   6.882   5.247  0.5248  0.2782  0.1301
  874MOL0     C20512   4.305   6.751   5.288  0.8045 -0.1882 -0.5311
  874MOL0     C20513   4.453   6.753   5.266  0.4613  0.0003 -0.4815
  874MOL0     C20514   4.521   6.845   5.361  0.3832  0.9901 -0.0765
  874MOL0     C20515   4.676   6.830   5.351 -1.0675 -0.3004 -0.2374
  874MOL0     C20516   4.754   6.955   5.391 -0.6139  0.2052 -0.5005
  874MOL0     C20517   4.891   6.925   5.440 -0.1642 -0.0611 -0.0954
  874MOL0     C20518   4.996   6.967   5.341 -0.8331 -0.1895 -0.1733
  874MOL0    Cl20519   5.155   6.892   5.386  0.5499 -0.3911  0.3647
  874MOL0     C20520   3.875   6.929   5.199  0.2967  0.5503  0.3555
  874MOL0     C20521   3.783   6.982   5.099  0.2791  0.1130 -0.1994
  874MOL0     O20522   3.800   7.251   4.951 -0.3712 -0.1492 -0.2315
  874MOL0     C20523   3.497   7.165   4.786 -0.0789 -0.4286  0.0168
  874MOL0     C20524   3.374   7.214   4.751 -0.3347  0.2020 -0.9281
  874MOL0     N20525   3.088   7.465   4.047  1.1639  0.7392  0.3857
  874MOL0     N20526   3.014   7.432   3.954 -0.4767  0.4355  0.8092
  874MOL0     C20527   1.897   7.345   4.267  0.5091  0.4520 -0.4446
  874MOL0     C20528   1.774   7.278   4.283 -0.9205 -0.2238 -0.3926
  874MOL0     C20529   1.429   7.000   4.443 -0.4048 -0.1665 -0.2749
  874MOL0     C20530   1.337   7.107   4.418 -0.6447  0.6614 -1.3096
  874MOL0     C20531   1.202   7.081   4.394 -0.4460 -0.6471 -0.0542
  874MOL0     C20532   1.146   6.957   4.395 -0.5929 -0.1549 -0.2906
  874MOL0     O20533   1.019   6.921   4.370  0.3464  0.5646 -0.1737
  874MOL0     C20534   0.906   7.005   4.379 -1.0386  0.3764  0.8541
  874MOL0     C20535   0.791   6.936   4.304 -0.5163 -0.6863  0.3775
  874MOL0     C20536   0.670   7.027   4.324 -0.1176 -0.1133  0.1294
  874MOL0     C20537   0.552   6.968   4.263 -0.6853  0.7982  0.6722
  874MOL0     C20538   0.438   7.058   4.266 -0.3250 -0.2383 -0.1755
  874MOL0     C20539   0.335   7.125   4.278  0.2746 -0.5034  0.0369
  874MOL0     C20540   1.237   6.851   4.432  1.0851 -0.2589 -0.2684
  874MOL0     C20541   1.380   6.869   4.444 -0.0612 -0.6465  0.0293
  874MOL0     C20542   1.466   6.747   4.468 -0.3159  0.1686 -0.3165
  874MOL0     H20543   1.829   7.153   4.596  0.3328  0.4285  1.0645
  874MOL0     H20544   2.013   7.304   4.582 -1.0764  0.1942  0.6258
  874MOL0     H20545   2.103   7.639   4.344 -0.2720  0.2125 -0.2052
  874MOL0     H20546   2.024   7.557   4.207  1.0517  0.9909 -0.9399
  874MOL0     H20547   2.313   7.554   4.304 -0.6965  2.2196  0.0557
  874MOL0     H20548   2.249   7.420   4.205 -1.2677 -0.5276 -0.4462
  874MOL0     H20549   2.187   7.590   4.021 -0.4372  1.6472  0.5643
  874MOL0     H20550   2.244   7.722   4.125 -1.8372  1.2874 -1.8803
  874MOL0     H20551   2.404   7.659   3.952 -3.2195 -0.1750  0.8786
  874MOL0     H20552   2.471   7.645   4.112  0.6572 -1.5890  0.1869
  874MOL0     H20553   2.386   7.412   3.941 -0.6125  1.0543 -0.9656
  874MOL0     H20554   2.444   7.400   4.119 -0.7731  0.0903 -0.3500
  874MOL0     H20555   2.630   7.521   3.920  1.7361 -1.1583  0.4701
  874MOL0     H20556   2.638   7.495   4.085  2.1705 -1.6562  0.2926
  874MOL0     H20557   2.595   7.266   3.880  0.3909 -1.4019  0.2506
  874MOL0     H20558   2.646   7.240   4.045  1.2281 -0.5822  0.4013
  874MOL0     H20559   2.837   7.213   3.915 -3.3910 -1.5658 -1.9697
  874MOL0     H20560   2.812   7.363   3.824 -0.2482 -0.2988  0.4614
  874MOL0     H20561   2.826   7.335   4.198  0.1765 -1.9901 -0.8503
  874MOL0     H20562   3.080   7.579   4.328  2.7402  0.4048  0.7334
  874MOL0     H20563   3.208   7.482   4.285  0.3638 -0.3604  2.1736
  874MOL0     H20564   2.951   7.390   4.451 -0.6800  1.0839 -0.6051
  874MOL0     H20565   3.055   7.288   4.365 -0.0315  0.9868 -1.1204
  874MOL0     H20566   3.264   7.366   4.504  0.5931  0.5897  0.8465
  874MOL0     H20567   3.179   7.519   4.518 -2.2071  0.5383  0.9966
  874MOL0     H20568   3.017   7.390   4.677 -2.1596 -1.0101 -1.8956
  874MOL0     H20569   3.120   7.251   4.655  1.1891  0.1577  2.1873
  874MOL0     H20570   3.386   7.517   4.869 -1.0998 -0.9895 -0.2023
  874MOL0     H20571   3.580   7.579   4.995 -1.6518 -1.3220 -0.0786
  874MOL0     H20572   3.731   7.526   4.917 -0.2342  1.0919  1.0402
  874MOL0     H20573   3.668   7.448   5.054  2.8757 -0.8061 -1.3051
  874MOL0     H20574   3.979   6.970   4.827  1.5853 -0.8171  0.5656
  874MOL0     H20575   4.138   6.868   4.985  0.5420  1.0383 -0.4407
  874MOL0     H20576   4.259   6.925   5.150 -1.5853 -1.7469 -1.5048
  874MOL0     H20577   4.248   6.962   5.320 -1.8328 -0.5307  1.6668
  874MOL0     H20578   4.279   6.738   5.394 -1.4021  1.1309 -0.8530
  874MOL0     H20579   4.273   6.669   5.224 -1.1622 -1.3560  1.7728
  874MOL0     H20580   4.476   6.784   5.164 -1.9793  0.8623 -0.8400
  874MOL0     H20581   4.486   6.651   5.287 -1.0421 -0.0154  2.2684
  874MOL0     H20582   4.493   6.830   5.465  1.1208 -1.3301 -0.1719
  874MOL0     H20583   4.498   6.948   5.331 -0.8266  0.3186 -1.6325
  874MOL0     H20584   4.703   6.748   5.418 -1.1548  0.2712  0.5120
  874MOL0     H20585   4.703   6.804   5.248  0.6341  0.7770 -0.0830
  874MOL0     H20586   4.705   7.004   5.476  1.4568 -1.2149  1.6019
  874MOL0     H20587   4.770   7.021   5.305  1.0485 -0.0749 -0.4264
  874MOL0     H20588   4.906   6.817   5.452  1.7456 -0.2620 -3.0415
  874MOL0     H20589   4.911   6.977   5.534 -2.1169  1.5896 -0.5276
  874MOL0     H20590   5.026   7.072   5.344  1.2818 -0.7555  1.1042
  874MOL0     H20591   4.965   6.951   5.237  0.3506  1.5267 -0.8298
  874MOL0     H20592   3.845   6.932   5.303  1.5926 -0.6139  0.8006
  874MOL0     H20593   3.681   7.002   5.130 -0.1662 -0.9099 -0.9459
  874MOL0     H20594   3.507   7.059   4.765  1.8386 -0.2800  0.0485
  874MOL0     H20595   3.297   7.149   4.711 -0.9124  0.4253 -0.2067
  874MOL0     H20596   1.905   7.394   4.171  0.2550  1.0801 -0.1539
  874MOL0     H20597   1.705   7.280   4.199 -1.3210 -0.6723 -0.0811
  874MOL0     H20598   1.385   7.204   4.426  1.4675 -0.4388  0.3810
  874MOL0     H20599   1.150   7.172   4.367  0.3598 -0.3164 -0.5126
  874MOL0     H20600   0.897   7.024   4.486  1.9212 -0.6847  1.3921
  874MOL0     H20601   0.923   7.106   4.341  1.3730  0.1941  1.2660
  874MOL0     H20602   0.766   6.835   4.339 -1.2875 -1.7281 -2.8153
  874MOL0     H20603   0.814   6.930   4.197  0.0642  3.2328  0.1565
  874MOL0     H20604   0.657   7.056   4.429 -1.8341 -1.7573  0.4112
  874MOL0     H20605   0.679   7.116   4.261 -2.5944 -0.4489 -0.7971
  874MOL0     H20606   0.528   6.875   4.315  1.1727  0.6508  1.3360
  874MOL0     H20607   0.587   6.944   4.162  0.8509 -1.1556  1.6009
  874MOL0     H20608   0.252   7.191   4.288  1.3518  1.0444 -0.8500
  874MOL0     H20609   1.189   6.754   4.441 -1.7976  1.1734  1.1892
  874MOL0     H20610   1.517   6.757   4.565  0.2130  0.5982 -0.6312
  874MOL0     H20611   1.402   6.659   4.463 -2.7086  1.9090 -2.7012
  874MOL0     H20612   1.541   6.738   4.389  0.6797  2.1502  0.3432
  875MOL0     O20613  10.088  10.356   5.161  0.1805  0.0838 -0.3325
  875MOL0     C20614  10.116  10.241   5.188 -0.6178  0.2003  0.1084
  875MOL0     O20615  10.247  10.196   5.193 -0.0914  0.5255  0.1890
  875MOL0     C20616  10.352  10.284   5.218 -0.4555 -0.1088 -0.7562
  875MOL0     C20617  10.451  10.299   5.121  0.1048 -0.5162  0.9316
  875MOL0     C20618  10.548  10.405   5.123 -0.1946 -0.0408  0.7858
  875MOL0     C20619  10.543  10.492   5.234  0.0809  0.3710  0.8223
  875MOL0     O20620  10.638  10.594   5.230 -0.5203  0.1924  0.5885
  875MOL0     C20621  10.734  10.596   5.334 -0.5537 -0.1392  0.3310
  875MOL0     C20622  10.850  10.496   5.307  0.5250 -0.3457  0.3114
  875MOL0     C20623  10.961  10.549   5.212 -0.9161 -0.0148  0.4158
  875MOL0     C20624  11.053  10.434   5.164 -0.1323 -0.1457 -0.5432
  875MOL0     C20625  11.164  10.476   5.072  0.2012  0.4079  0.0490
  875MOL0     C20626  11.249  10.359   5.037  0.4729 -0.0524  0.1515
  875MOL0     C20627  11.379  10.406   4.967 -0.3379  0.3077  0.0586
  875MOL0     C20628  11.482  10.464   5.061 -0.5702 -0.8750 -0.3959
  875MOL0     N20629  11.613  10.496   5.012 -0.3960 -0.0661  0.4892
  875MOL0     C20630  11.713  10.406   4.991 -0.1651  0.2457  0.2740
  875MOL0     C20631  11.813  10.483   4.931  0.5083  0.5789 -0.0050
  875MOL0     C20632  11.946  10.439   4.872 -0.5727  0.2459 -0.1508
  875MOL0     C20633  12.038  10.546   4.814 -0.5453  0.1218 -0.0537
  875MOL0     C20634  12.168  10.488   4.750 -0.1250 -0.7478 -0.3062
  875MOL0     C20635  12.275  10.598   4.726  0.2583 -0.1469  0.3489
  875MOL0     O20636  12.336  10.645   4.844  0.6016  0.2773 -0.5453
  875MOL0     C20637  12.394  10.767   4.849 -0.4269  0.7835 -0.4683
  875MOL0     C20638  12.331  10.882   4.801  0.7499 -0.1943 -0.2412
  875MOL0     C20639  12.397  11.007   4.797 -0.2346  0.0237 -0.1264
  875MOL0     C20640  12.311  11.132   4.768 -0.9016  0.5346 -0.9918
  875MOL0     C20641  12.535  11.016   4.826 -0.4207  0.2869  0.6973
  875MOL0     C20642  12.615  11.141   4.810  0.1133 -1.0579  0.1216
  875MOL0     O20643  12.730  11.149   4.878  0.0445 -0.4410  0.2759
  875MOL0     C20644  12.797  11.267   4.903 -0.6058 -0.1367 -0.8563
  875MOL0     C20645  12.743  11.400   4.921  0.9505 -0.1933  0.6435
  875MOL0     C20646  12.827  11.510   4.929  0.0287  0.3008  0.5261
  875MOL0     C20647  12.970  11.490   4.934  0.5117 -0.1422 -0.4884
  875MOL0     O20648  13.054  11.591   4.971 -0.0688 -0.0091  0.0063
  875MOL0     C20649  12.998  11.655   5.079 -0.8177 -1.1161 -0.0305
  875MOL0     C20650  13.107  11.721   5.153 -0.6477 -0.7167  0.3857
  875MOL0     C20651  13.181  11.827   5.065  0.3812 -0.8967 -0.3171
  875MOL0     C20652  13.273  11.910   5.146 -0.1693 -0.2409  0.1926
  875MOL0     C20653  13.332  12.007   5.048  0.1565  0.3019  0.0627
  875MOL0     C20654  13.421  12.115   5.111  0.2534 -0.1011 -0.3800
  875MOL0     C20655  13.538  12.064   5.192 -0.1853  0.2434  0.2737
  875MOL0     C20656  13.652  12.166   5.201  0.0078  0.0464 -0.2869
  875MOL0    Cl20657  13.794  12.072   5.265  0.0443 -0.0522 -0.3245
  875MOL0     C20658  13.021  11.360   4.934  0.2519  0.4519 -0.1632
  875MOL0     C20659  12.938  11.253   4.918  0.3563  0.2175 -1.1935
  875MOL0     O20660  12.566  11.233   4.749  0.5729 -0.8138 -0.3428
  875MOL0     C20661  12.596  10.902   4.874 -0.6322  0.3923 -0.2259
  875MOL0     C20662  12.528  10.778   4.884 -0.2328 -0.3650  0.3584
  875MOL0     N20663  11.764  10.608   4.910 -0.4166  0.6714 -0.6316
  875MOL0     N20664  11.642  10.616   4.955  0.2998 -0.0330  0.5912
  875MOL0     C20665  10.449  10.475   5.339 -0.7364  0.1185  0.4480
  875MOL0     C20666  10.350  10.376   5.329  0.5944 -0.0779 -0.5055
  875MOL0     C20667  10.016  10.135   5.207 -0.2218 -0.4728 -1.0590
  875MOL0     C20668  10.065  10.019   5.264 -0.1405 -0.3448  0.0732
  875MOL0     C20669   9.980   9.911   5.281  0.0107  0.3233  0.3584
  875MOL0     C20670   9.843   9.919   5.248 -0.4465 -0.3375 -0.7236
  875MOL0     O20671   9.777   9.807   5.288 -0.3732  0.4274 -1.0406
  875MOL0     C20672   9.665   9.774   5.204 -0.0131  0.8984  0.6056
  875MOL0     C20673   9.655   9.622   5.180  0.4495 -0.6876  0.8468
  875MOL0     C20674   9.784   9.553   5.115 -0.4295 -0.2649 -0.2447
  875MOL0     C20675   9.901   9.530   5.212  0.3879 -0.0025  0.4933
  875MOL0     C20676   9.853   9.483   5.342 -0.4232  0.0521 -0.2120
  875MOL0     C20677   9.816   9.450   5.448 -0.7439  0.9498 -0.2729
  875MOL0     C20678   9.795  10.037   5.183 -0.5110 -0.5457 -0.3798
  875MOL0     C20679   9.881  10.143   5.168 -1.1904 -0.3502  0.2135
  875MOL0     C20680   9.822  10.274   5.111  0.6918  0.3297  0.0452
  875MOL0     H20681  10.458  10.230   5.037 -1.0924 -0.3228  0.6429
  875MOL0     H20682  10.623  10.401   5.045 -3.0866  0.2057 -2.2395
  875MOL0     H20683  10.689  10.567   5.429  1.6611 -1.2874  1.0997
  875MOL0     H20684  10.774  10.697   5.345  0.6562 -0.7226  1.5692
  875MOL0     H20685  10.901  10.458   5.396  3.8413  2.5149 -0.1506
  875MOL0     H20686  10.796  10.411   5.264  1.4604 -1.0561  0.5012
  875MOL0     H20687  10.923  10.608   5.127  2.9054  0.8622 -0.8812
  875MOL0     H20688  11.022  10.609   5.280 -2.3795 -0.0223  1.7929
  875MOL0     H20689  11.089  10.368   5.244 -1.7574 -1.0386 -0.5058
  875MOL0     H20690  10.991  10.365   5.106  0.6522 -0.7652 -0.6590
  875MOL0     H20691  11.224  10.558   5.111  4.6120 -1.2675 -2.4779
  875MOL0     H20692  11.122  10.520   4.981 -3.5505  0.4323  1.6318
  875MOL0     H20693  11.277  10.300   5.124  2.3918 -1.9139 -1.6097
  875MOL0     H20694  11.183  10.300   4.972 -2.5723  1.8149  1.3248
  875MOL0     H20695  11.353  10.479   4.890  0.7473  0.4503 -0.1905
  875MOL0     H20696  11.416  10.321   4.908 -0.6579 -0.1581  0.5275
  875MOL0     H20697  11.442  10.560   5.093  1.3057 -0.0613 -0.3690
  875MOL0     H20698  11.490  10.399   5.148  0.8850 -0.7457 -0.3989
  875MOL0     H20699  11.716  10.302   5.025  2.6346  0.5559  1.3177
  875MOL0     H20700  11.923  10.377   4.786 -3.3076  2.1310 -0.9101
  875MOL0     H20701  11.998  10.380   4.948 -0.8278 -1.3463 -1.1643
  875MOL0     H20702  11.984  10.598   4.733  0.9838  2.1779  0.1548
  875MOL0     H20703  12.068  10.614   4.894 -0.4645 -0.3526  0.3227
  875MOL0     H20704  12.223  10.418   4.814  0.9012 -0.0828 -0.4330
  875MOL0     H20705  12.156  10.439   4.654 -0.7395 -0.4168 -0.4015
  875MOL0     H20706  12.363  10.553   4.680 -0.3306 -0.4622 -0.4887
  875MOL0     H20707  12.237  10.683   4.670  0.8103 -0.2836 -0.2399
  875MOL0     H20708  12.224  10.883   4.782  0.9858  1.4827 -1.7964
  875MOL0     H20709  12.207  11.099   4.756 -0.9020 -1.7890  3.3088
  875MOL0     H20710  12.362  11.177   4.682 -0.5063  4.0872  0.9038
  875MOL0     H20711  12.316  11.205   4.849 -1.2378  0.7010 -1.1187
  875MOL0     H20712  12.636  11.417   4.923  0.4187 -3.0859  0.8021
  875MOL0     H20713  12.788  11.611   4.929  0.8666  0.6360  0.4634
  875MOL0     H20714  12.932  11.731   5.034  2.4897  2.2289  0.2424
  875MOL0     H20715  12.949  11.591   5.153 -1.8778 -0.2331  0.0690
  875MOL0     H20716  13.054  11.772   5.234 -0.7122  0.3413 -0.3042
  875MOL0     H20717  13.173  11.642   5.190 -0.3281 -0.6733 -0.0812
  875MOL0     H20718  13.104  11.892   5.021  1.5801  0.2748 -0.7570
  875MOL0     H20719  13.237  11.771   4.990  1.5005  0.8888 -0.8864
  875MOL0     H20720  13.354  11.853   5.194 -1.1862 -1.2242  0.8102
  875MOL0     H20721  13.221  11.958   5.229  0.1654 -1.8482  1.3931
  875MOL0     H20722  13.393  11.948   4.979 -1.2561 -2.7282  1.2580
  875MOL0     H20723  13.245  12.054   5.000 -0.2261 -0.1112  0.3504
  875MOL0     H20724  13.355  12.174   5.175  0.1735 -1.2261  0.6146
  875MOL0     H20725  13.461  12.180   5.033 -2.1500  2.7802  0.5786
  875MOL0     H20726  13.581  11.969   5.160 -3.6286 -1.9303  1.6650
  875MOL0     H20727  13.490  12.044   5.288 -0.4009  1.2483  0.3843
  875MOL0     H20728  13.621  12.248   5.266  1.0978  0.5056 -0.3182
  875MOL0     H20729  13.678  12.202   5.101  0.1051 -1.0440 -0.6753
  875MOL0     H20730  13.129  11.350   4.939  0.1899 -0.9142 -1.0187
  875MOL0     H20731  12.979  11.153   4.926 -0.3802 -0.1102 -1.4009
  875MOL0     H20732  12.701  10.895   4.902 -1.0367 -4.1415  0.9746
  875MOL0     H20733  12.582  10.689   4.918  2.5928  0.6067 -1.2164
  875MOL0     H20734  10.436  10.550   5.417  1.7594  2.1714 -0.9814
  875MOL0     H20735  10.273  10.368   5.405 -2.4281 -1.0118 -3.4253
  875MOL0     H20736  10.166  10.017   5.303  0.3250  0.4715 -1.0299
  875MOL0     H20737  10.016   9.818   5.325  2.1173  0.6488 -0.5711
  875MOL0     H20738   9.576   9.819   5.248  0.4914  0.3890  2.1870
  875MOL0     H20739   9.684   9.809   5.102  0.8568 -2.1287 -0.3976
  875MOL0     H20740   9.577   9.609   5.104  0.5508  2.7292  0.0096
  875MOL0     H20741   9.614   9.577   5.270 -2.5958  1.0675  0.4520
  875MOL0     H20742   9.748   9.461   5.066 -1.5362  0.7853 -1.5225
  875MOL0     H20743   9.811   9.617   5.030  0.7738  0.4534  0.6644
  875MOL0     H20744   9.946   9.628   5.233 -1.6976  1.0156  0.4866
  875MOL0     H20745   9.975   9.461   5.172 -1.0930 -0.8384 -0.9297
  875MOL0     H20746   9.791   9.417   5.546  1.6698  0.9493  0.4114
  875MOL0     H20747   9.691  10.047   5.153 -0.1677  0.5892 -1.2642
  875MOL0     H20748   9.889  10.321   5.038  1.2298 -1.0868 -0.3968
  875MOL0     H20749   9.723  10.255   5.069 -0.4462 -1.3547  3.2312
  875MOL0     H20750   9.806  10.338   5.198 -0.4352 -0.8948  0.7636
  876MOL0     O20751   4.738   9.197   7.200  0.7009 -0.1869 -0.5475
  876MOL0     C20752   4.766   9.320   7.197  0.0335 -0.0745  0.3697
  876MOL0     O20753   4.881   9.381   7.251 -0.2344 -0.1798 -0.8169
  876MOL0     C20754   4.947   9.307   7.342 -0.4599 -0.5650 -1.0433
  876MOL0     C20755   5.065   9.241   7.309 -0.3837  0.1787 -0.2580
  876MOL0     C20756   5.131   9.166   7.397 -0.4630  0.0860 -0.6056
  876MOL0     C20757   5.074   9.141   7.522 -0.3436 -0.1403 -0.4793
  876MOL0     O20758   5.153   9.054   7.591 -0.1376  0.2578 -0.9323
  876MOL0     C20759   5.098   8.994   7.708  0.4670  0.3129  0.5057
  876MOL0     C20760   5.193   8.877   7.745  0.0187  0.1105  0.5770
  876MOL0     C20761   5.201   8.768   7.633  0.4280 -0.1376 -0.9472
  876MOL0     C20762   5.308   8.664   7.670 -0.0326 -0.0898  0.2299
  876MOL0     C20763   5.314   8.549   7.566  0.1592 -0.9781  0.4335
  876MOL0     C20764   5.400   8.434   7.610 -0.2558 -0.8623  0.5424
  876MOL0     C20765   5.545   8.468   7.585 -0.6099 -0.1921 -0.1186
  876MOL0     C20766   5.622   8.344   7.650  0.0581  0.1053  0.8077
  876MOL0     N20767   5.760   8.305   7.615 -0.4220  0.3225 -0.3044
  876MOL0     C20768   5.800   8.198   7.534 -0.3590 -0.3680  0.1970
  876MOL0     C20769   5.939   8.205   7.531  0.5407  0.2734 -0.3377
  876MOL0     C20770   6.020   8.101   7.466 -0.5195  0.8461  0.0045
  876MOL0     C20771   6.164   8.109   7.514  0.6431 -0.0965 -0.3701
  876MOL0     C20772   6.256   8.026   7.422  0.5265  0.0635 -0.3294
  876MOL0     C20773   6.409   8.036   7.441  0.1322 -0.2273  0.8870
  876MOL0     O20774   6.431   8.015   7.581 -0.6209  0.1769  0.3928
  876MOL0     C20775   6.559   8.013   7.620 -0.3599 -0.3432 -0.0153
  876MOL0     C20776   6.667   8.082   7.562  0.5160  0.0085 -0.2220
  876MOL0     C20777   6.804   8.065   7.602  0.4747  0.1514  0.5211
  876MOL0     C20778   6.910   8.130   7.522  0.2631 -0.6897 -0.4426
  876MOL0     C20779   6.828   7.978   7.713  0.4388 -0.5073 -0.2149
  876MOL0     C20780   6.954   7.956   7.770 -0.0852 -0.0051  0.1709
  876MOL0     O20781   6.993   7.827   7.784 -0.7292 -0.1396 -0.3879
  876MOL0     C20782   7.127   7.794   7.823  0.2403 -0.5460 -0.5096
  876MOL0     C20783   7.155   7.751   7.957  0.4157 -0.3925 -0.2354
  876MOL0     C20784   7.283   7.722   7.994 -0.3618  0.5413  0.5041
  876MOL0     C20785   7.390   7.724   7.891  0.1702  0.3850 -0.6186
  876MOL0     O20786   7.516   7.675   7.917  0.4024  0.0299  0.5855
  876MOL0     C20787   7.591   7.600   7.824 -0.3177 -0.3677  0.5397
  876MOL0     C20788   7.735   7.582   7.883  0.4840  0.2227 -0.1309
  876MOL0     C20789   7.826   7.712   7.897  0.8415  0.1239 -0.1382
  876MOL0     C20790   7.968   7.685   7.961  0.5484  0.0873 -0.0559
  876MOL0     C20791   8.069   7.800   7.947 -0.1397  0.8547 -0.0741
  876MOL0     C20792   8.203   7.770   8.013  0.5696  0.2768 -0.6575
  876MOL0     C20793   8.306   7.671   7.952  0.0462 -0.3045  0.3988
  876MOL0     C20794   8.411   7.630   8.052 -0.6084 -0.2157  0.6721
  876MOL0    Cl20795   8.528   7.531   7.951  0.4915  0.2917 -0.4582
  876MOL0     C20796   7.361   7.774   7.760 -0.0556 -0.3532  0.1017
  876MOL0     C20797   7.229   7.813   7.730 -0.4626  0.1258 -0.1515
  876MOL0     O20798   7.022   8.058   7.808  0.3101  0.7774  0.3306
  876MOL0     C20799   6.715   7.918   7.777 -0.8863 -0.3256 -0.5814
  876MOL0     C20800   6.591   7.941   7.731  0.1993 -0.0107 -0.5903
  876MOL0     N20801   5.975   8.304   7.618 -0.3710  0.0810 -0.3012
  876MOL0     N20802   5.870   8.369   7.654  0.1190  0.0997 -0.5058
  876MOL0     C20803   4.952   9.207   7.562 -0.1221 -0.7707 -0.2527
  876MOL0     C20804   4.895   9.291   7.466  0.5595 -0.5232 -0.4088
  876MOL0     C20805   4.658   9.411   7.157 -0.9594 -0.2955 -0.7456
  876MOL0     C20806   4.531   9.360   7.146  0.2293  0.1423  0.3040
  876MOL0     C20807   4.434   9.436   7.093  1.5490 -0.3396  0.8331
  876MOL0     C20808   4.449   9.568   7.055 -0.0093 -0.8960  0.0728
  876MOL0     O20809   4.325   9.629   7.027  0.4855  0.4694  0.0102
  876MOL0     C20810   4.331   9.760   6.967  0.5406 -0.2906 -0.8476
  876MOL0     C20811   4.286   9.856   7.078 -0.2572 -0.2946 -0.1467
  876MOL0     C20812   4.149   9.822   7.126  0.4713  0.3421  0.5123
  876MOL0     C20813   4.100   9.915   7.238 -0.2766 -0.3253 -0.0647
  876MOL0     C20814   4.113  10.061   7.214  0.5682 -0.8264 -0.3077
  876MOL0     C20815   4.137  10.180   7.213  0.4640 -0.6655 -0.5720
  876MOL0     C20816   4.570   9.632   7.075 -0.4680  0.4966 -0.9585
  876MOL0     C20817   4.679   9.546   7.115 -0.4941 -0.0855 -0.0644
  876MOL0     C20818   4.812   9.616   7.129  0.4212 -0.0569  0.6321
  876MOL0     H20819   5.105   9.243   7.208 -0.4957  0.1627 -0.3032
  876MOL0     H20820   5.227   9.126   7.367 -0.2604 -0.7589  1.0601
  876MOL0     H20821   4.998   8.961   7.679  0.8449  1.1178 -1.9406
  876MOL0     H20822   5.101   9.060   7.795 -0.5827 -1.9361  2.3620
  876MOL0     H20823   5.290   8.923   7.764 -0.3549  0.9259  0.5451
  876MOL0     H20824   5.152   8.825   7.832 -0.6773 -1.1449 -0.4463
  876MOL0     H20825   5.104   8.720   7.622  1.5950 -2.9154 -0.0192
  876MOL0     H20826   5.228   8.820   7.540 -0.1148 -0.1809 -1.1284
  876MOL0     H20827   5.405   8.714   7.668  1.4791 -2.8365 -0.5598
  876MOL0     H20828   5.286   8.619   7.767  1.5627  0.0830  0.6915
  876MOL0     H20829   5.350   8.593   7.472 -0.1588 -0.0781  0.7239
  876MOL0     H20830   5.215   8.505   7.551  1.0273 -2.1756 -2.6388
  876MOL0     H20831   5.374   8.417   7.715  0.9526  1.1617  1.2210
  876MOL0     H20832   5.379   8.345   7.551  1.3457 -0.2073 -1.1037
  876MOL0     H20833   5.587   8.560   7.626  2.6506 -1.2821 -0.6919
  876MOL0     H20834   5.562   8.477   7.478 -2.5648 -0.2024 -0.4550
  876MOL0     H20835   5.636   8.375   7.754  2.3748  2.9884 -0.2189
  876MOL0     H20836   5.565   8.250   7.643  0.1718  0.0635  0.4377
  876MOL0     H20837   5.740   8.121   7.485  0.8989 -1.3693  0.1833
  876MOL0     H20838   6.018   8.122   7.358  2.0023 -0.7134 -0.4236
  876MOL0     H20839   5.978   8.000   7.480  2.3473 -0.2266  1.5531
  876MOL0     H20840   6.191   8.215   7.511 -0.5213  0.3492  2.1596
  876MOL0     H20841   6.168   8.073   7.617 -0.8397 -2.0642 -0.9492
  876MOL0     H20842   6.226   7.921   7.428 -2.1663  0.7290 -0.9417
  876MOL0     H20843   6.234   8.058   7.320 -0.0097  1.1998  0.1326
  876MOL0     H20844   6.464   7.961   7.383  0.4364 -1.5117  2.7517
  876MOL0     H20845   6.429   8.140   7.416 -2.5496  0.1676  0.1075
  876MOL0     H20846   6.642   8.149   7.480 -1.3131  0.7118  0.8361
  876MOL0     H20847   6.885   8.126   7.416  0.4889 -0.4753 -0.5053
  876MOL0     H20848   7.011   8.093   7.545  0.7009  1.2424  1.1186
  876MOL0     H20849   6.903   8.237   7.545  0.7207 -1.3017  3.1919
  876MOL0     H20850   7.073   7.733   8.024 -0.1256  1.0210 -0.4882
  876MOL0     H20851   7.304   7.679   8.091  0.6339  0.4285  0.2432
  876MOL0     H20852   7.548   7.501   7.801  0.0487  0.0632 -2.3644
  876MOL0     H20853   7.601   7.654   7.729  0.3979 -1.5508 -0.0795
  876MOL0     H20854   7.726   7.532   7.980 -0.7930 -1.1070 -0.9031
  876MOL0     H20855   7.795   7.517   7.819  3.3073  1.0838  1.4471
  876MOL0     H20856   7.778   7.794   7.951  0.3243  1.2892 -2.2388
  876MOL0     H20857   7.837   7.758   7.798  2.9938  0.3682  0.1744
  876MOL0     H20858   8.004   7.596   7.909  0.4213 -0.2034  0.3447
  876MOL0     H20859   7.959   7.657   8.067  2.0702 -0.4470 -0.0421
  876MOL0     H20860   8.096   7.822   7.844 -1.1039 -0.3995 -0.6241
  876MOL0     H20861   8.021   7.884   7.998 -1.8987  0.0906 -0.3898
  876MOL0     H20862   8.170   7.738   8.113 -3.9974 -0.2204 -2.1163
  876MOL0     H20863   8.245   7.870   8.032  2.9322 -1.0028  1.4949
  876MOL0     H20864   8.355   7.727   7.872  0.7049 -1.9780 -0.4351
  876MOL0     H20865   8.255   7.586   7.904 -0.7304 -0.1726  0.9652
  876MOL0     H20866   8.361   7.569   8.128 -0.7232  0.6322  1.2930
  876MOL0     H20867   8.462   7.721   8.085 -0.1284  0.3573 -1.4827
  876MOL0     H20868   7.439   7.788   7.686  1.1477 -3.4531  0.6280
  876MOL0     H20869   7.204   7.850   7.631  0.0088  1.4359  0.2038
  876MOL0     H20870   6.733   7.874   7.875  4.6232 -1.3807 -1.7638
  876MOL0     H20871   6.503   7.911   7.787  1.4327 -0.7214  1.0626
  876MOL0     H20872   4.890   9.187   7.649 -1.2365 -2.1463 -1.3017
  876MOL0     H20873   4.799   9.341   7.473  1.6182  2.3788 -3.7870
  876MOL0     H20874   4.509   9.260   7.182  1.7141  0.1260  1.2355
  876MOL0     H20875   4.339   9.390   7.066  2.0779 -0.6530 -0.5731
  876MOL0     H20876   4.427   9.793   6.927 -0.7424  1.0425 -2.9745
  876MOL0     H20877   4.250   9.774   6.894  0.5760  0.1619 -0.8049
  876MOL0     H20878   4.277   9.959   7.042 -1.0887 -1.2105 -2.7872
  876MOL0     H20879   4.359   9.847   7.159 -0.5426  0.5180  0.2056
  876MOL0     H20880   4.084   9.821   7.038  1.8253  0.3415 -0.5202
  876MOL0     H20881   4.157   9.723   7.172  1.0144  0.4729  0.6964
  876MOL0     H20882   4.153   9.880   7.327 -2.0599 -4.1943 -0.3264
  876MOL0     H20883   3.991   9.911   7.252 -0.8919  1.4161 -3.3377
  876MOL0     H20884   4.152  10.285   7.195 -3.1161  0.3571  1.5132
  876MOL0     H20885   4.580   9.739   7.057  0.2739  0.7172  0.6576
  876MOL0     H20886   4.808   9.715   7.082 -0.1902 -0.0502  0.6843
  876MOL0     H20887   4.858   9.629   7.228 -2.2623  0.9650  1.8607
  876MOL0     H20888   4.884   9.564   7.066  1.1965  1.0299  0.5786
  877MOL0     O20889   9.698   8.242   7.671  0.5475  0.9742 -0.9547
  877MOL0     C20890   9.674   8.123   7.651 -0.0110  0.2790 -0.0109
  877MOL0     O20891   9.754   8.018   7.679 -0.3887  0.5022  0.3421
  877MOL0     C20892   9.877   8.046   7.741  0.4020  0.5913  0.0748
  877MOL0     C20893   9.990   7.975   7.690 -0.0591 -0.3462  0.1392
  877MOL0     C20894  10.117   8.001   7.745  0.8028  0.0963  0.0622
  877MOL0     C20895  10.131   8.089   7.855 -0.3934  0.4804  0.3861
  877MOL0     O20896  10.256   8.115   7.912 -0.2524 -0.0143  0.2864
  877MOL0     C20897  10.289   8.252   7.933  0.2776  0.2874  0.8145
  877MOL0     C20898  10.432   8.275   7.920 -0.6372  0.0194  0.0928
  877MOL0     C20899  10.499   8.222   8.049  0.1700  0.3084 -0.8791
  877MOL0     C20900  10.643   8.244   8.052 -0.8497 -0.0465 -0.2396
  877MOL0     C20901  10.700   8.211   8.196 -0.6629  0.8056 -0.3373
  877MOL0     C20902  10.702   8.319   8.288 -0.0831 -0.3503  0.3525
  877MOL0     C20903  10.740   8.285   8.434  0.2668 -1.0180 -0.0944
  877MOL0     C20904  10.740   8.408   8.515 -0.5003 -0.5715 -0.1048
  877MOL0     N20905  10.733   8.369   8.659  0.1468 -0.1621 -0.5062
  877MOL0     C20906  10.633   8.316   8.728  0.3436  0.9922  0.7701
  877MOL0     C20907  10.667   8.335   8.860 -0.5146 -0.0806 -1.0106
  877MOL0     C20908  10.588   8.280   8.975  0.4981 -0.5846  0.0719
  877MOL0     C20909  10.651   8.162   9.058 -0.3476 -0.6261 -0.2746
  877MOL0     C20910  10.791   8.192   9.100  0.6148  0.2903 -0.9189
  877MOL0     C20911  10.843   8.106   9.217 -0.2146  0.5619  0.0409
  877MOL0     O20912  10.836   7.964   9.204  0.3877 -0.1416 -1.3215
  877MOL0     C20913  10.941   7.890   9.174 -0.4770 -0.5822  0.7163
  877MOL0     C20914  10.953   7.778   9.252  0.4186  0.2606 -0.4912
  877MOL0     C20915  11.071   7.700   9.247 -1.0117  0.7388 -0.1155
  877MOL0     C20916  11.069   7.566   9.317 -0.2855 -0.0399 -0.9899
  877MOL0     C20917  11.183   7.739   9.175 -0.0753 -0.1375  0.4166
  877MOL0     C20918  11.320   7.674   9.169 -0.0231  0.4073  0.1494
  877MOL0     O20919  11.380   7.666   9.044  0.0971  0.8105  0.2775
  877MOL0     C20920  11.478   7.570   9.039  0.1373  0.6853  0.6767
  877MOL0     C20921  11.616   7.606   9.018 -0.1001  1.1094 -1.1278
  877MOL0     C20922  11.719   7.508   9.015  0.0208 -0.9663  0.2683
  877MOL0     C20923  11.679   7.376   9.011  0.1357  1.6279  0.6701
  877MOL0     O20924  11.773   7.284   8.978  0.5290 -0.6182  0.1951
  877MOL0     C20925  11.890   7.277   9.064  0.0599  0.8900  0.1623
  877MOL0     C20926  11.862   7.233   9.208  0.6489 -0.0613 -0.1535
  877MOL0     C20927  11.984   7.193   9.281 -0.5493  0.9208 -0.7299
  877MOL0     C20928  12.072   7.310   9.330  0.0423  0.5628  0.4584
  877MOL0     C20929  12.212   7.264   9.361  0.4544 -0.4016 -0.0114
  877MOL0     C20930  12.310   7.387   9.355  0.2035  0.7340 -1.3630
  877MOL0     C20931  12.324   7.447   9.208  0.5502 -0.6831  0.3528
  877MOL0     C20932  12.475   7.476   9.171  0.0901 -0.3748  0.0801
  877MOL0    Cl20933  12.560   7.598   9.291  0.2522 -0.0789  0.0311
  877MOL0     C20934  11.550   7.339   9.036 -0.1803 -0.5387  0.2829
  877MOL0     C20935  11.447   7.438   9.048 -0.2218  0.2648  0.2676
  877MOL0     O20936  11.365   7.626   9.271  0.1870  0.0247 -0.6219
  877MOL0     C20937  11.164   7.853   9.090 -0.5733 -0.1782  0.1301
  877MOL0     C20938  11.045   7.928   9.094 -1.1273  0.3700  0.0244
  877MOL0     N20939  10.782   8.415   8.866 -0.1236  0.7455 -0.5786
  877MOL0     N20940  10.813   8.439   8.740 -0.0254 -0.0475  0.3764
  877MOL0     C20941  10.014   8.145   7.910  0.5539  0.2094  0.2665
  877MOL0     C20942   9.889   8.132   7.851  0.1838  0.6529  1.2800
  877MOL0     C20943   9.537   8.083   7.602  0.1169  0.0058 -0.3232
  877MOL0     C20944   9.485   7.952   7.614 -0.6039  0.0785 -0.9730
  877MOL0     C20945   9.354   7.916   7.582 -0.4407  0.1591 -0.0471
  877MOL0     C20946   9.269   8.008   7.520  1.3380  0.0135 -0.5633
  877MOL0     O20947   9.151   7.989   7.467  0.8189 -0.3160  0.4188
  877MOL0     C20948   9.096   7.860   7.457 -0.4328  0.2704 -0.1829
  877MOL0     C20949   8.989   7.858   7.353  0.9225  0.2178  0.0027
  877MOL0     C20950   8.886   7.975   7.360 -0.5993 -1.1131 -0.0389
  877MOL0     C20951   8.752   7.944   7.431 -1.1668 -0.2400 -0.8233
  877MOL0     C20952   8.671   7.857   7.349  0.5811  0.4640  0.5650
  877MOL0     C20953   8.599   7.792   7.275 -0.4094  0.1758 -0.6188
  877MOL0     C20954   9.322   8.133   7.509 -0.0307 -0.0513 -0.9355
  877MOL0     C20955   9.452   8.175   7.546  1.0555  0.3404  0.0570
  877MOL0     C20956   9.477   8.326   7.516  0.3193  0.8363  0.3153
  877MOL0     H20957   9.979   7.922   7.596  0.7453  0.9049 -0.6997
  877MOL0     H20958  10.209   7.961   7.702  0.6266  0.6145 -0.8056
  877MOL0     H20959  10.246   8.288   8.027 -1.8057 -1.4299  0.6142
  877MOL0     H20960  10.252   8.315   7.851  2.2140 -1.0117 -1.1427
  877MOL0     H20961  10.472   8.208   7.842  0.1456  0.7757 -0.1670
  877MOL0     H20962  10.464   8.378   7.902 -1.1630 -0.3186 -3.5843
  877MOL0     H20963  10.461   8.282   8.132  2.7487 -2.8019  2.9109
  877MOL0     H20964  10.471   8.118   8.068 -1.0550  0.9349  1.0567
  877MOL0     H20965  10.703   8.184   7.983 -0.3964 -3.0004  2.5165
  877MOL0     H20966  10.663   8.350   8.037 -0.5480  0.4067  2.8082
  877MOL0     H20967  10.806   8.191   8.179 -1.1868 -0.2171 -2.6731
  877MOL0     H20968  10.656   8.128   8.252  1.7435  0.5548  1.3377
  877MOL0     H20969  10.776   8.393   8.255  0.7499 -1.8948 -1.4445
  877MOL0     H20970  10.608   8.374   8.290 -1.1015 -1.9320 -1.3832
  877MOL0     H20971  10.845   8.254   8.433  0.4173 -0.4976 -0.4802
  877MOL0     H20972  10.673   8.211   8.478 -1.4859  1.9903  2.7416
  877MOL0     H20973  10.818   8.482   8.494 -1.0478  0.4482  1.3314
  877MOL0     H20974  10.648   8.466   8.504  0.0548  0.3087 -0.2396
  877MOL0     H20975  10.550   8.271   8.674 -0.2712  2.9465 -0.0170
  877MOL0     H20976  10.492   8.252   8.933  0.4309  2.7543 -2.4624
  877MOL0     H20977  10.578   8.370   9.037 -0.2919  1.8967 -3.3085
  877MOL0     H20978  10.592   8.144   9.148  0.5998  0.5141  0.6165
  877MOL0     H20979  10.658   8.068   9.002 -0.9935  0.1921 -1.8059
  877MOL0     H20980  10.857   8.186   9.012  1.3815 -2.1243 -0.2588
  877MOL0     H20981  10.799   8.298   9.126  0.9028  0.0013  0.2091
  877MOL0     H20982  10.944   8.141   9.240 -0.0823  0.3414 -0.2034
  877MOL0     H20983  10.786   8.136   9.305 -0.7632  1.7086 -0.6808
  877MOL0     H20984  10.870   7.732   9.303  1.4537 -1.9543 -0.6593
  877MOL0     H20985  11.148   7.547   9.389 -1.3394  0.6756  0.4047
  877MOL0     H20986  11.071   7.485   9.244  0.4874 -0.2225 -0.7741
  877MOL0     H20987  10.977   7.562   9.377 -0.8447 -0.6292 -1.8536
  877MOL0     H20988  11.650   7.709   9.024  1.6503  0.5797 -1.2761
  877MOL0     H20989  11.824   7.530   9.003  0.1184 -0.6864  1.5072
  877MOL0     H20990  11.967   7.213   9.020 -0.1189  0.9438 -0.2369
  877MOL0     H20991  11.925   7.378   9.086 -2.7809  1.2090  4.3043
  877MOL0     H20992  11.830   7.317   9.271  1.7851 -0.2643  0.7157
  877MOL0     H20993  11.788   7.153   9.202  0.0817  0.3054  1.3820
  877MOL0     H20994  12.037   7.129   9.209 -0.4873 -0.3661  0.4215
  877MOL0     H20995  11.949   7.132   9.365 -0.4647 -1.4504 -2.3056
  877MOL0     H20996  12.032   7.376   9.407  0.1227 -0.6041  1.5363
  877MOL0     H20997  12.078   7.373   9.240 -1.4623  0.4863  0.2695
  877MOL0     H20998  12.213   7.221   9.461 -0.1312 -3.7872 -1.3453
  877MOL0     H20999  12.252   7.180   9.304 -1.0300 -2.0262  1.2449
  877MOL0     H21000  12.406   7.344   9.386 -0.2455  1.9799  2.2449
  877MOL0     H21001  12.273   7.454   9.434 -5.0259 -4.5455  1.3883
  877MOL0     H21002  12.259   7.533   9.188  3.6401  1.3370 -1.8655
  877MOL0     H21003  12.284   7.373   9.139 -0.6757 -1.3547  1.7144
  877MOL0     H21004  12.491   7.505   9.067 -1.6010 -0.9009 -0.3470
  877MOL0     H21005  12.544   7.392   9.185  1.2232  0.8234  2.4223
  877MOL0     H21006  11.518   7.236   9.022 -2.1469  0.1551 -0.7700
  877MOL0     H21007  11.341   7.417   9.051 -0.5351  1.7863  0.7226
  877MOL0     H21008  11.245   7.871   9.020 -0.2661 -3.1402 -0.4139
  877MOL0     H21009  11.033   8.022   9.041  0.3984 -0.5391 -2.0591
  877MOL0     H21010  10.026   8.202   8.002 -0.0195 -2.2289  1.9418
  877MOL0     H21011   9.799   8.180   7.891 -1.2872 -0.7974 -0.1739
  877MOL0     H21012   9.552   7.877   7.656 -2.6614 -2.3324 -1.7447
  877MOL0     H21013   9.329   7.811   7.593 -0.7439  0.4445  2.6319
  877MOL0     H21014   9.166   7.783   7.422 -1.1036  0.0714 -1.1102
  877MOL0     H21015   9.046   7.829   7.550  1.5901 -0.0192  0.8671
  877MOL0     H21016   8.940   7.761   7.356 -1.3468  1.3120 -0.0135
  877MOL0     H21017   9.038   7.869   7.256  0.9140 -2.2722 -0.3434
  877MOL0     H21018   8.923   8.068   7.405 -1.8613 -1.6923  2.3992
  877MOL0     H21019   8.860   7.994   7.255 -3.8353 -0.9160  0.6867
  877MOL0     H21020   8.696   8.037   7.441 -1.1000 -0.1559 -1.1890
  877MOL0     H21021   8.774   7.904   7.530 -1.2221 -1.9058 -1.4546
  877MOL0     H21022   8.541   7.724   7.215  2.3142 -0.7804 -2.3406
  877MOL0     H21023   9.263   8.199   7.446  0.7698 -1.1452 -2.9282
  877MOL0     H21024   9.465   8.379   7.611  0.5212  1.1749  0.1547
  877MOL0     H21025   9.582   8.344   7.493  1.2224 -1.2164  2.4713
  877MOL0     H21026   9.403   8.368   7.446  0.9629  0.4535 -0.6053
  878MOL0     O21027   3.795   2.913  10.455 -0.1118  0.5054  0.3177
  878MOL0     C21028   3.760   2.809  10.397 -1.1434 -0.0746 -1.3575
  878MOL0     O21029   3.841   2.701  10.386 -0.0699  0.4793 -0.0656
  878MOL0     C21030   3.959   2.697  10.453 -1.2902 -0.0095  0.7680
  878MOL0     C21031   3.992   2.689  10.591  0.8013 -0.5879  0.2592
  878MOL0     C21032   4.121   2.687  10.626 -0.2613 -0.0115 -0.6532
  878MOL0     C21033   4.222   2.693  10.529  0.3288 -0.1969 -0.7397
  878MOL0     O21034   4.358   2.683  10.563 -0.6217 -0.0069  0.4960
  878MOL0     C21035   4.407   2.756  10.676  0.2154 -0.5891 -0.0958
  878MOL0     C21036   4.557   2.773  10.660 -0.1691 -0.0640 -0.9378
  878MOL0     C21037   4.628   2.633  10.678 -0.0222 -0.1866  1.0168
  878MOL0     C21038   4.599   2.574  10.810 -0.3026  0.3187 -0.4137
  878MOL0     C21039   4.671   2.444  10.818 -0.7581  0.5015 -0.9482
  878MOL0     C21040   4.628   2.362  10.939 -0.3311  0.2100 -0.1939
  878MOL0     C21041   4.718   2.238  10.964 -0.6038 -0.7324 -0.0493
  878MOL0     C21042   4.833   2.276  11.059  0.0799  0.7149 -0.0018
  878MOL0     N21043   4.902   2.156  11.105  0.1056  0.2117  0.1511
  878MOL0     C21044   4.948   2.048  11.033 -0.3099  0.1497 -0.8991
  878MOL0     C21045   4.980   1.951  11.122  0.2712  0.3104 -0.2529
  878MOL0     C21046   5.045   1.822  11.086  0.3121  0.8257 -0.1580
  878MOL0     C21047   5.175   1.839  11.011  0.3879 -0.1328  0.7143
  878MOL0     C21048   5.217   1.718  10.931 -0.0887  0.8506 -0.5735
  878MOL0     C21049   5.301   1.763  10.813  0.1357  0.3863 -0.3052
  878MOL0     O21050   5.426   1.813  10.867 -0.0209 -0.2565 -0.3567
  878MOL0     C21051   5.445   1.946  10.870  0.5760  0.0634  0.0630
  878MOL0     C21052   5.423   2.016  10.750  0.1716  0.0599 -0.5018
  878MOL0     C21053   5.451   2.157  10.738 -0.5141  1.6133 -0.4719
  878MOL0     C21054   5.466   2.198  10.603 -0.1203  0.1383  0.7458
  878MOL0     C21055   5.497   2.218  10.852 -0.0417 -0.3452 -0.9108
  878MOL0     C21056   5.525   2.362  10.852  0.4048 -0.6349  0.0450
  878MOL0     O21057   5.597   2.407  10.954 -0.3494  0.0570 -0.3125
  878MOL0     C21058   5.626   2.536  10.951  0.1472 -0.4902 -0.7853
  878MOL0     C21059   5.608   2.598  11.071 -0.3293  0.4872  0.1794
  878MOL0     C21060   5.632   2.734  11.079  0.0644  0.9492  0.1197
  878MOL0     C21061   5.688   2.809  10.981  0.6859 -0.8617 -0.0501
  878MOL0     O21062   5.703   2.942  11.018  0.1957 -0.0437  0.3028
  878MOL0     C21063   5.670   3.046  10.926  0.0944 -0.5876  0.0813
  878MOL0     C21064   5.634   3.170  11.016 -0.8924  0.7556  0.0593
  878MOL0     C21065   5.590   3.273  10.918 -0.0370 -0.5055 -0.2474
  878MOL0     C21066   5.566   3.405  10.995  0.0313  0.3341 -0.4077
  878MOL0     C21067   5.507   3.506  10.911  0.2000 -0.6357 -1.2542
  878MOL0     C21068   5.495   3.643  10.981  0.2362 -0.3115 -0.3263
  878MOL0     C21069   5.455   3.751  10.876 -0.2430 -0.5361 -0.0213
  878MOL0     C21070   5.434   3.870  10.962  0.2618 -0.8646  0.1267
  878MOL0    Cl21071   5.384   4.022  10.862  0.1341 -0.3907  0.1023
  878MOL0     C21072   5.729   2.746  10.861  0.2172 -0.3320  0.6543
  878MOL0     C21073   5.689   2.608  10.849  0.1201 -0.3795  0.5051
  878MOL0     O21074   5.493   2.426  10.755  0.8121 -0.0307 -0.0771
  878MOL0     C21075   5.515   2.145  10.971 -0.4254 -0.0113  0.4669
  878MOL0     C21076   5.495   2.012  10.980 -0.2472 -0.4664  0.3893
  878MOL0     N21077   4.942   1.991  11.244 -0.3689  0.3925 -0.6116
  878MOL0     N21078   4.909   2.117  11.238 -0.4236  0.3335  0.3011
  878MOL0     C21079   4.194   2.693  10.393  0.0721  0.1731  0.4559
  878MOL0     C21080   4.060   2.701  10.356 -0.0781 -0.1881 -0.9304
  878MOL0     C21081   3.629   2.802  10.316  0.4172  0.8059  0.7482
  878MOL0     C21082   3.605   2.681  10.246  0.3077 -0.1157 -0.1542
  878MOL0     C21083   3.489   2.655  10.171 -0.4498 -0.8292  0.0170
  878MOL0     C21084   3.390   2.744  10.175 -0.5628 -0.5301 -0.0037
  878MOL0     O21085   3.277   2.731  10.091  0.1583  0.1336 -0.0452
  878MOL0     C21086   3.263   2.819   9.982 -0.1582  0.1603  0.7134
  878MOL0     C21087   3.140   2.782   9.906  0.3657  0.3895  0.6954
  878MOL0     C21088   3.156   2.645   9.835  0.4987  0.2575 -1.2196
  878MOL0     C21089   3.020   2.577   9.840 -0.0349  1.0720  0.2117
  878MOL0     C21090   2.931   2.638   9.741 -0.5703  0.3656  0.0949
  878MOL0     C21091   2.859   2.692   9.671  0.2783  0.2826 -0.5394
  878MOL0     C21092   3.396   2.866  10.245 -0.4310 -0.8088 -1.5574
  878MOL0     C21093   3.518   2.895  10.317  0.2214 -0.5398 -0.4791
  878MOL0     C21094   3.527   3.021  10.404 -0.5013  0.0337 -0.6896
  878MOL0     H21095   3.910   2.677  10.662 -1.8657  0.6809 -2.3571
  878MOL0     H21096   4.149   2.660  10.728  1.0371 -3.7256 -1.8172
  878MOL0     H21097   4.389   2.708  10.772  0.8623 -1.8429 -0.5858
  878MOL0     H21098   4.369   2.859  10.675  1.7635  0.1524 -4.4472
  878MOL0     H21099   4.594   2.824  10.571  2.6246  0.0780  0.1875
  878MOL0     H21100   4.585   2.843  10.740 -1.7187 -1.0523  0.5447
  878MOL0     H21101   4.582   2.564  10.606  0.5431  0.3295  0.1495
  878MOL0     H21102   4.735   2.639  10.660  0.0195  1.3282  1.7164
  878MOL0     H21103   4.626   2.649  10.885  1.2897 -1.8611  1.3615
  878MOL0     H21104   4.494   2.544  10.821 -0.2835  0.3550 -0.1167
  878MOL0     H21105   4.779   2.458  10.824 -0.7009 -0.1971 -0.1769
  878MOL0     H21106   4.647   2.374  10.738  1.4354 -1.4649 -0.0163
  878MOL0     H21107   4.624   2.409  11.038  3.3317 -0.6017  0.5120
  878MOL0     H21108   4.526   2.324  10.923 -1.6575  2.3638  2.4061
  878MOL0     H21109   4.758   2.197  10.871  1.2791  1.2176 -0.1768
  878MOL0     H21110   4.665   2.154  11.010 -0.1634 -1.3933 -0.7324
  878MOL0     H21111   4.910   2.332  11.003  0.8328 -1.4468 -1.2524
  878MOL0     H21112   4.798   2.337  11.143 -1.4330  0.8713 -0.7209
  878MOL0     H21113   4.965   2.048  10.925 -1.0767  0.4212 -1.0272
  878MOL0     H21114   4.978   1.757  11.028  1.4333 -1.4996  1.0030
  878MOL0     H21115   5.067   1.757  11.171 -0.0384 -1.3843 -1.6555
  878MOL0     H21116   5.152   1.914  10.935  2.5059 -1.5439 -1.4507
  878MOL0     H21117   5.251   1.878  11.078 -1.0950  1.6182  1.4719
  878MOL0     H21118   5.294   1.671  10.993  1.4379  2.6977 -0.9666
  878MOL0     H21119   5.132   1.657  10.900  0.4796  0.2097 -0.8885
  878MOL0     H21120   5.321   1.679  10.746  3.7115  0.8430 -0.0236
  878MOL0     H21121   5.249   1.843  10.760  1.6645  0.2090 -2.1700
  878MOL0     H21122   5.388   1.961  10.664  1.0752 -0.8075 -0.3417
  878MOL0     H21123   5.571   2.209  10.575 -0.0456 -2.1555 -0.1497
  878MOL0     H21124   5.406   2.288  10.586 -0.1879  0.0347  0.4175
  878MOL0     H21125   5.427   2.119  10.538  0.2075  1.0218 -0.5488
  878MOL0     H21126   5.552   2.547  11.148 -1.8079 -3.1609 -2.9722
  878MOL0     H21127   5.612   2.787  11.172  1.8462  0.4189  0.8582
  878MOL0     H21128   5.767   3.055  10.877 -0.2618 -2.8365 -1.1642
  878MOL0     H21129   5.591   3.011  10.859  0.7496  1.2535 -1.7624
  878MOL0     H21130   5.554   3.138  11.084 -0.9378 -0.8387 -0.6911
  878MOL0     H21131   5.722   3.210  11.067  0.0707 -2.0085  0.7285
  878MOL0     H21132   5.499   3.235  10.870  0.0093 -1.8990  0.7351
  878MOL0     H21133   5.668   3.291  10.843  0.3753 -1.2654 -0.0028
  878MOL0     H21134   5.661   3.433  11.043 -0.3222 -1.1185  1.2576
  878MOL0     H21135   5.505   3.363  11.075  0.3484 -0.8379 -0.7580
  878MOL0     H21136   5.579   3.524  10.830  1.2071  0.6889 -0.1091
  878MOL0     H21137   5.408   3.487  10.868 -0.7240  0.4124  0.3380
  878MOL0     H21138   5.594   3.658  11.025 -0.4721  0.3242  1.1124
  878MOL0     H21139   5.414   3.629  11.054 -1.1530 -0.2299 -1.8117
  878MOL0     H21140   5.367   3.723  10.818 -1.2051 -0.1883  1.2325
  878MOL0     H21141   5.541   3.778  10.814 -0.7290  1.7160  0.2045
  878MOL0     H21142   5.525   3.892  11.018 -0.9923  1.4016  1.4273
  878MOL0     H21143   5.349   3.840  11.024 -0.5517 -1.1627 -1.1054
  878MOL0     H21144   5.786   2.803  10.788  2.0194 -0.4733  1.8957
  878MOL0     H21145   5.696   2.558  10.753 -1.2597 -0.4840  0.4507
  878MOL0     H21146   5.563   2.189  11.059  1.0455  0.3605 -0.4887
  878MOL0     H21147   5.524   1.961  11.071 -0.1873  0.6378  1.0127
  878MOL0     H21148   4.279   2.707  10.327 -0.9542 -0.5643 -1.0822
  878MOL0     H21149   4.028   2.712  10.252 -2.6230 -0.7657 -0.2768
  878MOL0     H21150   3.687   2.610  10.245  1.4907  1.1763 -1.7684
  878MOL0     H21151   3.471   2.560  10.121  2.5503 -0.8124 -1.2892
  878MOL0     H21152   3.268   2.926  10.007  1.0020  1.0649 -2.7936
  878MOL0     H21153   3.355   2.803   9.924  0.2056 -0.8467  1.5383
  878MOL0     H21154   3.108   2.853   9.829  0.2095 -0.3308  0.0876
  878MOL0     H21155   3.059   2.784   9.980 -2.1633 -2.4401 -1.7067
  878MOL0     H21156   3.193   2.659   9.733  0.3050 -0.4437 -1.3916
  878MOL0     H21157   3.232   2.587   9.889  1.5556  2.1407 -0.5750
  878MOL0     H21158   2.976   2.585   9.940  0.9112  0.8334  0.6537
  878MOL0     H21159   3.030   2.470   9.816 -2.0807  0.7403  0.6377
  878MOL0     H21160   2.787   2.749   9.616 -2.2940 -1.4465  0.8777
  878MOL0     H21161   3.320   2.943  10.249  1.3282  1.2492  4.8696
  878MOL0     H21162   3.452   3.097  10.377 -3.5354 -1.2319  3.2913
  878MOL0     H21163   3.511   2.998  10.509  0.7931 -1.7659 -0.8364
  878MOL0     H21164   3.622   3.076  10.400 -1.4812  1.9301  0.6298
  879MOL0     O21165   2.004   8.703   0.286  0.1412 -0.5118 -0.0970
  879MOL0     C21166   1.940   8.774   0.216  0.8447 -0.4034  0.1773
  879MOL0     O21167   1.975   8.895   0.164 -0.2008  0.0003  0.4356
  879MOL0     C21168   2.098   8.956   0.202  0.5722  0.0253  0.3473
  879MOL0     C21169   2.210   8.945   0.124  0.3205 -0.3681  0.3462
  879MOL0     C21170   2.336   9.004   0.159  0.3324  0.7504 -0.0220
  879MOL0     C21171   2.346   9.057   0.290  0.4019  0.6151  0.5161
  879MOL0     O21172   2.467   9.102   0.332 -0.2968  0.2400  0.0052
  879MOL0     C21173   2.582   9.027   0.285 -0.4949 -1.0297  0.0033
  879MOL0     C21174   2.666   9.109   0.189  0.3065 -0.1197  0.6231
  879MOL0     C21175   2.803   9.053   0.172 -0.1883  0.0875 -0.0608
  879MOL0     C21176   2.892   9.131   0.061 -0.4189  0.0492  0.0721
  879MOL0     C21177   3.040   9.091   0.076  0.0359  0.0692 -0.2131
  879MOL0     C21178   3.114   9.163   0.191 -0.3576 -0.4460  0.0726
  879MOL0     C21179   3.266   9.125   0.202  0.2073  0.2841  0.5324
  879MOL0     C21180   3.336   9.207   0.310  0.6790 -0.8696  0.4962
  879MOL0     N21181   3.475   9.173   0.347  0.7140 -0.4361 -0.0662
  879MOL0     C21182   3.594   9.227   0.299  0.4263  0.6453  0.2510
  879MOL0     C21183   3.679   9.209   0.396 -0.5045  0.3087 -0.2303
  879MOL0     C21184   3.824   9.246   0.393 -0.2551 -0.6682  0.1496
  879MOL0     C21185   3.899   9.156   0.286 -0.3703 -1.0463  0.0084
  879MOL0     C21186   4.033   9.204   0.236  0.5232 -0.2051 -0.4499
  879MOL0     C21187   4.138   9.199   0.346 -0.5453  0.4910  0.1358
  879MOL0     O21188   4.195   9.067   0.360  0.4812  0.1338 -0.9377
  879MOL0     C21189   4.315   9.058   0.424  0.7726 -0.1679 -0.2776
  879MOL0     C21190   4.360   9.153   0.517  0.1049  0.6516  0.0905
  879MOL0     C21191   4.487   9.147   0.578  0.2791 -0.1092 -0.3125
  879MOL0     C21192   4.517   9.238   0.692  1.1373 -0.1412  0.2844
  879MOL0     C21193   4.568   9.040   0.544 -0.6155 -0.5752  0.0439
  879MOL0     C21194   4.711   9.024   0.600  0.2854 -0.4157  0.0198
  879MOL0     O21195   4.784   8.925   0.552 -0.1030  0.5419  0.5788
  879MOL0     C21196   4.923   8.924   0.563 -0.2193  0.5781  0.2175
  879MOL0     C21197   4.988   8.835   0.643  0.2076  0.2742 -0.1113
  879MOL0     C21198   5.126   8.815   0.634 -0.5190 -0.7835 -0.2719
  879MOL0     C21199   5.204   8.891   0.543  0.1637 -0.3778  0.6786
  879MOL0     O21200   5.339   8.888   0.525 -0.2881 -0.6988  0.1683
  879MOL0     C21201   5.419   8.797   0.599  0.5061  0.4065  0.6601
  879MOL0     C21202   5.563   8.838   0.587  0.1978  0.3084  0.4983
  879MOL0     C21203   5.657   8.745   0.663 -0.3554 -0.1984 -0.0462
  879MOL0     C21204   5.640   8.743   0.814  0.7913  0.0849  0.0250
  879MOL0     C21205   5.746   8.651   0.878  0.0046  0.3311  0.6515
  879MOL0     C21206   5.743   8.649   1.030  0.3049  0.5374 -0.6046
  879MOL0     C21207   5.604   8.632   1.086  0.5238 -0.3434 -0.3948
  879MOL0     C21208   5.598   8.578   1.229  0.3449  0.6673 -0.6441
  879MOL0    Cl21209   5.689   8.698   1.341  0.1265 -0.3502  0.0028
  879MOL0     C21210   5.131   8.995   0.469 -0.7583 -0.4021  0.5425
  879MOL0     C21211   4.992   9.000   0.474 -0.6607  0.0059  0.3180
  879MOL0     O21212   4.746   9.086   0.701  0.5217 -0.0455 -0.4864
  879MOL0     C21213   4.523   8.947   0.444 -0.1787  0.4090 -0.1807
  879MOL0     C21214   4.395   8.955   0.387  0.0727  0.0889 -1.2431
  879MOL0     N21215   3.626   9.129   0.500  0.3271 -0.4427 -0.7308
  879MOL0     N21216   3.501   9.121   0.465 -0.2690  0.1781  0.0465
  879MOL0     C21217   2.234   9.067   0.372  0.0744  0.6915  0.5852
  879MOL0     C21218   2.112   9.027   0.324 -0.3257  0.3680 -0.0083
  879MOL0     C21219   1.804   8.727   0.196  0.1484  0.0165 -0.1949
  879MOL0     C21220   1.772   8.590   0.204  0.2055  0.1744  0.0148
  879MOL0     C21221   1.638   8.543   0.199  0.1932 -0.4949 -0.3377
  879MOL0     C21222   1.539   8.633   0.173 -0.3840  0.2365  0.2925
  879MOL0     O21223   1.400   8.598   0.156 -0.0907 -0.4469  0.3440
  879MOL0     C21224   1.381   8.465   0.108 -0.2019  0.6746  0.0245
  879MOL0     C21225   1.250   8.456   0.028  0.1538  0.5524  0.6864
  879MOL0     C21226   1.132   8.444   0.122 -0.9945  0.5458  0.0874
  879MOL0     C21227   1.000   8.464   0.045 -0.8694  0.2086  0.4287
  879MOL0     C21228   0.888   8.396   0.110  0.6211 -0.1479 -0.0402
  879MOL0     C21229   0.814   8.315   0.165  0.5224 -0.0248 -0.5132
  879MOL0     C21230   1.562   8.767   0.185  0.6234  0.1781 -0.0598
  879MOL0     C21231   1.688   8.820   0.206 -0.3477  0.3432  0.0977
  879MOL0     C21232   1.696   8.965   0.221  0.0801 -0.0971 -0.4632
  879MOL0     H21233   2.203   8.872   0.044 -1.4137 -0.1080  0.2219
  879MOL0     H21234   2.419   8.978   0.094 -0.2727 -0.2721 -0.4200
  879MOL0     H21235   2.557   8.930   0.241  1.2473 -1.2862 -0.4827
  879MOL0     H21236   2.641   9.010   0.376 -1.4058 -1.4322  0.5414
  879MOL0     H21237   2.617   9.102   0.092 -0.6820 -1.1207  1.1639
  879MOL0     H21238   2.683   9.216   0.205  0.1439  0.1046 -0.6245
  879MOL0     H21239   2.854   9.052   0.269 -0.8657 -2.0088  0.3308
  879MOL0     H21240   2.794   8.948   0.144 -0.7953  0.7152 -2.4900
  879MOL0     H21241   2.851   9.090  -0.032  0.5084 -3.0360  0.9118
  879MOL0     H21242   2.877   9.239   0.065 -0.0201  0.2894 -2.7388
  879MOL0     H21243   3.093   9.119  -0.016 -0.7483  0.8710 -0.4316
  879MOL0     H21244   3.037   8.982   0.086  1.5624 -0.0644 -0.9233
  879MOL0     H21245   3.103   9.272   0.188 -1.6326 -0.5555  0.1532
  879MOL0     H21246   3.059   9.133   0.280 -2.1032 -0.0881 -0.8459
  879MOL0     H21247   3.325   9.134   0.111  2.7056  0.4034  2.0872
  879MOL0     H21248   3.263   9.019   0.229  1.2852 -0.1859 -1.0672
  879MOL0     H21249   3.342   9.310   0.274  1.4937 -0.4199  1.8616
  879MOL0     H21250   3.285   9.213   0.407 -0.5077  0.8737 -0.1849
  879MOL0     H21251   3.615   9.279   0.206  1.7603 -2.5366 -1.3450
  879MOL0     H21252   3.863   9.237   0.494  2.6796  1.2646 -0.6880
  879MOL0     H21253   3.842   9.347   0.355 -2.7301 -0.5625 -0.9486
  879MOL0     H21254   3.919   9.056   0.325  3.9996 -1.2464 -2.1292
  879MOL0     H21255   3.828   9.150   0.203  0.4562  1.8523 -1.0165
  879MOL0     H21256   4.058   9.142   0.149  3.2125  1.3373 -0.9145
  879MOL0     H21257   4.013   9.310   0.214 -1.5315 -0.8043 -1.7731
  879MOL0     H21258   4.218   9.262   0.306 -0.6488  0.4389 -0.1585
  879MOL0     H21259   4.098   9.241   0.439 -2.0994  0.3521 -0.4433
  879MOL0     H21260   4.289   9.230   0.544  1.3239  2.1910 -0.8754
  879MOL0     H21261   4.437   9.312   0.702 -0.2599 -1.6552  0.7092
  879MOL0     H21262   4.615   9.286   0.690  0.5415  1.5030  3.3874
  879MOL0     H21263   4.511   9.174   0.781  0.4894 -0.8018 -0.2213
  879MOL0     H21264   4.920   8.778   0.705 -0.6060  0.2737 -0.9783
  879MOL0     H21265   5.174   8.760   0.714  0.7894 -0.0916 -0.5470
  879MOL0     H21266   5.382   8.802   0.702 -1.3114 -0.8335  0.0961
  879MOL0     H21267   5.410   8.693   0.569 -1.5590 -0.7532  4.5692
  879MOL0     H21268   5.592   8.839   0.482  0.3875  0.2951  0.5487
  879MOL0     H21269   5.588   8.939   0.622  0.0000 -0.2453  2.3648
  879MOL0     H21270   5.755   8.791   0.647 -1.6239  2.3734 -0.8879
  879MOL0     H21271   5.676   8.644   0.625  3.9326  0.2425  0.4884
  879MOL0     H21272   5.534   8.722   0.832  0.5291  0.2563 -1.1925
  879MOL0     H21273   5.655   8.851   0.827  0.5600  0.4474 -2.2474
  879MOL0     H21274   5.725   8.553   0.834 -0.0645  0.6341 -0.0040
  879MOL0     H21275   5.841   8.694   0.845 -0.1827  0.0042 -0.3357
  879MOL0     H21276   5.798   8.731   1.078  0.7613 -1.2122  2.0364
  879MOL0     H21277   5.797   8.557   1.053 -1.2253 -1.0028 -2.8365
  879MOL0     H21278   5.542   8.572   1.019  1.2302 -0.5963 -0.8249
  879MOL0     H21279   5.548   8.726   1.085  1.0861 -0.0102 -0.5319
  879MOL0     H21280   5.643   8.478   1.234  2.9940  1.8396  0.0287
  879MOL0     H21281   5.493   8.567   1.257  1.0643 -0.2152  1.9483
  879MOL0     H21282   5.189   9.046   0.392 -1.6161 -0.1576  0.0479
  879MOL0     H21283   4.945   9.058   0.395  2.2121  4.0791  1.2467
  879MOL0     H21284   4.587   8.872   0.399 -1.4207  0.1918 -1.7072
  879MOL0     H21285   4.366   8.876   0.320  1.4884 -1.4230 -0.1673
  879MOL0     H21286   2.241   9.112   0.471 -2.3009  0.0940  1.0684
  879MOL0     H21287   2.029   9.048   0.391  1.8002  1.7576  2.3932
  879MOL0     H21288   1.852   8.519   0.221  1.5013  1.4939 -0.3491
  879MOL0     H21289   1.610   8.438   0.196  1.2539 -0.7840 -1.4443
  879MOL0     H21290   1.461   8.427   0.045  0.1010 -1.6811  1.7198
  879MOL0     H21291   1.381   8.397   0.194  2.4335  1.0119  0.3669
  879MOL0     H21292   1.252   8.366  -0.034  0.6860  1.6350 -0.9288
  879MOL0     H21293   1.235   8.547  -0.030 -1.9645  1.0050  1.8378
  879MOL0     H21294   1.136   8.342   0.161 -0.4553 -0.1374 -1.6616
  879MOL0     H21295   1.144   8.520   0.200  0.6282  0.4730 -0.0577
  879MOL0     H21296   0.999   8.452  -0.064 -1.9124  0.9735  0.3326
  879MOL0     H21297   0.969   8.568   0.060  1.8582  1.0032  1.0190
  879MOL0     H21298   0.752   8.235   0.199  1.0472 -0.8858 -1.5294
  879MOL0     H21299   1.475   8.832   0.177  1.8272  2.0712  1.4075
  879MOL0     H21300   1.733   9.005   0.126  0.9178 -0.1295 -0.1569
  879MOL0     H21301   1.603   9.009   0.259  0.4270 -0.3515  0.7184
  879MOL0     H21302   1.768   8.990   0.300  0.7965  0.3990 -1.2442
  880MOL0     O21303   0.048  10.952   6.585 -0.1360  0.0401 -0.7221
  880MOL0     C21304  -0.034  10.872   6.532 -0.5482  0.5872  0.2356
  880MOL0     O21305  -0.008  10.806   6.411 -0.1905  0.6506 -0.9275
  880MOL0     C21306   0.102  10.811   6.327 -1.5584  0.0243  0.2934
  880MOL0     C21307   0.095  10.754   6.201 -0.4430 -0.3239  0.3340
  880MOL0     C21308   0.206  10.731   6.122 -0.2331  0.4599  0.1999
  880MOL0     C21309   0.332  10.788   6.156  0.7750 -0.4216  0.1973
  880MOL0     O21310   0.449  10.794   6.076  0.9357  0.1583 -0.5350
  880MOL0     C21311   0.449  10.727   5.958 -0.0168  0.3782 -0.0756
  880MOL0     C21312   0.578  10.775   5.892  0.8620 -0.1379  0.0428
  880MOL0     C21313   0.708  10.733   5.957 -0.9623  0.4226 -1.2758
  880MOL0     C21314   0.741  10.585   5.989  0.3587  0.0915  0.0161
  880MOL0     C21315   0.874  10.578   6.059  0.0243 -0.3096 -0.0472
  880MOL0     C21316   0.901  10.438   6.095  1.0272  0.3578 -0.8179
  880MOL0     C21317   1.047  10.399   6.121  0.1554  0.1383  0.1865
  880MOL0     C21318   1.051  10.239   6.152 -0.3876 -0.2205  0.3025
  880MOL0     N21319   1.152  10.210   6.256 -0.1705 -0.0340 -0.1861
  880MOL0     C21320   1.282  10.171   6.244  0.3700  0.3156  0.2732
  880MOL0     C21321   1.323  10.132   6.369 -0.1917 -0.4039 -1.2331
  880MOL0     C21322   1.466  10.098   6.416  0.3090 -0.3946  0.2598
  880MOL0     C21323   1.493   9.948   6.430  0.2928  0.4296 -0.0774
  880MOL0     C21324   1.633   9.931   6.494  0.2022  0.0213 -0.2651
  880MOL0     C21325   1.653   9.789   6.549  0.7696 -0.1321 -0.2985
  880MOL0     O21326   1.621   9.692   6.446 -0.2354 -0.3979  0.4629
  880MOL0     C21327   1.712   9.686   6.343 -0.6702  1.1981 -0.8844
  880MOL0     C21328   1.848   9.660   6.361 -0.5881  0.3619 -0.6159
  880MOL0     C21329   1.942   9.650   6.265  0.3040  0.2497  0.9355
  880MOL0     C21330   2.086   9.612   6.298  0.9911 -0.3374  0.6171
  880MOL0     C21331   1.898   9.668   6.134  0.2956  1.0209  0.2963
  880MOL0     C21332   2.001   9.691   6.021  0.0141  0.5859  0.5073
  880MOL0     O21333   1.936   9.688   5.904  0.5720  0.1828  0.2130
  880MOL0     C21334   1.999   9.719   5.781  0.4790 -0.4902 -0.9373
  880MOL0     C21335   2.035   9.614   5.703  0.1993 -0.8531  0.8874
  880MOL0     C21336   2.084   9.632   5.573  0.4876 -0.3702  0.2549
  880MOL0     C21337   2.106   9.765   5.524  0.1675 -0.6507  0.3865
  880MOL0     O21338   2.149   9.773   5.397  0.6915 -0.6256  0.4832
  880MOL0     C21339   2.195   9.901   5.348  0.3842 -0.2629 -0.6488
  880MOL0     C21340   2.065   9.960   5.278  0.1988  0.5651 -0.8138
  880MOL0     C21341   2.030   9.876   5.151  0.2897  0.0080 -0.3374
  880MOL0     C21342   1.956   9.957   5.036  0.9040 -1.2383 -0.7327
  880MOL0     C21343   1.944   9.854   4.931 -0.0891  1.2153  0.6595
  880MOL0     C21344   1.855   9.904   4.814 -0.6702  0.2081  0.4614
  880MOL0     C21345   1.844   9.788   4.727 -0.2008 -0.2112  0.2110
  880MOL0     C21346   1.752   9.825   4.620 -0.0598 -0.2075  0.1922
  880MOL0    Cl21347   1.820   9.967   4.523  0.3445  0.4552 -0.2322
  880MOL0     C21348   2.066   9.869   5.602 -0.2595  0.1988  0.8177
  880MOL0     C21349   2.021   9.853   5.733 -0.7931 -0.2044 -0.3959
  880MOL0     O21350   2.114   9.725   6.030 -0.2036 -0.4558 -0.7190
  880MOL0     C21351   1.769   9.681   6.108  0.4712 -0.6106  0.1810
  880MOL0     C21352   1.679   9.686   6.213 -0.9698  0.2403 -0.6126
  880MOL0     N21353   1.212  10.147   6.450  0.4094  0.3154 -0.1891
  880MOL0     N21354   1.115  10.196   6.391 -0.2238 -0.2962 -0.0074
  880MOL0     C21355   0.336  10.857   6.278  0.1860 -1.2003 -0.1664
  880MOL0     C21356   0.226  10.863   6.360 -0.6112  0.5397  0.6801
  880MOL0     C21357  -0.159  10.851   6.602  0.3261  0.1305 -0.6828
  880MOL0     C21358  -0.195  10.953   6.700  0.3037  0.3030  0.6485
  880MOL0     C21359  -0.322  10.940   6.763  0.5977  0.2042  0.2838
  880MOL0     C21360  -0.403  10.828   6.741  0.8957  0.4254 -0.8784
  880MOL0     O21361  -0.514  10.823   6.816  0.2077  0.0455  0.1643
  880MOL0     C21362  -0.583  10.701   6.844 -0.3557 -0.0853 -0.6450
  880MOL0     C21363  -0.696  10.692   6.738 -0.4440  1.2520 -0.4978
  880MOL0     C21364  -0.809  10.601   6.759 -0.3069  0.0282  0.3826
  880MOL0     C21365  -0.763  10.452   6.766 -0.2287 -0.2078 -1.0437
  880MOL0     C21366  -0.649  10.407   6.683  0.0202  0.2495 -0.6349
  880MOL0     C21367  -0.552  10.366   6.624 -0.2881  0.7500  0.2006
  880MOL0     C21368  -0.365  10.737   6.647 -0.3091  0.5714 -0.8390
  880MOL0     C21369  -0.251  10.747   6.571 -0.1438 -0.1807  0.3079
  880MOL0     C21370  -0.235  10.641   6.456  0.3935 -0.1206 -0.9208
  880MOL0     H21371   0.003  10.730   6.148 -0.6605 -0.1998  0.6561
  880MOL0     H21372   0.188  10.678   6.029 -0.4026 -0.5259  0.7881
  880MOL0     H21373   0.364  10.758   5.897  1.1189  0.4100 -1.7134
  880MOL0     H21374   0.449  10.618   5.970  2.0088  0.4289  0.8829
  880MOL0     H21375   0.578  10.738   5.789 -0.6057 -0.1031  0.0109
  880MOL0     H21376   0.582  10.884   5.893  5.1860 -0.1309  0.0429
  880MOL0     H21377   0.797  10.772   5.906  0.5192 -0.7166  0.3465
  880MOL0     H21378   0.706  10.782   6.055  0.7450  0.6601 -1.3362
  880MOL0     H21379   0.654  10.536   6.034  0.8550 -2.1117 -1.3019
  880MOL0     H21380   0.750  10.532   5.894  3.1579 -3.2452  1.9496
  880MOL0     H21381   0.876  10.640   6.149 -0.6849  2.3120 -1.7330
  880MOL0     H21382   0.958  10.606   5.995  0.3607  0.6722  0.7897
  880MOL0     H21383   0.828  10.415   6.173  0.6243  0.3280 -1.1984
  880MOL0     H21384   0.885  10.378   6.004  1.6945  0.2715 -0.8826
  880MOL0     H21385   1.090  10.459   6.203  0.6935 -0.8440  0.6437
  880MOL0     H21386   1.107  10.425   6.034 -2.2970  0.6774 -1.4269
  880MOL0     H21387   0.956  10.220   6.204  0.7027 -1.7580  1.8717
  880MOL0     H21388   1.053  10.178   6.061  0.6313 -1.4777  1.1301
  880MOL0     H21389   1.334  10.161   6.150 -2.0093 -4.8554 -0.8465
  880MOL0     H21390   1.490  10.155   6.506  2.6417 -0.0512 -0.5216
  880MOL0     H21391   1.529  10.125   6.331 -1.0306 -0.9453 -0.9511
  880MOL0     H21392   1.417   9.913   6.500  1.4707 -1.5324  0.3229
  880MOL0     H21393   1.484   9.889   6.338 -1.1476 -1.7426  1.3564
  880MOL0     H21394   1.716   9.955   6.427  0.5237 -3.0490 -1.1292
  880MOL0     H21395   1.648   9.993   6.583  2.1882 -0.7613 -0.0023
  880MOL0     H21396   1.753   9.779   6.592 -0.1657 -1.7893  1.6827
  880MOL0     H21397   1.589   9.769   6.636  2.2227  1.1138  1.1310
  880MOL0     H21398   1.880   9.659   6.465 -0.3829 -2.8181 -0.6013
  880MOL0     H21399   2.155   9.695   6.277 -1.1460  1.6213  0.8909
  880MOL0     H21400   2.121   9.520   6.251 -1.7240 -0.8726 -0.5675
  880MOL0     H21401   2.094   9.608   6.407  0.9935  0.1713  0.6388
  880MOL0     H21402   2.000   9.518   5.740 -1.8780 -1.4688 -2.2523
  880MOL0     H21403   2.112   9.545   5.514  1.4771 -0.4943  0.8735
  880MOL0     H21404   2.234   9.963   5.429 -0.9029 -1.7741  1.2322
  880MOL0     H21405   2.268   9.894   5.267  1.3598  4.4856 -0.4706
  880MOL0     H21406   1.985   9.970   5.351  1.8548 -0.3514  1.2306
  880MOL0     H21407   2.084  10.063   5.246 -0.1688  1.5725  1.9844
  880MOL0     H21408   1.978   9.783   5.178 -0.0153 -0.0863 -1.2260
  880MOL0     H21409   2.126   9.850   5.108 -1.0303 -0.2127 -3.3614
  880MOL0     H21410   2.010  10.044   4.998 -1.3004  2.0673  2.9452
  880MOL0     H21411   1.858   9.992   5.069  1.0957  0.1272 -1.5704
  880MOL0     H21412   2.043   9.813   4.905 -0.7188 -0.3863  0.6846
  880MOL0     H21413   1.895   9.766   4.973  1.1122  1.9551  3.9332
  880MOL0     H21414   1.911   9.982   4.762  0.1688 -1.1843 -0.7882
  880MOL0     H21415   1.756   9.940   4.845 -1.4607 -1.7018  0.2869
  880MOL0     H21416   1.818   9.695   4.778  0.8801  1.0258  3.2247
  880MOL0     H21417   1.938   9.769   4.676 -0.2590 -1.6367  0.6099
  880MOL0     H21418   1.656   9.856   4.662 -0.3635  1.9731 -1.8744
  880MOL0     H21419   1.741   9.734   4.560 -0.7594 -0.1309  0.2040
  880MOL0     H21420   2.075   9.972   5.569  0.6454 -0.8111 -2.4792
  880MOL0     H21421   2.014   9.939   5.799 -3.5164  0.0740 -0.8977
  880MOL0     H21422   1.721   9.695   6.012 -0.2471  0.9867  0.7376
  880MOL0     H21423   1.572   9.697   6.196 -1.6042  0.3907  2.7284
  880MOL0     H21424   0.425  10.917   6.296 -1.4187  1.4895 -0.5886
  880MOL0     H21425   0.242  10.898   6.461 -1.7745  0.5730  0.8595
  880MOL0     H21426  -0.126  11.032   6.730 -0.6663  1.1066  0.8020
  880MOL0     H21427  -0.358  11.011   6.836 -0.8851 -0.3137  0.1093
  880MOL0     H21428  -0.514  10.616   6.848  3.0252  2.5061  0.4492
  880MOL0     H21429  -0.624  10.716   6.944  1.3391  0.8222 -0.0510
  880MOL0     H21430  -0.645  10.660   6.646  2.4355  0.5428  1.2244
  880MOL0     H21431  -0.743  10.789   6.726 -0.5444  1.4327  1.2307
  880MOL0     H21432  -0.863  10.626   6.851 -2.8988  1.9784 -1.4984
  880MOL0     H21433  -0.885  10.625   6.684 -1.7459 -0.6352  1.5791
  880MOL0     H21434  -0.853  10.398   6.735 -0.2107  0.1335 -1.7232
  880MOL0     H21435  -0.749  10.418   6.868  2.3794 -0.6176 -1.4685
  880MOL0     H21436  -0.460  10.338   6.578 -0.9007  0.9102 -1.1697
  880MOL0     H21437  -0.427  10.648   6.638  0.4070 -0.4801  2.6654
  880MOL0     H21438  -0.239  10.699   6.363 -1.3700 -0.4534 -1.0958
  880MOL0     H21439  -0.142  10.585   6.470 -0.6383 -1.4587  1.0293
  880MOL0     H21440  -0.317  10.568   6.463  2.8184 -3.3040 -2.8894
  881MOL0     O21441   3.184   2.997   4.318  0.0790 -0.2117  0.1047
  881MOL0     C21442   3.098   3.066   4.367 -0.1168  0.1014 -0.2823
  881MOL0     O21443   3.135   3.175   4.436  0.3554  0.4351  0.1351
  881MOL0     C21444   3.273   3.204   4.437 -0.5955  0.2811  0.3128
  881MOL0     C21445   3.340   3.256   4.322  1.5315 -0.3498  0.1307
  881MOL0     C21446   3.476   3.287   4.328  0.2290 -0.0791 -0.0764
  881MOL0     C21447   3.548   3.253   4.445 -0.4799  0.4674 -0.3593
  881MOL0     O21448   3.684   3.255   4.445  0.7521  0.0899  0.0829
  881MOL0     C21449   3.760   3.212   4.330  0.6793 -0.2192 -0.2789
  881MOL0     C21450   3.738   3.066   4.285 -0.3087  0.2974  0.1770
  881MOL0     C21451   3.854   3.012   4.231  0.0481  0.8393  0.1193
  881MOL0     C21452   3.845   2.857   4.227  0.4281  0.5910 -0.1393
  881MOL0     C21453   3.971   2.807   4.158 -0.3873 -0.1320  0.0441
  881MOL0     C21454   4.005   2.658   4.163  0.7973  0.3771  0.5864
  881MOL0     C21455   4.008   2.601   4.305  0.2637  0.2602 -0.4553
  881MOL0     C21456   4.070   2.460   4.304 -0.1546  0.0807 -0.5104
  881MOL0     N21457   3.986   2.356   4.242  0.2527  0.5973 -0.5821
  881MOL0     C21458   3.866   2.305   4.291 -0.1893 -1.1393  0.3098
  881MOL0     C21459   3.834   2.195   4.213  0.0120 -0.2663  0.3353
  881MOL0     C21460   3.716   2.112   4.224  0.4393  0.2475  0.3635
  881MOL0     C21461   3.609   2.138   4.114 -0.0178 -0.5056 -0.1686
  881MOL0     C21462   3.548   2.283   4.125  0.0561  0.4531  0.2153
  881MOL0     C21463   3.424   2.289   4.028  0.2411 -0.6455 -0.2318
  881MOL0     O21464   3.305   2.225   4.088 -0.1195 -0.0682  0.3266
  881MOL0     C21465   3.189   2.193   4.011  0.4865  0.0206 -0.7670
  881MOL0     C21466   3.176   2.214   3.872  0.4563  0.2708  0.1450
  881MOL0     C21467   3.074   2.153   3.792 -0.2715 -0.0627 -0.0261
  881MOL0     C21468   3.072   2.176   3.646 -0.1537 -0.4241  0.0647
  881MOL0     C21469   2.972   2.097   3.866  0.1297  0.0137 -0.6997
  881MOL0     C21470   2.844   2.035   3.809 -0.1011  0.0362  0.0853
  881MOL0     O21471   2.734   2.035   3.888  0.1769 -0.2085  0.8289
  881MOL0     C21472   2.631   1.956   3.854 -0.3844  0.3409 -0.4746
  881MOL0     C21473   2.549   1.982   3.742 -0.1566  0.1434 -0.3049
  881MOL0     C21474   2.441   1.897   3.709 -0.1671  0.4877 -0.7041
  881MOL0     C21475   2.413   1.774   3.779 -0.3013  0.7769 -0.6410
  881MOL0     O21476   2.310   1.682   3.758 -0.0140  0.4699  0.4541
  881MOL0     C21477   2.210   1.720   3.670 -0.0117  0.5309 -0.4523
  881MOL0     C21478   2.115   1.603   3.642 -0.3302  0.3166 -0.7945
  881MOL0     C21479   2.008   1.641   3.549 -0.4491 -0.3542 -0.6443
  881MOL0     C21480   1.913   1.524   3.542  0.3248  0.1605  0.0622
  881MOL0     C21481   1.921   1.454   3.409 -1.0596 -0.1574  0.4569
  881MOL0     C21482   1.887   1.541   3.289 -0.2493  0.6190 -0.6383
  881MOL0     C21483   1.730   1.550   3.297  0.0395  0.4830  0.0686
  881MOL0     C21484   1.668   1.630   3.181 -0.3454  0.8539  0.4343
  881MOL0    Cl21485   1.693   1.539   3.026  0.2610 -0.2539  0.1219
  881MOL0     C21486   2.490   1.760   3.894 -0.3932  0.4023 -0.4501
  881MOL0     C21487   2.592   1.853   3.934 -1.3717  0.6681  0.1585
  881MOL0     O21488   2.852   1.978   3.701 -0.3914 -0.0293  0.1547
  881MOL0     C21489   2.973   2.084   4.007 -0.0267 -0.0868  1.0646
  881MOL0     C21490   3.092   2.115   4.070 -0.0165 -0.2481 -0.0500
  881MOL0     N21491   3.937   2.176   4.123 -0.0721  0.3401  0.5309
  881MOL0     N21492   4.027   2.272   4.144 -0.1071 -0.3034  0.3641
  881MOL0     C21493   3.480   3.203   4.556 -0.2096 -0.5290  0.3450
  881MOL0     C21494   3.343   3.173   4.551  0.7680 -0.6776  0.2822
  881MOL0     C21495   2.960   3.023   4.351  0.7258 -0.8140  0.5011
  881MOL0     C21496   2.877   2.998   4.464 -0.5320 -0.2646  0.5139
  881MOL0     C21497   2.754   2.945   4.447  1.4218  0.5154 -0.2299
  881MOL0     C21498   2.698   2.910   4.324 -0.4610  0.3644  0.1204
  881MOL0     O21499   2.566   2.871   4.322  0.4202  0.6183  0.4901
  881MOL0     C21500   2.544   2.748   4.256  0.0133  0.6663  0.4472
  881MOL0     C21501   2.430   2.663   4.320  0.4977  0.3408  0.6476
  881MOL0     C21502   2.294   2.707   4.266  0.1722 -0.2434  0.2486
  881MOL0     C21503   2.263   2.851   4.305  0.0708  0.0509 -0.7899
  881MOL0     C21504   2.248   2.858   4.454 -0.3034  0.7443  0.1957
  881MOL0     C21505   2.243   2.864   4.571 -0.5788  0.4726 -0.2991
  881MOL0     C21506   2.783   2.938   4.216 -0.1204  0.1065 -0.4590
  881MOL0     C21507   2.908   2.998   4.226  0.1606  0.3669  0.7089
  881MOL0     C21508   2.991   3.026   4.094  0.2306 -0.8222  0.0061
  881MOL0     H21509   3.267   3.285   4.246  2.7796  1.4720 -0.4330
  881MOL0     H21510   3.516   3.325   4.235  0.4980  0.7221  0.3576
  881MOL0     H21511   3.862   3.235   4.363 -0.5094  0.1655  3.6758
  881MOL0     H21512   3.750   3.281   4.245  0.9426  0.5119  0.2665
  881MOL0     H21513   3.702   3.011   4.373 -1.6046  0.3690 -0.2802
  881MOL0     H21514   3.666   3.065   4.202  1.4818 -1.2921 -1.4536
  881MOL0     H21515   3.866   3.055   4.131 -0.4032  1.3198  0.2655
  881MOL0     H21516   3.944   3.028   4.291 -0.8894 -0.0827  1.8377
  881MOL0     H21517   3.825   2.805   4.321  0.6723 -0.8742 -0.8663
  881MOL0     H21518   3.763   2.825   4.163  0.5723  2.6208 -1.4270
  881MOL0     H21519   4.051   2.857   4.213 -2.5932  0.1886  3.2456
  881MOL0     H21520   3.969   2.847   4.056  3.0213  1.3909  0.4459
  881MOL0     H21521   3.935   2.612   4.093  0.7428  2.2366 -0.6600
  881MOL0     H21522   4.098   2.644   4.107  0.5413  1.1601 -0.0570
  881MOL0     H21523   3.903   2.595   4.335  0.1075  0.5008 -0.9519
  881MOL0     H21524   4.075   2.669   4.358  0.5241 -1.1976  1.1924
  881MOL0     H21525   4.168   2.447   4.257  0.9518 -3.0274  2.2582
  881MOL0     H21526   4.086   2.439   4.410 -1.0952  0.0790 -0.3533
  881MOL0     H21527   3.806   2.353   4.367  1.6346 -0.3998  1.3263
  881MOL0     H21528   3.682   2.143   4.323  1.7532 -1.7537  1.5184
  881MOL0     H21529   3.745   2.007   4.234  1.9267  0.3971 -1.7126
  881MOL0     H21530   3.648   2.138   4.012  4.0962  1.6141  1.1980
  881MOL0     H21531   3.522   2.075   4.137 -0.2062  0.5374  2.3754
  881MOL0     H21532   3.513   2.309   4.225 -0.4950 -1.1449  0.4568
  881MOL0     H21533   3.629   2.351   4.096  0.7840 -1.3226 -2.1795
  881MOL0     H21534   3.396   2.392   4.005  0.6111 -0.5805 -0.4056
  881MOL0     H21535   3.452   2.250   3.930  0.3582 -0.3094 -0.3347
  881MOL0     H21536   3.251   2.265   3.812 -0.2396 -1.2700 -2.1826
  881MOL0     H21537   3.130   2.268   3.631  0.0227 -0.5136  0.1878
  881MOL0     H21538   2.968   2.189   3.617 -0.5655 -0.7950  1.3221
  881MOL0     H21539   3.112   2.096   3.583  0.4257  1.3674 -1.9772
  881MOL0     H21540   2.574   2.073   3.688  2.5062 -1.1472 -1.4025
  881MOL0     H21541   2.397   1.917   3.612  0.1391 -2.0249 -1.4183
  881MOL0     H21542   2.153   1.804   3.711 -0.2085 -0.2133  0.8514
  881MOL0     H21543   2.248   1.744   3.571 -2.2196 -0.3816 -1.6032
  881MOL0     H21544   2.175   1.526   3.593 -0.7891 -0.7229  0.2185
  881MOL0     H21545   2.064   1.577   3.735  2.3940  2.1228  1.3685
  881MOL0     H21546   2.048   1.664   3.450  0.8263 -0.0995 -0.0885
  881MOL0     H21547   1.957   1.730   3.585 -0.8565 -0.1090 -1.7955
  881MOL0     H21548   1.812   1.561   3.562  1.0534  0.5981  3.7967
  881MOL0     H21549   1.941   1.456   3.623  2.8293  1.2533  0.2074
  881MOL0     H21550   2.024   1.421   3.392 -1.8683 -2.3700 -0.6309
  881MOL0     H21551   1.864   1.361   3.405 -1.6502  0.2113  0.1691
  881MOL0     H21552   1.910   1.488   3.196 -0.8525 -1.8942  0.5449
  881MOL0     H21553   1.936   1.639   3.290  0.2479  0.4771  3.4137
  881MOL0     H21554   1.699   1.611   3.382  0.7639  1.1697 -0.1478
  881MOL0     H21555   1.691   1.447   3.295  4.6601 -1.5094 -1.8229
  881MOL0     H21556   1.711   1.730   3.169 -0.6928  1.0139  0.5147
  881MOL0     H21557   1.559   1.632   3.190 -0.3782  2.1624 -0.0684
  881MOL0     H21558   2.468   1.687   3.971 -1.0629  2.7372  1.7026
  881MOL0     H21559   2.658   1.835   4.018 -1.8358 -5.1859 -0.2743
  881MOL0     H21560   2.890   2.037   4.058 -0.3427  0.7420  1.3376
  881MOL0     H21561   3.095   2.104   4.178 -2.6218  0.8586  0.2087
  881MOL0     H21562   3.533   3.195   4.650  0.8914 -1.7634 -0.3461
  881MOL0     H21563   3.282   3.146   4.637 -1.8744  1.1315 -0.8845
  881MOL0     H21564   2.929   3.022   4.556  1.4486 -0.0224 -0.6098
  881MOL0     H21565   2.697   2.914   4.534 -1.1127 -2.3315 -2.6876
  881MOL0     H21566   2.517   2.775   4.153  0.0748 -1.6350 -0.2230
  881MOL0     H21567   2.629   2.680   4.244 -2.2063 -2.0169 -1.4649
  881MOL0     H21568   2.444   2.656   4.428 -1.2388 -2.0732  0.8062
  881MOL0     H21569   2.445   2.557   4.297 -0.8056  0.1867  0.3986
  881MOL0     H21570   2.299   2.693   4.158 -1.4698  0.7700  0.0072
  881MOL0     H21571   2.215   2.641   4.303 -1.3418  1.9271  1.1187
  881MOL0     H21572   2.172   2.892   4.262 -0.2007  1.5607  1.0756
  881MOL0     H21573   2.341   2.926   4.290  0.2712  1.0992  3.8289
  881MOL0     H21574   2.237   2.866   4.678 -1.8253  1.5565 -0.3588
  881MOL0     H21575   2.755   2.917   4.113 -2.5207  2.8337 -0.5013
  881MOL0     H21576   3.013   3.133   4.095 -2.5831 -0.1500 -0.9183
  881MOL0     H21577   3.090   2.979   4.091  0.3034 -0.7600  1.1080
  881MOL0     H21578   2.933   2.998   4.005  0.9380 -0.5477 -0.5598
  882MOL0     O21579   7.577   1.552   9.206 -0.3851  0.1681  0.4483
  882MOL0     C21580   7.567   1.539   9.084  0.5591 -0.7349  0.4786
  882MOL0     O21581   7.666   1.532   8.999 -0.1232  0.5739 -0.4206
  882MOL0     C21582   7.798   1.537   9.032 -1.3358 -0.0270 -0.0278
  882MOL0     C21583   7.883   1.449   8.967 -0.4915  0.0048  0.0221
  882MOL0     C21584   8.025   1.436   9.011 -0.4618 -1.0353 -0.5132
  882MOL0     C21585   8.078   1.515   9.122  0.3136  0.3292 -0.0724
  882MOL0     O21586   8.205   1.508   9.176  1.5893 -0.6055 -0.4504
  882MOL0     C21587   8.305   1.428   9.117 -0.0110 -0.5725  0.9131
  882MOL0     C21588   8.444   1.458   9.175 -0.9316  0.3798  0.7136
  882MOL0     C21589   8.449   1.417   9.317 -0.7484  0.9063 -0.7318
  882MOL0     C21590   8.590   1.430   9.377 -0.1474  0.5474  0.2331
  882MOL0     C21591   8.703   1.341   9.316  0.3868 -0.2458  0.7255
  882MOL0     C21592   8.684   1.190   9.333  0.8395  0.6275  0.0113
  882MOL0     C21593   8.802   1.114   9.272  0.7455 -1.0083 -0.2672
  882MOL0     C21594   8.769   0.963   9.269 -0.1487  0.6582 -0.0701
  882MOL0     N21595   8.894   0.885   9.238  0.0630  0.0065  0.5232
  882MOL0     C21596   8.899   0.780   9.150 -1.3453 -0.5994  0.4995
  882MOL0     C21597   9.037   0.745   9.150  0.3120 -1.4732  0.4147
  882MOL0     C21598   9.085   0.627   9.067 -0.3140 -0.6363 -0.0502
  882MOL0     C21599   9.232   0.602   9.107 -0.3240 -0.9128 -0.0368
  882MOL0     C21600   9.272   0.466   9.052  0.0388 -0.0245  0.6490
  882MOL0     C21601   9.414   0.429   9.099  0.6169  0.3041 -0.4162
  882MOL0     O21602   9.445   0.313   9.022 -0.4053  0.3653 -0.1542
  882MOL0     C21603   9.560   0.246   9.059  0.1901 -0.2690  1.0763
  882MOL0     C21604   9.676   0.297   9.118  0.1287 -0.3933  1.0140
  882MOL0     C21605   9.781   0.215   9.161  1.1445 -0.6448 -0.2772
  882MOL0     C21606   9.910   0.288   9.200  0.3992 -0.0893  0.3352
  882MOL0     C21607   9.757   0.076   9.162 -0.3159  0.6418  1.1004
  882MOL0     C21608   9.856  -0.018   9.217  1.2849  0.0293 -0.1154
  882MOL0     O21609   9.991   0.020   9.208  0.3159 -0.3256  0.1168
  882MOL0     C21610  10.090  -0.055   9.268  0.5721  0.4989 -0.1499
  882MOL0     C21611  10.187   0.022   9.332  0.1724  0.4108  0.5138
  882MOL0     C21612  10.297  -0.048   9.390 -0.7158 -0.7371  1.4320
  882MOL0     C21613  10.303  -0.181   9.392 -0.6962  0.1021 -0.2575
  882MOL0     O21614  10.411  -0.232   9.465  0.1684 -0.5934  0.0873
  882MOL0     C21615  10.434  -0.369   9.467  0.9094  0.6922  0.9938
  882MOL0     C21616  10.583  -0.389   9.489 -0.0221 -0.0808  0.4973
  882MOL0     C21617  10.638  -0.367   9.628 -0.7148 -0.6573 -0.1134
  882MOL0     C21618  10.789  -0.409   9.640 -0.6771 -0.6073 -0.2250
  882MOL0     C21619  10.836  -0.510   9.525 -0.4498  0.0433 -0.9220
  882MOL0     C21620  10.983  -0.535   9.549 -0.3888 -0.2595 -0.1288
  882MOL0     C21621  11.045  -0.625   9.440  0.3168 -0.4996  0.0942
  882MOL0     C21622  11.020  -0.777   9.449  0.5845 -0.0092  1.0616
  882MOL0    Cl21623  11.166  -0.869   9.514  0.3724 -0.0361 -0.0671
  882MOL0     C21624  10.200  -0.260   9.342 -1.0623 -0.1989  0.2663
  882MOL0     C21625  10.096  -0.198   9.270  0.1544  0.1694 -0.1974
  882MOL0     O21626   9.807  -0.093   9.303 -0.2806  0.4919 -0.4431
  882MOL0     C21627   9.636   0.018   9.109  1.2184  0.0447 -0.5197
  882MOL0     C21628   9.548   0.105   9.050 -0.5173  0.1103 -0.0109
  882MOL0     N21629   9.109   0.845   9.213  0.5065 -0.0577 -0.0372
  882MOL0     N21630   9.020   0.920   9.275  0.3381  0.0519 -1.1061
  882MOL0     C21631   7.989   1.602   9.173  0.3093  0.4668 -1.3183
  882MOL0     C21632   7.855   1.615   9.134  0.0026 -0.6097 -0.0955
  882MOL0     C21633   7.429   1.507   9.029 -0.0568  0.4023 -0.5232
  882MOL0     C21634   7.335   1.465   9.131  0.1341 -0.2568  0.8099
  882MOL0     C21635   7.202   1.441   9.091  0.2244  0.3683 -0.6399
  882MOL0     C21636   7.167   1.433   8.961  1.1514 -0.5637 -0.3352
  882MOL0     O21637   7.043   1.386   8.917  0.9128 -0.3429  0.3264
  882MOL0     C21638   6.930   1.382   9.008 -0.3897  0.6411  0.1980
  882MOL0     C21639   6.800   1.398   8.926  0.5930  0.4786 -0.0828
  882MOL0     C21640   6.682   1.315   8.981 -0.8159 -0.0373  0.0412
  882MOL0     C21641   6.627   1.389   9.103  0.3065 -0.4113 -0.1646
  882MOL0     C21642   6.707   1.370   9.224 -0.0255  0.5116 -0.5281
  882MOL0     C21643   6.779   1.345   9.318 -0.0823  0.1034  0.9576
  882MOL0     C21644   7.256   1.459   8.864 -0.8140  0.4403 -0.4545
  882MOL0     C21645   7.386   1.501   8.892  0.2337  0.1446 -0.0393
  882MOL0     C21646   7.478   1.533   8.773 -0.3276 -0.8001 -0.5894
  882MOL0     H21647   7.834   1.386   8.894 -0.7146 -0.9681  0.9870
  882MOL0     H21648   8.090   1.363   8.963  1.1343  0.2000 -0.3255
  882MOL0     H21649   8.309   1.445   9.009  0.9060  1.8926  1.2693
  882MOL0     H21650   8.287   1.322   9.136  0.2125 -0.7543  0.1705
  882MOL0     H21651   8.517   1.398   9.120 -1.4857 -1.2243  1.6707
  882MOL0     H21652   8.461   1.564   9.153  5.0556 -0.6655 -1.6820
  882MOL0     H21653   8.378   1.484   9.366  0.0263  1.4603 -0.3650
  882MOL0     H21654   8.406   1.317   9.330 -0.7245  1.1249  1.3513
  882MOL0     H21655   8.620   1.535   9.389  0.1577  0.4424  0.3895
  882MOL0     H21656   8.578   1.391   9.478 -1.1260  2.1967  0.7936
  882MOL0     H21657   8.799   1.366   9.361  0.4038 -0.6107  0.8963
  882MOL0     H21658   8.716   1.362   9.209 -2.8950 -0.2665  0.2135
  882MOL0     H21659   8.689   1.172   9.441  0.2747  1.9433  0.2671
  882MOL0     H21660   8.592   1.160   9.282 -0.2963  1.6605  1.3707
  882MOL0     H21661   8.895   1.131   9.327  0.2130 -0.5631  0.5116
  882MOL0     H21662   8.813   1.147   9.169  0.4456 -0.0935 -0.0187
  882MOL0     H21663   8.738   0.929   9.368  0.6390 -0.6400 -0.2490
  882MOL0     H21664   8.691   0.941   9.196  1.2305 -0.9265 -1.1419
  882MOL0     H21665   8.823   0.729   9.092 -2.2874  2.4634 -1.1540
  882MOL0     H21666   9.073   0.652   8.961 -2.9535  0.8528  0.5176
  882MOL0     H21667   9.016   0.545   9.086 -2.3445  0.9954 -0.1199
  882MOL0     H21668   9.300   0.676   9.063  1.6230 -2.4880  0.1314
  882MOL0     H21669   9.239   0.603   9.216  1.3820  0.7422 -0.1092
  882MOL0     H21670   9.207   0.382   9.079  0.8245 -1.1683 -0.9042
  882MOL0     H21671   9.274   0.472   8.943  2.2053 -0.6460  0.6137
  882MOL0     H21672   9.480   0.514   9.084 -2.0394  3.1004  2.2915
  882MOL0     H21673   9.399   0.408   9.205 -2.6119  1.5655 -0.5176
  882MOL0     H21674   9.680   0.405   9.133  0.0803 -0.3520  0.7260
  882MOL0     H21675   9.991   0.269   9.128 -1.2315 -3.3989 -0.8043
  882MOL0     H21676   9.948   0.259   9.298 -0.7356  0.3978  0.9389
  882MOL0     H21677   9.894   0.397   9.196 -1.3823 -0.2706 -4.0084
  882MOL0     H21678  10.181   0.130   9.340  1.5845  0.7619 -2.1602
  882MOL0     H21679  10.378   0.003   9.441 -0.5186 -0.5654  0.9569
  882MOL0     H21680  10.375  -0.409   9.550 -4.2026 -0.4652 -2.6800
  882MOL0     H21681  10.406  -0.415   9.372  1.0255 -1.5443  1.9617
  882MOL0     H21682  10.602  -0.491   9.455  2.7566  1.5091 -3.4116
  882MOL0     H21683  10.645  -0.338   9.415  0.4852 -0.3427  0.7382
  882MOL0     H21684  10.581  -0.432   9.694  0.5248  0.2745  1.9694
  882MOL0     H21685  10.628  -0.263   9.659  1.2909 -0.7861  1.1869
  882MOL0     H21686  10.806  -0.452   9.738 -0.4910  1.5735  0.7671
  882MOL0     H21687  10.843  -0.315   9.626 -1.6486  0.2542  1.4707
  882MOL0     H21688  10.782  -0.605   9.527  0.1284 -0.3009 -1.2937
  882MOL0     H21689  10.829  -0.464   9.426  2.5240  3.8964  0.3958
  882MOL0     H21690  11.003  -0.584   9.645 -0.4272  0.2917  0.1664
  882MOL0     H21691  11.032  -0.437   9.558  1.1451 -1.0175  0.1061
  882MOL0     H21692  11.154  -0.620   9.440  0.3507 -0.7146  1.6321
  882MOL0     H21693  11.005  -0.601   9.341  2.5825 -1.4318 -1.1182
  882MOL0     H21694  10.999  -0.811   9.347 -0.3126  2.2403  0.4398
  882MOL0     H21695  10.932  -0.797   9.511  0.4040 -0.8309  0.5539
  882MOL0     H21696  10.200  -0.367   9.363  2.3011 -0.3527 -0.0075
  882MOL0     H21697  10.015  -0.261   9.235  1.1269 -0.9987 -0.4480
  882MOL0     H21698   9.629  -0.090   9.096  2.4988 -0.5212  2.6825
  882MOL0     H21699   9.456   0.079   8.999  0.1108  0.0932 -1.1781
  882MOL0     H21700   8.024   1.658   9.259  0.9198 -1.4024 -0.3077
  882MOL0     H21701   7.788   1.685   9.183  1.4433 -0.4286  1.7077
  882MOL0     H21702   7.356   1.465   9.237 -3.8544  0.0681  1.7768
  882MOL0     H21703   7.122   1.431   9.163  0.0311 -0.1123 -0.9137
  882MOL0     H21704   6.920   1.285   9.060 -1.0663 -0.8626 -2.5342
  882MOL0     H21705   6.933   1.466   9.078  2.8215  0.7799  0.0287
  882MOL0     H21706   6.821   1.390   8.819  2.4020  0.9524  0.2069
  882MOL0     H21707   6.770   1.501   8.943 -0.4510  0.2357 -0.3948
  882MOL0     H21708   6.608   1.319   8.900  0.2023 -0.2790 -0.9357
  882MOL0     H21709   6.688   1.207   9.000 -1.7339 -0.0295  0.4236
  882MOL0     H21710   6.529   1.343   9.123  0.6044  0.5277  4.7031
  882MOL0     H21711   6.621   1.496   9.081  2.3200 -0.9306 -4.0706
  882MOL0     H21712   6.862   1.341   9.386  1.4867  0.3675 -0.8815
  882MOL0     H21713   7.213   1.469   8.765 -2.8307 -1.9679  0.0836
  882MOL0     H21714   7.534   1.625   8.788  1.2366 -2.0447  1.7691
  882MOL0     H21715   7.548   1.449   8.770 -0.1009 -0.7219  1.2063
  882MOL0     H21716   7.426   1.538   8.677 -1.7268  0.1461  0.1731
  883MOL0     O21717   0.243   1.926   6.319  0.0568 -0.8180 -0.0281
  883MOL0     C21718   0.202   1.942   6.436  0.1695 -0.5847 -0.3794
  883MOL0     O21719   0.286   1.979   6.548 -0.1421 -0.2373 -0.6975
  883MOL0     C21720   0.423   1.973   6.522 -0.2733 -0.6291 -0.0146
  883MOL0     C21721   0.496   2.091   6.500 -0.6330  0.5560 -0.2403
  883MOL0     C21722   0.628   2.078   6.475  0.8050  0.0774  0.7085
  883MOL0     C21723   0.691   1.955   6.478  0.5997 -0.1826  0.0937
  883MOL0     O21724   0.816   1.949   6.432 -0.0140 -0.0399 -0.5873
  883MOL0     C21725   0.912   1.868   6.507 -0.0171 -0.6081 -0.2557
  883MOL0     C21726   1.044   1.944   6.515  0.2108 -0.2080  0.1151
  883MOL0     C21727   1.160   1.854   6.532 -0.1426  0.3516  0.0605
  883MOL0     C21728   1.263   1.880   6.418 -0.4164  0.4893  0.7074
  883MOL0     C21729   1.390   1.800   6.454  0.6507 -0.5217  0.0105
  883MOL0     C21730   1.496   1.824   6.343 -0.0136 -0.1032 -0.8824
  883MOL0     C21731   1.604   1.718   6.356  0.5391  0.3783  0.5430
  883MOL0     C21732   1.689   1.705   6.485  0.1370  0.1947  0.4266
  883MOL0     N21733   1.766   1.575   6.491 -0.0491 -0.1445 -0.2349
  883MOL0     C21734   1.866   1.524   6.412 -0.2810  0.1773 -0.0977
  883MOL0     C21735   1.915   1.416   6.475  0.3144 -0.2887 -0.2438
  883MOL0     C21736   2.005   1.310   6.419  0.3002 -0.3540  0.8917
  883MOL0     C21737   2.125   1.293   6.516  0.1691 -1.0754  0.1243
  883MOL0     C21738   2.223   1.413   6.507  0.4230 -0.3568 -0.8965
  883MOL0     C21739   2.302   1.419   6.643 -0.3697 -0.1967  0.3194
  883MOL0     O21740   2.392   1.527   6.642  0.1455  0.3303  0.5561
  883MOL0     C21741   2.463   1.539   6.756 -0.7783 -0.0445 -0.1097
  883MOL0     C21742   2.463   1.457   6.869 -0.4831  0.2847  0.2126
  883MOL0     C21743   2.557   1.474   6.978  0.4221 -0.4296  0.3935
  883MOL0     C21744   2.547   1.374   7.088  0.6215 -0.1679  0.4259
  883MOL0     C21745   2.667   1.571   6.964 -0.4635  0.0025  1.0177
  883MOL0     C21746   2.779   1.591   7.054 -0.7482 -0.7683 -0.4436
  883MOL0     O21747   2.876   1.681   7.015  0.2736  0.1914 -0.5835
  883MOL0     C21748   2.974   1.705   7.102 -0.2333  0.5156  0.6758
  883MOL0     C21749   2.956   1.794   7.206  0.5849  0.2553 -0.4997
  883MOL0     C21750   3.050   1.811   7.307 -0.4693  0.7345  0.2335
  883MOL0     C21751   3.169   1.728   7.314  1.0403 -0.7809  0.2396
  883MOL0     O21752   3.265   1.739   7.404  0.8301  0.5536 -0.7351
  883MOL0     C21753   3.300   1.865   7.460  0.6071 -0.4116  0.0089
  883MOL0     C21754   3.437   1.899   7.508 -0.4129 -0.3415  0.2696
  883MOL0     C21755   3.475   1.814   7.621  0.0769 -0.4427  1.1022
  883MOL0     C21756   3.614   1.853   7.677  0.3360 -0.1923  0.1368
  883MOL0     C21757   3.643   1.784   7.805 -0.7571 -0.6061 -0.1838
  883MOL0     C21758   3.780   1.831   7.859 -0.0714  0.1569 -0.4075
  883MOL0     C21759   3.843   1.740   7.966 -0.4267  0.8664 -0.1961
  883MOL0     C21760   3.849   1.592   7.923 -0.6323 -0.8902 -0.1604
  883MOL0    Cl21761   3.939   1.499   8.032  0.0123  0.7696 -0.2895
  883MOL0     C21762   3.186   1.644   7.201 -0.3027  0.5268  0.2828
  883MOL0     C21763   3.088   1.630   7.102 -1.3447 -1.3868 -0.3232
  883MOL0     O21764   2.773   1.538   7.162 -0.9081 -0.2454 -0.0490
  883MOL0     C21765   2.669   1.639   6.838  0.0455 -0.2518  0.7141
  883MOL0     C21766   2.570   1.622   6.742 -0.2237  0.5544 -0.7564
  883MOL0     N21767   1.852   1.405   6.594  1.1813 -0.2268  0.0082
  883MOL0     N21768   1.766   1.497   6.601 -0.3231  0.4139 -0.0037
  883MOL0     C21769   0.619   1.838   6.514  0.3647 -0.7203 -0.7904
  883MOL0     C21770   0.482   1.851   6.538  0.2357  0.3880  0.3837
  883MOL0     C21771   0.058   1.917   6.469 -0.2389 -0.2338  0.3526
  883MOL0     C21772   0.023   1.973   6.592 -0.8060 -0.8828 -0.1697
  883MOL0     C21773  -0.110   1.955   6.640  0.2323 -1.1301  0.1554
  883MOL0     C21774  -0.208   1.887   6.557 -0.4752 -0.7496 -0.2463
  883MOL0     O21775  -0.328   1.876   6.616  1.0255 -0.4778  0.6050
  883MOL0     C21776  -0.436   1.797   6.565  0.0985  0.3556 -0.2617
  883MOL0     C21777  -0.545   1.785   6.666  0.4976  0.6264  0.3773
  883MOL0     C21778  -0.517   1.719   6.796 -0.4525  0.3047 -0.1425
  883MOL0     C21779  -0.637   1.729   6.891  0.1840  0.0748  0.4813
  883MOL0     C21780  -0.620   1.648   7.013 -0.2923 -0.8910 -0.6414
  883MOL0     C21781  -0.633   1.577   7.113 -0.2256  0.3992  0.1205
  883MOL0     C21782  -0.177   1.849   6.430 -0.4874 -0.2595 -0.3319
  883MOL0     C21783  -0.039   1.860   6.380  0.2948 -0.6883  0.6615
  883MOL0     C21784  -0.000   1.814   6.246  0.3762 -0.4564  0.3655
  883MOL0     H21785   0.445   2.186   6.507  0.1737  0.8726  3.1051
  883MOL0     H21786   0.690   2.166   6.462 -0.7920  1.2608  0.8702
  883MOL0     H21787   0.920   1.777   6.448 -0.0975 -2.6312  2.6660
  883MOL0     H21788   0.885   1.844   6.610  1.1926  0.8969  0.4656
  883MOL0     H21789   1.057   2.010   6.429 -1.3319  3.1825  2.2646
  883MOL0     H21790   1.046   2.012   6.600  1.7758 -1.9676  1.5832
  883MOL0     H21791   1.201   1.874   6.632  0.0060 -0.3159  0.1425
  883MOL0     H21792   1.121   1.752   6.527 -0.8535  0.6662 -1.3961
  883MOL0     H21793   1.219   1.854   6.321  0.7014  1.8709 -0.2118
  883MOL0     H21794   1.280   1.988   6.418 -2.1718  0.7910  0.4893
  883MOL0     H21795   1.361   1.695   6.462 -0.3537 -0.1738  1.2388
  883MOL0     H21796   1.433   1.834   6.549  0.4060  0.1351 -0.1119
  883MOL0     H21797   1.449   1.826   6.245 -1.8910 -1.0152 -0.0441
  883MOL0     H21798   1.538   1.923   6.363 -3.6449  1.2297  0.9794
  883MOL0     H21799   1.664   1.731   6.266 -0.0186  0.0364  0.1204
  883MOL0     H21800   1.547   1.626   6.346 -0.0902  1.0255 -3.2810
  883MOL0     H21801   1.757   1.790   6.494 -0.2510  0.5617  0.0010
  883MOL0     H21802   1.632   1.709   6.578 -1.0765 -1.4985 -0.1869
  883MOL0     H21803   1.903   1.557   6.315 -1.3552 -3.0392 -1.7524
  883MOL0     H21804   2.038   1.330   6.316 -0.3199 -0.9114  0.5704
  883MOL0     H21805   1.949   1.215   6.418  0.8936 -0.7114  1.3814
  883MOL0     H21806   2.096   1.278   6.620  0.2638  2.0751  0.7106
  883MOL0     H21807   2.178   1.202   6.487 -0.1071 -0.5251 -2.2779
  883MOL0     H21808   2.290   1.391   6.423 -0.4801 -1.9529 -1.2485
  883MOL0     H21809   2.177   1.508   6.480  5.0621  1.9877 -1.6215
  883MOL0     H21810   2.234   1.422   6.728 -1.8034 -1.8430 -0.7174
  883MOL0     H21811   2.354   1.325   6.663  0.9462  0.6708  1.1580
  883MOL0     H21812   2.373   1.397   6.877 -2.0052  2.2147 -1.4527
  883MOL0     H21813   2.443   1.343   7.099  0.0323  0.6085 -2.3264
  883MOL0     H21814   2.585   1.417   7.181  2.8836 -2.1810  0.5429
  883MOL0     H21815   2.605   1.284   7.063 -0.2257 -0.8442  0.8511
  883MOL0     H21816   2.863   1.849   7.215 -0.2330 -0.9893 -1.0397
  883MOL0     H21817   3.028   1.889   7.379 -0.5555  1.0529 -0.1330
  883MOL0     H21818   3.272   1.946   7.393 -2.1635 -0.1753  1.3156
  883MOL0     H21819   3.228   1.884   7.541 -0.4450 -1.2773 -0.6956
  883MOL0     H21820   3.510   1.883   7.428 -0.8197 -3.1220  0.3332
  883MOL0     H21821   3.445   2.005   7.532 -4.4517  0.3315 -0.5822
  883MOL0     H21822   3.485   1.712   7.583  2.4117 -0.2773  1.1086
  883MOL0     H21823   3.398   1.822   7.699 -0.2857  0.4303  0.6762
  883MOL0     H21824   3.605   1.961   7.690 -0.1082 -0.4873  2.7634
  883MOL0     H21825   3.698   1.830   7.611 -0.0391 -0.5890 -0.2137
  883MOL0     H21826   3.564   1.805   7.878  0.5073 -2.6015  1.8949
  883MOL0     H21827   3.636   1.678   7.779  2.2010 -1.3809  1.7711
  883MOL0     H21828   3.766   1.932   7.898  0.4960 -0.0024  0.2412
  883MOL0     H21829   3.856   1.836   7.781  2.3065 -1.3330  1.6342
  883MOL0     H21830   3.769   1.737   8.047 -1.5858 -2.0251 -1.2434
  883MOL0     H21831   3.936   1.788   7.998 -0.2309  2.9462 -3.3619
  883MOL0     H21832   3.905   1.585   7.829 -0.5387  0.2525 -0.2091
  883MOL0     H21833   3.747   1.554   7.913 -2.1482  2.3608  1.3087
  883MOL0     H21834   3.277   1.585   7.201  0.5912  1.7416  2.8039
  883MOL0     H21835   3.115   1.565   7.020 -0.4327 -1.1324 -0.2266
  883MOL0     H21836   2.745   1.711   6.809 -0.8680  0.4856  0.0942
  883MOL0     H21837   2.581   1.686   6.655  2.2951  0.4828 -0.5737
  883MOL0     H21838   0.672   1.743   6.520  0.5216 -0.5586  4.1956
  883MOL0     H21839   0.413   1.769   6.558  0.8013 -0.3684 -0.6490
  883MOL0     H21840   0.082   2.014   6.673 -3.1471 -0.6970  1.5482
  883MOL0     H21841  -0.139   1.979   6.742  2.3850 -0.4817  0.6646
  883MOL0     H21842  -0.477   1.839   6.473  1.0106  0.1551 -0.7768
  883MOL0     H21843  -0.401   1.697   6.538  0.1112  0.4692 -0.6713
  883MOL0     H21844  -0.606   1.720   6.603  0.2860 -0.5335  1.7314
  883MOL0     H21845  -0.584   1.884   6.690  0.7562  0.4693  1.5086
  883MOL0     H21846  -0.493   1.613   6.784  1.1349  0.7850 -1.6115
  883MOL0     H21847  -0.434   1.777   6.837 -2.4224  2.0603  1.6121
  883MOL0     H21848  -0.723   1.690   6.836  1.5755 -0.3277 -1.5034
  883MOL0     H21849  -0.644   1.835   6.918  1.2385  0.3517 -0.2627
  883MOL0     H21850  -0.618   1.516   7.199  1.0772  1.1789  0.4747
  883MOL0     H21851  -0.255   1.798   6.374 -2.7595 -0.7487  3.0080
  883MOL0     H21852   0.031   1.901   6.187 -0.8277 -0.0322  0.3120
  883MOL0     H21853   0.076   1.736   6.252 -1.8739 -2.6740  4.9196
  883MOL0     H21854  -0.092   1.779   6.197 -0.6551 -0.6045  2.3232
  884MOL0     O21855   2.759   1.679  10.008  0.5782 -0.7525  0.0378
  884MOL0     C21856   2.751   1.799  10.049 -0.2761 -0.2129 -0.0930
  884MOL0     O21857   2.860   1.888  10.049 -0.3559  0.5572 -0.1506
  884MOL0     C21858   2.990   1.848  10.028 -0.1480  0.4843 -0.4214
  884MOL0     C21859   3.045   1.731  10.075  0.5940 -0.6471  0.4697
  884MOL0     C21860   3.180   1.708  10.059  0.4649  0.0404 -0.5941
  884MOL0     C21861   3.260   1.801   9.995 -0.5343  0.3034 -0.2160
  884MOL0     O21862   3.395   1.769   9.991  0.3944 -1.1073  0.7306
  884MOL0     C21863   3.483   1.881   9.972  0.7592  0.1528  0.6827
  884MOL0     C21864   3.624   1.819   9.976 -0.6983  0.1644  0.5808
  884MOL0     C21865   3.742   1.918  10.005 -0.4882 -1.3831  0.7271
  884MOL0     C21866   3.871   1.846  10.021 -0.7457 -0.1071 -0.7756
  884MOL0     C21867   3.995   1.912  10.083 -0.4733 -0.0703 -0.0054
  884MOL0     C21868   4.124   1.825  10.104  0.2048 -0.4989  0.5837
  884MOL0     C21869   4.249   1.910  10.111  0.4798  0.0545 -0.1153
  884MOL0     C21870   4.383   1.840  10.130  0.0146  0.5877 -0.1131
  884MOL0     N21871   4.400   1.736  10.033 -0.3315 -0.0169 -0.5187
  884MOL0     C21872   4.356   1.606  10.052  0.0227 -0.0456 -0.7967
  884MOL0     C21873   4.390   1.552   9.934 -0.3737 -0.6550 -0.1854
  884MOL0     C21874   4.347   1.416   9.911 -0.6166  0.1136  0.7808
  884MOL0     C21875   4.202   1.435   9.860 -0.4561  0.2304 -0.7030
  884MOL0     C21876   4.134   1.303   9.803  0.4545 -0.2690 -0.1940
  884MOL0     C21877   3.984   1.328   9.774  0.5372 -0.5424 -0.1718
  884MOL0     O21878   3.910   1.381   9.886 -0.3146 -0.0957 -0.3763
  884MOL0     C21879   3.775   1.413   9.866 -0.3748  0.3642  0.4779
  884MOL0     C21880   3.688   1.418   9.974 -0.1812 -0.1801  0.1949
  884MOL0     C21881   3.554   1.437   9.957  0.1591  0.1759 -0.2686
  884MOL0     C21882   3.479   1.428  10.090 -0.1283  0.9373 -0.2716
  884MOL0     C21883   3.495   1.451   9.832 -0.1577  0.0147  0.0868
  884MOL0     C21884   3.343   1.450   9.812 -0.0853 -0.3056  0.8378
  884MOL0     O21885   3.297   1.501   9.696  0.4317 -0.0346  0.1518
  884MOL0     C21886   3.170   1.484   9.668  0.2403  0.1904 -0.0484
  884MOL0     C21887   3.073   1.569   9.732 -0.3042 -0.0997  0.0739
  884MOL0     C21888   2.937   1.545   9.714  1.4043  0.0634  0.2970
  884MOL0     C21889   2.900   1.441   9.631  0.3359  0.0554  0.1396
  884MOL0     O21890   2.760   1.419   9.606 -0.0472 -0.0155 -1.1398
  884MOL0     C21891   2.677   1.535   9.603 -0.2777 -0.7179  0.0305
  884MOL0     C21892   2.536   1.495   9.563 -0.8020 -0.0239  0.4506
  884MOL0     C21893   2.441   1.610   9.545  0.3815  0.0239 -0.0501
  884MOL0     C21894   2.297   1.584   9.585 -0.4736  0.0475 -0.5241
  884MOL0     C21895   2.207   1.713   9.575 -0.6181  0.0166  0.0285
  884MOL0     C21896   2.075   1.692   9.640 -0.1250  0.4756 -0.6559
  884MOL0     C21897   2.080   1.686   9.795  0.4098 -0.2378 -0.2219
  884MOL0     C21898   1.938   1.702   9.852 -0.6483  0.5313  0.9122
  884MOL0    Cl21899   1.953   1.729  10.030 -0.0823  0.1223 -0.0460
  884MOL0     C21900   2.994   1.351   9.573 -0.2583  0.2716 -0.3329
  884MOL0     C21901   3.133   1.376   9.588  0.6196  0.3843  0.2338
  884MOL0     O21902   3.281   1.368   9.879  0.2816 -0.0181  0.1299
  884MOL0     C21903   3.584   1.461   9.726 -0.2008  0.5486 -0.3267
  884MOL0     C21904   3.720   1.434   9.735 -0.0357 -0.4412 -0.6116
  884MOL0     N21905   4.454   1.645   9.856 -0.4449  0.1609  0.0353
  884MOL0     N21906   4.472   1.752   9.917  0.3627  0.3205 -0.2212
  884MOL0     C21907   3.205   1.924   9.951 -0.0734  0.4421  0.2107
  884MOL0     C21908   3.067   1.941   9.957  0.5764 -0.5551  0.8295
  884MOL0     C21909   2.616   1.856  10.087 -1.0516 -0.0828  0.3098
  884MOL0     C21910   2.598   1.981  10.150  0.0813 -0.6837 -0.8788
  884MOL0     C21911   2.472   2.037  10.175 -0.0063  0.7047  0.3215
  884MOL0     C21912   2.362   1.963  10.142  0.8490  0.1830 -0.1273
  884MOL0     O21913   2.235   2.020  10.155 -0.0669  0.1382 -0.2487
  884MOL0     C21914   2.216   2.147  10.220 -0.1887 -0.3496 -0.3669
  884MOL0     C21915   2.066   2.184  10.222  0.1166 -0.0554 -0.2310
  884MOL0     C21916   2.009   2.202  10.080  0.2208  0.6315 -0.0787
  884MOL0     C21917   1.853   2.238  10.089  0.2793 -0.6134 -0.9566
  884MOL0     C21918   1.827   2.372  10.137  0.5858 -0.3401 -0.9624
  884MOL0     C21919   1.814   2.492  10.167  1.0594  0.0889 -0.8272
  884MOL0     C21920   2.375   1.842  10.085 -0.5739 -0.3640  0.1374
  884MOL0     C21921   2.496   1.794  10.043 -0.3028 -0.1110 -0.1997
  884MOL0     C21922   2.481   1.688   9.937 -0.5916 -0.2210 -0.8734
  884MOL0     H21923   2.979   1.665  10.130  0.0063 -0.4008  0.0692
  884MOL0     H21924   3.220   1.615  10.098 -0.7671  0.8676  3.0451
  884MOL0     H21925   3.464   1.951  10.054 -1.1425 -1.1249  1.4014
  884MOL0     H21926   3.465   1.939   9.881 -0.1827 -0.7347  0.2772
  884MOL0     H21927   3.632   1.741  10.052  1.2963 -1.6425 -1.3570
  884MOL0     H21928   3.650   1.757   9.889  2.9276 -3.3042  3.7129
  884MOL0     H21929   3.750   1.995   9.928  2.8679 -0.7244  1.5998
  884MOL0     H21930   3.718   1.977  10.095 -3.7016  0.0563 -0.8806
  884MOL0     H21931   3.852   1.744  10.055 -1.6859  0.0457 -0.8087
  884MOL0     H21932   3.915   1.827   9.923  3.4664 -2.6539  1.2813
  884MOL0     H21933   3.966   1.956  10.179 -0.7329  0.2113 -0.2104
  884MOL0     H21934   4.030   1.989  10.013 -1.7026  1.2136  0.7435
  884MOL0     H21935   4.120   1.776  10.202  1.0439 -3.6992 -0.8386
  884MOL0     H21936   4.128   1.740  10.035 -2.4775  0.5324 -0.9836
  884MOL0     H21937   4.233   1.972  10.200 -1.6261 -1.2956  0.5162
  884MOL0     H21938   4.247   1.977  10.025 -4.1548  0.1365 -0.2006
  884MOL0     H21939   4.464   1.913  10.136 -0.4734  1.0187  2.0987
  884MOL0     H21940   4.388   1.802  10.232 -4.4040 -0.1195  0.0424
  884MOL0     H21941   4.299   1.568  10.136 -1.8290  0.9324 -1.5497
  884MOL0     H21942   4.351   1.348   9.997  0.5234 -0.8069  0.0306
  884MOL0     H21943   4.419   1.374   9.841  2.1397  3.1776  1.5667
  884MOL0     H21944   4.143   1.487   9.935 -0.1091  0.5679 -0.6612
  884MOL0     H21945   4.198   1.510   9.780 -0.8344 -1.4379 -2.3170
  884MOL0     H21946   4.179   1.264   9.711 -1.3753 -1.9471 -0.4371
  884MOL0     H21947   4.137   1.231   9.885  0.6391  0.9257  0.8769
  884MOL0     H21948   3.981   1.395   9.687  0.1550  1.7341  1.5201
  884MOL0     H21949   3.928   1.239   9.744 -0.7480  0.9609 -2.5763
  884MOL0     H21950   3.741   1.421  10.068  3.3932  1.9492 -1.7040
  884MOL0     H21951   3.550   1.422  10.173  1.2321  0.3168 -1.4584
  884MOL0     H21952   3.423   1.333  10.090 -0.3343  0.9625  2.4232
  884MOL0     H21953   3.408   1.506  10.119  0.3696  0.7162  1.6781
  884MOL0     H21954   3.098   1.645   9.804 -0.3552  0.7388 -0.7657
  884MOL0     H21955   2.862   1.610   9.757  2.3634  0.9215  0.7249
  884MOL0     H21956   2.668   1.589   9.697  3.5354  1.3551 -0.5963
  884MOL0     H21957   2.715   1.613   9.536 -1.1930  1.1896  1.6342
  884MOL0     H21958   2.539   1.432   9.473 -3.5064  0.2131  0.1098
  884MOL0     H21959   2.492   1.438   9.645  0.1975  1.0732  1.7973
  884MOL0     H21960   2.441   1.636   9.439  1.1787 -1.5973 -0.4797
  884MOL0     H21961   2.470   1.699   9.602  2.1649 -1.2570  1.1817
  884MOL0     H21962   2.300   1.552   9.690  2.1130  2.1707  0.1507
  884MOL0     H21963   2.238   1.508   9.532 -3.3665  3.1936 -2.1895
  884MOL0     H21964   2.256   1.803   9.612 -0.0335  0.4966 -1.7821
  884MOL0     H21965   2.194   1.732   9.468  0.4708 -2.3009 -0.5892
  884MOL0     H21966   2.022   1.601   9.608  2.6443 -2.0936  1.5302
  884MOL0     H21967   2.014   1.775   9.601  0.4584  1.0326 -0.4002
  884MOL0     H21968   2.147   1.755   9.847 -2.2295  1.1788  1.5164
  884MOL0     H21969   2.118   1.588   9.827  0.7449 -0.0968 -0.1807
  884MOL0     H21970   1.873   1.615   9.837  0.9898 -0.6824  0.6287
  884MOL0     H21971   1.890   1.791   9.811 -1.4100 -0.7731 -1.1760
  884MOL0     H21972   2.963   1.261   9.522 -0.8415 -1.0663  2.2392
  884MOL0     H21973   3.210   1.315   9.543 -0.5964  0.9574 -2.8234
  884MOL0     H21974   3.559   1.484   9.623  1.2909  2.6979 -0.2714
  884MOL0     H21975   3.774   1.427   9.641 -0.1342 -3.6128 -0.5438
  884MOL0     H21976   3.260   2.003   9.901 -0.0362 -0.0111 -0.4777
  884MOL0     H21977   3.031   2.032   9.912  2.4000 -0.1427  0.1408
  884MOL0     H21978   2.681   2.041  10.183  0.1849 -2.2046  1.8973
  884MOL0     H21979   2.468   2.138  10.213  1.0792 -0.1405  2.8589
  884MOL0     H21980   2.251   2.151  10.323 -0.1659 -0.9527 -0.3514
  884MOL0     H21981   2.277   2.220  10.166  0.1942  1.9262  2.8611
  884MOL0     H21982   2.061   2.280  10.276 -3.5983  1.0937 -2.2567
  884MOL0     H21983   2.000   2.127  10.288  1.6898 -1.4833  0.1927
  884MOL0     H21984   2.060   2.287  10.033 -0.1409  1.7511  1.4531
  884MOL0     H21985   2.033   2.112  10.023 -1.2871 -0.6906  1.2654
  884MOL0     H21986   1.795   2.176  10.158 -0.5964  0.7793 -0.4109
  884MOL0     H21987   1.809   2.226   9.989 -2.4503 -3.3491  0.4283
  884MOL0     H21988   1.813   2.595  10.194  0.4431  0.3538 -1.8104
  884MOL0     H21989   2.279   1.799  10.057 -2.3234  3.3344 -0.1432
  884MOL0     H21990   2.535   1.717   9.847 -1.0445  0.5799 -0.8948
  884MOL0     H21991   2.518   1.589   9.968  1.4992  1.0629  1.0392
  884MOL0     H21992   2.376   1.686   9.908 -1.2435 -1.5716  1.3189
  885MOL0     O21993   6.417   7.818   3.498 -0.3916 -0.2715 -0.0867
  885MOL0     C21994   6.424   7.721   3.572  0.9457  0.5902  0.0586
  885MOL0     O21995   6.521   7.704   3.668  0.3173  0.0557  0.6566
  885MOL0     C21996   6.622   7.800   3.673  0.6815 -0.7996 -0.7980
  885MOL0     C21997   6.596   7.921   3.738  0.5506 -0.5922  0.6528
  885MOL0     C21998   6.697   8.014   3.765 -0.5097 -0.2697 -0.0683
  885MOL0     C21999   6.824   7.989   3.717 -0.0066  0.3488 -0.0773
  885MOL0     O22000   6.942   8.051   3.746  0.4871  0.0127  0.2954
  885MOL0     C22001   6.930   8.191   3.782 -1.2646 -0.1621 -0.4320
  885MOL0     C22002   6.887   8.290   3.669 -0.5635  0.0239 -0.2913
  885MOL0     C22003   6.939   8.246   3.535  0.4184 -0.3298  0.6326
  885MOL0     C22004   6.932   8.339   3.417  0.5497  0.2105 -0.2367
  885MOL0     C22005   7.003   8.268   3.301  0.2439  0.0494  0.6091
  885MOL0     C22006   7.145   8.336   3.273  0.5113  0.5156  0.2205
  885MOL0     C22007   7.222   8.253   3.172 -0.0169  0.7531  0.0770
  885MOL0     C22008   7.350   8.322   3.129 -0.6142 -0.1238 -0.1993
  885MOL0     N22009   7.447   8.360   3.243 -0.1288  0.0977  0.9605
  885MOL0     C22010   7.526   8.279   3.312  0.1802  0.5881  0.1082
  885MOL0     C22011   7.615   8.363   3.380  0.3785  0.1928  0.6873
  885MOL0     C22012   7.733   8.326   3.471 -0.0475  0.9853 -0.2892
  885MOL0     C22013   7.860   8.324   3.401 -0.5134 -0.4637 -0.0837
  885MOL0     C22014   7.975   8.293   3.497 -1.2668 -0.3094 -0.3926
  885MOL0     C22015   8.099   8.274   3.400  0.4808  0.3313 -0.8492
  885MOL0     O22016   8.115   8.406   3.346  0.3379  0.1363 -0.0299
  885MOL0     C22017   8.238   8.440   3.287 -0.9771  0.1402  0.0864
  885MOL0     C22018   8.247   8.570   3.233  0.0500 -0.1801  0.6192
  885MOL0     C22019   8.375   8.628   3.193  1.0613 -0.2106 -0.2964
  885MOL0     C22020   8.365   8.776   3.153 -0.8462 -0.2466 -0.6847
  885MOL0     C22021   8.498   8.545   3.217 -0.2998 -0.7880  0.9349
  885MOL0     C22022   8.636   8.601   3.186  0.2734  0.3484  0.3266
  885MOL0     O22023   8.733   8.504   3.177  0.5564 -0.5951 -0.1227
  885MOL0     C22024   8.859   8.557   3.155  0.0713 -0.6620 -0.6769
  885MOL0     C22025   8.913   8.624   3.268  0.8316  0.9876 -0.0283
  885MOL0     C22026   9.052   8.644   3.264 -0.3633 -0.1469 -0.3348
  885MOL0     C22027   9.124   8.630   3.136 -0.7184  0.2130 -0.8753
  885MOL0     O22028   9.260   8.647   3.130 -0.5737 -0.3589 -0.0064
  885MOL0     C22029   9.339   8.689   3.235 -1.1948 -0.0317 -0.8841
  885MOL0     C22030   9.479   8.697   3.176  0.7338 -0.5032 -0.2151
  885MOL0     C22031   9.533   8.568   3.126 -0.4158  0.7484  1.1117
  885MOL0     C22032   9.570   8.466   3.235 -0.6677 -0.1577 -0.7838
  885MOL0     C22033   9.654   8.344   3.180 -0.7387 -0.5166 -0.1294
  885MOL0     C22034   9.700   8.249   3.290 -0.5338 -0.8202 -0.6419
  885MOL0     C22035   9.823   8.310   3.365  0.3458  0.2726 -2.1025
  885MOL0     C22036   9.903   8.201   3.449  0.0316  0.7571 -0.1128
  885MOL0    Cl22037   9.993   8.082   3.348 -0.2936 -0.3371 -0.3259
  885MOL0     C22038   9.053   8.587   3.029 -0.5683  0.4499 -1.0003
  885MOL0     C22039   8.920   8.547   3.039  0.2656  0.4711 -0.3360
  885MOL0     O22040   8.652   8.725   3.182 -0.2031  1.2218 -0.8006
  885MOL0     C22041   8.481   8.413   3.274  0.5031 -1.2854 -0.5133
  885MOL0     C22042   8.355   8.370   3.300 -0.6248 -0.2597 -0.3473
  885MOL0     N22043   7.579   8.492   3.358  0.0652  0.0306 -0.2031
  885MOL0     N22044   7.487   8.491   3.266  0.5083  0.8591  0.2444
  885MOL0     C22045   6.846   7.871   3.652 -1.0428  0.6038 -0.5091
  885MOL0     C22046   6.748   7.773   3.635 -0.1494 -0.0629  0.0761
  885MOL0     C22047   6.329   7.605   3.562 -0.0771 -0.0049 -0.5622
  885MOL0     C22048   6.360   7.487   3.637 -1.1433 -0.3599  0.5945
  885MOL0     C22049   6.275   7.377   3.616  0.1590  0.4022 -0.6383
  885MOL0     C22050   6.157   7.381   3.534  0.2750  0.2289  0.5376
  885MOL0     O22051   6.089   7.265   3.528  0.2584  0.4722 -0.3945
  885MOL0     C22052   6.031   7.221   3.653 -0.8316  0.5183  0.4900
  885MOL0     C22053   6.008   7.069   3.637  0.6018  0.9927  0.6769
  885MOL0     C22054   5.910   7.033   3.519  0.0063  0.0325 -0.4443
  885MOL0     C22055   5.776   7.115   3.517  0.4698  0.2586 -0.2130
  885MOL0     C22056   5.693   7.054   3.412  0.9367 -0.2485  0.3551
  885MOL0     C22057   5.625   6.997   3.322 -1.1106  0.2560  0.2132
  885MOL0     C22058   6.139   7.494   3.463  0.5960  0.0241  0.1735
  885MOL0     C22059   6.215   7.612   3.477 -0.3176  1.0414 -0.3110
  885MOL0     C22060   6.166   7.736   3.406  1.0577 -0.4879  0.6475
  885MOL0     H22061   6.496   7.938   3.777  0.6059  1.1343  0.0828
  885MOL0     H22062   6.664   8.107   3.810  0.8307 -0.2085  0.8231
  885MOL0     H22063   7.024   8.229   3.823 -0.6874 -0.6278 -1.3041
  885MOL0     H22064   6.857   8.202   3.863 -2.0953  0.0870 -1.1890
  885MOL0     H22065   6.778   8.276   3.669 -0.8124  0.5647  4.0391
  885MOL0     H22066   6.901   8.396   3.693 -2.2427  0.2498 -0.1926
  885MOL0     H22067   7.045   8.220   3.537  0.7855  0.7896 -1.6959
  885MOL0     H22068   6.877   8.162   3.503  1.2941 -0.5809 -0.4647
  885MOL0     H22069   6.826   8.356   3.396  0.2129 -3.8680 -3.1032
  885MOL0     H22070   6.984   8.434   3.432 -0.1980  0.5627  0.1609
  885MOL0     H22071   6.943   8.272   3.209  1.3753 -1.4987 -0.2448
  885MOL0     H22072   7.014   8.160   3.312 -2.2034 -0.6692 -2.4956
  885MOL0     H22073   7.127   8.435   3.229 -1.5161  0.7334  1.4243
  885MOL0     H22074   7.207   8.358   3.360  0.8190  2.2486 -0.3750
  885MOL0     H22075   7.157   8.245   3.085 -1.0203 -1.2649  0.9531
  885MOL0     H22076   7.247   8.154   3.211 -3.5646 -1.3087 -2.3613
  885MOL0     H22077   7.401   8.260   3.054  1.4997 -0.0095  1.0396
  885MOL0     H22078   7.334   8.420   3.083  3.3052  0.9676  0.4071
  885MOL0     H22079   7.531   8.170   3.318 -0.0755  0.5664 -0.0688
  885MOL0     H22080   7.718   8.225   3.510  0.0116  1.7393  1.7761
  885MOL0     H22081   7.733   8.391   3.559 -1.3102 -0.8451  1.1389
  885MOL0     H22082   7.853   8.250   3.320 -0.8678  0.6811 -1.1353
  885MOL0     H22083   7.874   8.420   3.350  2.0746 -1.4055 -1.3184
  885MOL0     H22084   8.002   8.371   3.569 -0.4728  0.2790 -1.3008
  885MOL0     H22085   7.954   8.200   3.550  1.4533  0.8977  3.1883
  885MOL0     H22086   8.186   8.251   3.463  0.5331  1.7197 -0.3867
  885MOL0     H22087   8.075   8.187   3.338 -0.6821 -2.0529  2.6717
  885MOL0     H22088   8.154   8.626   3.240 -1.4263 -2.5306  0.9600
  885MOL0     H22089   8.396   8.841   3.235  3.1921  0.7408 -2.7341
  885MOL0     H22090   8.263   8.799   3.119 -0.6925 -1.3593 -1.9985
  885MOL0     H22091   8.435   8.786   3.069 -0.3820 -2.0343 -0.5447
  885MOL0     H22092   8.864   8.624   3.365  1.1169  1.1851  0.1220
  885MOL0     H22093   9.102   8.672   3.357  0.9897 -1.0065 -0.7648
  885MOL0     H22094   9.315   8.790   3.266 -1.9888 -1.4748  4.0644
  885MOL0     H22095   9.337   8.614   3.315  1.4795 -0.7355 -1.3709
  885MOL0     H22096   9.470   8.773   3.097 -0.1116 -0.4803 -0.1125
  885MOL0     H22097   9.548   8.745   3.246 -1.8887  1.6045  1.1765
  885MOL0     H22098   9.615   8.576   3.055  0.7959 -3.1408  1.8073
  885MOL0     H22099   9.448   8.536   3.065  0.1368 -0.1705  0.8107
  885MOL0     H22100   9.479   8.429   3.282  0.3678 -1.0040  0.6262
  885MOL0     H22101   9.621   8.525   3.311 -1.8803 -1.2537  0.9365
  885MOL0     H22102   9.586   8.288   3.115 -2.6000 -0.7204  1.8734
  885MOL0     H22103   9.744   8.369   3.123  0.2484 -4.0067 -0.3321
  885MOL0     H22104   9.740   8.152   3.259  1.4629 -0.4655  0.6844
  885MOL0     H22105   9.619   8.220   3.358  0.9901  2.4123  2.9242
  885MOL0     H22106   9.792   8.397   3.423 -0.3345  0.5254 -2.8117
  885MOL0     H22107   9.889   8.355   3.290 -0.5954  2.5688 -1.6390
  885MOL0     H22108   9.834   8.137   3.505 -3.0898  2.3209 -1.8961
  885MOL0     H22109   9.966   8.255   3.520  1.6291  2.6949 -2.7954
  885MOL0     H22110   9.089   8.567   2.928  1.2441 -0.5860 -0.1858
  885MOL0     H22111   8.870   8.501   2.955 -1.9149  0.1250  1.0649
  885MOL0     H22112   8.562   8.345   3.297  0.4321 -0.7556  1.5097
  885MOL0     H22113   8.363   8.276   3.352  1.5536  0.5346  0.9166
  885MOL0     H22114   6.945   7.844   3.616 -1.8612 -3.9461  0.0285
  885MOL0     H22115   6.772   7.683   3.580  0.0277  1.2374 -2.0922
  885MOL0     H22116   6.442   7.478   3.707 -1.3319 -0.7555  0.7706
  885MOL0     H22117   6.306   7.287   3.669 -0.7683  0.8300  0.6989
  885MOL0     H22118   6.100   7.236   3.737 -1.9053  1.1680  1.2781
  885MOL0     H22119   5.935   7.268   3.675 -1.8048 -0.2694 -1.8215
  885MOL0     H22120   5.962   7.044   3.733  1.5660 -0.6540  0.7406
  885MOL0     H22121   6.101   7.014   3.618 -0.8382 -1.4356  0.2065
  885MOL0     H22122   5.955   7.037   3.420 -1.1818 -2.4272 -1.1520
  885MOL0     H22123   5.884   6.930   3.544  0.3740  0.3519  1.4424
  885MOL0     H22124   5.784   7.222   3.496  4.1222 -0.0832 -1.1772
  885MOL0     H22125   5.721   7.101   3.610 -1.8688 -0.0370 -1.5517
  885MOL0     H22126   5.560   6.946   3.254 -0.1737 -3.2570  1.7149
  885MOL0     H22127   6.057   7.501   3.392 -0.2700  0.2135  1.1665
  885MOL0     H22128   6.164   7.812   3.484 -4.9212  1.0717 -0.5337
  885MOL0     H22129   6.227   7.775   3.323 -2.7355  0.1177 -2.1096
  885MOL0     H22130   6.060   7.732   3.378  0.4111 -0.1323  2.8734
  886MOL0     O22131   5.870   0.523   1.945 -0.2448 -0.2274  0.5986
  886MOL0     C22132   5.765   0.457   1.938  0.4605 -0.1071  0.1978
  886MOL0     O22133   5.755   0.332   1.886 -0.1398 -0.4271 -0.4538
  886MOL0     C22134   5.867   0.274   1.833  0.8813 -0.2413  0.5725
  886MOL0     C22135   5.988   0.251   1.901  0.1218  0.4352  0.2949
  886MOL0     C22136   6.086   0.182   1.824 -0.5022  0.7160  0.0866
  886MOL0     C22137   6.070   0.149   1.691 -0.7032 -1.3064  0.4601
  886MOL0     O22138   6.170   0.080   1.629 -0.0491 -0.4971  0.0143
  886MOL0     C22139   6.291   0.158   1.624  0.7730  0.2542  0.2045
  886MOL0     C22140   6.280   0.262   1.502  0.3111 -0.8800  0.2537
  886MOL0     C22141   6.419   0.305   1.450  0.0101 -0.7955 -0.1034
  886MOL0     C22142   6.547   0.240   1.514  0.1038 -0.0590 -0.6845
  886MOL0     C22143   6.678   0.290   1.458  0.7495  0.3462 -0.0297
  886MOL0     C22144   6.793   0.203   1.511 -0.8195  0.3865  0.5765
  886MOL0     C22145   6.919   0.284   1.483 -0.4945  0.8568  1.1911
  886MOL0     C22146   7.024   0.182   1.434  0.8279  0.4909  0.8395
  886MOL0     N22147   7.087   0.099   1.535  0.0123 -0.0003  0.0839
  886MOL0     C22148   7.186   0.132   1.627  0.0116  1.5142 -0.3604
  886MOL0     C22149   7.209   0.016   1.699  0.1173 -0.8717  1.1608
  886MOL0     C22150   7.310   0.020   1.808 -0.1479 -0.3999  1.2007
  886MOL0     C22151   7.449  -0.003   1.746  0.3226 -0.2694 -0.2190
  886MOL0     C22152   7.558   0.068   1.824  0.4233 -0.3025  0.4985
  886MOL0     C22153   7.684   0.078   1.745 -0.6138 -1.1649  0.7915
  886MOL0     O22154   7.740  -0.052   1.719  0.2078  0.2126  0.4783
  886MOL0     C22155   7.869  -0.060   1.690 -0.2772 -0.4491  0.0194
  886MOL0     C22156   7.939   0.012   1.583  0.3752 -0.0926  0.4303
  886MOL0     C22157   8.076  -0.013   1.566 -0.2477 -0.4343 -0.6529
  886MOL0     C22158   8.156   0.070   1.475  0.3783  0.4221 -0.6615
  886MOL0     C22159   8.142  -0.120   1.640  0.0682 -0.5418 -0.9076
  886MOL0     C22160   8.289  -0.155   1.636  0.0048 -0.5549  0.9203
  886MOL0     O22161   8.346  -0.205   1.753 -0.8511 -0.3825  0.2658
  886MOL0     C22162   8.481  -0.233   1.749  0.2009 -1.0664  0.0013
  886MOL0     C22163   8.566  -0.130   1.778  0.4855  0.0807  0.6300
  886MOL0     C22164   8.700  -0.149   1.790  0.7105  0.1482 -0.0868
  886MOL0     C22165   8.768  -0.270   1.754  0.1597  0.9857 -0.0804
  886MOL0     O22166   8.903  -0.278   1.763  0.1838  1.1913 -1.2115
  886MOL0     C22167   8.974  -0.374   1.684 -0.1754 -0.3634  0.6317
  886MOL0     C22168   9.126  -0.344   1.649  0.1100 -0.4358 -0.0863
  886MOL0     C22169   9.202  -0.306   1.773  0.1045  0.3630 -0.2698
  886MOL0     C22170   9.346  -0.253   1.735 -0.3398 -0.1588 -0.3347
  886MOL0     C22171   9.448  -0.358   1.708  0.1976  0.2465 -0.2203
  886MOL0     C22172   9.576  -0.298   1.658 -0.4418 -0.4257  0.6135
  886MOL0     C22173   9.680  -0.250   1.763  0.3911  0.0908  0.1629
  886MOL0     C22174   9.811  -0.196   1.705 -0.1626  0.8052  0.2986
  886MOL0    Cl22175   9.944  -0.180   1.832 -0.3469  0.2310 -0.6327
  886MOL0     C22176   8.676  -0.364   1.705  0.3230 -0.7208 -0.5565
  886MOL0     C22177   8.537  -0.352   1.698 -0.1889 -0.6830  0.3924
  886MOL0     O22178   8.346  -0.146   1.526 -0.4816 -0.1716 -0.5653
  886MOL0     C22179   8.075  -0.182   1.739 -0.5395  0.6021 -0.6850
  886MOL0     C22180   7.944  -0.145   1.766 -0.1217  0.4984 -0.1238
  886MOL0     N22181   7.122  -0.085   1.653 -0.4798 -0.5946  0.2932
  886MOL0     N22182   7.058  -0.030   1.557 -0.5202  0.5018 -1.1439
  886MOL0     C22183   5.947   0.171   1.630 -0.3645  0.7203  0.1508
  886MOL0     C22184   5.844   0.229   1.704  0.0083 -0.4054  0.6916
  886MOL0     C22185   5.643   0.512   2.002  0.2391 -0.5735 -0.2044
  886MOL0     C22186   5.532   0.428   2.010 -0.3658  0.2677 -0.4599
  886MOL0     C22187   5.413   0.460   2.077  0.0357  0.2112  0.4045
  886MOL0     C22188   5.391   0.594   2.109 -0.8465 -0.4159 -0.7687
  886MOL0     O22189   5.273   0.624   2.171 -0.0225 -1.0954 -0.5385
  886MOL0     C22190   5.226   0.757   2.171 -0.2422 -0.0202 -0.0169
  886MOL0     C22191   5.078   0.749   2.227  0.0210 -0.2950 -0.1827
  886MOL0     C22192   4.966   0.709   2.124  0.0194  0.6271  0.0298
  886MOL0     C22193   4.948   0.827   2.034  0.1891 -0.6676  0.4667
  886MOL0     C22194   4.888   0.789   1.905 -0.3712 -0.5520 -0.1126
  886MOL0     C22195   4.840   0.753   1.805  0.4911  0.0940  0.5046
  886MOL0     C22196   5.504   0.680   2.112 -0.4705 -0.1029 -0.6675
  886MOL0     C22197   5.630   0.646   2.052  0.9088  0.0036  0.9467
  886MOL0     C22198   5.736   0.760   2.042 -0.0841  1.1132  1.0734
  886MOL0     H22199   5.992   0.281   2.005 -1.6391 -0.1978  0.5986
  886MOL0     H22200   6.179   0.153   1.872  0.1771  2.5213 -0.0229
  886MOL0     H22201   6.372   0.087   1.605  0.3467  0.0696 -1.0126
  886MOL0     H22202   6.327   0.203   1.717  0.5424 -2.7102  1.8408
  886MOL0     H22203   6.229   0.215   1.417 -0.5098  2.6638 -1.3726
  886MOL0     H22204   6.228   0.352   1.537  0.7749 -0.6338  0.3175
  886MOL0     H22205   6.420   0.279   1.343  0.4011 -0.8146 -0.0968
  886MOL0     H22206   6.433   0.413   1.457 -0.3873 -0.6829 -0.8977
  886MOL0     H22207   6.558   0.260   1.621 -0.1786  2.7554 -1.1176
  886MOL0     H22208   6.549   0.132   1.492 -0.5339  0.3945 -3.3078
  886MOL0     H22209   6.692   0.392   1.495  0.4172  0.1338  0.6833
  886MOL0     H22210   6.679   0.301   1.349  2.1067 -0.6341 -0.1477
  886MOL0     H22211   6.781   0.185   1.618 -1.9885 -0.2584  0.3520
  886MOL0     H22212   6.795   0.103   1.467  0.9501 -0.3289  2.1100
  886MOL0     H22213   6.968   0.339   1.565  2.6877 -0.2678  0.1757
  886MOL0     H22214   6.896   0.346   1.396 -1.8020 -1.0878  0.0894
  886MOL0     H22215   6.982   0.119   1.355 -0.5980  3.2834 -0.7704
  886MOL0     H22216   7.094   0.237   1.371  0.6801 -0.2242  0.0301
  886MOL0     H22217   7.229   0.231   1.623  0.9565  1.0911 -1.1825
  886MOL0     H22218   7.289  -0.056   1.884 -1.3549 -0.8980  0.4021
  886MOL0     H22219   7.313   0.114   1.864  0.4944 -0.2645  0.9369
  886MOL0     H22220   7.474  -0.109   1.737  2.8293  0.3703 -1.7550
  886MOL0     H22221   7.444   0.035   1.643  0.3406  3.5890  1.0447
  886MOL0     H22222   7.517   0.167   1.845 -0.0772 -0.3851 -0.0644
  886MOL0     H22223   7.576   0.017   1.920  0.4647  1.3521  1.4067
  886MOL0     H22224   7.660   0.116   1.645  0.3566  0.1265  1.0285
  886MOL0     H22225   7.760   0.139   1.793  0.3895 -2.0269  0.3302
  886MOL0     H22226   7.876   0.080   1.527  0.1367  0.0392  0.8504
  886MOL0     H22227   8.258   0.086   1.512 -0.7523  2.1306  1.9938
  886MOL0     H22228   8.120   0.170   1.450 -0.2259  0.1803 -0.7851
  886MOL0     H22229   8.170   0.003   1.389 -1.1899  0.7613 -1.2098
  886MOL0     H22230   8.545  -0.028   1.809  1.1445  0.1552  0.8328
  886MOL0     H22231   8.758  -0.066   1.827 -3.5792  3.3168  0.2691
  886MOL0     H22232   8.981  -0.463   1.747 -1.0403 -0.2937  0.8397
  886MOL0     H22233   8.919  -0.394   1.592  1.2136 -0.2617 -0.2547
  886MOL0     H22234   9.163  -0.439   1.609 -2.7353 -2.2055  1.1593
  886MOL0     H22235   9.136  -0.264   1.575  1.6562 -1.1633 -0.6875
  886MOL0     H22236   9.194  -0.385   1.849 -2.1248 -0.2501 -1.0692
  886MOL0     H22237   9.139  -0.226   1.813 -1.9458 -0.3758 -1.8699
  886MOL0     H22238   9.391  -0.182   1.806 -2.3227  1.2295 -0.3991
  886MOL0     H22239   9.332  -0.189   1.647  1.5504  0.2751 -0.3806
  886MOL0     H22240   9.464  -0.418   1.797 -2.1073 -2.1652 -1.3005
  886MOL0     H22241   9.404  -0.428   1.637  3.0160 -1.2983 -0.5954
  886MOL0     H22242   9.544  -0.217   1.592  2.2434  0.9571  0.9062
  886MOL0     H22243   9.632  -0.379   1.610 -0.8693 -1.1046  1.2292
  886MOL0     H22244   9.712  -0.328   1.832 -0.7977  1.0512  1.9016
  886MOL0     H22245   9.629  -0.167   1.814 -1.7903 -0.1515 -1.4610
  886MOL0     H22246   9.784  -0.098   1.666  0.5013 -0.0844 -2.5943
  886MOL0     H22247   9.846  -0.254   1.619 -1.9418  2.2060 -1.4605
  886MOL0     H22248   8.723  -0.459   1.684  0.2486 -0.4903 -1.8407
  886MOL0     H22249   8.472  -0.430   1.659 -2.0338  1.1398 -0.3722
  886MOL0     H22250   8.110  -0.271   1.789  0.3685 -0.0522 -2.4127
  886MOL0     H22251   7.888  -0.196   1.844 -0.6532  0.7091 -0.3639
  886MOL0     H22252   5.935   0.127   1.532  1.8097 -1.7460  0.8930
  886MOL0     H22253   5.750   0.232   1.650  1.4904 -3.3873 -2.5199
  886MOL0     H22254   5.545   0.326   1.975  2.1926  1.2152 -2.6604
  886MOL0     H22255   5.337   0.387   2.100  0.7285 -0.5609  0.3187
  886MOL0     H22256   5.286   0.826   2.232 -1.4576  2.1997 -1.2026
  886MOL0     H22257   5.224   0.793   2.068  0.5714  0.5455  0.1511
  886MOL0     H22258   5.064   0.844   2.279 -0.3169 -1.7226  2.5530
  886MOL0     H22259   5.072   0.679   2.312  0.3872 -1.9616 -1.4718
  886MOL0     H22260   4.996   0.619   2.069 -0.1588  1.6705 -1.8511
  886MOL0     H22261   4.877   0.681   2.181  0.2861 -0.0180  0.1444
  886MOL0     H22262   5.042   0.874   2.007  2.2672 -3.7152  1.8201
  886MOL0     H22263   4.894   0.915   2.072  3.5352  1.1773  1.3466
  886MOL0     H22264   4.802   0.721   1.710 -1.7648 -1.6766  1.8966
  886MOL0     H22265   5.505   0.785   2.140 -0.3077 -0.7035  1.8050
  886MOL0     H22266   5.684   0.856   2.046 -1.0580  0.5672  2.9462
  886MOL0     H22267   5.809   0.763   2.124  0.3454 -0.5557  0.8022
  886MOL0     H22268   5.784   0.746   1.945  0.0629  2.6286  0.9033
  887MOL0     O22269   8.280  10.774   8.472  0.0015  0.2764  0.4416
  887MOL0     C22270   8.183  10.701   8.503 -0.2904 -0.5799 -0.2254
  887MOL0     O22271   8.192  10.605   8.594  0.0058 -0.7110 -0.7543
  887MOL0     C22272   8.317  10.563   8.640 -0.3199 -0.0549  0.2135
  887MOL0     C22273   8.311  10.522   8.770  0.4707  0.1509  0.9343
  887MOL0     C22274   8.417  10.492   8.851 -0.3307  0.3018  0.4383
  887MOL0     C22275   8.543  10.491   8.790  0.3679 -0.4500 -0.5823
  887MOL0     O22276   8.653  10.454   8.865 -0.4509 -0.3620  0.5107
  887MOL0     C22277   8.761  10.550   8.874  0.1765 -0.0005  0.0723
  887MOL0     C22278   8.870  10.479   8.949  0.4898 -0.1069 -0.3245
  887MOL0     C22279   9.002  10.551   8.938 -0.5342 -0.4419  0.3171
  887MOL0     C22280   9.105  10.492   9.026 -0.0597 -0.3050 -0.3253
  887MOL0     C22281   9.232  10.582   9.031 -0.1585 -0.3644  0.2106
  887MOL0     C22282   9.324  10.545   9.137  0.0111  0.5231 -0.7582
  887MOL0     C22283   9.297  10.614   9.262 -0.2322 -0.5921 -0.0701
  887MOL0     C22284   9.375  10.557   9.377 -0.8204 -0.2697 -0.2579
  887MOL0     N22285   9.521  10.583   9.363 -0.2187  0.3255  0.5504
  887MOL0     C22286   9.591  10.701   9.373  0.3954 -0.3752  0.3100
  887MOL0     C22287   9.719  10.670   9.366 -0.0626  0.3522 -0.4263
  887MOL0     C22288   9.820  10.782   9.375  0.1518 -0.0742 -0.2439
  887MOL0     C22289   9.904  10.813   9.253 -0.4600  0.1395  0.2103
  887MOL0     C22290   9.821  10.900   9.160 -0.4554 -0.4829  1.0594
  887MOL0     C22291   9.884  10.916   9.015 -0.4606  0.0757  0.3003
  887MOL0     O22292  10.002  11.005   9.020 -0.2394 -0.2712 -0.3962
  887MOL0     C22293  10.131  10.957   9.031 -0.0192 -0.1807 -0.6332
  887MOL0     C22294  10.172  10.830   9.061 -1.5730  0.1123  0.4219
  887MOL0     C22295  10.307  10.795   9.079 -0.5180  0.2802  0.4083
  887MOL0     C22296  10.338  10.652   9.102  0.6098  0.4922 -0.9797
  887MOL0     C22297  10.402  10.903   9.073 -0.4797 -0.8686  0.3118
  887MOL0     C22298  10.550  10.901   9.098  0.1512 -0.3068 -0.1831
  887MOL0     O22299  10.623  10.992   9.041 -0.9494  0.4141 -0.2356
  887MOL0     C22300  10.755  10.977   9.021 -0.1609  0.2698 -1.0091
  887MOL0     C22301  10.848  10.896   9.085 -0.3285 -0.6020 -0.0999
  887MOL0     C22302  10.986  10.893   9.052 -0.3797 -0.1104  0.0662
  887MOL0     C22303  11.030  10.981   8.949  0.2390  0.7711 -0.1279
  887MOL0     O22304  11.161  10.986   8.905  0.7885  0.1840 -0.0740
  887MOL0     C22305  11.259  10.904   8.976 -0.3587  0.1059  0.0077
  887MOL0     C22306  11.407  10.950   8.942 -0.4746  0.6293  0.1189
  887MOL0     C22307  11.508  10.840   8.984  0.1263 -0.4563 -1.0523
  887MOL0     C22308  11.508  10.709   8.900 -0.2668  0.0052  0.3054
  887MOL0     C22309  11.657  10.676   8.884 -0.3838  0.1123  0.4364
  887MOL0     C22310  11.667  10.535   8.816 -0.6195 -0.4214  0.0709
  887MOL0     C22311  11.821  10.497   8.787  0.5609 -0.3337  0.1798
  887MOL0     C22312  11.890  10.587   8.680 -0.1423  0.0150 -0.3382
  887MOL0    Cl22313  12.068  10.551   8.707  0.7272  0.1537 -0.3024
  887MOL0     C22314  10.937  11.065   8.883 -0.2517  0.9577  0.4163
  887MOL0     C22315  10.799  11.067   8.925 -0.2545 -0.4142 -0.1539
  887MOL0     O22316  10.586  10.800   9.161  0.4737 -0.7259  0.2758
  887MOL0     C22317  10.362  11.024   9.014  0.0208 -0.4691  0.1501
  887MOL0     C22318  10.228  11.051   8.990  0.0534 -0.1548 -0.4055
  887MOL0     N22319   9.737  10.530   9.338  0.0059  0.1713 -0.3967
  887MOL0     N22320   9.617  10.480   9.341  0.1487  0.3114 -0.0016
  887MOL0     C22321   8.555  10.539   8.659 -0.6200 -1.1322  0.1720
  887MOL0     C22322   8.436  10.576   8.585 -0.5429  0.5137  0.6553
  887MOL0     C22323   8.061  10.727   8.429  0.5421  0.1385 -0.2769
  887MOL0     C22324   7.969  10.621   8.420 -0.0326  0.2140  0.4947
  887MOL0     C22325   7.846  10.634   8.357  0.5310 -0.5009 -0.3234
  887MOL0     C22326   7.806  10.759   8.304  0.8862  0.5314  0.9672
  887MOL0     O22327   7.678  10.782   8.246  1.1881 -0.0675 -0.3205
  887MOL0     C22328   7.572  10.759   8.344  0.3223  0.0694 -0.5122
  887MOL0     C22329   7.503  10.637   8.287 -0.0185  0.7598  0.7637
  887MOL0     C22330   7.382  10.673   8.192 -0.0267 -0.4187 -0.5423
  887MOL0     C22331   7.317  10.549   8.116 -0.6776 -0.1831  0.3547
  887MOL0     C22332   7.209  10.609   8.029 -0.1170  0.3186  0.3986
  887MOL0     C22333   7.119  10.650   7.952  0.1353 -0.8001 -0.6975
  887MOL0     C22334   7.898  10.869   8.310  0.3371  0.0334 -0.3901
  887MOL0     C22335   8.020  10.854   8.379  0.0494 -0.6498 -0.1893
  887MOL0     C22336   8.103  10.981   8.395  0.7195 -0.2709  0.1732
  887MOL0     H22337   8.208  10.510   8.801  0.3690  1.1426  0.9991
  887MOL0     H22338   8.402  10.459   8.953 -0.2554  2.4931  1.2136
  887MOL0     H22339   8.740  10.639   8.934  0.5789  1.3234 -1.6663
  887MOL0     H22340   8.802  10.568   8.774 -0.0201 -2.4187 -0.5016
  887MOL0     H22341   8.855  10.470   9.057 -0.8116  0.5662 -0.4312
  887MOL0     H22342   8.883  10.373   8.925  3.7090 -0.1440  1.0236
  887MOL0     H22343   9.036  10.557   8.834 -1.9037  2.8141 -0.0623
  887MOL0     H22344   8.985  10.658   8.955  0.2194 -0.0129 -1.3834
  887MOL0     H22345   9.067  10.497   9.129  1.2719 -0.7971  0.2005
  887MOL0     H22346   9.126  10.386   9.010 -0.7565 -0.4039 -0.6496
  887MOL0     H22347   9.206  10.686   9.053 -0.0515 -0.7949  2.6090
  887MOL0     H22348   9.265  10.567   8.928 -3.1231 -2.4620 -0.5786
  887MOL0     H22349   9.309  10.440   9.166 -1.9850  0.9918  0.0804
  887MOL0     H22350   9.424  10.573   9.104  0.3231  1.8466  1.1451
  887MOL0     H22351   9.191  10.612   9.285  0.4670 -0.7063  3.8809
  887MOL0     H22352   9.327  10.719   9.259 -1.4920 -0.0141  3.3851
  887MOL0     H22353   9.343  10.604   9.470  1.8543  0.2930  0.4552
  887MOL0     H22354   9.367  10.448   9.383  5.0523 -1.0450 -0.6839
  887MOL0     H22355   9.545  10.797   9.394 -0.1416 -0.5809  0.0700
  887MOL0     H22356   9.877  10.765   9.466 -1.1275 -0.2743  0.5502
  887MOL0     H22357   9.764  10.874   9.397  1.9673  0.9285  0.4749
  887MOL0     H22358   9.996  10.862   9.285  0.5039 -0.6798 -1.2194
  887MOL0     H22359   9.932  10.720   9.204  3.2648 -0.0295  2.3197
  887MOL0     H22360   9.721  10.856   9.148  0.3007 -1.5660 -2.3413
  887MOL0     H22361   9.818  10.994   9.215 -2.1800 -1.1274  2.1559
  887MOL0     H22362   9.909  10.820   8.969  1.6461  1.5251 -1.8118
  887MOL0     H22363   9.816  10.973   8.951  1.5120  2.2574  0.0021
  887MOL0     H22364  10.101  10.749   9.075 -0.3685 -0.9892  0.3636
  887MOL0     H22365  10.252  10.585   9.093  0.5695  0.4630 -0.4198
  887MOL0     H22366  10.388  10.626   9.196  1.1155 -2.5806 -1.9961
  887MOL0     H22367  10.410  10.624   9.025  2.3005 -1.0222  1.0185
  887MOL0     H22368  10.813  10.840   9.171  0.0946 -0.5010  0.1384
  887MOL0     H22369  11.045  10.821   9.108 -2.7024 -2.5918 -0.5158
  887MOL0     H22370  11.244  10.922   9.083  1.5939 -1.6416  0.6559
  887MOL0     H22371  11.230  10.800   8.956 -4.4371  1.1613 -0.3376
  887MOL0     H22372  11.422  10.961   8.835 -0.6912 -0.8729 -0.0963
  887MOL0     H22373  11.430  11.043   8.995  0.6380  0.3071  0.2249
  887MOL0     H22374  11.473  10.819   9.085 -2.0857  3.7322 -0.7217
  887MOL0     H22375  11.610  10.881   8.985  0.1588 -0.5507 -0.3375
  887MOL0     H22376  11.468  10.709   8.798 -0.0810 -1.4336  0.2216
  887MOL0     H22377  11.461  10.632   8.961  0.9005  0.0198  1.2678
  887MOL0     H22378  11.707  10.748   8.819  2.5258 -2.1528 -0.0160
  887MOL0     H22379  11.719  10.681   8.974 -0.3020  0.2746  0.3711
  887MOL0     H22380  11.608  10.535   8.724 -1.0574  3.0731  0.1992
  887MOL0     H22381  11.617  10.452   8.866  1.2822 -1.3631  0.5004
  887MOL0     H22382  11.829  10.392   8.757  0.0827 -0.8484  1.7634
  887MOL0     H22383  11.878  10.512   8.879  1.4487 -0.7246 -0.2932
  887MOL0     H22384  11.879  10.695   8.694  0.9947  0.2448 -1.1022
  887MOL0     H22385  11.860  10.555   8.580 -2.0726 -3.5856  1.1990
  887MOL0     H22386  10.972  11.119   8.795  1.7191  0.6002  0.9387
  887MOL0     H22387  10.717  11.128   8.889 -1.2905 -1.1959  0.8093
  887MOL0     H22388  10.423  11.110   8.989  0.3839 -0.9913 -0.7879
  887MOL0     H22389  10.207  11.144   8.938  0.0862 -0.1051 -0.3296
  887MOL0     H22390   8.652  10.542   8.611 -0.9457  0.3061 -0.4585
  887MOL0     H22391   8.440  10.597   8.478 -0.6014 -2.4531 -0.0112
  887MOL0     H22392   7.991  10.521   8.456  2.5209  0.9820  1.2128
  887MOL0     H22393   7.774  10.553   8.353 -0.4594  0.2087  1.5282
  887MOL0     H22394   7.603  10.728   8.444 -0.6260 -4.1463 -1.3189
  887MOL0     H22395   7.509  10.848   8.351  0.9564  0.4330  1.0226
  887MOL0     H22396   7.461  10.571   8.364  0.3284 -0.6936 -0.2344
  887MOL0     H22397   7.577  10.575   8.234 -0.0965 -1.1603  2.7347
  887MOL0     H22398   7.308  10.717   8.260  0.1959  0.8080 -1.0666
  887MOL0     H22399   7.414  10.751   8.123 -0.7431  0.3680 -0.0092
  887MOL0     H22400   7.285  10.467   8.181  2.8029 -1.0969  1.1246
  887MOL0     H22401   7.391  10.506   8.047 -1.5565 -2.4106  0.6979
  887MOL0     H22402   7.059  10.686   7.870  0.8513 -1.6830 -1.6295
  887MOL0     H22403   7.874  10.964   8.265 -0.3452  1.2967  2.4118
  887MOL0     H22404   8.190  10.975   8.329  0.4284  3.7823 -0.7856
  887MOL0     H22405   8.045  11.070   8.369  0.7333  0.4036  2.2729
  887MOL0     H22406   8.131  11.004   8.499 -0.0562 -0.9149  0.5353
  888MOL0     O22407   3.472   5.456   3.685  0.2471  0.2725  0.4939
  888MOL0     C22408   3.474   5.407   3.572  0.4095 -0.6451 -0.2702
  888MOL0     O22409   3.578   5.400   3.488 -0.2558 -0.5842  0.3821
  888MOL0     C22410   3.713   5.408   3.528 -0.5369 -0.5637 -0.2842
  888MOL0     C22411   3.770   5.344   3.643  0.5787 -0.2119 -0.5053
  888MOL0     C22412   3.905   5.369   3.678 -0.2958 -0.1351 -0.6678
  888MOL0     C22413   3.984   5.440   3.591 -0.4906 -0.0543 -0.0110
  888MOL0     O22414   4.115   5.474   3.619  0.0173  0.1371 -0.2641
  888MOL0     C22415   4.205   5.377   3.567 -0.4283  0.4369  0.5678
  888MOL0     C22416   4.341   5.377   3.634 -0.1614  0.2745  0.4437
  888MOL0     C22417   4.449   5.292   3.558 -0.7250  0.2186 -0.7645
  888MOL0     C22418   4.563   5.248   3.646 -0.2436  1.4038 -0.0395
  888MOL0     C22419   4.645   5.358   3.700 -0.1317 -0.3949  0.1726
  888MOL0     C22420   4.736   5.432   3.594 -1.1417 -0.2074  0.2201
  888MOL0     C22421   4.825   5.336   3.512  0.4922  0.8676 -0.2673
  888MOL0     C22422   4.914   5.248   3.604 -0.2132  0.4795  0.7802
  888MOL0     N22423   5.011   5.322   3.682 -0.3182  0.1772 -0.4556
  888MOL0     C22424   5.016   5.373   3.810 -0.6425  0.1428 -0.0403
  888MOL0     C22425   5.137   5.419   3.826  0.1456 -0.1658  0.2859
  888MOL0     C22426   5.196   5.467   3.954  0.1147 -0.6600 -0.5356
  888MOL0     C22427   5.245   5.354   4.045  0.2191  0.9193 -0.6170
  888MOL0     C22428   5.390   5.322   4.029  0.4339  0.1109  0.3589
  888MOL0     C22429   5.426   5.271   3.893 -0.5941  0.5128  0.5799
  888MOL0     O22430   5.551   5.197   3.894 -0.6865 -0.1068  0.3651
  888MOL0     C22431   5.679   5.252   3.895  1.2013 -0.8310 -1.2381
  888MOL0     C22432   5.797   5.176   3.898 -0.1410 -0.5103 -1.3482
  888MOL0     C22433   5.929   5.233   3.883  0.1876  0.4111  0.0254
  888MOL0     C22434   6.043   5.133   3.890  0.2004 -0.1417 -0.7823
  888MOL0     C22435   5.938   5.371   3.862 -0.4626 -0.8175 -0.4151
  888MOL0     C22436   6.069   5.446   3.842 -0.1744 -0.2927 -0.8127
  888MOL0     O22437   6.189   5.381   3.859 -0.4906  0.6662  0.1399
  888MOL0     C22438   6.320   5.438   3.852 -0.3776 -0.7286  0.1842
  888MOL0     C22439   6.430   5.345   3.856  0.3904  0.4465  0.3840
  888MOL0     C22440   6.561   5.386   3.856 -0.2168  0.0172  0.3643
  888MOL0     C22441   6.592   5.526   3.859  0.1897 -0.4575 -0.1433
  888MOL0     O22442   6.718   5.571   3.850  0.6169 -0.2669 -0.3441
  888MOL0     C22443   6.749   5.712   3.864  0.2130  0.5974  0.0793
  888MOL0     C22444   6.900   5.725   3.842 -0.4906  0.9022  0.6821
  888MOL0     C22445   6.973   5.629   3.948  0.6048 -0.1477  0.4726
  888MOL0     C22446   7.123   5.667   3.944  0.4237  0.3917 -0.1946
  888MOL0     C22447   7.208   5.566   4.026 -0.2234  0.1409 -0.1980
  888MOL0     C22448   7.354   5.561   3.964  0.0920  0.1416  0.6562
  888MOL0     C22449   7.466   5.485   4.043  0.0228 -0.1666  0.1317
  888MOL0     C22450   7.606   5.517   3.993  0.7856  0.2683 -0.2591
  888MOL0    Cl22451   7.643   5.692   4.033  0.1256 -0.6075 -0.6242
  888MOL0     C22452   6.480   5.611   3.839 -0.2900 -0.2463  0.7559
  888MOL0     C22453   6.352   5.573   3.837  0.1544  0.8628 -0.4743
  888MOL0     O22454   6.057   5.567   3.851  0.8224  0.3959  0.5762
  888MOL0     C22455   5.817   5.445   3.849 -0.8060 -0.5183  0.3397
  888MOL0     C22456   5.688   5.389   3.868 -0.9340  0.0548  0.6994
  888MOL0     N22457   5.192   5.428   3.705 -0.7372 -0.5555  0.1272
  888MOL0     N22458   5.129   5.364   3.623 -0.5104  0.0755  0.0582
  888MOL0     C22459   3.933   5.493   3.479 -0.1627 -0.1826  0.5628
  888MOL0     C22460   3.800   5.478   3.449  0.3512 -0.4991 -0.5917
  888MOL0     C22461   3.357   5.331   3.513 -0.9494 -0.3292  0.1229
  888MOL0     C22462   3.372   5.239   3.415  0.0951 -0.3316 -0.4732
  888MOL0     C22463   3.270   5.153   3.379 -0.3730  0.4494  0.0783
  888MOL0     C22464   3.144   5.179   3.413 -0.4146 -0.4379  0.5426
  888MOL0     O22465   3.048   5.107   3.341 -0.4667 -0.2657 -0.5159
  888MOL0     C22466   2.914   5.150   3.370 -0.3905 -0.2705 -0.1802
  888MOL0     C22467   2.824   5.051   3.298  0.5715  0.0738  0.0536
  888MOL0     C22468   2.805   4.937   3.396 -0.3347  0.3894  0.5635
  888MOL0     C22469   2.693   4.970   3.495  0.7100  1.0323  0.8282
  888MOL0     C22470   2.685   4.878   3.604  0.2437 -1.2223 -0.5933
  888MOL0     C22471   2.681   4.800   3.694 -0.9733  0.5706  0.4046
  888MOL0     C22472   3.125   5.271   3.522  0.4020  0.6728  0.2412
  888MOL0     C22473   3.233   5.338   3.572 -0.3300 -0.0290 -0.4474
  888MOL0     C22474   3.203   5.437   3.692 -0.4196 -0.2608  0.1730
  888MOL0     H22475   3.703   5.292   3.711 -1.0330 -1.1204 -2.6818
  888MOL0     H22476   3.932   5.341   3.780  0.7908  0.0014 -0.9053
  888MOL0     H22477   4.218   5.395   3.460  0.6984 -0.2122  0.5681
  888MOL0     H22478   4.168   5.274   3.573  0.4827 -0.0672 -1.5233
  888MOL0     H22479   4.377   5.479   3.651 -0.0529  0.2680  0.2540
  888MOL0     H22480   4.332   5.325   3.730  0.8850  1.4192  1.1927
  888MOL0     H22481   4.404   5.206   3.507  1.7558 -0.7319 -1.5110
  888MOL0     H22482   4.482   5.361   3.480 -0.0795  2.1241  1.1110
  888MOL0     H22483   4.524   5.192   3.732  0.9271 -1.2778 -1.1320
  888MOL0     H22484   4.624   5.179   3.587 -1.4238  1.2568 -1.1476
  888MOL0     H22485   4.708   5.323   3.783  0.3816  0.5833  0.2154
  888MOL0     H22486   4.576   5.428   3.749 -2.8865 -1.9750 -1.2328
  888MOL0     H22487   4.676   5.488   3.521 -1.4089 -1.4001 -0.5047
  888MOL0     H22488   4.801   5.500   3.649 -1.9241  1.6714 -1.0758
  888MOL0     H22489   4.888   5.404   3.455  1.1266  0.0753 -0.5166
  888MOL0     H22490   4.770   5.283   3.434  2.0828  0.0154 -0.8514
  888MOL0     H22491   4.856   5.172   3.659  1.6469 -1.6778 -0.0952
  888MOL0     H22492   4.962   5.192   3.524  0.1290 -1.2406  2.1167
  888MOL0     H22493   4.952   5.349   3.894  0.9525 -1.7155  0.7432
  888MOL0     H22494   5.121   5.533   3.999  0.5922 -0.5600  0.1254
  888MOL0     H22495   5.284   5.530   3.937  1.1645 -0.8048  3.3482
  888MOL0     H22496   5.234   5.383   4.150 -1.5838 -0.2041 -0.4482
  888MOL0     H22497   5.191   5.262   4.022 -1.6871  1.9149 -0.3647
  888MOL0     H22498   5.457   5.404   4.058  0.3843 -0.0270  0.8786
  888MOL0     H22499   5.431   5.251   4.100  3.5450 -1.7787 -2.9796
  888MOL0     H22500   5.348   5.208   3.849  0.6169 -1.4728  1.1462
  888MOL0     H22501   5.423   5.363   3.833 -0.8973 -1.2500 -2.3253
  888MOL0     H22502   5.777   5.069   3.908  0.5834 -0.7603 -2.3851
  888MOL0     H22503   6.017   5.028   3.878  1.2146 -0.2945 -1.8168
  888MOL0     H22504   6.085   5.147   3.990 -0.9494 -0.6640 -0.2092
  888MOL0     H22505   6.114   5.159   3.811  2.2414 -0.8811  0.7303
  888MOL0     H22506   6.417   5.237   3.853  2.6618  0.0773  1.1991
  888MOL0     H22507   6.625   5.299   3.855 -3.2012 -2.3576 -0.2140
  888MOL0     H22508   6.694   5.770   3.790 -1.0447 -2.2047 -1.3516
  888MOL0     H22509   6.716   5.748   3.962  3.9394  4.5663  0.1244
  888MOL0     H22510   6.925   5.685   3.743 -0.1441  1.5593  0.4917
  888MOL0     H22511   6.941   5.827   3.849 -0.4467  0.8319  1.4702
  888MOL0     H22512   6.956   5.522   3.929 -0.1981  0.1879 -0.8625
  888MOL0     H22513   6.923   5.655   4.041 -1.5852 -0.2409 -0.5962
  888MOL0     H22514   7.125   5.761   4.000  2.5768 -0.6300  1.6194
  888MOL0     H22515   7.155   5.668   3.840  0.9859 -1.3977 -0.0708
  888MOL0     H22516   7.222   5.604   4.128 -0.9471  0.4598 -0.2093
  888MOL0     H22517   7.173   5.463   4.024  0.1354  0.0291 -1.4121
  888MOL0     H22518   7.393   5.663   3.969  2.1118 -0.6298  1.9454
  888MOL0     H22519   7.346   5.528   3.860 -2.0607  2.4865 -0.0272
  888MOL0     H22520   7.443   5.378   4.044  0.8099 -0.3626  2.2433
  888MOL0     H22521   7.450   5.514   4.147 -0.5452  1.7577 -0.4454
  888MOL0     H22522   7.614   5.491   3.887  0.4144 -1.5369  0.1110
  888MOL0     H22523   7.674   5.444   4.037 -0.4335 -0.9192 -0.2573
  888MOL0     H22524   6.494   5.718   3.828 -0.0453 -0.4802 -1.6045
  888MOL0     H22525   6.273   5.641   3.808 -0.8194 -0.7146 -1.6616
  888MOL0     H22526   5.821   5.550   3.821 -1.6288 -1.2849 -3.0054
  888MOL0     H22527   5.602   5.454   3.858  0.5587  1.8915 -1.0185
  888MOL0     H22528   4.005   5.530   3.407 -2.1202 -3.0601 -3.2598
  888MOL0     H22529   3.762   5.510   3.353  3.8983  1.0326 -1.6638
  888MOL0     H22530   3.470   5.220   3.370  1.0335  0.0008  1.3413
  888MOL0     H22531   3.299   5.081   3.304  0.9012  1.0799 -0.0515
  888MOL0     H22532   2.896   5.148   3.478 -1.1379  1.3701 -0.2413
  888MOL0     H22533   2.911   5.250   3.325  1.5110  0.1010  0.4375
  888MOL0     H22534   2.875   5.021   3.206 -0.4119 -0.9166 -0.1950
  888MOL0     H22535   2.720   5.074   3.273  0.6248 -0.2330 -0.4550
  888MOL0     H22536   2.789   4.846   3.336 -2.1910  0.4472  0.9142
  888MOL0     H22537   2.895   4.915   3.455 -1.1577 -0.8493  1.4047
  888MOL0     H22538   2.603   4.971   3.432  0.6845  5.2450  0.6237
  888MOL0     H22539   2.699   5.072   3.533  2.0670  1.2048  0.1995
  888MOL0     H22540   2.681   4.745   3.787  2.6182 -0.2357  0.0527
  888MOL0     H22541   3.028   5.272   3.572  0.3729 -0.9046  0.2708
  888MOL0     H22542   3.096   5.449   3.711 -0.4420 -0.6733  0.3163
  888MOL0     H22543   3.256   5.410   3.784  3.3288  2.5317 -0.9137
  888MOL0     H22544   3.246   5.536   3.674 -3.2560  0.6372 -2.5990
  889MOL0     O22545   9.675   4.160   9.585  0.7899 -0.2830  0.1370
  889MOL0     C22546   9.686   4.254   9.670 -0.4476  0.2531 -0.1758
  889MOL0     O22547   9.795   4.334   9.676 -0.4632 -0.4114  0.0460
  889MOL0     C22548   9.888   4.314   9.578 -0.4381  0.0576  0.2658
  889MOL0     C22549   9.888   4.380   9.455  0.8392 -0.9709  0.1678
  889MOL0     C22550   9.974   4.352   9.355  0.0893 -0.9551 -0.4793
  889MOL0     C22551  10.080   4.260   9.374 -0.8500 -0.3794 -0.6026
  889MOL0     O22552  10.163   4.227   9.269  0.1051 -0.7109  0.0061
  889MOL0     C22553  10.293   4.281   9.282 -0.4996  0.0038  0.5999
  889MOL0     C22554  10.397   4.187   9.222  0.3406  0.1811 -0.1977
  889MOL0     C22555  10.524   4.260   9.181  0.3598 -0.2952  0.0469
  889MOL0     C22556  10.621   4.176   9.103 -0.4399  0.7740 -0.2783
  889MOL0     C22557  10.754   4.245   9.088  0.2393  0.1236 -0.0487
  889MOL0     C22558  10.861   4.144   9.040 -0.2615 -0.5942  0.3393
  889MOL0     C22559  10.996   4.213   9.055  1.2451  0.0380  0.8240
  889MOL0     C22560  11.066   4.193   9.193  0.5642 -1.1434  0.0064
  889MOL0     N22561  11.199   4.249   9.186  0.2760  0.1275  0.6324
  889MOL0     C22562  11.308   4.181   9.156  0.0625 -0.6677 -0.5849
  889MOL0     C22563  11.405   4.270   9.187 -0.1362 -0.3158 -0.6334
  889MOL0     C22564  11.549   4.253   9.181 -0.3461  0.4830  0.2047
  889MOL0     C22565  11.578   4.206   9.042 -0.7588 -0.5073 -0.4827
  889MOL0     C22566  11.719   4.223   9.004  0.6057 -0.7794  0.0802
  889MOL0     C22567  11.741   4.166   8.857  0.1166 -1.2470 -0.3809
  889MOL0     O22568  11.686   4.040   8.845  0.8427  0.1467  0.0801
  889MOL0     C22569  11.608   4.002   8.736 -0.2675  0.3603 -0.3962
  889MOL0     C22570  11.543   3.887   8.761  0.1664  0.4710  0.0271
  889MOL0     C22571  11.465   3.831   8.669 -0.9030 -0.5515  0.5169
  889MOL0     C22572  11.401   3.700   8.702  0.2476  0.2439  0.1296
  889MOL0     C22573  11.435   3.897   8.546 -0.3501 -0.2554 -0.5877
  889MOL0     C22574  11.342   3.858   8.442 -0.2222 -0.1096 -0.1627
  889MOL0     O22575  11.316   3.946   8.347  0.1738  0.2812  0.8579
  889MOL0     C22576  11.218   3.925   8.250 -0.8417 -0.0394  0.6763
  889MOL0     C22577  11.097   3.996   8.254 -0.3385  0.3774 -0.8734
  889MOL0     C22578  10.997   3.965   8.159 -0.5570 -0.4404  0.1219
  889MOL0     C22579  11.027   3.874   8.057  0.2816  0.2517 -0.3630
  889MOL0     O22580  10.945   3.829   7.968 -0.1340 -0.7306 -1.0329
  889MOL0     C22581  10.815   3.765   8.005 -0.7644 -0.2060 -0.4477
  889MOL0     C22582  10.718   3.729   7.887  0.3085 -0.6461  0.4391
  889MOL0     C22583  10.687   3.848   7.799 -0.7734 -0.2355 -0.5822
  889MOL0     C22584  10.589   3.811   7.699 -0.4153  0.5400  0.4057
  889MOL0     C22585  10.653   3.779   7.561 -0.1239 -0.2354  0.4603
  889MOL0     C22586  10.540   3.745   7.461 -0.9389 -0.4950  0.5646
  889MOL0     C22587  10.595   3.750   7.321  0.0392 -0.3882  0.1232
  889MOL0     C22588  10.479   3.749   7.222  0.3063 -0.2190  0.1153
  889MOL0    Cl22589  10.400   3.906   7.225  0.0526  0.3973 -0.5429
  889MOL0     C22590  11.157   3.825   8.034  0.3302 -0.5105 -0.3038
  889MOL0     C22591  11.245   3.835   8.148 -0.2154  0.6637  0.5410
  889MOL0     O22592  11.294   3.748   8.449  0.3810 -0.1909 -0.1855
  889MOL0     C22593  11.505   4.013   8.515  0.5046 -0.3927 -0.0771
  889MOL0     C22594  11.594   4.072   8.611  0.0888  0.0302  0.5295
  889MOL0     N22595  11.346   4.392   9.223 -0.4550  0.2131 -0.2996
  889MOL0     N22596  11.219   4.376   9.221 -0.0558 -0.3403 -0.6437
  889MOL0     C22597  10.080   4.184   9.496 -0.2003 -0.4892 -0.7225
  889MOL0     C22598   9.989   4.212   9.600  0.0357  0.5379  0.5403
  889MOL0     C22599   9.590   4.280   9.774 -0.7566  0.7510  0.3974
  889MOL0     C22600   9.526   4.167   9.824  0.4388  0.3441 -0.0429
  889MOL0     C22601   9.453   4.174   9.946  0.7200 -0.4008 -0.1048
  889MOL0     C22602   9.433   4.299  10.007  0.2649 -0.2071  0.3566
  889MOL0     O22603   9.346   4.311  10.107  0.5893  0.1627  0.6776
  889MOL0     C22604   9.232   4.399  10.106  0.1648  0.8521 -0.0031
  889MOL0     C22605   9.114   4.349  10.027  0.8473 -0.1210  1.0590
  889MOL0     C22606   9.058   4.225  10.089  0.6661 -0.3172  0.5880
  889MOL0     C22607   8.909   4.203  10.053 -0.0089 -0.0195 -0.0151
  889MOL0     C22608   8.844   4.083  10.105  1.1386  0.1603  0.6716
  889MOL0     C22609   8.794   3.978  10.139  0.6987  0.7105 -0.4681
  889MOL0     C22610   9.480   4.414   9.949  0.1701 -0.4902  0.2715
  889MOL0     C22611   9.563   4.403   9.835  0.5808  0.4554 -1.1103
  889MOL0     C22612   9.601   4.536   9.774 -0.9039 -0.0692  0.2499
  889MOL0     H22613   9.803   4.447   9.445  0.1013 -1.8572  0.4242
  889MOL0     H22614   9.967   4.409   9.264  0.3904  1.8568  1.1509
  889MOL0     H22615  10.330   4.304   9.382  1.1822  0.7558 -0.1660
  889MOL0     H22616  10.294   4.376   9.228 -0.4701  0.0077  0.6080
  889MOL0     H22617  10.413   4.104   9.291 -3.3739 -1.1557 -0.6970
  889MOL0     H22618  10.360   4.125   9.139  0.3736 -0.6955  0.4272
  889MOL0     H22619  10.491   4.347   9.124 -2.3032  1.4585  3.8906
  889MOL0     H22620  10.571   4.284   9.276  0.7956 -0.4608 -0.1270
  889MOL0     H22621  10.628   4.086   9.165 -0.5387  0.1211 -1.1889
  889MOL0     H22622  10.579   4.157   9.004 -1.2567 -2.6455  0.5804
  889MOL0     H22623  10.799   4.279   9.181  4.0418 -0.8579 -1.3534
  889MOL0     H22624  10.747   4.334   9.024  0.6709  0.5183  0.4428
  889MOL0     H22625  10.857   4.043   9.082 -2.4478 -1.2888 -1.4059
  889MOL0     H22626  10.841   4.128   8.934 -0.0016  0.2117  0.1580
  889MOL0     H22627  10.984   4.321   9.041  2.1330  0.3389  2.2195
  889MOL0     H22628  11.063   4.168   8.980  0.0671 -1.1134  0.4317
  889MOL0     H22629  11.003   4.236   9.271 -2.8791 -1.7974 -2.1777
  889MOL0     H22630  11.068   4.086   9.218  2.9430 -0.7883  1.6234
  889MOL0     H22631  11.318   4.078   9.122 -1.8699 -1.1768  0.2559
  889MOL0     H22632  11.578   4.174   9.250 -0.3015 -0.8470 -1.2886
  889MOL0     H22633  11.610   4.336   9.217  1.3962  0.0877 -1.6278
  889MOL0     H22634  11.550   4.100   9.033 -1.2819 -0.2705 -2.0051
  889MOL0     H22635  11.523   4.266   8.969  0.9863  4.6024  1.8997
  889MOL0     H22636  11.736   4.330   8.991  0.8036 -0.8890 -0.6185
  889MOL0     H22637  11.777   4.174   9.083  1.1081 -0.3267 -0.0029
  889MOL0     H22638  11.701   4.235   8.783 -0.7389  0.7160  1.7877
  889MOL0     H22639  11.848   4.144   8.862  0.6783  1.4125  2.6605
  889MOL0     H22640  11.556   3.830   8.853 -0.4952  0.1735 -0.0558
  889MOL0     H22641  11.418   3.630   8.620 -1.2778 -2.1899  1.7557
  889MOL0     H22642  11.292   3.711   8.708  0.1577  1.5670 -2.5179
  889MOL0     H22643  11.435   3.655   8.795 -0.9440  0.8654  0.8922
  889MOL0     H22644  11.085   4.065   8.337  1.1999 -0.0540 -0.2480
  889MOL0     H22645  10.899   4.011   8.162 -0.5040 -0.3482  2.4761
  889MOL0     H22646  10.833   3.674   8.064 -1.5274  1.2086  2.1596
  889MOL0     H22647  10.765   3.836   8.072 -0.4696 -1.9093  1.6915
  889MOL0     H22648  10.752   3.654   7.815 -2.7828 -0.9460 -0.8511
  889MOL0     H22649  10.621   3.709   7.934 -1.8563  1.5668 -2.7050
  889MOL0     H22650  10.781   3.873   7.749  0.0993 -0.6443  0.8085
  889MOL0     H22651  10.662   3.937   7.858  1.3505 -0.2134  0.3681
  889MOL0     H22652  10.512   3.888   7.683  0.4007  1.1517 -0.7205
  889MOL0     H22653  10.538   3.721   7.735  3.5701 -2.5408 -0.9261
  889MOL0     H22654  10.714   3.864   7.528  0.0881  0.4199  2.3960
  889MOL0     H22655  10.709   3.685   7.573 -2.6184 -1.7965  0.4763
  889MOL0     H22656  10.460   3.820   7.462 -0.5118  0.0686 -1.8729
  889MOL0     H22657  10.510   3.643   7.487  1.3131 -1.1770  0.6826
  889MOL0     H22658  10.639   3.659   7.279  1.0444  0.6017 -1.0522
  889MOL0     H22659  10.663   3.830   7.291  0.3860 -1.4004 -1.9679
  889MOL0     H22660  10.394   3.685   7.246  0.5325 -0.7054 -0.3528
  889MOL0     H22661  10.510   3.721   7.121 -0.8908  1.7265 -0.8545
  889MOL0     H22662  11.174   3.768   7.943 -1.3727 -0.0237 -0.9620
  889MOL0     H22663  11.339   3.782   8.152 -1.3807 -1.4812  4.3496
  889MOL0     H22664  11.482   4.073   8.427  2.0523  3.1243  1.6992
  889MOL0     H22665  11.649   4.162   8.586 -0.0517  0.3405  1.3254
  889MOL0     H22666  10.155   4.110   9.521  0.6099  0.2823 -0.8473
  889MOL0     H22667   9.993   4.158   9.694  1.3052 -0.0099  0.1980
  889MOL0     H22668   9.544   4.068   9.784 -0.4177 -0.4331  1.3932
  889MOL0     H22669   9.399   4.096   9.998 -1.1910  0.4820 -0.6779
  889MOL0     H22670   9.195   4.423  10.206  0.9984  2.0152  0.0514
  889MOL0     H22671   9.255   4.502  10.075  2.4384  0.7588  1.1907
  889MOL0     H22672   9.146   4.325   9.926 -2.0068  1.1345 -0.2477
  889MOL0     H22673   9.032   4.422  10.024 -1.6922 -2.7847 -1.6529
  889MOL0     H22674   9.114   4.141  10.047  0.2491  0.0808 -0.7895
  889MOL0     H22675   9.075   4.239  10.196  0.5859 -3.3180  1.0901
  889MOL0     H22676   8.903   4.209   9.944 -1.7226 -0.2536  0.0399
  889MOL0     H22677   8.861   4.294  10.091  0.6198 -0.0765  0.9720
  889MOL0     H22678   8.743   3.888  10.163  0.0310  0.6346 -2.0697
  889MOL0     H22679   9.455   4.514   9.982 -0.0288 -0.1220 -0.9323
  889MOL0     H22680   9.558   4.618   9.832 -1.3486 -1.7369  2.4010
  889MOL0     H22681   9.710   4.549   9.772 -0.7730 -0.8752  1.2026
  889MOL0     H22682   9.570   4.534   9.669  0.7697 -0.5804 -0.2758
  890MOL0     O22683   1.637  10.852   1.388  0.0618  0.0246  0.0441
  890MOL0     C22684   1.588  10.812   1.497 -0.7806  0.9031  0.2037
  890MOL0     O22685   1.649  10.722   1.584  0.5288 -0.9733  0.6139
  890MOL0     C22686   1.784  10.700   1.559  0.0449  0.3244  0.0688
  890MOL0     C22687   1.893  10.769   1.609  0.2085  0.0479 -0.0087
  890MOL0     C22688   2.022  10.741   1.573  0.3012  0.1202  1.0415
  890MOL0     C22689   2.043  10.637   1.476 -0.1372  0.1690 -0.0027
  890MOL0     O22690   2.174  10.605   1.447 -0.1540 -0.3186  0.0437
  890MOL0     C22691   2.214  10.488   1.378 -0.6192  0.2445  0.5731
  890MOL0     C22692   2.374  10.478   1.380  0.2917  0.1921 -0.4707
  890MOL0     C22693   2.429  10.436   1.511 -0.5811 -0.9562  0.4048
  890MOL0     C22694   2.582  10.442   1.512 -0.7794 -0.3539 -1.1603
  890MOL0     C22695   2.638  10.331   1.422  1.1531  0.2891 -0.3213
  890MOL0     C22696   2.781  10.300   1.448 -0.1937 -0.0427 -0.7181
  890MOL0     C22697   2.829  10.191   1.346 -0.6959 -0.5319 -0.5767
  890MOL0     C22698   2.980  10.165   1.377  0.0243 -0.5149  0.2040
  890MOL0     N22699   3.042  10.088   1.266 -0.2574 -0.1946  0.5944
  890MOL0     C22700   3.133  10.148   1.182  0.3604  0.1040  0.1154
  890MOL0     C22701   3.158  10.048   1.096 -0.7867 -0.0781 -0.0824
  890MOL0     C22702   3.259  10.060   0.989  0.4449  0.6033 -0.0689
  890MOL0     C22703   3.261   9.938   0.883  0.6658 -0.1939 -0.7430
  890MOL0     C22704   3.395   9.937   0.806  0.3764  0.0938  0.5802
  890MOL0     C22705   3.423  10.062   0.738 -0.2302 -0.1177  0.0349
  890MOL0     O22706   3.489  10.029   0.619  0.6684  0.4400  0.2522
  890MOL0     C22707   3.519  10.136   0.536  0.3614  0.2046  0.0984
  890MOL0     C22708   3.408  10.196   0.469 -0.1436  0.2885  0.7407
  890MOL0     C22709   3.422  10.308   0.384  0.6480  0.2858 -0.3722
  890MOL0     C22710   3.303  10.390   0.341  0.0027 -0.0124  0.5031
  890MOL0     C22711   3.559  10.349   0.361 -0.0901 -0.4725  0.4239
  890MOL0     C22712   3.595  10.463   0.267 -0.5256  0.2746 -0.3897
  890MOL0     O22713   3.502  10.513   0.181 -0.1476  0.3531  0.2499
  890MOL0     C22714   3.527  10.604   0.070  1.7486 -0.8545 -0.9542
  890MOL0     C22715   3.602  10.718   0.085  0.6163  0.7489  0.2320
  890MOL0     C22716   3.619  10.809  -0.023 -0.7259  0.1768  0.0227
  890MOL0     C22717   3.557  10.781  -0.146 -1.8254 -0.0999  0.9833
  890MOL0     O22718   3.573  10.877  -0.246  0.2839 -0.1853 -0.2950
  890MOL0     C22719   3.481  10.902  -0.360  0.3173 -0.8725 -0.7198
  890MOL0     C22720   3.457  11.045  -0.385  0.1318  0.5411 -0.8894
  890MOL0     C22721   3.594  11.126  -0.399  0.3310 -0.5004 -0.3000
  890MOL0     C22722   3.561  11.267  -0.455  0.2857 -0.5241 -0.8087
  890MOL0     C22723   3.671  11.371  -0.441 -1.0413 -0.1154 -0.8138
  890MOL0     C22724   3.729  11.365  -0.302  0.2301 -0.1106 -0.1857
  890MOL0     C22725   3.784  11.499  -0.262 -0.2831 -0.1962  0.1194
  890MOL0     C22726   3.874  11.501  -0.145  1.1695  0.1663 -0.7482
  890MOL0    Cl22727   3.932  11.670  -0.099 -0.4895  0.2178  0.2196
  890MOL0     C22728   3.491  10.667  -0.165 -0.2500 -0.2020 -0.4189
  890MOL0     C22729   3.479  10.577  -0.062 -0.0658  0.4765 -0.5358
  890MOL0     O22730   3.708  10.501   0.276 -0.5137  0.6482  0.3632
  890MOL0     C22731   3.665  10.282   0.421 -0.0579  0.8463 -0.0498
  890MOL0     C22732   3.643  10.177   0.502  0.4151 -0.7634  0.4876
  890MOL0     N22733   3.086   9.931   1.122  0.1642 -0.0337 -0.1511
  890MOL0     N22734   3.030   9.952   1.235  0.1826 -0.3246 -0.1699
  890MOL0     C22735   1.934  10.577   1.411 -0.4543 -0.0202  0.5448
  890MOL0     C22736   1.811  10.613   1.447 -0.0338  0.5091  0.1678
  890MOL0     C22737   1.463  10.874   1.533  0.4058  0.2266  0.5519
  890MOL0     C22738   1.414  10.839   1.662 -0.0600 -0.1960 -0.7293
  890MOL0     C22739   1.301  10.905   1.718  0.0172 -0.4146  0.1557
  890MOL0     C22740   1.231  11.006   1.648 -0.1028  0.4506  0.0611
  890MOL0     O22741   1.128  11.076   1.702  0.9837 -0.7566 -0.1254
  890MOL0     C22742   1.117  11.067   1.847  0.6683  0.4173  0.2735
  890MOL0     C22743   0.992  11.146   1.894  0.5405  0.0385  0.4956
  890MOL0     C22744   0.950  11.091   2.037 -0.1048 -0.2312  0.0982
  890MOL0     C22745   0.813  11.138   2.074  0.8639 -0.1017 -0.3910
  890MOL0     C22746   0.779  11.101   2.210 -0.0423 -1.1656  0.0395
  890MOL0     C22747   0.760  11.060   2.324  0.4284  0.0329 -0.0336
  890MOL0     C22748   1.283  11.031   1.520  1.1113  0.1136 -0.0731
  890MOL0     C22749   1.386  10.965   1.456  0.2917 -0.1843  0.4554
  890MOL0     C22750   1.416  11.010   1.318 -0.2125  0.3005  0.2177
  890MOL0     H22751   1.862  10.838   1.687 -0.6294  0.1331 -0.4136
  890MOL0     H22752   2.094  10.807   1.621  1.9451 -0.3865 -0.6296
  890MOL0     H22753   2.182  10.477   1.274  3.0867 -0.5769 -0.6095
  890MOL0     H22754   2.174  10.395   1.418 -3.4444  1.6729  1.3295
  890MOL0     H22755   2.398  10.402   1.304 -0.8848  0.6823 -1.3632
  890MOL0     H22756   2.417  10.576   1.359 -4.8560  2.1125 -4.1835
  890MOL0     H22757   2.395  10.511   1.583 -2.5313 -1.4844  0.0791
  890MOL0     H22758   2.390  10.338   1.537 -0.6869 -1.2230 -0.7132
  890MOL0     H22759   2.623  10.539   1.483  0.6575 -1.4983 -3.2158
  890MOL0     H22760   2.612  10.418   1.614 -1.8162 -0.0387 -0.7677
  890MOL0     H22761   2.619  10.357   1.317  0.4903  0.8602 -0.0592
  890MOL0     H22762   2.576  10.244   1.445 -1.6673  1.8110 -1.7011
  890MOL0     H22763   2.838  10.392   1.437  0.6494 -0.5272 -0.4941
  890MOL0     H22764   2.797  10.259   1.549 -0.6082  0.8117 -0.2916
  890MOL0     H22765   2.802  10.227   1.246 -0.1387  1.4923 -0.0411
  890MOL0     H22766   2.771  10.099   1.358 -1.5536 -0.0735 -1.0993
  890MOL0     H22767   3.021  10.266   1.388 -3.8393  1.2150  0.3454
  890MOL0     H22768   2.979  10.112   1.473 -1.1762 -1.1088 -0.1283
  890MOL0     H22769   3.180  10.245   1.191  3.2108 -1.2648  1.4086
  890MOL0     H22770   3.362  10.053   1.026  0.8061  0.5162 -1.0694
  890MOL0     H22771   3.233  10.152   0.935 -0.8347 -0.3406 -1.1302
  890MOL0     H22772   3.255   9.842   0.935 -1.2488 -2.1314 -4.2024
  890MOL0     H22773   3.174   9.949   0.817 -0.6441  2.5911  1.2196
  890MOL0     H22774   3.477   9.905   0.870 -0.6081 -0.5472  1.5555
  890MOL0     H22775   3.385   9.862   0.727 -0.1414  1.0044 -0.2596
  890MOL0     H22776   3.334  10.125   0.727  0.1838  0.1361 -2.4446
  890MOL0     H22777   3.501  10.119   0.789 -0.5587  1.8929 -1.5760
  890MOL0     H22778   3.306  10.179   0.502 -0.0781  1.0422  1.3443
  890MOL0     H22779   3.320  10.494   0.372 -1.6275  0.3509  0.2626
  890MOL0     H22780   3.215  10.360   0.399  1.8909 -0.5548  3.2561
  890MOL0     H22781   3.279  10.387   0.234 -0.7443  0.7235  0.6410
  890MOL0     H22782   3.660  10.738   0.174  1.1249  3.6019 -0.6560
  890MOL0     H22783   3.674  10.902  -0.014 -2.7560  1.3545  0.9851
  890MOL0     H22784   3.520  10.869  -0.457  0.1677  0.8525 -1.3856
  890MOL0     H22785   3.390  10.842  -0.359 -0.3878  0.1561 -1.6391
  890MOL0     H22786   3.393  11.043  -0.473 -1.5056  1.9979  0.2087
  890MOL0     H22787   3.404  11.084  -0.298 -0.8383 -0.5652 -0.9641
  890MOL0     H22788   3.663  11.078  -0.469 -1.1860 -0.8183 -1.6595
  890MOL0     H22789   3.634  11.133  -0.298  0.8307 -0.7539 -0.4785
  890MOL0     H22790   3.463  11.296  -0.416 -0.2786 -3.9534  0.5878
  890MOL0     H22791   3.557  11.258  -0.564 -0.9896 -2.4311 -0.6571
  890MOL0     H22792   3.749  11.365  -0.518  0.3849  0.8561  0.4970
  890MOL0     H22793   3.628  11.471  -0.445  1.2480  0.9920  0.1224
  890MOL0     H22794   3.806  11.287  -0.293 -1.7814 -2.2458 -0.5562
  890MOL0     H22795   3.649  11.345  -0.229 -0.5875 -2.3752 -1.6211
  890MOL0     H22796   3.697  11.561  -0.241 -0.7821  0.0272 -2.3493
  890MOL0     H22797   3.828  11.540  -0.353 -0.6968 -0.2626 -0.1100
  890MOL0     H22798   3.958  11.432  -0.152 -0.1337 -1.4056 -1.5033
  890MOL0     H22799   3.814  11.469  -0.059  3.5869 -1.0024  0.6016
  890MOL0     H22800   3.435  10.662  -0.258  0.0651  2.1167 -0.8040
  890MOL0     H22801   3.423  10.485  -0.078 -1.2067  1.2810 -1.2810
  890MOL0     H22802   3.767  10.300   0.388 -0.2554 -0.3999 -1.4643
  890MOL0     H22803   3.723  10.120   0.548  0.1025 -0.0369  1.9876
  890MOL0     H22804   1.943  10.507   1.329 -0.0497  0.2922  0.3182
  890MOL0     H22805   1.728  10.576   1.387 -0.3874  0.3076  0.7759
  890MOL0     H22806   1.463  10.756   1.713  0.0582 -1.4553 -2.8030
  890MOL0     H22807   1.275  10.879   1.821 -0.2313 -2.1631 -0.3216
  890MOL0     H22808   1.092  10.964   1.873 -0.8149 -0.2639 -3.2198
  890MOL0     H22809   1.210  11.097   1.895  1.2749 -1.0936  0.0799
  890MOL0     H22810   0.920  11.120   1.816  1.1565  0.4239 -0.2137
  890MOL0     H22811   1.007  11.254   1.893 -2.3446  0.5187  0.0743
  890MOL0     H22812   0.947  10.982   2.041  0.2504 -0.2839 -0.8490
  890MOL0     H22813   1.026  11.134   2.103  0.6751  0.1893 -1.0391
  890MOL0     H22814   0.741  11.095   2.003 -1.2842  1.2543  0.8671
  890MOL0     H22815   0.796  11.246   2.064  1.3724  0.4056  3.0257
  890MOL0     H22816   0.736  11.042   2.427  0.5494 -4.2525 -0.5627
  890MOL0     H22817   1.235  11.107   1.460  0.3515 -2.2815 -2.7264
  890MOL0     H22818   1.510  11.066   1.318  0.2722 -0.4675  1.2737
  890MOL0     H22819   1.431  10.929   1.246  2.5260  1.6868 -0.9008
  890MOL0     H22820   1.344  11.080   1.276  2.1890  1.9587 -1.3725
  891MOL0     O22821   9.042   1.838   6.236 -0.5141 -0.5270  0.3573
  891MOL0     C22822   9.023   1.944   6.290  0.0594  0.7205 -0.5069
  891MOL0     O22823   9.058   2.065   6.240 -0.8649 -0.2087  0.8658
  891MOL0     C22824   9.176   2.057   6.164 -0.3759  0.1522  0.3242
  891MOL0     C22825   9.304   2.094   6.221  0.2870  0.8555 -0.8423
  891MOL0     C22826   9.419   2.082   6.145  0.4343  0.4340  1.2221
  891MOL0     C22827   9.418   2.037   6.011  0.5978 -0.3069  0.3502
  891MOL0     O22828   9.535   2.028   5.948 -0.0253 -0.1511 -0.6603
  891MOL0     C22829   9.540   1.980   5.818  0.7564  0.2456  0.1123
  891MOL0     C22830   9.681   1.959   5.773  0.7551  0.1997 -0.9335
  891MOL0     C22831   9.686   1.900   5.636 -0.0774  0.4483 -0.0836
  891MOL0     C22832   9.830   1.881   5.582 -0.4924  0.0400  0.9449
  891MOL0     C22833   9.854   1.779   5.463  0.4908  0.7946 -0.8770
  891MOL0     C22834   9.900   1.646   5.524 -0.7437 -0.2932  0.6468
  891MOL0     C22835   9.875   1.538   5.423  0.4704 -0.6843 -0.5081
  891MOL0     C22836   9.916   1.401   5.480  0.2651  0.1559 -0.1909
  891MOL0     N22837  10.060   1.377   5.457 -0.0222 -0.4330  0.5847
  891MOL0     C22838  10.120   1.317   5.348  0.4228 -0.6725  0.0120
  891MOL0     C22839  10.251   1.348   5.370  0.1542 -0.3979 -1.0159
  891MOL0     C22840  10.355   1.299   5.284 -0.2171  0.6301 -0.3849
  891MOL0     C22841  10.470   1.392   5.253  0.6038 -0.4462  0.0200
  891MOL0     C22842  10.577   1.324   5.163 -0.2381  1.8212  0.4417
  891MOL0     C22843  10.704   1.412   5.176 -0.6657 -0.9678 -0.5634
  891MOL0     O22844  10.809   1.324   5.164  0.1358  0.1171  0.4458
  891MOL0     C22845  10.922   1.373   5.104  0.0012  0.9568  0.2725
  891MOL0     C22846  10.911   1.453   4.982 -0.4639 -1.0824 -0.1509
  891MOL0     C22847  11.026   1.505   4.911  0.3064 -0.8188 -0.5499
  891MOL0     C22848  11.000   1.597   4.799  0.1849 -0.4457 -0.6053
  891MOL0     C22849  11.156   1.487   4.967  0.0394 -0.7700  0.2805
  891MOL0     C22850  11.286   1.533   4.913  0.2035 -0.2718 -0.1935
  891MOL0     O22851  11.394   1.450   4.943 -0.2120 -0.7187 -0.4256
  891MOL0     C22852  11.519   1.508   4.925 -0.0376 -0.6715  0.6756
  891MOL0     C22853  11.626   1.418   4.912  0.0295  0.8120  0.3680
  891MOL0     C22854  11.763   1.461   4.902 -0.2726 -0.7090 -0.3324
  891MOL0     C22855  11.796   1.596   4.872  0.0965  0.3619  0.1556
  891MOL0     O22856  11.923   1.646   4.849  0.2197 -0.0023 -0.1475
  891MOL0     C22857  12.008   1.564   4.767  0.4439  0.4299  0.6518
  891MOL0     C22858  12.149   1.625   4.755  0.5677 -0.6432  0.2918
  891MOL0     C22859  12.241   1.535   4.662  0.4071  0.7687  0.0131
  891MOL0     C22860  12.385   1.568   4.662 -0.0794 -0.3375  1.1660
  891MOL0     C22861  12.458   1.496   4.553 -0.5486  0.2592  0.7483
  891MOL0     C22862  12.602   1.549   4.517 -0.2377  0.7986  0.5824
  891MOL0     C22863  12.662   1.466   4.401  0.4937 -0.1035  0.0903
  891MOL0     C22864  12.740   1.345   4.453  0.6650  0.0677  0.4556
  891MOL0    Cl22865  12.869   1.410   4.543  0.1758  0.0382 -0.0240
  891MOL0     C22866  11.691   1.687   4.895 -0.4640  0.3139 -0.7557
  891MOL0     C22867  11.553   1.650   4.919  0.1075  0.1309  0.7249
  891MOL0     O22868  11.281   1.633   4.836  0.9782 -0.6998  0.2863
  891MOL0     C22869  11.166   1.412   5.092  0.1506 -0.0704 -0.8356
  891MOL0     C22870  11.048   1.361   5.162  0.5020  0.0968  0.1770
  891MOL0     N22871  10.270   1.429   5.484  0.5124 -0.2571  0.1978
  891MOL0     N22872  10.153   1.453   5.535  0.6044 -0.3188  0.0385
  891MOL0     C22873   9.288   2.003   5.955  0.5505 -0.8727 -0.2953
  891MOL0     C22874   9.169   2.014   6.031  0.1130 -0.1187 -0.1019
  891MOL0     C22875   8.951   1.929   6.420  0.3777  0.7168 -0.0965
  891MOL0     C22876   8.857   1.819   6.438 -1.5211 -0.2096 -0.2541
  891MOL0     C22877   8.777   1.816   6.554  0.1925 -0.2522  0.7624
  891MOL0     C22878   8.783   1.913   6.653  0.4939 -0.2214 -0.0795
  891MOL0     O22879   8.697   1.916   6.765 -0.2326  0.6367 -0.0278
  891MOL0     C22880   8.578   1.838   6.760 -0.0119  0.4278 -0.6873
  891MOL0     C22881   8.482   1.877   6.648  0.3355 -0.3227 -0.1753
  891MOL0     C22882   8.350   1.808   6.642 -0.0885 -0.2476  0.8206
  891MOL0     C22883   8.254   1.851   6.759 -0.2567  0.0270  0.0031
  891MOL0     C22884   8.109   1.822   6.744  0.2525  0.7280  0.2515
  891MOL0     C22885   7.988   1.810   6.720 -0.6974  0.4406 -0.0164
  891MOL0     C22886   8.867   2.024   6.634 -0.5593 -0.5568 -0.0122
  891MOL0     C22887   8.952   2.030   6.524 -0.1368  0.7478  0.4154
  891MOL0     C22888   9.067   2.130   6.530 -0.0588 -0.4227  0.0276
  891MOL0     H22889   9.311   2.143   6.317  1.0751 -0.5805 -0.1333
  891MOL0     H22890   9.519   2.109   6.179  2.6069 -1.5229 -2.8197
  891MOL0     H22891   9.486   2.052   5.756  0.4990 -0.5020 -0.5512
  891MOL0     H22892   9.500   1.878   5.806  1.0328  0.2239 -0.6360
  891MOL0     H22893   9.740   2.051   5.776 -0.0840  0.7122  0.5370
  891MOL0     H22894   9.728   1.884   5.838  0.6880  0.0578 -1.0480
  891MOL0     H22895   9.630   1.806   5.634  2.3380 -1.2708 -5.3744
  891MOL0     H22896   9.639   1.971   5.567 -1.9135 -0.7060 -0.0780
  891MOL0     H22897   9.878   1.976   5.558  1.6466 -1.0298  0.7138
  891MOL0     H22898   9.894   1.846   5.664  1.2119 -2.4752 -1.2883
  891MOL0     H22899   9.919   1.820   5.384 -0.3371 -0.1620 -2.0913
  891MOL0     H22900   9.761   1.772   5.406 -0.4875  0.6822  0.6733
  891MOL0     H22901  10.007   1.649   5.545  0.0207  0.7666 -2.7992
  891MOL0     H22902   9.840   1.614   5.610 -2.3452 -1.9410 -0.9734
  891MOL0     H22903   9.928   1.558   5.330 -0.1897  0.5179 -0.6538
  891MOL0     H22904   9.768   1.542   5.400  0.3483  1.6210  0.1727
  891MOL0     H22905   9.892   1.405   5.587 -2.9881  0.4041 -0.8125
  891MOL0     H22906   9.863   1.317   5.435  0.0811  1.1586 -1.9119
  891MOL0     H22907  10.075   1.237   5.290 -0.7595  1.1165 -1.6833
  891MOL0     H22908  10.308   1.256   5.195  3.3952 -2.1693 -1.1768
  891MOL0     H22909  10.400   1.216   5.338 -1.9363  1.6783  2.9131
  891MOL0     H22910  10.428   1.477   5.198  1.2425  0.7136  1.2794
  891MOL0     H22911  10.515   1.419   5.349  0.8433  0.3488 -0.3041
  891MOL0     H22912  10.579   1.221   5.198 -1.0098  2.3204  2.0692
  891MOL0     H22913  10.546   1.333   5.058 -0.4061  1.5791  0.4706
  891MOL0     H22914  10.700   1.505   5.119  0.3214 -1.2970 -1.1930
  891MOL0     H22915  10.706   1.442   5.281 -1.8143  0.0545 -0.8076
  891MOL0     H22916  10.814   1.468   4.937 -0.2334  0.5852 -0.1462
  891MOL0     H22917  11.053   1.567   4.708  1.4553  0.8190 -0.3261
  891MOL0     H22918  11.050   1.693   4.815  3.5580 -1.8072 -1.9453
  891MOL0     H22919  10.898   1.618   4.768  0.5069 -1.9993 -2.9855
  891MOL0     H22920  11.605   1.313   4.927 -0.7081  0.6659 -1.5288
  891MOL0     H22921  11.844   1.389   4.901 -1.2519 -2.0636  3.0159
  891MOL0     H22922  12.014   1.463   4.808 -0.0458  0.5307  0.9871
  891MOL0     H22923  11.965   1.555   4.667 -0.6412  1.4675  1.0080
  891MOL0     H22924  12.141   1.720   4.702 -1.7606 -0.8478  0.1875
  891MOL0     H22925  12.211   1.630   4.845  0.1401 -2.9691  0.7891
  891MOL0     H22926  12.200   1.525   4.562 -1.6405  2.4569  0.6228
  891MOL0     H22927  12.226   1.434   4.703 -0.8415  0.5074 -1.0395
  891MOL0     H22928  12.422   1.554   4.764  1.2737  1.8811  1.0306
  891MOL0     H22929  12.386   1.672   4.629 -0.1590  0.0984  2.4712
  891MOL0     H22930  12.445   1.389   4.571 -0.3717 -0.1754 -1.4611
  891MOL0     H22931  12.402   1.511   4.460  0.2143  1.7528  0.4946
  891MOL0     H22932  12.666   1.553   4.605  0.6365  0.8932 -0.0491
  891MOL0     H22933  12.596   1.652   4.479 -0.8959 -0.0754 -1.8931
  891MOL0     H22934  12.716   1.530   4.330 -0.6507  0.4513 -0.3000
  891MOL0     H22935  12.579   1.431   4.338  1.4711 -1.4448 -0.5073
  891MOL0     H22936  12.777   1.286   4.369  0.2053 -0.3338  0.5251
  891MOL0     H22937  12.670   1.289   4.517 -0.9114  0.5726 -0.7436
  891MOL0     H22938  11.721   1.791   4.899  0.0465  0.2879  5.6012
  891MOL0     H22939  11.483   1.733   4.923 -0.6227 -0.3836 -0.8008
  891MOL0     H22940  11.266   1.395   5.130  0.7360 -0.8666 -2.6045
  891MOL0     H22941  11.059   1.297   5.250 -1.6721 -0.4809  0.0869
  891MOL0     H22942   9.277   1.960   5.856 -1.6742 -3.1915  0.8499
  891MOL0     H22943   9.072   1.988   5.992  0.3741 -0.9992 -0.1826
  891MOL0     H22944   8.844   1.741   6.363 -4.7061  0.5728 -0.6717
  891MOL0     H22945   8.714   1.728   6.565 -0.3998  0.3369  2.2948
  891MOL0     H22946   8.601   1.732   6.747  0.0940  0.3155  0.2802
  891MOL0     H22947   8.529   1.854   6.857 -0.5135 -0.6187 -0.7451
  891MOL0     H22948   8.535   1.867   6.553  0.8814 -1.5888  0.2279
  891MOL0     H22949   8.462   1.983   6.662  1.7743 -0.1546  1.0011
  891MOL0     H22950   8.307   1.826   6.543 -1.7112 -1.2269  1.3120
  891MOL0     H22951   8.374   1.702   6.653  2.4024  0.0530 -0.9726
  891MOL0     H22952   8.274   1.956   6.781  1.0182 -0.0523 -0.6582
  891MOL0     H22953   8.284   1.791   6.846 -0.5670 -0.8994 -0.5112
  891MOL0     H22954   7.883   1.797   6.706 -0.3862 -1.6337 -0.8527
  891MOL0     H22955   8.860   2.101   6.710 -2.0400  0.2533 -0.9271
  891MOL0     H22956   9.039   2.212   6.462  1.2961  0.9175  1.0185
  891MOL0     H22957   9.079   2.178   6.627 -0.7803  1.5789 -0.8058
  891MOL0     H22958   9.163   2.088   6.498  0.4958  0.6722  0.1829
  892MOL0     O22959   1.700   7.992   8.505  0.0774 -0.2080 -0.7196
  892MOL0     C22960   1.594   8.005   8.569 -0.6482  0.2718 -0.9641
  892MOL0     O22961   1.540   7.910   8.657  0.3767  0.1384  0.3725
  892MOL0     C22962   1.627   7.818   8.712  0.1792  0.1498 -0.2656
  892MOL0     C22963   1.663   7.703   8.639  0.7069 -1.3236  0.7057
  892MOL0     C22964   1.753   7.607   8.686 -0.1920 -0.5727  0.2479
  892MOL0     C22965   1.814   7.626   8.815  0.0158 -0.7881 -0.0186
  892MOL0     O22966   1.906   7.538   8.857  0.1058  0.7168 -0.8284
  892MOL0     C22967   1.984   7.565   8.978 -0.1570 -0.0959 -0.0452
  892MOL0     C22968   2.095   7.662   8.936  0.3939 -0.5073  0.7178
  892MOL0     C22969   2.183   7.696   9.055 -0.0589 -0.4161 -0.5253
  892MOL0     C22970   2.271   7.819   9.030  0.0091 -0.2931  0.5851
  892MOL0     C22971   2.386   7.826   9.127 -0.0932 -0.5319  1.3462
  892MOL0     C22972   2.476   7.947   9.102 -0.6974 -0.4098  0.0250
  892MOL0     C22973   2.584   7.949   9.215  0.2750  0.1005  0.4820
  892MOL0     C22974   2.626   8.095   9.249 -0.0616 -0.5396  0.2181
  892MOL0     N22975   2.697   8.155   9.130  0.2855 -0.7454  0.7490
  892MOL0     C22976   2.651   8.260   9.049 -0.0509 -0.6170  1.3725
  892MOL0     C22977   2.720   8.248   8.933 -0.2798  1.0136  0.0509
  892MOL0     C22978   2.701   8.338   8.808  0.8569 -0.0795 -0.0164
  892MOL0     C22979   2.806   8.444   8.819 -0.4325 -0.6567  0.8739
  892MOL0     C22980   2.785   8.562   8.726 -0.2647 -0.8890  0.2626
  892MOL0     C22981   2.887   8.675   8.748 -0.0346 -0.6819 -0.0516
  892MOL0     O22982   2.991   8.634   8.659 -0.1155 -0.8267 -0.0192
  892MOL0     C22983   3.114   8.685   8.690 -0.4104  0.6675  0.1503
  892MOL0     C22984   3.154   8.787   8.778 -0.6807 -0.4285  0.7579
  892MOL0     C22985   3.288   8.824   8.795 -0.4617  0.5062  0.3529
  892MOL0     C22986   3.322   8.912   8.916 -0.4421 -0.1330 -0.1064
  892MOL0     C22987   3.391   8.764   8.718 -0.4115  0.4798  0.4894
  892MOL0     C22988   3.531   8.810   8.725  0.3469 -0.2310 -0.3619
  892MOL0     O22989   3.613   8.728   8.662  0.4894  1.0911  1.3212
  892MOL0     C22990   3.751   8.747   8.647 -0.2180 -0.0573  0.0617
  892MOL0     C22991   3.805   8.658   8.555  0.4625 -0.4688 -0.6269
  892MOL0     C22992   3.939   8.656   8.514 -0.3376 -0.4015 -0.3183
  892MOL0     C22993   4.031   8.745   8.583  0.9022  0.1809 -0.6739
  892MOL0     O22994   4.165   8.746   8.559  0.5770  0.5029 -0.0737
  892MOL0     C22995   4.230   8.625   8.512 -0.6768  0.3193 -0.0499
  892MOL0     C22996   4.271   8.543   8.629 -0.3645 -0.3849  0.0791
  892MOL0     C22997   4.390   8.457   8.590  0.4791  0.4503 -0.0306
  892MOL0     C22998   4.436   8.359   8.696  0.6690 -0.4641 -0.4526
  892MOL0     C22999   4.568   8.288   8.658 -0.7142  0.3124  0.5466
  892MOL0     C23000   4.595   8.172   8.748  0.0466  0.0775  0.2663
  892MOL0     C23001   4.735   8.103   8.736 -0.5358  0.9704 -0.4352
  892MOL0     C23002   4.756   8.009   8.865  0.9752 -0.1800  0.0925
  892MOL0    Cl23003   4.761   8.087   9.023 -0.0110 -0.0596  0.7428
  892MOL0     C23004   3.976   8.828   8.681 -0.2653 -0.6947  0.3806
  892MOL0     C23005   3.840   8.833   8.716  0.2866 -0.5600 -0.2148
  892MOL0     O23006   3.561   8.918   8.773  0.8261  0.0907  0.1984
  892MOL0     C23007   3.354   8.663   8.627  0.3660 -0.1026 -0.0141
  892MOL0     C23008   3.219   8.627   8.617 -0.8125 -0.1660 -0.3213
  892MOL0     N23009   2.820   8.150   8.949  1.2286  0.2420 -0.1865
  892MOL0     N23010   2.792   8.092   9.061 -0.8425 -0.9323  0.2474
  892MOL0     C23011   1.769   7.735   8.888  1.0387 -0.5274  0.1944
  892MOL0     C23012   1.680   7.830   8.839 -1.0197  0.7884  0.3445
  892MOL0     C23013   1.508   8.132   8.556  0.0250 -0.8423  0.9263
  892MOL0     C23014   1.580   8.253   8.538  0.2923 -0.8770  0.3459
  892MOL0     C23015   1.520   8.378   8.539 -0.4272  0.0929 -0.0976
  892MOL0     C23016   1.384   8.389   8.563 -0.2352  0.2898 -0.7303
  892MOL0     O23017   1.312   8.504   8.572  0.2544 -0.0089  0.1636
  892MOL0     C23018   1.383   8.630   8.568  0.3473  0.1805 -0.5316
  892MOL0     C23019   1.360   8.691   8.431  0.8463  0.3400 -0.5007
  892MOL0     C23020   1.422   8.617   8.315 -0.0271  0.2035 -0.0406
  892MOL0     C23021   1.428   8.710   8.192 -0.0041  1.3426 -0.0223
  892MOL0     C23022   1.295   8.732   8.132 -0.6875 -0.7807 -0.2780
  892MOL0     C23023   1.190   8.743   8.080  0.6182 -0.3289 -0.5615
  892MOL0     C23024   1.311   8.271   8.573  0.7880  0.7061 -0.4822
  892MOL0     C23025   1.364   8.134   8.568 -0.1218  0.4176  0.1769
  892MOL0     C23026   1.275   8.019   8.582 -0.7738 -0.2869 -0.7327
  892MOL0     H23027   1.621   7.699   8.539 -0.0599  1.2693  0.8681
  892MOL0     H23028   1.789   7.516   8.639  0.1076 -0.7530  0.8151
  892MOL0     H23029   2.034   7.469   8.999 -1.0590 -0.2489  1.5672
  892MOL0     H23030   1.922   7.600   9.061 -1.1073 -0.2765 -0.6724
  892MOL0     H23031   2.161   7.614   8.863 -2.4001 -0.2658 -2.1449
  892MOL0     H23032   2.053   7.750   8.886  2.0234  1.3318  2.3791
  892MOL0     H23033   2.118   7.725   9.138  1.4575 -0.7109  0.8217
  892MOL0     H23034   2.232   7.605   9.090 -1.1674 -0.8090  0.0647
  892MOL0     H23035   2.317   7.814   8.931 -0.9422  1.3456  0.0359
  892MOL0     H23036   2.214   7.911   9.045  2.7741  2.3813 -3.3032
  892MOL0     H23037   2.445   7.734   9.134  3.7428  1.6632  1.1269
  892MOL0     H23038   2.352   7.828   9.231  1.8004  0.5479  2.0030
  892MOL0     H23039   2.510   7.960   8.999  0.1114 -0.3765  0.2878
  892MOL0     H23040   2.412   8.033   9.123 -0.9393 -0.7849  0.8441
  892MOL0     H23041   2.675   7.896   9.185  0.1429  0.6437 -0.9593
  892MOL0     H23042   2.534   7.907   9.303 -0.3185  1.7736  0.9836
  892MOL0     H23043   2.539   8.149   9.284 -0.1750 -0.7388  0.2459
  892MOL0     H23044   2.696   8.091   9.333  0.9243 -4.2018 -0.6043
  892MOL0     H23045   2.584   8.342   9.071  0.2311  0.0181 -0.0482
  892MOL0     H23046   2.604   8.386   8.821  0.7576  0.4287 -2.2759
  892MOL0     H23047   2.700   8.289   8.710 -0.3492  0.7245 -0.4307
  892MOL0     H23048   2.800   8.478   8.923 -0.8621 -0.3996  0.7665
  892MOL0     H23049   2.907   8.401   8.820 -1.6424 -3.8113 -0.4949
  892MOL0     H23050   2.794   8.524   8.624 -1.1477  2.3934 -1.1407
  892MOL0     H23051   2.684   8.602   8.729 -0.0974 -0.4816  2.4671
  892MOL0     H23052   2.851   8.776   8.725  0.8805  0.0922  1.6889
  892MOL0     H23053   2.917   8.671   8.853 -1.9660 -2.9380  0.4866
  892MOL0     H23054   3.073   8.839   8.829 -1.4833 -0.6236 -0.2867
  892MOL0     H23055   3.354   9.012   8.886 -1.7493  0.2377 -0.3336
  892MOL0     H23056   3.388   8.863   8.988 -0.6493 -0.3395 -0.0532
  892MOL0     H23057   3.232   8.939   8.973 -0.8657  1.3578 -1.4067
  892MOL0     H23058   3.727   8.599   8.509 -2.7587  1.8714  1.3674
  892MOL0     H23059   3.963   8.589   8.432 -0.3244 -1.8720  0.8525
  892MOL0     H23060   4.171   8.571   8.437 -1.9549  0.4954  0.7895
  892MOL0     H23061   4.327   8.652   8.469 -0.1531 -0.4552  0.6354
  892MOL0     H23062   4.307   8.615   8.703  0.5647 -0.6398 -0.1121
  892MOL0     H23063   4.186   8.481   8.658 -1.5084 -0.4083 -2.9784
  892MOL0     H23064   4.475   8.515   8.553  0.1454  0.3415 -1.0080
  892MOL0     H23065   4.344   8.397   8.511 -1.1364 -0.8728  1.8142
  892MOL0     H23066   4.352   8.300   8.735 -1.4330  0.2233 -3.5588
  892MOL0     H23067   4.460   8.428   8.778 -1.1935 -0.2764 -0.0106
  892MOL0     H23068   4.587   8.264   8.553  1.9478  1.8632  0.5715
  892MOL0     H23069   4.655   8.352   8.676  0.3724 -1.3050  1.3279
  892MOL0     H23070   4.522   8.091   8.754 -0.0681  0.0594 -1.0029
  892MOL0     H23071   4.593   8.215   8.848 -0.6079 -0.2448  0.4027
  892MOL0     H23072   4.812   8.179   8.723 -1.7544  2.6598  1.5065
  892MOL0     H23073   4.738   8.044   8.644 -1.6778 -1.9784  1.2780
  892MOL0     H23074   4.852   7.960   8.852 -0.1275 -2.5839  0.3920
  892MOL0     H23075   4.675   7.936   8.875  1.2557 -0.2309  2.5615
  892MOL0     H23076   4.040   8.891   8.742  0.4766  1.8100 -2.7399
  892MOL0     H23077   3.810   8.915   8.780  2.3368  0.8414 -0.9550
  892MOL0     H23078   3.424   8.601   8.571  0.8916  0.7204 -0.2853
  892MOL0     H23079   3.187   8.538   8.563 -0.6627  0.2657 -1.1528
  892MOL0     H23080   1.792   7.741   8.994  0.6944 -0.5431  0.2728
  892MOL0     H23081   1.652   7.922   8.889  0.8872  1.5711  0.0602
  892MOL0     H23082   1.689   8.252   8.532  0.2469 -0.9737 -0.6433
  892MOL0     H23083   1.584   8.464   8.523  1.7783 -1.2991  0.6966
  892MOL0     H23084   1.334   8.689   8.646  0.8506  1.7749 -1.3786
  892MOL0     H23085   1.488   8.621   8.599  0.8676  1.0635 -1.9314
  892MOL0     H23086   1.400   8.791   8.449  2.0351 -0.5305  2.2165
  892MOL0     H23087   1.251   8.685   8.423  0.9681  0.9849 -3.5204
  892MOL0     H23088   1.523   8.586   8.344 -0.3347  1.6307  2.9114
  892MOL0     H23089   1.353   8.536   8.290 -2.3975  1.9765  0.4429
  892MOL0     H23090   1.494   8.658   8.122  0.1095  0.3284  0.8196
  892MOL0     H23091   1.480   8.806   8.201 -2.1170  2.6854 -1.2555
  892MOL0     H23092   1.101   8.743   8.021  0.6869 -1.6179 -0.6947
  892MOL0     H23093   1.206   8.283   8.598  1.1487  2.9355  0.2330
  892MOL0     H23094   1.176   8.064   8.580  0.2484  2.7845  3.6172
  892MOL0     H23095   1.286   7.966   8.487  0.1732  2.5069 -2.2921
  892MOL0     H23096   1.297   7.962   8.673  2.3596  2.5804  0.5179
  893MOL0     O23097   8.318   6.616   1.248  0.7722 -0.4614  0.1166
  893MOL0     C23098   8.340   6.655   1.133  0.0928  0.0681 -0.4102
  893MOL0     O23099   8.263   6.742   1.057  0.1233  0.2994  0.2813
  893MOL0     C23100   8.162   6.800   1.127 -0.1047  0.5279 -0.3803
  893MOL0     C23101   8.147   6.936   1.099  0.8060 -0.6374  0.6018
  893MOL0     C23102   8.038   7.003   1.145  0.5915  0.7790 -0.0505
  893MOL0     C23103   7.936   6.929   1.205  0.3086 -0.2730 -1.2660
  893MOL0     O23104   7.829   6.999   1.230 -0.0674  0.5473  0.4752
  893MOL0     C23105   7.716   6.946   1.297  0.6974 -0.0636  0.3679
  893MOL0     C23106   7.625   6.896   1.194  0.0223  0.5160 -0.4437
  893MOL0     C23107   7.497   6.847   1.257  0.1338  0.2465  0.3937
  893MOL0     C23108   7.396   6.789   1.149  0.8266  0.3870  0.1700
  893MOL0     C23109   7.264   6.732   1.213 -0.4393 -0.6645 -0.2233
  893MOL0     C23110   7.172   6.657   1.114  0.4970 -0.8928 -0.0857
  893MOL0     C23111   7.036   6.608   1.164  0.4285 -0.1928 -0.7100
  893MOL0     C23112   6.966   6.499   1.075  0.6361  0.0372  0.4925
  893MOL0     N23113   7.024   6.370   1.100 -0.2092  0.3671 -0.4803
  893MOL0     C23114   6.974   6.269   1.173  0.0962 -0.9800 -0.4822
  893MOL0     C23115   7.058   6.171   1.148 -0.2245  0.5014 -0.2208
  893MOL0     C23116   7.055   6.031   1.200  0.0508  0.1877  0.7673
  893MOL0     C23117   7.150   5.996   1.309  0.4153  0.1613 -0.0242
  893MOL0     C23118   7.280   5.942   1.251  0.3805  0.5222 -0.2861
  893MOL0     C23119   7.369   5.916   1.369  0.3406  0.1297 -1.0366
  893MOL0     O23120   7.428   6.037   1.407 -0.1793  0.4236  0.0089
  893MOL0     C23121   7.512   6.039   1.516 -0.5733 -0.4856 -0.5284
  893MOL0     C23122   7.531   5.928   1.609 -0.0448 -0.7230 -0.5126
  893MOL0     C23123   7.627   5.949   1.712 -0.5529  0.1691  0.2597
  893MOL0     C23124   7.647   5.830   1.801  0.3243  0.0879  0.1731
  893MOL0     C23125   7.702   6.067   1.726 -0.1382  0.2928 -0.3861
  893MOL0     C23126   7.815   6.082   1.818 -0.8843 -0.2297  0.2381
  893MOL0     O23127   7.842   6.207   1.853  0.1810 -0.4487 -0.0720
  893MOL0     C23128   7.969   6.230   1.913 -0.2467 -0.3587  0.6775
  893MOL0     C23129   7.987   6.222   2.047 -0.6392  0.7777 -0.8277
  893MOL0     C23130   8.114   6.252   2.109  0.5904  1.0763  0.4573
  893MOL0     C23131   8.228   6.275   2.040 -0.0700  0.0283  0.7473
  893MOL0     O23132   8.351   6.288   2.116  0.4045 -0.9357 -0.2685
  893MOL0     C23133   8.467   6.329   2.035  0.7115 -0.0466  1.2392
  893MOL0     C23134   8.590   6.353   2.117 -0.1685  1.0416 -0.4337
  893MOL0     C23135   8.707   6.388   2.024 -0.1562 -0.1085 -0.5867
  893MOL0     C23136   8.831   6.432   2.109 -0.2326 -0.4490  0.9073
  893MOL0     C23137   8.938   6.483   2.005 -0.0161 -0.0991 -0.6146
  893MOL0     C23138   9.075   6.506   2.082  0.6801  0.2816  0.6455
  893MOL0     C23139   9.191   6.531   1.987  0.1436  0.7462  0.3444
  893MOL0     C23140   9.321   6.568   2.061 -0.3772  0.3493  0.0064
  893MOL0    Cl23141   9.459   6.558   1.950  0.5362 -0.0362  0.3710
  893MOL0     C23142   8.214   6.275   1.901  0.1682  0.0712  0.1373
  893MOL0     C23143   8.087   6.249   1.845  0.0953 -0.0708 -0.4181
  893MOL0     O23144   7.897   5.991   1.832 -0.1560 -1.0917 -0.1332
  893MOL0     C23145   7.680   6.168   1.638  0.1431  0.2193 -0.2379
  893MOL0     C23146   7.587   6.153   1.535  0.4719 -0.8881  0.8406
  893MOL0     N23147   7.171   6.212   1.069  0.5064 -0.0683 -0.4392
  893MOL0     N23148   7.154   6.340   1.045 -0.1416  0.3358 -0.0198
  893MOL0     C23149   7.957   6.798   1.242 -0.7479  0.1641  0.4817
  893MOL0     C23150   8.068   6.728   1.192  1.1542  0.7593 -0.7395
  893MOL0     C23151   8.452   6.588   1.062 -0.0890  0.4100 -0.6907
  893MOL0     C23152   8.438   6.571   0.925 -0.5941  0.1453 -0.7247
  893MOL0     C23153   8.526   6.502   0.846 -0.6568  0.0321 -0.0914
  893MOL0     C23154   8.652   6.465   0.903  0.1321 -0.9121 -0.2286
  893MOL0     O23155   8.743   6.396   0.829  0.0432 -0.0457  0.5368
  893MOL0     C23156   8.883   6.438   0.836  0.6017 -1.2110 -0.8464
  893MOL0     C23157   8.974   6.362   0.742 -0.0472 -0.1693 -0.0780
  893MOL0     C23158   9.121   6.410   0.764 -0.6018  0.6410  0.0630
  893MOL0     C23159   9.183   6.367   0.898  0.4153  0.2379 -0.0611
  893MOL0     C23160   9.204   6.221   0.898  0.3276 -0.3035  0.2287
  893MOL0     C23161   9.243   6.109   0.876  0.0980  0.1544  0.3661
  893MOL0     C23162   8.668   6.489   1.040  0.3906  0.7601 -0.4706
  893MOL0     C23163   8.571   6.544   1.126  0.2187  0.3512  0.3141
  893MOL0     C23164   8.613   6.566   1.269  0.0640  0.1498 -0.5742
  893MOL0     H23165   8.219   6.994   1.041  1.3691 -0.0182  1.8884
  893MOL0     H23166   8.022   7.109   1.129  1.3893  1.1451  1.4222
  893MOL0     H23167   7.658   7.026   1.344  2.2193  1.5147 -0.2768
  893MOL0     H23168   7.742   6.866   1.367 -1.0909 -1.8541 -0.9236
  893MOL0     H23169   7.615   6.981   1.126  1.5243  3.8496  3.1449
  893MOL0     H23170   7.673   6.813   1.142  0.8271  1.9516 -2.1025
  893MOL0     H23171   7.525   6.766   1.325  0.6218 -0.2372 -0.3784
  893MOL0     H23172   7.450   6.927   1.316 -1.4099  0.4015 -0.9624
  893MOL0     H23173   7.361   6.867   1.081 -1.0431  0.2593  0.9370
  893MOL0     H23174   7.444   6.701   1.106 -2.5194 -1.9934  0.9378
  893MOL0     H23175   7.211   6.820   1.251  1.3557  0.7543 -0.8118
  893MOL0     H23176   7.297   6.667   1.295  1.3869  1.5383  0.8966
  893MOL0     H23177   7.164   6.733   1.035 -4.6620 -0.9083  0.0579
  893MOL0     H23178   7.224   6.564   1.086 -1.0090 -2.5335  2.1899
  893MOL0     H23179   6.973   6.696   1.181  3.9511  2.5267 -0.3076
  893MOL0     H23180   7.043   6.569   1.266  0.8041 -2.1606 -1.4610
  893MOL0     H23181   6.858   6.501   1.092  0.2127  1.9262 -1.8208
  893MOL0     H23182   6.976   6.526   0.969  1.4737 -1.4518  0.1638
  893MOL0     H23183   6.892   6.275   1.244 -1.5490  0.6569 -2.4194
  893MOL0     H23184   7.068   5.964   1.114  0.6002  0.5665  0.5493
  893MOL0     H23185   6.956   6.003   1.237 -0.3045 -0.4599 -0.6367
  893MOL0     H23186   7.179   6.086   1.364 -0.7634  2.2365 -2.5609
  893MOL0     H23187   7.107   5.922   1.377 -1.2429 -1.6302 -2.8002
  893MOL0     H23188   7.258   5.850   1.197  0.3496  0.2229  0.2284
  893MOL0     H23189   7.332   6.006   1.180 -1.0393  3.5880  1.2631
  893MOL0     H23190   7.319   5.865   1.452  0.1049  4.1296  1.5205
  893MOL0     H23191   7.450   5.851   1.334  0.0057 -0.7322 -0.2401
  893MOL0     H23192   7.476   5.835   1.601  1.2647 -1.5589 -0.1889
  893MOL0     H23193   7.555   5.802   1.852  0.7256 -0.7063  0.4765
  893MOL0     H23194   7.722   5.848   1.878  0.3801  2.0287 -0.2883
  893MOL0     H23195   7.689   5.748   1.741 -2.3703 -0.9891 -0.3962
  893MOL0     H23196   7.911   6.186   2.116  2.9024 -3.9384  1.1722
  893MOL0     H23197   8.110   6.268   2.216 -2.2296 -0.7762  0.7388
  893MOL0     H23198   8.489   6.250   1.963 -1.9206 -0.3270  0.6145
  893MOL0     H23199   8.442   6.419   1.979 -0.6768 -0.5502  0.9895
  893MOL0     H23200   8.576   6.415   2.205  3.1362 -1.7374  2.3680
  893MOL0     H23201   8.612   6.257   2.165  0.6466  1.2752 -0.3249
  893MOL0     H23202   8.674   6.472   1.962 -2.9836  0.8959  2.0326
  893MOL0     H23203   8.724   6.302   1.958 -2.2393 -2.5518  1.8125
  893MOL0     H23204   8.879   6.351   2.165 -0.2022 -1.8764 -1.0902
  893MOL0     H23205   8.806   6.509   2.183  1.2486 -0.5211  1.5170
  893MOL0     H23206   8.967   6.401   1.938  0.2035 -0.9218  0.4743
  893MOL0     H23207   8.898   6.573   1.959 -1.1821 -0.9673 -1.3562
  893MOL0     H23208   9.090   6.413   2.138 -1.0969 -1.3620 -1.3999
  893MOL0     H23209   9.066   6.596   2.142  0.8387  1.0795 -0.4931
  893MOL0     H23210   9.149   6.599   1.913 -2.9917 -1.0632  0.2756
  893MOL0     H23211   9.206   6.440   1.929  1.6299 -0.3402  2.2844
  893MOL0     H23212   9.338   6.495   2.140 -2.9310  0.5867  0.8637
  893MOL0     H23213   9.314   6.674   2.086 -1.5545  0.0274  1.1401
  893MOL0     H23214   8.302   6.293   1.840 -1.0449 -0.4365 -1.8854
  893MOL0     H23215   8.091   6.243   1.737  0.0420  1.4863 -0.5244
  893MOL0     H23216   7.739   6.259   1.640  1.0135 -0.3434  1.5341
  893MOL0     H23217   7.581   6.228   1.457  2.2116  0.4793  1.9373
  893MOL0     H23218   7.889   6.740   1.305  0.7533 -0.5124  1.5438
  893MOL0     H23219   8.082   6.623   1.215  0.3533  0.6482 -0.7392
  893MOL0     H23220   8.351   6.610   0.872 -0.3390  3.1061  0.7933
  893MOL0     H23221   8.508   6.472   0.743  0.6587 -1.6783  0.1395
  893MOL0     H23222   8.885   6.547   0.827  1.0531 -0.7620  2.9786
  893MOL0     H23223   8.914   6.409   0.937 -0.5957  2.3667  0.7581
  893MOL0     H23224   8.945   6.382   0.638 -2.5885 -2.2316  0.1151
  893MOL0     H23225   8.973   6.253   0.753  1.0725 -0.2769 -0.8351
  893MOL0     H23226   9.193   6.374   0.689  1.3090  0.6919  1.7818
  893MOL0     H23227   9.136   6.517   0.748 -2.7100  0.7780 -1.3762
  893MOL0     H23228   9.110   6.404   0.970 -1.1762  0.0963 -1.5462
  893MOL0     H23229   9.277   6.418   0.923  0.2595 -0.1196  1.3493
  893MOL0     H23230   9.255   6.005   0.853  0.0104 -0.0093  1.0498
  893MOL0     H23231   8.756   6.458   1.095 -1.4920 -0.7930  1.9146
  893MOL0     H23232   8.542   6.515   1.335  0.6991  1.0771  0.8647
  893MOL0     H23233   8.710   6.528   1.300  0.8026  2.0187 -0.4837
  893MOL0     H23234   8.615   6.674   1.285 -0.4198 -0.0453  0.9702
  894MOL0     O23235  10.216   1.737  10.913 -0.4155 -0.9008  0.0195
  894MOL0     C23236  10.098   1.730  10.889  0.0003 -0.3536 -0.7272
  894MOL0     O23237  10.004   1.778  10.978 -0.4934 -0.1115 -0.8793
  894MOL0     C23238  10.035   1.834  11.093  0.5254  0.2289  0.3474
  894MOL0     C23239   9.965   1.791  11.202 -1.0639  0.6026 -0.2224
  894MOL0     C23240   9.984   1.854  11.329 -0.0920 -0.0599 -0.2990
  894MOL0     C23241  10.070   1.962  11.336  0.4553 -0.4933  0.3381
  894MOL0     O23242  10.080   2.020  11.464 -0.0598 -0.2668  0.5228
  894MOL0     C23243  10.108   2.159  11.465 -0.1355 -0.2323  0.4406
  894MOL0     C23244  10.016   2.230  11.562  0.3023  0.4971  0.0185
  894MOL0     C23245  10.059   2.212  11.708 -0.3985 -0.4610 -0.7886
  894MOL0     C23246  10.195   2.272  11.746  0.0038 -0.3247 -0.1091
  894MOL0     C23247  10.235   2.276  11.892  0.0283  0.3907 -0.3766
  894MOL0     C23248  10.365   2.364  11.909  0.0152  0.1622 -0.4885
  894MOL0     C23249  10.421   2.345  12.041  0.0875 -0.4912  0.3112
  894MOL0     C23250  10.509   2.460  12.087  0.0110  0.1885  0.2801
  894MOL0     N23251  10.420   2.575  12.101 -0.3150  0.6781  0.4916
  894MOL0     C23252  10.311   2.587  12.189  0.5668 -0.2739 -0.7256
  894MOL0     C23253  10.294   2.723  12.208  1.1986  0.1594  0.7457
  894MOL0     C23254  10.207   2.779  12.314 -0.4445 -0.7294 -0.4268
  894MOL0     C23255  10.108   2.886  12.266 -0.1591  0.7167  0.5974
  894MOL0     C23256  10.036   2.955  12.379  0.2080  0.1771  0.0108
  894MOL0     C23257   9.923   3.055  12.330  0.1570 -0.3287 -0.0104
  894MOL0     O23258   9.829   3.100  12.429  0.0819  0.3044 -0.3040
  894MOL0     C23259   9.703   3.099  12.391  0.4733 -0.1179  0.0306
  894MOL0     C23260   9.633   2.979  12.364 -0.1242  0.0056 -0.2470
  894MOL0     C23261   9.493   2.972  12.341  0.0347  0.2224  0.3212
  894MOL0     C23262   9.442   2.843  12.297 -0.0765  0.7074  0.1500
  894MOL0     C23263   9.420   3.089  12.363  0.8738  0.1398 -0.0112
  894MOL0     C23264   9.270   3.095  12.354 -0.1506 -0.2470 -0.0889
  894MOL0     O23265   9.207   2.996  12.281 -0.1732 -0.8334 -0.6290
  894MOL0     C23266   9.067   2.988  12.286  0.4637  0.6208  0.0451
  894MOL0     C23267   8.972   3.089  12.279  0.1867 -0.0248 -0.1437
  894MOL0     C23268   8.832   3.051  12.271 -0.1513  0.5778  0.3395
  894MOL0     C23269   8.798   2.919  12.262 -0.1241  0.7175  0.6587
  894MOL0     O23270   8.666   2.894  12.268 -0.0840  0.5911  0.2056
  894MOL0     C23271   8.609   2.766  12.225  0.4388  0.4217  0.0672
  894MOL0     C23272   8.458   2.782  12.187 -0.7816  0.1838  0.2258
  894MOL0     C23273   8.362   2.798  12.312 -0.0869 -0.3533 -0.0344
  894MOL0     C23274   8.216   2.835  12.283 -0.1315  0.2993  0.8858
  894MOL0     C23275   8.141   2.829  12.416  0.2833 -0.7344 -0.3230
  894MOL0     C23276   7.997   2.895  12.405  0.0477 -0.1720  0.8835
  894MOL0     C23277   8.007   3.052  12.404 -1.1721 -0.3792  0.4801
  894MOL0     C23278   7.863   3.111  12.408  0.0770 -0.2093  0.6686
  894MOL0    Cl23279   7.783   3.105  12.237  0.1145 -0.2245 -0.0535
  894MOL0     C23280   8.889   2.822  12.280  0.5993  0.9047  0.3330
  894MOL0     C23281   9.027   2.854  12.288 -0.3755  0.8660 -0.2293
  894MOL0     O23282   9.217   3.190  12.404 -0.3836  0.1017 -0.1881
  894MOL0     C23283   9.490   3.203  12.391  0.6068 -0.3512  0.3093
  894MOL0     C23284   9.631   3.215  12.399  0.7912  0.1716 -1.0570
  894MOL0     N23285  10.379   2.782  12.119 -0.1805 -0.1435  0.0684
  894MOL0     N23286  10.447   2.700  12.051 -0.4647 -0.0959  0.1381
  894MOL0     C23287  10.142   2.003  11.224  0.1314  0.2098 -0.1569
  894MOL0     C23288  10.116   1.944  11.101 -0.2875  0.8786  0.4934
  894MOL0     C23289  10.048   1.668  10.766 -0.4803 -0.6648  0.2052
  894MOL0     C23290   9.906   1.645  10.754  0.2927  0.3528  0.1535
  894MOL0     C23291   9.847   1.580  10.649  0.2106 -0.1608 -0.5989
  894MOL0     C23292   9.928   1.525  10.551 -0.3412  0.9403  0.4752
  894MOL0     O23293   9.865   1.450  10.449  0.1838  0.3534 -0.3679
  894MOL0     C23294   9.899   1.484  10.319 -0.0532  0.8563  0.5386
  894MOL0     C23295   9.800   1.590  10.270 -0.2843  0.8580 -0.5891
  894MOL0     C23296   9.665   1.520  10.237 -0.5344  0.3912 -0.0744
  894MOL0     C23297   9.572   1.621  10.173 -0.8550  0.2522  0.0770
  894MOL0     C23298   9.434   1.581  10.189 -0.8723  0.3085 -0.4016
  894MOL0     C23299   9.322   1.538  10.204  0.1859  0.2672  0.1173
  894MOL0     C23300  10.069   1.537  10.559 -0.0165 -0.3687  0.2837
  894MOL0     C23301  10.133   1.618  10.658 -0.3757  0.2406 -0.8166
  894MOL0     C23302  10.284   1.625  10.654  0.1429 -0.6831  0.5869
  894MOL0     H23303   9.897   1.707  11.197  1.3532 -1.9608  3.8730
  894MOL0     H23304   9.936   1.820  11.420  1.8820 -1.4321  0.2930
  894MOL0     H23305  10.092   2.207  11.368 -1.1507  0.8773  1.1357
  894MOL0     H23306  10.215   2.176  11.476  0.3464 -1.0433 -2.3721
  894MOL0     H23307  10.000   2.336  11.542 -2.7355 -0.0395 -0.9264
  894MOL0     H23308   9.916   2.186  11.554  0.1475  0.2578  2.4475
  894MOL0     H23309   9.987   2.269  11.767  0.7566 -0.4149  0.6379
  894MOL0     H23310  10.046   2.112  11.751 -0.6515  0.1249  0.5778
  894MOL0     H23311  10.262   2.212  11.683 -1.9071 -1.0113 -1.6159
  894MOL0     H23312  10.192   2.375  11.708  0.0313  0.5935  2.2451
  894MOL0     H23313  10.249   2.172  11.924  0.6835  0.3926 -0.6602
  894MOL0     H23314  10.153   2.320  11.950 -0.4856  1.9730 -2.2099
  894MOL0     H23315  10.436   2.335  11.832  1.6523  0.7976  0.7059
  894MOL0     H23316  10.327   2.464  11.885 -0.8098 -0.7520 -3.3960
  894MOL0     H23317  10.488   2.259  12.049  1.9862  0.6996 -1.5097
  894MOL0     H23318  10.331   2.328  12.100 -1.8894  3.3915 -1.1994
  894MOL0     H23319  10.546   2.441  12.188 -2.1908  0.4667  1.1990
  894MOL0     H23320  10.594   2.489  12.025  1.3118 -2.7902  0.4698
  894MOL0     H23321  10.259   2.509  12.244  0.0291  1.2692  1.0645
  894MOL0     H23322  10.271   2.838  12.381 -0.2675 -2.0109  0.5702
  894MOL0     H23323  10.164   2.695  12.370 -0.6333 -0.4449 -0.1395
  894MOL0     H23324  10.161   2.960  12.206  1.3268 -0.3362  0.5532
  894MOL0     H23325  10.033   2.826  12.212  2.8282 -0.3823 -2.7728
  894MOL0     H23326   9.994   2.882  12.449 -0.1332  0.3549 -0.0079
  894MOL0     H23327  10.108   3.015  12.435  0.6840 -1.0700  0.7765
  894MOL0     H23328   9.983   3.141  12.300  3.9309 -2.3622  1.1194
  894MOL0     H23329   9.869   3.005  12.249 -0.2870  1.5744 -0.9322
  894MOL0     H23330   9.692   2.888  12.366  1.2007  0.8227 -1.1455
  894MOL0     H23331   9.515   2.765  12.320 -1.4912 -0.2772  1.5715
  894MOL0     H23332   9.422   2.852  12.190  0.2224  2.5096  0.2151
  894MOL0     H23333   9.357   2.826  12.364  1.6151 -0.8974  2.0357
  894MOL0     H23334   9.001   3.193  12.290  2.2006 -0.5613  0.0239
  894MOL0     H23335   8.750   3.121  12.264 -1.9528 -1.3174  1.6846
  894MOL0     H23336   8.661   2.728  12.138 -0.1114 -0.1568 -0.0143
  894MOL0     H23337   8.617   2.688  12.301  2.5054 -0.3349 -0.8646
  894MOL0     H23338   8.446   2.868  12.121 -0.6713 -0.1748 -0.2674
  894MOL0     H23339   8.428   2.693  12.131 -0.7480  1.6756 -2.3069
  894MOL0     H23340   8.398   2.878  12.377 -2.1073  2.1102 -1.6919
  894MOL0     H23341   8.368   2.706  12.370 -1.3987  0.6504  1.8092
  894MOL0     H23342   8.173   2.778  12.200 -0.0527  0.0108  1.0432
  894MOL0     H23343   8.219   2.938  12.244 -0.3597  0.8902  2.3660
  894MOL0     H23344   8.121   2.723  12.438  0.3525 -0.8082 -0.6057
  894MOL0     H23345   8.200   2.870  12.498  1.5642  0.3598 -1.7376
  894MOL0     H23346   7.950   2.873  12.501  1.9815  0.4689  2.0290
  894MOL0     H23347   7.932   2.872  12.319 -0.1602 -0.3395  1.0854
  894MOL0     H23348   8.061   3.078  12.312  0.4462 -3.5568  0.3829
  894MOL0     H23349   8.066   3.080  12.492 -2.4939 -2.2570  2.0357
  894MOL0     H23350   7.875   3.219  12.421  1.0721  0.2132 -2.7874
  894MOL0     H23351   7.797   3.081  12.490  2.0728  1.5282  3.0779
  894MOL0     H23352   8.866   2.716  12.275 -1.2439  1.3072 -0.5080
  894MOL0     H23353   9.097   2.772  12.296 -1.2041  0.2398  1.0897
  894MOL0     H23354   9.441   3.299  12.401  3.2321  1.1682 -0.3046
  894MOL0     H23355   9.681   3.309  12.423 -1.4968  1.8682 -2.5159
  894MOL0     H23356  10.221   2.077  11.238  2.9109 -2.8342  1.7665
  894MOL0     H23357  10.166   1.977  11.010 -0.3098 -0.9720 -0.2305
  894MOL0     H23358   9.840   1.673  10.836 -0.9550  0.4304 -0.8481
  894MOL0     H23359   9.740   1.561  10.646  0.1926  0.0218 -1.1446
  894MOL0     H23360   9.999   1.526  10.307 -0.0750  1.6476  2.6537
  894MOL0     H23361   9.894   1.396  10.256  0.1949  1.2477 -0.0360
  894MOL0     H23362   9.843   1.629  10.177  2.3639  1.9535  0.9604
  894MOL0     H23363   9.789   1.665  10.349 -0.0143 -1.2671  1.6016
  894MOL0     H23364   9.687   1.455  10.152 -1.9464  1.8327 -1.6608
  894MOL0     H23365   9.622   1.472  10.326  0.6160  1.6473  1.2017
  894MOL0     H23366   9.604   1.639  10.070 -2.1881  3.6610  0.1141
  894MOL0     H23367   9.589   1.721  10.216 -1.2525  0.9423 -1.3064
  894MOL0     H23368   9.226   1.496  10.224 -0.0555  1.6002  1.9729
  894MOL0     H23369  10.134   1.485  10.490  0.3870  0.4199  0.0583
  894MOL0     H23370  10.323   1.724  10.679 -0.8683 -0.1820  0.2471
  894MOL0     H23371  10.334   1.551  10.716  1.2469  0.4127  1.0489
  894MOL0     H23372  10.320   1.610  10.552  0.9173  0.9327  0.5762
  895MOL0     O23373   9.205   7.179  10.321  0.1702 -0.0300 -0.5189
  895MOL0     C23374   9.187   7.199  10.202 -0.4163  0.3923  0.3473
  895MOL0     O23375   9.282   7.212  10.110  0.3874 -0.2670  0.1371
  895MOL0     C23376   9.394   7.147  10.143 -0.4797  0.8707 -0.0358
  895MOL0     C23377   9.507   7.216  10.174 -0.4690 -0.6038 -0.2999
  895MOL0     C23378   9.624   7.152  10.206 -0.0742  0.9635 -0.5923
  895MOL0     C23379   9.626   7.009  10.222  0.0760 -0.4562 -0.2360
  895MOL0     O23380   9.726   6.931  10.262  0.4773  0.4225  0.2331
  895MOL0     C23381   9.852   6.990  10.263 -0.8057 -0.2157  0.4518
  895MOL0     C23382   9.954   6.905  10.331  0.4559 -0.4824 -0.2542
  895MOL0     C23383  10.085   6.952  10.272 -0.7845  0.1156 -0.4537
  895MOL0     C23384  10.219   6.876  10.310  0.0901 -0.0830  0.0180
  895MOL0     C23385  10.333   6.965  10.274  0.4848 -0.6541 -0.1814
  895MOL0     C23386  10.462   6.928  10.339  0.5318  0.3397  0.1843
  895MOL0     C23387  10.579   7.010  10.291 -1.0719 -0.5806  0.5396
  895MOL0     C23388  10.714   6.970  10.356  0.1127  0.2476 -0.1852
  895MOL0     N23389  10.812   7.084  10.370  0.2895 -0.5424  0.6272
  895MOL0     C23390  10.784   7.215  10.418 -0.3741 -0.5492  0.8304
  895MOL0     C23391  10.887   7.295  10.379  0.3800  0.8686  0.5560
  895MOL0     C23392  10.916   7.429  10.430  0.2308  0.0469 -0.0802
  895MOL0     C23393  11.070   7.465  10.432  0.9609  0.1238 -0.6344
  895MOL0     C23394  11.096   7.612  10.445  1.1534 -0.4851  0.0906
  895MOL0     C23395  11.244   7.644  10.438  0.0370  0.2251 -0.2999
  895MOL0     O23396  11.266   7.782  10.447 -0.8141 -0.3876 -0.6718
  895MOL0     C23397  11.392   7.828  10.416 -0.2356  0.2332 -0.5832
  895MOL0     C23398  11.504   7.750  10.385 -0.4008 -0.1765 -0.2470
  895MOL0     C23399  11.622   7.813  10.354 -0.5484  0.4144 -0.0656
  895MOL0     C23400  11.734   7.722  10.315 -0.4263  0.4095 -0.0148
  895MOL0     C23401  11.636   7.953  10.360 -0.2953  0.5555 -0.1769
  895MOL0     C23402  11.765   8.029  10.333 -0.0775 -0.3756  0.3931
  895MOL0     O23403  11.758   8.165  10.347  0.8300 -0.0537  0.0116
  895MOL0     C23404  11.859   8.242  10.304 -0.2985 -0.5871 -0.0539
  895MOL0     C23405  11.944   8.295  10.400 -0.2481  0.7773 -0.1325
  895MOL0     C23406  12.045   8.382  10.360  0.9539 -0.3699 -0.1677
  895MOL0     C23407  12.050   8.431  10.234  0.5400  0.4529  0.3323
  895MOL0     O23408  12.141   8.524  10.195  0.0508 -0.2541  0.2751
  895MOL0     C23409  12.269   8.469  10.185  0.1057  0.0192  0.5236
  895MOL0     C23410  12.355   8.540  10.072  0.9283  0.3127  0.2928
  895MOL0     C23411  12.503   8.494  10.066 -0.1171  0.6627  0.1442
  895MOL0     C23412  12.581   8.591   9.975 -0.6511  0.4600 -0.3652
  895MOL0     C23413  12.713   8.541   9.925 -0.4867 -0.2079  0.6115
  895MOL0     C23414  12.799   8.639   9.835  0.2716 -0.0644 -0.7963
  895MOL0     C23415  12.944   8.590   9.829 -0.5753 -0.3891  0.3339
  895MOL0     C23416  13.018   8.627   9.698  0.4231 -0.1852 -0.3989
  895MOL0    Cl23417  13.003   8.800   9.678  0.5301 -0.1258  0.1104
  895MOL0     C23418  11.959   8.372  10.141 -0.2760 -0.3341 -0.2262
  895MOL0     C23419  11.863   8.282  10.175  0.8650  0.2614 -0.3942
  895MOL0     O23420  11.853   7.978  10.269 -0.2632 -0.0513 -0.6107
  895MOL0     C23421  11.524   8.028  10.388  0.0741  0.5668 -0.0758
  895MOL0     C23422  11.402   7.963  10.411 -0.2998 -0.4111 -0.8007
  895MOL0     N23423  10.969   7.213  10.300 -0.0598 -0.1093  0.0457
  895MOL0     N23424  10.934   7.089  10.307  0.0313  0.2337 -0.1124
  895MOL0     C23425   9.506   6.941  10.193 -0.5406 -0.9505 -0.1006
  895MOL0     C23426   9.393   7.008  10.155  0.0725 -0.0627  0.4826
  895MOL0     C23427   9.050   7.229  10.172  1.3589  0.3393  0.1791
  895MOL0     C23428   8.964   7.298  10.259 -0.3495 -0.0488 -0.6115
  895MOL0     C23429   8.831   7.326  10.229 -0.3194 -0.0790 -0.1017
  895MOL0     C23430   8.787   7.294  10.101 -0.4363  1.2789  0.1853
  895MOL0     O23431   8.654   7.327  10.071  0.0541  0.2364 -0.0462
  895MOL0     C23432   8.560   7.226  10.033 -0.5322 -0.4594  0.5548
  895MOL0     C23433   8.507   7.165  10.157  0.1946  0.1030 -0.8252
  895MOL0     C23434   8.440   7.267  10.256 -0.5698  0.0175  0.1716
  895MOL0     C23435   8.357   7.378  10.181 -0.0187  0.1429  0.8903
  895MOL0     C23436   8.285   7.456  10.267 -0.5435 -0.0532 -0.3743
  895MOL0     C23437   8.226   7.522  10.348 -0.4658 -0.5543 -0.2310
  895MOL0     C23438   8.869   7.235  10.006 -0.8976  0.6016 -0.2375
  895MOL0     C23439   9.004   7.205  10.040 -0.1334 -0.3189 -0.1413
  895MOL0     C23440   9.081   7.137   9.931 -0.3179  0.0482 -0.0966
  895MOL0     H23441   9.502   7.324  10.179  1.3046 -0.4779 -0.6714
  895MOL0     H23442   9.711   7.211  10.234  0.9856  0.1716 -2.0663
  895MOL0     H23443   9.872   7.082  10.319  4.5664 -1.1881  0.6496
  895MOL0     H23444   9.876   7.012  10.158 -1.1370  0.9797  0.6135
  895MOL0     H23445   9.944   6.909  10.440  0.7832 -1.5040 -0.1749
  895MOL0     H23446   9.936   6.805  10.291 -0.3561 -0.4968  0.1392
  895MOL0     H23447  10.091   6.942  10.163  1.9900 -2.7059 -0.2183
  895MOL0     H23448  10.095   7.056  10.303 -0.8834  0.3847 -1.3104
  895MOL0     H23449  10.220   6.872  10.419 -0.0644 -1.1487 -0.0116
  895MOL0     H23450  10.218   6.781  10.256 -0.7068  0.7945 -1.6138
  895MOL0     H23451  10.312   7.067  10.307 -0.8690 -1.5493  1.9498
  895MOL0     H23452  10.343   6.973  10.165 -0.2977  0.2914 -0.1995
  895MOL0     H23453  10.450   6.944  10.447 -3.3721  2.4638 -0.3694
  895MOL0     H23454  10.479   6.824  10.310 -2.7254 -0.3676  0.3343
  895MOL0     H23455  10.558   7.114  10.315  1.7399  0.1445  0.2652
  895MOL0     H23456  10.573   6.996  10.183 -2.1154  1.2939  0.3063
  895MOL0     H23457  10.698   6.937  10.459  2.2844 -3.8087 -0.9716
  895MOL0     H23458  10.760   6.887  10.303 -1.9740 -1.9962  1.2809
  895MOL0     H23459  10.713   7.245  10.494  1.2100 -0.8436  2.4732
  895MOL0     H23460  10.870   7.443  10.529  0.4234  3.2629 -0.3549
  895MOL0     H23461  10.866   7.505  10.369  0.8277 -0.1279 -0.7985
  895MOL0     H23462  11.107   7.402  10.514 -1.7037 -3.4792 -1.9280
  895MOL0     H23463  11.114   7.432  10.337  1.2885 -0.3666 -0.3187
  895MOL0     H23464  11.042   7.668  10.368  2.3750 -1.4642 -1.5498
  895MOL0     H23465  11.047   7.648  10.536 -0.4430  2.8345 -1.8616
  895MOL0     H23466  11.302   7.578  10.504 -0.9622 -1.8598 -1.3835
  895MOL0     H23467  11.279   7.621  10.336  2.5311  1.3473  0.2229
  895MOL0     H23468  11.498   7.642  10.383  3.0493 -0.5395  1.5125
  895MOL0     H23469  11.735   7.740  10.207  0.4639 -1.4366 -0.3555
  895MOL0     H23470  11.722   7.615  10.335 -3.2236  0.8401  1.1113
  895MOL0     H23471  11.833   7.752  10.351  0.6028  1.5314 -3.3583
  895MOL0     H23472  11.933   8.278  10.506  0.4798 -1.5574 -0.3733
  895MOL0     H23473  12.124   8.420  10.425  2.5632 -2.3491 -0.8562
  895MOL0     H23474  12.316   8.474  10.284 -2.8398  0.1730  2.0048
  895MOL0     H23475  12.253   8.364  10.160 -0.2506 -0.0826  1.1616
  895MOL0     H23476  12.297   8.532   9.980 -2.7838 -0.8087  2.4723
  895MOL0     H23477  12.345   8.648  10.086  0.0281  0.6373 -2.3598
  895MOL0     H23478  12.490   8.394  10.021  0.6312  0.9017 -0.6267
  895MOL0     H23479  12.541   8.475  10.166 -0.9561 -0.0625  0.3437
  895MOL0     H23480  12.602   8.684  10.028  0.1811  0.2738 -0.3688
  895MOL0     H23481  12.521   8.613   9.886 -2.1553 -0.2821  0.4245
  895MOL0     H23482  12.765   8.511  10.015 -1.1740 -1.6286  0.5583
  895MOL0     H23483  12.703   8.445   9.874 -0.9439 -0.3004  0.8719
  895MOL0     H23484  12.807   8.733   9.890  0.7814 -1.8169  2.3595
  895MOL0     H23485  12.746   8.640   9.739 -1.0807 -2.7962 -0.1949
  895MOL0     H23486  12.939   8.482   9.820  1.0635 -0.4064 -0.8805
  895MOL0     H23487  13.000   8.628   9.915  1.5880 -0.8248 -0.8118
  895MOL0     H23488  12.960   8.579   9.619  1.8192  0.5133 -1.9210
  895MOL0     H23489  13.121   8.592   9.692  0.8520  0.7649  0.9169
  895MOL0     H23490  11.945   8.418  10.043 -0.2403  1.6783  0.6528
  895MOL0     H23491  11.799   8.244  10.096  0.9848  0.2534 -0.4876
  895MOL0     H23492  11.528   8.136  10.391  1.4271  0.5201  0.6161
  895MOL0     H23493  11.308   8.018  10.419  1.3327  2.5603 -0.7255
  895MOL0     H23494   9.506   6.834  10.210  2.8198 -1.1024 -0.4279
  895MOL0     H23495   9.305   6.951  10.128  1.2437 -1.8880  0.2696
  895MOL0     H23496   9.015   7.323  10.352  3.3910 -1.9856 -1.9493
  895MOL0     H23497   8.762   7.382  10.292 -3.0034 -1.2990 -1.7560
  895MOL0     H23498   8.477   7.250   9.966  1.1386  0.4098 -1.2834
  895MOL0     H23499   8.613   7.156   9.967 -0.4289  0.0909  0.0518
  895MOL0     H23500   8.569   7.099  10.219 -1.8226 -0.5271  0.6634
  895MOL0     H23501   8.438   7.088  10.121  0.5645 -0.3713 -0.5349
  895MOL0     H23502   8.378   7.210  10.325 -0.2117  2.7523  2.9671
  895MOL0     H23503   8.514   7.324  10.312  0.9428 -0.4700 -1.2690
  895MOL0     H23504   8.299   7.330  10.103  1.0786  0.1802  0.0297
  895MOL0     H23505   8.429   7.441  10.128  1.3370  0.3857  2.8777
  895MOL0     H23506   8.177   7.571  10.429  2.0003 -1.0254  1.6421
  895MOL0     H23507   8.836   7.224   9.903 -0.0426 -1.9591 -0.3088
  895MOL0     H23508   9.134   7.050   9.970 -1.7865 -1.0144 -0.4063
  895MOL0     H23509   9.018   7.092   9.854  1.0132 -0.5388 -0.8741
  895MOL0     H23510   9.152   7.210   9.890  0.2690  1.1276  2.5753
  896MOL0     O23511   6.635   0.912   8.180  0.3529  0.4524  0.1668
  896MOL0     C23512   6.554   0.966   8.107  0.4549 -0.5793  0.7521
  896MOL0     O23513   6.573   1.076   8.038 -0.8880 -0.8956  0.2658
  896MOL0     C23514   6.704   1.135   8.049  0.0122 -0.2478 -1.0191
  896MOL0     C23515   6.723   1.268   8.102  0.3018  0.4080  0.3000
  896MOL0     C23516   6.859   1.325   8.110  0.1929  0.3414  0.9704
  896MOL0     C23517   6.966   1.252   8.062 -0.1154  1.1019 -0.4097
  896MOL0     O23518   7.089   1.315   8.061 -0.2570 -0.3734 -0.6394
  896MOL0     C23519   7.204   1.243   8.039 -0.4126  1.0284 -0.5650
  896MOL0     C23520   7.332   1.335   8.046 -0.0436  0.1667 -0.1875
  896MOL0     C23521   7.454   1.256   8.001 -0.7884 -0.1001  0.4325
  896MOL0     C23522   7.588   1.330   8.020  1.0247 -0.6764  0.0907
  896MOL0     C23523   7.713   1.269   7.955 -1.1049 -0.1531  0.3103
  896MOL0     C23524   7.839   1.332   8.005  0.5082 -0.8189  0.6924
  896MOL0     C23525   7.974   1.275   7.974 -0.1992 -0.2240  0.3147
  896MOL0     C23526   8.097   1.356   8.010 -0.2577 -0.2360  0.0033
  896MOL0     N23527   8.224   1.292   7.972 -0.2467 -0.2542 -0.3101
  896MOL0     C23528   8.298   1.203   8.047 -0.5807  0.2183  0.0713
  896MOL0     C23529   8.412   1.184   7.975 -0.0773 -0.6251 -0.3937
  896MOL0     C23530   8.531   1.091   8.001 -0.0800 -0.1360 -0.6387
  896MOL0     C23531   8.628   1.146   8.112  0.6036  0.3577  0.2552
  896MOL0     C23532   8.728   1.044   8.155  0.3658  0.4218 -0.3048
  896MOL0     C23533   8.825   0.994   8.044  0.3494 -0.4417 -0.0141
  896MOL0     O23534   8.923   0.909   8.098  0.3672  0.7700  0.1067
  896MOL0     C23535   9.033   0.873   8.018 -0.9846  0.7266  0.4869
  896MOL0     C23536   9.048   0.927   7.891  0.2274  1.0792 -0.3561
  896MOL0     C23537   9.142   0.868   7.810  0.5732 -0.1547  0.9841
  896MOL0     C23538   9.166   0.935   7.670 -0.2521 -0.6310  0.0603
  896MOL0     C23539   9.223   0.760   7.850 -0.2713 -0.0563 -0.3474
  896MOL0     C23540   9.331   0.698   7.767  0.7115 -0.3899 -0.8446
  896MOL0     O23541   9.306   0.691   7.634 -0.2679 -0.1689 -0.4033
  896MOL0     C23542   9.417   0.682   7.548  0.5281  0.1001  0.0675
  896MOL0     C23543   9.551   0.724   7.573 -0.0411  0.3581 -0.0108
  896MOL0     C23544   9.652   0.689   7.473 -0.4315  0.1102  0.0250
  896MOL0     C23545   9.607   0.642   7.346  0.2395  0.6653  0.3184
  896MOL0     O23546   9.684   0.620   7.232  0.1171  0.0159  0.3361
  896MOL0     C23547   9.828   0.606   7.243  0.5324 -0.0617 -0.3879
  896MOL0     C23548   9.887   0.629   7.104 -0.4408  0.3339 -0.1813
  896MOL0     C23549  10.035   0.614   7.110 -0.0227 -0.2789  0.5520
  896MOL0     C23550  10.091   0.477   7.132 -0.3582  0.0914 -0.3309
  896MOL0     C23551  10.246   0.484   7.107 -0.4581 -0.2613  0.1479
  896MOL0     C23552  10.336   0.540   7.227  0.0329  0.2197  0.4519
  896MOL0     C23553  10.476   0.561   7.170 -0.4587  0.3391 -0.4360
  896MOL0     C23554  10.580   0.619   7.274 -0.4811 -0.2034  0.1981
  896MOL0    Cl23555  10.539   0.783   7.321  0.1331  0.1350 -0.3130
  896MOL0     C23556   9.475   0.618   7.324 -0.1495 -0.4103 -0.3228
  896MOL0     C23557   9.382   0.635   7.424 -0.2555 -0.4277  0.7940
  896MOL0     O23558   9.417   0.644   7.829 -0.4830  0.4251  0.7097
  896MOL0     C23559   9.208   0.716   7.985 -0.7224  0.7547  0.7640
  896MOL0     C23560   9.110   0.771   8.065 -0.3759  0.4188  0.8574
  896MOL0     N23561   8.404   1.260   7.857 -0.3122  0.3274 -0.7121
  896MOL0     N23562   8.290   1.326   7.857 -0.0517  0.2718 -0.3741
  896MOL0     C23563   6.945   1.120   8.018  0.6756  0.6736  0.2009
  896MOL0     C23564   6.814   1.068   8.017  0.1595 -0.4156  0.8139
  896MOL0     C23565   6.426   0.896   8.093 -0.4286  0.5100  0.1833
  896MOL0     C23566   6.341   0.947   7.993 -0.6970 -0.4705 -0.4516
  896MOL0     C23567   6.213   0.885   7.976  0.3582  0.1894  0.1842
  896MOL0     C23568   6.159   0.789   8.060 -0.5920  0.5639 -0.0319
  896MOL0     O23569   6.042   0.723   8.057  0.0025 -0.2276  0.1935
  896MOL0     C23570   5.964   0.752   7.943 -0.2603 -0.5035  0.1927
  896MOL0     C23571   5.854   0.655   7.920 -0.8925 -0.0851  0.3710
  896MOL0     C23572   5.736   0.677   8.014  0.8815 -0.0750 -0.0337
  896MOL0     C23573   5.770   0.674   8.167 -0.2582  0.4695  0.5351
  896MOL0     C23574   5.653   0.614   8.234  0.0602 -0.0193  0.2298
  896MOL0     C23575   5.560   0.565   8.296 -0.1018 -0.6736  0.1297
  896MOL0     C23576   6.246   0.737   8.152 -0.6045  0.2220  0.3973
  896MOL0     C23577   6.375   0.792   8.174 -1.0587  0.3196  0.8757
  896MOL0     C23578   6.452   0.713   8.277  0.2471 -0.6797  0.4575
  896MOL0     H23579   6.636   1.314   8.146 -0.4512  0.7567 -1.4463
  896MOL0     H23580   6.867   1.423   8.157  3.5048 -0.1854  1.7169
  896MOL0     H23581   7.191   1.194   7.942 -1.4784 -2.5755  1.2127
  896MOL0     H23582   7.218   1.168   8.117 -2.7816  1.4517  0.3376
  896MOL0     H23583   7.307   1.421   7.983 -2.9620 -0.4526 -0.0282
  896MOL0     H23584   7.344   1.372   8.148  0.2274 -0.6991  0.1030
  896MOL0     H23585   7.466   1.157   8.044 -2.3549 -1.3919 -1.8550
  896MOL0     H23586   7.433   1.232   7.896 -0.6361 -1.1470  0.6329
  896MOL0     H23587   7.578   1.435   7.991 -1.2908 -0.5666  1.0778
  896MOL0     H23588   7.602   1.329   8.128  0.0150 -0.1606  0.2376
  896MOL0     H23589   7.703   1.285   7.847  1.3947  0.2959  0.0995
  896MOL0     H23590   7.711   1.163   7.982  0.7467 -0.6939 -1.4629
  896MOL0     H23591   7.834   1.434   7.966 -2.7230 -0.1623  2.4863
  896MOL0     H23592   7.833   1.332   8.114  1.9772 -1.0578  0.7874
  896MOL0     H23593   7.966   1.261   7.866 -0.9354  0.4545  0.2698
  896MOL0     H23594   7.976   1.175   8.018 -1.3619 -0.3732  0.0585
  896MOL0     H23595   8.091   1.459   7.972  1.6522 -0.4357 -0.9759
  896MOL0     H23596   8.100   1.367   8.119  2.0745 -0.9451  0.0677
  896MOL0     H23597   8.269   1.171   8.147  1.5099  0.6908  0.8681
  896MOL0     H23598   8.584   1.056   7.912  2.1313  1.8276 -0.1848
  896MOL0     H23599   8.478   1.004   8.041 -1.0352  0.5401 -0.4079
  896MOL0     H23600   8.677   1.236   8.076  0.8044  0.9570  1.9262
  896MOL0     H23601   8.573   1.176   8.202 -1.7842 -1.0073 -0.6665
  896MOL0     H23602   8.781   1.097   8.236 -2.5332  0.5604  1.6353
  896MOL0     H23603   8.664   0.965   8.196 -0.4199  1.3898  0.3936
  896MOL0     H23604   8.773   0.947   7.960  0.2132 -1.4627  0.6238
  896MOL0     H23605   8.864   1.088   8.003 -2.2789  1.4729  1.5254
  896MOL0     H23606   8.982   0.997   7.841 -2.1371 -1.9630 -1.8021
  896MOL0     H23607   9.110   1.029   7.669  1.7868  0.6630  1.1866
  896MOL0     H23608   9.125   0.872   7.590 -0.3062 -2.7975  1.6958
  896MOL0     H23609   9.271   0.960   7.654 -0.5073 -0.0859 -0.8229
  896MOL0     H23610   9.572   0.759   7.674  1.1321 -0.7653  0.1644
  896MOL0     H23611   9.759   0.705   7.484 -0.2066  0.2088 -1.9273
  896MOL0     H23612   9.861   0.687   7.308 -1.8672  1.3840 -0.8567
  896MOL0     H23613   9.860   0.505   7.272  1.4063 -0.0112 -1.1251
  896MOL0     H23614   9.848   0.558   7.030  2.4460 -0.4825 -1.0359
  896MOL0     H23615   9.862   0.731   7.073  1.8725  1.0506  0.1114
  896MOL0     H23616  10.076   0.686   7.181 -0.1813  1.5504 -1.1364
  896MOL0     H23617  10.073   0.632   7.009  2.5631  0.3029  1.5485
  896MOL0     H23618  10.058   0.412   7.050 -0.0132 -0.3916 -0.0932
  896MOL0     H23619  10.078   0.443   7.235  1.6589  2.5710  0.8562
  896MOL0     H23620  10.277   0.383   7.079 -0.8690 -0.7013  1.2177
  896MOL0     H23621  10.273   0.550   7.024  2.4479  1.4404  2.2585
  896MOL0     H23622  10.337   0.475   7.315 -0.8887 -0.3419  0.0669
  896MOL0     H23623  10.307   0.640   7.262  1.9278  0.5036  1.3354
  896MOL0     H23624  10.476   0.621   7.079  2.4827  0.6359 -0.3473
  896MOL0     H23625  10.515   0.462   7.144 -0.8877  0.1508 -0.3735
  896MOL0     H23626  10.680   0.612   7.232 -0.2874 -0.8691  0.7572
  896MOL0     H23627  10.575   0.559   7.365  1.8876 -1.9656 -0.7312
  896MOL0     H23628   9.437   0.598   7.224  1.6263 -2.9499 -0.5706
  896MOL0     H23629   9.276   0.629   7.400 -0.6941  0.2312  2.4177
  896MOL0     H23630   9.272   0.639   8.025 -0.0330  1.2661  0.6675
  896MOL0     H23631   9.100   0.742   8.169 -0.0927 -0.2236  0.7098
  896MOL0     H23632   7.017   1.051   7.975 -2.0397 -1.4247 -1.2943
  896MOL0     H23633   6.815   0.969   7.971 -0.7385  0.6043 -1.5890
  896MOL0     H23634   6.366   1.025   7.922  1.6741  0.1944  0.9712
  896MOL0     H23635   6.154   0.928   7.895 -0.9226  0.2076  1.1058
  896MOL0     H23636   5.921   0.853   7.941 -0.1062 -0.4008 -2.8146
  896MOL0     H23637   6.028   0.750   7.853 -0.9655 -1.5950 -0.2942
  896MOL0     H23638   5.897   0.555   7.928  0.9946  0.5115 -1.3988
  896MOL0     H23639   5.825   0.660   7.815  0.7192  0.7265 -0.0749
  896MOL0     H23640   5.697   0.770   7.972  0.4865  0.0230  0.5402
  896MOL0     H23641   5.653   0.609   7.995 -2.1139  3.8748 -2.9318
  896MOL0     H23642   5.788   0.774   8.206  0.9179  0.7540 -0.6603
  896MOL0     H23643   5.862   0.617   8.183 -1.3664 -3.0145 -3.6366
  896MOL0     H23644   5.466   0.533   8.337  1.6133 -4.8168  1.3226
  896MOL0     H23645   6.219   0.646   8.204 -1.1455 -1.3661 -2.4141
  896MOL0     H23646   6.474   0.788   8.354 -1.9914  3.1914 -2.2645
  896MOL0     H23647   6.392   0.631   8.317 -0.3249  0.4471  2.0417
  896MOL0     H23648   6.543   0.669   8.236  0.2641  0.1667 -0.4719
  897MOL0     O23649   0.331   1.901   2.530  0.2465 -0.7441  0.3976
  897MOL0     C23650   0.320   1.934   2.411 -0.2417 -0.9704  0.6712
  897MOL0     O23651   0.431   1.947   2.321 -0.4610 -0.0593  0.6243
  897MOL0     C23652   0.557   1.941   2.362  0.1353 -0.6518 -0.3643
  897MOL0     C23653   0.646   2.037   2.320  0.3987  0.4175  0.3266
  897MOL0     C23654   0.774   2.026   2.360 -0.3483 -0.5034 -0.7899
  897MOL0     C23655   0.822   1.932   2.448  0.1317  0.2125  0.0305
  897MOL0     O23656   0.956   1.921   2.464 -0.1858 -0.4606  0.3382
  897MOL0     C23657   1.007   1.806   2.535  0.8327 -0.3063  0.0238
  897MOL0     C23658   1.156   1.803   2.556  0.3465  0.3724 -0.1473
  897MOL0     C23659   1.190   1.693   2.657  0.7865  0.9768 -0.3481
  897MOL0     C23660   1.338   1.657   2.663 -0.3810  0.1726  0.4802
  897MOL0     C23661   1.392   1.561   2.766  0.0026  0.4684  0.0048
  897MOL0     C23662   1.333   1.421   2.771  0.4802  0.2359  0.2913
  897MOL0     C23663   1.380   1.350   2.893  0.1687 -0.4412  0.5629
  897MOL0     C23664   1.305   1.380   3.020 -0.0104  0.0654  0.4555
  897MOL0     N23665   1.350   1.306   3.133  0.4998  0.1775 -0.4203
  897MOL0     C23666   1.473   1.272   3.177  0.2363 -0.2470  0.0816
  897MOL0     C23667   1.463   1.158   3.242 -0.0831  0.0752 -0.5203
  897MOL0     C23668   1.582   1.075   3.292  0.5640  0.6784 -0.1303
  897MOL0     C23669   1.646   1.149   3.413 -1.2408  0.4338  0.5818
  897MOL0     C23670   1.725   1.046   3.483 -0.6809 -0.0175 -0.3244
  897MOL0     C23671   1.799   1.091   3.598 -0.4192 -0.2268 -0.1478
  897MOL0     O23672   1.724   1.168   3.692  0.0692 -0.6902  0.0281
  897MOL0     C23673   1.749   1.175   3.828 -0.1140 -0.1105 -0.4756
  897MOL0     C23674   1.663   1.260   3.909  0.0098 -0.2995  0.6292
  897MOL0     C23675   1.705   1.291   4.042  1.0476  1.4478 -0.0281
  897MOL0     C23676   1.619   1.394   4.110 -0.2687 -1.0455  0.1580
  897MOL0     C23677   1.801   1.212   4.103 -0.9022 -0.4646  0.0980
  897MOL0     C23678   1.863   1.243   4.244  0.1626 -0.0527  0.1488
  897MOL0     O23679   1.961   1.151   4.292 -0.2197 -0.1379 -0.5546
  897MOL0     C23680   2.033   1.202   4.394 -0.6985 -0.3479 -0.4626
  897MOL0     C23681   2.122   1.315   4.388  0.2727 -0.3927 -0.1197
  897MOL0     C23682   2.218   1.330   4.491  1.0137 -0.1481  0.8537
  897MOL0     C23683   2.219   1.244   4.601 -0.3735  0.2519 -0.1242
  897MOL0     O23684   2.318   1.265   4.696  0.0732  0.7317  0.3388
  897MOL0     C23685   2.422   1.166   4.709 -0.4424 -0.0745 -0.9881
  897MOL0     C23686   2.533   1.238   4.787  0.7905  0.6816  0.2316
  897MOL0     C23687   2.636   1.138   4.846 -0.0461 -0.0493  0.0762
  897MOL0     C23688   2.766   1.215   4.861 -0.2136 -0.1503  0.2961
  897MOL0     C23689   2.853   1.140   4.952 -0.4472  0.2864 -0.4440
  897MOL0     C23690   2.978   1.224   4.969 -0.8026  0.1547 -0.1283
  897MOL0     C23691   3.087   1.143   5.036  0.1961  0.0622  0.5352
  897MOL0     C23692   3.193   1.226   5.094  0.3730  0.6250 -0.4424
  897MOL0    Cl23693   3.352   1.136   5.148  0.5739  0.0446  0.0998
  897MOL0     C23694   2.135   1.137   4.603  0.0224 -0.2206 -0.0254
  897MOL0     C23695   2.038   1.118   4.503 -0.3377 -0.2894 -0.5963
  897MOL0     O23696   1.818   1.339   4.304  0.3893  0.5344 -0.1168
  897MOL0     C23697   1.870   1.118   4.029 -0.2996 -0.0369 -0.2133
  897MOL0     C23698   1.844   1.097   3.892 -0.0905 -0.0524 -0.0990
  897MOL0     N23699   1.332   1.124   3.244  0.6090 -0.4247  0.0311
  897MOL0     N23700   1.260   1.213   3.185 -0.1369 -0.3212  0.4313
  897MOL0     C23701   0.738   1.832   2.490 -0.4081 -0.2299  0.5884
  897MOL0     C23702   0.602   1.839   2.449 -0.3964 -0.3971  0.2575
  897MOL0     C23703   0.181   1.949   2.370 -0.2789 -0.3559  0.0952
  897MOL0     C23704   0.072   1.899   2.443 -0.6955 -0.2007  0.8784
  897MOL0     C23705  -0.060   1.919   2.399 -0.8496 -0.9313  0.3195
  897MOL0     C23706  -0.090   1.993   2.280  0.2245 -0.2473 -0.2331
  897MOL0     O23707  -0.221   1.991   2.256  0.5406  0.1043  0.5473
  897MOL0     C23708  -0.275   2.032   2.130  0.2416  0.3125 -0.0439
  897MOL0     C23709  -0.340   1.897   2.076 -0.2275  0.4559  0.3889
  897MOL0     C23710  -0.470   1.876   2.157  0.5309  0.6608  0.1253
  897MOL0     C23711  -0.548   1.751   2.124  0.4793  0.4522  0.2624
  897MOL0     C23712  -0.665   1.745   2.211  0.0754 -0.1167  1.0844
  897MOL0     C23713  -0.762   1.754   2.275 -0.1075 -0.5630  0.2910
  897MOL0     C23714   0.015   2.046   2.204 -0.2002  0.2977 -0.4274
  897MOL0     C23715   0.153   2.036   2.255 -0.2483  0.0337  0.1391
  897MOL0     C23716   0.258   2.129   2.191 -1.4854 -0.6191  0.1449
  897MOL0     H23717   0.620   2.119   2.254  1.9978  0.0901 -0.7608
  897MOL0     H23718   0.844   2.107   2.339  0.0269  0.5250  3.5400
  897MOL0     H23719   0.982   1.711   2.487 -0.3999 -0.5276  1.0826
  897MOL0     H23720   0.958   1.805   2.632 -0.4989  1.7473 -0.5441
  897MOL0     H23721   1.215   1.770   2.471  1.0550 -0.8252  0.7704
  897MOL0     H23722   1.197   1.899   2.588  2.3646 -1.0106  1.6949
  897MOL0     H23723   1.168   1.732   2.757  0.1569 -0.6356  0.1769
  897MOL0     H23724   1.135   1.600   2.637  3.3439 -0.0793 -3.2858
  897MOL0     H23725   1.366   1.622   2.564 -3.9617 -1.4005 -0.1568
  897MOL0     H23726   1.379   1.754   2.694 -2.4250  1.3954 -0.4092
  897MOL0     H23727   1.380   1.610   2.863  2.7395 -0.2814  0.8085
  897MOL0     H23728   1.500   1.543   2.758 -0.3045 -1.7780  0.3157
  897MOL0     H23729   1.225   1.432   2.783  0.3470 -1.3553  0.8225
  897MOL0     H23730   1.353   1.367   2.678 -0.3895  1.4741 -0.6543
  897MOL0     H23731   1.488   1.359   2.904  0.2765 -1.0824  0.0884
  897MOL0     H23732   1.361   1.243   2.879 -0.7218 -0.2961  0.6238
  897MOL0     H23733   1.317   1.483   3.057 -0.1390 -0.3641  1.7244
  897MOL0     H23734   1.196   1.378   3.007  0.3063 -0.8037 -3.0716
  897MOL0     H23735   1.565   1.324   3.151  0.0815  0.3050  0.6024
  897MOL0     H23736   1.664   1.057   3.221  0.4303  0.3905 -0.2106
  897MOL0     H23737   1.540   0.980   3.325  1.2979  0.7730  1.1462
  897MOL0     H23738   1.709   1.230   3.375  0.9922 -1.1323  0.7809
  897MOL0     H23739   1.565   1.200   3.467 -2.1804  0.5664 -0.9062
  897MOL0     H23740   1.670   0.958   3.520  2.9738 -2.0220  0.8134
  897MOL0     H23741   1.786   0.987   3.413 -1.0091  0.3329 -0.9181
  897MOL0     H23742   1.842   1.003   3.648  0.6999  0.8834  0.9192
  897MOL0     H23743   1.878   1.157   3.559 -1.1376 -0.1503 -1.5423
  897MOL0     H23744   1.577   1.315   3.874 -0.8549 -1.8062  0.2629
  897MOL0     H23745   1.672   1.487   4.132 -1.8412  0.7813 -3.0240
  897MOL0     H23746   1.574   1.349   4.198 -0.3859  2.5751  2.1074
  897MOL0     H23747   1.548   1.429   4.034  0.9531 -2.2770 -1.6479
  897MOL0     H23748   2.128   1.383   4.304  0.5418 -0.0576  0.1655
  897MOL0     H23749   2.291   1.410   4.491  1.4549 -0.5251 -0.2165
  897MOL0     H23750   2.379   1.087   4.772 -2.7221  1.9844  0.1490
  897MOL0     H23751   2.464   1.130   4.614 -1.5450 -1.7730 -0.8759
  897MOL0     H23752   2.576   1.308   4.715  1.3484 -0.3610 -0.4804
  897MOL0     H23753   2.508   1.299   4.874  2.1811  1.8365 -0.1301
  897MOL0     H23754   2.651   1.058   4.772 -1.1125  1.6773 -2.1453
  897MOL0     H23755   2.604   1.101   4.944  2.5983 -0.7434  0.7548
  897MOL0     H23756   2.747   1.311   4.910 -4.7079 -1.8096  2.3897
  897MOL0     H23757   2.811   1.237   4.764 -0.6568  0.9889  0.3363
  897MOL0     H23758   2.800   1.131   5.047  0.3601 -0.5737 -0.0523
  897MOL0     H23759   2.869   1.042   4.905  0.1659 -0.4463  1.2033
  897MOL0     H23760   2.973   1.316   5.028  1.8320  0.3773 -0.1544
  897MOL0     H23761   3.011   1.256   4.870 -0.7732 -1.9753 -0.8483
  897MOL0     H23762   3.125   1.084   4.953 -0.3960 -1.3639  1.2469
  897MOL0     H23763   3.042   1.080   5.113 -0.4462 -0.0573  0.0676
  897MOL0     H23764   3.145   1.280   5.177 -1.2711 -0.8595 -0.3874
  897MOL0     H23765   3.213   1.300   5.015 -1.4128 -0.1308 -1.6478
  897MOL0     H23766   2.133   1.072   4.689  1.2009 -0.4955 -0.1967
  897MOL0     H23767   1.964   1.042   4.529  1.5475 -1.0947  3.0909
  897MOL0     H23768   1.940   1.049   4.074  1.0714  2.7940  2.3746
  897MOL0     H23769   1.912   1.040   3.830 -1.8937 -1.4029 -0.9298
  897MOL0     H23770   0.773   1.749   2.550 -0.2427  0.1498  1.0270
  897MOL0     H23771   0.534   1.756   2.465  1.2312 -2.2185 -1.6884
  897MOL0     H23772   0.087   1.842   2.533  0.3008 -1.3479  0.0189
  897MOL0     H23773  -0.137   1.896   2.472  0.5109 -3.5598  1.0434
  897MOL0     H23774  -0.352   2.109   2.134 -0.0087 -0.0050  1.9472
  897MOL0     H23775  -0.201   2.066   2.056  0.4113  2.1143  0.9036
  897MOL0     H23776  -0.269   1.814   2.084 -2.1840 -1.1111  2.5862
  897MOL0     H23777  -0.355   1.908   1.968  1.1410 -0.9340  0.0172
  897MOL0     H23778  -0.456   1.880   2.266 -4.4938 -0.3619  1.0972
  897MOL0     H23779  -0.538   1.959   2.139  0.3738  0.7839  1.2167
  897MOL0     H23780  -0.490   1.658   2.131 -0.9584 -0.4290  1.0693
  897MOL0     H23781  -0.586   1.762   2.023 -1.5764 -3.8674  0.3365
  897MOL0     H23782  -0.840   1.761   2.349 -0.9474 -0.9801 -0.5271
  897MOL0     H23783  -0.004   2.100   2.112  1.1881  1.0880 -0.2815
  897MOL0     H23784   0.205   2.201   2.128  0.2332 -1.1858 -2.0839
  897MOL0     H23785   0.326   2.168   2.267 -1.5137 -3.6055  1.8742
  897MOL0     H23786   0.312   2.073   2.114 -2.7200  0.1882 -1.3625
  898MOL0     O23787   5.859  10.297   5.216 -0.0602  0.0486 -0.2463
  898MOL0     C23788   5.852  10.214   5.126 -0.0904  0.6203  0.5887
  898MOL0     O23789   5.956  10.155   5.066  0.8034 -0.3036 -0.0900
  898MOL0     C23790   6.089  10.161   5.108 -0.1726 -0.3342 -0.1079
  898MOL0     C23791   6.148  10.287   5.104  0.3184 -0.1335 -0.4052
  898MOL0     C23792   6.276  10.303   5.141  0.0307 -0.0211  0.3473
  898MOL0     C23793   6.350  10.200   5.190  0.2777 -0.3581 -0.5578
  898MOL0     O23794   6.484  10.214   5.227 -0.0514  0.1218 -0.4219
  898MOL0     C23795   6.537  10.345   5.252 -0.0511 -0.2636 -0.2858
  898MOL0     C23796   6.686  10.341   5.273 -0.0156  0.3738  0.8080
  898MOL0     C23797   6.732  10.486   5.295  0.2018  0.4694  0.3703
  898MOL0     C23798   6.882  10.502   5.262  0.1852 -0.0303  0.5601
  898MOL0     C23799   6.950  10.620   5.336  0.1466 -0.5234 -0.3481
  898MOL0     C23800   6.885  10.753   5.282  1.1267  0.1017 -0.4685
  898MOL0     C23801   6.958  10.889   5.320 -0.0152  0.5150  0.7780
  898MOL0     C23802   6.884  11.012   5.263  0.0687  0.1196  0.6075
  898MOL0     N23803   6.972  11.123   5.297  0.0383 -0.1757 -0.4643
  898MOL0     C23804   7.087  11.167   5.235  0.1670 -0.4957  0.7800
  898MOL0     C23805   7.127  11.277   5.310  0.1456 -0.2917 -0.5279
  898MOL0     C23806   7.250  11.363   5.295  0.3720  1.3427 -0.2098
  898MOL0     C23807   7.365  11.322   5.391 -0.7798  0.4740  0.0710
  898MOL0     C23808   7.450  11.210   5.329  0.9699 -0.5090 -0.3062
  898MOL0     C23809   7.541  11.141   5.437  0.2333 -0.1070  0.3500
  898MOL0     O23810   7.602  11.027   5.371  0.2508 -0.1904 -0.5079
  898MOL0     C23811   7.713  11.043   5.295  0.2703 -0.4721  0.3984
  898MOL0     C23812   7.785  11.163   5.272  0.4481  0.0956 -0.0974
  898MOL0     C23813   7.917  11.165   5.213  0.6817 -0.0650 -0.2836
  898MOL0     C23814   7.993  11.302   5.204 -0.3111 -0.4525 -0.6945
  898MOL0     C23815   7.974  11.043   5.158 -1.0444 -1.4614  0.2706
  898MOL0     C23816   8.109  11.036   5.095  1.1071 -0.4614 -0.2113
  898MOL0     O23817   8.201  11.134   5.122  0.1373 -0.8381 -0.2380
  898MOL0     C23818   8.329  11.144   5.067 -0.3745  0.1032  0.1303
  898MOL0     C23819   8.388  11.272   5.100  0.2446 -0.3470 -0.5622
  898MOL0     C23820   8.507  11.307   5.051 -0.6059 -0.7984  0.1733
  898MOL0     C23821   8.580  11.226   4.956  0.1759 -0.4536 -0.3130
  898MOL0     O23822   8.702  11.274   4.925 -0.0336  0.1687 -0.5652
  898MOL0     C23823   8.796  11.178   4.872 -0.1690 -0.3545  1.0753
  898MOL0     C23824   8.928  11.249   4.836  0.7991 -0.1527 -0.7448
  898MOL0     C23825   9.024  11.149   4.779  0.2188  0.0250  0.2394
  898MOL0     C23826   9.149  11.205   4.696  0.1710  0.4178  0.3534
  898MOL0     C23827   9.247  11.091   4.677 -0.0722  0.1541 -0.4307
  898MOL0     C23828   9.370  11.151   4.615  0.3648 -0.2173 -0.2467
  898MOL0     C23829   9.475  11.056   4.562 -0.1931  0.6949  0.7834
  898MOL0     C23830   9.598  11.133   4.504 -0.3356 -0.4339 -0.4944
  898MOL0    Cl23831   9.602  11.171   4.334  0.1656 -0.0192 -0.2199
  898MOL0     C23832   8.516  11.099   4.925 -1.0789  0.3074 -0.1900
  898MOL0     C23833   8.391  11.062   4.971 -1.1954 -0.5058 -0.6884
  898MOL0     O23834   8.133  10.931   5.039 -0.0548 -0.0078  0.4661
  898MOL0     C23835   7.881  10.936   5.156 -0.4439  0.6644  0.2244
  898MOL0     C23836   7.755  10.931   5.224 -0.6258 -0.3446 -0.5674
  898MOL0     N23837   7.046  11.298   5.425 -0.2823 -0.1452  0.1576
  898MOL0     N23838   6.958  11.205   5.411  0.1960 -0.1375  0.0767
  898MOL0     C23839   6.286  10.078   5.200 -0.2491  0.0848  1.6281
  898MOL0     C23840   6.155  10.052   5.158 -0.2185 -0.0457  0.0172
  898MOL0     C23841   5.722  10.180   5.068  0.5660  0.2876  0.1729
  898MOL0     C23842   5.714  10.141   4.930  0.5500  0.0288 -0.6147
  898MOL0     C23843   5.590  10.103   4.874 -0.4106  0.2093 -0.7761
  898MOL0     C23844   5.478  10.106   4.958 -0.1974 -0.4549  0.7325
  898MOL0     O23845   5.355  10.056   4.927 -0.2412 -0.0795  0.3442
  898MOL0     C23846   5.327  10.041   4.784  0.2765 -0.9131 -0.2068
  898MOL0     C23847   5.374   9.904   4.741  0.7350  0.7342  0.2600
  898MOL0     C23848   5.278   9.795   4.782 -0.2968  0.5716  0.3096
  898MOL0     C23849   5.357   9.668   4.816 -0.6587 -0.9290  0.0906
  898MOL0     C23850   5.419   9.611   4.702 -0.1834  0.3484 -0.3478
  898MOL0     C23851   5.478   9.556   4.616  0.4145  0.3974  0.6152
  898MOL0     C23852   5.489  10.124   5.092  0.8961  0.2637  0.6681
  898MOL0     C23853   5.607  10.170   5.148  0.5605 -0.8771  0.2121
  898MOL0     C23854   5.612  10.187   5.301  1.3381 -0.2255  0.5441
  898MOL0     H23855   6.088  10.367   5.061  2.4540  1.4007 -0.6812
  898MOL0     H23856   6.319  10.402   5.137  1.6577 -0.7354 -0.8568
  898MOL0     H23857   6.488  10.382   5.343  0.7805  0.2654 -0.0437
  898MOL0     H23858   6.522  10.408   5.164  1.9279 -0.0789 -0.5406
  898MOL0     H23859   6.713  10.278   5.358  1.0664 -1.1614 -0.6013
  898MOL0     H23860   6.729  10.301   5.180 -0.6499 -0.5861  0.9068
  898MOL0     H23861   6.673  10.557   5.236 -1.3063 -1.3145 -0.3554
  898MOL0     H23862   6.713  10.504   5.402  0.2466 -2.1995  0.9023
  898MOL0     H23863   6.938  10.413   5.292  1.2119  0.3955 -0.0429
  898MOL0     H23864   6.879  10.519   5.154 -5.3050  1.9211  0.7022
  898MOL0     H23865   7.056  10.609   5.309  0.5301 -0.9576  1.2452
  898MOL0     H23866   6.933  10.602   5.442 -0.2283 -0.3900 -0.3851
  898MOL0     H23867   6.891  10.757   5.173  0.2906  0.2868 -0.5090
  898MOL0     H23868   6.782  10.751   5.318  1.6293 -2.5283  1.0848
  898MOL0     H23869   7.063  10.891   5.289 -0.1289 -0.5831  0.2686
  898MOL0     H23870   6.956  10.901   5.429 -1.6814 -3.0317  1.2856
  898MOL0     H23871   6.884  11.017   5.153 -0.3241  0.1322  0.6078
  898MOL0     H23872   6.784  11.028   5.303  0.1682  0.0249  0.8943
  898MOL0     H23873   7.136  11.127   5.146  0.4933  3.0983 -0.8162
  898MOL0     H23874   7.219  11.465   5.323  0.8970  1.1267  1.2726
  898MOL0     H23875   7.286  11.361   5.192 -1.5956 -2.1949 -0.9667
  898MOL0     H23876   7.436  11.405   5.404  0.8137 -0.9058  0.5571
  898MOL0     H23877   7.323  11.300   5.489  0.5292  0.3468  0.6221
  898MOL0     H23878   7.397  11.139   5.266 -0.9913  2.0781 -1.7640
  898MOL0     H23879   7.508  11.274   5.261 -1.2953  1.5941 -0.4038
  898MOL0     H23880   7.613  11.215   5.474 -1.5261  1.2330  1.3217
  898MOL0     H23881   7.478  11.111   5.522 -0.8225 -0.7013 -0.6192
  898MOL0     H23882   7.749  11.256   5.316  0.1082 -0.0702 -0.0193
  898MOL0     H23883   8.028  11.318   5.102 -1.6299  1.7391 -0.8744
  898MOL0     H23884   8.072  11.311   5.279 -1.2047  0.8373  0.1561
  898MOL0     H23885   7.924  11.384   5.227 -0.2218 -0.0972 -1.6414
  898MOL0     H23886   8.343  11.330   5.180 -2.4822 -0.0944 -2.1500
  898MOL0     H23887   8.544  11.403   5.085  0.0360  0.1110 -2.7602
  898MOL0     H23888   8.807  11.100   4.948 -4.1011 -1.7361  0.4712
  898MOL0     H23889   8.755  11.137   4.779  1.0742  3.7639 -1.5581
  898MOL0     H23890   8.908  11.332   4.768 -0.4812  0.8339  0.7756
  898MOL0     H23891   8.971  11.281   4.931 -0.3282 -0.8256  0.0090
  898MOL0     H23892   8.974  11.074   4.717  0.5723 -1.2437  1.4355
  898MOL0     H23893   9.065  11.097   4.866  0.9760  0.1550 -0.0319
  898MOL0     H23894   9.204  11.275   4.760 -1.3083  0.2498  1.8756
  898MOL0     H23895   9.115  11.260   4.607 -1.2487  2.0121  1.8086
  898MOL0     H23896   9.268  11.030   4.765 -0.1736  2.1205  1.0251
  898MOL0     H23897   9.201  11.018   4.610 -0.3281  1.1041 -1.3132
  898MOL0     H23898   9.417  11.215   4.690  1.4994  0.3585 -1.4189
  898MOL0     H23899   9.338  11.215   4.532  3.1581 -3.5246 -4.2682
  898MOL0     H23900   9.442  10.988   4.483  0.4731 -1.4760  2.3058
  898MOL0     H23901   9.493  10.994   4.649 -0.5054  0.4024  0.6413
  898MOL0     H23902   9.683  11.069   4.530 -1.1312 -1.8282 -1.2150
  898MOL0     H23903   9.616  11.226   4.559  1.2330 -0.2975 -1.1882
  898MOL0     H23904   8.566  11.031   4.856  0.8784 -0.0375  1.4752
  898MOL0     H23905   8.341  10.974   4.934  0.4516 -0.8357 -2.3004
  898MOL0     H23906   7.911  10.853   5.093  1.5316  1.9023 -0.5872
  898MOL0     H23907   7.695  10.841   5.219 -0.3279 -0.6836  1.2289
  898MOL0     H23908   6.343   9.997   5.243  0.4502 -0.6845 -0.6048
  898MOL0     H23909   6.110   9.954   5.157 -0.3266 -0.0071 -1.5536
  898MOL0     H23910   5.806  10.142   4.873 -0.7079  2.3444 -2.7476
  898MOL0     H23911   5.583  10.066   4.772  0.0106 -0.2703 -0.6373
  898MOL0     H23912   5.218  10.035   4.769  0.2153 -1.0379  0.2751
  898MOL0     H23913   5.378  10.121   4.730 -0.7414  2.3150  3.1412
  898MOL0     H23914   5.479   9.894   4.771  0.2670  1.8787  2.4928
  898MOL0     H23915   5.367   9.893   4.632  0.4631 -3.0956  0.5005
  898MOL0     H23916   5.213   9.823   4.865 -2.4483  1.1914 -1.4625
  898MOL0     H23917   5.223   9.764   4.692  0.8372 -3.1284  0.7175
  898MOL0     H23918   5.283   9.600   4.860 -1.0078  0.2959  1.5272
  898MOL0     H23919   5.439   9.689   4.886  0.8331  1.6807 -2.2323
  898MOL0     H23920   5.515   9.483   4.546 -2.5250 -0.2140 -0.4584
  898MOL0     H23921   5.407  10.103   5.160  0.4085 -0.4363 -0.1136
  898MOL0     H23922   5.646  10.289   5.320 -0.0454 -0.0089  2.1198
  898MOL0     H23923   5.508  10.184   5.336  0.6325  3.0789 -0.9182
  898MOL0     H23924   5.667  10.113   5.360  0.4712 -2.3610 -1.1906
  899MOL0     O23925   9.260   1.238   3.317  0.0142 -0.5290  0.5094
  899MOL0     C23926   9.170   1.317   3.295  0.3670  0.8632 -0.1727
  899MOL0     O23927   9.169   1.449   3.319  0.4531  0.7285  0.2708
  899MOL0     C23928   9.293   1.507   3.344 -0.4881  0.5037  1.0418
  899MOL0     C23929   9.398   1.521   3.245  0.3168 -0.2811  0.0115
  899MOL0     C23930   9.509   1.598   3.274  0.1152  0.1508 -0.5629
  899MOL0     C23931   9.531   1.658   3.401  0.2307 -0.2932 -0.2657
  899MOL0     O23932   9.644   1.728   3.432 -0.1505  0.7491 -0.0206
  899MOL0     C23933   9.762   1.706   3.350 -0.4115  0.0987  0.0037
  899MOL0     C23934   9.894   1.775   3.404  0.3198  0.1174 -0.1467
  899MOL0     C23935  10.003   1.784   3.301 -0.0550  0.0766 -0.1189
  899MOL0     C23936  10.150   1.789   3.351 -0.6408 -0.6768  0.1404
  899MOL0     C23937  10.266   1.801   3.254 -0.3246 -0.3168  0.1362
  899MOL0     C23938  10.238   1.886   3.123  0.5248  0.4236 -0.1786
  899MOL0     C23939  10.362   1.906   3.033 -0.2513  0.7318  0.5335
  899MOL0     C23940  10.451   2.018   3.087 -0.0454 -0.3774 -1.4497
  899MOL0     N23941  10.563   2.046   3.003 -0.4388 -0.2699  0.0498
  899MOL0     C23942  10.687   1.987   3.014 -0.2750  0.5416 -0.0386
  899MOL0     C23943  10.776   2.068   2.960 -0.6173  0.0324  0.1937
  899MOL0     C23944  10.927   2.040   2.944  0.2357  0.1701  0.3011
  899MOL0     C23945  11.005   2.134   2.854  0.0613  1.0893 -0.0391
  899MOL0     C23946  11.145   2.071   2.841 -0.4067  0.1788  0.7500
  899MOL0     C23947  11.241   2.173   2.768  0.9395 -0.3079  0.4883
  899MOL0     O23948  11.264   2.289   2.851  0.1941  0.1274  0.2833
  899MOL0     C23949  11.383   2.362   2.839 -0.2966 -0.5780 -0.0197
  899MOL0     C23950  11.468   2.351   2.729 -0.8724  0.4387  0.5134
  899MOL0     C23951  11.594   2.415   2.726 -0.3383 -0.3968 -0.4012
  899MOL0     C23952  11.676   2.392   2.605 -0.9018  0.1972 -0.1415
  899MOL0     C23953  11.633   2.502   2.832 -0.4400  0.5487  0.2925
  899MOL0     C23954  11.756   2.579   2.840  0.0817  0.0413  1.3284
  899MOL0     O23955  11.820   2.596   2.722  0.3940 -0.2276  0.1994
  899MOL0     C23956  11.930   2.671   2.715  0.0376 -0.4523  0.3369
  899MOL0     C23957  12.051   2.594   2.706  0.6666  1.1976 -0.9216
  899MOL0     C23958  12.172   2.665   2.690 -0.4765  0.2472  0.5072
  899MOL0     C23959  12.189   2.803   2.699  0.3494 -0.1448  0.2298
  899MOL0     O23960  12.316   2.862   2.684 -0.0311 -0.2096 -0.2899
  899MOL0     C23961  12.341   2.998   2.705  0.1639 -0.1104  0.0003
  899MOL0     C23962  12.489   3.040   2.709 -0.0343  1.1792 -0.5639
  899MOL0     C23963  12.569   2.968   2.598 -0.0299  0.2000  0.8306
  899MOL0     C23964  12.715   3.024   2.579 -0.0823  0.3532  1.0135
  899MOL0     C23965  12.791   2.926   2.487 -0.4986 -0.0712 -0.6005
  899MOL0     C23966  12.939   2.943   2.479 -0.0433  0.8899 -0.8015
  899MOL0     C23967  13.000   2.813   2.432 -0.1721 -0.0504 -0.4785
  899MOL0     C23968  13.141   2.852   2.387  0.1388 -0.8332 -0.5283
  899MOL0    Cl23969  13.199   2.725   2.264 -0.1029 -0.3073  0.4471
  899MOL0     C23970  12.068   2.873   2.713  0.0875  0.1433  0.1363
  899MOL0     C23971  11.946   2.810   2.721  1.4409 -0.3296 -0.5245
  899MOL0     O23972  11.792   2.627   2.946 -0.3033  0.3900 -0.1692
  899MOL0     C23973  11.547   2.514   2.941 -0.1855  0.0032 -0.5002
  899MOL0     C23974  11.423   2.443   2.946 -0.0017 -0.4123 -0.5610
  899MOL0     N23975  10.706   2.179   2.913 -0.3242 -0.0557 -0.0866
  899MOL0     N23976  10.579   2.161   2.936  0.1329  0.6789  0.2723
  899MOL0     C23977   9.424   1.648   3.493  0.3937 -0.3910 -0.0591
  899MOL0     C23978   9.310   1.576   3.461 -0.3937 -0.2963  0.2204
  899MOL0     C23979   9.051   1.266   3.229  0.8963  0.0421  0.4524
  899MOL0     C23980   8.993   1.337   3.122 -0.6492 -0.2200 -0.3894
  899MOL0     C23981   8.888   1.281   3.039  0.6589 -0.3511 -0.7380
  899MOL0     C23982   8.857   1.153   3.065  0.2912 -0.3183 -0.7082
  899MOL0     O23983   8.770   1.075   2.986  0.5433 -0.4540  0.5413
  899MOL0     C23984   8.661   1.150   2.926 -0.2557 -0.6743 -0.3067
  899MOL0     C23985   8.670   1.149   2.773  0.3255 -0.0773  0.4814
  899MOL0     C23986   8.660   1.010   2.703 -0.2065 -0.7298 -0.5483
  899MOL0     C23987   8.534   0.937   2.721 -0.1959 -0.0093  0.3178
  899MOL0     C23988   8.415   1.008   2.664  0.5021  0.2759  0.4850
  899MOL0     C23989   8.317   1.080   2.627 -0.5881  0.0028 -0.4294
  899MOL0     C23990   8.914   1.086   3.168  0.2871  0.6427  0.7513
  899MOL0     C23991   9.005   1.141   3.255  0.0687 -0.8139  0.1043
  899MOL0     C23992   9.041   1.054   3.375 -0.1072 -0.2094  0.0144
  899MOL0     H23993   9.401   1.476   3.146  0.0800  2.1771 -1.1847
  899MOL0     H23994   9.592   1.601   3.204  0.1056  2.8389 -0.5406
  899MOL0     H23995   9.756   1.753   3.251 -0.5004 -3.1232 -1.6608
  899MOL0     H23996   9.776   1.599   3.333 -0.1045 -0.3439  2.7193
  899MOL0     H23997   9.871   1.880   3.423  1.2233  0.4285 -0.7281
  899MOL0     H23998   9.923   1.716   3.492  1.7804 -0.9544 -1.2913
  899MOL0     H23999  10.014   1.702   3.229  3.8742 -1.4501  1.8889
  899MOL0     H24000   9.993   1.880   3.250  0.6863 -0.1541 -0.7315
  899MOL0     H24001  10.156   1.878   3.415  0.6218 -0.9179  0.3929
  899MOL0     H24002  10.164   1.704   3.419 -0.9045 -4.3246 -3.9608
  899MOL0     H24003  10.293   1.698   3.230 -0.8766 -1.0644  2.5295
  899MOL0     H24004  10.355   1.840   3.303  0.9812 -1.6981 -1.0230
  899MOL0     H24005  10.157   1.835   3.070 -0.6875 -0.8548  2.7504
  899MOL0     H24006  10.201   1.984   3.157 -0.2788 -0.7915  2.6994
  899MOL0     H24007  10.340   1.929   2.929 -1.1380  0.0818  0.5549
  899MOL0     H24008  10.421   1.814   3.020  2.5656  2.6718 -1.4901
  899MOL0     H24009  10.381   2.101   3.098 -0.2581 -0.7510  0.4175
  899MOL0     H24010  10.494   1.993   3.185 -0.7375 -0.2408 -1.1085
  899MOL0     H24011  10.712   1.893   3.062  1.3550  0.3865 -1.1087
  899MOL0     H24012  10.920   1.942   2.896 -0.4679 -0.1620  1.0745
  899MOL0     H24013  10.971   2.007   3.038 -3.6150  1.4642  2.7613
  899MOL0     H24014  10.964   2.136   2.752 -0.7602  0.8821  0.2739
  899MOL0     H24015  11.015   2.235   2.895  5.2881 -0.3848  3.3231
  899MOL0     H24016  11.185   2.047   2.940 -0.9775 -1.6330  0.5857
  899MOL0     H24017  11.139   1.976   2.788 -1.2016 -0.4795  1.9551
  899MOL0     H24018  11.335   2.124   2.743  0.7269 -0.6775  0.4093
  899MOL0     H24019  11.195   2.197   2.672  0.6737 -2.9410 -0.1183
  899MOL0     H24020  11.438   2.286   2.648 -1.7214 -2.8728  3.2845
  899MOL0     H24021  11.635   2.319   2.534 -0.1724  0.3023 -0.6869
  899MOL0     H24022  11.780   2.368   2.627 -0.8770 -0.0269 -0.4818
  899MOL0     H24023  11.674   2.489   2.554 -1.8073  0.0231 -0.4653
  899MOL0     H24024  12.054   2.486   2.715 -2.1331  1.2216  3.1235
  899MOL0     H24025  12.263   2.609   2.672 -0.1944  1.4226 -2.2091
  899MOL0     H24026  12.289   3.056   2.629 -1.8292 -2.0053 -0.1929
  899MOL0     H24027  12.294   3.017   2.802  1.2803  0.2884  0.4778
  899MOL0     H24028  12.499   3.148   2.703  0.7089  1.3687  2.4986
  899MOL0     H24029  12.532   3.003   2.802  0.7684 -0.8941 -1.6801
  899MOL0     H24030  12.520   2.987   2.502  4.3645 -0.1380 -1.7190
  899MOL0     H24031  12.567   2.859   2.611 -1.5245 -0.2857 -2.4522
  899MOL0     H24032  12.764   3.016   2.676  0.5809 -2.1929  0.5505
  899MOL0     H24033  12.721   3.126   2.542 -0.7638  0.0498  0.0269
  899MOL0     H24034  12.764   2.824   2.515  0.6285 -0.2916 -0.2746
  899MOL0     H24035  12.756   2.942   2.384  0.4649  0.0056 -0.9279
  899MOL0     H24036  12.978   2.943   2.581 -0.7964  0.7406 -0.5066
  899MOL0     H24037  12.985   3.029   2.429  0.8993  0.9954  0.2122
  899MOL0     H24038  12.933   2.778   2.352 -1.9881 -2.2271  1.8383
  899MOL0     H24039  13.006   2.738   2.511  2.6333 -0.6606 -1.1426
  899MOL0     H24040  13.215   2.858   2.468  0.4027 -0.6749 -0.7787
  899MOL0     H24041  13.151   2.952   2.344  0.7601  0.6036  2.7004
  899MOL0     H24042  12.071   2.981   2.718  1.2639  0.2770 -2.3189
  899MOL0     H24043  11.860   2.877   2.727  3.1719  1.8926  1.7666
  899MOL0     H24044  11.581   2.578   3.021  2.8445 -1.3790 -0.5675
  899MOL0     H24045  11.351   2.449   3.027 -1.0534  2.6372 -1.5900
  899MOL0     H24046   9.422   1.689   3.593  0.6163  2.0451 -0.9929
  899MOL0     H24047   9.223   1.572   3.526 -0.0685 -3.4485  0.6504
  899MOL0     H24048   9.026   1.438   3.099 -0.0267 -0.0861  1.0172
  899MOL0     H24049   8.843   1.333   2.955 -0.9564 -0.6780 -0.1147
  899MOL0     H24050   8.568   1.105   2.960 -0.2052 -2.3491 -2.1950
  899MOL0     H24051   8.653   1.257   2.949  1.5255 -0.2835 -1.2911
  899MOL0     H24052   8.758   1.203   2.739 -0.4946 -0.4108 -2.3870
  899MOL0     H24053   8.590   1.214   2.738  1.0971 -0.3501 -1.9406
  899MOL0     H24054   8.684   1.017   2.596 -2.6299 -0.4225 -1.1222
  899MOL0     H24055   8.740   0.950   2.748  2.1842  1.1574 -2.0692
  899MOL0     H24056   8.510   0.916   2.825 -0.7286  1.6794  0.5588
  899MOL0     H24057   8.559   0.845   2.668  0.6682  1.0820 -1.2595
  899MOL0     H24058   8.234   1.137   2.591  0.4219  1.6880 -0.2337
  899MOL0     H24059   8.867   0.989   3.184  2.6317 -0.8290 -0.6405
  899MOL0     H24060   9.091   1.108   3.456  0.3276 -1.1724  0.4077
  899MOL0     H24061   8.951   0.996   3.399 -1.4224  0.6017 -2.5524
  899MOL0     H24062   9.104   0.974   3.335 -0.4233 -0.0899 -0.7539
  900MOL0     O24063   6.898   3.842   6.987  0.6298  0.5024  0.4471
  900MOL0     C24064   6.879   3.923   6.897 -0.6215  0.0559  0.5835
  900MOL0     O24065   6.964   4.017   6.857  0.2579  0.2356 -0.6161
  900MOL0     C24066   7.092   4.007   6.910 -0.0705 -0.3363  0.5624
  900MOL0     C24067   7.137   4.118   6.983  0.9953 -0.3764 -0.6287
  900MOL0     C24068   7.263   4.122   7.043  0.1843  0.6287  0.2957
  900MOL0     C24069   7.347   4.015   7.038 -0.3266 -0.1655  0.0096
  900MOL0     O24070   7.459   4.027   7.116 -0.0519 -0.1975  0.5432
  900MOL0     C24071   7.509   3.907   7.174  0.6289 -0.6624 -0.3285
  900MOL0     C24072   7.611   3.920   7.286 -0.0280  0.5525  0.2090
  900MOL0     C24073   7.752   3.891   7.231  0.6260 -0.0113  0.2698
  900MOL0     C24074   7.856   3.935   7.332  0.4163 -1.1126  0.3346
  900MOL0     C24075   7.982   3.847   7.317 -0.4718  0.5715  0.2918
  900MOL0     C24076   8.061   3.869   7.186  0.6523  0.3067  0.8353
  900MOL0     C24077   8.129   4.008   7.169  0.0093  0.5320  0.2649
  900MOL0     C24078   8.262   3.985   7.089  0.4930 -0.1676 -0.4787
  900MOL0     N24079   8.342   4.112   7.078 -0.1551 -0.5579  0.7712
  900MOL0     C24080   8.466   4.123   7.025 -0.6224 -0.4423 -0.2583
  900MOL0     C24081   8.503   4.255   7.042  0.8567 -0.0248 -0.8435
  900MOL0     C24082   8.625   4.321   6.983 -0.1998 -1.3996  0.5902
  900MOL0     C24083   8.756   4.247   7.007  0.2979  0.2613  0.3040
  900MOL0     C24084   8.871   4.320   6.949 -0.0154  0.4398  1.3398
  900MOL0     C24085   8.994   4.233   6.951 -0.1040 -0.1065  0.2750
  900MOL0     O24086   9.087   4.259   6.848 -0.2759  0.2670 -0.3844
  900MOL0     C24087   9.194   4.332   6.873  0.1882  0.7405  0.0058
  900MOL0     C24088   9.194   4.448   6.945  0.1121 -0.0250  0.9301
  900MOL0     C24089   9.308   4.530   6.956  0.7261 -0.2974  1.0880
  900MOL0     C24090   9.282   4.652   7.040  0.3666  0.8643  0.2325
  900MOL0     C24091   9.428   4.505   6.890  0.0281  0.5833 -0.0131
  900MOL0     C24092   9.548   4.582   6.886  0.2894  0.7435  0.3723
  900MOL0     O24093   9.598   4.605   7.007  0.6139 -1.1709 -0.2067
  900MOL0     C24094   9.718   4.663   7.021  0.6690 -0.1301  0.2852
  900MOL0     C24095   9.727   4.794   7.077  0.4824  1.4207 -0.2972
  900MOL0     C24096   9.852   4.837   7.094 -0.0701  0.8693  0.4143
  900MOL0     C24097   9.970   4.767   7.049  0.5139  0.3105 -1.3863
  900MOL0     O24098  10.093   4.818   7.057  0.1742 -0.4632  0.0742
  900MOL0     C24099  10.106   4.961   7.063  0.2790  0.3854 -0.3107
  900MOL0     C24100  10.238   5.007   7.015  0.1230 -0.1286  0.3465
  900MOL0     C24101  10.355   4.931   7.076  0.0995 -0.0490 -0.2158
  900MOL0     C24102  10.484   5.005   7.021 -1.0450 -0.5593 -0.4401
  900MOL0     C24103  10.614   4.957   7.104 -0.2149 -0.2069 -0.0125
  900MOL0     C24104  10.756   4.988   7.055 -0.2535 -0.3392 -0.2893
  900MOL0     C24105  10.866   4.922   7.140  0.6187  0.2988 -0.0196
  900MOL0     C24106  11.008   4.962   7.117 -0.2805 -0.0035 -0.3556
  900MOL0    Cl24107  11.009   5.144   7.155 -0.0409  0.3009 -0.0562
  900MOL0     C24108   9.955   4.646   7.000  0.2606  0.4622  0.0508
  900MOL0     C24109   9.827   4.587   6.985 -0.9888  0.4795 -0.1792
  900MOL0     O24110   9.597   4.608   6.775  0.2932  0.0509 -0.5416
  900MOL0     C24111   9.429   4.387   6.821  0.5275  0.1604 -0.5220
  900MOL0     C24112   9.317   4.302   6.817 -0.6096  0.3311 -0.0466
  900MOL0     N24113   8.398   4.318   7.098 -0.0666  0.2337  0.2294
  900MOL0     N24114   8.309   4.235   7.121  0.2351 -0.8936  0.2309
  900MOL0     C24115   7.311   3.906   6.955 -0.9369 -0.3938 -0.5459
  900MOL0     C24116   7.182   3.905   6.902 -0.2318 -0.8840  0.4957
  900MOL0     C24117   6.743   3.928   6.840 -0.0705  0.4877  0.1485
  900MOL0     C24118   6.628   3.929   6.927 -0.0937 -0.9642 -0.0286
  900MOL0     C24119   6.503   3.933   6.872 -1.3709 -0.5544 -0.2096
  900MOL0     C24120   6.487   3.935   6.731 -0.6732  0.7022 -0.1460
  900MOL0     O24121   6.369   3.933   6.662  0.2199 -0.3731  0.3034
  900MOL0     C24122   6.244   3.919   6.734  0.8124  0.0400 -1.2831
  900MOL0     C24123   6.122   3.922   6.646 -0.2704  0.3390  0.1266
  900MOL0     C24124   5.987   3.937   6.729  0.7630  0.1098 -0.0916
  900MOL0     C24125   5.868   3.932   6.641  0.5289  0.2110  0.7819
  900MOL0     C24126   5.746   3.908   6.709  0.1221 -0.1876 -0.2040
  900MOL0     C24127   5.637   3.882   6.761  0.1545 -0.0484  0.5027
  900MOL0     C24128   6.599   3.950   6.649 -0.4662 -0.1951 -0.7598
  900MOL0     C24129   6.726   3.929   6.706 -0.5542 -0.4627  0.4638
  900MOL0     C24130   6.839   3.940   6.604 -0.0791  0.4435  0.3238
  900MOL0     H24131   7.065   4.198   6.997 -2.4162 -2.7054 -3.1666
  900MOL0     H24132   7.310   4.210   7.087  1.9098  1.0846 -2.2424
  900MOL0     H24133   7.545   3.842   7.094 -0.0873 -0.0193 -1.1913
  900MOL0     H24134   7.420   3.860   7.215 -0.0217  0.8791  0.1002
  900MOL0     H24135   7.610   4.024   7.320 -0.1352  0.9496 -0.9545
  900MOL0     H24136   7.599   3.849   7.369  0.0493  3.0315  2.4706
  900MOL0     H24137   7.757   3.782   7.218  0.0977  0.0615 -0.6950
  900MOL0     H24138   7.771   3.941   7.135  0.5290 -2.8812 -1.3587
  900MOL0     H24139   7.884   4.036   7.303 -0.8317 -0.0797  2.4508
  900MOL0     H24140   7.824   3.926   7.437 -1.6701 -1.1007 -0.2498
  900MOL0     H24141   7.954   3.743   7.333 -0.4257  0.1085 -2.1605
  900MOL0     H24142   8.055   3.877   7.393 -1.5387 -1.8109  2.4034
  900MOL0     H24143   8.136   3.791   7.194  0.8577  0.6476  2.6493
  900MOL0     H24144   7.995   3.847   7.101 -0.4711  1.5741  1.3368
  900MOL0     H24145   8.160   4.047   7.266  0.4344  0.1984  0.2677
  900MOL0     H24146   8.059   4.077   7.120 -1.8901 -1.6042 -0.1642
  900MOL0     H24147   8.325   3.908   7.135 -0.9870 -2.0590 -1.4655
  900MOL0     H24148   8.232   3.952   6.989 -5.7632 -0.8088  1.1719
  900MOL0     H24149   8.527   4.057   6.965 -0.7525 -2.1054  1.3595
  900MOL0     H24150   8.616   4.424   7.020 -0.5544 -1.0955 -0.3154
  900MOL0     H24151   8.607   4.333   6.876  1.0287 -1.9987  0.2994
  900MOL0     H24152   8.771   4.237   7.114 -0.5294  0.3889  0.4429
  900MOL0     H24153   8.740   4.151   6.956 -3.8661 -0.0718  1.7961
  900MOL0     H24154   8.855   4.356   6.847  3.0050  1.2915  1.0805
  900MOL0     H24155   8.892   4.404   7.016  1.1948  0.3576  1.0791
  900MOL0     H24156   9.043   4.240   7.049  0.6576  0.1200 -0.1114
  900MOL0     H24157   8.956   4.131   6.940 -1.3867  0.2095  1.5324
  900MOL0     H24158   9.100   4.454   6.998 -1.5300  0.7424 -1.8649
  900MOL0     H24159   9.337   4.659   7.134 -2.3912 -2.3773  2.2721
  900MOL0     H24160   9.179   4.651   7.075 -0.5133 -0.5464 -2.1786
  900MOL0     H24161   9.305   4.741   6.979 -0.4954  2.3681  2.0034
  900MOL0     H24162   9.634   4.840   7.110 -1.9607 -5.0087  3.6547
  900MOL0     H24163   9.854   4.933   7.146 -0.9933  1.4366 -0.5652
  900MOL0     H24164  10.021   5.008   7.014 -1.2875 -1.9768 -0.0635
  900MOL0     H24165  10.102   4.994   7.168  2.3205  5.5201 -1.5488
  900MOL0     H24166  10.233   5.000   6.906  0.5359  1.4584  0.1936
  900MOL0     H24167  10.235   5.114   7.041  1.7901  0.0592 -0.1645
  900MOL0     H24168  10.365   4.824   7.053  0.2246  0.5174 -3.2611
  900MOL0     H24169  10.349   4.946   7.184 -1.8414 -1.7353 -0.0237
  900MOL0     H24170  10.465   5.111   7.041 -1.2089 -1.0916  2.8215
  900MOL0     H24171  10.489   4.989   6.913 -0.4329  1.1015 -0.6916
  900MOL0     H24172  10.611   5.003   7.204  4.6079  1.5918 -0.4597
  900MOL0     H24173  10.610   4.850   7.124 -1.9995  0.0600  1.3993
  900MOL0     H24174  10.763   5.097   7.041 -1.2324  0.2342  2.7683
  900MOL0     H24175  10.760   4.942   6.956  1.3031 -1.4406  0.2642
  900MOL0     H24176  10.858   4.813   7.151 -2.6259  0.5677  1.5105
  900MOL0     H24177  10.835   4.940   7.244 -2.0825 -3.2702 -0.0001
  900MOL0     H24178  11.032   4.942   7.012 -1.3685 -0.9829 -0.4270
  900MOL0     H24179  11.077   4.894   7.168 -0.0669 -0.5219 -1.2938
  900MOL0     H24180  10.040   4.585   6.970  1.1133  0.2818  2.5839
  900MOL0     H24181   9.813   4.495   6.929 -0.1239  0.1337  0.1577
  900MOL0     H24182   9.522   4.350   6.780  0.9530  1.0994 -0.4207
  900MOL0     H24183   9.329   4.204   6.772  0.6630  0.8819 -0.9573
  900MOL0     H24184   7.357   3.809   6.940 -1.4900 -0.9253  1.0415
  900MOL0     H24185   7.154   3.826   6.832 -3.4852  0.2845  0.2901
  900MOL0     H24186   6.630   3.921   7.035 -1.1467  1.0335  0.1772
  900MOL0     H24187   6.413   3.925   6.933 -2.3264 -2.8434 -1.7411
  900MOL0     H24188   6.245   3.830   6.797 -1.4044  0.7218 -0.1930
  900MOL0     H24189   6.230   3.998   6.808 -1.3272  0.2485 -1.8649
  900MOL0     H24190   6.122   3.829   6.588 -0.5849 -0.4871  1.4148
  900MOL0     H24191   6.135   4.005   6.576  0.8767 -3.1857 -4.3425
  900MOL0     H24192   5.978   3.847   6.791 -0.7543 -1.4124 -2.3686
  900MOL0     H24193   5.988   4.026   6.793 -0.8544  0.7516 -0.8831
  900MOL0     H24194   5.891   3.851   6.571  0.3153 -0.1755  1.1541
  900MOL0     H24195   5.853   4.024   6.583  0.7175 -0.4778 -0.4071
  900MOL0     H24196   5.543   3.853   6.804  0.6920 -2.2772  0.2715
  900MOL0     H24197   6.585   3.965   6.543 -2.0762  0.5317 -0.4690
  900MOL0     H24198   6.822   3.902   6.503  0.0655  1.1425  0.0290
  900MOL0     H24199   6.858   4.048   6.602 -0.1258  0.5338  2.3962
  900MOL0     H24200   6.928   3.889   6.643  0.2339 -0.1850 -1.1281
  901MOL0     O24201   4.068   6.789   3.064  0.7113  0.4607  0.4051
  901MOL0     C24202   3.995   6.880   3.080  0.2978  0.9875 -0.4193
  901MOL0     O24203   4.004   7.004   3.017 -0.1812  1.0740 -0.2106
  901MOL0     C24204   4.084   7.014   2.899  0.6686 -1.5452  0.4883
  901MOL0     C24205   4.130   7.142   2.873  0.3552 -0.4541  0.1450
  901MOL0     C24206   4.192   7.183   2.757 -0.4233 -0.9771  0.0153
  901MOL0     C24207   4.214   7.091   2.653 -0.0051 -0.5073 -0.3188
  901MOL0     O24208   4.276   7.131   2.544  0.3870 -0.1179 -0.5097
  901MOL0     C24209   4.400   7.193   2.573 -0.7191 -0.8759  0.2417
  901MOL0     C24210   4.489   7.178   2.452 -1.3436  0.0078  0.2608
  901MOL0     C24211   4.628   7.233   2.470 -0.4128  0.1936  0.2433
  901MOL0     C24212   4.632   7.381   2.515 -0.3923  0.0570  0.1719
  901MOL0     C24213   4.764   7.442   2.513 -0.9799 -0.2620 -0.2996
  901MOL0     C24214   4.773   7.576   2.573 -0.0452 -0.9421 -0.2664
  901MOL0     C24215   4.706   7.678   2.486 -0.1068 -1.0342 -0.5598
  901MOL0     C24216   4.738   7.820   2.533  0.4356 -0.0479 -0.0641
  901MOL0     N24217   4.874   7.875   2.512 -0.0073 -0.4049 -1.0631
  901MOL0     C24218   4.949   7.949   2.601 -0.4435 -0.5057 -0.4218
  901MOL0     C24219   5.074   7.942   2.558 -0.2654  0.7099  0.1403
  901MOL0     C24220   5.183   8.025   2.619  0.1334 -0.8294 -0.0517
  901MOL0     C24221   5.255   7.948   2.746  0.9376  0.2158  0.0035
  901MOL0     C24222   5.374   8.022   2.801 -0.0999 -0.2852  0.5418
  901MOL0     C24223   5.415   8.000   2.943 -0.3653 -0.2074  0.1273
  901MOL0     O24224   5.439   7.859   2.973  0.5877 -0.5196 -0.5585
  901MOL0     C24225   5.568   7.812   2.977 -0.1517 -0.5493 -0.0027
  901MOL0     C24226   5.591   7.702   3.060  0.5773 -0.0156  0.2949
  901MOL0     C24227   5.724   7.653   3.083 -0.8923  0.7740 -0.3342
  901MOL0     C24228   5.731   7.530   3.170 -0.3835 -0.2858 -0.0116
  901MOL0     C24229   5.836   7.704   3.018 -0.1905 -0.1172 -0.3543
  901MOL0     C24230   5.985   7.676   3.050 -0.4663 -0.9938 -0.9570
  901MOL0     O24231   6.076   7.750   2.976 -0.3346  0.1873 -0.5621
  901MOL0     C24232   6.212   7.717   2.979  1.0549  0.2279 -0.3757
  901MOL0     C24233   6.293   7.793   3.054 -0.2890 -0.7866  0.3675
  901MOL0     C24234   6.433   7.778   3.047 -0.2161  0.7560 -0.8332
  901MOL0     C24235   6.486   7.671   2.964 -0.9334  0.5451 -0.3160
  901MOL0     O24236   6.619   7.656   2.973  0.5354  0.0580 -0.1010
  901MOL0     C24237   6.678   7.538   2.926 -0.2658  0.5650  0.1003
  901MOL0     C24238   6.827   7.535   2.966 -0.2645  0.2906 -0.3854
  901MOL0     C24239   6.888   7.401   2.957  0.2789  0.1568 -0.0594
  901MOL0     C24240   6.872   7.333   2.817 -0.5644 -0.1358 -0.4482
  901MOL0     C24241   6.959   7.213   2.786  0.9822  0.6432 -0.5443
  901MOL0     C24242   7.116   7.244   2.808 -0.4919  0.0453 -0.0545
  901MOL0     C24243   7.206   7.129   2.754  0.4123 -0.3572 -0.7497
  901MOL0     C24244   7.358   7.163   2.755  0.3989  0.3848  0.3094
  901MOL0    Cl24245   7.435   7.172   2.914  0.0381  0.2435 -0.1973
  901MOL0     C24246   6.403   7.584   2.897 -0.0831  0.1081 -0.3628
  901MOL0     C24247   6.266   7.615   2.891  0.2176 -0.1328  0.0401
  901MOL0     O24248   6.017   7.581   3.124 -0.2721  0.8970  0.0402
  901MOL0     C24249   5.801   7.815   2.921 -0.2797  0.0739 -0.4409
  901MOL0     C24250   5.671   7.866   2.906 -1.1834  0.2363  0.1589
  901MOL0     N24251   5.074   7.878   2.427  0.4018 -0.4611  0.0609
  901MOL0     N24252   4.950   7.838   2.406 -0.6249 -0.7358  0.2182
  901MOL0     C24253   4.170   6.959   2.674  0.0683  0.2263 -0.1107
  901MOL0     C24254   4.115   6.919   2.797  0.6150  0.5616  0.3195
  901MOL0     C24255   3.885   6.861   3.173 -0.0253 -0.1723 -0.8381
  901MOL0     C24256   3.759   6.899   3.125  0.0296  0.1399 -0.4364
  901MOL0     C24257   3.639   6.883   3.206  0.1439  0.0250 -0.2427
  901MOL0     C24258   3.646   6.826   3.337 -0.9584  0.5287  0.7513
  901MOL0     O24259   3.531   6.802   3.405  0.2339  0.8182  0.2317
  901MOL0     C24260   3.537   6.732   3.529  0.6507 -0.5306 -0.1720
  901MOL0     C24261   3.404   6.747   3.605  0.2989 -0.8560  0.5835
  901MOL0     C24262   3.407   6.694   3.745 -0.3394 -0.1166  0.7315
  901MOL0     C24263   3.295   6.751   3.825  0.6873  0.6079  0.1799
  901MOL0     C24264   3.316   6.701   3.958 -0.2455  0.2524 -0.7975
  901MOL0     C24265   3.337   6.689   4.080 -0.3064  0.8176 -0.7476
  901MOL0     C24266   3.778   6.784   3.377  0.6056  0.0164 -1.8140
  901MOL0     C24267   3.896   6.799   3.300 -0.0644  1.0135 -0.0224
  901MOL0     C24268   4.035   6.777   3.364  0.6845  0.3386 -0.1092
  901MOL0     H24269   4.112   7.211   2.955  2.0095 -1.4045  1.3579
  901MOL0     H24270   4.210   7.290   2.754 -3.1154 -0.4542 -1.6201
  901MOL0     H24271   4.443   7.149   2.664 -0.3996  2.2499  1.7320
  901MOL0     H24272   4.379   7.299   2.591 -1.9468 -1.3863  2.0888
  901MOL0     H24273   4.507   7.074   2.424  2.9796  0.5033  0.6122
  901MOL0     H24274   4.433   7.217   2.366  0.8824 -0.0139 -1.2741
  901MOL0     H24275   4.682   7.175   2.546 -0.7782  0.0005  0.3568
  901MOL0     H24276   4.677   7.226   2.373  2.5136 -3.1503  1.7236
  901MOL0     H24277   4.555   7.437   2.461 -0.4105 -0.9138 -0.8333
  901MOL0     H24278   4.594   7.375   2.617 -0.1925 -0.2717  0.2291
  901MOL0     H24279   4.800   7.446   2.410 -1.1945  0.2379 -0.3596
  901MOL0     H24280   4.831   7.376   2.569 -2.1058 -0.4184  0.9231
  901MOL0     H24281   4.730   7.580   2.673  0.9598  0.3158  0.1516
  901MOL0     H24282   4.882   7.585   2.571 -0.0524 -0.7783  0.0215
  901MOL0     H24283   4.597   7.664   2.483 -0.4195  0.6323  0.8406
  901MOL0     H24284   4.737   7.654   2.385  0.7423  2.8227 -1.3947
  901MOL0     H24285   4.666   7.881   2.477  0.7137 -0.9553 -1.4594
  901MOL0     H24286   4.720   7.826   2.641 -2.4292 -1.0485 -0.4140
  901MOL0     H24287   4.915   7.996   2.693 -0.2648  0.3224 -0.7717
  901MOL0     H24288   5.131   8.117   2.646 -1.8566 -1.5947 -0.9898
  901MOL0     H24289   5.264   8.048   2.549  0.7612 -0.6863  0.7124
  901MOL0     H24290   5.196   7.929   2.836  1.6861  4.4959  1.6485
  901MOL0     H24291   5.277   7.852   2.699 -1.8363 -0.8102  0.6284
  901MOL0     H24292   5.455   8.006   2.728 -0.8173  1.8413 -0.8096
  901MOL0     H24293   5.363   8.129   2.781  2.5690  0.1783  1.1042
  901MOL0     H24294   5.499   8.065   2.965 -2.0229  1.3006  2.3872
  901MOL0     H24295   5.324   8.034   2.994 -1.3797 -2.4569 -0.0457
  901MOL0     H24296   5.508   7.664   3.118  0.0453 -1.6009 -1.3935
  901MOL0     H24297   5.794   7.453   3.124  2.8268  2.5218 -0.6492
  901MOL0     H24298   5.628   7.493   3.178 -0.7599  0.7036 -0.1966
  901MOL0     H24299   5.753   7.555   3.274 -2.7658  5.9938 -0.5737
  901MOL0     H24300   6.269   7.880   3.115 -1.2379  0.1324 -1.2304
  901MOL0     H24301   6.501   7.839   3.106 -0.5798 -0.8709  1.4107
  901MOL0     H24302   6.633   7.450   2.974  0.4171  2.2482  4.2826
  901MOL0     H24303   6.673   7.543   2.817  1.2525  2.1687  0.0556
  901MOL0     H24304   6.879   7.609   2.904  2.4672 -0.3978  0.9309
  901MOL0     H24305   6.832   7.579   3.066  1.3045 -1.1505  0.2311
  901MOL0     H24306   6.850   7.334   3.034 -0.0963  2.2209  1.6389
  901MOL0     H24307   6.992   7.416   2.988 -0.5143  0.1429  2.8211
  901MOL0     H24308   6.903   7.398   2.736 -0.2049  1.5751  0.9989
  901MOL0     H24309   6.765   7.311   2.805 -2.0696  5.5081 -0.3033
  901MOL0     H24310   6.930   7.133   2.855 -3.0303  2.7954  0.5729
  901MOL0     H24311   6.939   7.186   2.682  2.3494 -0.8413 -0.4523
  901MOL0     H24312   7.135   7.255   2.915  2.9178 -0.2555 -0.5047
  901MOL0     H24313   7.153   7.335   2.759 -2.8243  0.4738 -1.1359
  901MOL0     H24314   7.170   7.103   2.654 -0.2664 -2.4086 -0.0249
  901MOL0     H24315   7.184   7.044   2.819  2.7873 -1.9700 -1.9049
  901MOL0     H24316   7.378   7.258   2.704  2.9245 -1.8933 -3.5016
  901MOL0     H24317   7.415   7.087   2.701 -1.1975 -0.4276 -0.2985
  901MOL0     H24318   6.448   7.509   2.831 -0.6697 -1.6134  1.1083
  901MOL0     H24319   6.195   7.568   2.823  1.0032 -3.4190  1.2915
  901MOL0     H24320   5.884   7.865   2.873  0.7362 -1.4878 -0.4071
  901MOL0     H24321   5.656   7.952   2.842 -1.4950 -2.2666 -3.4644
  901MOL0     H24322   4.193   6.886   2.597  3.9821  1.6534 -0.4945
  901MOL0     H24323   4.083   6.818   2.821  2.0145  0.6260  2.8900
  901MOL0     H24324   3.741   6.932   3.023 -1.7497 -0.6710 -0.4192
  901MOL0     H24325   3.540   6.914   3.171 -0.4080  0.5092  1.6420
  901MOL0     H24326   3.540   6.625   3.505  0.7557 -0.1291 -2.0857
  901MOL0     H24327   3.617   6.755   3.601  0.9682 -4.2527  0.8719
  901MOL0     H24328   3.324   6.693   3.553 -1.0033  0.2622  1.3532
  901MOL0     H24329   3.368   6.849   3.593  1.5716 -0.5337 -0.8531
  901MOL0     H24330   3.410   6.585   3.744 -0.2433 -0.1135  0.3396
  901MOL0     H24331   3.508   6.710   3.783  1.2368  0.4021 -3.1432
  901MOL0     H24332   3.201   6.713   3.783  0.2245 -1.0872  2.5758
  901MOL0     H24333   3.304   6.860   3.824  0.3496  0.7237  2.9399
  901MOL0     H24334   3.378   6.693   4.178  0.3759 -0.5921 -0.9586
  901MOL0     H24335   3.795   6.737   3.473 -1.5051  1.9135 -0.4202
  901MOL0     H24336   4.025   6.770   3.472 -0.2568  1.1225 -0.1318
  901MOL0     H24337   4.071   6.680   3.328 -2.2414 -0.9884  0.2316
  901MOL0     H24338   4.107   6.857   3.342 -0.0385  0.9785 -0.1882
  902MOL0     O24339   9.997   2.579   5.041 -0.8454 -0.1014  0.2594
  902MOL0     C24340  10.006   2.603   4.923 -0.0712 -1.3620 -0.9106
  902MOL0     O24341  10.111   2.666   4.868 -0.3343  1.3977  0.2466
  902MOL0     C24342  10.235   2.645   4.926 -0.4948  0.4110 -0.3058
  902MOL0     C24343  10.293   2.727   5.027  0.2900 -0.4993 -0.8259
  902MOL0     C24344  10.428   2.722   5.065  0.0406  0.2833  0.0434
  902MOL0     C24345  10.506   2.628   5.003 -0.2070  0.0602  0.2890
  902MOL0     O24346  10.638   2.637   5.037  0.1615 -0.6762 -0.4655
  902MOL0     C24347  10.731   2.544   4.980 -0.3564 -0.4349 -0.3888
  902MOL0     C24348  10.870   2.580   5.034  0.2188 -1.4621 -0.2859
  902MOL0     C24349  10.975   2.473   4.990 -0.0539 -0.2281 -0.4405
  902MOL0     C24350  11.118   2.528   5.018  0.2970  0.6423  0.8693
  902MOL0     C24351  11.232   2.416   4.988 -0.1965 -1.4160 -0.1403
  902MOL0     C24352  11.374   2.474   5.003 -0.3897  0.7414 -0.9703
  902MOL0     C24353  11.484   2.369   4.942  0.1404  0.0653  0.1521
  902MOL0     C24354  11.491   2.238   5.017 -0.7499 -0.4326 -0.1438
  902MOL0     N24355  11.509   2.267   5.157 -0.2234  0.4542 -0.1824
  902MOL0     C24356  11.622   2.318   5.216  0.0661  0.3945 -0.8082
  902MOL0     C24357  11.595   2.335   5.345  0.6096 -0.2004  0.3336
  902MOL0     C24358  11.689   2.377   5.453 -0.0862 -0.3747  0.7593
  902MOL0     C24359  11.633   2.350   5.584  0.7060  0.5336  0.0691
  902MOL0     C24360  11.697   2.434   5.686  0.0833  0.2582 -0.2744
  902MOL0     C24361  11.845   2.411   5.708  0.1546  0.7400 -0.1381
  902MOL0     O24362  11.924   2.492   5.618 -0.4870 -0.8212 -0.3114
  902MOL0     C24363  12.051   2.529   5.650 -0.2945  0.1966  0.4355
  902MOL0     C24364  12.120   2.498   5.769  0.5219 -0.8205  0.0233
  902MOL0     C24365  12.258   2.532   5.790 -0.4861  0.4723 -0.2873
  902MOL0     C24366  12.316   2.501   5.926 -0.6523  0.1762 -0.0843
  902MOL0     C24367  12.331   2.581   5.678  0.4676  0.7343  0.1573
  902MOL0     C24368  12.482   2.596   5.675 -0.0195 -1.0152  0.1110
  902MOL0     O24369  12.533   2.663   5.561  0.1088  0.3810 -0.0556
  902MOL0     C24370  12.674   2.684   5.556  0.2277 -0.6607  0.8040
  902MOL0     C24371  12.727   2.691   5.429 -0.4164  0.4700  0.1398
  902MOL0     C24372  12.859   2.724   5.401  0.3280 -1.7479 -0.2807
  902MOL0     C24373  12.947   2.754   5.509 -0.1613  0.1384  0.5392
  902MOL0     O24374  13.071   2.811   5.492 -0.1370 -0.6646  0.0856
  902MOL0     C24375  13.150   2.779   5.380  0.8529  0.1461  0.2946
  902MOL0     C24376  13.298   2.804   5.414 -0.4065 -0.2246 -0.1111
  902MOL0     C24377  13.358   2.946   5.394  0.0178  0.9712 -0.5238
  902MOL0     C24378  13.505   2.970   5.447  0.7814  0.5900  0.1829
  902MOL0     C24379  13.601   2.902   5.350  0.1781  0.2771  0.7041
  902MOL0     C24380  13.744   2.945   5.361  0.1074  0.4279  0.5000
  902MOL0     C24381  13.795   2.953   5.501 -0.2007  0.6391  0.7524
  902MOL0     C24382  13.943   2.980   5.501  0.6657 -0.2176 -0.3796
  902MOL0    Cl24383  13.982   3.155   5.468  0.0055 -0.0224 -0.1371
  902MOL0     C24384  12.900   2.729   5.640 -0.1581 -0.4756 -0.1057
  902MOL0     C24385  12.762   2.700   5.654  0.1930  0.0223  0.5186
  902MOL0     O24386  12.548   2.537   5.759 -0.1143  0.3124  0.3590
  902MOL0     C24387  12.260   2.600   5.554 -0.9148 -0.4639  0.4862
  902MOL0     C24388  12.124   2.581   5.546 -0.2611 -0.7238  0.0100
  902MOL0     N24389  11.464   2.297   5.366 -0.0771  0.3442  0.0144
  902MOL0     N24390  11.409   2.263   5.250  0.2883  0.0284  0.2965
  902MOL0     C24391  10.449   2.542   4.905  1.0458  0.3793  0.5509
  902MOL0     C24392  10.311   2.545   4.869 -0.0693  0.0007 -0.6232
  902MOL0     C24393   9.880   2.602   4.833 -0.2608  1.0022 -0.6448
  902MOL0     C24394   9.882   2.676   4.717 -0.0507 -0.2573  0.0021
  902MOL0     C24395   9.771   2.690   4.638  0.0680  0.6122  0.5957
  902MOL0     C24396   9.651   2.635   4.673 -0.6992 -1.0921 -0.4612
  902MOL0     O24397   9.547   2.662   4.587 -0.0446  0.2946 -0.1304
  902MOL0     C24398   9.434   2.587   4.609 -0.2543 -0.5258  0.6655
  902MOL0     C24399   9.312   2.658   4.529 -0.0373  0.0542 -0.6221
  902MOL0     C24400   9.321   2.661   4.384 -0.3288  0.8842 -0.6681
  902MOL0     C24401   9.432   2.753   4.335  0.5752  0.1391  0.9532
  902MOL0     C24402   9.420   2.757   4.190 -0.6545  0.7708 -0.5408
  902MOL0     C24403   9.409   2.755   4.070  0.0904  0.7129  0.5827
  902MOL0     C24404   9.646   2.548   4.785  0.5143  0.2062 -0.2198
  902MOL0     C24405   9.765   2.530   4.865 -0.0436  0.3068  0.2810
  902MOL0     C24406   9.760   2.426   4.986 -0.0274  0.5531 -0.1645
  902MOL0     H24407  10.232   2.809   5.061  1.3481  0.2310 -0.6316
  902MOL0     H24408  10.459   2.790   5.144  2.0194 -3.2840  2.5943
  902MOL0     H24409  10.736   2.553   4.871 -1.0989  0.6892 -0.3483
  902MOL0     H24410  10.702   2.446   5.018  1.3048 -1.1198 -0.8082
  902MOL0     H24411  10.915   2.671   4.994 -0.6693 -0.9029 -0.0318
  902MOL0     H24412  10.877   2.590   5.143 -0.0751 -0.4098 -0.3504
  902MOL0     H24413  10.960   2.383   5.050  0.6365 -0.3875 -0.5048
  902MOL0     H24414  10.959   2.447   4.885 -0.5056 -0.3529 -0.3418
  902MOL0     H24415  11.130   2.618   4.957 -4.9855 -0.0765 -1.8547
  902MOL0     H24416  11.124   2.548   5.125  2.1016  0.8373  0.7557
  902MOL0     H24417  11.226   2.383   4.884  1.1165  0.4143 -0.8478
  902MOL0     H24418  11.209   2.343   5.067 -0.5126  0.4538  1.5825
  902MOL0     H24419  11.381   2.570   4.951  0.2659  1.9523  1.2024
  902MOL0     H24420  11.400   2.494   5.108 -3.0985  0.2070 -0.1315
  902MOL0     H24421  11.586   2.406   4.959 -0.4686  1.8599  0.0726
  902MOL0     H24422  11.472   2.356   4.834 -1.0984 -2.0811  0.4828
  902MOL0     H24423  11.403   2.176   5.000 -3.0454  2.8882 -1.3735
  902MOL0     H24424  11.578   2.184   4.979  0.1907  1.5155 -0.8959
  902MOL0     H24425  11.721   2.328   5.172  0.2042  3.4241  0.0302
  902MOL0     H24426  11.712   2.481   5.426 -3.3917 -0.1768 -2.1277
  902MOL0     H24427  11.781   2.319   5.440 -0.2528 -0.1068 -2.3957
  902MOL0     H24428  11.526   2.375   5.586  1.3918  3.8540  0.0141
  902MOL0     H24429  11.637   2.243   5.608 -1.1594  0.5458  0.6011
  902MOL0     H24430  11.692   2.540   5.662 -0.3129  0.8379  2.1900
  902MOL0     H24431  11.642   2.425   5.779  0.4976 -0.3717 -0.0793
  902MOL0     H24432  11.870   2.441   5.810 -1.2411  2.3887 -0.2250
  902MOL0     H24433  11.861   2.303   5.701 -0.2974  0.6867 -0.4476
  902MOL0     H24434  12.067   2.455   5.854  1.8753 -2.0177  0.2973
  902MOL0     H24435  12.241   2.514   6.004  0.3173 -1.5111  1.1996
  902MOL0     H24436  12.401   2.568   5.945 -0.0651 -0.3240 -0.8803
  902MOL0     H24437  12.342   2.395   5.932 -0.6705  0.2133  0.6887
  902MOL0     H24438  12.671   2.659   5.341  0.3052 -1.0229  0.1863
  902MOL0     H24439  12.875   2.742   5.295  0.8097 -0.3418 -0.0034
  902MOL0     H24440  13.148   2.672   5.357  2.2693 -0.4509  2.5119
  902MOL0     H24441  13.128   2.852   5.302  0.7319 -1.1013 -0.8808
  902MOL0     H24442  13.312   2.790   5.521  0.2286  2.6820  0.2672
  902MOL0     H24443  13.353   2.730   5.355 -1.1889 -2.9633  2.3333
  902MOL0     H24444  13.294   3.019   5.444 -2.9054  0.7623 -3.6010
  902MOL0     H24445  13.348   2.968   5.287 -1.3297  1.3157 -0.3473
  902MOL0     H24446  13.508   2.924   5.547  0.5517 -0.2776 -0.2041
  902MOL0     H24447  13.522   3.078   5.454 -1.9136  1.1902 -1.1457
  902MOL0     H24448  13.595   2.793   5.356 -2.8957  0.1497 -1.7700
  902MOL0     H24449  13.564   2.934   5.252  1.8762  3.9744  1.0831
  902MOL0     H24450  13.746   3.046   5.319 -0.5275 -0.0884 -0.8443
  902MOL0     H24451  13.794   2.868   5.302 -3.2220 -0.6712 -1.0853
  902MOL0     H24452  13.767   2.856   5.542  1.7521  0.0397  0.7498
  902MOL0     H24453  13.746   3.030   5.561  0.0242  0.4621  1.1656
  902MOL0     H24454  13.990   2.914   5.428 -0.2868 -2.0968  0.6366
  902MOL0     H24455  13.989   2.954   5.597 -1.3293  1.7491  1.2091
  902MOL0     H24456  12.960   2.740   5.730 -0.2070 -1.4642  0.0602
  902MOL0     H24457  12.715   2.718   5.750 -0.6951  2.9299 -0.3379
  902MOL0     H24458  12.311   2.653   5.474  1.4680 -1.7016  1.1214
  902MOL0     H24459  12.065   2.593   5.455 -1.8763 -3.4624  0.5661
  902MOL0     H24460  10.512   2.467   4.859  0.6412 -0.3212  1.1000
  902MOL0     H24461  10.267   2.484   4.791 -1.4997 -1.0180  0.9124
  902MOL0     H24462   9.980   2.710   4.687 -0.4526 -0.5407 -1.7288
  902MOL0     H24463   9.776   2.742   4.543 -1.3607 -1.6284 -0.7929
  902MOL0     H24464   9.451   2.485   4.574  0.1890  0.7793 -3.4069
  902MOL0     H24465   9.409   2.591   4.715 -2.4904 -1.6392  0.2477
  902MOL0     H24466   9.302   2.759   4.568  0.7879 -0.0002 -0.2548
  902MOL0     H24467   9.220   2.609   4.563  0.7581 -1.2781 -0.3029
  902MOL0     H24468   9.338   2.563   4.338 -0.6728  0.6670 -0.3399
  902MOL0     H24469   9.223   2.695   4.348 -1.9677 -1.2769  1.4639
  902MOL0     H24470   9.532   2.721   4.364  0.0792 -2.9632 -0.4263
  902MOL0     H24471   9.411   2.850   4.383  2.9445  1.0267  0.3442
  902MOL0     H24472   9.388   2.761   3.966  3.2542  0.6479 -0.1555
  902MOL0     H24473   9.555   2.494   4.808  0.8885 -0.7735 -0.9650
  902MOL0     H24474   9.788   2.484   5.074 -0.7688  1.4742 -0.5301
  902MOL0     H24475   9.661   2.382   5.003  0.4866 -0.2082  1.0205
  902MOL0     H24476   9.837   2.350   4.971  1.7200  2.4913 -1.6081
  903MOL0     O24477   3.268  10.406   1.352 -0.0370  0.4829 -0.3961
  903MOL0     C24478   3.347  10.347   1.431  0.2510  0.0929  0.4016
  903MOL0     O24479   3.474  10.310   1.399  0.5717 -0.2668 -0.0832
  903MOL0     C24480   3.516  10.310   1.268  0.2640 -0.5747  0.4576
  903MOL0     C24481   3.573  10.200   1.205 -0.3459  0.2492  0.4606
  903MOL0     C24482   3.616  10.201   1.073 -1.2618 -0.4544  0.4643
  903MOL0     C24483   3.600  10.321   1.003  0.6961 -0.1539  0.4169
  903MOL0     O24484   3.613  10.328   0.868 -0.3268 -0.5608  0.4208
  903MOL0     C24485   3.747  10.323   0.830 -0.4379  0.0725  0.4669
  903MOL0     C24486   3.815  10.466   0.813  0.3461  0.1203 -0.3579
  903MOL0     C24487   3.730  10.562   0.720 -0.3786 -0.7340  0.6849
  903MOL0     C24488   3.784  10.705   0.712 -0.5497  0.8173 -0.9922
  903MOL0     C24489   3.761  10.788   0.836 -0.0456 -0.9226  0.3731
  903MOL0     C24490   3.612  10.828   0.839 -0.0246  0.3225  0.5874
  903MOL0     C24491   3.566  10.905   0.960  0.5378 -0.1524  0.6818
  903MOL0     C24492   3.422  10.964   0.944 -0.4424 -0.2415  0.2350
  903MOL0     N24493   3.321  10.884   1.015  0.5416  0.6510  0.1095
  903MOL0     C24494   3.295  10.753   0.991 -0.5108  0.2181  0.3333
  903MOL0     C24495   3.198  10.722   1.079 -0.1441 -0.8695 -0.0525
  903MOL0     C24496   3.131  10.586   1.101 -0.5375 -0.4876 -0.3621
  903MOL0     C24497   2.979  10.605   1.057 -0.0844 -0.5640  0.6127
  903MOL0     C24498   2.897  10.487   1.095  1.0102 -0.8552  0.9559
  903MOL0     C24499   2.745  10.528   1.067  0.1773 -0.0077  0.6702
  903MOL0     O24500   2.694  10.629   1.164 -0.1110  0.1518  0.7958
  903MOL0     C24501   2.562  10.665   1.137 -0.9739 -0.0932  0.2109
  903MOL0     C24502   2.515  10.763   1.214 -0.4525 -0.9748 -0.8973
  903MOL0     C24503   2.386  10.806   1.198  0.6602 -0.6137  0.2402
  903MOL0     C24504   2.340  10.911   1.290 -0.8567 -0.8574 -0.5920
  903MOL0     C24505   2.296  10.730   1.113 -0.9318 -0.3909 -0.7737
  903MOL0     C24506   2.153  10.765   1.088 -0.1271  0.5408  0.1104
  903MOL0     O24507   2.117  10.892   1.110 -0.3139  0.0762 -0.4281
  903MOL0     C24508   1.988  10.929   1.074 -0.5020  0.0719  0.3970
  903MOL0     C24509   1.869  10.873   1.142 -0.2112 -0.4226  0.0271
  903MOL0     C24510   1.740  10.911   1.097  0.2000 -0.4260 -0.3100
  903MOL0     C24511   1.726  10.987   0.983 -0.2125 -0.5823 -0.0599
  903MOL0     O24512   1.598  11.002   0.927  0.7753 -0.0798  0.2110
  903MOL0     C24513   1.568  11.123   0.856 -1.1864 -0.1427 -0.5902
  903MOL0     C24514   1.421  11.151   0.844  0.1623 -0.8175 -0.0673
  903MOL0     C24515   1.351  11.155   0.978  0.7444  0.2135  0.2626
  903MOL0     C24516   1.224  11.240   0.963 -0.3381 -0.1266  1.1275
  903MOL0     C24517   1.162  11.274   1.094  0.7636 -0.8812 -0.0656
  903MOL0     C24518   1.068  11.158   1.137 -0.7806 -0.3652  0.3013
  903MOL0     C24519   0.992  11.187   1.272  0.1599 -0.5110  0.8548
  903MOL0     C24520   0.896  11.082   1.330 -0.1603  0.3980 -0.4082
  903MOL0    Cl24521   0.842  11.110   1.505  0.1171  0.3629  0.5571
  903MOL0     C24522   1.841  11.044   0.918 -0.0463  0.2417 -0.3610
  903MOL0     C24523   1.969  11.014   0.965  1.0582 -0.0703  0.3392
  903MOL0     O24524   2.075  10.668   1.055 -0.6809  0.4083 -0.5527
  903MOL0     C24525   2.351  10.640   1.026  0.0448 -0.0461  0.4411
  903MOL0     C24526   2.486  10.610   1.032 -0.6737 -0.7796 -0.2118
  903MOL0     N24527   3.151  10.845   1.136 -0.3450  0.0229 -0.0645
  903MOL0     N24528   3.221  10.934   1.085 -0.1376 -0.8526  0.5387
  903MOL0     C24529   3.545  10.440   1.068  0.3918  0.7277 -0.4478
  903MOL0     C24530   3.517  10.432   1.202  0.0661  0.2373  0.4303
  903MOL0     C24531   3.304  10.308   1.571 -0.9824 -0.5990 -0.0941
  903MOL0     C24532   3.368  10.207   1.641  0.8347 -0.0683  1.6269
  903MOL0     C24533   3.341  10.168   1.764 -0.0902 -0.6634  0.0175
  903MOL0     C24534   3.236  10.232   1.831  1.1028  0.4375  0.6481
  903MOL0     O24535   3.193  10.210   1.958 -0.7438  0.3983  0.2033
  903MOL0     C24536   3.266  10.114   2.036  0.4308 -0.9702 -0.3995
  903MOL0     C24537   3.213  10.122   2.175 -0.0433  0.8168 -0.0679
  903MOL0     C24538   3.085  10.039   2.191  0.4543 -0.6941  0.3738
  903MOL0     C24539   3.014  10.069   2.325  0.0331  0.9194 -0.1447
  903MOL0     C24540   3.104  10.031   2.437 -0.0457 -0.0010  0.5266
  903MOL0     C24541   3.179   9.989   2.518  0.3810  0.0322  0.2336
  903MOL0     C24542   3.158  10.328   1.766 -0.2091 -0.0623  0.4050
  903MOL0     C24543   3.189  10.371   1.640 -1.3569 -0.5914 -0.1825
  903MOL0     C24544   3.101  10.489   1.592 -0.5212 -0.6413  0.3234
  903MOL0     H24545   3.582  10.106   1.259 -3.1357 -2.2101 -2.9120
  903MOL0     H24546   3.656  10.115   1.020 -2.4797 -0.0317 -1.2064
  903MOL0     H24547   3.741  10.288   0.727 -0.0734  0.2807  0.3763
  903MOL0     H24548   3.810  10.252   0.884  0.5625 -1.9248 -3.0339
  903MOL0     H24549   3.832  10.508   0.913  1.1070  0.8238 -0.7701
  903MOL0     H24550   3.904  10.445   0.754  0.1299  1.0915 -1.0710
  903MOL0     H24551   3.737  10.530   0.616  1.8268  0.1055  0.5245
  903MOL0     H24552   3.625  10.559   0.752 -0.1096 -0.1382  1.6761
  903MOL0     H24553   3.893  10.710   0.700 -0.6278  1.1665 -1.5718
  903MOL0     H24554   3.737  10.748   0.623 -2.9948 -1.0636 -0.7137
  903MOL0     H24555   3.818  10.882   0.837 -1.7636  0.1746 -0.3391
  903MOL0     H24556   3.785  10.724   0.921 -0.6987 -1.5918  0.0633
  903MOL0     H24557   3.595  10.890   0.750 -0.5995  1.8850  1.7396
  903MOL0     H24558   3.552  10.737   0.829  0.0989  0.3172 -0.1227
  903MOL0     H24559   3.639  10.986   0.969 -1.5074  1.8420  0.0989
  903MOL0     H24560   3.575  10.840   1.048 -2.7183 -0.1447  1.1153
  903MOL0     H24561   3.409  11.065   0.985 -2.6230 -0.0867 -0.7074
  903MOL0     H24562   3.392  10.970   0.840 -2.8518  1.1227  0.9411
  903MOL0     H24563   3.355  10.695   0.921  2.2110  1.9332  1.0847
  903MOL0     H24564   3.135  10.554   1.206 -1.2367 -0.7921 -0.4201
  903MOL0     H24565   3.178  10.496   1.062  0.3667 -1.6325  2.9740
  903MOL0     H24566   2.942  10.696   1.106  1.8532  0.3485  0.4832
  903MOL0     H24567   2.989  10.620   0.949  1.1809  2.5659  1.0661
  903MOL0     H24568   2.932  10.401   1.037  1.7711  1.3427 -2.0705
  903MOL0     H24569   2.915  10.469   1.201  1.1483  0.8027  1.2325
  903MOL0     H24570   2.728  10.559   0.964 -1.3903  3.5713  1.8524
  903MOL0     H24571   2.692  10.433   1.078  0.7165 -0.2663  1.1521
  903MOL0     H24572   2.577  10.818   1.284 -3.6631  1.5951  0.2217
  903MOL0     H24573   2.417  10.934   1.364 -1.6467  0.3022 -0.1052
  903MOL0     H24574   2.258  10.867   1.349 -0.9840 -3.0648 -2.2522
  903MOL0     H24575   2.308  11.000   1.235 -0.2395 -1.3240 -1.7412
  903MOL0     H24576   1.872  10.806   1.227  0.8182  0.3811  0.6400
  903MOL0     H24577   1.652  10.881   1.153  3.3902 -0.9265  5.2123
  903MOL0     H24578   1.614  11.206   0.910 -3.7870  0.4432  0.9399
  903MOL0     H24579   1.612  11.109   0.758  2.8612 -1.2654  1.1915
  903MOL0     H24580   1.419  11.249   0.795 -1.7306 -1.6220 -1.7619
  903MOL0     H24581   1.369  11.076   0.784 -1.5528 -0.3562  0.7701
  903MOL0     H24582   1.422  11.195   1.051  0.0774  2.9673 -0.4548
  903MOL0     H24583   1.314  11.055   1.001  0.5315 -0.1543 -1.5761
  903MOL0     H24584   1.162  11.190   0.888 -0.2723  1.7452 -0.2450
  903MOL0     H24585   1.262  11.332   0.918  0.3853 -0.5257  0.9091
  903MOL0     H24586   1.248  11.291   1.159  2.0685 -1.4269 -1.5887
  903MOL0     H24587   1.102  11.362   1.068  0.6882 -0.9089  0.0150
  903MOL0     H24588   1.141  11.078   1.155 -0.1354  0.3815  1.1840
  903MOL0     H24589   1.003  11.135   1.052  0.9816 -1.1158 -0.9110
  903MOL0     H24590   0.931  11.277   1.259  3.4398  1.6735 -0.7923
  903MOL0     H24591   1.062  11.227   1.346 -1.1751  1.7987  0.9731
  903MOL0     H24592   0.938  10.981   1.327  0.4113  0.4980  1.9592
  903MOL0     H24593   0.807  11.069   1.268  0.6358  0.6964 -1.6315
  903MOL0     H24594   1.827  11.099   0.825  0.5529 -0.4965 -0.8955
  903MOL0     H24595   2.045  11.037   0.892 -0.6027 -1.9796 -2.1464
  903MOL0     H24596   2.291  10.583   0.955 -0.4322 -0.1529  0.9229
  903MOL0     H24597   2.522  10.549   0.950  1.9070  1.1305 -0.6261
  903MOL0     H24598   3.510  10.529   1.017  0.7300  1.4126  0.4900
  903MOL0     H24599   3.475  10.519   1.251 -0.1044  1.1066 -1.1652
  903MOL0     H24600   3.443  10.148   1.590 -0.0552  0.8335 -0.8603
  903MOL0     H24601   3.404  10.097   1.816 -1.2651 -1.2624  0.6777
  903MOL0     H24602   3.255  10.009   2.009  1.1869 -1.2128  0.2204
  903MOL0     H24603   3.374  10.129   2.039  0.5127 -1.6808  1.4711
  903MOL0     H24604   3.203  10.220   2.224 -3.6099  0.3248  0.4538
  903MOL0     H24605   3.287  10.074   2.240  1.5996 -2.2775 -3.8454
  903MOL0     H24606   3.017  10.067   2.110  2.3076  3.0603 -0.1506
  903MOL0     H24607   3.104   9.932   2.183  0.7163 -0.6801  0.7758
  903MOL0     H24608   2.929  10.000   2.325  1.1183 -0.4604  0.5920
  903MOL0     H24609   2.985  10.175   2.331  0.1219  0.9339  0.0393
  903MOL0     H24610   3.243   9.955   2.598 -0.1533  1.0463  1.1145
  903MOL0     H24611   3.070  10.358   1.822  0.6190 -1.0612  2.3531
  903MOL0     H24612   3.166  10.576   1.609  1.6654 -2.3133  0.9275
  903MOL0     H24613   3.081  10.487   1.484 -0.2478  0.3022  0.2421
  903MOL0     H24614   3.009  10.489   1.651  0.2354  0.1113  1.5547
  904MOL0     O24615   9.101   5.875   1.299  0.1061 -0.4879  0.3114
  904MOL0     C24616   9.021   5.945   1.362  0.5020 -0.0148 -0.3253
  904MOL0     O24617   9.030   5.973   1.495 -0.3043  0.7116 -0.3758
  904MOL0     C24618   9.132   5.931   1.572  0.1628  0.4350  0.1437
  904MOL0     C24619   9.119   5.807   1.628 -0.6533 -0.1362  0.0118
  904MOL0     C24620   9.235   5.747   1.690 -0.5176 -0.3543 -0.6483
  904MOL0     C24621   9.366   5.807   1.690 -0.9009  0.1455  0.1998
  904MOL0     O24622   9.487   5.764   1.745 -0.5995  0.1734  0.0475
  904MOL0     C24623   9.495   5.633   1.802  0.3976  0.5385  0.4202
  904MOL0     C24624   9.434   5.617   1.942 -0.1017  0.0676 -0.4438
  904MOL0     C24625   9.399   5.469   1.980  0.7419  0.9223  0.2631
  904MOL0     C24626   9.291   5.393   1.893  0.6560 -0.4235 -0.2642
  904MOL0     C24627   9.268   5.252   1.951  0.0009  0.0745 -0.3825
  904MOL0     C24628   9.161   5.177   1.879 -0.3338 -0.6010  0.2585
  904MOL0     C24629   9.077   5.082   1.970  0.8101 -0.1618  0.4018
  904MOL0     C24630   8.982   5.148   2.069 -0.0693  0.2045  0.6364
  904MOL0     N24631   8.940   5.053   2.165  0.5781  0.3060 -0.0066
  904MOL0     C24632   9.011   4.961   2.245 -1.3734 -0.5811 -0.0870
  904MOL0     C24633   8.914   4.912   2.329  0.6577 -0.0350  0.2357
  904MOL0     C24634   8.941   4.805   2.428  0.5391  0.8274  0.6293
  904MOL0     C24635   9.028   4.862   2.537  0.3134 -0.1938  0.4331
  904MOL0     C24636   8.952   4.951   2.633 -0.4220 -0.9043 -0.0219
  904MOL0     C24637   9.041   4.998   2.755 -0.0357  0.0019  0.0429
  904MOL0     O24638   9.086   4.891   2.832  0.4929  0.1846  0.8956
  904MOL0     C24639   9.210   4.839   2.821 -0.8916 -0.6004  0.3745
  904MOL0     C24640   9.321   4.910   2.760  0.3833 -0.6178 -0.9208
  904MOL0     C24641   9.446   4.852   2.752 -0.2119  0.3168 -0.0024
  904MOL0     C24642   9.558   4.935   2.693 -0.8009 -0.5578  0.4756
  904MOL0     C24643   9.463   4.717   2.796 -0.0618 -0.3117  1.0527
  904MOL0     C24644   9.589   4.650   2.790 -0.0786 -0.5874 -0.7608
  904MOL0     O24645   9.696   4.715   2.842  0.5484 -0.1645  0.6409
  904MOL0     C24646   9.819   4.650   2.832 -0.0013 -0.6337  0.0267
  904MOL0     C24647   9.911   4.676   2.725 -0.0586  0.3763 -0.4493
  904MOL0     C24648  10.025   4.590   2.716  0.0959 -0.3980 -1.1215
  904MOL0     C24649  10.050   4.491   2.818  0.1080  0.9613  0.9917
  904MOL0     O24650  10.158   4.407   2.809  1.3815 -0.6699 -0.0788
  904MOL0     C24651  10.265   4.421   2.711 -0.2252 -0.1401 -0.1190
  904MOL0     C24652  10.371   4.309   2.727 -0.4083  0.1779  0.3376
  904MOL0     C24653  10.478   4.325   2.615  0.8886  0.6414  0.1088
  904MOL0     C24654  10.585   4.214   2.631 -0.3777  0.1172 -0.2515
  904MOL0     C24655  10.694   4.219   2.521 -0.1370 -0.3498  0.1068
  904MOL0     C24656  10.782   4.094   2.539 -0.8511 -0.2089 -0.6235
  904MOL0     C24657  10.897   4.098   2.433 -0.2854  0.1156  0.0514
  904MOL0     C24658  10.974   3.967   2.413  0.0419 -0.3500  0.8157
  904MOL0    Cl24659  10.862   3.820   2.404 -0.2534  0.0665  0.2232
  904MOL0     C24660   9.964   4.483   2.923 -0.2166 -0.3552 -0.1342
  904MOL0     C24661   9.850   4.562   2.929 -0.2506  0.4251 -0.0515
  904MOL0     O24662   9.595   4.539   2.751 -0.0580  0.0512 -1.0077
  904MOL0     C24663   9.349   4.641   2.844  0.5161  0.1966  0.3116
  904MOL0     C24664   9.227   4.705   2.857  0.6919  0.4181 -0.4075
  904MOL0     N24665   8.794   4.983   2.308  0.2533 -0.2725 -0.8982
  904MOL0     N24666   8.812   5.070   2.215  0.5027 -0.2693 -0.8348
  904MOL0     C24667   9.364   5.942   1.649 -0.2931  0.2893  0.2010
  904MOL0     C24668   9.254   6.003   1.589 -0.0940  0.6773 -0.6221
  904MOL0     C24669   8.908   6.008   1.291  0.1842  0.3003  0.3527
  904MOL0     C24670   8.820   6.088   1.369  0.2601 -0.2399  0.2581
  904MOL0     C24671   8.699   6.135   1.302 -0.1896  0.2913 -0.2087
  904MOL0     C24672   8.662   6.113   1.172  0.0993  0.2234  0.0661
  904MOL0     O24673   8.536   6.160   1.130 -0.2673  0.2040 -0.7851
  904MOL0     C24674   8.501   6.131   0.993  0.8648  0.0715  0.2729
  904MOL0     C24675   8.380   6.205   0.944 -0.0925  0.0259 -0.1850
  904MOL0     C24676   8.356   6.183   0.802  0.9592 -0.0950  0.1385
  904MOL0     C24677   8.211   6.225   0.765 -0.2305 -0.1674  0.6372
  904MOL0     C24678   8.156   6.349   0.833  0.6480  0.4871 -0.1582
  904MOL0     C24679   8.120   6.438   0.900 -0.6709 -0.7859  0.1267
  904MOL0     C24680   8.760   6.048   1.096 -0.6007 -0.1940  0.4533
  904MOL0     C24681   8.884   6.005   1.149 -0.0248 -0.6037  0.6425
  904MOL0     C24682   8.961   5.937   1.035  0.0702 -0.5123 -0.1749
  904MOL0     H24683   9.032   5.744   1.614  0.3011 -0.9813 -2.6203
  904MOL0     H24684   9.217   5.648   1.729  0.9999 -0.3090  0.2431
  904MOL0     H24685   9.598   5.599   1.818  0.3118  0.8186  1.7253
  904MOL0     H24686   9.453   5.562   1.730  2.1266 -0.1878  0.0711
  904MOL0     H24687   9.508   5.643   2.018 -1.9033 -0.1649  1.4695
  904MOL0     H24688   9.350   5.686   1.952 -2.0171 -2.3936  1.7861
  904MOL0     H24689   9.487   5.406   1.968  0.9292  0.9857  1.2038
  904MOL0     H24690   9.373   5.470   2.087  1.2135  2.0382  0.3815
  904MOL0     H24691   9.192   5.438   1.882 -0.3564 -2.5796 -0.4690
  904MOL0     H24692   9.322   5.378   1.790  0.0493 -0.1581 -0.4905
  904MOL0     H24693   9.237   5.262   2.055 -0.6441 -1.7221 -0.3697
  904MOL0     H24694   9.366   5.204   1.948  0.7447  1.4993  0.1080
  904MOL0     H24695   9.093   5.246   1.829  0.5114 -0.1713 -0.3288
  904MOL0     H24696   9.197   5.114   1.796 -0.8505  0.3823 -0.7397
  904MOL0     H24697   9.135   5.004   2.020  0.8076  0.9295  2.1719
  904MOL0     H24698   9.018   5.037   1.889  1.3208  2.2707 -1.4661
  904MOL0     H24699   9.035   5.224   2.127  2.0911  1.2386 -2.3952
  904MOL0     H24700   8.901   5.200   2.018 -0.2622  0.3920  1.1291
  904MOL0     H24701   9.110   4.925   2.222 -2.5261 -1.3432 -4.7329
  904MOL0     H24702   8.994   4.727   2.373 -0.8894 -0.8696  1.5508
  904MOL0     H24703   8.842   4.766   2.455 -0.9975  0.7349 -4.1937
  904MOL0     H24704   9.066   4.772   2.587 -1.7639 -2.4250 -1.7458
  904MOL0     H24705   9.122   4.904   2.500  0.5343 -1.1305 -0.0978
  904MOL0     H24706   8.925   5.039   2.575  1.1535  0.0328  0.6058
  904MOL0     H24707   8.864   4.894   2.664 -0.5706 -0.4174  0.4507
  904MOL0     H24708   9.123   5.058   2.715 -1.1442 -1.5931 -5.4466
  904MOL0     H24709   8.970   5.051   2.819 -1.3360 -1.8044  0.1706
  904MOL0     H24710   9.312   5.017   2.742 -0.5233 -0.3199  1.0339
  904MOL0     H24711   9.639   4.874   2.652 -0.7956 -3.9681  4.8506
  904MOL0     H24712   9.614   4.989   2.770  1.9683 -0.5149 -1.4233
  904MOL0     H24713   9.521   5.009   2.622  1.3472 -0.2630 -0.4111
  904MOL0     H24714   9.895   4.748   2.645 -3.8932  0.6810  0.3979
  904MOL0     H24715  10.094   4.606   2.634 -1.2711  5.2328 -1.6158
  904MOL0     H24716  10.239   4.412   2.605  0.3253 -1.6164 -0.1543
  904MOL0     H24717  10.315   4.516   2.729 -0.3550  0.0007 -0.5025
  904MOL0     H24718  10.415   4.304   2.826  0.2712  3.7179  0.3656
  904MOL0     H24719  10.322   4.213   2.709 -0.6603  0.2300  0.7354
  904MOL0     H24720  10.521   4.424   2.603  1.1616  0.5580  0.3849
  904MOL0     H24721  10.436   4.325   2.514 -0.1263 -0.0273  0.5105
  904MOL0     H24722  10.529   4.120   2.629 -0.5376  0.2047  0.0563
  904MOL0     H24723  10.624   4.225   2.732  0.6037  0.6576 -0.6768
  904MOL0     H24724  10.654   4.227   2.420 -0.0775 -0.6160  0.0612
  904MOL0     H24725  10.756   4.307   2.539  1.3878 -1.5869  1.1745
  904MOL0     H24726  10.721   4.004   2.523  1.2624 -1.8622  0.1232
  904MOL0     H24727  10.812   4.059   2.638 -3.4124 -1.4181 -0.1947
  904MOL0     H24728  10.970   4.171   2.470  3.2328 -3.2973  0.4236
  904MOL0     H24729  10.852   4.115   2.335 -1.8775 -0.3585  0.6740
  904MOL0     H24730  11.046   3.952   2.494  0.9049  1.1741  0.3798
  904MOL0     H24731  11.039   3.969   2.325 -0.4964 -0.4211  0.4151
  904MOL0     H24732   9.987   4.415   3.004  0.4995  0.2610  0.1902
  904MOL0     H24733   9.782   4.555   3.013  0.3085 -1.3073  0.3124
  904MOL0     H24734   9.363   4.534   2.859  1.2645 -0.0404 -1.6962
  904MOL0     H24735   9.136   4.656   2.891  0.8657  1.2122  1.2902
  904MOL0     H24736   9.464   5.982   1.651  0.4992 -1.5365 -0.3374
  904MOL0     H24737   9.279   6.096   1.539  0.0224  1.3416  0.6273
  904MOL0     H24738   8.828   6.111   1.475 -0.7794 -0.4722  0.4048
  904MOL0     H24739   8.628   6.178   1.373  1.6340  2.9117  0.1371
  904MOL0     H24740   8.579   6.169   0.925  1.2226 -0.9986  0.0640
  904MOL0     H24741   8.486   6.026   0.968 -1.6929  0.5301 -0.3824
  904MOL0     H24742   8.396   6.310   0.968  0.9943 -0.7199  2.9454
  904MOL0     H24743   8.298   6.160   1.001  0.7280  0.7497  1.6474
  904MOL0     H24744   8.420   6.241   0.735 -0.8860  2.2402  0.2526
  904MOL0     H24745   8.378   6.080   0.773 -0.0577  0.5047 -3.2417
  904MOL0     H24746   8.141   6.142   0.778  0.0981 -0.9140 -1.8000
  904MOL0     H24747   8.215   6.246   0.658  2.2203 -0.4553  0.6173
  904MOL0     H24748   8.089   6.514   0.968  3.0354 -0.6738  1.9191
  904MOL0     H24749   8.753   6.037   0.988 -1.4221  0.7672  0.3980
  904MOL0     H24750   9.069   5.951   1.047  0.4432 -1.7044 -1.8827
  904MOL0     H24751   8.941   5.830   1.028  2.1689 -0.9333 -0.3385
  904MOL0     H24752   8.946   5.988   0.939  2.2697  1.5998  0.4949
  905MOL0     O24753   7.552   6.767   3.574 -0.6183  0.5258 -0.4383
  905MOL0     C24754   7.513   6.869   3.519 -0.3115  0.8207  0.1421
  905MOL0     O24755   7.575   6.930   3.415 -0.2206 -0.7849  0.0714
  905MOL0     C24756   7.685   6.874   3.360  0.0632 -0.3296 -0.0445
  905MOL0     C24757   7.795   6.954   3.363  0.4071  0.5202  0.5828
  905MOL0     C24758   7.916   6.910   3.306  0.2381 -0.2790  0.5112
  905MOL0     C24759   7.916   6.786   3.246 -0.3362  0.9438 -0.0124
  905MOL0     O24760   8.030   6.731   3.188  0.2695 -0.7296 -0.0655
  905MOL0     C24761   8.132   6.820   3.147 -0.0958  0.1391 -0.3955
  905MOL0     C24762   8.202   6.753   3.033 -0.7042  0.4405 -0.0136
  905MOL0     C24763   8.295   6.643   3.090  0.5193  0.4498  0.0964
  905MOL0     C24764   8.344   6.549   2.972 -0.0255  0.5289  0.0326
  905MOL0     C24765   8.478   6.486   3.026 -0.1330 -0.3246 -0.5588
  905MOL0     C24766   8.542   6.403   2.921 -0.3971  0.8291  0.9803
  905MOL0     C24767   8.664   6.334   2.982  0.2914 -0.1602  0.0120
  905MOL0     C24768   8.691   6.205   2.895 -0.3632 -0.6431 -1.5906
  905MOL0     N24769   8.788   6.118   2.962 -0.5764 -0.0587  0.4017
  905MOL0     C24770   8.879   6.042   2.887  0.9720 -1.2224 -0.8197
  905MOL0     C24771   8.963   5.986   2.979 -0.0540 -0.9012 -0.4707
  905MOL0     C24772   9.071   5.890   2.960 -0.1578 -0.3247  0.6887
  905MOL0     C24773   9.170   5.958   2.864 -0.9632  0.4743 -0.3357
  905MOL0     C24774   9.296   5.875   2.834 -1.0551 -0.0971  0.7241
  905MOL0     C24775   9.396   5.872   2.951  0.2248  0.3635 -0.4475
  905MOL0     O24776   9.438   6.004   2.986  0.3372 -0.7136 -0.1880
  905MOL0     C24777   9.569   6.023   3.009 -0.7312  0.2197 -0.4922
  905MOL0     C24778   9.616   6.078   3.129 -0.1891  0.2189 -0.2597
  905MOL0     C24779   9.751   6.102   3.157 -0.2405 -0.7017  0.1254
  905MOL0     C24780   9.782   6.196   3.277  0.3882  0.5700  0.1044
  905MOL0     C24781   9.842   6.054   3.066 -0.2576  0.1709  0.1585
  905MOL0     C24782   9.983   6.056   3.090 -1.0649 -1.2481 -0.3920
  905MOL0     O24783  10.039   6.058   3.218  0.1951  0.2135  0.1118
  905MOL0     C24784  10.165   6.001   3.243 -0.2473 -1.4427 -0.3483
  905MOL0     C24785  10.268   5.963   3.153  0.4042 -0.7893 -0.2972
  905MOL0     C24786  10.387   5.904   3.207  0.5448 -0.2830 -0.0581
  905MOL0     C24787  10.410   5.908   3.344 -0.3945 -0.1574  0.3142
  905MOL0     O24788  10.530   5.861   3.401 -0.3823  0.7450 -0.2318
  905MOL0     C24789  10.621   5.784   3.330 -0.3379  0.0018 -0.7304
  905MOL0     C24790  10.570   5.643   3.307 -0.4901 -0.8399 -0.3251
  905MOL0     C24791  10.657   5.539   3.377 -0.1342  0.1623  0.2436
  905MOL0     C24792  10.624   5.525   3.527  0.0529 -0.0702  0.2417
  905MOL0     C24793  10.714   5.407   3.570 -0.2545  0.7906 -0.1598
  905MOL0     C24794  10.672   5.350   3.706  0.3798 -0.0472 -0.4437
  905MOL0     C24795  10.762   5.236   3.746  0.3482 -0.0934  0.0079
  905MOL0     C24796  10.711   5.100   3.693 -0.7596  0.1087 -0.0118
  905MOL0    Cl24797  10.758   5.080   3.527 -0.1496  0.0270  0.5520
  905MOL0     C24798  10.312   5.951   3.436  0.4692  0.8126  1.1044
  905MOL0     C24799  10.188   5.995   3.380 -0.3284 -0.6753  0.1575
  905MOL0     O24800  10.051   6.070   2.994 -0.1310  1.2909  0.0617
  905MOL0     C24801   9.801   5.987   2.947 -1.3621  0.1523 -0.5008
  905MOL0     C24802   9.662   5.983   2.920  0.0133  0.4825  0.6710
  905MOL0     N24803   8.926   6.030   3.105 -0.7260  0.7458 -0.8385
  905MOL0     N24804   8.817   6.103   3.096  0.2213 -0.3356 -0.1189
  905MOL0     C24805   7.803   6.707   3.233 -0.9433 -0.3938  0.3172
  905MOL0     C24806   7.694   6.746   3.303  0.3576  0.5626  0.4409
  905MOL0     C24807   7.394   6.925   3.578 -0.6365 -0.9859 -0.1735
  905MOL0     C24808   7.373   7.066   3.568  0.1242 -0.2089 -0.7623
  905MOL0     C24809   7.261   7.122   3.624  0.0608  0.4044 -0.5784
  905MOL0     C24810   7.162   7.047   3.684  0.4870  0.1502 -0.7682
  905MOL0     O24811   7.061   7.105   3.753  0.4081 -0.1346  0.4674
  905MOL0     C24812   7.041   7.250   3.776  0.8508  0.2356  0.4604
  905MOL0     C24813   6.904   7.279   3.829 -0.4389 -0.3790 -0.1474
  905MOL0     C24814   6.795   7.216   3.730 -0.4649 -0.6564 -0.7863
  905MOL0     C24815   6.664   7.310   3.729  0.0752  1.0572  0.4898
  905MOL0     C24816   6.599   7.310   3.857  0.0389 -0.7458  0.0203
  905MOL0     C24817   6.548   7.334   3.965  0.2695 -0.5074 -0.1549
  905MOL0     C24818   7.182   6.912   3.700 -0.5248  0.1540 -1.1738
  905MOL0     C24819   7.292   6.847   3.646 -0.8740  0.6895 -0.5083
  905MOL0     C24820   7.287   6.698   3.660  0.1130  0.3338 -0.3914
  905MOL0     H24821   7.780   7.052   3.408  1.9672  0.2288  1.7923
  905MOL0     H24822   8.001   6.976   3.318  1.9657 -2.4136  0.7741
  905MOL0     H24823   8.187   6.838   3.239 -1.8555  2.1305  0.3465
  905MOL0     H24824   8.088   6.914   3.112 -0.7437  0.4058  1.0466
  905MOL0     H24825   8.124   6.715   2.967 -0.1308  2.5246 -2.0085
  905MOL0     H24826   8.262   6.832   2.987 -0.0025  0.0743  0.2435
  905MOL0     H24827   8.377   6.693   3.141  0.7357  1.6040 -1.3281
  905MOL0     H24828   8.250   6.572   3.160  3.1406 -0.4943  0.9629
  905MOL0     H24829   8.265   6.478   2.946 -0.0158  0.5915 -0.1715
  905MOL0     H24830   8.378   6.599   2.881 -1.1839 -2.3087 -2.1045
  905MOL0     H24831   8.458   6.423   3.114  0.4801 -0.3784 -0.4562
  905MOL0     H24832   8.541   6.564   3.068  0.5784 -0.7506 -0.8272
  905MOL0     H24833   8.477   6.327   2.876  0.6429  0.1259  0.6230
  905MOL0     H24834   8.575   6.475   2.846  3.6825  0.7611  2.4225
  905MOL0     H24835   8.644   6.302   3.084  0.3177  1.5175  0.5704
  905MOL0     H24836   8.746   6.404   2.964  0.2423 -0.6676 -2.6477
  905MOL0     H24837   8.596   6.152   2.880 -2.5037  2.1205  1.0539
  905MOL0     H24838   8.738   6.241   2.803  0.5743  1.8796 -0.2074
  905MOL0     H24839   8.875   6.029   2.779  0.9768 -1.8587 -0.7488
  905MOL0     H24840   9.018   5.806   2.913  0.0575 -0.9442  1.5341
  905MOL0     H24841   9.119   5.863   3.054  0.3143  2.5159  1.3460
  905MOL0     H24842   9.128   5.989   2.768  0.9275 -0.6649 -1.6103
  905MOL0     H24843   9.194   6.056   2.907  1.4805  0.0290 -0.5355
  905MOL0     H24844   9.265   5.778   2.793  2.4778  0.1933 -3.2793
  905MOL0     H24845   9.358   5.919   2.756 -0.6470 -2.4926 -0.3956
  905MOL0     H24846   9.345   5.834   3.040 -0.4870  0.9388 -0.5986
  905MOL0     H24847   9.485   5.809   2.942 -1.2905 -2.1103  0.9490
  905MOL0     H24848   9.533   6.115   3.187  0.5289 -0.6092  1.3437
  905MOL0     H24849   9.823   6.286   3.232  2.1370 -0.8064 -1.2285
  905MOL0     H24850   9.857   6.157   3.346 -1.6144 -1.2745  1.3938
  905MOL0     H24851   9.686   6.212   3.327  1.7535  0.8611  2.7823
  905MOL0     H24852  10.251   5.960   3.046  2.0663 -2.8351 -0.5730
  905MOL0     H24853  10.454   5.866   3.131 -2.3000 -2.7906 -1.5174
  905MOL0     H24854  10.653   5.846   3.246  2.4937  0.0664  0.3009
  905MOL0     H24855  10.713   5.783   3.388  0.1715  0.2782 -1.5235
  905MOL0     H24856  10.468   5.645   3.346 -0.7850  2.9069 -0.8788
  905MOL0     H24857  10.583   5.617   3.201  0.8735 -2.0964  0.1292
  905MOL0     H24858  10.762   5.564   3.359 -0.1537  0.1767  0.1491
  905MOL0     H24859  10.648   5.439   3.333  1.9086  0.2904 -0.5688
  905MOL0     H24860  10.522   5.486   3.529  1.3026 -3.9399 -1.6964
  905MOL0     H24861  10.633   5.616   3.587  1.9471  0.5659 -0.9217
  905MOL0     H24862  10.705   5.322   3.503  0.6731 -0.0385  0.7228
  905MOL0     H24863  10.816   5.446   3.574 -0.8613  2.3830  1.6922
  905MOL0     H24864  10.564   5.331   3.708  0.6438 -1.5917  1.6479
  905MOL0     H24865  10.691   5.431   3.776 -0.1207  0.7522 -1.2115
  905MOL0     H24866  10.746   5.239   3.854 -2.7272  1.0901 -0.3799
  905MOL0     H24867  10.867   5.248   3.717  1.1627 -3.2860  1.1911
  905MOL0     H24868  10.603   5.091   3.700 -0.4956 -2.4551  2.6736
  905MOL0     H24869  10.745   5.019   3.758 -0.7585 -0.1686 -0.3555
  905MOL0     H24870  10.321   5.935   3.543  0.0621  0.8201  1.1390
  905MOL0     H24871  10.103   6.010   3.445 -2.1469  2.0826 -2.5564
  905MOL0     H24872   9.875   5.948   2.878 -2.4542  0.1003 -1.6777
  905MOL0     H24873   9.636   5.937   2.825  0.7638 -3.4347  2.1761
  905MOL0     H24874   7.807   6.607   3.192 -1.7071 -0.6356  0.8021
  905MOL0     H24875   7.603   6.687   3.308 -0.7687  1.5964 -3.5567
  905MOL0     H24876   7.446   7.141   3.539 -2.1688  2.3170 -0.3884
  905MOL0     H24877   7.257   7.230   3.629 -1.1443  0.3316  0.3001
  905MOL0     H24878   7.115   7.301   3.839  1.0165 -1.2903  1.5714
  905MOL0     H24879   7.058   7.299   3.679 -1.4028 -2.3481 -1.3740
  905MOL0     H24880   6.903   7.388   3.836 -2.2652 -0.2402 -1.6702
  905MOL0     H24881   6.887   7.241   3.930 -1.1610  0.9821  0.2728
  905MOL0     H24882   6.834   7.199   3.630  1.5747  0.7433 -0.2921
  905MOL0     H24883   6.770   7.118   3.773  0.6584  0.6487  3.3428
  905MOL0     H24884   6.595   7.262   3.659  1.4909 -1.2265  0.5613
  905MOL0     H24885   6.689   7.413   3.702 -0.2878  0.8561 -0.6896
  905MOL0     H24886   6.515   7.366   4.062  1.7793 -4.2141  1.7964
  905MOL0     H24887   7.102   6.858   3.751  0.8278 -3.4632 -2.5429
  905MOL0     H24888   7.207   6.658   3.724 -1.0696  0.5248 -1.7071
  905MOL0     H24889   7.252   6.658   3.565 -3.6894  0.3570  0.8138
  905MOL0     H24890   7.376   6.646   3.696  0.1401  0.3331 -0.4606
  906MOL0     O24891   6.804   7.080   8.530  0.3503 -0.9014  0.1166
  906MOL0     C24892   6.804   7.121   8.644 -0.0053  0.0608  0.3648
  906MOL0     O24893   6.897   7.190   8.703 -0.2076 -0.9375 -0.8697
  906MOL0     C24894   7.017   7.172   8.650  0.2391  0.1789 -0.0079
  906MOL0     C24895   7.064   7.271   8.567  1.1985  0.3622 -0.0525
  906MOL0     C24896   7.184   7.268   8.508 -0.0236 -0.4937  0.7119
  906MOL0     C24897   7.268   7.164   8.526  0.0332 -0.1891  0.3073
  906MOL0     O24898   7.386   7.180   8.455  0.1263  0.8211 -0.9770
  906MOL0     C24899   7.481   7.069   8.457 -0.4289 -0.7105 -0.5167
  906MOL0     C24900   7.620   7.121   8.439 -0.5900 -0.0314 -0.9661
  906MOL0     C24901   7.669   7.220   8.548 -0.6168  0.4198  0.2836
  906MOL0     C24902   7.799   7.294   8.507  0.0654  0.4337  1.3862
  906MOL0     C24903   7.867   7.367   8.623 -0.4654 -1.2502 -0.1755
  906MOL0     C24904   7.989   7.452   8.561 -0.3608  0.2592  0.1816
  906MOL0     C24905   8.048   7.533   8.678 -0.0603 -0.1294  0.2441
  906MOL0     C24906   8.182   7.595   8.636 -0.4508 -0.8726 -0.0366
  906MOL0     N24907   8.285   7.499   8.595  0.1921  0.3340 -0.2594
  906MOL0     C24908   8.377   7.517   8.492 -0.3685  0.4693 -0.0692
  906MOL0     C24909   8.443   7.398   8.474  0.2947 -0.6833  0.4970
  906MOL0     C24910   8.559   7.381   8.377  0.4121 -0.2996 -0.4265
  906MOL0     C24911   8.674   7.486   8.401 -0.5516  0.3216  0.4238
  906MOL0     C24912   8.764   7.501   8.265  0.7566  0.1361 -0.3035
  906MOL0     C24913   8.914   7.529   8.296 -0.3230 -0.5694 -0.5079
  906MOL0     O24914   8.973   7.420   8.373  0.6169  0.3969  0.3632
  906MOL0     C24915   9.107   7.399   8.381  0.8549  0.1847 -0.2531
  906MOL0     C24916   9.157   7.303   8.465 -0.4716  0.1029  1.1189
  906MOL0     C24917   9.294   7.272   8.482  0.2887  0.3953  0.9850
  906MOL0     C24918   9.336   7.152   8.569 -0.0515 -0.6589  0.0855
  906MOL0     C24919   9.384   7.347   8.400  0.7838  0.6672 -0.7682
  906MOL0     C24920   9.534   7.310   8.391  0.2649  0.0687  0.0528
  906MOL0     O24921   9.600   7.400   8.315  0.1736 -0.5209 -0.4280
  906MOL0     C24922   9.731   7.376   8.305 -1.1363 -0.3223  0.0860
  906MOL0     C24923   9.819   7.370   8.413  0.2331 -0.2182  0.3905
  906MOL0     C24924   9.952   7.357   8.390 -0.3699 -0.3127  0.6037
  906MOL0     C24925  10.011   7.368   8.264  0.5765  0.5471 -0.5075
  906MOL0     O24926  10.148   7.360   8.235  0.4069 -0.5980 -0.4061
  906MOL0     C24927  10.234   7.448   8.312 -0.7804  0.3317  0.4064
  906MOL0     C24928  10.379   7.394   8.325 -0.0914 -0.9679 -0.1820
  906MOL0     C24929  10.426   7.346   8.187  0.1406 -0.6121  0.2331
  906MOL0     C24930  10.577   7.346   8.183 -0.2643 -0.0198 -0.7968
  906MOL0     C24931  10.624   7.483   8.140  0.4594 -0.2629 -0.8341
  906MOL0     C24932  10.742   7.544   8.215  1.1864 -0.2645  0.7449
  906MOL0     C24933  10.815   7.656   8.132  0.0770 -0.2478  0.1398
  906MOL0     C24934  10.732   7.779   8.118  0.1012  0.8089  1.0339
  906MOL0    Cl24935  10.722   7.861   8.275 -0.0571  0.1782  0.0509
  906MOL0     C24936   9.925   7.385   8.160  0.4729 -1.0374 -0.2044
  906MOL0     C24937   9.786   7.372   8.176 -0.3339  0.1399 -0.3551
  906MOL0     O24938   9.591   7.215   8.448  0.7428 -0.0794  0.1504
  906MOL0     C24939   9.327   7.445   8.318  0.6857  0.0239 -0.6957
  906MOL0     C24940   9.194   7.475   8.312 -0.8042 -0.1427 -0.0027
  906MOL0     N24941   8.401   7.314   8.574 -0.1346  0.2353 -0.1744
  906MOL0     N24942   8.307   7.372   8.639 -0.4120 -0.1135  0.2771
  906MOL0     C24943   7.225   7.054   8.614  0.1962 -0.9841 -0.1586
  906MOL0     C24944   7.099   7.060   8.673 -0.0940 -0.6547  0.3293
  906MOL0     C24945   6.699   7.080   8.739 -0.1084 -0.0517 -0.5172
  906MOL0     C24946   6.728   7.087   8.877 -0.3000  0.7398 -0.9531
  906MOL0     C24947   6.629   7.053   8.964  0.4901 -0.3230  0.3343
  906MOL0     C24948   6.501   7.012   8.921  0.0943  0.3746 -0.2634
  906MOL0     O24949   6.397   6.995   9.006 -0.2572 -0.0899  0.0505
  906MOL0     C24950   6.442   6.937   9.125 -0.4157  0.5922 -0.1125
  906MOL0     C24951   6.321   6.863   9.177  0.0734 -0.2532 -0.0652
  906MOL0     C24952   6.260   6.748   9.097  0.1685  0.1245  1.0470
  906MOL0     C24953   6.209   6.627   9.187 -0.3282 -0.0943  0.6453
  906MOL0     C24954   6.137   6.539   9.093  0.5074 -0.4774 -0.1837
  906MOL0     C24955   6.088   6.458   9.016 -1.7715  0.2027  0.2397
  906MOL0     C24956   6.473   7.024   8.788  0.1542  0.1015 -0.2355
  906MOL0     C24957   6.574   7.047   8.697  0.9080  0.0275  0.2697
  906MOL0     C24958   6.527   7.053   8.554  0.4294  0.9996 -0.6852
  906MOL0     H24959   7.000   7.354   8.542 -0.6890 -1.4507 -1.5674
  906MOL0     H24960   7.220   7.346   8.443 -0.1079  0.3066  1.5987
  906MOL0     H24961   7.454   7.000   8.376 -1.3890  0.3059 -1.0902
  906MOL0     H24962   7.486   7.013   8.551  1.6614 -2.1741 -1.4266
  906MOL0     H24963   7.696   7.043   8.443  0.7049  1.2241 -0.0182
  906MOL0     H24964   7.615   7.176   8.344  0.9869 -0.7966 -1.5291
  906MOL0     H24965   7.597   7.299   8.573  0.7601  1.5475  0.8212
  906MOL0     H24966   7.682   7.159   8.638 -2.3791 -0.6155 -0.1135
  906MOL0     H24967   7.870   7.226   8.460 -1.1120  1.8702 -2.9120
  906MOL0     H24968   7.774   7.370   8.432  0.9598  0.3015  0.9456
  906MOL0     H24969   7.902   7.282   8.682  1.4278 -2.2840 -2.6075
  906MOL0     H24970   7.794   7.429   8.676  0.9672 -1.0113  1.6237
  906MOL0     H24971   8.064   7.378   8.530 -0.2883  0.2588  0.3575
  906MOL0     H24972   7.959   7.507   8.472 -0.0115  0.6149  0.2801
  906MOL0     H24973   8.053   7.464   8.763  0.7574 -1.4521 -0.8192
  906MOL0     H24974   7.978   7.609   8.713 -0.1350 -1.4408  3.2621
  906MOL0     H24975   8.159   7.659   8.551 -0.9615 -1.4997 -0.3819
  906MOL0     H24976   8.212   7.642   8.730  0.8046 -0.8990 -0.4114
  906MOL0     H24977   8.398   7.611   8.442  1.3546  0.9278  1.3932
  906MOL0     H24978   8.523   7.384   8.274  0.6406 -0.2725 -0.5051
  906MOL0     H24979   8.599   7.281   8.393 -1.5172 -1.0554 -0.0454
  906MOL0     H24980   8.638   7.589   8.411  1.2892  1.2748 -1.9006
  906MOL0     H24981   8.727   7.457   8.491 -0.2873 -1.1858 -0.1720
  906MOL0     H24982   8.769   7.410   8.204  1.5234 -0.6281  0.8628
  906MOL0     H24983   8.731   7.581   8.198  0.3301  0.1739 -0.0557
  906MOL0     H24984   8.967   7.542   8.201  2.2738 -0.1456  0.9131
  906MOL0     H24985   8.921   7.616   8.362  3.4860 -1.3044  0.2690
  906MOL0     H24986   9.090   7.247   8.530 -1.8526  0.1589 -0.1831
  906MOL0     H24987   9.401   7.187   8.649 -1.8911  0.5859  1.1287
  906MOL0     H24988   9.381   7.076   8.505  0.3361  1.4950 -2.3892
  906MOL0     H24989   9.247   7.108   8.615 -0.2282 -1.4143 -0.9441
  906MOL0     H24990   9.784   7.357   8.516  2.6833  0.7702  1.4157
  906MOL0     H24991  10.026   7.338   8.467  0.9048 -1.4467 -0.8434
  906MOL0     H24992  10.241   7.544   8.262  3.5607 -0.7498 -1.6173
  906MOL0     H24993  10.192   7.467   8.411 -0.3985  0.2861  0.5807
  906MOL0     H24994  10.437   7.476   8.370  1.5057 -2.8776  1.4459
  906MOL0     H24995  10.386   7.312   8.397 -1.7188 -0.8694  0.1295
  906MOL0     H24996  10.391   7.403   8.100 -0.1844  0.0148  0.7700
  906MOL0     H24997  10.380   7.246   8.182 -1.5875  0.1142  0.7553
  906MOL0     H24998  10.616   7.273   8.111  0.8442  0.3068 -0.5445
  906MOL0     H24999  10.614   7.325   8.283 -1.4840 -0.7838 -0.4817
  906MOL0     H25000  10.629   7.480   8.030 -0.3293  0.9659 -0.9256
  906MOL0     H25001  10.546   7.554   8.168 -0.5322 -1.8430  0.5566
  906MOL0     H25002  10.809   7.458   8.225 -1.1192 -2.8066 -3.1769
  906MOL0     H25003  10.714   7.567   8.318  0.5149  0.7480  0.3467
  906MOL0     H25004  10.836   7.623   8.030 -1.6642 -0.5213 -0.1674
  906MOL0     H25005  10.902   7.686   8.191 -0.9548 -0.7621  1.9880
  906MOL0     H25006  10.629   7.767   8.083  0.3889 -1.6563  0.8595
  906MOL0     H25007  10.787   7.840   8.045 -0.3385 -2.0370 -1.9277
  906MOL0     H25008   9.967   7.386   8.060  0.5796 -0.4593 -0.1583
  906MOL0     H25009   9.711   7.374   8.097 -0.1212  2.9583 -0.5914
  906MOL0     H25010   9.395   7.490   8.246  1.0416  0.7824  0.0919
  906MOL0     H25011   9.173   7.555   8.243  0.1897 -0.2349 -0.4332
  906MOL0     H25012   7.285   6.964   8.623 -1.1628 -1.6665  3.2638
  906MOL0     H25013   7.055   6.977   8.727  0.0039 -1.0706 -0.2129
  906MOL0     H25014   6.828   7.107   8.915 -0.2076 -1.0532 -0.1409
  906MOL0     H25015   6.659   7.055   9.068  0.5088 -0.7816  0.3370
  906MOL0     H25016   6.519   6.859   9.118 -2.3773 -1.6100  1.4559
  906MOL0     H25017   6.480   7.011   9.197 -1.4487  1.0376 -0.0045
  906MOL0     H25018   6.256   6.950   9.194  1.5461  0.5075  2.1260
  906MOL0     H25019   6.338   6.838   9.282  1.7590 -0.0299 -0.2641
  906MOL0     H25020   6.179   6.779   9.030  0.7862  0.1296  0.2855
  906MOL0     H25021   6.340   6.718   9.029 -0.2216  1.7812 -0.2217
  906MOL0     H25022   6.141   6.661   9.265 -1.2339 -0.3978  0.0124
  906MOL0     H25023   6.289   6.581   9.244  0.0353  3.1133  2.9810
  906MOL0     H25024   6.040   6.393   8.946  0.4987 -1.1448 -0.1966
  906MOL0     H25025   6.374   7.006   8.747  0.7445 -0.0919 -1.6479
  906MOL0     H25026   6.564   7.147   8.510  0.6326  0.7951 -0.9578
  906MOL0     H25027   6.570   6.970   8.497  0.6828  2.5213 -2.8397
  906MOL0     H25028   6.420   7.039   8.535  0.5440  1.3506 -1.6664
  907MOL0     O25029   8.083   7.320   2.115  0.4537 -0.2153 -0.5642
  907MOL0     C25030   8.052   7.271   2.225 -0.0802 -0.2536  0.6706
  907MOL0     O25031   8.141   7.236   2.323  0.3297 -0.2218  0.1779
  907MOL0     C25032   8.275   7.267   2.300  0.3685  0.3318 -0.3895
  907MOL0     C25033   8.370   7.166   2.322  0.7232 -0.2088 -0.0539
  907MOL0     C25034   8.507   7.179   2.292 -0.1414 -0.5432 -0.1857
  907MOL0     C25035   8.546   7.308   2.245  0.0357 -0.5559  0.0271
  907MOL0     O25036   8.677   7.345   2.206 -0.1226 -0.1648 -0.2786
  907MOL0     C25037   8.770   7.247   2.177  0.2065 -0.0485 -0.1671
  907MOL0     C25038   8.905   7.318   2.137  0.2972  0.3832 -0.0070
  907MOL0     C25039   9.030   7.259   2.200  0.6276  0.7164 -0.3427
  907MOL0     C25040   9.164   7.319   2.147 -0.1518 -0.2566 -0.2083
  907MOL0     C25041   9.191   7.446   2.224  0.6279 -0.8727 -0.0148
  907MOL0     C25042   9.326   7.509   2.192 -0.7870  0.1793  0.3031
  907MOL0     C25043   9.374   7.616   2.298 -0.0627  0.7355  0.3173
  907MOL0     C25044   9.446   7.556   2.422  0.1055 -0.6812 -0.2291
  907MOL0     N25045   9.590   7.524   2.389  0.1242 -0.6390 -0.2681
  907MOL0     C25046   9.686   7.549   2.483  0.7815 -0.6126 -0.3807
  907MOL0     C25047   9.796   7.490   2.438 -0.2014 -0.0867 -0.0388
  907MOL0     C25048   9.917   7.469   2.525 -0.1215 -0.2199 -0.3902
  907MOL0     C25049  10.043   7.534   2.467  0.6504  0.2012 -0.2139
  907MOL0     C25050  10.153   7.525   2.571 -0.3261  0.2800 -0.5564
  907MOL0     C25051  10.181   7.384   2.627 -0.5215 -0.1989  0.1341
  907MOL0     O25052  10.290   7.365   2.725 -0.1181  0.4378  0.3267
  907MOL0     C25053  10.424   7.362   2.690 -0.2034 -0.6216  0.4542
  907MOL0     C25054  10.468   7.376   2.555 -0.5065 -0.3384  0.0551
  907MOL0     C25055  10.604   7.392   2.529 -1.4404 -0.8449 -1.2587
  907MOL0     C25056  10.644   7.419   2.378  0.0632  0.7209 -0.1826
  907MOL0     C25057  10.705   7.374   2.634  0.0298  0.7768  0.0958
  907MOL0     C25058  10.855   7.370   2.617 -0.2079  0.2377 -0.5092
  907MOL0     O25059  10.902   7.323   2.500  0.4179 -0.3980 -0.0259
  907MOL0     C25060  11.029   7.272   2.496 -0.3641  0.0828 -0.5696
  907MOL0     C25061  11.056   7.139   2.520  0.3180 -0.1144  0.2275
  907MOL0     C25062  11.181   7.084   2.515 -0.0408 -0.2017 -0.5967
  907MOL0     C25063  11.295   7.165   2.505 -0.0405  0.2124 -0.5906
  907MOL0     O25064  11.426   7.132   2.515  0.0904 -0.1049 -1.1465
  907MOL0     C25065  11.463   7.008   2.570 -0.1767  0.2615  0.0242
  907MOL0     C25066  11.615   6.984   2.596 -0.3880 -0.4623  0.2467
  907MOL0     C25067  11.710   7.014   2.481  0.0226  0.5436 -0.1528
  907MOL0     C25068  11.854   7.017   2.545 -0.4343 -0.3296  0.4680
  907MOL0     C25069  11.954   7.059   2.431  0.3700  0.2228 -0.0045
  907MOL0     C25070  12.090   7.067   2.489  0.0890  0.0699 -0.0122
  907MOL0     C25071  12.205   7.091   2.380 -0.1377 -0.2634  0.1806
  907MOL0     C25072  12.341   7.087   2.440  0.8589  0.1907  0.5062
  907MOL0    Cl25073  12.351   6.922   2.493 -0.4582  0.4193  0.1007
  907MOL0     C25074  11.275   7.304   2.495 -0.6286 -0.0986 -0.1439
  907MOL0     C25075  11.143   7.353   2.480  1.2545  0.1271 -0.9144
  907MOL0     O25076  10.918   7.387   2.720  0.0822 -0.1602  0.2176
  907MOL0     C25077  10.649   7.354   2.767 -0.0521  0.0910  0.1211
  907MOL0     C25078  10.513   7.358   2.797  0.5177 -0.1823  0.1738
  907MOL0     N25079   9.769   7.433   2.321  0.0915 -0.4341  0.1522
  907MOL0     N25080   9.639   7.451   2.294  0.0295 -0.3571  0.4025
  907MOL0     C25081   8.452   7.404   2.224  0.2495 -0.1442  0.3764
  907MOL0     C25082   8.318   7.390   2.255  0.4077 -0.2702  0.5008
  907MOL0     C25083   7.904   7.255   2.253  0.3190 -0.3458 -0.0040
  907MOL0     C25084   7.870   7.239   2.394 -0.1757  0.1592  0.1268
  907MOL0     C25085   7.737   7.230   2.441 -0.2906  0.4906 -0.7795
  907MOL0     C25086   7.632   7.225   2.352 -0.5223  0.8591 -0.1889
  907MOL0     O25087   7.508   7.211   2.404 -0.3416  1.2681 -0.1373
  907MOL0     C25088   7.393   7.172   2.328 -0.3378 -0.5429 -0.8283
  907MOL0     C25089   7.349   7.031   2.369  0.3787  0.2610 -0.6264
  907MOL0     C25090   7.433   6.909   2.351  0.0077 -0.3025  0.3955
  907MOL0     C25091   7.407   6.848   2.211  0.6448 -0.0429  0.0680
  907MOL0     C25092   7.423   6.949   2.100 -0.3843  0.6747  0.1750
  907MOL0     C25093   7.435   7.020   2.007 -0.0285 -1.1130 -0.6397
  907MOL0     C25094   7.660   7.234   2.215  0.2789  0.2537  0.3444
  907MOL0     C25095   7.791   7.243   2.163 -0.7928  0.6303 -0.5096
  907MOL0     C25096   7.808   7.262   2.015 -0.1617  0.2028  0.5063
  907MOL0     H25097   8.344   7.066   2.353 -0.4322  0.9269  3.0438
  907MOL0     H25098   8.571   7.092   2.303  0.7418  0.0424 -0.5598
  907MOL0     H25099   8.734   7.180   2.099  1.0887 -0.7567  0.0212
  907MOL0     H25100   8.782   7.184   2.266 -1.2533 -3.5000 -2.2156
  907MOL0     H25101   8.904   7.313   2.027 -0.4978 -3.5536  0.0473
  907MOL0     H25102   8.902   7.426   2.157  2.2417  0.5585 -0.4678
  907MOL0     H25103   9.021   7.270   2.309  0.1614  0.3934 -0.3478
  907MOL0     H25104   9.017   7.152   2.184 -1.4548  0.7957  0.5598
  907MOL0     H25105   9.253   7.257   2.161  2.7576  3.2230 -1.6934
  907MOL0     H25106   9.151   7.321   2.039 -2.3027  0.9118  0.0345
  907MOL0     H25107   9.188   7.426   2.331  2.4622  0.5234  0.3524
  907MOL0     H25108   9.111   7.519   2.206 -0.8265 -2.2490  0.6802
  907MOL0     H25109   9.408   7.437   2.190 -2.1372 -1.5877  3.3526
  907MOL0     H25110   9.326   7.546   2.089 -2.6321 -1.3104 -0.2900
  907MOL0     H25111   9.285   7.672   2.328 -0.2251  0.5929  0.1029
  907MOL0     H25112   9.440   7.687   2.247  1.3795 -0.9393 -0.2322
  907MOL0     H25113   9.452   7.626   2.506  4.2714 -1.2848  0.1944
  907MOL0     H25114   9.394   7.465   2.451 -2.0440  0.9623  1.4987
  907MOL0     H25115   9.682   7.593   2.582 -0.3707  0.9574 -1.0890
  907MOL0     H25116   9.941   7.363   2.541 -1.6507 -0.5507 -0.1452
  907MOL0     H25117   9.888   7.513   2.621 -3.9726 -1.3966 -0.8503
  907MOL0     H25118  10.074   7.484   2.375  0.4648  3.8031 -2.4203
  907MOL0     H25119  10.035   7.640   2.444  2.0674  0.5312  0.6732
  907MOL0     H25120  10.253   7.551   2.534 -0.7010  1.5092 -0.7423
  907MOL0     H25121  10.128   7.595   2.651 -2.6176 -0.9288 -0.1320
  907MOL0     H25122  10.092   7.352   2.681 -0.0055  0.6198  1.5214
  907MOL0     H25123  10.211   7.326   2.539 -0.9003  2.1930 -1.6742
  907MOL0     H25124  10.409   7.372   2.464  0.1320 -1.6285 -0.3212
  907MOL0     H25125  10.742   7.468   2.369 -0.1662  1.9536  2.8769
  907MOL0     H25126  10.565   7.473   2.325 -0.1680 -0.9935 -1.6895
  907MOL0     H25127  10.661   7.321   2.334 -1.0031 -0.7769  2.5042
  907MOL0     H25128  10.968   7.076   2.528 -0.7769  1.2168 -0.8116
  907MOL0     H25129  11.184   6.981   2.551  0.6228  0.9442  3.0457
  907MOL0     H25130  11.418   7.006   2.670 -0.8507 -0.2219 -0.2875
  907MOL0     H25131  11.421   6.929   2.507 -0.7729  0.3781  0.2690
  907MOL0     H25132  11.647   7.051   2.677  1.0454 -2.2067  1.1707
  907MOL0     H25133  11.625   6.879   2.625 -3.4058 -1.3113 -1.3580
  907MOL0     H25134  11.693   7.107   2.426  0.4715  0.6720 -0.0816
  907MOL0     H25135  11.699   6.937   2.404 -1.8976  2.1317 -1.5838
  907MOL0     H25136  11.878   6.921   2.593  0.7268 -0.4244 -0.2884
  907MOL0     H25137  11.863   7.104   2.610  0.1148  0.2437 -0.3576
  907MOL0     H25138  11.961   6.975   2.362 -2.0071 -2.0284  2.2535
  907MOL0     H25139  11.920   7.149   2.380 -2.0808  0.7830  2.3268
  907MOL0     H25140  12.099   6.979   2.554 -2.5122 -0.7453 -0.6725
  907MOL0     H25141  12.076   7.162   2.541 -1.8020  0.1458 -0.6021
  907MOL0     H25142  12.191   7.186   2.327 -1.3190 -0.5101  0.0403
  907MOL0     H25143  12.200   7.009   2.308 -2.3332  1.2557 -1.5527
  907MOL0     H25144  12.359   7.143   2.533  2.7094 -0.1439  0.3925
  907MOL0     H25145  12.424   7.112   2.373  0.1246  2.7400  0.4496
  907MOL0     H25146  11.358   7.368   2.469 -3.3016  3.2423 -1.2094
  907MOL0     H25147  11.128   7.459   2.463  1.0306 -0.1290 -2.4594
  907MOL0     H25148  10.715   7.347   2.853  0.2519  1.6728  0.0488
  907MOL0     H25149  10.487   7.344   2.901 -2.4965 -0.7490 -0.5626
  907MOL0     H25150   8.490   7.496   2.181  0.1851 -0.7891 -1.1150
  907MOL0     H25151   8.257   7.479   2.249 -1.2942 -1.3598  0.6576
  907MOL0     H25152   7.941   7.250   2.475  2.0230  0.6038 -1.7332
  907MOL0     H25153   7.730   7.218   2.549  1.4079  1.4895 -0.5349
  907MOL0     H25154   7.301   7.230   2.340 -1.5990 -2.6746  0.3193
  907MOL0     H25155   7.421   7.185   2.223  2.9111 -0.3399 -0.0397
  907MOL0     H25156   7.250   7.021   2.325 -1.3396  0.8821  2.7637
  907MOL0     H25157   7.326   7.037   2.476 -1.9217  1.9425 -1.1314
  907MOL0     H25158   7.535   6.934   2.381 -0.6236 -0.2207  2.6573
  907MOL0     H25159   7.392   6.834   2.420 -1.3652  0.5942  0.6033
  907MOL0     H25160   7.308   6.802   2.202  0.6367 -0.0565  0.2356
  907MOL0     H25161   7.483   6.772   2.194 -0.2346 -0.7731 -0.7521
  907MOL0     H25162   7.453   7.073   1.916  0.3314  0.5481  0.3580
  907MOL0     H25163   7.585   7.242   2.137  0.6644 -0.8041 -0.1427
  907MOL0     H25164   7.898   7.210   1.979  0.5916  0.9668  1.2165
  907MOL0     H25165   7.723   7.218   1.964 -0.0436  0.2026  0.3108
  907MOL0     H25166   7.830   7.365   1.988  4.7695 -0.0939  2.2727
  908MOL0     O25167   5.147   5.642   6.437  0.1739  0.3376  0.2127
  908MOL0     C25168   5.138   5.520   6.459 -0.6950 -0.1259  0.6532
  908MOL0     O25169   5.248   5.442   6.448 -0.4717  0.2547 -0.2862
  908MOL0     C25170   5.358   5.514   6.405 -0.3216 -0.4261  0.1975
  908MOL0     C25171   5.449   5.552   6.507 -0.4782  0.0175 -0.3281
  908MOL0     C25172   5.583   5.598   6.483  0.4587  0.9543  1.1319
  908MOL0     C25173   5.600   5.622   6.342 -0.9046 -0.6470  0.6123
  908MOL0     O25174   5.723   5.676   6.312  0.5044 -0.9040  0.0452
  908MOL0     C25175   5.814   5.622   6.214  0.4687  0.4186  0.5999
  908MOL0     C25176   5.936   5.564   6.296  0.3828  0.0209 -0.8583
  908MOL0     C25177   6.022   5.678   6.358 -0.2223  0.4941 -0.1169
  908MOL0     C25178   6.128   5.620   6.464  0.0502  0.1456 -0.3277
  908MOL0     C25179   6.188   5.729   6.557  0.9745  0.4083 -0.2752
  908MOL0     C25180   6.311   5.691   6.637  0.0425  0.2899  0.6740
  908MOL0     C25181   6.368   5.800   6.733 -0.0610  0.2839  0.3164
  908MOL0     C25182   6.476   5.740   6.814 -0.4972  0.3088  0.6560
  908MOL0     N25183   6.584   5.684   6.726  0.2049 -0.9034 -0.3838
  908MOL0     C25184   6.671   5.763   6.654 -0.1573 -0.2756 -0.6017
  908MOL0     C25185   6.753   5.669   6.603  0.0962  0.5675  0.3846
  908MOL0     C25186   6.887   5.695   6.531  0.7416  0.5208 -0.3781
  908MOL0     C25187   6.988   5.736   6.645  0.3870  0.3116 -0.2789
  908MOL0     C25188   7.127   5.800   6.599 -0.2898  0.0820  0.8188
  908MOL0     C25189   7.196   5.721   6.489  1.0256  0.0515  0.1017
  908MOL0     O25190   7.332   5.761   6.506 -0.3859  0.6968 -0.1329
  908MOL0     C25191   7.424   5.693   6.423  0.4305  0.5293  0.3156
  908MOL0     C25192   7.388   5.583   6.340 -0.4363  0.3627  0.2967
  908MOL0     C25193   7.487   5.508   6.268  0.3740  0.3660 -0.0529
  908MOL0     C25194   7.434   5.396   6.185  0.6604 -0.1283  1.0277
  908MOL0     C25195   7.623   5.550   6.254  0.1940 -0.9411  0.5845
  908MOL0     C25196   7.729   5.493   6.163 -0.2040  0.1298  0.2768
  908MOL0     O25197   7.826   5.574   6.118  0.1709 -0.0727  0.0472
  908MOL0     C25198   7.941   5.543   6.042  0.6715  0.1818  0.2547
  908MOL0     C25199   8.028   5.650   6.014 -0.7074  0.5703  0.1419
  908MOL0     C25200   8.149   5.631   5.937 -0.2143  0.7831 -0.1693
  908MOL0     C25201   8.186   5.503   5.906  0.2397 -0.7942  0.4565
  908MOL0     O25202   8.298   5.474   5.833 -0.7958  0.0678 -0.3638
  908MOL0     C25203   8.277   5.412   5.701  0.7934  0.7346 -0.5380
  908MOL0     C25204   8.299   5.506   5.579 -0.4833 -0.0212 -0.0767
  908MOL0     C25205   8.448   5.511   5.547 -0.0901  0.1859 -0.0684
  908MOL0     C25206   8.489   5.659   5.516  0.6688 -0.0474 -0.2810
  908MOL0     C25207   8.636   5.658   5.464 -0.9147 -0.5343  0.2952
  908MOL0     C25208   8.644   5.714   5.322 -0.8355 -0.2997  0.8535
  908MOL0     C25209   8.802   5.730   5.275 -0.1903 -0.0635 -0.0013
  908MOL0     C25210   8.800   5.812   5.149  0.4061  0.5429  0.4141
  908MOL0    Cl25211   8.969   5.835   5.104  0.1710 -0.1171 -0.0049
  908MOL0     C25212   8.106   5.400   5.944 -0.0844 -0.0933 -1.2803
  908MOL0     C25213   7.982   5.415   6.013  0.7073  0.4209  0.8875
  908MOL0     O25214   7.726   5.372   6.150 -0.6253 -0.2546  0.5719
  908MOL0     C25215   7.654   5.662   6.334  0.1357 -0.9241  0.0311
  908MOL0     C25216   7.561   5.729   6.418 -0.4310  0.2532  1.0468
  908MOL0     N25217   6.707   5.540   6.628  0.2662  0.3220  0.4722
  908MOL0     N25218   6.611   5.552   6.707  0.2144  0.1149 -0.0376
  908MOL0     C25219   5.508   5.601   6.247 -0.3913 -0.3809  0.7616
  908MOL0     C25220   5.389   5.528   6.270 -0.6049  0.1262 -0.5781
  908MOL0     C25221   5.010   5.458   6.494  0.2627  0.1686 -0.2216
  908MOL0     C25222   4.911   5.544   6.542  0.0575  0.0796  0.3007
  908MOL0     C25223   4.784   5.498   6.578 -0.0458 -0.7227  0.0558
  908MOL0     C25224   4.744   5.365   6.561 -0.3839  0.4525 -0.3439
  908MOL0     O25225   4.616   5.316   6.575 -0.0881 -0.3531 -0.4330
  908MOL0     C25226   4.515   5.415   6.582 -0.3550  0.2161  0.3535
  908MOL0     C25227   4.377   5.344   6.583  0.5779  0.1973  0.4395
  908MOL0     C25228   4.267   5.439   6.545  1.0269 -0.1209 -0.9209
  908MOL0     C25229   4.261   5.567   6.619 -0.4223 -0.2930 -0.1700
  908MOL0     C25230   4.141   5.654   6.604  0.0427 -0.5275  0.2143
  908MOL0     C25231   4.043   5.722   6.578  0.3680 -0.5184  0.2521
  908MOL0     C25232   4.840   5.276   6.522 -0.3806 -0.2192 -0.3596
  908MOL0     C25233   4.979   5.318   6.493 -0.6628 -0.1723  0.0472
  908MOL0     C25234   5.067   5.215   6.453 -0.4150 -0.6679 -0.6139
  908MOL0     H25235   5.418   5.535   6.610 -0.7357  1.6901 -0.0875
  908MOL0     H25236   5.667   5.603   6.552  0.7997  1.0442  0.7173
  908MOL0     H25237   5.861   5.701   6.154  1.4044  2.2690  3.5220
  908MOL0     H25238   5.767   5.550   6.147  1.1661  1.3224 -0.9259
  908MOL0     H25239   5.891   5.492   6.365  0.3167  0.2210 -0.6925
  908MOL0     H25240   6.003   5.504   6.233 -0.4631 -2.3992  0.4420
  908MOL0     H25241   6.065   5.744   6.282  1.0112 -0.9886 -0.7424
  908MOL0     H25242   5.959   5.736   6.426  0.8213 -0.4265  1.7237
  908MOL0     H25243   6.075   5.565   6.542 -1.1543  1.8987  0.1642
  908MOL0     H25244   6.199   5.554   6.414  1.9526  0.5782  1.6700
  908MOL0     H25245   6.113   5.760   6.630 -0.3747 -1.8632 -0.5989
  908MOL0     H25246   6.215   5.813   6.493  1.5967  1.8917  1.8074
  908MOL0     H25247   6.302   5.591   6.681 -0.3460  0.6064  1.3255
  908MOL0     H25248   6.381   5.682   6.553 -1.4822 -1.9175 -0.4288
  908MOL0     H25249   6.293   5.827   6.808 -0.0439  2.3731 -0.3377
  908MOL0     H25250   6.411   5.886   6.680 -0.4309  0.0976 -0.2862
  908MOL0     H25251   6.525   5.814   6.878  2.5266  0.6969 -1.8965
  908MOL0     H25252   6.434   5.662   6.878  1.8872  0.6355  2.7513
  908MOL0     H25253   6.700   5.868   6.652  2.3621 -0.9347 -1.3880
  908MOL0     H25254   6.888   5.772   6.454  1.5139  1.1907  0.2726
  908MOL0     H25255   6.917   5.610   6.470  1.7246  1.1297 -0.7700
  908MOL0     H25256   6.945   5.799   6.723  0.5406 -0.2734  0.2796
  908MOL0     H25257   7.013   5.642   6.695 -0.4565 -0.9737 -2.1265
  908MOL0     H25258   7.111   5.902   6.561  1.0507 -0.5429 -1.6829
  908MOL0     H25259   7.186   5.798   6.691  1.5582 -2.9920 -0.2733
  908MOL0     H25260   7.196   5.612   6.499  1.4691 -0.0635 -0.9977
  908MOL0     H25261   7.156   5.729   6.388 -2.0335 -3.8498  0.7583
  908MOL0     H25262   7.285   5.549   6.332 -0.3239  0.2263 -0.7233
  908MOL0     H25263   7.325   5.400   6.195  0.5654 -1.6593  0.8595
  908MOL0     H25264   7.476   5.302   6.221  1.9522 -0.0305 -0.1245
  908MOL0     H25265   7.448   5.411   6.077  2.6230 -0.5455  1.1869
  908MOL0     H25266   8.002   5.748   6.052 -1.9689  0.5067 -0.4851
  908MOL0     H25267   8.208   5.714   5.899  0.1259  0.7292  0.2437
  908MOL0     H25268   8.357   5.337   5.702 -0.6795 -1.0016  2.1865
  908MOL0     H25269   8.178   5.364   5.696  2.0181 -2.0314 -0.0604
  908MOL0     H25270   8.245   5.452   5.500 -1.4411  1.8165 -0.7470
  908MOL0     H25271   8.254   5.603   5.605 -1.2899 -1.0151  2.5042
  908MOL0     H25272   8.470   5.449   5.460 -1.4139 -0.1581 -0.1866
  908MOL0     H25273   8.503   5.479   5.635 -2.1487  0.9860  1.5987
  908MOL0     H25274   8.473   5.720   5.605 -0.8144 -0.7393 -0.0326
  908MOL0     H25275   8.426   5.705   5.439 -1.2890 -1.0881  0.6205
  908MOL0     H25276   8.709   5.718   5.520 -1.5558  1.0736 -0.5147
  908MOL0     H25277   8.671   5.555   5.455 -2.1805 -0.8932 -0.8198
  908MOL0     H25278   8.589   5.808   5.326  0.2348  0.3230  1.2335
  908MOL0     H25279   8.588   5.644   5.260 -0.9278  1.4675 -1.1500
  908MOL0     H25280   8.846   5.635   5.247 -0.3759 -1.3539  3.5189
  908MOL0     H25281   8.859   5.767   5.361  0.2367  1.3000 -0.8388
  908MOL0     H25282   8.748   5.906   5.171  0.7974  0.4775  1.7138
  908MOL0     H25283   8.752   5.760   5.065  2.2924  0.4250 -0.6483
  908MOL0     H25284   8.145   5.302   5.920 -1.9126 -0.4448 -3.1333
  908MOL0     H25285   7.925   5.324   6.025 -0.2113  0.8251 -0.2533
  908MOL0     H25286   7.755   5.701   6.333 -0.8299  1.8208 -1.8888
  908MOL0     H25287   7.600   5.813   6.475  1.4289  0.5814 -0.5809
  908MOL0     H25288   5.515   5.621   6.141  0.1824 -2.9216  0.2597
  908MOL0     H25289   5.326   5.484   6.194 -0.1702 -0.6544 -0.4956
  908MOL0     H25290   4.915   5.652   6.547  1.0071  0.0136  1.3758
  908MOL0     H25291   4.710   5.572   6.607  0.5398  0.0691 -0.3919
  908MOL0     H25292   4.532   5.479   6.669  0.0965  0.6082 -0.0150
  908MOL0     H25293   4.503   5.478   6.493 -1.1440 -0.3477  0.0478
  908MOL0     H25294   4.363   5.306   6.685 -0.4941  0.5170  0.4189
  908MOL0     H25295   4.381   5.257   6.516  0.0911 -1.2012  2.1621
  908MOL0     H25296   4.271   5.451   6.436  1.0536 -0.3748 -0.9493
  908MOL0     H25297   4.173   5.385   6.560  1.5915 -1.0848 -0.7715
  908MOL0     H25298   4.341   5.632   6.583 -1.9441  1.0264 -1.3025
  908MOL0     H25299   4.272   5.549   6.726 -0.6775  2.6359  0.4219
  908MOL0     H25300   3.947   5.768   6.569  0.2037 -0.7513  0.7893
  908MOL0     H25301   4.811   5.174   6.497  0.3506 -0.3462 -0.7422
  908MOL0     H25302   5.118   5.246   6.362  0.4178  0.6159  0.2574
  908MOL0     H25303   5.130   5.200   6.541 -1.4296 -2.6291 -0.1465
  908MOL0     H25304   5.017   5.119   6.437 -1.1736 -0.0818 -1.9721
  909MOL0     O25305   7.369  11.214   6.647  0.3522  0.4852 -0.7131
  909MOL0     C25306   7.409  11.164   6.542  0.7569  0.0218  0.0974
  909MOL0     O25307   7.541  11.165   6.508  0.0934  0.7084  0.1768
  909MOL0     C25308   7.628  11.194   6.611  0.1896 -0.1503  0.5387
  909MOL0     C25309   7.716  11.306   6.600  0.7231  0.4042  0.0415
  909MOL0     C25310   7.807  11.334   6.687 -0.9702 -0.1249  0.3406
  909MOL0     C25311   7.823  11.250   6.807  0.8151 -0.0451  0.3674
  909MOL0     O25312   7.911  11.287   6.904  0.4963  0.1825 -1.2850
  909MOL0     C25313   7.986  11.187   6.975  0.1223  0.4391  0.4492
  909MOL0     C25314   8.094  11.235   7.066  0.2170 -0.5226 -0.1577
  909MOL0     C25315   8.221  11.258   6.984  0.6265  1.0161  0.7024
  909MOL0     C25316   8.310  11.135   6.953  0.1799 -1.2519 -0.9034
  909MOL0     C25317   8.400  11.156   6.832 -0.0955  0.0014 -0.2883
  909MOL0     C25318   8.489  11.034   6.809 -1.3062 -1.0881  0.9194
  909MOL0     C25319   8.564  11.022   6.676  0.5431 -0.3350 -0.6200
  909MOL0     C25320   8.687  11.109   6.666  0.0710  0.3523  0.0111
  909MOL0     N25321   8.736  11.107   6.529 -0.2566  0.1874 -0.0330
  909MOL0     C25322   8.834  11.018   6.486 -0.8093 -0.0231  0.9537
  909MOL0     C25323   8.876  11.071   6.370  0.4556 -0.5810 -0.5798
  909MOL0     C25324   8.990  11.034   6.273 -0.2587  0.8335 -0.7881
  909MOL0     C25325   8.936  11.019   6.129 -0.2005  0.3383 -0.2495
  909MOL0     C25326   8.954  11.154   6.054  1.0416  0.0725 -0.3542
  909MOL0     C25327   9.093  11.216   6.054  0.1915  0.5085 -0.9695
  909MOL0     O25328   9.192  11.128   6.004 -0.0914 -0.2996 -0.2612
  909MOL0     C25329   9.324  11.172   5.985  0.1673 -0.0341  0.1250
  909MOL0     C25330   9.359  11.305   5.999 -0.3441  0.3104 -0.0299
  909MOL0     C25331   9.492  11.356   5.988 -0.4939  1.0251 -0.7451
  909MOL0     C25332   9.522  11.502   6.006 -0.0964  0.0912  0.0201
  909MOL0     C25333   9.594  11.254   5.961  0.0878  0.8350 -0.2609
  909MOL0     C25334   9.738  11.281   5.953 -0.4516  0.2603  1.0086
  909MOL0     O25335   9.784  11.411   5.927  0.1364 -0.4404  0.3350
  909MOL0     C25336   9.913  11.452   5.917  0.2833 -0.0028  0.2582
  909MOL0     C25337  10.031  11.395   5.963  0.1749  0.7121 -0.0946
  909MOL0     C25338  10.161  11.451   5.945 -0.3020 -1.3779  0.2026
  909MOL0     C25339  10.178  11.568   5.874  0.6934  0.0830 -0.2701
  909MOL0     O25340  10.301  11.618   5.874  0.1042  0.0659 -0.2259
  909MOL0     C25341  10.318  11.752   5.915 -0.5334  0.0905  0.5840
  909MOL0     C25342  10.452  11.796   5.953  0.3903 -0.0141  0.6995
  909MOL0     C25343  10.568  11.721   5.866  0.9284 -0.0123 -0.4287
  909MOL0     C25344  10.705  11.779   5.921  0.0679  0.6544  0.1570
  909MOL0     C25345  10.830  11.737   5.851  1.4416 -0.7392  0.2145
  909MOL0     C25346  10.953  11.817   5.912  0.6667  0.6002 -0.0512
  909MOL0     C25347  11.081  11.795   5.830  0.5042  0.5464 -0.4295
  909MOL0     C25348  11.181  11.909   5.853 -0.4704  0.2273 -0.6062
  909MOL0    Cl25349  11.343  11.854   5.788 -0.4819  0.0183 -0.0728
  909MOL0     C25350  10.062  11.622   5.821 -0.6793  0.2834  0.2077
  909MOL0     C25351   9.933  11.568   5.842  0.7698  0.4735  0.2317
  909MOL0     O25352   9.809  11.183   5.980  0.5229  0.1867 -1.2562
  909MOL0     C25353   9.552  11.118   5.950 -0.8477  0.0167  0.7937
  909MOL0     C25354   9.421  11.080   5.961  0.7077  0.4122  0.5184
  909MOL0     N25355   8.803  11.187   6.349  0.1049  0.0795  0.6923
  909MOL0     N25356   8.728  11.215   6.444  0.6565  0.0091 -0.0066
  909MOL0     C25357   7.737  11.135   6.818 -0.5149 -0.4961 -0.5696
  909MOL0     C25358   7.641  11.112   6.722 -0.3053  0.5313  0.6874
  909MOL0     C25359   7.300  11.129   6.444  0.0699 -0.1524 -0.7104
  909MOL0     C25360   7.350  11.065   6.321  0.0411 -0.0922 -0.1077
  909MOL0     C25361   7.267  11.004   6.229  0.7840  0.9829  0.2154
  909MOL0     C25362   7.132  11.036   6.237  0.6474  0.7850 -0.0452
  909MOL0     O25363   7.054  10.977   6.140  0.6813  0.3233  0.1049
  909MOL0     C25364   7.002  11.060   6.033  0.4376 -0.0604  0.1257
  909MOL0     C25365   6.852  11.095   6.058  0.3977  0.4260  0.0365
  909MOL0     C25366   6.765  10.960   6.056  0.2056  0.1787 -0.8198
  909MOL0     C25367   6.637  10.987   5.978 -0.7310 -0.6348  0.1534
  909MOL0     C25368   6.654  11.015   5.837  0.4046 -0.1162 -0.5057
  909MOL0     C25369   6.661  11.034   5.720 -0.4727 -0.2665 -0.0706
  909MOL0     C25370   7.079  11.103   6.348  0.2685  0.1011  0.5828
  909MOL0     C25371   7.156  11.151   6.458 -0.9461 -0.6548 -0.0808
  909MOL0     C25372   7.092  11.228   6.574  0.5489  0.8248  0.1832
  909MOL0     H25373   7.717  11.366   6.510 -1.8170 -0.6453 -0.7881
  909MOL0     H25374   7.871  11.421   6.673  0.2238 -1.0986 -0.5840
  909MOL0     H25375   8.031  11.120   6.901 -0.6436  1.8535 -1.3955
  909MOL0     H25376   7.920  11.123   7.036  1.8022 -1.1552  0.6854
  909MOL0     H25377   8.069  11.329   7.116  3.2165 -0.3898  1.3452
  909MOL0     H25378   8.132  11.160   7.136  0.1701 -0.2411  0.1715
  909MOL0     H25379   8.196  11.302   6.886 -1.5893 -1.8815 -0.1871
  909MOL0     H25380   8.292  11.328   7.030  1.6492  1.4951 -1.4781
  909MOL0     H25381   8.373  11.119   7.040  1.8830  0.4872 -1.7423
  909MOL0     H25382   8.258  11.041   6.932 -1.1676  0.0586 -4.1494
  909MOL0     H25383   8.464  11.243   6.847  0.5100 -0.2864 -1.1285
  909MOL0     H25384   8.337  11.171   6.744 -1.8846 -1.5189  0.6713
  909MOL0     H25385   8.562  11.034   6.890 -1.9706 -1.6155  1.5230
  909MOL0     H25386   8.434  10.939   6.813 -2.3607 -0.5638 -0.3208
  909MOL0     H25387   8.499  11.019   6.588  1.5554 -1.9742 -1.3842
  909MOL0     H25388   8.601  10.919   6.673 -0.0631 -0.5448 -2.9552
  909MOL0     H25389   8.649  11.211   6.683 -1.5439  0.2579 -2.4087
  909MOL0     H25390   8.753  11.078   6.747 -0.9819 -0.4013  0.6045
  909MOL0     H25391   8.868  10.924   6.526  2.8474  1.2751  1.2614
  909MOL0     H25392   9.036  10.938   6.299 -1.6848 -0.4378 -2.6745
  909MOL0     H25393   9.070  11.109   6.279  0.8735 -0.4671  1.9536
  909MOL0     H25394   8.992  10.949   6.066 -2.5229  0.9232 -3.1639
  909MOL0     H25395   8.831  10.990   6.132 -0.4321  1.1809 -0.0391
  909MOL0     H25396   8.934  11.138   5.948  1.8966 -0.2787 -0.4673
  909MOL0     H25397   8.886  11.231   6.091  0.4847  0.1805 -1.5537
  909MOL0     H25398   9.093  11.301   5.986 -2.4727  0.6172 -0.9299
  909MOL0     H25399   9.117  11.254   6.153 -0.1542  1.1627 -1.1316
  909MOL0     H25400   9.280  11.380   6.007 -1.4695 -0.5999 -1.9445
  909MOL0     H25401   9.599  11.525   6.080  0.8383 -1.8280 -0.3086
  909MOL0     H25402   9.433  11.550   6.048 -0.2177 -1.2199  1.3089
  909MOL0     H25403   9.550  11.556   5.915  3.4635 -0.6599  0.5295
  909MOL0     H25404  10.025  11.298   6.012 -0.5337 -0.0476 -1.6249
  909MOL0     H25405  10.248  11.405   5.991  1.2039 -1.2596 -2.3743
  909MOL0     H25406  10.269  11.815   5.841  2.1747  3.5807  1.4266
  909MOL0     H25407  10.257  11.753   6.006 -1.0483 -0.0722  0.2398
  909MOL0     H25408  10.445  11.904   5.937  0.6296 -0.3544 -2.1654
  909MOL0     H25409  10.469  11.767   6.057 -1.2645 -0.7000  0.7974
  909MOL0     H25410  10.542  11.736   5.761  0.5756  1.4298 -0.1587
  909MOL0     H25411  10.576  11.614   5.888  1.1322 -0.1236 -1.0160
  909MOL0     H25412  10.721  11.749   6.025 -0.9343  0.6639  0.3269
  909MOL0     H25413  10.697  11.887   5.912 -1.7815  0.3964 -2.5761
  909MOL0     H25414  10.857  11.631   5.861  2.5703 -0.4816  0.0427
  909MOL0     H25415  10.832  11.743   5.741 -2.2942 -1.8766 -0.0545
  909MOL0     H25416  10.970  11.781   6.014  0.9540  0.4693 -0.1432
  909MOL0     H25417  10.923  11.921   5.928  0.2351  0.4381  0.2015
  909MOL0     H25418  11.053  11.806   5.725  1.1316  0.5052 -0.6047
  909MOL0     H25419  11.117  11.693   5.843  0.3651  0.6157  0.5968
  909MOL0     H25420  11.191  11.936   5.958 -1.5005 -3.9616  0.7592
  909MOL0     H25421  11.148  11.998   5.799 -3.4918  1.1630  2.4343
  909MOL0     H25422  10.074  11.714   5.764 -0.1287 -1.0745 -1.9776
  909MOL0     H25423   9.849  11.619   5.795 -0.0064 -0.5006  0.5279
  909MOL0     H25424   9.625  11.040   5.933  0.0170  1.0547 -0.3713
  909MOL0     H25425   9.377  10.981   5.947 -0.9525  1.4454 -2.4382
  909MOL0     H25426   7.741  11.066   6.902 -1.9999 -1.0245 -0.8940
  909MOL0     H25427   7.565  11.039   6.747 -0.1991  0.8899  2.1581
  909MOL0     H25428   7.458  11.051   6.317  0.0359 -1.7300  2.4899
  909MOL0     H25429   7.308  10.948   6.145  0.7354 -1.6760  1.8500
  909MOL0     H25430   7.066  11.148   6.025 -0.2788  0.4444 -0.1651
  909MOL0     H25431   7.005  11.006   5.938  0.6325  0.6699 -0.2943
  909MOL0     H25432   6.816  11.171   5.988 -0.2352  1.5677  1.5337
  909MOL0     H25433   6.842  11.137   6.159  1.1882 -0.2620  0.4103
  909MOL0     H25434   6.822  10.870   6.031  0.6837  0.3283 -0.3061
  909MOL0     H25435   6.727  10.933   6.155  0.3423  0.5796 -0.6567
  909MOL0     H25436   6.590  11.077   6.018  2.3852  0.7541  1.0244
  909MOL0     H25437   6.567  10.903   5.986 -0.0497 -1.2894 -0.6499
  909MOL0     H25438   6.687  11.055   5.618  0.9015 -2.8179 -0.3215
  909MOL0     H25439   6.977  11.134   6.332  1.3352  3.0819 -1.4092
  909MOL0     H25440   7.141  11.326   6.577 -1.0050  1.6314  2.7749
  909MOL0     H25441   6.983  11.237   6.569  0.4360 -0.0715  0.7432
  909MOL0     H25442   7.113  11.177   6.668  1.3023 -1.0170 -0.9256
  910MOL0     O25443   8.358   1.170   3.065 -0.0753  0.2616 -0.2167
  910MOL0     C25444   8.274   1.194   3.151  0.2779  0.1786 -0.7566
  910MOL0     O25445   8.297   1.180   3.285 -0.4895  0.2906  0.0686
  910MOL0     C25446   8.400   1.127   3.342  0.4613  0.0281  0.2923
  910MOL0     C25447   8.510   1.067   3.281  0.6147  0.9519  1.1474
  910MOL0     C25448   8.622   1.012   3.356  0.5480  0.0794 -0.8883
  910MOL0     C25449   8.629   1.029   3.498 -0.2183  0.6403 -0.6167
  910MOL0     O25450   8.736   0.969   3.563 -0.3528 -0.4540 -0.2507
  910MOL0     C25451   8.716   0.947   3.703 -0.5302  0.3180 -0.6319
  910MOL0     C25452   8.841   0.878   3.755 -0.8129  0.3546  0.0484
  910MOL0     C25453   8.957   0.981   3.765  1.1812  0.6712 -0.0391
  910MOL0     C25454   9.086   0.902   3.750 -0.5678 -1.4055 -0.3038
  910MOL0     C25455   9.212   1.000   3.766  1.2946 -0.2905  0.1390
  910MOL0     C25456   9.343   0.916   3.779  1.0915 -0.4463 -0.9136
  910MOL0     C25457   9.381   0.832   3.655  0.2223  0.2884  0.9039
  910MOL0     C25458   9.421   0.906   3.532  0.1749 -1.0528 -0.1226
  910MOL0     N25459   9.517   1.013   3.555  0.0875  0.7169  0.0313
  910MOL0     C25460   9.495   1.147   3.532  0.2412  0.1516 -0.6974
  910MOL0     C25461   9.606   1.214   3.573  0.0667  0.0437 -0.4627
  910MOL0     C25462   9.600   1.367   3.568  0.0629  0.0985 -0.1363
  910MOL0     C25463   9.741   1.431   3.579  0.7149  0.3878 -0.0724
  910MOL0     C25464   9.790   1.434   3.724  0.8273 -0.0211 -0.2456
  910MOL0     C25465   9.916   1.519   3.743 -0.1999  0.2184  0.0413
  910MOL0     O25466  10.003   1.502   3.625 -0.1976  0.0170  0.0736
  910MOL0     C25467  10.101   1.407   3.651 -0.3183  0.3112  0.5425
  910MOL0     C25468  10.068   1.270   3.647 -0.2177  0.0439 -0.1888
  910MOL0     C25469  10.166   1.176   3.690 -0.3000  0.9558 -0.2021
  910MOL0     C25470  10.127   1.029   3.674  0.0049  0.7805 -0.4311
  910MOL0     C25471  10.302   1.212   3.739  0.4247  1.0247 -0.6315
  910MOL0     C25472  10.405   1.118   3.771 -0.5463  0.7262  1.1512
  910MOL0     O25473  10.454   1.114   3.897  0.3318  0.7178  0.6119
  910MOL0     C25474  10.573   1.061   3.924  0.3751 -0.1253  0.9587
  910MOL0     C25475  10.683   1.093   3.844 -0.0849  0.6279 -0.1146
  910MOL0     C25476  10.815   1.045   3.873 -0.0336  0.7990  0.6526
  910MOL0     C25477  10.836   0.963   3.982  0.4346 -0.2955  0.3403
  910MOL0     O25478  10.964   0.928   3.999 -0.6634  0.6657  0.0248
  910MOL0     C25479  11.007   0.890   4.133 -0.6107 -0.1176  0.4623
  910MOL0     C25480  11.153   0.865   4.128  0.0840  0.2149 -0.3219
  910MOL0     C25481  11.229   0.994   4.142 -0.3474 -0.2606  1.0473
  910MOL0     C25482  11.385   0.987   4.152  0.8967  0.1473  0.4763
  910MOL0     C25483  11.435   1.118   4.219 -0.3267 -0.6759 -0.1333
  910MOL0     C25484  11.402   1.247   4.129  0.3436  0.0540  0.9124
  910MOL0     C25485  11.464   1.373   4.185 -0.2956  0.1375 -0.3636
  910MOL0     C25486  11.433   1.488   4.091 -0.1553  0.1409 -0.1599
  910MOL0    Cl25487  11.258   1.524   4.097  0.4984  0.0142  0.5898
  910MOL0     C25488  10.721   0.925   4.061 -0.1742  0.4011  0.2245
  910MOL0     C25489  10.593   0.965   4.025 -0.2639  0.7045  0.6316
  910MOL0     O25490  10.442   1.045   3.678 -0.1533 -0.0454  0.6855
  910MOL0     C25491  10.322   1.346   3.736  0.2115  0.0806 -0.4530
  910MOL0     C25492  10.227   1.444   3.694  0.2520  0.3411  0.2072
  910MOL0     N25493   9.699   1.115   3.614 -0.4449 -0.0504  0.2431
  910MOL0     N25494   9.641   0.992   3.603 -0.4769  0.0398  0.5614
  910MOL0     C25495   8.517   1.089   3.553 -0.0625 -0.3598 -0.3189
  910MOL0     C25496   8.406   1.138   3.482  0.0804 -0.0035 -0.4479
  910MOL0     C25497   8.144   1.252   3.127  0.1001 -0.0695 -0.0439
  910MOL0     C25498   8.034   1.227   3.223  0.3028  0.2633 -0.5472
  910MOL0     C25499   7.909   1.281   3.189 -0.3015 -0.7765 -0.2423
  910MOL0     C25500   7.877   1.357   3.077  0.7980  0.2359 -0.1149
  910MOL0     O25501   7.753   1.414   3.052  0.0316  0.6909 -0.6299
  910MOL0     C25502   7.664   1.449   3.161 -0.4141  0.4035 -0.0628
  910MOL0     C25503   7.723   1.555   3.255 -0.2362  0.1004 -0.6767
  910MOL0     C25504   7.635   1.581   3.373 -0.3037  0.0939  0.2140
  910MOL0     C25505   7.714   1.647   3.484 -0.1682 -1.0380  1.2399
  910MOL0     C25506   7.749   1.787   3.432 -0.1156  0.2412 -0.8660
  910MOL0     C25507   7.770   1.904   3.395  0.4935 -0.1003 -0.5938
  910MOL0     C25508   7.977   1.381   2.986 -0.3055  0.1013 -0.0231
  910MOL0     C25509   8.111   1.327   3.005 -0.9377  0.9207 -0.0584
  910MOL0     C25510   8.214   1.343   2.889 -0.1488 -0.2652  0.0305
  910MOL0     H25511   8.501   1.040   3.176 -1.9048  0.1095  1.5223
  910MOL0     H25512   8.699   0.952   3.309  0.0564 -1.5883  0.3171
  910MOL0     H25513   8.632   0.877   3.711 -0.5744  0.2292 -1.6625
  910MOL0     H25514   8.705   1.034   3.768  1.2851 -1.5437  2.3764
  910MOL0     H25515   8.825   0.831   3.852 -0.4904 -1.5851 -0.7848
  910MOL0     H25516   8.873   0.799   3.687 -0.2525  0.7320 -0.1392
  910MOL0     H25517   8.943   1.054   3.685  1.1748 -1.8650 -2.5174
  910MOL0     H25518   8.953   1.032   3.862 -0.2342 -0.8009  0.7370
  910MOL0     H25519   9.099   0.824   3.825  0.3683 -1.1878 -0.2259
  910MOL0     H25520   9.097   0.863   3.648 -0.2266 -2.9345  0.2823
  910MOL0     H25521   9.204   1.070   3.850 -1.6855 -0.2044 -0.0952
  910MOL0     H25522   9.224   1.055   3.672 -0.9098 -0.5500 -0.3470
  910MOL0     H25523   9.427   0.984   3.800  0.6748 -0.1968 -0.0191
  910MOL0     H25524   9.333   0.855   3.869  0.8893  1.3055  0.3060
  910MOL0     H25525   9.293   0.771   3.631 -0.8376  2.3502 -0.6881
  910MOL0     H25526   9.468   0.771   3.683  0.0877 -0.6877 -0.6995
  910MOL0     H25527   9.468   0.851   3.450  0.8957  2.5911 -2.3988
  910MOL0     H25528   9.326   0.941   3.491  1.2435 -0.3322 -2.0915
  910MOL0     H25529   9.407   1.203   3.503  0.4750  1.3867  0.8206
  910MOL0     H25530   9.533   1.414   3.641 -0.5758 -3.5640  1.8643
  910MOL0     H25531   9.562   1.387   3.467 -0.1399 -1.5354 -0.4146
  910MOL0     H25532   9.810   1.377   3.514  0.6638  1.3451 -0.9491
  910MOL0     H25533   9.750   1.533   3.541 -1.3039  0.1095 -1.4788
  910MOL0     H25534   9.719   1.483   3.792  0.6306  0.4789 -0.8013
  910MOL0     H25535   9.810   1.328   3.740  2.2713 -0.0408 -1.8518
  910MOL0     H25536   9.892   1.623   3.769 -3.1880 -0.1845 -0.6920
  910MOL0     H25537   9.963   1.475   3.831  1.4608 -2.2878 -1.9527
  910MOL0     H25538   9.968   1.242   3.618 -1.2776  0.9157  2.3163
  910MOL0     H25539  10.203   0.957   3.641  0.6047  0.1537  2.0999
  910MOL0     H25540  10.044   1.016   3.604  1.4742  0.1575 -2.1336
  910MOL0     H25541  10.100   1.002   3.776  1.2242 -2.1002 -0.7759
  910MOL0     H25542  10.673   1.175   3.774 -0.5996  1.6576  1.1137
  910MOL0     H25543  10.896   1.082   3.810 -0.6647  0.6765 -0.2542
  910MOL0     H25544  10.970   0.974   4.193 -1.0768 -0.3383  0.4814
  910MOL0     H25545  10.956   0.804   4.176  2.4820 -1.0931  2.5117
  910MOL0     H25546  11.174   0.799   4.213 -3.2174 -3.3928 -1.9938
  910MOL0     H25547  11.183   0.815   4.035 -0.2071  2.1896 -1.5324
  910MOL0     H25548  11.204   1.042   4.237 -0.5736  1.3460  0.2138
  910MOL0     H25549  11.203   1.050   4.051 -1.5121 -4.3950 -1.4050
  910MOL0     H25550  11.426   0.974   4.052  0.4689 -1.8880  0.5134
  910MOL0     H25551  11.415   0.909   4.223  0.5789  1.8296  2.5560
  910MOL0     H25552  11.401   1.135   4.322 -0.3765 -1.1287 -0.0720
  910MOL0     H25553  11.542   1.120   4.243 -0.6189 -2.3914  1.5209
  910MOL0     H25554  11.294   1.266   4.134  0.4955  1.1854  0.0647
  910MOL0     H25555  11.434   1.234   4.026 -0.7685  1.3014  0.3787
  910MOL0     H25556  11.572   1.361   4.194 -0.4894 -0.5155  1.6582
  910MOL0     H25557  11.417   1.396   4.281  0.2434  1.5190 -0.4062
  910MOL0     H25558  11.471   1.481   3.989 -0.7542 -1.3350 -0.3037
  910MOL0     H25559  11.475   1.583   4.127 -2.6820  0.9200  0.9472
  910MOL0     H25560  10.736   0.864   4.149 -1.6776 -0.7416 -0.2835
  910MOL0     H25561  10.505   0.936   4.081 -0.9274 -0.2643 -0.8394
  910MOL0     H25562  10.418   1.390   3.764 -0.2793  0.7386  0.2329
  910MOL0     H25563  10.243   1.549   3.712 -0.8339  0.4509  0.6162
  910MOL0     H25564   8.514   1.099   3.662  0.4379 -0.6496 -0.2741
  910MOL0     H25565   8.319   1.168   3.538 -0.6800 -1.2475 -0.9194
  910MOL0     H25566   8.057   1.162   3.308 -3.0680 -1.3565 -0.6667
  910MOL0     H25567   7.827   1.246   3.251 -1.6991 -1.5502 -2.3845
  910MOL0     H25568   7.567   1.484   3.123  0.3808  2.0426 -0.6718
  910MOL0     H25569   7.646   1.360   3.223 -0.1260  0.0534 -0.4833
  910MOL0     H25570   7.758   1.641   3.197 -1.9667  0.0003 -1.9233
  910MOL0     H25571   7.811   1.515   3.307 -0.9534  0.5232  0.9096
  910MOL0     H25572   7.546   1.633   3.335  0.5055 -0.8654 -3.4536
  910MOL0     H25573   7.602   1.484   3.409  0.2243 -0.5433 -0.9578
  910MOL0     H25574   7.803   1.587   3.507  0.8313  0.1953  0.6551
  910MOL0     H25575   7.644   1.658   3.567 -3.6479 -3.0238 -1.1704
  910MOL0     H25576   7.791   2.005   3.368  1.0644 -0.3589 -1.1272
  910MOL0     H25577   7.956   1.440   2.897  2.5167 -0.2499 -1.0257
  910MOL0     H25578   8.248   1.247   2.848 -2.7775 -0.4268 -1.9837
  910MOL0     H25579   8.158   1.391   2.809 -1.0902  1.6662  1.7733
  910MOL0     H25580   8.297   1.405   2.925 -0.0492 -0.1521 -0.3895
  911MOL0     O25581   8.244   9.147   9.644  0.6398 -0.4750  0.0367
  911MOL0     C25582   8.153   9.107   9.721  0.6888 -0.0203 -0.0178
  911MOL0     O25583   8.164   9.089   9.858 -0.1556  0.2729 -0.7966
  911MOL0     C25584   8.288   9.092   9.908 -0.1494  0.0215  1.1595
  911MOL0     C25585   8.369   8.984   9.876 -0.1777 -0.3205 -0.8639
  911MOL0     C25586   8.508   8.978   9.896 -0.9436 -0.7958  0.9842
  911MOL0     C25587   8.568   9.086   9.954 -0.3067 -0.5463  0.4022
  911MOL0     O25588   8.705   9.062   9.974 -0.1009 -0.1487 -0.1881
  911MOL0     C25589   8.773   9.142  10.068 -0.0711 -0.7015 -0.8452
  911MOL0     C25590   8.727   9.138  10.215  0.3774  0.3772  0.6168
  911MOL0     C25591   8.835   9.123  10.322  0.3550  0.0917 -0.6961
  911MOL0     C25592   8.768   9.118  10.457 -0.4473 -0.2772 -0.1018
  911MOL0     C25593   8.870   9.126  10.574  0.0629  1.0734  0.2834
  911MOL0     C25594   8.844   9.266  10.647 -0.5071  0.5880 -0.1985
  911MOL0     C25595   8.941   9.282  10.770 -0.1875 -0.6239 -0.1549
  911MOL0     C25596   8.930   9.173  10.875  0.0614  0.2225 -0.0026
  911MOL0     N25597   9.017   9.198  10.994 -0.2063 -0.3976  0.1966
  911MOL0     C25598   9.029   9.313  11.066 -0.2302 -0.2315 -0.1050
  911MOL0     C25599   9.134   9.283  11.156  0.4064  0.4570  0.1779
  911MOL0     C25600   9.192   9.377  11.265  0.0758 -0.2775  0.1557
  911MOL0     C25601   9.341   9.343  11.299  0.7806 -0.1195  0.0599
  911MOL0     C25602   9.402   9.436  11.410 -0.1881 -0.1016  0.7401
  911MOL0     C25603   9.555   9.453  11.376  0.8239  0.4343  0.4371
  911MOL0     O25604   9.605   9.538  11.477 -0.6242  0.2732 -0.1464
  911MOL0     C25605   9.738   9.523  11.503  0.2267 -0.9176  0.0259
  911MOL0     C25606   9.776   9.491  11.637  0.0760 -0.2512  0.2288
  911MOL0     C25607   9.914   9.461  11.658  0.2694  0.2277 -0.2171
  911MOL0     C25608   9.951   9.386  11.784  1.0314 -0.5012 -0.6628
  911MOL0     C25609  10.009   9.491  11.559  0.0435 -0.5744  0.2180
  911MOL0     C25610  10.156   9.470  11.578 -0.4011  0.4030 -0.3334
  911MOL0     O25611  10.212   9.513  11.691 -0.9292 -0.0672  0.5203
  911MOL0     C25612  10.348   9.476  11.700 -0.6826 -0.7276  0.1448
  911MOL0     C25613  10.444   9.575  11.673  0.0440  0.6462 -0.6857
  911MOL0     C25614  10.581   9.543  11.688 -0.4384  0.5618  0.4019
  911MOL0     C25615  10.619   9.409  11.723 -0.1716 -0.0841  0.2801
  911MOL0     O25616  10.754   9.375  11.740 -0.1424 -0.2456  0.1179
  911MOL0     C25617  10.794   9.274  11.825 -0.0954  0.2283  0.1411
  911MOL0     C25618  10.943   9.287  11.844 -0.1996  0.3447 -0.9113
  911MOL0     C25619  11.028   9.264  11.719  0.1975 -1.3931 -0.0072
  911MOL0     C25620  11.082   9.393  11.652  1.3209  0.0305 -0.0955
  911MOL0     C25621  11.206   9.377  11.556  0.1827  0.2979 -0.3066
  911MOL0     C25622  11.187   9.261  11.461  0.0390  0.1367  0.7279
  911MOL0     C25623  11.307   9.224  11.365  0.4400 -0.0672  1.2563
  911MOL0     C25624  11.322   9.316  11.243  0.5897 -0.2566  0.1288
  911MOL0    Cl25625  11.487   9.296  11.173  0.1274 -0.2023 -0.0513
  911MOL0     C25626  10.520   9.313  11.732  0.3738 -0.4460 -0.5850
  911MOL0     C25627  10.386   9.347  11.731 -0.8044  0.8334  0.3921
  911MOL0     O25628  10.214   9.412  11.486  0.0401  0.0448  0.3055
  911MOL0     C25629   9.967   9.545  11.437  0.9788  0.7102 -0.2129
  911MOL0     C25630   9.835   9.552  11.411 -0.2347 -0.2150 -0.8217
  911MOL0     N25631   9.165   9.146  11.136 -0.5632  0.2216  0.3131
  911MOL0     N25632   9.098   9.101  11.037 -0.2438 -0.3930 -0.3978
  911MOL0     C25633   8.488   9.200   9.991  0.1282 -0.2610  0.0680
  911MOL0     C25634   8.354   9.207   9.958 -0.3592 -0.4161 -0.4981
  911MOL0     C25635   8.018   9.100   9.668  0.7513 -0.4117 -0.3867
  911MOL0     C25636   7.965   9.199   9.580  0.0655 -0.2880 -0.4731
  911MOL0     C25637   7.842   9.193   9.515  0.2892  0.7924 -0.0162
  911MOL0     C25638   7.759   9.081   9.551 -0.1511  0.1807 -0.4422
  911MOL0     O25639   7.629   9.050   9.506 -0.3593 -0.8220  0.7911
  911MOL0     C25640   7.569   9.159   9.436  0.0526 -0.1940  0.6965
  911MOL0     C25641   7.430   9.117   9.405  0.9409 -0.0917  0.6776
  911MOL0     C25642   7.423   9.029   9.285  0.3321  0.4131  0.1940
  911MOL0     C25643   7.302   8.936   9.281 -0.3369 -0.2246  0.2403
  911MOL0     C25644   7.166   8.993   9.289  1.2867 -0.6453 -0.4853
  911MOL0     C25645   7.055   9.051   9.319 -0.4516  0.5631 -0.4621
  911MOL0     C25646   7.811   8.977   9.640 -0.5487  0.0208 -0.1290
  911MOL0     C25647   7.938   8.991   9.706 -0.1300 -0.1322  0.5594
  911MOL0     C25648   7.984   8.875   9.795 -0.1531  0.5770 -0.2571
  911MOL0     H25649   8.322   8.898   9.830 -0.1488 -1.5008  1.2140
  911MOL0     H25650   8.573   8.902   9.854  2.3733  1.6091  1.4304
  911MOL0     H25651   8.776   9.249  10.047  0.6824  0.1697  2.9439
  911MOL0     H25652   8.877   9.110  10.065  0.6336  1.4998 -1.8816
  911MOL0     H25653   8.656   9.221  10.219  0.8844  0.9624 -1.4211
  911MOL0     H25654   8.666   9.047  10.223  0.4426  0.0612 -1.6762
  911MOL0     H25655   8.883   9.025  10.315  1.2315  0.4386  0.1382
  911MOL0     H25656   8.914   9.198  10.316 -0.4048  0.9150 -0.5456
  911MOL0     H25657   8.699   9.201  10.472  0.9155  0.9715 -0.5059
  911MOL0     H25658   8.694   9.037  10.462 -2.1746  1.2270 -0.1125
  911MOL0     H25659   8.975   9.137  10.546  0.5392 -1.1501  0.9586
  911MOL0     H25660   8.863   9.038  10.638 -1.6163  0.7604 -0.2856
  911MOL0     H25661   8.857   9.345  10.572 -0.4304  0.9979  0.2402
  911MOL0     H25662   8.741   9.259  10.683 -0.5674 -1.2615 -0.6531
  911MOL0     H25663   8.921   9.382  10.809 -1.9485 -1.0136  0.0209
  911MOL0     H25664   9.041   9.290  10.725 -1.0275  1.6077 -1.8050
  911MOL0     H25665   8.829   9.153  10.911  1.4559 -2.4948  2.9640
  911MOL0     H25666   8.947   9.072  10.837  1.1282 -0.4020  1.9887
  911MOL0     H25667   8.964   9.400  11.066  2.0991  1.6264  1.2490
  911MOL0     H25668   9.134   9.359  11.356 -1.2405  0.3165 -0.5410
  911MOL0     H25669   9.180   9.480  11.230 -0.2710 -0.4568 -0.2681
  911MOL0     H25670   9.352   9.242  11.338  0.7477  0.3033  1.2347
  911MOL0     H25671   9.407   9.344  11.212 -1.3797 -4.5160 -1.9055
  911MOL0     H25672   9.357   9.535  11.394  1.6485  0.9295  1.6339
  911MOL0     H25673   9.382   9.406  11.513 -0.7996  0.3948  0.7741
  911MOL0     H25674   9.602   9.354  11.384 -0.0633 -0.2692 -2.1887
  911MOL0     H25675   9.578   9.502  11.281 -3.1781  2.0799  0.1046
  911MOL0     H25676   9.693   9.465  11.702 -2.7485  1.6971 -2.2810
  911MOL0     H25677   9.858   9.357  11.835  1.2142  3.3362  2.2532
  911MOL0     H25678   9.994   9.462  11.850 -1.5008  1.3987 -1.0615
  911MOL0     H25679  10.002   9.290  11.770  0.1361 -1.1161  0.0835
  911MOL0     H25680  10.416   9.677  11.651  0.5309  1.2724  1.3693
  911MOL0     H25681  10.646   9.630  11.676  0.1054  0.1806  0.5618
  911MOL0     H25682  10.753   9.288  11.926  1.2642 -0.2173  0.7872
  911MOL0     H25683  10.767   9.173  11.792 -1.1790  0.0959  1.3374
  911MOL0     H25684  10.964   9.382  11.894 -0.3743 -0.4913  0.8159
  911MOL0     H25685  10.974   9.207  11.911  1.7585  1.9039  0.1399
  911MOL0     H25686  10.973   9.216  11.636 -1.2059 -0.0384  0.0994
  911MOL0     H25687  11.111   9.197  11.741  1.5310 -0.1823 -1.1562
  911MOL0     H25688  11.109   9.466  11.728 -1.7501  2.0114 -0.7196
  911MOL0     H25689  10.997   9.439  11.601  1.8486  0.3668 -0.6934
  911MOL0     H25690  11.233   9.458  11.487  1.8141 -3.0711 -4.0322
  911MOL0     H25691  11.293   9.349  11.616  1.5359 -1.4427 -2.8672
  911MOL0     H25692  11.094   9.273  11.405  0.3896  0.7553  0.2527
  911MOL0     H25693  11.170   9.175  11.526 -0.6913  1.7413  2.7733
  911MOL0     H25694  11.302   9.122  11.326  0.2888 -0.6187  2.6477
  911MOL0     H25695  11.398   9.227  11.425  0.8227  2.5073  0.6818
  911MOL0     H25696  11.308   9.419  11.275 -2.0234 -1.0732  1.9438
  911MOL0     H25697  11.245   9.298  11.167  1.2224 -0.7792 -0.4032
  911MOL0     H25698  10.564   9.216  11.752  1.3255  0.1926  0.6049
  911MOL0     H25699  10.309   9.272  11.740  0.4872 -0.8675 -1.7581
  911MOL0     H25700  10.041   9.561  11.359  0.6042  0.3773 -0.6413
  911MOL0     H25701   9.804   9.586  11.313  1.6358  1.1806 -0.9909
  911MOL0     H25702   8.549   9.286  10.016  0.3865  0.2265 -2.0395
  911MOL0     H25703   8.297   9.298   9.967 -0.9363 -1.0200  3.1269
  911MOL0     H25704   8.020   9.286   9.544  1.0840 -0.8290 -0.2671
  911MOL0     H25705   7.801   9.272   9.453 -0.0969 -0.3933 -1.3448
  911MOL0     H25706   7.567   9.255   9.489  0.4674 -0.5029  1.2900
  911MOL0     H25707   7.626   9.174   9.343 -0.2067 -0.3688  0.5096
  911MOL0     H25708   7.369   9.202   9.372  1.9184  0.2062 -0.4183
  911MOL0     H25709   7.386   9.065   9.490  0.9473 -3.1636 -1.0758
  911MOL0     H25710   7.434   9.089   9.194 -0.6594  1.8589  0.9977
  911MOL0     H25711   7.508   8.960   9.280  0.3447  0.5041 -1.6397
  911MOL0     H25712   7.308   8.858   9.358 -0.2663  1.1154  1.6429
  911MOL0     H25713   7.321   8.886   9.185  1.2497  0.1643  0.3211
  911MOL0     H25714   6.968   9.104   9.351 -1.5697 -1.6061  0.2879
  911MOL0     H25715   7.757   8.886   9.664  1.6643 -1.4067 -0.3465
  911MOL0     H25716   8.011   8.917   9.893 -1.5667 -0.9417  0.8570
  911MOL0     H25717   7.901   8.805   9.814  1.2451 -0.9336  0.5761
  911MOL0     H25718   8.066   8.817   9.752 -1.9874 -2.0462 -0.4828
  912MOL0     O25719   3.249   1.917   2.401 -0.3599 -0.6532  0.1658
  912MOL0     C25720   3.143   1.863   2.398  0.2385  0.2829 -0.7143
  912MOL0     O25721   3.118   1.736   2.347  1.0215 -0.3218  0.5181
  912MOL0     C25722   3.212   1.641   2.313 -0.1163 -0.5967  0.9689
  912MOL0     C25723   3.189   1.560   2.202  0.0527  0.3512  0.5734
  912MOL0     C25724   3.279   1.450   2.168  0.8518  0.0362 -0.3379
  912MOL0     C25725   3.387   1.415   2.256 -0.8636  0.0947  0.4978
  912MOL0     O25726   3.475   1.322   2.216  0.6957 -0.3615  0.6954
  912MOL0     C25727   3.429   1.192   2.190 -0.4310  0.1664  0.5510
  912MOL0     C25728   3.415   1.113   2.322 -0.1707 -0.2617  0.2611
  912MOL0     C25729   3.524   1.150   2.426 -0.0641 -0.0774  0.4764
  912MOL0     C25730   3.565   1.020   2.503  1.3732 -0.1983 -0.1349
  912MOL0     C25731   3.687   1.043   2.587 -0.3461 -0.9751 -0.5964
  912MOL0     C25732   3.820   1.030   2.507 -0.1763  0.3473 -0.4265
  912MOL0     C25733   3.861   0.880   2.495 -0.0569 -0.1934 -0.4683
  912MOL0     C25734   3.935   0.823   2.618  0.1276  0.2928  0.1739
  912MOL0     N25735   4.075   0.835   2.626 -0.2541 -1.6000 -0.1120
  912MOL0     C25736   4.146   0.917   2.717 -0.3135  0.5637  0.8340
  912MOL0     C25737   4.277   0.866   2.699  0.8695  0.5422 -0.0500
  912MOL0     C25738   4.404   0.898   2.783 -0.7838 -0.3335 -0.3918
  912MOL0     C25739   4.440   0.782   2.879  0.1321  0.7818 -0.2415
  912MOL0     C25740   4.336   0.762   2.986  0.0317  0.5848  0.4533
  912MOL0     C25741   4.347   0.866   3.095  0.4947 -0.5011  0.2960
  912MOL0     O25742   4.466   0.868   3.163  0.4782  0.7043 -0.0463
  912MOL0     C25743   4.510   0.767   3.242 -0.8902 -0.1640 -0.6819
  912MOL0     C25744   4.643   0.770   3.297 -0.1707  0.5060 -0.4836
  912MOL0     C25745   4.693   0.674   3.382 -0.0347  0.8313  1.4303
  912MOL0     C25746   4.821   0.700   3.451  0.3105  0.2246 -0.4575
  912MOL0     C25747   4.622   0.556   3.413 -0.0024  0.6260  0.3279
  912MOL0     C25748   4.684   0.436   3.478 -0.3940  0.2024  0.4254
  912MOL0     O25749   4.813   0.399   3.449  0.5291  0.5346  0.1485
  912MOL0     C25750   4.857   0.269   3.478 -0.4773 -0.3445 -1.1716
  912MOL0     C25751   4.988   0.257   3.527  0.4528 -1.1016  0.3568
  912MOL0     C25752   5.039   0.134   3.556  0.2191 -0.1606  0.0008
  912MOL0     C25753   4.967   0.013   3.542 -0.4250 -0.2289  0.3672
  912MOL0     O25754   5.022  -0.104   3.588  0.2775  0.0220  0.1229
  912MOL0     C25755   5.009  -0.227   3.509 -0.3564  0.4609  0.3306
  912MOL0     C25756   5.028  -0.348   3.602  0.3259 -0.6542  0.3575
  912MOL0     C25757   4.917  -0.389   3.701  0.6871 -0.8890 -0.3302
  912MOL0     C25758   4.933  -0.538   3.741 -1.1792 -0.1618  0.3080
  912MOL0     C25759   4.844  -0.581   3.863 -1.1797  0.3409  0.2338
  912MOL0     C25760   4.846  -0.734   3.893  0.3275  0.6767 -0.0423
  912MOL0     C25761   4.706  -0.770   3.945  0.0258  0.4046  0.2065
  912MOL0     C25762   4.686  -0.908   3.995 -0.7853  1.0830 -0.1149
  912MOL0    Cl25763   4.791  -1.034   3.921 -0.4345  0.2777 -0.0874
  912MOL0     C25764   4.836   0.019   3.496  0.6649  0.8267  0.5337
  912MOL0     C25765   4.780   0.144   3.461 -0.4624  0.0656  0.8875
  912MOL0     O25766   4.614   0.385   3.557 -0.1381 -0.5044 -0.0073
  912MOL0     C25767   4.491   0.549   3.362  0.8466  1.0562  0.3044
  912MOL0     C25768   4.432   0.659   3.294  0.0768  0.4823 -0.2095
  912MOL0     N25769   4.267   0.767   2.602  0.2397 -0.1294  0.1034
  912MOL0     N25770   4.150   0.748   2.563 -0.2448  0.4536 -0.6755
  912MOL0     C25771   3.411   1.504   2.359  0.0300  0.0842 -0.4110
  912MOL0     C25772   3.320   1.610   2.395  0.5219  1.1214 -0.9329
  912MOL0     C25773   3.032   1.943   2.440  0.1121  0.0111  0.2472
  912MOL0     C25774   3.054   2.039   2.540  0.3823 -0.4524 -0.2703
  912MOL0     C25775   2.948   2.127   2.576 -0.2303 -0.0615 -0.4011
  912MOL0     C25776   2.831   2.126   2.501 -0.0956 -0.0120  0.2219
  912MOL0     O25777   2.741   2.226   2.521 -0.4138 -0.3897  0.0588
  912MOL0     C25778   2.682   2.229   2.651 -0.7818 -0.3086  0.3420
  912MOL0     C25779   2.537   2.201   2.641  0.2502  0.4770  0.1358
  912MOL0     C25780   2.510   2.046   2.644 -0.1845 -1.0515 -0.4389
  912MOL0     C25781   2.358   2.020   2.673  0.9092  0.1722 -0.0750
  912MOL0     C25782   2.329   1.876   2.690 -0.1207 -0.6295  0.3316
  912MOL0     C25783   2.278   1.763   2.699 -0.1057  0.2179 -0.0634
  912MOL0     C25784   2.807   2.035   2.401 -0.5297  0.3234 -0.1676
  912MOL0     C25785   2.908   1.939   2.367 -0.8876  1.1536 -0.2953
  912MOL0     C25786   2.882   1.858   2.237  0.3430  0.4852 -0.7080
  912MOL0     H25787   3.098   1.583   2.148 -0.9055 -1.5591  1.2917
  912MOL0     H25788   3.257   1.396   2.077 -0.2739 -1.4429  0.7478
  912MOL0     H25789   3.506   1.148   2.126 -1.2292  1.0337 -1.0592
  912MOL0     H25790   3.331   1.190   2.142 -0.5696 -0.6363  0.8389
  912MOL0     H25791   3.315   1.124   2.366 -0.5051  0.3776 -0.6371
  912MOL0     H25792   3.416   1.007   2.294 -1.4124  0.7814 -4.6303
  912MOL0     H25793   3.615   1.180   2.373  1.1578 -1.0464  1.9712
  912MOL0     H25794   3.489   1.226   2.497  1.0824  0.7520  0.1872
  912MOL0     H25795   3.481   1.000   2.571  0.4622 -3.5289 -2.0208
  912MOL0     H25796   3.578   0.930   2.442  0.9706 -1.5685  1.7007
  912MOL0     H25797   3.680   0.968   2.666 -3.8857 -1.3328 -1.0894
  912MOL0     H25798   3.686   1.146   2.624  1.9311 -1.6039  1.5321
  912MOL0     H25799   3.790   1.056   2.405 -2.8972 -0.6914  0.0310
  912MOL0     H25800   3.910   1.084   2.538 -0.2566 -0.0032  0.4586
  912MOL0     H25801   3.922   0.879   2.404  2.1041  1.2603  0.8541
  912MOL0     H25802   3.768   0.823   2.495 -0.6769  0.7682  0.9501
  912MOL0     H25803   3.891   0.867   2.707  2.1892 -0.0431  1.4283
  912MOL0     H25804   3.903   0.718   2.618 -0.9543  0.5430 -2.4016
  912MOL0     H25805   4.100   0.992   2.781 -2.4103  0.7304 -0.7425
  912MOL0     H25806   4.387   0.988   2.842 -2.7904 -1.0643  0.2472
  912MOL0     H25807   4.480   0.917   2.707  2.4446  0.7810  2.8362
  912MOL0     H25808   4.449   0.692   2.818 -1.3865  0.1649  0.4016
  912MOL0     H25809   4.534   0.816   2.923 -0.5545  0.9663  1.1468
  912MOL0     H25810   4.238   0.766   2.939  1.4412  0.1680 -2.7268
  912MOL0     H25811   4.347   0.662   3.029 -1.4638  1.0753  2.1411
  912MOL0     H25812   4.348   0.968   3.055 -1.5156 -0.3900  0.4186
  912MOL0     H25813   4.265   0.846   3.164  1.6780 -2.1617  1.3060
  912MOL0     H25814   4.703   0.857   3.269  0.4559  1.0791  2.3890
  912MOL0     H25815   4.866   0.796   3.427  0.2081 -0.1016 -2.0927
  912MOL0     H25816   4.890   0.619   3.423 -2.3853 -2.4445  0.0782
  912MOL0     H25817   4.804   0.690   3.559 -3.1304 -0.5674 -0.9525
  912MOL0     H25818   5.043   0.350   3.523 -0.9126 -0.3074 -0.8829
  912MOL0     H25819   5.145   0.128   3.576  0.6657  1.3653 -1.6252
  912MOL0     H25820   4.916  -0.246   3.453 -0.2513  0.6405  0.0916
  912MOL0     H25821   5.093  -0.236   3.439 -0.1311 -1.8327  0.7974
  912MOL0     H25822   5.043  -0.434   3.536  0.2194  0.7981 -1.6262
  912MOL0     H25823   5.119  -0.333   3.661  0.8357  2.4312 -1.0400
  912MOL0     H25824   4.824  -0.374   3.646  0.7362 -1.8697 -0.7035
  912MOL0     H25825   4.906  -0.315   3.781 -2.8443  1.8145 -2.9532
  912MOL0     H25826   5.039  -0.563   3.758 -1.6546 -1.2379  1.9238
  912MOL0     H25827   4.913  -0.599   3.652 -1.0323  2.2402 -1.4656
  912MOL0     H25828   4.874  -0.520   3.948 -0.0441  1.3374 -0.8405
  912MOL0     H25829   4.741  -0.551   3.842 -1.7351 -0.4436  1.7189
  912MOL0     H25830   4.922  -0.755   3.968 -1.7084 -1.2246  1.6487
  912MOL0     H25831   4.879  -0.796   3.809 -1.1423 -0.0885 -0.0858
  912MOL0     H25832   4.637  -0.752   3.862  0.3586  1.1094  0.0782
  912MOL0     H25833   4.685  -0.693   4.019  2.8772  0.7876  0.7062
  912MOL0     H25834   4.581  -0.933   3.981 -0.0481 -2.2824 -0.5206
  912MOL0     H25835   4.713  -0.905   4.101 -0.8258  0.7265 -0.0960
  912MOL0     H25836   4.787  -0.076   3.476  2.7749 -0.0024 -1.0670
  912MOL0     H25837   4.684   0.141   3.411 -0.9287  2.8763  1.4807
  912MOL0     H25838   4.431   0.461   3.381 -0.3122  1.7139 -0.2052
  912MOL0     H25839   4.326   0.653   3.271  0.0524 -2.0749  0.3291
  912MOL0     H25840   3.494   1.480   2.424 -0.9664 -0.9062  0.5213
  912MOL0     H25841   3.332   1.658   2.491 -1.4304 -0.8733  0.4099
  912MOL0     H25842   3.151   2.042   2.589  0.0234  5.0002  0.7209
  912MOL0     H25843   2.965   2.205   2.651 -1.8793  1.1511 -1.2291
  912MOL0     H25844   2.735   2.165   2.722  1.0266  2.0178  1.2290
  912MOL0     H25845   2.694   2.334   2.679 -1.1354 -0.1106 -0.2339
  912MOL0     H25846   2.502   2.238   2.544  0.4889 -0.1585 -0.2035
  912MOL0     H25847   2.484   2.244   2.726  0.0690  0.8397 -0.1578
  912MOL0     H25848   2.534   2.005   2.545  1.4516  1.1331 -1.0194
  912MOL0     H25849   2.575   2.003   2.721  1.4418  1.1779 -0.4634
  912MOL0     H25850   2.288   2.066   2.604 -2.1016  0.3077  2.8188
  912MOL0     H25851   2.334   2.071   2.767  1.8843  2.2746 -0.8953
  912MOL0     H25852   2.231   1.667   2.702 -3.7269  1.8451  0.4768
  912MOL0     H25853   2.715   2.052   2.346 -1.8168 -2.4759  0.9733
  912MOL0     H25854   2.776   1.865   2.209  0.6504  1.8806 -1.6286
  912MOL0     H25855   2.940   1.896   2.153 -0.6661 -0.5355 -1.9123
  912MOL0     H25856   2.902   1.750   2.235  1.1707  0.6104  0.2015
  913MOL0     O25857   7.667   6.520   4.309  0.1026 -0.0231 -0.4521
  913MOL0     C25858   7.690   6.401   4.274 -0.0727  0.5968  1.2329
  913MOL0     O25859   7.819   6.354   4.231 -0.2108 -1.2331 -0.6316
  913MOL0     C25860   7.932   6.438   4.237 -0.3066  0.2591 -0.0989
  913MOL0     C25861   7.968   6.520   4.342 -0.0339 -0.2261  0.3694
  913MOL0     C25862   8.086   6.594   4.340 -0.1847 -0.4650  0.7750
  913MOL0     C25863   8.169   6.584   4.230 -0.0636  0.6530  0.2123
  913MOL0     O25864   8.294   6.648   4.224  0.0129 -0.0106 -0.4402
  913MOL0     C25865   8.333   6.737   4.329 -0.4333  0.0513  0.3036
  913MOL0     C25866   8.416   6.668   4.437  0.0958  0.0733  0.2862
  913MOL0     C25867   8.557   6.611   4.406 -0.4240 -0.4543  0.2631
  913MOL0     C25868   8.661   6.723   4.390 -0.5031 -0.2446 -0.3614
  913MOL0     C25869   8.803   6.671   4.381 -0.4052  0.9108  0.8128
  913MOL0     C25870   8.888   6.794   4.402 -0.4754 -0.5075  0.5838
  913MOL0     C25871   9.034   6.752   4.427  0.2842 -0.8167 -0.3460
  913MOL0     C25872   9.129   6.803   4.313  0.2510  0.8348 -0.1199
  913MOL0     N25873   9.260   6.747   4.336 -0.1367  0.1844  0.6329
  913MOL0     C25874   9.362   6.806   4.405  0.1617  0.0563 -0.1536
  913MOL0     C25875   9.459   6.704   4.423 -0.3371  0.3157  0.5184
  913MOL0     C25876   9.595   6.704   4.498  0.3771 -0.1488  0.5759
  913MOL0     C25877   9.592   6.810   4.616 -0.0950  0.9262 -0.4337
  913MOL0     C25878   9.642   6.740   4.743  0.0526 -0.6539 -0.5620
  913MOL0     C25879   9.644   6.851   4.851  0.4120 -0.0422 -0.5228
  913MOL0     O25880   9.726   6.814   4.961  0.6648  0.0419  0.3706
  913MOL0     C25881   9.862   6.837   4.942  0.9694  0.2887 -0.0670
  913MOL0     C25882   9.911   6.964   4.932 -0.1725 -0.6703 -0.2985
  913MOL0     C25883  10.050   6.988   4.917  0.1958  0.5596  0.2738
  913MOL0     C25884  10.102   7.127   4.913 -0.4245 -0.0304  0.2224
  913MOL0     C25885  10.141   6.883   4.910  0.5550 -0.2698  0.4721
  913MOL0     C25886  10.290   6.896   4.910  0.1461  0.0399  0.5344
  913MOL0     O25887  10.349   6.820   4.813 -0.2910 -0.5377 -0.3448
  913MOL0     C25888  10.476   6.858   4.780  0.8236 -0.3357  0.6426
  913MOL0     C25889  10.572   6.763   4.801  1.1749  0.5521  0.3714
  913MOL0     C25890  10.698   6.784   4.746 -0.1257 -0.2197 -0.0251
  913MOL0     C25891  10.732   6.921   4.710 -0.0505  0.3573 -0.1863
  913MOL0     O25892  10.856   6.961   4.671  0.1185  0.2020  0.1648
  913MOL0     C25893  10.899   6.894   4.554  0.1775  0.2545  0.6541
  913MOL0     C25894  11.016   6.975   4.512  0.5324  0.5029  0.3188
  913MOL0     C25895  10.961   7.109   4.468 -0.9806  0.1950 -0.2984
  913MOL0     C25896  11.044   7.165   4.354 -0.5316 -0.4919  0.5268
  913MOL0     C25897  11.012   7.313   4.328  0.1081 -0.1540  0.2997
  913MOL0     C25898  11.077   7.407   4.424  0.2440  0.4049  0.8636
  913MOL0     C25899  11.230   7.434   4.399 -0.0058  0.2988  0.5005
  913MOL0     C25900  11.326   7.356   4.494  0.3034 -0.0226  0.2070
  913MOL0    Cl25901  11.484   7.404   4.448  0.0173 -0.2246 -0.4659
  913MOL0     C25902  10.638   7.020   4.713  0.9434 -0.3964  0.4121
  913MOL0     C25903  10.503   6.990   4.735  0.0723  0.1106  0.4215
  913MOL0     O25904  10.350   6.963   4.997 -0.1752  0.0869  0.6302
  913MOL0     C25905  10.090   6.756   4.937 -0.4621 -0.0716  0.0950
  913MOL0     C25906   9.953   6.731   4.949  0.3477  0.0787  0.5253
  913MOL0     N25907   9.401   6.586   4.369  0.7279 -0.9677  0.4512
  913MOL0     N25908   9.283   6.614   4.322  0.1060  0.8119 -0.9875
  913MOL0     C25909   8.135   6.502   4.124  0.4126  0.0534 -0.2904
  913MOL0     C25910   8.013   6.436   4.123 -0.7210 -0.6826  0.1316
  913MOL0     C25911   7.569   6.317   4.250 -0.7331  0.3217  0.7097
  913MOL0     C25912   7.467   6.336   4.343 -0.1168  0.0304 -0.8220
  913MOL0     C25913   7.341   6.276   4.326  0.3276  0.6789 -0.2689
  913MOL0     C25914   7.313   6.192   4.216 -0.0191  0.3691  0.6255
  913MOL0     O25915   7.195   6.135   4.211  0.4763  0.8529  0.5282
  913MOL0     C25916   7.141   6.070   4.100  0.0188  0.7332  0.4487
  913MOL0     C25917   7.026   5.975   4.140 -0.6664  0.6396 -0.8704
  913MOL0     C25918   6.932   6.033   4.236  0.2036  0.2983 -0.5489
  913MOL0     C25919   6.813   5.929   4.254 -0.4109 -0.7686  0.0070
  913MOL0     C25920   6.719   5.971   4.359 -0.7796 -0.0329  0.9122
  913MOL0     C25921   6.654   6.013   4.454 -0.5577  0.6737 -0.1876
  913MOL0     C25922   7.413   6.171   4.119  0.3523  0.1742  0.0544
  913MOL0     C25923   7.539   6.241   4.126 -0.3316 -0.2597  0.0646
  913MOL0     C25924   7.637   6.235   4.008  0.7885  0.9164  0.0512
  913MOL0     H25925   7.902   6.526   4.428  0.6443 -0.3088  0.9123
  913MOL0     H25926   8.114   6.660   4.422  1.7530 -0.2164 -0.0428
  913MOL0     H25927   8.250   6.793   4.375  0.8140  1.2546  1.1928
  913MOL0     H25928   8.393   6.820   4.289  0.3611 -0.2877  0.7636
  913MOL0     H25929   8.411   6.742   4.517 -1.3941 -0.5365  0.7993
  913MOL0     H25930   8.349   6.593   4.482 -1.0772  1.6404  1.2505
  913MOL0     H25931   8.584   6.545   4.488 -1.6009 -0.7521  0.4241
  913MOL0     H25932   8.549   6.552   4.314  2.1154 -1.2191  0.4754
  913MOL0     H25933   8.634   6.776   4.298 -0.8747 -0.2625 -0.2663
  913MOL0     H25934   8.651   6.790   4.476 -0.6481 -1.6625  0.7440
  913MOL0     H25935   8.822   6.631   4.281  1.2119  1.1185  1.0148
  913MOL0     H25936   8.821   6.594   4.457  1.7267 -1.1106 -1.5759
  913MOL0     H25937   8.886   6.857   4.313 -2.2740 -1.6207 -0.2404
  913MOL0     H25938   8.845   6.836   4.494 -0.5532 -2.3618  1.4564
  913MOL0     H25939   9.039   6.643   4.432 -1.5428 -0.9964 -1.5320
  913MOL0     H25940   9.071   6.777   4.526  0.0163 -0.4430 -0.3388
  913MOL0     H25941   9.095   6.766   4.216  2.4087  1.6471 -1.2356
  913MOL0     H25942   9.137   6.912   4.314 -1.3596  1.0009 -1.0927
  913MOL0     H25943   9.380   6.906   4.444  1.1995  0.3340 -1.3028
  913MOL0     H25944   9.672   6.733   4.426 -0.6955  1.8378  0.1727
  913MOL0     H25945   9.611   6.602   4.535 -1.8260 -1.3838 -1.5240
  913MOL0     H25946   9.660   6.881   4.569 -1.3483  2.2447 -0.3421
  913MOL0     H25947   9.499   6.864   4.637  0.5495  1.8263  0.1818
  913MOL0     H25948   9.554   6.679   4.767  0.1625 -0.4859  0.2938
  913MOL0     H25949   9.735   6.688   4.719 -0.6323 -0.9407 -2.8870
  913MOL0     H25950   9.673   6.951   4.815 -0.9950  0.5762 -0.0229
  913MOL0     H25951   9.544   6.865   4.892  0.6591  2.5965 -0.6436
  913MOL0     H25952   9.848   7.051   4.944  0.1224 -0.7319  2.4270
  913MOL0     H25953  10.027   7.205   4.928  0.8511  1.0866  1.1748
  913MOL0     H25954  10.150   7.150   4.817  1.4091  0.7939  1.2807
  913MOL0     H25955  10.189   7.140   4.979  0.2416  0.5025 -0.7184
  913MOL0     H25956  10.544   6.663   4.831  0.5615  0.4150 -0.6087
  913MOL0     H25957  10.785   6.719   4.740  1.2948  1.4397  1.1893
  913MOL0     H25958  10.941   6.795   4.573  1.4149  0.8760  1.2376
  913MOL0     H25959  10.827   6.897   4.472 -1.2641  2.9670  1.8748
  913MOL0     H25960  11.080   6.983   4.600 -2.9418  2.6238  2.9235
  913MOL0     H25961  11.055   6.913   4.431  0.5266 -0.2777  0.8944
  913MOL0     H25962  10.973   7.173   4.556  1.9931 -1.4183  0.6399
  913MOL0     H25963  10.856   7.094   4.441 -0.3456 -1.5113 -2.0447
  913MOL0     H25964  11.013   7.105   4.267 -1.1913 -0.2520  0.5909
  913MOL0     H25965  11.152   7.153   4.368  0.0856 -0.9098 -3.4503
  913MOL0     H25966  11.042   7.337   4.225  1.7908 -2.8565  0.0597
  913MOL0     H25967  10.904   7.327   4.336 -0.5694 -3.5250 -1.1236
  913MOL0     H25968  11.067   7.367   4.525  0.2817  1.8570  1.4609
  913MOL0     H25969  11.019   7.500   4.425  2.2662  1.7473  2.5927
  913MOL0     H25970  11.247   7.539   4.422 -1.5355  0.5792  0.4997
  913MOL0     H25971  11.248   7.417   4.292 -1.3774  0.9078  0.1494
  913MOL0     H25972  11.309   7.248   4.483  0.3983  0.0615 -0.7799
  913MOL0     H25973  11.312   7.388   4.598  1.7650 -2.7556  1.3457
  913MOL0     H25974  10.663   7.119   4.675  0.0556 -0.4238 -0.2675
  913MOL0     H25975  10.420   7.060   4.735 -0.7921 -0.8754  1.5976
  913MOL0     H25976  10.164   6.677   4.942  0.8345  0.6738 -3.6042
  913MOL0     H25977   9.914   6.633   4.973  2.1781 -0.0853  3.2536
  913MOL0     H25978   8.209   6.493   4.045 -0.9305 -0.1735 -1.5728
  913MOL0     H25979   7.982   6.383   4.033  0.5857  2.4806 -2.3683
  913MOL0     H25980   7.483   6.404   4.426 -0.7013 -0.7055 -0.0970
  913MOL0     H25981   7.276   6.301   4.409  0.9889  1.6079 -0.0132
  913MOL0     H25982   7.102   6.141   4.026  0.3188  0.6133  0.1744
  913MOL0     H25983   7.210   6.002   4.051  0.5238 -1.1106  3.4995
  913MOL0     H25984   7.061   5.884   4.191 -1.8976  0.8721  0.4572
  913MOL0     H25985   6.980   5.938   4.048 -1.0687 -0.0866 -0.3965
  913MOL0     H25986   6.988   6.043   4.330  1.8750  1.9028 -1.6596
  913MOL0     H25987   6.885   6.130   4.217 -1.3211  0.0080  1.3298
  913MOL0     H25988   6.851   5.828   4.272 -1.9892 -1.2703  0.6894
  913MOL0     H25989   6.752   5.929   4.164 -0.9225  1.4023  0.2852
  913MOL0     H25990   6.601   6.044   4.542 -0.3911 -0.6847  0.4154
  913MOL0     H25991   7.398   6.103   4.036  2.6982 -1.3082  0.7330
  913MOL0     H25992   7.583   6.219   3.915  0.8335 -0.7140  0.2746
  913MOL0     H25993   7.688   6.331   4.015 -0.9836  1.8589  0.5689
  913MOL0     H25994   7.702   6.148   4.027 -0.6800  0.0005  1.0787
  914MOL0     O25995   5.237   1.503   2.221 -0.2488  0.9436  0.1627
  914MOL0     C25996   5.293   1.444   2.128  0.0467  0.4993  0.9960
  914MOL0     O25997   5.259   1.458   1.996  0.4484  0.5394 -0.7050
  914MOL0     C25998   5.139   1.516   1.962 -0.7564  0.1912 -0.1670
  914MOL0     C25999   5.022   1.496   2.039  0.3446  0.2012  0.4510
  914MOL0     C26000   4.905   1.557   1.996  0.6070  0.0958  0.5933
  914MOL0     C26001   4.904   1.628   1.869  0.2306  0.4550  0.0763
  914MOL0     O26002   4.784   1.686   1.815 -0.0071  0.3724 -0.2819
  914MOL0     C26003   4.726   1.594   1.712 -0.3428 -0.1761 -0.2519
  914MOL0     C26004   4.583   1.658   1.684 -0.4148  0.5080  0.3354
  914MOL0     C26005   4.532   1.632   1.535 -0.7465 -0.5028 -0.2515
  914MOL0     C26006   4.391   1.665   1.512  0.7689 -0.7616  0.2720
  914MOL0     C26007   4.351   1.643   1.371 -0.2871  0.4665  0.7158
  914MOL0     C26008   4.320   1.492   1.337 -0.3379 -0.3448 -1.3102
  914MOL0     C26009   4.163   1.450   1.353 -0.1622 -0.4919  0.2074
  914MOL0     C26010   4.134   1.315   1.290 -0.3396  0.4767  0.6844
  914MOL0     N26011   4.024   1.246   1.346 -0.1875 -0.2336 -0.1881
  914MOL0     C26012   3.897   1.292   1.338 -0.2297  0.3179 -0.7303
  914MOL0     C26013   3.824   1.194   1.393 -0.3584  0.7183 -0.6270
  914MOL0     C26014   3.676   1.200   1.413 -0.0202  0.2856  0.0092
  914MOL0     C26015   3.606   1.200   1.276 -1.2971  0.4715  0.7229
  914MOL0     C26016   3.589   1.059   1.231  0.1574 -0.6796  0.3862
  914MOL0     C26017   3.608   1.046   1.081  0.2422 -0.0008 -0.3868
  914MOL0     O26018   3.739   1.091   1.047 -0.1858  0.4263  0.7954
  914MOL0     C26019   3.852   1.015   1.061  0.5358 -0.1596  0.9580
  914MOL0     C26020   3.858   0.882   1.094 -0.4859  0.3890  0.4495
  914MOL0     C26021   3.976   0.816   1.114 -0.4222  0.3114  0.1212
  914MOL0     C26022   3.971   0.677   1.168  0.4590 -0.3225 -0.2822
  914MOL0     C26023   4.097   0.878   1.080  0.5522 -0.0245  0.4266
  914MOL0     C26024   4.226   0.814   1.066  0.8906  0.3809  0.0998
  914MOL0     O26025   4.320   0.876   0.979 -0.1220 -0.2474  0.9958
  914MOL0     C26026   4.437   0.813   0.966 -0.5386  0.4713  0.6376
  914MOL0     C26027   4.442   0.678   0.921 -0.6108  0.2660  0.8429
  914MOL0     C26028   4.570   0.611   0.914 -0.6300 -0.7792 -0.5830
  914MOL0     C26029   4.692   0.682   0.936  0.5801  1.0326  0.1365
  914MOL0     O26030   4.810   0.611   0.936  0.3876 -0.2492 -0.4018
  914MOL0     C26031   4.930   0.677   0.955 -0.1424  1.4855 -0.5616
  914MOL0     C26032   5.052   0.579   0.949 -0.1448  0.3922 -0.4906
  914MOL0     C26033   5.176   0.650   0.988 -0.4511 -0.2550  0.2460
  914MOL0     C26034   5.289   0.555   1.012  0.2801 -0.4338  0.9006
  914MOL0     C26035   5.412   0.610   1.094  0.1112  0.3000  0.1150
  914MOL0     C26036   5.512   0.694   1.018  0.3356 -0.4407  0.3960
  914MOL0     C26037   5.644   0.677   1.097  0.6984  0.7635 -0.2013
  914MOL0     C26038   5.754   0.758   1.030  0.1574 -0.1890 -0.2729
  914MOL0    Cl26039   5.789   0.700   0.867  0.1227 -0.0270 -0.5439
  914MOL0     C26040   4.690   0.821   0.969  0.4169 -0.1630 -0.1792
  914MOL0     C26041   4.561   0.883   0.973 -0.3080 -0.5631 -0.7791
  914MOL0     O26042   4.243   0.714   1.127 -0.4884  0.4382 -0.0451
  914MOL0     C26043   4.090   1.018   1.048 -0.3374  0.3527  0.3938
  914MOL0     C26044   3.966   1.082   1.047  0.0966  0.5537  0.0799
  914MOL0     N26045   3.901   1.102   1.443 -0.4858  0.8360 -0.1664
  914MOL0     N26046   4.029   1.124   1.412  0.4794 -0.0190 -0.6133
  914MOL0     C26047   5.022   1.642   1.798  0.8442  0.7613  1.0560
  914MOL0     C26048   5.134   1.582   1.842 -0.1807  0.2339 -0.2349
  914MOL0     C26049   5.415   1.362   2.145 -0.1758  0.3800  0.1251
  914MOL0     C26050   5.453   1.281   2.035 -1.0156  0.3242  0.6378
  914MOL0     C26051   5.573   1.202   2.033 -0.1628 -0.0573 -0.2898
  914MOL0     C26052   5.655   1.202   2.146  0.1497 -0.3212 -0.7495
  914MOL0     O26053   5.757   1.109   2.150 -0.2543 -0.7715  0.3829
  914MOL0     C26054   5.881   1.170   2.193 -0.3192  0.3528 -0.0773
  914MOL0     C26055   5.995   1.115   2.106  0.9417 -0.0988 -0.0868
  914MOL0     C26056   5.963   1.116   1.951  0.4835  0.3311  0.3156
  914MOL0     C26057   6.083   1.110   1.855  0.1630  0.2331 -1.0803
  914MOL0     C26058   6.043   1.153   1.726  0.3410  0.5185  0.8390
  914MOL0     C26059   6.041   1.197   1.611 -0.0860 -0.4346 -0.3647
  914MOL0     C26060   5.617   1.288   2.258  0.1436 -0.2119 -0.2210
  914MOL0     C26061   5.504   1.372   2.255  0.7062  0.4297 -0.6319
  914MOL0     C26062   5.480   1.473   2.370 -0.0019 -0.2434  0.5579
  914MOL0     H26063   5.012   1.444   2.134  3.7559  0.3857  1.0302
  914MOL0     H26064   4.810   1.556   2.048  0.2550 -0.6660 -0.0405
  914MOL0     H26065   4.706   1.494   1.751 -0.1169 -0.0943  0.0791
  914MOL0     H26066   4.783   1.599   1.620  0.7030  0.3945  0.4032
  914MOL0     H26067   4.508   1.612   1.749 -1.7104  0.2931 -1.2151
  914MOL0     H26068   4.578   1.765   1.706 -1.6363  0.8520 -1.3809
  914MOL0     H26069   4.586   1.702   1.470  2.6871 -0.7657  2.1114
  914MOL0     H26070   4.546   1.529   1.503 -0.4296 -0.3773 -0.5237
  914MOL0     H26071   4.323   1.612   1.580  3.1259 -1.7583  2.0219
  914MOL0     H26072   4.374   1.765   1.551  2.5041 -0.6639  0.8920
  914MOL0     H26073   4.425   1.684   1.302 -0.4407  2.2748  1.5876
  914MOL0     H26074   4.255   1.691   1.349 -2.2932 -3.7740 -0.9738
  914MOL0     H26075   4.351   1.481   1.233  0.0297 -1.7037 -1.0779
  914MOL0     H26076   4.380   1.426   1.400  0.2079  0.7346 -0.6836
  914MOL0     H26077   4.100   1.524   1.303  0.7327  0.5079  0.5222
  914MOL0     H26078   4.136   1.448   1.460 -1.9555  0.8948 -0.1678
  914MOL0     H26079   4.124   1.320   1.181 -0.5110 -1.7983  0.5375
  914MOL0     H26080   4.221   1.255   1.320  1.1916  2.1805 -0.1545
  914MOL0     H26081   3.861   1.383   1.292  1.4227  1.0923 -0.5839
  914MOL0     H26082   3.655   1.295   1.464 -0.4915  1.0125 -1.4867
  914MOL0     H26083   3.639   1.130   1.489 -1.6382  1.0669 -0.0294
  914MOL0     H26084   3.510   1.250   1.288  0.0887  3.0438  2.2502
  914MOL0     H26085   3.663   1.262   1.205 -3.1802  0.7007 -0.6626
  914MOL0     H26086   3.656   0.987   1.280 -1.2471 -1.3064  1.4445
  914MOL0     H26087   3.484   1.032   1.242 -0.7231  1.7663 -1.2224
  914MOL0     H26088   3.590   0.947   1.038 -0.4861  0.8442 -2.1527
  914MOL0     H26089   3.536   1.115   1.036  0.5123  0.2322 -0.4668
  914MOL0     H26090   3.774   0.817   1.118  0.7617 -1.7934 -0.7934
  914MOL0     H26091   3.875   0.649   1.211  0.2675  3.1231  1.8289
  914MOL0     H26092   4.048   0.664   1.245 -0.0246  0.3849  0.3229
  914MOL0     H26093   3.989   0.610   1.083  0.6687  0.0312 -0.5202
  914MOL0     H26094   4.353   0.619   0.904 -0.0390  0.0705 -1.9045
  914MOL0     H26095   4.580   0.509   0.881  0.1567 -1.3306  1.2123
  914MOL0     H26096   4.943   0.762   0.888  1.4705  0.1857 -1.9818
  914MOL0     H26097   4.928   0.720   1.056 -3.4249  1.2112 -0.4153
  914MOL0     H26098   5.038   0.492   1.013 -0.9415  0.3501 -0.7133
  914MOL0     H26099   5.065   0.556   0.843 -1.7756  0.8016 -0.8171
  914MOL0     H26100   5.166   0.706   1.082  0.2735 -0.1931  0.2873
  914MOL0     H26101   5.202   0.718   0.907 -0.6875 -1.1638 -0.6047
  914MOL0     H26102   5.324   0.520   0.914  1.5990 -0.1469  1.2393
  914MOL0     H26103   5.248   0.466   1.061 -4.1948 -0.0093 -1.5634
  914MOL0     H26104   5.377   0.660   1.185 -0.5542  0.0007  0.0306
  914MOL0     H26105   5.461   0.518   1.128  1.7612 -0.0818 -2.9881
  914MOL0     H26106   5.482   0.799   1.029 -2.2639 -1.1992  1.1244
  914MOL0     H26107   5.531   0.655   0.918  0.0647  0.1249  0.1186
  914MOL0     H26108   5.678   0.573   1.093 -0.0300  0.5426 -0.7962
  914MOL0     H26109   5.638   0.695   1.205  2.5473 -0.7429  0.2230
  914MOL0     H26110   5.833   0.746   1.104 -2.6734 -0.9571  2.8797
  914MOL0     H26111   5.729   0.865   1.030 -0.3834 -0.2808 -1.9706
  914MOL0     H26112   4.782   0.878   0.975 -0.8100  2.1008 -1.4165
  914MOL0     H26113   4.568   0.990   0.987 -0.3070 -0.6976  0.3476
  914MOL0     H26114   4.181   1.061   1.007  0.2027 -0.7929  0.3597
  914MOL0     H26115   3.980   1.189   1.031  1.8575  0.3772  0.2301
  914MOL0     H26116   5.014   1.699   1.706  0.1649  0.0120  0.6377
  914MOL0     H26117   5.219   1.582   1.774  2.6646 -1.0082  3.0326
  914MOL0     H26118   5.400   1.283   1.941 -3.1016 -3.9255  1.4551
  914MOL0     H26119   5.596   1.134   1.952 -1.7351 -1.5485  0.4503
  914MOL0     H26120   5.878   1.279   2.187 -4.2416  0.5242  1.5231
  914MOL0     H26121   5.895   1.130   2.294 -1.6959 -0.1481 -0.0535
  914MOL0     H26122   6.013   1.012   2.137 -0.5819 -0.3415  0.0833
  914MOL0     H26123   6.082   1.181   2.118  1.0209  0.7263 -3.7825
  914MOL0     H26124   5.907   1.024   1.932  0.4845 -0.2172  2.6361
  914MOL0     H26125   5.903   1.207   1.939  1.0340  0.6269 -0.2322
  914MOL0     H26126   6.135   1.014   1.862  1.5688  1.0207 -0.3054
  914MOL0     H26127   6.155   1.184   1.891 -0.3025 -0.2525  0.9844
  914MOL0     H26128   6.042   1.224   1.507  0.5202 -0.8897 -0.4804
  914MOL0     H26129   5.688   1.281   2.340 -0.3187 -0.0812  0.1925
  914MOL0     H26130   5.450   1.568   2.326 -0.0852 -0.1245  0.8699
  914MOL0     H26131   5.390   1.439   2.422 -0.5582  0.1992 -0.0953
  914MOL0     H26132   5.565   1.479   2.438  1.5925  0.7562 -1.4178
  915MOL0     O26133   8.221   0.176   9.076 -0.2827  0.5605 -0.4258
  915MOL0     C26134   8.215   0.298   9.079 -0.0157  0.6916  0.7270
  915MOL0     O26135   8.328   0.376   9.118  0.1221 -0.0420  0.5104
  915MOL0     C26136   8.452   0.317   9.113 -0.2486 -0.1886 -0.0262
  915MOL0     C26137   8.521   0.313   8.998  0.0572 -0.0259 -0.0531
  915MOL0     C26138   8.648   0.261   8.988 -1.3111  0.7308 -0.0630
  915MOL0     C26139   8.718   0.216   9.102 -0.3363  0.9007 -0.5496
  915MOL0     O26140   8.845   0.164   9.093 -0.2028 -0.1480 -0.3342
  915MOL0     C26141   8.905   0.119   9.212  0.3693  0.2672 -0.0620
  915MOL0     C26142   9.051   0.099   9.177  0.2906  0.3402  0.0324
  915MOL0     C26143   9.125   0.082   9.302 -0.4620 -0.1520  0.8529
  915MOL0     C26144   9.271   0.064   9.295  0.7126  0.4756 -0.2709
  915MOL0     C26145   9.334   0.064   9.427 -0.6720 -1.0810 -0.3652
  915MOL0     C26146   9.488   0.042   9.427  0.4295 -0.1812  0.1866
  915MOL0     C26147   9.536   0.045   9.576  0.9406  0.0636 -0.2457
  915MOL0     C26148   9.681   0.089   9.607 -0.4444  0.3959  0.1942
  915MOL0     N26149   9.701   0.071   9.753 -0.3198  0.4565  0.4152
  915MOL0     C26150   9.732  -0.045   9.822  0.4947  0.2337  0.7933
  915MOL0     C26151   9.738  -0.012   9.952 -0.1714 -1.9668 -0.5187
  915MOL0     C26152   9.776  -0.096  10.069  0.5891  0.2017  0.2637
  915MOL0     C26153   9.907  -0.059  10.138 -0.3718 -0.5692 -0.3982
  915MOL0     C26154   9.896  -0.103  10.289  0.2733  0.3771 -0.0684
  915MOL0     C26155  10.032  -0.102  10.356  0.3495 -0.5816  0.3531
  915MOL0     O26156  10.113  -0.207  10.310 -0.4242 -0.7231  0.1573
  915MOL0     C26157  10.246  -0.172  10.274  0.7863  0.1781 -1.2001
  915MOL0     C26158  10.327  -0.247  10.188  0.0017  0.0832 -0.2892
  915MOL0     C26159  10.468  -0.227  10.178 -0.5303  0.0462  0.3612
  915MOL0     C26160  10.530  -0.303  10.064  0.9968 -0.6962  0.5528
  915MOL0     C26161  10.533  -0.144  10.273 -0.5844 -0.1092 -0.1126
  915MOL0     C26162  10.685  -0.121  10.267 -0.2658  0.0963  0.2864
  915MOL0     O26163  10.759  -0.213  10.197 -0.1151 -0.4719  0.0806
  915MOL0     C26164  10.895  -0.223  10.215 -0.4245  0.6284 -0.4919
  915MOL0     C26165  10.982  -0.115  10.205 -0.1268  0.0235 -0.2000
  915MOL0     C26166  11.119  -0.141  10.239 -0.0073  0.5737 -0.3915
  915MOL0     C26167  11.168  -0.270  10.281 -0.2606 -0.4208 -0.1869
  915MOL0     O26168  11.307  -0.274  10.305 -0.0080  0.2921 -0.4062
  915MOL0     C26169  11.374  -0.400  10.311 -0.5926  0.2489 -0.2786
  915MOL0     C26170  11.525  -0.378  10.334  0.4708 -0.0227 -0.1124
  915MOL0     C26171  11.583  -0.332  10.197 -0.0062  0.4341  0.1789
  915MOL0     C26172  11.735  -0.331  10.193 -0.4786  0.4154  0.0139
  915MOL0     C26173  11.784  -0.317  10.048 -0.0524  0.2707  0.1185
  915MOL0     C26174  11.935  -0.345  10.027  0.1859  0.0850  0.4300
  915MOL0     C26175  11.982  -0.483  10.071 -0.2045  0.2271 -0.3469
  915MOL0     C26176  12.103  -0.514   9.989 -1.0057  0.5742 -0.0067
  915MOL0    Cl26177  12.165  -0.676  10.046  0.0569  0.0645 -0.2130
  915MOL0     C26178  11.071  -0.371  10.298 -0.6653 -0.0751 -0.6320
  915MOL0     C26179  10.938  -0.350  10.262  0.0140  0.1068  0.1845
  915MOL0     O26180  10.727  -0.015  10.314 -0.2930 -0.0663 -0.3158
  915MOL0     C26181  10.450  -0.081  10.368 -1.0959 -0.2194  1.1465
  915MOL0     C26182  10.312  -0.089  10.371  0.3363 -0.2595 -0.0127
  915MOL0     N26183   9.695   0.118   9.970 -0.2334 -0.1292  1.0186
  915MOL0     N26184   9.674   0.169   9.846  0.5877 -0.1731  0.2370
  915MOL0     C26185   8.635   0.207   9.223 -0.1180 -0.0502  0.5560
  915MOL0     C26186   8.503   0.257   9.226  0.5751  0.4606  0.8189
  915MOL0     C26187   8.081   0.358   9.042  0.7612 -0.2031  0.4669
  915MOL0     C26188   8.053   0.480   9.104  0.7569  0.0206 -0.3497
  915MOL0     C26189   7.926   0.545   9.092  0.1613  0.5911  0.0619
  915MOL0     C26190   7.830   0.487   9.009  0.2617  0.1692  0.8029
  915MOL0     O26191   7.706   0.543   8.983 -0.5559 -0.4951  0.0799
  915MOL0     C26192   7.595   0.488   9.050  0.5719  0.3695 -0.3931
  915MOL0     C26193   7.502   0.603   9.088  0.1528  0.5405 -0.1706
  915MOL0     C26194   7.452   0.687   8.971  0.2544 -0.5516  1.1181
  915MOL0     C26195   7.340   0.620   8.892 -0.8484  1.0334 -0.3055
  915MOL0     C26196   7.304   0.686   8.764 -0.1866  0.3556 -0.4608
  915MOL0     C26197   7.286   0.745   8.658  0.1346 -0.1958 -0.2065
  915MOL0     C26198   7.852   0.366   8.940  0.0334 -0.2061  0.5298
  915MOL0     C26199   7.983   0.305   8.948  0.0686 -0.7487 -0.7939
  915MOL0     C26200   7.993   0.168   8.888  0.2942 -1.2602  0.8331
  915MOL0     H26201   8.479   0.354   8.906  2.6813  2.8866 -0.1254
  915MOL0     H26202   8.713   0.261   8.901  0.2448 -1.0170  1.0058
  915MOL0     H26203   8.847   0.036   9.253  0.9224  1.4566  3.4197
  915MOL0     H26204   8.899   0.200   9.285  1.3877  0.4646 -0.1801
  915MOL0     H26205   9.069   0.016   9.107 -0.1178 -0.1489  0.4989
  915MOL0     H26206   9.087   0.192   9.132 -0.4171 -0.7849 -3.1734
  915MOL0     H26207   9.114   0.173   9.360  0.1516  0.3201  0.2527
  915MOL0     H26208   9.076   0.008   9.365 -1.8189  0.3539  0.4112
  915MOL0     H26209   9.287  -0.028   9.238 -0.1390  0.3434 -0.3075
  915MOL0     H26210   9.312   0.147   9.238  0.8170 -0.3504 -1.4470
  915MOL0     H26211   9.289  -0.011   9.494 -0.3275 -2.4423 -1.5954
  915MOL0     H26212   9.323   0.157   9.484 -0.6193 -1.5225  0.3911
  915MOL0     H26213   9.513  -0.060   9.397 -0.6225 -0.2553 -0.5000
  915MOL0     H26214   9.540   0.115   9.364  0.4077 -1.3092 -1.1835
  915MOL0     H26215   9.508  -0.049   9.625  1.3060  0.8804  1.6450
  915MOL0     H26216   9.477   0.112   9.640  1.2141 -1.4570  1.6845
  915MOL0     H26217   9.752   0.023   9.557 -2.4970 -0.1031 -2.2824
  915MOL0     H26218   9.686   0.191   9.567 -1.3460 -0.6943 -3.0513
  915MOL0     H26219   9.763  -0.143   9.788 -0.2611 -0.2434  1.4612
  915MOL0     H26220   9.775  -0.203  10.043  3.4914  0.0094  0.6286
  915MOL0     H26221   9.691  -0.095  10.137  0.1651  3.3555 -0.1766
  915MOL0     H26222   9.986  -0.122  10.097  1.0495  0.8880 -0.0067
  915MOL0     H26223   9.930   0.047  10.128  0.2459 -0.5364  1.0665
  915MOL0     H26224   9.841  -0.020  10.335  2.2647  0.6709  1.9337
  915MOL0     H26225   9.853  -0.203  10.294  3.0420 -0.8893  0.1214
  915MOL0     H26226  10.080  -0.009  10.324  1.8671 -1.4831 -0.0911
  915MOL0     H26227  10.019  -0.091  10.464 -1.6715  0.8239  0.0291
  915MOL0     H26228  10.281  -0.308  10.111 -2.5235  0.8530  0.4959
  915MOL0     H26229  10.592  -0.388  10.096 -0.6296 -1.8427  0.8129
  915MOL0     H26230  10.590  -0.236  10.002 -1.1857  1.4837  0.6723
  915MOL0     H26231  10.451  -0.339   9.997  0.6146 -0.3602  0.8168
  915MOL0     H26232  10.941  -0.019  10.174 -2.2122  0.0986  2.4252
  915MOL0     H26233  11.190  -0.060  10.228 -1.5926  2.0063 -0.3130
  915MOL0     H26234  11.342  -0.445  10.405 -0.8452 -0.7490 -0.8339
  915MOL0     H26235  11.353  -0.465  10.227 -0.7247 -0.1271  0.0426
  915MOL0     H26236  11.539  -0.296  10.404  1.9004  0.0677 -0.4717
  915MOL0     H26237  11.573  -0.470  10.370  1.0572  0.1131 -0.5320
  915MOL0     H26238  11.548  -0.232  10.169 -1.0366 -0.3137 -1.3162
  915MOL0     H26239  11.547  -0.412  10.131  3.5843 -1.1044 -0.1362
  915MOL0     H26240  11.768  -0.430  10.226 -1.2411  0.2527  0.2901
  915MOL0     H26241  11.789  -0.258  10.255  1.2585  0.2960 -1.2771
  915MOL0     H26242  11.738  -0.397   9.989  2.4296 -2.4533  1.5876
  915MOL0     H26243  11.758  -0.219  10.009 -1.2874  1.7140  4.0553
  915MOL0     H26244  11.990  -0.266  10.079 -1.2561  1.1053  0.4802
  915MOL0     H26245  11.969  -0.322   9.926  0.6381 -1.1659  0.2766
  915MOL0     H26246  11.900  -0.554  10.062 -1.1416  1.3515 -0.9914
  915MOL0     H26247  12.019  -0.487  10.174  2.4154 -2.3871 -1.2825
  915MOL0     H26248  12.169  -0.428   9.997 -2.8358  1.9585  1.1629
  915MOL0     H26249  12.068  -0.523   9.885 -0.5493  3.8028 -0.5424
  915MOL0     H26250  11.095  -0.468  10.338  0.2059 -0.0913 -1.1680
  915MOL0     H26251  10.863  -0.426  10.281 -1.6406  1.5055 -0.4746
  915MOL0     H26252  10.488  -0.009  10.439  0.4558  1.8317 -1.5413
  915MOL0     H26253  10.258  -0.036  10.449 -2.3315 -0.0912 -1.8602
  915MOL0     H26254   8.676   0.159   9.312 -3.0893 -0.1559  1.9981
  915MOL0     H26255   8.457   0.279   9.322 -1.9219  0.1131 -0.2238
  915MOL0     H26256   8.126   0.517   9.174  0.5550 -0.2588  0.0116
  915MOL0     H26257   7.899   0.623   9.162 -0.6804 -1.2796  1.9326
  915MOL0     H26258   7.544   0.422   8.979 -0.4154  0.1910  0.4499
  915MOL0     H26259   7.622   0.419   9.130 -0.3209 -3.2186 -2.9260
  915MOL0     H26260   7.557   0.670   9.155  2.8040  0.5344 -2.1505
  915MOL0     H26261   7.413   0.559   9.132  0.1920  1.4965  0.9029
  915MOL0     H26262   7.415   0.779   9.017 -0.7077 -1.8022  2.9667
  915MOL0     H26263   7.539   0.711   8.908 -1.1436  0.9841 -0.3325
  915MOL0     H26264   7.251   0.607   8.955 -0.6352  1.4075  0.0789
  915MOL0     H26265   7.369   0.517   8.872  0.4509  1.2047  0.6098
  915MOL0     H26266   7.280   0.808   8.571  1.6973  0.0217 -0.2002
  915MOL0     H26267   7.771   0.325   8.881 -0.2019  0.7283  0.1806
  915MOL0     H26268   8.096   0.130   8.884  0.6973 -0.1657  0.3895
  915MOL0     H26269   7.927   0.097   8.939 -1.2038  0.5764  1.5408
  915MOL0     H26270   7.964   0.175   8.783 -4.4820  0.5136  1.9934
  916MOL0     O26271   9.468   5.985   3.401 -0.2842  0.3828  0.1659
  916MOL0     C26272   9.407   5.962   3.510 -0.8087 -0.6542  0.1770
  916MOL0     O26273   9.461   5.892   3.614 -1.1904  0.1173 -0.0046
  916MOL0     C26274   9.589   5.836   3.600  0.4479 -0.9207  0.0120
  916MOL0     C26275   9.706   5.918   3.581  0.4976  0.2657  0.7752
  916MOL0     C26276   9.837   5.852   3.579  0.3276 -0.3675  1.1513
  916MOL0     C26277   9.850   5.713   3.588  0.6876  0.2565 -0.2616
  916MOL0     O26278   9.968   5.638   3.599 -1.0349  0.2293  0.1283
  916MOL0     C26279  10.080   5.725   3.605 -0.0851 -0.0030  0.2692
  916MOL0     C26280  10.217   5.671   3.631 -0.2073 -0.0847 -0.1284
  916MOL0     C26281  10.193   5.568   3.740  0.3659  0.1499  0.6098
  916MOL0     C26282  10.331   5.520   3.792 -0.2577 -0.2650 -0.7089
  916MOL0     C26283  10.311   5.394   3.883  0.5991 -0.3501  0.8804
  916MOL0     C26284  10.427   5.358   3.985  0.3686  0.7397  0.7962
  916MOL0     C26285  10.474   5.478   4.075  0.2983  0.2958  0.2756
  916MOL0     C26286  10.565   5.426   4.186  0.7347  1.5938  0.4930
  916MOL0     N26287  10.621   5.545   4.259  0.6382  0.5410 -0.0294
  916MOL0     C26288  10.553   5.657   4.306 -0.0658 -0.2719  0.2078
  916MOL0     C26289  10.646   5.733   4.379 -0.0966  0.1779  0.9655
  916MOL0     C26290  10.631   5.870   4.439  0.4458  0.6398  0.7636
  916MOL0     C26291  10.736   5.976   4.407 -0.0501  0.4227  0.7359
  916MOL0     C26292  10.736   6.109   4.487 -0.7820 -0.9821  0.3728
  916MOL0     C26293  10.610   6.190   4.453 -0.4683  0.1187 -0.0278
  916MOL0     O26294  10.487   6.136   4.507  0.5045  0.1261  0.1871
  916MOL0     C26295  10.361   6.172   4.458 -0.1177 -0.5506  0.2288
  916MOL0     C26296  10.340   6.244   4.342 -0.2138  0.1815 -0.0772
  916MOL0     C26297  10.218   6.276   4.282 -1.5988 -0.0931 -0.4097
  916MOL0     C26298  10.225   6.381   4.172 -0.4006 -0.4040 -0.0958
  916MOL0     C26299  10.109   6.212   4.341  0.2698 -0.0650 -0.0108
  916MOL0     C26300   9.976   6.218   4.283  1.3348  0.3229  0.5396
  916MOL0     O26301   9.868   6.211   4.368 -0.5907 -0.7872 -0.6129
  916MOL0     C26302   9.737   6.198   4.330  0.5304 -0.1783 -0.1299
  916MOL0     C26303   9.645   6.103   4.395  0.3679  0.1475 -0.5696
  916MOL0     C26304   9.503   6.104   4.364 -0.1603 -0.0875  0.9623
  916MOL0     C26305   9.454   6.190   4.270  0.2518  0.5295  0.7075
  916MOL0     O26306   9.318   6.191   4.239  0.0217  0.7237  0.0930
  916MOL0     C26307   9.244   6.297   4.296 -0.3110  0.0267  0.4233
  916MOL0     C26308   9.092   6.262   4.318 -0.0748  0.1612  0.2004
  916MOL0     C26309   9.027   6.276   4.180  0.1796 -0.0214 -0.8460
  916MOL0     C26310   8.881   6.284   4.188  0.1786 -0.3726  0.0325
  916MOL0     C26311   8.820   6.326   4.054 -0.1717 -0.0270 -0.4800
  916MOL0     C26312   8.674   6.278   4.044  0.4903 -0.1266  0.2518
  916MOL0     C26313   8.578   6.366   4.134  0.7388 -0.3634 -0.2258
  916MOL0     C26314   8.435   6.343   4.098  0.0070  0.0394 -0.1438
  916MOL0    Cl26315   8.388   6.171   4.099 -0.0306 -0.2502  0.1017
  916MOL0     C26316   9.536   6.276   4.202 -0.7149 -0.7964  0.1406
  916MOL0     C26317   9.676   6.277   4.229 -0.6879 -0.5035 -0.8209
  916MOL0     O26318   9.969   6.223   4.162  0.8354 -0.3881 -0.4629
  916MOL0     C26319  10.124   6.142   4.461  0.2704  0.7509  0.0907
  916MOL0     C26320  10.247   6.122   4.518  0.5225  0.2977  0.0352
  916MOL0     N26321  10.770   5.660   4.370 -0.5167 -0.3947 -0.2629
  916MOL0     N26322  10.749   5.558   4.297 -0.0996 -0.8494 -1.0076
  916MOL0     C26323   9.725   5.637   3.599 -0.2225 -0.0715 -0.0133
  916MOL0     C26324   9.603   5.701   3.608  0.7669 -0.6206 -0.5046
  916MOL0     C26325   9.267   6.015   3.525 -0.1062 -0.5262 -0.4306
  916MOL0     C26326   9.225   6.036   3.651 -0.8552  0.2699 -0.5678
  916MOL0     C26327   9.101   6.080   3.681  0.4292 -0.0281 -0.2217
  916MOL0     C26328   9.012   6.107   3.576  0.6447  0.1867  0.0271
  916MOL0     O26329   8.889   6.167   3.596  0.1217 -0.9085 -0.4641
  916MOL0     C26330   8.791   6.102   3.671  0.1944  0.0547 -0.7447
  916MOL0     C26331   8.651   6.142   3.628  0.3839 -0.6103 -0.2217
  916MOL0     C26332   8.596   6.094   3.494 -0.2118  0.4544 -0.4062
  916MOL0     C26333   8.578   6.204   3.394 -0.0152 -0.2832  0.1734
  916MOL0     C26334   8.705   6.272   3.363 -0.2787  0.8352  0.6185
  916MOL0     C26335   8.805   6.339   3.327  0.0734  0.8493 -0.3692
  916MOL0     C26336   9.050   6.087   3.443  0.6463 -0.0045 -0.9245
  916MOL0     C26337   9.176   6.039   3.415 -0.6634 -0.0823 -0.0164
  916MOL0     C26338   9.216   6.007   3.275  0.1936 -0.8083  0.1494
  916MOL0     H26339   9.697   6.026   3.577 -1.4449  0.0908 -1.0320
  916MOL0     H26340   9.917   5.923   3.564 -1.1343  1.3649  1.1639
  916MOL0     H26341  10.060   5.780   3.698 -1.1866 -1.6925  1.0864
  916MOL0     H26342  10.090   5.792   3.519  0.2934 -0.0382  0.2879
  916MOL0     H26343  10.263   5.616   3.549  2.8155  1.8485  0.0763
  916MOL0     H26344  10.286   5.746   3.671 -0.1291 -1.0484  1.6671
  916MOL0     H26345  10.146   5.619   3.824  3.0241  0.9467  1.7036
  916MOL0     H26346  10.133   5.483   3.706  1.3051 -0.9418  1.5792
  916MOL0     H26347  10.397   5.493   3.710  1.2942 -2.1061  1.0542
  916MOL0     H26348  10.380   5.596   3.854  0.5573 -0.9806 -0.4581
  916MOL0     H26349  10.293   5.301   3.828  1.3878 -1.0332  1.7480
  916MOL0     H26350  10.216   5.405   3.936 -0.7379 -1.9880 -1.0252
  916MOL0     H26351  10.390   5.286   4.058  3.8895 -1.1301  0.9382
  916MOL0     H26352  10.519   5.311   3.949  0.2394 -0.8055  2.3730
  916MOL0     H26353  10.382   5.513   4.121 -0.9411 -2.4342  0.0800
  916MOL0     H26354  10.520   5.560   4.019  0.4488 -1.4472 -2.3080
  916MOL0     H26355  10.501   5.364   4.250  0.2800  2.9177  1.3643
  916MOL0     H26356  10.647   5.363   4.150 -2.4651 -1.7531 -1.5087
  916MOL0     H26357  10.445   5.661   4.299 -0.4062 -3.6900  1.7450
  916MOL0     H26358  10.613   5.852   4.545  0.0295  1.7086  0.8862
  916MOL0     H26359  10.539   5.914   4.398  1.8548  3.2941  0.1588
  916MOL0     H26360  10.833   5.926   4.420 -1.4843 -2.8693 -0.1093
  916MOL0     H26361  10.740   5.986   4.299 -0.3486 -2.7020  0.3260
  916MOL0     H26362  10.749   6.086   4.593  0.8221 -1.4519  0.1061
  916MOL0     H26363  10.823   6.172   4.464 -1.3979 -0.5479 -0.8411
  916MOL0     H26364  10.614   6.292   4.493  1.9839  0.3161 -0.6506
  916MOL0     H26365  10.611   6.208   4.345  0.4507  1.2818  0.1586
  916MOL0     H26366  10.432   6.290   4.307  0.5265  2.1164  3.8813
  916MOL0     H26367  10.325   6.400   4.130 -1.8297  1.7329 -2.8576
  916MOL0     H26368  10.175   6.472   4.205  1.3655  0.8155 -0.6285
  916MOL0     H26369  10.167   6.353   4.084 -2.1476  1.9293  0.2428
  916MOL0     H26370   9.673   6.028   4.468 -2.0882  0.9999  1.4039
  916MOL0     H26371   9.444   6.030   4.417 -0.9499 -0.1867 -0.0344
  916MOL0     H26372   9.286   6.322   4.394 -1.6345  2.1282  0.5264
  916MOL0     H26373   9.246   6.385   4.231  2.3889  0.4504  0.9429
  916MOL0     H26374   9.075   6.169   4.373  0.3905  0.1856  0.3940
  916MOL0     H26375   9.045   6.335   4.383  0.5960  0.9402 -0.1733
  916MOL0     H26376   9.045   6.181   4.130 -1.6540  0.2788 -2.1706
  916MOL0     H26377   9.063   6.355   4.113 -2.2293  0.7353 -1.3389
  916MOL0     H26378   8.861   6.358   4.266 -1.0426 -0.3631 -0.2684
  916MOL0     H26379   8.837   6.192   4.228  3.0431 -0.6468  2.9219
  916MOL0     H26380   8.827   6.434   4.045 -0.0098  0.1448  1.3227
  916MOL0     H26381   8.874   6.280   3.971  0.2495  0.7298 -0.6253
  916MOL0     H26382   8.655   6.172   4.063 -1.0756  0.3341  1.5548
  916MOL0     H26383   8.645   6.290   3.939  5.1257 -2.1475 -1.5313
  916MOL0     H26384   8.594   6.473   4.119  0.5621 -0.3066 -0.0123
  916MOL0     H26385   8.589   6.344   4.240 -2.8921  1.2827  0.6514
  916MOL0     H26386   8.417   6.393   4.003 -0.8113  0.1881  0.0800
  916MOL0     H26387   8.379   6.397   4.175  0.1630 -1.1657  0.8549
  916MOL0     H26388   9.495   6.340   4.124  0.4383  1.2640  1.1320
  916MOL0     H26389   9.742   6.345   4.176 -0.9682 -0.1519 -0.7208
  916MOL0     H26390  10.045   6.092   4.518  0.4298 -1.7435 -1.7166
  916MOL0     H26391  10.257   6.062   4.608 -0.8111 -0.6801 -0.4383
  916MOL0     H26392   9.736   5.531   3.619 -2.6155 -0.1656  1.0474
  916MOL0     H26393   9.512   5.642   3.602  1.0058 -0.9123 -1.6625
  916MOL0     H26394   9.296   6.018   3.731 -0.2291  1.0787 -0.9314
  916MOL0     H26395   9.073   6.095   3.785  0.2135  2.2417 -0.5646
  916MOL0     H26396   8.803   5.994   3.655  3.0974  0.5723 -3.0180
  916MOL0     H26397   8.807   6.121   3.777 -4.1801  0.4211  0.0271
  916MOL0     H26398   8.631   6.249   3.638 -0.6365 -0.9076  1.1764
  916MOL0     H26399   8.585   6.098   3.702 -0.3148 -0.2462 -0.6140
  916MOL0     H26400   8.649   6.009   3.451  2.1366  1.7080 -0.1415
  916MOL0     H26401   8.492   6.059   3.501 -1.8419  4.0179 -3.3659
  916MOL0     H26402   8.514   6.287   3.425  0.3555 -0.4406  1.4313
  916MOL0     H26403   8.539   6.155   3.305  0.6124  0.6299 -0.6368
  916MOL0     H26404   8.892   6.398   3.308  1.5262 -0.5382  1.6172
  916MOL0     H26405   8.972   6.106   3.371  0.5044 -0.3599 -0.8678
  916MOL0     H26406   9.272   5.913   3.268 -1.2013 -1.7269  0.8766
  916MOL0     H26407   9.126   5.984   3.216 -0.6360 -0.9667  1.4455
  916MOL0     H26408   9.275   6.086   3.228 -1.0011 -0.1385 -0.2483
  917MOL0     O26409   9.772   9.439   4.572  0.2538 -0.1088  0.5224
  917MOL0     C26410   9.723   9.425   4.685 -0.3465  0.8134 -0.0956
  917MOL0     O26411   9.795   9.389   4.797 -0.1797 -0.3613 -0.0029
  917MOL0     C26412   9.933   9.365   4.780  0.1711  0.3686 -0.1555
  917MOL0     C26413  10.017   9.409   4.888  0.4583  0.0903 -0.4834
  917MOL0     C26414  10.148   9.391   4.899 -0.2114 -0.3087  0.6499
  917MOL0     C26415  10.217   9.334   4.790  0.0511  0.1870 -1.0990
  917MOL0     O26416  10.349   9.319   4.813 -0.1456  0.2542 -0.1691
  917MOL0     C26417  10.435   9.260   4.716  0.0651 -0.0949  0.0114
  917MOL0     C26418  10.581   9.241   4.755 -0.2611  0.0338 -0.9453
  917MOL0     C26419  10.599   9.123   4.857  0.2810 -0.0477  0.2197
  917MOL0     C26420  10.565   9.179   5.000  0.0264  0.2471 -0.1871
  917MOL0     C26421  10.584   9.065   5.099  0.1694  0.5672 -0.6630
  917MOL0     C26422  10.715   8.980   5.102  0.0614 -0.8954 -0.4911
  917MOL0     C26423  10.836   9.059   5.122 -0.6097 -0.2180  0.3457
  917MOL0     C26424  10.955   8.973   5.166 -0.3415  0.2969 -0.7919
  917MOL0     N26425  11.080   9.047   5.152  0.0382 -0.7154  0.1813
  917MOL0     C26426  11.114   9.155   5.233  0.0255  0.4100  0.5114
  917MOL0     C26427  11.237   9.178   5.200 -0.9085 -0.3638  0.0361
  917MOL0     C26428  11.333   9.269   5.270 -0.4838  0.2666  0.4153
  917MOL0     C26429  11.314   9.284   5.421 -0.7280  0.2028 -0.7602
  917MOL0     C26430  11.404   9.396   5.484  0.4678  0.0469 -0.0490
  917MOL0     C26431  11.546   9.354   5.496  0.5581 -0.5208 -0.8121
  917MOL0     O26432  11.611   9.447   5.578 -0.3620 -0.8324 -0.6943
  917MOL0     C26433  11.714   9.408   5.667  0.1915  0.6137 -0.0149
  917MOL0     C26434  11.776   9.519   5.733  0.1011 -0.0536 -0.1842
  917MOL0     C26435  11.898   9.499   5.801  0.6898 -0.7249 -0.2560
  917MOL0     C26436  11.962   9.624   5.869 -0.3487  0.4938  0.1806
  917MOL0     C26437  11.955   9.375   5.810  0.1179  0.3922  0.3974
  917MOL0     C26438  12.085   9.355   5.891  0.7030  0.1187  0.7506
  917MOL0     O26439  12.186   9.449   5.888 -0.7682 -0.6818  0.0342
  917MOL0     C26440  12.305   9.419   5.945 -0.4165 -0.3350 -0.6818
  917MOL0     C26441  12.371   9.509   6.036 -0.1072  0.1695 -0.0722
  917MOL0     C26442  12.495   9.476   6.095  0.1733  0.1284 -0.7942
  917MOL0     C26443  12.556   9.351   6.062  0.3018  0.1996  0.2859
  917MOL0     O26444  12.673   9.305   6.117  0.0519  0.1568  0.0341
  917MOL0     C26445  12.709   9.323   6.255 -0.4202 -0.6161 -0.6816
  917MOL0     C26446  12.863   9.331   6.259 -0.2046 -0.2160  0.4934
  917MOL0     C26447  12.917   9.308   6.397  0.7120 -0.0264  0.9233
  917MOL0     C26448  13.065   9.267   6.393 -0.0541  0.2002 -0.5485
  917MOL0     C26449  13.132   9.257   6.530 -0.7747  1.1128 -0.0572
  917MOL0     C26450  13.285   9.244   6.512  0.2009  0.2193 -0.8283
  917MOL0     C26451  13.370   9.251   6.642  0.0824 -0.0997  0.0406
  917MOL0     C26452  13.512   9.196   6.614  0.0070  0.2462 -0.1786
  917MOL0    Cl26453  13.603   9.298   6.499  0.5608 -0.2327 -0.2256
  917MOL0     C26454  12.500   9.268   5.965  0.4929 -0.7764 -0.0055
  917MOL0     C26455  12.377   9.298   5.914 -0.7930 -0.1907  0.4175
  917MOL0     O26456  12.079   9.259   5.964  0.2459 -0.1306  0.2205
  917MOL0     C26457  11.894   9.262   5.742  0.0677 -1.0662 -0.2134
  917MOL0     C26458  11.775   9.286   5.669 -0.7309  0.2061 -0.0444
  917MOL0     N26459  11.277   9.107   5.083  0.3236 -0.0805 -0.3841
  917MOL0     N26460  11.188   9.018   5.069 -0.2808  0.1099 -0.7306
  917MOL0     C26461  10.146   9.292   4.673  0.5061  0.1625 -1.3492
  917MOL0     C26462  10.007   9.297   4.672  0.8458  0.7422 -0.2110
  917MOL0     C26463   9.576   9.442   4.719  0.9127  0.5604 -0.4722
  917MOL0     C26464   9.520   9.346   4.804 -0.3403  0.3763 -0.2779
  917MOL0     C26465   9.386   9.347   4.842 -0.2256  0.3691  1.0291
  917MOL0     C26466   9.297   9.438   4.779 -0.0295 -0.0538  0.2415
  917MOL0     O26467   9.169   9.417   4.811 -0.0122  0.3142  0.4761
  917MOL0     C26468   9.066   9.483   4.734 -0.0055  0.3257 -0.3297
  917MOL0     C26469   9.029   9.624   4.804 -0.5885  0.5195  1.1532
  917MOL0     C26470   8.904   9.692   4.755  0.2719  0.6362 -0.1143
  917MOL0     C26471   8.796   9.684   4.864  0.1093  0.6354 -0.5170
  917MOL0     C26472   8.735   9.546   4.872 -1.2736  0.9044 -0.0720
  917MOL0     C26473   8.682   9.437   4.873  1.0045 -0.1556 -0.1192
  917MOL0     C26474   9.347   9.531   4.691 -0.9954  0.0479 -0.0453
  917MOL0     C26475   9.489   9.535   4.656  1.3983  0.5049 -0.5467
  917MOL0     C26476   9.535   9.626   4.545  0.7402  0.3743 -0.3035
  917MOL0     H26477   9.983   9.484   4.958 -0.5320  0.4069 -1.2747
  917MOL0     H26478  10.192   9.423   4.993 -2.0832  2.7530  0.6443
  917MOL0     H26479  10.432   9.319   4.624  4.2480  0.7416  0.1765
  917MOL0     H26480  10.400   9.159   4.692  2.0943 -0.2442 -2.9111
  917MOL0     H26481  10.634   9.223   4.661  0.7240  1.2490 -0.6448
  917MOL0     H26482  10.626   9.334   4.790 -1.2362  0.0771  0.2591
  917MOL0     H26483  10.524   9.046   4.835  0.9727  0.1146 -3.1129
  917MOL0     H26484  10.698   9.081   4.837 -1.0232 -2.9446 -0.6873
  917MOL0     H26485  10.632   9.260   5.029  1.4588 -1.3755  1.2323
  917MOL0     H26486  10.462   9.216   4.996 -0.3977 -0.8896 -0.1064
  917MOL0     H26487  10.500   8.995   5.088 -0.4474  1.2681 -0.4563
  917MOL0     H26488  10.563   9.098   5.201  0.0801 -2.1638  0.2897
  917MOL0     H26489  10.717   8.914   5.189  4.2606 -0.8960 -0.3807
  917MOL0     H26490  10.714   8.921   5.010 -0.3339 -2.5190  0.5116
  917MOL0     H26491  10.819   9.136   5.198 -1.2818 -0.1757  0.1657
  917MOL0     H26492  10.857   9.114   5.030  0.2067 -0.4655  0.3829
  917MOL0     H26493  10.936   8.944   5.270 -3.5608 -1.1676 -1.6458
  917MOL0     H26494  10.964   8.882   5.107 -1.5263 -0.5311  0.2363
  917MOL0     H26495  11.050   9.200   5.308 -3.2195 -1.1158 -1.1058
  917MOL0     H26496  11.336   9.371   5.231  1.9738  0.6154  1.2987
  917MOL0     H26497  11.432   9.225   5.252 -0.5857 -0.0973  0.7365
  917MOL0     H26498  11.211   9.313   5.441 -0.8949 -1.6918  1.6610
  917MOL0     H26499  11.319   9.187   5.473 -0.4831  1.8634  2.5407
  917MOL0     H26500  11.387   9.485   5.422 -1.7578 -1.8264 -2.3717
  917MOL0     H26501  11.366   9.415   5.585  3.8650  2.5369  0.9188
  917MOL0     H26502  11.551   9.256   5.545  0.6085 -0.2492 -0.2612
  917MOL0     H26503  11.595   9.347   5.398  1.7106  1.9943 -0.4901
  917MOL0     H26504  11.729   9.615   5.714  0.5219  0.1080 -0.4175
  917MOL0     H26505  12.039   9.660   5.800  0.3843 -1.4114 -0.0616
  917MOL0     H26506  11.995   9.599   5.970 -2.3227  0.7145  0.9207
  917MOL0     H26507  11.892   9.705   5.892  0.4362  1.3368 -0.3395
  917MOL0     H26508  12.318   9.602   6.051 -0.9360 -0.6180  2.5418
  917MOL0     H26509  12.554   9.534   6.165 -1.7975  0.0326  1.0636
  917MOL0     H26510  12.663   9.410   6.301 -0.4966 -0.6516 -0.6901
  917MOL0     H26511  12.681   9.234   6.312  0.1396 -0.5708 -0.3305
  917MOL0     H26512  12.911   9.256   6.195  0.6524 -1.1823  2.2206
  917MOL0     H26513  12.888   9.434   6.230 -3.6643  1.2199  2.0551
  917MOL0     H26514  12.864   9.224   6.443  0.1868  1.0959  2.4273
  917MOL0     H26515  12.887   9.384   6.469  0.7175 -0.3336  1.2541
  917MOL0     H26516  13.121   9.338   6.331  0.6617 -0.5787 -0.8217
  917MOL0     H26517  13.075   9.165   6.353 -0.1669 -0.9496  2.1294
  917MOL0     H26518  13.109   9.346   6.589 -1.5221 -0.6318  2.4239
  917MOL0     H26519  13.102   9.165   6.581 -1.1689  1.0205 -0.4515
  917MOL0     H26520  13.332   9.307   6.436  1.2907 -1.9632 -2.0211
  917MOL0     H26521  13.304   9.145   6.471 -2.3441 -0.9004  0.4477
  917MOL0     H26522  13.321   9.187   6.716  1.0780 -3.5015 -1.9937
  917MOL0     H26523  13.377   9.357   6.669  1.2428  0.4566 -2.2180
  917MOL0     H26524  13.500   9.088   6.597 -0.6068  0.6481 -2.6060
  917MOL0     H26525  13.565   9.204   6.709 -3.5246 -2.3185  2.3012
  917MOL0     H26526  12.557   9.185   5.925 -0.7944 -1.4816 -0.4397
  917MOL0     H26527  12.336   9.240   5.832 -2.6005  0.6487  0.6677
  917MOL0     H26528  11.939   9.163   5.751  1.4191 -0.4404  0.2498
  917MOL0     H26529  11.736   9.205   5.608 -0.0860 -1.4264  1.6092
  917MOL0     H26530  10.198   9.249   4.588 -0.9160  0.0690 -2.2038
  917MOL0     H26531   9.955   9.267   4.582 -2.5310  2.3587  1.0220
  917MOL0     H26532   9.579   9.265   4.845 -0.2410  0.9083  0.6553
  917MOL0     H26533   9.353   9.258   4.893  1.8346 -1.3700 -0.4633
  917MOL0     H26534   9.096   9.487   4.629  1.0698  2.5671  0.0042
  917MOL0     H26535   8.970   9.431   4.739  0.8435 -1.3192 -0.6603
  917MOL0     H26536   9.117   9.684   4.781 -0.2385  0.0051  1.1319
  917MOL0     H26537   9.028   9.610   4.912  0.1202 -1.8314  0.9047
  917MOL0     H26538   8.921   9.795   4.722  4.4449 -0.3297 -1.6540
  917MOL0     H26539   8.875   9.634   4.667 -0.5159  1.0068 -0.0992
  917MOL0     H26540   8.712   9.749   4.837 -0.9642 -0.2043  0.6571
  917MOL0     H26541   8.833   9.722   4.960  0.1516  3.2197 -1.4947
  917MOL0     H26542   8.640   9.339   4.863 -0.3157  0.3067  0.6759
  917MOL0     H26543   9.274   9.599   4.648 -0.8688 -0.7728 -1.6367
  917MOL0     H26544   9.475   9.717   4.540  0.4925  0.2229 -0.0651
  917MOL0     H26545   9.642   9.651   4.552  1.1645 -0.8859 -1.7830
  917MOL0     H26546   9.526   9.569   4.452 -1.1651  1.8396 -1.0947
  918MOL0     O26547   1.041   8.738   3.164  0.1222  0.3119  0.2534
  918MOL0     C26548   1.149   8.680   3.174 -0.4908  0.3277 -0.0506
  918MOL0     O26549   1.262   8.704   3.097 -0.0898 -0.4855 -0.5212
  918MOL0     C26550   1.265   8.778   2.980 -0.0112  0.2668  1.2050
  918MOL0     C26551   1.158   8.831   2.905  0.2805  0.3558  0.9768
  918MOL0     C26552   1.188   8.890   2.780 -0.1156 -0.1732  0.6034
  918MOL0     C26553   1.313   8.898   2.720 -0.3554 -0.4914  0.1243
  918MOL0     O26554   1.315   8.944   2.586  0.2267 -0.1325 -0.1154
  918MOL0     C26555   1.439   8.990   2.528  0.9174 -0.3193 -0.3780
  918MOL0     C26556   1.418   9.043   2.393 -0.3646 -0.0410  0.2930
  918MOL0     C26557   1.548   9.105   2.344  0.1919 -0.5735  0.6826
  918MOL0     C26558   1.529   9.145   2.200 -0.3270 -0.5994  0.0917
  918MOL0     C26559   1.663   9.136   2.120 -0.2604  0.2416 -0.8931
  918MOL0     C26560   1.772   9.228   2.178  0.2632 -0.4531 -0.3326
  918MOL0     C26561   1.907   9.206   2.104  0.1367  0.5333 -0.4006
  918MOL0     C26562   1.995   9.338   2.125  0.0979  0.6117  0.2528
  918MOL0     N26563   2.118   9.324   2.040 -0.2030 -0.3577 -0.1050
  918MOL0     C26564   2.143   9.384   1.916 -1.2347 -0.6550 -0.3267
  918MOL0     C26565   2.272   9.354   1.885  0.2885 -0.6861  0.3062
  918MOL0     C26566   2.354   9.415   1.770 -0.1614 -0.5348 -0.3550
  918MOL0     C26567   2.450   9.524   1.804 -0.1846 -0.1055 -0.4431
  918MOL0     C26568   2.566   9.480   1.893  0.7715 -0.0793 -0.1200
  918MOL0     C26569   2.670   9.387   1.839 -0.0724  0.2476 -0.2305
  918MOL0     O26570   2.763   9.475   1.769  0.2113 -0.3422  0.1720
  918MOL0     C26571   2.865   9.424   1.695 -0.2648 -0.3045  0.0896
  918MOL0     C26572   2.887   9.293   1.657  0.2899 -0.3259  0.1178
  918MOL0     C26573   2.998   9.249   1.585  0.2151  1.0006 -0.3945
  918MOL0     C26574   3.002   9.099   1.559  0.4065  1.2701  0.9051
  918MOL0     C26575   3.094   9.345   1.535 -0.1400 -0.1890 -0.2145
  918MOL0     C26576   3.211   9.319   1.449 -0.5190  0.7564  0.4975
  918MOL0     O26577   3.264   9.435   1.397 -0.0224  0.4733 -0.3944
  918MOL0     C26578   3.349   9.423   1.301 -0.7110  0.0889 -0.6157
  918MOL0     C26579   3.486   9.418   1.326  0.1034 -0.5002 -0.1597
  918MOL0     C26580   3.582   9.401   1.223 -0.4467 -0.7482  0.2128
  918MOL0     C26581   3.548   9.394   1.093  0.2684 -0.3931  0.4047
  918MOL0     O26582   3.633   9.372   0.983  0.8988 -0.7600 -0.0702
  918MOL0     C26583   3.762   9.426   0.987  0.1103  0.1917  0.0037
  918MOL0     C26584   3.834   9.445   0.857  0.1453  0.1123  0.6876
  918MOL0     C26585   3.988   9.416   0.849 -0.3647 -0.1221  0.1276
  918MOL0     C26586   4.052   9.510   0.744 -0.0096 -0.2312  0.2698
  918MOL0     C26587   4.200   9.488   0.711 -0.4662 -0.2761  0.6733
  918MOL0     C26588   4.238   9.550   0.584  0.0458 -0.4267  0.9720
  918MOL0     C26589   4.383   9.547   0.525  0.0416 -0.6348 -0.4372
  918MOL0     C26590   4.503   9.579   0.611  0.1743  0.1416 -0.2061
  918MOL0    Cl26591   4.654   9.528   0.533 -0.0698  0.8069 -0.4688
  918MOL0     C26592   3.411   9.395   1.065 -0.4772 -0.6511 -0.3444
  918MOL0     C26593   3.315   9.400   1.169 -0.0274 -0.3585 -0.2624
  918MOL0     O26594   3.240   9.202   1.416 -0.7702 -0.5997 -0.1294
  918MOL0     C26595   3.061   9.481   1.570  0.3282  0.6863  0.3347
  918MOL0     C26596   2.953   9.520   1.650 -0.9729 -0.2239 -1.0225
  918MOL0     N26597   2.314   9.260   1.978 -0.5445 -0.2560 -0.2038
  918MOL0     N26598   2.224   9.250   2.068 -0.3439 -0.2414 -0.4712
  918MOL0     C26599   1.420   8.861   2.806 -0.5440  0.5112  0.2426
  918MOL0     C26600   1.395   8.803   2.929 -1.0260 -0.2281  0.4411
  918MOL0     C26601   1.169   8.593   3.290 -0.6339  0.2845 -0.9420
  918MOL0     C26602   1.267   8.485   3.278 -0.4372  0.1163 -0.4766
  918MOL0     C26603   1.286   8.395   3.390  0.2519  1.0309 -0.2421
  918MOL0     C26604   1.214   8.416   3.511  0.2752  0.0770  0.7991
  918MOL0     O26605   1.225   8.344   3.625  0.4050  0.0973 -0.4966
  918MOL0     C26606   1.248   8.204   3.614 -0.5477 -0.2889  0.1100
  918MOL0     C26607   1.149   8.120   3.704  0.1690 -0.8908 -0.5226
  918MOL0     C26608   1.010   8.126   3.654  0.3215 -0.8234 -0.4916
  918MOL0     C26609   0.916   8.067   3.754  0.0923 -0.1541 -0.5559
  918MOL0     C26610   0.773   8.081   3.714 -0.2226 -0.3649  1.1541
  918MOL0     C26611   0.654   8.088   3.695  1.3902  1.4313 -0.6376
  918MOL0     C26612   1.122   8.522   3.512 -0.1049 -0.4401  0.3467
  918MOL0     C26613   1.089   8.603   3.405  0.0051  0.6367  0.3243
  918MOL0     C26614   0.970   8.691   3.432 -0.1488 -0.5118 -0.3891
  918MOL0     H26615   1.056   8.813   2.937  0.1862 -1.4481 -0.1992
  918MOL0     H26616   1.109   8.926   2.716  3.2614  3.0291 -2.1954
  918MOL0     H26617   1.523   8.920   2.528  1.7353  0.4582 -3.9003
  918MOL0     H26618   1.469   9.077   2.587 -3.1110  2.0756 -1.4807
  918MOL0     H26619   1.387   8.967   2.321 -2.6552  0.4872  0.6394
  918MOL0     H26620   1.344   9.123   2.405  0.1932  0.3457  1.2599
  918MOL0     H26621   1.569   9.197   2.401 -1.3460  1.3649 -1.6664
  918MOL0     H26622   1.623   9.026   2.349  0.3119 -0.4509  0.8471
  918MOL0     H26623   1.460   9.079   2.148 -2.0064  2.1251 -1.3538
  918MOL0     H26624   1.483   9.244   2.197 -1.8451 -1.1718  2.1846
  918MOL0     H26625   1.641   9.170   2.018  0.3646  2.9971 -0.1891
  918MOL0     H26626   1.696   9.032   2.117 -0.8774 -0.2567  3.3239
  918MOL0     H26627   1.744   9.333   2.162  0.4190 -0.1175  1.4368
  918MOL0     H26628   1.782   9.218   2.286  0.0520  2.1615  0.0133
  918MOL0     H26629   1.894   9.184   1.998  0.0157  0.7437 -0.4297
  918MOL0     H26630   1.955   9.117   2.145 -0.5951 -0.2883 -1.3054
  918MOL0     H26631   1.939   9.427   2.096  1.4495  1.4314  0.0827
  918MOL0     H26632   2.025   9.361   2.228  1.3316  0.8032 -0.1285
  918MOL0     H26633   2.083   9.452   1.856 -2.3999 -1.5165 -0.1781
  918MOL0     H26634   2.289   9.459   1.694  3.2509  0.2706 -3.0535
  918MOL0     H26635   2.410   9.336   1.718  0.1371  0.0952 -1.0105
  918MOL0     H26636   2.492   9.574   1.716  1.6342 -1.1181 -0.2093
  918MOL0     H26637   2.399   9.599   1.866  0.6585  0.1425 -0.0337
  918MOL0     H26638   2.612   9.569   1.937 -2.9271  2.4341 -0.8655
  918MOL0     H26639   2.513   9.422   1.969 -1.0681 -2.1188 -2.7578
  918MOL0     H26640   2.709   9.321   1.916 -1.4362  0.0429  0.3075
  918MOL0     H26641   2.626   9.318   1.767 -1.5783 -0.1789  1.0601
  918MOL0     H26642   2.818   9.214   1.687 -0.6154  0.4784  0.1903
  918MOL0     H26643   3.063   9.034   1.622  0.8164 -1.0342 -1.6676
  918MOL0     H26644   3.019   9.075   1.453 -0.6111  0.5269  0.8977
  918MOL0     H26645   2.903   9.054   1.570 -0.1629  1.0276 -3.4398
  918MOL0     H26646   3.525   9.428   1.426  0.1126  2.3270 -0.3642
  918MOL0     H26647   3.683   9.383   1.258 -0.0958 -1.0613 -0.9022
  918MOL0     H26648   3.775   9.525   1.032 -0.7318 -0.8359  2.7335
  918MOL0     H26649   3.818   9.353   1.047 -0.2484 -0.3935 -0.3654
  918MOL0     H26650   3.790   9.367   0.793  0.7001  0.0031  0.4315
  918MOL0     H26651   3.803   9.544   0.824  1.8412  0.9267  1.4354
  918MOL0     H26652   4.001   9.317   0.805  2.9826  0.5102 -0.5632
  918MOL0     H26653   4.041   9.419   0.944 -1.0916  0.8917  0.5168
  918MOL0     H26654   4.041   9.617   0.764 -2.2718 -0.1958 -0.9321
  918MOL0     H26655   4.004   9.490   0.648  0.0979  1.2371 -0.1055
  918MOL0     H26656   4.256   9.547   0.784 -0.1588  3.7862 -2.5252
  918MOL0     H26657   4.221   9.380   0.709 -0.6801 -0.3267 -1.7358
  918MOL0     H26658   4.223   9.658   0.591  0.3605 -0.2157 -1.0443
  918MOL0     H26659   4.182   9.506   0.501  2.9773 -1.5194 -0.5877
  918MOL0     H26660   4.386   9.618   0.442 -1.7622  1.3817  1.1171
  918MOL0     H26661   4.398   9.453   0.471 -0.4209 -0.8509 -0.1906
  918MOL0     H26662   4.482   9.534   0.709 -0.7411  1.3535  0.1827
  918MOL0     H26663   4.510   9.687   0.625 -0.9220  0.3239 -0.9461
  918MOL0     H26664   3.361   9.391   0.969 -2.4437 -0.1311  0.6058
  918MOL0     H26665   3.209   9.397   1.149 -1.1058  2.6082  3.7777
  918MOL0     H26666   3.131   9.559   1.541 -0.4035  1.1762 -0.1205
  918MOL0     H26667   2.937   9.616   1.697 -0.2681 -0.6572  0.1421
  918MOL0     H26668   1.522   8.875   2.773 -1.4785  1.3290 -2.6019
  918MOL0     H26669   1.478   8.753   2.979  1.4207  2.2616 -0.8333
  918MOL0     H26670   1.329   8.479   3.189  1.6033 -0.0684  0.8879
  918MOL0     H26671   1.353   8.313   3.366 -1.7418 -0.3286 -1.4637
  918MOL0     H26672   1.231   8.170   3.511  0.1866  2.0448 -0.8302
  918MOL0     H26673   1.350   8.170   3.636  0.1453  0.6846 -1.4164
  918MOL0     H26674   1.149   8.169   3.802 -4.1404 -0.8486 -0.3444
  918MOL0     H26675   1.180   8.016   3.718  2.1738 -0.0642  1.9278
  918MOL0     H26676   0.990   8.233   3.643  0.4738 -0.9380 -2.1895
  918MOL0     H26677   1.014   8.073   3.558 -0.2915 -0.7453 -0.5625
  918MOL0     H26678   0.925   8.120   3.849 -0.1386 -0.0947 -0.5681
  918MOL0     H26679   0.947   7.964   3.773 -0.0495 -0.1474 -0.2843
  918MOL0     H26680   0.549   8.105   3.678  0.8132  0.6645  1.7570
  918MOL0     H26681   1.070   8.551   3.603  2.3224 -0.1508  1.7327
  918MOL0     H26682   1.003   8.795   3.445  1.6912 -1.0618 -0.3522
  918MOL0     H26683   0.900   8.680   3.349 -2.7387 -1.1403  1.7386
  918MOL0     H26684   0.923   8.669   3.528  2.3814  1.4535  1.4457
  919MOL0     O26685   9.153   6.658   6.590 -0.3874 -0.4279 -0.0661
  919MOL0     C26686   9.095   6.590   6.511 -0.0494  0.4606 -1.5589
  919MOL0     O26687   9.148   6.559   6.384  0.5968 -0.9937  0.0264
  919MOL0     C26688   9.267   6.612   6.337  0.5094  0.2574 -0.7814
  919MOL0     C26689   9.348   6.525   6.271 -0.5256  0.8537  0.2561
  919MOL0     C26690   9.478   6.570   6.218 -0.4189  0.8768  0.4149
  919MOL0     C26691   9.520   6.699   6.229  0.0155 -0.1825 -0.9865
  919MOL0     O26692   9.646   6.728   6.182  0.3281 -0.5359 -0.5081
  919MOL0     C26693   9.724   6.844   6.225  0.6508 -0.2712 -0.6629
  919MOL0     C26694   9.870   6.802   6.211 -0.0675  0.3650 -0.1795
  919MOL0     C26695   9.910   6.773   6.062  0.0701 -0.2492 -0.9314
  919MOL0     C26696  10.059   6.720   6.052  0.2990 -0.5261 -0.0074
  919MOL0     C26697  10.085   6.656   5.912 -0.8445 -0.3952 -0.7637
  919MOL0     C26698  10.217   6.569   5.929  0.7745 -0.3170 -0.1814
  919MOL0     C26699  10.222   6.464   5.812 -0.1929 -0.3637 -0.1942
  919MOL0     C26700  10.249   6.538   5.674 -0.2433 -0.1845 -0.0025
  919MOL0     N26701  10.281   6.440   5.572 -0.9003  0.3218  0.9388
  919MOL0     C26702  10.331   6.468   5.442  0.1974 -0.2407  0.4233
  919MOL0     C26703  10.332   6.351   5.370 -0.1685  0.8913 -0.7920
  919MOL0     C26704  10.375   6.324   5.229  0.5408 -0.5996 -0.4105
  919MOL0     C26705  10.517   6.363   5.186  0.2854 -0.6742 -1.0489
  919MOL0     C26706  10.539   6.514   5.151 -0.6675  0.0392  0.5658
  919MOL0     C26707  10.672   6.538   5.091  0.3551 -0.4401  0.4703
  919MOL0     O26708  10.689   6.462   4.974  0.3161 -0.2410  0.2849
  919MOL0     C26709  10.794   6.483   4.889  0.2266  0.2641 -0.1790
  919MOL0     C26710  10.903   6.566   4.921  0.3236 -0.4543  0.6816
  919MOL0     C26711  11.008   6.594   4.832 -1.0428 -0.7945 -0.5652
  919MOL0     C26712  11.126   6.664   4.889  0.5548  0.5636  0.3390
  919MOL0     C26713  11.009   6.534   4.704  0.7771  0.7252  0.3984
  919MOL0     C26714  11.120   6.556   4.606  0.4381  0.7924 -0.5449
  919MOL0     O26715  11.149   6.458   4.515 -0.0099  0.0350 -0.4168
  919MOL0     C26716  11.232   6.476   4.406  0.5439  0.0786  0.3183
  919MOL0     C26717  11.254   6.348   4.351 -0.2720 -0.5687 -0.0455
  919MOL0     C26718  11.304   6.336   4.217 -0.2314  0.2822  0.2108
  919MOL0     C26719  11.342   6.453   4.148 -0.4564 -0.1523 -0.1279
  919MOL0     O26720  11.388   6.438   4.019  1.0106 -0.3462 -0.0011
  919MOL0     C26721  11.502   6.515   3.977 -1.1063  0.1558  0.2107
  919MOL0     C26722  11.625   6.485   4.062 -0.2100  0.5004  0.7170
  919MOL0     C26723  11.751   6.554   4.015 -0.8620  0.4562 -0.4000
  919MOL0     C26724  11.864   6.532   4.122 -0.1757 -0.3882 -0.3932
  919MOL0     C26725  12.004   6.569   4.061 -0.9226  0.6178 -0.1904
  919MOL0     C26726  12.111   6.578   4.175 -0.0963 -0.4981 -0.4198
  919MOL0     C26727  12.154   6.446   4.227 -0.3715 -0.5337 -0.1076
  919MOL0     C26728  12.250   6.475   4.349 -0.3613 -0.6249  0.0836
  919MOL0    Cl26729  12.395   6.551   4.266  0.2317 -0.0741 -0.0931
  919MOL0     C26730  11.332   6.583   4.209 -0.1665  0.3058 -0.7110
  919MOL0     C26731  11.275   6.596   4.335 -0.1812 -0.4032  0.1360
  919MOL0     O26732  11.179   6.662   4.616  0.1164 -0.8541  0.1062
  919MOL0     C26733  10.903   6.448   4.677  0.6247  0.7790  0.0348
  919MOL0     C26734  10.807   6.415   4.773 -0.0591 -0.0393 -0.1696
  919MOL0     N26735  10.273   6.259   5.460 -0.6386  0.0492 -0.3213
  919MOL0     N26736  10.239   6.304   5.577  0.2295 -0.6738  0.3364
  919MOL0     C26737   9.427   6.787   6.290 -0.7530  1.0073 -0.3810
  919MOL0     C26738   9.302   6.745   6.340 -0.1265 -0.2439 -0.0525
  919MOL0     C26739   8.964   6.537   6.546  1.5995 -0.4166  0.2156
  919MOL0     C26740   8.883   6.506   6.441 -0.6935  0.1215 -0.1742
  919MOL0     C26741   8.759   6.454   6.472  0.1887  0.2999  0.9729
  919MOL0     C26742   8.703   6.447   6.599 -0.4645  0.5757 -0.5651
  919MOL0     O26743   8.576   6.397   6.602  0.2089  1.1234 -1.0677
  919MOL0     C26744   8.486   6.455   6.695  0.1925 -0.6783  0.5301
  919MOL0     C26745   8.404   6.577   6.625  0.8091 -0.1852 -0.5043
  919MOL0     C26746   8.483   6.706   6.606 -0.4328 -0.4422 -0.7533
  919MOL0     C26747   8.470   6.823   6.704 -0.1640 -0.2288 -0.9217
  919MOL0     C26748   8.345   6.893   6.688  0.2314  0.1951  0.2862
  919MOL0     C26749   8.241   6.960   6.683 -0.3479  0.1532 -0.2372
  919MOL0     C26750   8.781   6.488   6.705 -0.0617 -0.2571  0.5334
  919MOL0     C26751   8.909   6.538   6.683  0.7704  0.4625 -0.4946
  919MOL0     C26752   8.988   6.575   6.803  0.3101 -0.2779 -0.2361
  919MOL0     H26753   9.328   6.419   6.256  2.0115  0.2303  0.9206
  919MOL0     H26754   9.543   6.499   6.167 -2.1179  0.6655 -1.5578
  919MOL0     H26755   9.706   6.863   6.331 -3.0300 -2.8563 -0.6482
  919MOL0     H26756   9.694   6.936   6.174 -0.1560  0.2397  0.6782
  919MOL0     H26757   9.946   6.859   6.265  1.7364  0.3805 -2.5736
  919MOL0     H26758   9.879   6.700   6.250  1.1816 -0.9039 -3.4428
  919MOL0     H26759   9.852   6.690   6.022 -0.6029 -1.1305  1.7067
  919MOL0     H26760   9.900   6.865   6.003  1.3958  0.4796 -0.0771
  919MOL0     H26761  10.137   6.794   6.068 -1.3143  2.2506 -3.5502
  919MOL0     H26762  10.060   6.648   6.134 -2.4269 -0.5593  0.1148
  919MOL0     H26763  10.097   6.730   5.833 -0.9801  0.9110  0.4138
  919MOL0     H26764  10.000   6.590   5.892 -1.8005  1.0529 -1.6278
  919MOL0     H26765  10.309   6.627   5.933 -0.5329  1.7786  1.1015
  919MOL0     H26766  10.213   6.507   6.019  0.8224 -4.0379 -2.5115
  919MOL0     H26767  10.128   6.409   5.802  1.6427 -3.3620 -2.7739
  919MOL0     H26768  10.295   6.386   5.834 -1.1548 -1.2684 -0.1262
  919MOL0     H26769  10.160   6.597   5.650 -0.1030  0.8482  1.8026
  919MOL0     H26770  10.325   6.615   5.688 -1.1752  0.3196  3.1877
  919MOL0     H26771  10.359   6.560   5.393 -0.3270 -0.5652 -0.5033
  919MOL0     H26772  10.313   6.400   5.180 -1.3303 -2.2744 -0.7625
  919MOL0     H26773  10.353   6.220   5.204  3.4171 -1.2017 -0.7770
  919MOL0     H26774  10.595   6.335   5.258  0.6551  0.8297 -0.8289
  919MOL0     H26775  10.538   6.304   5.096 -2.0935 -0.1343 -2.0229
  919MOL0     H26776  10.461   6.551   5.084  0.2621 -0.6678 -0.9777
  919MOL0     H26777  10.522   6.564   5.246  1.4971 -1.4540  1.8215
  919MOL0     H26778  10.674   6.647   5.074  0.0506 -0.0408  2.7582
  919MOL0     H26779  10.742   6.518   5.172  1.2984  1.4461  0.1811
  919MOL0     H26780  10.920   6.606   5.020  1.5600  2.9509 -0.7612
  919MOL0     H26781  11.126   6.675   4.998 -0.4758  2.2324  0.2050
  919MOL0     H26782  11.127   6.765   4.847 -1.4251  0.4212 -0.1451
  919MOL0     H26783  11.222   6.620   4.862  2.2216  3.3303  1.4030
  919MOL0     H26784  11.226   6.261   4.409  0.0715 -0.6440  0.0074
  919MOL0     H26785  11.299   6.238   4.170 -2.4712 -0.0047  0.9211
  919MOL0     H26786  11.533   6.494   3.874 -0.3004  2.2709 -0.0255
  919MOL0     H26787  11.478   6.622   3.979 -1.4817  0.0636  1.5004
  919MOL0     H26788  11.603   6.513   4.166 -1.9204  1.3495  0.1534
  919MOL0     H26789  11.638   6.376   4.056  0.8715  0.7122 -2.7022
  919MOL0     H26790  11.734   6.661   4.003 -0.3974  0.5098 -0.5921
  919MOL0     H26791  11.781   6.504   3.922 -0.6086  2.1135 -1.2356
  919MOL0     H26792  11.852   6.429   4.158 -0.1813 -0.8284 -1.6072
  919MOL0     H26793  11.851   6.603   4.205 -1.9112  0.5317 -1.3981
  919MOL0     H26794  12.038   6.498   3.985  0.8662 -2.6300  3.3155
  919MOL0     H26795  11.984   6.665   4.012 -1.5265  1.1073  0.9926
  919MOL0     H26796  12.070   6.631   4.261 -1.1776  0.6608 -1.6017
  919MOL0     H26797  12.189   6.640   4.129  0.1451 -0.6122 -0.1718
  919MOL0     H26798  12.208   6.379   4.159 -0.4934 -1.1450  0.3886
  919MOL0     H26799  12.069   6.391   4.267 -1.5198 -1.8891 -3.9470
  919MOL0     H26800  12.275   6.377   4.391 -3.3430 -0.0420  3.6789
  919MOL0     H26801  12.203   6.532   4.429 -1.6245  1.6759 -2.1644
  919MOL0     H26802  11.364   6.676   4.164  0.7714 -0.3764 -1.4944
  919MOL0     H26803  11.250   6.692   4.379  0.5397  0.4479 -1.2583
  919MOL0     H26804  10.895   6.403   4.579 -3.9656 -0.1685  0.6314
  919MOL0     H26805  10.730   6.342   4.751 -0.6157  0.8676 -1.3452
  919MOL0     H26806   9.462   6.889   6.304  2.1984 -0.0671  0.7664
  919MOL0     H26807   9.234   6.821   6.378 -0.0942  0.7306 -1.8387
  919MOL0     H26808   8.918   6.502   6.339 -0.1636  1.0494 -0.0470
  919MOL0     H26809   8.705   6.407   6.390  1.4881  2.0475 -0.9997
  919MOL0     H26810   8.410   6.377   6.714 -2.0685  0.6939 -2.1597
  919MOL0     H26811   8.533   6.476   6.792 -1.3563  0.2581  1.1333
  919MOL0     H26812   8.307   6.600   6.670  0.3693 -0.7945 -1.1297
  919MOL0     H26813   8.384   6.542   6.524  0.3412  1.5003 -1.0407
  919MOL0     H26814   8.587   6.675   6.605 -0.3498 -0.1701 -0.6228
  919MOL0     H26815   8.474   6.750   6.506  4.4717 -0.7337 -1.5357
  919MOL0     H26816   8.555   6.892   6.709  0.0120 -0.4997  0.1510
  919MOL0     H26817   8.460   6.784   6.806 -0.8464 -1.0499 -1.2937
  919MOL0     H26818   8.158   7.027   6.683 -0.9965 -0.6371  0.2703
  919MOL0     H26819   8.737   6.491   6.804  0.8073  0.5707  0.9128
  919MOL0     H26820   9.091   6.541   6.814  0.8698  0.3564 -2.9009
  919MOL0     H26821   8.996   6.684   6.810  0.9676 -0.1280 -2.5272
  919MOL0     H26822   8.933   6.539   6.891  1.5338 -1.0291  0.2499
  920MOL0     O26823   3.447   6.414   0.996 -0.1310 -0.6956  0.3224
  920MOL0     C26824   3.552   6.380   1.044  0.0357  1.2406 -0.3731
  920MOL0     O26825   3.652   6.332   0.970 -0.3348  0.4902 -0.7214
  920MOL0     C26826   3.633   6.349   0.835  0.0530  0.3047  0.1618
  920MOL0     C26827   3.648   6.473   0.768 -0.3874  0.3741 -0.4610
  920MOL0     C26828   3.644   6.493   0.632  0.3053  0.5857  0.2469
  920MOL0     C26829   3.611   6.384   0.554 -0.3893 -0.8883 -0.2851
  920MOL0     O26830   3.577   6.404   0.423  0.1640  0.0410 -0.6241
  920MOL0     C26831   3.546   6.295   0.340  0.4194 -0.1539  0.4437
  920MOL0     C26832   3.558   6.339   0.192 -0.3142 -0.0544 -0.3292
  920MOL0     C26833   3.701   6.346   0.135  0.2947  0.2047 -0.3926
  920MOL0     C26834   3.747   6.213   0.077  0.2244  0.0623  0.5112
  920MOL0     C26835   3.861   6.213  -0.023 -0.4135  0.3929 -0.3020
  920MOL0     C26836   3.909   6.077  -0.055  0.0813 -0.3197 -0.7376
  920MOL0     C26837   4.024   6.086  -0.152 -0.5863  1.2809 -0.2958
  920MOL0     C26838   4.085   5.945  -0.184  0.3384  0.4454 -0.4614
  920MOL0     N26839   4.182   5.887  -0.088  0.9359 -0.8298  0.2286
  920MOL0     C26840   4.321   5.918  -0.077  0.0511  0.0052 -0.3267
  920MOL0     C26841   4.355   5.841   0.032 -0.2254 -0.5506 -0.3752
  920MOL0     C26842   4.487   5.816   0.089  0.3419 -0.8910  0.6695
  920MOL0     C26843   4.534   5.881   0.210  0.8188  0.2704  0.0140
  920MOL0     C26844   4.476   5.813   0.329  0.6005 -0.4770  0.5080
  920MOL0     C26845   4.551   5.862   0.451 -1.0691 -0.3705  0.1928
  920MOL0     O26846   4.694   5.835   0.447  0.1761 -1.1373  0.8993
  920MOL0     C26847   4.732   5.713   0.482  0.1062  0.0055  0.2072
  920MOL0     C26848   4.658   5.597   0.517 -0.3844  0.0945 -1.1807
  920MOL0     C26849   4.721   5.475   0.556 -0.4588 -0.2031  0.1215
  920MOL0     C26850   4.633   5.359   0.607  0.7393  0.3263 -0.2288
  920MOL0     C26851   4.864   5.458   0.532 -0.3091 -0.4222 -0.3269
  920MOL0     C26852   4.942   5.336   0.548 -0.5119 -0.6741  1.0315
  920MOL0     O26853   5.070   5.338   0.485  0.7880  0.6272 -0.4698
  920MOL0     C26854   5.131   5.223   0.468 -0.1692 -0.3212  0.1655
  920MOL0     C26855   5.268   5.210   0.485 -0.9267 -0.2894 -0.0247
  920MOL0     C26856   5.328   5.083   0.468  0.3791 -0.5066 -0.3510
  920MOL0     C26857   5.258   4.979   0.416 -0.3301  0.5568 -0.2073
  920MOL0     O26858   5.314   4.864   0.378 -0.6097  0.5687 -0.1424
  920MOL0     C26859   5.449   4.825   0.414 -0.7954  0.3415 -0.0066
  920MOL0     C26860   5.544   4.869   0.305  0.2931 -0.2091  0.8174
  920MOL0     C26861   5.658   4.766   0.292 -0.4687 -0.3084  0.2357
  920MOL0     C26862   5.750   4.749   0.411  0.8155 -1.0503 -0.6841
  920MOL0     C26863   5.857   4.652   0.382 -0.6522  0.3157  0.1004
  920MOL0     C26864   5.990   4.689   0.449  0.3648  0.3723  0.1614
  920MOL0     C26865   6.105   4.595   0.403  0.9174 -0.8234 -0.4743
  920MOL0     C26866   6.229   4.641   0.473 -0.1854 -0.4304 -0.2743
  920MOL0    Cl26867   6.297   4.798   0.407 -0.2409 -0.2174  0.1977
  920MOL0     C26868   5.126   4.999   0.378 -0.3970  0.4181 -0.1759
  920MOL0     C26869   5.060   5.106   0.415  0.4382 -0.5255 -0.5648
  920MOL0     O26870   4.899   5.257   0.626  1.1568 -0.8392 -0.0422
  920MOL0     C26871   4.934   5.571   0.487  0.1054  0.7048 -0.8148
  920MOL0     C26872   4.866   5.685   0.467  0.6598 -0.8464 -0.5241
  920MOL0     N26873   4.246   5.792   0.094  0.3282 -0.1045  0.2238
  920MOL0     N26874   4.142   5.821   0.024  0.8098 -0.5596  0.4066
  920MOL0     C26875   3.586   6.263   0.620  0.3592  0.4242 -0.0893
  920MOL0     C26876   3.599   6.243   0.758  0.0774 -0.1892  0.2296
  920MOL0     C26877   3.560   6.368   1.188  0.2535 -0.2397  0.1655
  920MOL0     C26878   3.670   6.313   1.249 -0.1309  0.1605  0.3305
  920MOL0     C26879   3.691   6.307   1.386 -0.8010 -0.3553  0.0823
  920MOL0     C26880   3.602   6.364   1.474  0.3188 -1.0198 -0.6210
  920MOL0     O26881   3.610   6.366   1.613 -0.0125  0.1543 -0.0281
  920MOL0     C26882   3.744   6.363   1.669 -0.3965  0.4941 -0.0422
  920MOL0     C26883   3.735   6.403   1.820 -0.3096 -0.1895 -0.2044
  920MOL0     C26884   3.630   6.329   1.895  0.8752  0.4114  0.8758
  920MOL0     C26885   3.601   6.178   1.848 -0.4300 -0.5078 -0.2206
  920MOL0     C26886   3.523   6.120   1.956 -0.0331  0.4515 -0.2502
  920MOL0     C26887   3.436   6.093   2.034 -0.9273 -0.4280 -0.1176
  920MOL0     C26888   3.490   6.421   1.416  0.3147  0.2267 -0.2245
  920MOL0     C26889   3.463   6.418   1.279  0.2194  0.4045  0.3913
  920MOL0     C26890   3.334   6.477   1.237 -0.1542 -0.1575 -0.1011
  920MOL0     H26891   3.668   6.563   0.825  0.4555 -0.0496 -0.0693
  920MOL0     H26892   3.639   6.593   0.590 -1.2299 -0.2819 -1.8174
  920MOL0     H26893   3.447   6.250   0.348  1.6492 -3.0859  0.4619
  920MOL0     H26894   3.617   6.214   0.359  0.8868  0.1453  0.0285
  920MOL0     H26895   3.501   6.280   0.119 -1.6785  3.0057 -1.9024
  920MOL0     H26896   3.511   6.437   0.189  3.0808  1.7900  1.5997
  920MOL0     H26897   3.701   6.423   0.057  1.0171  0.1600 -0.4436
  920MOL0     H26898   3.770   6.388   0.208 -0.3534  1.0062 -0.2356
  920MOL0     H26899   3.777   6.146   0.158  4.3069  0.9187 -0.0784
  920MOL0     H26900   3.667   6.173   0.014  2.1751  1.0775 -2.9321
  920MOL0     H26901   3.951   6.257   0.020 -0.5988 -2.1435  3.0868
  920MOL0     H26902   3.822   6.263  -0.113 -0.5147  0.8271 -0.0169
  920MOL0     H26903   3.951   6.041   0.040  0.6307 -0.1063 -0.8986
  920MOL0     H26904   3.827   6.011  -0.081 -0.4169 -0.1514  0.3235
  920MOL0     H26905   4.104   6.153  -0.122  1.5647 -2.1674  2.4512
  920MOL0     H26906   3.983   6.129  -0.244 -2.7072  0.0885 -0.0030
  920MOL0     H26907   3.997   5.882  -0.204  0.0511  0.3553  1.0009
  920MOL0     H26908   4.137   5.959  -0.280  0.8855  2.4145  0.0834
  920MOL0     H26909   4.379   5.981  -0.144 -0.4723  2.2813  1.2347
  920MOL0     H26910   4.548   5.858   0.009  0.7190  1.1896  1.9736
  920MOL0     H26911   4.504   5.708   0.087  1.0929 -0.7737 -0.6315
  920MOL0     H26912   4.643   5.878   0.219  0.9216  4.1744  2.3867
  920MOL0     H26913   4.494   5.982   0.195  0.6939 -0.1135 -2.6974
  920MOL0     H26914   4.368   5.826   0.336  0.8515  2.6976 -0.2840
  920MOL0     H26915   4.501   5.707   0.318 -2.2080 -0.8907 -4.0082
  920MOL0     H26916   4.539   5.971   0.443 -1.0756 -0.4420 -0.9734
  920MOL0     H26917   4.498   5.825   0.539 -3.0485 -2.2014 -1.6563
  920MOL0     H26918   4.550   5.609   0.519 -0.4712 -0.6118 -1.4749
  920MOL0     H26919   4.679   5.264   0.577  0.0770  0.2390 -0.9846
  920MOL0     H26920   4.529   5.352   0.574  1.2103 -3.2808 -1.4384
  920MOL0     H26921   4.629   5.375   0.715 -3.7605  1.8188 -0.4423
  920MOL0     H26922   5.339   5.289   0.506 -0.2450 -0.3391 -1.9339
  920MOL0     H26923   5.437   5.082   0.476  0.5103 -1.6343 -1.8489
  920MOL0     H26924   5.482   4.867   0.510  0.2408  3.1570 -1.4728
  920MOL0     H26925   5.448   4.717   0.429  2.3527  0.5241  2.9638
  920MOL0     H26926   5.490   4.883   0.211 -2.2488 -3.5208  1.5637
  920MOL0     H26927   5.579   4.968   0.335  0.5745  0.3117 -1.0926
  920MOL0     H26928   5.718   4.805   0.210 -0.0942  1.0515  1.1285
  920MOL0     H26929   5.609   4.674   0.259 -0.9052 -0.3867  1.0769
  920MOL0     H26930   5.698   4.726   0.504  1.8565  1.4730  0.6178
  920MOL0     H26931   5.787   4.850   0.434 -0.1716 -0.6394 -0.8594
  920MOL0     H26932   5.836   4.550   0.415  1.8350 -0.2285  0.1338
  920MOL0     H26933   5.863   4.661   0.273  0.1461  3.5410  0.3078
  920MOL0     H26934   5.970   4.671   0.555 -3.9045 -2.9234 -0.9082
  920MOL0     H26935   6.008   4.791   0.413 -1.4803 -0.1597 -2.6768
  920MOL0     H26936   6.117   4.605   0.295  3.0206  1.8723 -0.0937
  920MOL0     H26937   6.077   4.492   0.426  1.7983 -0.6281  1.7227
  920MOL0     H26938   6.304   4.565   0.453 -0.2555 -0.5374 -0.1315
  920MOL0     H26939   6.208   4.645   0.581 -3.3871 -0.6478 -0.7849
  920MOL0     H26940   5.065   4.923   0.330 -0.5806  0.1395  0.4843
  920MOL0     H26941   4.955   5.116   0.388  0.1040  0.5166  0.9857
  920MOL0     H26942   5.039   5.564   0.462  0.5112 -2.6936  1.1500
  920MOL0     H26943   4.930   5.769   0.441 -1.0314  0.7300  0.2187
  920MOL0     H26944   3.549   6.186   0.554 -1.1915  1.1270 -0.0720
  920MOL0     H26945   3.582   6.143   0.798  1.4994  0.2462  2.0140
  920MOL0     H26946   3.745   6.269   1.183 -0.8280  1.0368 -1.1020
  920MOL0     H26947   3.785   6.266   1.422 -1.0039 -1.2577 -0.3987
  920MOL0     H26948   3.792   6.267   1.647  0.9217  0.0437  4.0203
  920MOL0     H26949   3.815   6.431   1.621 -0.5449  1.9235  1.6615
  920MOL0     H26950   3.725   6.511   1.829  2.0096  0.0040  0.8805
  920MOL0     H26951   3.833   6.372   1.858 -0.3111 -0.3400 -0.3199
  920MOL0     H26952   3.646   6.328   2.003  2.3011 -1.1304  0.6960
  920MOL0     H26953   3.538   6.385   1.880  2.0023  2.8431  2.4297
  920MOL0     H26954   3.695   6.122   1.841 -1.6685 -2.7310  0.0257
  920MOL0     H26955   3.542   6.173   1.755  0.5282  0.4365 -0.9051
  920MOL0     H26956   3.357   6.064   2.100 -3.5113  1.3930 -2.1941
  920MOL0     H26957   3.417   6.466   1.483 -2.2780 -2.1729 -1.2671
  920MOL0     H26958   3.336   6.562   1.168 -1.8703 -0.6976 -0.8691
  920MOL0     H26959   3.285   6.394   1.186 -1.9698  1.1930 -0.6915
  920MOL0     H26960   3.282   6.513   1.327  0.8488 -1.2922  0.9565
  921MOL0     O26961   3.661   8.801   9.612  0.0081  1.1540 -0.7594
  921MOL0     C26962   3.587   8.839   9.518 -0.5981 -1.3711 -0.4639
  921MOL0     O26963   3.632   8.849   9.386 -0.2355  0.8985 -0.0367
  921MOL0     C26964   3.762   8.824   9.360  0.3546  0.2320  0.5597
  921MOL0     C26965   3.847   8.717   9.400 -0.4871  0.8572  0.0061
  921MOL0     C26966   3.981   8.721   9.370  0.5977 -0.3270  0.3426
  921MOL0     C26967   4.029   8.812   9.274  0.1899  0.4287 -0.2520
  921MOL0     O26968   4.159   8.804   9.252  0.1651 -0.4001  0.0270
  921MOL0     C26969   4.229   8.881   9.155  0.4242 -0.2722 -0.5355
  921MOL0     C26970   4.380   8.835   9.167  0.4309  0.1159  0.0795
  921MOL0     C26971   4.443   8.898   9.038  1.1270  0.0373 -0.5013
  921MOL0     C26972   4.596   8.876   9.041  0.4936 -0.8381  0.0665
  921MOL0     C26973   4.654   8.937   8.908  0.8458 -0.0367  0.0645
  921MOL0     C26974   4.759   8.846   8.841  0.0147  0.1619 -0.2418
  921MOL0     C26975   4.702   8.778   8.708 -0.0729 -0.7773 -0.1812
  921MOL0     C26976   4.801   8.671   8.655  0.1046 -0.5807  0.3775
  921MOL0     N26977   4.938   8.716   8.623 -0.3767 -0.7621  0.3405
  921MOL0     C26978   5.053   8.688   8.691 -0.3074 -0.0349  0.0839
  921MOL0     C26979   5.151   8.771   8.643  0.2097 -0.6029 -0.1157
  921MOL0     C26980   5.302   8.780   8.687  0.0109 -0.1792  0.1622
  921MOL0     C26981   5.392   8.665   8.632  0.5819 -0.8657 -0.5795
  921MOL0     C26982   5.400   8.663   8.484 -0.1185  0.9617 -0.0107
  921MOL0     C26983   5.475   8.532   8.447 -0.0488 -0.9235 -0.1651
  921MOL0     O26984   5.618   8.550   8.469 -0.4246  0.3984  0.0244
  921MOL0     C26985   5.694   8.439   8.452 -0.5400 -0.0724 -0.5319
  921MOL0     C26986   5.655   8.304   8.470  0.5466 -0.2313  0.6964
  921MOL0     C26987   5.746   8.200   8.483  0.7397 -0.4586  0.1611
  921MOL0     C26988   5.689   8.066   8.506 -1.1675  0.2195 -0.0422
  921MOL0     C26989   5.889   8.233   8.469  0.1156  0.0364 -0.6698
  921MOL0     C26990   5.997   8.132   8.482 -0.5859  0.8412  1.1035
  921MOL0     O26991   6.117   8.186   8.501 -0.0684 -0.1303  0.2764
  921MOL0     C26992   6.225   8.113   8.558  0.4921 -0.0429 -0.4373
  921MOL0     C26993   6.344   8.137   8.491 -1.0707 -0.8511  0.1933
  921MOL0     C26994   6.460   8.062   8.516 -0.1696 -0.0788 -0.2306
  921MOL0     C26995   6.460   7.976   8.623 -0.1803  0.9907 -0.0473
  921MOL0     O26996   6.580   7.921   8.667  0.4625 -0.3936  0.2734
  921MOL0     C26997   6.621   7.937   8.802  0.3498  0.3828  0.3528
  921MOL0     C26998   6.762   7.978   8.795 -0.2988 -0.5109  0.2198
  921MOL0     C26999   6.817   8.022   8.928 -0.0414 -0.1445 -0.2156
  921MOL0     C27000   6.952   7.962   8.952 -0.0696  0.0755  0.0493
  921MOL0     C27001   7.003   7.986   9.091  0.0641 -0.1497  0.7898
  921MOL0     C27002   7.145   7.945   9.100  0.0434 -0.5259 -1.0207
  921MOL0     C27003   7.253   8.030   9.027  0.0282 -0.2958 -0.0226
  921MOL0     C27004   7.372   7.951   8.968  0.6851 -0.2749  0.0579
  921MOL0    Cl27005   7.469   7.885   9.091  0.2125  0.2717  0.0855
  921MOL0     C27006   6.342   7.959   8.694 -0.4801  0.9589 -0.0972
  921MOL0     C27007   6.220   8.020   8.657 -0.1004 -0.0812 -0.9332
  921MOL0     O27008   5.971   8.011   8.464 -0.3905  0.2442 -0.0658
  921MOL0     C27009   5.918   8.370   8.440  0.0815 -0.6248  0.7304
  921MOL0     C27010   5.825   8.467   8.426 -0.5554  0.1531  0.5008
  921MOL0     N27011   5.098   8.832   8.531 -0.4378  0.3417 -0.1582
  921MOL0     N27012   4.971   8.799   8.521 -0.3696 -0.4414 -0.4223
  921MOL0     C27013   3.946   8.911   9.228  0.0101  0.7675  0.1149
  921MOL0     C27014   3.815   8.911   9.261  0.0064  0.1104 -0.6679
  921MOL0     C27015   3.445   8.864   9.543 -0.2455  0.8778 -0.4330
  921MOL0     C27016   3.411   8.912   9.671 -0.3577  0.6015 -0.1500
  921MOL0     C27017   3.274   8.925   9.699 -0.3101 -0.4986  0.0867
  921MOL0     C27018   3.179   8.894   9.609  0.0038 -0.0250  0.4382
  921MOL0     O27019   3.051   8.927   9.654 -0.2428 -0.4615  0.4736
  921MOL0     C27020   2.962   8.967   9.552 -0.1506  0.2054  0.1967
  921MOL0     C27021   2.842   9.028   9.625 -0.2765  0.5723  0.3411
  921MOL0     C27022   2.753   8.921   9.689  0.0256  0.6730  0.5590
  921MOL0     C27023   2.639   8.988   9.763 -0.5074  0.5107 -1.0201
  921MOL0     C27024   2.537   8.897   9.823 -0.0624 -0.4278 -0.7534
  921MOL0     C27025   2.454   8.822   9.863  0.0132 -0.3686 -0.4001
  921MOL0     C27026   3.213   8.836   9.488  1.0563 -0.1439  0.4786
  921MOL0     C27027   3.345   8.814   9.456  0.5286 -0.5085 -0.3593
  921MOL0     C27028   3.374   8.737   9.327 -0.8410  0.0148  0.0477
  921MOL0     H27029   3.812   8.632   9.458  1.5183  0.9420  1.4317
  921MOL0     H27030   4.047   8.646   9.413  0.8315  0.9355  2.3079
  921MOL0     H27031   4.218   8.989   9.167  0.8201 -0.3576  0.7086
  921MOL0     H27032   4.193   8.842   9.059 -0.3972 -0.3991 -0.1783
  921MOL0     H27033   4.421   8.874   9.261  0.4327 -0.0135  0.1319
  921MOL0     H27034   4.384   8.726   9.174 -0.7076 -0.0857 -1.8200
  921MOL0     H27035   4.398   8.843   8.954 -0.1652  0.2410  0.0281
  921MOL0     H27036   4.420   9.004   9.023  1.6177  0.2093 -0.0473
  921MOL0     H27037   4.641   8.930   9.124 -2.9298 -3.2308  3.8529
  921MOL0     H27038   4.618   8.769   9.046  0.6435 -0.7410  2.3396
  921MOL0     H27039   4.694   9.038   8.923  0.2458  0.2271 -0.0941
  921MOL0     H27040   4.573   8.952   8.837  1.5026 -0.1061 -0.7219
  921MOL0     H27041   4.851   8.897   8.811  0.1732  0.0414  0.0342
  921MOL0     H27042   4.784   8.757   8.900 -2.7936 -1.1410 -0.8466
  921MOL0     H27043   4.698   8.866   8.642  3.1146 -0.7118 -0.4615
  921MOL0     H27044   4.606   8.727   8.707 -1.4617  1.6269 -2.1233
  921MOL0     H27045   4.804   8.590   8.728 -1.6876 -0.9194  0.1312
  921MOL0     H27046   4.751   8.625   8.569  1.7239 -1.9398  0.1164
  921MOL0     H27047   5.055   8.599   8.754  2.2828 -1.2884 -1.6045
  921MOL0     H27048   5.307   8.793   8.795  1.1091  2.6501 -0.1250
  921MOL0     H27049   5.349   8.864   8.634 -0.6240 -0.6351 -1.1796
  921MOL0     H27050   5.492   8.697   8.660  0.1257 -0.9206  1.2606
  921MOL0     H27051   5.367   8.573   8.685  0.1573 -0.1154  0.5672
  921MOL0     H27052   5.302   8.655   8.435  0.4228 -3.1134 -0.8160
  921MOL0     H27053   5.445   8.755   8.446 -0.4890  1.3396  0.4440
  921MOL0     H27054   5.435   8.453   8.510  0.2493  1.5706  3.4492
  921MOL0     H27055   5.459   8.500   8.344  3.4127 -0.5935 -0.9276
  921MOL0     H27056   5.548   8.284   8.471 -0.0782  2.0966 -2.4568
  921MOL0     H27057   5.676   8.004   8.417 -0.2918 -1.8621  1.1962
  921MOL0     H27058   5.589   8.071   8.551 -0.1683  2.0211  2.1373
  921MOL0     H27059   5.742   8.014   8.586 -0.1290 -1.9796 -2.0611
  921MOL0     H27060   6.345   8.218   8.418 -0.7179 -0.5964  0.4736
  921MOL0     H27061   6.547   8.076   8.452  0.2743 -0.8695  0.1993
  921MOL0     H27062   6.569   8.013   8.862  2.7398  2.2105  0.2408
  921MOL0     H27063   6.617   7.844   8.859 -1.6131 -0.1073 -0.4847
  921MOL0     H27064   6.829   7.904   8.750  0.5858 -1.2823  2.6680
  921MOL0     H27065   6.769   8.067   8.731 -1.2268 -1.0605 -0.6643
  921MOL0     H27066   6.753   8.001   9.014  2.3559 -1.2475  1.4103
  921MOL0     H27067   6.821   8.131   8.927  0.3876 -0.1255  1.2202
  921MOL0     H27068   7.016   8.013   8.879 -0.2373  0.5366  0.2222
  921MOL0     H27069   6.946   7.854   8.933  1.8973 -0.1363  0.4062
  921MOL0     H27070   7.006   8.094   9.109 -0.0595  0.2451 -1.3603
  921MOL0     H27071   6.946   7.927   9.163  2.0974 -3.4837 -0.1167
  921MOL0     H27072   7.152   7.838   9.079 -1.6180 -0.2392 -3.4656
  921MOL0     H27073   7.162   7.958   9.208 -2.3417  0.4449 -0.6910
  921MOL0     H27074   7.296   8.105   9.093  2.9971 -3.4086  1.9595
  921MOL0     H27075   7.213   8.085   8.942  3.3701  1.2357 -0.7368
  921MOL0     H27076   7.423   8.025   8.904 -3.1370  1.6839 -0.9960
  921MOL0     H27077   7.330   7.875   8.902  0.6971  0.4703 -0.8374
  921MOL0     H27078   6.342   7.895   8.781  3.2776 -0.0700 -0.6832
  921MOL0     H27079   6.128   8.004   8.711 -0.0470  0.6199 -0.6249
  921MOL0     H27080   6.017   8.402   8.408 -0.9175 -0.8430 -3.1118
  921MOL0     H27081   5.868   8.567   8.418 -1.5155  0.4259 -5.6652
  921MOL0     H27082   3.969   8.983   9.150 -1.2856  0.7828 -0.2920
  921MOL0     H27083   3.749   8.978   9.206  1.5273  0.9290 -1.5677
  921MOL0     H27084   3.499   8.933   9.731  1.5780 -2.3958 -1.6768
  921MOL0     H27085   3.254   8.961   9.799  0.1406 -0.0384  0.0140
  921MOL0     H27086   3.005   9.045   9.488  0.9109  0.1491  0.8280
  921MOL0     H27087   2.933   8.879   9.493  1.3525  0.7592 -1.4683
  921MOL0     H27088   2.787   9.087   9.551  0.8680 -1.2754 -2.1295
  921MOL0     H27089   2.889   9.092   9.700  0.5448 -0.3140  0.6091
  921MOL0     H27090   2.718   8.850   9.613 -0.5878  2.0481 -0.4862
  921MOL0     H27091   2.809   8.867   9.765 -0.3742  1.0939  1.1616
  921MOL0     H27092   2.578   9.052   9.699 -1.9536  0.0093 -0.1762
  921MOL0     H27093   2.683   9.041   9.848 -3.3550  0.6794  0.4368
  921MOL0     H27094   2.385   8.753   9.906  0.3164 -1.2038 -1.2207
  921MOL0     H27095   3.137   8.805   9.417 -0.7469  0.0124  2.2641
  921MOL0     H27096   3.402   8.800   9.242 -2.2737  1.4725  0.6202
  921MOL0     H27097   3.455   8.666   9.348 -0.4541 -0.0592 -1.5325
  921MOL0     H27098   3.288   8.678   9.295 -1.1132  1.3041 -1.7605
  922MOL0     O27099   9.963   1.072  10.975  0.1494  0.0092 -0.0218
  922MOL0     C27100   9.920   1.111  10.864 -0.2674 -0.3078 -0.0867
  922MOL0     O27101   9.999   1.162  10.755 -0.0618 -0.2051  0.1631
  922MOL0     C27102  10.134   1.148  10.762  0.4823  1.7129 -1.0014
  922MOL0     C27103  10.224   1.256  10.777  0.0846  0.1331  0.1466
  922MOL0     C27104  10.364   1.240  10.772  0.3071 -0.3457  0.9334
  922MOL0     C27105  10.417   1.112  10.759  0.3954  0.5191  0.6512
  922MOL0     O27106  10.554   1.089  10.753  0.5108 -0.1439  0.1558
  922MOL0     C27107  10.605   1.037  10.869 -0.3036 -0.3985  0.3230
  922MOL0     C27108  10.736   1.098  10.900  0.6039  0.0102 -0.7247
  922MOL0     C27109  10.841   1.073  10.802 -0.1112  0.6976  0.2690
  922MOL0     C27110  10.977   1.077  10.865 -0.3116 -0.3242  0.5418
  922MOL0     C27111  11.088   1.052  10.768  0.4884  0.1500 -0.4140
  922MOL0     C27112  11.221   1.059  10.844 -0.0931  0.0559 -0.2187
  922MOL0     C27113  11.340   1.081  10.742  0.6223 -0.1100 -0.2204
  922MOL0     C27114  11.353   1.231  10.712  0.3631 -0.3016 -0.1317
  922MOL0     N27115  11.493   1.266  10.661  0.0295  0.2950 -0.2395
  922MOL0     C27116  11.543   1.225  10.539  0.3744 -0.1724  0.3512
  922MOL0     C27117  11.655   1.306  10.525 -0.6775  1.0987  0.0495
  922MOL0     C27118  11.727   1.324  10.388  0.2668  0.7189 -1.4105
  922MOL0     C27119  11.807   1.197  10.339 -0.1583  0.0771  0.4737
  922MOL0     C27120  11.950   1.164  10.390 -0.4008  0.3710  1.1193
  922MOL0     C27121  12.064   1.235  10.320  0.1358 -0.4132  0.1258
  922MOL0     O27122  12.032   1.376  10.299 -0.1972  0.2315  0.2953
  922MOL0     C27123  12.138   1.459  10.319 -0.4097 -0.4427 -0.1264
  922MOL0     C27124  12.265   1.437  10.283 -1.0968  0.3491 -0.0571
  922MOL0     C27125  12.362   1.538  10.292 -0.5207 -0.4229  0.9934
  922MOL0     C27126  12.498   1.498  10.231  0.0070 -0.1594 -0.1160
  922MOL0     C27127  12.327   1.673  10.319 -0.1114 -0.3824 -0.3064
  922MOL0     C27128  12.407   1.803  10.306 -0.6299 -0.2743  0.2892
  922MOL0     O27129  12.386   1.910  10.378  0.9896 -0.1445 -0.1666
  922MOL0     C27130  12.482   2.009  10.387 -0.4238  0.2597 -0.5504
  922MOL0     C27131  12.610   1.992  10.453  0.6957  0.9011 -0.0774
  922MOL0     C27132  12.708   2.096  10.434 -0.1196 -0.0197  0.0015
  922MOL0     C27133  12.689   2.209  10.362 -0.0220  0.0665  0.3912
  922MOL0     O27134  12.794   2.288  10.324  0.4392 -1.0404  0.0744
  922MOL0     C27135  12.795   2.407  10.404  0.6904 -1.0149 -0.4856
  922MOL0     C27136  12.889   2.404  10.518 -0.5296  0.1955 -0.1825
  922MOL0     C27137  13.030   2.398  10.454 -0.2662  0.8284 -0.2780
  922MOL0     C27138  13.126   2.350  10.560  0.4229 -0.0240  0.5518
  922MOL0     C27139  13.272   2.371  10.511  1.0074 -0.1849  0.6226
  922MOL0     C27140  13.359   2.372  10.631  1.4300 -1.0933  0.1545
  922MOL0     C27141  13.503   2.389  10.582 -0.5519  0.5371 -0.2499
  922MOL0     C27142  13.593   2.371  10.702  0.8282  0.0447 -0.2419
  922MOL0    Cl27143  13.562   2.200  10.778  0.2491 -0.2896  0.2170
  922MOL0     C27144  12.558   2.232  10.317 -1.2101 -0.3976  0.5388
  922MOL0     C27145  12.454   2.140  10.331 -0.5849  0.0645 -0.4626
  922MOL0     O27146  12.480   1.803  10.212 -0.0061 -0.3891 -0.1564
  922MOL0     C27147  12.196   1.690  10.368 -0.2843 -0.7239 -1.0071
  922MOL0     C27148  12.103   1.590  10.366 -0.8622 -0.4378  0.4951
  922MOL0     N27149  11.673   1.384  10.634 -0.7190 -0.5983 -0.6039
  922MOL0     N27150  11.575   1.362  10.717  0.0361 -0.2853  0.2625
  922MOL0     C27151  10.326   1.004  10.755 -0.3414  0.3071  0.2238
  922MOL0     C27152  10.181   1.019  10.758 -0.8858  0.7316  0.2793
  922MOL0     C27153   9.774   1.103  10.848  0.3237 -0.9611 -0.0192
  922MOL0     C27154   9.706   1.217  10.809 -0.4155 -0.0985  0.4590
  922MOL0     C27155   9.567   1.215  10.785 -0.9526  0.4099 -0.3194
  922MOL0     C27156   9.494   1.105  10.821 -0.5098 -0.3533 -0.4691
  922MOL0     O27157   9.363   1.108  10.818 -0.1720  0.8934  0.5013
  922MOL0     C27158   9.281   0.987  10.826 -1.2112 -0.1545 -0.9717
  922MOL0     C27159   9.144   1.013  10.762 -0.3847  0.4468 -0.4785
  922MOL0     C27160   9.079   0.878  10.731 -0.1115  0.3114  0.0882
  922MOL0     C27161   9.011   0.870  10.599  0.3974  0.7930  0.1237
  922MOL0     C27162   8.928   0.752  10.595 -0.1009  0.1692 -0.3572
  922MOL0     C27163   8.852   0.662  10.620  0.1566 -0.0005  0.2808
  922MOL0     C27164   9.558   0.991  10.869  0.8455  0.0957 -0.2158
  922MOL0     C27165   9.695   0.986  10.879  0.3460  0.8678  0.5620
  922MOL0     C27166   9.759   0.855  10.917 -0.3168 -0.6117 -0.3136
  922MOL0     H27167  10.184   1.355  10.793  1.2657  0.4684  1.1890
  922MOL0     H27168  10.423   1.332  10.780 -1.5463  0.9830  0.0387
  922MOL0     H27169  10.617   0.929  10.881  1.0478 -0.0761  2.2493
  922MOL0     H27170  10.537   1.062  10.951  0.6383 -4.7903  2.7350
  922MOL0     H27171  10.721   1.206  10.900 -2.4239 -0.3270 -1.4218
  922MOL0     H27172  10.770   1.064  10.999  2.7702  1.3203 -0.9582
  922MOL0     H27173  10.830   0.979  10.748 -0.0782  0.6144  0.4079
  922MOL0     H27174  10.833   1.154  10.728 -4.0303  0.6089  0.3863
  922MOL0     H27175  10.991   1.176  10.909  0.2409  0.4365 -1.2417
  922MOL0     H27176  10.985   1.003  10.944  0.5349  1.0672  1.8203
  922MOL0     H27177  11.077   1.138  10.701  0.7680 -1.2529 -2.3337
  922MOL0     H27178  11.077   0.957  10.715 -1.4717 -0.6226  1.2322
  922MOL0     H27179  11.215   1.141  10.916 -1.2198 -1.4902  1.5436
  922MOL0     H27180  11.242   0.971  10.906  0.0232  1.7427  2.3135
  922MOL0     H27181  11.329   1.029  10.647  1.1354  1.2759 -1.0623
  922MOL0     H27182  11.432   1.054  10.796 -0.7189  0.5366  2.5452
  922MOL0     H27183  11.279   1.263  10.638 -0.9169  0.7312  1.5226
  922MOL0     H27184  11.333   1.290  10.802  4.2684  2.5975 -0.8754
  922MOL0     H27185  11.506   1.159  10.462 -1.8651 -0.6437  1.7316
  922MOL0     H27186  11.784   1.417  10.395  1.7002 -0.1964 -0.5403
  922MOL0     H27187  11.642   1.329  10.319  0.2130 -1.3247 -1.5496
  922MOL0     H27188  11.739   1.112  10.355 -0.1181  0.3869  2.6696
  922MOL0     H27189  11.809   1.202  10.230  2.4522 -1.1609  0.3768
  922MOL0     H27190  11.971   1.192  10.494  1.7806 -1.3089  1.2093
  922MOL0     H27191  11.968   1.058  10.370 -0.3981  0.5443  0.2018
  922MOL0     H27192  12.156   1.223  10.378 -1.9500  1.6605  4.3079
  922MOL0     H27193  12.083   1.189  10.222  0.4200  1.5646 -0.7959
  922MOL0     H27194  12.288   1.339  10.243 -3.2931  1.0505 -3.4875
  922MOL0     H27195  12.511   1.390  10.228 -1.8026 -0.4101 -0.1546
  922MOL0     H27196  12.584   1.544  10.280  0.9697  0.5049 -2.3301
  922MOL0     H27197  12.501   1.529  10.127  0.0423  2.0616  0.4903
  922MOL0     H27198  12.639   1.903  10.508  0.3248  0.6771 -0.2404
  922MOL0     H27199  12.805   2.070  10.474  0.1751 -1.2007 -1.4054
  922MOL0     H27200  12.822   2.486  10.333  1.5152 -1.0306 -0.1995
  922MOL0     H27201  12.695   2.430  10.442 -0.0858 -1.5595 -2.1255
  922MOL0     H27202  12.896   2.485  10.591 -0.3612  0.2272 -0.2339
  922MOL0     H27203  12.874   2.308  10.567 -0.1786 -0.6453 -1.6663
  922MOL0     H27204  13.062   2.494  10.414  1.1772  1.2763  1.7517
  922MOL0     H27205  13.030   2.316  10.382 -2.4702 -1.0242  1.6497
  922MOL0     H27206  13.105   2.246  10.584  0.4907 -0.7343 -2.0843
  922MOL0     H27207  13.111   2.413  10.648  0.8648 -0.1397  0.7076
  922MOL0     H27208  13.290   2.279  10.454 -0.2383 -0.7930  1.1754
  922MOL0     H27209  13.291   2.458  10.448  0.9003  0.2023  1.1248
  922MOL0     H27210  13.335   2.284  10.692 -0.1179  0.8771  2.5611
  922MOL0     H27211  13.334   2.454  10.698  0.0161 -0.5758 -0.9468
  922MOL0     H27212  13.523   2.495  10.563  3.4070 -0.0167 -0.0189
  922MOL0     H27213  13.520   2.323  10.497 -1.8638  0.0849 -0.1889
  922MOL0     H27214  13.569   2.441  10.783  1.3983 -0.4058  0.3257
  922MOL0     H27215  13.697   2.384  10.673  1.0450 -1.2662 -0.1130
  922MOL0     H27216  12.545   2.333  10.281 -1.3184 -0.0844  1.4212
  922MOL0     H27217  12.358   2.151  10.280 -0.2403 -1.0040 -1.3784
  922MOL0     H27218  12.160   1.786  10.403 -1.8698 -1.0509 -1.6408
  922MOL0     H27219  12.002   1.612  10.398 -0.3939 -0.1382  1.8027
  922MOL0     H27220  10.365   0.903  10.741 -1.8057 -0.3266  0.6101
  922MOL0     H27221  10.122   0.929  10.739 -0.7018  0.3871  1.2837
  922MOL0     H27222   9.762   1.307  10.789 -0.7499 -0.0818 -0.4219
  922MOL0     H27223   9.529   1.307  10.742  2.4236  1.8373 -0.5088
  922MOL0     H27224   9.329   0.906  10.771  2.0875  1.1691 -0.2761
  922MOL0     H27225   9.255   0.953  10.927 -1.1984  1.3362 -0.4423
  922MOL0     H27226   9.142   1.060  10.664 -1.1517  1.1404 -0.1334
  922MOL0     H27227   9.086   1.077  10.828  0.0490  1.8856 -1.4448
  922MOL0     H27228   9.148   0.793  10.740  2.3955  2.2961  0.5688
  922MOL0     H27229   9.005   0.861  10.810  1.6271  0.3733  1.8264
  922MOL0     H27230   9.092   0.861  10.527  0.4750  3.6402 -0.2559
  922MOL0     H27231   8.945   0.957  10.585 -2.9692 -1.5398  0.1956
  922MOL0     H27232   8.781   0.582  10.628  1.4717 -1.0750  1.8260
  922MOL0     H27233   9.516   0.898  10.904  1.3663 -0.5791 -1.3314
  922MOL0     H27234   9.835   0.866  10.994 -0.6695 -2.7113  0.4146
  922MOL0     H27235   9.687   0.781  10.953  0.8363 -1.3230  0.5929
  922MOL0     H27236   9.817   0.822  10.830  0.7443 -0.3408  0.2846
  923MOL0     O27237   0.802   2.735  10.908  0.5663  0.1257 -0.0807
  923MOL0     C27238   0.808   2.851  10.957  0.2280 -0.2299  0.4918
  923MOL0     O27239   0.919   2.900  11.023  0.1967  0.0259 -0.7366
  923MOL0     C27240   1.035   2.835  10.991  0.1745 -0.0500  0.2508
  923MOL0     C27241   1.085   2.841  10.863 -0.1567  0.6457  1.0443
  923MOL0     C27242   1.218   2.789  10.841  0.2874  0.5461  0.4441
  923MOL0     C27243   1.296   2.730  10.941  0.3850  0.2589 -0.6334
  923MOL0     O27244   1.414   2.668  10.906  0.7318 -0.5468 -0.1778
  923MOL0     C27245   1.527   2.673  10.994 -0.1446 -0.1002  0.2223
  923MOL0     C27246   1.558   2.814  11.057  0.0324 -0.3059  0.9739
  923MOL0     C27247   1.680   2.812  11.143 -0.4164  0.6452 -0.1524
  923MOL0     C27248   1.807   2.822  11.049  0.3918  0.5376 -0.8832
  923MOL0     C27249   1.938   2.834  11.133  0.5830 -0.0997  0.2934
  923MOL0     C27250   2.067   2.820  11.035  0.0231 -0.4816  0.3073
  923MOL0     C27251   2.067   2.910  10.911  0.3124 -0.3009  0.9317
  923MOL0     C27252   2.142   2.840  10.789 -0.6622  0.9065 -0.3950
  923MOL0     N27253   2.288   2.863  10.796 -0.0354 -0.4049 -0.5371
  923MOL0     C27254   2.377   2.813  10.889  0.3387  1.2739  0.4740
  923MOL0     C27255   2.500   2.847  10.841 -0.6618  0.2621 -0.6663
  923MOL0     C27256   2.628   2.835  10.915 -0.0680  0.1047  0.1082
  923MOL0     C27257   2.713   2.722  10.862 -0.2079  0.3953 -0.1605
  923MOL0     C27258   2.860   2.741  10.907  0.5166 -0.6234  0.3025
  923MOL0     C27259   2.948   2.625  10.855  0.3152 -0.0560  0.0955
  923MOL0     O27260   3.087   2.644  10.882  0.4940 -0.1268 -1.2094
  923MOL0     C27261   3.174   2.579  10.808  0.1199  1.0313  0.2813
  923MOL0     C27262   3.205   2.615  10.676  0.6814 -0.1630  0.0788
  923MOL0     C27263   3.312   2.548  10.617  0.3524 -0.6103  0.5009
  923MOL0     C27264   3.362   2.610  10.483 -0.0639 -0.1592 -0.4565
  923MOL0     C27265   3.377   2.437  10.681  0.2370  1.0411  0.1314
  923MOL0     C27266   3.498   2.358  10.616  0.4627 -0.1318 -0.0683
  923MOL0     O27267   3.560   2.404  10.502 -0.2072 -0.8658  0.2318
  923MOL0     C27268   3.679   2.343  10.478  0.4523 -0.3654  0.3542
  923MOL0     C27269   3.792   2.410  10.521  0.2462  0.1797 -0.5785
  923MOL0     C27270   3.923   2.368  10.505 -0.5709 -0.3110 -0.1089
  923MOL0     C27271   3.943   2.248  10.425  0.6487 -0.3186 -0.9893
  923MOL0     O27272   4.064   2.208  10.387  0.1771  0.5170 -0.4626
  923MOL0     C27273   4.161   2.309  10.353 -0.1907  0.9580 -0.0761
  923MOL0     C27274   4.255   2.343  10.477 -0.1049 -0.2797  0.5560
  923MOL0     C27275   4.324   2.213  10.524  0.3112  0.5981  0.0474
  923MOL0     C27276   4.446   2.214  10.617  0.1653 -0.8423  0.0649
  923MOL0     C27277   4.470   2.079  10.681  1.0598 -0.4638  0.5588
  923MOL0     C27278   4.376   2.049  10.800  0.5460 -0.2220 -0.5805
  923MOL0     C27279   4.428   1.926  10.878  0.3038 -0.4608  0.1543
  923MOL0     C27280   4.336   1.928  11.008  0.3092 -0.0333  0.1895
  923MOL0    Cl27281   4.373   1.783  11.095  0.1004 -0.1171 -0.1933
  923MOL0     C27282   3.825   2.179  10.381  0.6094 -1.1671 -0.2266
  923MOL0     C27283   3.697   2.228  10.404 -0.7563  0.3844  0.0896
  923MOL0     O27284   3.536   2.263  10.681 -0.2169 -0.5517  0.0010
  923MOL0     C27285   3.333   2.397  10.805 -0.8574 -0.4658  0.7439
  923MOL0     C27286   3.231   2.467  10.863  0.3558  0.6610  0.9437
  923MOL0     N27287   2.489   2.927  10.728 -0.2618 -0.0172  0.7000
  923MOL0     N27288   2.360   2.931  10.703 -0.7515 -0.1378  0.0401
  923MOL0     C27289   1.239   2.724  11.069 -0.9984  0.0198 -0.0044
  923MOL0     C27290   1.109   2.776  11.091  0.6387 -0.0412 -0.6529
  923MOL0     C27291   0.689   2.938  10.949 -0.0528  0.0657 -0.5183
  923MOL0     C27292   0.605   2.932  10.839 -0.0791  0.0120  0.2216
  923MOL0     C27293   0.487   3.003  10.838  0.2365  0.2485 -0.2369
  923MOL0     C27294   0.461   3.097  10.940  0.2391 -0.2789  0.3864
  923MOL0     O27295   0.350   3.178  10.958 -0.6438  0.1296 -0.1954
  923MOL0     C27296   0.246   3.159  10.865 -0.5223  0.7026 -0.3047
  923MOL0     C27297   0.127   3.248  10.888  0.5930 -0.4371  0.0236
  923MOL0     C27298   0.049   3.201  11.011 -0.4754  0.4973 -0.1877
  923MOL0     C27299  -0.048   3.315  11.048 -0.5897 -0.2381  0.2500
  923MOL0     C27300   0.014   3.436  11.095 -0.2747 -0.1626 -0.2086
  923MOL0     C27301   0.063   3.546  11.125 -0.4587  0.0634 -0.4229
  923MOL0     C27302   0.557   3.116  11.034  0.5225  0.2195 -0.3767
  923MOL0     C27303   0.673   3.040  11.043  0.3322 -0.2958  0.3052
  923MOL0     C27304   0.758   3.067  11.168  1.0010  0.2291 -0.3094
  923MOL0     H27305   1.022   2.882  10.785 -0.9094 -0.7200  0.9061
  923MOL0     H27306   1.238   2.774  10.735 -1.0222 -1.5924  0.4238
  923MOL0     H27307   1.607   2.639  10.928 -2.7441  0.6349 -3.5645
  923MOL0     H27308   1.519   2.604  11.079  0.9523  0.9347  1.2213
  923MOL0     H27309   1.589   2.875  10.972  2.3637 -1.2590  1.0643
  923MOL0     H27310   1.476   2.858  11.115 -1.8867 -1.3014 -0.8158
  923MOL0     H27311   1.681   2.889  11.221 -1.7563 -0.2755  0.8106
  923MOL0     H27312   1.686   2.717  11.198  4.8154 -0.1905 -1.6151
  923MOL0     H27313   1.806   2.730  10.989 -0.6569  0.5228 -0.8547
  923MOL0     H27314   1.793   2.908  10.984 -2.3844  1.3896  0.7130
  923MOL0     H27315   1.936   2.759  11.214  1.1489  1.8171  2.1737
  923MOL0     H27316   1.937   2.933  11.179 -0.6380 -0.2200  0.5458
  923MOL0     H27317   2.159   2.842  11.089  0.8972  3.3792 -2.3758
  923MOL0     H27318   2.080   2.715  11.005  1.7917  0.1137 -1.1620
  923MOL0     H27319   2.114   3.001  10.950  0.4275 -1.1908  2.9743
  923MOL0     H27320   1.969   2.929  10.865  1.3557  1.2534 -0.7941
  923MOL0     H27321   2.114   2.735  10.786 -2.4152  1.2596  1.3701
  923MOL0     H27322   2.113   2.885  10.693  0.1837 -0.2839 -1.2328
  923MOL0     H27323   2.367   2.756  10.980 -1.7853 -0.6148 -0.8603
  923MOL0     H27324   2.612   2.819  11.022  4.6604 -2.1090  0.7401
  923MOL0     H27325   2.684   2.928  10.897 -0.1585 -0.1081 -1.4564
  923MOL0     H27326   2.684   2.626  10.907  0.3675  0.2308 -0.1368
  923MOL0     H27327   2.699   2.718  10.754 -1.5332  0.0920 -0.0049
  923MOL0     H27328   2.896   2.831  10.856  1.9277  0.0095  2.2759
  923MOL0     H27329   2.872   2.759  11.014 -1.2456 -0.6533  0.5336
  923MOL0     H27330   2.911   2.536  10.907  1.6505 -0.2027  0.8358
  923MOL0     H27331   2.929   2.606  10.749  1.4567 -0.8387  0.0132
  923MOL0     H27332   3.148   2.695  10.629 -0.2791 -2.2091 -2.5173
  923MOL0     H27333   3.294   2.692  10.461 -0.7125 -0.1733  1.3131
  923MOL0     H27334   3.347   2.535  10.404  4.4207 -1.4126 -0.4250
  923MOL0     H27335   3.465   2.648  10.482 -0.5516  1.2111 -0.5392
  923MOL0     H27336   3.780   2.495  10.587 -1.8621 -0.2180 -0.3637
  923MOL0     H27337   4.008   2.412  10.555  0.5124 -2.3995  0.0217
  923MOL0     H27338   4.221   2.265  10.273  0.3571  0.5294  0.5646
  923MOL0     H27339   4.110   2.395  10.309  0.2801  1.1018 -0.3494
  923MOL0     H27340   4.338   2.409  10.452 -0.2697 -0.7079 -1.2860
  923MOL0     H27341   4.202   2.388  10.562 -3.9754  1.8424 -2.6529
  923MOL0     H27342   4.349   2.153  10.436  3.6589 -1.6483  2.3131
  923MOL0     H27343   4.246   2.154  10.574 -0.6041  0.0131 -1.9581
  923MOL0     H27344   4.425   2.292  10.690 -0.0972 -0.9370  0.0948
  923MOL0     H27345   4.533   2.247  10.560 -0.2421  0.1690  0.0103
  923MOL0     H27346   4.469   2.002  10.602  0.3794 -0.3325  0.4303
  923MOL0     H27347   4.568   2.093  10.727  3.2532 -0.1804 -3.6862
  923MOL0     H27348   4.268   2.041  10.782  0.4084  2.6025 -1.5735
  923MOL0     H27349   4.370   2.142  10.858  1.7729  0.3142 -1.2749
  923MOL0     H27350   4.534   1.930  10.906  1.0528  0.6947 -2.5253
  923MOL0     H27351   4.418   1.832  10.823 -0.4916 -0.8872  1.0132
  923MOL0     H27352   4.228   1.925  10.996  0.5290 -0.3749 -2.4773
  923MOL0     H27353   4.361   2.015  11.068  2.5044  0.4376 -1.2901
  923MOL0     H27354   3.836   2.097  10.310  3.0798  0.9574 -2.5403
  923MOL0     H27355   3.607   2.183  10.364 -1.8364  3.7226 -1.5802
  923MOL0     H27356   3.382   2.310  10.848 -1.8006 -2.5564 -2.0771
  923MOL0     H27357   3.212   2.450  10.968  0.0391 -1.5710  0.5772
  923MOL0     H27358   1.300   2.682  11.148 -1.3011  0.6152  0.5495
  923MOL0     H27359   1.067   2.764  11.190 -0.7308 -1.3169 -1.3489
  923MOL0     H27360   0.627   2.864  10.757 -1.5582  1.0492 -1.0849
  923MOL0     H27361   0.421   2.996  10.753 -0.7442 -0.6143  0.5732
  923MOL0     H27362   0.296   3.183  10.771  0.5155 -2.4580 -0.6660
  923MOL0     H27363   0.208   3.057  10.861 -0.8079  0.7535  0.8073
  923MOL0     H27364   0.073   3.249  10.793  2.7397  0.4539 -1.2612
  923MOL0     H27365   0.152   3.354  10.901 -2.8444  0.3412  1.7463
  923MOL0     H27366  -0.011   3.111  10.997  0.8664 -0.8663  2.1181
  923MOL0     H27367   0.104   3.166  11.099 -0.1277  0.8799 -0.2504
  923MOL0     H27368  -0.118   3.287  11.128 -1.9092 -0.3971 -0.9115
  923MOL0     H27369  -0.113   3.334  10.962  1.5507 -0.6176 -1.5286
  923MOL0     H27370   0.101   3.643  11.147  1.1587 -0.0799 -2.2851
  923MOL0     H27371   0.520   3.180  11.113 -0.8096  1.6561 -2.0901
  923MOL0     H27372   0.769   2.977  11.228  3.2526  1.8303  1.8808
  923MOL0     H27373   0.858   3.102  11.143  0.2080  1.4719 -1.9710
  923MOL0     H27374   0.709   3.142  11.230  0.7144  0.9230 -1.3384
  924MOL0     O27375   5.734   9.459   6.843 -0.1699  0.0009 -1.1894
  924MOL0     C27376   5.623   9.508   6.845 -0.3397 -0.0883 -0.1704
  924MOL0     O27377   5.605   9.641   6.875 -0.4379  0.7303 -0.1790
  924MOL0     C27378   5.709   9.712   6.930 -0.1800 -0.3965  0.8480
  924MOL0     C27379   5.801   9.786   6.850  0.0141  0.3794  0.2103
  924MOL0     C27380   5.900   9.867   6.907 -1.0818  0.4964  0.7420
  924MOL0     C27381   5.922   9.858   7.043 -0.3702 -1.1540  0.2327
  924MOL0     O27382   6.021   9.932   7.105 -0.5067 -0.6173 -0.2251
  924MOL0     C27383   6.056  10.063   7.052 -0.0305 -0.3079 -0.1890
  924MOL0     C27384   6.181  10.045   6.965 -0.3484 -0.2338  0.4005
  924MOL0     C27385   6.305   9.984   7.038  0.8335  0.4009 -0.3369
  924MOL0     C27386   6.433  10.019   6.969  0.2595 -0.2992 -0.2670
  924MOL0     C27387   6.558   9.950   7.019  0.3540  0.8963  0.5617
  924MOL0     C27388   6.612   9.988   7.156  1.0493 -0.7672 -0.0672
  924MOL0     C27389   6.741   9.915   7.199  0.5943 -0.4245  0.2615
  924MOL0     C27390   6.721   9.774   7.240  0.2109  0.8394  0.3486
  924MOL0     N27391   6.837   9.719   7.311 -0.8963 -0.1950 -0.1533
  924MOL0     C27392   6.863   9.732   7.443  0.0003 -0.5458  0.1819
  924MOL0     C27393   6.986   9.672   7.472  0.4992  0.0194  0.6248
  924MOL0     C27394   7.049   9.659   7.601  1.5257  0.2473 -0.3399
  924MOL0     C27395   7.197   9.605   7.586  0.3098 -0.3214  0.6324
  924MOL0     C27396   7.261   9.548   7.713 -0.3863  1.6264 -0.3316
  924MOL0     C27397   7.229   9.622   7.843  0.3427 -0.0872  0.1180
  924MOL0     O27398   7.310   9.575   7.941  0.2773 -0.8917 -0.7397
  924MOL0     C27399   7.441   9.612   7.938 -0.7390  0.3997 -0.1609
  924MOL0     C27400   7.491   9.723   7.863  0.1432  0.1891 -0.5208
  924MOL0     C27401   7.630   9.757   7.862 -0.3307 -0.0910 -0.3620
  924MOL0     C27402   7.675   9.885   7.788  0.7903 -0.5603  0.9289
  924MOL0     C27403   7.716   9.674   7.936 -0.2271  0.0307  0.1890
  924MOL0     C27404   7.860   9.695   7.962 -1.0289 -1.0527 -0.4423
  924MOL0     O27405   7.948   9.587   7.967 -0.6895 -0.4659 -0.4180
  924MOL0     C27406   8.085   9.613   7.962  0.7000 -0.4752  0.2209
  924MOL0     C27407   8.164   9.626   8.077  0.5494 -0.4657 -0.2546
  924MOL0     C27408   8.291   9.679   8.060 -1.0186 -0.1225  0.4019
  924MOL0     C27409   8.343   9.693   7.935  0.0538 -0.1849  0.0663
  924MOL0     O27410   8.470   9.739   7.913 -0.0313  0.1458 -0.0965
  924MOL0     C27411   8.509   9.783   7.779  0.1751  0.5125  0.1158
  924MOL0     C27412   8.633   9.874   7.799 -0.0593 -0.1054 -0.9704
  924MOL0     C27413   8.704   9.888   7.664  0.4652 -0.3175  0.0102
  924MOL0     C27414   8.811   9.997   7.661  0.0571 -0.2203 -0.1677
  924MOL0     C27415   8.916   9.956   7.557 -0.2353  0.0251 -0.2115
  924MOL0     C27416   9.063  10.007   7.582 -0.2569  0.3550  0.1924
  924MOL0     C27417   9.126   9.915   7.688  0.1394 -0.5403  0.7410
  924MOL0     C27418   9.258   9.971   7.723 -0.0266  0.4539 -0.3061
  924MOL0    Cl27419   9.361   9.959   7.589  0.5515 -0.3410 -0.1112
  924MOL0     C27420   8.268   9.643   7.819 -0.6959  0.1150  0.1496
  924MOL0     C27421   8.142   9.606   7.836 -0.5485 -0.1182 -0.3549
  924MOL0     O27422   7.892   9.813   7.981  0.1822 -0.5967 -0.1160
  924MOL0     C27423   7.666   9.564   8.010 -0.8984 -0.0693 -0.4728
  924MOL0     C27424   7.529   9.531   8.006 -0.0153 -1.1976 -0.1542
  924MOL0     N27425   7.035   9.631   7.351 -0.0397 -0.6729  0.2164
  924MOL0     N27426   6.945   9.648   7.255  0.3253 -0.0005  0.3263
  924MOL0     C27427   5.845   9.777   7.118 -0.0965  0.3266 -0.4932
  924MOL0     C27428   5.738   9.702   7.065  0.1922  0.5765 -0.7838
  924MOL0     C27429   5.502   9.428   6.822 -0.3372  0.2901  0.6960
  924MOL0     C27430   5.403   9.482   6.730 -0.6197 -0.3363  1.0519
  924MOL0     C27431   5.281   9.412   6.714  0.3586  0.8015 -0.2437
  924MOL0     C27432   5.274   9.280   6.765  0.1797  0.1605 -0.4537
  924MOL0     O27433   5.172   9.203   6.728  0.5362  0.5701  0.1981
  924MOL0     C27434   5.040   9.242   6.769  0.6709  0.0483 -0.3362
  924MOL0     C27435   4.993   9.193   6.906  0.3032  0.8218 -0.4609
  924MOL0     C27436   4.997   9.037   6.921  0.0981  0.3207 -0.1711
  924MOL0     C27437   5.041   8.981   7.060  0.9190  0.4458  0.1872
  924MOL0     C27438   5.188   8.998   7.091  0.7257  1.0176 -0.7576
  924MOL0     C27439   5.301   9.003   7.132  0.3199 -0.1099  0.5067
  924MOL0     C27440   5.371   9.231   6.851  0.0068 -0.1208 -0.0467
  924MOL0     C27441   5.479   9.305   6.884  0.1542 -0.9608 -0.3718
  924MOL0     C27442   5.584   9.251   6.975 -0.0600 -0.1984 -0.3882
  924MOL0     H27443   5.794   9.772   6.742  1.0914 -0.6300  0.2529
  924MOL0     H27444   5.958   9.919   6.832  0.8762 -0.7777  1.2941
  924MOL0     H27445   6.094  10.135   7.125  0.9505 -1.8804  0.8959
  924MOL0     H27446   5.967  10.111   7.009 -1.1125  0.1338  2.3530
  924MOL0     H27447   6.163   9.991   6.871  1.8722  0.2564 -0.3757
  924MOL0     H27448   6.188  10.149   6.931  0.9049 -0.1647  0.8037
  924MOL0     H27449   6.300  10.006   7.145  1.0943 -2.3867  0.3152
  924MOL0     H27450   6.286   9.877   7.031 -1.3037  0.8349 -2.1843
  924MOL0     H27451   6.423  10.004   6.861  1.7713  0.6597 -0.5716
  924MOL0     H27452   6.449  10.125   6.987  1.0136 -0.0600 -2.0816
  924MOL0     H27453   6.629   9.982   6.943 -0.4501  2.8140  0.5648
  924MOL0     H27454   6.554   9.841   7.010  0.8649  0.8600  0.7513
  924MOL0     H27455   6.636  10.094   7.157 -0.2346 -0.4169 -1.8400
  924MOL0     H27456   6.526   9.983   7.224 -0.7287  2.0744 -1.8811
  924MOL0     H27457   6.779   9.975   7.282  4.4300 -0.8017 -1.0139
  924MOL0     H27458   6.814   9.911   7.117  1.5726 -2.5042  1.1460
  924MOL0     H27459   6.631   9.773   7.302 -0.6167 -2.4821 -0.7149
  924MOL0     H27460   6.702   9.716   7.150  2.0889  0.3966  0.1976
  924MOL0     H27461   6.799   9.781   7.516  0.3186 -0.5840  0.4919
  924MOL0     H27462   6.991   9.582   7.654  0.4968  0.7653 -0.7071
  924MOL0     H27463   7.035   9.755   7.652 -0.9710 -0.8332  1.2009
  924MOL0     H27464   7.192   9.527   7.509 -1.9274 -1.0212  1.4092
  924MOL0     H27465   7.267   9.683   7.556 -3.4958  3.6674  1.2045
  924MOL0     H27466   7.224   9.446   7.727 -0.4880  1.6804 -0.2169
  924MOL0     H27467   7.368   9.540   7.694  0.0988  0.7327  2.3486
  924MOL0     H27468   7.235   9.731   7.830  1.1070 -0.3327 -2.0270
  924MOL0     H27469   7.127   9.599   7.876 -0.1317  1.0028 -0.5025
  924MOL0     H27470   7.424   9.799   7.826  1.4171  0.8910 -1.4669
  924MOL0     H27471   7.694   9.965   7.860  0.2356  1.0393 -0.6307
  924MOL0     H27472   7.595   9.915   7.719  1.1858 -0.2579  0.5950
  924MOL0     H27473   7.767   9.857   7.736  1.5480  1.8887  0.8171
  924MOL0     H27474   8.116   9.615   8.174  0.5436 -1.8838 -0.4075
  924MOL0     H27475   8.356   9.701   8.144 -1.6684  1.8575  0.4325
  924MOL0     H27476   8.529   9.697   7.714 -3.8590 -0.7855  0.2738
  924MOL0     H27477   8.427   9.834   7.728 -1.2683 -0.7216  1.0628
  924MOL0     H27478   8.602   9.965   7.850 -0.0289 -0.4771 -0.2727
  924MOL0     H27479   8.697   9.819   7.869 -2.4532 -1.3313  0.3819
  924MOL0     H27480   8.624   9.900   7.590 -0.8384 -3.5772  0.7104
  924MOL0     H27481   8.742   9.792   7.631 -0.4806 -0.7584  0.1643
  924MOL0     H27482   8.852   9.987   7.762 -1.4918 -0.5005  0.4492
  924MOL0     H27483   8.770  10.098   7.653 -0.6972  0.0363  4.2855
  924MOL0     H27484   8.928   9.848   7.549 -0.0829  0.1012 -1.0770
  924MOL0     H27485   8.880   9.983   7.458 -2.8079 -3.1793 -0.3068
  924MOL0     H27486   9.060  10.110   7.618 -3.0779 -0.1921  1.7315
  924MOL0     H27487   9.119   9.998   7.488 -1.7666  0.6713 -0.7749
  924MOL0     H27488   9.133   9.814   7.648 -0.0978 -0.2887  0.0356
  924MOL0     H27489   9.062   9.902   7.775 -2.4433  0.8759 -0.8299
  924MOL0     H27490   9.297   9.902   7.798  0.8050  1.8911  0.6389
  924MOL0     H27491   9.263  10.068   7.773 -0.8816  0.8128 -0.8839
  924MOL0     H27492   8.299   9.634   7.715 -0.0242  1.7306  0.1799
  924MOL0     H27493   8.077   9.562   7.761 -0.3881  0.5735 -0.9071
  924MOL0     H27494   7.731   9.503   8.072 -2.6902 -0.4738  1.1135
  924MOL0     H27495   7.484   9.459   8.073 -2.1688  1.7213  1.8095
  924MOL0     H27496   5.854   9.784   7.226 -1.1084  2.8537 -0.5079
  924MOL0     H27497   5.680   9.632   7.125 -0.6938  0.9697 -1.1564
  924MOL0     H27498   5.417   9.574   6.674 -3.2313  0.0311  0.8621
  924MOL0     H27499   5.205   9.428   6.638 -1.4716 -4.3612  0.1620
  924MOL0     H27500   5.036   9.351   6.758  2.2917  0.1409 -0.2227
  924MOL0     H27501   4.975   9.200   6.691 -1.9174  2.2739  0.4784
  924MOL0     H27502   4.893   9.222   6.939  0.2287 -0.4302  0.5003
  924MOL0     H27503   5.056   9.234   6.985 -0.4373 -1.6663  1.5705
  924MOL0     H27504   4.893   9.004   6.910  0.4832 -0.5464 -1.2604
  924MOL0     H27505   5.067   9.000   6.846 -1.1387  0.1276 -1.2731
  924MOL0     H27506   5.019   8.874   7.058  2.0590  0.1961 -1.8211
  924MOL0     H27507   4.981   9.028   7.139  1.4416  0.9168  0.3167
  924MOL0     H27508   5.399   9.024   7.170  0.4947  2.6406 -1.1436
  924MOL0     H27509   5.348   9.131   6.889 -0.8200 -0.3113 -1.0249
  924MOL0     H27510   5.537   9.170   7.031  1.1077  0.4359  1.5822
  924MOL0     H27511   5.675   9.216   6.925  0.6977  0.9883  0.1423
  924MOL0     H27512   5.609   9.322   7.054  0.7406 -1.2536  0.3228
  925MOL0     O27513  10.703   4.989  10.655  0.7521  0.6123  0.0858
  925MOL0     C27514  10.661   5.077  10.732 -0.4754 -0.0632 -0.0744
  925MOL0     O27515  10.728   5.192  10.759  0.1627 -0.3587 -0.0889
  925MOL0     C27516  10.850   5.220  10.710 -0.5314  0.3845  0.6665
  925MOL0     C27517  10.860   5.325  10.624 -0.6320 -0.8764 -0.2971
  925MOL0     C27518  10.993   5.364  10.583  0.3233 -0.1798  0.7453
  925MOL0     C27519  11.106   5.301  10.625 -0.3376 -0.1225 -0.5409
  925MOL0     O27520  11.232   5.328  10.590  0.3593 -0.4706  0.3806
  925MOL0     C27521  11.267   5.455  10.531 -0.1529  0.7066 -0.8864
  925MOL0     C27522  11.418   5.473  10.522  0.0117 -0.4879 -0.5580
  925MOL0     C27523  11.475   5.567  10.422  0.3561 -0.3190  0.4465
  925MOL0     C27524  11.617   5.609  10.447  0.5320  0.2466 -0.3301
  925MOL0     C27525  11.671   5.698  10.337  0.5218  0.1682 -0.4591
  925MOL0     C27526  11.811   5.752  10.388  0.9097  0.3328  0.3400
  925MOL0     C27527  11.865   5.828  10.263  0.6970 -0.0600 -0.3488
  925MOL0     C27528  11.985   5.915  10.298 -0.1262 -0.4197 -0.2393
  925MOL0     N27529  12.093   5.833  10.339 -0.1263  0.0281 -0.3706
  925MOL0     C27530  12.151   5.746  10.248  0.0680 -0.4557 -0.2614
  925MOL0     C27531  12.276   5.725  10.298 -0.0092  0.2655 -0.8846
  925MOL0     C27532  12.380   5.632  10.237  0.2255 -0.0008 -0.0618
  925MOL0     C27533  12.521   5.679  10.266  0.0748  0.6417 -0.0088
  925MOL0     C27534  12.633   5.595  10.204  0.6164 -1.2995  0.0197
  925MOL0     C27535  12.623   5.445  10.225  0.1087 -0.9896  0.2284
  925MOL0     O27536  12.744   5.390  10.168 -0.2433 -0.2728 -0.2535
  925MOL0     C27537  12.852   5.385  10.251 -0.4089  1.2084 -0.0797
  925MOL0     C27538  12.867   5.421  10.383 -0.2079 -0.1872  0.8221
  925MOL0     C27539  12.982   5.394  10.458 -0.8271 -0.1699  0.7623
  925MOL0     C27540  12.989   5.389  10.614  0.4866  0.3456  0.5256
  925MOL0     C27541  13.094   5.351  10.383  0.6361  0.0763 -0.2138
  925MOL0     C27542  13.225   5.328  10.450  0.8292  0.6261 -0.5337
  925MOL0     O27543  13.265   5.406  10.549  0.2175 -0.6049 -0.2410
  925MOL0     C27544  13.402   5.399  10.579  0.4431  0.4319 -0.0683
  925MOL0     C27545  13.446   5.326  10.687 -0.0240 -0.1182 -0.7906
  925MOL0     C27546  13.579   5.309  10.724 -0.8715 -0.0834  0.6304
  925MOL0     C27547  13.673   5.382  10.650  0.6135  0.0675 -0.8091
  925MOL0     O27548  13.808   5.385  10.682  0.5190  0.3787 -0.7106
  925MOL0     C27549  13.828   5.370  10.827 -0.6301  0.0669  1.2046
  925MOL0     C27550  13.976   5.422  10.848 -0.0213  0.2309 -0.4595
  925MOL0     C27551  14.006   5.406  11.000  0.9634  0.1229 -0.1352
  925MOL0     C27552  14.155   5.425  11.040  0.0462  0.3575 -0.8330
  925MOL0     C27553  14.163   5.446  11.193 -0.0713  0.5180 -0.3072
  925MOL0     C27554  14.312   5.451  11.228  0.0537  0.3146  0.1733
  925MOL0     C27555  14.389   5.318  11.209 -0.9946  0.5778 -0.5050
  925MOL0     C27556  14.513   5.309  11.298 -0.2954 -0.2465  0.0722
  925MOL0    Cl27557  14.630   5.166  11.263 -0.2260  0.0636  0.2434
  925MOL0     C27558  13.631   5.447  10.529  0.0676  0.1616 -0.2389
  925MOL0     C27559  13.495   5.459  10.495 -0.3820  0.6359 -0.2113
  925MOL0     O27560  13.284   5.236  10.397 -0.4234  0.7726 -0.0041
  925MOL0     C27561  13.086   5.330  10.251 -0.2347  0.4556 -0.8621
  925MOL0     C27562  12.969   5.339  10.188  0.2034 -0.1999  0.8877
  925MOL0     N27563  12.289   5.803  10.419 -1.0816  1.0615 -0.1535
  925MOL0     N27564  12.174   5.846  10.449  0.7949 -0.2892 -0.4348
  925MOL0     C27565  11.088   5.202  10.720 -0.4116  0.3412 -0.1319
  925MOL0     C27566  10.962   5.149  10.756  0.2110  0.1654 -0.1765
  925MOL0     C27567  10.526   5.059  10.796  0.0259 -0.0169 -0.2224
  925MOL0     C27568  10.470   4.928  10.794 -0.4428 -0.2325  0.3189
  925MOL0     C27569  10.343   4.898  10.848 -0.9650  0.5299 -0.0298
  925MOL0     C27570  10.269   4.992  10.912 -0.6506  0.8241  0.2735
  925MOL0     O27571  10.148   4.975  10.975  0.1363 -0.5233  0.5028
  925MOL0     C27572  10.064   4.866  10.965  0.2504  0.7849 -0.2565
  925MOL0     C27573   9.935   4.887  11.045 -0.5473  0.8526 -0.2240
  925MOL0     C27574   9.956   4.964  11.170 -1.1568  0.5694 -0.4840
  925MOL0     C27575   9.838   4.956  11.268  0.6226 -0.8812  0.0406
  925MOL0     C27576   9.717   5.000  11.195  0.3367  0.0312 -0.5346
  925MOL0     C27577   9.616   5.035  11.136  0.1721  0.2616 -0.5244
  925MOL0     C27578  10.322   5.121  10.921 -0.0238 -0.6307 -0.0663
  925MOL0     C27579  10.451   5.159  10.868  0.3102  0.0704  0.1665
  925MOL0     C27580  10.510   5.291  10.887 -0.5495 -0.3899  0.0221
  925MOL0     H27581  10.769   5.376  10.593  0.5037  0.4548 -1.5780
  925MOL0     H27582  10.998   5.454  10.522 -0.3718  1.4672  2.9785
  925MOL0     H27583  11.217   5.538  10.582 -0.0433 -0.7819  1.8548
  925MOL0     H27584  11.222   5.458  10.432 -0.8828  1.7708 -0.5445
  925MOL0     H27585  11.441   5.517  10.619 -0.3868  2.2605 -1.6147
  925MOL0     H27586  11.474   5.380  10.512 -1.0304 -0.9384 -2.9781
  925MOL0     H27587  11.466   5.518  10.325 -0.8020  0.5610  0.0795
  925MOL0     H27588  11.412   5.657  10.418  0.1616 -0.4768 -0.0631
  925MOL0     H27589  11.607   5.672  10.536 -2.2814 -0.0625 -0.3311
  925MOL0     H27590  11.681   5.525  10.475 -1.2983 -0.2259  2.9668
  925MOL0     H27591  11.605   5.783  10.321  0.8529  0.6774  0.7185
  925MOL0     H27592  11.673   5.632  10.250 -1.2785 -0.1571 -0.2832
  925MOL0     H27593  11.811   5.812  10.480  0.1799  0.2407  0.4049
  925MOL0     H27594  11.880   5.671  10.410  1.1904  0.5155  0.1512
  925MOL0     H27595  11.786   5.900  10.242 -0.5579 -1.2194  0.2374
  925MOL0     H27596  11.897   5.761  10.183  0.1918 -2.4324  1.3185
  925MOL0     H27597  12.014   5.969  10.207 -1.6292  0.6541 -0.1070
  925MOL0     H27598  11.967   5.995  10.370 -0.2253 -0.4209 -0.2617
  925MOL0     H27599  12.103   5.715  10.156 -2.2369 -0.2416  0.7878
  925MOL0     H27600  12.357   5.623  10.130  1.8885 -2.2941 -0.2961
  925MOL0     H27601  12.365   5.529  10.271  2.1129 -0.3380 -0.1675
  925MOL0     H27602  12.541   5.778  10.223  5.6180 -0.6012 -0.9634
  925MOL0     H27603  12.532   5.687  10.375  2.1983 -2.4767  0.1093
  925MOL0     H27604  12.626   5.605  10.095 -0.6357 -1.7915  0.0375
  925MOL0     H27605  12.729   5.628  10.244  2.6150 -4.7116 -1.5180
  925MOL0     H27606  12.610   5.404  10.325  0.8258 -2.2712 -0.1843
  925MOL0     H27607  12.539   5.422  10.159 -0.5657  1.7333  0.0040
  925MOL0     H27608  12.783   5.453  10.444 -1.3623 -2.6025  0.5864
  925MOL0     H27609  13.041   5.294  10.628  1.5872  0.2756 -3.0188
  925MOL0     H27610  12.890   5.397  10.660 -0.7830 -3.9261 -0.9801
  925MOL0     H27611  13.055   5.464  10.657  0.3633  0.9579 -0.3168
  925MOL0     H27612  13.369   5.279  10.748  1.1802 -2.8501 -1.2105
  925MOL0     H27613  13.602   5.249  10.812  1.6164 -1.6940 -1.0109
  925MOL0     H27614  13.764   5.438  10.883 -2.9326 -1.0587  0.0684
  925MOL0     H27615  13.828   5.265  10.859  2.1238 -1.0484 -1.8223
  925MOL0     H27616  14.054   5.366  10.796  0.6445  0.9942 -0.3189
  925MOL0     H27617  13.981   5.529  10.827 -1.3790  0.4819  0.3390
  925MOL0     H27618  13.977   5.307  11.037  2.9990 -0.8163 -0.8620
  925MOL0     H27619  13.946   5.481  11.052 -1.9893 -2.7164  0.8719
  925MOL0     H27620  14.198   5.506  10.979  0.2028  0.4851 -0.5550
  925MOL0     H27621  14.203   5.332  11.009 -2.1751 -1.7724  1.6212
  925MOL0     H27622  14.118   5.544  11.212  1.2682  0.9507  0.8663
  925MOL0     H27623  14.104   5.371  11.246 -0.6805 -0.2892 -2.0687
  925MOL0     H27624  14.323   5.482  11.332 -1.1314  0.8182  0.1677
  925MOL0     H27625  14.352   5.520  11.152 -1.7207 -0.6028 -1.6887
  925MOL0     H27626  14.432   5.300  11.110  2.3078  1.8934  0.5742
  925MOL0     H27627  14.320   5.235  11.226  1.0227 -0.7949  1.4063
  925MOL0     H27628  14.479   5.293  11.401 -1.9024  3.2630  0.2118
  925MOL0     H27629  14.572   5.400  11.284 -2.2180  0.8280 -1.6377
  925MOL0     H27630  13.689   5.500  10.454 -0.5922  0.4696 -0.5376
  925MOL0     H27631  13.475   5.527  10.414 -0.4326  1.5583  0.5628
  925MOL0     H27632  13.171   5.299  10.191 -0.0914  1.3595 -1.1541
  925MOL0     H27633  12.963   5.322  10.081 -0.7630  0.6000  0.8021
  925MOL0     H27634  11.183   5.157  10.747  1.1753  1.8729 -2.7077
  925MOL0     H27635  10.941   5.065  10.822 -1.7817  1.2284  0.6346
  925MOL0     H27636  10.530   4.852  10.745 -0.6932  0.4453 -1.0872
  925MOL0     H27637  10.309   4.795  10.839 -1.5086  0.6645  0.4655
  925MOL0     H27638  10.044   4.837  10.861 -0.1673 -3.0393  0.7360
  925MOL0     H27639  10.128   4.785  11.001 -1.8390 -0.6432  0.4078
  925MOL0     H27640   9.886   4.795  11.078  0.0075  0.7325  0.2771
  925MOL0     H27641   9.859   4.929  10.977 -0.5883 -1.7472 -1.9155
  925MOL0     H27642  10.051   4.927  11.211 -0.7038  0.7220 -1.3606
  925MOL0     H27643   9.971   5.070  11.148  4.1707 -0.1193 -1.6429
  925MOL0     H27644   9.864   5.019  11.353  0.9539 -2.4793  1.1706
  925MOL0     H27645   9.816   4.859  11.314 -2.2528  0.7428  2.4081
  925MOL0     H27646   9.519   5.049  11.092 -1.9270 -2.4521  2.7650
  925MOL0     H27647  10.255   5.188  10.974 -1.7829 -1.9654 -0.5209
  925MOL0     H27648  10.542   5.338  10.793 -2.4862 -2.0631 -1.5848
  925MOL0     H27649  10.440   5.352  10.945 -1.3500 -0.7018 -0.5928
  925MOL0     H27650  10.593   5.281  10.957 -2.3583  1.9778  2.7334
  926MOL0     O27651   3.851   7.257  10.178 -0.3511  0.1876  1.0861
  926MOL0     C27652   3.808   7.142  10.161 -0.7502 -0.2328  0.3640
  926MOL0     O27653   3.870   7.023  10.190  0.2668  0.0775 -0.2054
  926MOL0     C27654   3.977   7.038  10.273  0.7112  1.0164 -0.1038
  926MOL0     C27655   4.107   7.012  10.224  0.8033 -0.2542 -0.5599
  926MOL0     C27656   4.225   7.017  10.307  0.8626  0.5162 -0.0744
  926MOL0     C27657   4.205   7.054  10.436  0.0665  0.2410 -0.1654
  926MOL0     O27658   4.315   7.077  10.521 -0.9529  0.3738  0.3760
  926MOL0     C27659   4.298   7.184  10.621  0.4304  0.8335  0.8788
  926MOL0     C27660   4.420   7.272  10.627 -0.0053 -0.6090 -0.1564
  926MOL0     C27661   4.430   7.368  10.504  0.9234  0.0187 -0.3936
  926MOL0     C27662   4.559   7.449  10.488  1.0255 -0.3854 -0.2507
  926MOL0     C27663   4.554   7.533  10.360 -0.8884  0.4889  1.1811
  926MOL0     C27664   4.680   7.610  10.340 -0.4351 -0.3619  0.5734
  926MOL0     C27665   4.660   7.687  10.206  1.3826  0.2478  0.7917
  926MOL0     C27666   4.624   7.603  10.083 -0.0736  0.5684  0.4514
  926MOL0     N27667   4.726   7.504  10.048  0.1710 -0.4248  0.5168
  926MOL0     C27668   4.711   7.368  10.046  0.5172 -0.2914  0.0194
  926MOL0     C27669   4.831   7.314  10.011  0.4575 -0.4469  0.2497
  926MOL0     C27670   4.866   7.166   9.985 -0.0615  0.6256  0.1813
  926MOL0     C27671   5.009   7.134  10.039 -0.0065  0.1547  0.3545
  926MOL0     C27672   5.054   6.993   9.999 -0.1648  0.1504  0.2627
  926MOL0     C27673   5.194   6.955  10.050  0.1561 -0.1493 -0.5442
  926MOL0     O27674   5.291   7.057  10.038 -0.1709 -0.0572  0.3851
  926MOL0     C27675   5.415   7.023  10.088 -0.7586 -0.4244 -0.3682
  926MOL0     C27676   5.513   7.124  10.097 -0.1245  0.9198 -0.9024
  926MOL0     C27677   5.642   7.105  10.144 -0.7049 -1.3054 -0.0193
  926MOL0     C27678   5.725   7.231  10.138  0.0263  0.9244  0.0737
  926MOL0     C27679   5.693   6.978  10.174 -0.3979  0.9072  0.4626
  926MOL0     C27680   5.835   6.953  10.204 -0.4770  0.4195 -0.4393
  926MOL0     O27681   5.890   7.028  10.298 -0.3592  0.9286 -0.5172
  926MOL0     C27682   6.026   7.006  10.336  0.1688 -0.0038  0.1485
  926MOL0     C27683   6.055   6.964  10.469  0.3601 -0.2374  0.7902
  926MOL0     C27684   6.188   6.934  10.499  0.7963 -0.3770 -0.5437
  926MOL0     C27685   6.290   6.962  10.413 -0.3921  0.0023  0.3537
  926MOL0     O27686   6.428   6.932  10.429  0.2003  0.1312  0.2990
  926MOL0     C27687   6.463   6.878  10.555 -0.8452 -0.4629  0.4475
  926MOL0     C27688   6.621   6.874  10.548 -0.1466  0.7066  1.0471
  926MOL0     C27689   6.690   6.817  10.669 -0.1489  0.7554  0.0549
  926MOL0     C27690   6.843   6.804  10.655 -0.0933 -0.4850  1.1406
  926MOL0     C27691   6.910   6.762  10.789  0.6039 -0.4254  0.2084
  926MOL0     C27692   7.058   6.762  10.790  1.4098 -0.8819 -0.3207
  926MOL0     C27693   7.127   6.701  10.908  0.4351  0.1947  0.2726
  926MOL0     C27694   7.278   6.673  10.885  0.0182  0.3047  0.0826
  926MOL0    Cl27695   7.361   6.716  11.034  0.2889 -0.6159 -0.0470
  926MOL0     C27696   6.260   7.007  10.286 -0.2532 -0.1883  0.5071
  926MOL0     C27697   6.128   7.028  10.245  1.0721 -0.4330 -0.2646
  926MOL0     O27698   5.892   6.860  10.150 -0.6798  0.0820 -0.3730
  926MOL0     C27699   5.596   6.874  10.171 -0.1758 -0.0438 -0.1106
  926MOL0     C27700   5.466   6.894  10.126  0.5199  1.0252  0.2750
  926MOL0     N27701   4.913   7.420   9.979  0.3161  0.3045 -0.5547
  926MOL0     N27702   4.856   7.528  10.015 -0.3367  0.1473  0.0361
  926MOL0     C27703   4.072   7.077  10.487  0.2736  0.3815 -0.0417
  926MOL0     C27704   3.956   7.063  10.407  0.1206 -0.0004  0.0931
  926MOL0     C27705   3.667   7.134  10.123 -0.7594 -0.0207  0.0106
  926MOL0     C27706   3.624   7.058  10.010  0.0730  0.1448 -0.0111
  926MOL0     C27707   3.493   7.060   9.959  0.3233  0.8745 -0.3817
  926MOL0     C27708   3.396   7.128  10.035 -0.2036  0.1111 -0.1959
  926MOL0     O27709   3.261   7.133  10.005  0.3353 -0.7818 -0.1484
  926MOL0     C27710   3.223   7.091   9.875 -0.5210 -0.7062 -0.3353
  926MOL0     C27711   3.191   6.942   9.877 -0.1990 -0.3935 -0.4826
  926MOL0     C27712   3.079   6.892   9.788 -1.2193  0.1673  0.2531
  926MOL0     C27713   3.044   6.743   9.804 -0.5605  0.4548  0.0712
  926MOL0     C27714   2.984   6.686   9.680 -0.0116 -0.0859 -0.5530
  926MOL0     C27715   2.946   6.628   9.580  0.5223 -0.1830 -0.5879
  926MOL0     C27716   3.430   7.193  10.152 -0.4264 -0.4150  0.0170
  926MOL0     C27717   3.565   7.198  10.196 -0.4140 -1.0420  0.1564
  926MOL0     C27718   3.594   7.286  10.317 -0.2935 -0.6611 -0.2260
  926MOL0     H27719   4.116   6.974  10.122 -0.5510 -2.0567 -0.0616
  926MOL0     H27720   4.326   6.994  10.274  0.7757  0.3041 -0.1948
  926MOL0     H27721   4.290   7.143  10.722 -0.8071 -0.5718  0.2502
  926MOL0     H27722   4.212   7.250  10.606  0.2517  0.5464  0.6451
  926MOL0     H27723   4.406   7.333  10.717 -2.3444  0.5934 -1.2464
  926MOL0     H27724   4.513   7.216  10.639  0.1256 -0.0510  1.8836
  926MOL0     H27725   4.413   7.306  10.415 -0.9706 -1.8794  1.1628
  926MOL0     H27726   4.348   7.440  10.496 -0.1808 -1.1639 -0.2174
  926MOL0     H27727   4.557   7.521  10.570 -2.0562  0.1665 -0.6865
  926MOL0     H27728   4.649   7.386  10.490  1.9386  0.8189 -1.4111
  926MOL0     H27729   4.467   7.598  10.354  0.0178  1.6785  0.3243
  926MOL0     H27730   4.549   7.459  10.279 -0.1719  1.5396  0.1488
  926MOL0     H27731   4.689   7.681  10.423  0.2920  2.2911 -1.5930
  926MOL0     H27732   4.773   7.553  10.345 -1.0823 -1.2937  2.6644
  926MOL0     H27733   4.754   7.741  10.196  0.9282  1.0960  0.9115
  926MOL0     H27734   4.580   7.761  10.221 -0.7052 -1.7186 -0.0535
  926MOL0     H27735   4.529   7.552  10.099  0.3193 -0.3564 -0.1141
  926MOL0     H27736   4.600   7.672  10.001 -0.4012  0.3351  0.3495
  926MOL0     H27737   4.624   7.304  10.051  1.8899 -2.2301 -0.0012
  926MOL0     H27738   4.865   7.142   9.878 -0.3992 -1.1738  0.5602
  926MOL0     H27739   4.793   7.106  10.040 -0.1282  2.8949  2.7799
  926MOL0     H27740   5.090   7.202  10.010  1.8438 -2.0730  0.1001
  926MOL0     H27741   5.001   7.140  10.148 -0.0648 -1.1623  0.4391
  926MOL0     H27742   4.996   6.908  10.036  1.0077 -1.6597 -1.8171
  926MOL0     H27743   5.057   6.983   9.891 -0.6213  4.1241 -0.2631
  926MOL0     H27744   5.199   6.936  10.158  0.0315  1.6622 -0.1829
  926MOL0     H27745   5.224   6.865   9.997 -0.5324 -0.9114  0.3299
  926MOL0     H27746   5.476   7.221  10.064 -0.2384  1.1838 -0.0121
  926MOL0     H27747   5.683   7.307  10.071  0.7521  1.8395  0.6451
  926MOL0     H27748   5.826   7.217  10.100 -0.3526  0.3058 -0.7160
  926MOL0     H27749   5.729   7.271  10.240 -1.6844  1.3155  0.0210
  926MOL0     H27750   5.972   6.956  10.538 -0.1991  1.6554  0.4094
  926MOL0     H27751   6.203   6.891  10.597 -2.8043  1.3526  0.9497
  926MOL0     H27752   6.435   6.947  10.635  1.8090  0.3781  0.7429
  926MOL0     H27753   6.414   6.781  10.571 -0.0628 -1.3654 -2.2040
  926MOL0     H27754   6.651   6.806  10.467 -0.1415  2.3011 -0.3548
  926MOL0     H27755   6.660   6.972  10.521  1.2423 -0.1824 -0.3812
  926MOL0     H27756   6.659   6.713  10.683 -0.2817  0.7150 -0.5471
  926MOL0     H27757   6.668   6.879  10.757  0.9358  3.6945 -1.6197
  926MOL0     H27758   6.876   6.904  10.629 -0.2754 -0.1360  2.2088
  926MOL0     H27759   6.874   6.732  10.578  1.8938  1.2339  0.2373
  926MOL0     H27760   6.880   6.835  10.865  1.6912  0.5158 -0.2334
  926MOL0     H27761   6.872   6.669  10.831  1.1413 -0.5918  0.3314
  926MOL0     H27762   7.085   6.868  10.782  0.7508 -0.6233  0.6528
  926MOL0     H27763   7.099   6.707  10.705  2.1321 -2.1405  0.7924
  926MOL0     H27764   7.085   6.606  10.943 -1.9041  0.5559 -1.3079
  926MOL0     H27765   7.113   6.770  10.992 -0.7036  1.2556 -0.7414
  926MOL0     H27766   7.312   6.744  10.809 -0.3990 -0.0904 -0.4735
  926MOL0     H27767   7.300   6.571  10.852  0.0309  0.1156  0.6624
  926MOL0     H27768   6.347   7.013  10.222  1.1471  0.8303  2.4080
  926MOL0     H27769   6.100   7.047  10.141 -1.4811 -2.6468 -0.0985
  926MOL0     H27770   5.633   6.773  10.191  1.0145 -0.0155 -1.9371
  926MOL0     H27771   5.404   6.805  10.128  3.0527 -0.8519  2.3300
  926MOL0     H27772   4.049   7.105  10.589 -0.2191 -0.9698  0.2484
  926MOL0     H27773   3.856   7.072  10.449  0.2291 -0.4486  0.4677
  926MOL0     H27774   3.704   6.997   9.968  0.5601 -1.8637  3.3818
  926MOL0     H27775   3.474   7.010   9.865 -0.8449 -0.5236  0.5551
  926MOL0     H27776   3.136   7.156   9.862 -0.1309 -0.4655 -1.9606
  926MOL0     H27777   3.302   7.126   9.808 -2.2923  1.3257 -1.5024
  926MOL0     H27778   3.163   6.922   9.981 -1.3692 -0.3420 -0.7814
  926MOL0     H27779   3.279   6.881   9.858 -0.6226 -1.8917  1.8886
  926MOL0     H27780   2.988   6.945   9.817 -1.3894  0.4929 -0.8521
  926MOL0     H27781   3.102   6.908   9.682  0.1466 -0.2601  0.4602
  926MOL0     H27782   2.973   6.730   9.886  0.9784  2.4914  1.8351
  926MOL0     H27783   3.129   6.676   9.818 -1.7687 -1.9894 -3.0498
  926MOL0     H27784   2.933   6.574   9.489  1.0076 -0.1773 -0.6646
  926MOL0     H27785   3.354   7.248  10.207  0.0211  0.1230  0.1015
  926MOL0     H27786   3.656   7.230  10.387 -2.7663 -2.3366  0.7644
  926MOL0     H27787   3.645   7.374  10.277 -1.4721  0.0295 -0.2390
  926MOL0     H27788   3.508   7.321  10.374 -1.3566 -3.2650 -0.1235
  927MOL0     O27789  10.630  11.153  10.804 -0.0236 -1.0300  0.1174
  927MOL0     C27790  10.588  11.052  10.747  0.0699 -0.2119  0.9060
  927MOL0     O27791  10.675  10.954  10.698 -0.3052  0.3562 -0.9032
  927MOL0     C27792  10.811  10.971  10.692  0.2315 -0.2212  0.2785
  927MOL0     C27793  10.874  11.088  10.642 -0.4247  0.4114 -0.3755
  927MOL0     C27794  11.008  11.087  10.633 -0.4806  0.3751 -0.4317
  927MOL0     C27795  11.085  10.971  10.645 -0.3373 -0.5203  0.2226
  927MOL0     O27796  11.222  10.960  10.619  0.3311  0.1693  0.7942
  927MOL0     C27797  11.299  11.029  10.716  0.2019 -0.2759  0.2956
  927MOL0     C27798  11.318  10.951  10.849  0.2368 -0.1692 -0.1334
  927MOL0     C27799  11.422  10.844  10.835 -0.1913 -0.8145  0.4545
  927MOL0     C27800  11.486  10.817  10.968 -0.5034  0.5429  0.0079
  927MOL0     C27801  11.633  10.798  10.947  0.2776 -0.7338 -0.3904
  927MOL0     C27802  11.708  10.752  11.075 -0.5092 -0.7146 -0.9794
  927MOL0     C27803  11.851  10.721  11.041 -0.2300 -0.6590  0.7688
  927MOL0     C27804  11.932  10.845  10.987  0.1052 -0.6646  0.1844
  927MOL0     N27805  12.076  10.835  10.996  0.3130 -0.6536 -0.1803
  927MOL0     C27806  12.168  10.763  10.922  0.1027  0.2045  0.6036
  927MOL0     C27807  12.288  10.818  10.963 -0.0277  0.9007 -0.6202
  927MOL0     C27808  12.428  10.763  10.928  0.4076 -0.0343  0.4205
  927MOL0     C27809  12.523  10.759  11.051 -0.5716 -0.1340  0.5747
  927MOL0     C27810  12.614  10.885  11.057 -0.0165 -0.9972 -0.7150
  927MOL0     C27811  12.686  10.898  11.199 -0.8680  0.6502  0.5774
  927MOL0     O27812  12.801  10.984  11.187 -0.5650 -0.4511  0.6065
  927MOL0     C27813  12.895  10.982  11.278 -0.8581  0.7743 -0.0101
  927MOL0     C27814  12.907  10.900  11.386  0.4528  0.1975 -0.4276
  927MOL0     C27815  13.019  10.912  11.473  1.4733  0.1848 -1.3121
  927MOL0     C27816  12.997  10.832  11.600  0.5486 -0.3520 -0.0915
  927MOL0     C27817  13.129  10.995  11.439 -0.3998  0.5803 -0.1981
  927MOL0     C27818  13.248  11.006  11.522  0.4116 -0.1996 -0.6944
  927MOL0     O27819  13.345  11.093  11.469  0.1387 -0.4260 -0.1817
  927MOL0     C27820  13.467  11.094  11.537 -0.3524 -0.0933 -0.6074
  927MOL0     C27821  13.580  11.018  11.499  0.5237  1.0334 -0.4776
  927MOL0     C27822  13.700  11.032  11.559 -0.1979 -0.4822  0.0078
  927MOL0     C27823  13.716  11.123  11.658 -0.1680  0.1506  0.0811
  927MOL0     O27824  13.846  11.133  11.706  0.0729  0.9525 -0.2673
  927MOL0     C27825  13.870  11.188  11.833  0.4455 -0.4960  0.3401
  927MOL0     C27826  14.009  11.141  11.883  1.1678  0.4954 -1.1638
  927MOL0     C27827  14.119  11.204  11.804 -0.3368  1.0804  0.0110
  927MOL0     C27828  14.247  11.126  11.813  0.2031 -0.5629 -0.1988
  927MOL0     C27829  14.358  11.167  11.718 -0.0523 -0.2723  0.3551
  927MOL0     C27830  14.426  11.302  11.769 -0.4905 -0.6770 -0.0795
  927MOL0     C27831  14.545  11.339  11.672  0.1947  0.2659  0.1236
  927MOL0     C27832  14.655  11.416  11.739 -0.0747 -0.1487  0.2891
  927MOL0    Cl27833  14.582  11.546  11.835  0.1979 -0.0385  0.1198
  927MOL0     C27834  13.602  11.185  11.708 -0.3027  0.0333 -0.2708
  927MOL0     C27835  13.474  11.171  11.652  0.2673 -0.1426 -0.0010
  927MOL0     O27836  13.254  10.944  11.627 -0.6891  0.1804  0.3447
  927MOL0     C27837  13.119  11.077  11.326  0.4224  0.2652 -0.2773
  927MOL0     C27838  13.002  11.067  11.251  0.1874  0.2037 -0.1990
  927MOL0     N27839  12.257  10.917  11.053 -0.5166 -0.2340  0.6631
  927MOL0     N27840  12.134  10.924  11.074 -0.3129 -0.2520 -0.0232
  927MOL0     C27841  11.023  10.856  10.676 -0.5723  0.0835  0.1464
  927MOL0     C27842  10.889  10.853  10.710 -0.1707 -0.0621  0.1357
  927MOL0     C27843  10.438  11.037  10.734  0.2537 -0.0562  0.2820
  927MOL0     C27844  10.356  11.155  10.749 -0.7586  0.6308  0.3723
  927MOL0     C27845  10.216  11.158  10.740 -0.3250 -0.5772 -0.6187
  927MOL0     C27846  10.149  11.041  10.723 -0.0060  0.5828 -0.0557
  927MOL0     O27847  10.010  11.055  10.727 -0.5617  0.1483 -0.2428
  927MOL0     C27848   9.927  10.944  10.700 -0.7988  0.3938  0.3164
  927MOL0     C27849   9.779  10.969  10.701  0.4371 -0.5384 -0.3456
  927MOL0     C27850   9.680  10.852  10.673  0.3416 -0.0094  0.2928
  927MOL0     C27851   9.650  10.757  10.789 -0.4523  0.6178 -0.3035
  927MOL0     C27852   9.765  10.684  10.825  0.3206 -0.3912  0.0175
  927MOL0     C27853   9.871  10.628  10.857  1.1298 -0.3903  0.1035
  927MOL0     C27854  10.216  10.924  10.705 -0.2690 -0.2013  0.8146
  927MOL0     C27855  10.364  10.921  10.712  0.0116  0.5883  0.6609
  927MOL0     C27856  10.449  10.796  10.706 -0.6099  1.0758  0.1304
  927MOL0     H27857  10.812  11.172  10.611 -0.7746  0.3496  0.1429
  927MOL0     H27858  11.068  11.172  10.601 -0.0277  0.1764 -0.1002
  927MOL0     H27859  11.256  11.126  10.744  0.2818 -0.5138  1.2835
  927MOL0     H27860  11.397  11.049  10.671  0.5367 -0.1304  1.0539
  927MOL0     H27861  11.363  11.021  10.919 -1.4126 -0.1765  0.9803
  927MOL0     H27862  11.225  10.910  10.891  0.3332  0.0756  0.3106
  927MOL0     H27863  11.379  10.755  10.788 -0.5383 -0.6919  0.5373
  927MOL0     H27864  11.499  10.880  10.766  0.2252 -0.7723  0.9269
  927MOL0     H27865  11.462  10.885  11.050  3.1834 -0.1660  1.8681
  927MOL0     H27866  11.440  10.719  10.986  1.1755 -0.6047 -1.5792
  927MOL0     H27867  11.666  10.898  10.917 -1.9838 -0.2718 -1.5842
  927MOL0     H27868  11.647  10.732  10.860  0.4437 -1.5905  0.2773
  927MOL0     H27869  11.708  10.829  11.153  2.0968 -0.8549 -0.7507
  927MOL0     H27870  11.659  10.663  11.117  2.1362 -0.6926  2.7210
  927MOL0     H27871  11.841  10.644  10.963 -0.5075 -0.6033  0.7458
  927MOL0     H27872  11.899  10.673  11.126 -0.1353 -1.3031  0.3536
  927MOL0     H27873  11.920  10.859  10.879 -1.6296  1.0101  0.5265
  927MOL0     H27874  11.907  10.933  11.047  0.2183 -1.0910  0.8565
  927MOL0     H27875  12.154  10.684  10.849  2.1632  2.0484 -2.0000
  927MOL0     H27876  12.472  10.822  10.847  1.1809 -1.6679 -0.4116
  927MOL0     H27877  12.418  10.667  10.874 -0.4439  0.5857 -0.5699
  927MOL0     H27878  12.458  10.748  11.138  0.0932 -0.8155  1.0017
  927MOL0     H27879  12.589  10.673  11.036 -0.4969  0.4420 -3.6809
  927MOL0     H27880  12.690  10.877  10.979  1.5208  0.8646  0.5034
  927MOL0     H27881  12.551  10.973  11.047  0.5632 -0.7114 -2.1014
  927MOL0     H27882  12.612  10.933  11.270 -0.8130 -0.3552  1.1435
  927MOL0     H27883  12.713  10.796  11.229  0.4305  0.7094 -0.3038
  927MOL0     H27884  12.825  10.834  11.412  1.2510 -1.0464 -0.9566
  927MOL0     H27885  13.035  10.897  11.680  1.3793 -0.7398 -0.1637
  927MOL0     H27886  13.054  10.740  11.584  0.4290 -0.0841 -2.4246
  927MOL0     H27887  12.890  10.827  11.624  1.2621  1.5360  4.5457
  927MOL0     H27888  13.572  10.937  11.428  0.4230  0.3949  0.2572
  927MOL0     H27889  13.780  10.961  11.541  1.1047  1.1577 -0.8567
  927MOL0     H27890  13.865  11.297  11.824  3.8442 -0.1147  1.5045
  927MOL0     H27891  13.784  11.166  11.897 -1.4098 -0.4644 -2.0256
  927MOL0     H27892  14.019  11.155  11.991  2.7838 -0.9718 -1.0762
  927MOL0     H27893  14.012  11.034  11.865  0.6350 -0.4030  2.9373
  927MOL0     H27894  14.137  11.308  11.831  1.3878  0.7642  0.1873
  927MOL0     H27895  14.084  11.197  11.700  2.7376 -0.4435 -1.0256
  927MOL0     H27896  14.229  11.019  11.810 -0.8003 -0.4088  0.0329
  927MOL0     H27897  14.282  11.152  11.914 -1.0262  0.2958  0.0240
  927MOL0     H27898  14.438  11.092  11.723  1.4570  1.2622  0.2076
  927MOL0     H27899  14.321  11.179  11.616  1.6897 -1.4786 -0.4691
  927MOL0     H27900  14.459  11.289  11.872 -0.8797 -1.2013 -0.0194
  927MOL0     H27901  14.357  11.386  11.757 -0.9109 -0.9786  0.2044
  927MOL0     H27902  14.520  11.411  11.594 -0.7641  2.3570  2.2472
  927MOL0     H27903  14.584  11.249  11.624 -0.5861  0.7064 -1.4178
  927MOL0     H27904  14.723  11.454  11.662 -1.1493  1.1947 -0.0411
  927MOL0     H27905  14.705  11.344  11.805  0.2216  0.5293  0.8168
  927MOL0     H27906  13.611  11.257  11.789 -1.2535  1.0003 -1.0030
  927MOL0     H27907  13.401  11.238  11.697  1.7819  0.3532  1.8055
  927MOL0     H27908  13.194  11.147  11.290  0.8761  1.1316  2.1470
  927MOL0     H27909  12.998  11.134  11.166 -0.2408  1.5935  0.8745
  927MOL0     H27910  11.091  10.772  10.685 -1.2151 -0.3588  1.0863
  927MOL0     H27911  10.823  10.769  10.730 -0.8565  0.2445 -0.7515
  927MOL0     H27912  10.402  11.253  10.762  0.3748  0.0887  0.6059
  927MOL0     H27913  10.163  11.250  10.765  2.5877  0.3203  3.1095
  927MOL0     H27914   9.955  10.899  10.604  0.3888 -1.5184  1.4872
  927MOL0     H27915   9.950  10.860  10.766  0.3527 -1.1235 -1.8566
  927MOL0     H27916   9.756  11.044  10.625 -0.3371  0.4015  0.7787
  927MOL0     H27917   9.750  11.014  10.797  0.0490  0.5764 -0.9630
  927MOL0     H27918   9.585  10.897  10.643  0.5218  2.6514  3.1057
  927MOL0     H27919   9.715  10.799  10.584  4.3119  0.8607  1.1268
  927MOL0     H27920   9.570  10.691  10.755  1.0544 -0.1961 -2.4867
  927MOL0     H27921   9.625  10.816  10.878  2.0451 -3.0430  3.1410
  927MOL0     H27922   9.968  10.590  10.881  1.6854 -0.1046 -1.5520
  927MOL0     H27923  10.153  10.837  10.689  2.3891 -1.6837 -3.0313
  927MOL0     H27924  10.384  10.709  10.698  0.5461  0.3044 -1.3520
  927MOL0     H27925  10.517  10.788  10.621  2.6795  1.3494  2.5396
  927MOL0     H27926  10.503  10.788  10.801  0.7046  0.6978 -0.6225
  928MOL0     O27927   2.981   2.192   6.674  0.4492 -0.6139  0.0393
  928MOL0     C27928   3.009   2.168   6.558  1.3113  0.5839 -0.2503
  928MOL0     O27929   3.127   2.200   6.487 -0.2693  0.5661 -0.3930
  928MOL0     C27930   3.248   2.211   6.554 -0.2940 -0.3655  0.3880
  928MOL0     C27931   3.355   2.290   6.491  0.4669  1.3235  0.5107
  928MOL0     C27932   3.469   2.318   6.560  1.1692  0.7712 -0.3069
  928MOL0     C27933   3.495   2.260   6.684  0.3042 -1.0034 -0.5649
  928MOL0     O27934   3.605   2.301   6.751 -0.0458 -0.5491  0.3963
  928MOL0     C27935   3.658   2.230   6.867  0.6658  0.2446  1.0028
  928MOL0     C27936   3.756   2.325   6.922 -0.7411 -0.2314 -0.1548
  928MOL0     C27937   3.830   2.263   7.035 -1.2483 -0.0937  0.2098
  928MOL0     C27938   3.942   2.161   6.986  0.5911 -0.1018 -0.8704
  928MOL0     C27939   4.030   2.128   7.099  0.0626  0.7121  0.5999
  928MOL0     C27940   4.110   2.001   7.065  0.2750 -0.3823 -0.7259
  928MOL0     C27941   4.251   2.027   7.136  0.9539 -0.4835  0.0958
  928MOL0     C27942   4.335   1.908   7.148 -0.5283  0.2050  0.3403
  928MOL0     N27943   4.468   1.937   7.213 -0.1435 -0.9168 -0.4559
  928MOL0     C27944   4.585   1.947   7.144 -0.4641 -0.0428 -0.5469
  928MOL0     C27945   4.671   2.006   7.239  0.7020  0.2227  0.1033
  928MOL0     C27946   4.809   2.052   7.205  0.5649 -0.0146  0.4952
  928MOL0     C27947   4.906   1.929   7.203  0.7484 -0.0395 -0.2443
  928MOL0     C27948   5.052   1.969   7.178  0.5197  0.3941 -0.2006
  928MOL0     C27949   5.121   2.013   7.302  0.7525 -0.1763  0.3852
  928MOL0     O27950   5.227   2.088   7.251 -0.2327 -0.5052 -0.5383
  928MOL0     C27951   5.308   2.151   7.348  0.3964 -0.4617 -0.5672
  928MOL0     C27952   5.294   2.147   7.487 -0.1362 -0.8731  0.0162
  928MOL0     C27953   5.381   2.218   7.574 -0.0052  0.4012  0.3488
  928MOL0     C27954   5.346   2.230   7.716  0.0925  0.5899  0.3052
  928MOL0     C27955   5.497   2.282   7.514 -0.7553 -0.9243 -0.4014
  928MOL0     C27956   5.593   2.349   7.599 -0.4677 -0.7225 -0.0559
  928MOL0     O27957   5.638   2.286   7.715 -0.2578  0.3119  0.1791
  928MOL0     C27958   5.753   2.347   7.768  1.0248  0.0235 -0.1831
  928MOL0     C27959   5.875   2.280   7.755 -0.2918  0.3702 -0.5013
  928MOL0     C27960   5.989   2.339   7.807 -0.4884 -0.3331  0.0394
  928MOL0     C27961   5.996   2.459   7.876  0.3098  0.0730  1.0330
  928MOL0     O27962   6.105   2.517   7.938 -0.6086  0.9877  0.2391
  928MOL0     C27963   6.222   2.443   7.914  0.0817  0.0956  0.0883
  928MOL0     C27964   6.328   2.537   7.975  0.1916  0.7728 -0.1030
  928MOL0     C27965   6.469   2.473   7.961  0.0897 -0.0820 -0.4585
  928MOL0     C27966   6.584   2.566   8.007 -0.1869 -0.5343  0.0868
  928MOL0     C27967   6.715   2.487   8.038  0.5869 -0.8792 -0.3390
  928MOL0     C27968   6.833   2.579   8.064  0.1100 -0.4315 -0.7519
  928MOL0     C27969   6.870   2.654   7.945  0.3035  0.1102 -0.2613
  928MOL0     C27970   7.002   2.731   7.955 -0.1213 -0.0469  1.2031
  928MOL0    Cl27971   7.052   2.827   7.809  0.1158  0.1181  0.4700
  928MOL0     C27972   5.870   2.528   7.881  0.3278 -0.1008 -0.0695
  928MOL0     C27973   5.749   2.475   7.834 -0.3416  0.6041 -0.3622
  928MOL0     O27974   5.625   2.467   7.569 -0.2200  0.7207 -0.6607
  928MOL0     C27975   5.505   2.289   7.373 -0.3461  0.7700  0.0863
  928MOL0     C27976   5.411   2.228   7.291  0.1298 -0.2824 -0.0650
  928MOL0     N27977   4.610   1.997   7.360 -0.7736 -0.8195 -0.1005
  928MOL0     N27978   4.487   1.958   7.344  0.6031  0.0431  0.6969
  928MOL0     C27979   3.394   2.174   6.741 -0.5152 -0.4908 -0.4131
  928MOL0     C27980   3.273   2.150   6.677 -0.7732  0.6456  0.0111
  928MOL0     C27981   2.885   2.125   6.479  0.1162  0.0497 -0.7808
  928MOL0     C27982   2.780   2.057   6.548 -0.1497 -0.3404  0.7422
  928MOL0     C27983   2.685   1.984   6.484 -0.1723  0.2534  0.6835
  928MOL0     C27984   2.677   1.992   6.341  0.5230  0.0294 -0.0208
  928MOL0     O27985   2.573   1.930   6.274 -0.3599 -0.4340 -0.0358
  928MOL0     C27986   2.465   1.884   6.348 -0.6844 -0.5134 -1.0476
  928MOL0     C27987   2.346   1.873   6.251 -0.0491 -0.2216 -0.7557
  928MOL0     C27988   2.233   1.831   6.341  0.6272 -0.1603  1.0771
  928MOL0     C27989   2.098   1.804   6.264 -0.0666 -0.5919  0.0641
  928MOL0     C27990   2.064   1.920   6.182  0.2201 -0.0696  0.2619
  928MOL0     C27991   2.022   2.005   6.111  1.3493  0.1517 -0.2930
  928MOL0     C27992   2.773   2.063   6.274  0.5619  0.3153 -0.2042
  928MOL0     C27993   2.874   2.128   6.339 -0.2645 -0.1539  0.5506
  928MOL0     C27994   2.962   2.213   6.254  0.6584 -0.0051 -0.0317
  928MOL0     H27995   3.342   2.343   6.397  2.5345  3.0342  1.1215
  928MOL0     H27996   3.536   2.385   6.508  1.1399 -1.2786 -3.2397
  928MOL0     H27997   3.709   2.139   6.836  1.9314  1.4273 -0.5998
  928MOL0     H27998   3.580   2.216   6.942  1.2867  0.2449  1.6542
  928MOL0     H27999   3.821   2.349   6.837 -0.1450  3.3900  1.1592
  928MOL0     H28000   3.710   2.418   6.957 -0.9287  0.6265 -2.4454
  928MOL0     H28001   3.869   2.338   7.105 -0.2131 -0.3132 -0.1077
  928MOL0     H28002   3.752   2.213   7.093  1.2668 -1.7597  2.4350
  928MOL0     H28003   3.892   2.069   6.956  2.1144 -0.8123 -1.3056
  928MOL0     H28004   4.000   2.199   6.902  2.0387 -0.4058 -0.0539
  928MOL0     H28005   3.973   2.107   7.190 -0.6019  2.9537  0.7459
  928MOL0     H28006   4.093   2.215   7.114 -0.7029  1.6508 -1.2819
  928MOL0     H28007   4.054   1.914   7.102 -1.1354 -0.6415 -3.3012
  928MOL0     H28008   4.130   1.988   6.959  3.0661  2.7287 -0.7623
  928MOL0     H28009   4.230   2.079   7.229 -1.7504 -1.4089  0.1166
  928MOL0     H28010   4.305   2.083   7.060 -0.6662  0.4780 -0.4018
  928MOL0     H28011   4.295   1.833   7.217  1.5123  0.0224  1.4010
  928MOL0     H28012   4.365   1.860   7.054  1.3374 -0.6010  1.2771
  928MOL0     H28013   4.609   1.923   7.041 -2.0082 -4.7219 -0.0485
  928MOL0     H28014   4.837   2.118   7.287  2.0864  1.2352 -0.9593
  928MOL0     H28015   4.812   2.107   7.111  1.0918 -1.9149 -0.6599
  928MOL0     H28016   4.894   1.874   7.297 -0.1984  0.0254 -0.3189
  928MOL0     H28017   4.878   1.872   7.114  1.8302 -0.7332 -0.1589
  928MOL0     H28018   5.105   1.884   7.135  2.1494  1.3813 -0.2358
  928MOL0     H28019   5.052   2.054   7.109 -0.8253  1.0583  0.5524
  928MOL0     H28020   5.063   2.081   7.365  0.2333  1.7909 -2.0534
  928MOL0     H28021   5.155   1.924   7.356  1.3594 -0.2965 -0.1797
  928MOL0     H28022   5.223   2.086   7.541  2.6454 -3.1552  1.3685
  928MOL0     H28023   5.350   2.334   7.750  0.7289  0.5949  0.2313
  928MOL0     H28024   5.418   2.164   7.765 -0.5596 -0.5800 -0.2637
  928MOL0     H28025   5.243   2.205   7.742  0.0540  0.3927 -0.0382
  928MOL0     H28026   5.886   2.183   7.708 -2.1144 -0.2979  0.3449
  928MOL0     H28027   6.082   2.285   7.791  1.5230  2.4298  1.5445
  928MOL0     H28028   6.238   2.341   7.949  1.3078 -0.2837 -1.4745
  928MOL0     H28029   6.241   2.440   7.807 -0.3441  0.0505  0.0144
  928MOL0     H28030   6.331   2.625   7.910 -1.6199  0.0946 -1.1496
  928MOL0     H28031   6.319   2.561   8.082 -0.8275  0.4207 -0.0982
  928MOL0     H28032   6.491   2.444   7.858  3.0677 -3.5010  0.9381
  928MOL0     H28033   6.478   2.381   8.021  1.5618  0.1244 -0.3278
  928MOL0     H28034   6.556   2.629   8.091  0.4686  0.0180 -0.1042
  928MOL0     H28035   6.602   2.626   7.917 -0.9749  0.1877  0.3992
  928MOL0     H28036   6.706   2.425   8.127  0.9012  1.2106  1.2132
  928MOL0     H28037   6.748   2.417   7.960  0.2696 -0.6849 -0.6504
  928MOL0     H28038   6.912   2.511   8.098  0.9291  0.2872 -1.1554
  928MOL0     H28039   6.804   2.633   8.155  0.2931 -1.8905  0.2100
  928MOL0     H28040   6.787   2.722   7.920  2.5846  3.2807  0.1642
  928MOL0     H28041   6.866   2.573   7.872 -1.9654  0.6484 -0.8408
  928MOL0     H28042   7.075   2.649   7.957  0.3711  0.3483  0.2134
  928MOL0     H28043   7.010   2.796   8.042  2.4760  3.8822 -1.6061
  928MOL0     H28044   5.865   2.617   7.942  3.1969  0.2399 -0.2234
  928MOL0     H28045   5.660   2.537   7.843 -0.3601  0.3740  1.2591
  928MOL0     H28046   5.589   2.343   7.331 -0.1711 -1.4260 -2.6772
  928MOL0     H28047   5.417   2.234   7.182  4.5001  0.7545  0.0641
  928MOL0     H28048   3.414   2.128   6.838  3.7432 -2.5050 -1.9878
  928MOL0     H28049   3.198   2.088   6.725 -1.6781 -0.5342 -2.7659
  928MOL0     H28050   2.769   2.047   6.656 -4.1891 -1.3787  0.3923
  928MOL0     H28051   2.629   1.921   6.552 -2.2017  1.5036  0.2440
  928MOL0     H28052   2.491   1.783   6.382 -1.2939  0.4260  2.6439
  928MOL0     H28053   2.435   1.947   6.432 -0.2167  1.4992 -2.3065
  928MOL0     H28054   2.348   1.793   6.177 -0.5525 -1.5402  0.6001
  928MOL0     H28055   2.325   1.972   6.209 -2.4350 -0.0548  0.6230
  928MOL0     H28056   2.267   1.735   6.380  1.7541 -0.0605  0.3651
  928MOL0     H28057   2.220   1.900   6.425 -1.1315  4.1855 -2.3372
  928MOL0     H28058   2.022   1.767   6.332 -3.7102 -1.0221 -3.8158
  928MOL0     H28059   2.115   1.725   6.190  0.9770  2.4796 -3.2740
  928MOL0     H28060   1.982   2.079   6.045 -3.5371 -0.2674  1.7663
  928MOL0     H28061   2.766   2.061   6.166 -0.7268  3.3780 -0.2758
  928MOL0     H28062   3.038   2.142   6.219 -0.9720 -2.1821  0.6173
  928MOL0     H28063   2.899   2.253   6.175 -1.7590 -2.1443  0.6823
  928MOL0     H28064   3.011   2.298   6.302  2.9684 -1.1417 -0.2189
  929MOL0     O28065   1.361   4.169  10.962 -0.3568 -0.3491 -0.4199
  929MOL0     C28066   1.374   4.267  11.030  0.9266 -0.8258  0.7694
  929MOL0     O28067   1.493   4.302  11.090 -0.1206 -0.2812 -0.3381
  929MOL0     C28068   1.599   4.220  11.085 -0.2086  0.2923 -0.2200
  929MOL0     C28069   1.619   4.137  11.186 -0.1066 -0.3068 -0.0955
  929MOL0     C28070   1.729   4.044  11.187 -0.1658 -0.0356  0.0277
  929MOL0     C28071   1.815   4.027  11.079  0.7266  0.1663  0.2652
  929MOL0     O28072   1.922   3.940  11.086  0.4512 -0.5119 -0.3088
  929MOL0     C28073   2.024   3.931  10.993 -0.8062 -0.9396 -0.4595
  929MOL0     C28074   2.120   4.048  11.002  0.1258  0.6362 -0.2364
  929MOL0     C28075   2.190   4.065  11.136  0.3417  0.1508  1.1187
  929MOL0     C28076   2.283   4.184  11.129 -0.0298 -0.6345  0.2477
  929MOL0     C28077   2.415   4.148  11.206 -0.4325  0.0979  0.6026
  929MOL0     C28078   2.410   4.150  11.357  0.4250  0.3902  0.1799
  929MOL0     C28079   2.536   4.164  11.427  0.3233 -1.0831  1.1710
  929MOL0     C28080   2.534   4.239  11.563  0.3241  0.2243 -0.2614
  929MOL0     N28081   2.661   4.219  11.620 -0.7668 -0.1578 -1.4227
  929MOL0     C28082   2.691   4.154  11.745 -0.3473 -0.2987  0.0104
  929MOL0     C28083   2.813   4.199  11.774 -0.6957 -0.1637 -0.4255
  929MOL0     C28084   2.889   4.167  11.899 -0.2212  0.4733  0.1250
  929MOL0     C28085   2.869   4.271  12.014 -0.0172  0.4630  0.5751
  929MOL0     C28086   2.928   4.216  12.140 -0.1156 -0.5728 -0.4140
  929MOL0     C28087   2.957   4.317  12.253 -0.1888  0.1430  0.0179
  929MOL0     O28088   2.983   4.245  12.368 -0.5561 -0.0490  0.2959
  929MOL0     C28089   3.047   4.304  12.470 -0.1536 -0.2155  0.3747
  929MOL0     C28090   3.112   4.430  12.470 -0.0741 -1.0025  0.5220
  929MOL0     C28091   3.180   4.475  12.578 -1.5530 -0.4465  0.1780
  929MOL0     C28092   3.245   4.622  12.579 -0.2974  0.5395  0.0649
  929MOL0     C28093   3.196   4.385  12.689 -0.8138  0.4956  0.1265
  929MOL0     C28094   3.285   4.415  12.806 -0.0884  0.2659 -0.8765
  929MOL0     O28095   3.401   4.474  12.777 -0.5450  0.0786  0.1012
  929MOL0     C28096   3.509   4.495  12.869  0.3591  0.2407 -0.7885
  929MOL0     C28097   3.601   4.401  12.930  0.2163 -0.1253 -0.3575
  929MOL0     C28098   3.690   4.448  13.029 -0.5036  0.9783 -1.0700
  929MOL0     C28099   3.697   4.580  13.063 -0.1557  0.3777 -0.2245
  929MOL0     O28100   3.796   4.628  13.138 -0.2765 -0.6911  0.0093
  929MOL0     C28101   3.927   4.557  13.149 -0.9504 -0.0801  0.0598
  929MOL0     C28102   4.039   4.627  13.228 -0.2556  0.0404 -0.4627
  929MOL0     C28103   4.009   4.628  13.385  0.2134 -0.6757  0.4023
  929MOL0     C28104   4.124   4.701  13.455  1.0128  0.1121  0.1083
  929MOL0     C28105   4.090   4.715  13.604 -0.2994 -0.1740 -0.1924
  929MOL0     C28106   4.210   4.762  13.688 -1.1678  0.0923  0.4911
  929MOL0     C28107   4.278   4.883  13.611 -0.1083  0.2159 -0.7062
  929MOL0     C28108   4.396   4.935  13.701  0.1058 -0.3090 -0.3591
  929MOL0    Cl28109   4.333   4.996  13.854 -0.3566  0.3253 -0.0345
  929MOL0     C28110   3.594   4.664  13.021  0.2030 -0.1368  0.2739
  929MOL0     C28111   3.510   4.624  12.922  0.2911 -0.4270 -0.2553
  929MOL0     O28112   3.251   4.384  12.925 -0.8772 -0.5443  0.5213
  929MOL0     C28113   3.134   4.251  12.684  0.4312 -0.8970 -0.3130
  929MOL0     C28114   3.058   4.215  12.573 -0.1875 -0.3350 -0.6128
  929MOL0     N28115   2.857   4.296  11.688  0.1573  0.1075 -0.4317
  929MOL0     N28116   2.774   4.292  11.591  0.4647 -0.0429  0.4145
  929MOL0     C28117   1.786   4.115  10.969 -0.0087 -0.2433  1.0111
  929MOL0     C28118   1.686   4.210  10.975  0.1230 -0.1505 -0.3883
  929MOL0     C28119   1.240   4.341  11.051 -0.2131 -0.0141 -0.3704
  929MOL0     C28120   1.135   4.315  10.970  0.4801  1.0534 -0.2538
  929MOL0     C28121   1.009   4.369  10.994  0.0636 -0.3426  0.1138
  929MOL0     C28122   0.991   4.463  11.094  0.0001 -0.7318  0.3408
  929MOL0     O28123   0.867   4.514  11.107 -0.3383 -0.4773 -0.1618
  929MOL0     C28124   0.832   4.603  11.218  0.3819  0.4765  0.6216
  929MOL0     C28125   0.681   4.594  11.250 -0.8200 -0.1422  0.1469
  929MOL0     C28126   0.589   4.638  11.147  0.6381 -0.2921  0.4573
  929MOL0     C28127   0.443   4.639  11.187 -1.0677  0.1177  0.5003
  929MOL0     C28128   0.371   4.742  11.114 -0.7822  0.1018 -0.3632
  929MOL0     C28129   0.325   4.813  11.029 -0.2760  0.1405 -0.0763
  929MOL0     C28130   1.093   4.484  11.185 -0.4470  0.0248 -0.1869
  929MOL0     C28131   1.216   4.421  11.167 -0.0261  0.1883 -0.2887
  929MOL0     C28132   1.331   4.452  11.260 -0.0933 -0.3676 -0.7889
  929MOL0     H28133   1.552   4.140  11.272 -1.7095  0.3761 -1.3296
  929MOL0     H28134   1.742   3.992  11.282 -1.4165  1.2988  0.9543
  929MOL0     H28135   1.970   3.910  10.900 -0.2003 -1.9178 -0.6103
  929MOL0     H28136   2.090   3.845  11.010  0.2785  0.3468  2.3642
  929MOL0     H28137   2.198   4.030  10.928  0.7937  0.2855  0.5434
  929MOL0     H28138   2.061   4.139  10.985 -0.6064  0.1654 -0.2409
  929MOL0     H28139   2.122   4.070  11.222 -0.6297 -1.2757  0.4691
  929MOL0     H28140   2.247   3.973  11.150  0.1969 -0.0537  0.3635
  929MOL0     H28141   2.312   4.205  11.026  2.3617  1.8625  1.3044
  929MOL0     H28142   2.228   4.273  11.163 -3.3571 -2.5369  0.2166
  929MOL0     H28143   2.481   4.225  11.166  1.8861 -1.8977  0.3442
  929MOL0     H28144   2.456   4.056  11.164 -0.0074  0.1674  0.8574
  929MOL0     H28145   2.348   4.238  11.378 -0.7881 -0.8846  2.3108
  929MOL0     H28146   2.370   4.055  11.394 -1.1439  1.4931  1.4738
  929MOL0     H28147   2.603   4.225  11.367 -0.6930  1.8636  2.8155
  929MOL0     H28148   2.589   4.068  11.429  0.6192 -0.9362  0.5239
  929MOL0     H28149   2.511   4.345  11.550  2.3946  0.6238 -1.1955
  929MOL0     H28150   2.458   4.188  11.623  1.7096 -2.3176 -0.5272
  929MOL0     H28151   2.629   4.082  11.796  0.0131 -1.8447 -1.6454
  929MOL0     H28152   2.996   4.164  11.876  0.1990  0.7877  1.9305
  929MOL0     H28153   2.844   4.074  11.934 -1.6517  1.1562  0.1873
  929MOL0     H28154   2.928   4.360  11.989  3.2279 -1.0961  2.1324
  929MOL0     H28155   2.761   4.291  12.019 -0.5474 -1.6087 -1.1412
  929MOL0     H28156   2.864   4.137  12.179 -0.2771  0.8731  2.5130
  929MOL0     H28157   3.024   4.171  12.110 -0.1780 -0.0677 -1.4181
  929MOL0     H28158   3.036   4.386  12.224  0.3302 -0.8635 -1.0426
  929MOL0     H28159   2.865   4.377  12.255  1.3754  2.6775 -0.4172
  929MOL0     H28160   3.117   4.493  12.382 -0.3917 -1.2081  0.3538
  929MOL0     H28161   3.231   4.677  12.485  1.2047 -1.5766 -1.5176
  929MOL0     H28162   3.352   4.613  12.600  0.7319  2.8884 -3.2928
  929MOL0     H28163   3.193   4.677  12.657 -3.5074 -0.6651 -1.0258
  929MOL0     H28164   3.608   4.300  12.891  4.9753  0.4304 -1.5211
  929MOL0     H28165   3.764   4.379  13.068 -0.0930  0.0427 -3.3532
  929MOL0     H28166   3.915   4.457  13.193 -0.8409  0.0482  0.3840
  929MOL0     H28167   3.976   4.536  13.054  0.4474  0.5555  0.6190
  929MOL0     H28168   4.135   4.576  13.230 -0.3170 -0.0750  1.5906
  929MOL0     H28169   4.059   4.724  13.181  2.1726  0.0728  0.5184
  929MOL0     H28170   4.000   4.532  13.437  1.6300  0.7880  3.6923
  929MOL0     H28171   3.923   4.695  13.388  1.1341  0.5541 -0.0961
  929MOL0     H28172   4.118   4.800  13.407 -1.8072  0.0843  0.2416
  929MOL0     H28173   4.219   4.651  13.433 -0.0519 -2.5416  1.1428
  929MOL0     H28174   3.997   4.770  13.617  0.1042  0.4592  0.0416
  929MOL0     H28175   4.076   4.615  13.646  0.3286 -0.0995  0.2032
  929MOL0     H28176   4.289   4.685  13.689 -0.6463  0.6185  0.3343
  929MOL0     H28177   4.175   4.793  13.787 -0.8409  0.6954  0.4235
  929MOL0     H28178   4.206   4.961  13.586  0.9574  1.0637 -1.2326
  929MOL0     H28179   4.326   4.861  13.516 -0.8714  1.2173 -1.3498
  929MOL0     H28180   4.446   5.012  13.641  1.9979 -1.0230  0.2151
  929MOL0     H28181   4.470   4.858  13.724 -0.7040 -1.2574 -0.8721
  929MOL0     H28182   3.599   4.768  13.052  2.2433  0.0351 -0.4774
  929MOL0     H28183   3.440   4.700  12.888  0.7109  1.1978  2.2338
  929MOL0     H28184   3.143   4.184  12.769  0.7580  0.6632  0.9370
  929MOL0     H28185   3.020   4.114  12.584  3.2923 -1.8201 -0.9130
  929MOL0     H28186   1.849   4.111  10.880 -1.0950  0.2056  0.1917
  929MOL0     H28187   1.658   4.268  10.887  2.8360  1.3910 -0.3396
  929MOL0     H28188   1.149   4.245  10.888  2.0273  1.7462 -0.6323
  929MOL0     H28189   0.929   4.354  10.922 -1.5879 -1.2043  2.0456
  929MOL0     H28190   0.890   4.573  11.305  0.8499  0.3965  0.2900
  929MOL0     H28191   0.865   4.705  11.197 -0.7743  1.3075  2.5552
  929MOL0     H28192   0.658   4.652  11.340 -1.3854 -1.7112  1.0477
  929MOL0     H28193   0.650   4.492  11.273 -1.8190  0.4272  1.4281
  929MOL0     H28194   0.626   4.733  11.106  0.7741 -0.3755  0.3870
  929MOL0     H28195   0.592   4.572  11.060 -0.3283  0.7764 -0.4196
  929MOL0     H28196   0.442   4.651  11.295 -0.3340  0.3543  0.4868
  929MOL0     H28197   0.397   4.542  11.166  0.2600  0.2483 -4.2214
  929MOL0     H28198   0.289   4.867  10.944 -0.5696  0.0965  0.0229
  929MOL0     H28199   1.090   4.557  11.265  2.7242  0.3894 -0.2761
  929MOL0     H28200   1.376   4.360  11.300 -1.6262 -0.7633  0.0831
  929MOL0     H28201   1.414   4.507  11.215  1.1716  2.0019  3.7707
  929MOL0     H28202   1.302   4.511  11.347 -1.6031  1.0351 -2.1822
  930MOL0     O28203   0.211   1.410   5.648  0.4187  0.4754 -0.3719
  930MOL0     C28204   0.186   1.352   5.754  0.0191  0.3324  0.0659
  930MOL0     O28205   0.285   1.299   5.836 -0.5308 -0.3582  0.2233
  930MOL0     C28206   0.418   1.318   5.790 -0.4601  0.0543 -0.2874
  930MOL0     C28207   0.492   1.224   5.713  0.8577 -0.3499 -0.2849
  930MOL0     C28208   0.625   1.231   5.668  0.1413 -0.0073 -0.7582
  930MOL0     C28209   0.692   1.344   5.707  0.0565  0.4701 -0.3745
  930MOL0     O28210   0.826   1.350   5.692 -0.1987 -0.0676  0.4502
  930MOL0     C28211   0.877   1.469   5.623 -0.5442  0.6107 -0.1459
  930MOL0     C28212   1.027   1.474   5.658 -0.5043  0.0131  0.1627
  930MOL0     C28213   1.107   1.347   5.625  0.1872 -0.9776 -0.8709
  930MOL0     C28214   1.220   1.334   5.721 -1.1112  0.5750  0.8737
  930MOL0     C28215   1.327   1.222   5.695  0.4416 -0.5440 -0.3107
  930MOL0     C28216   1.431   1.212   5.811 -0.4761  0.4007  0.5401
  930MOL0     C28217   1.568   1.141   5.772  1.1383  0.8209  0.2104
  930MOL0     C28218   1.653   1.232   5.676  0.3933  0.8539  0.7230
  930MOL0     N28219   1.791   1.186   5.676  0.5448  0.3497 -0.1270
  930MOL0     C28220   1.881   1.244   5.760 -0.7433 -0.3102 -0.5438
  930MOL0     C28221   1.993   1.155   5.762  0.1734 -0.5273  1.1162
  930MOL0     C28222   2.121   1.159   5.829 -0.4807  0.1814  0.1063
  930MOL0     C28223   2.200   1.290   5.823 -0.6231 -0.2181 -0.2669
  930MOL0     C28224   2.339   1.276   5.897  0.1047  0.2549  0.9308
  930MOL0     C28225   2.424   1.400   5.895  0.5681  0.1693 -0.0905
  930MOL0     O28226   2.387   1.484   6.004 -0.1379 -0.2229  0.6989
  930MOL0     C28227   2.491   1.547   6.071 -0.7313 -0.1374 -0.3264
  930MOL0     C28228   2.575   1.634   6.003 -0.8958  0.1370  0.1059
  930MOL0     C28229   2.690   1.691   6.060  0.5425 -0.2842  0.2900
  930MOL0     C28230   2.763   1.798   5.982 -0.7023 -1.1439  0.6522
  930MOL0     C28231   2.725   1.654   6.189 -0.1987  1.2200  0.2071
  930MOL0     C28232   2.843   1.701   6.262  0.3732 -0.4370 -0.1633
  930MOL0     O28233   2.852   1.664   6.392  0.2979  0.1238  0.0766
  930MOL0     C28234   2.959   1.705   6.475 -0.7507 -0.4803  0.4504
  930MOL0     C28235   2.980   1.632   6.591 -0.7836 -0.6215  0.5447
  930MOL0     C28236   3.089   1.652   6.673  0.4962 -0.5292  0.2551
  930MOL0     C28237   3.175   1.759   6.647  0.2708 -0.1794 -0.0193
  930MOL0     O28238   3.289   1.789   6.725  0.2137  0.7286  0.2064
  930MOL0     C28239   3.344   1.690   6.819 -0.0957  0.3288 -0.3393
  930MOL0     C28240   3.436   1.583   6.751  0.3431 -0.4895 -0.4069
  930MOL0     C28241   3.511   1.500   6.859 -0.1950  0.3935 -0.5065
  930MOL0     C28242   3.624   1.409   6.802 -0.1417  0.3528  0.3046
  930MOL0     C28243   3.729   1.369   6.912 -0.1609  0.1795 -0.7471
  930MOL0     C28244   3.832   1.278   6.852  0.2046  0.2444  0.6955
  930MOL0     C28245   3.888   1.176   6.951  0.8153 -0.2012  0.8088
  930MOL0     C28246   4.011   1.228   7.015  0.4448  0.2596  0.0972
  930MOL0    Cl28247   4.052   1.109   7.149 -0.2979 -0.1366 -0.6186
  930MOL0     C28248   3.141   1.848   6.546 -0.0947  0.4711  0.4248
  930MOL0     C28249   3.037   1.815   6.463  0.3809 -0.3843  0.1938
  930MOL0     O28250   2.935   1.764   6.204  0.4433 -0.1412 -0.4198
  930MOL0     C28251   2.635   1.575   6.257  0.5293  0.0771  0.5783
  930MOL0     C28252   2.520   1.518   6.201 -0.0213 -0.5849 -0.1591
  930MOL0     N28253   1.957   1.049   5.673  0.1208 -0.2123 -0.7284
  930MOL0     N28254   1.843   1.075   5.619 -0.0164  0.7167 -0.0186
  930MOL0     C28255   0.635   1.437   5.789 -0.6716 -0.2478 -1.2801
  930MOL0     C28256   0.495   1.435   5.819 -0.3146  0.3636  1.0454
  930MOL0     C28257   0.040   1.323   5.796 -0.8296  0.4229  0.4047
  930MOL0     C28258   0.010   1.274   5.925 -0.6269  0.3010 -0.1712
  930MOL0     C28259  -0.114   1.248   5.983  0.1577 -0.8140 -0.4046
  930MOL0     C28260  -0.219   1.257   5.901 -0.1162 -1.1252  0.9156
  930MOL0     O28261  -0.344   1.222   5.952 -0.2981  0.4719 -0.3301
  930MOL0     C28262  -0.452   1.205   5.868  0.2777 -0.6928  0.0954
  930MOL0     C28263  -0.590   1.220   5.940 -0.5600 -0.0683 -0.7710
  930MOL0     C28264  -0.604   1.362   5.994  0.5522 -0.0084  0.0196
  930MOL0     C28265  -0.747   1.382   6.038  0.4595  0.6961 -0.0444
  930MOL0     C28266  -0.832   1.408   5.918  0.6022 -1.0072 -0.0468
  930MOL0     C28267  -0.898   1.442   5.819 -0.7321 -0.5541  0.2276
  930MOL0     C28268  -0.197   1.289   5.757  0.5215  0.3041  0.5292
  930MOL0     C28269  -0.073   1.330   5.711 -0.4238 -0.7974 -0.2569
  930MOL0     C28270  -0.057   1.368   5.571  0.6039  0.4751 -0.2481
  930MOL0     H28271   0.436   1.144   5.667  1.1690 -1.8547  1.7860
  930MOL0     H28272   0.668   1.162   5.596 -1.8959 -0.2367 -1.8396
  930MOL0     H28273   0.824   1.560   5.654  0.0458  1.2852 -1.0276
  930MOL0     H28274   0.880   1.454   5.514  3.1704 -3.5909  0.2715
  930MOL0     H28275   1.063   1.560   5.602 -0.2724 -0.4781 -0.4549
  930MOL0     H28276   1.028   1.511   5.760  0.8867  1.1322 -0.2327
  930MOL0     H28277   1.041   1.260   5.637  0.5946 -1.0760  0.8426
  930MOL0     H28278   1.150   1.359   5.525  0.7428  0.7254 -0.4513
  930MOL0     H28279   1.281   1.425   5.723 -0.1475 -0.0422  2.8215
  930MOL0     H28280   1.193   1.340   5.827 -1.2296  4.7567  0.7604
  930MOL0     H28281   1.369   1.257   5.600 -0.6996 -0.3227 -0.7515
  930MOL0     H28282   1.288   1.122   5.677 -0.3024  0.1777 -3.3504
  930MOL0     H28283   1.446   1.317   5.838 -4.1672  1.0044  0.8512
  930MOL0     H28284   1.394   1.159   5.898 -1.0727  1.6081  1.0550
  930MOL0     H28285   1.543   1.045   5.727  0.4778  0.2675  1.6990
  930MOL0     H28286   1.627   1.126   5.863  2.3930  0.8112 -0.5731
  930MOL0     H28287   1.610   1.238   5.576  1.9139 -1.4468 -0.1604
  930MOL0     H28288   1.649   1.333   5.719  2.4641  0.3278  2.3331
  930MOL0     H28289   1.873   1.340   5.809  1.7529  0.3243 -1.2134
  930MOL0     H28290   2.187   1.077   5.800  0.5299  1.1460 -0.4123
  930MOL0     H28291   2.098   1.149   5.935 -2.0099  0.8646 -0.1366
  930MOL0     H28292   2.226   1.295   5.716 -0.1112 -1.6060 -0.2290
  930MOL0     H28293   2.143   1.379   5.850 -2.2347 -0.8940 -1.2904
  930MOL0     H28294   2.313   1.256   6.001  1.1565  0.1380  1.1780
  930MOL0     H28295   2.402   1.194   5.862 -3.9743 -2.3837 -1.1212
  930MOL0     H28296   2.527   1.362   5.893 -0.4237 -2.7799 -1.4193
  930MOL0     H28297   2.415   1.459   5.804  1.4577  0.1357 -0.2118
  930MOL0     H28298   2.552   1.659   5.900  0.0361 -1.8044 -0.6179
  930MOL0     H28299   2.858   1.770   5.936  0.4594  3.4294 -0.2357
  930MOL0     H28300   2.787   1.882   6.049  1.0623 -0.7988 -0.3211
  930MOL0     H28301   2.707   1.853   5.907  2.1639 -2.4369 -2.7396
  930MOL0     H28302   2.917   1.549   6.622 -1.6069 -0.9204 -1.7895
  930MOL0     H28303   3.107   1.580   6.752  1.0140 -1.3542 -0.5908
  930MOL0     H28304   3.406   1.742   6.892 -1.6705 -0.9470  2.0030
  930MOL0     H28305   3.272   1.631   6.875  1.5142 -2.3453 -0.9045
  930MOL0     H28306   3.372   1.522   6.687 -1.6672  2.2475 -1.2018
  930MOL0     H28307   3.512   1.626   6.685  0.3561 -1.6689 -1.1834
  930MOL0     H28308   3.436   1.444   6.915 -0.3968  0.0642 -1.1043
  930MOL0     H28309   3.552   1.571   6.932 -2.6709 -0.6504  2.0505
  930MOL0     H28310   3.675   1.458   6.719  2.1887 -0.8810  0.9095
  930MOL0     H28311   3.576   1.319   6.763  0.9736  0.0080 -0.2910
  930MOL0     H28312   3.774   1.468   6.927 -0.2198  0.8455 -4.1382
  930MOL0     H28313   3.676   1.325   6.997  0.3912 -0.2302 -0.6054
  930MOL0     H28314   3.917   1.330   6.806 -0.2159  0.6189  0.3233
  930MOL0     H28315   3.793   1.219   6.769  0.5399  0.8787  0.0751
  930MOL0     H28316   3.918   1.090   6.891  1.1806  0.5733 -0.1504
  930MOL0     H28317   3.809   1.153   7.024 -2.6156  0.1000 -2.4846
  930MOL0     H28318   3.991   1.330   7.050 -1.6489 -0.8443  2.4455
  930MOL0     H28319   4.092   1.231   6.942 -0.3922  0.5432 -0.8343
  930MOL0     H28320   3.203   1.936   6.530 -1.6935  1.8699  1.5823
  930MOL0     H28321   3.020   1.887   6.383  0.0160 -0.1667  0.4686
  930MOL0     H28322   2.640   1.555   6.363 -0.2614  0.2222  0.6523
  930MOL0     H28323   2.461   1.446   6.258 -2.7587  1.6048  0.0052
  930MOL0     H28324   0.686   1.531   5.804 -2.5149  0.8209 -1.4021
  930MOL0     H28325   0.455   1.519   5.875 -1.6761 -0.6518  1.6278
  930MOL0     H28326   0.087   1.263   6.001 -1.2208  1.6141  0.6663
  930MOL0     H28327  -0.141   1.222   6.085  0.8371 -1.3044 -0.3430
  930MOL0     H28328  -0.451   1.277   5.785  0.7652 -1.4516 -0.5610
  930MOL0     H28329  -0.435   1.102   5.837  4.8194 -0.1941  0.3228
  930MOL0     H28330  -0.595   1.156   6.029 -1.8591  0.2582 -0.5902
  930MOL0     H28331  -0.665   1.189   5.866  0.0147 -2.3437 -0.4599
  930MOL0     H28332  -0.531   1.383   6.074  1.1542 -1.5644 -0.0929
  930MOL0     H28333  -0.585   1.435   5.915 -2.6626 -1.0349 -1.8625
  930MOL0     H28334  -0.758   1.466   6.108  0.2335 -0.0253  0.8077
  930MOL0     H28335  -0.786   1.296   6.094  1.4834 -0.5288 -1.1342
  930MOL0     H28336  -0.945   1.478   5.729 -0.6117 -0.9283  0.0125
  930MOL0     H28337  -0.281   1.278   5.689  0.3173  1.6533  0.5525
  930MOL0     H28338  -0.161   1.370   5.536  0.5964 -2.5548 -0.6190
  930MOL0     H28339  -0.014   1.467   5.551 -2.5876  1.7770 -1.3860
  930MOL0     H28340  -0.008   1.282   5.526 -1.8326 -0.0730 -2.0617
  931MOL0     O28341   9.153  10.492   6.690  0.2745 -0.1776  0.2820
  931MOL0     C28342   9.069  10.457   6.613 -0.1297 -0.7894  0.2854
  931MOL0     O28343   9.095  10.366   6.509  0.1325 -0.4061  0.2583
  931MOL0     C28344   9.225  10.336   6.469 -0.0029 -0.0886 -0.7738
  931MOL0     C28345   9.327  10.291   6.560 -0.4720  0.3905 -0.5841
  931MOL0     C28346   9.448  10.249   6.505  0.3046 -0.2059  0.2815
  931MOL0     C28347   9.476  10.255   6.364  0.0411 -0.7293  0.8101
  931MOL0     O28348   9.602  10.206   6.329 -0.2526  0.3259  0.3665
  931MOL0     C28349   9.651  10.254   6.203 -0.2902  0.0174  1.2133
  931MOL0     C28350   9.799  10.226   6.195 -0.0225  0.1606  0.8832
  931MOL0     C28351   9.872  10.341   6.259  0.5723 -0.4698  0.2594
  931MOL0     C28352  10.016  10.310   6.283  0.0260 -0.0561 -0.4328
  931MOL0     C28353  10.061  10.377   6.414  0.2818  0.3553  0.1195
  931MOL0     C28354  10.068  10.531   6.403  0.3281 -0.3439  0.5827
  931MOL0     C28355  10.131  10.612   6.519 -0.1581 -0.4337 -0.1485
  931MOL0     C28356  10.029  10.661   6.620  0.3857  0.3572  0.1995
  931MOL0     N28357   9.961  10.559   6.696  0.8362 -1.0133  0.3373
  931MOL0     C28358   9.821  10.563   6.737 -0.1049 -0.8435  0.1576
  931MOL0     C28359   9.817  10.453   6.817  0.5073 -0.4410 -0.0284
  931MOL0     C28360   9.693  10.375   6.859  0.4756 -0.4519 -0.4514
  931MOL0     C28361   9.602  10.447   6.965  0.0357  0.2309  0.4207
  931MOL0     C28362   9.634  10.411   7.116  0.4389  0.6113 -0.4671
  931MOL0     C28363   9.762  10.456   7.168  0.6827 -0.1547  0.2252
  931MOL0     O28364   9.778  10.405   7.308 -0.1763 -0.3979 -0.0996
  931MOL0     C28365   9.879  10.313   7.315  1.1030 -0.2750 -0.7544
  931MOL0     C28366   9.842  10.192   7.365 -0.4215  0.7890  0.2457
  931MOL0     C28367   9.929  10.080   7.369  0.5078  0.1621 -0.5199
  931MOL0     C28368   9.880   9.936   7.415 -1.1183 -0.6119  0.2740
  931MOL0     C28369  10.067  10.110   7.354  0.5797 -0.3171  0.0072
  931MOL0     C28370  10.180  10.015   7.376 -0.8529  0.6757 -0.4256
  931MOL0     O28371  10.271  10.041   7.471 -0.1312  0.2124  0.7394
  931MOL0     C28372  10.398   9.990   7.466 -0.2790  0.2411 -0.0662
  931MOL0     C28373  10.457   9.925   7.361 -0.1878 -0.0948  0.8054
  931MOL0     C28374  10.584   9.863   7.371  0.2623  0.1694 -0.1176
  931MOL0     C28375  10.640   9.854   7.496 -0.6847  0.4832 -0.0407
  931MOL0     O28376  10.751   9.774   7.526  0.2081 -0.2193  0.5769
  931MOL0     C28377  10.844   9.737   7.420  0.2012  0.5047  0.6112
  931MOL0     C28378  10.955   9.667   7.498  0.2228 -0.0498 -0.3162
  931MOL0     C28379  11.048   9.601   7.388  0.5473 -0.2542  0.1338
  931MOL0     C28380  11.161   9.517   7.442  0.4223  0.4260  0.3778
  931MOL0     C28381  11.203   9.409   7.346 -0.1130 -0.6330  0.3856
  931MOL0     C28382  11.270   9.463   7.215  0.8723  0.2826 -0.3584
  931MOL0     C28383  11.310   9.356   7.120  0.0579 -0.4062  0.6412
  931MOL0     C28384  11.395   9.427   7.009  0.6037  0.1863  0.0999
  931MOL0    Cl28385  11.435   9.311   6.883 -0.1126  0.5942 -0.3157
  931MOL0     C28386  10.586   9.913   7.606  0.0370  0.6438 -0.5059
  931MOL0     C28387  10.463   9.979   7.592 -0.5293 -0.2109 -0.3446
  931MOL0     O28388  10.171   9.910   7.308  0.7327  0.2158 -0.5059
  931MOL0     C28389  10.109  10.240   7.314  0.0017 -0.0729 -0.4035
  931MOL0     C28390  10.013  10.339   7.280 -0.0604  0.8566  0.3934
  931MOL0     N28391   9.948  10.414   6.846 -0.0067  0.0254  0.2737
  931MOL0     N28392  10.033  10.474   6.769  0.4945  0.3670  0.2852
  931MOL0     C28393   9.377  10.305   6.282 -0.4352 -0.1592  0.1647
  931MOL0     C28394   9.252  10.345   6.336 -0.8432  0.1740 -0.2600
  931MOL0     C28395   8.924  10.475   6.647  0.7666  0.1298  0.6351
  931MOL0     C28396   8.839  10.367   6.616 -0.4660  0.1132 -0.7771
  931MOL0     C28397   8.693  10.388   6.631 -0.6513 -1.3170  0.3301
  931MOL0     C28398   8.640  10.514   6.664 -1.0945  1.7636  0.0929
  931MOL0     O28399   8.510  10.532   6.672  0.0292  0.5132  0.0017
  931MOL0     C28400   8.446  10.559   6.550 -0.5507  0.2618 -0.2841
  931MOL0     C28401   8.342  10.674   6.564 -0.3383 -0.4322  1.1493
  931MOL0     C28402   8.250  10.656   6.679  0.5902 -0.3670 -1.0696
  931MOL0     C28403   8.125  10.735   6.658 -0.1333 -0.5421  0.1376
  931MOL0     C28404   8.030  10.671   6.566 -0.2254 -0.2270  0.8808
  931MOL0     C28405   7.937  10.624   6.501  0.4684  0.8543  0.4237
  931MOL0     C28406   8.728  10.615   6.701  1.0562  0.2657 -0.2047
  931MOL0     C28407   8.867  10.600   6.689 -0.6383 -1.1302 -0.5707
  931MOL0     C28408   8.952  10.719   6.724 -0.9073 -0.5615  0.1226
  931MOL0     H28409   9.309  10.268   6.664 -1.6664 -0.8595 -1.0262
  931MOL0     H28410   9.523  10.201   6.567  0.2229 -1.2766 -0.4179
  931MOL0     H28411   9.628  10.361   6.192  0.6372  0.1928  0.8262
  931MOL0     H28412   9.592  10.203   6.127  0.1405  0.4383  0.5886
  931MOL0     H28413   9.820  10.137   6.256  0.9696 -1.3919 -1.5523
  931MOL0     H28414   9.827  10.216   6.089 -2.2449  2.5087 -0.0126
  931MOL0     H28415   9.866  10.432   6.199  3.7864 -0.0256  0.4159
  931MOL0     H28416   9.828  10.362   6.357  1.5399 -0.1016  0.6383
  931MOL0     H28417  10.030  10.202   6.293  0.5569  0.0752  0.4298
  931MOL0     H28418  10.078  10.345   6.200  0.7524  0.7288  0.4131
  931MOL0     H28419  10.161  10.338   6.433  0.4183  0.0342 -1.1858
  931MOL0     H28420   9.990  10.348   6.492  0.8968 -0.9019  0.2326
  931MOL0     H28421  10.116  10.554   6.308 -0.5567  0.8789  0.4167
  931MOL0     H28422   9.967  10.571   6.388  1.8972  3.2105 -1.4346
  931MOL0     H28423  10.190  10.693   6.476 -0.0484 -0.5787 -0.2753
  931MOL0     H28424  10.207  10.550   6.567 -0.9604 -2.6568 -1.5889
  931MOL0     H28425  10.088  10.728   6.684  3.4011 -2.6610  0.8552
  931MOL0     H28426   9.952  10.708   6.559  1.9490 -0.3914 -2.5231
  931MOL0     H28427   9.750  10.632   6.691  1.2954  1.2025  0.9334
  931MOL0     H28428   9.717  10.270   6.880  1.5419 -0.2815 -0.7740
  931MOL0     H28429   9.636  10.360   6.768 -1.1039 -0.4809  0.5074
  931MOL0     H28430   9.607  10.556   6.957  1.6447  0.0813 -1.3607
  931MOL0     H28431   9.498  10.414   6.956 -0.0945  1.0855 -2.0389
  931MOL0     H28432   9.550  10.455   7.172 -1.3038  0.3558 -2.7469
  931MOL0     H28433   9.629  10.302   7.121  0.9353  0.5719 -0.8372
  931MOL0     H28434   9.841  10.424   7.099 -1.4994  0.6585 -2.8620
  931MOL0     H28435   9.765  10.566   7.173  0.6941 -0.1562  0.2502
  931MOL0     H28436   9.736  10.191   7.391  0.2019 -0.2827  3.0579
  931MOL0     H28437   9.944   9.910   7.499 -1.1708 -1.3598  0.0858
  931MOL0     H28438   9.902   9.873   7.329 -2.6276 -0.5832 -0.1667
  931MOL0     H28439   9.775   9.932   7.445 -1.4483 -0.4723 -0.8104
  931MOL0     H28440  10.408   9.950   7.267  0.8075  1.2949  0.6220
  931MOL0     H28441  10.619   9.808   7.285 -0.2848 -1.1662  0.4732
  931MOL0     H28442  10.789   9.665   7.358 -1.7549  0.6283  2.0879
  931MOL0     H28443  10.876   9.820   7.357  0.5588  0.4954  0.7775
  931MOL0     H28444  11.017   9.742   7.549 -1.0156 -1.0229  2.8660
  931MOL0     H28445  10.921   9.598   7.576  2.2812  0.2267  0.9112
  931MOL0     H28446  11.071   9.683   7.319 -1.1923  0.9743  0.9542
  931MOL0     H28447  10.990   9.528   7.332  1.3195 -1.3556  0.7329
  931MOL0     H28448  11.127   9.479   7.539 -3.4866  2.4448  0.0041
  931MOL0     H28449  11.250   9.576   7.465  0.9345  0.0028 -0.4911
  931MOL0     H28450  11.279   9.348   7.395  0.0786 -1.0485 -0.3970
  931MOL0     H28451  11.112   9.349   7.332  1.0211 -2.0788 -1.2886
  931MOL0     H28452  11.359   9.520   7.242  3.0758 -2.9190 -0.3119
  931MOL0     H28453  11.192   9.525   7.169  1.8870  0.3442 -2.0893
  931MOL0     H28454  11.228   9.301   7.073 -2.0334 -0.6234  4.1558
  931MOL0     H28455  11.371   9.280   7.170  2.2033  2.0615  2.0611
  931MOL0     H28456  11.481   9.475   7.056 -0.4225  1.7903  0.4453
  931MOL0     H28457  11.333   9.510   6.972  0.2780 -0.1972 -0.2275
  931MOL0     H28458  10.631   9.911   7.705 -3.2519  1.4912  1.1521
  931MOL0     H28459  10.422  10.039   7.672  3.2683  2.9253 -0.4566
  931MOL0     H28460  10.216  10.248   7.299 -0.0078  2.8952  0.5965
  931MOL0     H28461  10.038  10.432   7.229  0.2029 -0.2305 -1.5673
  931MOL0     H28462   9.389  10.307   6.174  0.5947  0.3106  0.2832
  931MOL0     H28463   9.180  10.393   6.271 -0.8017  0.3641 -0.1641
  931MOL0     H28464   8.876  10.277   6.567  0.8778  0.5892 -0.6870
  931MOL0     H28465   8.620  10.311   6.606 -1.4719 -0.4857  0.1008
  931MOL0     H28466   8.518  10.589   6.473 -0.9049 -1.5729 -1.3938
  931MOL0     H28467   8.407  10.465   6.510 -2.7207  1.2294 -0.5905
  931MOL0     H28468   8.299  10.700   6.467  1.3029  3.2209  1.2378
  931MOL0     H28469   8.401  10.764   6.585  0.7741 -0.7548 -0.3558
  931MOL0     H28470   8.231  10.549   6.694 -0.9945 -0.2051 -1.7633
  931MOL0     H28471   8.305  10.682   6.771 -0.3659 -2.7220  0.2418
  931MOL0     H28472   8.146  10.838   6.631  0.7693 -0.7519 -0.0018
  931MOL0     H28473   8.076  10.729   6.756  0.6214 -0.8790  0.5056
  931MOL0     H28474   7.850  10.582   6.455  1.8241  0.4765 -1.9717
  931MOL0     H28475   8.676  10.705   6.731  0.1805  0.0652 -1.0843
  931MOL0     H28476   8.907  10.817   6.707 -2.3045 -1.3067 -0.6805
  931MOL0     H28477   8.981  10.722   6.830 -0.1028 -1.2621 -0.0667
  931MOL0     H28478   9.039  10.714   6.658 -1.0538 -4.2343 -0.0050
  932MOL0     O28479   0.876   8.769  11.265 -0.2313 -0.3334 -0.2763
  932MOL0     C28480   0.868   8.836  11.158 -0.1005 -0.5264 -0.3576
  932MOL0     O28481   0.973   8.898  11.092 -0.6004 -0.0124 -0.1202
  932MOL0     C28482   1.100   8.854  11.107  0.9728 -0.0778  0.0459
  932MOL0     C28483   1.168   8.803  11.219 -0.8066 -0.0690  1.4911
  932MOL0     C28484   1.294   8.749  11.208  0.7968  0.2270  0.4390
  932MOL0     C28485   1.362   8.738  11.084  0.5058  0.1369  0.0422
  932MOL0     O28486   1.494   8.690  11.067 -0.3327  0.4938  0.3445
  932MOL0     C28487   1.567   8.646  11.182 -0.3443 -0.0096 -1.1070
  932MOL0     C28488   1.707   8.618  11.138 -0.3349 -0.4136  0.6310
  932MOL0     C28489   1.800   8.628  11.255  0.2439  0.9639  0.4650
  932MOL0     C28490   1.945   8.631  11.192 -0.5037  0.0168 -0.8990
  932MOL0     C28491   2.049   8.620  11.303  0.2107  0.7237  0.1410
  932MOL0     C28492   2.192   8.611  11.262 -0.8994  0.2093 -1.1807
  932MOL0     C28493   2.271   8.580  11.386 -0.3828  0.0068 -0.6236
  932MOL0     C28494   2.419   8.540  11.366 -0.2865 -0.5169  0.6423
  932MOL0     N28495   2.507   8.656  11.327 -0.5225  0.1851 -0.8996
  932MOL0     C28496   2.599   8.649  11.227 -0.1853  0.2252  1.3314
  932MOL0     C28497   2.678   8.761  11.240 -0.8613  0.4693 -1.2951
  932MOL0     C28498   2.800   8.799  11.160  0.5234  0.5116 -0.4287
  932MOL0     C28499   2.938   8.760  11.225 -0.1738 -0.7060 -0.5541
  932MOL0     C28500   3.044   8.816  11.129  0.5730  0.1895 -0.5766
  932MOL0     C28501   3.068   8.723  11.011 -0.2635  0.0669 -0.3629
  932MOL0     O28502   3.093   8.812  10.901 -0.6105 -0.7114  0.3053
  932MOL0     C28503   3.234   8.816  10.873  1.0275  0.2904 -0.4750
  932MOL0     C28504   3.299   8.720  10.797  0.0168 -0.4894 -0.4815
  932MOL0     C28505   3.435   8.726  10.762  0.0263  0.2623  0.6005
  932MOL0     C28506   3.482   8.613  10.669 -0.2158 -0.8258  0.2235
  932MOL0     C28507   3.509   8.829  10.821  0.8239 -0.5258  0.6132
  932MOL0     C28508   3.651   8.847  10.800 -0.1203  0.5822 -0.8612
  932MOL0     O28509   3.711   8.974  10.798 -0.0336  1.2358 -0.6708
  932MOL0     C28510   3.845   8.980  10.773 -0.0880 -0.3567  0.0865
  932MOL0     C28511   3.886   9.044  10.663 -0.8391  0.5296 -0.9190
  932MOL0     C28512   4.029   9.052  10.638  0.2608  0.5334  0.1286
  932MOL0     C28513   4.117   8.995  10.727 -0.2916 -0.2150 -0.3027
  932MOL0     O28514   4.248   8.991  10.712 -0.5970  0.0784 -0.1102
  932MOL0     C28515   4.309   8.942  10.590 -0.4393  0.2213  0.1604
  932MOL0     C28516   4.416   9.040  10.536  0.2422 -0.6407 -0.7729
  932MOL0     C28517   4.524   9.061  10.644  0.1883  1.0817 -0.0674
  932MOL0     C28518   4.654   8.992  10.630  0.4915  0.3944  0.4769
  932MOL0     C28519   4.663   8.861  10.704  0.1048 -0.5350  0.4900
  932MOL0     C28520   4.814   8.828  10.705  0.1193  0.2090 -0.2531
  932MOL0     C28521   4.822   8.703  10.798 -0.2257  0.3801 -0.8187
  932MOL0     C28522   4.965   8.652  10.819  0.1763 -0.1741  0.0195
  932MOL0    Cl28523   4.951   8.495  10.903  0.0438 -0.0557 -0.4514
  932MOL0     C28524   4.066   8.940  10.854  0.1252 -0.4941  0.4757
  932MOL0     C28525   3.927   8.928  10.871  0.0848  0.7152 -0.7628
  932MOL0     O28526   3.717   8.746  10.773 -0.1912  0.6977 -0.0316
  932MOL0     C28527   3.441   8.929  10.893  0.1402 -0.0461 -0.3922
  932MOL0     C28528   3.305   8.924  10.917 -0.2732 -0.3460 -1.0795
  932MOL0     N28529   2.639   8.824  11.360  0.0173 -0.1704  0.1164
  932MOL0     N28530   2.530   8.769  11.401 -0.5541  0.1558 -0.0798
  932MOL0     C28531   1.293   8.793  10.974  0.7844  0.2835  0.2328
  932MOL0     C28532   1.163   8.834  10.987  1.0148 -0.2146 -0.6563
  932MOL0     C28533   0.734   8.880  11.120  0.2279  0.2926 -0.2357
  932MOL0     C28534   0.713   8.994  11.040 -0.5409  0.4516  0.3688
  932MOL0     C28535   0.590   9.022  10.975 -0.3982 -0.5408 -0.9332
  932MOL0     C28536   0.480   8.957  11.003 -0.0032  0.2114 -0.2939
  932MOL0     O28537   0.346   8.984  10.967  0.4821 -0.8429  0.3502
  932MOL0     C28538   0.313   9.072  10.860  0.2661 -0.0779 -0.5231
  932MOL0     C28539   0.162   9.093  10.836 -0.6882 -0.2204 -0.2818
  932MOL0     C28540   0.118   9.240  10.811 -0.4538  0.3017  0.0772
  932MOL0     C28541   0.134   9.276  10.663 -0.3011 -0.2859  0.3552
  932MOL0     C28542   0.270   9.301  10.630 -0.1808  0.6256  0.0775
  932MOL0     C28543   0.380   9.332  10.599 -0.7290  0.2185 -0.6862
  932MOL0     C28544   0.489   8.847  11.091 -0.4054  0.0725  0.1424
  932MOL0     C28545   0.616   8.810  11.156  0.0135  0.0122  0.2637
  932MOL0     C28546   0.606   8.700  11.260 -0.4946 -0.0778 -0.1689
  932MOL0     H28547   1.129   8.824  11.319 -0.9116  1.7111  1.1172
  932MOL0     H28548   1.338   8.708  11.298  1.9082 -1.1146 -0.6695
  932MOL0     H28549   1.517   8.560  11.228  0.6253 -0.1432 -0.2729
  932MOL0     H28550   1.559   8.724  11.258  1.1776 -1.0276  0.1429
  932MOL0     H28551   1.699   8.514  11.106 -1.8327 -0.3557  0.7462
  932MOL0     H28552   1.744   8.686  11.061  3.1440 -1.2926  1.3693
  932MOL0     H28553   1.784   8.718  11.315  1.3112  1.1055  0.5567
  932MOL0     H28554   1.789   8.541  11.321  1.6280 -1.0282 -1.7494
  932MOL0     H28555   1.966   8.558  11.113 -0.8058  0.4029 -1.3438
  932MOL0     H28556   1.951   8.731  11.148 -2.1260  0.5179 -0.0609
  932MOL0     H28557   2.027   8.527  11.357 -1.8684  2.5050  2.6476
  932MOL0     H28558   2.038   8.700  11.377  2.3808  1.3798 -0.1966
  932MOL0     H28559   2.205   8.530  11.190 -0.2160 -3.4318  2.6688
  932MOL0     H28560   2.222   8.706  11.217 -0.4748  1.3427  1.3252
  932MOL0     H28561   2.234   8.487  11.430 -0.9665 -1.2361 -3.4877
  932MOL0     H28562   2.271   8.663  11.456  0.1985  0.4173 -1.0992
  932MOL0     H28563   2.473   8.493  11.449 -1.8033  0.2969  2.1555
  932MOL0     H28564   2.426   8.463  11.288 -1.3132  2.5766 -2.7483
  932MOL0     H28565   2.614   8.571  11.153 -1.3968 -0.2069  1.5226
  932MOL0     H28566   2.798   8.905  11.134  2.6592  1.3614  2.2722
  932MOL0     H28567   2.792   8.749  11.063  0.1355 -0.9534  0.3242
  932MOL0     H28568   2.939   8.805  11.325 -0.0582 -1.6796 -0.1095
  932MOL0     H28569   2.943   8.653  11.246  1.0209 -0.6302 -0.4148
  932MOL0     H28570   3.012   8.916  11.098  1.6313  0.8072  0.2667
  932MOL0     H28571   3.140   8.833  11.179  2.2169 -1.4041 -2.9667
  932MOL0     H28572   3.150   8.651  11.016 -0.1891  0.0953 -1.1050
  932MOL0     H28573   2.981   8.658  10.996  0.6107 -1.1121 -0.5739
  932MOL0     H28574   3.244   8.632  10.765  0.8055 -0.8882 -0.7868
  932MOL0     H28575   3.390   8.585  10.616 -1.8526 -0.0757  2.4764
  932MOL0     H28576   3.512   8.532  10.736  0.7061  0.5500  1.5591
  932MOL0     H28577   3.562   8.640  10.601 -0.3295  4.1593  1.6574
  932MOL0     H28578   3.829   9.086  10.581  0.6284  0.7041 -1.9012
  932MOL0     H28579   4.063   9.102  10.548 -0.5054  0.9229  0.0417
  932MOL0     H28580   4.362   8.849  10.610 -0.6188 -0.6190 -2.8352
  932MOL0     H28581   4.236   8.909  10.515  0.7978  1.1625 -1.5096
  932MOL0     H28582   4.456   9.013  10.438  0.3848 -1.9929 -0.3714
  932MOL0     H28583   4.369   9.137  10.521  0.7968 -0.1109  0.7415
  932MOL0     H28584   4.491   9.037  10.745  1.3301 -2.9496 -0.4778
  932MOL0     H28585   4.536   9.170  10.637 -0.5220  1.2397  0.9913
  932MOL0     H28586   4.736   9.057  10.663  2.2567 -0.2947 -2.2701
  932MOL0     H28587   4.678   8.971  10.526 -0.8266  0.2866  0.1685
  932MOL0     H28588   4.630   8.894  10.802  0.6302  2.6431 -0.2727
  932MOL0     H28589   4.596   8.783  10.666  0.0094 -0.4588  0.5018
  932MOL0     H28590   4.869   8.917  10.737  2.9120 -0.4530 -2.7480
  932MOL0     H28591   4.849   8.816  10.602  0.8239  0.7185 -0.0843
  932MOL0     H28592   4.760   8.626  10.751  0.2034  0.4279 -1.4842
  932MOL0     H28593   4.800   8.732  10.901  3.8548  2.0391 -0.2046
  932MOL0     H28594   5.025   8.728  10.870 -0.2827  1.2825 -1.5038
  932MOL0     H28595   5.015   8.640  10.722  0.3078 -1.6477  0.2602
  932MOL0     H28596   4.138   8.909  10.929  2.2349 -2.2580 -2.0490
  932MOL0     H28597   3.879   8.874  10.952 -1.2723  0.5903 -1.6206
  932MOL0     H28598   3.505   9.008  10.931  0.3915 -0.1581 -0.5799
  932MOL0     H28599   3.257   9.005  10.971  0.6561 -0.9229  0.7142
  932MOL0     H28600   1.338   8.782  10.876 -1.1259 -1.0212 -0.5652
  932MOL0     H28601   1.107   8.846  10.895 -1.9025  0.2889  1.0670
  932MOL0     H28602   0.797   9.058  11.017 -2.7353  2.3570 -3.3513
  932MOL0     H28603   0.583   9.112  10.914 -1.0246 -1.2495 -1.9321
  932MOL0     H28604   0.363   9.162  10.898 -0.3287 -0.2443  0.7241
  932MOL0     H28605   0.353   9.032  10.767  3.1129 -3.1955  1.7986
  932MOL0     H28606   0.113   9.064  10.930  0.4531 -0.1468  0.3527
  932MOL0     H28607   0.131   9.022  10.759  1.6166 -1.0814 -0.4813
  932MOL0     H28608   0.016   9.265  10.844 -0.6964 -0.5519 -0.0181
  932MOL0     H28609   0.179   9.308  10.871  2.1573 -0.5494 -1.4843
  932MOL0     H28610   0.081   9.371  10.644  1.6140  0.5051 -1.3349
  932MOL0     H28611   0.102   9.197  10.596 -0.3864 -1.1918  1.4298
  932MOL0     H28612   0.483   9.355  10.582 -1.0347  0.9743 -1.6774
  932MOL0     H28613   0.399   8.793  11.120 -0.4852  1.5350  2.8723
  932MOL0     H28614   0.649   8.611  11.214  0.2255  0.2251 -0.0921
  932MOL0     H28615   0.654   8.729  11.354  2.3085  0.7863 -1.7781
  932MOL0     H28616   0.501   8.673  11.280  0.8131 -6.0059  0.5878
  933MOL0     O28617   1.370   6.358   4.750  0.7248  0.9116  0.0255
  933MOL0     C28618   1.321   6.243   4.754  0.1143 -0.0732  0.3649
  933MOL0     O28619   1.389   6.133   4.792 -0.0700 -0.6740  0.2198
  933MOL0     C28620   1.531   6.147   4.803 -0.0061 -0.7273  0.0005
  933MOL0     C28621   1.614   6.170   4.696 -0.8322 -0.7202  0.1557
  933MOL0     C28622   1.751   6.161   4.719  0.5301  0.7027 -0.1813
  933MOL0     C28623   1.800   6.135   4.843 -0.3412  0.0332 -0.9931
  933MOL0     O28624   1.936   6.124   4.879 -0.1581 -0.1870 -0.1215
  933MOL0     C28625   2.028   6.218   4.805 -0.7034  0.7832 -0.3003
  933MOL0     C28626   2.159   6.216   4.877  0.0770  0.0104 -0.5905
  933MOL0     C28627   2.258   6.289   4.781 -0.3842  0.1490  0.0867
  933MOL0     C28628   2.393   6.316   4.836 -0.0953 -0.0359 -0.4838
  933MOL0     C28629   2.406   6.343   4.985 -0.4045 -0.4670 -0.8371
  933MOL0     C28630   2.375   6.490   5.028  0.1173 -0.3982  0.2180
  933MOL0     C28631   2.401   6.508   5.174  0.3844 -0.0664  0.2495
  933MOL0     C28632   2.319   6.622   5.237  0.1827 -0.4061 -0.5112
  933MOL0     N28633   2.336   6.658   5.378 -0.1235  0.3257  0.2702
  933MOL0     C28634   2.454   6.640   5.447 -0.3295  0.0718 -0.0055
  933MOL0     C28635   2.425   6.672   5.576  0.1838  0.2987  0.0221
  933MOL0     C28636   2.513   6.672   5.699  0.1692 -0.1289  0.4879
  933MOL0     C28637   2.451   6.589   5.808 -0.1299  0.8619 -0.8303
  933MOL0     C28638   2.536   6.600   5.936 -0.1164  0.1243  0.9842
  933MOL0     C28639   2.467   6.514   6.040  0.8097  0.8120 -0.2844
  933MOL0     O28640   2.450   6.377   5.998  0.3919 -0.3606  0.6547
  933MOL0     C28641   2.540   6.292   6.055 -0.2515 -0.3936 -0.3273
  933MOL0     C28642   2.647   6.245   5.988 -0.6849  0.1384  0.7538
  933MOL0     C28643   2.739   6.156   6.039 -0.8177 -0.4526 -0.6180
  933MOL0     C28644   2.859   6.120   5.948  0.6444  0.0417  0.3094
  933MOL0     C28645   2.733   6.114   6.176 -0.5978 -0.6248  0.3023
  933MOL0     C28646   2.832   6.033   6.253 -0.2641  0.3859  0.9176
  933MOL0     O28647   2.931   5.980   6.187  0.3571  0.4735 -0.5387
  933MOL0     C28648   3.044   5.954   6.267  0.5765 -0.3669 -0.9108
  933MOL0     C28649   3.081   6.039   6.378 -0.3478 -0.1770  0.0143
  933MOL0     C28650   3.206   6.019   6.439  0.1224 -0.6546 -0.1018
  933MOL0     C28651   3.289   5.915   6.408  0.9561 -0.5585  0.1416
  933MOL0     O28652   3.418   5.909   6.468  1.4125 -0.8698 -0.2528
  933MOL0     C28653   3.405   5.833   6.585 -0.4296 -0.4473 -0.3739
  933MOL0     C28654   3.553   5.804   6.620 -0.6210 -0.3965  0.2605
  933MOL0     C28655   3.571   5.714   6.745 -1.1175 -0.0936 -1.4062
  933MOL0     C28656   3.691   5.625   6.725  0.1937  0.3132 -0.3245
  933MOL0     C28657   3.726   5.563   6.867  0.5050  0.4108 -0.1529
  933MOL0     C28658   3.847   5.470   6.855  0.0923 -0.0102 -0.0273
  933MOL0     C28659   3.875   5.422   7.000 -0.3347  0.3985  0.6347
  933MOL0     C28660   3.980   5.305   6.994  0.0178 -0.2914 -0.9528
  933MOL0    Cl28661   4.120   5.332   6.873 -0.4731 -0.0011  0.1387
  933MOL0     C28662   3.250   5.837   6.300  0.3911 -0.4545  0.2206
  933MOL0     C28663   3.132   5.861   6.231 -0.6709 -0.4205 -0.5256
  933MOL0     O28664   2.801   6.006   6.369  0.4105  0.9914  0.7050
  933MOL0     C28665   2.615   6.163   6.243 -0.2942 -0.2295  0.6634
  933MOL0     C28666   2.520   6.245   6.182 -0.5086  0.2173  0.3059
  933MOL0     N28667   2.287   6.707   5.582  0.0287 -0.6068 -0.3306
  933MOL0     N28668   2.241   6.697   5.463 -0.1399 -0.1686  0.0186
  933MOL0     C28669   1.718   6.110   4.951  0.6852 -0.5193 -0.5656
  933MOL0     C28670   1.579   6.115   4.934 -0.5034 -0.4868  0.0057
  933MOL0     C28671   1.171   6.218   4.746  0.0954  0.2892 -0.0433
  933MOL0     C28672   1.118   6.100   4.796 -0.1765  0.1129  0.1007
  933MOL0     C28673   0.983   6.066   4.796 -0.0685  0.8870  0.6380
  933MOL0     C28674   0.893   6.154   4.734  1.3244 -0.4499  0.3079
  933MOL0     O28675   0.757   6.130   4.714 -0.1564  0.3744  0.8250
  933MOL0     C28676   0.706   6.005   4.765  0.4247  0.3544  0.3420
  933MOL0     C28677   0.559   5.966   4.727 -1.3017 -0.3195  0.4550
  933MOL0     C28678   0.445   6.057   4.787 -0.1205  1.4592  0.1650
  933MOL0     C28679   0.324   6.007   4.716 -0.1976 -0.0092 -0.0860
  933MOL0     C28680   0.301   5.859   4.729 -0.7206  0.0034  0.4947
  933MOL0     C28681   0.274   5.742   4.741  0.1246 -0.0286 -0.1776
  933MOL0     C28682   0.938   6.276   4.688  0.7600  0.4718  1.0037
  933MOL0     C28683   1.076   6.315   4.697 -0.0303  0.4740 -0.2751
  933MOL0     C28684   1.121   6.447   4.634 -0.7049  0.2161  0.1512
  933MOL0     H28685   1.570   6.198   4.601 -1.5682  1.6510  1.1204
  933MOL0     H28686   1.808   6.178   4.628 -0.6288  0.2942 -1.0210
  933MOL0     H28687   1.985   6.318   4.811 -0.3240  0.8824  1.4413
  933MOL0     H28688   2.035   6.195   4.698 -0.9869 -2.3637  0.2515
  933MOL0     H28689   2.142   6.268   4.972 -0.2126  0.0299 -0.6530
  933MOL0     H28690   2.185   6.111   4.890 -3.2641 -0.7733  0.6280
  933MOL0     H28691   2.271   6.233   4.688 -0.5411 -1.6684  1.1257
  933MOL0     H28692   2.213   6.386   4.758  2.1348  0.9964 -1.8447
  933MOL0     H28693   2.454   6.226   4.821  0.5911  0.2173  0.6106
  933MOL0     H28694   2.439   6.392   4.773  0.7746 -1.1969 -1.3065
  933MOL0     H28695   2.511   6.318   5.003 -0.8966 -2.0473 -0.0456
  933MOL0     H28696   2.347   6.274   5.046 -1.6672 -1.3880 -2.9726
  933MOL0     H28697   2.429   6.560   4.963 -0.8137  0.7568  0.6441
  933MOL0     H28698   2.269   6.507   5.005  0.5800  1.4724 -0.8086
  933MOL0     H28699   2.508   6.520   5.194  0.7525 -1.6032 -0.6967
  933MOL0     H28700   2.372   6.419   5.231 -2.1040  1.4273  1.5032
  933MOL0     H28701   2.348   6.704   5.171  1.7278 -2.0256 -1.9900
  933MOL0     H28702   2.212   6.603   5.226 -0.0906  0.9927 -0.3488
  933MOL0     H28703   2.552   6.604   5.417  0.2953  0.5916  1.3445
  933MOL0     H28704   2.543   6.772   5.729 -3.1272  1.3597 -0.7517
  933MOL0     H28705   2.602   6.617   5.667 -0.2940 -2.1509  2.3865
  933MOL0     H28706   2.351   6.627   5.827 -0.7150  0.3449 -2.6427
  933MOL0     H28707   2.441   6.488   5.766 -3.7391  0.7437  0.0218
  933MOL0     H28708   2.640   6.573   5.916  0.2770  3.0584 -1.7065
  933MOL0     H28709   2.531   6.705   5.965  0.3215 -0.1943  2.2648
  933MOL0     H28710   2.521   6.518   6.135 -1.2216 -0.4022  0.9968
  933MOL0     H28711   2.368   6.559   6.053 -0.1059 -0.4791 -2.1973
  933MOL0     H28712   2.656   6.264   5.881  1.0238 -0.6302  0.7281
  933MOL0     H28713   2.949   6.179   5.969  2.3492 -0.7611 -3.7355
  933MOL0     H28714   2.829   6.141   5.845 -1.5571 -1.0066  0.6979
  933MOL0     H28715   2.892   6.016   5.951  1.1601  0.0885 -1.8508
  933MOL0     H28716   3.024   6.118   6.425 -0.2186  1.5631 -2.6023
  933MOL0     H28717   3.228   6.090   6.518  1.9515 -0.3975 -0.7973
  933MOL0     H28718   3.343   5.882   6.661  1.1897  3.4791 -1.3587
  933MOL0     H28719   3.360   5.736   6.563  4.0045 -3.0347  0.7218
  933MOL0     H28720   3.611   5.753   6.542 -0.1838 -0.6361  0.7315
  933MOL0     H28721   3.605   5.893   6.655 -2.3237 -0.3878  3.1076
  933MOL0     H28722   3.490   5.641   6.753 -0.5687 -0.5284  1.4779
  933MOL0     H28723   3.586   5.771   6.838  2.0459 -3.0920  0.1510
  933MOL0     H28724   3.769   5.682   6.674  0.3419 -0.4749 -1.0116
  933MOL0     H28725   3.664   5.545   6.656  1.4740  0.1211 -0.6299
  933MOL0     H28726   3.743   5.640   6.944  0.0569  0.9622 -0.5959
  933MOL0     H28727   3.643   5.497   6.893  2.2269 -1.4625  0.8661
  933MOL0     H28728   3.930   5.530   6.817 -1.4492  1.2076 -1.6364
  933MOL0     H28729   3.822   5.402   6.774 -1.5920 -0.0012  0.4608
  933MOL0     H28730   3.787   5.401   7.061 -1.4237 -0.4339 -1.1472
  933MOL0     H28731   3.930   5.498   7.057 -1.5778  0.1899  2.1922
  933MOL0     H28732   3.930   5.211   6.970 -2.4159  0.8117 -0.5435
  933MOL0     H28733   4.021   5.300   7.095 -2.0617 -0.7012 -0.0881
  933MOL0     H28734   3.329   5.768   6.271  0.4699  0.5531 -2.2044
  933MOL0     H28735   3.111   5.803   6.142 -1.1725  1.1460 -1.4444
  933MOL0     H28736   2.608   6.137   6.348  0.8494  2.6371  1.5416
  933MOL0     H28737   2.440   6.283   6.244  1.0355 -1.2266  3.4246
  933MOL0     H28738   1.764   6.087   5.047  0.6837  0.5920 -0.2831
  933MOL0     H28739   1.516   6.100   5.021  0.9003  0.0615  1.1592
  933MOL0     H28740   1.190   6.029   4.836 -2.8036 -2.4132  0.6442
  933MOL0     H28741   0.949   5.969   4.831 -0.9795  0.7928 -0.4384
  933MOL0     H28742   0.771   5.926   4.726  1.6804  1.0109  1.0277
  933MOL0     H28743   0.716   6.001   4.874  2.8663 -2.3752  0.1500
  933MOL0     H28744   0.540   5.863   4.759 -3.3685  0.8374  3.4020
  933MOL0     H28745   0.564   5.957   4.618  1.7391  0.3425  0.4584
  933MOL0     H28746   0.445   6.034   4.894  2.9324  1.8672  0.3361
  933MOL0     H28747   0.466   6.162   4.762 -1.9576  1.3609 -2.0788
  933MOL0     H28748   0.338   6.038   4.612 -0.9953  2.1032  0.3879
  933MOL0     H28749   0.239   6.055   4.765  0.5411  0.7316  0.4857
  933MOL0     H28750   0.243   5.640   4.732  0.7648 -0.3893  1.3445
  933MOL0     H28751   0.873   6.345   4.635  2.1031  0.0619 -1.2958
  933MOL0     H28752   1.167   6.510   4.711 -0.7627  0.4396  0.0044
  933MOL0     H28753   1.200   6.423   4.562 -1.8707 -0.1284 -1.0641
  933MOL0     H28754   1.040   6.501   4.583 -0.2913  1.4598  0.7656
  934MOL0     O28755   3.992   6.002   3.410 -0.2123 -1.0108 -0.3899
  934MOL0     C28756   3.949   6.085   3.331  0.5970  0.1070 -0.2252
  934MOL0     O28757   4.005   6.204   3.296 -0.0508 -0.0265 -0.1220
  934MOL0     C28758   4.143   6.216   3.286  0.1343  0.2606 -0.9120
  934MOL0     C28759   4.237   6.110   3.261 -0.4003 -0.1146  1.2231
  934MOL0     C28760   4.376   6.136   3.250 -0.3343  0.5325 -0.5721
  934MOL0     C28761   4.419   6.267   3.270 -0.3822 -0.4263  0.2309
  934MOL0     O28762   4.545   6.309   3.283 -0.4861 -0.0448 -0.3115
  934MOL0     C28763   4.656   6.216   3.294 -0.0674  0.5525 -0.3488
  934MOL0     C28764   4.798   6.286   3.298 -0.0546 -0.2284  0.3932
  934MOL0     C28765   4.892   6.219   3.405  0.1712 -0.0957  0.5625
  934MOL0     C28766   5.019   6.291   3.417 -0.3142 -0.4434  0.2541
  934MOL0     C28767   5.121   6.226   3.511 -0.8472  0.2401 -0.8955
  934MOL0     C28768   5.253   6.305   3.501  0.0790 -0.0820  0.6295
  934MOL0     C28769   5.367   6.223   3.570 -0.3215 -0.1640  0.2103
  934MOL0     C28770   5.486   6.313   3.600  0.0782 -0.0416  0.2770
  934MOL0     N28771   5.588   6.238   3.681 -0.3095 -0.2130 -0.1796
  934MOL0     C28772   5.672   6.136   3.642  0.4889 -1.3145 -0.2443
  934MOL0     C28773   5.740   6.094   3.751  0.5448 -0.3561 -0.3103
  934MOL0     C28774   5.828   5.978   3.749 -1.2421  0.1975  0.7919
  934MOL0     C28775   5.964   6.007   3.680  0.3870  0.6593  0.4879
  934MOL0     C28776   6.058   5.886   3.706 -0.0182 -0.4916  0.1954
  934MOL0     C28777   6.199   5.933   3.668 -0.0902  1.0480 -0.1575
  934MOL0     O28778   6.244   6.033   3.761 -0.1738  0.4067 -0.4657
  934MOL0     C28779   6.378   6.051   3.757  0.6714 -0.5679 -0.7739
  934MOL0     C28780   6.439   6.102   3.869  0.3414  0.6774  0.0255
  934MOL0     C28781   6.571   6.127   3.882 -0.5976  0.0660 -0.1613
  934MOL0     C28782   6.614   6.189   4.011 -0.1007  0.8466 -0.3383
  934MOL0     C28783   6.656   6.095   3.777 -0.8325 -0.1456 -0.2134
  934MOL0     C28784   6.802   6.113   3.784  0.5026  0.6800 -0.2551
  934MOL0     O28785   6.871   6.140   3.670  0.1486 -0.7281 -0.2715
  934MOL0     C28786   7.004   6.113   3.682 -0.5629 -0.2778  0.2185
  934MOL0     C28787   7.056   5.991   3.650  0.3133  0.4806  0.3956
  934MOL0     C28788   7.192   5.958   3.673 -1.0667 -0.3193 -0.1912
  934MOL0     C28789   7.279   6.059   3.721  0.1099  0.0178  0.9556
  934MOL0     O28790   7.411   6.054   3.752  0.7453 -0.1025  0.5517
  934MOL0     C28791   7.476   5.930   3.717  0.0973 -0.0441  0.1260
  934MOL0     C28792   7.628   5.942   3.758 -0.1203  0.7330  0.3133
  934MOL0     C28793   7.698   6.058   3.690  0.1675 -0.1254  0.2772
  934MOL0     C28794   7.834   6.080   3.755  0.2288 -0.0629  0.4383
  934MOL0     C28795   7.897   6.210   3.718  0.7834  0.5538  0.1523
  934MOL0     C28796   8.058   6.200   3.723  0.3103  0.1797  0.3838
  934MOL0     C28797   8.125   6.336   3.710  0.2902  0.2161  0.8025
  934MOL0     C28798   8.265   6.321   3.647  0.3747 -0.2634 -0.0123
  934MOL0    Cl28799   8.364   6.260   3.779  0.0049  0.0602  0.0818
  934MOL0     C28800   7.226   6.188   3.736  0.2832 -0.3131 -0.9844
  934MOL0     C28801   7.089   6.211   3.720  0.1938  0.8656 -0.2862
  934MOL0     O28802   6.852   6.099   3.894  0.4829 -0.0252  0.2380
  934MOL0     C28803   6.598   6.056   3.662  0.8329 -0.1619 -0.2668
  934MOL0     C28804   6.460   6.030   3.655  0.1051  0.7972  0.2947
  934MOL0     N28805   5.697   6.170   3.853 -0.4465  0.1001  0.3541
  934MOL0     N28806   5.610   6.258   3.824  0.2160  0.1238  0.8550
  934MOL0     C28807   4.327   6.380   3.285 -0.9283  0.5486 -0.1214
  934MOL0     C28808   4.194   6.345   3.298  0.7418  0.1504 -0.5260
  934MOL0     C28809   3.832   6.038   3.257  0.1921  0.6265 -0.8759
  934MOL0     C28810   3.741   6.135   3.212  0.5999  0.5497 -0.1603
  934MOL0     C28811   3.621   6.100   3.149 -0.4131  1.0920  0.0215
  934MOL0     C28812   3.596   5.962   3.130  0.0819 -0.2819  0.3897
  934MOL0     O28813   3.482   5.908   3.080 -0.4225  0.3527  0.0006
  934MOL0     C28814   3.357   5.968   3.086  0.0286 -0.8467 -0.0406
  934MOL0     C28815   3.300   5.963   3.231  0.5694  0.0676 -0.0369
  934MOL0     C28816   3.281   5.818   3.276  0.3686  0.5796 -0.1114
  934MOL0     C28817   3.182   5.740   3.173  0.0929 -0.2009 -0.8883
  934MOL0     C28818   3.130   5.621   3.238 -0.2566 -0.2701  0.2745
  934MOL0     C28819   3.089   5.523   3.295  0.2943 -0.0787 -0.4750
  934MOL0     C28820   3.693   5.872   3.157  0.7984 -0.6478 -0.2420
  934MOL0     C28821   3.807   5.905   3.224  0.0950 -0.1467  0.2068
  934MOL0     C28822   3.898   5.787   3.251  0.3095  0.2711 -0.1473
  934MOL0     H28823   4.200   6.009   3.251 -2.9215  0.9324 -1.4398
  934MOL0     H28824   4.457   6.064   3.251  0.2534  1.1246  1.9892
  934MOL0     H28825   4.647   6.153   3.206 -0.1316  1.6718 -1.1688
  934MOL0     H28826   4.651   6.160   3.388  5.3979  3.2929  2.0641
  934MOL0     H28827   4.846   6.258   3.204  0.0674 -1.0830  0.6968
  934MOL0     H28828   4.787   6.394   3.300  1.8999  0.0071  0.1606
  934MOL0     H28829   4.848   6.212   3.505 -1.1650 -2.0143 -0.0900
  934MOL0     H28830   4.906   6.114   3.376 -0.6612 -0.2340  0.6301
  934MOL0     H28831   5.060   6.294   3.316 -0.1278  0.7971  0.3447
  934MOL0     H28832   5.007   6.394   3.452  0.7005 -0.4317  0.6127
  934MOL0     H28833   5.134   6.119   3.492  2.6393 -0.2502  2.7425
  934MOL0     H28834   5.083   6.232   3.613 -1.1780 -0.2473 -0.9926
  934MOL0     H28835   5.277   6.314   3.395  0.1367 -0.9603  0.5601
  934MOL0     H28836   5.244   6.407   3.539  1.9721  0.0736  0.7127
  934MOL0     H28837   5.386   6.141   3.500 -2.0823 -0.3480 -0.1046
  934MOL0     H28838   5.327   6.182   3.663  0.0238 -0.3552  0.2737
  934MOL0     H28839   5.529   6.354   3.508 -1.9295  0.1986 -0.6016
  934MOL0     H28840   5.449   6.395   3.661 -1.3746 -0.6750  0.2891
  934MOL0     H28841   5.682   6.099   3.540  0.4587  0.6332 -0.9941
  934MOL0     H28842   5.783   5.896   3.694 -1.1804  0.1435  0.8211
  934MOL0     H28843   5.849   5.947   3.852 -2.4339  0.3884  1.1034
  934MOL0     H28844   5.955   6.023   3.572  2.4788  0.8317  0.3084
  934MOL0     H28845   6.009   6.097   3.723  2.7017  0.6843 -1.7350
  934MOL0     H28846   6.065   5.867   3.814 -0.0250 -0.2506  0.2391
  934MOL0     H28847   6.021   5.800   3.650  2.5175 -0.5143 -1.6030
  934MOL0     H28848   6.267   5.848   3.679  1.0909  2.0498  0.6693
  934MOL0     H28849   6.207   5.960   3.562  3.5181  0.0584 -0.2754
  934MOL0     H28850   6.364   6.124   3.944 -2.2206 -2.3106 -1.4033
  934MOL0     H28851   6.670   6.282   4.001 -2.1771  2.1111 -0.8140
  934MOL0     H28852   6.682   6.127   4.070  1.8059  2.0780 -1.1586
  934MOL0     H28853   6.527   6.209   4.075 -0.5332 -1.1455 -0.2510
  934MOL0     H28854   6.986   5.915   3.616  2.1442 -1.9096  1.6637
  934MOL0     H28855   7.241   5.862   3.661  2.1782  1.1696  0.0680
  934MOL0     H28856   7.430   5.847   3.770  0.9512 -0.6247 -0.0265
  934MOL0     H28857   7.455   5.921   3.610 -2.8511 -0.3256  0.6446
  934MOL0     H28858   7.628   5.957   3.866  1.1627 -2.0557  0.7790
  934MOL0     H28859   7.683   5.850   3.736 -2.5104 -0.6498 -0.2177
  934MOL0     H28860   7.638   6.148   3.704 -0.6173 -0.2910 -1.7441
  934MOL0     H28861   7.695   6.045   3.581 -0.0633 -0.3833  0.3127
  934MOL0     H28862   7.897   5.995   3.727  1.4488  1.1542 -0.6636
  934MOL0     H28863   7.826   6.081   3.864 -2.0236  3.6966  0.3950
  934MOL0     H28864   7.864   6.243   3.619 -2.2931 -0.9964  0.5543
  934MOL0     H28865   7.856   6.283   3.788  0.9003  1.0120 -0.2494
  934MOL0     H28866   8.089   6.126   3.648 -0.5179 -0.6778  0.8569
  934MOL0     H28867   8.086   6.158   3.820 -2.0339  1.5105  1.7132
  934MOL0     H28868   8.135   6.376   3.811  0.2779  2.4536 -0.0253
  934MOL0     H28869   8.061   6.403   3.652 -0.5354 -2.1320 -1.1220
  934MOL0     H28870   8.307   6.415   3.611 -2.1098  0.8912 -0.0937
  934MOL0     H28871   8.275   6.247   3.567  0.9188 -0.4791  0.2477
  934MOL0     H28872   7.296   6.260   3.776  0.2243 -0.2015 -1.0842
  934MOL0     H28873   7.043   6.306   3.742 -2.7243 -0.6696  0.7217
  934MOL0     H28874   6.659   6.021   3.579  0.4665 -0.5744 -0.3659
  934MOL0     H28875   6.419   5.982   3.566 -0.8713  1.2364  0.5023
  934MOL0     H28876   4.351   6.485   3.287  0.3417  0.2679 -0.0827
  934MOL0     H28877   4.118   6.423   3.307 -1.1067 -1.7135  1.0137
  934MOL0     H28878   3.759   6.242   3.219  1.4694  0.6383 -2.7811
  934MOL0     H28879   3.543   6.171   3.120  0.6188  1.1843 -2.9060
  934MOL0     H28880   3.363   6.074   3.060 -1.0397  0.3048  3.7432
  934MOL0     H28881   3.287   5.915   3.020 -1.3719  2.0933 -1.0835
  934MOL0     H28882   3.202   6.009   3.214 -0.8270 -2.5662  0.3061
  934MOL0     H28883   3.354   6.023   3.305 -2.0622 -0.1836  2.2380
  934MOL0     H28884   3.379   5.769   3.282  0.5835  1.1344  4.0758
  934MOL0     H28885   3.243   5.825   3.379 -1.1900 -1.2102 -0.4960
  934MOL0     H28886   3.238   5.715   3.082  0.7851 -1.5810 -0.1150
  934MOL0     H28887   3.103   5.809   3.142 -0.7136  0.1894  1.8198
  934MOL0     H28888   3.036   5.437   3.332  1.8413 -0.2953  1.3934
  934MOL0     H28889   3.685   5.769   3.124 -0.2770 -1.8251  3.2897
  934MOL0     H28890   4.002   5.806   3.222  1.1315 -2.5198  0.6475
  934MOL0     H28891   3.888   5.755   3.355 -2.7288  0.5990 -0.2667
  934MOL0     H28892   3.870   5.705   3.183  0.2202  2.2532 -2.6784
  935MOL0     O28893   5.903   0.464   9.907  0.0920 -0.2713  0.5215
  935MOL0     C28894   5.834   0.489   9.811 -0.2177 -1.0626 -0.6690
  935MOL0     O28895   5.876   0.524   9.683  0.1667 -0.1220 -0.5748
  935MOL0     C28896   6.009   0.530   9.649  0.1114 -0.9896 -0.3110
  935MOL0     C28897   6.111   0.453   9.699 -0.4669  0.2681  0.4901
  935MOL0     C28898   6.241   0.468   9.660 -1.4725  0.1117  0.6405
  935MOL0     C28899   6.272   0.564   9.566 -1.2850 -0.3780 -0.2234
  935MOL0     O28900   6.394   0.588   9.511 -0.3395  0.0947 -0.1028
  935MOL0     C28901   6.512   0.559   9.572 -0.0418  0.3100 -0.1012
  935MOL0     C28902   6.625   0.618   9.494 -0.5832 -0.4202 -0.7813
  935MOL0     C28903   6.760   0.546   9.528  0.9080  0.1377 -0.2122
  935MOL0     C28904   6.874   0.635   9.501 -0.1369 -0.5665  0.2103
  935MOL0     C28905   6.922   0.641   9.357  0.3970  0.6499 -0.1956
  935MOL0     C28906   6.998   0.516   9.330  0.4410  0.4555  0.2314
  935MOL0     C28907   7.023   0.506   9.178 -0.7150  0.4047 -0.3533
  935MOL0     C28908   6.910   0.430   9.112  0.4838 -0.0372 -0.7845
  935MOL0     N28909   6.953   0.428   8.972 -0.1146 -0.2924 -0.7457
  935MOL0     C28910   6.918   0.524   8.873  0.2051 -1.0053 -0.1345
  935MOL0     C28911   7.003   0.486   8.771  0.1116  0.0230 -0.3375
  935MOL0     C28912   7.008   0.549   8.635 -0.5838  0.1381 -0.2548
  935MOL0     C28913   6.901   0.510   8.534 -0.1527  0.9561 -0.3600
  935MOL0     C28914   6.896   0.593   8.413  0.3970  0.8800  0.2191
  935MOL0     C28915   7.032   0.598   8.341  1.0915  0.0533 -0.8549
  935MOL0     O28916   7.100   0.477   8.303  0.1122  0.4279 -0.3840
  935MOL0     C28917   7.239   0.480   8.284 -0.0101 -0.5769 -0.2870
  935MOL0     C28918   7.302   0.357   8.298  0.4879  0.0831 -1.3574
  935MOL0     C28919   7.441   0.345   8.293 -0.9004 -0.1961 -0.1536
  935MOL0     C28920   7.490   0.200   8.302 -0.2642 -0.2111 -1.1348
  935MOL0     C28921   7.521   0.459   8.268  0.4501  0.0867 -0.0480
  935MOL0     C28922   7.672   0.462   8.266  0.5251 -0.2753  0.1432
  935MOL0     O28923   7.736   0.344   8.256  0.0865  0.0125  0.3435
  935MOL0     C28924   7.876   0.336   8.291  1.3319  0.0670  0.3406
  935MOL0     C28925   7.936   0.423   8.390  0.6708  0.3656  0.7280
  935MOL0     C28926   8.077   0.420   8.412  0.2803  0.0067 -0.6127
  935MOL0     C28927   8.163   0.333   8.348 -0.9611  0.2156 -0.5398
  935MOL0     O28928   8.297   0.336   8.369  0.3026  0.0144  0.1109
  935MOL0     C28929   8.332   0.326   8.511 -0.7940 -0.3753 -0.4741
  935MOL0     C28930   8.480   0.279   8.536  0.1407  0.1792 -0.4440
  935MOL0     C28931   8.576   0.352   8.447 -0.6218  0.1401  0.4575
  935MOL0     C28932   8.716   0.304   8.476  0.0811  0.1358  0.1440
  935MOL0     C28933   8.828   0.374   8.392 -0.1530  0.1645 -0.1644
  935MOL0     C28934   8.955   0.290   8.407 -0.0711  0.0799  0.8721
  935MOL0     C28935   9.075   0.368   8.356  0.6381  0.0310 -0.1789
  935MOL0     C28936   9.204   0.294   8.395 -0.0316 -0.4166 -0.0618
  935MOL0    Cl28937   9.208   0.138   8.300  0.2303 -0.3483 -0.7239
  935MOL0     C28938   8.103   0.241   8.264 -0.4639  0.5910 -0.0488
  935MOL0     C28939   7.966   0.244   8.238 -0.4716  0.2783 -0.2327
  935MOL0     O28940   7.731   0.575   8.247  0.5739  0.1129 -0.4414
  935MOL0     C28941   7.458   0.583   8.251  0.2426  0.4025  0.7705
  935MOL0     C28942   7.319   0.591   8.270 -0.0125 -0.4492 -0.0768
  935MOL0     N28943   7.086   0.380   8.815  0.3141 -0.7099 -1.0900
  935MOL0     N28944   7.060   0.349   8.936 -0.7983 -0.3761  0.0271
  935MOL0     C28945   6.170   0.642   9.516  0.0481 -0.2071  0.4971
  935MOL0     C28946   6.037   0.630   9.565  0.0560 -0.1187  0.1948
  935MOL0     C28947   5.691   0.461   9.811 -0.8806 -0.2346  0.0269
  935MOL0     C28948   5.616   0.494   9.700 -1.3983 -0.5354 -0.2209
  935MOL0     C28949   5.478   0.454   9.693  0.6650  0.2084 -0.0960
  935MOL0     C28950   5.415   0.394   9.798  0.4017 -1.0285 -0.1134
  935MOL0     O28951   5.278   0.372   9.786  0.0672  0.7243 -0.8042
  935MOL0     C28952   5.194   0.401   9.902 -0.0665  0.2874  0.6613
  935MOL0     C28953   5.057   0.434   9.844 -0.1709 -0.3824 -0.2888
  935MOL0     C28954   4.979   0.309   9.784  0.3312 -0.1156  0.2531
  935MOL0     C28955   4.858   0.366   9.702 -0.3191  1.0453 -1.2473
  935MOL0     C28956   4.793   0.249   9.641 -0.3628  0.3445  0.7426
  935MOL0     C28957   4.747   0.164   9.573 -0.9253  0.0353 -0.1488
  935MOL0     C28958   5.489   0.369   9.911 -0.2167  0.3576  0.0640
  935MOL0     C28959   5.625   0.391   9.919  0.4301  1.0632 -0.6376
  935MOL0     C28960   5.691   0.362  10.061  0.0232 -0.2435 -0.3884
  935MOL0     H28961   6.084   0.373   9.767  1.7791 -2.6601 -1.8041
  935MOL0     H28962   6.310   0.395   9.699 -3.0909 -0.8731  1.7772
  935MOL0     H28963   6.523   0.451   9.582 -0.5585  0.0103 -2.3926
  935MOL0     H28964   6.521   0.604   9.672  0.8112 -0.8511  0.3641
  935MOL0     H28965   6.603   0.610   9.388 -0.1322 -0.8718 -0.8415
  935MOL0     H28966   6.637   0.723   9.523 -0.0807 -0.2608 -1.5525
  935MOL0     H28967   6.770   0.525   9.635 -1.8759  2.4089  0.6432
  935MOL0     H28968   6.765   0.457   9.465  0.0790  0.6741 -1.0703
  935MOL0     H28969   6.854   0.737   9.536 -0.7559  0.1061 -1.9473
  935MOL0     H28970   6.963   0.598   9.552  1.4038  0.1988 -1.7823
  935MOL0     H28971   6.983   0.731   9.346  0.7083  0.5054  0.2958
  935MOL0     H28972   6.838   0.634   9.289 -0.1566  0.1201  0.5264
  935MOL0     H28973   7.095   0.528   9.380 -0.3242  0.2737  1.8397
  935MOL0     H28974   6.951   0.427   9.371 -2.4904  1.7504 -0.0487
  935MOL0     H28975   7.121   0.459   9.163  0.3880  2.3040  0.5365
  935MOL0     H28976   7.037   0.604   9.132  0.8299  0.4474  0.1477
  935MOL0     H28977   6.909   0.325   9.141  2.2676 -0.2140 -1.2477
  935MOL0     H28978   6.813   0.479   9.119 -0.4719 -1.7484 -1.4718
  935MOL0     H28979   6.845   0.603   8.881  0.2296 -1.0281  0.3567
  935MOL0     H28980   7.105   0.524   8.591 -1.5650  2.7134 -4.4726
  935MOL0     H28981   7.009   0.658   8.643 -0.6359  0.3189 -2.2624
  935MOL0     H28982   6.930   0.410   8.501 -2.0200  1.2493 -3.1904
  935MOL0     H28983   6.799   0.507   8.573 -0.4647  0.4268 -1.2106
  935MOL0     H28984   6.826   0.541   8.347  3.0357  0.9811 -2.9261
  935MOL0     H28985   6.865   0.694   8.442 -3.0981 -0.7631  3.0470
  935MOL0     H28986   7.019   0.657   8.250 -1.5426 -2.9365 -2.5989
  935MOL0     H28987   7.097   0.650   8.413  1.2886  0.0746 -1.0479
  935MOL0     H28988   7.247   0.265   8.313  2.0192 -0.6460  0.1992
  935MOL0     H28989   7.553   0.159   8.224 -0.1189 -4.8997  1.1263
  935MOL0     H28990   7.411   0.129   8.329 -0.2010  0.1284  0.0234
  935MOL0     H28991   7.560   0.190   8.385  0.5810  0.2321 -1.7838
  935MOL0     H28992   7.873   0.488   8.450  0.4770 -0.5679  1.5532
  935MOL0     H28993   8.111   0.493   8.485  0.5043  0.1443 -0.8575
  935MOL0     H28994   8.325   0.429   8.545  1.0028 -0.6154  0.7383
  935MOL0     H28995   8.267   0.262   8.571 -2.8212  1.1234 -0.9480
  935MOL0     H28996   8.517   0.280   8.639 -0.1309  1.6285 -0.3498
  935MOL0     H28997   8.480   0.170   8.521 -0.5363 -0.1516  1.6253
  935MOL0     H28998   8.570   0.459   8.467 -0.7752 -0.0202  1.3144
  935MOL0     H28999   8.556   0.344   8.340  1.4535  0.6540 -0.0227
  935MOL0     H29000   8.717   0.198   8.449 -0.0040  0.5084 -1.3941
  935MOL0     H29001   8.733   0.324   8.582  1.7135  1.6847 -0.3538
  935MOL0     H29002   8.785   0.387   8.293 -0.8527  0.0650  0.1193
  935MOL0     H29003   8.853   0.470   8.439  0.6634 -0.2684  0.3048
  935MOL0     H29004   8.934   0.195   8.357  1.5706 -0.5841  1.3705
  935MOL0     H29005   8.966   0.278   8.515 -1.6313  1.1278  1.1838
  935MOL0     H29006   9.064   0.457   8.419 -3.1110 -0.4885  0.1275
  935MOL0     H29007   9.067   0.397   8.251  0.0576  1.1037  0.1414
  935MOL0     H29008   9.218   0.272   8.501  2.5589  0.9527 -0.0610
  935MOL0     H29009   9.286   0.360   8.367  0.8078 -1.4782 -0.1570
  935MOL0     H29010   8.169   0.168   8.218 -0.4824  1.5733 -1.7006
  935MOL0     H29011   7.925   0.170   8.170 -1.3478 -0.0636  0.6479
  935MOL0     H29012   7.498   0.682   8.231 -3.1496  1.1774 -4.0661
  935MOL0     H29013   7.281   0.693   8.262 -0.5354 -0.3678  2.6667
  935MOL0     H29014   6.181   0.720   9.442  0.5435 -0.2753  0.4954
  935MOL0     H29015   5.951   0.677   9.519  1.8673  0.7483 -2.5697
  935MOL0     H29016   5.649   0.550   9.613 -1.6400 -0.1681 -0.0831
  935MOL0     H29017   5.425   0.484   9.603  1.1579 -0.3629 -0.5919
  935MOL0     H29018   5.177   0.314   9.966 -2.9501  1.1540  1.2411
  935MOL0     H29019   5.235   0.484   9.961  0.6538  0.0874  0.4456
  935MOL0     H29020   5.074   0.504   9.762  1.9832 -2.5199 -1.8131
  935MOL0     H29021   4.998   0.482   9.922  3.1027  1.2856  1.3905
  935MOL0     H29022   5.039   0.245   9.718 -0.6957 -1.0195  0.1716
  935MOL0     H29023   4.947   0.252   9.871 -3.3239 -0.8814 -1.4021
  935MOL0     H29024   4.897   0.425   9.618  3.2234  0.3379 -0.2653
  935MOL0     H29025   4.787   0.420   9.765 -0.5736  0.4747 -1.0345
  935MOL0     H29026   4.696   0.093   9.511 -3.4716  1.6646 -0.0664
  935MOL0     H29027   5.436   0.316   9.990  1.0348  1.5918  1.8143
  935MOL0     H29028   5.779   0.297  10.056  2.5162  2.9310 -0.7028
  935MOL0     H29029   5.731   0.454  10.105 -1.2437 -0.5142  1.4338
  935MOL0     H29030   5.615   0.325  10.131  0.8214  0.8737  1.1367
  936MOL0     O29031   3.032   7.697   5.168 -0.5102 -0.8174 -0.0685
  936MOL0     C29032   3.083   7.612   5.103  0.0724  0.3577  0.3083
  936MOL0     O29033   3.206   7.616   5.063  0.4585 -0.0928  0.2016
  936MOL0     C29034   3.297   7.708   5.098 -0.3586 -0.6955 -0.2829
  936MOL0     C29035   3.334   7.729   5.225 -0.5193  0.1730 -0.1409
  936MOL0     C29036   3.441   7.804   5.262 -0.4964 -0.4847  0.0378
  936MOL0     C29037   3.516   7.867   5.161 -0.6189 -0.8217 -0.0005
  936MOL0     O29038   3.613   7.950   5.199  0.3182 -0.1051  0.1544
  936MOL0     C29039   3.729   7.956   5.112 -0.1609 -1.0319  0.0313
  936MOL0     C29040   3.832   8.058   5.173  0.0637  0.4166 -0.2392
  936MOL0     C29041   3.927   8.074   5.060 -0.5657 -0.0605  0.4907
  936MOL0     C29042   4.041   8.173   5.120 -0.3956  0.3046 -0.4029
  936MOL0     C29043   4.151   8.192   5.019  0.7178  0.4804 -0.2324
  936MOL0     C29044   4.116   8.212   4.872 -0.3435  0.5143 -0.0312
  936MOL0     C29045   4.235   8.260   4.788 -0.7352  0.9973  0.9056
  936MOL0     C29046   4.253   8.415   4.783 -0.4262  0.3013  0.0173
  936MOL0     N29047   4.375   8.449   4.708 -0.5976 -0.5295 -0.3074
  936MOL0     C29048   4.378   8.461   4.576 -0.6286 -0.3160  0.7093
  936MOL0     C29049   4.511   8.481   4.555  0.0821 -0.1167  0.2324
  936MOL0     C29050   4.566   8.482   4.428 -0.3605  0.3253  0.5195
  936MOL0     C29051   4.665   8.602   4.397  0.4119 -0.8334  1.5460
  936MOL0     C29052   4.697   8.617   4.243  0.4178  0.9786  0.2485
  936MOL0     C29053   4.816   8.704   4.208  0.3679  0.0866 -0.2997
  936MOL0     O29054   4.939   8.640   4.236 -0.4642  0.0892  0.6899
  936MOL0     C29055   5.052   8.715   4.209  0.0725  0.5156 -0.1663
  936MOL0     C29056   5.052   8.856   4.176 -1.0885  0.3630  0.2172
  936MOL0     C29057   5.172   8.920   4.143  0.6137 -0.0728  0.2708
  936MOL0     C29058   5.156   9.069   4.112 -0.7737  0.5266  0.3157
  936MOL0     C29059   5.297   8.846   4.146 -0.1532  0.7735 -0.6523
  936MOL0     C29060   5.433   8.909   4.144 -0.4767  1.0319 -0.6861
  936MOL0     O29061   5.537   8.823   4.106 -0.1991  0.5539  0.0057
  936MOL0     C29062   5.669   8.863   4.121  0.3067  0.1525  0.6178
  936MOL0     C29063   5.758   8.791   4.044  0.0717  0.6350 -0.7363
  936MOL0     C29064   5.892   8.827   4.040 -0.8626 -0.6317 -0.1195
  936MOL0     C29065   5.947   8.935   4.119  0.0810  0.0598  0.1517
  936MOL0     O29066   6.075   8.977   4.115 -0.0458  0.4997 -0.3101
  936MOL0     C29067   6.144   8.964   3.993 -0.4841  0.0160 -0.8782
  936MOL0     C29068   6.300   9.003   4.009 -0.2506 -1.2458  0.1167
  936MOL0     C29069   6.359   9.035   3.871  0.4169 -0.2116 -0.3507
  936MOL0     C29070   6.510   9.045   3.883  0.3615 -0.2079 -0.2185
  936MOL0     C29071   6.571   9.126   3.767 -0.2069 -0.6165 -0.2862
  936MOL0     C29072   6.724   9.136   3.792 -0.7059 -0.5386 -0.0424
  936MOL0     C29073   6.790   9.003   3.828  0.4760  0.1366 -1.1870
  936MOL0     C29074   6.943   9.009   3.793 -0.1864  0.5876 -0.1017
  936MOL0    Cl29075   6.961   9.028   3.613 -0.1636  0.6413  0.2874
  936MOL0     C29076   5.858   9.003   4.194 -0.2677  0.4531  0.9612
  936MOL0     C29077   5.721   8.970   4.191 -0.3137  0.2455  0.2377
  936MOL0     O29078   5.450   9.029   4.172 -0.1643  0.1994 -0.7193
  936MOL0     C29079   5.288   8.708   4.170 -0.7355  0.7320 -0.9130
  936MOL0     C29080   5.169   8.643   4.195 -1.0019  0.3783  0.2429
  936MOL0     N29081   4.580   8.475   4.672 -0.1936  0.1275  0.0237
  936MOL0     N29082   4.494   8.455   4.761  0.8929  0.2993 -1.0138
  936MOL0     C29083   3.471   7.855   5.027 -0.5769  0.0989 -0.2341
  936MOL0     C29084   3.360   7.782   4.997 -0.6561 -0.6330  0.7936
  936MOL0     C29085   3.002   7.490   5.061 -0.2315  0.9081  0.5306
  936MOL0     C29086   3.072   7.378   4.998  0.0385  0.3931  0.0272
  936MOL0     C29087   3.011   7.261   4.966  0.5633 -0.0211 -0.9305
  936MOL0     C29088   2.880   7.236   4.998 -0.1882  0.0834 -0.4575
  936MOL0     O29089   2.825   7.108   4.996  0.3827 -0.5520 -0.0136
  936MOL0     C29090   2.772   7.072   4.861 -0.0490  0.2200  0.8168
  936MOL0     C29091   2.629   7.124   4.838  0.3550 -0.2210 -0.1311
  936MOL0     C29092   2.537   7.029   4.913 -0.2212 -0.4100 -0.1627
  936MOL0     C29093   2.404   7.098   4.936 -0.1029  0.4597 -0.3624
  936MOL0     C29094   2.299   6.999   4.974  0.7988 -0.0594 -1.0491
  936MOL0     C29095   2.211   6.917   4.985  0.4354  0.2706  0.3273
  936MOL0     C29096   2.800   7.342   5.044 -0.3867 -0.3096 -0.8970
  936MOL0     C29097   2.857   7.466   5.078  0.1186 -0.7439 -0.0373
  936MOL0     C29098   2.769   7.566   5.142 -0.3633 -0.4214  0.3127
  936MOL0     H29099   3.294   7.674   5.309  1.3040  0.6518  1.0971
  936MOL0     H29100   3.473   7.805   5.366  0.9321 -3.2012 -0.2921
  936MOL0     H29101   3.718   7.985   5.008  1.4130  0.0089  0.1137
  936MOL0     H29102   3.780   7.860   5.109  3.4230  0.7041 -0.9999
  936MOL0     H29103   3.789   8.154   5.201 -1.2152 -0.4904  1.0297
  936MOL0     H29104   3.885   8.027   5.263  0.0885  2.6979  0.5999
  936MOL0     H29105   3.965   7.978   5.025 -0.8573  0.6368 -1.9026
  936MOL0     H29106   3.891   8.125   4.970  2.5172  3.1673  0.8436
  936MOL0     H29107   3.991   8.266   5.148 -0.1664  0.4290 -0.4065
  936MOL0     H29108   4.080   8.125   5.210  0.4566 -0.4027 -1.1292
  936MOL0     H29109   4.227   8.113   5.025 -1.5939 -1.8893 -0.1885
  936MOL0     H29110   4.199   8.285   5.050 -2.5285  2.3150 -0.2663
  936MOL0     H29111   4.087   8.113   4.835  4.8249 -1.1900 -0.3003
  936MOL0     H29112   4.026   8.274   4.862 -2.8719 -2.9898 -0.9204
  936MOL0     H29113   4.222   8.219   4.687 -0.5310 -1.2279  1.7318
  936MOL0     H29114   4.322   8.204   4.821 -2.1086 -2.3079 -0.6006
  936MOL0     H29115   4.167   8.454   4.729  0.2405  0.1723 -1.1598
  936MOL0     H29116   4.245   8.456   4.884 -1.7425  1.7552 -0.6433
  936MOL0     H29117   4.294   8.450   4.509  0.2850  0.8038 -0.6656
  936MOL0     H29118   4.481   8.472   4.360 -0.8243  2.2280  0.7653
  936MOL0     H29119   4.625   8.390   4.425 -0.9599 -0.1789  2.4514
  936MOL0     H29120   4.620   8.698   4.423 -1.8317 -1.2004 -0.5218
  936MOL0     H29121   4.759   8.585   4.450  1.1856 -0.2575  0.4018
  936MOL0     H29122   4.724   8.522   4.194 -0.9460 -0.3859  1.9909
  936MOL0     H29123   4.605   8.656   4.199  1.2731  0.9107 -1.7127
  936MOL0     H29124   4.823   8.735   4.104  1.9266 -2.3293 -1.0054
  936MOL0     H29125   4.803   8.794   4.269  0.9204  0.7729 -1.1649
  936MOL0     H29126   4.956   8.906   4.173 -1.0625  0.3678 -0.7524
  936MOL0     H29127   5.233   9.113   4.047 -0.3492 -0.8626 -0.1588
  936MOL0     H29128   5.162   9.120   4.209  0.9921 -0.4979  0.7867
  936MOL0     H29129   5.060   9.086   4.064 -0.9563  0.7090  0.7436
  936MOL0     H29130   5.721   8.721   3.971  1.3589  1.0543 -1.8321
  936MOL0     H29131   5.959   8.769   3.977  1.1522  1.8309 -0.4099
  936MOL0     H29132   6.134   8.859   3.966 -4.5020 -0.5104  1.7365
  936MOL0     H29133   6.095   9.031   3.921 -0.8876  1.5587  0.7422
  936MOL0     H29134   6.294   9.097   4.064  0.8208 -1.4503  0.6031
  936MOL0     H29135   6.364   8.931   4.061  1.8300  1.9408  2.2919
  936MOL0     H29136   6.310   9.130   3.847  1.6630  0.7042  0.6133
  936MOL0     H29137   6.339   8.953   3.802  3.0611 -0.8532 -0.4592
  936MOL0     H29138   6.563   8.950   3.901  0.5339 -0.4514 -1.8885
  936MOL0     H29139   6.536   9.100   3.974  1.0342 -0.6777 -0.1180
  936MOL0     H29140   6.547   9.080   3.672  1.7269  0.0641 -1.1606
  936MOL0     H29141   6.514   9.219   3.764  0.4011 -0.2827 -2.3214
  936MOL0     H29142   6.743   9.215   3.865 -0.4986 -0.7698  0.1570
  936MOL0     H29143   6.759   9.180   3.698  0.3905  0.9282  0.9995
  936MOL0     H29144   6.741   8.917   3.781  0.5827 -1.6125  1.6799
  936MOL0     H29145   6.772   8.987   3.934 -2.3068 -0.5527 -1.6861
  936MOL0     H29146   6.982   8.908   3.809 -1.5568 -0.4956 -2.9880
  936MOL0     H29147   7.000   9.071   3.863  0.4015 -0.9324  0.7988
  936MOL0     H29148   5.888   9.094   4.244  0.9187  0.7153 -0.1663
  936MOL0     H29149   5.667   9.023   4.270  2.7629 -0.3565  2.9745
  936MOL0     H29150   5.383   8.658   4.186 -0.9013  0.5087 -0.6193
  936MOL0     H29151   5.162   8.538   4.222 -0.3092  0.5821  1.2747
  936MOL0     H29152   3.527   7.898   4.945  2.0229 -0.1028  1.3092
  936MOL0     H29153   3.335   7.781   4.892  2.7863  0.0835 -0.1486
  936MOL0     H29154   3.179   7.383   4.980 -0.0723  1.6617 -0.4015
  936MOL0     H29155   3.064   7.186   4.909 -1.1642 -1.4304 -0.7585
  936MOL0     H29156   2.831   7.117   4.781  1.3458  0.3292  1.8629
  936MOL0     H29157   2.780   6.964   4.843  0.3001  0.5859 -1.3965
  936MOL0     H29158   2.585   7.140   4.739 -1.4644  1.2379  0.8454
  936MOL0     H29159   2.625   7.220   4.892 -0.5889 -1.0189  1.2761
  936MOL0     H29160   2.527   6.932   4.864 -1.2981 -0.2019 -0.3654
  936MOL0     H29161   2.584   7.018   5.012 -0.5074 -0.7116 -0.0562
  936MOL0     H29162   2.373   7.149   4.844 -0.5199 -2.1176 -1.7237
  936MOL0     H29163   2.406   7.174   5.015  0.9838 -0.8010  0.8616
  936MOL0     H29164   2.132   6.849   5.006 -0.5409  0.9800 -0.8967
  936MOL0     H29165   2.698   7.316   5.069 -0.4577 -2.9699 -3.3354
  936MOL0     H29166   2.668   7.526   5.152 -0.1989 -0.3522  3.1177
  936MOL0     H29167   2.796   7.600   5.243 -1.7110  3.3637 -0.4489
  936MOL0     H29168   2.755   7.655   5.080  0.4889 -0.5947 -0.1398
  937MOL0     O29169   0.520   4.586   9.112 -0.3724 -0.2814  0.4886
  937MOL0     C29170   0.559   4.609   8.999  0.1954 -0.3298  0.1077
  937MOL0     O29171   0.682   4.654   8.962  0.4022  0.1798  0.0389
  937MOL0     C29172   0.781   4.661   9.059 -0.3015 -0.4646 -0.3502
  937MOL0     C29173   0.863   4.551   9.083  0.2739  0.7099  0.0374
  937MOL0     C29174   0.976   4.565   9.163 -0.6199 -0.3415  0.5739
  937MOL0     C29175   1.006   4.685   9.235 -0.4084 -0.0816 -0.2710
  937MOL0     O29176   1.108   4.711   9.324 -0.1568 -0.2410  0.6915
  937MOL0     C29177   1.194   4.605   9.377  0.3197 -0.7844  0.6728
  937MOL0     C29178   1.308   4.595   9.285  0.8039 -0.7204  0.0948
  937MOL0     C29179   1.395   4.463   9.294 -0.7467 -0.6213  0.4814
  937MOL0     C29180   1.513   4.459   9.193  0.0407  0.3110  0.5336
  937MOL0     C29181   1.607   4.341   9.227  0.2318  0.6446 -0.4501
  937MOL0     C29182   1.656   4.284   9.100 -0.1704  0.0934 -0.2973
  937MOL0     C29183   1.756   4.163   9.126  0.7356  0.5048  0.4685
  937MOL0     C29184   1.707   4.056   9.222 -0.2298 -0.0113 -0.3805
  937MOL0     N29185   1.794   3.939   9.204 -0.4571  0.1240  0.7510
  937MOL0     C29186   1.927   3.937   9.213 -0.8400 -0.3017 -0.5786
  937MOL0     C29187   1.966   3.814   9.182 -0.5973  0.7518 -0.4297
  937MOL0     C29188   2.104   3.766   9.179 -0.0312 -0.2739 -0.0242
  937MOL0     C29189   2.120   3.617   9.136 -0.5100  0.3502 -0.8196
  937MOL0     C29190   2.131   3.583   8.989 -0.3343 -0.1769 -0.3885
  937MOL0     C29191   1.995   3.591   8.915  0.3067 -0.0015  0.9112
  937MOL0     O29192   1.966   3.727   8.866 -0.0534 -0.4661 -0.7657
  937MOL0     C29193   1.849   3.762   8.805  0.8208  0.7879 -0.2026
  937MOL0     C29194   1.817   3.897   8.795  0.9437 -0.2316  0.1227
  937MOL0     C29195   1.703   3.944   8.728  0.6092  0.6733  0.2084
  937MOL0     C29196   1.685   4.097   8.711 -0.0369  0.0558 -0.6384
  937MOL0     C29197   1.609   3.846   8.671 -0.0338 -0.2947  0.3238
  937MOL0     C29198   1.481   3.886   8.601  0.0701 -0.6642  0.3845
  937MOL0     O29199   1.401   3.781   8.566  0.0204 -0.0596 -0.3404
  937MOL0     C29200   1.309   3.794   8.465 -0.6206  0.2634  0.0195
  937MOL0     C29201   1.215   3.687   8.458  0.2345 -0.1559 -0.2024
  937MOL0     C29202   1.108   3.688   8.368  0.6046  0.7585  0.2714
  937MOL0     C29203   1.099   3.797   8.276  0.2114 -1.0573  0.0740
  937MOL0     O29204   1.012   3.809   8.170  0.2656 -0.9269 -0.0531
  937MOL0     C29205   0.919   3.699   8.167  0.6849  0.5649 -0.8434
  937MOL0     C29206   0.785   3.716   8.081  0.2335  0.8534 -0.2801
  937MOL0     C29207   0.821   3.738   7.931  0.1977 -0.3496 -0.4412
  937MOL0     C29208   0.863   3.881   7.899  0.1445  0.5054 -0.3085
  937MOL0     C29209   0.755   3.989   7.895 -0.0096 -0.0756 -0.2941
  937MOL0     C29210   0.610   3.941   7.859 -0.5141 -0.4068 -0.4070
  937MOL0     C29211   0.510   4.056   7.865  0.4697 -0.0115 -0.2369
  937MOL0     C29212   0.385   4.036   7.783 -0.5355 -0.0384  0.0158
  937MOL0    Cl29213   0.251   3.976   7.886 -0.6587  0.2627 -0.2519
  937MOL0     C29214   1.200   3.892   8.273 -0.5987 -0.0997  0.2616
  937MOL0     C29215   1.300   3.904   8.366 -0.1275  0.3733 -0.1811
  937MOL0     O29216   1.446   4.003   8.606 -0.4119 -0.3455  0.1257
  937MOL0     C29217   1.640   3.706   8.694  0.3854  0.4469  0.4395
  937MOL0     C29218   1.763   3.674   8.751  0.8881  0.7230  0.0278
  937MOL0     N29219   1.852   3.737   9.174  0.1663 -0.1079 -0.3977
  937MOL0     N29220   1.754   3.814   9.178  0.2317 -0.0727  0.3850
  937MOL0     C29221   0.929   4.800   9.214 -0.0498  0.3819  0.8312
  937MOL0     C29222   0.819   4.791   9.121  0.4425  0.0989  0.8068
  937MOL0     C29223   0.455   4.609   8.890 -1.1584  0.1634  0.1328
  937MOL0     C29224   0.341   4.695   8.895 -0.1709  0.0765  0.2141
  937MOL0     C29225   0.248   4.700   8.790 -0.6978 -0.5109  0.1059
  937MOL0     C29226   0.254   4.610   8.684 -0.4484 -0.9158 -0.6793
  937MOL0     O29227   0.158   4.620   8.592 -0.0749 -0.2342  0.6315
  937MOL0     C29228   0.113   4.497   8.529 -0.3962 -1.6522 -0.1528
  937MOL0     C29229   0.074   4.398   8.641  0.3581 -0.3465  0.1379
  937MOL0     C29230  -0.052   4.452   8.714 -0.0064  0.2914  0.0131
  937MOL0     C29231  -0.114   4.346   8.806 -0.2305  1.0211 -0.2453
  937MOL0     C29232  -0.154   4.224   8.740  0.5418  1.1063  0.0445
  937MOL0     C29233  -0.193   4.120   8.688 -0.1842  0.0222 -0.2163
  937MOL0     C29234   0.360   4.513   8.683  1.0596 -0.3032  0.6499
  937MOL0     C29235   0.462   4.515   8.784  0.0188  0.3579  0.1835
  937MOL0     C29236   0.572   4.417   8.771  0.9629 -0.2341  0.2910
  937MOL0     H29237   0.846   4.451   9.046  1.2061 -0.8736  3.4865
  937MOL0     H29238   1.035   4.475   9.177 -0.8479 -0.1894  2.9920
  937MOL0     H29239   1.144   4.508   9.385 -1.6416  0.2766  1.8659
  937MOL0     H29240   1.240   4.629   9.474 -0.5552 -1.2517  1.2192
  937MOL0     H29241   1.268   4.608   9.184 -0.6165  0.0841  0.7348
  937MOL0     H29242   1.377   4.679   9.300 -0.9468  0.6319  0.8958
  937MOL0     H29243   1.442   4.460   9.393  1.1109  0.3767 -0.3190
  937MOL0     H29244   1.326   4.380   9.277 -1.5149 -0.0039  0.5222
  937MOL0     H29245   1.465   4.444   9.096 -1.9641 -0.7855  1.6214
  937MOL0     H29246   1.575   4.549   9.187  0.5641 -0.1196 -1.3414
  937MOL0     H29247   1.552   4.264   9.282 -0.1780 -0.6209 -2.5090
  937MOL0     H29248   1.687   4.378   9.291 -1.0993  1.0637  1.0573
  937MOL0     H29249   1.571   4.263   9.035 -0.1636 -3.1412  0.5888
  937MOL0     H29250   1.710   4.368   9.054  3.0357 -1.5079  0.2523
  937MOL0     H29251   1.849   4.205   9.163  1.1694 -0.3380  0.3520
  937MOL0     H29252   1.772   4.126   9.024 -4.4966  0.2813 -0.5672
  937MOL0     H29253   1.718   4.085   9.327  0.9555 -3.2593  0.5210
  937MOL0     H29254   1.603   4.025   9.206 -0.3066  0.6962 -1.3136
  937MOL0     H29255   1.996   4.014   9.246 -1.6824 -0.7993  2.7266
  937MOL0     H29256   2.156   3.780   9.274  1.1948 -0.3450 -0.6623
  937MOL0     H29257   2.158   3.831   9.110 -1.3513  1.2249  0.2978
  937MOL0     H29258   2.215   3.583   9.179 -1.0779 -2.6312 -1.7250
  937MOL0     H29259   2.039   3.560   9.181 -0.1241  1.6610  1.7025
  937MOL0     H29260   2.202   3.657   8.951 -1.1944  1.2449  0.6893
  937MOL0     H29261   2.166   3.481   8.972 -2.9311 -1.2129  0.0789
  937MOL0     H29262   1.993   3.526   8.828  0.1856  1.8819 -0.5628
  937MOL0     H29263   1.912   3.564   8.982 -0.3256  3.2413  1.6262
  937MOL0     H29264   1.888   3.963   8.843 -0.2897  0.6577  0.7822
  937MOL0     H29265   1.687   4.133   8.608 -0.2220  0.5718 -0.4618
  937MOL0     H29266   1.768   4.149   8.760 -0.2972  0.0467 -0.1837
  937MOL0     H29267   1.593   4.112   8.768  0.7145 -1.7530  1.1696
  937MOL0     H29268   1.229   3.610   8.534  1.3994  0.5631  0.3288
  937MOL0     H29269   1.045   3.600   8.364 -0.1045  1.1738  1.5678
  937MOL0     H29270   0.971   3.610   8.131  0.4780  0.9213 -2.0611
  937MOL0     H29271   0.881   3.690   8.270 -0.8800  2.5376 -1.1855
  937MOL0     H29272   0.730   3.622   8.089  2.8322 -0.7704 -0.3643
  937MOL0     H29273   0.724   3.802   8.109 -0.4742 -0.2129  1.6779
  937MOL0     H29274   0.731   3.713   7.873 -1.4185 -1.6185  2.3631
  937MOL0     H29275   0.881   3.653   7.897 -1.7012 -1.1468 -2.0284
  937MOL0     H29276   0.928   3.871   7.812  1.2323 -1.9201  0.7088
  937MOL0     H29277   0.933   3.916   7.976  3.3606 -2.1180 -1.8083
  937MOL0     H29278   0.756   4.041   7.991 -1.7546 -0.2555 -0.1403
  937MOL0     H29279   0.779   4.075   7.832 -0.1964 -0.6852 -1.2254
  937MOL0     H29280   0.582   3.858   7.923 -1.5860 -0.2471 -0.6453
  937MOL0     H29281   0.606   3.909   7.754  0.3738  3.0409 -1.6340
  937MOL0     H29282   0.549   4.147   7.819 -2.0750  0.0631 -2.5345
  937MOL0     H29283   0.477   4.073   7.969 -1.3497 -3.4342 -0.0884
  937MOL0     H29284   0.406   3.966   7.702 -0.6448  1.1207 -1.0516
  937MOL0     H29285   0.353   4.131   7.739 -0.5323 -0.2956 -0.5505
  937MOL0     H29286   1.183   3.965   8.194  0.6997 -0.4230 -0.3403
  937MOL0     H29287   1.373   3.983   8.371  1.1399 -0.7816  0.2720
  937MOL0     H29288   1.572   3.627   8.665  1.5927 -1.7972  3.3053
  937MOL0     H29289   1.773   3.566   8.745  0.7365  0.7957 -3.3936
  937MOL0     H29290   0.948   4.900   9.249 -0.2644  0.8255 -0.2715
  937MOL0     H29291   0.774   4.886   9.094  2.5925  1.4167  1.5998
  937MOL0     H29292   0.330   4.758   8.982  2.1303 -0.8989  1.3006
  937MOL0     H29293   0.157   4.756   8.805 -0.1326  0.2169  0.8755
  937MOL0     H29294   0.032   4.515   8.458  2.4218  1.9940 -2.8098
  937MOL0     H29295   0.196   4.466   8.465  0.2355  2.3348 -1.5526
  937MOL0     H29296   0.154   4.368   8.709  0.9564 -0.6035 -0.6658
  937MOL0     H29297   0.061   4.303   8.588  0.0399 -0.2289  0.0028
  937MOL0     H29298  -0.022   4.545   8.764 -0.8644  0.6527 -0.1218
  937MOL0     H29299  -0.124   4.494   8.644  0.0245  2.5701  1.2426
  937MOL0     H29300  -0.194   4.395   8.861 -0.2144  1.6114 -0.7437
  937MOL0     H29301  -0.034   4.312   8.872 -1.0407 -0.3604  0.0733
  937MOL0     H29302  -0.220   4.023   8.651 -1.0435 -0.3129  1.2110
  937MOL0     H29303   0.355   4.441   8.602  0.6295 -1.9955  2.1279
  937MOL0     H29304   0.579   4.377   8.669 -0.8616 -0.5105  0.2361
  937MOL0     H29305   0.662   4.478   8.776  0.8986 -0.0137 -0.7993
  937MOL0     H29306   0.568   4.342   8.851 -0.9174 -1.3192 -0.7248
  938MOL0     O29307   2.446   0.253   2.900  0.1866  0.4399 -0.2874
  938MOL0     C29308   2.440   0.360   2.840  0.8290  0.2299  0.2928
  938MOL0     O29309   2.542   0.454   2.844  0.5929  0.1130 -0.1785
  938MOL0     C29310   2.650   0.436   2.925  0.2495  0.4908 -0.0646
  938MOL0     C29311   2.648   0.484   3.056  0.2644  1.1402 -0.7196
  938MOL0     C29312   2.772   0.494   3.126 -0.2831 -0.5774  0.2224
  938MOL0     C29313   2.893   0.461   3.076  0.1692 -0.2737 -0.2585
  938MOL0     O29314   3.006   0.482   3.150  0.2824 -0.5679  0.3675
  938MOL0     C29315   3.102   0.563   3.085 -0.4279 -0.4933  0.8311
  938MOL0     C29316   3.205   0.630   3.168 -0.1606  0.0860 -0.5846
  938MOL0     C29317   3.299   0.521   3.225 -0.4275 -0.7510  0.0922
  938MOL0     C29318   3.441   0.543   3.179 -1.3650  0.2201  0.1373
  938MOL0     C29319   3.539   0.439   3.237  0.1924  0.4770 -0.4589
  938MOL0     C29320   3.685   0.469   3.215  0.4661  0.3753 -0.2605
  938MOL0     C29321   3.767   0.379   3.305  0.9992 -0.1549  0.9130
  938MOL0     C29322   3.920   0.377   3.293 -0.4524  0.3176 -0.0674
  938MOL0     N29323   3.977   0.505   3.334  0.0236  0.2075 -0.0463
  938MOL0     C29324   3.985   0.545   3.463  0.1733  0.0592  0.0584
  938MOL0     C29325   4.057   0.662   3.454  0.0237  0.6254  0.3138
  938MOL0     C29326   4.106   0.743   3.576 -0.7720 -0.3723  0.1051
  938MOL0     C29327   4.253   0.798   3.569  0.5119 -0.6695  0.3862
  938MOL0     C29328   4.339   0.699   3.642  0.0124 -0.2426 -0.8096
  938MOL0     C29329   4.484   0.742   3.667  0.4562  0.4179  0.6014
  938MOL0     O29330   4.495   0.817   3.788 -0.3068  0.2095 -0.2344
  938MOL0     C29331   4.610   0.892   3.811 -0.1007 -0.1287  0.3212
  938MOL0     C29332   4.736   0.843   3.791 -0.3317 -0.6018  0.0921
  938MOL0     C29333   4.854   0.914   3.812  0.3689 -0.1388 -0.7801
  938MOL0     C29334   4.984   0.835   3.785  0.1447  0.1857 -0.0399
  938MOL0     C29335   4.843   1.048   3.861  0.6039  0.1447 -0.2602
  938MOL0     C29336   4.956   1.131   3.885  0.3899 -0.2082 -1.0903
  938MOL0     O29337   5.070   1.109   3.809 -0.1283  0.3451  0.5478
  938MOL0     C29338   5.184   1.175   3.824 -0.3582  0.3424  0.5641
  938MOL0     C29339   5.190   1.314   3.837 -0.1505  0.1838  0.2717
  938MOL0     C29340   5.316   1.387   3.842  0.6959  0.4041 -1.0912
  938MOL0     C29341   5.435   1.324   3.855 -0.0309 -0.1775 -0.4445
  938MOL0     O29342   5.540   1.410   3.871  0.5407 -0.5661  0.5449
  938MOL0     C29343   5.629   1.370   3.975 -0.0127  0.0949 -0.2128
  938MOL0     C29344   5.748   1.465   4.009  1.1158  0.1246 -0.2904
  938MOL0     C29345   5.831   1.501   3.880 -0.5295  0.0597 -0.0764
  938MOL0     C29346   5.888   1.382   3.806 -0.4071  0.4428  0.2080
  938MOL0     C29347   5.992   1.434   3.705  0.8272  0.5689  0.3680
  938MOL0     C29348   6.080   1.319   3.664  0.0734  1.3765  0.4030
  938MOL0     C29349   6.207   1.356   3.583 -0.3151  0.0989  0.2254
  938MOL0     C29350   6.294   1.235   3.535  0.6942 -0.1915 -0.7765
  938MOL0    Cl29351   6.427   1.282   3.436  0.0760 -0.0902  0.1976
  938MOL0     C29352   5.439   1.184   3.840  0.0643 -0.1621  0.9887
  938MOL0     C29353   5.314   1.119   3.822 -0.4598  0.1895 -0.7432
  938MOL0     O29354   4.948   1.212   3.978  0.1459 -0.0024  0.4125
  938MOL0     C29355   4.711   1.093   3.893  0.9248 -0.0194  0.4160
  938MOL0     C29356   4.594   1.022   3.860  0.3440 -0.2059 -1.1821
  938MOL0     N29357   4.059   0.706   3.318  0.3204  0.3565 -1.5518
  938MOL0     N29358   4.015   0.605   3.251  0.2134  0.0584  0.1913
  938MOL0     C29359   2.887   0.408   2.944  1.2054  0.6284  0.0793
  938MOL0     C29360   2.768   0.396   2.867 -0.7693 -0.3100 -0.9724
  938MOL0     C29361   2.324   0.382   2.742 -0.1958  0.2794 -0.8734
  938MOL0     C29362   2.190   0.357   2.778 -0.4449  0.0703 -0.0295
  938MOL0     C29363   2.087   0.337   2.682 -0.4009  1.1006  0.0966
  938MOL0     C29364   2.113   0.371   2.550 -0.1468 -0.1107  0.4475
  938MOL0     O29365   2.031   0.365   2.439  0.1936  0.8376  0.3069
  938MOL0     C29366   1.890   0.362   2.461 -0.4615  0.6209  0.1520
  938MOL0     C29367   1.814   0.329   2.333 -0.5715  0.0390  0.0130
  938MOL0     C29368   1.816   0.438   2.225 -0.3818 -0.0393  0.7043
  938MOL0     C29369   1.961   0.458   2.177  0.4100  1.1728  0.7976
  938MOL0     C29370   1.958   0.545   2.055  0.4843 -0.6894 -0.2236
  938MOL0     C29371   1.940   0.613   1.956 -0.5260 -0.4126  0.6277
  938MOL0     C29372   2.243   0.411   2.514  0.1635  0.9596 -0.1840
  938MOL0     C29373   2.346   0.408   2.606  0.3509 -0.2612 -0.5278
  938MOL0     C29374   2.483   0.438   2.552  0.2221  0.7168  0.5608
  938MOL0     H29375   2.552   0.515   3.095 -0.2143  1.5857 -2.1605
  938MOL0     H29376   2.769   0.544   3.222  2.6820  0.7922 -0.2836
  938MOL0     H29377   3.047   0.645   3.038  1.8173  0.5860 -0.0621
  938MOL0     H29378   3.154   0.509   3.005  1.1651 -0.9605  2.1582
  938MOL0     H29379   3.266   0.697   3.106  1.7028  0.6320  1.6826
  938MOL0     H29380   3.156   0.681   3.251 -0.4549 -2.8789  1.2148
  938MOL0     H29381   3.295   0.544   3.332 -0.2875  1.0505 -0.2506
  938MOL0     H29382   3.265   0.420   3.201 -0.2048 -0.6516 -0.6735
  938MOL0     H29383   3.445   0.546   3.070  0.9645 -0.5854  0.1602
  938MOL0     H29384   3.477   0.637   3.222  0.6754 -1.0318  1.3251
  938MOL0     H29385   3.515   0.336   3.206  2.9504 -0.8337  1.3100
  938MOL0     H29386   3.518   0.432   3.344 -2.2469 -0.9949 -0.9427
  938MOL0     H29387   3.696   0.457   3.106 -2.2089  0.8005 -0.6526
  938MOL0     H29388   3.708   0.572   3.244  0.1019  0.3038  0.2937
  938MOL0     H29389   3.730   0.276   3.296 -0.0046  0.3885 -2.9524
  938MOL0     H29390   3.743   0.410   3.408 -1.5775 -2.2837  1.0746
  938MOL0     H29391   3.959   0.290   3.347  1.2020  0.9784 -0.1409
  938MOL0     H29392   3.944   0.356   3.188  1.1793  0.9206  0.1505
  938MOL0     H29393   3.952   0.489   3.550 -0.4183 -0.2440 -0.3562
  938MOL0     H29394   4.098   0.683   3.667  1.9868  2.0032  2.1072
  938MOL0     H29395   4.036   0.827   3.587 -0.8745 -0.3893 -0.4071
  938MOL0     H29396   4.285   0.794   3.464 -3.0658 -0.6522 -0.8666
  938MOL0     H29397   4.267   0.897   3.613  3.8293  0.6959 -3.1218
  938MOL0     H29398   4.294   0.658   3.734  1.6686 -0.6018 -0.1195
  938MOL0     H29399   4.350   0.611   3.578  2.5399 -2.0371  1.8180
  938MOL0     H29400   4.546   0.652   3.662  1.8198  1.3930 -1.9051
  938MOL0     H29401   4.513   0.809   3.585 -0.8111  0.9813  0.5867
  938MOL0     H29402   4.745   0.739   3.764 -2.8266 -1.3163  1.6205
  938MOL0     H29403   4.971   0.727   3.774  1.6640  0.0837 -1.2079
  938MOL0     H29404   5.057   0.850   3.865  3.0094 -0.1771 -2.3998
  938MOL0     H29405   5.046   0.868   3.701  0.9367  0.8314  0.7719
  938MOL0     H29406   5.096   1.369   3.835 -0.5493 -0.3502  2.4052
  938MOL0     H29407   5.318   1.492   3.871  0.5087 -0.0880  0.8411
  938MOL0     H29408   5.566   1.368   4.065 -0.0651  1.9546 -0.1837
  938MOL0     H29409   5.676   1.273   3.956 -0.6117 -0.2094 -0.1988
  938MOL0     H29410   5.693   1.556   4.035 -0.7872 -1.0777  0.1663
  938MOL0     H29411   5.813   1.438   4.092 -1.0983  0.5874  1.7119
  938MOL0     H29412   5.919   1.556   3.916  1.2046 -0.5994 -3.0037
  938MOL0     H29413   5.773   1.572   3.821 -0.4064  0.2680  0.0498
  938MOL0     H29414   5.808   1.323   3.758  0.2074 -0.0726 -0.2117
  938MOL0     H29415   5.928   1.311   3.879 -0.6574  0.0006 -0.0752
  938MOL0     H29416   5.942   1.480   3.619 -2.5650 -2.0763  0.6970
  938MOL0     H29417   6.062   1.503   3.753 -1.1432  2.4305  0.6971
  938MOL0     H29418   6.023   1.259   3.593 -2.2052  2.9311  0.8029
  938MOL0     H29419   6.105   1.262   3.754 -3.3873 -0.4145  0.3994
  938MOL0     H29420   6.263   1.431   3.639 -0.6767  1.3104 -0.9756
  938MOL0     H29421   6.168   1.404   3.492  0.2509  0.1937  0.0280
  938MOL0     H29422   6.231   1.154   3.498  0.0785  0.6624 -1.6238
  938MOL0     H29423   6.336   1.196   3.629 -0.5436 -1.9631 -0.9052
  938MOL0     H29424   5.531   1.126   3.846  0.6276  0.6248  0.2200
  938MOL0     H29425   5.319   1.011   3.818  1.8997  0.0869  1.9674
  938MOL0     H29426   4.700   1.191   3.938 -0.1804  1.5401 -2.9252
  938MOL0     H29427   4.495   1.058   3.885  1.5121  1.4799  1.5289
  938MOL0     H29428   2.982   0.376   2.902  3.0849  2.1409  2.8492
  938MOL0     H29429   2.773   0.371   2.762  0.2343 -0.7854 -0.8255
  938MOL0     H29430   2.189   0.327   2.882  4.2490 -0.5321  0.0877
  938MOL0     H29431   1.987   0.306   2.710  0.0674 -0.6503 -0.0806
  938MOL0     H29432   1.873   0.282   2.533 -1.2713  1.3774  0.8208
  938MOL0     H29433   1.856   0.451   2.515 -2.4983 -1.2280  2.1056
  938MOL0     H29434   1.711   0.311   2.365  0.0420 -1.3100  1.3730
  938MOL0     H29435   1.842   0.230   2.296 -0.1056 -0.8986  2.6780
  938MOL0     H29436   1.740   0.415   2.149  1.0652 -0.3542 -0.7068
  938MOL0     H29437   1.797   0.536   2.270 -0.9109  0.2614 -0.1483
  938MOL0     H29438   2.014   0.366   2.153 -0.8691  0.6820 -0.2774
  938MOL0     H29439   2.026   0.499   2.254  2.3690  0.9574 -0.6773
  938MOL0     H29440   1.922   0.676   1.871  1.1852  1.1959  1.3766
  938MOL0     H29441   2.249   0.430   2.407  2.3965  1.8228  0.0534
  938MOL0     H29442   2.515   0.531   2.600  1.7683 -0.9253  2.9751
  938MOL0     H29443   2.561   0.366   2.579 -0.1614 -0.0255 -0.2452
  938MOL0     H29444   2.480   0.454   2.444  2.0989 -1.0237  0.1803
  939MOL0     O29445   4.879   9.014   2.737  0.6982 -0.4754 -0.5754
  939MOL0     C29446   4.861   8.948   2.630 -0.4884 -0.2065 -0.2775
  939MOL0     O29447   4.967   8.892   2.563  0.8461 -0.4180  0.5625
  939MOL0     C29448   5.092   8.870   2.619 -0.2849  0.4185  0.1125
  939MOL0     C29449   5.126   8.850   2.752  0.4753  0.3400 -1.2565
  939MOL0     C29450   5.250   8.831   2.801 -0.4904  0.1650 -0.3527
  939MOL0     C29451   5.357   8.830   2.714 -0.6775  0.4943  0.1569
  939MOL0     O29452   5.489   8.827   2.758  0.1510  0.3136  0.5096
  939MOL0     C29453   5.527   8.848   2.895  0.1427 -0.2904  0.1265
  939MOL0     C29454   5.683   8.804   2.911 -0.3156 -0.6783  0.9459
  939MOL0     C29455   5.729   8.808   3.060  0.5375 -0.4829 -0.0730
  939MOL0     C29456   5.856   8.734   3.075 -0.2477  0.0073 -1.0885
  939MOL0     C29457   5.890   8.710   3.216  1.3574  0.3881 -0.0557
  939MOL0     C29458   6.002   8.615   3.204  0.5262 -0.4991 -0.3831
  939MOL0     C29459   6.100   8.631   3.315 -0.2442  1.5310 -0.4655
  939MOL0     C29460   6.169   8.764   3.339 -0.4335 -0.2858 -0.4138
  939MOL0     N29461   6.288   8.748   3.421 -0.1811  0.7901 -0.3972
  939MOL0     C29462   6.404   8.674   3.389 -0.4165  0.4847 -0.5244
  939MOL0     C29463   6.492   8.703   3.482  0.0413 -0.1067  0.6991
  939MOL0     C29464   6.636   8.670   3.477 -0.3139 -0.2517 -0.1006
  939MOL0     C29465   6.723   8.772   3.406  0.0108 -0.1690  0.6160
  939MOL0     C29466   6.869   8.733   3.416  0.5481 -0.5311 -0.0430
  939MOL0     C29467   6.966   8.806   3.330 -0.1904  0.4016  0.2400
  939MOL0     O29468   7.091   8.732   3.318  0.1652 -0.0187  1.0058
  939MOL0     C29469   7.174   8.766   3.219 -0.2226 -0.9389  0.5681
  939MOL0     C29470   7.173   8.691   3.097  0.9990  0.2994 -0.8209
  939MOL0     C29471   7.263   8.719   2.997  0.6239 -0.5338  0.5244
  939MOL0     C29472   7.247   8.642   2.873 -0.3178  0.1072  0.1122
  939MOL0     C29473   7.359   8.826   3.012  0.2554  0.2567 -0.0940
  939MOL0     C29474   7.472   8.853   2.918  0.5156  0.4099 -0.3782
  939MOL0     O29475   7.540   8.967   2.931  0.5542 -0.0745 -0.3058
  939MOL0     C29476   7.652   8.999   2.867  0.3361 -0.3338  0.1648
  939MOL0     C29477   7.747   8.908   2.820 -0.1022  0.3036 -0.5152
  939MOL0     C29478   7.857   8.941   2.736  0.0951  0.2785 -1.1504
  939MOL0     C29479   7.870   9.079   2.698 -0.0677  0.5359 -0.0181
  939MOL0     O29480   7.968   9.109   2.615  0.3216  0.1982 -0.2593
  939MOL0     C29481   8.077   9.177   2.673 -0.0880  0.7900  0.1298
  939MOL0     C29482   8.204   9.167   2.578  0.3727 -0.8633  0.4931
  939MOL0     C29483   8.311   9.274   2.621  0.2787  0.5699  0.0336
  939MOL0     C29484   8.436   9.288   2.525 -0.3422  0.3105 -1.0524
  939MOL0     C29485   8.522   9.405   2.575  0.2247 -0.0974  0.3180
  939MOL0     C29486   8.671   9.392   2.533  0.4030  0.2422  0.5563
  939MOL0     C29487   8.699   9.418   2.389  0.2244 -0.7328  1.2102
  939MOL0     C29488   8.846   9.396   2.356 -0.2611 -0.3100  0.4948
  939MOL0    Cl29489   8.876   9.423   2.182 -0.2673  0.2326 -0.0247
  939MOL0     C29490   7.789   9.173   2.751  0.6793  0.3653  1.3189
  939MOL0     C29491   7.677   9.136   2.831 -0.9403 -0.2109 -0.9455
  939MOL0     O29492   7.501   8.767   2.834  0.5259 -0.2436 -0.2698
  939MOL0     C29493   7.359   8.897   3.135  0.3457  0.2365 -0.0986
  939MOL0     C29494   7.271   8.868   3.235 -0.1108 -0.6334  0.0182
  939MOL0     N29495   6.436   8.782   3.581  0.0590 -0.3734  0.0568
  939MOL0     N29496   6.310   8.813   3.535  0.3832 -0.4553 -0.4767
  939MOL0     C29497   5.331   8.841   2.576  0.3354  0.1065  0.1300
  939MOL0     C29498   5.196   8.855   2.532  0.0172  0.2951 -0.3162
  939MOL0     C29499   4.732   8.936   2.557  0.2059 -0.4580  0.1806
  939MOL0     C29500   4.721   8.949   2.425 -0.1835  1.0743 -0.1228
  939MOL0     C29501   4.598   8.948   2.362  0.8541 -0.2588 -0.5043
  939MOL0     C29502   4.481   8.959   2.425  0.0282 -0.2148 -0.0823
  939MOL0     O29503   4.372   8.957   2.343  0.7693  0.0865 -0.3978
  939MOL0     C29504   4.250   9.009   2.398 -0.8900 -0.3058  0.0696
  939MOL0     C29505   4.146   8.928   2.329 -0.4319  0.0775  0.2640
  939MOL0     C29506   4.138   8.785   2.371  0.4648  0.6546 -0.9494
  939MOL0     C29507   4.000   8.722   2.327  0.1544  0.0008  0.1736
  939MOL0     C29508   3.999   8.706   2.182  0.1834  0.0503 -0.2161
  939MOL0     C29509   3.978   8.678   2.066 -0.1931  0.5741 -0.8612
  939MOL0     C29510   4.482   8.935   2.559 -0.6253  0.4961 -0.0719
  939MOL0     C29511   4.613   8.934   2.630  0.7435  0.7661 -0.0106
  939MOL0     C29512   4.599   8.944   2.786  0.5855 -0.5011 -0.3533
  939MOL0     H29513   5.059   8.863   2.836 -0.4269 -0.0090 -1.9143
  939MOL0     H29514   5.267   8.820   2.908 -3.5193  2.4281  0.5138
  939MOL0     H29515   5.464   8.792   2.965 -1.0205  1.7265  0.7861
  939MOL0     H29516   5.504   8.948   2.931  0.7718 -0.1294  0.0937
  939MOL0     H29517   5.686   8.704   2.866  1.4251  0.9221 -2.9454
  939MOL0     H29518   5.745   8.868   2.847 -1.2701 -0.8620 -0.1933
  939MOL0     H29519   5.735   8.906   3.108  1.3419 -0.6094  0.1034
  939MOL0     H29520   5.652   8.763   3.122  0.4209  1.4805  1.2957
  939MOL0     H29521   5.857   8.639   3.020 -0.0636  0.2547 -1.5203
  939MOL0     H29522   5.936   8.788   3.025 -0.6543  0.2311 -1.5046
  939MOL0     H29523   5.803   8.663   3.263  2.6428 -0.8811  1.1304
  939MOL0     H29524   5.903   8.796   3.283  1.4503  0.3110  0.0255
  939MOL0     H29525   5.961   8.515   3.216  2.3547 -1.1080  1.4202
  939MOL0     H29526   6.058   8.628   3.111 -0.6691 -0.3163 -1.0904
  939MOL0     H29527   6.182   8.558   3.309  0.5103  1.8948  3.2159
  939MOL0     H29528   6.043   8.611   3.405 -0.3408 -0.0823 -0.8560
  939MOL0     H29529   6.190   8.817   3.246  3.7601 -2.7681 -1.1324
  939MOL0     H29530   6.108   8.832   3.398  2.1407  0.7534  1.2240
  939MOL0     H29531   6.421   8.617   3.298 -1.3296 -1.3998  0.4365
  939MOL0     H29532   6.644   8.578   3.417 -2.1327 -0.2222 -0.4562
  939MOL0     H29533   6.677   8.661   3.578 -0.6189 -1.9841 -0.1006
  939MOL0     H29534   6.688   8.783   3.302 -1.3534  2.5592  1.2808
  939MOL0     H29535   6.705   8.867   3.457 -2.4064  0.2501 -0.8351
  939MOL0     H29536   6.896   8.743   3.522  0.4633 -1.4990  0.0711
  939MOL0     H29537   6.871   8.630   3.382 -2.8109 -0.3042 -1.2652
  939MOL0     H29538   6.920   8.811   3.231  1.1955  1.2312 -0.3856
  939MOL0     H29539   6.991   8.905   3.368  0.4042  0.2487  0.2471
  939MOL0     H29540   7.114   8.602   3.080  3.0629 -1.2125 -0.3897
  939MOL0     H29541   7.338   8.589   2.844 -1.0149 -0.1670 -1.7099
  939MOL0     H29542   7.218   8.708   2.790 -3.5742 -0.6789  0.4784
  939MOL0     H29543   7.180   8.556   2.877 -0.0026 -0.4532 -3.3279
  939MOL0     H29544   7.756   8.806   2.855 -2.5812  0.3533  0.4954
  939MOL0     H29545   7.938   8.878   2.701 -0.0250 -0.2099 -0.5684
  939MOL0     H29546   8.040   9.276   2.702 -0.7989  0.9760 -1.3312
  939MOL0     H29547   8.092   9.124   2.767 -2.3713 -0.7288 -0.2823
  939MOL0     H29548   8.244   9.066   2.570  3.9779  0.5774 -3.0050
  939MOL0     H29549   8.167   9.196   2.479  1.2346  0.5171  0.5432
  939MOL0     H29550   8.349   9.255   2.722 -0.3485  0.4130  0.2461
  939MOL0     H29551   8.259   9.370   2.626  0.5647  0.6512  1.7997
  939MOL0     H29552   8.395   9.321   2.429  1.8843  2.8083 -1.2612
  939MOL0     H29553   8.485   9.191   2.517 -0.1982  0.3206 -0.3454
  939MOL0     H29554   8.479   9.492   2.524  3.5891  1.4068 -0.2263
  939MOL0     H29555   8.507   9.421   2.682 -2.3508 -0.4455  0.0913
  939MOL0     H29556   8.704   9.291   2.555 -0.0698  0.4233  2.2106
  939MOL0     H29557   8.730   9.449   2.605  0.0527  0.0600  0.9873
  939MOL0     H29558   8.660   9.518   2.366  0.3934 -1.1004 -0.9462
  939MOL0     H29559   8.637   9.353   2.326  1.4172 -0.9040  0.1769
  939MOL0     H29560   8.861   9.289   2.374 -0.5819 -0.3413  0.5820
  939MOL0     H29561   8.910   9.457   2.421  2.2481 -0.2679 -1.8273
  939MOL0     H29562   7.810   9.279   2.738 -1.1139  0.5902 -0.3131
  939MOL0     H29563   7.608   9.209   2.872  1.5739  0.3853  2.7132
  939MOL0     H29564   7.435   8.973   3.150 -0.3587  1.5304 -2.6194
  939MOL0     H29565   7.281   8.907   3.336  0.1439 -0.4310 -0.0862
  939MOL0     H29566   5.416   8.826   2.511  1.1862  0.9982  0.9963
  939MOL0     H29567   5.186   8.861   2.424  2.6375  0.3005 -0.6188
  939MOL0     H29568   4.811   8.944   2.365 -1.8395  2.7036 -2.9594
  939MOL0     H29569   4.591   8.948   2.254 -1.3196 -0.4392 -0.4211
  939MOL0     H29570   4.231   8.995   2.505 -0.9250 -1.3273 -0.0549
  939MOL0     H29571   4.228   9.113   2.372  2.5019 -0.0993 -2.5787
  939MOL0     H29572   4.158   8.927   2.221 -1.2909  1.2190  0.1476
  939MOL0     H29573   4.051   8.980   2.343  0.1417  1.1323  0.3632
  939MOL0     H29574   4.215   8.718   2.334  0.9058  0.5412  0.1422
  939MOL0     H29575   4.149   8.786   2.480  0.1121 -3.3900 -0.7289
  939MOL0     H29576   3.914   8.783   2.357 -0.4577 -0.7397 -0.0167
  939MOL0     H29577   3.992   8.621   2.368  0.9679 -0.2935 -0.3793
  939MOL0     H29578   3.953   8.637   1.970 -0.1958 -1.0127 -0.2223
  939MOL0     H29579   4.394   8.928   2.623  0.5752 -2.2005  1.4210
  939MOL0     H29580   4.677   8.883   2.833 -0.9924 -1.6234  0.9238
  939MOL0     H29581   4.604   9.050   2.814 -0.4523 -0.9520  1.6730
  939MOL0     H29582   4.501   8.916   2.825  1.4211 -0.5658  1.8926
  940MOL0     O29583  10.144   9.876   6.550  0.0404  0.1296 -0.3038
  940MOL0     C29584  10.064   9.784   6.547 -0.2157 -0.3147 -0.1036
  940MOL0     O29585  10.100   9.656   6.523  0.0420  0.3097  0.3075
  940MOL0     C29586  10.229   9.617   6.554  0.2499 -0.0442  0.9495
  940MOL0     C29587  10.293   9.626   6.676  0.0122 -0.0681 -0.7708
  940MOL0     C29588  10.423   9.579   6.697  1.1479  0.0424  0.3050
  940MOL0     C29589  10.497   9.524   6.590 -0.1958  0.3886  0.0451
  940MOL0     O29590  10.616   9.460   6.593  0.4156 -0.4337 -0.7434
  940MOL0     C29591  10.703   9.500   6.700 -0.4308 -0.8146  0.6241
  940MOL0     C29592  10.842   9.445   6.657 -0.0525 -0.3210  0.8974
  940MOL0     C29593  10.912   9.545   6.550 -0.8247  0.2610  0.3122
  940MOL0     C29594  11.065   9.509   6.529 -1.1159  0.1838  0.1972
  940MOL0     C29595  11.158   9.580   6.630  0.1021 -0.3552  1.6975
  940MOL0     C29596  11.185   9.727   6.592  0.2519 -0.3878 -0.5028
  940MOL0     C29597  11.321   9.780   6.647 -0.3382  0.6664  0.5060
  940MOL0     C29598  11.343   9.781   6.798  1.1311 -0.1971  0.8872
  940MOL0     N29599  11.476   9.816   6.844 -0.4558  0.4932 -0.0427
  940MOL0     C29600  11.575   9.718   6.838 -0.2872 -0.0419  0.1486
  940MOL0     C29601  11.681   9.792   6.886 -0.1814 -0.8461  0.2703
  940MOL0     C29602  11.823   9.741   6.890  0.4978 -0.5344 -0.7655
  940MOL0     C29603  11.896   9.795   6.770 -0.0646  0.1297  0.3749
  940MOL0     C29604  12.051   9.778   6.773 -0.2619 -0.7496 -0.9921
  940MOL0     C29605  12.102   9.789   6.634 -0.3684  0.6536 -0.2671
  940MOL0     O29606  12.244   9.808   6.633  0.1025 -0.0762 -0.6590
  940MOL0     C29607  12.303   9.816   6.507  0.5018 -0.1530 -0.2105
  940MOL0     C29608  12.235   9.825   6.387  0.5804 -0.1248 -0.2050
  940MOL0     C29609  12.290   9.836   6.263 -0.2766  0.4029 -0.6138
  940MOL0     C29610  12.196   9.841   6.146  0.2823  0.6243 -0.7539
  940MOL0     C29611  12.434   9.838   6.253 -0.7221 -0.2774 -0.6128
  940MOL0     C29612  12.506   9.824   6.129  0.6859  0.3984 -0.3845
  940MOL0     O29613  12.636   9.789   6.134 -0.0032 -0.1995  0.2370
  940MOL0     C29614  12.707   9.785   6.015  0.8351 -0.2185 -0.4623
  940MOL0     C29615  12.770   9.664   5.972  0.3158  0.1450  0.3877
  940MOL0     C29616  12.854   9.660   5.858  0.4053  0.1744 -1.1868
  940MOL0     C29617  12.868   9.776   5.780  0.1105 -0.1759  0.4819
  940MOL0     O29618  12.952   9.786   5.668 -0.0144  0.1133 -0.3651
  940MOL0     C29619  13.005   9.664   5.620 -0.3126 -0.8381 -0.3371
  940MOL0     C29620  13.110   9.695   5.517  0.2702 -0.6174  0.1300
  940MOL0     C29621  13.055   9.767   5.390  0.1617 -0.1810  0.1741
  940MOL0     C29622  12.972   9.664   5.310  0.1537  0.5638 -0.1706
  940MOL0     C29623  12.975   9.699   5.159 -0.6952 -0.0305  1.0783
  940MOL0     C29624  12.855   9.643   5.081  0.8937  0.0673  0.1703
  940MOL0     C29625  12.863   9.695   4.936 -0.1260 -0.2454 -0.0669
  940MOL0     C29626  12.802   9.604   4.831 -0.4664 -0.9939 -0.1873
  940MOL0    Cl29627  12.795   9.695   4.684  0.5644 -0.0657 -0.6410
  940MOL0     C29628  12.813   9.896   5.829  0.2306 -0.9657  0.5459
  940MOL0     C29629  12.731   9.903   5.941  0.4313 -0.1132 -0.0208
  940MOL0     O29630  12.448   9.848   6.027 -0.0078 -0.5178 -0.1662
  940MOL0     C29631  12.506   9.823   6.377 -0.2847  0.0528  0.2435
  940MOL0     C29632  12.438   9.809   6.499 -0.8328 -0.6031  1.1170
  940MOL0     N29633  11.646   9.920   6.916  0.0134 -0.5977  0.2265
  940MOL0     N29634  11.522   9.932   6.895  0.3538  0.3741 -0.0554
  940MOL0     C29635  10.438   9.543   6.464  0.1197 -0.2868  0.4994
  940MOL0     C29636  10.303   9.584   6.439 -0.3037 -0.4892 -0.1448
  940MOL0     C29637   9.917   9.809   6.570 -0.2543  0.3479 -0.3015
  940MOL0     C29638   9.831   9.704   6.589  0.3481 -0.3925 -0.1270
  940MOL0     C29639   9.702   9.714   6.623 -0.0304  0.4125  0.1562
  940MOL0     C29640   9.646   9.846   6.642 -0.3121  0.7360  0.3164
  940MOL0     O29641   9.521   9.873   6.682  0.9721  0.6375  0.5909
  940MOL0     C29642   9.434   9.771   6.725  0.5349  0.2094  0.7303
  940MOL0     C29643   9.301   9.846   6.758 -0.3924 -0.0589 -0.1657
  940MOL0     C29644   9.251   9.929   6.642  0.0457 -0.7967 -0.0565
  940MOL0     C29645   9.136  10.026   6.690 -0.6300  0.2267  1.4062
  940MOL0     C29646   9.014   9.974   6.751  0.6661 -0.3903  0.0911
  940MOL0     C29647   8.907   9.930   6.799  0.3711 -0.2072 -0.0347
  940MOL0     C29648   9.715   9.953   6.621 -0.8227 -0.3168  0.0434
  940MOL0     C29649   9.853   9.941   6.581  0.0352  1.1571  0.1992
  940MOL0     C29650   9.926  10.059   6.542  0.0870 -0.4222  0.0372
  940MOL0     H29651  10.245   9.671   6.763 -2.0673 -2.0322 -0.8036
  940MOL0     H29652  10.451   9.577   6.802  2.7122  0.7603 -0.0632
  940MOL0     H29653  10.676   9.459   6.797  1.4753 -0.4814  1.3410
  940MOL0     H29654  10.711   9.609   6.706 -3.6670 -0.4604 -0.0011
  940MOL0     H29655  10.897   9.437   6.751  1.6898  1.9301  0.1732
  940MOL0     H29656  10.842   9.354   6.597  3.9128 -0.1921  0.4408
  940MOL0     H29657  10.857   9.537   6.456 -0.1560 -2.3877  0.0765
  940MOL0     H29658  10.908   9.645   6.594 -2.0881 -0.8335  2.8961
  940MOL0     H29659  11.069   9.401   6.546  1.7849  0.4209  1.5536
  940MOL0     H29660  11.084   9.536   6.425 -4.2882  0.6987 -0.3678
  940MOL0     H29661  11.252   9.525   6.625 -0.1965 -0.7549 -0.1692
  940MOL0     H29662  11.125   9.564   6.733 -3.0355  1.0515  1.0341
  940MOL0     H29663  11.179   9.739   6.484 -2.6707 -2.6538 -0.7167
  940MOL0     H29664  11.102   9.786   6.630 -1.0376 -1.0776 -2.1302
  940MOL0     H29665  11.341   9.875   6.597  2.6570 -1.0193 -1.8385
  940MOL0     H29666  11.398   9.719   6.600 -1.4766  1.7402 -3.1054
  940MOL0     H29667  11.270   9.850   6.841  1.5971 -0.8326  2.7787
  940MOL0     H29668  11.324   9.678   6.829 -2.0256 -0.5318 -1.6428
  940MOL0     H29669  11.582   9.617   6.799  0.6807 -0.0240  0.2533
  940MOL0     H29670  11.828   9.632   6.900 -0.9767 -0.7083 -1.6528
  940MOL0     H29671  11.880   9.785   6.972  0.2800 -0.8863 -0.4180
  940MOL0     H29672  11.850   9.741   6.687 -0.0574  0.9400 -0.1726
  940MOL0     H29673  11.871   9.900   6.755  0.2130  0.1777  0.2397
  940MOL0     H29674  12.094   9.854   6.839 -1.6763 -1.8200  1.3123
  940MOL0     H29675  12.085   9.686   6.821 -2.6540 -0.5804  1.2839
  940MOL0     H29676  12.086   9.697   6.579  0.2966  2.3119 -3.5034
  940MOL0     H29677  12.049   9.865   6.576 -1.3478  0.3669  0.2337
  940MOL0     H29678  12.127   9.819   6.396  0.7512 -2.1273  1.0273
  940MOL0     H29679  12.188   9.749   6.088 -0.0101  0.7041 -0.8423
  940MOL0     H29680  12.222   9.913   6.068  0.3200  0.0372 -1.2895
  940MOL0     H29681  12.099   9.867   6.190  0.3185 -2.4462  1.4462
  940MOL0     H29682  12.751   9.571   6.025  0.2921  0.2761  0.6073
  940MOL0     H29683  12.898   9.564   5.833 -0.1662 -0.1625 -0.9182
  940MOL0     H29684  13.059   9.612   5.699 -1.5281  2.2016  2.7719
  940MOL0     H29685  12.923   9.599   5.586 -1.3424 -0.6953  1.7383
  940MOL0     H29686  13.185   9.765   5.554  1.5296 -1.0500 -1.4990
  940MOL0     H29687  13.155   9.603   5.478 -1.1142 -0.9558 -0.7434
  940MOL0     H29688  13.139   9.808   5.333 -1.3123  4.8796  1.1429
  940MOL0     H29689  12.994   9.852   5.425 -0.1622 -0.6128  0.6814
  940MOL0     H29690  12.871   9.662   5.352  0.3395  1.8719  0.3944
  940MOL0     H29691  13.000   9.558   5.313 -2.6696 -0.2687  2.8064
  940MOL0     H29692  12.984   9.808   5.151  3.6698 -0.1513  1.9098
  940MOL0     H29693  13.064   9.653   5.117 -2.9357 -2.4838 -1.3757
  940MOL0     H29694  12.763   9.672   5.132  0.7666 -0.9597  0.5515
  940MOL0     H29695  12.859   9.534   5.072 -1.6687  0.0618 -4.8484
  940MOL0     H29696  12.971   9.702   4.919 -0.3916 -1.3070 -2.5995
  940MOL0     H29697  12.810   9.790   4.940 -1.7088 -1.0683 -0.4977
  940MOL0     H29698  12.700   9.575   4.859 -0.4445 -0.2259  0.7536
  940MOL0     H29699  12.870   9.521   4.812  2.5924  0.7059  2.3703
  940MOL0     H29700  12.828   9.987   5.772  0.2107  0.2150  2.3736
  940MOL0     H29701  12.678   9.996   5.954  1.5479  0.9025 -2.2066
  940MOL0     H29702  12.614   9.829   6.383 -0.1182 -1.2556 -1.0949
  940MOL0     H29703  12.496   9.801   6.590 -0.5882 -0.3155  0.9872
  940MOL0     H29704  10.496   9.524   6.375  0.9003 -0.2618  0.9942
  940MOL0     H29705  10.265   9.575   6.338 -2.1534 -2.9130  0.6793
  940MOL0     H29706   9.870   9.603   6.583 -0.7042 -0.7488 -1.5619
  940MOL0     H29707   9.643   9.626   6.647 -0.3446  0.9508  1.4258
  940MOL0     H29708   9.417   9.709   6.636  0.1932 -1.8927  2.1999
  940MOL0     H29709   9.465   9.715   6.813  1.8771 -1.9020 -0.9724
  940MOL0     H29710   9.319   9.903   6.850 -0.8411  0.7267 -0.5500
  940MOL0     H29711   9.220   9.781   6.792 -0.7528  0.7902  0.6549
  940MOL0     H29712   9.326  10.002   6.611 -1.0876 -0.0931 -1.2666
  940MOL0     H29713   9.223   9.862   6.560  3.2052 -0.2729 -1.7258
  940MOL0     H29714   9.105  10.080   6.599 -1.2468  1.2459  2.1973
  940MOL0     H29715   9.183  10.108   6.745  2.4960 -0.3264 -0.2199
  940MOL0     H29716   8.810   9.901   6.832  0.3292 -1.5213 -1.2295
  940MOL0     H29717   9.667  10.050   6.627 -2.6209 -0.7337 -4.3073
  940MOL0     H29718   9.967  10.049   6.441 -0.6460 -0.3391 -0.2734
  940MOL0     H29719   9.859  10.145   6.535 -2.9424 -2.5023  1.5002
  940MOL0     H29720  10.001  10.076   6.620 -1.4294  2.0960  1.0474
  941MOL0     O29721   5.351   6.726   2.656  0.2154  0.6216 -0.0844
  941MOL0     C29722   5.272   6.718   2.753  0.4663  0.3176 -0.4460
  941MOL0     O29723   5.246   6.605   2.829  0.4635  0.5497 -0.3513
  941MOL0     C29724   5.328   6.494   2.801 -0.0742  0.3310  0.7235
  941MOL0     C29725   5.300   6.404   2.696  0.1695  0.6147  0.0650
  941MOL0     C29726   5.377   6.290   2.676  0.6989  0.5865  0.0675
  941MOL0     C29727   5.489   6.269   2.756 -0.5556  0.2840  0.2613
  941MOL0     O29728   5.566   6.158   2.735  0.3649  0.0343  0.0532
  941MOL0     C29729   5.583   6.120   2.591  0.1189 -0.4570  1.0325
  941MOL0     C29730   5.668   5.995   2.564 -0.0999  0.3962  0.1966
  941MOL0     C29731   5.787   5.984   2.657  0.7554  0.2478  0.6770
  941MOL0     C29732   5.875   5.874   2.619 -0.1121 -0.5517  0.3889
  941MOL0     C29733   5.981   5.847   2.730 -0.6305 -0.5710  0.5909
  941MOL0     C29734   6.089   5.761   2.678  0.0552  0.1973  0.4741
  941MOL0     C29735   6.098   5.634   2.758  0.1911  1.0484 -0.2160
  941MOL0     C29736   6.203   5.538   2.703  0.3060  0.1922 -0.2934
  941MOL0     N29737   6.330   5.611   2.707  1.0408  0.2040 -0.3108
  941MOL0     C29738   6.384   5.667   2.827  0.5855  0.1378  0.8054
  941MOL0     C29739   6.507   5.708   2.790 -1.1684 -0.6495  0.1195
  941MOL0     C29740   6.606   5.769   2.888  1.0068  0.0617 -0.1845
  941MOL0     C29741   6.745   5.733   2.841 -0.4815 -0.0504  0.9460
  941MOL0     C29742   6.855   5.790   2.929  1.6501  0.2846 -0.0169
  941MOL0     C29743   6.991   5.775   2.860 -1.0893  0.0256 -0.1344
  941MOL0     O29744   7.027   5.634   2.871  0.1022 -0.1834  0.1949
  941MOL0     C29745   7.163   5.604   2.858  0.1039  0.1131  1.7024
  941MOL0     C29746   7.196   5.470   2.876  0.0879 -0.4972  0.1521
  941MOL0     C29747   7.332   5.431   2.851 -0.2201 -0.5971 -0.0688
  941MOL0     C29748   7.358   5.284   2.892  0.4157 -0.9799 -0.8264
  941MOL0     C29749   7.432   5.518   2.800 -0.7649 -0.2489  0.4016
  941MOL0     C29750   7.558   5.467   2.761 -0.3525 -0.4724 -0.0171
  941MOL0     O29751   7.641   5.565   2.720  0.2815 -0.1584  0.6623
  941MOL0     C29752   7.773   5.546   2.706  0.6259  0.4955  0.1944
  941MOL0     C29753   7.857   5.454   2.771 -0.4482  0.1584 -0.6581
  941MOL0     C29754   7.997   5.443   2.736  0.1559  0.2036  0.3565
  941MOL0     C29755   8.056   5.509   2.638  0.6764 -0.3798 -0.1075
  941MOL0     O29756   8.192   5.490   2.618  0.2534 -0.7527  0.3177
  941MOL0     C29757   8.249   5.552   2.503 -0.6242  0.2597 -0.4893
  941MOL0     C29758   8.393   5.491   2.494 -0.1975 -0.3836 -0.7025
  941MOL0     C29759   8.478   5.572   2.386  0.8258  0.0734  0.3560
  941MOL0     C29760   8.601   5.492   2.350 -0.2269  0.3343  0.7189
  941MOL0     C29761   8.688   5.591   2.271 -0.5112 -0.5981  0.0301
  941MOL0     C29762   8.795   5.512   2.201 -0.6958  0.3836 -0.1706
  941MOL0     C29763   8.849   5.599   2.078 -0.2719  0.1177  1.0290
  941MOL0     C29764   8.984   5.543   2.025 -0.5129 -0.5046 -0.7193
  941MOL0    Cl29765   9.093   5.500   2.160  0.1891 -0.0503 -0.2992
  941MOL0     C29766   7.972   5.605   2.573 -0.5034 -0.7054  0.1493
  941MOL0     C29767   7.836   5.614   2.607  0.7852  0.7988 -0.5749
  941MOL0     O29768   7.585   5.347   2.765  0.2568 -0.5051  0.0508
  941MOL0     C29769   7.389   5.654   2.767 -0.5505 -0.0102 -0.7550
  941MOL0     C29770   7.261   5.694   2.806  0.1684  0.5333 -0.6440
  941MOL0     N29771   6.517   5.682   2.656 -0.6581  0.5957  0.1067
  941MOL0     N29772   6.417   5.623   2.604 -0.5776 -0.5532  0.1068
  941MOL0     C29773   5.524   6.362   2.852 -0.6824  0.3198 -0.3488
  941MOL0     C29774   5.445   6.473   2.872  0.3356  0.2166  0.6654
  941MOL0     C29775   5.194   6.845   2.795 -0.0979 -0.1467  0.6538
  941MOL0     C29776   5.157   6.863   2.926  0.1571 -0.9549 -0.0768
  941MOL0     C29777   5.081   6.981   2.961 -0.6059 -0.2268 -0.2786
  941MOL0     C29778   5.037   7.072   2.865 -0.5403 -0.6416  0.4641
  941MOL0     O29779   4.957   7.171   2.912 -0.2666 -0.7987 -0.3270
  941MOL0     C29780   4.861   7.238   2.831 -0.8609  0.7260  1.3144
  941MOL0     C29781   4.732   7.258   2.901 -0.2385 -0.6927 -0.3719
  941MOL0     C29782   4.644   7.142   2.891  0.3086  0.3212  0.4747
  941MOL0     C29783   4.506   7.155   2.972  0.8331 -0.2765  0.6423
  941MOL0     C29784   4.445   7.284   2.930 -0.5541  0.1587 -0.5775
  941MOL0     C29785   4.388   7.390   2.911  0.1737 -0.9531 -0.5295
  941MOL0     C29786   5.083   7.059   2.735  0.3853  0.7614  0.5805
  941MOL0     C29787   5.162   6.954   2.695  0.2383  0.4096  0.6421
  941MOL0     C29788   5.213   6.945   2.550  0.2258  0.0963 -0.2017
  941MOL0     H29789   5.206   6.420   2.644  0.8124 -0.3099 -1.4570
  941MOL0     H29790   5.351   6.214   2.603  0.1655 -0.3750  1.2210
  941MOL0     H29791   5.632   6.208   2.547 -1.3062  0.5796  1.4078
  941MOL0     H29792   5.489   6.094   2.541 -0.9443  0.4779  2.4442
  941MOL0     H29793   5.602   5.911   2.588 -0.1167  0.0379 -1.0386
  941MOL0     H29794   5.697   6.001   2.459  1.9878  1.3025  0.7714
  941MOL0     H29795   5.828   6.085   2.667  0.5795  0.5145 -1.0726
  941MOL0     H29796   5.751   5.950   2.755  2.2932  2.5517  2.1458
  941MOL0     H29797   5.819   5.782   2.603 -0.3329  0.0305 -2.7872
  941MOL0     H29798   5.935   5.904   2.532 -0.2911  0.4775  0.6067
  941MOL0     H29799   5.942   5.801   2.821  1.2269  1.6650  2.6341
  941MOL0     H29800   6.025   5.940   2.766  0.4818 -0.5454 -0.7692
  941MOL0     H29801   6.084   5.731   2.573  0.3594 -0.2422  0.5826
  941MOL0     H29802   6.184   5.814   2.687  0.2835 -0.2377  0.7047
  941MOL0     H29803   6.002   5.584   2.748 -0.9414  3.2401 -1.0041
  941MOL0     H29804   6.122   5.651   2.863 -0.4173 -1.5969  0.4229
  941MOL0     H29805   6.203   5.462   2.781  0.5121  1.3024  0.8238
  941MOL0     H29806   6.178   5.484   2.611  3.4610  0.2045 -1.2914
  941MOL0     H29807   6.348   5.666   2.929 -2.4666 -0.4123 -0.1553
  941MOL0     H29808   6.584   5.727   2.986 -1.7762  2.6359  0.4346
  941MOL0     H29809   6.591   5.877   2.893 -1.8971 -0.2914  0.7203
  941MOL0     H29810   6.745   5.625   2.828 -0.0659  0.0415  0.0672
  941MOL0     H29811   6.751   5.791   2.748  1.3203 -2.5706 -0.6541
  941MOL0     H29812   6.839   5.895   2.952 -2.9570 -0.4993  1.2839
  941MOL0     H29813   6.855   5.740   3.027 -4.2539  1.6448  1.0351
  941MOL0     H29814   6.989   5.801   2.754 -1.3722  2.4243  0.4068
  941MOL0     H29815   7.047   5.850   2.916  0.0749 -0.0733 -1.1208
  941MOL0     H29816   7.120   5.406   2.919 -1.1702 -0.2876 -1.6281
  941MOL0     H29817   7.449   5.269   2.951 -0.3138 -0.0923  0.5843
  941MOL0     H29818   7.341   5.211   2.812 -0.6091  1.5608 -3.0715
  941MOL0     H29819   7.281   5.253   2.963  3.4320 -1.1106  2.7036
  941MOL0     H29820   7.829   5.398   2.859  2.6784 -0.7794 -0.1226
  941MOL0     H29821   8.052   5.359   2.777  0.3682 -0.2210 -0.7694
  941MOL0     H29822   8.199   5.520   2.411 -1.3043  1.5811 -0.5897
  941MOL0     H29823   8.253   5.661   2.504 -1.2217  0.2941  0.8149
  941MOL0     H29824   8.432   5.506   2.595 -0.4755 -3.3624 -0.0636
  941MOL0     H29825   8.379   5.386   2.465  3.6733 -1.3708  0.3254
  941MOL0     H29826   8.499   5.671   2.430 -0.7055  0.1008  1.1239
  941MOL0     H29827   8.410   5.589   2.302 -2.0060 -0.5020  2.3532
  941MOL0     H29828   8.573   5.401   2.297 -1.0880  0.9220  0.1492
  941MOL0     H29829   8.645   5.461   2.445 -1.0622  2.9052  2.0299
  941MOL0     H29830   8.625   5.638   2.195  1.2040  1.9703  0.0772
  941MOL0     H29831   8.721   5.678   2.328 -0.5413  1.1086 -2.4236
  941MOL0     H29832   8.760   5.412   2.177 -0.6453  0.2372  0.3486
  941MOL0     H29833   8.866   5.494   2.283 -2.4037  1.0961  1.5505
  941MOL0     H29834   8.874   5.701   2.106 -3.2991  1.0230  0.7563
  941MOL0     H29835   8.782   5.613   1.993  0.8273  1.0177  0.2871
  941MOL0     H29836   9.030   5.622   1.965 -0.5326  0.5933  0.6473
  941MOL0     H29837   8.963   5.457   1.961  0.3055  0.3048 -2.1220
  941MOL0     H29838   8.026   5.650   2.490 -0.3388  0.4768  0.8685
  941MOL0     H29839   7.777   5.677   2.540  1.9760  3.4609  0.7368
  941MOL0     H29840   7.465   5.719   2.723  1.0809 -2.3958 -1.6684
  941MOL0     H29841   7.242   5.801   2.803  3.1215  1.3869  3.1183
  941MOL0     H29842   5.606   6.357   2.923 -1.9687  1.1802  1.2611
  941MOL0     H29843   5.483   6.547   2.941 -0.6404  2.0177 -0.6364
  941MOL0     H29844   5.193   6.796   3.003  3.6475  2.1909  1.3180
  941MOL0     H29845   5.060   6.990   3.068  0.7083 -1.4428  0.1145
  941MOL0     H29846   4.899   7.339   2.819 -1.2770  0.6654 -1.0833
  941MOL0     H29847   4.848   7.184   2.736  0.7045  3.1814 -0.3977
  941MOL0     H29848   4.691   7.344   2.847 -1.7275 -1.3198 -0.2858
  941MOL0     H29849   4.757   7.291   3.003 -1.0546  3.9761 -1.4491
  941MOL0     H29850   4.611   7.126   2.788  0.2281  2.7015  0.0858
  941MOL0     H29851   4.702   7.058   2.929  0.4833  0.3671  0.3115
  941MOL0     H29852   4.517   7.170   3.080 -3.3385 -1.6779  1.4614
  941MOL0     H29853   4.437   7.073   2.951 -0.3780  0.9026 -0.1827
  941MOL0     H29854   4.322   7.472   2.890 -1.9353 -2.9529 -2.2986
  941MOL0     H29855   5.058   7.125   2.652 -0.2785 -1.3093 -0.9373
  941MOL0     H29856   5.171   7.029   2.494 -3.1620  0.8793  3.0949
  941MOL0     H29857   5.322   6.938   2.545  0.2065 -0.8531  0.4695
  941MOL0     H29858   5.178   6.857   2.494 -1.6995  0.6471  0.0708
  942MOL0     O29859  10.941   4.790   6.463 -0.7054  0.3111 -0.8723
  942MOL0     C29860  10.928   4.687   6.520  0.7047  0.9924  0.5150
  942MOL0     O29861  11.017   4.642   6.613  0.2556 -0.1842  0.1049
  942MOL0     C29862  11.122   4.720   6.652 -0.9739 -0.0694  0.2722
  942MOL0     C29863  11.233   4.733   6.566  0.3123  0.6635  0.6487
  942MOL0     C29864  11.355   4.790   6.606 -0.1859 -0.0749  0.0399
  942MOL0     C29865  11.362   4.851   6.735 -0.9227 -0.0044 -0.2151
  942MOL0     O29866  11.474   4.927   6.764 -0.1193  0.4639 -0.4905
  942MOL0     C29867  11.589   4.841   6.775 -0.1129  1.0574 -0.3172
  942MOL0     C29868  11.709   4.931   6.803  0.2957  0.1267 -0.8048
  942MOL0     C29869  11.728   4.968   6.952 -0.2856  0.3016 -0.0703
  942MOL0     C29870  11.847   5.064   6.963 -1.5277 -0.4068 -0.0797
  942MOL0     C29871  11.870   5.118   7.105  0.0698 -0.0376 -0.8780
  942MOL0     C29872  11.980   5.221   7.099  0.3599 -0.3163 -0.2150
  942MOL0     C29873  12.011   5.284   7.237 -0.0954 -0.6744  0.4175
  942MOL0     C29874  12.058   5.424   7.226  0.8287 -0.2365 -0.3421
  942MOL0     N29875  12.176   5.426   7.140  0.2600 -0.0525 -0.3351
  942MOL0     C29876  12.303   5.388   7.162  0.1576  0.7793 -0.1913
  942MOL0     C29877  12.360   5.375   7.040  0.3630 -0.0530 -0.1183
  942MOL0     C29878  12.493   5.307   7.008  0.2443 -0.2509 -0.8012
  942MOL0     C29879  12.552   5.360   6.884  0.5355 -0.7527  0.7332
  942MOL0     C29880  12.681   5.292   6.852 -0.8978  0.7945 -0.0866
  942MOL0     C29881  12.796   5.373   6.893 -0.4098 -0.0842  0.0157
  942MOL0     O29882  12.802   5.397   7.040 -0.1165  0.0656  0.1595
  942MOL0     C29883  12.901   5.472   7.095 -0.0381  0.1336  0.3330
  942MOL0     C29884  12.884   5.504   7.225 -0.5868  0.6226  0.4588
  942MOL0     C29885  12.977   5.587   7.297 -0.4054 -0.5841  0.0741
  942MOL0     C29886  12.950   5.618   7.441  0.1824 -0.6486 -0.3398
  942MOL0     C29887  13.095   5.640   7.220  0.2553 -0.8363 -0.3012
  942MOL0     C29888  13.205   5.736   7.265 -0.0413 -0.2751  0.2403
  942MOL0     O29889  13.333   5.730   7.203 -0.2786 -0.0510  0.4085
  942MOL0     C29890  13.436   5.815   7.239 -0.2530  0.1136 -0.1631
  942MOL0     C29891  13.456   5.861   7.373 -0.3140  0.3209  0.3497
  942MOL0     C29892  13.566   5.952   7.405  0.0219  0.1762  0.1377
  942MOL0     C29893  13.659   5.977   7.300  0.3155  0.0676 -0.2441
  942MOL0     O29894  13.764   6.064   7.317  0.3332 -0.0444  0.1139
  942MOL0     C29895  13.835   6.060   7.443 -0.1627 -0.6156 -0.0399
  942MOL0     C29896  13.977   6.108   7.417 -0.5836 -0.2563 -0.1368
  942MOL0     C29897  14.063   6.096   7.546 -0.2534  0.1319  0.3157
  942MOL0     C29898  14.085   6.237   7.608 -0.3869 -0.3226 -0.8518
  942MOL0     C29899  14.191   6.233   7.719 -1.0088 -0.3074 -0.3692
  942MOL0     C29900  14.213   6.372   7.783 -0.1559  0.0371 -0.1895
  942MOL0     C29901  14.330   6.367   7.881  1.2149 -0.5090 -0.5893
  942MOL0     C29902  14.347   6.499   7.955 -0.0818 -0.2663  0.3123
  942MOL0    Cl29903  14.377   6.636   7.836  0.3137 -0.1461 -0.1843
  942MOL0     C29904  13.639   5.927   7.183  0.2560 -0.4056  0.4298
  942MOL0     C29905  13.532   5.845   7.139 -0.4089 -0.5381  0.5372
  942MOL0     O29906  13.180   5.811   7.355  0.4544  0.2469  0.0346
  942MOL0     C29907  13.099   5.598   7.088  0.0803 -0.5317 -0.0016
  942MOL0     C29908  13.009   5.519   7.027 -0.6433  0.2509  0.0534
  942MOL0     N29909  12.273   5.419   6.945 -0.4416  0.5987  0.1315
  942MOL0     N29910  12.165   5.455   7.008  0.3066 -0.0669  0.2738
  942MOL0     C29911  11.249   4.851   6.822  0.2905 -0.2562  0.4582
  942MOL0     C29912  11.133   4.789   6.777 -0.5914  0.2670 -0.3318
  942MOL0     C29913  10.819   4.594   6.486 -0.0482 -0.4367  0.5674
  942MOL0     C29914  10.801   4.476   6.556  0.6077  0.1385  0.3447
  942MOL0     C29915  10.706   4.379   6.520 -0.1468 -0.7352 -0.0028
  942MOL0     C29916  10.621   4.399   6.412  0.2063  0.0926 -0.0392
  942MOL0     O29917  10.535   4.295   6.374  0.2756  0.2514  0.3863
  942MOL0     C29918  10.395   4.323   6.384  0.7145  0.6193 -0.4504
  942MOL0     C29919  10.310   4.212   6.444 -0.3207  0.9763  0.5862
  942MOL0     C29920  10.161   4.244   6.489 -0.3708  0.2312  0.4697
  942MOL0     C29921  10.139   4.361   6.593  0.4657  0.8677 -0.0757
  942MOL0     C29922  10.209   4.333   6.713  0.3052 -0.9257  0.0168
  942MOL0     C29923  10.261   4.303   6.816  0.2307  0.1577  0.1307
  942MOL0     C29924  10.637   4.516   6.338 -0.1258 -0.1949 -0.2714
  942MOL0     C29925  10.742   4.610   6.369  0.0915 -0.0595 -0.1339
  942MOL0     C29926  10.756   4.724   6.268 -0.0534  0.1452  0.7951
  942MOL0     H29927  11.215   4.682   6.471 -1.2721  1.8556  0.2688
  942MOL0     H29928  11.433   4.787   6.530 -2.6046  1.7037 -2.7626
  942MOL0     H29929  11.616   4.792   6.681  0.3969  0.5001  0.1093
  942MOL0     H29930  11.573   4.765   6.852  5.7960  0.5871  0.9105
  942MOL0     H29931  11.796   4.886   6.753  1.0340  2.8141 -2.1035
  942MOL0     H29932  11.698   5.021   6.743 -0.0365  1.5215  1.2548
  942MOL0     H29933  11.635   5.005   6.995 -1.4967  0.6561 -2.7416
  942MOL0     H29934  11.759   4.878   7.005 -0.7851  0.7308  0.9741
  942MOL0     H29935  11.939   5.014   6.930 -1.4925 -1.7113  1.7915
  942MOL0     H29936  11.831   5.147   6.895  1.4474  1.0531  0.8067
  942MOL0     H29937  11.911   5.044   7.175 -0.0910  0.4508 -0.2543
  942MOL0     H29938  11.772   5.150   7.141  0.4810  2.6376 -1.9209
  942MOL0     H29939  12.066   5.172   7.051 -0.5448 -1.2608 -0.9292
  942MOL0     H29940  11.938   5.299   7.035  1.0391 -0.1517 -0.4740
  942MOL0     H29941  12.090   5.229   7.287  1.7459  3.0073  1.9517
  942MOL0     H29942  11.919   5.279   7.297  1.3469 -0.3854  2.7472
  942MOL0     H29943  11.987   5.487   7.172  1.3362 -1.1969 -2.2269
  942MOL0     H29944  12.074   5.467   7.326  3.4802  1.1369 -1.2424
  942MOL0     H29945  12.345   5.365   7.259  0.2903 -1.1900 -0.6700
  942MOL0     H29946  12.487   5.198   7.001 -0.5146 -0.5284  2.3661
  942MOL0     H29947  12.551   5.332   7.097 -0.7368 -3.3767  0.8494
  942MOL0     H29948  12.479   5.341   6.805 -0.8421 -0.1307  1.8094
  942MOL0     H29949  12.563   5.469   6.890  0.7044 -0.7649  0.6498
  942MOL0     H29950  12.677   5.199   6.909 -0.1267  1.0695  0.4277
  942MOL0     H29951  12.689   5.263   6.747  2.3549 -0.6623  0.4439
  942MOL0     H29952  12.886   5.319   6.866  0.3255  1.6485 -1.2135
  942MOL0     H29953  12.792   5.476   6.854 -0.2936  1.4176  3.5651
  942MOL0     H29954  12.795   5.469   7.277  0.8237 -0.4461  2.2387
  942MOL0     H29955  13.001   5.549   7.508  2.8766  0.9123 -0.6459
  942MOL0     H29956  12.841   5.621   7.452  0.0395 -1.9370 -1.2185
  942MOL0     H29957  12.989   5.720   7.452 -0.4696 -0.3182 -0.9597
  942MOL0     H29958  13.385   5.829   7.448 -0.8017  1.3348  0.3385
  942MOL0     H29959  13.573   6.002   7.502 -0.7386 -0.5367  0.5745
  942MOL0     H29960  13.796   6.137   7.510 -0.8471  1.6837 -2.8315
  942MOL0     H29961  13.841   5.961   7.488 -1.3095 -0.6893 -0.0034
  942MOL0     H29962  14.013   6.033   7.345  0.6642 -1.2738  1.4610
  942MOL0     H29963  13.978   6.206   7.368  2.4113  0.7734  1.6680
  942MOL0     H29964  14.157   6.060   7.504 -0.3869 -0.6979  0.7023
  942MOL0     H29965  14.039   6.018   7.619  2.4597  0.8100  2.0530
  942MOL0     H29966  13.986   6.260   7.649 -0.2972 -2.4540  0.7349
  942MOL0     H29967  14.121   6.300   7.525  0.5826 -0.0053 -0.2159
  942MOL0     H29968  14.148   6.165   7.794 -1.2958  0.8657  0.5712
  942MOL0     H29969  14.288   6.185   7.703 -0.6684 -0.8223  2.5956
  942MOL0     H29970  14.116   6.397   7.826 -1.1293  0.0896 -2.2649
  942MOL0     H29971  14.233   6.448   7.707  0.8073  1.1108  1.0963
  942MOL0     H29972  14.420   6.355   7.820  0.9746  0.3133 -1.1223
  942MOL0     H29973  14.330   6.281   7.949  1.2735 -0.3321 -0.3646
  942MOL0     H29974  14.430   6.498   8.026 -1.2763  0.4253  1.7714
  942MOL0     H29975  14.259   6.517   8.017  1.0342 -0.0883  1.9024
  942MOL0     H29976  13.720   5.950   7.115 -0.7991  1.6844 -0.1978
  942MOL0     H29977  13.538   5.798   7.041 -0.3479  1.6859 -0.5991
  942MOL0     H29978  13.181   5.631   7.025 -0.4990  0.0991 -0.4315
  942MOL0     H29979  13.020   5.495   6.921 -1.4882 -1.4068  0.2978
  942MOL0     H29980  11.255   4.901   6.918  0.2402  0.0997  0.2772
  942MOL0     H29981  11.046   4.795   6.842 -1.2066 -3.0945 -0.6240
  942MOL0     H29982  10.866   4.474   6.643  2.6133  4.0723 -0.8545
  942MOL0     H29983  10.708   4.284   6.574  0.0007 -2.1650 -2.3653
  942MOL0     H29984  10.382   4.406   6.455  1.9234 -0.4934  1.1206
  942MOL0     H29985  10.362   4.339   6.280 -0.4952 -3.9222 -0.9723
  942MOL0     H29986  10.365   4.165   6.526 -1.4435  0.7485  1.2291
  942MOL0     H29987  10.305   4.137   6.364 -0.3434  3.6422 -2.1100
  942MOL0     H29988  10.108   4.260   6.395  3.8625 -1.0622 -2.4261
  942MOL0     H29989  10.117   4.154   6.533  1.9434 -0.5805  1.3078
  942MOL0     H29990  10.032   4.377   6.608  0.3931  1.4357 -1.0375
  942MOL0     H29991  10.179   4.458   6.560  1.6541 -0.2984 -2.2488
  942MOL0     H29992  10.307   4.267   6.905  1.0256  2.4043  0.6961
  942MOL0     H29993  10.572   4.517   6.251 -1.4554 -1.4570  0.6510
  942MOL0     H29994  10.682   4.719   6.187 -0.6742  1.7223  1.2367
  942MOL0     H29995  10.730   4.814   6.324 -2.7157 -0.0566  0.0417
  942MOL0     H29996  10.852   4.732   6.215 -0.8935  0.0867 -0.8048
  943MOL0     O29997   0.752   8.325   9.575  0.1660  1.1874  0.7923
  943MOL0     C29998   0.655   8.381   9.630  0.2901 -0.0021 -0.5024
  943MOL0     O29999   0.648   8.519   9.658  0.0942 -0.1962  0.6543
  943MOL0     C30000   0.764   8.578   9.612 -0.4414 -0.1303  0.1561
  943MOL0     C30001   0.769   8.658   9.494 -0.0713  0.2728 -0.0072
  943MOL0     C30002   0.885   8.730   9.453  0.2678 -0.8938  0.4068
  943MOL0     C30003   1.001   8.714   9.526 -0.3743  0.1614  0.0810
  943MOL0     O30004   1.125   8.773   9.497  0.2607  0.2732 -0.0132
  943MOL0     C30005   1.146   8.798   9.359  0.1726 -0.5992 -0.2931
  943MOL0     C30006   1.299   8.820   9.345  0.2142  0.4217  0.2886
  943MOL0     C30007   1.357   8.815   9.200 -0.9409  0.4166  0.0508
  943MOL0     C30008   1.337   8.674   9.129 -0.7229 -0.1135 -0.4754
  943MOL0     C30009   1.412   8.692   8.996  0.8322 -0.5689  0.3342
  943MOL0     C30010   1.422   8.562   8.918  0.1335  0.2809 -0.8221
  943MOL0     C30011   1.457   8.440   9.001  0.2435 -0.1928  0.2917
  943MOL0     C30012   1.467   8.316   8.914  0.1048 -0.2949  0.3623
  943MOL0     N30013   1.471   8.197   9.010  0.1433 -0.2865  0.0506
  943MOL0     C30014   1.411   8.077   8.973 -0.5665 -0.1356 -0.4269
  943MOL0     C30015   1.421   8.000   9.078 -0.3640 -0.3794  0.5473
  943MOL0     C30016   1.361   7.859   9.091 -0.5157  0.2213 -0.8892
  943MOL0     C30017   1.448   7.754   9.156  0.7249 -0.8651 -0.9008
  943MOL0     C30018   1.450   7.774   9.313  0.1870  0.6867  0.0034
  943MOL0     C30019   1.593   7.791   9.377 -0.2828  0.6417  0.7458
  943MOL0     O30020   1.591   7.800   9.521  0.3116  0.4835  0.2021
  943MOL0     C30021   1.706   7.831   9.584  0.4046  0.2744  0.3918
  943MOL0     C30022   1.691   7.831   9.722  1.2828  0.3238 -0.2853
  943MOL0     C30023   1.799   7.842   9.805 -0.1662 -0.0242 -0.1346
  943MOL0     C30024   1.767   7.826   9.951 -0.1001  0.0639 -0.1345
  943MOL0     C30025   1.925   7.869   9.751 -0.8001 -0.1957  0.2432
  943MOL0     C30026   2.055   7.884   9.825  0.5898  1.2200 -0.2393
  943MOL0     O30027   2.169   7.872   9.756 -0.0766  0.3241 -0.1487
  943MOL0     C30028   2.292   7.870   9.811  0.8183 -0.5050  0.1170
  943MOL0     C30029   2.348   7.988   9.852 -0.1471  0.0797  0.1148
  943MOL0     C30030   2.479   7.993   9.908 -0.1935  0.4749  0.3747
  943MOL0     C30031   2.548   7.871   9.923 -0.4117 -0.2576 -0.1494
  943MOL0     O30032   2.665   7.855   9.989 -0.2866  0.5232 -0.5642
  943MOL0     C30033   2.775   7.948   9.971  0.2198  0.5692  0.0285
  943MOL0     C30034   2.873   7.885   9.872  0.4930  0.4414  0.3256
  943MOL0     C30035   2.937   7.758   9.926 -0.1909 -0.1946  0.1785
  943MOL0     C30036   3.072   7.720   9.858  0.7148 -0.3188 -0.2366
  943MOL0     C30037   3.065   7.667   9.724 -0.8148 -0.2807 -0.1648
  943MOL0     C30038   3.033   7.518   9.716 -0.1673  0.4065  0.1565
  943MOL0     C30039   3.022   7.485   9.568  0.1132 -0.1246  0.5681
  943MOL0     C30040   2.975   7.340   9.541  0.2401 -0.5144  0.0297
  943MOL0    Cl30041   3.080   7.211   9.610  0.1501  0.2657 -0.4527
  943MOL0     C30042   2.493   7.752   9.885  0.7149  0.3149  0.7120
  943MOL0     C30043   2.364   7.751   9.825  0.4993  0.2451 -0.2078
  943MOL0     O30044   2.052   7.896   9.945 -0.1340  0.2120  0.3654
  943MOL0     C30045   1.932   7.886   9.609 -0.6905 -0.3395 -0.2650
  943MOL0     C30046   1.830   7.858   9.526  0.0847 -0.6840 -0.3109
  943MOL0     N30047   1.521   8.054   9.156  0.2399  0.1875 -0.3871
  943MOL0     N30048   1.547   8.180   9.118 -0.3775 -0.3747 -0.0895
  943MOL0     C30049   0.994   8.631   9.642 -0.8780 -0.1073 -0.7434
  943MOL0     C30050   0.879   8.570   9.685  1.1416  0.0315  0.3867
  943MOL0     C30051   0.542   8.300   9.684 -0.4612 -0.7126 -0.0364
  943MOL0     C30052   0.461   8.360   9.788  0.4720 -0.4579  0.9856
  943MOL0     C30053   0.362   8.289   9.853  0.3092 -0.0538  0.3838
  943MOL0     C30054   0.333   8.157   9.815  0.6971 -0.4308  0.0016
  943MOL0     O30055   0.239   8.093   9.905  0.3471  0.3472  0.1597
  943MOL0     C30056   0.204   7.958   9.872 -1.0533 -0.0428  0.0458
  943MOL0     C30057   0.089   7.919   9.981  0.2103  0.0083  0.1947
  943MOL0     C30058   0.029   7.781   9.969  0.1778 -0.4093 -0.1698
  943MOL0     C30059  -0.081   7.773  10.066 -0.1794 -0.2564 -0.2498
  943MOL0     C30060  -0.145   7.632  10.063  0.5219 -0.1929 -0.6751
  943MOL0     C30061  -0.202   7.523  10.068 -0.7699 -0.3810 -0.9890
  943MOL0     C30062   0.407   8.101   9.716 -0.4997  0.4357  0.0908
  943MOL0     C30063   0.508   8.170   9.641  0.5607 -0.4208  0.4448
  943MOL0     C30064   0.564   8.092   9.517  0.0230  0.0724  0.7723
  943MOL0     H30065   0.674   8.677   9.445  0.3063 -0.6494 -1.1302
  943MOL0     H30066   0.870   8.791   9.365  0.7451 -0.3818  0.6728
  943MOL0     H30067   1.098   8.893   9.331  3.6487  0.9901 -1.4682
  943MOL0     H30068   1.111   8.720   9.290 -0.4095 -2.2060  1.7457
  943MOL0     H30069   1.327   8.915   9.391  1.3928 -1.0715  2.8949
  943MOL0     H30070   1.356   8.743   9.398  1.5524  2.5405  2.0871
  943MOL0     H30071   1.304   8.898   9.154 -2.0142 -0.0982  0.3080
  943MOL0     H30072   1.462   8.844   9.208 -0.5965 -1.1164  1.8382
  943MOL0     H30073   1.377   8.597   9.195 -3.9251 -3.2257 -1.8584
  943MOL0     H30074   1.233   8.643   9.128 -1.9443  3.4543 -2.2326
  943MOL0     H30075   1.512   8.735   9.001  0.3572  0.9347 -1.7304
  943MOL0     H30076   1.346   8.755   8.936  0.2037 -1.9401 -0.4673
  943MOL0     H30077   1.319   8.539   8.886 -0.0180  2.1417 -1.8479
  943MOL0     H30078   1.493   8.579   8.836  0.4154  0.4021 -0.5513
  943MOL0     H30079   1.382   8.422   9.078 -0.0810  0.0838  0.0423
  943MOL0     H30080   1.556   8.451   9.046 -0.0006 -0.8858  1.0156
  943MOL0     H30081   1.379   8.303   8.849  1.3565 -0.8001 -1.3163
  943MOL0     H30082   1.556   8.317   8.850  1.1006 -3.3811  1.5107
  943MOL0     H30083   1.361   8.052   8.880  1.2025  3.4290 -2.5802
  943MOL0     H30084   1.347   7.820   8.990  0.9630 -0.2926 -0.9259
  943MOL0     H30085   1.265   7.867   9.143  0.6270  2.5524  1.0518
  943MOL0     H30086   1.405   7.657   9.132 -1.8867  0.1088 -0.5678
  943MOL0     H30087   1.550   7.763   9.118  0.9971  1.5703  0.1879
  943MOL0     H30088   1.379   7.853   9.341  0.1104  0.7432 -0.3404
  943MOL0     H30089   1.406   7.683   9.355 -1.5337  1.9336  1.0528
  943MOL0     H30090   1.657   7.708   9.346  2.8053  3.1306  0.0149
  943MOL0     H30091   1.636   7.881   9.333 -1.0766  1.7941  2.2449
  943MOL0     H30092   1.594   7.807   9.763  2.1510 -0.6729  1.2668
  943MOL0     H30093   1.660   7.840   9.971  0.0078  1.2681 -0.3164
  943MOL0     H30094   1.827   7.895  10.011  0.1208 -0.6493  0.4661
  943MOL0     H30095   1.789   7.723   9.977  1.4490 -0.3736 -2.7732
  943MOL0     H30096   2.283   8.074   9.842 -0.5995 -0.2602  0.0843
  943MOL0     H30097   2.524   8.089   9.932  2.2679 -0.6273  0.5198
  943MOL0     H30098   2.748   8.045   9.929  0.5641  0.8105  0.3551
  943MOL0     H30099   2.813   7.970  10.071 -0.3133  0.6957  0.2042
  943MOL0     H30100   2.821   7.856   9.781 -1.4437  0.6204  1.3235
  943MOL0     H30101   2.952   7.954   9.841  0.1886 -0.3211 -2.3479
  943MOL0     H30102   2.871   7.674   9.904  0.9816 -0.8734 -0.9393
  943MOL0     H30103   2.943   7.771  10.034  0.4130 -0.4202  0.1778
  943MOL0     H30104   3.120   7.652   9.928  1.1020  3.2761  3.4037
  943MOL0     H30105   3.143   7.803   9.854 -1.3749  1.6159  0.6752
  943MOL0     H30106   2.994   7.726   9.665  0.7459  1.9814  0.0977
  943MOL0     H30107   3.164   7.691   9.685  0.1430 -0.1053  2.2632
  943MOL0     H30108   2.938   7.490   9.763  0.6685  1.2194  2.4589
  943MOL0     H30109   3.117   7.459   9.752  0.8939  2.0000  0.4046
  943MOL0     H30110   3.120   7.509   9.525 -0.1770  0.1541  0.0524
  943MOL0     H30111   2.950   7.548   9.516  0.5605  0.4895  0.6766
  943MOL0     H30112   2.953   7.328   9.435  0.0003 -2.3860  0.2574
  943MOL0     H30113   2.877   7.325   9.588  0.8430  0.0360  1.5231
  943MOL0     H30114   2.553   7.662   9.883 -1.6156 -1.3216 -0.0350
  943MOL0     H30115   2.314   7.660   9.793 -1.8548  0.4788  2.4935
  943MOL0     H30116   2.034   7.904   9.576 -0.4969  0.6788  0.8080
  943MOL0     H30117   1.859   7.861   9.422 -1.5629 -1.8986 -0.8490
  943MOL0     H30118   1.086   8.612   9.697 -2.8956 -0.8399  2.6944
  943MOL0     H30119   0.880   8.509   9.774 -1.7275  1.7211  1.7152
  943MOL0     H30120   0.481   8.464   9.812  0.5915  0.1470 -1.4336
  943MOL0     H30121   0.302   8.336   9.930  1.1520  2.2731 -0.2895
  943MOL0     H30122   0.179   7.953   9.766  1.8168 -1.7257 -0.6590
  943MOL0     H30123   0.299   7.904   9.881  0.5863  2.7651  0.9821
  943MOL0     H30124   0.004   7.987   9.971 -0.3428 -0.8602 -1.2084
  943MOL0     H30125   0.135   7.925  10.081  3.3745  1.4117 -1.1956
  943MOL0     H30126  -0.010   7.766   9.868 -0.5784 -2.2531  0.3460
  943MOL0     H30127   0.108   7.712   9.999  1.6189  2.9470  4.9836
  943MOL0     H30128  -0.162   7.841  10.038  1.5724  1.3427 -1.7511
  943MOL0     H30129  -0.048   7.809  10.164  0.5506  1.7042 -1.1715
  943MOL0     H30130  -0.257   7.433  10.086  0.6416 -0.8595  1.2613
  943MOL0     H30131   0.372   8.004   9.681 -0.4881  0.5453 -0.2293
  943MOL0     H30132   0.658   8.039   9.535 -0.0483 -0.1855  0.3906
  943MOL0     H30133   0.486   8.024   9.481  0.8808  0.3554 -1.8121
  943MOL0     H30134   0.582   8.161   9.434  1.4899 -0.9503  0.2067
  944MOL0     O30135   1.670   3.348   9.926 -0.4783 -0.2296 -0.9868
  944MOL0     C30136   1.565   3.334   9.995 -0.3168  0.9852  0.1069
  944MOL0     O30137   1.559   3.245  10.095  0.3523  0.5783 -0.1646
  944MOL0     C30138   1.673   3.171  10.130 -0.5488 -0.1524  0.6488
  944MOL0     C30139   1.678   3.036  10.106  0.1892  0.6042  0.6015
  944MOL0     C30140   1.793   2.974  10.150 -0.3844 -0.1385 -0.1421
  944MOL0     C30141   1.911   3.032  10.211  0.2750  0.3032  0.4307
  944MOL0     O30142   2.023   2.957  10.231 -0.5679  0.4010 -0.3059
  944MOL0     C30143   2.118   3.013  10.321  0.3699 -0.1499 -0.4398
  944MOL0     C30144   2.230   2.922  10.377 -0.2014 -0.0723  0.3910
  944MOL0     C30145   2.257   2.797  10.279 -0.8220 -0.0599  0.1848
  944MOL0     C30146   2.371   2.707  10.331 -0.4424  0.2011  0.0620
  944MOL0     C30147   2.397   2.592  10.240  0.1012  0.5123 -0.0147
  944MOL0     C30148   2.524   2.511  10.293 -0.5285  0.9293 -1.4508
  944MOL0     C30149   2.507   2.435  10.428  0.3215  0.4630  0.4458
  944MOL0     C30150   2.595   2.510  10.548 -0.1334 -0.1118  0.2103
  944MOL0     N30151   2.567   2.445  10.680 -0.8679 -0.7678  0.0411
  944MOL0     C30152   2.590   2.309  10.700 -0.0581  0.0405 -0.1191
  944MOL0     C30153   2.564   2.288  10.828  0.3363 -0.2394  0.2610
  944MOL0     C30154   2.589   2.150  10.896 -0.3764 -0.5368 -0.0006
  944MOL0     C30155   2.704   2.166  11.006  0.1638  0.5690  0.5608
  944MOL0     C30156   2.657   2.199  11.146  0.7507  0.2119 -0.9334
  944MOL0     C30157   2.771   2.226  11.248  0.4266 -0.0913 -0.7331
  944MOL0     O30158   2.861   2.320  11.201  0.1532 -0.0497  0.1146
  944MOL0     C30159   2.984   2.349  11.255  0.7235  0.6000 -0.1453
  944MOL0     C30160   3.066   2.459  11.211 -1.0235 -0.3016 -0.3183
  944MOL0     C30161   3.204   2.476  11.251  0.2518  0.1122  0.0490
  944MOL0     C30162   3.265   2.597  11.196 -0.2923 -0.0047 -0.2305
  944MOL0     C30163   3.265   2.389  11.345  0.8097  0.6005 -0.7838
  944MOL0     C30164   3.405   2.398  11.393 -0.0631  0.3069 -0.5616
  944MOL0     O30165   3.452   2.285  11.460 -0.4357 -0.1972  0.4653
  944MOL0     C30166   3.585   2.296  11.498 -0.1303  0.5274 -0.4762
  944MOL0     C30167   3.615   2.267  11.633 -0.4585 -0.2131 -0.5085
  944MOL0     C30168   3.744   2.268  11.681  0.0689 -0.1736 -0.6716
  944MOL0     C30169   3.854   2.301  11.600  0.3574 -0.4738  0.7285
  944MOL0     O30170   3.986   2.301  11.633 -0.7211 -0.8462  0.3188
  944MOL0     C30171   4.033   2.298  11.763  0.2824 -0.0183 -0.7197
  944MOL0     C30172   4.183   2.305  11.771  0.1014 -0.2749 -0.3969
  944MOL0     C30173   4.238   2.306  11.913  0.1437  0.4979  0.9340
  944MOL0     C30174   4.221   2.443  11.979  0.5144  1.1138 -0.4652
  944MOL0     C30175   4.258   2.439  12.124  1.0375 -0.6224 -0.6388
  944MOL0     C30176   4.409   2.442  12.154  0.0489  0.7216 -0.2009
  944MOL0     C30177   4.461   2.308  12.211 -0.5846 -0.2411  0.9207
  944MOL0     C30178   4.618   2.289  12.200  0.0476  0.9539  0.3814
  944MOL0    Cl30179   4.698   2.388  12.324  0.3835  0.2385  0.0727
  944MOL0     C30180   3.823   2.334  11.470  0.2313  0.3982  0.1094
  944MOL0     C30181   3.695   2.327  11.423  1.2454 -0.0678  0.2312
  944MOL0     O30182   3.459   2.510  11.383  1.0395  0.1525  0.2585
  944MOL0     C30183   3.180   2.279  11.394 -0.5825  0.3233  0.8385
  944MOL0     C30184   3.041   2.268  11.362 -0.0111  0.3874  0.6270
  944MOL0     N30185   2.506   2.407  10.877  0.3376  0.0971  0.6854
  944MOL0     N30186   2.505   2.501  10.787  0.6475  0.6784 -0.6786
  944MOL0     C30187   1.894   3.171  10.223 -0.5674  0.4379 -1.3701
  944MOL0     C30188   1.782   3.240  10.184  0.0532  0.8756 -0.2890
  944MOL0     C30189   1.451   3.431   9.968 -1.3668  0.6594 -0.0444
  944MOL0     C30190   1.474   3.513   9.854  0.1700  0.5617  0.3771
  944MOL0     C30191   1.390   3.614   9.815  1.3406 -0.5190 -0.4393
  944MOL0     C30192   1.278   3.647   9.895 -0.3327  0.2359 -0.3211
  944MOL0     O30193   1.181   3.740   9.861  0.2152  0.0259 -0.3331
  944MOL0     C30194   1.184   3.783   9.732  0.5244 -0.3936  0.0845
  944MOL0     C30195   1.077   3.888   9.716  0.3031  0.0419  1.2562
  944MOL0     C30196   0.937   3.818   9.709 -0.3898  0.4444  0.6277
  944MOL0     C30197   0.824   3.913   9.689 -0.4876 -0.6446 -0.4852
  944MOL0     C30198   0.803   4.005   9.809  0.2864  0.1937 -1.1814
  944MOL0     C30199   0.798   4.059   9.919 -0.4273 -0.0716  0.7334
  944MOL0     C30200   1.262   3.576  10.017  0.1333 -0.9253 -0.2790
  944MOL0     C30201   1.351   3.473  10.056  0.0035 -0.1856  0.4010
  944MOL0     C30202   1.325   3.399  10.186  0.3546 -0.1541 -0.2969
  944MOL0     H30203   1.593   2.999  10.050  1.7670  1.2294 -2.4392
  944MOL0     H30204   1.793   2.866  10.134 -1.6512 -0.3700  1.2395
  944MOL0     H30205   2.069   3.053  10.411 -0.3862 -0.1317 -0.8536
  944MOL0     H30206   2.160   3.095  10.264  0.6318  0.7601  1.0012
  944MOL0     H30207   2.321   2.982  10.386  0.6932 -1.3104 -0.1046
  944MOL0     H30208   2.195   2.889  10.475  1.2661  0.7323  1.2319
  944MOL0     H30209   2.168   2.734  10.283 -1.3577  0.5304 -1.4860
  944MOL0     H30210   2.275   2.829  10.175 -0.5866  1.5928  0.7056
  944MOL0     H30211   2.466   2.760  10.333 -1.5787  2.7395 -3.5066
  944MOL0     H30212   2.343   2.680  10.433  0.3760 -1.8742 -0.2073
  944MOL0     H30213   2.413   2.621  10.136 -3.9390 -0.0542 -0.9652
  944MOL0     H30214   2.308   2.529  10.252 -0.9165  2.0951  1.4550
  944MOL0     H30215   2.526   2.433  10.216 -3.0619 -2.1294  1.2467
  944MOL0     H30216   2.625   2.553  10.294  0.8798 -1.9862  1.8741
  944MOL0     H30217   2.530   2.330  10.407 -0.7268  0.6163 -1.6551
  944MOL0     H30218   2.399   2.442  10.448 -0.6390 -1.4286 -3.1693
  944MOL0     H30219   2.703   2.505  10.531 -0.3124  1.0404 -1.6809
  944MOL0     H30220   2.568   2.616  10.556 -2.4667 -0.8047  3.2617
  944MOL0     H30221   2.622   2.245  10.618 -0.8970  0.5423 -0.8495
  944MOL0     H30222   2.623   2.075  10.823 -1.4740 -2.5259  1.4304
  944MOL0     H30223   2.501   2.114  10.950 -0.4346  1.5724  1.4241
  944MOL0     H30224   2.746   2.065  11.016 -0.5249  0.3825  1.5885
  944MOL0     H30225   2.786   2.234  10.978  0.9522  0.4400  2.4220
  944MOL0     H30226   2.604   2.294  11.134 -1.3120 -0.3849  2.1837
  944MOL0     H30227   2.596   2.115  11.181  1.2706 -0.2624 -1.1383
  944MOL0     H30228   2.725   2.255  11.343 -2.2413 -3.4053 -0.8425
  944MOL0     H30229   2.824   2.131  11.263  0.2317 -0.4709 -2.2834
  944MOL0     H30230   3.041   2.524  11.127  2.8393  1.9160 -0.0124
  944MOL0     H30231   3.258   2.673  11.275 -0.6413 -0.2618 -0.0075
  944MOL0     H30232   3.210   2.641  11.112  0.8711  1.4926 -0.2387
  944MOL0     H30233   3.367   2.576  11.163  0.3440  0.7595  1.1432
  944MOL0     H30234   3.550   2.230  11.712 -2.1897 -0.7637 -2.1358
  944MOL0     H30235   3.769   2.235  11.781 -2.5631  0.1363  0.1709
  944MOL0     H30236   3.987   2.372  11.829  3.1271 -2.6106  4.8731
  944MOL0     H30237   4.005   2.202  11.807 -1.1008  1.6295  2.2340
  944MOL0     H30238   4.231   2.227  11.711 -0.8702 -0.8216 -0.4875
  944MOL0     H30239   4.222   2.394  11.722 -1.5882  1.0937  0.6083
  944MOL0     H30240   4.345   2.281  11.914  0.6760  2.6033  0.5728
  944MOL0     H30241   4.183   2.228  11.966 -1.9553  1.1241 -0.2143
  944MOL0     H30242   4.118   2.478  11.970  0.3399  0.1750 -3.0355
  944MOL0     H30243   4.280   2.520  11.927 -0.5115  0.6179 -2.4901
  944MOL0     H30244   4.213   2.523  12.177  1.4781  1.0564 -2.7932
  944MOL0     H30245   4.219   2.354  12.182  4.0668 -0.8980  1.1843
  944MOL0     H30246   4.431   2.520  12.227 -2.5928  0.2735  1.1853
  944MOL0     H30247   4.463   2.461  12.061 -0.1599  1.3586 -0.1943
  944MOL0     H30248   4.410   2.234  12.149 -1.3015 -0.8264  2.1653
  944MOL0     H30249   4.423   2.308  12.314  3.2200  0.6316  2.4973
  944MOL0     H30250   4.658   2.307  12.100 -0.1840 -2.1617 -0.3845
  944MOL0     H30251   4.643   2.185  12.226  0.1290  0.2140 -2.3143
  944MOL0     H30252   3.902   2.352  11.398  0.9345 -0.3274  0.6829
  944MOL0     H30253   3.687   2.354  11.318 -0.8096 -1.3431 -0.0078
  944MOL0     H30254   3.223   2.206  11.462  0.0211 -0.0736  0.0442
  944MOL0     H30255   2.994   2.178  11.401  1.8344 -1.0805 -0.4075
  944MOL0     H30256   1.982   3.225  10.255 -0.1301 -1.7584  1.5822
  944MOL0     H30257   1.779   3.346  10.206  0.1276  0.4843  1.7923
  944MOL0     H30258   1.548   3.499   9.776 -0.3324 -2.6610  0.3505
  944MOL0     H30259   1.420   3.655   9.720  3.5975 -0.3523  0.2942
  944MOL0     H30260   1.278   3.836   9.715  0.2962  0.1862  0.6004
  944MOL0     H30261   1.181   3.694   9.667 -2.6014 -0.4133  0.1173
  944MOL0     H30262   1.098   3.944   9.624  1.5012  0.1140  1.5629
  944MOL0     H30263   1.066   3.963   9.795  0.9585  3.1944 -1.4043
  944MOL0     H30264   0.942   3.734   9.638  2.2096  1.0903 -0.0809
  944MOL0     H30265   0.915   3.778   9.808 -1.2916  1.0164  0.6676
  944MOL0     H30266   0.728   3.862   9.679 -1.2959  0.9258 -1.1257
  944MOL0     H30267   0.833   3.967   9.594 -1.0223 -2.2194 -1.4836
  944MOL0     H30268   0.801   4.102  10.017  1.0294 -2.5717  1.8741
  944MOL0     H30269   1.186   3.606  10.087  2.2295 -1.7135  2.5135
  944MOL0     H30270   1.409   3.387  10.256 -1.2943 -4.1109  1.2504
  944MOL0     H30271   1.235   3.436  10.236  1.2113 -0.1057  1.2661
  944MOL0     H30272   1.302   3.297  10.155 -2.3416  0.1440  0.5500
  945MOL0     O30273   6.523   9.847   7.623 -0.5391  0.4513  0.4098
  945MOL0     C30274   6.446   9.909   7.695 -0.4341 -0.6299  0.1539
  945MOL0     O30275   6.456   9.935   7.830  0.0340 -0.2042  0.2010
  945MOL0     C30276   6.572   9.907   7.901  0.2539 -0.4909 -0.1820
  945MOL0     C30277   6.709   9.930   7.858  0.2592 -0.0965 -0.2504
  945MOL0     C30278   6.809   9.882   7.943 -0.2636  1.1605 -0.7506
  945MOL0     C30279   6.783   9.813   8.067  0.1842 -0.4398 -0.4425
  945MOL0     O30280   6.875   9.767   8.151 -0.1508 -0.0076  1.1049
  945MOL0     C30281   7.001   9.840   8.171 -0.6195 -0.1111  1.4008
  945MOL0     C30282   7.075   9.763   8.279 -0.1952  0.6869 -0.1927
  945MOL0     C30283   7.230   9.774   8.262  0.4804  0.7881 -0.2010
  945MOL0     C30284   7.320   9.665   8.332  1.1669 -0.7121 -0.0857
  945MOL0     C30285   7.466   9.708   8.323  0.2446  0.0345 -1.1236
  945MOL0     C30286   7.558   9.618   8.396 -0.7812  0.2836 -0.2168
  945MOL0     C30287   7.706   9.649   8.380  0.7263 -0.6174 -0.0623
  945MOL0     C30288   7.789   9.540   8.447 -0.4734 -0.5683  0.0960
  945MOL0     N30289   7.929   9.590   8.439 -0.5643  0.4639  0.2489
  945MOL0     C30290   7.986   9.689   8.519  0.1267 -0.1611  1.0668
  945MOL0     C30291   8.122   9.667   8.488  0.6982  0.7345 -0.0733
  945MOL0     C30292   8.235   9.740   8.553 -0.1595  0.0913 -0.3222
  945MOL0     C30293   8.345   9.778   8.442  0.2166 -0.4612 -0.5912
  945MOL0     C30294   8.454   9.672   8.417 -0.2539 -0.4505  0.4766
  945MOL0     C30295   8.579   9.733   8.355  0.7264 -0.3146 -0.8096
  945MOL0     O30296   8.674   9.628   8.339  0.5940 -0.6085 -0.4304
  945MOL0     C30297   8.782   9.648   8.254 -0.1307 -0.4782 -0.2926
  945MOL0     C30298   8.812   9.781   8.211 -0.6731 -0.4609  0.0368
  945MOL0     C30299   8.918   9.810   8.120  0.3849  0.4976  0.6111
  945MOL0     C30300   8.934   9.958   8.071  0.5096  0.6538  0.3587
  945MOL0     C30301   8.995   9.703   8.074 -0.1083  0.1859 -0.3796
  945MOL0     C30302   9.120   9.723   7.997  0.1060  0.4268 -0.8489
  945MOL0     O30303   9.146   9.615   7.910 -1.3351  0.5593 -0.4674
  945MOL0     C30304   9.255   9.594   7.836  0.8129 -0.1250 -0.5161
  945MOL0     C30305   9.389   9.633   7.879 -0.0641  0.0600  0.4909
  945MOL0     C30306   9.502   9.608   7.802  0.3170  0.6906  0.0782
  945MOL0     C30307   9.489   9.560   7.669  0.1985 -0.2191 -0.0596
  945MOL0     O30308   9.601   9.521   7.600  0.2631 -0.2745  0.3745
  945MOL0     C30309   9.695   9.628   7.575 -0.0549  0.5015 -0.8783
  945MOL0     C30310   9.838   9.567   7.564 -0.2468 -0.3539  0.0533
  945MOL0     C30311   9.879   9.520   7.422  0.3274  0.8963 -0.1300
  945MOL0     C30312  10.013   9.444   7.432  0.7813 -0.8611 -0.4772
  945MOL0     C30313  10.058   9.384   7.301  0.2500 -1.3348  0.7441
  945MOL0     C30314  10.061   9.483   7.180  0.2724 -1.2134  0.1393
  945MOL0     C30315  10.107   9.412   7.049 -0.2837  0.2317 -0.6052
  945MOL0     C30316  10.158   9.512   6.950  0.0567 -0.1372  0.1382
  945MOL0    Cl30317  10.022   9.629   6.903  0.4916  0.1441  0.2799
  945MOL0     C30318   9.357   9.531   7.626 -0.1125  0.6051  0.8887
  945MOL0     C30319   9.243   9.541   7.707 -0.4070 -0.3744 -0.1025
  945MOL0     O30320   9.175   9.832   7.995 -0.3669 -0.3406  0.5330
  945MOL0     C30321   8.973   9.572   8.132  0.2468  0.7779 -0.2295
  945MOL0     C30322   8.875   9.546   8.225 -0.8088 -1.1393  0.5216
  945MOL0     N30323   8.134   9.550   8.416 -0.3851  0.4608  0.8920
  945MOL0     N30324   8.019   9.505   8.385  0.5263 -0.2737  0.1043
  945MOL0     C30325   6.650   9.807   8.108 -0.0003  0.5560  0.4309
  945MOL0     C30326   6.543   9.856   8.030 -0.2068  0.6064 -0.2107
  945MOL0     C30327   6.323   9.976   7.638 -0.2972  0.0805  0.1659
  945MOL0     C30328   6.265  10.082   7.713  0.1313 -0.5154  0.3370
  945MOL0     C30329   6.143  10.137   7.677  0.3041  0.5643  0.0950
  945MOL0     C30330   6.073  10.088   7.566  0.4433  0.2951 -0.0731
  945MOL0     O30331   5.944  10.115   7.536 -0.8780 -1.2937 -0.4158
  945MOL0     C30332   5.886  10.249   7.564 -0.5775 -0.4640 -0.7996
  945MOL0     C30333   5.943  10.358   7.466 -0.0081  0.0042 -0.3171
  945MOL0     C30334   5.926  10.319   7.316 -0.1832  0.2887  0.3035
  945MOL0     C30335   5.989  10.439   7.234  1.0649  0.4698  0.3722
  945MOL0     C30336   5.959  10.420   7.093 -0.5323  0.5511  0.9231
  945MOL0     C30337   5.963  10.407   6.973 -0.0507 -0.3291 -0.1670
  945MOL0     C30338   6.132   9.994   7.488 -0.2076 -1.0170 -1.0151
  945MOL0     C30339   6.255   9.929   7.524  0.3332 -0.6477  0.8720
  945MOL0     C30340   6.320   9.831   7.417 -0.1142 -0.2725  0.6980
  945MOL0     H30341   6.733   9.975   7.762  2.5491 -1.5801 -0.4351
  945MOL0     H30342   6.912   9.885   7.908  0.1455 -1.8614 -0.0584
  945MOL0     H30343   6.980   9.944   8.197 -1.9206 -0.4111  1.6362
  945MOL0     H30344   7.057   9.846   8.078 -2.0036 -0.1256  0.5452
  945MOL0     H30345   7.042   9.792   8.379  0.8610 -0.1150  0.4081
  945MOL0     H30346   7.062   9.654   8.271  1.5436  0.2321  2.1026
  945MOL0     H30347   7.257   9.781   8.156 -0.1775 -0.9808 -0.5211
  945MOL0     H30348   7.259   9.867   8.311 -1.1794  0.4340  1.5742
  945MOL0     H30349   7.287   9.655   8.436 -1.3565 -1.0183 -0.8630
  945MOL0     H30350   7.303   9.567   8.287 -2.0022  0.6650 -2.2076
  945MOL0     H30351   7.473   9.806   8.371  0.3825 -0.5059  0.0060
  945MOL0     H30352   7.498   9.713   8.219 -2.2232 -3.2764 -2.2021
  945MOL0     H30353   7.533   9.623   8.503  2.2154  0.5011  0.5781
  945MOL0     H30354   7.532   9.520   8.355 -1.3697  1.4886 -2.9139
  945MOL0     H30355   7.727   9.744   8.430 -0.2090  0.3324 -1.3890
  945MOL0     H30356   7.728   9.672   8.275 -0.7984  1.5250  0.0127
  945MOL0     H30357   7.767   9.523   8.552 -0.7176 -2.0571 -0.1748
  945MOL0     H30358   7.781   9.445   8.392  0.8971 -0.4445 -0.3581
  945MOL0     H30359   7.936   9.770   8.570 -0.0109  0.6913 -0.3607
  945MOL0     H30360   8.280   9.681   8.633  0.2982  0.8648  0.0020
  945MOL0     H30361   8.191   9.831   8.597 -1.5208  0.3528 -2.0952
  945MOL0     H30362   8.298   9.809   8.348  0.6256 -1.8847 -1.2932
  945MOL0     H30363   8.397   9.861   8.490  0.0517 -1.2019  0.9410
  945MOL0     H30364   8.484   9.628   8.512 -3.8648 -0.3043  1.8040
  945MOL0     H30365   8.418   9.591   8.353  0.5890  0.4996 -1.2784
  945MOL0     H30366   8.555   9.774   8.257 -1.5654 -0.8567 -0.5281
  945MOL0     H30367   8.626   9.809   8.419  0.2196 -2.8463  2.9011
  945MOL0     H30368   8.743   9.860   8.239  0.9260  0.0550  2.8956
  945MOL0     H30369   8.851  10.018   8.108 -0.3507 -0.8424  0.9664
  945MOL0     H30370   8.950   9.960   7.963 -0.7218 -2.9841 -0.0475
  945MOL0     H30371   9.025   9.997   8.118  0.6072  0.8732 -0.0130
  945MOL0     H30372   9.392   9.665   7.983 -2.0539  0.6506  0.4081
  945MOL0     H30373   9.599   9.645   7.835  0.1014  0.7833  0.6118
  945MOL0     H30374   9.663   9.692   7.492 -0.7350  1.4335  0.0767
  945MOL0     H30375   9.708   9.691   7.664 -1.0168  1.4237 -1.3741
  945MOL0     H30376   9.905   9.643   7.604  0.7930 -1.1255 -0.1728
  945MOL0     H30377   9.850   9.478   7.626  2.3542 -0.0512  0.0809
  945MOL0     H30378   9.876   9.612   7.364 -1.3772 -0.0882 -1.6818
  945MOL0     H30379   9.799   9.452   7.391  1.9175 -0.5409 -1.2941
  945MOL0     H30380  10.008   9.356   7.497 -2.3285 -2.1156 -2.2018
  945MOL0     H30381  10.085   9.519   7.465 -0.7157  0.0222  0.8770
  945MOL0     H30382  10.158   9.345   7.322  1.2384  0.5367 -0.2239
  945MOL0     H30383   9.995   9.298   7.277  0.7829 -1.7541  0.8232
  945MOL0     H30384  10.125   9.568   7.202 -0.7571 -0.1821 -0.7746
  945MOL0     H30385   9.963   9.512   7.141 -0.0101 -2.8097 -0.4385
  945MOL0     H30386  10.035   9.340   7.010 -0.3029  0.3493 -0.7842
  945MOL0     H30387  10.185   9.339   7.071 -1.9236 -1.0196  1.4629
  945MOL0     H30388  10.212   9.460   6.871  4.6274  0.2085  2.6809
  945MOL0     H30389  10.231   9.571   7.005  0.3220 -1.4995  1.3035
  945MOL0     H30390   9.344   9.489   7.527  0.7353  1.4565  0.3932
  945MOL0     H30391   9.147   9.514   7.664 -0.9540 -1.0899  1.4969
  945MOL0     H30392   9.033   9.490   8.093 -2.0130 -0.3866 -1.4380
  945MOL0     H30393   8.857   9.443   8.255 -2.9642 -1.0695 -0.3340
  945MOL0     H30394   6.639   9.771   8.209 -0.8213  3.3395  1.4041
  945MOL0     H30395   6.437   9.855   8.055 -0.3316 -0.8859 -0.7026
  945MOL0     H30396   6.317  10.125   7.798  1.0246 -4.2200  1.8890
  945MOL0     H30397   6.085  10.204   7.740 -2.1815 -0.3677 -1.1064
  945MOL0     H30398   5.780  10.257   7.541 -0.6326  1.4293 -0.0142
  945MOL0     H30399   5.895  10.291   7.665 -1.0616 -0.8326 -0.5979
  945MOL0     H30400   6.048  10.353   7.495  0.4399  0.0959 -1.8105
  945MOL0     H30401   5.902  10.457   7.489  2.1920  0.6369  1.2298
  945MOL0     H30402   5.973  10.228   7.278  1.5838  1.0645  0.4902
  945MOL0     H30403   5.819  10.316   7.297  0.0649  0.8006 -1.3743
  945MOL0     H30404   6.095  10.447   7.262  1.2220 -0.3552  0.0329
  945MOL0     H30405   5.940  10.532   7.266 -0.6893  0.4309 -1.9211
  945MOL0     H30406   5.967  10.396   6.867 -0.7455 -1.3059 -0.1030
  945MOL0     H30407   6.073   9.962   7.404 -4.0165  2.6699 -0.0347
  945MOL0     H30408   6.236   9.818   7.348 -2.3712  2.2091  2.7209
  945MOL0     H30409   6.413   9.860   7.368  0.4900 -3.2497 -0.1199
  945MOL0     H30410   6.340   9.735   7.465 -1.0688 -0.5232  0.6142
  946MOL0     O30411   2.085   4.349   4.078  0.1454 -0.7291  0.2493
  946MOL0     C30412   1.983   4.378   4.131 -0.4925 -0.2236  0.9013
  946MOL0     O30413   1.965   4.452   4.241 -0.3108  0.4961  0.5635
  946MOL0     C30414   2.088   4.481   4.302  0.3199 -0.6078 -0.5954
  946MOL0     C30415   2.149   4.599   4.262  0.3510  0.2650  0.8873
  946MOL0     C30416   2.265   4.639   4.319  0.4864 -0.4759  0.5160
  946MOL0     C30417   2.326   4.565   4.419  0.5717 -0.5579  0.1776
  946MOL0     O30418   2.432   4.610   4.497 -0.4571 -0.3631 -0.0289
  946MOL0     C30419   2.511   4.727   4.462 -0.2542 -0.6265  0.2453
  946MOL0     C30420   2.619   4.747   4.565 -1.1325  0.0761 -0.4469
  946MOL0     C30421   2.717   4.857   4.517 -0.2777  0.5983 -0.6125
  946MOL0     C30422   2.798   4.909   4.637 -0.3237 -0.9483  0.0685
  946MOL0     C30423   2.891   5.026   4.586 -0.2944  0.0630  0.2574
  946MOL0     C30424   2.989   5.067   4.687  0.2858  0.8238 -0.5834
  946MOL0     C30425   2.916   5.132   4.806 -0.8832  0.5400  0.0811
  946MOL0     C30426   3.014   5.195   4.910  0.4383 -0.0096 -0.6717
  946MOL0     N30427   2.956   5.308   4.984  0.0008  0.4905 -0.2988
  946MOL0     C30428   2.840   5.302   5.057 -0.1463  0.1294 -0.1955
  946MOL0     C30429   2.800   5.424   5.082  0.2979 -0.0939 -0.2708
  946MOL0     C30430   2.679   5.488   5.156 -0.2195  0.3059  0.4635
  946MOL0     C30431   2.559   5.515   5.058 -0.2198  0.0289 -0.9125
  946MOL0     C30432   2.434   5.578   5.126 -0.5195  0.8333 -0.2219
  946MOL0     C30433   2.309   5.538   5.039 -0.3916  0.7474  0.4256
  946MOL0     O30434   2.217   5.637   5.080  0.3191  0.1726  0.9308
  946MOL0     C30435   2.091   5.643   5.020 -0.4282 -0.0336  0.0654
  946MOL0     C30436   2.018   5.526   5.023  0.3815 -0.1417 -0.7855
  946MOL0     C30437   1.890   5.521   4.969 -0.0059  0.2064  0.0437
  946MOL0     C30438   1.812   5.398   5.011  0.5491  0.2253 -0.4044
  946MOL0     C30439   1.838   5.638   4.897 -0.6778  0.1551  0.3338
  946MOL0     C30440   1.712   5.645   4.822 -0.5062  0.6359  0.1420
  946MOL0     O30441   1.668   5.767   4.780 -0.0848  0.1772 -0.0959
  946MOL0     C30442   1.538   5.758   4.740 -0.5975  0.0975 -0.5225
  946MOL0     C30443   1.434   5.747   4.830 -0.0103  0.3103 -0.0232
  946MOL0     C30444   1.300   5.727   4.786  0.1817 -0.8648 -0.5279
  946MOL0     C30445   1.274   5.728   4.648  0.5543 -0.1289 -0.0958
  946MOL0     O30446   1.144   5.707   4.609 -0.4702  0.3951  0.0052
  946MOL0     C30447   1.127   5.608   4.499 -0.3663 -0.2623 -0.3166
  946MOL0     C30448   0.991   5.534   4.512 -0.2983 -1.2755  0.1805
  946MOL0     C30449   0.884   5.643   4.505  0.2640  0.1832  0.7199
  946MOL0     C30450   0.741   5.587   4.500 -0.1340 -0.4897  0.3027
  946MOL0     C30451   0.639   5.696   4.454  0.1574  0.4693  0.5187
  946MOL0     C30452   0.502   5.637   4.439  0.5347  0.8968 -0.1659
  946MOL0     C30453   0.417   5.734   4.373 -0.0218  0.1755  0.1901
  946MOL0     C30454   0.282   5.682   4.326  0.2923  0.2850 -0.4763
  946MOL0    Cl30455   0.174   5.643   4.462 -0.4572  0.1917  0.3638
  946MOL0     C30456   1.381   5.749   4.553 -0.0099  1.0445 -0.7163
  946MOL0     C30457   1.512   5.765   4.605 -0.5751 -0.0734 -0.5186
  946MOL0     O30458   1.658   5.537   4.793 -0.7019  0.8416 -0.4719
  946MOL0     C30459   1.915   5.758   4.900  0.1493  0.0194 -0.5162
  946MOL0     C30460   2.042   5.755   4.962 -0.3601 -0.5819  0.4812
  946MOL0     N30461   2.900   5.506   5.024 -0.6291  0.2323 -0.3086
  946MOL0     N30462   2.996   5.436   4.976 -0.0338 -0.4668 -0.2276
  946MOL0     C30463   2.264   4.447   4.461  0.1122 -0.9500 -0.2128
  946MOL0     C30464   2.144   4.406   4.400  0.0129 -0.3625 -0.6240
  946MOL0     C30465   1.854   4.346   4.068 -0.3122 -0.2805  0.1797
  946MOL0     C30466   1.737   4.306   4.146  0.1515 -0.1568 -0.2471
  946MOL0     C30467   1.613   4.291   4.088  0.3064  0.2174 -0.5878
  946MOL0     C30468   1.595   4.317   3.948 -0.0822 -0.3054 -0.7167
  946MOL0     O30469   1.485   4.287   3.872 -0.0614  0.0418 -1.1512
  946MOL0     C30470   1.369   4.364   3.917  0.3951 -0.5080 -1.1160
  946MOL0     C30471   1.256   4.332   3.829 -0.1319 -0.2662 -0.3787
  946MOL0     C30472   1.184   4.201   3.866 -0.1302  0.5840 -0.3821
  946MOL0     C30473   1.030   4.220   3.875  0.8109  0.4194 -0.4761
  946MOL0     C30474   0.980   4.270   3.750  0.7796 -0.3475 -0.1418
  946MOL0     C30475   0.944   4.323   3.649  0.0901 -0.8896  0.0592
  946MOL0     C30476   1.704   4.364   3.874  0.1044 -0.1478  0.2821
  946MOL0     C30477   1.835   4.387   3.932  0.2604  0.6366  0.3896
  946MOL0     C30478   1.949   4.428   3.845 -0.6284 -0.6697  0.6426
  946MOL0     H30479   2.091   4.657   4.191 -0.1130 -1.0931  0.1066
  946MOL0     H30480   2.296   4.742   4.308 -2.2274  0.1721 -2.5150
  946MOL0     H30481   2.447   4.814   4.448 -0.0340 -0.5091 -0.0509
  946MOL0     H30482   2.555   4.717   4.362 -0.3274  1.9684 -0.1239
  946MOL0     H30483   2.579   4.776   4.663  0.0067  1.1399 -0.2735
  946MOL0     H30484   2.677   4.655   4.580 -0.6485  0.3844 -0.4045
  946MOL0     H30485   2.783   4.807   4.446  0.5332 -0.4758  0.8604
  946MOL0     H30486   2.659   4.938   4.470 -1.4454  1.1186  1.5808
  946MOL0     H30487   2.727   4.932   4.716 -1.8611 -1.8589 -1.0001
  946MOL0     H30488   2.853   4.818   4.664  1.3841 -0.3153 -1.0705
  946MOL0     H30489   2.827   5.108   4.553 -2.7424 -1.6835  0.3272
  946MOL0     H30490   2.944   4.990   4.498 -0.6599 -2.3118  0.9329
  946MOL0     H30491   3.049   4.981   4.718  0.3130  0.6712 -1.0521
  946MOL0     H30492   3.047   5.146   4.639  1.0805  1.7137  1.7115
  946MOL0     H30493   2.858   5.059   4.864 -0.3156  0.5644  0.6922
  946MOL0     H30494   2.843   5.206   4.770  0.5578  1.4035 -1.1779
  946MOL0     H30495   3.050   5.116   4.977  1.6160  1.0581  0.0027
  946MOL0     H30496   3.096   5.237   4.853  1.0045 -1.1558 -0.7133
  946MOL0     H30497   2.787   5.210   5.080  2.2623 -0.9117  1.6665
  946MOL0     H30498   2.712   5.584   5.195  0.3782 -0.9404  3.2244
  946MOL0     H30499   2.654   5.426   5.242 -4.2888  0.3140 -0.5090
  946MOL0     H30500   2.586   5.596   4.990  1.2344 -0.2362 -0.6762
  946MOL0     H30501   2.534   5.424   5.003 -0.1096 -0.5564 -0.0181
  946MOL0     H30502   2.430   5.532   5.225  0.9659  0.7014 -0.2136
  946MOL0     H30503   2.443   5.685   5.144 -0.4227  0.7144  0.4563
  946MOL0     H30504   2.335   5.544   4.933  3.5314  1.0517  1.2547
  946MOL0     H30505   2.279   5.438   5.071  2.5544 -0.0467  1.0314
  946MOL0     H30506   2.051   5.433   5.068  1.2156  0.6047  0.2035
  946MOL0     H30507   1.706   5.426   5.015  0.9627  1.9614 -0.6566
  946MOL0     H30508   1.843   5.355   5.107 -2.6882 -0.7165  0.3440
  946MOL0     H30509   1.825   5.325   4.930  0.0160 -0.8591  0.4548
  946MOL0     H30510   1.447   5.742   4.937  1.0884  1.0147 -0.1106
  946MOL0     H30511   1.223   5.712   4.862 -0.8802  0.7113 -1.2454
  946MOL0     H30512   1.132   5.651   4.399  2.3147 -2.2679 -1.1717
  946MOL0     H30513   1.213   5.539   4.501  0.3082  0.5530 -0.5846
  946MOL0     H30514   0.986   5.462   4.430  0.4199  0.3225 -1.3292
  946MOL0     H30515   0.986   5.496   4.615  1.0638  2.7435  1.9111
  946MOL0     H30516   0.904   5.706   4.418 -1.7798  1.3119  1.0064
  946MOL0     H30517   0.894   5.706   4.594 -3.1469 -0.2338  1.5373
  946MOL0     H30518   0.715   5.550   4.600 -1.1251  1.0154  0.6355
  946MOL0     H30519   0.745   5.507   4.425 -0.2528  2.3279 -2.9331
  946MOL0     H30520   0.622   5.774   4.529 -1.5897  0.7608 -0.1304
  946MOL0     H30521   0.680   5.735   4.360  1.3011 -0.7070  0.5024
  946MOL0     H30522   0.460   5.609   4.536  1.3723 -1.3858 -0.3879
  946MOL0     H30523   0.513   5.550   4.374  0.1181  0.1287  0.7554
  946MOL0     H30524   0.462   5.766   4.279 -1.5827  0.2076 -0.5784
  946MOL0     H30525   0.397   5.822   4.435 -1.0281  0.5837 -0.6919
  946MOL0     H30526   0.303   5.595   4.264  2.6746  1.6945 -1.8094
  946MOL0     H30527   0.233   5.761   4.269 -0.0312  2.4102  2.5221
  946MOL0     H30528   1.358   5.746   4.447 -0.6243 -1.2466 -0.5736
  946MOL0     H30529   1.600   5.785   4.545 -1.1379 -1.4843 -1.8755
  946MOL0     H30530   1.877   5.850   4.857 -4.1211 -0.6870  1.2863
  946MOL0     H30531   2.102   5.845   4.957 -0.7009 -0.4208 -1.0055
  946MOL0     H30532   2.315   4.387   4.535 -1.3555 -0.5157  1.2079
  946MOL0     H30533   2.088   4.320   4.436  0.3897  0.2727  1.6859
  946MOL0     H30534   1.753   4.304   4.253 -0.1616  0.5591 -0.1779
  946MOL0     H30535   1.537   4.265   4.162  1.9317 -3.8064 -0.1038
  946MOL0     H30536   1.336   4.340   4.018  0.0600  0.9047 -0.8695
  946MOL0     H30537   1.387   4.472   3.910 -0.2149 -0.3348 -0.2367
  946MOL0     H30538   1.278   4.329   3.722  3.2063 -0.3820  0.1977
  946MOL0     H30539   1.176   4.403   3.849 -1.0571 -1.7160  1.3104
  946MOL0     H30540   1.194   4.127   3.786  0.8599  1.0855 -0.7385
  946MOL0     H30541   1.214   4.163   3.964 -2.9634 -0.1650  0.2832
  946MOL0     H30542   0.998   4.281   3.960  1.4861  0.4119 -0.2141
  946MOL0     H30543   0.985   4.122   3.891  0.0824  0.9050  0.5927
  946MOL0     H30544   0.912   4.369   3.557 -1.8355 -0.7807  0.7374
  946MOL0     H30545   1.700   4.389   3.768 -1.3190 -1.0292  0.1002
  946MOL0     H30546   1.923   4.483   3.754  2.4215  1.5473  0.9596
  946MOL0     H30547   2.005   4.506   3.897 -0.2832 -0.0670 -0.5926
  946MOL0     H30548   2.013   4.345   3.813 -1.9345 -1.0848 -1.0564
  947MOL0     O30549   9.430   6.033  10.972  0.4593 -0.3380 -0.5292
  947MOL0     C30550   9.352   6.015  10.873 -0.2976 -0.6962 -0.1839
  947MOL0     O30551   9.400   5.987  10.745 -0.3111 -0.1410  0.2293
  947MOL0     C30552   9.533   5.954  10.742  0.4593 -0.2433 -0.0221
  947MOL0     C30553   9.563   5.822  10.764 -0.1657 -0.1993 -0.1624
  947MOL0     C30554   9.693   5.768  10.750  0.5432 -0.0017  0.1436
  947MOL0     C30555   9.795   5.860  10.723 -0.2637 -0.6198 -0.3841
  947MOL0     O30556   9.928   5.823  10.715 -0.1670 -0.7112  0.5963
  947MOL0     C30557   9.956   5.766  10.590  0.7345 -0.6460  1.0622
  947MOL0     C30558   9.996   5.879  10.498 -0.6913  0.5596  0.4069
  947MOL0     C30559  10.128   5.943  10.558 -0.0235 -1.1670  0.0743
  947MOL0     C30560  10.149   6.080  10.492 -0.4205 -0.0387  0.4860
  947MOL0     C30561  10.283   6.133  10.549  0.0472  0.7026  0.4298
  947MOL0     C30562  10.327   6.248  10.463  0.1785  0.2225 -0.4884
  947MOL0     C30563  10.442   6.316  10.527  0.4713 -0.3856  0.2346
  947MOL0     C30564  10.435   6.365  10.679 -0.1739  0.4894  0.0906
  947MOL0     N30565  10.561   6.434  10.718 -0.1818  0.1125  0.9728
  947MOL0     C30566  10.600   6.557  10.684 -0.9054 -0.1924  0.0972
  947MOL0     C30567  10.735   6.570  10.706  0.5516  0.3413  0.3818
  947MOL0     C30568  10.818   6.690  10.686 -0.1817  0.4135  0.8364
  947MOL0     C30569  10.807   6.788  10.807  0.0578 -0.7298 -0.4080
  947MOL0     C30570  10.931   6.882  10.807 -0.3222  0.2582  0.9720
  947MOL0     C30571  10.924   6.975  10.692 -0.1061 -0.8820 -0.3567
  947MOL0     O30572  10.994   7.093  10.747  0.2829 -0.5576  0.3872
  947MOL0     C30573  11.133   7.105  10.738  0.0154  0.3097 -0.6320
  947MOL0     C30574  11.226   7.008  10.690 -0.2632  0.6080  0.2820
  947MOL0     C30575  11.359   7.042  10.661  0.4295 -0.3460 -0.2253
  947MOL0     C30576  11.445   6.927  10.609 -0.5791 -0.3683 -0.6657
  947MOL0     C30577  11.399   7.180  10.693 -0.0886  0.2703 -0.2603
  947MOL0     C30578  11.543   7.222  10.677  0.3184 -0.3829 -0.8784
  947MOL0     O30579  11.582   7.312  10.769  0.4337  0.5122 -0.3448
  947MOL0     C30580  11.687   7.389  10.736  0.3573 -0.0560  0.1894
  947MOL0     C30581  11.670   7.518  10.681 -1.0869 -0.3874 -0.1109
  947MOL0     C30582  11.780   7.594  10.633 -0.6669  0.0058 -0.4906
  947MOL0     C30583  11.911   7.535  10.610 -0.6753  1.0662 -0.1464
  947MOL0     O30584  12.005   7.601  10.535 -0.0016  0.0884 -0.1973
  947MOL0     C30585  12.109   7.515  10.479 -0.0215 -0.9820  0.4236
  947MOL0     C30586  12.178   7.614  10.375 -0.5847 -0.2031 -0.1556
  947MOL0     C30587  12.324   7.569  10.341 -0.0224 -0.3597 -0.2055
  947MOL0     C30588  12.371   7.624  10.201 -0.2739  0.7756 -0.5586
  947MOL0     C30589  12.495   7.557  10.148 -0.5108 -0.2990  0.0219
  947MOL0     C30590  12.461   7.420  10.094 -0.4628 -0.0753  1.1633
  947MOL0     C30591  12.578   7.346  10.033 -0.0506  0.1267  1.0927
  947MOL0     C30592  12.715   7.356  10.112  0.4369  0.2454  0.2450
  947MOL0    Cl30593  12.812   7.215  10.051 -0.1802 -0.0062  0.0879
  947MOL0     C30594  11.927   7.401  10.670  0.4134 -0.0763  0.1334
  947MOL0     C30595  11.820   7.333  10.727 -0.0013 -0.1682  0.2303
  947MOL0     O30596  11.617   7.172  10.588 -0.1246  0.1479 -0.4219
  947MOL0     C30597  11.311   7.263  10.758  0.2132  0.6882  0.6767
  947MOL0     C30598  11.180   7.226  10.768 -0.0390 -0.3275 -0.3607
  947MOL0     N30599  10.780   6.448  10.760  0.2259 -0.4283  1.0602
  947MOL0     N30600  10.671   6.372  10.780 -0.4477 -0.3441 -0.0761
  947MOL0     C30601   9.768   6.000  10.708 -0.5090 -0.0679 -0.3937
  947MOL0     C30602   9.633   6.043  10.710  0.0705 -0.4945 -0.5229
  947MOL0     C30603   9.207   6.030  10.908  0.6763 -0.0737  0.2936
  947MOL0     C30604   9.122   6.020  10.801  0.2468 -0.0708 -0.7176
  947MOL0     C30605   8.988   6.020  10.825 -0.3185  0.0702  0.1629
  947MOL0     C30606   8.931   6.046  10.957  0.0107  0.2336  0.4254
  947MOL0     O30607   8.798   6.073  10.976  0.2399  0.3251 -0.2504
  947MOL0     C30608   8.715   6.106  10.869 -0.8512  0.0213  0.0788
  947MOL0     C30609   8.572   6.127  10.917 -0.4448 -0.0752  0.1260
  947MOL0     C30610   8.491   5.990  10.928  0.5887  0.3248  0.7057
  947MOL0     C30611   8.333   6.012  10.962 -0.3516  0.2978  0.0461
  947MOL0     C30612   8.315   6.044  11.105 -0.0924 -0.2304  0.2373
  947MOL0     C30613   8.322   6.075  11.220 -0.5224 -0.4176 -1.1919
  947MOL0     C30614   9.010   6.060  11.059 -0.4048 -0.8948 -0.7749
  947MOL0     C30615   9.150   6.044  11.039  0.0616  1.0389 -0.1784
  947MOL0     C30616   9.239   6.050  11.167  0.9177 -0.0877  0.2408
  947MOL0     H30617   9.482   5.759  10.800 -0.4919  0.2588 -0.0726
  947MOL0     H30618   9.720   5.664  10.764 -0.3842 -0.1876  0.6232
  947MOL0     H30619   9.869   5.711  10.551  0.1006  2.2182 -1.9654
  947MOL0     H30620  10.043   5.700  10.591  1.8355  0.7417  0.3549
  947MOL0     H30621  10.008   5.832  10.400  0.5915  3.4017 -0.8869
  947MOL0     H30622   9.911   5.944  10.478 -1.5042 -0.8652 -0.9930
  947MOL0     H30623  10.131   5.963  10.666 -3.9770  0.9547 -0.0522
  947MOL0     H30624  10.208   5.871  10.535 -0.6389 -1.5399 -0.9520
  947MOL0     H30625  10.155   6.072  10.383  1.7400 -2.5252  0.6785
  947MOL0     H30626  10.062   6.136  10.528 -1.0999 -0.4417 -0.4920
  947MOL0     H30627  10.354   6.050  10.545 -1.9419 -1.0476 -2.4511
  947MOL0     H30628  10.261   6.164  10.652  0.5741 -1.1505  1.1472
  947MOL0     H30629  10.353   6.228  10.358 -0.3645  1.3905 -0.8635
  947MOL0     H30630  10.244   6.319  10.458  0.0862  0.1696  0.2340
  947MOL0     H30631  10.461   6.407  10.469  0.3283 -0.2860  0.3440
  947MOL0     H30632  10.528   6.252  10.505  0.0631 -1.0294  0.4754
  947MOL0     H30633  10.356   6.441  10.683  1.7162  2.7019 -1.5439
  947MOL0     H30634  10.422   6.277  10.742  1.4274  1.4924  1.9435
  947MOL0     H30635  10.543   6.636  10.637  0.8386 -0.0503 -1.9493
  947MOL0     H30636  10.782   6.741  10.596  0.4733  0.2176  0.4577
  947MOL0     H30637  10.920   6.654  10.669 -0.0516 -0.1165  2.5867
  947MOL0     H30638  10.721   6.854  10.803  0.4032 -0.2907 -0.6805
  947MOL0     H30639  10.800   6.727  10.897 -1.5797  1.6576  1.1855
  947MOL0     H30640  10.929   6.930  10.905  2.1467  1.0276  0.7133
  947MOL0     H30641  11.025   6.827  10.809  1.3864  2.7613 -1.9048
  947MOL0     H30642  10.981   6.933  10.608  4.0140 -4.3896  3.6591
  947MOL0     H30643  10.824   7.008  10.661  0.4432  1.5940  0.3391
  947MOL0     H30644  11.187   6.908  10.671 -0.2774  0.6918 -0.1416
  947MOL0     H30645  11.485   6.960  10.513 -0.5705 -0.3306 -0.6491
  947MOL0     H30646  11.400   6.828  10.603  1.5079 -1.2774 -3.7173
  947MOL0     H30647  11.526   6.921  10.683  0.5769  0.1808 -1.8390
  947MOL0     H30648  11.569   7.558  10.675  0.1348  2.8782 -0.5663
  947MOL0     H30649  11.755   7.696  10.605  2.4080  0.8090 -0.5876
  947MOL0     H30650  12.174   7.493  10.564  1.2158  1.3750  0.1581
  947MOL0     H30651  12.066   7.431  10.423 -0.6096  0.3944 -1.2830
  947MOL0     H30652  12.121   7.637  10.285  1.4395  2.6651 -0.8136
  947MOL0     H30653  12.183   7.714  10.419 -2.3511 -0.2804  0.3299
  947MOL0     H30654  12.330   7.461  10.325  0.2698 -0.4426  0.4295
  947MOL0     H30655  12.381   7.597  10.430 -2.3143  0.1786  1.1730
  947MOL0     H30656  12.386   7.732  10.213 -1.8160  0.6847  4.5941
  947MOL0     H30657  12.292   7.596  10.132  0.3705 -2.4821 -0.1247
  947MOL0     H30658  12.536   7.617  10.067 -0.6851 -0.7284 -0.3901
  947MOL0     H30659  12.574   7.553  10.223 -0.9075  0.3780  0.4837
  947MOL0     H30660  12.387   7.435  10.015  0.5430  0.7087  0.3402
  947MOL0     H30661  12.408   7.353  10.163 -1.0947 -1.2174 -0.3693
  947MOL0     H30662  12.594   7.375   9.929  0.8828 -0.2553  1.1210
  947MOL0     H30663  12.544   7.243  10.021 -1.8053  0.9223 -1.7292
  947MOL0     H30664  12.707   7.345  10.221  0.5679 -3.1608  0.0192
  947MOL0     H30665  12.774   7.443  10.083  1.1755 -0.5278 -0.6232
  947MOL0     H30666  12.029   7.363  10.674  0.4704  0.1338  1.1174
  947MOL0     H30667  11.834   7.238  10.777 -0.5613 -0.9595 -1.0425
  947MOL0     H30668  11.345   7.360  10.794 -0.5648  0.5441  1.8550
  947MOL0     H30669  11.104   7.289  10.812 -0.0512 -0.4846 -0.1551
  947MOL0     H30670   9.851   6.066  10.684 -0.0300 -0.2698  0.6656
  947MOL0     H30671   9.608   6.148  10.698  0.1615 -0.1616  1.7211
  947MOL0     H30672   9.157   6.001  10.700  3.2824 -0.5784  0.3314
  947MOL0     H30673   8.922   6.010  10.739 -0.5885  1.6562  0.1571
  947MOL0     H30674   8.757   6.195  10.822  0.9592 -1.3244 -0.9949
  947MOL0     H30675   8.722   6.017  10.806  2.4021 -0.2460  0.6361
  947MOL0     H30676   8.523   6.202  10.855 -0.8802  1.9890  2.8050
  947MOL0     H30677   8.570   6.178  11.013 -2.1879 -0.4212  0.2972
  947MOL0     H30678   8.499   5.946  10.828  0.1008  3.6953 -0.9924
  947MOL0     H30679   8.538   5.928  11.005  1.6094  0.5688  0.2968
  947MOL0     H30680   8.277   5.921  10.938  0.7322 -1.0540  2.2593
  947MOL0     H30681   8.302   6.095  10.898  0.3254 -0.0421 -0.7451
  947MOL0     H30682   8.339   6.100  11.322  2.5566 -0.0320 -1.7205
  947MOL0     H30683   8.961   6.082  11.153  1.8731  1.6529 -0.0320
  947MOL0     H30684   9.315   6.128  11.154  2.6805 -1.5202  1.5267
  947MOL0     H30685   9.179   6.050  11.258  0.3814 -3.0722 -0.0187
  947MOL0     H30686   9.292   5.955  11.168 -0.7711 -1.0649  0.8487
  948MOL0     O30687  11.000  11.150   2.431  0.3765 -0.0385 -0.9458
  948MOL0     C30688  11.093  11.081   2.393 -0.0872 -0.3883  0.3981
  948MOL0     O30689  11.087  10.951   2.376  0.3561  0.4936 -0.4772
  948MOL0     C30690  10.974  10.886   2.416  1.0879  0.2280  0.6362
  948MOL0     C30691  10.966  10.822   2.539  0.2886 -0.0593 -0.5573
  948MOL0     C30692  10.847  10.767   2.578 -0.3229  0.7097 -0.3747
  948MOL0     C30693  10.729  10.780   2.500  0.4157 -0.1222 -0.9960
  948MOL0     O30694  10.606  10.733   2.551  0.0353  0.1070 -0.4420
  948MOL0     C30695  10.581  10.691   2.682  0.1602  0.1605  0.4763
  948MOL0     C30696  10.595  10.535   2.680 -0.1753 -0.3393  0.9829
  948MOL0     C30697  10.485  10.477   2.584  0.1558  0.5739  0.3100
  948MOL0     C30698  10.478  10.327   2.574  1.0507  0.0798  0.1377
  948MOL0     C30699  10.330  10.279   2.555 -0.1925 -0.0514  0.0339
  948MOL0     C30700  10.256  10.342   2.435 -0.2823 -0.0896  0.0644
  948MOL0     C30701  10.111  10.292   2.423  0.6174 -0.3165 -0.4457
  948MOL0     C30702  10.017  10.387   2.508 -0.3737  0.1143  0.1439
  948MOL0     N30703   9.881  10.328   2.512 -0.0519  0.3710  0.5860
  948MOL0     C30704   9.835  10.255   2.625  0.2400  0.3251 -0.4311
  948MOL0     C30705   9.723  10.190   2.576  0.3788  0.1742 -0.7350
  948MOL0     C30706   9.653  10.102   2.679  0.3632  0.4361 -0.3822
  948MOL0     C30707   9.718   9.972   2.701  0.2812  0.0280  0.4769
  948MOL0     C30708   9.631   9.880   2.795 -1.0468 -0.3617 -0.5234
  948MOL0     C30709   9.712   9.758   2.856  0.0596  0.0468 -0.7628
  948MOL0     O30710   9.731   9.677   2.741  0.2659  0.0411  0.2498
  948MOL0     C30711   9.846   9.598   2.736 -0.7042  0.3789 -0.6963
  948MOL0     C30712   9.943   9.573   2.842 -0.6825  0.0100  0.6468
  948MOL0     C30713  10.078   9.517   2.835 -0.0375 -0.4416  0.3666
  948MOL0     C30714  10.172   9.512   2.957  0.2218  0.4035  0.1158
  948MOL0     C30715  10.114   9.481   2.706 -0.0277  0.0568 -0.2940
  948MOL0     C30716  10.252   9.442   2.659 -0.9194  0.7104 -0.2846
  948MOL0     O30717  10.257   9.379   2.539  0.2975  0.3429 -0.5046
  948MOL0     C30718  10.378   9.337   2.492 -0.2726  0.1916 -0.2166
  948MOL0     C30719  10.429   9.207   2.529  0.0119  0.3909 -0.3781
  948MOL0     C30720  10.551   9.163   2.482  0.2499  0.2705 -0.3724
  948MOL0     C30721  10.629   9.249   2.405  0.0062 -0.3201 -0.3858
  948MOL0     O30722  10.759   9.230   2.366 -0.9302  0.3499  1.3331
  948MOL0     C30723  10.815   9.098   2.385 -0.5038  0.3035  0.2008
  948MOL0     C30724  10.971   9.104   2.358  0.0677 -0.4039  0.0267
  948MOL0     C30725  11.023   8.962   2.390 -0.2483  0.3838  0.1177
  948MOL0     C30726  11.182   8.957   2.377 -0.3035  0.6565  0.0094
  948MOL0     C30727  11.237   8.812   2.369 -0.4235  0.3924  1.0064
  948MOL0     C30728  11.395   8.800   2.365  0.2934 -0.0605  0.8541
  948MOL0     C30729  11.466   8.772   2.498  0.4250 -0.1395  0.9011
  948MOL0     C30730  11.422   8.877   2.604 -0.1933  0.0770  0.3840
  948MOL0    Cl30731  11.540   8.873   2.737 -0.2705 -0.1031  0.2139
  948MOL0     C30732  10.575   9.374   2.370  0.1336  0.0230  0.4982
  948MOL0     C30733  10.458   9.422   2.415  0.2192 -0.3645  0.6198
  948MOL0     O30734  10.345   9.486   2.722  0.2619 -0.6423  0.4593
  948MOL0     C30735  10.022   9.504   2.602  0.1956  0.1274  0.5945
  948MOL0     C30736   9.889   9.551   2.616 -0.5697 -1.0257 -0.2697
  948MOL0     N30737   9.708  10.211   2.445  0.2911 -0.0155  0.0674
  948MOL0     N30738   9.801  10.295   2.408 -1.2759 -0.0752  0.5167
  948MOL0     C30739  10.739  10.841   2.380  0.6168  0.5257 -0.6001
  948MOL0     C30740  10.861  10.893   2.333  0.2177  0.4427 -0.3502
  948MOL0     C30741  11.220  11.149   2.353  0.1164  0.2948 -0.3553
  948MOL0     C30742  11.338  11.075   2.346 -0.6619 -0.2274  0.5649
  948MOL0     C30743  11.448  11.130   2.288 -0.1456  0.4708  0.0696
  948MOL0     C30744  11.453  11.265   2.256  0.0839  0.3840  0.3091
  948MOL0     O30745  11.572  11.305   2.197  0.3050  0.8578  0.1443
  948MOL0     C30746  11.572  11.434   2.146 -0.0141 -0.3045 -0.0586
  948MOL0     C30747  11.711  11.485   2.101  0.4185  0.0039  0.4291
  948MOL0     C30748  11.768  11.416   1.978  0.4378 -0.8491 -0.6649
  948MOL0     C30749  11.895  11.343   1.997 -0.0233 -0.4114 -1.1675
  948MOL0     C30750  11.955  11.293   1.865  0.2469  0.2149 -0.2043
  948MOL0     C30751  11.996  11.247   1.765 -0.5136  0.1967 -0.0101
  948MOL0     C30752  11.342  11.340   2.260  0.1122  0.0765 -0.2814
  948MOL0     C30753  11.224  11.285   2.310 -0.4725 -0.5721 -0.3769
  948MOL0     C30754  11.106  11.386   2.317 -0.4204  0.0773  0.1177
  948MOL0     H30755  11.044  10.820   2.615 -1.5630 -0.6972  1.4360
  948MOL0     H30756  10.852  10.718   2.675 -2.7457 -1.5875 -1.2870
  948MOL0     H30757  10.478  10.717   2.705 -1.2095 -3.1118 -1.2326
  948MOL0     H30758  10.648  10.737   2.755 -1.3341  0.8743  1.4314
  948MOL0     H30759  10.697  10.504   2.654  0.0875  0.4577  1.0370
  948MOL0     H30760  10.577  10.502   2.783 -1.2055 -1.8313  0.3580
  948MOL0     H30761  10.391  10.513   2.626  0.4498  1.0493  0.5730
  948MOL0     H30762  10.499  10.518   2.483  1.0901  0.9694  0.5822
  948MOL0     H30763  10.538  10.290   2.490  0.0142  0.7245 -0.9159
  948MOL0     H30764  10.510  10.276   2.665  0.8087 -0.8229 -0.2792
  948MOL0     H30765  10.282  10.310   2.648  0.3244 -0.6282  0.5046
  948MOL0     H30766  10.347  10.172   2.543 -0.7922 -0.3533  1.6083
  948MOL0     H30767  10.257  10.449   2.458  0.6343 -1.0103  5.8072
  948MOL0     H30768  10.300  10.325   2.336  0.1269 -0.7011  0.3422
  948MOL0     H30769  10.107  10.189   2.460  1.7385 -0.5247 -0.8445
  948MOL0     H30770  10.079  10.288   2.318  2.1427  0.8915 -1.0176
  948MOL0     H30771  10.055  10.409   2.608  0.5355  2.7438 -0.7070
  948MOL0     H30772  10.011  10.485   2.460  2.1361  0.4929  0.4552
  948MOL0     H30773   9.883  10.248   2.722  3.7229 -1.3578 -2.1088
  948MOL0     H30774   9.559  10.094   2.624  0.3298  1.7474 -0.5423
  948MOL0     H30775   9.633  10.160   2.770  1.8639 -0.0817  0.2996
  948MOL0     H30776   9.728   9.922   2.604 -0.7971  1.1247 -0.2272
  948MOL0     H30777   9.820   9.983   2.739  0.8124 -2.7407  0.0997
  948MOL0     H30778   9.605   9.948   2.876 -0.6414 -0.6926 -0.1078
  948MOL0     H30779   9.547   9.835   2.742 -0.1796  0.0577 -2.3440
  948MOL0     H30780   9.807   9.793   2.898  0.4782 -1.9572  0.0496
  948MOL0     H30781   9.658   9.708   2.936  2.6947 -1.1951  0.3704
  948MOL0     H30782   9.909   9.601   2.941  0.1838 -1.9727  1.5426
  948MOL0     H30783  10.237   9.599   2.967 -1.2696  1.2960  3.5313
  948MOL0     H30784  10.237   9.424   2.957 -2.4130 -1.6624  0.5311
  948MOL0     H30785  10.109   9.514   3.046  0.5342  2.6382  0.3514
  948MOL0     H30786  10.362   9.136   2.575 -3.6533  2.8809 -1.4711
  948MOL0     H30787  10.568   9.057   2.498 -2.4274  0.1246  2.6030
  948MOL0     H30788  10.804   9.076   2.492 -0.2269  1.5239  0.4971
  948MOL0     H30789  10.766   9.018   2.329  1.0491 -0.5550  0.0071
  948MOL0     H30790  10.995   9.121   2.252 -0.9725 -1.5793 -0.4311
  948MOL0     H30791  11.019   9.177   2.423 -0.8830 -1.5297  2.0881
  948MOL0     H30792  10.971   8.890   2.326 -1.2382  1.0259  0.1826
  948MOL0     H30793  10.983   8.941   2.490 -2.3320 -0.7599 -0.8973
  948MOL0     H30794  11.232   9.013   2.456  0.2213  1.2067 -0.7043
  948MOL0     H30795  11.219   8.995   2.282  1.3130 -1.6425 -0.3799
  948MOL0     H30796  11.203   8.749   2.451 -0.7276 -0.3537  0.3195
  948MOL0     H30797  11.199   8.777   2.273 -1.4003  0.5789  1.3168
  948MOL0     H30798  11.426   8.895   2.321 -1.3998  0.8248  1.4593
  948MOL0     H30799  11.413   8.719   2.293 -1.0712  1.1317 -0.9327
  948MOL0     H30800  11.575   8.768   2.490  0.3684 -4.7238 -0.9537
  948MOL0     H30801  11.438   8.675   2.540 -1.0028  0.4815  1.4532
  948MOL0     H30802  11.321   8.857   2.642  0.4462  0.8031  2.6115
  948MOL0     H30803  11.419   8.981   2.568  0.5036  0.4351  1.3138
  948MOL0     H30804  10.644   9.437   2.315  1.3959 -1.8764 -0.2053
  948MOL0     H30805  10.433   9.526   2.396  1.3661 -0.4005 -1.4346
  948MOL0     H30806  10.043   9.488   2.496 -0.9720  2.7265 -0.1033
  948MOL0     H30807   9.818   9.570   2.536 -2.3867 -0.3522  1.4056
  948MOL0     H30808  10.651  10.855   2.318 -1.7210  1.0088  2.5822
  948MOL0     H30809  10.862  10.938   2.235 -2.0586 -0.9791 -1.1140
  948MOL0     H30810  11.343  10.970   2.371  2.3760 -0.5910 -1.0971
  948MOL0     H30811  11.530  11.060   2.272 -1.3803 -0.8814 -0.6337
  948MOL0     H30812  11.511  11.449   2.057  1.5182  2.0053 -0.8136
  948MOL0     H30813  11.542  11.508   2.221 -0.9399  0.5792 -1.2526
  948MOL0     H30814  11.780  11.485   2.186 -1.1804 -2.8498  1.8634
  948MOL0     H30815  11.691  11.589   2.074  0.3827 -0.6031 -2.1290
  948MOL0     H30816  11.693  11.342   1.948  0.5034 -1.1210 -0.1647
  948MOL0     H30817  11.782  11.493   1.901 -1.4269 -1.6521 -1.8902
  948MOL0     H30818  11.879  11.259   2.065  1.3455 -1.1037 -1.6505
  948MOL0     H30819  11.966  11.407   2.049 -3.2118  1.4171  1.2668
  948MOL0     H30820  12.038  11.219   1.671 -0.0729 -0.8947  0.4907
  948MOL0     H30821  11.352  11.443   2.226  1.9925 -0.6779 -2.2414
  948MOL0     H30822  11.132  11.484   2.275  1.9204 -0.5607 -0.0883
  948MOL0     H30823  11.028  11.334   2.261 -0.6511  0.5461 -0.0012
  948MOL0     H30824  11.067  11.406   2.417 -0.6159  0.9397 -0.1144
  949MOL0     O30825   4.292   1.923   5.011 -0.0004  0.4490 -0.9633
  949MOL0     C30826   4.223   2.005   5.070  0.1063 -0.6479  0.5577
  949MOL0     O30827   4.276   2.111   5.140 -0.1130  0.0564  0.1579
  949MOL0     C30828   4.405   2.115   5.173 -0.7667  0.1930 -0.7532
  949MOL0     C30829   4.445   2.230   5.243 -0.4784 -0.8087  0.0295
  949MOL0     C30830   4.582   2.265   5.271 -0.1495  0.0236  0.7862
  949MOL0     C30831   4.676   2.167   5.242 -1.2841 -0.7344  0.0909
  949MOL0     O30832   4.802   2.197   5.275 -0.0109  0.1668  0.1823
  949MOL0     C30833   4.918   2.156   5.191 -0.0376 -0.7017 -0.5182
  949MOL0     C30834   5.050   2.199   5.253  0.2560  0.1173 -0.2861
  949MOL0     C30835   5.063   2.160   5.397  0.5216 -0.4501  0.0060
  949MOL0     C30836   5.199   2.210   5.464 -0.1201  0.5196  0.2790
  949MOL0     C30837   5.248   2.130   5.585 -1.4132  0.5932 -0.5699
  949MOL0     C30838   5.140   2.141   5.699  0.4912  0.1098  0.5738
  949MOL0     C30839   5.186   2.096   5.829 -0.6253  0.7911 -0.7863
  949MOL0     C30840   5.235   1.947   5.827  0.1461 -0.5010 -0.2961
  949MOL0     N30841   5.372   1.919   5.792 -0.5046 -0.2116 -0.3853
  949MOL0     C30842   5.401   1.791   5.758  0.4514 -0.2607  0.2992
  949MOL0     C30843   5.535   1.795   5.761  0.5498 -0.1709 -0.4922
  949MOL0     C30844   5.622   1.671   5.754  0.4831 -0.3777 -0.2369
  949MOL0     C30845   5.766   1.688   5.801  0.6026  0.5248  0.2102
  949MOL0     C30846   5.778   1.719   5.958 -0.0598  0.4412 -0.3566
  949MOL0     C30847   5.928   1.757   5.997 -0.2288  0.2098 -0.2505
  949MOL0     O30848   5.998   1.633   6.018  0.1347 -0.2252  0.4451
  949MOL0     C30849   6.106   1.634   6.110 -0.3175 -0.6882 -0.0400
  949MOL0     C30850   6.130   1.511   6.179 -1.4576  0.1155  0.4352
  949MOL0     C30851   6.212   1.493   6.285 -0.6213  0.3831  0.2887
  949MOL0     C30852   6.256   1.360   6.325 -0.1665  0.6203  0.2050
  949MOL0     C30853   6.291   1.605   6.324  0.7695  0.7255 -0.2002
  949MOL0     C30854   6.406   1.593   6.418 -0.8359  0.3334  0.5861
  949MOL0     O30855   6.389   1.539   6.541 -0.1520  0.2092  0.0895
  949MOL0     C30856   6.487   1.547   6.642 -0.3623  0.0304  0.6913
  949MOL0     C30857   6.486   1.650   6.735 -0.4656  0.2815 -0.0038
  949MOL0     C30858   6.590   1.650   6.836  0.4220 -0.2266  0.5814
  949MOL0     C30859   6.684   1.550   6.845 -0.8225 -0.0624 -0.7980
  949MOL0     O30860   6.786   1.536   6.938  0.4850 -0.7783  0.1883
  949MOL0     C30861   6.881   1.646   6.928 -0.1901  0.0474 -0.1819
  949MOL0     C30862   7.010   1.601   6.846 -0.4496  0.1304  0.5319
  949MOL0     C30863   7.065   1.470   6.901 -0.7161 -0.7159 -0.4720
  949MOL0     C30864   7.212   1.438   6.852 -0.2087 -0.7458  0.1450
  949MOL0     C30865   7.249   1.312   6.925  0.0226  0.1727  0.0245
  949MOL0     C30866   7.392   1.286   6.893  0.1679  0.1924 -0.8299
  949MOL0     C30867   7.445   1.159   6.957 -0.7429  0.4984  0.4635
  949MOL0     C30868   7.585   1.118   6.897 -0.1719  0.4037 -0.9661
  949MOL0    Cl30869   7.719   1.211   6.967 -0.3048 -0.0510 -0.1490
  949MOL0     C30870   6.679   1.452   6.761 -1.1421 -0.0504 -0.4974
  949MOL0     C30871   6.585   1.443   6.651  0.4615 -0.9548  0.0808
  949MOL0     O30872   6.503   1.657   6.387 -0.1773  0.2445 -0.0022
  949MOL0     C30873   6.252   1.727   6.266 -0.1582  0.1143 -0.2605
  949MOL0     C30874   6.167   1.747   6.155  0.6104  1.3281  0.2873
  949MOL0     N30875   5.583   1.919   5.790  0.6608  0.1320  0.0216
  949MOL0     N30876   5.480   1.997   5.811 -0.2485  0.4335  0.0946
  949MOL0     C30877   4.641   2.048   5.195 -0.4145  0.4212  0.4863
  949MOL0     C30878   4.518   2.027   5.144  0.8646  0.3171  0.3873
  949MOL0     C30879   4.083   1.988   5.050 -0.1508  0.2595  0.3994
  949MOL0     C30880   4.020   1.858   5.037 -0.0853 -0.0087 -0.5187
  949MOL0     C30881   3.889   1.827   5.010 -1.3594 -0.8014 -0.7660
  949MOL0     C30882   3.809   1.942   4.995 -0.5467  0.4404  0.7955
  949MOL0     O30883   3.674   1.938   4.994  0.2950  0.9506  0.0867
  949MOL0     C30884   3.620   1.802   4.995 -0.4565 -0.2237  0.9564
  949MOL0     C30885   3.463   1.826   4.981 -0.5208  0.5590 -0.5183
  949MOL0     C30886   3.413   1.870   4.846 -0.7109 -0.1033 -0.6553
  949MOL0     C30887   3.267   1.902   4.845 -0.1935 -0.8100 -0.2303
  949MOL0     C30888   3.194   1.773   4.854  0.3636 -0.2998  0.2400
  949MOL0     C30889   3.122   1.673   4.867  0.0208 -0.7907  0.2065
  949MOL0     C30890   3.865   2.073   5.004  0.0037  0.3762 -0.7718
  949MOL0     C30891   4.000   2.091   5.024 -0.0190 -0.0687  0.1841
  949MOL0     C30892   4.047   2.240   4.997 -0.0785  0.0207 -0.5468
  949MOL0     H30893   4.374   2.308   5.266  1.1588  0.1227  2.3893
  949MOL0     H30894   4.611   2.361   5.313  0.8017 -0.4889  1.3523
  949MOL0     H30895   4.914   2.198   5.090  0.7321  1.5869  0.3511
  949MOL0     H30896   4.931   2.048   5.184  0.5856 -0.7156  0.7064
  949MOL0     H30897   5.137   2.158   5.200  0.9368 -1.3695  1.8478
  949MOL0     H30898   5.062   2.308   5.255  2.3824 -0.0845  0.1898
  949MOL0     H30899   4.980   2.200   5.456 -1.1982 -3.9757  0.2534
  949MOL0     H30900   5.054   2.051   5.397 -1.5410 -0.3170  1.1378
  949MOL0     H30901   5.276   2.200   5.388  0.2288 -0.3969  0.7484
  949MOL0     H30902   5.189   2.314   5.496 -2.7478  0.1774  0.7884
  949MOL0     H30903   5.345   2.172   5.613 -0.0800 -2.4538 -0.2653
  949MOL0     H30904   5.255   2.024   5.559 -2.4393 -0.5025  3.0274
  949MOL0     H30905   5.114   2.247   5.706 -0.4870  0.2138 -2.8204
  949MOL0     H30906   5.047   2.089   5.676  2.0896 -1.4265 -3.2671
  949MOL0     H30907   5.109   2.093   5.906  1.4956 -0.7778  1.4324
  949MOL0     H30908   5.263   2.163   5.869 -0.5951  0.3620 -0.1102
  949MOL0     H30909   5.237   1.900   5.925  1.7450  1.0564  0.4971
  949MOL0     H30910   5.165   1.892   5.764 -0.8518 -1.8848  1.9059
  949MOL0     H30911   5.337   1.707   5.734  2.3465 -1.6984 -0.0331
  949MOL0     H30912   5.629   1.645   5.648 -2.9282  0.6211 -0.8348
  949MOL0     H30913   5.567   1.595   5.810  0.7205 -0.9449 -0.7633
  949MOL0     H30914   5.826   1.607   5.760  2.8073  0.3188  3.4675
  949MOL0     H30915   5.805   1.776   5.750  3.1452 -0.6205  0.0594
  949MOL0     H30916   5.706   1.795   5.991  0.7342 -0.8109  5.1617
  949MOL0     H30917   5.754   1.632   6.020 -1.6708 -0.0085 -1.5554
  949MOL0     H30918   5.991   1.806   5.922  0.4210 -0.1060  0.0844
  949MOL0     H30919   5.922   1.806   6.094 -3.5175 -1.7460  0.6825
  949MOL0     H30920   6.071   1.423   6.156 -0.5082 -0.7881  1.3453
  949MOL0     H30921   6.362   1.343   6.304 -0.5831 -1.4896 -0.4342
  949MOL0     H30922   6.196   1.283   6.275 -1.6722  1.7774  0.1696
  949MOL0     H30923   6.237   1.342   6.431 -2.3318 -1.7776 -0.4723
  949MOL0     H30924   6.413   1.731   6.727 -0.3563  0.1907 -2.8140
  949MOL0     H30925   6.589   1.722   6.917 -2.1880 -2.0656  2.3595
  949MOL0     H30926   6.843   1.742   6.892 -0.1458  0.5431  1.0307
  949MOL0     H30927   6.917   1.672   7.028  0.5275  0.0579 -0.4371
  949MOL0     H30928   6.985   1.579   6.742  0.7016 -3.1366  0.8259
  949MOL0     H30929   7.085   1.679   6.860  0.8051 -0.1843 -3.3321
  949MOL0     H30930   6.996   1.396   6.861  1.2600 -2.5833 -0.6233
  949MOL0     H30931   7.067   1.477   7.010 -1.4204 -2.6181 -0.2934
  949MOL0     H30932   7.284   1.515   6.883  2.6130 -3.6108  1.3480
  949MOL0     H30933   7.201   1.425   6.744 -0.9173 -1.7003  0.3210
  949MOL0     H30934   7.232   1.316   7.033  0.4473 -0.9085  0.1398
  949MOL0     H30935   7.189   1.228   6.891  1.4132 -1.0321  0.4551
  949MOL0     H30936   7.455   1.368   6.927 -1.0347  2.5184 -3.7498
  949MOL0     H30937   7.402   1.284   6.784  1.1150  0.1640 -0.7490
  949MOL0     H30938   7.371   1.082   6.933 -1.7552  1.5583  0.1015
  949MOL0     H30939   7.452   1.165   7.065 -3.3267 -2.4896  0.9773
  949MOL0     H30940   7.589   1.129   6.789  0.8226  0.9441 -0.8836
  949MOL0     H30941   7.603   1.013   6.924 -1.9520  0.0557 -1.0335
  949MOL0     H30942   6.752   1.373   6.770 -1.0050  0.2807  1.9907
  949MOL0     H30943   6.590   1.359   6.583 -2.5210  0.0529 -1.5535
  949MOL0     H30944   6.299   1.816   6.306  0.6589 -0.6798  0.5940
  949MOL0     H30945   6.157   1.846   6.111 -0.7938  1.5882  1.1525
  949MOL0     H30946   4.721   1.977   5.180  1.1706  1.7298  2.2895
  949MOL0     H30947   4.495   1.932   5.098  2.3461 -0.5952  1.4439
  949MOL0     H30948   4.085   1.778   5.070  1.9242  0.6960 -2.5286
  949MOL0     H30949   3.857   1.724   5.004  1.6293 -1.7994 -1.2261
  949MOL0     H30950   3.647   1.740   4.910  2.0287 -2.2552  3.0816
  949MOL0     H30951   3.641   1.747   5.087 -0.2820 -4.8752 -1.5742
  949MOL0     H30952   3.437   1.902   5.055 -0.8399 -1.8895  2.0766
  949MOL0     H30953   3.418   1.738   5.029  0.9451  0.8075  1.4630
  949MOL0     H30954   3.455   1.966   4.813  0.4248 -1.1287 -2.3604
  949MOL0     H30955   3.441   1.796   4.770 -0.7286 -0.3595 -0.4130
  949MOL0     H30956   3.235   1.943   4.748 -2.4197 -0.7431  0.4752
  949MOL0     H30957   3.238   1.972   4.924  0.9804  0.5390 -0.9530
  949MOL0     H30958   3.053   1.592   4.875 -1.9029  0.8150  0.6263
  949MOL0     H30959   3.795   2.156   5.010 -1.0838 -0.5455 -0.1911
  949MOL0     H30960   4.024   2.309   5.079  3.2533 -0.4970  0.9895
  949MOL0     H30961   4.155   2.237   4.981  0.1186 -2.3602  0.8212
  949MOL0     H30962   3.994   2.282   4.911  0.5125 -1.3896 -1.6354
  950MOL0     O30963  10.648   0.570  10.659 -1.0661  0.0413 -0.2563
  950MOL0     C30964  10.720   0.563  10.559  0.7630  0.0441 -0.4209
  950MOL0     O30965  10.854   0.545  10.559 -0.1395  0.4095 -0.0233
  950MOL0     C30966  10.926   0.561  10.681  0.5859 -0.7476  0.1863
  950MOL0     C30967  10.907   0.667  10.770  0.0216  0.0206 -0.3871
  950MOL0     C30968  10.998   0.686  10.874  0.2581  0.2738  0.4232
  950MOL0     C30969  11.097   0.586  10.908  0.0572  0.4102 -0.5034
  950MOL0     O30970  11.197   0.611  10.997 -0.7856 -0.0097  0.0061
  950MOL0     C30971  11.168   0.713  11.098  0.6830  0.4153 -0.1034
  950MOL0     C30972  11.270   0.710  11.208  0.0779  0.1409  0.0307
  950MOL0     C30973  11.415   0.721  11.158 -0.7487 -0.8521 -0.4880
  950MOL0     C30974  11.515   0.724  11.279  0.8870 -0.2858 -0.2072
  950MOL0     C30975  11.656   0.712  11.236 -0.0191 -0.2878  0.2263
  950MOL0     C30976  11.708   0.568  11.204  0.1593 -0.4756 -0.2621
  950MOL0     C30977  11.724   0.485  11.337 -0.4710 -0.0896 -0.0602
  950MOL0     C30978  11.777   0.340  11.302  0.3522  0.0491 -0.5901
  950MOL0     N30979  11.908   0.351  11.240  0.2302  0.1797 -0.3997
  950MOL0     C30980  12.019   0.372  11.314 -0.4630 -0.0032 -0.3635
  950MOL0     C30981  12.110   0.379  11.219 -0.5223  0.2294  0.2392
  950MOL0     C30982  12.259   0.416  11.223  0.6948 -0.4748  0.8356
  950MOL0     C30983  12.332   0.465  11.098  0.1839  0.5662  0.0601
  950MOL0     C30984  12.477   0.494  11.146 -0.1963  0.2752  0.8274
  950MOL0     C30985  12.557   0.577  11.041 -0.1937  0.1945  0.2901
  950MOL0     O30986  12.625   0.681  11.111  0.5910  0.5830 -0.7473
  950MOL0     C30987  12.760   0.692  11.110  1.0614  0.1891 -0.0074
  950MOL0     C30988  12.835   0.580  11.110 -0.0350  0.0123  0.8094
  950MOL0     C30989  12.970   0.588  11.099 -0.5830 -0.8005  0.7788
  950MOL0     C30990  13.041   0.455  11.069 -0.7000  0.2830  0.2112
  950MOL0     C30991  13.033   0.712  11.114  0.3301 -0.6576  0.1991
  950MOL0     C30992  13.174   0.733  11.086 -0.1714 -0.1474  0.1351
  950MOL0     O30993  13.258   0.625  11.122  0.3528 -0.2890 -0.3478
  950MOL0     C30994  13.381   0.604  11.070  0.6990  0.6328  0.2071
  950MOL0     C30995  13.409   0.609  10.931 -0.3533 -0.9912  0.0922
  950MOL0     C30996  13.522   0.562  10.870 -0.4056  0.1674  0.5618
  950MOL0     C30997  13.631   0.531  10.955 -0.3020 -0.0208  0.3583
  950MOL0     O30998  13.743   0.494  10.890 -0.3026 -0.2864 -0.0972
  950MOL0     C30999  13.870   0.510  10.963 -0.5574 -0.2541 -0.1965
  950MOL0     C31000  13.992   0.490  10.871  0.5606 -0.2614 -0.1288
  950MOL0     C31001  14.129   0.507  10.945 -0.6277  0.4814 -0.7995
  950MOL0     C31002  14.196   0.382  10.991  0.5451 -0.3755 -0.8753
  950MOL0     C31003  14.324   0.408  11.067  0.3083 -0.1863  0.3108
  950MOL0     C31004  14.446   0.404  10.970 -0.5003 -0.6735  0.2106
  950MOL0     C31005  14.578   0.410  11.051 -0.0857 -0.7855  0.1560
  950MOL0     C31006  14.699   0.411  10.962  0.2105  0.7145  0.0132
  950MOL0    Cl31007  14.844   0.375  11.068  0.1451  0.0910  0.2658
  950MOL0     C31008  13.618   0.553  11.093 -1.0360  0.7742  0.4152
  950MOL0     C31009  13.490   0.571  11.156 -0.6969 -0.5576  0.5026
  950MOL0     O31010  13.219   0.833  11.023  0.3774 -0.1512 -0.3198
  950MOL0     C31011  12.945   0.825  11.125  0.0842 -0.2220  0.1022
  950MOL0     C31012  12.810   0.817  11.131  0.9846  0.6336 -0.1027
  950MOL0     N31013  12.052   0.354  11.090 -0.3712  0.2973 -0.0562
  950MOL0     N31014  11.926   0.344  11.107 -0.0141 -0.6888 -0.1786
  950MOL0     C31015  11.112   0.483  10.817  0.3080 -0.6072 -0.1620
  950MOL0     C31016  11.033   0.478  10.702 -0.1513  0.8277  0.7793
  950MOL0     C31017  10.660   0.580  10.424 -0.6924  0.6985  0.8943
  950MOL0     C31018  10.733   0.520  10.312  0.6009  0.1610 -0.2903
  950MOL0     C31019  10.684   0.528  10.183 -0.1442  0.1719  0.1434
  950MOL0     C31020  10.558   0.587  10.154  0.0438 -0.4832  0.4049
  950MOL0     O31021  10.511   0.576  10.024 -0.4105 -0.0374  0.7218
  950MOL0     C31022  10.371   0.606  10.005  0.4690  0.2746  0.4931
  950MOL0     C31023  10.345   0.572   9.862 -0.7496 -0.6055  0.5100
  950MOL0     C31024  10.227   0.655   9.808  0.6389  0.3134  0.0258
  950MOL0     C31025  10.190   0.631   9.664 -0.1730 -0.1711  0.5113
  950MOL0     C31026  10.111   0.509   9.647 -0.3186  0.0862  0.4502
  950MOL0     C31027  10.063   0.395   9.625  1.0055 -0.7059 -0.0269
  950MOL0     C31028  10.486   0.643  10.265 -0.8561  0.3507 -0.1036
  950MOL0     C31029  10.539   0.645  10.399 -0.3099  0.8183 -0.0015
  950MOL0     C31030  10.479   0.735  10.501 -0.2799 -0.1378  0.2485
  950MOL0     H31031  10.834   0.747  10.765 -0.0699 -0.1325 -2.3136
  950MOL0     H31032  10.985   0.781  10.924 -1.3333 -0.3246  1.2266
  950MOL0     H31033  11.073   0.710  11.152  1.1268  1.0767  0.7303
  950MOL0     H31034  11.176   0.807  11.043  2.8265  0.2124 -0.1915
  950MOL0     H31035  11.249   0.803  11.262  3.1340 -0.3312  2.2475
  950MOL0     H31036  11.251   0.622  11.270 -1.1847 -0.1460 -0.7281
  950MOL0     H31037  11.441   0.639  11.090  1.6182 -2.3358  1.9921
  950MOL0     H31038  11.426   0.819  11.111  1.7050 -0.3683  0.9046
  950MOL0     H31039  11.495   0.818  11.331  1.8249  0.2470 -0.7663
  950MOL0     H31040  11.488   0.644  11.349 -1.0373  0.0873 -0.4614
  950MOL0     H31041  11.707   0.749  11.325 -1.1132 -1.9077  1.6030
  950MOL0     H31042  11.675   0.779  11.152  2.0805  0.0168  0.8865
  950MOL0     H31043  11.634   0.522  11.138  1.1653 -1.7969 -0.5168
  950MOL0     H31044  11.802   0.567  11.148  0.7819 -0.9252  0.7611
  950MOL0     H31045  11.629   0.486  11.391 -0.0470 -1.3306  0.7568
  950MOL0     H31046  11.798   0.534  11.400 -0.2406  1.6421 -1.5987
  950MOL0     H31047  11.787   0.283  11.396  1.9815  0.7292 -0.3129
  950MOL0     H31048  11.703   0.282  11.246 -0.6420  0.1282  0.6036
  950MOL0     H31049  12.034   0.392  11.419 -0.9742  1.9983 -0.6205
  950MOL0     H31050  12.318   0.331  11.259  1.9778 -0.4561 -1.0904
  950MOL0     H31051  12.265   0.492  11.301  0.0044 -1.6610  2.1047
  950MOL0     H31052  12.329   0.384  11.025 -0.6215 -0.1156  0.8363
  950MOL0     H31053  12.283   0.556  11.059 -0.6691  0.1670  0.1785
  950MOL0     H31054  12.464   0.557  11.236 -1.6793  0.8777  0.2248
  950MOL0     H31055  12.526   0.402  11.178  1.5213  1.0986  0.6806
  950MOL0     H31056  12.629   0.513  10.987 -0.9562  0.4678 -1.1093
  950MOL0     H31057  12.490   0.620  10.966 -0.9012 -0.8143  0.3332
  950MOL0     H31058  12.786   0.484  11.115 -0.4625  0.2067  0.3734
  950MOL0     H31059  13.100   0.427  11.157  0.7066 -1.4966 -1.2280
  950MOL0     H31060  13.107   0.466  10.982 -0.1487 -1.0045  0.4357
  950MOL0     H31061  12.975   0.370  11.049  1.9529 -1.9289  0.1892
  950MOL0     H31062  13.326   0.643  10.870  1.3204 -0.8920 -2.2496
  950MOL0     H31063  13.546   0.579  10.765  0.7826  0.3562  0.8491
  950MOL0     H31064  13.862   0.605  11.018 -2.7952 -1.5976  2.0318
  950MOL0     H31065  13.859   0.425  11.031  0.4639 -0.6602 -0.5318
  950MOL0     H31066  13.982   0.398  10.812 -0.3167  0.0508 -0.4846
  950MOL0     H31067  13.990   0.575  10.802  0.4624  0.8504  1.1945
  950MOL0     H31068  14.117   0.577  11.029 -0.6397 -1.1164  0.5681
  950MOL0     H31069  14.204   0.543  10.874  0.3745 -0.0295 -0.0268
  950MOL0     H31070  14.220   0.318  10.905 -1.3984  0.1280 -1.8445
  950MOL0     H31071  14.124   0.324  11.049  0.1750 -0.0664 -1.0262
  950MOL0     H31072  14.328   0.510  11.107 -1.7136 -0.1740  0.5669
  950MOL0     H31073  14.338   0.336  11.148 -0.4184  0.8292  1.3801
  950MOL0     H31074  14.448   0.487  10.899  4.1950  0.8065  1.7123
  950MOL0     H31075  14.459   0.311  10.915 -0.6362 -0.6063  0.0653
  950MOL0     H31076  14.587   0.322  11.115  0.1910 -0.7150  0.2134
  950MOL0     H31077  14.574   0.497  11.118 -0.2476 -1.1459  0.6200
  950MOL0     H31078  14.702   0.507  10.912  1.0463 -0.3282 -2.0536
  950MOL0     H31079  14.682   0.335  10.886 -1.5877  2.2185 -1.1652
  950MOL0     H31080  13.693   0.547  11.172  0.2540  1.9140 -0.6703
  950MOL0     H31081  13.477   0.579  11.263 -0.8281 -1.6994  0.5929
  950MOL0     H31082  12.998   0.918  11.145  2.6290 -1.6559  0.4571
  950MOL0     H31083  12.740   0.898  11.146 -1.3106 -1.1893 -0.4758
  950MOL0     H31084  11.179   0.403  10.846  0.4291 -0.3581  0.2639
  950MOL0     H31085  11.047   0.396  10.631  0.5295  0.6863  1.0667
  950MOL0     H31086  10.820   0.458  10.333  0.2552  0.8160  4.1585
  950MOL0     H31087  10.731   0.473  10.102 -0.5161 -1.4471  0.9885
  950MOL0     H31088  10.296   0.550  10.062  0.0881  1.6117  1.3573
  950MOL0     H31089  10.348   0.706  10.044 -1.4470 -0.9289  2.6756
  950MOL0     H31090  10.318   0.467   9.852 -0.7132 -0.6117  0.4750
  950MOL0     H31091  10.424   0.600   9.792 -0.5793  1.7171  1.5317
  950MOL0     H31092  10.132   0.649   9.861  0.0561  0.1267 -1.0138
  950MOL0     H31093  10.257   0.760   9.816  1.1439  0.4348 -2.4876
  950MOL0     H31094  10.279   0.626   9.601  1.1402  0.4039  2.2631
  950MOL0     H31095  10.134   0.716   9.623  0.9452  0.5704  0.4623
  950MOL0     H31096  10.018   0.302   9.595 -2.3898  1.1861 -1.3791
  950MOL0     H31097  10.385   0.683  10.254 -1.7422 -2.1877 -2.2844
  950MOL0     H31098  10.554   0.769  10.573 -0.0422  0.2892 -0.1873
  950MOL0     H31099  10.419   0.816  10.457  1.1314  0.3595 -0.8604
  950MOL0     H31100  10.404   0.685  10.562 -2.1445  0.8427 -1.1138
  951MOL0     O31101   0.063   0.459   8.379 -0.3633 -0.4573 -0.8060
  951MOL0     C31102   0.100   0.495   8.492 -0.2335 -0.6318 -0.2016
  951MOL0     O31103   0.224   0.476   8.537  0.3358  0.3869 -0.1911
  951MOL0     C31104   0.305   0.394   8.462 -0.3507  0.8026  0.1965
  951MOL0     C31105   0.268   0.267   8.424  0.4901  0.4818 -0.2721
  951MOL0     C31106   0.351   0.188   8.352 -0.3920  0.3326  0.0435
  951MOL0     C31107   0.482   0.228   8.312 -0.6070  0.3420  0.0623
  951MOL0     O31108   0.571   0.150   8.253  0.0597  0.1687 -0.0141
  951MOL0     C31109   0.531   0.026   8.190 -0.3577 -0.9533 -0.0139
  951MOL0     C31110   0.666  -0.052   8.154  0.3085  0.3806  0.2181
  951MOL0     C31111   0.756   0.040   8.069  0.0104  0.4399  0.1008
  951MOL0     C31112   0.882  -0.050   8.034  0.2054  1.2113 -0.3023
  951MOL0     C31113   0.993   0.037   7.976 -0.5011  0.5558 -0.4271
  951MOL0     C31114   1.062   0.117   8.084 -0.1441 -1.2701  0.0736
  951MOL0     C31115   1.178   0.192   8.021 -0.1129  0.2414 -0.3691
  951MOL0     C31116   1.258   0.260   8.129  0.1323 -0.2987 -0.7873
  951MOL0     N31117   1.374   0.324   8.076 -0.1378 -0.4034  0.0808
  951MOL0     C31118   1.460   0.288   7.976  0.1834 -0.0647 -0.3504
  951MOL0     C31119   1.528   0.399   7.934  0.5973 -0.1220  0.3440
  951MOL0     C31120   1.628   0.408   7.823 -0.0169 -0.0883  0.5873
  951MOL0     C31121   1.732   0.513   7.879 -0.1768  0.1196 -0.1237
  951MOL0     C31122   1.851   0.513   7.785 -0.0847 -0.5347 -0.5969
  951MOL0     C31123   1.967   0.600   7.824 -0.0420  0.2984 -0.3262
  951MOL0     O31124   2.047   0.582   7.713  0.3295 -0.2918 -0.0824
  951MOL0     C31125   2.163   0.658   7.713  0.4204  0.5078  0.3376
  951MOL0     C31126   2.243   0.628   7.599  0.2359  0.5628 -0.9108
  951MOL0     C31127   2.379   0.678   7.601  0.0600 -0.6144  0.5627
  951MOL0     C31128   2.461   0.611   7.496 -0.6770 -0.4175  0.5355
  951MOL0     C31129   2.424   0.762   7.700  0.3896 -0.7104 -0.2716
  951MOL0     C31130   2.563   0.819   7.710  0.7454 -0.6599 -0.4101
  951MOL0     O31131   2.663   0.787   7.622 -0.6021  0.0263 -0.5539
  951MOL0     C31132   2.796   0.822   7.654  0.4127  0.5555  0.5157
  951MOL0     C31133   2.860   0.822   7.775 -0.7354 -0.0561 -0.5670
  951MOL0     C31134   2.997   0.857   7.779 -0.2290  0.4870 -0.3656
  951MOL0     C31135   3.062   0.912   7.669 -0.3170  0.7017  0.1125
  951MOL0     O31136   3.195   0.952   7.691 -0.6422 -0.1724 -0.1086
  951MOL0     C31137   3.254   1.053   7.605 -0.2108 -0.1890 -0.0898
  951MOL0     C31138   3.406   1.071   7.644 -0.3095 -0.5575  0.2287
  951MOL0     C31139   3.498   0.955   7.608  0.2087 -0.0636 -0.6807
  951MOL0     C31140   3.641   1.002   7.608 -0.2758 -0.9661 -0.2300
  951MOL0     C31141   3.734   0.895   7.538  0.0169 -0.2746  0.4718
  951MOL0     C31142   3.864   0.962   7.502 -0.6429 -0.5016 -0.1975
  951MOL0     C31143   3.975   0.874   7.448 -0.9080  0.3696  0.0008
  951MOL0     C31144   3.941   0.755   7.367  0.0688  0.0560  0.7112
  951MOL0    Cl31145   4.093   0.702   7.323 -0.0577 -0.2365  0.0544
  951MOL0     C31146   2.985   0.921   7.548  0.1343  0.8811  0.6072
  951MOL0     C31147   2.857   0.874   7.540 -0.6655 -1.0692 -0.5487
  951MOL0     O31148   2.573   0.909   7.797  0.2050  1.0041 -0.6460
  951MOL0     C31149   2.327   0.804   7.800 -0.8004  1.0059 -0.0736
  951MOL0     C31150   2.206   0.749   7.810  1.1657  0.3572  0.2789
  951MOL0     N31151   1.481   0.504   8.007  0.1433 -0.0168 -0.0134
  951MOL0     N31152   1.396   0.453   8.098 -0.0787  0.2932  0.2192
  951MOL0     C31153   0.525   0.351   8.354  0.0580  0.5889  0.0988
  951MOL0     C31154   0.433   0.433   8.423 -0.0969 -0.6306 -0.2333
  951MOL0     C31155   0.000   0.568   8.584 -0.1068  0.4164  0.1529
  951MOL0     C31156   0.036   0.581   8.726 -0.6573  0.4789  0.1332
  951MOL0     C31157  -0.038   0.654   8.814  0.0547 -0.4094 -0.1815
  951MOL0     C31158  -0.161   0.713   8.772  0.2214  0.0768 -0.0087
  951MOL0     O31159  -0.222   0.796   8.869 -0.1388  0.8263  0.7507
  951MOL0     C31160  -0.353   0.849   8.846  0.2786 -0.6425 -0.0654
  951MOL0     C31161  -0.459   0.739   8.831 -0.3578  1.1084  0.0750
  951MOL0     C31162  -0.585   0.787   8.775  0.5160  0.2858  0.9538
  951MOL0     C31163  -0.582   0.809   8.616 -0.0147  0.0603  0.0427
  951MOL0     C31164  -0.576   0.685   8.546 -0.1391 -0.1611 -0.4495
  951MOL0     C31165  -0.560   0.572   8.499 -0.0310 -0.6541  0.0392
  951MOL0     C31166  -0.208   0.696   8.637 -0.3675 -0.2495 -0.7000
  951MOL0     C31167  -0.128   0.623   8.549 -0.0606 -0.4292 -0.1683
  951MOL0     C31168  -0.193   0.606   8.412 -0.7672 -0.2713  0.6428
  951MOL0     H31169   0.171   0.228   8.453  0.9924  0.5564  1.6710
  951MOL0     H31170   0.314   0.094   8.313  0.9557  0.2939 -1.2092
  951MOL0     H31171   0.470   0.045   8.101 -3.0516 -4.2959  0.8537
  951MOL0     H31172   0.463  -0.032   8.254  0.8879 -2.4696 -0.0184
  951MOL0     H31173   0.720  -0.065   8.248 -0.1769  3.6079  1.0550
  951MOL0     H31174   0.642  -0.150   8.113  0.0258 -0.2835  1.8848
  951MOL0     H31175   0.709   0.082   7.979 -0.6822 -0.1059  0.2082
  951MOL0     H31176   0.777   0.127   8.131 -0.8948  0.3308  0.5694
  951MOL0     H31177   0.929  -0.093   8.122  1.6881 -0.1592 -1.7137
  951MOL0     H31178   0.854  -0.132   7.967  0.6291 -0.6415  1.6881
  951MOL0     H31179   0.975   0.097   7.886  0.5569  1.8110  0.1625
  951MOL0     H31180   1.067  -0.036   7.943  0.0657  1.4328 -1.1460
  951MOL0     H31181   0.988   0.188   8.121  1.2736  0.7067 -0.7062
  951MOL0     H31182   1.100   0.053   8.165 -0.2924  0.4428  1.5535
  951MOL0     H31183   1.140   0.268   7.952  0.5218  1.7830  0.9091
  951MOL0     H31184   1.243   0.127   7.961  0.9500 -0.5037  1.5161
  951MOL0     H31185   1.195   0.337   8.175 -0.4615 -1.5012  0.4992
  951MOL0     H31186   1.279   0.191   8.212  0.3513  1.7826  0.9981
  951MOL0     H31187   1.465   0.195   7.919  1.5319 -0.2122 -0.0160
  951MOL0     H31188   1.574   0.436   7.732 -2.8367 -1.1249  1.8370
  951MOL0     H31189   1.666   0.309   7.796 -2.2006 -0.5394 -1.1955
  951MOL0     H31190   1.693   0.614   7.890  0.2630  0.2907 -0.1036
  951MOL0     H31191   1.758   0.481   7.980  0.6218  1.5443  0.1410
  951MOL0     H31192   1.896   0.414   7.779  3.8073  0.8185  2.1732
  951MOL0     H31193   1.812   0.543   7.687 -0.0308 -1.6368 -0.9634
  951MOL0     H31194   1.934   0.702   7.845  1.6847  0.8073  0.1389
  951MOL0     H31195   2.014   0.561   7.915  0.5366  1.3200 -0.1737
  951MOL0     H31196   2.211   0.558   7.523 -2.2734 -0.9349  1.3637
  951MOL0     H31197   2.527   0.684   7.449 -2.1938 -0.2145 -1.4491
  951MOL0     H31198   2.414   0.562   7.410 -1.5920 -0.9293  1.3008
  951MOL0     H31199   2.528   0.536   7.537  1.1568  0.5368 -0.5745
  951MOL0     H31200   2.807   0.788   7.863  0.3881  1.3307  0.7098
  951MOL0     H31201   3.045   0.851   7.877 -1.3315  2.2491  0.3502
  951MOL0     H31202   3.229   1.033   7.501 -2.1678  1.1735  0.0834
  951MOL0     H31203   3.217   1.154   7.624 -2.0467 -1.2022  2.2262
  951MOL0     H31204   3.445   1.152   7.582 -3.5853  0.2455 -0.9605
  951MOL0     H31205   3.414   1.099   7.749  1.5099 -1.2693  0.3112
  951MOL0     H31206   3.476   0.925   7.505 -0.0118  1.4728 -1.1058
  951MOL0     H31207   3.480   0.870   7.675  1.3512  0.5791  0.4891
  951MOL0     H31208   3.683   1.035   7.703  0.7851 -2.8602  0.0117
  951MOL0     H31209   3.640   1.094   7.548 -0.2535 -1.6693 -1.3351
  951MOL0     H31210   3.753   0.809   7.603 -0.6747 -0.5080  0.3795
  951MOL0     H31211   3.691   0.871   7.441 -1.1021  0.9346  0.6411
  951MOL0     H31212   3.911   1.010   7.589  0.6072  0.1876 -1.2187
  951MOL0     H31213   3.837   1.041   7.431  0.0118  0.9204  1.0720
  951MOL0     H31214   4.038   0.834   7.528 -1.1856 -1.1590 -0.5123
  951MOL0     H31215   4.045   0.941   7.399  0.1199  1.3054  2.5727
  951MOL0     H31216   3.888   0.781   7.275 -1.7606 -0.1587  1.6693
  951MOL0     H31217   3.881   0.686   7.426  1.0793 -2.4429 -1.0122
  951MOL0     H31218   3.033   0.953   7.456 -1.5151 -2.6940 -1.7163
  951MOL0     H31219   2.805   0.871   7.445 -2.0477  0.6371  0.1076
  951MOL0     H31220   2.349   0.865   7.887 -0.9556 -1.7671  2.0722
  951MOL0     H31221   2.144   0.781   7.893  0.8611  0.6358 -0.0547
  951MOL0     H31222   0.623   0.392   8.332  0.3951 -0.8620 -1.2640
  951MOL0     H31223   0.468   0.531   8.456  2.9084 -2.2051  1.7113
  951MOL0     H31224   0.131   0.542   8.759  0.9201  2.6337 -1.5903
  951MOL0     H31225  -0.007   0.659   8.918 -1.0534  0.0811  0.1408
  951MOL0     H31226  -0.378   0.914   8.931 -0.7246 -1.6845  0.4624
  951MOL0     H31227  -0.348   0.915   8.758 -2.1199 -2.2292 -1.5148
  951MOL0     H31228  -0.485   0.700   8.930  0.0690  1.7230  0.4342
  951MOL0     H31229  -0.414   0.654   8.779 -0.0387  0.1429  1.8589
  951MOL0     H31230  -0.666   0.720   8.803  0.2607  0.5220  0.7873
  951MOL0     H31231  -0.618   0.882   8.818 -0.3619 -0.5434  2.1642
  951MOL0     H31232  -0.494   0.872   8.594  1.1534 -1.5863 -0.1581
  951MOL0     H31233  -0.668   0.859   8.570  2.3031  2.4613 -2.1042
  951MOL0     H31234  -0.534   0.476   8.458  0.8298 -0.4624  0.1077
  951MOL0     H31235  -0.303   0.737   8.605 -0.4574  1.4037  1.4800
  951MOL0     H31236  -0.286   0.658   8.387 -0.4930  1.1593  2.4359
  951MOL0     H31237  -0.116   0.639   8.343  1.2845 -2.4568  1.7299
  951MOL0     H31238  -0.221   0.502   8.390  3.4789 -1.4922  0.0903
  952MOL0     O31239   7.509   5.808   2.436 -0.5932 -0.5225 -0.0379
  952MOL0     C31240   7.413   5.747   2.391  0.3588 -0.6837  0.2031
  952MOL0     O31241   7.421   5.634   2.319 -0.2338  0.2548  0.1546
  952MOL0     C31242   7.548   5.576   2.294 -0.2317  0.6279 -0.1304
  952MOL0     C31243   7.639   5.623   2.202  0.0359 -0.1583 -0.5260
  952MOL0     C31244   7.758   5.551   2.185  0.3466  0.2521 -0.4321
  952MOL0     C31245   7.796   5.449   2.265  0.1595 -0.4058 -0.6406
  952MOL0     O31246   7.916   5.392   2.233 -0.0386 -0.1781 -0.0708
  952MOL0     C31247   7.930   5.266   2.291 -0.2050  0.6281  0.0850
  952MOL0     C31248   8.063   5.207   2.250  0.3186  0.8901  0.7827
  952MOL0     C31249   8.065   5.158   2.105  0.0214 -0.2035  0.5183
  952MOL0     C31250   8.194   5.070   2.090 -0.7055  0.6541  0.4677
  952MOL0     C31251   8.314   5.164   2.094 -0.1308  0.4469 -0.7406
  952MOL0     C31252   8.441   5.073   2.112 -0.3876  0.1094  0.3329
  952MOL0     C31253   8.471   5.009   1.978 -0.7105  0.0460 -0.0227
  952MOL0     C31254   8.570   4.903   1.991 -0.6674  0.0198  0.7624
  952MOL0     N31255   8.638   4.875   1.863 -0.0929  0.0444 -0.9353
  952MOL0     C31256   8.601   4.788   1.768 -0.4539 -0.2063  0.0782
  952MOL0     C31257   8.695   4.800   1.674  0.1386 -0.5521 -0.0251
  952MOL0     C31258   8.707   4.733   1.539 -0.4147  0.0712 -0.2251
  952MOL0     C31259   8.581   4.663   1.482  0.7947  0.4104 -0.0308
  952MOL0     C31260   8.607   4.623   1.336  0.1333  0.8922 -0.2726
  952MOL0     C31261   8.502   4.535   1.281 -0.3730  0.1134 -0.5224
  952MOL0     O31262   8.378   4.612   1.267 -0.1233  0.6210  0.0873
  952MOL0     C31263   8.279   4.565   1.185  0.0232 -0.0505  0.0003
  952MOL0     C31264   8.277   4.462   1.092 -0.3048 -0.1095  0.2679
  952MOL0     C31265   8.164   4.437   1.011 -0.2956 -0.3188  0.0531
  952MOL0     C31266   8.179   4.326   0.912  0.2700  0.5573 -0.0074
  952MOL0     C31267   8.034   4.498   1.039 -0.1536  0.6221 -0.4287
  952MOL0     C31268   7.907   4.459   0.972 -0.6828 -0.2822 -1.0813
  952MOL0     O31269   7.889   4.326   0.965 -0.1095  0.0429  0.0025
  952MOL0     C31270   7.801   4.278   0.876  0.2126  0.6146 -0.4572
  952MOL0     C31271   7.853   4.194   0.781 -0.1556  0.7070  0.4208
  952MOL0     C31272   7.772   4.150   0.672  0.4232 -0.5724  0.1719
  952MOL0     C31273   7.643   4.199   0.662 -0.0895  0.0669 -0.5026
  952MOL0     O31274   7.556   4.163   0.567  0.4996 -0.0435 -0.2934
  952MOL0     C31275   7.570   4.030   0.518 -0.1506  0.4583 -0.1051
  952MOL0     C31276   7.460   4.002   0.415 -0.5424  0.1621 -0.4815
  952MOL0     C31277   7.323   3.963   0.473 -0.5819 -0.1666 -0.2592
  952MOL0     C31278   7.212   3.975   0.365 -0.0125 -0.0312  0.7257
  952MOL0     C31279   7.083   3.895   0.413 -0.3916 -0.7977  0.3687
  952MOL0     C31280   6.953   3.940   0.358 -0.2058  0.7613 -0.2146
  952MOL0     C31281   6.893   4.053   0.444 -0.4131 -0.3366 -0.1308
  952MOL0     C31282   6.843   4.003   0.581 -0.9821  0.3629 -0.7224
  952MOL0    Cl31283   6.793   4.139   0.684 -0.4046 -0.0449  0.3602
  952MOL0     C31284   7.595   4.291   0.759 -0.3811  0.1973  0.7027
  952MOL0     C31285   7.669   4.323   0.875  0.3326  0.3156  0.2774
  952MOL0     O31286   7.817   4.548   0.960 -0.0835 -0.1092 -0.5688
  952MOL0     C31287   8.042   4.586   1.143 -0.4202  0.6820  0.8610
  952MOL0     C31288   8.157   4.632   1.204 -0.5572 -0.6812  0.8494
  952MOL0     N31289   8.793   4.896   1.710  0.7539 -0.3940 -1.3130
  952MOL0     N31290   8.755   4.948   1.829 -0.2243  0.3574  0.3974
  952MOL0     C31291   7.690   5.394   2.351 -0.6869  0.3555  0.1611
  952MOL0     C31292   7.570   5.460   2.367 -0.2684 -0.5835 -0.2562
  952MOL0     C31293   7.273   5.799   2.423  0.2531 -0.2444  0.5562
  952MOL0     C31294   7.165   5.707   2.382 -0.3886 -0.9438 -0.5003
  952MOL0     C31295   7.037   5.741   2.423  0.9396 -0.1995 -0.1710
  952MOL0     C31296   6.998   5.865   2.483 -0.2954  0.6874 -0.0087
  952MOL0     O31297   6.871   5.892   2.529 -0.4889 -0.2679  0.0333
  952MOL0     C31298   6.768   5.807   2.477  0.2838 -0.5079 -0.4409
  952MOL0     C31299   6.721   5.851   2.334  0.1585  0.5855 -0.6496
  952MOL0     C31300   6.696   5.999   2.311 -0.8214  0.0067  0.4123
  952MOL0     C31301   6.645   6.024   2.164  0.2893 -0.5306 -0.5629
  952MOL0     C31302   6.753   5.985   2.067  0.7504 -0.0843  1.0875
  952MOL0     C31303   6.818   5.956   1.974  0.7925  0.3050  0.4437
  952MOL0     C31304   7.101   5.951   2.514 -0.6008 -0.4759 -1.1390
  952MOL0     C31305   7.240   5.923   2.488  0.3074 -0.1387  1.2007
  952MOL0     C31306   7.344   6.029   2.515 -0.0605  0.0431 -0.2630
  952MOL0     H31307   7.597   5.705   2.144 -1.9312 -0.7615 -0.0267
  952MOL0     H31308   7.826   5.566   2.102  0.3992 -0.4210 -0.5123
  952MOL0     H31309   7.853   5.197   2.257 -0.1776 -0.6422  2.4498
  952MOL0     H31310   7.932   5.267   2.400  0.9211 -1.1936  0.1128
  952MOL0     H31311   8.135   5.287   2.267  1.5998  0.3667 -1.7579
  952MOL0     H31312   8.099   5.129   2.318 -0.0846 -1.0920 -1.1641
  952MOL0     H31313   7.978   5.098   2.077 -1.1786  0.0566  3.4316
  952MOL0     H31314   8.078   5.247   2.042  1.7506 -1.3388 -0.8400
  952MOL0     H31315   8.200   5.003   2.175 -2.7324  0.9145  0.8426
  952MOL0     H31316   8.187   5.018   1.993  1.5833  0.9964  0.0408
  952MOL0     H31317   8.309   5.234   2.179  1.4703  0.7260 -0.8538
  952MOL0     H31318   8.321   5.224   2.003  0.8979  0.9073 -0.3681
  952MOL0     H31319   8.527   5.132   2.146 -1.2990  1.7672 -0.1160
  952MOL0     H31320   8.414   4.994   2.183  1.2050 -0.8494 -0.0839
  952MOL0     H31321   8.515   5.081   1.908  1.9517  0.0661  1.5359
  952MOL0     H31322   8.381   4.966   1.933 -0.6856 -0.2010  0.1616
  952MOL0     H31323   8.647   4.926   2.065 -0.1563 -1.7325  0.8275
  952MOL0     H31324   8.527   4.812   2.035 -0.5868 -0.7579 -0.6904
  952MOL0     H31325   8.523   4.713   1.774 -0.0102 -0.8316 -1.4432
  952MOL0     H31326   8.789   4.660   1.547 -0.9791 -0.7230 -1.4998
  952MOL0     H31327   8.745   4.799   1.460 -0.4025 -0.3435 -0.5718
  952MOL0     H31328   8.559   4.577   1.547 -1.5821  0.7459 -0.2938
  952MOL0     H31329   8.496   4.732   1.484  0.8262  0.4590 -0.3557
  952MOL0     H31330   8.622   4.704   1.266  1.4803  0.9196  0.0152
  952MOL0     H31331   8.701   4.566   1.345 -0.1791  0.2323 -1.0955
  952MOL0     H31332   8.534   4.502   1.182 -0.1102  2.2872 -1.2136
  952MOL0     H31333   8.488   4.448   1.346  1.6383  0.0539 -0.0874
  952MOL0     H31334   8.373   4.417   1.069 -0.1791  0.6780 -0.8278
  952MOL0     H31335   8.281   4.321   0.874  0.1115 -2.3351 -0.2797
  952MOL0     H31336   8.105   4.333   0.832 -1.1685 -0.7837  1.1450
  952MOL0     H31337   8.167   4.239   0.978  1.8405  1.1285  1.1111
  952MOL0     H31338   7.959   4.175   0.772  0.0448  2.5258 -3.2154
  952MOL0     H31339   7.812   4.100   0.585  0.9643  1.1229 -0.6008
  952MOL0     H31340   7.661   4.009   0.460 -1.3081  1.3372 -2.3895
  952MOL0     H31341   7.555   3.958   0.598  1.2588 -0.3494 -0.5307
  952MOL0     H31342   7.449   4.094   0.357  0.6854 -0.8388 -2.4174
  952MOL0     H31343   7.504   3.925   0.351  2.0630 -1.1197  2.5598
  952MOL0     H31344   7.308   4.037   0.552  0.8267 -0.1421  0.0116
  952MOL0     H31345   7.322   3.858   0.503 -2.5607 -0.2122 -0.3437
  952MOL0     H31346   7.254   3.931   0.274 -0.6744  0.3763  0.2163
  952MOL0     H31347   7.180   4.078   0.349 -2.6068 -0.6609  1.3972
  952MOL0     H31348   7.101   3.789   0.392  4.7199 -0.0887 -0.3072
  952MOL0     H31349   7.091   3.895   0.523  0.8523 -1.1668  0.3002
  952MOL0     H31350   6.886   3.853   0.359  2.2583 -1.2727  0.8968
  952MOL0     H31351   6.953   3.978   0.255  1.7647 -1.2998 -1.0759
  952MOL0     H31352   6.805   4.099   0.397 -0.1781  0.4700  0.2004
  952MOL0     H31353   6.967   4.133   0.454  0.2113 -1.0449  1.2192
  952MOL0     H31354   6.925   3.961   0.640 -3.0892 -0.7024  1.6566
  952MOL0     H31355   6.759   3.934   0.569  0.8033 -2.0259 -0.2278
  952MOL0     H31356   7.498   4.337   0.744 -1.2053 -1.8869 -0.8972
  952MOL0     H31357   7.621   4.373   0.959  0.0966 -0.6645  0.7514
  952MOL0     H31358   7.949   4.638   1.165 -1.5922  1.1404 -4.0945
  952MOL0     H31359   8.160   4.721   1.267  0.0284 -0.4691  0.5313
  952MOL0     H31360   7.715   5.314   2.420 -0.1726  1.4825  1.3236
  952MOL0     H31361   7.502   5.423   2.443 -1.6732  0.5699 -0.8912
  952MOL0     H31362   7.169   5.617   2.322 -2.3119 -2.0376  0.8857
  952MOL0     H31363   6.971   5.661   2.392 -0.6875  0.8904  0.3480
  952MOL0     H31364   6.785   5.699   2.468 -2.3576 -0.9568 -0.6636
  952MOL0     H31365   6.684   5.813   2.546  0.7810 -1.8559  0.3310
  952MOL0     H31366   6.639   5.790   2.296 -1.2435  2.6624 -1.0845
  952MOL0     H31367   6.809   5.822   2.277  0.5142  1.9129 -0.8021
  952MOL0     H31368   6.609   6.023   2.373 -2.7077 -3.8160 -0.4347
  952MOL0     H31369   6.792   6.049   2.323  0.2712 -1.7050 -0.8310
  952MOL0     H31370   6.629   6.132   2.152  4.3470  0.3882  0.6546
  952MOL0     H31371   6.546   5.979   2.150  0.7388 -2.8984  2.6661
  952MOL0     H31372   6.878   5.935   1.888  0.0135 -1.0153  0.1933
  952MOL0     H31373   7.085   6.048   2.560  2.4036 -0.2570 -0.3485
  952MOL0     H31374   7.289   6.111   2.562 -0.0392 -0.1283  0.0623
  952MOL0     H31375   7.423   6.003   2.586 -1.1991  3.3742  2.5045
  952MOL0     H31376   7.394   6.068   2.426  2.5961  0.6905  1.3988
  953MOL0     O31377   9.860   7.685  11.354  0.3573 -0.2508  0.0010
  953MOL0     C31378   9.831   7.726  11.463 -0.6634 -0.4805 -0.4948
  953MOL0     O31379   9.910   7.721  11.579 -0.1688  0.4045  0.3865
  953MOL0     C31380  10.046   7.718  11.557  0.4469 -0.5278 -0.0104
  953MOL0     C31381  10.113   7.614  11.505  0.1994  0.6185 -0.8644
  953MOL0     C31382  10.252   7.609  11.479  0.0778 -0.1347  0.1226
  953MOL0     C31383  10.330   7.721  11.511 -0.3346 -0.6031  0.4062
  953MOL0     O31384  10.466   7.710  11.490 -0.8600 -0.3375 -0.1147
  953MOL0     C31385  10.551   7.823  11.503 -1.0774 -0.8046 -0.5134
  953MOL0     C31386  10.689   7.772  11.514  0.3287  0.1581  0.8031
  953MOL0     C31387  10.801   7.875  11.481 -0.1003  0.1744 -0.5038
  953MOL0     C31388  10.941   7.818  11.510  0.4233  1.1343 -0.1253
  953MOL0     C31389  11.055   7.897  11.448 -0.5484 -0.0799 -0.0123
  953MOL0     C31390  11.193   7.836  11.471 -0.6180 -0.4720  0.5860
  953MOL0     C31391  11.303   7.927  11.420 -0.8072 -1.0419 -0.4495
  953MOL0     C31392  11.317   8.062  11.507 -0.8590 -0.5000 -0.3551
  953MOL0     N31393  11.437   8.147  11.472 -0.1255 -0.2904 -0.1193
  953MOL0     C31394  11.553   8.159  11.536 -0.3553 -0.2836 -0.4585
  953MOL0     C31395  11.624   8.254  11.470 -0.4084  0.4082 -0.4345
  953MOL0     C31396  11.768   8.303  11.491  0.2929 -0.5907  0.6245
  953MOL0     C31397  11.791   8.430  11.587  0.4502  0.6688  0.1947
  953MOL0     C31398  11.761   8.396  11.729  0.3372 -0.4757  0.3405
  953MOL0     C31399  11.711   8.519  11.807  0.4435  0.7172  0.3533
  953MOL0     O31400  11.804   8.625  11.811 -0.0876 -0.5989  0.0252
  953MOL0     C31401  11.772   8.731  11.890  0.0446 -0.7191  0.1721
  953MOL0     C31402  11.656   8.741  11.964 -0.1583 -0.0497 -0.5799
  953MOL0     C31403  11.649   8.837  12.068 -0.1363 -0.7551 -0.0023
  953MOL0     C31404  11.524   8.842  12.151  0.0219  0.2090 -0.1085
  953MOL0     C31405  11.745   8.933  12.091 -1.2546 -0.7831  0.0197
  953MOL0     C31406  11.744   9.047  12.183  1.0184  0.0748 -0.4381
  953MOL0     O31407  11.854   9.127  12.188 -0.2230 -0.1500 -0.4796
  953MOL0     C31408  11.846   9.254  12.245  0.9932  1.0802  0.1514
  953MOL0     C31409  11.749   9.348  12.206  0.0490 -0.6915 -0.3566
  953MOL0     C31410  11.733   9.469  12.273 -0.0931  0.1604 -1.1266
  953MOL0     C31411  11.818   9.501  12.386  0.4357  0.4642  0.8054
  953MOL0     O31412  11.806   9.601  12.475 -0.5437 -0.5201 -0.4578
  953MOL0     C31413  11.715   9.711  12.460 -0.6133  0.3995 -0.0853
  953MOL0     C31414  11.693   9.786  12.595  0.9190 -0.2922  0.0774
  953MOL0     C31415  11.625   9.698  12.701  0.3317  0.2931 -0.0571
  953MOL0     C31416  11.612   9.761  12.843  0.6518  0.0383 -0.2268
  953MOL0     C31417  11.548   9.665  12.940 -0.2645 -0.1925 -0.0399
  953MOL0     C31418  11.393   9.660  12.924 -0.9990  0.1660  0.4017
  953MOL0     C31419  11.323   9.775  12.994  0.1317 -0.1740  0.4098
  953MOL0     C31420  11.168   9.752  13.002  0.7443  0.5379  0.3023
  953MOL0    Cl31421  11.124   9.690  13.169  0.4222 -0.0693 -0.4217
  953MOL0     C31422  11.916   9.408  12.416 -0.4515  0.4719 -0.2870
  953MOL0     C31423  11.927   9.287  12.353 -1.0175 -0.5862 -0.2285
  953MOL0     O31424  11.651   9.071  12.261 -0.6335 -0.1470 -0.2969
  953MOL0     C31425  11.862   8.918  12.007  0.4947 -0.3805 -0.6535
  953MOL0     C31426  11.867   8.824  11.911  0.0689  0.5534  0.9477
  953MOL0     N31427  11.548   8.301  11.369  0.4323 -0.0219 -0.7225
  953MOL0     N31428  11.439   8.243  11.377  0.4452 -0.3945 -0.1247
  953MOL0     C31429  10.259   7.832  11.559 -0.1418  0.0713  0.1950
  953MOL0     C31430  10.118   7.834  11.589  0.7469  1.1926  0.3966
  953MOL0     C31431   9.693   7.787  11.480  1.0217 -0.0956 -0.6821
  953MOL0     C31432   9.656   7.836  11.611  0.8279  0.7964  0.3234
  953MOL0     C31433   9.533   7.901  11.637  0.3093 -0.1903 -0.8659
  953MOL0     C31434   9.453   7.940  11.531 -0.1397 -0.6103  0.0643
  953MOL0     O31435   9.330   8.009  11.553 -0.4577  0.5626 -0.7712
  953MOL0     C31436   9.276   8.085  11.446  0.2624 -0.1660 -0.2550
  953MOL0     C31437   9.146   8.166  11.481  0.3907  0.6548  0.7070
  953MOL0     C31438   9.096   8.242  11.354 -0.2519 -0.0955  0.2189
  953MOL0     C31439   8.971   8.170  11.294  0.2843 -0.7188 -0.4428
  953MOL0     C31440   8.842   8.190  11.357 -0.9984 -1.1329  0.0301
  953MOL0     C31441   8.735   8.205  11.408 -0.2583 -0.0760 -1.0362
  953MOL0     C31442   9.501   7.911  11.406  0.9389  0.0880 -0.0594
  953MOL0     C31443   9.614   7.826  11.372  0.4786 -0.1224 -0.3322
  953MOL0     C31444   9.637   7.794  11.226 -0.1816 -1.1153  0.6021
  953MOL0     H31445  10.056   7.522  11.491 -0.8320  0.8085  1.6122
  953MOL0     H31446  10.302   7.525  11.430  1.6965  0.9156 -0.0857
  953MOL0     H31447  10.526   7.887  11.589  0.7121 -2.5315  1.3985
  953MOL0     H31448  10.547   7.893  11.419  2.7746  0.4618  0.1550
  953MOL0     H31449  10.694   7.739  11.618 -2.1977  0.3070  1.0263
  953MOL0     H31450  10.702   7.689  11.445 -1.9383  0.1744  0.2821
  953MOL0     H31451  10.795   7.915  11.380  2.5541  1.5105 -0.2327
  953MOL0     H31452  10.784   7.953  11.556 -3.3757 -0.3679 -0.5615
  953MOL0     H31453  10.957   7.824  11.618 -1.1180 -2.9351  0.5425
  953MOL0     H31454  10.942   7.713  11.478  1.5709  0.6883  1.2941
  953MOL0     H31455  11.051   8.003  11.475  0.9359 -0.4153  1.6650
  953MOL0     H31456  11.034   7.895  11.341 -0.1293 -0.0040 -0.0951
  953MOL0     H31457  11.213   7.827  11.578  1.6557 -0.1374  0.2311
  953MOL0     H31458  11.197   7.737  11.423 -0.1456 -0.2904  0.2475
  953MOL0     H31459  11.290   7.953  11.315  1.9880 -0.3981 -0.7170
  953MOL0     H31460  11.395   7.871  11.434 -1.2073 -1.4104  0.8659
  953MOL0     H31461  11.228   8.125  11.499  0.8292  1.8368 -2.1300
  953MOL0     H31462  11.321   8.040  11.614 -1.3457  1.2298  0.0440
  953MOL0     H31463  11.602   8.108  11.618 -0.6789  1.4509  0.8707
  953MOL0     H31464  11.804   8.332  11.391  0.5330 -1.1156  0.5571
  953MOL0     H31465  11.839   8.227  11.525 -0.7001 -1.4123  0.8979
  953MOL0     H31466  11.894   8.460  11.571  0.4283 -0.4197 -2.4674
  953MOL0     H31467  11.724   8.510  11.553 -1.5167 -0.4508  1.2197
  953MOL0     H31468  11.669   8.336  11.734 -1.4317  2.1897  3.1875
  953MOL0     H31469  11.849   8.351  11.776 -0.0230 -1.1713  0.3753
  953MOL0     H31470  11.611   8.545  11.771 -0.7748 -3.0591  0.5834
  953MOL0     H31471  11.700   8.483  11.910 -1.8574  1.2263  0.3478
  953MOL0     H31472  11.582   8.663  11.952  0.2535 -0.9065  1.7676
  953MOL0     H31473  11.543   8.809  12.253 -3.3250  2.7089  1.5260
  953MOL0     H31474  11.440   8.786  12.110 -0.1609  0.3102  0.1317
  953MOL0     H31475  11.487   8.944  12.164 -2.4043 -0.4311 -1.4760
  953MOL0     H31476  11.678   9.340  12.124 -0.6472  0.3014  0.1280
  953MOL0     H31477  11.661   9.537  12.229  0.6894  2.9316  1.5325
  953MOL0     H31478  11.765   9.775  12.387  0.5104 -0.2331  0.0994
  953MOL0     H31479  11.624   9.680  12.407  0.6597 -0.8920 -1.6414
  953MOL0     H31480  11.790   9.808  12.640  0.4382 -0.9787  1.4934
  953MOL0     H31481  11.630   9.873  12.572 -1.3209 -2.0033 -0.5802
  953MOL0     H31482  11.682   9.606  12.715 -0.6884 -0.3388  0.0977
  953MOL0     H31483  11.528   9.662  12.666 -0.9785  3.8427 -0.5342
  953MOL0     H31484  11.560   9.857  12.838 -1.8566 -1.2778 -0.6096
  953MOL0     H31485  11.714   9.785  12.877  1.0720 -2.7387  0.7520
  953MOL0     H31486  11.580   9.562  12.921  1.0218  0.2402 -0.3236
  953MOL0     H31487  11.581   9.688  13.042  1.3921 -1.2245 -0.3123
  953MOL0     H31488  11.348   9.577  12.978 -0.4222 -0.7199 -0.4445
  953MOL0     H31489  11.361   9.647  12.820 -2.0910 -2.2672  0.9741
  953MOL0     H31490  11.339   9.869  12.942 -0.8461 -1.1986 -1.9067
  953MOL0     H31491  11.369   9.792  13.091  2.3551 -2.4496 -0.1421
  953MOL0     H31492  11.131   9.680  12.928  1.1592 -1.2901  1.8203
  953MOL0     H31493  11.115   9.847  12.988  1.0650  0.3401 -3.6129
  953MOL0     H31494  11.971   9.418  12.509 -0.3580  1.3175 -0.4238
  953MOL0     H31495  12.000   9.215  12.387  0.2328  0.3359 -0.8876
  953MOL0     H31496  11.943   8.986  12.031  1.3778 -2.4897  3.1268
  953MOL0     H31497  11.955   8.819  11.847 -3.0008 -0.5802 -3.6681
  953MOL0     H31498  10.317   7.921  11.581 -0.0993 -0.1211  0.8642
  953MOL0     H31499  10.064   7.917  11.633 -0.6226  1.2229 -1.2362
  953MOL0     H31500   9.723   7.811  11.693  0.8057 -0.7792 -0.1167
  953MOL0     H31501   9.496   7.916  11.738 -3.8680 -0.7469 -2.1092
  953MOL0     H31502   9.356   8.152  11.413  0.3495  0.9153  2.0113
  953MOL0     H31503   9.248   8.025  11.359  0.8673 -0.2393 -0.4051
  953MOL0     H31504   9.163   8.237  11.562 -2.7920  1.4229  0.8273
  953MOL0     H31505   9.071   8.097  11.522  0.7111 -0.6248 -0.7604
  953MOL0     H31506   9.063   8.341  11.387  1.2934 -0.4986  3.3517
  953MOL0     H31507   9.181   8.260  11.287 -2.2455  1.1343 -2.1440
  953MOL0     H31508   8.981   8.061  11.290  0.8247 -0.6437 -1.4798
  953MOL0     H31509   8.956   8.206  11.192 -1.0821  0.3249  0.0971
  953MOL0     H31510   8.636   8.228  11.443 -0.6640  0.8594 -2.6896
  953MOL0     H31511   9.447   7.938  11.315 -2.2757 -3.1815  0.6540
  953MOL0     H31512   9.656   7.688  11.209  1.7437 -0.7354  0.1385
  953MOL0     H31513   9.550   7.833  11.172  1.3339  1.4826 -0.1633
  953MOL0     H31514   9.725   7.847  11.187 -0.8722 -0.6553 -0.3580
  954MOL0     O31515   1.424   6.850  11.147 -0.0594 -0.4768  0.3056
  954MOL0     C31516   1.366   6.963  11.150  0.2121  1.2935 -0.3219
  954MOL0     O31517   1.430   7.081  11.132  0.2079 -0.3901 -1.1372
  954MOL0     C31518   1.553   7.085  11.069  1.0595  0.1572 -0.4025
  954MOL0     C31519   1.637   7.181  11.110  1.1463 -0.6320 -0.1968
  954MOL0     C31520   1.761   7.184  11.042  0.4244  0.4998 -0.2533
  954MOL0     C31521   1.797   7.104  10.937  0.4368  1.3133 -0.2244
  954MOL0     O31522   1.919   7.119  10.874 -0.7298 -0.3605  0.0668
  954MOL0     C31523   2.008   7.014  10.912  0.4726 -0.3617  0.7789
  954MOL0     C31524   2.104   6.993  10.793 -0.9779  0.7524  0.2543
  954MOL0     C31525   2.199   7.108  10.778 -0.6953  0.4210 -0.2441
  954MOL0     C31526   2.285   7.097  10.651 -0.0157  0.6493  0.3676
  954MOL0     C31527   2.393   7.212  10.657  1.4117  0.3741 -0.2168
  954MOL0     C31528   2.485   7.183  10.545 -0.5977 -0.0276  0.4290
  954MOL0     C31529   2.609   7.284  10.536  0.3166 -0.3612  0.4886
  954MOL0     C31530   2.717   7.230  10.440 -0.1435  0.5364  0.3541
  954MOL0     N31531   2.834   7.307  10.463 -0.5894  0.8318 -1.4413
  954MOL0     C31532   2.870   7.427  10.396 -0.2291 -0.7046 -0.1016
  954MOL0     C31533   2.995   7.452  10.449 -0.3569 -0.7544 -0.6398
  954MOL0     C31534   3.083   7.566  10.418 -0.7942 -0.6989  0.5487
  954MOL0     C31535   3.230   7.511  10.410 -0.1582  0.5603  0.7325
  954MOL0     C31536   3.329   7.618  10.362 -0.2971 -0.2128  0.0727
  954MOL0     C31537   3.300   7.696  10.236  0.5786  0.2573  0.1934
  954MOL0     O31538   3.305   7.609  10.121 -0.6353  0.0187 -0.1458
  954MOL0     C31539   3.419   7.590  10.047  0.1750  0.0675  0.9525
  954MOL0     C31540   3.406   7.491   9.944  0.0057 -0.1158  0.4227
  954MOL0     C31541   3.517   7.443   9.867  1.1657  1.2875 -1.1626
  954MOL0     C31542   3.485   7.365   9.738  0.1741  0.3281  0.1476
  954MOL0     C31543   3.646   7.492   9.903 -0.7758  0.0040  0.2046
  954MOL0     C31544   3.772   7.447   9.841  0.2712  0.0177 -0.1231
  954MOL0     O31545   3.779   7.330   9.766  0.5666  0.1609 -0.1876
  954MOL0     C31546   3.898   7.272   9.739  0.4229 -0.0731  0.0646
  954MOL0     C31547   3.963   7.213   9.846 -1.0212 -0.9751 -0.3352
  954MOL0     C31548   4.079   7.142   9.819 -0.5781 -0.7266 -0.0847
  954MOL0     C31549   4.139   7.131   9.692 -0.0281 -0.3786 -0.0619
  954MOL0     O31550   4.257   7.067   9.679 -0.1572  0.9132 -0.3928
  954MOL0     C31551   4.340   7.099   9.567 -0.0698  0.8556 -0.1777
  954MOL0     C31552   4.476   7.089   9.628 -0.4283 -0.2968 -0.0867
  954MOL0     C31553   4.532   6.947   9.602 -0.4256  0.2307 -0.0098
  954MOL0     C31554   4.667   6.919   9.669 -0.1114 -0.4668  0.6814
  954MOL0     C31555   4.749   6.801   9.617 -0.0698  0.5846  0.1994
  954MOL0     C31556   4.894   6.814   9.653 -0.4793  0.7765 -0.0658
  954MOL0     C31557   4.983   6.706   9.587 -0.6162 -0.0758 -0.2096
  954MOL0     C31558   5.013   6.589   9.684 -1.0574 -0.9360  0.1206
  954MOL0    Cl31559   5.107   6.638   9.830 -0.4205 -0.1423  0.1426
  954MOL0     C31560   4.055   7.178   9.589  0.1087 -0.1323  1.0332
  954MOL0     C31561   3.935   7.250   9.610 -0.5186 -0.4362 -0.2278
  954MOL0     O31562   3.869   7.524   9.856 -0.2575 -0.7449 -0.0583
  954MOL0     C31563   3.656   7.584  10.009 -0.4364  0.3500 -0.5872
  954MOL0     C31564   3.547   7.622  10.083 -0.0016  0.6199  0.5347
  954MOL0     N31565   3.025   7.360  10.546  0.0329 -0.4357  0.7998
  954MOL0     N31566   2.936   7.268  10.550 -1.1949 -0.4172 -0.2639
  954MOL0     C31567   1.702   7.008  10.888  0.2380  0.4521 -0.1340
  954MOL0     C31568   1.577   7.004  10.952  0.2416  0.5949 -0.0213
  954MOL0     C31569   1.228   6.960  11.210 -0.0663 -0.1169 -0.0212
  954MOL0     C31570   1.182   7.036  11.321  0.8402  0.0640  0.3160
  954MOL0     C31571   1.050   7.023  11.371 -0.0289  0.5738  0.5092
  954MOL0     C31572   0.961   6.936  11.305  0.2601  0.2111 -0.3174
  954MOL0     O31573   0.830   6.914  11.346 -0.0749 -0.3015  0.2688
  954MOL0     C31574   0.771   7.018  11.427  0.5978  0.0691 -0.0174
  954MOL0     C31575   0.621   6.999  11.439  0.4094 -0.5101 -0.9364
  954MOL0     C31576   0.588   6.867  11.522  0.3275 -0.3678 -0.5747
  954MOL0     C31577   0.441   6.818  11.529  0.1318 -0.7877  0.1480
  954MOL0     C31578   0.402   6.770  11.399 -0.2111  0.6505 -0.2294
  954MOL0     C31579   0.360   6.753  11.291  0.5055 -0.4160  1.2465
  954MOL0     C31580   0.997   6.874  11.192  0.4203  0.5427  1.2231
  954MOL0     C31581   1.129   6.880  11.148  0.1635 -0.0624 -0.0289
  954MOL0     C31582   1.155   6.809  11.020  1.1217 -0.1245 -0.6148
  954MOL0     H31583   1.620   7.238  11.200 -0.6877 -1.1581 -0.1801
  954MOL0     H31584   1.835   7.261  11.059  2.3875 -1.2298 -0.5813
  954MOL0     H31585   1.961   6.916  10.924 -0.7459 -0.1221 -1.4781
  954MOL0     H31586   2.059   7.041  11.004  0.3583 -2.2657  1.4371
  954MOL0     H31587   2.170   6.909  10.819 -0.2392  1.7825  1.8737
  954MOL0     H31588   2.056   6.961  10.700 -0.5276 -0.4343  0.4062
  954MOL0     H31589   2.141   7.201  10.777  0.0442  0.8999 -1.7857
  954MOL0     H31590   2.265   7.106  10.865 -1.0793  2.4268  0.1480
  954MOL0     H31591   2.333   6.999  10.649 -2.5958 -0.6707 -0.1910
  954MOL0     H31592   2.217   7.103  10.566 -0.7665 -0.5104  0.8745
  954MOL0     H31593   2.446   7.209  10.753  0.3751 -0.0144  0.3597
  954MOL0     H31594   2.348   7.311  10.645  1.3348  0.4770  0.8672
  954MOL0     H31595   2.533   7.085  10.539  1.4188  0.9162 -0.0028
  954MOL0     H31596   2.427   7.193  10.453  1.4733  0.9879 -0.8535
  954MOL0     H31597   2.649   7.286  10.638  1.2505 -0.1673  0.1293
  954MOL0     H31598   2.571   7.384  10.514  1.6853  0.0916  0.0485
  954MOL0     H31599   2.737   7.128  10.474  2.2909  0.9403  0.3093
  954MOL0     H31600   2.684   7.233  10.336 -2.8860 -2.2332  0.9776
  954MOL0     H31601   2.812   7.476  10.319 -0.3453  1.7098  1.4363
  954MOL0     H31602   3.070   7.647  10.491 -0.9139 -0.1252 -0.0979
  954MOL0     H31603   3.056   7.611  10.322 -1.0700 -0.0168  0.9369
  954MOL0     H31604   3.263   7.469  10.506  2.3644  3.2121  1.1432
  954MOL0     H31605   3.230   7.426  10.341  1.3416 -0.0449  1.4260
  954MOL0     H31606   3.328   7.687  10.447 -5.2326 -1.0240  0.9704
  954MOL0     H31607   3.427   7.570  10.346 -0.4276 -0.4751  0.0552
  954MOL0     H31608   3.201   7.741  10.232  0.7106  0.9213  2.7227
  954MOL0     H31609   3.374   7.777  10.230 -0.3228  1.1674  1.0956
  954MOL0     H31610   3.306   7.455   9.921 -0.6181  0.7105  1.7384
  954MOL0     H31611   3.556   7.284   9.721 -0.5351  0.1224 -2.2409
  954MOL0     H31612   3.475   7.440   9.659 -2.4424  0.6722  0.7115
  954MOL0     H31613   3.388   7.316   9.747  0.0961  0.5683  0.6515
  954MOL0     H31614   3.930   7.233   9.947  0.7354  2.2652 -0.2922
  954MOL0     H31615   4.148   7.116   9.899 -1.0543  2.0487  1.3507
  954MOL0     H31616   4.318   7.033   9.483 -4.2777  0.8639  0.6550
  954MOL0     H31617   4.338   7.204   9.538  4.3599  1.4608  1.0412
  954MOL0     H31618   4.545   7.161   9.582 -1.5796  0.5912 -0.4790
  954MOL0     H31619   4.480   7.115   9.734  0.0839 -0.6690 -0.0079
  954MOL0     H31620   4.539   6.942   9.493  1.9516  1.6785  0.0035
  954MOL0     H31621   4.468   6.865   9.636  0.3019 -0.3461 -0.0011
  954MOL0     H31622   4.639   6.905   9.774 -0.1043  0.7839  0.8594
  954MOL0     H31623   4.718   7.016   9.669 -1.4543  0.2620  0.6615
  954MOL0     H31624   4.719   6.699   9.640  0.8093 -0.4540 -2.7592
  954MOL0     H31625   4.738   6.817   9.509 -1.5881 -1.7152 -0.0416
  954MOL0     H31626   4.908   6.821   9.761 -0.4542 -2.5865  0.2557
  954MOL0     H31627   4.929   6.914   9.622 -0.1296  1.1331  1.4256
  954MOL0     H31628   5.078   6.742   9.547 -0.6145  1.8000  1.3437
  954MOL0     H31629   4.927   6.662   9.504  0.6873 -3.6037  0.5924
  954MOL0     H31630   5.076   6.517   9.631 -0.5512 -0.0600 -0.5141
  954MOL0     H31631   4.918   6.542   9.710 -1.4246 -0.6965 -0.7364
  954MOL0     H31632   4.096   7.172   9.489 -1.6098  0.5628  0.2389
  954MOL0     H31633   3.875   7.302   9.536 -1.3592  0.2592  0.9095
  954MOL0     H31634   3.755   7.603  10.049 -0.9797  1.6012  0.1995
  954MOL0     H31635   3.573   7.683  10.169  0.1962 -2.6499  2.9623
  954MOL0     H31636   1.720   6.943  10.802 -1.0387 -2.1536  1.4252
  954MOL0     H31637   1.494   6.947  10.911  2.5221 -2.3473 -0.9202
  954MOL0     H31638   1.262   7.099  11.359  0.0306  0.3752  1.5686
  954MOL0     H31639   1.025   7.082  11.459  1.4882 -0.6709  1.8453
  954MOL0     H31640   0.808   7.007  11.529 -0.8448 -1.2774  0.4048
  954MOL0     H31641   0.802   7.113  11.382  2.1367 -1.4726 -2.4591
  954MOL0     H31642   0.576   6.985  11.340 -1.4938  2.0643 -0.5595
  954MOL0     H31643   0.569   7.089  11.476  0.8058 -0.6774  0.0646
  954MOL0     H31644   0.648   6.789  11.473  1.3719  1.5744 -2.5581
  954MOL0     H31645   0.629   6.886  11.622 -1.3053 -0.0950  0.0735
  954MOL0     H31646   0.385   6.906  11.560 -0.1887 -0.1330 -2.1599
  954MOL0     H31647   0.430   6.742  11.607  0.4460  1.6409  2.7338
  954MOL0     H31648   0.305   6.735  11.201  0.4188  2.6773  0.5680
  954MOL0     H31649   0.926   6.807  11.144 -0.1223  1.1228  1.1960
  954MOL0     H31650   1.075   6.741  10.991 -0.6522  2.4671 -2.1563
  954MOL0     H31651   1.161   6.884  10.941  1.0468  0.3540 -0.1734
  954MOL0     H31652   1.250   6.755  11.013  0.5815 -1.6210  1.9449
  955MOL0     O31653  11.328   3.623   0.078 -0.2242  0.5837  0.0662
  955MOL0     C31654  11.259   3.523   0.056 -0.3332 -0.0929  0.3404
  955MOL0     O31655  11.293   3.394   0.078  0.6618 -0.3323 -0.6852
  955MOL0     C31656  11.425   3.368   0.117 -0.1895 -0.0544  0.2647
  955MOL0     C31657  11.521   3.310   0.029 -0.0665 -1.2801 -0.0545
  955MOL0     C31658  11.650   3.311   0.065  0.0270 -0.2018 -0.0305
  955MOL0     C31659  11.696   3.348   0.188  0.7183  0.7732 -0.8681
  955MOL0     O31660  11.824   3.341   0.226 -0.7203 -0.0576 -0.8978
  955MOL0     C31661  11.892   3.219   0.193  1.0279 -0.6046 -0.4708
  955MOL0     C31662  12.020   3.268   0.128  0.8237 -0.2282 -0.4955
  955MOL0     C31663  12.140   3.163   0.146  0.1318  0.2103  0.3803
  955MOL0     C31664  12.278   3.211   0.093  0.6622 -0.3838  0.0739
  955MOL0     C31665  12.373   3.098   0.069  0.2997  0.4547 -0.5939
  955MOL0     C31666  12.506   3.149   0.007  0.5806  0.0843  0.1272
  955MOL0     C31667  12.604   3.041  -0.037 -0.5838 -0.6626 -0.0706
  955MOL0     C31668  12.738   3.106  -0.090  0.3674  0.3794 -0.1545
  955MOL0     N31669  12.834   3.134   0.017 -0.3492  0.0173  0.9711
  955MOL0     C31670  12.892   3.040   0.097 -0.4319 -0.1796 -0.2382
  955MOL0     C31671  12.971   3.105   0.179  0.2459  0.5436 -0.3590
  955MOL0     C31672  13.078   3.025   0.261 -0.0792  0.5658 -0.3557
  955MOL0     C31673  13.110   3.095   0.397  0.2898 -0.6327  0.6527
  955MOL0     C31674  13.217   3.042   0.481 -0.3130  0.3796 -0.2400
  955MOL0     C31675  13.355   3.062   0.418 -0.3804 -0.1914  0.0457
  955MOL0     O31676  13.382   2.942   0.330  0.2461  0.0490  0.3138
  955MOL0     C31677  13.493   2.945   0.244 -0.1738 -0.0051 -0.9855
  955MOL0     C31678  13.562   3.062   0.211 -0.1196  0.0069  1.0121
  955MOL0     C31679  13.662   3.046   0.111 -0.5644  0.0522 -0.2922
  955MOL0     C31680  13.738   3.176   0.074 -0.3016  0.5974  0.3843
  955MOL0     C31681  13.692   2.923   0.053 -0.1508  0.3562  1.2178
  955MOL0     C31682  13.808   2.913  -0.050  0.3723 -0.3010 -0.3178
  955MOL0     O31683  13.929   2.957  -0.007 -0.1653  0.0329  0.1424
  955MOL0     C31684  14.041   2.987  -0.087  0.3044  0.0910 -0.1288
  955MOL0     C31685  14.033   3.072  -0.197 -0.5177  0.0512 -0.2900
  955MOL0     C31686  14.145   3.106  -0.282 -0.4988  0.6831 -0.2580
  955MOL0     C31687  14.262   3.031  -0.255  0.4542  0.0298 -0.5501
  955MOL0     O31688  14.350   3.044  -0.359 -0.0697  0.5138 -0.4438
  955MOL0     C31689  14.479   2.979  -0.345 -0.1200  0.3504 -0.1248
  955MOL0     C31690  14.555   2.992  -0.480 -0.4129 -0.1198 -0.7009
  955MOL0     C31691  14.692   2.926  -0.470  0.0237 -0.3304  0.5037
  955MOL0     C31692  14.773   2.920  -0.604  0.4666 -0.4685 -0.1466
  955MOL0     C31693  14.905   2.837  -0.609  0.9243  0.5219  0.2061
  955MOL0     C31694  15.013   2.903  -0.518 -0.0406 -0.2586 -0.1814
  955MOL0     C31695  15.137   2.808  -0.508  0.4113 -0.2808  0.0435
  955MOL0     C31696  15.275   2.876  -0.498 -0.6068 -0.1718  0.1663
  955MOL0    Cl31697  15.272   2.976  -0.350 -0.1712  0.0087 -0.0894
  955MOL0     C31698  14.277   2.949  -0.144 -0.4430 -0.0039 -0.1297
  955MOL0     C31699  14.163   2.926  -0.061  0.6430 -0.1823 -0.2752
  955MOL0     O31700  13.796   2.853  -0.153  0.1530  0.3800 -0.0620
  955MOL0     C31701  13.623   2.811   0.087  0.4892 -0.0644 -0.0831
  955MOL0     C31702  13.512   2.822   0.175 -0.3685 -0.0035  0.0042
  955MOL0     N31703  12.957   3.246   0.159 -0.3377  0.1730 -0.7291
  955MOL0     N31704  12.871   3.260   0.055 -0.2605  0.5311  0.6327
  955MOL0     C31705  11.601   3.403   0.280 -0.1411 -0.6789  0.5010
  955MOL0     C31706  11.478   3.426   0.236 -0.2910 -0.0492 -0.9348
  955MOL0     C31707  11.114   3.527   0.017  0.0128 -0.6035  0.0123
  955MOL0     C31708  11.068   3.418  -0.059 -0.1804 -0.2880 -0.4469
  955MOL0     C31709  10.935   3.422  -0.102  0.0494  0.0873  0.0276
  955MOL0     C31710  10.857   3.529  -0.074  0.0523 -0.3179 -0.3080
  955MOL0     O31711  10.733   3.516  -0.133  0.5485  0.2156 -0.4709
  955MOL0     C31712  10.632   3.611  -0.093  0.3554  0.0249  0.2495
  955MOL0     C31713  10.524   3.608  -0.198  0.0184  0.0275  0.1682
  955MOL0     C31714  10.426   3.730  -0.184 -0.3403  0.8950 -0.6015
  955MOL0     C31715  10.286   3.696  -0.230 -0.5155 -0.3336  0.2661
  955MOL0     C31716  10.214   3.601  -0.145 -0.6372  1.1179  0.4966
  955MOL0     C31717  10.149   3.506  -0.107  0.3106 -0.6319  0.2409
  955MOL0     C31718  10.901   3.639   0.004  0.1831  0.4650 -0.6748
  955MOL0     C31719  11.028   3.633   0.053  0.4475  0.8602  0.6163
  955MOL0     C31720  11.073   3.752   0.142  0.6490 -0.0344  0.3015
  955MOL0     H31721  11.501   3.270  -0.070 -0.7936  1.3308 -1.0504
  955MOL0     H31722  11.720   3.287  -0.015  0.0028  1.7053 -0.6906
  955MOL0     H31723  11.835   3.155   0.126 -0.1889 -0.2764  0.2234
  955MOL0     H31724  11.903   3.160   0.285 -0.0382  0.6020  0.4722
  955MOL0     H31725  11.992   3.288   0.024 -0.9467 -2.9127 -0.6376
  955MOL0     H31726  12.046   3.367   0.166  1.0712 -0.3341 -0.3886
  955MOL0     H31727  12.152   3.143   0.253 -1.3766 -1.2797  0.3134
  955MOL0     H31728  12.109   3.075   0.089 -0.9706  0.8075  0.0153
  955MOL0     H31729  12.258   3.266   0.001  0.9842 -0.7692 -0.2319
  955MOL0     H31730  12.314   3.288   0.162 -0.7552  0.7464 -0.4186
  955MOL0     H31731  12.342   3.033  -0.013  2.4856 -3.0816  1.1262
  955MOL0     H31732  12.391   3.033   0.155  0.0695 -1.6997 -2.1034
  955MOL0     H31733  12.481   3.214  -0.078 -0.4126  1.5364  1.4608
  955MOL0     H31734  12.560   3.217   0.073  2.8306 -0.5834 -0.9309
  955MOL0     H31735  12.563   2.983  -0.120  0.1067 -0.6226 -0.4518
  955MOL0     H31736  12.621   2.970   0.045  0.9505  1.9577  2.0687
  955MOL0     H31737  12.789   3.037  -0.157  0.3468 -1.6567  1.7894
  955MOL0     H31738  12.725   3.202  -0.140  1.5809  1.1334  0.9020
  955MOL0     H31739  12.889   2.931   0.095  1.2691 -0.2668  0.2062
  955MOL0     H31740  13.172   3.017   0.206  0.0674  0.0116 -0.0399
  955MOL0     H31741  13.037   2.926   0.283 -0.6858  0.5389 -1.5477
  955MOL0     H31742  13.127   3.201   0.376 -2.6166 -0.4920 -1.6391
  955MOL0     H31743  13.017   3.082   0.454 -1.1733  0.3328 -1.3666
  955MOL0     H31744  13.206   3.094   0.576  0.6010 -4.0403  2.5763
  955MOL0     H31745  13.210   2.935   0.503  2.6544  0.1236 -0.1229
  955MOL0     H31746  13.352   3.159   0.369  1.6715  0.5523  1.2914
  955MOL0     H31747  13.432   3.064   0.496 -0.5338  0.0724  0.1907
  955MOL0     H31748  13.534   3.160   0.248  1.3264 -0.3399  3.1833
  955MOL0     H31749  13.804   3.162  -0.012 -0.6373  0.1543  0.1910
  955MOL0     H31750  13.811   3.193   0.154  1.7575 -2.9941 -0.4878
  955MOL0     H31751  13.669   3.259   0.064 -1.4839 -0.5324 -1.3098
  955MOL0     H31752  13.939   3.121  -0.215 -1.8623 -1.6729  1.5704
  955MOL0     H31753  14.140   3.169  -0.371  1.3621  1.5740  0.2087
  955MOL0     H31754  14.547   3.019  -0.269 -0.4621 -0.6200  0.7038
  955MOL0     H31755  14.463   2.873  -0.325  1.2223  0.1313 -0.0923
  955MOL0     H31756  14.498   2.944  -0.560 -0.5971 -0.6998 -0.2307
  955MOL0     H31757  14.575   3.097  -0.501  0.2973  0.0728  0.8497
  955MOL0     H31758  14.678   2.823  -0.438 -2.1145 -0.0801  0.5379
  955MOL0     H31759  14.756   2.979  -0.398  1.7462 -2.1230  0.3596
  955MOL0     H31760  14.798   3.023  -0.633  0.3813 -0.4440 -0.1331
  955MOL0     H31761  14.716   2.875  -0.686 -1.1290  0.3685  0.4576
  955MOL0     H31762  14.873   2.738  -0.577 -0.5368  1.3502  1.4771
  955MOL0     H31763  14.939   2.834  -0.712 -0.6271 -1.8237 -0.3100
  955MOL0     H31764  14.983   2.929  -0.416  2.4893  4.3249 -0.3489
  955MOL0     H31765  15.043   2.991  -0.576 -0.0282 -1.7914 -2.6605
  955MOL0     H31766  15.135   2.755  -0.603 -4.4854  0.8373 -0.7857
  955MOL0     H31767  15.117   2.745  -0.421 -1.1947 -1.5170 -1.1506
  955MOL0     H31768  15.295   2.948  -0.578 -0.7826  0.5091  0.7246
  955MOL0     H31769  15.358   2.804  -0.498  0.1997  0.7204  1.3205
  955MOL0     H31770  14.369   2.895  -0.123  0.1931  0.5331 -1.4057
  955MOL0     H31771  14.161   2.852   0.019 -0.1876  0.8936  0.7392
  955MOL0     H31772  13.651   2.714   0.048  0.3793 -0.8377  1.6812
  955MOL0     H31773  13.460   2.729   0.199 -2.0998  0.9555  0.1249
  955MOL0     H31774  11.624   3.429   0.382 -2.4494  1.1019  0.6496
  955MOL0     H31775  11.418   3.476   0.312 -0.4736 -3.7256  1.5798
  955MOL0     H31776  11.128   3.342  -0.108  2.1489  1.5937 -0.6766
  955MOL0     H31777  10.889   3.344  -0.161  0.0301 -0.1929  0.4107
  955MOL0     H31778  10.596   3.573   0.003  1.5264 -1.1827  0.2336
  955MOL0     H31779  10.670   3.714  -0.086 -0.6863  0.3917  0.6409
  955MOL0     H31780  10.478   3.509  -0.196  0.0235  0.0080 -0.5109
  955MOL0     H31781  10.558   3.629  -0.300 -0.3530 -0.0603  0.0239
  955MOL0     H31782  10.428   3.759  -0.078 -1.1284 -2.1699  0.3684
  955MOL0     H31783  10.465   3.816  -0.239  0.7953  0.6907 -0.1388
  955MOL0     H31784  10.290   3.643  -0.325 -0.4095 -1.7055  1.0091
  955MOL0     H31785  10.227   3.788  -0.231 -2.9023 -1.8017  0.0420
  955MOL0     H31786  10.097   3.419  -0.072  1.3198 -1.3806 -0.0572
  955MOL0     H31787  10.848   3.723   0.049  2.2839  0.0469  2.9641
  955MOL0     H31788  11.117   3.832   0.081 -2.3584  0.4763 -1.4036
  955MOL0     H31789  10.989   3.805   0.188 -0.3105  0.4068 -1.8109
  955MOL0     H31790  11.147   3.721   0.216 -0.4944 -2.3865  0.5161
  956MOL0     O31791   4.251   3.769   6.062  0.1750 -0.2110 -0.2830
  956MOL0     C31792   4.158   3.749   6.140  0.9660 -0.4682  0.5385
  956MOL0     O31793   4.165   3.682   6.260  0.5561 -0.2452  0.6497
  956MOL0     C31794   4.282   3.611   6.280  0.0509  0.4902 -1.1631
  956MOL0     C31795   4.320   3.521   6.182 -0.6328 -0.2802 -0.0451
  956MOL0     C31796   4.431   3.435   6.201 -0.4939  0.3943 -0.2483
  956MOL0     C31797   4.514   3.442   6.319 -0.3478  0.0970  0.2048
  956MOL0     O31798   4.618   3.360   6.342  0.1981 -0.1893 -0.0637
  956MOL0     C31799   4.649   3.258   6.248 -0.0475  0.3948  0.4115
  956MOL0     C31800   4.778   3.184   6.295  0.3276 -0.8051 -0.0329
  956MOL0     C31801   4.752   3.077   6.403  0.3144  1.3619 -0.1149
  956MOL0     C31802   4.880   2.994   6.452  0.1988 -0.5438 -0.2711
  956MOL0     C31803   4.854   2.895   6.561  1.1446 -0.4950  0.2911
  956MOL0     C31804   4.969   2.791   6.579  0.6321  0.0375 -0.2019
  956MOL0     C31805   4.937   2.688   6.684 -0.1741 -0.5220  0.2829
  956MOL0     C31806   4.820   2.596   6.670 -0.8208  0.2795  0.1699
  956MOL0     N31807   4.842   2.483   6.578 -0.4011  0.1673  0.1226
  956MOL0     C31808   4.959   2.412   6.543 -0.3023 -0.0696 -0.2289
  956MOL0     C31809   4.932   2.289   6.481 -0.4780 -0.9125  0.4553
  956MOL0     C31810   5.024   2.175   6.439  0.4704  0.3370  0.1632
  956MOL0     C31811   4.979   2.044   6.502  0.0886 -0.0648 -0.5065
  956MOL0     C31812   5.053   1.914   6.456  0.2775  0.0218 -0.9010
  956MOL0     C31813   5.196   1.918   6.511 -0.0414  0.7676  0.1223
  956MOL0     O31814   5.201   1.908   6.658 -0.1648  0.4585  0.7859
  956MOL0     C31815   5.320   1.927   6.729  0.1753  0.4973  0.1596
  956MOL0     C31816   5.445   1.960   6.682 -0.4069  0.2487 -0.3815
  956MOL0     C31817   5.557   1.993   6.768 -0.3363 -0.7687 -0.0366
  956MOL0     C31818   5.682   2.025   6.697  0.1897  0.1408  0.9638
  956MOL0     C31819   5.538   1.976   6.907  0.2328 -0.1390 -0.0450
  956MOL0     C31820   5.641   2.016   7.003 -0.2918 -0.8020 -0.9245
  956MOL0     O31821   5.647   1.945   7.124 -0.0630 -0.0831 -0.4172
  956MOL0     C31822   5.738   1.965   7.223 -0.1560 -0.2998 -0.6566
  956MOL0     C31823   5.704   2.001   7.354  0.3063  0.0297 -0.6983
  956MOL0     C31824   5.800   2.018   7.462  0.8473 -0.4179  0.4786
  956MOL0     C31825   5.929   1.993   7.429  0.2673  0.1274  0.0921
  956MOL0     O31826   6.022   2.015   7.529  0.1260  0.2440 -0.2793
  956MOL0     C31827   6.151   2.064   7.486 -0.0063  0.1547  0.2267
  956MOL0     C31828   6.140   2.217   7.477 -0.1917 -0.3468  0.2825
  956MOL0     C31829   6.273   2.292   7.498 -0.0742  0.2426 -0.5958
  956MOL0     C31830   6.251   2.439   7.515  0.3133  0.0734  0.6691
  956MOL0     C31831   6.381   2.512   7.561 -0.2169  0.5330  0.4323
  956MOL0     C31832   6.363   2.660   7.584 -0.5309  0.1977 -0.7030
  956MOL0     C31833   6.489   2.709   7.648 -0.4276  0.1428  0.0273
  956MOL0     C31834   6.468   2.849   7.694  0.6242 -0.3130  0.3441
  956MOL0    Cl31835   6.618   2.920   7.766 -0.1387  0.1209 -0.3787
  956MOL0     C31836   5.964   1.950   7.299 -0.8818 -0.3345 -1.2740
  956MOL0     C31837   5.871   1.935   7.200  0.1765 -0.4728  0.0850
  956MOL0     O31838   5.717   2.111   6.985 -0.3820  0.3648 -0.1805
  956MOL0     C31839   5.422   1.918   6.948 -0.4752 -0.1106 -0.3490
  956MOL0     C31840   5.318   1.904   6.863  0.4757  0.6759  0.2473
  956MOL0     N31841   4.793   2.301   6.462 -0.1410  0.7355 -0.1914
  956MOL0     N31842   4.747   2.404   6.520  0.8437 -0.7974 -0.5956
  956MOL0     C31843   4.470   3.533   6.417  0.3772  0.0585 -0.3184
  956MOL0     C31844   4.358   3.618   6.399  0.5206 -0.1169 -0.5071
  956MOL0     C31845   4.026   3.784   6.096 -0.5339 -0.7091  0.9451
  956MOL0     C31846   4.018   3.900   6.013  0.1208  0.5560  0.2974
  956MOL0     C31847   3.898   3.927   5.946 -0.1169 -0.1507  0.0429
  956MOL0     C31848   3.784   3.847   5.975 -0.1300  0.3612  0.5202
  956MOL0     O31849   3.659   3.876   5.926 -0.3604 -0.1973  0.5805
  956MOL0     C31850   3.649   3.989   5.838 -0.0563 -0.2760 -0.7769
  956MOL0     C31851   3.507   3.992   5.769 -0.0062 -0.3680 -0.3217
  956MOL0     C31852   3.495   4.116   5.681 -0.4447  0.4163  0.7592
  956MOL0     C31853   3.360   4.139   5.601  0.4337 -0.0032  0.3804
  956MOL0     C31854   3.235   4.153   5.676  0.2050  0.5456  0.8146
  956MOL0     C31855   3.130   4.163   5.736 -0.6766  0.8705 -0.5047
  956MOL0     C31856   3.796   3.736   6.048 -0.5843 -1.0396 -0.2553
  956MOL0     C31857   3.913   3.704   6.114 -0.2051  0.0318  0.4843
  956MOL0     C31858   3.909   3.580   6.192  0.1116  0.2695  0.0174
  956MOL0     H31859   4.264   3.523   6.089  2.6932  0.5843 -2.2371
  956MOL0     H31860   4.444   3.360   6.124  3.5563  0.4759  0.1720
  956MOL0     H31861   4.663   3.310   6.153 -2.8247  2.6646  1.1320
  956MOL0     H31862   4.569   3.184   6.238  0.4377 -0.1830  0.7187
  956MOL0     H31863   4.824   3.135   6.208  2.2688 -0.4193  0.7207
  956MOL0     H31864   4.859   3.250   6.329 -0.4889  0.3613 -0.2848
  956MOL0     H31865   4.709   3.122   6.493  2.4086 -2.9035  3.3976
  956MOL0     H31866   4.680   3.008   6.359 -0.8733  3.3513 -1.4171
  956MOL0     H31867   4.928   2.943   6.368  1.7214 -1.6173  1.1967
  956MOL0     H31868   4.945   3.072   6.492  0.5033 -0.9978  0.1197
  956MOL0     H31869   4.766   2.837   6.530 -0.3426  1.4492  0.7066
  956MOL0     H31870   4.823   2.937   6.657 -0.9064 -0.6378 -0.2432
  956MOL0     H31871   4.974   2.739   6.482  0.1142  2.0585 -1.3629
  956MOL0     H31872   5.065   2.833   6.611 -0.0820  1.1644  0.4976
  956MOL0     H31873   4.926   2.745   6.777  1.0979  2.0573 -1.0477
  956MOL0     H31874   5.029   2.634   6.707  0.8552  1.5717  1.3949
  956MOL0     H31875   4.790   2.558   6.768 -1.2650  0.0596 -0.0532
  956MOL0     H31876   4.738   2.660   6.637 -0.0243  0.2357 -2.0456
  956MOL0     H31877   5.055   2.446   6.579 -1.0360 -0.4705  2.3365
  956MOL0     H31878   5.125   2.200   6.474  0.4232 -1.5456  1.8151
  956MOL0     H31879   5.019   2.172   6.329 -0.2649  1.1405  0.1647
  956MOL0     H31880   4.998   2.060   6.608 -0.2349  2.6847 -0.7918
  956MOL0     H31881   4.872   2.027   6.484 -0.1777 -0.5138  1.2970
  956MOL0     H31882   4.996   1.827   6.488 -1.1492  1.6907  1.3640
  956MOL0     H31883   5.062   1.903   6.347  0.5282 -1.6275 -0.7461
  956MOL0     H31884   5.249   1.830   6.473  0.1909  0.3694  1.3220
  956MOL0     H31885   5.251   2.008   6.484  1.0243  0.7961  2.2438
  956MOL0     H31886   5.457   1.956   6.574  1.1577 -0.1661 -0.2272
  956MOL0     H31887   5.676   2.030   6.588  1.5816  1.8072  0.9136
  956MOL0     H31888   5.764   1.966   6.739 -0.1217 -0.4455  0.7538
  956MOL0     H31889   5.700   2.129   6.726  2.2694  0.4045 -1.0013
  956MOL0     H31890   5.601   2.028   7.374  0.3550 -0.0892 -0.2681
  956MOL0     H31891   5.771   2.053   7.561 -2.2910 -0.5036 -0.3205
  956MOL0     H31892   6.227   2.036   7.560  1.7190  0.2744 -1.4294
  956MOL0     H31893   6.185   2.019   7.392 -0.3383 -0.6143  0.4686
  956MOL0     H31894   6.102   2.252   7.380 -0.1219 -1.0423  0.0024
  956MOL0     H31895   6.068   2.252   7.551 -1.4515 -0.8640 -0.6755
  956MOL0     H31896   6.345   2.261   7.422  2.7966  4.0289  0.3118
  956MOL0     H31897   6.315   2.253   7.591  1.1893  0.9374 -0.8488
  956MOL0     H31898   6.174   2.465   7.590  0.6743 -1.0352  1.4440
  956MOL0     H31899   6.219   2.467   7.414  1.5688  0.0753  0.2543
  956MOL0     H31900   6.423   2.459   7.647  0.8842 -0.1130 -0.4726
  956MOL0     H31901   6.456   2.495   7.482 -1.1535  0.2283 -0.4166
  956MOL0     H31902   6.286   2.689   7.656  0.6903  0.2546  0.6367
  956MOL0     H31903   6.345   2.709   7.488 -4.0307  1.5039  0.4609
  956MOL0     H31904   6.575   2.700   7.581 -0.7756  1.8736 -0.7143
  956MOL0     H31905   6.508   2.650   7.738  1.0890  0.5255 -0.0195
  956MOL0     H31906   6.380   2.850   7.759  0.9580 -2.7260  0.9354
  956MOL0     H31907   6.449   2.903   7.601 -0.2513  0.9905  1.2555
  956MOL0     H31908   6.065   1.923   7.273 -1.4807 -2.6162 -1.4341
  956MOL0     H31909   5.893   1.906   7.098 -3.2277  3.2866 -1.9655
  956MOL0     H31910   5.406   1.893   7.053 -0.5711  3.1549  0.5080
  956MOL0     H31911   5.217   1.873   6.891 -0.5504 -0.1551 -3.7982
  956MOL0     H31912   4.512   3.516   6.516 -1.1061  2.0013  0.7085
  956MOL0     H31913   4.312   3.690   6.465 -0.6616 -2.5790  1.5248
  956MOL0     H31914   4.110   3.959   6.010  1.1599 -1.0167 -2.3936
  956MOL0     H31915   3.889   4.018   5.888 -3.2597 -0.6866 -0.4960
  956MOL0     H31916   3.665   4.079   5.898 -1.3842 -2.7860  3.8003
  956MOL0     H31917   3.729   3.974   5.764  0.2723  0.3822 -0.5655
  956MOL0     H31918   3.427   4.012   5.841  1.7907 -0.2465  1.7499
  956MOL0     H31919   3.485   3.905   5.707  1.2075  0.8721 -2.6172
  956MOL0     H31920   3.510   4.209   5.737 -4.2040  1.2567  0.6296
  956MOL0     H31921   3.579   4.110   5.611 -1.0913 -2.0416  0.1018
  956MOL0     H31922   3.343   4.062   5.526 -0.3798  0.0931  0.4501
  956MOL0     H31923   3.367   4.232   5.544  1.2882 -0.6189 -0.5496
  956MOL0     H31924   3.040   4.190   5.789  0.5008  1.5637  1.2337
  956MOL0     H31925   3.703   3.682   6.059 -2.2303  0.9840 -2.9881
  956MOL0     H31926   3.980   3.508   6.150  0.5521  0.7396 -0.0464
  956MOL0     H31927   3.936   3.613   6.292  1.7000 -2.4071  0.5779
  956MOL0     H31928   3.817   3.521   6.186  0.8330 -0.8347 -0.6391
  957MOL0     O31929   6.647   5.922   8.021  0.2943 -0.2080 -0.1794
  957MOL0     C31930   6.599   6.000   7.935  0.8624  0.3760  0.5440
  957MOL0     O31931   6.660   6.058   7.822  0.0592  0.3910 -0.1575
  957MOL0     C31932   6.790   6.032   7.807  0.6116 -1.3310  0.5883
  957MOL0     C31933   6.877   6.101   7.890 -0.3868 -0.2355  0.3432
  957MOL0     C31934   7.017   6.076   7.868 -0.2281  0.3067  0.0214
  957MOL0     C31935   7.068   5.988   7.774  0.0451  0.8808 -0.0771
  957MOL0     O31936   7.202   5.974   7.755 -0.5027  0.6356 -0.9715
  957MOL0     C31937   7.259   5.966   7.628 -0.3023 -1.0900 -0.6839
  957MOL0     C31938   7.266   6.112   7.576 -0.0268  0.4818 -0.0191
  957MOL0     C31939   7.330   6.209   7.674  0.6372  0.2638  0.3579
  957MOL0     C31940   7.324   6.356   7.617  0.5011 -0.7541  1.2841
  957MOL0     C31941   7.463   6.426   7.630 -0.4321  0.2304  0.1992
  957MOL0     C31942   7.561   6.360   7.526 -0.3297 -0.1277 -0.9774
  957MOL0     C31943   7.709   6.416   7.540  0.2213 -0.2015  0.2389
  957MOL0     C31944   7.773   6.404   7.685  0.4269  0.2755  0.3020
  957MOL0     N31945   7.906   6.471   7.691  0.2304 -1.1552  0.2253
  957MOL0     C31946   8.026   6.436   7.636  0.3794 -0.4195 -0.5471
  957MOL0     C31947   8.101   6.534   7.673 -0.8766 -0.6359 -0.8312
  957MOL0     C31948   8.250   6.525   7.661 -0.5120  0.4612  0.4283
  957MOL0     C31949   8.314   6.566   7.528 -0.0316 -0.9168 -0.1636
  957MOL0     C31950   8.455   6.630   7.530 -0.5348 -0.4937 -0.3575
  957MOL0     C31951   8.563   6.531   7.534  1.5434  0.3121  0.3112
  957MOL0     O31952   8.684   6.600   7.564  0.4493 -0.4387  0.2670
  957MOL0     C31953   8.805   6.540   7.548 -0.2927  0.4347 -0.0041
  957MOL0     C31954   8.834   6.407   7.513  0.1380  0.1322  0.0377
  957MOL0     C31955   8.965   6.358   7.490 -0.8724  0.5274 -0.1312
  957MOL0     C31956   8.977   6.211   7.465 -0.4766 -0.5105 -0.6301
  957MOL0     C31957   9.071   6.456   7.478  0.0694 -0.0031  0.2944
  957MOL0     C31958   9.215   6.430   7.452 -0.1737 -0.6284  0.0889
  957MOL0     O31959   9.288   6.540   7.431 -0.5018 -0.1875 -0.4935
  957MOL0     C31960   9.423   6.534   7.413 -0.0133 -0.4504 -0.1185
  957MOL0     C31961   9.481   6.621   7.328 -0.0908 -0.3073  0.1723
  957MOL0     C31962   9.627   6.636   7.317  1.0281  0.7099  0.5845
  957MOL0     C31963   9.709   6.551   7.388 -0.0448 -0.1835  0.4281
  957MOL0     O31964   9.836   6.570   7.370  0.1647 -0.6729 -0.2322
  957MOL0     C31965   9.924   6.598   7.482 -0.3169  0.2920  0.2132
  957MOL0     C31966   9.945   6.746   7.507  0.4264  0.2379  0.7357
  957MOL0     C31967  10.045   6.772   7.623 -0.0446 -0.0739  0.1618
  957MOL0     C31968  10.061   6.928   7.636  0.3431 -0.0310  0.0793
  957MOL0     C31969  10.159   6.971   7.746  0.5976  0.2527 -0.1490
  957MOL0     C31970  10.155   7.123   7.780 -0.3994  0.0269 -0.4269
  957MOL0     C31971  10.272   7.159   7.874  0.3522 -0.3346 -1.0357
  957MOL0     C31972  10.399   7.176   7.791  0.0793 -0.0905 -0.4141
  957MOL0    Cl31973  10.422   7.348   7.748  0.2900 -0.1761  0.1075
  957MOL0     C31974   9.647   6.447   7.465 -1.5345 -0.5595  0.9256
  957MOL0     C31975   9.506   6.446   7.490 -0.3539  0.5741 -0.3314
  957MOL0     O31976   9.254   6.315   7.426 -0.3644  0.0928 -0.1426
  957MOL0     C31977   9.035   6.595   7.499 -0.1251 -0.7704 -0.2358
  957MOL0     C31978   8.911   6.633   7.534  0.9239 -0.0409  1.0453
  957MOL0     N31979   8.031   6.630   7.744  0.8273 -0.0996  0.3379
  957MOL0     N31980   7.905   6.596   7.746  0.0721 -0.6200 -0.5155
  957MOL0     C31981   6.972   5.941   7.677  0.2835  0.7075 -0.0692
  957MOL0     C31982   6.842   5.948   7.704  0.5743 -0.5438  0.7707
  957MOL0     C31983   6.456   6.036   7.956 -0.5600 -0.1714 -0.7489
  957MOL0     C31984   6.397   6.128   7.869 -0.0465  0.0995  0.1093
  957MOL0     C31985   6.257   6.159   7.862 -0.5476  0.5266  0.2002
  957MOL0     C31986   6.169   6.091   7.952 -0.8447  0.6322  0.3932
  957MOL0     O31987   6.039   6.122   7.932  0.0459 -0.4091 -0.9563
  957MOL0     C31988   5.929   6.031   7.965 -0.1116 -0.1697 -0.6125
  957MOL0     C31989   5.873   5.952   7.841  0.0942 -0.1064 -0.1189
  957MOL0     C31990   5.981   5.876   7.766 -0.1498  0.5395 -0.7862
  957MOL0     C31991   5.920   5.797   7.648 -0.1767  1.0429  0.5307
  957MOL0     C31992   5.859   5.677   7.707  0.0177  0.2603  0.9166
  957MOL0     C31993   5.808   5.572   7.747  0.1771  0.2945  0.2282
  957MOL0     C31994   6.227   6.007   8.048 -0.2216 -0.3780 -0.1959
  957MOL0     C31995   6.365   5.973   8.051 -0.2264 -0.7353 -0.4642
  957MOL0     C31996   6.413   5.887   8.173  0.0532  0.3860  0.1170
  957MOL0     H31997   6.845   6.173   7.964  2.5568  0.1066  1.4091
  957MOL0     H31998   7.082   6.140   7.928 -1.5389  0.8921  0.8876
  957MOL0     H31999   7.211   5.899   7.556  0.0269 -3.2486  0.9804
  957MOL0     H32000   7.363   5.931   7.631  0.1235  0.1008 -1.0797
  957MOL0     H32001   7.322   6.108   7.482 -1.6710 -1.9829 -1.0001
  957MOL0     H32002   7.164   6.149   7.563 -1.5376 -2.7241  1.4336
  957MOL0     H32003   7.277   6.213   7.769  0.5197 -1.4115  0.3849
  957MOL0     H32004   7.432   6.184   7.704  0.0384 -0.5861  1.7840
  957MOL0     H32005   7.292   6.367   7.513  0.3180  0.5738  1.4685
  957MOL0     H32006   7.242   6.412   7.662 -0.1047  2.9291 -3.5761
  957MOL0     H32007   7.488   6.421   7.736 -0.8592  0.1577  0.2995
  957MOL0     H32008   7.435   6.531   7.612 -1.8433  0.2155  1.9720
  957MOL0     H32009   7.570   6.255   7.554 -1.7958  0.5974  2.8133
  957MOL0     H32010   7.518   6.353   7.425  1.3492 -1.4385 -1.6510
  957MOL0     H32011   7.706   6.521   7.508  0.4104 -0.6795 -1.4790
  957MOL0     H32012   7.766   6.363   7.463 -3.4665  0.7486 -3.5116
  957MOL0     H32013   7.705   6.456   7.754 -0.3094 -0.9883  0.5682
  957MOL0     H32014   7.788   6.298   7.708  0.3949 -0.1436 -1.4535
  957MOL0     H32015   8.060   6.345   7.589 -1.3569 -1.6320  0.4444
  957MOL0     H32016   8.284   6.422   7.678 -0.7953  0.6336  2.1957
  957MOL0     H32017   8.290   6.586   7.742  1.0273  0.9007 -0.6069
  957MOL0     H32018   8.315   6.488   7.451 -1.2229 -1.2834  0.1700
  957MOL0     H32019   8.254   6.648   7.489  0.6247  0.4262  1.4987
  957MOL0     H32020   8.474   6.693   7.443  0.1655  0.4671  0.4675
  957MOL0     H32021   8.461   6.681   7.627  0.5372 -5.2223  2.3639
  957MOL0     H32022   8.535   6.454   7.606 -0.3234  0.2456 -0.4458
  957MOL0     H32023   8.582   6.473   7.443  0.5764 -0.3620  0.5303
  957MOL0     H32024   8.750   6.338   7.514  1.3197 -1.3955 -0.9961
  957MOL0     H32025   9.047   6.157   7.530 -1.1144 -0.3876  0.1753
  957MOL0     H32026   9.000   6.206   7.359  0.8911 -3.1919 -0.3118
  957MOL0     H32027   8.890   6.148   7.485  0.5298 -2.7510 -2.7131
  957MOL0     H32028   9.419   6.693   7.276  1.2070  0.4765 -0.3274
  957MOL0     H32029   9.674   6.714   7.257  3.7815 -0.3957  1.1144
  957MOL0     H32030   9.894   6.550   7.575 -0.9865 -1.5506 -0.8967
  957MOL0     H32031  10.020   6.558   7.448 -2.0419 -0.1387 -5.1743
  957MOL0     H32032   9.980   6.790   7.413  0.9937 -1.4293  0.1279
  957MOL0     H32033   9.844   6.783   7.531  0.0766 -1.6134  2.3772
  957MOL0     H32034  10.141   6.723   7.604  0.0506  0.3941 -0.5992
  957MOL0     H32035  10.002   6.736   7.718  0.9502  1.3477  1.1825
  957MOL0     H32036   9.959   6.963   7.654 -0.7817 -2.7102 -0.5717
  957MOL0     H32037  10.099   6.976   7.546  0.4740 -1.3991 -0.6162
  957MOL0     H32038  10.135   6.912   7.835 -0.6015 -0.6400 -1.0335
  957MOL0     H32039  10.264   6.953   7.720  0.5954 -0.1434  0.1119
  957MOL0     H32040  10.061   7.143   7.832 -0.7080 -3.0477  0.3877
  957MOL0     H32041  10.172   7.191   7.696  1.6629 -0.0972 -0.1600
  957MOL0     H32042  10.282   7.089   7.958 -1.7322 -0.2238 -0.6448
  957MOL0     H32043  10.243   7.256   7.915 -2.1893 -0.9900 -1.1049
  957MOL0     H32044  10.398   7.120   7.697  1.5379 -1.1380  0.1402
  957MOL0     H32045  10.482   7.147   7.857  0.1578  0.9302 -0.0555
  957MOL0     H32046   9.704   6.368   7.513 -1.7620 -0.6966  0.9726
  957MOL0     H32047   9.467   6.372   7.560 -2.4452  1.1720 -0.8008
  957MOL0     H32048   9.100   6.679   7.479 -1.2753 -0.4031 -2.8354
  957MOL0     H32049   8.883   6.734   7.563 -1.2776 -0.2924  0.0051
  957MOL0     H32050   7.002   5.876   7.596  2.6600 -0.7759  1.8458
  957MOL0     H32051   6.771   5.907   7.632  0.4054  1.9582 -0.6332
  957MOL0     H32052   6.449   6.185   7.792  0.7043  0.1147  0.6163
  957MOL0     H32053   6.212   6.226   7.790 -2.1045 -3.6884 -3.1755
  957MOL0     H32054   5.955   5.962   8.047  0.5309  0.7031 -0.0632
  957MOL0     H32055   5.847   6.086   8.011 -1.1497 -1.2489 -1.1298
  957MOL0     H32056   5.813   6.010   7.769 -0.3697  0.4147  0.6759
  957MOL0     H32057   5.794   5.889   7.882  0.8990 -1.3998 -0.4947
  957MOL0     H32058   6.060   5.942   7.728  1.0233  0.7447  1.7489
  957MOL0     H32059   6.029   5.807   7.836 -0.9233 -1.3068 -2.0141
  957MOL0     H32060   5.992   5.768   7.571 -0.7577 -0.8435  0.6466
  957MOL0     H32061   5.841   5.850   7.594  0.8083 -1.4804 -3.8554
  957MOL0     H32062   5.769   5.475   7.772  3.2823 -1.1863 -0.1390
  957MOL0     H32063   6.155   5.959   8.114 -1.4039 -0.7787 -1.7174
  957MOL0     H32064   6.490   5.943   8.227 -3.1401  1.5822  3.8344
  957MOL0     H32065   6.335   5.862   8.245  1.4497 -0.0178  1.5406
  957MOL0     H32066   6.453   5.795   8.129  2.2913  2.2601 -2.1251
  958MOL0     O32067   4.630   0.544   5.445 -0.5289  0.2632 -0.1939
  958MOL0     C32068   4.632   0.466   5.541  0.0886 -0.2408  0.0514
  958MOL0     O32069   4.740   0.435   5.609 -0.6052  0.0912 -0.0986
  958MOL0     C32070   4.832   0.534   5.617 -0.1788  0.1157  0.4751
  958MOL0     C32071   4.964   0.503   5.590 -0.0549 -0.3043 -0.6935
  958MOL0     C32072   5.065   0.594   5.611  0.5124  0.2933 -0.4534
  958MOL0     C32073   5.036   0.717   5.668 -0.2026 -0.5966  0.5459
  958MOL0     O32074   5.130   0.812   5.712 -0.9846 -0.0529 -0.0321
  958MOL0     C32075   5.257   0.808   5.643  0.7449 -0.0082 -0.1788
  958MOL0     C32076   5.338   0.932   5.665  0.2613  0.9234  0.8328
  958MOL0     C32077   5.311   1.052   5.566 -0.6432 -0.3814 -0.6263
  958MOL0     C32078   5.385   1.175   5.611 -0.1015 -0.5276  0.5476
  958MOL0     C32079   5.536   1.156   5.589 -0.0327  1.1137 -0.1106
  958MOL0     C32080   5.605   1.280   5.636  0.4207 -0.1858  0.1260
  958MOL0     C32081   5.759   1.269   5.625  0.1330 -0.1474 -0.0106
  958MOL0     C32082   5.826   1.161   5.707  0.0243 -0.5521 -0.2285
  958MOL0     N32083   5.970   1.146   5.693  0.3475 -0.3948  0.2162
  958MOL0     C32084   6.069   1.240   5.697  0.2739 -0.5701  0.4052
  958MOL0     C32085   6.186   1.167   5.696 -0.4560 -0.2420 -0.1774
  958MOL0     C32086   6.321   1.214   5.718  0.0825 -0.4001 -0.2012
  958MOL0     C32087   6.358   1.206   5.872 -1.1807  0.1354 -0.1301
  958MOL0     C32088   6.372   1.073   5.944 -0.1911 -0.6230  0.3729
  958MOL0     C32089   6.478   0.981   5.881 -0.5048  0.3600  0.1960
  958MOL0     O32090   6.451   0.850   5.929 -0.3402 -0.0184 -0.2347
  958MOL0     C32091   6.550   0.790   5.998 -0.2765  0.1677 -0.5234
  958MOL0     C32092   6.526   0.725   6.124  0.4036 -0.0567 -0.4559
  958MOL0     C32093   6.634   0.668   6.197  0.3672  0.2445 -0.1285
  958MOL0     C32094   6.603   0.594   6.331  0.5706  0.2342  0.1130
  958MOL0     C32095   6.768   0.673   6.143 -0.0408  0.5153 -0.7153
  958MOL0     C32096   6.887   0.621   6.207 -0.3525  0.0318 -0.1528
  958MOL0     O32097   7.000   0.607   6.127 -0.0732 -0.0052  0.8217
  958MOL0     C32098   7.122   0.569   6.176 -1.4284  0.3971 -0.3081
  958MOL0     C32099   7.171   0.574   6.303  0.2048 -0.2523  0.2439
  958MOL0     C32100   7.295   0.525   6.335 -0.2999 -0.0353 -0.3614
  958MOL0     C32101   7.386   0.487   6.241 -0.3859 -0.2736  0.9979
  958MOL0     O32102   7.516   0.465   6.280 -0.1530 -0.1628  0.7348
  958MOL0     C32103   7.624   0.480   6.174 -0.2173 -0.3207 -0.7415
  958MOL0     C32104   7.766   0.480   6.232  1.2243  0.4189  0.0841
  958MOL0     C32105   7.869   0.497   6.122  0.3885  0.7566  0.5571
  958MOL0     C32106   8.012   0.498   6.176  0.1360 -0.7709 -0.1645
  958MOL0     C32107   8.122   0.523   6.067  0.9140  0.5764  0.5003
  958MOL0     C32108   8.140   0.407   5.969  0.6425  0.1932 -0.0847
  958MOL0     C32109   8.227   0.445   5.852 -0.1869  0.5317  0.4726
  958MOL0     C32110   8.260   0.339   5.748 -0.0721 -0.2748  0.3756
  958MOL0    Cl32111   8.344   0.193   5.825 -0.2336  0.3643  0.0606
  958MOL0     C32112   7.346   0.488   6.110  0.0384  0.2634 -0.3971
  958MOL0     C32113   7.208   0.522   6.082 -0.2603  0.0879  0.2895
  958MOL0     O32114   6.879   0.588   6.326 -0.4776 -0.4111  0.2054
  958MOL0     C32115   6.782   0.726   6.014  0.0139 -0.3220  0.3051
  958MOL0     C32116   6.680   0.789   5.948  0.0950 -0.0632  0.0673
  958MOL0     N32117   6.147   1.033   5.679 -0.1141  0.5036  0.1155
  958MOL0     N32118   6.022   1.020   5.683 -1.0148 -0.6623 -0.4013
  958MOL0     C32119   4.905   0.752   5.699 -0.5944  0.0105 -0.8227
  958MOL0     C32120   4.806   0.656   5.676  0.9308 -0.8699  0.6486
  958MOL0     C32121   4.510   0.382   5.555  0.2480  0.6160 -0.2526
  958MOL0     C32122   4.395   0.403   5.473  0.0275 -0.1074 -0.4788
  958MOL0     C32123   4.275   0.342   5.492 -0.0315  0.5794  0.2202
  958MOL0     C32124   4.257   0.242   5.591  0.2428 -0.1657 -1.0683
  958MOL0     O32125   4.134   0.184   5.594  0.7781 -0.1577 -0.0704
  958MOL0     C32126   4.126   0.057   5.659  1.0231  0.1692 -0.1076
  958MOL0     C32127   3.989  -0.004   5.629 -0.5002  0.1868  0.0126
  958MOL0     C32128   3.891   0.079   5.547 -0.8928  1.1314 -0.3452
  958MOL0     C32129   3.753   0.017   5.533 -0.1318 -0.1212  0.4423
  958MOL0     C32130   3.750  -0.096   5.441 -0.5194 -0.6450  0.1634
  958MOL0     C32131   3.724  -0.172   5.346 -0.0399 -0.9223  0.2958
  958MOL0     C32132   4.366   0.216   5.678  0.1485  0.0138 -0.6141
  958MOL0     C32133   4.491   0.277   5.658 -0.1774 -0.1375  0.0214
  958MOL0     C32134   4.597   0.254   5.765  0.4962  0.5296 -0.2392
  958MOL0     H32135   4.992   0.399   5.573  2.3960  0.5668 -2.5365
  958MOL0     H32136   5.166   0.563   5.588  0.7594  0.1428  0.7544
  958MOL0     H32137   5.255   0.789   5.535  1.7231  0.1116 -0.2204
  958MOL0     H32138   5.308   0.720   5.684 -1.0323 -1.0715 -0.1285
  958MOL0     H32139   5.308   0.957   5.768 -2.1014  0.3133  0.3587
  958MOL0     H32140   5.444   0.905   5.666  0.3526  1.2587  0.1967
  958MOL0     H32141   5.346   1.025   5.466  0.7273  0.9731 -0.5654
  958MOL0     H32142   5.203   1.061   5.578 -0.7444 -2.7739  0.9017
  958MOL0     H32143   5.340   1.258   5.556  1.1555 -1.4144 -1.9956
  958MOL0     H32144   5.361   1.193   5.716  0.4627  2.0498  0.3070
  958MOL0     H32145   5.563   1.138   5.485  0.4724  0.1378  0.1685
  958MOL0     H32146   5.566   1.071   5.652 -0.1069 -0.0142 -1.5547
  958MOL0     H32147   5.571   1.370   5.584  4.1160  1.4812  0.2552
  958MOL0     H32148   5.577   1.294   5.741 -2.9846 -0.1839 -0.6657
  958MOL0     H32149   5.805   1.362   5.662 -1.3904  0.2714  0.8947
  958MOL0     H32150   5.776   1.258   5.517 -0.1944 -0.0214 -0.0759
  958MOL0     H32151   5.808   1.166   5.815 -1.0675 -0.2481 -0.4195
  958MOL0     H32152   5.792   1.063   5.672  2.0606 -0.7732 -1.7718
  958MOL0     H32153   6.064   1.348   5.710  0.0028 -0.0367 -3.1594
  958MOL0     H32154   6.316   1.321   5.696 -0.9112 -0.3660  0.1617
  958MOL0     H32155   6.379   1.161   5.642 -4.1994 -1.5590 -3.0577
  958MOL0     H32156   6.440   1.274   5.895 -1.8437  0.5158  1.2167
  958MOL0     H32157   6.274   1.257   5.921  0.7141  2.3188  1.0303
  958MOL0     H32158   6.390   1.102   6.048 -1.6775  2.1618 -0.0391
  958MOL0     H32159   6.277   1.019   5.947 -1.9547  2.2709  2.0907
  958MOL0     H32160   6.476   0.982   5.771  1.3381  1.2543  0.1256
  958MOL0     H32161   6.579   1.017   5.905 -0.2961  0.2934 -0.5589
  958MOL0     H32162   6.424   0.703   6.153  0.2704  0.3006 -0.6509
  958MOL0     H32163   6.674   0.616   6.411  3.3557 -1.3694 -1.7484
  958MOL0     H32164   6.605   0.485   6.318 -0.3231  0.2417 -0.1765
  958MOL0     H32165   6.504   0.626   6.364  0.3775  0.2726 -0.4954
  958MOL0     H32166   7.118   0.627   6.381 -0.8241 -1.0102  0.0709
  958MOL0     H32167   7.334   0.530   6.436 -0.1803  1.0520 -0.4522
  958MOL0     H32168   7.614   0.391   6.111  2.8881 -1.3166 -0.0005
  958MOL0     H32169   7.603   0.573   6.121 -2.2290 -1.5411 -2.2246
  958MOL0     H32170   7.771   0.563   6.302 -1.8292  1.7797 -1.1551
  958MOL0     H32171   7.783   0.391   6.293 -0.0733  1.9813  2.8736
  958MOL0     H32172   7.860   0.589   6.063 -0.9357  1.1046  1.2757
  958MOL0     H32173   7.868   0.416   6.048 -0.0300 -0.0984  1.4879
  958MOL0     H32174   8.023   0.398   6.219 -0.1186 -0.4956  0.5582
  958MOL0     H32175   8.021   0.570   6.258 -1.7378 -2.1894  1.3793
  958MOL0     H32176   8.085   0.606   6.006  1.8772  1.0613  0.5549
  958MOL0     H32177   8.218   0.552   6.110  1.4064  1.8124 -1.3074
  958MOL0     H32178   8.043   0.370   5.935 -0.1066 -0.2708  2.3753
  958MOL0     H32179   8.187   0.324   6.022 -0.6064 -0.8668 -0.5603
  958MOL0     H32180   8.324   0.478   5.890 -0.2199  1.5127 -0.2515
  958MOL0     H32181   8.181   0.530   5.800  2.3371  1.0481 -1.1123
  958MOL0     H32182   8.334   0.389   5.684 -0.5214 -0.8006 -0.5813
  958MOL0     H32183   8.173   0.320   5.684 -1.0243  1.4496  1.0876
  958MOL0     H32184   7.420   0.465   6.035  0.0521 -0.2589 -0.2268
  958MOL0     H32185   7.174   0.513   5.979  1.3630 -0.6495 -0.2143
  958MOL0     H32186   6.876   0.741   5.962  0.0232  0.0994  0.4441
  958MOL0     H32187   6.704   0.838   5.855 -2.0962  0.1366 -0.4553
  958MOL0     H32188   4.885   0.849   5.743 -2.7065 -0.5100 -0.5168
  958MOL0     H32189   4.709   0.695   5.704  0.0517 -0.8473 -2.1636
  958MOL0     H32190   4.386   0.481   5.398 -0.5650  0.7812  0.4802
  958MOL0     H32191   4.184   0.365   5.438  0.4823  1.6907 -0.2104
  958MOL0     H32192   4.208  -0.005   5.622  2.0014 -0.2608  2.5641
  958MOL0     H32193   4.145   0.070   5.766  0.3569  3.3821 -0.2854
  958MOL0     H32194   3.949  -0.035   5.726  2.6494 -2.6566  0.5740
  958MOL0     H32195   4.019  -0.090   5.569  1.0343  1.5131 -1.2328
  958MOL0     H32196   3.876   0.175   5.597  1.9175  0.3819  2.2776
  958MOL0     H32197   3.934   0.089   5.447 -1.4900 -2.6441 -1.1277
  958MOL0     H32198   3.683   0.094   5.499  0.6907  1.5839  2.3661
  958MOL0     H32199   3.727   0.005   5.639 -0.1256  2.9326  0.8637
  958MOL0     H32200   3.705  -0.239   5.264  2.8764 -2.5810  0.8564
  958MOL0     H32201   4.342   0.151   5.761 -2.8733 -0.2001 -1.5342
  958MOL0     H32202   4.577   0.163   5.821  2.4377 -0.5338 -1.1582
  958MOL0     H32203   4.698   0.237   5.726  0.2514  2.1946 -1.6953
  958MOL0     H32204   4.599   0.346   5.824 -2.2573  1.5685 -1.5577
  959MOL0     O32205   8.478   9.863   5.445  0.0679 -0.4408 -0.7211
  959MOL0     C32206   8.430   9.899   5.550  0.3094  0.3504 -0.5536
  959MOL0     O32207   8.484   9.871   5.679 -0.0366 -0.2831 -0.5636
  959MOL0     C32208   8.617   9.833   5.693 -0.8187 -0.1130 -0.1221
  959MOL0     C32209   8.719   9.859   5.594 -0.2047 -0.2155 -0.8101
  959MOL0     C32210   8.845   9.809   5.621  0.6116  0.5940 -0.5256
  959MOL0     C32211   8.882   9.737   5.736  0.0834 -0.2709  0.0158
  959MOL0     O32212   9.010   9.692   5.757  0.2085  0.2275  0.0608
  959MOL0     C32213   9.075   9.761   5.870 -0.3262  0.8854  0.4590
  959MOL0     C32214   9.219   9.736   5.898  0.7261 -0.1202  0.6355
  959MOL0     C32215   9.296   9.742   5.766  0.2344  0.9329  0.0084
  959MOL0     C32216   9.449   9.753   5.790  0.4828 -0.2639 -0.1103
  959MOL0     C32217   9.539   9.699   5.670  0.0550 -0.0213 -0.0568
  959MOL0     C32218   9.675   9.754   5.642 -0.3566  0.7196 -0.7430
  959MOL0     C32219   9.766   9.731   5.759  0.6748 -0.6153 -0.7472
  959MOL0     C32220   9.907   9.792   5.743 -0.8347  0.2991 -0.7319
  959MOL0     N32221   9.906   9.942   5.750 -0.6931 -0.0427  0.1926
  959MOL0     C32222   9.929  10.037   5.644 -1.1040 -0.1380 -0.7366
  959MOL0     C32223   9.941  10.155   5.715 -1.0787 -0.5977 -0.1670
  959MOL0     C32224   9.963  10.288   5.645 -0.8218 -1.5568 -0.1593
  959MOL0     C32225  10.105  10.353   5.659 -0.3181  1.0666 -0.0699
  959MOL0     C32226  10.146  10.401   5.796 -0.4787  0.4296  0.0590
  959MOL0     C32227  10.083  10.537   5.824 -0.1358 -0.3095 -0.0917
  959MOL0     O32228  10.134  10.643   5.728  0.6321 -0.1153  0.3140
  959MOL0     C32229  10.261  10.686   5.733  0.1964  0.2460  0.4832
  959MOL0     C32230  10.301  10.774   5.633  0.0775 -0.3982 -0.5014
  959MOL0     C32231  10.436  10.812   5.604  0.3644 -0.1613 -0.2076
  959MOL0     C32232  10.455  10.888   5.477 -0.0236  0.8244 -0.4485
  959MOL0     C32233  10.533  10.772   5.697 -0.2212  0.2057 -0.0956
  959MOL0     C32234  10.679  10.809   5.691  0.6812  0.2166  0.4299
  959MOL0     O32235  10.718  10.873   5.579  0.2922 -1.2047  0.6681
  959MOL0     C32236  10.857  10.900   5.558 -0.4474  0.4817 -0.4558
  959MOL0     C32237  10.952  10.797   5.534 -0.1137  0.6884  0.5901
  959MOL0     C32238  11.083  10.839   5.503 -0.5164  0.6320 -0.0495
  959MOL0     C32239  11.121  10.976   5.506 -0.2107  0.1184  0.2430
  959MOL0     O32240  11.247  11.026   5.484  0.6980 -0.1458 -0.1633
  959MOL0     C32241  11.353  10.944   5.442 -0.1016  0.0395 -0.1701
  959MOL0     C32242  11.439  11.021   5.344  0.9970  1.3577  0.0960
  959MOL0     C32243  11.549  11.096   5.408  0.5545  0.3883  0.2208
  959MOL0     C32244  11.639  11.173   5.310 -0.4568 -0.7349  0.5606
  959MOL0     C32245  11.731  11.277   5.388  0.2441  0.0822  0.7423
  959MOL0     C32246  11.852  11.342   5.306 -0.6363  0.4116 -0.1049
  959MOL0     C32247  11.943  11.221   5.253 -0.6909  0.5324  0.1593
  959MOL0     C32248  11.993  11.241   5.110 -0.2485  0.5768  0.4929
  959MOL0    Cl32249  12.120  11.362   5.092  0.5394  0.2849  0.1360
  959MOL0     C32250  11.027  11.072   5.531  0.7084 -0.0074  0.5113
  959MOL0     C32251  10.893  11.034   5.556 -0.4680  0.7915 -0.8923
  959MOL0     O32252  10.746  10.791   5.787 -0.2534 -0.2675  0.3683
  959MOL0     C32253  10.490  10.690   5.805  0.0153 -0.3885 -0.6929
  959MOL0     C32254  10.358  10.649   5.827 -0.4069  0.2871  0.2644
  959MOL0     N32255   9.923  10.133   5.851 -0.1748  0.1523 -0.0496
  959MOL0     N32256   9.905  10.009   5.870  0.4651 -0.6910 -0.3087
  959MOL0     C32257   8.779   9.727   5.830  0.1458  0.3397 -0.3943
  959MOL0     C32258   8.651   9.767   5.809  0.1383 -0.5107  0.3900
  959MOL0     C32259   8.285   9.952   5.537 -0.1592  0.7018  0.3826
  959MOL0     C32260   8.241   9.982   5.401 -0.1507 -0.9178  0.2820
  959MOL0     C32261   8.114  10.035   5.382 -0.2707  0.1470  0.9274
  959MOL0     C32262   8.027  10.058   5.483 -0.5718 -0.0746 -0.2219
  959MOL0     O32263   7.901  10.099   5.448 -0.4582 -0.5248  0.4064
  959MOL0     C32264   7.818  10.158   5.554  0.4798  0.5836  0.9936
  959MOL0     C32265   7.703  10.230   5.474  0.0277 -0.1924  0.0911
  959MOL0     C32266   7.598  10.130   5.417  0.2058  0.8460 -1.0335
  959MOL0     C32267   7.499  10.222   5.342  0.2142 -0.5498 -0.7991
  959MOL0     C32268   7.411  10.141   5.259  1.0148  0.3418  0.3287
  959MOL0     C32269   7.334  10.086   5.187 -0.1365 -0.2835 -0.0046
  959MOL0     C32270   8.069  10.044   5.615 -0.3492  0.1960  0.4093
  959MOL0     C32271   8.199   9.989   5.639 -0.2851 -0.0087  0.4012
  959MOL0     C32272   8.232   9.977   5.792 -0.3862  0.1637 -0.2682
  959MOL0     H32273   8.702   9.913   5.502  2.6317  2.6324  0.1692
  959MOL0     H32274   8.924   9.815   5.547 -0.8828  0.0631 -2.2417
  959MOL0     H32275   9.013   9.725   5.952  0.4114 -2.6007 -0.3430
  959MOL0     H32276   9.068   9.868   5.851 -0.1525  0.9850  0.9632
  959MOL0     H32277   9.257   9.818   5.959  2.0662 -0.6230  0.5029
  959MOL0     H32278   9.234   9.643   5.953  0.3112 -0.3327  0.3962
  959MOL0     H32279   9.277   9.647   5.715  0.7174  0.1265  1.2786
  959MOL0     H32280   9.253   9.827   5.712 -0.5263  0.4968 -0.0733
  959MOL0     H32281   9.461   9.861   5.802 -2.4093  0.2007 -0.7111
  959MOL0     H32282   9.480   9.708   5.885 -2.2223 -0.7644  0.6128
  959MOL0     H32283   9.482   9.713   5.577  1.9972  0.4534 -1.2359
  959MOL0     H32284   9.556   9.592   5.685  3.5893  0.1702 -1.8418
  959MOL0     H32285   9.719   9.691   5.563  1.9246 -0.9032  1.6240
  959MOL0     H32286   9.671   9.860   5.618 -2.0325  1.0704  0.9252
  959MOL0     H32287   9.776   9.626   5.790  2.8636  0.1325  1.3681
  959MOL0     H32288   9.723   9.786   5.842 -0.0035 -0.8421 -0.9368
  959MOL0     H32289   9.959   9.758   5.833  0.0946  1.9704 -0.5905
  959MOL0     H32290   9.971   9.748   5.666  0.2353  1.4470 -0.5347
  959MOL0     H32291   9.935  10.018   5.537  0.4694 -0.5683 -0.6094
  959MOL0     H32292   9.882  10.355   5.675  0.5125 -1.0246  2.5392
  959MOL0     H32293   9.943  10.274   5.538 -0.0555 -0.5166 -0.4541
  959MOL0     H32294  10.177  10.278   5.624 -0.2923  1.5221 -1.0467
  959MOL0     H32295  10.115  10.436   5.588  0.2136  1.0718  0.0095
  959MOL0     H32296  10.114  10.336   5.879  0.6325  3.0884  2.7712
  959MOL0     H32297  10.255  10.392   5.809 -0.2250 -2.2443 -2.7422
  959MOL0     H32298   9.974  10.532   5.816  0.0276 -0.5577 -3.7909
  959MOL0     H32299  10.109  10.574   5.924  4.1615 -0.6717 -0.9212
  959MOL0     H32300  10.218  10.798   5.567 -2.2125 -1.8424  1.6996
  959MOL0     H32301  10.500  10.834   5.392 -1.9039 -0.1645 -0.8623
  959MOL0     H32302  10.518  10.977   5.489  1.2792  0.2871 -2.6376
  959MOL0     H32303  10.357  10.926   5.447  1.4260  2.8588 -3.0185
  959MOL0     H32304  10.927  10.691   5.537 -0.4144  0.7766  1.2552
  959MOL0     H32305  11.159  10.768   5.474 -0.9475 -0.1508  0.6924
  959MOL0     H32306  11.416  10.914   5.526  1.6759 -1.6615 -1.9762
  959MOL0     H32307  11.324  10.856   5.383  0.4546 -0.2564 -0.0101
  959MOL0     H32308  11.472  10.940   5.278  0.3674  1.4574 -0.3560
  959MOL0     H32309  11.379  11.092   5.286  2.5918  1.7625 -1.1151
  959MOL0     H32310  11.604  11.012   5.453  2.9806  1.2706 -0.8848
  959MOL0     H32311  11.506  11.155   5.490  0.9435  1.3458 -0.2433
  959MOL0     H32312  11.587  11.236   5.237  0.9381  1.2955  1.2398
  959MOL0     H32313  11.700  11.109   5.245 -0.1692 -0.8606  0.9519
  959MOL0     H32314  11.672  11.361   5.425  0.7579  0.9705 -0.4141
  959MOL0     H32315  11.777  11.220   5.469  0.5117  0.3084  0.7491
  959MOL0     H32316  11.902  11.397   5.387  0.6118  0.7799 -1.0934
  959MOL0     H32317  11.816  11.401   5.221 -2.7127 -2.7943 -1.6578
  959MOL0     H32318  11.904  11.119   5.260 -2.2496  1.1616  1.0511
  959MOL0     H32319  12.030  11.231   5.318 -1.9023  0.9757  1.7728
  959MOL0     H32320  11.910  11.280   5.049  1.5436  1.7296 -1.3365
  959MOL0     H32321  12.022  11.143   5.072 -2.3253 -0.5940  1.7286
  959MOL0     H32322  11.059  11.174   5.548  1.1274 -0.0055 -0.2509
  959MOL0     H32323  10.823  11.110   5.590 -2.3830 -0.9640 -0.6856
  959MOL0     H32324  10.555  10.658   5.886 -1.8962  0.8981  1.4658
  959MOL0     H32325  10.332  10.586   5.911 -3.2877  1.4261  0.3259
  959MOL0     H32326   8.810   9.677   5.921 -0.9105  0.1656 -0.1261
  959MOL0     H32327   8.577   9.761   5.889  0.6491 -1.3414  0.8180
  959MOL0     H32328   8.302   9.958   5.314  0.3061  1.4694 -0.1189
  959MOL0     H32329   8.080  10.069   5.285 -0.4071  0.9561  1.2508
  959MOL0     H32330   7.787  10.078   5.622  1.1632  0.2459  0.9147
  959MOL0     H32331   7.878  10.232   5.609 -1.9871  3.6952 -0.2249
  959MOL0     H32332   7.754  10.292   5.399 -0.9488  0.9101  0.2968
  959MOL0     H32333   7.655  10.297   5.546  2.3349 -0.5196  2.0458
  959MOL0     H32334   7.645  10.077   5.334 -1.8100  1.9489 -2.9908
  959MOL0     H32335   7.542  10.084   5.499 -0.9351  0.1268 -2.1726
  959MOL0     H32336   7.555  10.283   5.271 -2.8886  1.6109 -1.6049
  959MOL0     H32337   7.432  10.277   5.409  0.3210 -2.2909  0.8144
  959MOL0     H32338   7.266  10.054   5.111  0.8524  0.6368 -1.3105
  959MOL0     H32339   8.007  10.065   5.702  0.9209  2.4376  0.8311
  959MOL0     H32340   8.315  10.037   5.829 -1.4246  1.1646  0.5134
  959MOL0     H32341   8.139   9.999   5.845 -1.2541  0.8719 -2.0144
  959MOL0     H32342   8.258   9.872   5.807  0.8079  0.4237 -0.4078
  960MOL0     O32343   0.467   1.109   7.069 -0.6953  0.4072 -0.5470
  960MOL0     C32344   0.439   1.165   6.961 -0.2632 -0.9260 -0.2262
  960MOL0     O32345   0.527   1.212   6.879  0.1642  0.4973 -0.1736
  960MOL0     C32346   0.662   1.226   6.919 -0.2780 -0.2049  1.0557
  960MOL0     C32347   0.701   1.308   7.026 -0.6254  0.0880  0.3146
  960MOL0     C32348   0.840   1.320   7.061  0.2912  0.5131 -0.6353
  960MOL0     C32349   0.941   1.256   6.995  0.0148  0.1537  0.1632
  960MOL0     O32350   1.067   1.266   7.047  0.9367  0.4353 -0.1706
  960MOL0     C32351   1.174   1.254   6.957  0.0782  0.1118 -0.2012
  960MOL0     C32352   1.314   1.267   7.029 -0.2105 -0.4343 -0.5633
  960MOL0     C32353   1.424   1.274   6.924  0.1823  0.0131  0.4392
  960MOL0     C32354   1.556   1.261   6.991 -0.5458 -0.2575 -1.0669
  960MOL0     C32355   1.684   1.271   6.900 -0.6046  0.5945 -0.2562
  960MOL0     C32356   1.811   1.246   6.994  0.1475  0.4691  1.3489
  960MOL0     C32357   1.933   1.201   6.914  0.5807 -1.7884  0.2950
  960MOL0     C32358   2.042   1.133   7.006 -0.5672 -0.8473  0.7447
  960MOL0     N32359   2.160   1.100   6.929 -0.3373  0.7661 -0.2528
  960MOL0     C32360   2.248   0.995   6.968  0.0398 -0.5101 -0.2091
  960MOL0     C32361   2.336   0.981   6.867 -0.0229  0.2740  0.6760
  960MOL0     C32362   2.474   0.901   6.855  0.7015 -0.9125 -0.1674
  960MOL0     C32363   2.597   0.979   6.916  0.3008  0.0787 -0.2328
  960MOL0     C32364   2.592   0.964   7.073  0.2589 -0.4984  0.4280
  960MOL0     C32365   2.713   1.016   7.158 -0.0511  0.2671  0.0400
  960MOL0     O32366   2.834   0.951   7.118  0.4050  0.4698 -0.0481
  960MOL0     C32367   2.956   1.000   7.163  0.0964  0.1153 -0.7864
  960MOL0     C32368   2.976   1.135   7.207  0.6493 -0.0502  0.2230
  960MOL0     C32369   3.104   1.181   7.249  0.2270 -0.5449 -0.2825
  960MOL0     C32370   3.102   1.322   7.312  0.5449 -0.3161  0.5154
  960MOL0     C32371   3.215   1.096   7.225  0.3984 -0.1106  0.2939
  960MOL0     C32372   3.356   1.119   7.256  0.5900 -1.1318 -0.9878
  960MOL0     O32373   3.380   1.248   7.296  0.1460  0.0105 -0.0804
  960MOL0     C32374   3.502   1.288   7.335 -0.5056 -0.2506  0.6954
  960MOL0     C32375   3.500   1.404   7.415 -0.2673 -0.0366  0.4586
  960MOL0     C32376   3.618   1.460   7.463  0.6260 -0.0172  0.3218
  960MOL0     C32377   3.742   1.408   7.415 -0.6314 -0.1233 -0.0992
  960MOL0     O32378   3.849   1.476   7.466  0.3188  0.3544  0.6828
  960MOL0     C32379   3.979   1.458   7.401  0.2319 -0.4086  0.1891
  960MOL0     C32380   4.050   1.341   7.477  0.5822 -0.8972 -0.1629
  960MOL0     C32381   4.051   1.348   7.633  0.1289  0.3374 -0.4896
  960MOL0     C32382   4.095   1.227   7.714 -0.8863  0.6275  0.3647
  960MOL0     C32383   4.137   1.268   7.852  0.3530  0.4724  0.3747
  960MOL0     C32384   4.206   1.159   7.923  0.5061  0.6848 -0.1582
  960MOL0     C32385   4.245   1.200   8.063 -0.1443 -0.5614 -0.1103
  960MOL0     C32386   4.268   1.080   8.155  0.1494 -0.0627 -0.0899
  960MOL0    Cl32387   4.360   1.125   8.309  0.2409 -0.2432  0.4609
  960MOL0     C32388   3.753   1.302   7.325 -0.3163  0.0795 -0.1404
  960MOL0     C32389   3.629   1.238   7.284 -0.5920  0.3269  0.0944
  960MOL0     O32390   3.432   1.023   7.268 -0.1628 -0.3504 -0.0784
  960MOL0     C32391   3.191   0.966   7.175  0.7011  0.1507 -0.1356
  960MOL0     C32392   3.061   0.915   7.148 -0.9451 -0.3103 -0.3003
  960MOL0     N32393   2.297   1.084   6.774  0.1488  0.2602  0.1102
  960MOL0     N32394   2.193   1.144   6.808  0.5877 -0.2003  0.5657
  960MOL0     C32395   0.907   1.179   6.883  0.5825 -0.5270  0.3226
  960MOL0     C32396   0.767   1.163   6.846 -0.5463  0.2497  0.3185
  960MOL0     C32397   0.297   1.149   6.919  0.3632 -0.6346  0.1716
  960MOL0     C32398   0.196   1.134   7.015 -0.4621 -0.2105 -0.0908
  960MOL0     C32399   0.061   1.124   6.993 -0.5949  1.0476  0.3958
  960MOL0     C32400   0.013   1.125   6.864  0.1083 -0.0502  0.2366
  960MOL0     O32401  -0.118   1.114   6.836  0.3410  0.2514 -0.1128
  960MOL0     C32402  -0.200   1.063   6.945  0.0289  0.1171 -0.4496
  960MOL0     C32403  -0.343   1.068   6.879 -0.4386  0.7973  0.2274
  960MOL0     C32404  -0.456   1.023   6.970  0.5036 -0.0750  0.6429
  960MOL0     C32405  -0.586   1.068   6.910 -0.3415  0.2141  0.4291
  960MOL0     C32406  -0.693   1.036   6.999  0.0455 -0.1946  0.0495
  960MOL0     C32407  -0.771   1.024   7.092  0.8710  0.8595  0.9448
  960MOL0     C32408   0.103   1.150   6.762  0.0272 -0.5563  0.7387
  960MOL0     C32409   0.242   1.146   6.786 -0.4180  0.0800  0.9819
  960MOL0     C32410   0.334   1.144   6.666  0.3178  0.5246 -0.0768
  960MOL0     H32411   0.642   1.379   7.081 -1.5830 -1.7629  1.7954
  960MOL0     H32412   0.867   1.390   7.140 -1.8667  0.4234  0.2715
  960MOL0     H32413   1.160   1.333   6.882  1.3680  1.2713  0.7314
  960MOL0     H32414   1.169   1.158   6.904 -2.1770  0.1924 -0.2474
  960MOL0     H32415   1.312   1.365   7.078 -0.0153 -0.2651 -0.8898
  960MOL0     H32416   1.325   1.185   7.101 -0.6166  1.2139  1.4770
  960MOL0     H32417   1.403   1.196   6.850  0.5196 -0.9413  1.3279
  960MOL0     H32418   1.416   1.373   6.879 -4.6573 -0.0921  0.5554
  960MOL0     H32419   1.553   1.342   7.065  1.3212 -1.6725  0.6578
  960MOL0     H32420   1.549   1.173   7.056 -2.3926  2.2467  2.4481
  960MOL0     H32421   1.683   1.360   6.835 -1.0409  1.3685  0.7781
  960MOL0     H32422   1.680   1.186   6.831  0.3453 -1.9395  2.6181
  960MOL0     H32423   1.837   1.340   7.044  0.6425  0.2326  1.5507
  960MOL0     H32424   1.781   1.167   7.063  0.2879  0.7313  1.7154
  960MOL0     H32425   1.978   1.285   6.860 -1.4828 -1.1027 -0.4648
  960MOL0     H32426   1.907   1.124   6.840  0.3438 -0.3178 -1.2105
  960MOL0     H32427   2.066   1.201   7.089 -1.8927  2.3348 -1.2662
  960MOL0     H32428   2.003   1.038   7.043 -2.5907 -1.0409 -1.6441
  960MOL0     H32429   2.262   0.943   7.063  0.7129  3.1720  1.8738
  960MOL0     H32430   2.485   0.883   6.748 -0.5229  2.2161 -0.9356
  960MOL0     H32431   2.467   0.802   6.901 -2.4025 -1.7026 -1.9983
  960MOL0     H32432   2.696   0.950   6.879 -0.2526 -1.3281 -0.6863
  960MOL0     H32433   2.593   1.085   6.890  0.0151 -0.1843 -1.3422
  960MOL0     H32434   2.510   1.028   7.106 -1.7808 -2.7828  0.0750
  960MOL0     H32435   2.576   0.858   7.095  0.5060 -0.9812 -1.6034
  960MOL0     H32436   2.716   1.124   7.143 -0.4532  0.3783  0.7106
  960MOL0     H32437   2.699   0.991   7.264 -0.0885 -1.2088 -0.2933
  960MOL0     H32438   2.899   1.212   7.200  0.1349 -0.6347 -0.7817
  960MOL0     H32439   3.138   1.394   7.238 -2.2413  1.0733  0.3910
  960MOL0     H32440   3.164   1.309   7.401  1.2351 -0.6761 -0.0115
  960MOL0     H32441   3.005   1.352   7.352  0.5365 -0.8862  0.9283
  960MOL0     H32442   3.404   1.432   7.456 -1.1790 -2.0125 -0.2079
  960MOL0     H32443   3.634   1.550   7.522  1.3092  1.8720 -2.5377
  960MOL0     H32444   3.967   1.448   7.292 -1.8670  2.0867  0.0865
  960MOL0     H32445   4.040   1.549   7.406 -1.2150  0.8263 -2.3773
  960MOL0     H32446   4.005   1.247   7.443 -0.8908 -0.7949  1.4153
  960MOL0     H32447   4.151   1.355   7.436  2.4779  0.1467  4.2809
  960MOL0     H32448   3.950   1.358   7.673  1.6459 -1.7163  4.6997
  960MOL0     H32449   4.106   1.434   7.671 -0.1179  0.3918 -0.2520
  960MOL0     H32450   4.177   1.175   7.664 -1.3798  0.7446 -0.5905
  960MOL0     H32451   4.008   1.161   7.722  0.3976 -0.8773  4.1173
  960MOL0     H32452   4.208   1.350   7.845  0.7907  0.2262  1.6377
  960MOL0     H32453   4.052   1.290   7.917  0.7462 -0.0582  1.0785
  960MOL0     H32454   4.287   1.109   7.871 -0.3335 -1.7847  0.7838
  960MOL0     H32455   4.125   1.087   7.937  2.9466 -2.0025  1.0760
  960MOL0     H32456   4.161   1.247   8.116  1.0507 -1.8429  3.2192
  960MOL0     H32457   4.325   1.274   8.055 -0.9452  0.4777  1.0104
  960MOL0     H32458   4.332   1.002   8.112 -1.5203 -2.4245  1.4787
  960MOL0     H32459   4.176   1.029   8.184 -0.0165  0.1977 -0.1572
  960MOL0     H32460   3.847   1.258   7.295  0.8381  3.7517 -2.6227
  960MOL0     H32461   3.624   1.151   7.219 -1.4676  1.3068 -1.2196
  960MOL0     H32462   3.261   0.884   7.165 -1.6556 -2.1470  0.9698
  960MOL0     H32463   3.061   0.819   7.098 -0.6454 -1.8150  2.4342
  960MOL0     H32464   0.991   1.130   6.834 -1.2047 -2.3822 -1.0479
  960MOL0     H32465   0.727   1.109   6.761  3.1144 -1.5374 -0.4502
  960MOL0     H32466   0.207   1.141   7.122 -1.6047  0.0730  0.0216
  960MOL0     H32467  -0.006   1.108   7.077 -0.1048 -1.7551  0.3455
  960MOL0     H32468  -0.183   0.960   6.977 -0.6146 -0.8341 -2.9119
  960MOL0     H32469  -0.208   1.133   7.028 -1.2968 -0.1044 -0.3624
  960MOL0     H32470  -0.338   1.016   6.783 -0.8913  0.0268  0.6063
  960MOL0     H32471  -0.354   1.171   6.843  1.5113  0.1852 -2.3871
  960MOL0     H32472  -0.451   0.913   6.971 -0.1546 -0.2422 -2.7803
  960MOL0     H32473  -0.450   1.070   7.068 -0.6561  0.5481  0.4257
  960MOL0     H32474  -0.602   1.047   6.803 -3.0401  1.9144  0.4152
  960MOL0     H32475  -0.587   1.177   6.911 -0.9520  0.2121  0.1235
  960MOL0     H32476  -0.844   1.018   7.170 -0.3396  1.1252 -0.1441
  960MOL0     H32477   0.064   1.165   6.662 -2.7347  3.5804  2.2016
  960MOL0     H32478   0.379   1.243   6.649  0.6879 -0.0072 -2.7633
  960MOL0     H32479   0.419   1.075   6.669  0.0734  0.2045 -0.4269
  960MOL0     H32480   0.270   1.131   6.578 -0.6302 -1.0954  0.8160
  961MOL0     O32481   1.514   4.183   4.934  0.1362  0.2281  0.1886
  961MOL0     C32482   1.540   4.062   4.934 -0.2865  0.7433 -0.0875
  961MOL0     O32483   1.466   3.959   4.882 -0.0515 -0.1170 -0.6154
  961MOL0     C32484   1.324   3.973   4.862  0.0757 -0.3183 -0.3644
  961MOL0     C32485   1.267   3.870   4.790 -0.0313  0.3826 -0.5109
  961MOL0     C32486   1.135   3.871   4.760  0.7780  0.1712 -0.1181
  961MOL0     C32487   1.050   3.972   4.802 -0.2827  0.1382 -0.1822
  961MOL0     O32488   0.919   3.960   4.758  0.1310  0.7858 -0.9286
  961MOL0     C32489   0.820   4.058   4.795 -0.2805 -0.2198 -0.8370
  961MOL0     C32490   0.685   4.007   4.730 -0.1746 -0.6140 -0.8626
  961MOL0     C32491   0.565   4.099   4.738  0.5811 -0.8978  0.0407
  961MOL0     C32492   0.452   4.045   4.648  0.6903  0.6188 -0.2809
  961MOL0     C32493   0.341   4.143   4.603  0.2901 -0.3555  0.4216
  961MOL0     C32494   0.379   4.226   4.477 -0.2848  0.7279 -0.3906
  961MOL0     C32495   0.258   4.310   4.436 -0.0008  0.1071 -0.6189
  961MOL0     C32496   0.284   4.401   4.320 -0.1822 -0.0551 -0.0073
  961MOL0     N32497   0.384   4.500   4.343 -0.0068  0.4662  0.1839
  961MOL0     C32498   0.372   4.614   4.421  0.0045  0.5618  0.5285
  961MOL0     C32499   0.501   4.668   4.415  0.3282  0.5884 -0.7589
  961MOL0     C32500   0.561   4.780   4.506 -0.3298  0.5086  0.4324
  961MOL0     C32501   0.550   4.913   4.444 -0.2505 -0.1618 -0.0224
  961MOL0     C32502   0.582   5.028   4.538 -0.6177 -0.9414 -0.0834
  961MOL0     C32503   0.590   5.163   4.464  0.6559  0.6840  0.6732
  961MOL0     O32504   0.695   5.163   4.370 -0.1815 -0.8479 -0.2820
  961MOL0     C32505   0.825   5.162   4.411  0.2283 -0.1964  0.2281
  961MOL0     C32506   0.918   5.119   4.317  0.4139 -0.1119 -0.2376
  961MOL0     C32507   1.057   5.117   4.344  0.2045 -0.3393 -0.2258
  961MOL0     C32508   1.142   5.049   4.235 -0.0065 -0.2540  0.0520
  961MOL0     C32509   1.104   5.160   4.472  0.2529  0.0537 -0.0027
  961MOL0     C32510   1.250   5.164   4.513  0.0908  0.0871 -0.0995
  961MOL0     O32511   1.268   5.200   4.641 -0.0513  0.0651  0.5506
  961MOL0     C32512   1.385   5.178   4.702  0.2690  0.4068 -0.0364
  961MOL0     C32513   1.395   5.082   4.808  0.2575  0.0173  1.5527
  961MOL0     C32514   1.518   5.051   4.866 -0.3318 -0.0926  0.2624
  961MOL0     C32515   1.638   5.111   4.830  0.7741 -0.2029 -0.0962
  961MOL0     O32516   1.760   5.070   4.875  0.5459 -0.1060 -0.5822
  961MOL0     C32517   1.776   4.961   4.968  0.3802 -0.8843 -0.1278
  961MOL0     C32518   1.918   4.934   5.020  0.1221 -0.2704  0.7436
  961MOL0     C32519   1.981   5.059   5.081 -0.2073  0.0074 -0.2877
  961MOL0     C32520   2.121   5.043   5.134  0.1727  0.0394 -1.0228
  961MOL0     C32521   2.180   5.169   5.210 -0.2294 -0.4037 -0.5338
  961MOL0     C32522   2.255   5.138   5.335 -0.0469  0.6357  0.0196
  961MOL0     C32523   2.333   5.259   5.391  0.0398  0.5150  0.3955
  961MOL0     C32524   2.473   5.223   5.430 -0.0446  0.1369 -0.4240
  961MOL0    Cl32525   2.564   5.140   5.317 -0.2015  0.1624  0.8087
  961MOL0     C32526   1.624   5.208   4.726  0.1293 -0.3433  0.5611
  961MOL0     C32527   1.500   5.243   4.662  0.7202  0.0477  0.5673
  961MOL0     O32528   1.339   5.141   4.433  0.1133  0.5479  0.0944
  961MOL0     C32529   1.009   5.194   4.581 -0.4269 -0.0289  0.5381
  961MOL0     C32530   0.873   5.202   4.544 -0.4190 -0.3692  0.1178
  961MOL0     N32531   0.579   4.589   4.327 -0.2621 -0.0301 -0.2294
  961MOL0     N32532   0.508   4.492   4.290  0.6322 -0.3224 -0.2137
  961MOL0     C32533   1.108   4.076   4.880  0.5116 -0.1226  0.7893
  961MOL0     C32534   1.246   4.077   4.910  0.5572 -0.1677 -0.6422
  961MOL0     C32535   1.672   4.015   4.997 -0.4864 -0.2225 -0.3717
  961MOL0     C32536   1.728   3.891   4.962 -0.2224  0.9154  0.0827
  961MOL0     C32537   1.844   3.840   5.024 -1.0640  0.7555  0.9297
  961MOL0     C32538   1.922   3.908   5.121  0.1142  0.4080 -0.3513
  961MOL0     O32539   2.042   3.860   5.163 -0.9903  0.1457  0.0453
  961MOL0     C32540   2.135   3.942   5.236  0.7537 -0.2790 -0.3815
  961MOL0     C32541   2.272   3.898   5.216 -0.9042  0.4639 -0.7658
  961MOL0     C32542   2.374   3.964   5.310 -0.4246  0.3753 -0.5420
  961MOL0     C32543   2.518   3.900   5.318 -0.3265 -0.3942 -0.2915
  961MOL0     C32544   2.612   3.960   5.412  0.1322  0.1835 -0.4298
  961MOL0     C32545   2.692   4.001   5.493 -0.3328 -0.5105 -0.4731
  961MOL0     C32546   1.868   4.034   5.153  0.1588 -0.2655 -0.0064
  961MOL0     C32547   1.750   4.098   5.092 -0.0432  0.2088  0.0036
  961MOL0     C32548   1.730   4.240   5.132  0.5478  0.4251  0.2039
  961MOL0     H32549   1.323   3.782   4.759 -1.4608 -0.0343 -2.0048
  961MOL0     H32550   1.092   3.784   4.711  0.9659 -1.7991  2.9679
  961MOL0     H32551   0.855   4.157   4.765 -0.8044  0.7532  1.5081
  961MOL0     H32552   0.803   4.068   4.903  1.8098  2.5467 -0.6623
  961MOL0     H32553   0.695   3.981   4.624 -0.4858 -3.1242 -0.3522
  961MOL0     H32554   0.661   3.910   4.775 -0.8182  0.4277  1.1910
  961MOL0     H32555   0.520   4.099   4.837 -1.8434  0.0164 -0.9646
  961MOL0     H32556   0.596   4.199   4.706  1.8141 -1.4921 -0.7166
  961MOL0     H32557   0.490   3.982   4.567  0.8753 -0.1456  0.3899
  961MOL0     H32558   0.401   3.973   4.712 -0.5291 -2.0772 -3.9462
  961MOL0     H32559   0.321   4.204   4.691  3.5777 -0.8952  1.6741
  961MOL0     H32560   0.254   4.085   4.571  1.1717 -1.7474  0.4799
  961MOL0     H32561   0.458   4.286   4.522 -3.0304  0.7958  5.3043
  961MOL0     H32562   0.411   4.169   4.389  0.4719  0.5573 -0.0109
  961MOL0     H32563   0.224   4.368   4.522 -1.2833 -0.9947 -0.3495
  961MOL0     H32564   0.170   4.249   4.414  0.1904 -1.2783  2.1112
  961MOL0     H32565   0.310   4.344   4.230  1.5048  1.1198 -0.3270
  961MOL0     H32566   0.189   4.454   4.307  0.5074  1.4786  0.8773
  961MOL0     H32567   0.293   4.659   4.481 -0.2123  1.7536 -0.5861
  961MOL0     H32568   0.665   4.759   4.532 -0.5429  0.5382  1.3503
  961MOL0     H32569   0.508   4.779   4.602 -3.3705 -1.5089 -1.1157
  961MOL0     H32570   0.620   4.913   4.359  1.1581  0.8945  1.0814
  961MOL0     H32571   0.450   4.923   4.402 -1.1399 -4.9003  0.4429
  961MOL0     H32572   0.504   5.036   4.614  0.7485  2.6455  1.1572
  961MOL0     H32573   0.677   5.011   4.589  0.5248  3.6507 -0.2617
  961MOL0     H32574   0.491   5.170   4.420  0.5950  1.3333  0.9062
  961MOL0     H32575   0.602   5.245   4.536 -0.6384  2.0230 -0.5814
  961MOL0     H32576   0.885   5.088   4.219  2.1008  1.5136 -1.3860
  961MOL0     H32577   1.206   4.972   4.280 -1.0421 -2.4544 -2.0352
  961MOL0     H32578   1.206   5.120   4.183 -0.6420 -0.2268 -0.7041
  961MOL0     H32579   1.078   4.999   4.162  0.2061  1.3096 -1.2528
  961MOL0     H32580   1.300   5.033   4.826 -0.7376  0.4713 -1.7780
  961MOL0     H32581   1.512   4.963   4.930 -0.6698 -2.9475 -3.3413
  961MOL0     H32582   1.700   4.976   5.045  0.8579 -1.4693  0.4769
  961MOL0     H32583   1.748   4.870   4.916 -1.5094  0.3289 -1.3461
  961MOL0     H32584   1.916   4.860   5.100 -3.7631 -0.5525  0.5733
  961MOL0     H32585   1.978   4.896   4.937 -0.1312 -0.1538  0.5053
  961MOL0     H32586   1.911   5.086   5.160 -0.4702 -1.4864  0.0319
  961MOL0     H32587   1.999   5.141   5.011 -1.1886  1.9799  1.6864
  961MOL0     H32588   2.194   5.009   5.060 -0.8155 -2.9328 -0.7535
  961MOL0     H32589   2.107   4.960   5.204  0.1492  1.5995  0.9095
  961MOL0     H32590   2.246   5.221   5.140 -1.1620  1.0818 -0.3378
  961MOL0     H32591   2.094   5.236   5.224 -1.3683 -1.2903 -2.8446
  961MOL0     H32592   2.311   5.045   5.322 -0.6863  0.1115  0.8465
  961MOL0     H32593   2.180   5.114   5.411 -0.9235  1.0938 -0.6823
  961MOL0     H32594   2.289   5.285   5.488 -1.6327 -0.7876  0.0349
  961MOL0     H32595   2.334   5.341   5.319  0.9472 -2.1554 -2.8299
  961MOL0     H32596   2.476   5.170   5.526  0.7333 -0.5516 -0.8166
  961MOL0     H32597   2.525   5.316   5.453 -2.0262  1.3029 -0.4540
  961MOL0     H32598   1.718   5.239   4.682  0.2970 -1.6366 -0.0342
  961MOL0     H32599   1.505   5.309   4.576  0.2075 -1.0428 -0.3203
  961MOL0     H32600   1.032   5.236   4.678 -0.4824  1.2854  0.0039
  961MOL0     H32601   0.813   5.252   4.620  3.1851  1.9024  1.7317
  961MOL0     H32602   1.048   4.150   4.932  2.3903  1.0627  1.3913
  961MOL0     H32603   1.292   4.157   4.966  0.5651 -0.7489  0.2082
  961MOL0     H32604   1.671   3.837   4.888 -1.2406 -1.1601  2.2577
  961MOL0     H32605   1.883   3.748   4.982  2.4975  3.3520 -2.1244
  961MOL0     H32606   2.128   4.045   5.200 -2.5734 -0.3288 -0.2393
  961MOL0     H32607   2.118   3.936   5.344  0.7219  1.0425 -0.2938
  961MOL0     H32608   2.308   3.920   5.115 -1.8877  1.8227 -0.8536
  961MOL0     H32609   2.275   3.796   5.254  0.4989  1.2619  1.4817
  961MOL0     H32610   2.386   4.067   5.275  1.4742  0.1907 -0.5635
  961MOL0     H32611   2.329   3.973   5.409  1.3756  0.5015  0.3166
  961MOL0     H32612   2.560   3.893   5.217 -0.9781 -2.1993 -0.4897
  961MOL0     H32613   2.502   3.797   5.353 -0.7656 -0.8125 -1.6741
  961MOL0     H32614   2.760   4.028   5.571  0.3756 -0.9464 -0.9396
  961MOL0     H32615   1.921   4.088   5.231 -0.6849 -0.8407  0.9799
  961MOL0     H32616   1.669   4.266   5.219 -1.0224  2.2102 -1.3046
  961MOL0     H32617   1.830   4.274   5.158  0.5057  0.9784 -0.3202
  961MOL0     H32618   1.699   4.301   5.046 -0.2663 -1.0011 -0.5508
  962MOL0     O32619   5.600   5.788   5.288 -0.6277 -0.1931 -0.3385
  962MOL0     C32620   5.543   5.864   5.366  0.5914  0.0576 -0.4924
  962MOL0     O32621   5.594   5.931   5.475 -0.0941  0.3431 -0.2117
  962MOL0     C32622   5.729   5.930   5.496  0.5938 -0.0246 -0.4119
  962MOL0     C32623   5.824   5.835   5.457 -0.1146 -0.5466 -0.0673
  962MOL0     C32624   5.956   5.864   5.499  0.0143  0.4696  0.2096
  962MOL0     C32625   5.997   5.984   5.567  0.1932 -0.4995 -0.0134
  962MOL0     O32626   6.128   6.008   5.614 -0.1124  0.0727  0.6401
  962MOL0     C32627   6.179   6.135   5.644 -0.5553 -0.7918  0.0001
  962MOL0     C32628   6.333   6.131   5.665  0.2502  0.9845 -0.1422
  962MOL0     C32629   6.411   6.111   5.535  0.6329 -0.5147  0.1306
  962MOL0     C32630   6.421   5.964   5.494 -0.1945  0.5191  0.2918
  962MOL0     C32631   6.550   5.956   5.420 -0.0124 -0.2852  0.0697
  962MOL0     C32632   6.558   5.827   5.349  0.5845  0.1370  0.6607
  962MOL0     C32633   6.692   5.804   5.274 -1.0474 -0.2526  0.3102
  962MOL0     C32634   6.713   5.886   5.149  0.6964 -0.3815 -0.1074
  962MOL0     N32635   6.821   5.834   5.065 -0.0658 -0.2627  0.1788
  962MOL0     C32636   6.813   5.853   4.928  0.2980  0.4193 -0.2765
  962MOL0     C32637   6.943   5.837   4.879 -0.2133  0.1154  0.0028
  962MOL0     C32638   6.993   5.842   4.738  0.4741  0.0088  0.7917
  962MOL0     C32639   6.963   5.715   4.656  0.7890  0.2572 -0.5609
  962MOL0     C32640   7.025   5.742   4.521  0.6247  0.1628  0.0902
  962MOL0     C32641   7.179   5.743   4.522  0.4396  0.3944 -0.9270
  962MOL0     O32642   7.237   5.726   4.388  0.3010 -0.1965  0.6086
  962MOL0     C32643   7.374   5.729   4.375 -0.0351  0.1803 -0.5429
  962MOL0     C32644   7.445   5.602   4.401  0.0121 -0.4060  0.2530
  962MOL0     C32645   7.588   5.598   4.382 -0.3430 -0.3658  0.6761
  962MOL0     C32646   7.661   5.467   4.373 -0.3290  0.1152 -0.3675
  962MOL0     C32647   7.650   5.720   4.341 -0.0892  0.4463  0.1385
  962MOL0     C32648   7.796   5.734   4.307 -0.5268  0.0654  0.0140
  962MOL0     O32649   7.842   5.832   4.226 -0.0092  0.2699 -0.5582
  962MOL0     C32650   7.946   5.809   4.143 -0.5852 -1.1898 -0.0982
  962MOL0     C32651   7.984   5.684   4.096 -0.1936 -0.3356  0.1727
  962MOL0     C32652   8.099   5.682   4.012 -0.0915  0.3740  0.2930
  962MOL0     C32653   8.185   5.786   3.981  0.5717 -0.5235  0.0604
  962MOL0     O32654   8.298   5.754   3.902 -0.5478  0.1051 -0.1919
  962MOL0     C32655   8.372   5.863   3.847  0.1716  0.4689  0.0623
  962MOL0     C32656   8.495   5.810   3.772  0.7379 -0.3805 -0.0886
  962MOL0     C32657   8.606   5.744   3.862 -0.0734  0.6826 -0.1614
  962MOL0     C32658   8.691   5.633   3.795 -0.6907  0.7979 -0.0320
  962MOL0     C32659   8.800   5.587   3.900  0.3146 -0.0727 -0.2693
  962MOL0     C32660   8.923   5.515   3.857  0.3644 -0.2014 -0.1307
  962MOL0     C32661   9.020   5.613   3.782 -0.5434  0.3024 -0.1244
  962MOL0     C32662   9.170   5.581   3.807  0.3539  0.6377 -1.1121
  962MOL0    Cl32663   9.187   5.406   3.769  0.1279 -0.4113 -0.0002
  962MOL0     C32664   8.150   5.912   4.027  0.1530  0.2788  0.1873
  962MOL0     C32665   8.031   5.919   4.105  0.1218 -0.8680 -0.0281
  962MOL0     O32666   7.873   5.658   4.363  0.0701 -0.1131 -0.4230
  962MOL0     C32667   7.576   5.835   4.325 -0.4715  0.0018 -0.8546
  962MOL0     C32668   7.441   5.845   4.346 -0.1004 -0.0678  0.7847
  962MOL0     N32669   7.018   5.805   4.990  0.5723 -0.3088 -0.3444
  962MOL0     N32670   6.948   5.788   5.099  0.2197  0.2886  0.8853
  962MOL0     C32671   5.897   6.078   5.590  0.1159 -0.1226  0.3372
  962MOL0     C32672   5.763   6.043   5.563 -0.5155 -0.8755  0.1664
  962MOL0     C32673   5.394   5.871   5.354 -0.3931  0.4801  0.0448
  962MOL0     C32674   5.319   5.749   5.320 -0.7229 -0.5603  0.0328
  962MOL0     C32675   5.181   5.747   5.312  0.3810  0.1872 -0.2166
  962MOL0     C32676   5.114   5.869   5.323  1.1341 -0.3181 -0.9827
  962MOL0     O32677   4.974   5.891   5.300  0.2274  0.3827 -0.1338
  962MOL0     C32678   4.886   5.782   5.279  0.0275  0.4935 -0.2326
  962MOL0     C32679   4.883   5.753   5.128 -0.2858  0.0223 -0.1309
  962MOL0     C32680   4.870   5.882   5.041 -0.2427  0.8784 -0.8385
  962MOL0     C32681   4.727   5.934   5.058 -0.3277 -1.0965  0.3948
  962MOL0     C32682   4.691   6.026   4.949 -0.0769  0.9696 -0.0819
  962MOL0     C32683   4.668   6.083   4.850  0.1589  0.3420  0.2896
  962MOL0     C32684   5.184   5.989   5.349 -1.3524  0.2893  0.1653
  962MOL0     C32685   5.325   5.991   5.378  0.2073 -0.5128  0.0650
  962MOL0     C32686   5.382   6.135   5.414 -0.8904  0.2950  0.0626
  962MOL0     H32687   5.812   5.734   5.419  0.8750 -0.8956  0.5054
  962MOL0     H32688   6.036   5.798   5.468 -1.5374 -1.0416 -0.7205
  962MOL0     H32689   6.140   6.176   5.737 -0.5673  1.9305 -1.1061
  962MOL0     H32690   6.153   6.195   5.556  3.0895  0.0762 -0.6233
  962MOL0     H32691   6.361   6.232   5.699  0.0204  0.4627  1.7134
  962MOL0     H32692   6.353   6.055   5.741 -3.0596 -1.1903 -1.2474
  962MOL0     H32693   6.359   6.172   5.461  2.2772 -1.2127 -1.6685
  962MOL0     H32694   6.511   6.154   5.543  1.4513 -1.2939 -3.8314
  962MOL0     H32695   6.423   5.899   5.582 -1.7576 -0.4323 -0.3316
  962MOL0     H32696   6.333   5.940   5.434  1.4995 -1.9352 -1.4009
  962MOL0     H32697   6.629   5.960   5.496  2.4999 -3.2257 -2.1096
  962MOL0     H32698   6.550   6.042   5.352 -0.7944  0.8986  1.5068
  962MOL0     H32699   6.554   5.751   5.427 -1.1368 -2.1667 -1.4867
  962MOL0     H32700   6.471   5.808   5.285  0.1778  3.7166 -0.0818
  962MOL0     H32701   6.693   5.698   5.248 -0.8245 -0.3357  0.6499
  962MOL0     H32702   6.774   5.831   5.341 -0.6601 -0.8322  0.0722
  962MOL0     H32703   6.622   5.886   5.089  0.5932 -0.3704  0.0494
  962MOL0     H32704   6.738   5.988   5.179  0.9010 -1.0357  2.1660
  962MOL0     H32705   6.725   5.870   4.866 -0.2020  0.9300  0.5606
  962MOL0     H32706   7.097   5.873   4.744  0.6003  0.1076 -1.3161
  962MOL0     H32707   6.932   5.923   4.697 -0.0113 -0.0942  1.2999
  962MOL0     H32708   7.012   5.631   4.705 -0.4628 -0.1811 -0.0142
  962MOL0     H32709   6.856   5.690   4.652  0.3493  0.6841  3.7682
  962MOL0     H32710   6.999   5.667   4.445 -2.6707  0.6949  0.5452
  962MOL0     H32711   6.979   5.831   4.476 -1.3218 -0.1806  1.2879
  962MOL0     H32712   7.204   5.842   4.563 -0.4697  0.0957  0.4319
  962MOL0     H32713   7.211   5.664   4.591 -2.1301  2.0700  2.5158
  962MOL0     H32714   7.391   5.513   4.432  0.1386 -0.6463 -0.2143
  962MOL0     H32715   7.731   5.468   4.290  0.2874 -0.5488  0.1265
  962MOL0     H32716   7.585   5.390   4.355  1.1732 -1.8406  1.1305
  962MOL0     H32717   7.719   5.439   4.462  1.8975  3.2344 -0.6629
  962MOL0     H32718   7.932   5.592   4.124 -0.4422 -0.7760 -1.6005
  962MOL0     H32719   8.124   5.584   3.972 -1.4864  0.6153 -1.2971
  962MOL0     H32720   8.309   5.937   3.799  1.2041  1.4514  0.1808
  962MOL0     H32721   8.419   5.919   3.929 -2.3419 -0.7912  2.5559
  962MOL0     H32722   8.473   5.729   3.702  2.8126 -1.8982  0.9188
  962MOL0     H32723   8.547   5.885   3.711 -0.0768 -0.4557 -0.8946
  962MOL0     H32724   8.559   5.687   3.942 -1.0025  1.5873 -0.0441
  962MOL0     H32725   8.672   5.819   3.906 -0.2825 -0.0482  1.4483
  962MOL0     H32726   8.743   5.681   3.712 -1.6274 -0.3932 -1.3691
  962MOL0     H32727   8.629   5.557   3.745  0.0550  0.5737 -0.6404
  962MOL0     H32728   8.841   5.673   3.955  2.8801 -0.1076 -1.9271
  962MOL0     H32729   8.749   5.523   3.972 -0.8109  0.3226 -0.6953
  962MOL0     H32730   8.914   5.424   3.796 -1.2389 -0.7557  0.8696
  962MOL0     H32731   8.963   5.475   3.951  0.3811  3.2996  1.4891
  962MOL0     H32732   8.988   5.712   3.818 -3.2853  0.4205 -2.5124
  962MOL0     H32733   9.003   5.614   3.674  0.5333 -1.5804 -0.3487
  962MOL0     H32734   9.202   5.606   3.908  0.2932  0.7153 -1.1113
  962MOL0     H32735   9.231   5.656   3.756 -0.0843  2.5604  1.0514
  962MOL0     H32736   8.209   6.000   4.002  0.0315 -0.2248 -2.0470
  962MOL0     H32737   7.999   6.020   4.128  2.0031  0.5829 -3.0256
  962MOL0     H32738   7.621   5.929   4.293 -1.6215  1.2643  1.0470
  962MOL0     H32739   7.380   5.934   4.336 -1.3783 -0.9983  0.0504
  962MOL0     H32740   5.920   6.170   5.643  0.1742  1.6494 -2.5371
  962MOL0     H32741   5.685   6.114   5.589  0.5291  0.9467 -1.3885
  962MOL0     H32742   5.383   5.663   5.300 -1.6935 -0.8560 -2.0502
  962MOL0     H32743   5.132   5.652   5.293  2.8847 -0.8445 -2.0807
  962MOL0     H32744   4.918   5.707   5.351  1.8561  0.7463 -0.7208
  962MOL0     H32745   4.787   5.819   5.307  0.6659  1.8318  0.3526
  962MOL0     H32746   4.803   5.681   5.109  0.0188 -0.9143  1.9008
  962MOL0     H32747   4.970   5.697   5.094  1.9466  3.3906 -0.4756
  962MOL0     H32748   4.948   5.953   5.068 -1.6158  2.1116  0.0536
  962MOL0     H32749   4.875   5.846   4.938 -0.2013 -2.8935  0.3359
  962MOL0     H32750   4.723   6.003   5.144 -0.5520  0.7062 -1.0041
  962MOL0     H32751   4.660   5.848   5.058  1.3201 -2.4404 -0.2121
  962MOL0     H32752   4.643   6.134   4.759 -2.0206 -0.5215  0.3541
  962MOL0     H32753   5.133   6.085   5.354 -1.7082  0.1058  0.0796
  962MOL0     H32754   5.456   6.124   5.494  0.5453 -2.1055 -1.4638
  962MOL0     H32755   5.433   6.170   5.324 -0.2971  1.5526  0.8641
  962MOL0     H32756   5.305   6.206   5.444 -1.2574 -1.0756  2.6328
  963MOL0     O32757   6.555   2.378   5.566 -0.0795 -0.4261 -0.4080
  963MOL0     C32758   6.598   2.276   5.518  0.1989 -0.5896  0.5436
  963MOL0     O32759   6.728   2.244   5.525 -0.5496  0.1560  0.8314
  963MOL0     C32760   6.823   2.327   5.586  0.3074  0.4006  0.4266
  963MOL0     C32761   6.837   2.461   5.560  0.7976  0.1884 -1.0894
  963MOL0     C32762   6.939   2.529   5.619 -0.0275  0.9465 -1.0065
  963MOL0     C32763   7.029   2.466   5.715 -1.1624  0.4894  0.6539
  963MOL0     O32764   7.141   2.544   5.759 -0.0733  0.3849  0.3779
  963MOL0     C32765   7.247   2.469   5.828 -0.3853  0.6562 -0.0680
  963MOL0     C32766   7.358   2.568   5.875 -0.2815 -0.5692 -0.3624
  963MOL0     C32767   7.432   2.652   5.762  0.0246 -0.1599 -0.2060
  963MOL0     C32768   7.555   2.717   5.829  0.3554  0.2663 -0.4127
  963MOL0     C32769   7.622   2.816   5.738  0.0899 -0.3514  0.7343
  963MOL0     C32770   7.750   2.880   5.800  0.4983 -0.2655  0.1600
  963MOL0     C32771   7.801   2.998   5.716 -0.3224 -0.4416 -0.6113
  963MOL0     C32772   7.926   3.046   5.776 -1.3959 -0.3678 -0.6865
  963MOL0     N32773   7.916   3.117   5.909  0.8375  0.0993  0.0286
  963MOL0     C32774   7.923   3.256   5.935 -0.4326 -0.2091  0.2497
  963MOL0     C32775   7.900   3.265   6.065  0.2244 -0.0859 -0.6063
  963MOL0     C32776   7.891   3.395   6.142  0.5202  0.6895 -0.3464
  963MOL0     C32777   8.010   3.408   6.236  0.4350 -0.5535  0.0030
  963MOL0     C32778   8.008   3.521   6.345  0.0390  0.2556  0.8874
  963MOL0     C32779   8.147   3.584   6.372  1.0992  0.5976  0.6507
  963MOL0     O32780   8.118   3.689   6.459  0.4413  0.6491  0.5112
  963MOL0     C32781   8.216   3.769   6.505  0.3638 -0.1824 -0.0584
  963MOL0     C32782   8.351   3.749   6.499 -0.6812  0.5291  0.0688
  963MOL0     C32783   8.450   3.844   6.532 -0.5185 -0.1883 -1.0074
  963MOL0     C32784   8.595   3.804   6.524 -0.2794  0.1045  0.2454
  963MOL0     C32785   8.406   3.965   6.591 -0.2351 -0.2446 -0.3144
  963MOL0     C32786   8.504   4.069   6.639  0.1551 -0.8953  0.6392
  963MOL0     O32787   8.631   4.069   6.600  0.1440 -0.5402 -0.2945
  963MOL0     C32788   8.710   4.180   6.599  0.1462 -0.2859  0.0439
  963MOL0     C32789   8.848   4.173   6.598  0.3719 -0.1720  0.8260
  963MOL0     C32790   8.924   4.291   6.568  0.1588  0.4804 -0.7273
  963MOL0     C32791   8.867   4.416   6.542  0.3845 -0.2151  0.6841
  963MOL0     O32792   8.929   4.537   6.535  0.1060 -0.1126  0.1381
  963MOL0     C32793   9.068   4.546   6.562  0.2909 -0.4754 -0.4676
  963MOL0     C32794   9.156   4.549   6.431  0.0239  0.5529  0.3502
  963MOL0     C32795   9.288   4.618   6.454 -0.1180  0.6504 -0.3528
  963MOL0     C32796   9.399   4.615   6.344  0.8086 -0.5531  0.2381
  963MOL0     C32797   9.528   4.705   6.379  0.5760  0.4068  0.3184
  963MOL0     C32798   9.638   4.666   6.279 -0.0078  0.3261 -0.8179
  963MOL0     C32799   9.770   4.723   6.335  0.1972 -0.0232  0.0263
  963MOL0     C32800   9.844   4.618   6.416 -0.0671 -0.0627 -0.0826
  963MOL0    Cl32801   9.886   4.479   6.318 -0.2391 -0.2055  0.0679
  963MOL0     C32802   8.726   4.419   6.546  0.2636  0.6860  0.5064
  963MOL0     C32803   8.653   4.304   6.567  0.5815 -0.3206  0.2534
  963MOL0     O32804   8.459   4.137   6.733 -0.5456  0.3522  0.5574
  963MOL0     C32805   8.266   3.989   6.594 -0.3597 -0.6601 -0.4729
  963MOL0     C32806   8.178   3.886   6.562  0.2380  0.9683  0.2594
  963MOL0     N32807   7.870   3.138   6.122 -0.3598  0.1983  0.1659
  963MOL0     N32808   7.895   3.048   6.029  0.4455 -0.3309 -0.0265
  963MOL0     C32809   7.007   2.328   5.746  0.6024 -0.4666  0.7619
  963MOL0     C32810   6.909   2.260   5.673 -0.4694  0.0767 -0.4543
  963MOL0     C32811   6.510   2.175   5.450  0.1998 -0.0034  0.3127
  963MOL0     C32812   6.574   2.058   5.409  1.2306 -0.3750 -0.7035
  963MOL0     C32813   6.500   1.969   5.334 -0.0948  0.6596  0.0696
  963MOL0     C32814   6.365   1.983   5.308  0.1762  0.7883 -0.9524
  963MOL0     O32815   6.290   1.886   5.239 -0.1944 -0.1252 -0.2009
  963MOL0     C32816   6.344   1.784   5.157  0.3518  0.1727  0.6330
  963MOL0     C32817   6.234   1.672   5.155 -1.1736  0.3729  0.1626
  963MOL0     C32818   6.277   1.545   5.079 -0.9806  0.4316 -0.0999
  963MOL0     C32819   6.276   1.416   5.167 -0.2214 -0.1912 -0.2654
  963MOL0     C32820   6.390   1.422   5.267 -0.1884 -0.7269  0.8609
  963MOL0     C32821   6.487   1.449   5.338  0.7271  0.2325  0.5504
  963MOL0     C32822   6.305   2.103   5.344  0.6341  0.2314 -0.1758
  963MOL0     C32823   6.371   2.198   5.421  0.4191  0.2656  0.3620
  963MOL0     C32824   6.292   2.317   5.463 -0.3740  0.7170  0.1614
  963MOL0     H32825   6.766   2.513   5.496 -3.3869  0.3925  3.1271
  963MOL0     H32826   6.961   2.630   5.585 -0.5375  1.0210 -1.1265
  963MOL0     H32827   7.294   2.394   5.765 -1.4436 -1.4112  1.4855
  963MOL0     H32828   7.212   2.419   5.919 -1.9595  0.2863 -0.8352
  963MOL0     H32829   7.308   2.636   5.945  0.9028 -0.7340  0.6787
  963MOL0     H32830   7.437   2.510   5.922 -0.4186  0.0102  0.6123
  963MOL0     H32831   7.467   2.589   5.680  0.1961 -1.3738  0.7811
  963MOL0     H32832   7.363   2.728   5.723 -0.4383 -0.4973 -0.0569
  963MOL0     H32833   7.526   2.775   5.917 -2.5394 -1.9769  0.2579
  963MOL0     H32834   7.629   2.644   5.863 -0.8315  0.2784  2.4544
  963MOL0     H32835   7.555   2.891   5.696 -0.7876 -1.9090 -0.7506
  963MOL0     H32836   7.654   2.749   5.658 -1.9426 -2.1229  1.3163
  963MOL0     H32837   7.731   2.921   5.900  0.3615  2.5675 -0.9544
  963MOL0     H32838   7.822   2.799   5.817  0.8141  0.0577  0.3683
  963MOL0     H32839   7.731   3.081   5.706  2.7192  2.0434 -3.4145
  963MOL0     H32840   7.829   2.973   5.613  2.2409  3.1409 -0.9375
  963MOL0     H32841   7.992   2.961   5.798  1.3913  2.1025  1.3731
  963MOL0     H32842   7.980   3.114   5.710  1.0496 -1.1941  0.3104
  963MOL0     H32843   7.943   3.332   5.861 -1.0435 -1.9127 -1.7813
  963MOL0     H32844   7.801   3.384   6.203  0.8901 -1.0803 -0.0407
  963MOL0     H32845   7.875   3.485   6.083  0.8118  1.9626  1.4261
  963MOL0     H32846   8.036   3.313   6.285  0.9590 -0.3265  0.1783
  963MOL0     H32847   8.098   3.419   6.172  0.3611  1.2400  0.1721
  963MOL0     H32848   7.943   3.604   6.313 -1.2467 -1.5629 -1.5003
  963MOL0     H32849   7.968   3.482   6.439 -0.7694  1.5514  1.1099
  963MOL0     H32850   8.208   3.508   6.421  0.5856  0.1162  0.5712
  963MOL0     H32851   8.192   3.623   6.280  1.8452 -0.0408  0.7381
  963MOL0     H32852   8.388   3.655   6.460 -0.0870  0.8414 -0.1318
  963MOL0     H32853   8.604   3.702   6.485  1.2816  0.7207 -1.1389
  963MOL0     H32854   8.652   3.810   6.617  3.3914  0.4399 -1.8376
  963MOL0     H32855   8.634   3.862   6.440 -4.2376  0.7943 -1.3671
  963MOL0     H32856   8.879   4.069   6.603 -2.7111 -1.3227 -1.2341
  963MOL0     H32857   9.031   4.279   6.575  0.1250 -0.9249 -2.1222
  963MOL0     H32858   9.075   4.638   6.620 -3.1462 -1.9988  2.8216
  963MOL0     H32859   9.101   4.464   6.627 -0.4300 -0.3891  0.0271
  963MOL0     H32860   9.171   4.447   6.395  0.0227  0.6821 -0.0208
  963MOL0     H32861   9.109   4.609   6.353 -0.3878 -1.2628 -0.8535
  963MOL0     H32862   9.334   4.567   6.539  1.9373 -0.7246 -2.1705
  963MOL0     H32863   9.260   4.720   6.484 -2.2019 -0.6546  2.6635
  963MOL0     H32864   9.355   4.646   6.248 -0.7103 -3.1990 -0.0184
  963MOL0     H32865   9.426   4.510   6.335  2.4137 -0.3683  2.3579
  963MOL0     H32866   9.503   4.811   6.370 -0.0344  0.1275 -2.1798
  963MOL0     H32867   9.562   4.668   6.476  0.9799  0.6637  0.2734
  963MOL0     H32868   9.601   4.693   6.180 -0.7698  0.7193 -0.4362
  963MOL0     H32869   9.655   4.558   6.283 -3.1293 -0.2346  2.4961
  963MOL0     H32870   9.742   4.809   6.397 -1.2404 -1.1273  0.9575
  963MOL0     H32871   9.838   4.764   6.259  1.8137 -2.8265 -0.1518
  963MOL0     H32872   9.781   4.580   6.497 -0.0721 -2.4668 -1.1271
  963MOL0     H32873   9.934   4.654   6.466  1.1047 -1.9263 -0.7686
  963MOL0     H32874   8.676   4.513   6.528  1.6876  1.3279 -0.2703
  963MOL0     H32875   8.545   4.305   6.565  0.5912 -0.2381 -0.4994
  963MOL0     H32876   8.227   4.072   6.652  1.4506 -0.0166 -0.0931
  963MOL0     H32877   8.073   3.904   6.582  0.3326  1.3179  0.4550
  963MOL0     H32878   7.066   2.279   5.823  2.2172  2.0004  1.2024
  963MOL0     H32879   6.867   2.164   5.701 -1.2317  0.3016 -0.7907
  963MOL0     H32880   6.678   2.039   5.429  1.0940  0.4518  0.8808
  963MOL0     H32881   6.556   1.882   5.301 -0.0839  0.5801  0.2950
  963MOL0     H32882   6.369   1.818   5.057 -1.9898  1.4701  0.4009
  963MOL0     H32883   6.435   1.738   5.196  0.2416  0.9049  1.7967
  963MOL0     H32884   6.142   1.720   5.120 -2.4313  0.3534  3.1493
  963MOL0     H32885   6.205   1.650   5.259  0.9003 -1.6645  0.4026
  963MOL0     H32886   6.210   1.537   4.992 -1.8230  0.1809  0.5589
  963MOL0     H32887   6.379   1.554   5.039  1.4168 -3.4425  4.2146
  963MOL0     H32888   6.289   1.333   5.098  1.5790  0.2135 -0.4672
  963MOL0     H32889   6.185   1.405   5.227  0.2439  0.9966  0.7171
  963MOL0     H32890   6.576   1.461   5.396  2.9895 -3.2588 -1.8461
  963MOL0     H32891   6.205   2.126   5.309  0.5501  2.1575  1.2175
  963MOL0     H32892   6.323   2.357   5.560  1.4971  3.3864 -1.3725
  963MOL0     H32893   6.287   2.394   5.385  0.8599 -0.1950 -0.8584
  963MOL0     H32894   6.191   2.282   5.484 -0.9302  1.4128 -1.1939
  964MOL0     O32895  11.131   0.164  10.532  0.3782 -0.0600  0.3064
  964MOL0     C32896  11.194   0.122  10.625 -0.4950  0.1482  0.9874
  964MOL0     O32897  11.333   0.114  10.625 -0.5173 -0.1018  0.5160
  964MOL0     C32898  11.403   0.200  10.543  0.4311 -0.0897 -0.8493
  964MOL0     C32899  11.498   0.148  10.458  1.1159 -0.2770  0.4295
  964MOL0     C32900  11.587   0.231  10.389 -0.4651  0.0402  0.2157
  964MOL0     C32901  11.583   0.367  10.393 -0.3512  0.1762  0.3483
  964MOL0     O32902  11.680   0.444  10.328  0.5134 -0.2463  0.0574
  964MOL0     C32903  11.807   0.390  10.304 -0.3862 -0.1190  0.4615
  964MOL0     C32904  11.821   0.337  10.159  0.5990 -1.0460 -0.4217
  964MOL0     C32905  11.936   0.249  10.131 -0.3738 -0.7431 -0.0570
  964MOL0     C32906  11.913   0.113  10.196  0.6042 -0.3268 -0.4830
  964MOL0     C32907  12.014   0.004  10.159  0.3952  0.2158 -0.2600
  964MOL0     C32908  12.161   0.048  10.154  0.5564 -0.8834 -0.9779
  964MOL0     C32909  12.219   0.095  10.287 -0.7643 -0.0944  0.4220
  964MOL0     C32910  12.248  -0.024  10.382  0.0502  0.6192 -0.2008
  964MOL0     N32911  12.335  -0.126  10.312 -0.1540  0.6858 -0.5814
  964MOL0     C32912  12.454  -0.087  10.253  0.2568  1.0778  0.4546
  964MOL0     C32913  12.493  -0.202  10.185  0.2161 -0.1456  0.2630
  964MOL0     C32914  12.630  -0.200  10.112  0.3492 -0.3230 -0.1334
  964MOL0     C32915  12.640  -0.328  10.031  0.8040  0.3759  0.5872
  964MOL0     C32916  12.776  -0.335   9.964  0.6543 -0.1298 -0.3865
  964MOL0     C32917  12.897  -0.340  10.054  0.4920  0.5918 -0.7747
  964MOL0     O32918  12.875  -0.419  10.174 -0.2075  0.4999 -0.1264
  964MOL0     C32919  12.977  -0.427  10.262 -0.3868 -0.1629 -0.1356
  964MOL0     C32920  12.945  -0.494  10.382  0.1616  0.3093  0.0548
  964MOL0     C32921  13.043  -0.530  10.483  0.2674 -0.6909  0.6912
  964MOL0     C32922  13.006  -0.615  10.598  0.8227  0.1302 -0.7624
  964MOL0     C32923  13.176  -0.482  10.456 -0.2025  0.1189  0.2769
  964MOL0     C32924  13.287  -0.527  10.536 -0.5368 -0.1967  0.2880
  964MOL0     O32925  13.294  -0.654  10.573  0.0961  0.3784  0.1666
  964MOL0     C32926  13.411  -0.712  10.616  0.9822  0.5757 -0.0771
  964MOL0     C32927  13.526  -0.717  10.543  0.1947 -0.7039  0.1186
  964MOL0     C32928  13.650  -0.757  10.594 -0.2130  0.2492  0.4794
  964MOL0     C32929  13.649  -0.833  10.720  0.5857  0.4287  0.5430
  964MOL0     O32930  13.764  -0.888  10.764 -0.5599 -0.2539  0.0586
  964MOL0     C32931  13.899  -0.829  10.741 -0.0175  0.1578  0.2328
  964MOL0     C32932  13.927  -0.702  10.814 -0.4885 -0.1288  0.3933
  964MOL0     C32933  14.076  -0.677  10.797 -0.5479  0.8794  0.1308
  964MOL0     C32934  14.110  -0.544  10.860 -0.3217  0.2924 -0.4132
  964MOL0     C32935  14.255  -0.539  10.908  0.5192  0.5653 -0.1001
  964MOL0     C32936  14.350  -0.583  10.790 -0.1873  0.1286  0.3018
  964MOL0     C32937  14.493  -0.568  10.851  0.3066 -0.7884 -0.5178
  964MOL0     C32938  14.591  -0.605  10.737 -0.0405  0.2756  0.0278
  964MOL0    Cl32939  14.630  -0.465  10.640 -0.2022 -0.1023  0.1707
  964MOL0     C32940  13.533  -0.843  10.794  0.2177  0.3879  1.0828
  964MOL0     C32941  13.419  -0.770  10.745 -0.0097  1.1866 -1.3837
  964MOL0     O32942  13.377  -0.445  10.542  0.8804  0.1741  0.2653
  964MOL0     C32943  13.200  -0.403  10.348 -0.4661 -0.0483 -0.0943
  964MOL0     C32944  13.102  -0.375  10.254 -0.3139 -0.2175 -0.2779
  964MOL0     N32945  12.397  -0.298  10.208  0.8944 -0.1771 -0.7844
  964MOL0     N32946  12.297  -0.250  10.278 -0.0671  0.0828 -0.5688
  964MOL0     C32947  11.477   0.419  10.468  0.4799  0.1897 -0.3847
  964MOL0     C32948  11.388   0.337  10.548  0.3252 -0.7959  0.0290
  964MOL0     C32949  11.130   0.053  10.740  0.1157  0.7736 -0.2274
  964MOL0     C32950  11.212   0.011  10.852  0.3643 -0.1944 -0.4135
  964MOL0     C32951  11.159  -0.065  10.956  0.4348 -0.3746 -0.2677
  964MOL0     C32952  11.023  -0.098  10.955 -0.1693  0.9630  0.2871
  964MOL0     O32953  10.973  -0.170  11.064  0.5674 -0.5393 -0.1778
  964MOL0     C32954  10.901  -0.288  11.018  0.4892  0.5287  0.2707
  964MOL0     C32955  10.894  -0.388  11.135  0.1763  1.0224  0.7493
  964MOL0     C32956  10.859  -0.527  11.091 -0.2180  0.5100 -0.4885
  964MOL0     C32957  10.704  -0.550  11.083 -0.5667 -0.3104  0.7017
  964MOL0     C32958  10.629  -0.543  11.213  0.3587  0.1805  0.2709
  964MOL0     C32959  10.586  -0.553  11.328  0.1111  0.2229  0.5043
  964MOL0     C32960  10.937  -0.038  10.861  0.2712  1.2829 -0.3072
  964MOL0     C32961  10.987   0.031  10.753  0.3755 -0.4614  0.4999
  964MOL0     C32962  10.887   0.064  10.646 -0.1964  0.1538 -0.5173
  964MOL0     H32963  11.497   0.040  10.447  1.3724 -0.1699 -0.7986
  964MOL0     H32964  11.651   0.183  10.316 -0.7448  1.5344 -1.0748
  964MOL0     H32965  11.838   0.303  10.363  2.5554  0.1728 -0.5008
  964MOL0     H32966  11.878   0.470  10.327  3.0945 -2.6508 -0.6029
  964MOL0     H32967  11.724   0.293  10.132  0.8996 -1.0584 -1.5168
  964MOL0     H32968  11.816   0.431  10.103 -0.1841 -2.3526 -2.6397
  964MOL0     H32969  11.943   0.235  10.023  1.9905  0.3860 -0.1081
  964MOL0     H32970  12.026   0.295  10.174 -2.4498 -0.2673  4.3392
  964MOL0     H32971  11.910   0.122  10.305  0.6926  0.1985 -0.5186
  964MOL0     H32972  11.812   0.082  10.165 -0.3317  1.1211  0.9654
  964MOL0     H32973  11.988  -0.032  10.059  0.7930  0.6905 -0.5380
  964MOL0     H32974  12.006  -0.081  10.227 -0.8233  0.0131 -0.6270
  964MOL0     H32975  12.224  -0.029  10.107  3.1929 -0.6899  1.9654
  964MOL0     H32976  12.181   0.138  10.095  1.1876  0.9977  1.9039
  964MOL0     H32977  12.153   0.164  10.341 -0.2566  0.4318  0.3794
  964MOL0     H32978  12.315   0.144  10.267  0.2537 -1.4981  1.5795
  964MOL0     H32979  12.300   0.015  10.470  2.3755 -1.0669 -0.7342
  964MOL0     H32980  12.153  -0.070  10.412 -1.1686  1.2174 -2.8381
  964MOL0     H32981  12.508   0.008  10.256  0.1321  1.4801 -3.9126
  964MOL0     H32982  12.719  -0.204  10.176  0.9075 -3.5237 -0.9323
  964MOL0     H32983  12.638  -0.109  10.052  0.4323 -0.0497  0.2920
  964MOL0     H32984  12.613  -0.412  10.096 -4.0755  1.5779  0.4700
  964MOL0     H32985  12.554  -0.312   9.965 -0.2894  2.4183  2.3778
  964MOL0     H32986  12.782  -0.432   9.915  1.4793 -0.9404  1.2167
  964MOL0     H32987  12.785  -0.255   9.890 -2.5943  1.4424  0.7245
  964MOL0     H32988  12.974  -0.380   9.988 -1.4188 -1.1894 -2.0422
  964MOL0     H32989  12.927  -0.237  10.078 -0.3727  1.0834 -1.7409
  964MOL0     H32990  12.839  -0.518  10.388 -0.5509  2.4052 -2.0819
  964MOL0     H32991  13.042  -0.718  10.594  1.2696  0.2333  0.1963
  964MOL0     H32992  12.897  -0.614  10.602  0.8560  0.6368  1.4231
  964MOL0     H32993  13.037  -0.566  10.691 -0.8515 -1.1919  0.5623
  964MOL0     H32994  13.533  -0.677  10.442  1.3030 -1.4096 -0.1062
  964MOL0     H32995  13.737  -0.753  10.530 -0.0501  2.0826  0.7725
  964MOL0     H32996  13.971  -0.905  10.773  1.1222  0.2795 -1.8727
  964MOL0     H32997  13.913  -0.831  10.632  2.1771  0.5867  0.4729
  964MOL0     H32998  13.869  -0.626  10.761  0.9082 -0.1394 -1.2356
  964MOL0     H32999  13.903  -0.711  10.921 -0.3590 -0.6937  0.3759
  964MOL0     H33000  14.102  -0.666  10.692 -1.3307  2.4494  0.0654
  964MOL0     H33001  14.136  -0.757  10.842 -2.0691 -0.1038  0.4880
  964MOL0     H33002  14.047  -0.531  10.949 -2.0322 -0.4312 -1.4724
  964MOL0     H33003  14.087  -0.468  10.784 -1.4144 -1.9807 -2.4867
  964MOL0     H33004  14.285  -0.439  10.940  0.4149  0.6679 -0.3210
  964MOL0     H33005  14.270  -0.603  10.996 -3.6177 -1.2258 -0.4822
  964MOL0     H33006  14.340  -0.525  10.699  0.9674  2.1644  1.3899
  964MOL0     H33007  14.331  -0.689  10.768  1.1652  0.2690 -1.8735
  964MOL0     H33008  14.503  -0.643  10.930 -1.4471 -2.1891 -1.5528
  964MOL0     H33009  14.509  -0.464  10.880  1.2984 -0.8903 -0.6861
  964MOL0     H33010  14.556  -0.682  10.668  2.3527 -1.0315  0.1616
  964MOL0     H33011  14.683  -0.646  10.778 -0.0224 -0.2501 -0.5179
  964MOL0     H33012  13.538  -0.911  10.878  0.0056 -1.9879 -0.6945
  964MOL0     H33013  13.327  -0.779  10.800  1.1950 -0.8970  0.4676
  964MOL0     H33014  13.300  -0.367  10.324 -0.8410  2.0222  1.2026
  964MOL0     H33015  13.138  -0.324  10.165 -0.7763  3.5383  1.4834
  964MOL0     H33016  11.469   0.527  10.471 -1.2826  0.0708  0.5570
  964MOL0     H33017  11.313   0.382  10.613 -0.5978  0.0792 -1.5692
  964MOL0     H33018  11.319   0.027  10.851 -0.0551  3.2538 -1.2865
  964MOL0     H33019  11.214  -0.101  11.042 -0.1055  3.1392  1.7878
  964MOL0     H33020  10.797  -0.264  10.992 -0.9104 -2.5589  2.2947
  964MOL0     H33021  10.954  -0.331  10.933 -1.0857  0.2789 -0.6152
  964MOL0     H33022  10.820  -0.356  11.208  2.4725  4.8000  1.7017
  964MOL0     H33023  10.989  -0.391  11.191  0.0949  1.3571  0.9044
  964MOL0     H33024  10.919  -0.561  11.006  2.0756 -0.6436  1.4547
  964MOL0     H33025  10.900  -0.598  11.164 -0.7735 -0.2359 -0.8728
  964MOL0     H33026  10.679  -0.643  11.032 -0.4395  0.4299 -0.7648
  964MOL0     H33027  10.658  -0.468  11.027 -0.1859 -2.0968 -2.4259
  964MOL0     H33028  10.539  -0.552  11.424 -0.5714  3.7282  0.2929
  964MOL0     H33029  10.832  -0.063  10.865  0.7140 -0.6201  0.5105
  964MOL0     H33030  10.864   0.170  10.640  0.0032  0.2564  0.4612
  964MOL0     H33031  10.926   0.051  10.544 -1.6181 -1.2650 -0.9320
  964MOL0     H33032  10.798   0.002  10.660  1.0829 -1.6471  0.0724
  965MOL0     O33033   8.491   3.211   7.740 -0.2742  0.3547 -0.5942
  965MOL0     C33034   8.459   3.283   7.643  0.2710 -0.9617  0.2776
  965MOL0     O33035   8.552   3.347   7.556  0.1856 -0.2739 -0.5641
  965MOL0     C33036   8.680   3.295   7.553  1.2268 -0.3496 -0.2717
  965MOL0     C33037   8.767   3.285   7.667 -0.5222  0.4169 -0.1714
  965MOL0     C33038   8.888   3.214   7.656  0.5876 -0.7561 -1.0982
  965MOL0     C33039   8.926   3.168   7.527 -0.4108 -0.2495 -0.0415
  965MOL0     O33040   9.047   3.096   7.521 -1.0894 -0.0940 -0.2923
  965MOL0     C33041   9.127   3.082   7.400  0.7002 -0.5299  0.0861
  965MOL0     C33042   9.143   2.934   7.356 -0.4051 -0.7175 -0.4349
  965MOL0     C33043   9.015   2.880   7.307  0.2201 -0.0529  0.1091
  965MOL0     C33044   8.995   2.907   7.156  0.1432 -0.3613 -0.3169
  965MOL0     C33045   8.898   2.815   7.085  0.2959 -0.0255  0.3001
  965MOL0     C33046   8.904   2.811   6.932  0.2590  0.2390  0.3570
  965MOL0     C33047   8.898   2.949   6.870 -0.1457 -0.4817  0.1669
  965MOL0     C33048   8.910   2.940   6.717  0.8705  0.1918  0.3253
  965MOL0     N33049   8.814   2.853   6.639 -1.4688  0.1124 -0.2766
  965MOL0     C33050   8.688   2.824   6.670  0.3919  0.6254 -0.0603
  965MOL0     C33051   8.668   2.712   6.597  0.0949 -0.7274  0.4125
  965MOL0     C33052   8.551   2.618   6.600  0.4816 -0.2880 -0.6594
  965MOL0     C33053   8.564   2.514   6.715  0.2674 -0.6723  0.2064
  965MOL0     C33054   8.530   2.566   6.855  0.9047 -0.0332 -0.1606
  965MOL0     C33055   8.526   2.442   6.960  0.4886  0.5913  0.8348
  965MOL0     O33056   8.646   2.357   6.948 -0.1854  0.3987 -0.2127
  965MOL0     C33057   8.763   2.398   7.008 -0.6461  0.8817 -0.3021
  965MOL0     C33058   8.886   2.396   6.939  0.0975 -0.7530  0.8407
  965MOL0     C33059   9.010   2.422   6.990 -0.5849 -0.5301  0.5723
  965MOL0     C33060   9.138   2.400   6.907 -0.5158  0.4292  0.3863
  965MOL0     C33061   9.021   2.465   7.131 -0.2266 -0.3450 -0.2554
  965MOL0     C33062   9.146   2.517   7.202  0.5232  1.0604 -0.8027
  965MOL0     O33063   9.151   2.519   7.339 -0.4813 -0.1662  0.0217
  965MOL0     C33064   9.269   2.546   7.408 -0.2205  0.0639 -0.5357
  965MOL0     C33065   9.399   2.504   7.368  0.3288  0.1138  0.1126
  965MOL0     C33066   9.515   2.525   7.444 -0.3472  0.9722  0.3237
  965MOL0     C33067   9.503   2.594   7.566  0.8692 -0.6430 -0.9566
  965MOL0     O33068   9.616   2.617   7.648 -0.3128  0.5508 -0.8422
  965MOL0     C33069   9.750   2.602   7.597  0.9446 -0.2775  0.1559
  965MOL0     C33070   9.852   2.633   7.701 -0.0969  0.6432 -0.2619
  965MOL0     C33071   9.848   2.535   7.812 -0.1576 -0.1944 -0.3815
  965MOL0     C33072   9.971   2.566   7.893 -0.3431 -0.1531  1.0178
  965MOL0     C33073  10.007   2.458   7.998 -0.4406 -0.8805 -0.2442
  965MOL0     C33074  10.135   2.489   8.075  0.8973  0.1084  0.3887
  965MOL0     C33075  10.120   2.590   8.198  1.1380 -0.1321 -0.3876
  965MOL0     C33076  10.246   2.623   8.278  0.5450  0.6593 -0.2597
  965MOL0    Cl33077  10.365   2.692   8.172  0.3876 -0.3235  0.0151
  965MOL0     C33078   9.375   2.622   7.613 -1.1984 -0.9864  0.0710
  965MOL0     C33079   9.256   2.600   7.536 -0.2786 -1.1135 -0.2445
  965MOL0     O33080   9.233   2.563   7.129 -0.3502 -1.4084  0.4257
  965MOL0     C33081   8.901   2.465   7.203 -0.5492  0.2921  0.6776
  965MOL0     C33082   8.776   2.426   7.147  0.5695 -0.3486 -1.1187
  965MOL0     N33083   8.782   2.673   6.532 -0.5710 -0.6607  0.2976
  965MOL0     N33084   8.864   2.760   6.551  0.2566  0.0908  0.2099
  965MOL0     C33085   8.842   3.178   7.416 -0.2053 -0.4031  0.2365
  965MOL0     C33086   8.724   3.248   7.429  0.7583 -0.1057  0.3594
  965MOL0     C33087   8.319   3.314   7.626 -1.0408 -0.9056  0.9312
  965MOL0     C33088   8.281   3.439   7.577 -0.5258 -0.8245 -0.2790
  965MOL0     C33089   8.149   3.479   7.573  0.5319  0.1154  0.2203
  965MOL0     C33090   8.041   3.395   7.601 -0.3927 -0.0529  0.2797
  965MOL0     O33091   7.907   3.427   7.600 -0.5045  0.5625  0.0190
  965MOL0     C33092   7.869   3.564   7.632 -0.1335 -0.2714 -0.0786
  965MOL0     C33093   7.736   3.570   7.720 -0.0086 -0.2854 -0.5089
  965MOL0     C33094   7.607   3.512   7.671  0.4188  0.2555 -0.1590
  965MOL0     C33095   7.551   3.572   7.543 -0.2177  0.0468 -0.2714
  965MOL0     C33096   7.418   3.516   7.514  0.0976  0.3562  0.6484
  965MOL0     C33097   7.301   3.483   7.491  0.0052 -0.7718 -0.8155
  965MOL0     C33098   8.077   3.259   7.621  0.2858 -0.0829 -0.0403
  965MOL0     C33099   8.211   3.221   7.646  0.0231  0.2198  0.2264
  965MOL0     C33100   8.234   3.076   7.660 -0.0480 -0.2320  0.5724
  965MOL0     H33101   8.745   3.331   7.763  1.0539  0.1473  0.3577
  965MOL0     H33102   8.941   3.191   7.748 -3.3845 -0.3743  1.5425
  965MOL0     H33103   9.227   3.123   7.413  1.1656 -1.1164 -1.4435
  965MOL0     H33104   9.077   3.145   7.327  1.7112  2.0021  1.4487
  965MOL0     H33105   9.217   2.924   7.276  1.8352  0.4589  1.3714
  965MOL0     H33106   9.173   2.885   7.449 -0.5715  3.4718  2.0884
  965MOL0     H33107   9.021   2.771   7.313  1.0381 -0.4550 -4.4652
  965MOL0     H33108   8.926   2.910   7.364 -2.2332 -1.9669 -2.4184
  965MOL0     H33109   8.958   3.009   7.137  0.1148 -0.0700  1.1817
  965MOL0     H33110   9.089   2.905   7.100  0.3410  1.0356 -0.0730
  965MOL0     H33111   8.797   2.845   7.112 -0.5593 -1.9758 -0.5129
  965MOL0     H33112   8.916   2.711   7.115  0.5642  0.4337  1.8492
  965MOL0     H33113   9.001   2.771   6.901 -0.7750  0.1883 -3.2713
  965MOL0     H33114   8.831   2.744   6.885  0.0952  1.0957 -0.6711
  965MOL0     H33115   8.986   3.005   6.902  1.6960 -2.8829 -0.3802
  965MOL0     H33116   8.805   2.988   6.913  0.0089 -0.4902  0.5188
  965MOL0     H33117   8.897   3.041   6.676 -0.9298  0.4912  1.5408
  965MOL0     H33118   9.012   2.909   6.690 -0.3319 -3.3068 -0.7270
  965MOL0     H33119   8.617   2.871   6.737 -0.1713 -1.5215  0.9308
  965MOL0     H33120   8.556   2.561   6.506 -2.3875 -0.1235 -1.0005
  965MOL0     H33121   8.450   2.659   6.601  0.9603  1.0228  1.7405
  965MOL0     H33122   8.489   2.436   6.700 -1.5131  1.1004 -0.5797
  965MOL0     H33123   8.663   2.468   6.712  0.5104 -0.1211 -0.9884
  965MOL0     H33124   8.600   2.639   6.898 -1.0969  1.7535  0.2873
  965MOL0     H33125   8.440   2.628   6.853  2.9943  3.2565  0.0611
  965MOL0     H33126   8.510   2.475   7.062 -2.8479 -1.0195  0.9672
  965MOL0     H33127   8.439   2.383   6.928  1.8373 -2.2069  1.9528
  965MOL0     H33128   8.888   2.350   6.841  2.4151  0.1039  0.4259
  965MOL0     H33129   9.200   2.487   6.886 -0.5367  0.6202  1.0931
  965MOL0     H33130   9.110   2.351   6.813  0.0741  2.8053 -1.1227
  965MOL0     H33131   9.193   2.325   6.964  0.2145 -0.7331 -1.7317
  965MOL0     H33132   9.406   2.453   7.272 -1.0871  0.9417 -0.4626
  965MOL0     H33133   9.610   2.497   7.400 -0.7956 -0.6014  0.3026
  965MOL0     H33134   9.769   2.498   7.571  2.4001 -0.3497  1.3930
  965MOL0     H33135   9.759   2.660   7.504 -1.4690  0.4433  0.2905
  965MOL0     H33136   9.944   2.617   7.644  0.0233 -0.4032  0.2089
  965MOL0     H33137   9.846   2.738   7.734 -0.3325  0.0109  1.8684
  965MOL0     H33138   9.852   2.430   7.779  3.0476 -0.6255  0.9651
  965MOL0     H33139   9.766   2.551   7.882  0.9932  1.0606  0.7282
  965MOL0     H33140   9.962   2.665   7.937 -0.2859 -0.5602  1.9540
  965MOL0     H33141  10.057   2.569   7.825 -1.9417 -0.6655 -1.1516
  965MOL0     H33142   9.928   2.448   8.073  1.0149  0.3901  1.5358
  965MOL0     H33143  10.018   2.367   7.937 -0.4153 -1.9512  1.3066
  965MOL0     H33144  10.195   2.543   8.001 -2.4366  0.9423 -1.9299
  965MOL0     H33145  10.189   2.398   8.103  0.7631  1.2104  5.0456
  965MOL0     H33146  10.047   2.551   8.269  0.6056  1.6360  0.0826
  965MOL0     H33147  10.081   2.686   8.164  0.2568 -1.0762 -2.1605
  965MOL0     H33148  10.277   2.526   8.318 -1.3491 -0.3266 -1.0879
  965MOL0     H33149  10.221   2.691   8.360  0.5599 -0.4368  0.6707
  965MOL0     H33150   9.369   2.689   7.699 -0.7154  1.2197 -1.5362
  965MOL0     H33151   9.170   2.646   7.585  1.2055  1.9832 -0.2757
  965MOL0     H33152   8.919   2.490   7.307  3.5957 -1.9848  0.6877
  965MOL0     H33153   8.687   2.422   7.209  0.3720  0.4165 -1.3542
  965MOL0     H33154   8.874   3.132   7.323  0.3203  1.5246 -0.5719
  965MOL0     H33155   8.658   3.268   7.346  0.1871 -1.2113  0.5373
  965MOL0     H33156   8.360   3.513   7.564 -0.6612 -0.3337  1.4382
  965MOL0     H33157   8.125   3.581   7.544 -1.8154 -0.5382 -0.3345
  965MOL0     H33158   7.946   3.611   7.695  0.1485  1.7781 -1.8158
  965MOL0     H33159   7.875   3.635   7.548  2.5259 -0.5935 -0.2670
  965MOL0     H33160   7.718   3.674   7.746 -1.0597 -1.1041  2.4532
  965MOL0     H33161   7.762   3.513   7.810  2.2825 -1.0823 -1.5883
  965MOL0     H33162   7.619   3.405   7.652  0.2278 -0.7482  4.1755
  965MOL0     H33163   7.527   3.514   7.745 -0.5395  0.3911 -1.1742
  965MOL0     H33164   7.624   3.556   7.464  0.7088  1.7613  0.1957
  965MOL0     H33165   7.550   3.679   7.566  0.3675 -0.2714  1.3890
  965MOL0     H33166   7.195   3.480   7.478 -0.4217  2.3453  0.8591
  965MOL0     H33167   8.004   3.180   7.635  1.4670 -1.0935  0.6634
  965MOL0     H33168   8.335   3.050   7.628  1.3558  1.9941  2.8713
  965MOL0     H33169   8.226   3.041   7.763  1.4118 -3.6310 -0.3472
  965MOL0     H33170   8.169   3.011   7.600  2.4032 -1.3914 -0.9822
  966MOL0     O33171   6.382   8.277   7.101 -0.3572  0.2468 -0.2229
  966MOL0     C33172   6.300   8.349   7.167 -0.6071 -0.2426 -0.4348
  966MOL0     O33173   6.334   8.421   7.276 -0.3413  0.1176 -0.1123
  966MOL0     C33174   6.461   8.420   7.324 -0.1837 -1.1611 -0.2052
  966MOL0     C33175   6.581   8.387   7.261 -0.5516 -0.8602  0.0460
  966MOL0     C33176   6.702   8.411   7.333 -0.8130 -0.8025 -0.7027
  966MOL0     C33177   6.697   8.460   7.466 -0.9631  0.2747  0.6063
  966MOL0     O33178   6.818   8.467   7.528  0.6398  0.0061  0.0007
  966MOL0     C33179   6.829   8.471   7.675 -0.2591  0.1579  1.2599
  966MOL0     C33180   6.976   8.445   7.707 -0.3644  0.6866 -0.1077
  966MOL0     C33181   7.011   8.436   7.854  1.4315  0.0683  0.4440
  966MOL0     C33182   7.149   8.401   7.894 -0.2243 -0.0721  0.2918
  966MOL0     C33183   7.254   8.508   7.861  0.5097 -0.5938 -0.5459
  966MOL0     C33184   7.393   8.487   7.929  0.3581  0.0136 -0.8057
  966MOL0     C33185   7.485   8.607   7.905 -0.1621 -0.6289 -0.3649
  966MOL0     C33186   7.610   8.599   7.989  0.6131 -0.9503 -0.5565
  966MOL0     N33187   7.691   8.717   7.960  0.4923 -0.2826 -0.4360
  966MOL0     C33188   7.723   8.815   8.056  0.2041  0.4530  0.5885
  966MOL0     C33189   7.799   8.901   7.983  0.1023 -0.1256 -0.2641
  966MOL0     C33190   7.881   9.009   8.044 -0.1795  0.0490 -0.5261
  966MOL0     C33191   7.883   9.131   7.953 -0.4981 -0.5958 -0.5059
  966MOL0     C33192   7.918   9.251   8.038 -0.2382  0.5925 -0.0687
  966MOL0     C33193   8.068   9.256   8.061  0.6385  0.5340  0.1390
  966MOL0     O33194   8.110   9.152   8.157 -0.9335  1.0127  0.4211
  966MOL0     C33195   8.244   9.123   8.175  0.0442 -0.0597 -0.6804
  966MOL0     C33196   8.336   9.221   8.227  0.1397  0.5618 -0.1895
  966MOL0     C33197   8.465   9.195   8.262 -0.7602 -0.0049 -0.1498
  966MOL0     C33198   8.532   9.304   8.345 -0.5067 -0.3481 -1.0189
  966MOL0     C33199   8.520   9.068   8.228  0.2593 -0.2359  0.6732
  966MOL0     C33200   8.655   9.030   8.261 -0.2837 -0.1444  0.1609
  966MOL0     O33201   8.671   8.895   8.286 -0.0426  0.4907 -0.7107
  966MOL0     C33202   8.792   8.835   8.294  0.4213 -0.6369  0.3238
  966MOL0     C33203   8.898   8.889   8.365  0.8567  0.2683 -1.2375
  966MOL0     C33204   9.028   8.835   8.351  0.7259  0.0313  0.5219
  966MOL0     C33205   9.052   8.722   8.265 -0.9388 -0.5995 -0.7582
  966MOL0     O33206   9.189   8.669   8.254 -0.7352  0.0281  0.1452
  966MOL0     C33207   9.238   8.655   8.125  0.0436 -0.0381  0.8579
  966MOL0     C33208   9.390   8.612   8.135  0.2291  0.2785  0.3562
  966MOL0     C33209   9.478   8.728   8.181 -0.5621 -0.1065  0.1881
  966MOL0     C33210   9.615   8.678   8.230  0.2944  0.3712  0.2054
  966MOL0     C33211   9.712   8.781   8.289  0.5418  0.6893  0.6312
  966MOL0     C33212   9.766   8.873   8.187  0.8269  0.2037 -0.1586
  966MOL0     C33213   9.856   8.985   8.256  0.2281  1.2043 -0.3467
  966MOL0     C33214   9.839   9.117   8.185  0.3897 -0.5225  0.2420
  966MOL0    Cl33215   9.975   9.219   8.252  0.0302  0.2040  0.2562
  966MOL0     C33216   8.945   8.660   8.208  0.3158  0.9794 -0.0545
  966MOL0     C33217   8.813   8.719   8.224  0.0069  0.2470  0.5239
  966MOL0     O33218   8.746   9.111   8.245 -0.8471 -0.7010 -0.1573
  966MOL0     C33219   8.431   8.978   8.157  0.1267 -0.7812 -0.1581
  966MOL0     C33220   8.298   9.002   8.129 -0.0655 -0.0604 -0.2749
  966MOL0     N33221   7.815   8.855   7.855  0.0158  0.3426 -0.1448
  966MOL0     N33222   7.747   8.743   7.841  0.0272  0.4721  0.6751
  966MOL0     C33223   6.579   8.488   7.527  0.0183 -0.2109  0.8997
  966MOL0     C33224   6.463   8.482   7.449  0.5122  0.6687 -0.3934
  966MOL0     C33225   6.160   8.361   7.113 -0.3935 -0.1875 -0.2666
  966MOL0     C33226   6.132   8.310   6.977 -0.2381 -0.4837 -0.3036
  966MOL0     C33227   6.003   8.301   6.926 -0.0672 -0.5128 -1.2772
  966MOL0     C33228   5.898   8.341   7.000  0.2548 -0.5900 -0.7265
  966MOL0     O33229   5.780   8.324   6.928  0.4154 -0.1489 -0.3126
  966MOL0     C33230   5.651   8.303   6.992 -1.0618 -0.6117 -0.9805
  966MOL0     C33231   5.664   8.177   7.080  0.1933  0.2818 -0.2378
  966MOL0     C33232   5.528   8.151   7.146  0.5467 -0.0329 -0.3743
  966MOL0     C33233   5.495   8.000   7.174  0.1770 -0.0958 -0.0514
  966MOL0     C33234   5.578   7.937   7.274  0.8115 -0.4210 -0.2538
  966MOL0     C33235   5.645   7.871   7.349  0.4289 -0.6678  0.0499
  966MOL0     C33236   5.916   8.399   7.129  0.6359  0.3901  0.0551
  966MOL0     C33237   6.045   8.415   7.182  0.3018 -0.3748  1.4234
  966MOL0     C33238   6.053   8.473   7.316  0.1415 -0.3786  0.0274
  966MOL0     H33239   6.597   8.340   7.164  2.4020 -0.5543  0.2900
  966MOL0     H33240   6.800   8.383   7.296 -0.0927  2.0743 -1.1975
  966MOL0     H33241   6.772   8.388   7.717 -0.8620 -0.4888 -0.7083
  966MOL0     H33242   6.794   8.567   7.712 -0.5399  1.7127 -2.5573
  966MOL0     H33243   7.021   8.358   7.659  2.6680  0.3773  2.9182
  966MOL0     H33244   7.030   8.532   7.667  0.8669 -0.3029 -0.6723
  966MOL0     H33245   6.972   8.523   7.908 -1.8939 -2.0875  1.8480
  966MOL0     H33246   6.943   8.359   7.890 -0.6416  0.5294 -2.1791
  966MOL0     H33247   7.165   8.375   7.999 -0.4997 -0.9626  0.1185
  966MOL0     H33248   7.176   8.312   7.835  1.0588  1.1948 -1.1366
  966MOL0     H33249   7.215   8.602   7.899  0.7788 -1.0673  1.0010
  966MOL0     H33250   7.267   8.525   7.754 -0.7441  1.8633 -0.3521
  966MOL0     H33251   7.392   8.467   8.037  3.8149 -3.1073 -1.1852
  966MOL0     H33252   7.427   8.392   7.887  0.7928 -0.1488 -0.1091
  966MOL0     H33253   7.425   8.697   7.920  1.0849  0.3105 -0.7703
  966MOL0     H33254   7.512   8.608   7.798 -0.9527  1.7700 -0.5983
  966MOL0     H33255   7.585   8.599   8.096 -0.9776  1.3196 -0.8575
  966MOL0     H33256   7.659   8.505   7.962  1.6042 -1.4934  2.6149
  966MOL0     H33257   7.704   8.816   8.163  0.3700  0.4166  0.6186
  966MOL0     H33258   7.983   8.971   8.051 -1.0711 -2.4586 -0.2081
  966MOL0     H33259   7.837   9.034   8.141 -0.4405  0.0012 -0.6320
  966MOL0     H33260   7.958   9.121   7.874  1.3323  1.6102  0.8246
  966MOL0     H33261   7.787   9.142   7.902 -0.7828 -0.1429  0.1139
  966MOL0     H33262   7.895   9.333   7.969  2.6079  0.4203 -1.3786
  966MOL0     H33263   7.861   9.253   8.132  1.2275  2.5405  0.8568
  966MOL0     H33264   8.120   9.228   7.969  3.6115  2.8333  0.9493
  966MOL0     H33265   8.113   9.353   8.083  3.1035 -0.3147 -0.8153
  966MOL0     H33266   8.289   9.319   8.237 -0.3884  0.6001 -2.3466
  966MOL0     H33267   8.455   9.363   8.395  1.1878  1.8203 -0.7883
  966MOL0     H33268   8.600   9.365   8.285  1.8008 -2.0878 -0.3433
  966MOL0     H33269   8.589   9.255   8.425  2.5306  1.5172 -1.8563
  966MOL0     H33270   8.882   8.982   8.419 -0.5012  1.3898 -3.4086
  966MOL0     H33271   9.120   8.879   8.385  2.2179  0.9223 -3.9930
  966MOL0     H33272   9.178   8.584   8.067 -0.9282 -0.7726  2.6963
  966MOL0     H33273   9.226   8.752   8.075 -1.4625 -0.1500  0.9528
  966MOL0     H33274   9.399   8.539   8.216  2.0310  0.8580  0.7084
  966MOL0     H33275   9.439   8.574   8.045  1.3437  2.3996  0.0058
  966MOL0     H33276   9.420   8.773   8.262 -0.0622 -0.5363  0.7904
  966MOL0     H33277   9.487   8.802   8.101 -0.7024 -0.0024  0.2695
  966MOL0     H33278   9.667   8.628   8.148  1.3937 -0.1548  1.1989
  966MOL0     H33279   9.602   8.592   8.297  1.5226 -1.3310 -1.6022
  966MOL0     H33280   9.670   8.824   8.380 -0.4746 -3.1824  2.1888
  966MOL0     H33281   9.799   8.722   8.321  0.3366 -0.3229 -0.5837
  966MOL0     H33282   9.679   8.921   8.141  0.2137 -2.5645 -2.1287
  966MOL0     H33283   9.813   8.816   8.107 -1.8744 -0.3822 -1.4327
  966MOL0     H33284   9.959   8.948   8.252 -0.5118 -0.9267 -1.4713
  966MOL0     H33285   9.836   9.014   8.359  0.8181  0.3377  0.0241
  966MOL0     H33286   9.744   9.170   8.189  0.1659 -0.9582  0.9548
  966MOL0     H33287   9.859   9.100   8.079 -2.9439 -3.5642 -0.0803
  966MOL0     H33288   8.959   8.565   8.159  0.3386  1.0835 -0.2508
  966MOL0     H33289   8.730   8.674   8.172  0.2914  0.1272  0.1659
  966MOL0     H33290   8.469   8.879   8.133  1.3360 -0.5518  0.7111
  966MOL0     H33291   8.235   8.920   8.094  1.5052 -2.2671  1.7519
  966MOL0     H33292   6.582   8.533   7.626  0.6583  1.3620  0.2102
  966MOL0     H33293   6.367   8.513   7.488  0.7327 -1.2526  1.8766
  966MOL0     H33294   6.208   8.274   6.908 -0.4779 -0.9107 -0.3547
  966MOL0     H33295   5.970   8.247   6.838 -0.0013 -0.6980 -1.1889
  966MOL0     H33296   5.639   8.395   7.051  0.4005 -0.6245 -0.6330
  966MOL0     H33297   5.568   8.307   6.921 -4.8851  2.1370  3.0752
  966MOL0     H33298   5.731   8.187   7.166 -1.1059 -0.6038  0.9358
  966MOL0     H33299   5.708   8.091   7.028 -0.9596 -0.5172  0.0730
  966MOL0     H33300   5.522   8.212   7.237  2.1071  0.9587 -0.8887
  966MOL0     H33301   5.451   8.181   7.075  1.1274  2.4106 -0.0553
  966MOL0     H33302   5.510   7.947   7.080  0.8061  1.3847 -0.8137
  966MOL0     H33303   5.390   7.985   7.204  0.3596  1.3858  1.4197
  966MOL0     H33304   5.714   7.810   7.404  1.9906  0.9291 -0.0595
  966MOL0     H33305   5.836   8.441   7.189  1.6471 -1.1039  2.5799
  966MOL0     H33306   6.089   8.576   7.307 -1.6677  0.3611  0.7063
  966MOL0     H33307   5.956   8.477   7.366  1.0526 -0.6682  1.9422
  966MOL0     H33308   6.117   8.419   7.387 -1.9129  0.6878  2.8947
  967MOL0     O33309   5.902   5.100   7.023 -0.5971 -0.1165  0.1580
  967MOL0     C33310   5.869   5.083   7.137  0.3593 -0.5392 -0.2261
  967MOL0     O33311   5.935   5.000   7.230  0.2825 -0.0856 -0.0396
  967MOL0     C33312   6.062   4.977   7.198 -0.1611  0.0560  0.2506
  967MOL0     C33313   6.092   4.850   7.159 -0.4120 -0.4011  0.6666
  967MOL0     C33314   6.221   4.804   7.138  0.2496  0.0857  0.2908
  967MOL0     C33315   6.322   4.896   7.144  0.0299 -0.7044  0.1994
  967MOL0     O33316   6.444   4.842   7.104  0.3807  0.3261  0.0453
  967MOL0     C33317   6.555   4.927   7.075  0.7141  0.0535 -0.5973
  967MOL0     C33318   6.671   4.853   7.011  0.1355 -0.0982  0.8976
  967MOL0     C33319   6.677   4.843   6.858 -0.4302 -0.3181  0.3656
  967MOL0     C33320   6.694   4.971   6.781 -0.7891  0.0803 -0.7166
  967MOL0     C33321   6.768   4.967   6.652  0.4620 -0.8090  0.1442
  967MOL0     C33322   6.780   5.105   6.605  0.1934  0.2547  0.1044
  967MOL0     C33323   6.878   5.118   6.489 -0.7783  0.8462 -1.1514
  967MOL0     C33324   6.915   5.269   6.465  0.1157  0.2898 -0.0269
  967MOL0     N33325   7.035   5.307   6.531 -1.0688  0.0206 -0.4434
  967MOL0     C33326   7.050   5.351   6.657  0.6785 -0.6042 -0.3780
  967MOL0     C33327   7.185   5.367   6.677 -0.2197  0.2948 -0.6094
  967MOL0     C33328   7.271   5.425   6.795 -0.5696  0.4952  0.5553
  967MOL0     C33329   7.424   5.453   6.770  0.1290  0.1729  0.1576
  967MOL0     C33330   7.478   5.517   6.895 -0.3253 -0.3235 -0.8414
  967MOL0     C33331   7.632   5.538   6.881  0.1616  0.6153  0.4540
  967MOL0     O33332   7.650   5.652   6.799  0.5900  1.1542  0.0296
  967MOL0     C33333   7.778   5.685   6.759  0.6547 -0.2002 -0.0639
  967MOL0     C33334   7.785   5.805   6.692  0.0916  0.2674 -0.0181
  967MOL0     C33335   7.901   5.857   6.635  0.6606 -0.5459 -0.5620
  967MOL0     C33336   7.903   5.999   6.584  0.5962 -0.3653 -0.1120
  967MOL0     C33337   8.023   5.777   6.656  0.4244 -1.4238  0.1042
  967MOL0     C33338   8.161   5.809   6.622 -0.2341  0.0287 -0.5818
  967MOL0     O33339   8.170   5.890   6.515  0.1671 -0.1968 -0.3683
  967MOL0     C33340   8.291   5.944   6.473  0.1469  0.3868 -0.1459
  967MOL0     C33341   8.331   6.076   6.467  0.8026 -0.3124  0.4285
  967MOL0     C33342   8.451   6.115   6.409  0.2623  0.4858 -0.3091
  967MOL0     C33343   8.534   6.015   6.370  0.3448 -0.4950 -0.2140
  967MOL0     O33344   8.655   6.042   6.322  0.2145  0.3785 -0.4295
  967MOL0     C33345   8.755   6.081   6.423 -0.5715  0.6793  0.4260
  967MOL0     C33346   8.863   6.156   6.352  0.2751 -0.1211 -0.2492
  967MOL0     C33347   8.969   6.062   6.302  0.7468 -0.1145  0.3375
  967MOL0     C33348   9.062   6.121   6.199 -0.4146 -0.1403  0.6892
  967MOL0     C33349   9.148   6.015   6.125 -0.8447 -0.3613 -0.8175
  967MOL0     C33350   9.264   5.966   6.213 -0.0426  0.4117 -0.4752
  967MOL0     C33351   9.306   5.838   6.137 -0.4522  0.2583  0.6174
  967MOL0     C33352   9.420   5.767   6.214  0.5773 -0.2243  0.0112
  967MOL0    Cl33353   9.563   5.867   6.173 -0.3884 -0.0652 -0.0392
  967MOL0     C33354   8.491   5.882   6.362  0.8013 -0.6683 -0.4217
  967MOL0     C33355   8.376   5.845   6.418 -0.4369 -0.5073 -0.2710
  967MOL0     O33356   8.256   5.751   6.680 -0.2313 -0.2922  0.0902
  967MOL0     C33357   8.011   5.661   6.739  0.3529  0.5190  0.2689
  967MOL0     C33358   7.895   5.619   6.793  0.1396  0.0983  0.0608
  967MOL0     N33359   7.243   5.344   6.552 -0.3466 -0.7794  0.4095
  967MOL0     N33360   7.154   5.304   6.464  0.4496 -0.1601 -0.3320
  967MOL0     C33361   6.293   5.030   7.169 -0.2870 -0.2427  0.5364
  967MOL0     C33362   6.164   5.073   7.201  0.2740 -0.3547  0.1763
  967MOL0     C33363   5.736   5.126   7.176  0.3200  0.1549  0.3615
  967MOL0     C33364   5.671   5.054   7.276  0.3078  0.1240  0.0256
  967MOL0     C33365   5.539   5.071   7.306  0.5789  0.0228 -0.4710
  967MOL0     C33366   5.465   5.168   7.248  0.0275 -0.5116  0.1498
  967MOL0     O33367   5.325   5.180   7.267  0.5572  1.0191 -0.6664
  967MOL0     C33368   5.245   5.131   7.153 -0.9009 -0.4881  0.4534
  967MOL0     C33369   5.100   5.181   7.160  0.1016  0.3924  0.3601
  967MOL0     C33370   5.039   5.145   7.296 -0.0931 -0.4154 -0.1587
  967MOL0     C33371   4.972   5.007   7.316  0.1328 -0.3000 -0.6402
  967MOL0     C33372   4.878   4.969   7.204 -0.0179 -0.2198 -0.0442
  967MOL0     C33373   4.792   4.954   7.120 -0.9808  0.7824  0.2501
  967MOL0     C33374   5.524   5.246   7.148 -0.3238  1.1530 -0.2652
  967MOL0     C33375   5.660   5.232   7.114  0.2530  0.3521 -0.2198
  967MOL0     C33376   5.722   5.325   7.010  0.7903  0.3187 -0.0117
  967MOL0     H33377   6.004   4.786   7.150 -0.1259 -0.6958 -0.1183
  967MOL0     H33378   6.248   4.704   7.107  1.3381  0.6835 -0.7857
  967MOL0     H33379   6.598   4.964   7.169  3.1613  1.6340 -2.2322
  967MOL0     H33380   6.522   5.005   7.006  1.1716  0.3036 -0.5420
  967MOL0     H33381   6.766   4.886   7.057 -0.2365  0.3281  1.3763
  967MOL0     H33382   6.667   4.747   7.036  3.5577 -0.0383  2.2400
  967MOL0     H33383   6.753   4.771   6.827  1.0023  0.5707  1.6754
  967MOL0     H33384   6.579   4.798   6.835 -1.6432  1.9775  0.7304
  967MOL0     H33385   6.593   5.010   6.765 -1.8802 -2.2874  0.0734
  967MOL0     H33386   6.755   5.039   6.842  1.8907 -1.8457 -1.0618
  967MOL0     H33387   6.706   4.912   6.580 -1.0559  0.4669  0.4269
  967MOL0     H33388   6.867   4.927   6.679  0.2341 -1.6413 -0.2238
  967MOL0     H33389   6.690   5.159   6.575 -0.3740  0.1512  1.5640
  967MOL0     H33390   6.820   5.170   6.683  0.4680  0.4400 -0.1844
  967MOL0     H33391   6.824   5.076   6.404  0.4166 -1.3337 -0.8945
  967MOL0     H33392   6.965   5.052   6.497 -1.6010 -0.0435  1.3990
  967MOL0     H33393   6.939   5.282   6.359 -0.4964 -0.0033 -0.1997
  967MOL0     H33394   6.842   5.346   6.493  1.0875  0.3785  2.6550
  967MOL0     H33395   6.973   5.369   6.731  0.8337 -3.9701  0.7618
  967MOL0     H33396   7.271   5.351   6.876  0.1189 -0.1624 -0.0271
  967MOL0     H33397   7.227   5.519   6.829 -1.5392  0.8664 -1.5628
  967MOL0     H33398   7.474   5.360   6.744 -0.8344 -0.1141 -0.7372
  967MOL0     H33399   7.435   5.519   6.683  0.1740  0.6506  0.5171
  967MOL0     H33400   7.430   5.615   6.894  1.6146  0.6669 -0.6121
  967MOL0     H33401   7.459   5.448   6.978  1.0252 -3.1958 -2.7189
  967MOL0     H33402   7.679   5.547   6.979 -0.8674  1.1616  0.9166
  967MOL0     H33403   7.673   5.447   6.836  1.9224  0.9626  1.2576
  967MOL0     H33404   7.695   5.865   6.687  0.4624  0.8849  0.6135
  967MOL0     H33405   7.996   6.052   6.607  1.0596 -1.4369  0.5379
  967MOL0     H33406   7.823   6.043   6.644 -0.1642 -0.0826 -1.2985
  967MOL0     H33407   7.876   6.007   6.478  0.3573 -2.1009 -0.2021
  967MOL0     H33408   8.274   6.164   6.494  2.5465  0.7165  0.8754
  967MOL0     H33409   8.497   6.213   6.404 -0.1434  0.6141 -2.7698
  967MOL0     H33410   8.708   6.154   6.489  0.9375  0.0215  2.2996
  967MOL0     H33411   8.794   5.999   6.485  1.9654 -0.5691 -2.5162
  967MOL0     H33412   8.827   6.213   6.266  1.3438  1.4614  0.3183
  967MOL0     H33413   8.909   6.219   6.429 -2.2233  1.3080  0.1762
  967MOL0     H33414   8.927   5.973   6.255  2.8452 -0.2929 -1.3757
  967MOL0     H33415   9.029   6.026   6.387  1.8543 -2.0141 -1.1602
  967MOL0     H33416   9.115   6.206   6.243 -3.0860  1.1910  1.5846
  967MOL0     H33417   9.003   6.159   6.115  1.0704 -0.3896 -0.5197
  967MOL0     H33418   9.080   5.932   6.100 -0.6662 -1.5149  2.1406
  967MOL0     H33419   9.186   6.059   6.032 -0.8164 -1.6215 -1.4174
  967MOL0     H33420   9.219   5.951   6.312 -1.8172  2.7762 -0.8449
  967MOL0     H33421   9.342   6.043   6.218  0.5871 -0.2416  0.0891
  967MOL0     H33422   9.344   5.869   6.040 -0.3406 -2.9945 -0.4930
  967MOL0     H33423   9.225   5.767   6.121 -0.1091  0.3602 -1.9797
  967MOL0     H33424   9.435   5.661   6.188 -1.2219 -0.6053  0.4131
  967MOL0     H33425   9.400   5.779   6.321  0.4924  1.4940 -0.1692
  967MOL0     H33426   8.542   5.816   6.293  2.4701 -1.3277  1.3201
  967MOL0     H33427   8.339   5.743   6.415  2.8569 -1.8520  0.5272
  967MOL0     H33428   8.099   5.602   6.765 -0.4619 -0.6146  0.4930
  967MOL0     H33429   7.883   5.527   6.849 -1.0272  0.6041  0.6752
  967MOL0     H33430   6.367   5.108   7.153 -0.7777 -0.0020 -0.6455
  967MOL0     H33431   6.137   5.176   7.221 -0.9615 -0.5284 -0.5178
  967MOL0     H33432   5.730   4.978   7.327 -0.7422 -0.7654 -0.0425
  967MOL0     H33433   5.496   5.006   7.382 -0.4932  1.4755  0.2062
  967MOL0     H33434   5.287   5.169   7.059  0.5710 -1.3532  0.7234
  967MOL0     H33435   5.248   5.022   7.143 -2.2507 -0.4668 -0.3841
  967MOL0     H33436   5.044   5.132   7.080  0.6723 -2.8334  1.8159
  967MOL0     H33437   5.099   5.290   7.146 -0.7118  0.3517  0.0653
  967MOL0     H33438   5.102   5.172   7.381 -1.2351  1.0418  0.2785
  967MOL0     H33439   4.962   5.221   7.310  1.7353  1.1191  2.4658
  967MOL0     H33440   4.920   5.002   7.412  1.1916  0.1315 -0.0176
  967MOL0     H33441   5.054   4.934   7.327  0.3187  0.0717  0.7084
  967MOL0     H33442   4.721   4.939   7.041 -2.2707 -0.3149  1.5507
  967MOL0     H33443   5.453   5.318   7.109 -0.7289  1.1671  0.4869
  967MOL0     H33444   5.699   5.270   6.918 -0.8236 -1.1296  1.1974
  967MOL0     H33445   5.671   5.422   7.011 -2.9461 -1.4236  2.1707
  967MOL0     H33446   5.830   5.341   7.019  0.8364 -0.4533  1.0001
  968MOL0     O33447   6.725   7.864   5.007 -0.0973  0.5050  0.1755
  968MOL0     C33448   6.677   7.774   5.075 -0.7062  0.3702  0.2760
  968MOL0     O33449   6.737   7.670   5.126 -0.4969 -0.0154  0.4876
  968MOL0     C33450   6.874   7.650   5.098  0.7373 -0.2144 -0.0210
  968MOL0     C33451   6.967   7.704   5.189  0.2948 -0.1432  0.8466
  968MOL0     C33452   7.102   7.686   5.173 -0.1781  0.3896 -1.3672
  968MOL0     C33453   7.151   7.612   5.062 -1.0054  0.6328 -0.2005
  968MOL0     O33454   7.282   7.591   5.051 -0.1226  0.8071 -0.5221
  968MOL0     C33455   7.344   7.582   4.921 -1.1034 -0.0257  0.0443
  968MOL0     C33456   7.478   7.636   4.932  0.1518  0.0460  0.3947
  968MOL0     C33457   7.483   7.783   4.985  0.2574 -0.2286  0.2165
  968MOL0     C33458   7.628   7.823   4.972  0.2906  0.0996  0.4958
  968MOL0     C33459   7.631   7.972   5.003  0.3077  0.0198  0.0418
  968MOL0     C33460   7.773   8.014   5.018  0.0077  0.4759  0.3364
  968MOL0     C33461   7.769   8.158   5.062 -0.2739  0.5539 -0.0028
  968MOL0     C33462   7.732   8.176   5.209 -0.8947 -0.2974 -0.3537
  968MOL0     N33463   7.825   8.123   5.310  0.4995  0.5835 -0.2018
  968MOL0     C33464   7.962   8.121   5.303  1.0684  0.3303  1.1633
  968MOL0     C33465   7.988   8.055   5.419 -0.4952  0.2602 -0.4705
  968MOL0     C33466   8.130   8.035   5.479 -1.0094  0.8283 -0.1965
  968MOL0     C33467   8.194   8.166   5.537  0.4051 -0.3843  0.7683
  968MOL0     C33468   8.292   8.137   5.652  0.8087  0.4033  0.5407
  968MOL0     C33469   8.411   8.050   5.613 -0.6854  0.2700  0.5299
  968MOL0     O33470   8.483   8.109   5.501 -0.2626  0.0705  0.2857
  968MOL0     C33471   8.604   8.048   5.453 -0.6483  0.1492  0.7938
  968MOL0     C33472   8.669   8.116   5.351 -0.8100 -0.0715  0.0276
  968MOL0     C33473   8.798   8.076   5.311 -0.2099 -0.3581 -0.6417
  968MOL0     C33474   8.868   8.171   5.205 -0.0411  0.5129  0.4586
  968MOL0     C33475   8.849   7.960   5.359  0.0373  0.6995  0.2047
  968MOL0     C33476   8.980   7.910   5.317 -0.2594 -0.1974  0.1854
  968MOL0     O33477   9.004   7.775   5.335 -0.2259 -0.3955 -0.5304
  968MOL0     C33478   9.128   7.727   5.310  0.5947 -1.1992  0.3988
  968MOL0     C33479   9.255   7.786   5.337  0.9077  0.1578  0.3875
  968MOL0     C33480   9.375   7.725   5.292  0.8028 -0.3283  0.1448
  968MOL0     C33481   9.372   7.596   5.223  0.3527 -0.0281  0.4522
  968MOL0     O33482   9.473   7.539   5.142  0.2683 -0.0303  0.0159
  968MOL0     C33483   9.589   7.612   5.147 -0.3863  0.7501  0.1361
  968MOL0     C33484   9.689   7.566   5.042 -0.1120  0.1602  0.2736
  968MOL0     C33485   9.811   7.658   5.020  0.2875 -0.4238 -0.3745
  968MOL0     C33486   9.875   7.718   5.148  0.2193  0.6961  0.2684
  968MOL0     C33487   9.968   7.830   5.120  0.7869 -1.4011  0.6402
  968MOL0     C33488  10.072   7.794   5.003  0.1788 -0.4666  0.1862
  968MOL0     C33489  10.176   7.904   4.982  0.1429  0.1349 -0.0817
  968MOL0     C33490  10.282   7.891   4.871  0.0217 -0.4318 -0.4301
  968MOL0    Cl33491  10.203   7.891   4.713  0.2789  0.4098 -0.1791
  968MOL0     C33492   9.240   7.539   5.207  0.1006 -0.5916  0.0268
  968MOL0     C33493   9.120   7.607   5.244  0.4277 -0.0337 -0.2963
  968MOL0     O33494   9.070   7.992   5.281 -0.1061  0.4550 -0.4003
  968MOL0     C33495   8.777   7.882   5.446  1.0854 -0.2253 -0.9860
  968MOL0     C33496   8.657   7.925   5.500  0.6702 -0.9379  0.3169
  968MOL0     N33497   7.878   8.015   5.488 -0.8025 -0.0560 -0.5266
  968MOL0     N33498   7.777   8.063   5.421 -0.1418  0.4854 -0.2044
  968MOL0     C33499   7.054   7.572   4.966 -0.5308  0.1759 -0.1973
  968MOL0     C33500   6.917   7.584   4.987  0.9723  0.1733  0.2544
  968MOL0     C33501   6.527   7.782   5.092 -0.4215  0.4604  0.7427
  968MOL0     C33502   6.464   7.909   5.091 -0.4620 -0.0838 -0.3874
  968MOL0     C33503   6.318   7.927   5.098  0.3222  0.2756  0.4247
  968MOL0     C33504   6.238   7.813   5.111 -0.0593  0.0313  0.8170
  968MOL0     O33505   6.108   7.832   5.123  0.2198 -0.0183  0.3872
  968MOL0     C33506   6.083   7.876   5.250 -0.1828 -0.4080  0.9298
  968MOL0     C33507   5.933   7.932   5.259 -0.3049  0.4510 -0.5942
  968MOL0     C33508   5.894   8.048   5.170  0.7202 -0.7060 -0.0738
  968MOL0     C33509   5.751   8.090   5.178  0.4643  0.0500  0.7757
  968MOL0     C33510   5.676   7.974   5.128  0.4519 -0.0682  0.0797
  968MOL0     C33511   5.605   7.879   5.085 -0.7085  0.0148  0.6117
  968MOL0     C33512   6.294   7.692   5.100  0.2856  0.4764  0.4912
  968MOL0     C33513   6.435   7.673   5.085 -0.1299 -0.5114  0.1015
  968MOL0     C33514   6.484   7.538   5.080  0.2515  0.5638  0.0090
  968MOL0     H33515   6.942   7.765   5.276 -2.0195 -2.0063  1.6044
  968MOL0     H33516   7.174   7.704   5.253 -1.1178 -3.0765  0.4868
  968MOL0     H33517   7.280   7.641   4.855 -1.0866  1.0027  0.9321
  968MOL0     H33518   7.339   7.479   4.883 -1.8218 -0.6462  1.7052
  968MOL0     H33519   7.532   7.571   5.001  3.0117 -3.9229 -4.8749
  968MOL0     H33520   7.521   7.624   4.832 -0.5116 -2.4120  0.3566
  968MOL0     H33521   7.424   7.846   4.917  0.3897 -0.0055  0.3081
  968MOL0     H33522   7.461   7.800   5.091  3.9733  1.7943  0.8324
  968MOL0     H33523   7.677   7.781   5.061 -0.1424  1.5714  1.4585
  968MOL0     H33524   7.677   7.800   4.877  1.1383  0.9680  0.7160
  968MOL0     H33525   7.581   7.989   5.099  1.2802  3.2233  0.1013
  968MOL0     H33526   7.578   8.016   4.917 -0.6923 -1.1789  0.0176
  968MOL0     H33527   7.822   7.947   5.090  4.2175  1.1241 -1.5925
  968MOL0     H33528   7.829   8.007   4.924  0.9880 -1.3974  0.9973
  968MOL0     H33529   7.701   8.209   4.992 -2.5292  0.4605  2.0031
  968MOL0     H33530   7.865   8.205   5.037 -0.9677  1.1425 -1.6862
  968MOL0     H33531   7.723   8.281   5.240  2.1148 -0.8504  3.0465
  968MOL0     H33532   7.631   8.140   5.228 -0.4277 -1.4150  0.1336
  968MOL0     H33533   8.023   8.177   5.233  0.0543  2.1947  1.7183
  968MOL0     H33534   8.189   7.992   5.398 -0.2443  0.4262  0.5600
  968MOL0     H33535   8.126   7.961   5.560 -1.9476 -1.7081 -2.4252
  968MOL0     H33536   8.241   8.226   5.458 -0.6742 -0.9042 -0.3031
  968MOL0     H33537   8.113   8.228   5.575  0.6708  0.0816  0.5817
  968MOL0     H33538   8.337   8.235   5.670  2.7806  0.0463 -1.8998
  968MOL0     H33539   8.249   8.110   5.749  1.8791 -1.2046  0.6193
  968MOL0     H33540   8.481   8.034   5.696 -1.3124 -0.2369  0.9710
  968MOL0     H33541   8.384   7.951   5.575  0.6644  1.0399 -2.7884
  968MOL0     H33542   8.631   8.214   5.324 -0.4809 -0.3791 -1.6262
  968MOL0     H33543   8.808   8.261   5.193 -0.3276  0.0888 -1.5808
  968MOL0     H33544   8.882   8.124   5.108 -0.6735  0.9441  0.1501
  968MOL0     H33545   8.964   8.196   5.249  0.2283 -1.4453  1.1090
  968MOL0     H33546   9.263   7.868   5.407  2.2947 -0.3751  0.8993
  968MOL0     H33547   9.468   7.780   5.299  0.6714 -0.0549 -0.2139
  968MOL0     H33548   9.579   7.719   5.127 -2.4590  0.6378  0.3734
  968MOL0     H33549   9.620   7.599   5.251 -1.4265 -0.5670  0.3039
  968MOL0     H33550   9.716   7.466   5.078 -2.2384 -0.7301 -0.4376
  968MOL0     H33551   9.649   7.549   4.942  2.3271  0.1107 -0.7612
  968MOL0     H33552   9.778   7.734   4.949  0.2706 -1.1419 -1.1417
  968MOL0     H33553   9.890   7.599   4.973  2.5585  1.6160  0.6618
  968MOL0     H33554   9.933   7.642   5.203  1.3775  1.8474  0.7097
  968MOL0     H33555   9.796   7.754   5.214  0.2873  0.2081  0.6243
  968MOL0     H33556   9.905   7.908   5.077 -0.9477 -3.0655  0.0322
  968MOL0     H33557  10.018   7.865   5.211 -1.0416  1.5158  0.6638
  968MOL0     H33558  10.022   7.782   4.906 -0.6837 -0.9268  0.6719
  968MOL0     H33559  10.124   7.702   5.031 -0.4484 -1.4452 -1.7194
  968MOL0     H33560  10.235   7.912   5.073  0.1407 -2.6585  0.2401
  968MOL0     H33561  10.126   7.998   4.956  0.4892  0.0604 -1.0881
  968MOL0     H33562  10.334   7.796   4.885 -1.4538 -1.8226 -3.5505
  968MOL0     H33563  10.350   7.975   4.889 -0.5758 -0.2890  1.4296
  968MOL0     H33564   9.229   7.435   5.177 -0.1824 -0.3492 -0.7309
  968MOL0     H33565   9.020   7.572   5.220  0.6172  0.5547 -2.1431
  968MOL0     H33566   8.805   7.783   5.481 -2.1355 -1.1156 -0.6410
  968MOL0     H33567   8.612   7.864   5.578 -0.3414  0.5998  0.9768
  968MOL0     H33568   7.087   7.526   4.874  0.1343 -1.4914  0.8357
  968MOL0     H33569   6.852   7.539   4.913  0.2860  1.2961  0.1469
  968MOL0     H33570   6.531   7.994   5.085 -0.1303 -0.1924  1.1272
  968MOL0     H33571   6.271   8.024   5.104 -2.7327 -1.1041  0.7193
  968MOL0     H33572   6.105   7.798   5.324  3.0581 -0.9161 -0.3719
  968MOL0     H33573   6.153   7.952   5.287 -2.7655  1.4722  2.2409
  968MOL0     H33574   5.925   7.967   5.362  0.6239 -1.1845  0.0731
  968MOL0     H33575   5.865   7.846   5.255  0.5993 -0.2404 -2.3629
  968MOL0     H33576   5.960   8.134   5.184  1.2835 -0.4593 -3.5623
  968MOL0     H33577   5.913   8.028   5.065 -3.3636 -0.9604 -0.9434
  968MOL0     H33578   5.739   8.181   5.118 -1.5852  0.9051  2.3554
  968MOL0     H33579   5.729   8.124   5.280  0.6193 -0.5750  1.0210
  968MOL0     H33580   5.568   7.795   5.030  3.5430 -1.1895 -0.8613
  968MOL0     H33581   6.229   7.605   5.108 -0.4024  1.0526  1.3677
  968MOL0     H33582   6.575   7.526   5.020  1.5321  0.3718  1.8724
  968MOL0     H33583   6.509   7.499   5.180  0.2205  3.2778  1.1563
  968MOL0     H33584   6.409   7.471   5.038  1.7791  1.4039 -4.5723
  969MOL0     O33585   2.786  11.209   2.568  0.0744  0.1154  0.3540
  969MOL0     C33586   2.723  11.309   2.565  0.9406 -0.9884 -0.2100
  969MOL0     O33587   2.779  11.436   2.551 -0.1313 -0.7648 -0.3572
  969MOL0     C33588   2.906  11.435   2.602 -0.7850  0.1418  0.3102
  969MOL0     C33589   3.018  11.413   2.528 -0.5580 -0.5243  0.9824
  969MOL0     C33590   3.153  11.416   2.577  0.2552 -0.0230  0.5668
  969MOL0     C33591   3.174  11.462   2.708 -0.0425  0.3882  0.0734
  969MOL0     O33592   3.305  11.482   2.743  0.7797  0.1411  0.1884
  969MOL0     C33593   3.336  11.458   2.885  0.5398 -0.1893  0.0294
  969MOL0     C33594   3.484  11.445   2.912 -0.0317 -0.4381  0.1579
  969MOL0     C33595   3.561  11.570   2.863  0.3713  0.2718 -0.7588
  969MOL0     C33596   3.694  11.594   2.934 -0.6433  0.5069  0.6247
  969MOL0     C33597   3.776  11.697   2.846  0.5682  0.6766 -0.5588
  969MOL0     C33598   3.911  11.727   2.909  0.5504 -0.6541  0.2156
  969MOL0     C33599   4.015  11.779   2.814 -0.1026 -0.1550  0.2379
  969MOL0     C33600   4.115  11.870   2.891  0.3212 -0.3121 -0.7227
  969MOL0     N33601   4.201  11.777   2.970  0.0481 -0.4432 -0.0495
  969MOL0     C33602   4.322  11.728   2.920  0.2235 -0.1747 -1.0918
  969MOL0     C33603   4.391  11.689   3.037  1.1320 -0.0381  0.3424
  969MOL0     C33604   4.532  11.657   3.042  0.5896  0.0153  0.1264
  969MOL0     C33605   4.629  11.752   2.971 -0.5350  0.6184  0.1331
  969MOL0     C33606   4.772  11.739   3.024  0.0560  0.2530 -0.2074
  969MOL0     C33607   4.867  11.833   2.958 -0.2588  0.3612  0.0977
  969MOL0     O33608   4.893  11.780   2.823 -0.1507  0.5397 -0.0800
  969MOL0     C33609   5.009  11.710   2.801  0.2090  1.1221  0.9355
  969MOL0     C33610   5.006  11.600   2.716 -0.9026 -0.4714  0.0018
  969MOL0     C33611   5.121  11.517   2.702 -0.6923 -0.2456  0.8420
  969MOL0     C33612   5.092  11.388   2.628  0.5068  0.5444 -0.3700
  969MOL0     C33613   5.243  11.547   2.764  0.2253 -0.1536  0.2976
  969MOL0     C33614   5.372  11.472   2.731  0.6314  0.0638  0.0050
  969MOL0     O33615   5.475  11.516   2.813 -0.3324  0.6145 -0.4710
  969MOL0     C33616   5.604  11.463   2.797  0.0630 -0.1474 -0.1219
  969MOL0     C33617   5.645  11.366   2.891  0.5899  0.1117  0.6156
  969MOL0     C33618   5.776  11.316   2.884 -0.7539  0.1880 -0.4149
  969MOL0     C33619   5.869  11.366   2.792 -0.2300 -0.0361 -0.5657
  969MOL0     O33620   5.994  11.294   2.798  0.6159 -0.4327  0.8644
  969MOL0     C33621   6.105  11.356   2.724  0.3441  0.1195 -0.9482
  969MOL0     C33622   6.242  11.301   2.772 -0.0289 -0.5934 -0.4691
  969MOL0     C33623   6.290  11.170   2.717  0.8963 -0.3108  0.5247
  969MOL0     C33624   6.424  11.137   2.783  0.2055 -0.5510  0.6337
  969MOL0     C33625   6.541  11.184   2.689  0.4944  0.1889  0.7498
  969MOL0     C33626   6.649  11.241   2.781  0.1676  0.3064  0.0636
  969MOL0     C33627   6.765  11.289   2.694 -0.0466  0.6757 -0.8445
  969MOL0     C33628   6.875  11.357   2.763 -0.0923  0.6663 -0.1346
  969MOL0    Cl33629   6.951  11.227   2.869  0.0604 -0.1509 -0.3911
  969MOL0     C33630   5.828  11.450   2.690  0.2632  0.1072  0.2264
  969MOL0     C33631   5.692  11.492   2.693 -0.2503  0.0543 -0.1514
  969MOL0     O33632   5.383  11.406   2.629  0.3528 -0.3042 -0.1979
  969MOL0     C33633   5.241  11.668   2.837 -0.1798 -0.0363 -0.0945
  969MOL0     C33634   5.128  11.744   2.858 -0.1195  0.2652 -0.1320
  969MOL0     N33635   4.306  11.716   3.146  0.6847  0.3327  0.2542
  969MOL0     N33636   4.197  11.763   3.104  0.4767 -0.3178  0.6244
  969MOL0     C33637   3.060  11.480   2.784 -0.0580 -0.2706 -0.1621
  969MOL0     C33638   2.929  11.472   2.728  0.3535  0.1224 -0.5558
  969MOL0     C33639   2.575  11.281   2.570  0.2612  0.1715  0.5287
  969MOL0     C33640   2.486  11.393   2.550  0.2637 -0.7971 -0.3218
  969MOL0     C33641   2.351  11.381   2.565 -0.7727  0.2320  0.2068
  969MOL0     C33642   2.289  11.261   2.580 -0.7005  1.0268  0.0611
  969MOL0     O33643   2.155  11.242   2.595  0.3097 -0.2319 -0.0777
  969MOL0     C33644   2.081  11.353   2.641  0.2110 -0.1351 -0.7473
  969MOL0     C33645   1.935  11.302   2.648  1.0359  0.9282 -0.1568
  969MOL0     C33646   1.921  11.154   2.696 -0.4908  0.3257  0.1428
  969MOL0     C33647   1.780  11.130   2.747  0.2589 -0.2757  0.4763
  969MOL0     C33648   1.765  10.986   2.772  0.1927  1.2453 -0.2532
  969MOL0     C33649   1.755  10.869   2.806  1.1107 -0.3209 -0.2844
  969MOL0     C33650   2.373  11.148   2.601  0.1545 -0.1305  0.5004
  969MOL0     C33651   2.514  11.151   2.597 -0.3555  0.7964 -0.3066
  969MOL0     C33652   2.575  11.014   2.627 -0.3635  1.2695  0.4996
  969MOL0     H33653   3.020  11.380   2.424  1.3362 -0.3945  0.9394
  969MOL0     H33654   3.223  11.390   2.499 -0.6127  2.0485 -1.0087
  969MOL0     H33655   3.284  11.364   2.908  0.5186 -0.4080 -0.8457
  969MOL0     H33656   3.298  11.535   2.953  0.6882 -0.2661  0.1989
  969MOL0     H33657   3.494  11.429   3.020  1.0491 -0.2169  0.0992
  969MOL0     H33658   3.518  11.350   2.869 -0.5360  0.6412 -2.9108
  969MOL0     H33659   3.577  11.567   2.755  1.7226 -1.5369 -0.5525
  969MOL0     H33660   3.490  11.652   2.879 -1.8974 -2.2184  4.2272
  969MOL0     H33661   3.687  11.645   3.030  2.4441  0.5793  0.9194
  969MOL0     H33662   3.757  11.506   2.951  0.4776  1.3576  0.9931
  969MOL0     H33663   3.723  11.792   2.834 -1.7311 -0.1460  2.0583
  969MOL0     H33664   3.792  11.654   2.747  0.7197 -1.8721  0.4961
  969MOL0     H33665   3.898  11.788   3.000 -0.0316 -1.9594  1.0452
  969MOL0     H33666   3.954  11.631   2.937  0.0487 -0.8919  0.1874
  969MOL0     H33667   3.975  11.842   2.735  3.5163  1.6589 -0.3574
  969MOL0     H33668   4.078  11.700   2.772  1.5158  0.0387  2.1655
  969MOL0     H33669   4.189  11.921   2.829  2.3776 -2.0007  0.1975
  969MOL0     H33670   4.060  11.944   2.951  0.0317 -0.4782 -0.7812
  969MOL0     H33671   4.347  11.726   2.815 -1.1750 -1.4997 -1.4384
  969MOL0     H33672   4.537  11.557   2.999 -2.7954  0.1724 -0.9317
  969MOL0     H33673   4.556  11.649   3.148 -0.5942 -0.8514  0.3468
  969MOL0     H33674   4.623  11.726   2.865 -0.8036 -1.8983  0.7081
  969MOL0     H33675   4.586  11.851   2.989 -2.7259 -0.4170  0.9800
  969MOL0     H33676   4.769  11.754   3.133  0.6517 -2.3243  0.2274
  969MOL0     H33677   4.804  11.635   3.023 -1.1408 -0.1417  0.3866
  969MOL0     H33678   4.825  11.933   2.955 -1.4878 -0.1244  0.6841
  969MOL0     H33679   4.957  11.835   3.021 -0.5835 -0.7516  0.6161
  969MOL0     H33680   4.910  11.581   2.670 -0.7400  0.3754 -0.7030
  969MOL0     H33681   4.986  11.359   2.624  0.0527  1.8158  1.4883
  969MOL0     H33682   5.145  11.300   2.666 -0.2915  0.3788  0.3831
  969MOL0     H33683   5.130  11.394   2.525 -0.1361  0.2289 -0.6374
  969MOL0     H33684   5.571  11.335   2.965 -0.6464  0.3819 -0.4851
  969MOL0     H33685   5.810  11.237   2.950  1.5793  0.2737 -1.4084
  969MOL0     H33686   6.097  11.344   2.615  1.5805 -0.6680 -0.9712
  969MOL0     H33687   6.104  11.463   2.745 -2.1033 -0.3353  1.9084
  969MOL0     H33688   6.317  11.379   2.756 -0.8727  0.2893 -0.1826
  969MOL0     H33689   6.235  11.295   2.881  1.5208  0.3680 -0.2791
  969MOL0     H33690   6.294  11.178   2.608  2.9989  0.4249  0.6078
  969MOL0     H33691   6.209  11.100   2.737 -0.7475  1.1461 -0.7085
  969MOL0     H33692   6.417  11.028   2.791 -3.2165 -0.4091  0.9166
  969MOL0     H33693   6.434  11.184   2.882  2.9175  1.5182 -0.4913
  969MOL0     H33694   6.573  11.096   2.633  0.6415  0.2181  0.7862
  969MOL0     H33695   6.502  11.266   2.628 -2.3427 -0.2809  1.7612
  969MOL0     H33696   6.670  11.156   2.846 -3.0924 -1.8341 -1.4161
  969MOL0     H33697   6.613  11.329   2.836 -1.4883 -0.0437 -0.4104
  969MOL0     H33698   6.733  11.366   2.623 -0.7809  1.3093  0.1412
  969MOL0     H33699   6.801  11.209   2.629  1.3237  1.8156 -1.5554
  969MOL0     H33700   6.830  11.440   2.817 -1.9035  0.3941 -1.1549
  969MOL0     H33701   6.953  11.392   2.695 -1.0516  2.7049 -0.2368
  969MOL0     H33702   5.895  11.485   2.612 -0.4349  0.7267 -0.1013
  969MOL0     H33703   5.654  11.565   2.623  1.7251  1.7080  0.4024
  969MOL0     H33704   5.330  11.694   2.893  1.1426  1.8407 -2.8610
  969MOL0     H33705   5.142  11.833   2.919  2.4535  0.4087 -0.8358
  969MOL0     H33706   3.083  11.515   2.884  1.9497  3.1662 -1.6434
  969MOL0     H33707   2.839  11.498   2.783  0.8053  1.7561 -0.5372
  969MOL0     H33708   2.522  11.492   2.525  1.8715 -0.6620  2.1768
  969MOL0     H33709   2.293  11.471   2.544 -0.2743  0.0977 -1.9663
  969MOL0     H33710   2.117  11.387   2.738  1.3777 -2.6421 -0.2228
  969MOL0     H33711   2.087  11.439   2.573  0.4492  1.2012  0.8785
  969MOL0     H33712   1.901  11.311   2.544  2.7484  3.7447 -0.5618
  969MOL0     H33713   1.875  11.363   2.716  2.1011  0.0254  1.6390
  969MOL0     H33714   1.938  11.090   2.609 -1.2311  1.5176 -0.9209
  969MOL0     H33715   1.999  11.137   2.770  1.2961  2.1096 -1.2026
  969MOL0     H33716   1.705  11.161   2.673 -0.4495 -1.1793  0.7887
  969MOL0     H33717   1.768  11.183   2.842  1.7437 -1.6438  1.4999
  969MOL0     H33718   1.759  10.768   2.841 -2.0331  0.1498  1.8146
  969MOL0     H33719   2.328  11.051   2.623  0.8393 -0.3769  0.8526
  969MOL0     H33720   2.526  10.933   2.573  0.3379  1.4488 -0.4470
  969MOL0     H33721   2.684  11.003   2.617 -0.2805  2.7641 -0.7560
  969MOL0     H33722   2.544  10.991   2.729 -0.0992 -1.7497 -0.0036
  970MOL0     O33723   1.401   4.381   1.433 -0.7692 -0.2801 -0.1305
  970MOL0     C33724   1.300   4.372   1.358 -0.5785 -0.0836 -0.2056
  970MOL0     O33725   1.302   4.397   1.232 -0.3158 -0.2793 -0.0538
  970MOL0     C33726   1.417   4.428   1.167 -0.2611 -0.2248 -0.0297
  970MOL0     C33727   1.434   4.370   1.047  0.1675  0.0662  0.2075
  970MOL0     C33728   1.544   4.386   0.963 -0.3666  0.0653 -0.8835
  970MOL0     C33729   1.639   4.475   0.999  0.1084  0.0477  0.3407
  970MOL0     O33730   1.730   4.498   0.901 -0.0507 -0.2331  0.3945
  970MOL0     C33731   1.831   4.573   0.953  0.5147  0.0262  0.6021
  970MOL0     C33732   1.954   4.555   0.860 -0.0348 -0.1301 -0.0780
  970MOL0     C33733   1.931   4.558   0.711  0.4468  0.1382 -0.1729
  970MOL0     C33734   2.056   4.521   0.643 -0.4223  0.3168  0.1952
  970MOL0     C33735   2.058   4.542   0.489 -0.6356 -0.7273 -0.1402
  970MOL0     C33736   2.197   4.576   0.438  0.7399 -0.7151 -0.1970
  970MOL0     C33737   2.281   4.452   0.417  0.5316  0.4295  0.3438
  970MOL0     C33738   2.426   4.479   0.441 -0.3839 -0.2338 -0.4139
  970MOL0     N33739   2.467   4.487   0.583 -0.2087  0.0364 -0.6997
  970MOL0     C33740   2.472   4.607   0.650 -0.3866  0.3508 -0.6708
  970MOL0     C33741   2.536   4.575   0.764  0.0081 -0.5930 -0.2336
  970MOL0     C33742   2.556   4.662   0.880 -0.1102  0.0692 -0.0917
  970MOL0     C33743   2.609   4.801   0.845  0.5318  0.2017 -0.4543
  970MOL0     C33744   2.731   4.809   0.748 -0.0199 -0.9644  0.2219
  970MOL0     C33745   2.849   4.722   0.785 -0.6997 -0.2103 -0.4130
  970MOL0     O33746   2.857   4.709   0.929 -0.1308  0.4086  0.0728
  970MOL0     C33747   2.906   4.806   1.001  0.2567  0.3478 -0.6000
  970MOL0     C33748   2.939   4.770   1.131 -0.0691 -0.2838  0.0373
  970MOL0     C33749   2.973   4.868   1.231 -0.0185 -0.6980 -0.3782
  970MOL0     C33750   2.963   4.822   1.377 -0.2916  0.5191 -0.1687
  970MOL0     C33751   2.989   5.004   1.186  0.1860  0.4762 -0.0914
  970MOL0     C33752   3.052   5.111   1.272 -0.1213  0.2315  0.3221
  970MOL0     O33753   3.052   5.241   1.216 -0.0635  0.4739  0.0734
  970MOL0     C33754   3.127   5.322   1.292 -0.4202 -0.0782  0.1210
  970MOL0     C33755   3.058   5.412   1.380  0.2869  0.0263  0.2624
  970MOL0     C33756   3.133   5.504   1.464  0.0448 -0.5764  0.2538
  970MOL0     C33757   3.274   5.501   1.454  0.8772 -0.1838 -0.2117
  970MOL0     O33758   3.347   5.598   1.516  0.1441 -0.5027 -0.7505
  970MOL0     C33759   3.462   5.557   1.583 -0.3385  0.5502  0.1307
  970MOL0     C33760   3.593   5.593   1.519 -0.5231  0.5883 -0.4706
  970MOL0     C33761   3.637   5.742   1.523 -0.0842 -0.7975  0.4881
  970MOL0     C33762   3.774   5.786   1.472 -0.0046  0.8290  0.2671
  970MOL0     C33763   3.804   5.938   1.456  0.2729 -0.5214 -0.2948
  970MOL0     C33764   3.919   5.966   1.357  0.0546 -0.2152  0.4539
  970MOL0     C33765   4.049   5.899   1.398 -0.3843  0.2694 -0.6708
  970MOL0     C33766   4.172   5.969   1.335 -0.0147 -0.0548  0.0176
  970MOL0    Cl33767   4.325   5.909   1.379  0.1564 -0.5196  0.1359
  970MOL0     C33768   3.340   5.416   1.364  0.1066  0.6561  0.4288
  970MOL0     C33769   3.262   5.321   1.284 -0.6062  0.6541  0.4579
  970MOL0     O33770   3.114   5.075   1.375 -0.0945  0.3842  0.5024
  970MOL0     C33771   2.972   5.034   1.052  0.4080  0.9505  0.4204
  970MOL0     C33772   2.927   4.934   0.964  0.0739 -0.1547  0.1095
  970MOL0     N33773   2.583   4.447   0.762  0.1431 -0.3730  0.4821
  970MOL0     N33774   2.522   4.394   0.661 -0.2385 -0.2501 -0.7037
  970MOL0     C33775   1.626   4.543   1.128 -0.3895  0.4956  0.5316
  970MOL0     C33776   1.514   4.522   1.202  0.4863  0.2655 -0.2257
  970MOL0     C33777   1.165   4.345   1.425 -0.1490  0.7949  0.3122
  970MOL0     C33778   1.054   4.384   1.351  0.4666 -0.1075 -0.4807
  970MOL0     C33779   0.923   4.379   1.395 -0.0140  0.3717 -0.9371
  970MOL0     C33780   0.898   4.329   1.525 -0.2026 -1.1155  0.3028
  970MOL0     O33781   0.778   4.314   1.573  0.2614  0.3490  1.0034
  970MOL0     C33782   0.666   4.299   1.491  0.6000  0.2097  0.6411
  970MOL0     C33783   0.549   4.267   1.593  0.1552 -0.6494 -0.1303
  970MOL0     C33784   0.564   4.125   1.650 -0.9274 -0.1316  0.2464
  970MOL0     C33785   0.471   4.020   1.587  0.4273  0.5548  0.0160
  970MOL0     C33786   0.333   4.043   1.628  0.0175  0.3899  0.8478
  970MOL0     C33787   0.219   4.063   1.651  0.6627 -0.1106 -0.0521
  970MOL0     C33788   1.006   4.283   1.596 -0.4858 -0.0743 -0.3245
  970MOL0     C33789   1.133   4.289   1.548  0.6095 -0.3120 -0.3343
  970MOL0     C33790   1.242   4.254   1.648 -0.0307 -1.2690  0.6458
  970MOL0     H33791   1.354   4.308   1.006  0.6015 -0.1654 -0.3103
  970MOL0     H33792   1.536   4.340   0.864  2.3263 -2.7095  0.0436
  970MOL0     H33793   1.855   4.542   1.055 -2.0466  0.6380  1.4496
  970MOL0     H33794   1.804   4.679   0.942 -2.5751 -0.8003 -0.7742
  970MOL0     H33795   2.025   4.635   0.884  1.2146 -1.3044  0.2838
  970MOL0     H33796   2.004   4.462   0.889  0.8341 -0.8475 -3.4423
  970MOL0     H33797   1.858   4.483   0.678  3.9681 -1.5555 -5.2938
  970MOL0     H33798   1.895   4.655   0.675  2.1006  1.6713  2.0085
  970MOL0     H33799   2.137   4.579   0.687  1.5823 -2.3033  0.2094
  970MOL0     H33800   2.085   4.417   0.664  0.9527  0.1217 -2.3377
  970MOL0     H33801   1.996   4.632   0.483  1.7681  0.9911 -0.5888
  970MOL0     H33802   2.018   4.461   0.427 -1.5581  1.0382 -2.0143
  970MOL0     H33803   2.184   4.632   0.344  0.0096 -0.2466  0.1808
  970MOL0     H33804   2.245   4.642   0.511 -1.9200 -0.2041  1.2211
  970MOL0     H33805   2.283   4.414   0.314  0.3682 -0.8932  0.8114
  970MOL0     H33806   2.249   4.367   0.478  1.9194  1.1687  2.1726
  970MOL0     H33807   2.483   4.398   0.395 -0.4493 -0.5695  0.0931
  970MOL0     H33808   2.464   4.569   0.390 -3.3961  1.6924  0.4289
  970MOL0     H33809   2.425   4.701   0.625 -1.2616 -0.2010 -1.1330
  970MOL0     H33810   2.619   4.605   0.949  2.9960  2.8823 -0.3664
  970MOL0     H33811   2.457   4.678   0.924  1.2032  0.0649  3.1206
  970MOL0     H33812   2.534   4.856   0.787  0.6669 -0.7613 -1.5879
  970MOL0     H33813   2.619   4.855   0.940 -1.9026 -1.6965  0.9874
  970MOL0     H33814   2.703   4.789   0.644 -0.2993  0.9076 -0.0924
  970MOL0     H33815   2.752   4.916   0.754 -0.4631 -0.7919 -1.0463
  970MOL0     H33816   2.824   4.622   0.746 -2.6681 -0.7240  1.8983
  970MOL0     H33817   2.938   4.756   0.732 -1.5765  2.0002 -0.5547
  970MOL0     H33818   2.925   4.664   1.154 -3.4873 -0.0150 -0.2402
  970MOL0     H33819   3.052   4.851   1.434 -0.3978  1.3826 -0.4214
  970MOL0     H33820   2.961   4.713   1.384  2.0758  0.4318 -0.0486
  970MOL0     H33821   2.879   4.871   1.428  0.3999  1.6127 -0.0353
  970MOL0     H33822   2.950   5.420   1.383  0.2390 -0.3415 -0.4648
  970MOL0     H33823   3.090   5.564   1.543 -0.3951 -1.2199  0.5094
  970MOL0     H33824   3.459   5.599   1.684  0.7704 -0.1911  0.4852
  970MOL0     H33825   3.454   5.449   1.600 -0.9438  0.3427 -1.3233
  970MOL0     H33826   3.669   5.539   1.576 -1.1220  0.4761  0.2351
  970MOL0     H33827   3.597   5.560   1.415  3.0164  0.1301 -0.2982
  970MOL0     H33828   3.641   5.778   1.627  0.1970  1.7127 -0.3260
  970MOL0     H33829   3.563   5.804   1.471 -0.3910 -0.9358  0.7575
  970MOL0     H33830   3.784   5.744   1.372 -0.7765  1.5305 -0.1169
  970MOL0     H33831   3.862   5.739   1.516  0.4615  0.7435 -0.7268
  970MOL0     H33832   3.725   6.005   1.420  0.6064 -0.0446 -0.1473
  970MOL0     H33833   3.818   5.980   1.556 -1.8203  0.3399 -0.3005
  970MOL0     H33834   3.932   6.074   1.360  0.6123 -0.2939  2.5010
  970MOL0     H33835   3.891   5.937   1.256 -2.6029  3.3478 -0.0072
  970MOL0     H33836   4.058   5.799   1.354  2.1305  0.3349 -0.4386
  970MOL0     H33837   4.063   5.894   1.506  2.6541 -2.5954 -1.0365
  970MOL0     H33838   4.185   6.073   1.368  2.0270  0.9143 -3.3254
  970MOL0     H33839   4.161   5.970   1.226  1.4893 -0.6345 -0.1669
  970MOL0     H33840   3.446   5.424   1.342 -0.6675  5.0198 -3.1853
  970MOL0     H33841   3.309   5.249   1.218  1.9946  2.2896  0.3482
  970MOL0     H33842   2.999   5.130   1.011  2.0771 -0.1091 -1.1377
  970MOL0     H33843   2.937   4.967   0.861  1.0531  2.2974  0.9110
  970MOL0     H33844   1.692   4.619   1.169 -2.3004  2.0910  0.7674
  970MOL0     H33845   1.496   4.589   1.285  0.2997  1.6388 -1.3287
  970MOL0     H33846   1.063   4.440   1.259  1.6227  0.5239 -0.0029
  970MOL0     H33847   0.839   4.395   1.329 -1.6808  0.7236  1.1512
  970MOL0     H33848   0.642   4.392   1.439  0.3994 -0.1279  0.1294
  970MOL0     H33849   0.674   4.218   1.418  0.1205 -0.7520  1.6173
  970MOL0     H33850   0.454   4.266   1.538  0.4945 -1.8626 -0.7378
  970MOL0     H33851   0.547   4.349   1.665  1.9931  1.4435 -2.2884
  970MOL0     H33852   0.666   4.087   1.638 -0.0591  1.0991  3.0928
  970MOL0     H33853   0.556   4.115   1.758  2.5541 -2.8862  0.4445
  970MOL0     H33854   0.508   3.920   1.612  5.3019  2.7974  3.4986
  970MOL0     H33855   0.474   4.041   1.480 -1.7169  1.1548  0.0087
  970MOL0     H33856   0.118   4.090   1.674  0.7914 -1.3099  2.1592
  970MOL0     H33857   0.988   4.246   1.696 -1.1529 -1.7652 -1.0443
  970MOL0     H33858   1.303   4.176   1.602 -0.9518 -1.1562 -0.8402
  970MOL0     H33859   1.305   4.341   1.666 -4.9029  2.3653  2.4009
  970MOL0     H33860   1.201   4.234   1.747 -0.7379  0.0017  0.6255
  971MOL0     O33861   4.742  10.980   2.618 -0.4281  0.3719 -0.6943
  971MOL0     C33862   4.690  10.894   2.548 -0.1687 -0.1367 -0.4056
  971MOL0     O33863   4.562  10.848   2.556  0.3619  0.7820 -0.1917
  971MOL0     C33864   4.486  10.900   2.654  0.0561  0.0823  0.4294
  971MOL0     C33865   4.375  10.992   2.621 -0.1527  0.2966  0.2765
  971MOL0     C33866   4.291  11.028   2.723  0.0905  0.2987  0.7284
  971MOL0     C33867   4.319  10.991   2.851  0.5870  0.2484 -0.3857
  971MOL0     O33868   4.229  11.033   2.943 -0.6411 -0.0864 -0.2472
  971MOL0     C33869   4.237  10.982   3.077 -0.6149 -0.0381 -0.3506
  971MOL0     C33870   4.115  10.996   3.165 -0.4650  0.3487  0.6089
  971MOL0     C33871   4.116  10.899   3.286 -0.4781  0.8534  0.1501
  971MOL0     C33872   3.993  10.922   3.359 -0.4838  1.3014 -0.4507
  971MOL0     C33873   3.947  10.805   3.445  0.3146 -0.2091  0.3413
  971MOL0     C33874   4.038  10.772   3.567  0.1653  0.2697 -0.7110
  971MOL0     C33875   4.000  10.636   3.642  0.4617  0.9317 -0.1915
  971MOL0     C33876   4.079  10.589   3.753 -0.1674 -0.3698  0.0954
  971MOL0     N33877   4.222  10.595   3.706 -0.2704 -0.1489 -0.6025
  971MOL0     C33878   4.285  10.502   3.622  0.2708  0.5773 -0.3105
  971MOL0     C33879   4.408  10.549   3.612 -0.0329 -0.1212 -0.2913
  971MOL0     C33880   4.512  10.472   3.549  0.2570 -0.0201 -1.1963
  971MOL0     C33881   4.648  10.535   3.547  0.8802 -0.6473 -0.0353
  971MOL0     C33882   4.745  10.452   3.464 -0.3969 -0.1148 -0.6560
  971MOL0     C33883   4.880  10.517   3.476  0.6088  0.2928 -0.2883
  971MOL0     O33884   4.934  10.477   3.603 -0.4573 -0.7058 -0.9942
  971MOL0     C33885   5.053  10.547   3.638 -0.2003  0.3393  0.4516
  971MOL0     C33886   5.113  10.516   3.754  0.2301  1.2212 -0.7767
  971MOL0     C33887   5.237  10.583   3.798  0.4703 -0.2067  0.1019
  971MOL0     C33888   5.270  10.567   3.949  0.2803  0.7020 -0.5818
  971MOL0     C33889   5.305  10.668   3.703  0.5246 -0.6022  0.9709
  971MOL0     C33890   5.445  10.727   3.727 -0.0777  0.3064 -0.5114
  971MOL0     O33891   5.496  10.803   3.614  0.6846 -0.9091 -0.0239
  971MOL0     C33892   5.625  10.765   3.568  0.4141  0.9582  0.1783
  971MOL0     C33893   5.683  10.644   3.592 -0.6996  0.1767  0.3248
  971MOL0     C33894   5.811  10.620   3.540  0.2280 -0.7732  0.9200
  971MOL0     C33895   5.877  10.713   3.463 -0.2466 -0.7835  1.3758
  971MOL0     O33896   6.005  10.688   3.425  0.5505  0.3211  0.2093
  971MOL0     C33897   6.031  10.595   3.315  0.0521 -0.0390 -0.3470
  971MOL0     C33898   6.162  10.507   3.331  0.2437 -0.3619 -0.1454
  971MOL0     C33899   6.286  10.600   3.344  0.3029 -0.5429 -0.3315
  971MOL0     C33900   6.411  10.517   3.328 -0.1944  0.0748  0.1675
  971MOL0     C33901   6.527  10.606   3.290  0.3621 -0.7185  0.0542
  971MOL0     C33902   6.658  10.522   3.282 -0.8293 -0.3867 -0.1072
  971MOL0     C33903   6.667  10.447   3.156  0.4303 -0.0405  0.1797
  971MOL0     C33904   6.795  10.367   3.148  0.4715  0.0348  0.3430
  971MOL0    Cl33905   6.802  10.274   2.997  0.1165 -0.2273 -0.1116
  971MOL0     C33906   5.812  10.834   3.429  0.6868  0.9530  0.8676
  971MOL0     C33907   5.685  10.850   3.476  0.9770 -0.1193 -0.0480
  971MOL0     O33908   5.509  10.710   3.833 -0.5444  0.1902  0.5970
  971MOL0     C33909   5.243  10.687   3.580  0.5227  0.0082 -0.0383
  971MOL0     C33910   5.123  10.638   3.551  0.5781  0.6948  0.1417
  971MOL0     N33911   4.424  10.666   3.695 -0.0558 -0.0453 -0.0795
  971MOL0     N33912   4.313  10.692   3.750  0.0925 -0.7379 -0.2402
  971MOL0     C33913   4.429  10.905   2.888  0.4880  0.1944  0.5239
  971MOL0     C33914   4.507  10.858   2.784 -0.0417  0.0237  0.2721
  971MOL0     C33915   4.775  10.846   2.439  0.4778 -0.0514  0.4752
  971MOL0     C33916   4.703  10.800   2.326 -0.0694  0.5367 -0.0702
  971MOL0     C33917   4.773  10.749   2.217 -0.0370 -0.2535  0.1612
  971MOL0     C33918   4.911  10.745   2.215 -0.0683  0.2905 -0.1976
  971MOL0     O33919   4.967  10.691   2.102 -0.2616 -0.3370  0.1777
  971MOL0     C33920   5.108  10.686   2.086 -0.6249 -0.5014  0.7217
  971MOL0     C33921   5.149  10.634   1.938  0.0382  0.0524 -0.7787
  971MOL0     C33922   5.298  10.614   1.921 -0.5998  0.0656 -0.4263
  971MOL0     C33923   5.339  10.761   1.894  0.1700  0.5329  0.6345
  971MOL0     C33924   5.478  10.751   1.843 -0.1519  0.3676 -0.1328
  971MOL0     C33925   5.585  10.722   1.794  0.8043  0.3749  0.0659
  971MOL0     C33926   4.987  10.780   2.332  0.2053  0.6297  0.1499
  971MOL0     C33927   4.917  10.835   2.441  0.3392  1.0828  0.8854
  971MOL0     C33928   5.012  10.865   2.564  0.3558  1.4584 -0.1930
  971MOL0     H33929   4.362  11.022   2.517  1.4800 -1.6304 -0.5370
  971MOL0     H33930   4.194  11.074   2.711 -0.1938 -0.8149 -1.8208
  971MOL0     H33931   4.326  11.021   3.126  1.0528 -3.1831 -0.5965
  971MOL0     H33932   4.248  10.873   3.068  0.3767  0.0807 -0.6493
  971MOL0     H33933   4.111  11.100   3.200 -0.4650  1.0497 -1.3458
  971MOL0     H33934   4.026  10.994   3.101  1.2428 -0.3412 -1.8929
  971MOL0     H33935   4.124  10.794   3.253  0.0807  1.5787 -2.2272
  971MOL0     H33936   4.198  10.921   3.355 -1.4129  1.1947  1.1662
  971MOL0     H33937   4.004  11.011   3.422 -0.0296  0.1259  1.2051
  971MOL0     H33938   3.906  10.936   3.294 -1.2072 -0.2773  0.1230
  971MOL0     H33939   3.944  10.716   3.382  0.5273 -0.4096  0.6072
  971MOL0     H33940   3.849  10.838   3.482  1.1738  4.8130 -1.1209
  971MOL0     H33941   4.142  10.775   3.535  0.4022 -2.0826 -0.3594
  971MOL0     H33942   4.018  10.847   3.644 -1.3716 -1.1776  0.3836
  971MOL0     H33943   3.997  10.555   3.569 -2.0213 -1.0504  1.9217
  971MOL0     H33944   3.902  10.644   3.690  0.1329 -3.2596  0.2134
  971MOL0     H33945   4.077  10.654   3.841  1.8339 -0.3965  0.2175
  971MOL0     H33946   4.052  10.486   3.777  0.2292  0.0310  2.5595
  971MOL0     H33947   4.235  10.414   3.584 -0.9479 -0.9708  4.1581
  971MOL0     H33948   4.478  10.450   3.447 -0.6248 -3.7937 -0.2465
  971MOL0     H33949   4.517  10.374   3.598 -2.6533  0.0972 -0.5027
  971MOL0     H33950   4.646  10.638   3.510  0.1047 -0.8734 -0.6495
  971MOL0     H33951   4.679  10.539   3.652 -1.5918 -1.1503  0.7839
  971MOL0     H33952   4.745  10.355   3.514  0.3643  1.1109  1.9355
  971MOL0     H33953   4.716  10.439   3.360 -0.3586  1.6867 -0.9256
  971MOL0     H33954   4.948  10.487   3.396 -0.8905 -0.0871 -1.4776
  971MOL0     H33955   4.870  10.625   3.463  0.2523  0.0258 -2.9709
  971MOL0     H33956   5.053  10.447   3.812  1.4233  1.2487  0.5238
  971MOL0     H33957   5.353  10.635   3.969  0.9961  0.9930 -3.9008
  971MOL0     H33958   5.300  10.465   3.975  0.1108  0.9986  0.8592
  971MOL0     H33959   5.175  10.594   3.997 -0.8228 -0.2130 -2.1207
  971MOL0     H33960   5.640  10.560   3.647  0.3861 -0.2661  0.5293
  971MOL0     H33961   5.858  10.524   3.557  1.7990 -0.5472 -1.5758
  971MOL0     H33962   5.947  10.525   3.308  3.1504 -4.4620  2.1450
  971MOL0     H33963   6.039  10.651   3.221 -1.9887 -0.3735 -0.7628
  971MOL0     H33964   6.139  10.447   3.420 -0.3964  1.0195  0.6600
  971MOL0     H33965   6.170  10.439   3.247 -4.0279  1.3353 -2.2147
  971MOL0     H33966   6.288  10.650   3.441 -1.8498  0.1338 -0.5650
  971MOL0     H33967   6.291  10.676   3.265 -0.7079 -0.3598 -0.2331
  971MOL0     H33968   6.385  10.443   3.252 -1.6988  0.0149  0.7112
  971MOL0     H33969   6.430  10.466   3.423 -0.3429 -0.2230  0.0369
  971MOL0     H33970   6.507  10.661   3.198 -1.5962 -0.3358  0.6645
  971MOL0     H33971   6.534  10.674   3.376 -1.6676  0.2764 -0.5062
  971MOL0     H33972   6.663  10.450   3.364  0.8923  1.6240  1.6910
  971MOL0     H33973   6.746  10.588   3.279 -0.6187 -0.7068 -1.9308
  971MOL0     H33974   6.658  10.518   3.074  1.3387 -2.2299 -1.9556
  971MOL0     H33975   6.579  10.383   3.149  0.2773  0.1155  0.6475
  971MOL0     H33976   6.798  10.292   3.227  1.5075 -1.6886 -1.2530
  971MOL0     H33977   6.879  10.437   3.151  0.2287  0.4053 -0.7732
  971MOL0     H33978   5.857  10.914   3.372  1.6215  2.1380  3.1456
  971MOL0     H33979   5.631  10.941   3.449  0.8122  0.0373  0.7813
  971MOL0     H33980   5.281  10.762   3.511 -1.2129  0.3880 -0.6346
  971MOL0     H33981   5.079  10.673   3.458 -1.8988  0.1963  1.0398
  971MOL0     H33982   4.450  10.875   2.990  0.8124 -0.1298  0.3634
  971MOL0     H33983   4.580  10.781   2.807  0.8491  1.1301  1.2371
  971MOL0     H33984   4.595  10.793   2.323 -0.0435 -0.6847  1.3640
  971MOL0     H33985   4.713  10.712   2.134  0.6778  1.4027 -1.1571
  971MOL0     H33986   5.149  10.785   2.111 -1.2643  0.7610 -2.6691
  971MOL0     H33987   5.146  10.608   2.152 -4.0384 -3.2789 -0.2835
  971MOL0     H33988   5.108  10.687   1.852  1.5468  0.0449 -1.5213
  971MOL0     H33989   5.104  10.534   1.941  0.8031 -0.3118 -1.2832
  971MOL0     H33990   5.342  10.579   2.015 -0.2129 -0.9479 -0.9720
  971MOL0     H33991   5.323  10.550   1.836  1.6423  2.0869 -1.3969
  971MOL0     H33992   5.337  10.822   1.985  1.0543  0.3999  0.7560
  971MOL0     H33993   5.281  10.806   1.812  0.1413 -0.5196  0.0627
  971MOL0     H33994   5.667  10.691   1.733  1.3372 -1.2341  1.5164
  971MOL0     H33995   5.095  10.770   2.326  0.0665 -0.3843 -1.0061
  971MOL0     H33996   4.979  10.824   2.660  0.5422  1.1617 -0.2525
  971MOL0     H33997   5.107  10.813   2.548 -1.0135 -0.5395 -2.5734
  971MOL0     H33998   5.013  10.974   2.576 -0.8687  1.5135 -0.4735
  972MOL0     O33999   2.056   8.256   1.277 -0.3549 -0.2426 -0.1163
  972MOL0     C34000   2.006   8.153   1.330 -0.2915  0.1635  0.6816
  972MOL0     O34001   2.078   8.036   1.362 -0.3885  0.3649  0.1523
  972MOL0     C34002   2.214   8.027   1.362  0.3466 -0.5443 -0.5642
  972MOL0     C34003   2.303   8.076   1.268 -0.1268  1.0745  0.2146
  972MOL0     C34004   2.438   8.062   1.274  0.1725  0.0977 -0.7568
  972MOL0     C34005   2.489   7.973   1.367 -0.5177 -0.3769 -0.2071
  972MOL0     O34006   2.619   7.949   1.358 -0.3962 -0.3694 -0.3230
  972MOL0     C34007   2.679   7.856   1.447 -0.0477  0.2013 -0.7207
  972MOL0     C34008   2.821   7.876   1.430  0.1064 -0.6465 -0.7916
  972MOL0     C34009   2.913   7.774   1.502 -0.0997  0.1279  0.4531
  972MOL0     C34010   3.059   7.821   1.479  0.3923 -0.1207 -0.8875
  972MOL0     C34011   3.153   7.712   1.529 -0.2618  0.6558 -0.6408
  972MOL0     C34012   3.293   7.748   1.500 -1.0640 -0.0368  0.1790
  972MOL0     C34013   3.391   7.627   1.513  0.8374 -0.5952 -0.0846
  972MOL0     C34014   3.524   7.655   1.440  0.0268 -0.6811  0.5055
  972MOL0     N34015   3.593   7.770   1.500  0.0577 -0.0357 -0.2244
  972MOL0     C34016   3.583   7.900   1.447 -0.4733 -0.8955 -0.8018
  972MOL0     C34017   3.641   7.978   1.537  0.0710 -0.3683 -0.2316
  972MOL0     C34018   3.669   8.126   1.530  0.1801  0.4871  0.4211
  972MOL0     C34019   3.818   8.155   1.520 -0.7287  0.4778 -0.3502
  972MOL0     C34020   3.878   8.087   1.392  0.6531  0.0399  0.2909
  972MOL0     C34021   4.018   8.121   1.364 -0.3515  0.2075 -0.5809
  972MOL0     O34022   4.044   8.259   1.334 -0.2196  0.2285 -0.1866
  972MOL0     C34023   4.169   8.296   1.357  0.1309 -0.0922  0.2613
  972MOL0     C34024   4.256   8.308   1.256 -0.3713 -0.3178  0.4489
  972MOL0     C34025   4.393   8.342   1.268 -0.0651 -0.3128  0.2057
  972MOL0     C34026   4.473   8.341   1.134 -0.3416  0.4231 -1.0627
  972MOL0     C34027   4.438   8.359   1.397 -0.2473  0.5372 -0.4836
  972MOL0     C34028   4.583   8.397   1.428 -1.2598 -0.5439 -1.0530
  972MOL0     O34029   4.632   8.387   1.556  0.5182 -0.0664 -0.3650
  972MOL0     C34030   4.769   8.409   1.589 -0.8246  0.8278  0.1741
  972MOL0     C34031   4.883   8.369   1.521 -0.4066 -0.0278 -0.3870
  972MOL0     C34032   5.016   8.376   1.571  0.6622  0.3095 -0.3672
  972MOL0     C34033   5.035   8.431   1.695 -0.9035  0.3241 -0.1654
  972MOL0     O34034   5.171   8.443   1.729 -0.1132 -0.0923  0.0444
  972MOL0     C34035   5.214   8.549   1.825 -0.6236  0.4588  0.3699
  972MOL0     C34036   5.348   8.589   1.764 -0.8859  0.9586 -0.1341
  972MOL0     C34037   5.462   8.492   1.799  0.5239 -0.6509 -0.1032
  972MOL0     C34038   5.599   8.532   1.739 -0.1638 -0.1499 -0.3721
  972MOL0     C34039   5.699   8.415   1.754 -0.3170 -0.8873  0.2220
  972MOL0     C34040   5.839   8.470   1.710  0.5077 -0.2536 -0.1676
  972MOL0     C34041   5.954   8.366   1.704  0.5987  0.5294  0.6154
  972MOL0     C34042   5.994   8.320   1.838  0.4576  0.0657  0.4394
  972MOL0    Cl34043   6.124   8.209   1.827 -0.0032 -0.1654  0.3551
  972MOL0     C34044   4.928   8.480   1.767 -0.3482  0.0897 -0.4099
  972MOL0     C34045   4.799   8.476   1.710  0.4397  0.4683  0.4319
  972MOL0     O34046   4.648   8.447   1.337 -0.5180 -0.8880 -0.5613
  972MOL0     C34047   4.344   8.359   1.503  0.7733 -0.5043 -0.1013
  972MOL0     C34048   4.210   8.324   1.485 -0.5998  0.3677 -0.3262
  972MOL0     N34049   3.679   7.898   1.645 -0.0565 -0.4518 -0.6136
  972MOL0     N34050   3.645   7.777   1.627 -0.5887  0.1814 -0.3177
  972MOL0     C34051   2.406   7.911   1.461  0.0777 -0.2343 -0.3550
  972MOL0     C34052   2.269   7.944   1.456 -0.2398 -0.5165  0.8037
  972MOL0     C34053   1.858   8.154   1.348 -0.0140  0.5742 -0.8419
  972MOL0     C34054   1.785   8.038   1.367  0.1634 -0.0695 -0.1319
  972MOL0     C34055   1.647   8.024   1.380 -0.0168 -0.3666 -0.5048
  972MOL0     C34056   1.578   8.141   1.371 -0.3085 -0.2963 -0.1150
  972MOL0     O34057   1.440   8.121   1.367  0.4984 -0.0900 -0.3026
  972MOL0     C34058   1.351   8.239   1.355 -0.4630 -0.1751  0.0934
  972MOL0     C34059   1.206   8.213   1.387  0.6084 -0.0742 -0.5544
  972MOL0     C34060   1.191   8.196   1.540  0.5242  0.3667 -0.0482
  972MOL0     C34061   1.042   8.194   1.579 -0.3854 -0.2951 -0.2518
  972MOL0     C34062   0.975   8.080   1.519  0.5840  0.5654  1.3007
  972MOL0     C34063   0.923   7.997   1.446 -0.0911  0.2840 -0.0399
  972MOL0     C34064   1.647   8.263   1.368  0.2853 -0.1930  0.3146
  972MOL0     C34065   1.779   8.272   1.353 -0.9179 -0.2750 -0.2717
  972MOL0     C34066   1.836   8.414   1.341 -0.0448  0.1164  0.6055
  972MOL0     H34067   2.265   8.137   1.187  0.4821  3.0661  1.3529
  972MOL0     H34068   2.512   8.110   1.210  3.0660 -1.8115  0.9433
  972MOL0     H34069   2.648   7.756   1.415 -1.8022 -0.2904  2.1918
  972MOL0     H34070   2.650   7.873   1.551  2.5141 -1.4930  0.4023
  972MOL0     H34071   2.836   7.861   1.323 -1.5332  1.1854 -1.3374
  972MOL0     H34072   2.850   7.977   1.459 -0.1929 -0.3245 -1.5753
  972MOL0     H34073   2.890   7.756   1.607 -1.2681 -1.7824 -0.0726
  972MOL0     H34074   2.895   7.680   1.449  1.7549  0.5888 -1.1195
  972MOL0     H34075   3.084   7.839   1.374 -0.0403  0.2248 -0.9362
  972MOL0     H34076   3.070   7.915   1.535  1.5887  1.7988 -4.0836
  972MOL0     H34077   3.135   7.612   1.487  2.5127 -1.1044  1.9099
  972MOL0     H34078   3.140   7.700   1.637 -0.2110  0.3803 -0.6640
  972MOL0     H34079   3.298   7.794   1.401 -3.5302 -0.4578 -0.2168
  972MOL0     H34080   3.313   7.819   1.580 -2.0802 -0.6523  1.0103
  972MOL0     H34081   3.348   7.528   1.496 -1.1066 -0.2111  2.0449
  972MOL0     H34082   3.414   7.622   1.620 -2.4378 -1.2920  0.7106
  972MOL0     H34083   3.598   7.575   1.438  0.1959 -0.5118 -0.3818
  972MOL0     H34084   3.501   7.657   1.333 -0.3034 -0.7853  0.5722
  972MOL0     H34085   3.548   7.935   1.351  0.9670  1.9408 -0.4078
  972MOL0     H34086   3.630   8.170   1.622 -0.8288  0.2413  0.1171
  972MOL0     H34087   3.611   8.173   1.450 -1.5738  0.0749  1.4029
  972MOL0     H34088   3.815   8.264   1.509 -1.0310  0.4366 -0.6781
  972MOL0     H34089   3.872   8.125   1.611  1.0462  1.3286 -1.0735
  972MOL0     H34090   3.871   7.978   1.398 -2.0063  0.1511  0.0461
  972MOL0     H34091   3.818   8.118   1.307 -1.6225  0.9602  2.1189
  972MOL0     H34092   4.073   8.082   1.450  0.1053 -0.9438 -1.3717
  972MOL0     H34093   4.046   8.068   1.273  0.7534 -0.1618 -0.0475
  972MOL0     H34094   4.215   8.290   1.157 -0.5954  1.0357  0.2735
  972MOL0     H34095   4.502   8.437   1.090  0.2407 -0.7914 -3.5547
  972MOL0     H34096   4.413   8.299   1.052 -1.3256  1.0647 -0.6933
  972MOL0     H34097   4.551   8.266   1.147 -1.2655 -0.0803  2.7443
  972MOL0     H34098   4.872   8.334   1.419 -0.4078  1.1043 -0.7878
  972MOL0     H34099   5.101   8.352   1.508  0.2185 -1.1787 -0.4401
  972MOL0     H34100   5.147   8.636   1.826 -0.3158  0.7004  0.1734
  972MOL0     H34101   5.229   8.505   1.924 -0.7331 -2.2727 -0.7330
  972MOL0     H34102   5.346   8.610   1.657  1.4039 -0.7845 -0.6022
  972MOL0     H34103   5.381   8.675   1.823 -1.3149 -1.0286  3.3280
  972MOL0     H34104   5.427   8.397   1.755 -0.5188 -2.6534  4.4724
  972MOL0     H34105   5.470   8.474   1.906 -0.7851  1.3232  0.3768
  972MOL0     H34106   5.626   8.614   1.806 -1.4648 -0.0409  0.0395
  972MOL0     H34107   5.595   8.567   1.635  0.5226 -3.0121 -1.4726
  972MOL0     H34108   5.704   8.381   1.858  1.5293  2.2502  1.3102
  972MOL0     H34109   5.664   8.333   1.692 -1.5303 -2.2773  2.6055
  972MOL0     H34110   5.879   8.536   1.787  3.4175 -0.7148 -1.1723
  972MOL0     H34111   5.824   8.520   1.614 -2.4501  1.0288  0.8391
  972MOL0     H34112   6.042   8.415   1.660  1.4278 -0.4163  1.1736
  972MOL0     H34113   5.932   8.280   1.639 -1.8338 -1.0029  3.2543
  972MOL0     H34114   5.919   8.260   1.892  0.1450 -0.5153 -0.5955
  972MOL0     H34115   6.013   8.408   1.899  0.7413  1.5519 -1.6899
  972MOL0     H34116   4.941   8.517   1.868 -1.8632 -0.0613 -0.1436
  972MOL0     H34117   4.715   8.505   1.771 -2.2106 -1.0912 -2.2436
  972MOL0     H34118   4.372   8.381   1.606 -0.8742  2.0232 -0.1092
  972MOL0     H34119   4.139   8.309   1.567 -1.0983 -0.0211 -0.8181
  972MOL0     H34120   2.435   7.838   1.536  2.3180  0.0498 -0.8816
  972MOL0     H34121   2.196   7.904   1.526 -0.5678 -0.6534  0.3883
  972MOL0     H34122   1.834   7.941   1.368 -4.3736 -2.6584  2.4597
  972MOL0     H34123   1.602   7.926   1.386 -0.9159 -0.1255 -2.5521
  972MOL0     H34124   1.388   8.312   1.427  5.0974 -2.3974 -0.0030
  972MOL0     H34125   1.351   8.269   1.250  3.2042 -2.8206 -0.8782
  972MOL0     H34126   1.153   8.127   1.345 -2.0523  1.5552 -0.7767
  972MOL0     H34127   1.148   8.299   1.352 -0.2400 -0.5593 -0.3435
  972MOL0     H34128   1.237   8.098   1.555 -0.1064 -0.3781 -2.5098
  972MOL0     H34129   1.245   8.276   1.592  3.0020 -2.7314  2.5780
  972MOL0     H34130   1.008   8.294   1.550  1.4771  1.2620  2.4668
  972MOL0     H34131   1.028   8.181   1.687  0.4102  1.2622  0.0645
  972MOL0     H34132   0.880   7.929   1.376 -0.2895 -1.8356  2.0502
  972MOL0     H34133   1.590   8.355   1.375  2.4490  1.2539  0.0445
  972MOL0     H34134   1.773   8.483   1.396 -0.6043 -0.6267  0.9087
  972MOL0     H34135   1.935   8.422   1.387  0.9265  0.4632 -1.4050
  972MOL0     H34136   1.829   8.449   1.237  0.2791  2.3514  1.2827
  973MOL0     O34137   6.082   7.155   4.129  0.1020 -0.0988  0.3831
  973MOL0     C34138   6.027   7.236   4.205  0.3928 -0.3094  0.1685
  973MOL0     O34139   6.089   7.323   4.293  0.0020  0.3539  0.9552
  973MOL0     C34140   6.219   7.304   4.326  0.1091  0.5581  0.7267
  973MOL0     C34141   6.298   7.185   4.333 -0.6236  0.0616 -0.7141
  973MOL0     C34142   6.437   7.188   4.347 -0.7420 -0.3955 -0.3172
  973MOL0     C34143   6.504   7.313   4.360 -0.3172 -0.6127 -0.8178
  973MOL0     O34144   6.643   7.329   4.369 -0.2497  0.3517 -0.5122
  973MOL0     C34145   6.719   7.246   4.276 -0.0993  0.5236 -0.2106
  973MOL0     C34146   6.801   7.130   4.336 -0.0861  0.6593  0.3599
  973MOL0     C34147   6.916   7.085   4.256  0.2086  0.3450  0.5467
  973MOL0     C34148   7.030   7.194   4.249 -0.5477  0.0838  0.6148
  973MOL0     C34149   7.151   7.140   4.179  0.6063  0.3297  0.5562
  973MOL0     C34150   7.267   7.238   4.187  0.7863 -0.1045 -0.0390
  973MOL0     C34151   7.384   7.200   4.094  0.2045  0.1584 -0.1992
  973MOL0     C34152   7.510   7.274   4.148  0.3350  0.2219  0.1757
  973MOL0     N34153   7.598   7.286   4.037 -0.9316  0.7177 -0.6131
  973MOL0     C34154   7.625   7.197   3.938  0.8195 -0.0259 -0.4747
  973MOL0     C34155   7.717   7.252   3.854 -0.4237  0.2680 -0.0108
  973MOL0     C34156   7.778   7.207   3.715  0.8512  0.4898  0.0928
  973MOL0     C34157   7.921   7.245   3.694 -0.0728 -0.3336 -0.1968
  973MOL0     C34158   7.974   7.194   3.561  0.4970  0.9751  0.2586
  973MOL0     C34159   8.115   7.233   3.545 -0.2155 -0.7830  0.1799
  973MOL0     O34160   8.205   7.139   3.610  0.1742  0.0599  0.2699
  973MOL0     C34161   8.341   7.157   3.573  0.2208 -0.0650  0.5899
  973MOL0     C34162   8.393   7.253   3.483  0.5959 -0.0743  0.3110
  973MOL0     C34163   8.526   7.267   3.462  0.1969 -0.2918 -0.4465
  973MOL0     C34164   8.570   7.385   3.375  0.8021 -0.0772 -0.1145
  973MOL0     C34165   8.620   7.196   3.538 -0.3625  0.7205  0.0144
  973MOL0     C34166   8.767   7.215   3.523 -0.8630 -0.8293 -0.0588
  973MOL0     O34167   8.845   7.179   3.632  0.0784  0.1162 -0.0900
  973MOL0     C34168   8.978   7.167   3.621  0.3482  0.1964 -0.1265
  973MOL0     C34169   9.045   7.072   3.552  0.3907 -0.5549  0.5885
  973MOL0     C34170   9.186   7.082   3.535  0.3117  0.4972  0.0560
  973MOL0     C34171   9.260   7.175   3.602  0.1339  0.1923 -0.2034
  973MOL0     O34172   9.397   7.167   3.598 -0.4247 -0.0413 -0.8594
  973MOL0     C34173   9.455   7.164   3.730 -0.0086 -0.8976  0.0822
  973MOL0     C34174   9.583   7.078   3.725 -1.0635  0.3912  0.3139
  973MOL0     C34175   9.693   7.135   3.637  0.0681  0.7367  0.4290
  973MOL0     C34176   9.821   7.050   3.627 -0.2028  1.0269 -1.1077
  973MOL0     C34177   9.946   7.105   3.569  0.4301  0.0680  0.3793
  973MOL0     C34178  10.050   6.990   3.558  1.0334 -0.2352  0.6825
  973MOL0     C34179  10.181   7.049   3.500 -0.2288  0.4543  0.6378
  973MOL0     C34180  10.305   6.962   3.517  0.5208 -0.3296  0.0524
  973MOL0    Cl34181  10.364   6.956   3.686  0.2826 -0.0099 -0.2994
  973MOL0     C34182   9.188   7.271   3.679  0.1670 -0.6972  0.0579
  973MOL0     C34183   9.049   7.264   3.685  0.0025  0.6161 -0.3486
  973MOL0     O34184   8.815   7.261   3.419  0.1709 -0.5764  0.4298
  973MOL0     C34185   8.571   7.097   3.634  0.0551 -0.1894  0.3459
  973MOL0     C34186   8.430   7.081   3.656 -1.5122  0.2427  0.4727
  973MOL0     N34187   7.747   7.380   3.910 -0.7863  0.2574  0.9817
  973MOL0     N34188   7.672   7.399   4.011  0.1414  0.9930  0.0314
  973MOL0     C34189   6.424   7.432   4.359 -0.2497 -0.0530  0.5970
  973MOL0     C34190   6.289   7.425   4.340  0.3036  0.6536  1.1557
  973MOL0     C34191   5.878   7.234   4.209  0.6107 -0.2172 -0.1193
  973MOL0     C34192   5.815   7.328   4.298 -0.2362  0.1120  0.8019
  973MOL0     C34193   5.675   7.341   4.307  0.0768 -0.4610 -0.1397
  973MOL0     C34194   5.594   7.264   4.225  0.2529  0.3684 -0.4490
  973MOL0     O34195   5.463   7.297   4.248 -0.2170 -0.2874  0.0352
  973MOL0     C34196   5.393   7.309   4.125 -0.7943  0.3247  0.1938
  973MOL0     C34197   5.245   7.341   4.144 -0.7922 -0.3509 -0.0911
  973MOL0     C34198   5.235   7.466   4.230 -0.4383  0.0043 -0.2997
  973MOL0     C34199   5.129   7.445   4.334  1.0659  0.3505 -0.1725
  973MOL0     C34200   4.996   7.420   4.280 -0.3207 -1.0713 -0.7408
  973MOL0     C34201   4.893   7.400   4.223  0.8243 -0.2438  1.1061
  973MOL0     C34202   5.652   7.172   4.142 -0.2409 -0.8088  0.3390
  973MOL0     C34203   5.792   7.155   4.132  0.0917 -0.6073  0.4452
  973MOL0     C34204   5.834   7.059   4.023  0.7731  1.0788  0.2067
  973MOL0     H34205   6.250   7.089   4.317 -1.7821  0.9735 -3.3468
  973MOL0     H34206   6.488   7.093   4.362  1.8859  0.6830 -1.8267
  973MOL0     H34207   6.782   7.323   4.230 -2.1095  2.2487 -0.1832
  973MOL0     H34208   6.654   7.201   4.200  0.2385 -0.3874  0.0205
  973MOL0     H34209   6.827   7.163   4.437 -1.8431 -0.7628  1.3369
  973MOL0     H34210   6.732   7.047   4.353  0.9174 -0.8348 -2.2626
  973MOL0     H34211   6.958   6.992   4.294  1.0058 -0.6116 -2.3884
  973MOL0     H34212   6.879   7.066   4.155  3.1571 -1.3160 -0.3506
  973MOL0     H34213   6.997   7.280   4.190  1.3730 -0.9437 -2.1090
  973MOL0     H34214   7.057   7.227   4.350  0.7602  0.2887  0.2128
  973MOL0     H34215   7.123   7.122   4.074 -0.6303 -0.7601  1.0492
  973MOL0     H34216   7.179   7.040   4.215  0.6694  0.4357  0.8021
  973MOL0     H34217   7.234   7.341   4.172  0.0454 -0.3741 -0.3429
  973MOL0     H34218   7.297   7.224   4.292  0.0747  0.6502  0.2765
  973MOL0     H34219   7.364   7.227   3.990 -0.2217 -0.8873 -0.4006
  973MOL0     H34220   7.412   7.094   4.091 -4.0924 -1.1703 -1.2726
  973MOL0     H34221   7.500   7.373   4.194  3.1806  0.7787 -0.1614
  973MOL0     H34222   7.562   7.213   4.222  0.6283 -1.1695 -1.1261
  973MOL0     H34223   7.573   7.101   3.945  1.2739 -0.1488  2.7321
  973MOL0     H34224   7.722   7.272   3.647 -2.0768 -0.7800  1.1064
  973MOL0     H34225   7.762   7.100   3.699  0.2166  0.5094  0.5443
  973MOL0     H34226   7.932   7.353   3.703  2.7059 -0.6416  1.2632
  973MOL0     H34227   7.982   7.200   3.773 -1.2552 -0.5094  0.6322
  973MOL0     H34228   7.957   7.086   3.557  0.2228  0.8785  2.6247
  973MOL0     H34229   7.911   7.233   3.481 -0.2405 -3.8063 -1.8491
  973MOL0     H34230   8.137   7.224   3.438 -3.3643  0.1974 -0.6487
  973MOL0     H34231   8.140   7.336   3.572  2.1803 -0.6827 -2.0942
  973MOL0     H34232   8.323   7.304   3.418  2.1853  1.2588 -0.4435
  973MOL0     H34233   8.633   7.439   3.446  1.0757 -0.8681  0.2608
  973MOL0     H34234   8.482   7.446   3.351  0.8739  0.4358  0.8977
  973MOL0     H34235   8.621   7.352   3.284 -0.6619 -0.2938 -0.8949
  973MOL0     H34236   8.984   6.991   3.514 -3.0002  0.2628  3.7042
  973MOL0     H34237   9.230   7.003   3.474 -1.4587  0.2844 -1.0084
  973MOL0     H34238   9.458   7.261   3.781 -3.4932 -1.3647  1.4846
  973MOL0     H34239   9.392   7.099   3.791  1.5560 -1.3584  1.2641
  973MOL0     H34240   9.620   7.067   3.828 -0.3089  2.0830  0.2575
  973MOL0     H34241   9.549   6.983   3.684 -2.4569  0.1796  1.8233
  973MOL0     H34242   9.724   7.228   3.686  0.4925  1.0708 -0.4534
  973MOL0     H34243   9.647   7.144   3.538  0.7452 -2.3067 -0.2714
  973MOL0     H34244   9.793   6.966   3.562 -0.1789  0.8908 -0.9420
  973MOL0     H34245   9.842   7.016   3.728  1.3250 -1.8573 -2.2808
  973MOL0     H34246   9.929   7.137   3.465 -2.9439  0.5060  0.9527
  973MOL0     H34247   9.991   7.183   3.632  0.1450  0.2890  0.3154
  973MOL0     H34248  10.014   6.912   3.491  0.0326 -1.2949  2.3690
  973MOL0     H34249  10.078   6.949   3.656  4.2125  1.2927  0.5152
  973MOL0     H34250  10.216   7.139   3.551  0.4082 -0.5070  1.9573
  973MOL0     H34251  10.166   7.073   3.394  1.0020 -1.7614 -0.1026
  973MOL0     H34252  10.383   7.005   3.454 -1.6733  2.3575 -1.0111
  973MOL0     H34253  10.290   6.862   3.475 -2.7779  0.9533 -2.2491
  973MOL0     H34254   9.246   7.342   3.736  1.4785 -2.8308  1.4912
  973MOL0     H34255   9.004   7.340   3.747  0.6353 -0.9811  2.1990
  973MOL0     H34256   8.636   7.020   3.674  1.2925  0.0359 -1.1537
  973MOL0     H34257   8.404   7.019   3.741  1.5829 -1.2999  0.4422
  973MOL0     H34258   6.464   7.533   4.370  0.6017  0.3041 -3.9169
  973MOL0     H34259   6.235   7.519   4.339 -0.0669  0.4415  0.3635
  973MOL0     H34260   5.862   7.395   4.369  1.3293  0.1195 -0.1977
  973MOL0     H34261   5.623   7.407   4.375 -0.2100 -1.4341  0.6104
  973MOL0     H34262   5.432   7.390   4.063 -1.3343  1.0914  0.8427
  973MOL0     H34263   5.401   7.217   4.067 -2.1594  1.8596 -2.5835
  973MOL0     H34264   5.208   7.249   4.190  3.5866 -2.1634  0.3852
  973MOL0     H34265   5.191   7.359   4.050  0.9590  1.3637 -0.8371
  973MOL0     H34266   5.328   7.502   4.275 -0.5249  3.2045 -2.4005
  973MOL0     H34267   5.208   7.555   4.173 -1.0196  1.6916  2.4412
  973MOL0     H34268   5.117   7.534   4.395 -2.1331 -0.0823  0.0046
  973MOL0     H34269   5.167   7.362   4.395  0.7926  1.1025  1.0356
  973MOL0     H34270   4.805   7.386   4.163  2.2232  0.4329 -1.2699
  973MOL0     H34271   5.590   7.101   4.089  1.7254 -2.2568 -0.1459
  973MOL0     H34272   5.753   6.992   3.992  0.0814  2.5139 -1.2304
  973MOL0     H34273   5.881   7.119   3.945  0.8107  0.2042 -0.4582
  973MOL0     H34274   5.902   6.985   4.067 -0.5250 -0.9196 -0.9988
  974MOL0     O34275   6.438   5.068   5.289  0.2841  0.0160  0.8111
  974MOL0     C34276   6.380   5.177   5.288  0.8181 -0.7939  0.3071
  974MOL0     O34277   6.440   5.296   5.300 -0.7242  0.3631 -0.1669
  974MOL0     C34278   6.575   5.295   5.334  0.0663  0.3454  0.6781
  974MOL0     C34279   6.675   5.295   5.231  1.0664  0.5226 -0.2396
  974MOL0     C34280   6.808   5.298   5.263  0.1786 -0.8211 -0.4644
  974MOL0     C34281   6.847   5.275   5.394 -0.0910  1.0576 -0.3219
  974MOL0     O34282   6.981   5.256   5.432 -0.0732  0.1440  0.6438
  974MOL0     C34283   7.086   5.298   5.345  0.1881 -0.6706 -0.8980
  974MOL0     C34284   7.225   5.298   5.415  0.1436 -0.4565 -0.1225
  974MOL0     C34285   7.298   5.161   5.406  0.3589  0.0217  0.4499
  974MOL0     C34286   7.423   5.173   5.499  0.1723 -0.4198  0.2485
  974MOL0     C34287   7.543   5.067   5.466 -0.1622 -0.1218  0.9497
  974MOL0     C34288   7.502   4.918   5.494 -0.3694 -0.3730 -0.4715
  974MOL0     C34289   7.606   4.813   5.461 -0.3662  0.0581  0.3767
  974MOL0     C34290   7.742   4.817   5.539  0.0464  0.6556 -0.2260
  974MOL0     N34291   7.847   4.726   5.485  0.1468  0.0222  0.1948
  974MOL0     C34292   7.863   4.590   5.504 -0.2681  0.2321 -0.9049
  974MOL0     C34293   7.987   4.566   5.455  0.4850 -0.1491 -0.1954
  974MOL0     C34294   8.042   4.422   5.443  0.1061 -0.2741 -0.5126
  974MOL0     C34295   8.087   4.377   5.583 -0.6548 -0.5781  0.3763
  974MOL0     C34296   8.177   4.254   5.573  0.3712  0.7222  0.2253
  974MOL0     C34297   8.207   4.208   5.714 -0.5187  0.2297  1.0158
  974MOL0     O34298   8.311   4.109   5.707  0.0141  0.3369  0.3719
  974MOL0     C34299   8.439   4.162   5.695 -0.3570  0.3601 -0.6028
  974MOL0     C34300   8.539   4.067   5.687 -0.5000  0.6723  0.0003
  974MOL0     C34301   8.680   4.108   5.689  0.1167 -0.1851  0.2639
  974MOL0     C34302   8.769   3.984   5.713  0.3665  0.0900  0.8377
  974MOL0     C34303   8.722   4.242   5.673  0.1802 -0.5145 -0.8715
  974MOL0     C34304   8.865   4.293   5.682 -0.0386 -0.1805  0.7554
  974MOL0     O34305   8.960   4.198   5.709 -0.1687 -0.4761  0.0336
  974MOL0     C34306   9.089   4.249   5.727  0.0081 -0.3244  0.0347
  974MOL0     C34307   9.131   4.231   5.853  0.7100  0.4290  0.4664
  974MOL0     C34308   9.257   4.267   5.893  0.8910  0.4481  0.4072
  974MOL0     C34309   9.338   4.341   5.800 -0.6056  0.8317  0.1243
  974MOL0     O34310   9.458   4.398   5.838  0.4993  0.7692 -0.1858
  974MOL0     C34311   9.564   4.310   5.887 -0.5395 -0.3509  0.5666
  974MOL0     C34312   9.689   4.381   5.925 -0.2973 -0.2795  0.4895
  974MOL0     C34313   9.761   4.452   5.804  0.2564  0.5782 -0.2011
  974MOL0     C34314   9.903   4.474   5.846  0.0801 -0.3907  0.1983
  974MOL0     C34315   9.912   4.591   5.942  0.0443  0.6128  0.3311
  974MOL0     C34316  10.067   4.607   5.974  0.9189 -0.8267 -0.4565
  974MOL0     C34317  10.085   4.732   6.052 -0.0130 -0.2954 -0.3463
  974MOL0     C34318  10.229   4.768   6.052 -1.5170 -0.5410  0.5442
  974MOL0    Cl34319  10.308   4.641   6.151 -0.3014  0.0575  0.2127
  974MOL0     C34320   9.294   4.369   5.672  0.0111 -1.2563 -0.0600
  974MOL0     C34321   9.166   4.328   5.635 -0.1830  0.5448 -0.5426
  974MOL0     O34322   8.887   4.410   5.649  0.3621 -0.6229  0.4564
  974MOL0     C34323   8.613   4.335   5.666 -0.1367 -0.4387 -0.6829
  974MOL0     C34324   8.485   4.292   5.686  0.0998 -0.5846 -0.8729
  974MOL0     N34325   8.044   4.685   5.408 -0.0260 -0.1734  0.7952
  974MOL0     N34326   7.960   4.776   5.431  0.1164  0.4424 -0.5190
  974MOL0     C34327   6.751   5.272   5.495 -0.0154 -0.5388  0.5581
  974MOL0     C34328   6.609   5.292   5.466 -0.8750 -0.5926  0.4261
  974MOL0     C34329   6.244   5.179   5.239 -0.1119 -0.3357 -0.5045
  974MOL0     C34330   6.180   5.302   5.215  0.3158 -0.4704 -1.0991
  974MOL0     C34331   6.048   5.313   5.161 -0.4419 -0.0195 -0.2730
  974MOL0     C34332   5.973   5.200   5.134  0.1666  0.4249 -0.7294
  974MOL0     O34333   5.843   5.219   5.094  0.2828  0.4885  0.3040
  974MOL0     C34334   5.779   5.105   5.042  0.3860 -0.9907 -0.0898
  974MOL0     C34335   5.822   5.092   4.895  0.5309 -0.2443  0.7898
  974MOL0     C34336   5.742   4.998   4.813 -0.4885  0.0190  0.5096
  974MOL0     C34337   5.585   4.999   4.842 -0.5689  0.4089  0.1958
  974MOL0     C34338   5.526   5.130   4.805 -0.1143  1.0188  0.9801
  974MOL0     C34339   5.468   5.230   4.773 -0.7007  0.0396 -0.2369
  974MOL0     C34340   6.043   5.079   5.151  0.2635  0.2378  0.0826
  974MOL0     C34341   6.173   5.063   5.198  0.7973  0.1874 -0.3261
  974MOL0     C34342   6.212   4.919   5.219 -0.3129  0.0614 -0.0914
  974MOL0     H34343   6.643   5.302   5.127  3.2206 -0.4035 -1.0158
  974MOL0     H34344   6.883   5.295   5.185  0.0952 -0.7412 -0.5488
  974MOL0     H34345   7.068   5.401   5.315  0.2992 -0.5585 -0.5902
  974MOL0     H34346   7.079   5.237   5.255  0.2379 -0.2408 -1.1953
  974MOL0     H34347   7.289   5.374   5.370  0.7073 -1.8930 -1.8781
  974MOL0     H34348   7.220   5.318   5.522  2.8598 -1.2737  0.2282
  974MOL0     H34349   7.230   5.081   5.435 -0.6447  0.9920  0.8468
  974MOL0     H34350   7.336   5.131   5.308 -0.0462  0.1841  0.2391
  974MOL0     H34351   7.461   5.275   5.503  0.2809 -0.4069 -0.9051
  974MOL0     H34352   7.397   5.150   5.603  0.7996 -2.5348 -0.0140
  974MOL0     H34353   7.632   5.089   5.526  1.8477 -1.7384 -1.2527
  974MOL0     H34354   7.567   5.078   5.360  1.2640  0.4973  1.3088
  974MOL0     H34355   7.482   4.906   5.601  1.2951  0.7692  0.0148
  974MOL0     H34356   7.407   4.892   5.446 -2.1492 -0.6060  2.8856
  974MOL0     H34357   7.620   4.820   5.353 -0.6497  0.3111  0.3551
  974MOL0     H34358   7.564   4.715   5.485 -0.6539 -0.0029 -0.3622
  974MOL0     H34359   7.776   4.920   5.529 -2.2327  1.3595 -1.5409
  974MOL0     H34360   7.723   4.796   5.645  1.8061  1.2821  0.2448
  974MOL0     H34361   7.792   4.512   5.529  0.6392 -0.1421  0.6007
  974MOL0     H34362   8.131   4.414   5.379  0.5293 -1.5716  0.2096
  974MOL0     H34363   7.966   4.351   5.409 -1.1217  1.5759 -1.9482
  974MOL0     H34364   8.152   4.454   5.626 -0.5219 -0.3676 -0.1938
  974MOL0     H34365   8.002   4.366   5.651 -1.2051 -0.5944 -0.3032
  974MOL0     H34366   8.119   4.185   5.512  0.7673  0.7687 -0.2098
  974MOL0     H34367   8.272   4.283   5.528  0.8986 -0.7612  0.3215
  974MOL0     H34368   8.234   4.296   5.773  2.6070 -0.2728  0.5482
  974MOL0     H34369   8.117   4.159   5.754 -0.5382  0.0042  0.7056
  974MOL0     H34370   8.511   3.963   5.677  1.0637  0.3391 -1.3752
  974MOL0     H34371   8.840   3.990   5.630 -0.3455  3.1705  0.3048
  974MOL0     H34372   8.717   3.888   5.715  0.9999 -0.3439 -1.3259
  974MOL0     H34373   8.821   3.984   5.809  1.9653 -1.6074  0.0231
  974MOL0     H34374   9.069   4.169   5.918  0.4029 -1.9405 -1.8833
  974MOL0     H34375   9.293   4.241   5.992 -1.7615  0.7986  1.5247
  974MOL0     H34376   9.525   4.243   5.964  0.9855  1.2459  2.8799
  974MOL0     H34377   9.597   4.243   5.808 -0.0276 -1.1481  1.4350
  974MOL0     H34378   9.659   4.453   6.002 -0.8833  0.2290 -0.1937
  974MOL0     H34379   9.761   4.307   5.961  0.1409 -0.5764 -0.9598
  974MOL0     H34380   9.704   4.541   5.776  0.1772  0.3200 -0.8712
  974MOL0     H34381   9.776   4.393   5.713  1.1142  1.4499 -0.6422
  974MOL0     H34382   9.959   4.513   5.760 -0.8901  1.4210  0.3371
  974MOL0     H34383   9.955   4.384   5.880  2.2986 -0.3465 -2.6394
  974MOL0     H34384   9.873   4.680   5.893  1.1790  1.5042  0.9895
  974MOL0     H34385   9.856   4.566   6.032 -0.6568  3.2412  0.6953
  974MOL0     H34386  10.133   4.606   5.887 -0.1734 -0.5949 -1.3093
  974MOL0     H34387  10.093   4.516   6.030  0.3163 -0.8083 -0.1331
  974MOL0     H34388  10.061   4.721   6.159 -1.1240  0.3494 -0.5152
  974MOL0     H34389  10.018   4.809   6.014 -2.7523 -0.3177  3.7597
  974MOL0     H34390  10.225   4.865   6.103 -1.6859  0.6884 -1.6786
  974MOL0     H34391  10.269   4.773   5.950 -0.8820  2.4909  0.8478
  974MOL0     H34392   9.342   4.439   5.604  0.9642 -1.4202  0.4299
  974MOL0     H34393   9.126   4.343   5.536 -2.3310  0.6784  0.3014
  974MOL0     H34394   8.639   4.440   5.662  1.8478 -0.8746 -0.6621
  974MOL0     H34395   8.425   4.381   5.700  1.8833  0.7046 -1.1249
  974MOL0     H34396   6.784   5.277   5.598  1.0501  0.1562  0.1999
  974MOL0     H34397   6.535   5.306   5.545  0.5002 -0.4033  1.7178
  974MOL0     H34398   6.235   5.393   5.236  0.0277 -0.4597 -0.3755
  974MOL0     H34399   6.008   5.412   5.142 -0.0731 -0.1369 -1.8441
  974MOL0     H34400   5.801   5.013   5.096  0.5422 -0.6248  0.4836
  974MOL0     H34401   5.671   5.118   5.049  0.4773 -0.4990  0.5780
  974MOL0     H34402   5.926   5.060   4.896  0.9933  1.1691  2.6060
  974MOL0     H34403   5.810   5.194   4.857 -0.1213 -0.6058 -0.0018
  974MOL0     H34404   5.756   5.012   4.705  1.4159  0.1779  0.7484
  974MOL0     H34405   5.787   4.901   4.834  1.8579  1.3520  2.0275
  974MOL0     H34406   5.562   4.977   4.946 -0.2390  1.7810  0.5727
  974MOL0     H34407   5.539   4.923   4.778 -2.4307  2.4250 -0.9880
  974MOL0     H34408   5.422   5.316   4.728  0.1374  0.4310 -0.3680
  974MOL0     H34409   6.000   4.984   5.120  1.7381 -0.5179  0.2349
  974MOL0     H34410   6.125   4.854   5.231 -1.1937  1.2884  0.3512
  974MOL0     H34411   6.267   4.883   5.131  0.0910 -0.1126  0.2266
  974MOL0     H34412   6.262   4.904   5.315  0.1949 -2.7770 -0.7258
  975MOL0     O34413   7.193   8.115  11.252  0.0597 -0.8468 -0.2434
  975MOL0     C34414   7.175   8.225  11.306 -0.9238  0.0242  0.2835
  975MOL0     O34415   7.260   8.323  11.301 -0.1525 -0.2893  0.3348
  975MOL0     C34416   7.386   8.289  11.263 -0.0175 -0.0200 -0.5468
  975MOL0     C34417   7.443   8.314  11.142  0.2043 -0.3869  0.0048
  975MOL0     C34418   7.577   8.290  11.129 -0.4594 -0.1023  0.6481
  975MOL0     C34419   7.659   8.226  11.222 -1.3298 -0.4821  0.1791
  975MOL0     O34420   7.796   8.229  11.210 -0.0223 -0.0165  0.7309
  975MOL0     C34421   7.886   8.250  11.311  0.1113 -0.0573 -0.5559
  975MOL0     C34422   8.012   8.320  11.267  0.6146  0.1587  0.7086
  975MOL0     C34423   8.081   8.233  11.153  0.2645 -0.1390 -0.4359
  975MOL0     C34424   8.125   8.085  11.189 -0.5722 -0.4098  0.9486
  975MOL0     C34425   8.230   8.021  11.093 -0.1918 -0.1033 -0.6165
  975MOL0     C34426   8.365   8.098  11.086 -0.6369 -0.0930  0.4996
  975MOL0     C34427   8.489   8.019  11.050 -0.8418 -0.8709 -0.0314
  975MOL0     C34428   8.610   8.112  11.031  0.8873  0.9686 -0.5148
  975MOL0     N34429   8.735   8.035  11.010 -0.1871  0.6273  0.3749
  975MOL0     C34430   8.766   7.924  11.081 -0.1603  0.4243  0.3572
  975MOL0     C34431   8.879   7.874  11.019  0.3679  0.1795  0.1907
  975MOL0     C34432   8.929   7.735  11.062  0.2734 -0.6583 -0.6398
  975MOL0     C34433   8.842   7.614  11.021 -0.1780 -0.3761  0.5707
  975MOL0     C34434   8.927   7.484  11.047  0.5752  0.2376 -0.8205
  975MOL0     C34435   8.865   7.353  10.991  0.2758 -0.3514 -0.2288
  975MOL0     O34436   8.775   7.310  11.096 -0.1780  0.0448  0.7397
  975MOL0     C34437   8.668   7.237  11.046 -0.8967 -0.5216 -0.1557
  975MOL0     C34438   8.681   7.129  10.957 -0.1220 -0.0384 -0.5355
  975MOL0     C34439   8.570   7.046  10.927  0.0311 -0.5327 -0.2607
  975MOL0     C34440   8.612   6.916  10.863 -0.9819 -0.3778  0.0587
  975MOL0     C34441   8.441   7.073  10.966  0.1231 -0.7859  0.6571
  975MOL0     C34442   8.325   6.999  10.924 -0.4066 -0.2568  0.3110
  975MOL0     O34443   8.209   7.005  11.008 -0.4110  0.2555 -0.0944
  975MOL0     C34444   8.091   6.969  10.962 -0.6228  0.4089 -0.4488
  975MOL0     C34445   8.037   6.839  10.980  1.0940  0.4018  0.1388
  975MOL0     C34446   7.907   6.797  10.944  0.4025  0.7002  0.1814
  975MOL0     C34447   7.818   6.890  10.888 -0.6048  0.0659  0.0136
  975MOL0     O34448   7.690   6.867  10.841 -0.2254  0.3097  0.6069
  975MOL0     C34449   7.654   6.733  10.833  0.2463 -0.8947  0.4153
  975MOL0     C34450   7.724   6.656  10.722 -0.3757 -0.1863 -0.1489
  975MOL0     C34451   7.702   6.502  10.732  1.1483  0.0269  0.8152
  975MOL0     C34452   7.696   6.438  10.600  0.6372  0.9773 -0.3989
  975MOL0     C34453   7.667   6.286  10.591 -0.7966  0.6974  0.7651
  975MOL0     C34454   7.553   6.228  10.675 -0.6220 -0.1924 -0.2535
  975MOL0     C34455   7.415   6.294  10.650 -0.2431  0.5883  0.0674
  975MOL0     C34456   7.306   6.202  10.701 -0.3367  0.4995 -0.4941
  975MOL0    Cl34457   7.324   6.126  10.864 -0.1111 -0.2043  0.3263
  975MOL0     C34458   7.872   7.017  10.858  0.6586  0.0628 -0.8603
  975MOL0     C34459   8.002   7.058  10.895  0.8103 -0.1783 -0.5085
  975MOL0     O34460   8.327   6.948  10.817  0.0067 -0.1354 -0.2991
  975MOL0     C34461   8.429   7.188  11.048 -0.0306 -0.5615  0.0681
  975MOL0     C34462   8.546   7.265  11.090  0.6701 -0.5318 -0.3100
  975MOL0     N34463   8.922   7.959  10.916  0.3450 -0.4423  0.7335
  975MOL0     N34464   8.827   8.045  10.909  0.1163  0.1006  0.0549
  975MOL0     C34465   7.593   8.187  11.340 -0.1635  0.4649 -0.2380
  975MOL0     C34466   7.460   8.220  11.364 -0.0892 -0.3647 -0.1662
  975MOL0     C34467   7.042   8.265  11.369 -1.0598  0.0971  0.6061
  975MOL0     C34468   7.030   8.387  11.437  0.1157 -0.0829 -0.2174
  975MOL0     C34469   6.910   8.429  11.490 -0.5720 -0.2138 -0.2529
  975MOL0     C34470   6.795   8.358  11.473 -0.4368 -0.6513 -0.6299
  975MOL0     O34471   6.670   8.423  11.506  0.0804  0.3213  0.7368
  975MOL0     C34472   6.544   8.375  11.441 -0.1520 -0.6571 -0.3368
  975MOL0     C34473   6.439   8.478  11.455  0.1650 -0.1839  0.0755
  975MOL0     C34474   6.312   8.446  11.366 -0.7355 -0.5417 -0.7417
  975MOL0     C34475   6.201   8.371  11.448 -0.0510 -0.2625  0.2149
  975MOL0     C34476   6.116   8.286  11.364 -0.2692 -0.9167  0.1807
  975MOL0     C34477   6.046   8.212  11.301  0.5939 -0.9141  0.0830
  975MOL0     C34478   6.801   8.223  11.416 -0.0875  0.4026  0.6592
  975MOL0     C34479   6.921   8.191  11.359  1.1576  0.8820 -0.5539
  975MOL0     C34480   6.908   8.063  11.278  0.2153  0.2706  0.6034
  975MOL0     H34481   7.391   8.365  11.062  2.0346 -0.5433 -1.3577
  975MOL0     H34482   7.615   8.320  11.032 -1.1440 -1.2261  0.0144
  975MOL0     H34483   7.913   8.160  11.368  0.1871  0.5314  0.3692
  975MOL0     H34484   7.852   8.311  11.395 -0.1852  0.2070 -0.8647
  975MOL0     H34485   7.975   8.411  11.219  0.0937  0.0443  0.8864
  975MOL0     H34486   8.082   8.345  11.347  0.9978 -0.2497  0.5085
  975MOL0     H34487   8.023   8.233  11.061  1.5970  1.0366 -1.3257
  975MOL0     H34488   8.169   8.292  11.127  0.4852 -0.4487 -0.4009
  975MOL0     H34489   8.181   8.074  11.282  1.5806 -1.0802 -0.3475
  975MOL0     H34490   8.036   8.021  11.184 -2.7950  2.5453 -2.4794
  975MOL0     H34491   8.190   7.996  10.994 -0.8262 -0.3791 -0.2985
  975MOL0     H34492   8.248   7.922  11.137 -1.2277  0.1863  0.5238
  975MOL0     H34493   8.361   8.171  11.004 -4.0612 -1.5923 -0.8287
  975MOL0     H34494   8.386   8.139  11.185 -2.1104 -0.8459  1.1473
  975MOL0     H34495   8.466   7.967  10.956 -0.4163 -1.4995  0.2039
  975MOL0     H34496   8.518   7.946  11.125  0.0819 -1.8947 -1.3370
  975MOL0     H34497   8.590   8.186  10.952  0.4912  1.9434  0.4724
  975MOL0     H34498   8.633   8.176  11.117  1.9747  1.4592 -1.1481
  975MOL0     H34499   8.726   7.888  11.175 -1.1637 -2.4168 -1.0505
  975MOL0     H34500   8.948   7.729  11.170  2.6749  1.1726 -0.8682
  975MOL0     H34501   9.025   7.731  11.009 -0.1400  5.1988 -2.5340
  975MOL0     H34502   8.752   7.596  11.081  1.0157 -3.0304  1.7424
  975MOL0     H34503   8.828   7.607  10.913  3.8687 -0.6009 -0.1181
  975MOL0     H34504   9.017   7.505  10.989 -0.3509 -0.7690 -2.7023
  975MOL0     H34505   8.941   7.465  11.154  1.6068 -0.5160 -1.0741
  975MOL0     H34506   8.807   7.375  10.901  0.3975  0.8040 -0.0461
  975MOL0     H34507   8.946   7.283  10.969 -0.5524 -1.1052 -0.9314
  975MOL0     H34508   8.780   7.113  10.916  1.0829  0.9338  1.8278
  975MOL0     H34509   8.556   6.832  10.905 -2.7115  0.7427  0.0971
  975MOL0     H34510   8.717   6.894  10.883 -0.6368  0.3099 -0.9410
  975MOL0     H34511   8.585   6.927  10.758  2.0433  1.9719 -0.6135
  975MOL0     H34512   8.109   6.769  11.019 -0.3094 -0.6326  0.9440
  975MOL0     H34513   7.873   6.707  10.994  0.2074 -0.0820 -1.2836
  975MOL0     H34514   7.658   6.683  10.931  0.5204 -1.8199 -0.0543
  975MOL0     H34515   7.551   6.725  10.797  1.2018  0.1545 -2.9171
  975MOL0     H34516   7.704   6.704  10.625  1.8502 -0.6046 -0.8720
  975MOL0     H34517   7.833   6.671  10.716 -0.3907 -0.6426 -4.3146
  975MOL0     H34518   7.614   6.479  10.793  0.5528  0.3007  0.0625
  975MOL0     H34519   7.787   6.455  10.782  2.2946 -0.2546 -1.2883
  975MOL0     H34520   7.797   6.449  10.560  0.1487 -0.8218 -2.3766
  975MOL0     H34521   7.627   6.484  10.529 -1.6217 -3.0666 -1.1679
  975MOL0     H34522   7.640   6.275  10.485 -0.8819  0.8534  0.7696
  975MOL0     H34523   7.763   6.235  10.599 -0.3764  0.7468 -2.5091
  975MOL0     H34524   7.579   6.225  10.781 -2.1142 -3.4001  0.1263
  975MOL0     H34525   7.535   6.122  10.660 -1.0061 -0.5095  2.0739
  975MOL0     H34526   7.410   6.321  10.544  0.8070  1.8652  0.3175
  975MOL0     H34527   7.421   6.382  10.715  0.6911 -0.3719  1.3165
  975MOL0     H34528   7.289   6.124  10.627  0.2361 -1.9800  1.8064
  975MOL0     H34529   7.213   6.259  10.695 -1.3551 -1.2471 -2.9950
  975MOL0     H34530   7.810   7.083  10.799 -1.8460 -0.8052  0.6128
  975MOL0     H34531   8.033   7.158  10.865 -2.6510  0.8978 -0.9213
  975MOL0     H34532   8.335   7.222  11.090 -0.3621  0.9432 -1.7570
  975MOL0     H34533   8.533   7.345  11.162  1.2801  0.4377 -1.2507
  975MOL0     H34534   7.654   8.148  11.421 -1.5385  2.1854  1.7427
  975MOL0     H34535   7.420   8.188  11.460 -1.3528 -1.3414 -0.9871
  975MOL0     H34536   7.119   8.447  11.453  0.8471 -0.7839 -1.5201
  975MOL0     H34537   6.907   8.510  11.562  0.5259 -0.3818 -0.0015
  975MOL0     H34538   6.556   8.371  11.332 -1.4833  1.4735 -0.6139
  975MOL0     H34539   6.509   8.278  11.478  0.4194 -0.5118  0.6248
  975MOL0     H34540   6.476   8.571  11.411  0.9100 -0.2455  0.5471
  975MOL0     H34541   6.413   8.499  11.559 -0.2579 -1.0162  0.1518
  975MOL0     H34542   6.277   8.544  11.333  0.6917  0.0095 -0.6851
  975MOL0     H34543   6.340   8.386  11.279 -0.0054  1.7764 -2.1824
  975MOL0     H34544   6.139   8.443  11.502 -1.9276 -0.6124 -1.3772
  975MOL0     H34545   6.246   8.304  11.522 -0.5283 -0.3584  0.4226
  975MOL0     H34546   5.971   8.156  11.249 -0.6588 -0.2192  1.0897
  975MOL0     H34547   6.712   8.161  11.411  1.2637 -2.0536  3.4609
  975MOL0     H34548   6.922   8.081  11.171  0.7367  0.9264  0.7688
  975MOL0     H34549   6.981   7.996  11.323  0.0631 -0.1272  0.2558
  975MOL0     H34550   6.818   8.002  11.290  0.3013 -0.0313 -0.2443
  976MOL0     O34551   6.612   2.068   1.530  0.8064  0.2747 -0.1252
  976MOL0     C34552   6.537   2.160   1.508  0.0980 -0.9589  0.7492
  976MOL0     O34553   6.559   2.297   1.532 -0.4633 -0.6094 -0.2528
  976MOL0     C34554   6.671   2.333   1.601  0.4625 -0.2364 -1.0275
  976MOL0     C34555   6.794   2.383   1.550 -0.7423  0.0488  0.0606
  976MOL0     C34556   6.912   2.412   1.619  0.8877  0.6864  0.1170
  976MOL0     C34557   6.914   2.382   1.751 -0.5090  0.8855 -0.2597
  976MOL0     O34558   7.029   2.408   1.830 -0.2663  0.1786  0.1264
  976MOL0     C34559   7.094   2.304   1.902 -0.0535 -0.4587 -0.3288
  976MOL0     C34560   7.179   2.219   1.813  0.6052 -0.8323 -0.4153
  976MOL0     C34561   7.286   2.283   1.731  0.0849 -0.4621  0.2216
  976MOL0     C34562   7.360   2.180   1.646 -0.2664  0.0978  0.2883
  976MOL0     C34563   7.466   2.106   1.730  0.0017  0.1246 -0.3325
  976MOL0     C34564   7.533   2.001   1.645 -0.4960  0.2405  0.0111
  976MOL0     C34565   7.630   1.902   1.721 -0.2659  0.2642  0.6078
  976MOL0     C34566   7.766   1.979   1.772  0.3146  0.8355  0.3761
  976MOL0     N34567   7.858   1.886   1.847  0.1793  0.0311  0.6643
  976MOL0     C34568   7.913   1.772   1.784 -0.2367 -0.3060  0.3863
  976MOL0     C34569   8.023   1.747   1.856 -0.3259  0.2019  0.5563
  976MOL0     C34570   8.141   1.658   1.825  0.5011  0.4785 -0.6069
  976MOL0     C34571   8.109   1.509   1.871 -0.4821  0.2592  0.7697
  976MOL0     C34572   8.091   1.494   2.017  0.2685  0.2747 -0.5605
  976MOL0     C34573   8.221   1.506   2.100  0.4622  0.9318 -0.2341
  976MOL0     O34574   8.311   1.419   2.037  0.0087  0.0975 -0.5085
  976MOL0     C34575   8.444   1.445   2.054  0.5144  0.2455  0.4555
  976MOL0     C34576   8.502   1.534   2.147 -0.6549  0.1991 -0.2012
  976MOL0     C34577   8.644   1.553   2.151 -0.2101 -0.3630  0.3170
  976MOL0     C34578   8.700   1.655   2.246 -0.5594  0.1372  0.1767
  976MOL0     C34579   8.724   1.485   2.054  0.2929 -0.4265  0.7144
  976MOL0     C34580   8.875   1.499   2.049  0.4033  0.8224  0.9670
  976MOL0     O34581   8.938   1.461   1.932  0.4394  0.4632  0.8018
  976MOL0     C34582   9.077   1.490   1.936  0.3250 -0.4433  0.0143
  976MOL0     C34583   9.126   1.593   1.857  0.2873 -0.1832 -0.1785
  976MOL0     C34584   9.258   1.623   1.851  0.3653  0.7148  0.6908
  976MOL0     C34585   9.354   1.553   1.931  0.5579 -0.7104 -0.6866
  976MOL0     O34586   9.481   1.589   1.913 -0.4028  0.2302  0.0699
  976MOL0     C34587   9.583   1.543   1.998  0.2302  0.7563 -0.6144
  976MOL0     C34588   9.709   1.618   1.980 -0.3676  0.2301  0.9454
  976MOL0     C34589   9.761   1.618   1.830  0.3020  0.1831  0.1701
  976MOL0     C34590   9.914   1.650   1.802 -0.1219 -0.6947  0.2338
  976MOL0     C34591   9.962   1.791   1.861 -0.4448  0.1064 -0.1353
  976MOL0     C34592   9.876   1.909   1.816  0.0996 -0.9571  0.1720
  976MOL0     C34593   9.940   2.046   1.853  0.2973  0.2454 -0.3804
  976MOL0     C34594   9.837   2.153   1.806 -0.2422 -0.7421  1.0316
  976MOL0    Cl34595   9.740   2.208   1.953 -0.0772 -0.0799 -0.0307
  976MOL0     C34596   9.306   1.454   2.020  0.0479  0.7324 -0.4400
  976MOL0     C34597   9.177   1.418   2.017  1.0906 -0.4467 -0.9526
  976MOL0     O34598   8.939   1.537   2.148  0.1874 -0.0600 -0.3250
  976MOL0     C34599   8.670   1.403   1.956 -0.0985  0.1098 -0.0491
  976MOL0     C34600   8.533   1.385   1.957 -0.2810 -0.2183  0.3620
  976MOL0     N34601   8.029   1.834   1.965 -0.2550 -0.7701 -0.4053
  976MOL0     N34602   7.928   1.915   1.961 -0.2755  0.7991 -0.0166
  976MOL0     C34603   6.795   2.336   1.810  0.2714  0.5746  0.0381
  976MOL0     C34604   6.674   2.307   1.739 -0.2611 -0.5078 -0.5435
  976MOL0     C34605   6.401   2.131   1.448 -0.0417 -0.1650  0.1384
  976MOL0     C34606   6.315   2.241   1.434  0.2595 -0.6361 -0.3680
  976MOL0     C34607   6.191   2.225   1.368 -0.8542  0.4504 -0.1914
  976MOL0     C34608   6.139   2.097   1.329  0.0560 -0.5188  0.9487
  976MOL0     O34609   6.024   2.102   1.249 -0.5063 -0.1575  0.0216
  976MOL0     C34610   5.937   1.989   1.255 -0.3538 -0.2944  0.3201
  976MOL0     C34611   5.873   1.978   1.118  0.4359 -0.1437  0.1268
  976MOL0     C34612   5.792   2.103   1.096 -1.4377  0.2558  0.2646
  976MOL0     C34613   5.731   2.109   0.960 -0.5642  0.3966  0.0853
  976MOL0     C34614   5.640   1.991   0.934 -0.0022 -0.2231  0.7474
  976MOL0     C34615   5.567   1.897   0.904  0.0731 -0.1665 -0.3457
  976MOL0     C34616   6.220   1.985   1.362  0.2681 -1.3660  0.8784
  976MOL0     C34617   6.351   2.000   1.413 -0.3529 -0.3707  0.0427
  976MOL0     C34618   6.427   1.870   1.433  0.0177 -0.4952 -1.0406
  976MOL0     H34619   6.794   2.395   1.442 -0.6149 -1.6727 -0.1657
  976MOL0     H34620   6.998   2.444   1.560  3.1614  0.8456  3.2863
  976MOL0     H34621   7.025   2.240   1.957  0.2079 -1.9955 -1.7046
  976MOL0     H34622   7.156   2.348   1.980  0.4767 -2.0553  0.1881
  976MOL0     H34623   7.228   2.150   1.882  0.6886  0.7726  1.2219
  976MOL0     H34624   7.108   2.174   1.744  1.3642 -0.7432 -1.2836
  976MOL0     H34625   7.234   2.354   1.665 -0.3784 -0.6450  0.3875
  976MOL0     H34626   7.355   2.331   1.801 -1.9674  0.9986  1.3777
  976MOL0     H34627   7.296   2.100   1.608  0.9658 -0.0949 -1.5454
  976MOL0     H34628   7.409   2.220   1.556  0.9547  1.4401  1.5051
  976MOL0     H34629   7.416   2.049   1.809  0.2439 -4.3782 -3.0398
  976MOL0     H34630   7.541   2.175   1.771 -0.6147  1.2551 -1.0611
  976MOL0     H34631   7.464   1.943   1.584  2.3576 -3.5869  0.0387
  976MOL0     H34632   7.589   2.066   1.577 -0.1638  0.7288  0.7304
  976MOL0     H34633   7.653   1.820   1.653 -0.3253  1.9459 -1.5423
  976MOL0     H34634   7.577   1.852   1.802 -0.5627 -0.9283 -0.3049
  976MOL0     H34635   7.825   2.009   1.685 -1.0358 -0.8251 -1.1743
  976MOL0     H34636   7.739   2.064   1.835 -3.9997  0.7731 -1.0363
  976MOL0     H34637   7.876   1.721   1.696 -2.5534 -0.9940  1.6879
  976MOL0     H34638   8.233   1.700   1.866  0.4314  1.1827 -1.1560
  976MOL0     H34639   8.153   1.655   1.716 -0.2788 -2.3834 -0.6991
  976MOL0     H34640   8.018   1.479   1.818 -0.4095  2.8493 -0.9886
  976MOL0     H34641   8.187   1.442   1.834 -0.5112  1.0156 -0.7270
  976MOL0     H34642   8.018   1.560   2.065 -2.0870 -2.3113 -0.3330
  976MOL0     H34643   8.035   1.401   2.032  1.7422 -0.6165 -0.3755
  976MOL0     H34644   8.252   1.611   2.090 -0.0205  0.9425 -1.9268
  976MOL0     H34645   8.197   1.481   2.203  2.4810 -0.5168 -0.0805
  976MOL0     H34646   8.445   1.596   2.215 -1.3127 -1.1729  0.5447
  976MOL0     H34647   8.745   1.611   2.335 -0.9866 -0.9990 -0.1614
  976MOL0     H34648   8.640   1.745   2.261  3.2610  2.9639  0.0311
  976MOL0     H34649   8.787   1.698   2.196  0.6457 -3.9611 -1.6273
  976MOL0     H34650   9.060   1.660   1.803  1.3466  1.5354  0.5752
  976MOL0     H34651   9.300   1.703   1.792  0.4924  0.3986  0.3492
  976MOL0     H34652   9.530   1.554   2.093  1.3824  1.5707 -0.0472
  976MOL0     H34653   9.607   1.436   1.987  2.7047  1.1998 -0.0348
  976MOL0     H34654   9.691   1.724   2.001  1.1775  0.9568 -1.0549
  976MOL0     H34655   9.792   1.584   2.043 -0.1755 -0.5871  0.2809
  976MOL0     H34656   9.691   1.675   1.768  1.6786  3.1562  1.1556
  976MOL0     H34657   9.734   1.517   1.798 -2.5176  0.8265  0.2594
  976MOL0     H34658   9.942   1.632   1.698 -0.3513 -5.1155  0.7762
  976MOL0     H34659   9.981   1.575   1.844 -0.5532 -0.4344  1.4612
  976MOL0     H34660   9.947   1.782   1.969 -1.7728  0.2868 -0.2828
  976MOL0     H34661  10.070   1.806   1.852 -0.4149 -0.6744 -1.3117
  976MOL0     H34662   9.774   1.905   1.855 -0.1237  2.1910  0.1733
  976MOL0     H34663   9.868   1.918   1.707  1.0960 -1.7856  0.0260
  976MOL0     H34664  10.033   2.060   1.796 -0.4748  3.4720 -1.0579
  976MOL0     H34665   9.964   2.050   1.960 -0.8119 -0.3600 -0.0908
  976MOL0     H34666   9.764   2.127   1.729  0.3427  2.0749 -0.6076
  976MOL0     H34667   9.891   2.239   1.766 -0.6502 -0.4825  1.0305
  976MOL0     H34668   9.369   1.405   2.092 -0.8660 -0.2108 -0.2535
  976MOL0     H34669   9.134   1.346   2.086 -0.6668  1.4486  0.0243
  976MOL0     H34670   8.727   1.354   1.877 -0.4421 -0.0924 -0.1723
  976MOL0     H34671   8.482   1.325   1.882  2.7610 -3.3107  0.4986
  976MOL0     H34672   6.799   2.310   1.916  3.3982  1.2160  0.1631
  976MOL0     H34673   6.587   2.272   1.794 -0.9404  4.8186  2.5215
  976MOL0     H34674   6.344   2.340   1.468 -1.3047 -0.4999  0.7015
  976MOL0     H34675   6.136   2.316   1.346  0.7993  1.8265  1.0822
  976MOL0     H34676   5.971   1.885   1.261 -0.1103 -0.2154  0.2856
  976MOL0     H34677   5.861   2.012   1.330 -1.2475  0.2571 -0.7246
  976MOL0     H34678   5.817   1.885   1.110  0.3776 -0.1257  0.3142
  976MOL0     H34679   5.950   1.964   1.042  0.4315  2.4635 -0.4353
  976MOL0     H34680   5.716   2.101   1.175 -1.3523 -1.4254  0.3335
  976MOL0     H34681   5.857   2.189   1.114  3.5999 -2.3820 -2.9652
  976MOL0     H34682   5.795   2.116   0.872 -0.9621 -0.7662 -0.3162
  976MOL0     H34683   5.674   2.201   0.948 -0.2648  0.6785  0.7920
  976MOL0     H34684   5.517   1.807   0.876 -1.2151  0.7875 -1.2233
  976MOL0     H34685   6.182   1.885   1.343 -0.4031 -0.8434 -0.7574
  976MOL0     H34686   6.360   1.790   1.402  0.0346 -0.7228 -0.5111
  976MOL0     H34687   6.522   1.865   1.379 -0.0587 -1.5462 -1.1080
  976MOL0     H34688   6.453   1.858   1.539 -0.6121  1.7748 -0.5827
  977MOL0     O34689  11.085   8.279   3.016  0.8161  0.0523  0.1799
  977MOL0     C34690  11.019   8.192   2.965  1.1488  0.2615 -0.0769
  977MOL0     O34691  11.060   8.063   2.927 -0.0098 -0.4531 -1.2880
  977MOL0     C34692  11.187   8.026   2.959  0.8204 -0.9669  0.9004
  977MOL0     C34693  11.209   7.891   2.999 -0.1395 -1.0542 -0.4147
  977MOL0     C34694  11.338   7.848   3.038  0.3278 -0.4745  0.7728
  977MOL0     C34695  11.451   7.932   3.014 -0.6762  0.0657  0.0818
  977MOL0     O34696  11.577   7.881   3.038  0.5186  0.0132 -0.5132
  977MOL0     C34697  11.615   7.755   2.984 -0.0437 -0.6067  0.5947
  977MOL0     C34698  11.763   7.740   2.975 -0.5460  0.4523 -0.1226
  977MOL0     C34699  11.813   7.673   3.106  0.4509  0.6121 -0.1877
  977MOL0     C34700  11.957   7.700   3.118 -0.8228 -0.1795 -0.6305
  977MOL0     C34701  12.015   7.631   3.240 -0.7682  0.3422  0.0615
  977MOL0     C34702  12.168   7.663   3.255 -0.1699 -0.4392 -0.1072
  977MOL0     C34703  12.199   7.815   3.271  0.3772  0.4494  0.0253
  977MOL0     C34704  12.338   7.842   3.318  0.0538  0.8162 -0.1295
  977MOL0     N34705  12.434   7.789   3.218  0.8667 -0.3412  0.0355
  977MOL0     C34706  12.427   7.839   3.086 -0.2843  0.2784 -0.4977
  977MOL0     C34707  12.529   7.773   3.018  1.4269 -0.8193  0.2191
  977MOL0     C34708  12.559   7.791   2.873  0.0496 -0.0463  0.6690
  977MOL0     C34709  12.685   7.878   2.852 -0.1536  0.8381 -0.4730
  977MOL0     C34710  12.702   7.922   2.707  1.6633 -0.2210  0.7675
  977MOL0     C34711  12.815   8.026   2.697 -0.5183  0.7818 -0.7092
  977MOL0     O34712  12.935   7.958   2.735 -0.3675 -0.2686 -0.6830
  977MOL0     C34713  13.059   8.008   2.716  0.4325 -0.7207  0.0355
  977MOL0     C34714  13.081   8.149   2.696  0.2492  0.4779 -0.0443
  977MOL0     C34715  13.209   8.192   2.665 -0.1267  0.3387 -1.0695
  977MOL0     C34716  13.223   8.332   2.633 -0.2071 -0.0635  0.1000
  977MOL0     C34717  13.319   8.099   2.679  0.3482 -1.0346  0.5131
  977MOL0     C34718  13.465   8.133   2.646 -0.1414 -0.9201 -0.1848
  977MOL0     O34719  13.562   8.047   2.692 -0.4266  0.7454  0.5774
  977MOL0     C34720  13.700   8.068   2.676  0.6842 -0.1236 -0.4333
  977MOL0     C34721  13.758   8.198   2.702  0.5176 -0.3531  1.0317
  977MOL0     C34722  13.900   8.213   2.683 -0.7288  0.5889 -0.7082
  977MOL0     C34723  13.975   8.104   2.643 -0.5414  0.4428  0.6392
  977MOL0     O34724  14.113   8.111   2.636  0.1809 -0.1151 -0.1850
  977MOL0     C34725  14.178   8.241   2.626  0.0191  1.1564 -0.0613
  977MOL0     C34726  14.323   8.216   2.617  0.4878  0.1418  0.2021
  977MOL0     C34727  14.393   8.342   2.557 -0.1702  0.7600  0.5691
  977MOL0     C34728  14.545   8.318   2.538 -0.1931  0.4128  0.3514
  977MOL0     C34729  14.624   8.440   2.476 -0.5059  0.0178 -0.2180
  977MOL0     C34730  14.760   8.397   2.412 -0.1425  0.4321  0.0927
  977MOL0     C34731  14.820   8.513   2.340 -0.5457 -0.5825 -0.2609
  977MOL0     C34732  14.956   8.477   2.278 -0.6779  0.6425 -0.3877
  977MOL0    Cl34733  15.055   8.626   2.274  0.0550  0.3856 -0.0516
  977MOL0     C34734  13.917   7.985   2.611  0.0239  0.0672  0.0825
  977MOL0     C34735  13.777   7.969   2.627 -0.4779 -0.1801  1.0178
  977MOL0     O34736  13.490   8.229   2.577 -0.3500  0.1509  0.3398
  977MOL0     C34737  13.300   7.963   2.713 -0.3201 -1.7547  0.2808
  977MOL0     C34738  13.171   7.928   2.728  1.1809 -0.6107 -0.2602
  977MOL0     N34739  12.586   7.685   3.118  0.5412  0.6683  0.3543
  977MOL0     N34740  12.534   7.707   3.233 -0.2788  0.4422  0.1332
  977MOL0     C34741  11.433   8.066   2.963 -1.1790  0.2709 -0.1141
  977MOL0     C34742  11.301   8.104   2.934 -0.1095 -0.7702  0.3974
  977MOL0     C34743  10.872   8.213   2.956 -0.2205  0.6423  0.5395
  977MOL0     C34744  10.777   8.101   2.941 -0.6570  0.4859  0.2363
  977MOL0     C34745  10.640   8.115   2.935  0.1279 -0.7758 -0.7082
  977MOL0     C34746  10.591   8.238   2.957 -0.1662 -0.2611 -0.2240
  977MOL0     O34747  10.455   8.269   2.962 -0.7469  0.3203 -0.0838
  977MOL0     C34748  10.360   8.170   2.942  0.8267  0.2467  0.3052
  977MOL0     C34749  10.230   8.237   2.897 -0.6442  0.1460 -0.1732
  977MOL0     C34750  10.163   8.328   3.000 -0.5476  0.7699 -0.2377
  977MOL0     C34751  10.020   8.368   2.966 -1.2182 -0.0853  0.9708
  977MOL0     C34752   9.931   8.257   2.965  0.4181  0.8744  0.0740
  977MOL0     C34753   9.849   8.168   2.984  0.4748  0.1219  0.9201
  977MOL0     C34754  10.673   8.346   2.970  0.3268  1.1634 -0.4829
  977MOL0     C34755  10.815   8.338   2.968  0.2062  0.5426 -0.4271
  977MOL0     C34756  10.889   8.465   2.979 -0.2303 -1.0137 -0.4081
  977MOL0     H34757  11.122   7.830   3.022 -1.9793  0.7022 -2.2184
  977MOL0     H34758  11.348   7.749   3.083 -1.4403 -0.7536  0.6337
  977MOL0     H34759  11.571   7.756   2.884  0.6418 -1.6765  0.2595
  977MOL0     H34760  11.575   7.666   3.033 -2.3452 -0.5456 -0.9891
  977MOL0     H34761  11.789   7.675   2.892 -0.0780  1.7741 -1.0508
  977MOL0     H34762  11.804   7.842   2.967  0.5929  0.0535  0.4283
  977MOL0     H34763  11.768   7.719   3.195 -0.8803  2.0016 -1.5007
  977MOL0     H34764  11.784   7.568   3.100 -0.2424  0.7621  0.3186
  977MOL0     H34765  12.014   7.671   3.029  1.1713  1.3363  0.0862
  977MOL0     H34766  11.967   7.808   3.130 -0.1276 -0.5509  3.8489
  977MOL0     H34767  12.009   7.522   3.234  0.7874  0.1894  0.8382
  977MOL0     H34768  11.968   7.656   3.335 -1.7193 -1.8581  0.2458
  977MOL0     H34769  12.209   7.618   3.346 -1.5492  2.1787  1.9643
  977MOL0     H34770  12.218   7.633   3.163  2.8820 -1.6733  1.8160
  977MOL0     H34771  12.130   7.869   3.336  1.9725  2.8228 -0.1279
  977MOL0     H34772  12.198   7.856   3.170  0.3488 -0.4887 -0.3681
  977MOL0     H34773  12.346   7.951   3.325 -0.7565  0.7545  2.7017
  977MOL0     H34774  12.358   7.799   3.416 -1.2239 -0.2341 -0.3006
  977MOL0     H34775  12.360   7.918   3.054 -2.1350 -0.9176  0.2739
  977MOL0     H34776  12.467   7.833   2.829  1.2438  1.2575 -0.7236
  977MOL0     H34777  12.581   7.692   2.833  0.9307  0.0140  0.9872
  977MOL0     H34778  12.670   7.966   2.915 -1.7675  0.2929 -0.0442
  977MOL0     H34779  12.775   7.831   2.894 -0.7858  1.5560  1.8566
  977MOL0     H34780  12.712   7.834   2.642 -0.9706  0.3059 -0.5032
  977MOL0     H34781  12.613   7.966   2.661  1.5402 -0.9015  0.3340
  977MOL0     H34782  12.840   8.064   2.598  0.5948 -0.7281 -1.0332
  977MOL0     H34783  12.787   8.114   2.756 -0.7396 -0.4111  1.0642
  977MOL0     H34784  12.997   8.217   2.707  0.9389  1.5752 -1.2164
  977MOL0     H34785  13.123   8.373   2.616 -0.8517 -1.2910  0.7808
  977MOL0     H34786  13.282   8.364   2.547 -0.1751  1.1151  0.5355
  977MOL0     H34787  13.252   8.392   2.720 -2.3024 -0.5946  1.2437
  977MOL0     H34788  13.699   8.287   2.721  1.2246  0.2459  0.5083
  977MOL0     H34789  13.952   8.307   2.699  0.8143 -0.4060  0.2623
  977MOL0     H34790  14.144   8.304   2.543  0.0082  1.7113  0.3595
  977MOL0     H34791  14.161   8.303   2.714 -0.8998  0.2415  0.4324
  977MOL0     H34792  14.368   8.197   2.715  0.4942  1.4485  0.4692
  977MOL0     H34793  14.339   8.132   2.549  0.0465  0.8927 -0.8582
  977MOL0     H34794  14.379   8.423   2.628 -0.2431  2.1911 -1.0202
  977MOL0     H34795  14.341   8.359   2.462 -0.7528  1.8087  1.0585
  977MOL0     H34796  14.552   8.238   2.464  1.4367  1.9165 -1.2231
  977MOL0     H34797  14.601   8.292   2.628 -0.5015  0.9847  0.7157
  977MOL0     H34798  14.573   8.488   2.393 -0.4506 -0.5868 -0.6057
  977MOL0     H34799  14.637   8.516   2.554  2.5493 -1.8769  1.3529
  977MOL0     H34800  14.737   8.323   2.335 -1.3516 -0.5952  1.3983
  977MOL0     H34801  14.827   8.348   2.483 -0.5714 -1.5370 -0.8040
  977MOL0     H34802  14.847   8.582   2.420 -1.6444  0.3159 -0.6446
  977MOL0     H34803  14.764   8.571   2.266  0.2790  0.0327 -0.4280
  977MOL0     H34804  14.944   8.434   2.178  1.0328  1.8576 -1.1740
  977MOL0     H34805  15.011   8.406   2.340 -0.4563 -0.3264 -1.6626
  977MOL0     H34806  13.981   7.910   2.566 -1.5486 -2.4009  1.7636
  977MOL0     H34807  13.746   7.867   2.603 -0.5138  0.0198  0.1806
  977MOL0     H34808  13.383   7.893   2.719 -0.6496 -3.1908 -5.6129
  977MOL0     H34809  13.144   7.824   2.746  0.2653 -0.4024 -0.3965
  977MOL0     H34810  11.519   8.126   2.932  0.5495 -2.0334 -0.0214
  977MOL0     H34811  11.287   8.199   2.883  0.3251 -1.5794 -1.2786
  977MOL0     H34812  10.816   8.006   2.908 -0.2775 -0.1630  2.4269
  977MOL0     H34813  10.577   8.032   2.905 -0.3451 -0.3657 -0.8702
  977MOL0     H34814  10.391   8.106   2.859  0.8860  1.8267 -0.9407
  977MOL0     H34815  10.332   8.110   3.029 -1.7743 -0.6110 -0.9905
  977MOL0     H34816  10.165   8.155   2.866  0.9877 -0.4027 -2.3659
  977MOL0     H34817  10.242   8.305   2.813 -0.2203  0.4374  0.1188
  977MOL0     H34818  10.158   8.283   3.100  0.9550  1.8033  0.3386
  977MOL0     H34819  10.215   8.424   3.011 -2.1483  1.3989  3.3701
  977MOL0     H34820  10.012   8.423   2.872 -1.9039  3.2222  2.7964
  977MOL0     H34821   9.979   8.446   3.031 -0.6379  0.5416  0.5992
  977MOL0     H34822   9.768   8.098   2.993 -0.5252  0.9348 -1.1461
  977MOL0     H34823  10.628   8.444   2.979  1.5664  1.5919  2.1133
  977MOL0     H34824  10.819   8.543   2.949 -0.4686 -1.8393 -2.1113
  977MOL0     H34825  10.925   8.483   3.081  0.7607  1.1367 -1.0782
  977MOL0     H34826  10.975   8.464   2.911  0.6455 -4.0545  0.5844
  978MOL0     O34827  10.068   5.247   8.154 -0.0719 -0.2567 -0.3266
  978MOL0     C34828   9.996   5.179   8.228 -0.0227 -0.1469 -0.9477
  978MOL0     O34829  10.020   5.166   8.361 -0.0970  0.2870  0.8025
  978MOL0     C34830  10.141   5.140   8.417 -0.4684 -0.2373 -0.7465
  978MOL0     C34831  10.199   5.242   8.489  0.2444  0.1553 -0.4312
  978MOL0     C34832  10.314   5.215   8.563  0.0628  0.9135  0.0542
  978MOL0     C34833  10.349   5.079   8.593  0.7180  0.3974 -0.0015
  978MOL0     O34834  10.453   5.064   8.675 -0.5521  0.0952  0.0397
  978MOL0     C34835  10.471   4.933   8.748 -0.1286  0.2424  0.7476
  978MOL0     C34836  10.592   4.938   8.846 -0.2413 -0.6957  0.1839
  978MOL0     C34837  10.720   4.967   8.777 -0.0447 -0.8071  0.2062
  978MOL0     C34838  10.823   4.994   8.888  0.3004 -0.5729 -0.6058
  978MOL0     C34839  10.958   5.049   8.832  0.0623  0.1928 -0.3332
  978MOL0     C34840  10.968   5.143   8.713 -0.1177 -0.1198 -0.3956
  978MOL0     C34841  11.113   5.182   8.690  0.4601 -0.5370 -1.0398
  978MOL0     C34842  11.163   5.319   8.753 -0.0105 -0.4547  0.7031
  978MOL0     N34843  11.148   5.313   8.899  0.1614 -0.3159 -0.4285
  978MOL0     C34844  11.228   5.238   8.986 -0.1006 -0.5108  0.0698
  978MOL0     C34845  11.204   5.288   9.110 -0.0434  0.3026  0.3351
  978MOL0     C34846  11.274   5.235   9.231  0.1425 -0.2487  0.1930
  978MOL0     C34847  11.396   5.324   9.259  0.8585 -0.5321  1.1530
  978MOL0     C34848  11.493   5.266   9.366  0.6998  1.0260 -0.5500
  978MOL0     C34849  11.613   5.361   9.368 -1.0458 -0.2836 -0.4890
  978MOL0     O34850  11.702   5.340   9.480  0.2340  0.2832 -0.5615
  978MOL0     C34851  11.825   5.413   9.473  0.1642 -0.4077 -0.4024
  978MOL0     C34852  11.939   5.340   9.450  0.3882 -0.2148 -0.8570
  978MOL0     C34853  12.065   5.398   9.457  0.0293  0.1651  0.9495
  978MOL0     C34854  12.181   5.301   9.469 -0.0342  0.6356 -0.0361
  978MOL0     C34855  12.083   5.536   9.463 -0.6011 -0.8728 -0.4720
  978MOL0     C34856  12.217   5.602   9.444 -0.5533 -0.4950 -0.4677
  978MOL0     O34857  12.305   5.553   9.346  0.3145  0.4929  0.4625
  978MOL0     C34858  12.436   5.585   9.361 -0.0275 -0.6341 -0.3879
  978MOL0     C34859  12.524   5.482   9.326 -0.0027  0.1365 -0.1142
  978MOL0     C34860  12.657   5.518   9.309  0.5462  0.1855 -0.4353
  978MOL0     C34861  12.707   5.643   9.346 -0.4353  0.1116 -0.4919
  978MOL0     O34862  12.844   5.656   9.330  0.7595 -0.1197 -1.4227
  978MOL0     C34863  12.898   5.786   9.344 -0.3371  0.4541  0.0724
  978MOL0     C34864  13.044   5.785   9.299 -0.0946 -0.0773  0.0008
  978MOL0     C34865  13.074   5.893   9.188  0.1286 -0.9221  0.3065
  978MOL0     C34866  13.220   5.894   9.142 -0.1733  0.0539 -0.0921
  978MOL0     C34867  13.240   6.004   9.038 -1.0144 -0.6906 -0.0853
  978MOL0     C34868  13.380   6.015   8.980 -0.4069 -0.8396 -0.4155
  978MOL0     C34869  13.409   5.884   8.890  0.0595 -0.5141  0.1382
  978MOL0     C34870  13.549   5.905   8.811  0.2748  0.6936  0.1082
  978MOL0    Cl34871  13.675   5.926   8.932  0.2642 -0.1160 -0.2533
  978MOL0     C34872  12.611   5.742   9.371 -0.3385 -0.2384  1.1880
  978MOL0     C34873  12.478   5.713   9.375 -0.2131 -0.1332  0.9862
  978MOL0     O34874  12.237   5.698   9.515 -0.2438  0.2897  0.2394
  978MOL0     C34875  11.966   5.613   9.478  0.6458 -0.6878 -0.1436
  978MOL0     C34876  11.839   5.551   9.486 -0.0655  0.5262  0.0929
  978MOL0     N34877  11.100   5.382   9.107  0.3331  0.6231  0.6560
  978MOL0     N34878  11.070   5.401   8.974  0.4252  0.3073  0.0226
  978MOL0     C34879  10.286   4.977   8.519  1.0011  0.9032  0.9300
  978MOL0     C34880  10.170   5.003   8.437 -0.0325  0.1704  0.3914
  978MOL0     C34881   9.861   5.130   8.178  0.1123 -0.0265 -0.0288
  978MOL0     C34882   9.776   5.071   8.276 -0.4699 -0.2430  0.1653
  978MOL0     C34883   9.644   5.034   8.234 -0.1993 -0.5508 -0.1964
  978MOL0     C34884   9.593   5.048   8.108  0.3443  0.2591  0.6013
  978MOL0     O34885   9.467   4.993   8.080  0.2376  0.2544 -0.1595
  978MOL0     C34886   9.396   5.054   7.970 -0.5005 -0.4576 -0.3565
  978MOL0     C34887   9.244   5.045   7.986 -0.6933  0.2402  0.2676
  978MOL0     C34888   9.198   4.896   7.983  0.7115 -0.0497 -0.0863
  978MOL0     C34889   9.038   4.876   7.975  0.2607  0.4273  0.1443
  978MOL0     C34890   8.968   4.926   8.091 -0.2395  0.1120  0.2540
  978MOL0     C34891   8.916   4.966   8.189 -0.9332  0.0510 -0.3260
  978MOL0     C34892   9.682   5.105   8.008  0.3361  0.0249 -0.9148
  978MOL0     C34893   9.814   5.146   8.042 -0.4274  0.2682 -0.9343
  978MOL0     C34894   9.895   5.203   7.935 -0.0276  0.5524 -0.0163
  978MOL0     H34895  10.160   5.343   8.484 -0.3027 -0.0439 -0.2587
  978MOL0     H34896  10.368   5.296   8.611 -0.0019  0.9255  0.1055
  978MOL0     H34897  10.473   4.847   8.680 -0.7463  0.1382  0.8578
  978MOL0     H34898  10.383   4.928   8.813  0.0117  2.6568  1.2312
  978MOL0     H34899  10.577   4.998   8.937  0.8260 -0.7048  0.3728
  978MOL0     H34900  10.607   4.837   8.885 -0.9541 -0.7959  0.2108
  978MOL0     H34901  10.762   4.886   8.717 -1.1804 -1.3943  0.1911
  978MOL0     H34902  10.705   5.058   8.718 -0.7945 -1.3414 -0.4431
  978MOL0     H34903  10.778   5.068   8.955  1.7364  1.0687 -1.3716
  978MOL0     H34904  10.840   4.903   8.947  2.4860  0.8063  1.0770
  978MOL0     H34905  11.018   4.960   8.813  0.2855  0.6273 -1.7787
  978MOL0     H34906  11.002   5.096   8.921 -2.5517  2.1615  0.0399
  978MOL0     H34907  10.935   5.089   8.624 -2.2136 -0.0849  0.2892
  978MOL0     H34908  10.915   5.236   8.738  1.8669  1.2649 -1.0488
  978MOL0     H34909  11.132   5.190   8.583  1.2197 -2.7235 -1.1197
  978MOL0     H34910  11.181   5.106   8.731  1.7545  1.0784 -0.0488
  978MOL0     H34911  11.267   5.343   8.726 -1.1428  0.8168 -3.1034
  978MOL0     H34912  11.097   5.395   8.712  0.4359 -0.1092  0.6129
  978MOL0     H34913  11.309   5.175   8.951 -1.1563 -1.2332 -1.1988
  978MOL0     H34914  11.309   5.133   9.213  2.4378 -0.0219  2.8012
  978MOL0     H34915  11.209   5.235   9.319  2.8468  2.0644  2.3644
  978MOL0     H34916  11.442   5.346   9.162  0.2675  2.2762  1.3968
  978MOL0     H34917  11.352   5.420   9.289  1.4177  0.2759 -0.4517
  978MOL0     H34918  11.444   5.254   9.463  2.6356  0.7377  0.4405
  978MOL0     H34919  11.523   5.167   9.331 -2.4450 -0.0645 -0.4644
  978MOL0     H34920  11.680   5.330   9.287  2.2234 -0.0558  1.9540
  978MOL0     H34921  11.587   5.467   9.360 -2.7280 -0.6316  0.0510
  978MOL0     H34922  11.921   5.233   9.456 -4.4386  0.4462  0.7348
  978MOL0     H34923  12.137   5.203   9.445  1.1510  0.0535  0.0945
  978MOL0     H34924  12.223   5.299   9.570 -1.0495  2.0209  0.4398
  978MOL0     H34925  12.258   5.313   9.392 -0.1911  1.8246 -0.0224
  978MOL0     H34926  12.487   5.380   9.326  2.0923 -0.7164  1.9931
  978MOL0     H34927  12.720   5.447   9.256 -1.7835  0.3361 -3.7161
  978MOL0     H34928  12.845   5.864   9.288  1.2143  0.6341 -1.2176
  978MOL0     H34929  12.901   5.808   9.451 -0.6906 -1.7494  0.5810
  978MOL0     H34930  13.111   5.796   9.385 -1.0126  0.7578  0.6192
  978MOL0     H34931  13.062   5.688   9.251 -2.5064 -2.0901  2.8643
  978MOL0     H34932  13.045   5.992   9.225  0.2328 -0.8360  0.1557
  978MOL0     H34933  13.019   5.861   9.099  2.9242 -0.3116 -1.7484
  978MOL0     H34934  13.241   5.797   9.094 -0.3889 -0.4385  0.7865
  978MOL0     H34935  13.280   5.909   9.232  1.5047 -0.3942 -1.0694
  978MOL0     H34936  13.166   5.997   8.957  1.3743  0.6161 -2.5564
  978MOL0     H34937  13.218   6.105   9.074  0.2098 -0.4487  0.0463
  978MOL0     H34938  13.452   6.017   9.062  0.4845 -1.1398 -1.1755
  978MOL0     H34939  13.385   6.104   8.916 -1.6283 -1.9083 -2.0889
  978MOL0     H34940  13.337   5.861   8.810  1.9936  2.0413 -2.5644
  978MOL0     H34941  13.418   5.800   8.959  2.3997 -1.6739 -1.4606
  978MOL0     H34942  13.536   5.986   8.737 -1.8610  0.8728  0.6111
  978MOL0     H34943  13.570   5.821   8.744 -1.0890 -0.2237  0.7810
  978MOL0     H34944  12.644   5.845   9.377  0.5598 -0.5513  1.7176
  978MOL0     H34945  12.404   5.792   9.388  0.1395  0.5811 -0.9713
  978MOL0     H34946  11.976   5.722   9.482 -0.1306 -0.6490  2.1525
  978MOL0     H34947  11.752   5.616   9.489  1.1628  2.2061  1.1493
  978MOL0     H34948  10.322   4.875   8.531  0.9552  0.2638 -2.8925
  978MOL0     H34949  10.121   4.919   8.389 -1.1270 -0.2771  2.1880
  978MOL0     H34950   9.794   5.054   8.382  1.1747  1.7226  0.2585
  978MOL0     H34951   9.574   4.999   8.310  0.0720  1.3425  1.0045
  978MOL0     H34952   9.417   5.160   7.955  2.5461 -0.9887 -0.3935
  978MOL0     H34953   9.436   4.998   7.885 -1.5654 -0.8053 -0.6482
  978MOL0     H34954   9.202   5.113   7.911 -1.2650 -0.7651 -0.3425
  978MOL0     H34955   9.206   5.094   8.076 -0.8338  0.8289 -0.1034
  978MOL0     H34956   9.249   4.845   7.901  0.4151 -0.6939  0.1245
  978MOL0     H34957   9.231   4.852   8.077 -2.3684 -0.0305  1.1419
  978MOL0     H34958   8.997   4.776   7.959  1.1189  0.1375 -0.2899
  978MOL0     H34959   9.002   4.930   7.887 -2.3773 -0.7301  0.4380
  978MOL0     H34960   8.860   4.990   8.277  0.6263  0.7720  0.5058
  978MOL0     H34961   9.660   5.122   7.904  1.0863  1.1784 -0.9027
  978MOL0     H34962   9.932   5.303   7.958 -1.1075  0.7893  0.7914
  978MOL0     H34963   9.977   5.134   7.909 -1.1253 -1.5660  1.8044
  978MOL0     H34964   9.834   5.214   7.845  2.3087 -2.0491 -2.0970
  979MOL0     O34965   6.019   6.734   5.067  0.5130 -0.6407  0.4322
  979MOL0     C34966   5.931   6.782   4.991 -0.6931  0.0443  0.3257
  979MOL0     O34967   5.939   6.759   4.854  0.0612 -0.4485 -0.1901
  979MOL0     C34968   6.065   6.732   4.798  0.7684  0.3504  0.6182
  979MOL0     C34969   6.156   6.839   4.781  0.2665 -0.8105  0.2227
  979MOL0     C34970   6.277   6.805   4.735  0.5427 -0.2203 -0.8661
  979MOL0     C34971   6.317   6.675   4.704  0.5774  0.6668 -0.3854
  979MOL0     O34972   6.447   6.643   4.665  0.3160  0.1290 -0.4465
  979MOL0     C34973   6.551   6.629   4.764 -0.3828  0.2080  0.3192
  979MOL0     C34974   6.644   6.750   4.744 -0.2855  0.2615 -0.2684
  979MOL0     C34975   6.779   6.760   4.832  0.0532 -0.1853  0.6554
  979MOL0     C34976   6.852   6.628   4.835  0.1037  0.0590 -0.0877
  979MOL0     C34977   7.006   6.639   4.815  0.1927  0.5392  0.2190
  979MOL0     C34978   7.070   6.719   4.922  0.2173 -0.3151  0.1609
  979MOL0     C34979   7.218   6.750   4.904 -0.3436  0.6157  0.3225
  979MOL0     C34980   7.308   6.628   4.913  0.4628  0.4581 -0.4567
  979MOL0     N34981   7.446   6.658   4.892  1.2617  0.2035  0.4551
  979MOL0     C34982   7.507   6.654   4.771  0.1130 -0.0937 -0.2977
  979MOL0     C34983   7.626   6.707   4.783 -0.3583 -0.4659  0.8430
  979MOL0     C34984   7.731   6.716   4.665 -0.0583  0.7639 -0.1652
  979MOL0     C34985   7.846   6.614   4.682 -0.6590 -0.4899 -1.4816
  979MOL0     C34986   7.910   6.635   4.823  0.3680  0.6542  0.0879
  979MOL0     C34987   8.043   6.553   4.844  0.1493 -0.0813 -0.4736
  979MOL0     O34988   8.124   6.577   4.729  0.0844 -0.5178  0.2487
  979MOL0     C34989   8.255   6.550   4.739 -0.0252  0.1386 -1.0198
  979MOL0     C34990   8.344   6.635   4.794  0.0811  0.0191 -0.4142
  979MOL0     C34991   8.479   6.619   4.785 -0.1574 -0.9389 -0.3714
  979MOL0     C34992   8.562   6.719   4.848 -0.2739 -0.3250 -0.2376
  979MOL0     C34993   8.519   6.490   4.739  0.0844 -0.3049 -0.4002
  979MOL0     C34994   8.654   6.447   4.739  1.1384  0.7583 -0.5950
  979MOL0     O34995   8.728   6.489   4.846 -0.1483  0.0850 -0.5187
  979MOL0     C34996   8.867   6.474   4.837 -0.6797  0.1197 -0.4814
  979MOL0     C34997   8.936   6.409   4.932 -0.4011  0.4485 -0.9902
  979MOL0     C34998   9.080   6.403   4.932  0.4361  0.1005  0.2881
  979MOL0     C34999   9.150   6.450   4.823 -0.5453 -0.1417  0.2085
  979MOL0     O35000   9.293   6.436   4.831  0.5060 -0.1209  0.9051
  979MOL0     C35001   9.348   6.401   4.700 -0.2114  0.1703 -0.6098
  979MOL0     C35002   9.485   6.334   4.716  0.8221  0.1700 -0.3806
  979MOL0     C35003   9.474   6.187   4.774  0.2497 -0.3728 -0.8582
  979MOL0     C35004   9.591   6.121   4.829 -0.1618 -0.2043 -0.1841
  979MOL0     C35005   9.638   6.188   4.961  0.1316  0.0732 -0.1135
  979MOL0     C35006   9.539   6.183   5.082  0.2215 -0.1840  0.5295
  979MOL0     C35007   9.492   6.043   5.127  0.5011 -0.3048 -0.3808
  979MOL0     C35008   9.345   6.026   5.116  0.5412 -0.1025  0.1712
  979MOL0    Cl35009   9.249   6.144   5.212 -0.2568 -0.1389 -0.1762
  979MOL0     C35010   9.080   6.511   4.717 -0.0283 -0.7290  0.1689
  979MOL0     C35011   8.936   6.534   4.733 -0.2764  0.4409  0.1879
  979MOL0     O35012   8.691   6.374   4.646  0.0635 -0.7898 -0.0517
  979MOL0     C35013   8.423   6.397   4.686  0.8276  0.4929 -0.2882
  979MOL0     C35014   8.287   6.428   4.688 -0.0490  0.0903 -0.5677
  979MOL0     N35015   7.630   6.752   4.916 -0.6967  0.3043 -0.2383
  979MOL0     N35016   7.525   6.717   4.976 -0.7133 -0.3288 -0.1959
  979MOL0     C35017   6.226   6.570   4.712  0.1349  0.2191 -0.3289
  979MOL0     C35018   6.098   6.598   4.762  0.4624 -0.2940 -0.1155
  979MOL0     C35019   5.822   6.871   5.037  0.4301 -0.5116 -0.6840
  979MOL0     C35020   5.780   6.972   4.948  0.3245 -0.5845  0.9251
  979MOL0     C35021   5.675   7.065   4.984  0.3903  0.1270  0.0451
  979MOL0     C35022   5.617   7.046   5.107 -0.0511 -0.3611  1.0521
  979MOL0     O35023   5.503   7.114   5.137  0.0854 -0.3944 -0.3922
  979MOL0     C35024   5.485   7.200   5.252  0.6923  0.2503  0.5408
  979MOL0     C35025   5.347   7.268   5.238  0.2289  0.3670 -0.5440
  979MOL0     C35026   5.318   7.339   5.104 -0.5896  0.9130 -0.1120
  979MOL0     C35027   5.355   7.482   5.095 -0.0803 -0.1499 -0.4475
  979MOL0     C35028   5.487   7.493   5.024 -0.8444 -0.2354  0.2543
  979MOL0     C35029   5.592   7.489   4.971  0.3450 -0.3102  0.6623
  979MOL0     C35030   5.653   6.946   5.191 -0.0198 -0.8041 -0.3177
  979MOL0     C35031   5.767   6.865   5.161  0.7704 -0.6976 -0.2660
  979MOL0     C35032   5.814   6.775   5.281  0.4727 -1.2276  0.3076
  979MOL0     H35033   6.129   6.941   4.806  1.2665 -0.2834 -0.7908
  979MOL0     H35034   6.347   6.885   4.710 -0.7627  1.2994  0.1302
  979MOL0     H35035   6.601   6.534   4.745 -1.9421 -0.6235  0.2670
  979MOL0     H35036   6.513   6.632   4.866  3.0819  0.7847  1.7416
  979MOL0     H35037   6.678   6.741   4.641  2.9379 -0.4686  0.7375
  979MOL0     H35038   6.584   6.839   4.765 -0.9120 -0.3225  0.4927
  979MOL0     H35039   6.837   6.841   4.789 -1.6337  0.2765 -0.8813
  979MOL0     H35040   6.750   6.796   4.932 -0.0102 -0.6582  0.8117
  979MOL0     H35041   6.825   6.576   4.927 -0.8442 -3.6895 -2.3116
  979MOL0     H35042   6.818   6.551   4.765 -0.5245  1.1181 -0.9823
  979MOL0     H35043   7.020   6.679   4.714 -2.3071  0.5884 -0.1505
  979MOL0     H35044   7.050   6.539   4.817  0.3298  0.6033  2.4943
  979MOL0     H35045   7.021   6.817   4.920 -1.0707 -0.9462 -0.8805
  979MOL0     H35046   7.044   6.666   5.014 -0.2842 -2.7425 -1.2979
  979MOL0     H35047   7.253   6.821   4.980 -1.2647  0.9574  0.4459
  979MOL0     H35048   7.239   6.792   4.805 -1.4671  1.0877  0.2719
  979MOL0     H35049   7.298   6.595   5.017 -1.2621  1.4984 -0.2491
  979MOL0     H35050   7.280   6.547   4.844 -4.6659 -0.3300  2.0101
  979MOL0     H35051   7.463   6.601   4.686  1.4754  0.6293 -1.4856
  979MOL0     H35052   7.773   6.816   4.661 -0.8932  1.2183  1.4644
  979MOL0     H35053   7.669   6.697   4.577 -0.3373  0.8753  0.0100
  979MOL0     H35054   7.813   6.510   4.677  2.1319 -1.4977 -0.8083
  979MOL0     H35055   7.919   6.627   4.602  1.9439  0.0298  0.8501
  979MOL0     H35056   7.924   6.742   4.842  0.4674  0.4887  0.9787
  979MOL0     H35057   7.837   6.609   4.900  0.4781 -0.5554 -0.1967
  979MOL0     H35058   8.087   6.595   4.935 -1.2063  2.6943 -0.9926
  979MOL0     H35059   8.020   6.446   4.843  2.6179 -0.6615 -1.4042
  979MOL0     H35060   8.308   6.728   4.836 -1.7501 -1.1992  0.8463
  979MOL0     H35061   8.523   6.820   4.861  2.6470  0.9477 -0.6830
  979MOL0     H35062   8.643   6.730   4.775 -0.5258 -1.4565 -0.7148
  979MOL0     H35063   8.598   6.687   4.946 -0.6833  0.2411  0.0989
  979MOL0     H35064   8.883   6.363   5.015 -1.7445  2.2019 -0.8174
  979MOL0     H35065   9.135   6.348   5.007  0.2325  0.3968  0.6594
  979MOL0     H35066   9.281   6.336   4.642  1.8502  1.0017 -4.2880
  979MOL0     H35067   9.349   6.488   4.633 -0.2090 -0.3326 -1.2754
  979MOL0     H35068   9.531   6.327   4.617 -2.3849 -0.7181 -1.9426
  979MOL0     H35069   9.554   6.398   4.771  1.2190 -0.2167 -0.4242
  979MOL0     H35070   9.457   6.126   4.685 -1.3918  0.6283 -1.2816
  979MOL0     H35071   9.396   6.178   4.850  0.6835 -0.4791 -0.4208
  979MOL0     H35072   9.670   6.130   4.753  0.5289  2.4681  0.7614
  979MOL0     H35073   9.563   6.017   4.851  3.7860 -1.8265 -1.7752
  979MOL0     H35074   9.725   6.131   4.995 -0.3880 -1.1591 -0.7904
  979MOL0     H35075   9.663   6.290   4.931 -0.3929 -0.5352 -2.8496
  979MOL0     H35076   9.459   6.255   5.062  2.0927  1.9985  0.4773
  979MOL0     H35077   9.587   6.230   5.169  1.5379 -0.8341  0.1650
  979MOL0     H35078   9.508   6.027   5.234 -2.8303  0.8329  0.4011
  979MOL0     H35079   9.537   5.967   5.062  1.7817  1.7097 -1.9624
  979MOL0     H35080   9.335   5.925   5.156  1.6326  0.2750  1.4369
  979MOL0     H35081   9.317   6.029   5.010 -1.2090 -1.5503  0.5313
  979MOL0     H35082   9.139   6.547   4.634  0.8883  0.1186  1.1667
  979MOL0     H35083   8.880   6.578   4.652  0.5632  1.3403  0.0842
  979MOL0     H35084   8.456   6.306   4.636  2.3754 -0.2817  1.9638
  979MOL0     H35085   8.214   6.363   4.642  1.2568 -0.6618 -1.6353
  979MOL0     H35086   6.259   6.467   4.705 -1.0312 -0.2164  0.2828
  979MOL0     H35087   6.018   6.528   4.781 -0.8954  1.7445  2.2192
  979MOL0     H35088   5.830   6.980   4.851  1.0365  0.8964  1.3846
  979MOL0     H35089   5.634   7.126   4.905  0.3098 -0.0552 -0.0554
  979MOL0     H35090   5.495   7.150   5.348 -2.1328 -0.4228  0.5506
  979MOL0     H35091   5.557   7.283   5.255  0.3080  0.6213 -0.2243
  979MOL0     H35092   5.344   7.342   5.319 -1.6722  0.6096 -0.8070
  979MOL0     H35093   5.276   7.190   5.265  2.5395 -1.4123  0.6988
  979MOL0     H35094   5.353   7.277   5.022 -1.7331  0.3834 -0.2100
  979MOL0     H35095   5.209   7.329   5.103 -0.5439 -0.3066  1.9868
  979MOL0     H35096   5.370   7.520   5.197 -1.7828  2.1335 -0.9614
  979MOL0     H35097   5.279   7.544   5.048  0.3572  0.1077 -0.8307
  979MOL0     H35098   5.687   7.488   4.921  0.4009 -1.2843  0.7675
  979MOL0     H35099   5.606   6.941   5.289  0.5573  1.0005  0.1045
  979MOL0     H35100   5.923   6.788   5.285  0.4089 -0.3406 -0.4166
  979MOL0     H35101   5.768   6.803   5.375 -0.3963  0.1480 -0.4966
  979MOL0     H35102   5.796   6.669   5.258  0.0081 -0.9972 -0.4253
  980MOL0     O35103   2.956  10.252  10.350 -0.5963  0.1715  0.2646
  980MOL0     C35104   2.873  10.281  10.428  0.3930  0.6552  0.4904
  980MOL0     O35105   2.844  10.211  10.545  0.2328 -0.9360 -0.3135
  980MOL0     C35106   2.919  10.098  10.566  0.5988 -0.0779  0.5841
  980MOL0     C35107   3.010  10.087  10.673  0.2731  1.0371  1.0267
  980MOL0     C35108   3.101   9.986  10.682 -0.2367 -0.1544  0.1999
  980MOL0     C35109   3.101   9.882  10.583 -0.3713 -0.6198 -0.3886
  980MOL0     O35110   3.175   9.772  10.595 -0.2346 -0.1136  0.6254
  980MOL0     C35111   3.314   9.787  10.634  0.4154  0.0657 -0.8376
  980MOL0     C35112   3.387   9.651  10.665  0.7002  0.5270  1.4122
  980MOL0     C35113   3.519   9.667  10.728  0.0427 -0.2483  0.2225
  980MOL0     C35114   3.574   9.525  10.752  0.1747  0.5223 -0.2776
  980MOL0     C35115   3.709   9.530  10.825 -0.3338  0.6669 -0.3209
  980MOL0     C35116   3.754   9.383  10.836  0.4041 -0.7114  0.6045
  980MOL0     C35117   3.886   9.383  10.900  0.2924 -0.0542  0.0835
  980MOL0     C35118   3.996   9.422  10.799 -0.4260  0.4412 -0.6143
  980MOL0     N35119   4.129   9.407  10.866  0.2235 -0.2035  1.0915
  980MOL0     C35120   4.225   9.312  10.846  0.0914  0.1014  0.0073
  980MOL0     C35121   4.314   9.333  10.941  0.6407  0.1636  0.5580
  980MOL0     C35122   4.444   9.252  10.958 -0.2761 -0.7715  0.3068
  980MOL0     C35123   4.547   9.334  11.041 -0.1040 -0.5575  1.2695
  980MOL0     C35124   4.673   9.253  11.088  0.2847  0.3806  0.3040
  980MOL0     C35125   4.746   9.184  10.975 -0.4607 -0.6105 -0.4465
  980MOL0     O35126   4.845   9.086  11.023  0.1858 -0.5673  0.5530
  980MOL0     C35127   4.976   9.129  11.041  0.0482 -0.1050 -0.2279
  980MOL0     C35128   5.027   9.257  11.050  0.8621 -0.0200 -0.2714
  980MOL0     C35129   5.157   9.284  11.088 -0.6653  0.2700 -1.1673
  980MOL0     C35130   5.185   9.429  11.114  0.8312 -0.0006 -0.3052
  980MOL0     C35131   5.258   9.181  11.091  0.5656 -0.2582 -0.2324
  980MOL0     C35132   5.404   9.192  11.112 -0.7188 -0.4099 -0.6028
  980MOL0     O35133   5.468   9.081  11.166  0.4128 -0.0395  0.1287
  980MOL0     C35134   5.595   9.103  11.219 -0.0647  0.5301  0.5807
  980MOL0     C35135   5.613   9.170  11.337 -0.4993  0.3158 -0.7613
  980MOL0     C35136   5.740   9.206  11.369  0.3261 -0.2198 -0.3114
  980MOL0     C35137   5.860   9.149  11.309 -0.1561  0.4486 -0.1536
  980MOL0     O35138   5.994   9.183  11.350  0.2069  0.2286  0.1183
  980MOL0     C35139   6.014   9.266  11.468  0.1498 -0.0417  0.2637
  980MOL0     C35140   6.157   9.323  11.472  1.3326 -0.0839 -0.2471
  980MOL0     C35141   6.181   9.406  11.348 -0.6274  0.4843 -0.6958
  980MOL0     C35142   6.329   9.438  11.341  0.9009  0.0978 -0.6115
  980MOL0     C35143   6.371   9.532  11.222 -0.5104 -0.8307  0.3025
  980MOL0     C35144   6.522   9.555  11.234  0.4673  0.3204  0.0714
  980MOL0     C35145   6.569   9.670  11.330  0.3465 -0.3311 -0.2864
  980MOL0     C35146   6.728   9.694  11.344 -0.2832  0.0903  0.1277
  980MOL0    Cl35147   6.785   9.732  11.182 -0.2458 -0.5452  0.0121
  980MOL0     C35148   5.840   9.065  11.202  0.2517  0.1280  0.3401
  980MOL0     C35149   5.705   9.040  11.161  0.0973 -0.4859  0.5829
  980MOL0     O35150   5.464   9.295  11.068  0.0949 -0.1056 -0.3082
  980MOL0     C35151   5.204   9.053  11.074 -0.0234  0.0425  0.0166
  980MOL0     C35152   5.069   9.027  11.048  0.9103 -0.1060  0.2217
  980MOL0     N35153   4.272   9.445  11.011 -0.6788 -0.7077 -0.2666
  980MOL0     N35154   4.166   9.490  10.956 -0.5626  0.5000 -0.1139
  980MOL0     C35155   3.009   9.891  10.480  0.8044  0.4227  0.1673
  980MOL0     C35156   2.915   9.990  10.472 -0.5662 -0.4608  0.7965
  980MOL0     C35157   2.784  10.392  10.401  0.2385 -0.0297  0.0199
  980MOL0     C35158   2.645  10.370  10.381 -0.5598  0.0111  0.4306
  980MOL0     C35159   2.568  10.473  10.339  0.7973  0.4440 -0.3567
  980MOL0     C35160   2.624  10.607  10.321  0.0493  0.2091 -0.5374
  980MOL0     O35161   2.558  10.720  10.286 -0.2930 -0.0489 -0.4173
  980MOL0     C35162   2.425  10.699  10.218  0.1106 -0.4804 -0.7142
  980MOL0     C35163   2.376  10.825  10.143  0.9740 -0.1443 -0.1427
  980MOL0     C35164   2.224  10.833  10.149  0.0888  0.7313 -0.5396
  980MOL0     C35165   2.144  10.726  10.068 -0.0019  0.4958 -0.4088
  980MOL0     C35166   2.136  10.754   9.923  0.8684  0.3800 -0.1061
  980MOL0     C35167   2.121  10.764   9.803  0.9674  0.1671 -0.4939
  980MOL0     C35168   2.756  10.631  10.343  0.1177  0.0211  0.1907
  980MOL0     C35169   2.842  10.522  10.377  0.5746  0.4045 -0.2050
  980MOL0     C35170   2.993  10.545  10.387 -0.0580 -0.2104  0.2686
  980MOL0     H35171   3.012  10.163  10.750  0.4629  0.7827  1.2778
  980MOL0     H35172   3.170   9.982  10.766 -0.5177 -2.4224  0.4027
  980MOL0     H35173   3.333   9.853  10.719  0.6648 -1.2351  0.1542
  980MOL0     H35174   3.371   9.841  10.558 -2.1970  1.8509 -1.6453
  980MOL0     H35175   3.311   9.601  10.727 -2.0815  4.8264  1.8952
  980MOL0     H35176   3.404   9.596  10.572  1.6074 -0.6201  2.2212
  980MOL0     H35177   3.597   9.728  10.683 -0.6967  0.6108  0.0856
  980MOL0     H35178   3.509   9.711  10.827 -1.0984 -1.6203  0.7493
  980MOL0     H35179   3.499   9.470  10.810 -0.5718  0.7030 -1.0475
  980MOL0     H35180   3.593   9.473  10.658 -2.0350  2.5229 -1.9502
  980MOL0     H35181   3.701   9.573  10.925 -0.6463 -1.9981  0.8908
  980MOL0     H35182   3.776   9.589  10.761  0.0193  0.8565  0.2207
  980MOL0     H35183   3.689   9.327  10.904  1.8185 -2.8442  0.2976
  980MOL0     H35184   3.754   9.329  10.741 -0.3987  3.6054 -2.1080
  980MOL0     H35185   3.918   9.284  10.934 -0.0204 -0.0395  0.4228
  980MOL0     H35186   3.879   9.435  10.995 -1.9128 -1.5551  0.8054
  980MOL0     H35187   4.003   9.366  10.705 -0.2616  0.3583 -0.5520
  980MOL0     H35188   3.978   9.529  10.783 -0.8767  1.0941  3.3836
  980MOL0     H35189   4.238   9.234  10.772  2.3686 -0.8607  1.3266
  980MOL0     H35190   4.483   9.219  10.861 -0.7898  1.0736 -0.5600
  980MOL0     H35191   4.422   9.165  11.021 -1.7174 -0.6332  0.0249
  980MOL0     H35192   4.578   9.426  10.990  0.0821 -0.8167  0.9066
  980MOL0     H35193   4.497   9.371  11.132 -3.0587 -2.1437  0.4245
  980MOL0     H35194   4.730   9.325  11.148 -1.9593  3.7632 -1.2900
  980MOL0     H35195   4.640   9.168  11.149 -0.6175  0.9844  0.6706
  980MOL0     H35196   4.682   9.122  10.912  0.4960 -4.8783  2.3543
  980MOL0     H35197   4.793   9.270  10.925 -0.3419  0.5548  1.5840
  980MOL0     H35198   4.949   9.333  11.047 -1.0230 -1.6766  2.3078
  980MOL0     H35199   5.237   9.472  11.028 -0.5578 -2.1144 -2.3213
  980MOL0     H35200   5.232   9.443  11.212 -0.5653 -2.1248  0.7686
  980MOL0     H35201   5.089   9.480  11.127  0.6191 -0.3441 -0.5096
  980MOL0     H35202   5.536   9.225  11.391 -1.1052 -2.8716  1.9073
  980MOL0     H35203   5.746   9.279  11.450  1.5681 -0.1529 -0.4432
  980MOL0     H35204   5.946   9.352  11.469  1.8775  1.4249 -0.9919
  980MOL0     H35205   6.005   9.199  11.554 -0.6287 -5.1450 -3.3585
  980MOL0     H35206   6.173   9.388  11.559  2.3610  1.9187 -1.8426
  980MOL0     H35207   6.229   9.242  11.478  0.8532 -0.5581 -0.7906
  980MOL0     H35208   6.140   9.507  11.348 -0.7411  0.4383 -0.4097
  980MOL0     H35209   6.169   9.345  11.258  1.0470 -2.1363  0.7376
  980MOL0     H35210   6.387   9.345  11.331  0.9193  0.0939 -0.4682
  980MOL0     H35211   6.353   9.479  11.439 -1.0283  0.2527 -0.1789
  980MOL0     H35212   6.332   9.493  11.129 -2.6735  2.1832 -0.2086
  980MOL0     H35213   6.328   9.631  11.243  0.1940 -0.9154  2.4626
  980MOL0     H35214   6.550   9.582  11.132  1.2784  0.1328  0.2356
  980MOL0     H35215   6.561   9.457  11.263 -1.5832  0.3521  3.5282
  980MOL0     H35216   6.545   9.632  11.430  3.1313 -2.4674 -0.3370
  980MOL0     H35217   6.523   9.769  11.317 -0.7060 -0.8457 -0.6436
  980MOL0     H35218   6.774   9.602  11.381 -1.1267 -1.4497 -2.4051
  980MOL0     H35219   6.743   9.783  11.406 -1.5069  0.1592  0.3536
  980MOL0     H35220   5.923   9.016  11.152 -0.5290 -0.9609  0.0711
  980MOL0     H35221   5.700   8.966  11.081  1.1372  0.6250 -0.5633
  980MOL0     H35222   5.266   8.963  11.069  1.0694  0.8475 -3.0055
  980MOL0     H35223   5.035   8.924  11.042 -0.1398  0.1385  1.4941
  980MOL0     H35224   3.033   9.813  10.409  1.1125 -0.3417  1.0845
  980MOL0     H35225   2.843  10.008  10.393 -2.1934  0.1993  2.3560
  980MOL0     H35226   2.600  10.272  10.394  0.0057 -0.8178 -2.9889
  980MOL0     H35227   2.464  10.449  10.320  1.2753 -2.7785  0.5788
  980MOL0     H35228   2.402  10.610  10.158  0.9500 -2.6089  1.8915
  980MOL0     H35229   2.352  10.683  10.298 -2.1921 -0.0464 -2.6275
  980MOL0     H35230   2.409  10.825  10.038 -0.9967 -2.8635 -0.8802
  980MOL0     H35231   2.423  10.917  10.179  1.0302 -0.5880  0.9539
  980MOL0     H35232   2.186  10.832  10.251  1.5106 -1.6276  0.0349
  980MOL0     H35233   2.200  10.936  10.120 -0.8859  0.7306  0.2215
  980MOL0     H35234   2.041  10.712  10.101  0.0994  2.0498  0.6479
  980MOL0     H35235   2.191  10.629  10.089 -1.0612 -0.1577 -0.9921
  980MOL0     H35236   2.095  10.771   9.699 -2.7482  1.1484  0.3823
  980MOL0     H35237   2.791  10.730  10.317 -1.0531  0.0334 -1.4975
  980MOL0     H35238   3.030  10.473  10.460 -0.5668 -0.8077 -0.0589
  980MOL0     H35239   3.046  10.536  10.292  1.3094  0.4240  0.9416
  980MOL0     H35240   3.011  10.641  10.436 -3.0585  0.0814  1.0248
  981MOL0     O35241   6.709   8.201   1.846 -0.0806 -0.2865  0.1057
  981MOL0     C35242   6.710   8.118   1.941  0.1288 -0.7058  0.0087
  981MOL0     O35243   6.826   8.075   2.000 -0.0718 -0.0130  0.2257
  981MOL0     C35244   6.943   8.144   1.991 -0.4109 -0.1189  0.2822
  981MOL0     C35245   6.949   8.282   2.022 -0.1541  0.4669 -0.0803
  981MOL0     C35246   7.077   8.339   2.020  0.2062 -0.6156  0.3352
  981MOL0     C35247   7.193   8.268   1.991  0.5445  0.8869 -0.3790
  981MOL0     O35248   7.320   8.325   1.990  0.2126 -0.3429 -0.3242
  981MOL0     C35249   7.393   8.304   2.106 -0.1411 -0.1277 -0.2002
  981MOL0     C35250   7.479   8.421   2.121 -0.8275  0.1825 -0.0882
  981MOL0     C35251   7.601   8.429   2.018  0.6639 -0.1312  0.0540
  981MOL0     C35252   7.683   8.560   2.043 -0.7604  0.1939 -0.2491
  981MOL0     C35253   7.796   8.567   1.935  0.3561  0.6504 -0.3670
  981MOL0     C35254   7.736   8.607   1.798  0.0759  0.0253 -0.1363
  981MOL0     C35255   7.835   8.597   1.684  0.3291 -0.0293  0.0457
  981MOL0     C35256   7.772   8.646   1.552  0.4110 -0.8061  0.6419
  981MOL0     N35257   7.867   8.689   1.450  0.5864  0.5031  0.3141
  981MOL0     C35258   7.913   8.819   1.450 -0.2341 -0.0991  0.5339
  981MOL0     C35259   8.002   8.825   1.343  0.1604  1.0297 -1.0314
  981MOL0     C35260   8.078   8.949   1.310  0.7338 -0.0526  0.2489
  981MOL0     C35261   8.228   8.933   1.263  1.2172  0.9585  0.7483
  981MOL0     C35262   8.298   9.064   1.235  0.2865 -0.3522 -0.1962
  981MOL0     C35263   8.430   9.049   1.153 -0.1173  0.6278 -1.2154
  981MOL0     O35264   8.498   9.176   1.147 -0.1239  0.3579  0.0533
  981MOL0     C35265   8.635   9.165   1.142 -0.1728  0.3095  0.1435
  981MOL0     C35266   8.717   9.254   1.219 -0.0045  0.4808 -0.6873
  981MOL0     C35267   8.859   9.245   1.214 -0.1500  0.0840 -0.4336
  981MOL0     C35268   8.933   9.322   1.317 -0.8795  0.8066 -0.2467
  981MOL0     C35269   8.926   9.153   1.128  0.3720  0.7219  0.3623
  981MOL0     C35270   9.072   9.125   1.110 -0.4625 -0.0011 -0.2877
  981MOL0     O35271   9.108   9.012   1.056 -0.6630  0.0423 -0.1569
  981MOL0     C35272   9.241   8.983   1.037 -0.0534 -0.0465 -0.0416
  981MOL0     C35273   9.340   9.063   0.968 -0.2278 -0.4284  0.2208
  981MOL0     C35274   9.472   9.031   0.958 -0.2601  0.3698  0.3432
  981MOL0     C35275   9.519   8.917   1.020  0.3093  0.4635 -0.4031
  981MOL0     O35276   9.654   8.882   1.010 -0.2590  0.0848  0.1462
  981MOL0     C35277   9.691   8.761   1.065  0.0327  0.6088  0.3788
  981MOL0     C35278   9.834   8.734   1.028  0.1716 -0.7486 -0.0490
  981MOL0     C35279   9.933   8.809   1.122 -0.9721  0.4311  1.1531
  981MOL0     C35280  10.066   8.831   1.050 -0.3487  0.6840  0.0716
  981MOL0     C35281  10.157   8.919   1.128  0.3345  0.3904  0.1999
  981MOL0     C35282  10.309   8.915   1.091  0.0008 -0.1361 -0.0675
  981MOL0     C35283  10.390   9.006   1.180 -0.5539 -0.2421  0.0842
  981MOL0     C35284  10.541   9.002   1.147  0.0690  0.5468 -0.7445
  981MOL0    Cl35285  10.632   9.137   1.209  0.1198 -0.0507  0.3515
  981MOL0     C35286   9.428   8.838   1.097 -0.6086 -1.2735  0.4750
  981MOL0     C35287   9.294   8.870   1.102 -0.3083  0.4947  0.2091
  981MOL0     O35288   9.148   9.211   1.155 -0.5417  0.7764  0.0119
  981MOL0     C35289   8.841   9.067   1.046  0.3813 -0.3887 -0.2370
  981MOL0     C35290   8.699   9.079   1.054  0.5967 -0.2390 -1.3171
  981MOL0     N35291   7.999   8.697   1.281 -0.0767  0.3193 -0.7566
  981MOL0     N35292   7.911   8.618   1.340 -0.4235  0.4995 -0.2420
  981MOL0     C35293   7.184   8.131   1.961  0.4071  0.8113  0.5597
  981MOL0     C35294   7.060   8.071   1.970 -0.9789  0.2751  0.1333
  981MOL0     C35295   6.588   8.046   1.966 -0.2397 -0.0437 -0.3389
  981MOL0     C35296   6.588   7.908   1.953 -0.2282  0.9706  0.8526
  981MOL0     C35297   6.479   7.832   1.964 -0.8791 -0.8291 -0.3176
  981MOL0     C35298   6.357   7.899   1.994 -0.0151  0.9322 -0.5845
  981MOL0     O35299   6.239   7.829   2.009 -0.1523 -0.0128  0.5043
  981MOL0     C35300   6.215   7.714   1.930 -0.5379 -0.1121 -0.3816
  981MOL0     C35301   6.092   7.641   1.972  0.3842 -0.6468  0.0653
  981MOL0     C35302   6.088   7.502   1.905 -0.0713  0.1684  0.3590
  981MOL0     C35303   5.964   7.424   1.934 -0.4929 -0.5717 -0.2541
  981MOL0     C35304   5.950   7.376   2.067  0.9663  0.0268  0.1818
  981MOL0     C35305   5.930   7.338   2.177  0.5893 -0.3018 -0.4998
  981MOL0     C35306   6.350   8.031   2.016 -0.4225  0.3944  0.3852
  981MOL0     C35307   6.466   8.114   1.995  0.7340 -0.7522  1.6732
  981MOL0     C35308   6.437   8.262   2.006 -0.5263  0.3928 -0.8722
  981MOL0     H35309   6.861   8.344   2.039 -1.5641 -1.5509  0.3985
  981MOL0     H35310   7.094   8.446   2.024 -0.0591 -0.6062  3.1811
  981MOL0     H35311   7.450   8.211   2.095 -0.7105 -0.3024 -1.9682
  981MOL0     H35312   7.330   8.294   2.195 -1.5222  2.2759 -0.8155
  981MOL0     H35313   7.413   8.507   2.107 -0.4218  0.7301  1.2481
  981MOL0     H35314   7.519   8.428   2.223  1.4268  2.7186 -1.0105
  981MOL0     H35315   7.664   8.340   2.027 -0.0776 -0.9050 -1.8563
  981MOL0     H35316   7.566   8.430   1.915  3.9792  2.9682 -1.2422
  981MOL0     H35317   7.609   8.639   2.029 -1.5581 -0.5055 -0.0570
  981MOL0     H35318   7.741   8.560   2.136  4.0777 -1.1220 -2.8923
  981MOL0     H35319   7.839   8.467   1.932 -1.9840 -0.5038  1.4588
  981MOL0     H35320   7.878   8.634   1.961  1.6142 -1.7278  2.2794
  981MOL0     H35321   7.658   8.534   1.772  0.0314 -1.1104  2.7938
  981MOL0     H35322   7.688   8.704   1.814 -2.8106 -1.4558  0.8734
  981MOL0     H35323   7.865   8.492   1.672  1.5075  0.0626  1.8729
  981MOL0     H35324   7.923   8.659   1.706  0.3931  0.1973 -0.7916
  981MOL0     H35325   7.704   8.568   1.516 -1.4923  0.7451  0.7136
  981MOL0     H35326   7.706   8.731   1.570  0.1118 -0.9839  0.4007
  981MOL0     H35327   7.897   8.900   1.522 -0.0947 -1.8610  2.6466
  981MOL0     H35328   8.085   9.017   1.396  2.0056  0.9104 -0.5796
  981MOL0     H35329   8.025   8.994   1.226 -1.6468 -5.4259 -1.5293
  981MOL0     H35330   8.266   8.872   1.345 -2.8925 -2.1390  0.6717
  981MOL0     H35331   8.228   8.869   1.174 -0.9777  1.1680  0.5502
  981MOL0     H35332   8.226   9.132   1.188 -1.9049 -2.9029 -0.7759
  981MOL0     H35333   8.307   9.113   1.333 -2.5624 -1.1583  0.5602
  981MOL0     H35334   8.485   8.970   1.205 -0.5773  0.2670 -1.2698
  981MOL0     H35335   8.402   9.020   1.051  0.4948 -2.2933 -0.6459
  981MOL0     H35336   8.668   9.317   1.292  0.5887  0.5049 -0.3084
  981MOL0     H35337   8.998   9.255   1.373 -0.1008  1.0976 -0.7779
  981MOL0     H35338   8.871   9.368   1.395 -0.2044  2.3913 -0.6081
  981MOL0     H35339   8.984   9.400   1.259  1.2577 -2.2558 -2.8640
  981MOL0     H35340   9.315   9.162   0.933 -0.3923 -0.3935  0.4375
  981MOL0     H35341   9.543   9.098   0.910 -1.4258  0.5186 -1.2592
  981MOL0     H35342   9.683   8.750   1.173 -1.3327  0.6663  0.2977
  981MOL0     H35343   9.625   8.688   1.018  0.5836  0.4080 -0.0984
  981MOL0     H35344   9.847   8.626   1.035 -2.7167 -1.0874  2.7537
  981MOL0     H35345   9.844   8.756   0.922 -1.7577  0.2221 -0.0769
  981MOL0     H35346   9.944   8.748   1.212  0.1399  0.4005  1.0070
  981MOL0     H35347   9.888   8.907   1.142  1.3682  1.7056  0.5943
  981MOL0     H35348  10.054   8.876   0.951  0.3971 -0.8264 -0.7493
  981MOL0     H35349  10.114   8.733   1.050 -0.3021  0.6948  1.3821
  981MOL0     H35350  10.127   9.021   1.101 -3.2882 -0.3337  0.9552
  981MOL0     H35351  10.134   8.903   1.234 -1.1586  0.1500 -0.1413
  981MOL0     H35352  10.319   8.945   0.986 -0.2376  0.7379  0.1574
  981MOL0     H35353  10.342   8.811   1.096 -0.3131 -0.2052  0.6606
  981MOL0     H35354  10.370   8.991   1.287 -1.4156  0.3953  0.0244
  981MOL0     H35355  10.363   9.111   1.163  0.1038 -0.1344 -0.3410
  981MOL0     H35356  10.550   9.005   1.038 -1.5145  0.9904 -0.8854
  981MOL0     H35357  10.580   8.902   1.169 -1.3065  0.2171  0.3187
  981MOL0     H35358   9.465   8.756   1.158  1.2084 -0.6468  0.2627
  981MOL0     H35359   9.225   8.808   1.157  0.4387 -0.4986  0.0445
  981MOL0     H35360   8.881   8.980   0.994  2.7921  0.8669 -0.6340
  981MOL0     H35361   8.634   9.027   0.985 -1.0417  1.6893 -1.3324
  981MOL0     H35362   7.268   8.066   1.940 -0.4835 -1.0245  2.3506
  981MOL0     H35363   7.053   7.964   1.955 -0.7958  0.2215  0.4132
  981MOL0     H35364   6.685   7.862   1.934 -0.4897  1.1043 -1.0100
  981MOL0     H35365   6.482   7.723   1.969  0.9683 -0.7980 -0.2941
  981MOL0     H35366   6.215   7.727   1.821  0.6894 -0.3954 -0.4320
  981MOL0     H35367   6.298   7.647   1.954 -1.4608 -0.6177  1.6024
  981MOL0     H35368   6.006   7.698   1.938  0.1061 -1.0517  0.0893
  981MOL0     H35369   6.086   7.622   2.080  0.6630 -1.1772 -0.0109
  981MOL0     H35370   6.091   7.515   1.796 -1.3359 -2.3900 -0.0367
  981MOL0     H35371   6.177   7.446   1.935 -0.8944 -2.1220 -1.1939
  981MOL0     H35372   5.954   7.348   1.856 -1.5512 -0.6615 -0.0516
  981MOL0     H35373   5.880   7.493   1.919  0.8336  0.4654 -4.1885
  981MOL0     H35374   5.922   7.319   2.282 -1.0466  0.3830 -0.4632
  981MOL0     H35375   6.254   8.071   2.046  0.7029  3.5932  0.1379
  981MOL0     H35376   6.528   8.304   2.051  0.4273 -2.2614 -0.1578
  981MOL0     H35377   6.427   8.304   1.906  2.9482  2.7273 -0.4514
  981MOL0     H35378   6.343   8.276   2.060 -0.5223 -1.2849 -0.3758
  982MOL0     O35379   3.882   3.089   8.400 -0.0466  0.3460 -0.9221
  982MOL0     C35380   3.829   3.027   8.491 -0.6124 -0.3289  0.2086
  982MOL0     O35381   3.807   3.076   8.613  1.0786 -0.5690 -0.4718
  982MOL0     C35382   3.814   3.208   8.645  0.5780  0.3921 -0.3948
  982MOL0     C35383   3.698   3.279   8.666  0.8687 -1.2169 -0.5923
  982MOL0     C35384   3.703   3.412   8.699 -0.7843  0.1658  0.4364
  982MOL0     C35385   3.819   3.482   8.687 -0.4870  0.4823 -0.4667
  982MOL0     O35386   3.803   3.620   8.709 -0.1958 -0.1222 -0.7010
  982MOL0     C35387   3.915   3.692   8.753  0.9451  0.1898 -0.2660
  982MOL0     C35388   3.859   3.826   8.831 -0.1575  0.4258  0.3353
  982MOL0     C35389   3.988   3.903   8.865 -0.1441  0.5036  0.5983
  982MOL0     C35390   3.951   4.044   8.910 -0.2409 -0.3822  0.4173
  982MOL0     C35391   4.069   4.135   8.917  0.1374  0.2198  0.1450
  982MOL0     C35392   4.164   4.102   9.043 -0.5384  0.5405 -0.2169
  982MOL0     C35393   4.267   4.212   9.069  0.6187  0.6336 -0.0349
  982MOL0     C35394   4.343   4.211   9.205 -0.5110 -0.9259  0.0115
  982MOL0     N35395   4.418   4.087   9.226  0.3652 -0.1987 -0.6426
  982MOL0     C35396   4.483   4.022   9.125 -0.4362  0.3931 -0.1988
  982MOL0     C35397   4.513   3.904   9.182  0.1692  0.6465  0.5500
  982MOL0     C35398   4.596   3.795   9.125  0.0704 -0.2201  0.4755
  982MOL0     C35399   4.736   3.790   9.189  0.1680 -1.4861 -0.2071
  982MOL0     C35400   4.834   3.684   9.128 -0.8451  0.5223 -0.5348
  982MOL0     C35401   4.958   3.649   9.217  0.1960 -0.8613 -0.2129
  982MOL0     O35402   4.987   3.759   9.308 -0.8921 -0.1254 -0.0080
  982MOL0     C35403   5.113   3.764   9.361  0.6376 -0.0506  0.2386
  982MOL0     C35404   5.219   3.673   9.342  0.0767 -0.1387 -0.1476
  982MOL0     C35405   5.339   3.690   9.406 -1.2731 -0.1472 -0.6369
  982MOL0     C35406   5.431   3.568   9.406 -0.9211  0.7408 -0.1425
  982MOL0     C35407   5.360   3.816   9.483  0.1102  0.7138 -0.7980
  982MOL0     C35408   5.486   3.849   9.551 -0.2847 -0.8881  0.2443
  982MOL0     O35409   5.483   3.980   9.608  0.2479 -0.5886  0.4773
  982MOL0     C35410   5.591   4.008   9.691 -0.1168 -0.3303  0.0286
  982MOL0     C35411   5.608   3.954   9.819 -0.1627 -0.2084 -0.7754
  982MOL0     C35412   5.720   3.992   9.896 -0.0566 -0.0281 -0.2912
  982MOL0     C35413   5.807   4.079   9.843 -1.0231 -0.4677 -0.0545
  982MOL0     O35414   5.913   4.112   9.919  0.5163 -0.0765  0.5373
  982MOL0     C35415   6.038   4.141   9.862  0.1355  0.4313  0.0831
  982MOL0     C35416   6.156   4.090   9.944 -0.0638 -0.2840  0.6475
  982MOL0     C35417   6.128   4.129  10.090 -0.4240 -0.9294 -0.0923
  982MOL0     C35418   6.264   4.110  10.180  0.7323  0.5070  0.8810
  982MOL0     C35419   6.362   4.218  10.160 -0.0574 -0.0489  0.5056
  982MOL0     C35420   6.462   4.227  10.271 -0.6482  0.0758 -0.6834
  982MOL0     C35421   6.566   4.121  10.240 -0.0913 -0.1589  0.9150
  982MOL0     C35422   6.667   4.087  10.348 -0.2368 -0.3121  0.1477
  982MOL0    Cl35423   6.581   4.060  10.509  0.1393  0.3549  0.4282
  982MOL0     C35424   5.796   4.139   9.709  0.0782  0.0237 -0.4497
  982MOL0     C35425   5.688   4.091   9.631  0.2992  0.5897 -0.1373
  982MOL0     O35426   5.578   3.766   9.560  0.7240 -0.2337  0.1500
  982MOL0     C35427   5.251   3.904   9.490  0.1184 -0.9495  0.1300
  982MOL0     C35428   5.129   3.875   9.434 -0.1843  0.4503  0.9627
  982MOL0     N35429   4.456   3.888   9.308 -0.5847  0.1103  1.1418
  982MOL0     N35430   4.399   3.998   9.331  0.6820  0.3172  0.0431
  982MOL0     C35431   3.942   3.410   8.680  0.3532  0.0929  0.9729
  982MOL0     C35432   3.938   3.273   8.655  0.1106  0.1717  0.2897
  982MOL0     C35433   3.827   2.877   8.477 -0.5510  1.0041  0.4419
  982MOL0     C35434   3.764   2.810   8.580  0.3490 -0.5915 -0.2826
  982MOL0     C35435   3.759   2.671   8.583 -0.4636 -1.1786  0.4140
  982MOL0     C35436   3.818   2.589   8.479  0.0448 -0.5380 -0.0355
  982MOL0     O35437   3.814   2.455   8.469 -0.3305  0.0921  0.9685
  982MOL0     C35438   3.772   2.372   8.577  0.0565 -0.6350 -0.3548
  982MOL0     C35439   3.857   2.370   8.701  1.0061 -0.2069 -0.1778
  982MOL0     C35440   4.008   2.327   8.666  0.4541 -0.3699  0.2108
  982MOL0     C35441   4.089   2.344   8.790 -0.1471  0.4735  0.3576
  982MOL0     C35442   4.217   2.282   8.772 -0.1138  0.1179 -0.1051
  982MOL0     C35443   4.333   2.239   8.777  0.1755  0.3299 -0.5695
  982MOL0     C35444   3.882   2.659   8.371  0.0550 -0.3721 -0.0906
  982MOL0     C35445   3.897   2.799   8.375 -0.7458  0.1730  0.0252
  982MOL0     C35446   3.977   2.867   8.269 -0.5904  0.0691 -0.1297
  982MOL0     H35447   3.594   3.250   8.660  1.0527 -2.3916  1.2312
  982MOL0     H35448   3.613   3.469   8.721  0.2478  0.8502  3.3001
  982MOL0     H35449   3.976   3.724   8.668  2.4259 -0.3270  0.5794
  982MOL0     H35450   3.967   3.631   8.827 -3.8268 -2.2745  1.4579
  982MOL0     H35451   3.786   3.883   8.774 -1.0267 -0.7806  0.1869
  982MOL0     H35452   3.815   3.800   8.928 -0.2240  0.7622  0.3966
  982MOL0     H35453   4.038   3.855   8.949  2.0226 -1.3995 -1.6237
  982MOL0     H35454   4.054   3.899   8.778 -2.4815 -1.9974 -1.2407
  982MOL0     H35455   3.886   4.097   8.839  0.0604  0.3388  0.6631
  982MOL0     H35456   3.904   4.023   9.007  3.7177 -4.3361  1.7774
  982MOL0     H35457   4.037   4.240   8.923  0.9935  0.7474 -2.6120
  982MOL0     H35458   4.110   4.128   8.815 -1.6745 -1.6006 -0.5242
  982MOL0     H35459   4.099   4.092   9.130 -1.1008  1.7237 -0.4765
  982MOL0     H35460   4.215   4.008   9.020 -2.6616 -1.2982  2.0382
  982MOL0     H35461   4.197   4.296   9.082  0.5566  0.5721  0.0264
  982MOL0     H35462   4.330   4.224   8.981 -1.1501 -2.0871 -1.8190
  982MOL0     H35463   4.419   4.288   9.223 -0.9284 -0.2857 -0.8974
  982MOL0     H35464   4.262   4.234   9.276 -1.4629 -0.6092 -1.1459
  982MOL0     H35465   4.519   4.058   9.030 -0.4172  0.3265 -0.2167
  982MOL0     H35466   4.609   3.805   9.016  1.6247  0.7817  0.7211
  982MOL0     H35467   4.544   3.700   9.144 -0.8416 -0.2259 -1.7136
  982MOL0     H35468   4.785   3.886   9.170 -0.3287 -1.3746 -0.9334
  982MOL0     H35469   4.724   3.772   9.297 -0.0940  0.3293  0.0981
  982MOL0     H35470   4.777   3.592   9.114 -3.7039  2.3416 -1.9415
  982MOL0     H35471   4.871   3.714   9.030 -1.5299 -0.5969 -1.1544
  982MOL0     H35472   4.934   3.558   9.273 -1.6389 -0.3659 -0.1222
  982MOL0     H35473   5.046   3.621   9.158 -0.5821 -2.8124 -0.5297
  982MOL0     H35474   5.190   3.585   9.285 -1.1515  1.4010 -2.0648
  982MOL0     H35475   5.531   3.607   9.387 -0.9558  0.1393 -1.6615
  982MOL0     H35476   5.394   3.508   9.323  0.3694  1.5356 -1.3325
  982MOL0     H35477   5.438   3.523   9.505 -1.1918  0.0600 -0.4322
  982MOL0     H35478   5.537   3.882   9.858 -0.0875 -0.2813 -0.7739
  982MOL0     H35479   5.737   3.940   9.990  0.2390  1.0584  0.2755
  982MOL0     H35480   6.053   4.103   9.760  1.9761 -0.9781  0.8226
  982MOL0     H35481   6.044   4.246   9.830  0.6448 -0.4733 -3.2230
  982MOL0     H35482   6.158   3.981   9.929 -3.0312 -0.0877 -2.6313
  982MOL0     H35483   6.246   4.141   9.909  0.8957 -1.0549  1.8874
  982MOL0     H35484   6.053   4.064  10.137 -0.2909 -0.2417  1.1190
  982MOL0     H35485   6.083   4.229  10.088  1.0733 -0.1611  1.7238
  982MOL0     H35486   6.304   4.009  10.172  3.1559  1.5142 -0.9412
  982MOL0     H35487   6.233   4.102  10.284 -0.5960 -1.0777  0.4089
  982MOL0     H35488   6.415   4.211  10.064  1.5189  0.8752  1.2687
  982MOL0     H35489   6.301   4.309  10.162 -0.0439  0.0593 -1.6288
  982MOL0     H35490   6.425   4.205  10.372  1.4503  1.7819  0.5528
  982MOL0     H35491   6.513   4.323  10.284 -0.4425 -0.1417  0.1775
  982MOL0     H35492   6.620   4.142  10.147 -0.5768  0.3444  0.7417
  982MOL0     H35493   6.521   4.025  10.211 -1.4898  0.8723 -0.4406
  982MOL0     H35494   6.724   4.178  10.371  0.7312 -1.0801  0.8508
  982MOL0     H35495   6.724   3.998  10.320 -0.6257 -0.6193  0.3288
  982MOL0     H35496   5.866   4.207   9.662  1.3468  0.0619  1.3869
  982MOL0     H35497   5.677   4.139   9.534 -2.1329  2.0285  0.7469
  982MOL0     H35498   5.260   4.000   9.541 -0.1292 -0.0804 -1.3930
  982MOL0     H35499   5.052   3.947   9.459  1.3559  1.8127  1.9792
  982MOL0     H35500   4.038   3.460   8.672 -0.7289  2.1425 -5.4827
  982MOL0     H35501   4.031   3.218   8.641  0.1152  0.0879  0.6388
  982MOL0     H35502   3.722   2.861   8.666 -1.2983  0.6311 -1.7586
  982MOL0     H35503   3.736   2.614   8.673  1.8407 -0.5616  1.4691
  982MOL0     H35504   3.676   2.412   8.612  0.6694 -0.7526  1.5462
  982MOL0     H35505   3.743   2.272   8.543 -0.3402 -1.1544  1.3990
  982MOL0     H35506   3.821   2.297   8.774  1.0619 -0.4983 -0.4408
  982MOL0     H35507   3.854   2.469   8.748 -0.8150  0.1493 -0.9641
  982MOL0     H35508   3.998   2.221   8.639  0.4607  0.4205 -3.3536
  982MOL0     H35509   4.051   2.380   8.580 -1.0085  0.1736 -0.2186
  982MOL0     H35510   4.048   2.286   8.873 -0.1636 -1.5760 -1.0201
  982MOL0     H35511   4.093   2.451   8.811  1.7655  0.4361  0.3398
  982MOL0     H35512   4.437   2.216   8.786 -0.0490 -0.0535  1.6972
  982MOL0     H35513   3.942   2.606   8.298  0.0615  0.7868 -0.9639
  982MOL0     H35514   4.008   2.797   8.191 -1.9250  1.2332 -1.8123
  982MOL0     H35515   3.920   2.942   8.213 -0.2063 -0.6078 -1.4741
  982MOL0     H35516   4.068   2.908   8.313  0.5109  2.0487 -3.7471
  983MOL0     O35517  10.994   9.683   6.940 -0.6702 -1.0066  0.3162
  983MOL0     C35518  10.867   9.692   6.927 -0.4493 -0.1620  0.7491
  983MOL0     O35519  10.806   9.781   6.850  0.3050  0.0578  0.3203
  983MOL0     C35520  10.873   9.884   6.797  0.1157 -0.1967  0.5168
  983MOL0     C35521  10.864   9.922   6.661  0.7728  1.0128 -0.3489
  983MOL0     C35522  10.966  10.007   6.601  0.3753  0.2660  0.0438
  983MOL0     C35523  11.052  10.074   6.686 -0.8502  0.6115 -1.4411
  983MOL0     O35524  11.153  10.157   6.640  0.1978 -0.1881  0.0439
  983MOL0     C35525  11.195  10.273   6.724 -0.5547 -0.3814  0.1395
  983MOL0     C35526  11.285  10.362   6.632  0.2645 -0.2436  0.5086
  983MOL0     C35527  11.407  10.283   6.571 -0.7551  0.0708  0.2163
  983MOL0     C35528  11.468  10.364   6.458  0.4756  0.1532 -0.4853
  983MOL0     C35529  11.615  10.325   6.434  0.2867 -0.2385 -0.1668
  983MOL0     C35530  11.671  10.414   6.320 -0.9237  0.0348  0.7192
  983MOL0     C35531  11.825  10.387   6.283 -0.0295  0.8732  0.4114
  983MOL0     C35532  11.921  10.426   6.394 -0.2238  0.0176  0.5814
  983MOL0     N35533  11.941  10.573   6.401  0.1509 -1.0901 -0.2697
  983MOL0     C35534  11.896  10.650   6.507  0.3365  0.3354 -0.6502
  983MOL0     C35535  11.948  10.771   6.497 -0.9081 -0.8426 -0.1974
  983MOL0     C35536  11.928  10.888   6.595  0.0074 -0.4749  0.1217
  983MOL0     C35537  11.995  10.868   6.740  0.1016  0.1109 -0.4097
  983MOL0     C35538  12.151  10.854   6.724  0.5781 -1.1384 -0.9029
  983MOL0     C35539  12.213  10.986   6.691  0.8829  0.1340 -0.4038
  983MOL0     O35540  12.355  10.975   6.673  0.0904 -0.3101  0.4125
  983MOL0     C35541  12.419  11.069   6.589 -0.4127  0.6070  0.0103
  983MOL0     C35542  12.556  11.043   6.550 -0.5016 -0.5254  0.8664
  983MOL0     C35543  12.629  11.137   6.468  0.3131  0.6828  0.1761
  983MOL0     C35544  12.775  11.107   6.442 -0.0855  0.1537 -0.1975
  983MOL0     C35545  12.559  11.250   6.413  0.1241  0.0256  0.9373
  983MOL0     C35546  12.620  11.349   6.325 -0.0456  0.0297  0.8370
  983MOL0     O35547  12.543  11.390   6.214 -0.0055 -0.3169 -0.5176
  983MOL0     C35548  12.613  11.434   6.106  0.1116  0.3214 -0.3887
  983MOL0     C35549  12.540  11.505   6.012  0.4819 -0.5254 -0.0597
  983MOL0     C35550  12.603  11.556   5.895  0.1842  0.6600  0.3209
  983MOL0     C35551  12.744  11.538   5.884  0.0621  0.2312  0.0027
  983MOL0     O35552  12.802  11.594   5.770 -0.1595 -0.0789  0.4378
  983MOL0     C35553  12.946  11.607   5.754 -0.0199 -1.1496  0.3868
  983MOL0     C35554  12.974  11.666   5.612 -0.5323  0.0348  0.2973
  983MOL0     C35555  13.124  11.669   5.580 -0.2187  0.1417 -0.7813
  983MOL0     C35556  13.224  11.711   5.684  0.8584 -0.1312 -0.0621
  983MOL0     C35557  13.201  11.860   5.727 -0.2788  0.2679  1.1379
  983MOL0     C35558  13.335  11.921   5.784  0.1997 -0.2691  0.4536
  983MOL0     C35559  13.356  11.868   5.920 -0.1334 -0.2158 -0.6781
  983MOL0     C35560  13.468  11.940   5.998 -0.7649 -0.2819 -0.3476
  983MOL0    Cl35561  13.446  11.907   6.174  0.0224 -0.2164  0.2376
  983MOL0     C35562  12.811  11.451   5.967 -1.5110  0.4512 -0.4136
  983MOL0     C35563  12.746  11.389   6.071 -0.6448 -0.7288  0.2361
  983MOL0     O35564  12.725  11.396   6.364  0.0273  0.3339 -1.0242
  983MOL0     C35565  12.427  11.271   6.459  1.1962 -0.4603  0.3616
  983MOL0     C35566  12.361  11.184   6.540 -0.2667  0.6302 -0.1653
  983MOL0     N35567  12.032  10.775   6.384  0.2637  0.1985  0.1782
  983MOL0     N35568  12.023  10.653   6.330  0.0752 -0.8678  0.1139
  983MOL0     C35569  11.055  10.049   6.830  0.1359 -0.6437  0.1143
  983MOL0     C35570  10.963   9.958   6.879 -0.5124 -0.5968 -0.7917
  983MOL0     C35571  10.791   9.592   7.008  0.3601  0.2111  0.0214
  983MOL0     C35572  10.842   9.469   7.057  0.1202 -0.5743 -0.6014
  983MOL0     C35573  10.765   9.378   7.129  0.2877 -0.1709  0.1626
  983MOL0     C35574  10.636   9.404   7.163  0.7536  0.1349 -0.4326
  983MOL0     O35575  10.566   9.314   7.247  0.7862 -0.2963 -0.5905
  983MOL0     C35576  10.473   9.369   7.346  0.0915 -0.6525 -0.0761
  983MOL0     C35577  10.537   9.470   7.431  0.0221 -0.0069  0.2313
  983MOL0     C35578  10.435   9.538   7.521  0.6919  0.0207 -0.4603
  983MOL0     C35579  10.413   9.474   7.662  0.1571 -0.2184 -0.3047
  983MOL0     C35580  10.319   9.369   7.647 -1.1853  0.1789 -0.5264
  983MOL0     C35581  10.255   9.268   7.619 -0.9328 -0.4162  0.8764
  983MOL0     C35582  10.579   9.517   7.113  0.7329  0.3012  0.2996
  983MOL0     C35583  10.655   9.616   7.043  0.0150  0.4147 -1.1036
  983MOL0     C35584  10.578   9.739   7.015  0.5245  0.0664  0.3859
  983MOL0     H35585  10.797   9.879   6.587 -0.7622  3.4175 -0.4801
  983MOL0     H35586  10.972  10.028   6.495  1.1357  2.7666  0.5297
  983MOL0     H35587  11.250  10.243   6.814 -1.2125  1.3884  1.1889
  983MOL0     H35588  11.108  10.325   6.766  1.4385  2.5526  0.9376
  983MOL0     H35589  11.219  10.400   6.554  2.3149  3.2720  0.2589
  983MOL0     H35590  11.313  10.451   6.690  2.3176 -0.5649  0.0975
  983MOL0     H35591  11.484  10.262   6.646  1.8776  3.0891 -1.3954
  983MOL0     H35592  11.373  10.186   6.533  1.0260 -1.6299  2.5864
  983MOL0     H35593  11.405  10.349   6.370 -1.3855  2.0189  0.4436
  983MOL0     H35594  11.463  10.470   6.487  1.5974  0.3182 -0.8270
  983MOL0     H35595  11.625  10.217   6.416  2.0501 -0.0540 -0.4929
  983MOL0     H35596  11.675  10.351   6.522 -0.1409 -1.0394  0.3754
  983MOL0     H35597  11.621  10.388   6.226  1.1203 -0.8357 -0.2036
  983MOL0     H35598  11.660  10.520   6.344  0.0118  0.3738 -0.2202
  983MOL0     H35599  11.857  10.443   6.194  2.2011  3.5519  2.7099
  983MOL0     H35600  11.838  10.279   6.269  0.0425  0.6188  2.2635
  983MOL0     H35601  11.899  10.381   6.491 -0.7024 -0.1085  0.4178
  983MOL0     H35602  12.018  10.393   6.355 -2.1067 -1.6501 -3.3186
  983MOL0     H35603  11.839  10.602   6.585  1.1249  1.3335  0.5938
  983MOL0     H35604  11.819  10.890   6.599 -0.2738 -3.0493 -2.6559
  983MOL0     H35605  11.965  10.977   6.544  0.8513 -0.0812  1.3906
  983MOL0     H35606  11.969  10.953   6.804  1.4124 -0.6525  1.2210
  983MOL0     H35607  11.953  10.778   6.785  0.4666  0.0210 -0.2430
  983MOL0     H35608  12.192  10.824   6.821 -0.6516  1.3246  0.4738
  983MOL0     H35609  12.179  10.793   6.638  2.2374  0.0618 -1.2735
  983MOL0     H35610  12.157  11.029   6.607  0.1656 -0.7565 -0.3986
  983MOL0     H35611  12.202  11.051   6.778  1.4564  0.3690 -0.4960
  983MOL0     H35612  12.592  10.943   6.573  0.7683  0.1539  1.9328
  983MOL0     H35613  12.804  11.003   6.454  1.9216  0.5669 -1.1132
  983MOL0     H35614  12.839  11.171   6.505  0.4483  0.8047 -1.3645
  983MOL0     H35615  12.797  11.121   6.336  2.6170 -2.0527 -0.0388
  983MOL0     H35616  12.434  11.512   6.031  0.2910  0.4180 -1.3195
  983MOL0     H35617  12.548  11.613   5.821  0.7950  1.5598  0.5410
  983MOL0     H35618  12.972  11.673   5.838  0.7490  2.0829 -2.1777
  983MOL0     H35619  12.997  11.511   5.764 -3.5959 -3.1085  1.5902
  983MOL0     H35620  12.921  11.605   5.538 -0.8916  1.6952 -0.8799
  983MOL0     H35621  12.931  11.767   5.602  2.4510  1.5605  1.6649
  983MOL0     H35622  13.146  11.723   5.487  0.8438 -0.8787 -1.1453
  983MOL0     H35623  13.140  11.561   5.571  0.5758  0.1130  0.7867
  983MOL0     H35624  13.322  11.705   5.636  0.6037  1.8213 -0.9566
  983MOL0     H35625  13.217  11.640   5.767 -0.8750  0.9316  0.7559
  983MOL0     H35626  13.180  11.918   5.637  0.1826 -0.9874  0.1860
  983MOL0     H35627  13.120  11.876   5.799  0.3685  0.4605  1.8352
  983MOL0     H35628  13.317  12.029   5.783  0.8450 -0.1525 -0.5062
  983MOL0     H35629  13.425  11.899   5.725  0.6950 -1.5172  1.6261
  983MOL0     H35630  13.386  11.763   5.915 -1.3210 -0.5310 -3.5734
  983MOL0     H35631  13.265  11.879   5.978 -0.4416 -2.5224 -0.6209
  983MOL0     H35632  13.469  12.048   5.984  0.0895  0.2026  2.7864
  983MOL0     H35633  13.562  11.901   5.958  1.0599  3.4479 -0.1236
  983MOL0     H35634  12.919  11.437   5.964 -1.2670  2.1799 -1.4913
  983MOL0     H35635  12.808  11.333   6.140 -0.4412 -0.7002  0.0780
  983MOL0     H35636  12.371  11.358   6.427 -0.9558 -1.1091  2.1713
  983MOL0     H35637  12.261  11.220   6.560 -0.5468 -0.4196  0.4106
  983MOL0     H35638  11.131  10.095   6.892 -0.9331  0.7289  0.4863
  983MOL0     H35639  10.971   9.933   6.985 -0.3982  0.7661 -0.4577
  983MOL0     H35640  10.946   9.443   7.038 -0.2465 -1.7154 -1.0832
  983MOL0     H35641  10.805   9.288   7.175 -0.8163 -0.9706 -0.3921
  983MOL0     H35642  10.395   9.424   7.293  2.0642  0.9777 -1.4718
  983MOL0     H35643  10.428   9.293   7.411 -1.2223 -0.0665 -0.2769
  983MOL0     H35644  10.582   9.553   7.376 -0.5828  0.1126 -0.0865
  983MOL0     H35645  10.621   9.426   7.487  1.1324  1.6481 -0.0650
  983MOL0     H35646  10.479   9.636   7.540 -0.4762 -0.0381  3.1407
  983MOL0     H35647  10.340   9.556   7.470  0.7431  1.0153 -0.2187
  983MOL0     H35648  10.369   9.554   7.722 -1.4073 -0.0734 -1.5939
  983MOL0     H35649  10.504   9.442   7.713  0.9652  0.1963 -1.4470
  983MOL0     H35650  10.199   9.177   7.604  0.2645 -0.9702 -0.4907
  983MOL0     H35651  10.475   9.540   7.136  0.2629 -1.2606 -0.1652
  983MOL0     H35652  10.472   9.733   7.044  0.0962 -0.3243 -1.1318
  983MOL0     H35653  10.631   9.829   7.046  0.3711  0.3056 -0.0347
  983MOL0     H35654  10.577   9.754   6.906  1.5268  2.7893  0.7002
  984MOL0     O35655   8.983   5.496   1.665 -0.1736  0.6738  0.6252
  984MOL0     C35656   8.937   5.387   1.644  0.1355 -0.1984  0.3348
  984MOL0     O35657   8.823   5.344   1.701  0.2070  0.5294 -0.3728
  984MOL0     C35658   8.725   5.428   1.750  0.6297  0.4913  0.3563
  984MOL0     C35659   8.703   5.567   1.711 -0.6227 -0.7900  0.0570
  984MOL0     C35660   8.591   5.635   1.761 -0.6390 -0.4126  0.2105
  984MOL0     C35661   8.506   5.569   1.862  0.0043 -0.0781 -0.7854
  984MOL0     O35662   8.396   5.639   1.906  0.1177  0.3021 -0.1323
  984MOL0     C35663   8.272   5.572   1.875  0.4734 -0.7213 -0.0472
  984MOL0     C35664   8.152   5.655   1.924 -0.4996  0.2245  0.0553
  984MOL0     C35665   8.150   5.695   2.079  1.0591  0.8541 -0.3561
  984MOL0     C35666   8.067   5.818   2.104 -0.2601 -0.4570 -0.7553
  984MOL0     C35667   8.032   5.823   2.255  0.1777  0.2510  0.1071
  984MOL0     C35668   7.949   5.945   2.291 -0.7285 -0.2574 -0.3843
  984MOL0     C35669   7.896   5.941   2.425  0.6047 -0.2067  0.1948
  984MOL0     C35670   7.796   6.050   2.462 -0.8134 -0.9410  0.0760
  984MOL0     N35671   7.855   6.186   2.462 -0.4773 -1.0272  0.1852
  984MOL0     C35672   7.947   6.237   2.550 -0.1050  0.1056  0.7015
  984MOL0     C35673   7.969   6.361   2.502  0.7854  0.1839  0.4556
  984MOL0     C35674   8.065   6.455   2.553  0.6306 -0.3264  0.3978
  984MOL0     C35675   8.201   6.436   2.488 -0.4903  0.0780 -0.2583
  984MOL0     C35676   8.263   6.296   2.530 -0.3556 -0.2166 -0.4542
  984MOL0     C35677   8.412   6.290   2.491 -0.7114 -0.1032  0.0293
  984MOL0     O35678   8.488   6.379   2.575 -0.4194  0.6358 -0.1995
  984MOL0     C35679   8.624   6.373   2.553 -0.0211 -0.3821 -0.3296
  984MOL0     C35680   8.702   6.473   2.615 -0.1557 -0.3065  0.0365
  984MOL0     C35681   8.845   6.484   2.622  0.4788  0.9586 -0.6816
  984MOL0     C35682   8.904   6.596   2.704  0.2481 -0.9942  0.4193
  984MOL0     C35683   8.915   6.385   2.559  0.1227  0.0651  0.1866
  984MOL0     C35684   9.059   6.374   2.555 -0.3171  0.7722 -0.2559
  984MOL0     O35685   9.106   6.249   2.549 -0.5850 -0.2918  0.4679
  984MOL0     C35686   9.237   6.228   2.558 -0.6315  0.7406  0.4849
  984MOL0     C35687   9.299   6.205   2.682 -0.0480  0.4449  0.2412
  984MOL0     C35688   9.431   6.185   2.698 -0.0967  0.2973 -0.2098
  984MOL0     C35689   9.511   6.184   2.585 -0.2812  0.6500  0.6366
  984MOL0     O35690   9.655   6.185   2.599  0.6904 -0.4912  0.1267
  984MOL0     C35691   9.738   6.087   2.532 -0.0574 -0.9349 -0.0307
  984MOL0     C35692   9.881   6.138   2.559 -0.0380  1.1149 -0.1845
  984MOL0     C35693   9.970   6.023   2.514  0.0362  0.2104  0.9766
  984MOL0     C35694  10.103   6.053   2.575  0.0576 -0.1795 -0.0716
  984MOL0     C35695  10.174   5.918   2.570 -0.0454 -0.8427 -0.8211
  984MOL0     C35696  10.322   5.928   2.621 -0.2351  0.0877  0.4401
  984MOL0     C35697  10.326   6.000   2.760 -1.0750  0.2895 -0.2242
  984MOL0     C35698  10.448   5.945   2.842  0.7073  0.4873 -0.0354
  984MOL0    Cl35699  10.602   5.970   2.752  0.4324  0.3241  0.0171
  984MOL0     C35700   9.460   6.191   2.453 -0.4644  0.4861  0.2562
  984MOL0     C35701   9.321   6.223   2.443 -0.6901 -0.9367  0.4973
  984MOL0     O35702   9.133   6.472   2.553 -0.0196 -0.3632  0.2780
  984MOL0     C35703   8.837   6.281   2.495 -0.4680  0.2383 -0.1022
  984MOL0     C35704   8.697   6.276   2.493  0.7153  0.1914  0.1202
  984MOL0     N35705   7.889   6.380   2.396 -0.2378 -0.9140  0.4732
  984MOL0     N35706   7.820   6.279   2.366  0.6639  0.4358 -0.9360
  984MOL0     C35707   8.532   5.441   1.906  1.3847 -0.3704 -0.2940
  984MOL0     C35708   8.634   5.366   1.839 -0.0527 -0.4857 -0.0837
  984MOL0     C35709   9.000   5.285   1.549 -0.9453  0.3450  0.2954
  984MOL0     C35710   8.960   5.154   1.561  0.2503 -0.3105  0.0804
  984MOL0     C35711   8.996   5.052   1.475  0.7865 -0.2996  0.3987
  984MOL0     C35712   9.099   5.075   1.378  0.0914 -0.7333 -0.0169
  984MOL0     O35713   9.160   4.986   1.291 -0.7682 -0.1198  0.5390
  984MOL0     C35714   9.122   4.849   1.289  0.4445  0.3683 -0.1026
  984MOL0     C35715   8.986   4.844   1.219 -0.3104  0.0841 -0.5632
  984MOL0     C35716   9.010   4.838   1.061 -0.4060 -0.1018 -0.2458
  984MOL0     C35717   8.884   4.812   0.986 -0.4618 -0.4849 -0.0842
  984MOL0     C35718   8.855   4.666   0.993 -0.7012 -1.1250  0.0765
  984MOL0     C35719   8.845   4.549   0.997  0.9107 -0.5013  0.2067
  984MOL0     C35720   9.152   5.209   1.375 -0.2034  0.1388  1.1651
  984MOL0     C35721   9.107   5.315   1.456 -0.4601 -0.1264  0.1612
  984MOL0     C35722   9.170   5.447   1.443  0.8072  0.1503 -0.2091
  984MOL0     H35723   8.764   5.613   1.634 -2.3671  0.2218 -0.7652
  984MOL0     H35724   8.565   5.736   1.731 -2.3155 -0.3379  1.7262
  984MOL0     H35725   8.255   5.475   1.922  0.7989 -0.1499  1.2701
  984MOL0     H35726   8.263   5.565   1.766  1.8240  0.8908 -0.3103
  984MOL0     H35727   8.155   5.752   1.873 -0.6110  1.6403  2.5511
  984MOL0     H35728   8.057   5.610   1.896 -0.5361  0.7044 -0.6329
  984MOL0     H35729   8.098   5.611   2.125  2.2537  0.4732  0.3398
  984MOL0     H35730   8.252   5.704   2.119  2.0720 -0.5350 -2.4277
  984MOL0     H35731   8.123   5.908   2.076  2.2708 -0.9387  2.1799
  984MOL0     H35732   7.974   5.818   2.046 -1.1762  3.4901  0.4142
  984MOL0     H35733   8.127   5.826   2.310  2.5429 -1.4810 -3.5010
  984MOL0     H35734   7.975   5.736   2.288 -1.3225  0.8292 -0.9030
  984MOL0     H35735   8.010   6.035   2.277 -3.2835  1.3597 -2.1925
  984MOL0     H35736   7.879   5.966   2.209 -0.0786 -0.4509 -1.0033
  984MOL0     H35737   7.978   5.923   2.496 -0.0081 -0.6397  0.8118
  984MOL0     H35738   7.844   5.845   2.425  1.7355 -0.8344 -0.1189
  984MOL0     H35739   7.709   6.049   2.396 -0.8299 -0.4679  0.0859
  984MOL0     H35740   7.770   6.027   2.566 -1.9989  0.9216  0.2317
  984MOL0     H35741   7.997   6.195   2.637  2.6487  2.5599  0.4721
  984MOL0     H35742   8.074   6.441   2.661 -0.1525  0.0806  0.5184
  984MOL0     H35743   8.025   6.556   2.543 -1.2597 -0.9796  1.0608
  984MOL0     H35744   8.193   6.442   2.380  3.4662  0.8202 -0.6685
  984MOL0     H35745   8.274   6.513   2.515 -0.4660 -0.3654  1.0242
  984MOL0     H35746   8.252   6.291   2.638 -1.7821 -0.5503 -0.6012
  984MOL0     H35747   8.195   6.217   2.497 -1.0426  0.0604  0.2726
  984MOL0     H35748   8.451   6.191   2.516 -0.5898 -0.6272 -2.0970
  984MOL0     H35749   8.447   6.299   2.388  0.3255  2.3017  0.5217
  984MOL0     H35750   8.648   6.555   2.662  0.2180  0.6440 -1.1223
  984MOL0     H35751   8.992   6.557   2.756  1.1262  0.1514 -0.1459
  984MOL0     H35752   8.836   6.613   2.788  1.2547 -0.6399  1.1781
  984MOL0     H35753   8.928   6.681   2.639 -1.7849 -1.9193 -1.7213
  984MOL0     H35754   9.242   6.209   2.775 -0.3192 -3.4965  0.4169
  984MOL0     H35755   9.461   6.169   2.801 -2.5275  0.6922  0.6377
  984MOL0     H35756   9.722   5.987   2.575  0.9852 -0.7273  0.9091
  984MOL0     H35757   9.716   6.098   2.426 -0.9330  1.7421  0.3492
  984MOL0     H35758   9.900   6.225   2.496  1.6256  1.2394  0.4155
  984MOL0     H35759   9.904   6.159   2.664  3.8777 -0.7075 -0.4830
  984MOL0     H35760   9.980   6.028   2.406  0.5097  2.4821  1.0790
  984MOL0     H35761   9.926   5.929   2.549  1.0902 -0.6967 -0.0463
  984MOL0     H35762  10.091   6.083   2.679  0.0082 -1.1902  0.2215
  984MOL0     H35763  10.165   6.120   2.516 -0.5595 -0.3410 -0.9277
  984MOL0     H35764  10.120   5.849   2.635 -1.9686  1.5162  0.2658
  984MOL0     H35765  10.163   5.875   2.471 -0.5972 -0.0811 -1.1000
  984MOL0     H35766  10.383   5.977   2.544 -0.1351 -1.1106 -0.2761
  984MOL0     H35767  10.366   5.827   2.626 -0.0057  0.0017 -1.9455
  984MOL0     H35768  10.235   5.993   2.820 -1.2062  1.5915 -0.2393
  984MOL0     H35769  10.335   6.108   2.744  2.1745  0.8447  3.6043
  984MOL0     H35770  10.438   5.837   2.848 -0.3053  0.5447 -0.4849
  984MOL0     H35771  10.457   5.998   2.937  0.1187  0.4358  0.0524
  984MOL0     H35772   9.529   6.196   2.369  1.3128  1.3455  1.6893
  984MOL0     H35773   9.274   6.252   2.349 -1.7828 -1.3167  0.9118
  984MOL0     H35774   8.893   6.200   2.449  0.0437  0.3734  0.2749
  984MOL0     H35775   8.655   6.192   2.439  0.1840  0.0461  0.7454
  984MOL0     H35776   8.468   5.387   1.974  1.8822 -0.3329  0.2129
  984MOL0     H35777   8.644   5.259   1.856  0.5919 -0.2073  1.4418
  984MOL0     H35778   8.884   5.121   1.631  0.2960 -1.5445 -0.4262
  984MOL0     H35779   8.946   4.956   1.482  0.8032 -0.3878 -0.5955
  984MOL0     H35780   9.198   4.787   1.241  1.5336  0.8379  0.9573
  984MOL0     H35781   9.105   4.814   1.391 -1.6446  1.9029  0.1511
  984MOL0     H35782   8.918   4.923   1.252 -0.1328 -0.6093  1.6199
  984MOL0     H35783   8.938   4.750   1.247 -1.5366  0.8603  0.0171
  984MOL0     H35784   9.046   4.938   1.035  2.2441 -0.4662  1.6054
  984MOL0     H35785   9.088   4.765   1.040  2.4182  3.2735 -2.4152
  984MOL0     H35786   8.907   4.832   0.881 -1.5062 -1.2712 -0.4772
  984MOL0     H35787   8.811   4.879   1.031  0.9178 -0.1476  1.7642
  984MOL0     H35788   8.833   4.442   0.999 -2.3422 -0.2744 -1.0312
  984MOL0     H35789   9.222   5.217   1.292 -2.0879 -0.1325 -0.5397
  984MOL0     H35790   9.223   5.464   1.537 -1.4717  2.5112  0.7961
  984MOL0     H35791   9.234   5.448   1.355  1.0150  0.8191 -0.0551
  984MOL0     H35792   9.096   5.528   1.440  2.4042  1.6527 -0.6496
  985MOL0     O35793   0.769   7.204   1.216  0.8640  0.1516  0.7316
  985MOL0     C35794   0.701   7.108   1.192  0.2607 -0.8745  0.2563
  985MOL0     O35795   0.738   7.006   1.110 -0.3207  0.3380  0.2833
  985MOL0     C35796   0.862   7.027   1.050  0.3381  0.5471 -0.1794
  985MOL0     C35797   0.873   7.086   0.926  0.3490  0.1663  0.1236
  985MOL0     C35798   0.999   7.081   0.858 -0.6722  0.0383  0.0828
  985MOL0     C35799   1.113   7.021   0.915  0.1621 -0.4416 -0.8116
  985MOL0     O35800   1.235   7.016   0.867 -0.0873 -0.6929 -0.1394
  985MOL0     C35801   1.283   7.134   0.796 -0.4893 -0.2330  0.2193
  985MOL0     C35802   1.437   7.124   0.797 -0.0100 -0.9865 -0.5911
  985MOL0     C35803   1.501   7.225   0.694  0.4328  0.3299  0.0794
  985MOL0     C35804   1.643   7.240   0.743 -0.4068 -0.4378 -0.2859
  985MOL0     C35805   1.670   7.324   0.872  0.4271  0.0288 -0.2605
  985MOL0     C35806   1.614   7.467   0.872 -0.5131 -0.6481 -0.0597
  985MOL0     C35807   1.698   7.571   0.949  0.0832 -0.3091 -0.3944
  985MOL0     C35808   1.697   7.551   1.100 -0.0565 -0.0362  0.4519
  985MOL0     N35809   1.568   7.583   1.165  0.0391 -1.0739  0.1909
  985MOL0     C35810   1.525   7.713   1.196 -0.6809  0.4190  0.0138
  985MOL0     C35811   1.396   7.703   1.224  0.4638 -0.2308  0.4022
  985MOL0     C35812   1.293   7.812   1.265 -1.1690  0.3560  0.2804
  985MOL0     C35813   1.150   7.758   1.253 -0.0635  0.1397 -0.6374
  985MOL0     C35814   1.096   7.713   1.119 -0.0882 -0.2395  0.3515
  985MOL0     C35815   0.982   7.625   1.126 -0.2564 -0.3538  0.1538
  985MOL0     O35816   0.885   7.662   1.225 -0.0786 -0.0817 -0.1515
  985MOL0     C35817   0.766   7.716   1.183  0.5832 -0.0195  0.0798
  985MOL0     C35818   0.753   7.823   1.091  0.3204  0.2103  0.1357
  985MOL0     C35819   0.632   7.886   1.062  0.2675  0.0757  0.6021
  985MOL0     C35820   0.637   8.005   0.962 -0.8101  1.1437  0.1725
  985MOL0     C35821   0.515   7.842   1.126 -0.1493  0.2876 -0.6657
  985MOL0     C35822   0.376   7.897   1.102  0.3334 -0.0658  0.3960
  985MOL0     O35823   0.268   7.837   1.168  0.2980 -0.1116  0.2131
  985MOL0     C35824   0.143   7.867   1.132  0.3912 -0.4023  0.1946
  985MOL0     C35825   0.089   8.001   1.120  0.1538 -0.5861  0.1412
  985MOL0     C35826  -0.049   8.018   1.094  0.8718 -0.0782  0.0341
  985MOL0     C35827  -0.128   7.908   1.072  0.1574  0.3834  0.4108
  985MOL0     O35828  -0.261   7.910   1.046  0.2628 -0.4930 -0.3467
  985MOL0     C35829  -0.326   8.024   0.991 -0.0169  0.1775  0.2765
  985MOL0     C35830  -0.441   8.064   1.072  0.3148 -0.7534 -0.2747
  985MOL0     C35831  -0.391   8.102   1.216 -0.4219  0.3134  1.1494
  985MOL0     C35832  -0.502   8.175   1.301  0.3912 -0.3719 -0.0138
  985MOL0     C35833  -0.438   8.205   1.429  0.1752 -0.1864  0.7198
  985MOL0     C35834  -0.539   8.242   1.544 -0.5727  0.2512 -0.1940
  985MOL0     C35835  -0.473   8.310   1.662  0.3820  0.5459 -0.5582
  985MOL0     C35836  -0.345   8.229   1.709  0.6918 -0.4605  0.5431
  985MOL0    Cl35837  -0.281   8.301   1.875 -0.4122  0.1087  0.1472
  985MOL0     C35838  -0.080   7.778   1.096  0.0935 -0.0612 -0.5997
  985MOL0     C35839   0.059   7.759   1.121  0.3775  0.2662  0.8696
  985MOL0     O35840   0.368   7.995   1.021 -0.0221  0.3631  0.0231
  985MOL0     C35841   0.522   7.734   1.216  0.2698  0.6481  0.1686
  985MOL0     C35842   0.645   7.661   1.236  0.8004 -0.7669  0.0021
  985MOL0     N35843   1.356   7.573   1.207 -0.6419 -0.3795 -0.1328
  985MOL0     N35844   1.460   7.500   1.169 -0.4799  0.3419  0.1548
  985MOL0     C35845   1.098   6.968   1.045  0.3918 -0.2976 -0.5170
  985MOL0     C35846   0.976   6.975   1.113 -0.4291 -0.2314 -0.1671
  985MOL0     C35847   0.578   7.092   1.285 -0.0179 -0.4514  0.2016
  985MOL0     C35848   0.522   6.961   1.286 -0.0874  0.9007  0.2142
  985MOL0     C35849   0.416   6.931   1.369  0.4140  0.7440 -0.6979
  985MOL0     C35850   0.356   7.034   1.446  0.4370 -0.8670 -0.6981
  985MOL0     O35851   0.246   7.021   1.526  0.3100  0.0227  0.8310
  985MOL0     C35852   0.168   6.898   1.506  0.6094  0.1380 -0.5083
  985MOL0     C35853   0.074   6.886   1.629  0.8457  0.1744  0.2836
  985MOL0     C35854  -0.066   6.964   1.617 -0.1234  0.0877 -0.1870
  985MOL0     C35855  -0.120   6.991   1.755 -0.1962 -0.2348 -0.8907
  985MOL0     C35856  -0.228   7.088   1.746  0.5339 -0.2620 -0.2900
  985MOL0     C35857  -0.321   7.153   1.705 -0.1668  0.0028  0.1337
  985MOL0     C35858   0.406   7.165   1.446  0.4035  0.4318  0.2429
  985MOL0     C35859   0.519   7.190   1.364  0.2071 -0.3926  0.3860
  985MOL0     C35860   0.554   7.337   1.370  0.2606  0.3243  0.1125
  985MOL0     H35861   0.783   7.127   0.881 -1.2589 -1.0459  2.0597
  985MOL0     H35862   1.006   7.121   0.757 -2.6992 -2.3135 -1.1091
  985MOL0     H35863   1.257   7.229   0.842  0.9816 -0.5563  1.8105
  985MOL0     H35864   1.243   7.136   0.694  1.1305 -2.2255 -0.5354
  985MOL0     H35865   1.472   7.145   0.899  2.8788  1.0049 -1.8718
  985MOL0     H35866   1.465   7.024   0.762 -2.3073 -2.2855  1.0470
  985MOL0     H35867   1.497   7.192   0.590  1.4747 -0.2783  0.2091
  985MOL0     H35868   1.456   7.325   0.694  0.8592  0.6763 -3.9976
  985MOL0     H35869   1.689   7.141   0.750 -1.1957 -0.7327  1.1910
  985MOL0     H35870   1.687   7.288   0.655  0.3640  3.0830  1.8166
  985MOL0     H35871   1.778   7.338   0.883  0.1527  1.8712  0.3481
  985MOL0     H35872   1.645   7.274   0.966  1.5736  0.7075  0.4246
  985MOL0     H35873   1.611   7.503   0.769 -0.3833  0.9860  0.4811
  985MOL0     H35874   1.513   7.463   0.914 -0.7877  0.0265 -0.6417
  985MOL0     H35875   1.669   7.675   0.933 -0.2289  0.2734  3.3022
  985MOL0     H35876   1.799   7.546   0.916  0.3454  0.5109 -0.2409
  985MOL0     H35877   1.722   7.447   1.122 -1.0665  0.1925  3.1621
  985MOL0     H35878   1.778   7.603   1.153  0.3638 -0.3354  0.1049
  985MOL0     H35879   1.574   7.810   1.192 -1.6357  0.8729 -1.5237
  985MOL0     H35880   1.310   7.900   1.203  2.6319 -0.1060  0.4397
  985MOL0     H35881   1.314   7.843   1.368  4.2417 -1.1582 -0.0302
  985MOL0     H35882   1.144   7.672   1.320  0.4755  0.9997  0.5483
  985MOL0     H35883   1.079   7.829   1.295  0.3999  1.2920 -1.7356
  985MOL0     H35884   1.079   7.802   1.058  0.2839 -0.2832  0.1821
  985MOL0     H35885   1.172   7.653   1.067  0.3304 -0.9091  1.6971
  985MOL0     H35886   0.929   7.624   1.030  0.2146 -2.1226 -0.1204
  985MOL0     H35887   1.016   7.524   1.146  0.5234 -0.0921  0.1638
  985MOL0     H35888   0.843   7.871   1.054  2.0521 -2.5885  0.4637
  985MOL0     H35889   0.738   8.023   0.925 -1.1246  2.5561 -0.0487
  985MOL0     H35890   0.615   8.098   1.016 -1.3149  1.6323 -0.8424
  985MOL0     H35891   0.578   7.984   0.872 -0.4236 -0.2332  0.2131
  985MOL0     H35892   0.164   8.079   1.129  0.8592 -1.0247 -1.4693
  985MOL0     H35893  -0.085   8.120   1.083 -1.3625 -0.7938  0.2290
  985MOL0     H35894  -0.253   8.103   0.974  1.4163 -1.3282 -0.8698
  985MOL0     H35895  -0.370   8.000   0.894 -2.7078 -0.0014  1.4484
  985MOL0     H35896  -0.490   8.145   1.018 -3.3361 -2.0514  0.8105
  985MOL0     H35897  -0.511   7.981   1.083 -1.3934  0.5207 -1.0973
  985MOL0     H35898  -0.314   8.178   1.203 -0.6091  0.2528 -0.4611
  985MOL0     H35899  -0.346   8.014   1.262  1.9792  0.1577 -1.2612
  985MOL0     H35900  -0.583   8.104   1.322  1.1459 -0.6740  2.0664
  985MOL0     H35901  -0.540   8.265   1.251  3.3290  0.6759 -0.5424
  985MOL0     H35902  -0.376   8.120   1.460  1.7276  0.1773 -1.2220
  985MOL0     H35903  -0.377   8.293   1.410 -1.5663  0.3935 -2.9361
  985MOL0     H35904  -0.591   8.152   1.579 -2.2560  0.3266 -2.3117
  985MOL0     H35905  -0.618   8.310   1.511  1.1121  0.5308 -4.2119
  985MOL0     H35906  -0.539   8.320   1.749  3.0302 -0.5745  1.7374
  985MOL0     H35907  -0.460   8.417   1.642  0.1821  0.4672 -1.1139
  985MOL0     H35908  -0.263   8.252   1.640  0.2456 -0.2859  0.0637
  985MOL0     H35909  -0.373   8.124   1.722  0.9688 -0.9301 -2.1292
  985MOL0     H35910  -0.151   7.696   1.089 -2.9390  2.2235  0.7986
  985MOL0     H35911   0.098   7.660   1.142  0.1360 -0.9592 -3.5598
  985MOL0     H35912   0.434   7.697   1.266 -1.3366  1.8930 -1.6209
  985MOL0     H35913   0.640   7.571   1.297  1.1280 -0.4204  0.5557
  985MOL0     H35914   1.185   6.917   1.085  0.1121 -1.3397 -1.1843
  985MOL0     H35915   0.970   6.925   1.209  0.5921 -0.5187 -0.2409
  985MOL0     H35916   0.561   6.877   1.230 -0.8325  1.1913 -0.7645
  985MOL0     H35917   0.376   6.830   1.373  2.1614  0.0707  0.8891
  985MOL0     H35918   0.122   6.901   1.407 -0.0337  0.6307 -0.2028
  985MOL0     H35919   0.218   6.801   1.501 -3.0069 -1.9884  0.5527
  985MOL0     H35920   0.132   6.924   1.714  1.3888  1.4908 -0.6500
  985MOL0     H35921   0.055   6.778   1.641  1.0442  0.1686  0.5606
  985MOL0     H35922  -0.051   7.058   1.562  0.2261 -2.0123 -3.9844
  985MOL0     H35923  -0.138   6.901   1.564  0.8022 -0.6145 -0.6415
  985MOL0     H35924  -0.043   7.040   1.816  0.7038 -0.3285 -1.9151
  985MOL0     H35925  -0.159   6.902   1.805 -1.4279 -0.5045 -2.2844
  985MOL0     H35926  -0.396   7.221   1.669  1.2065  1.8456  0.6104
  985MOL0     H35927   0.366   7.248   1.504  0.5624  1.1717 -0.6897
  985MOL0     H35928   0.610   7.365   1.459  2.6737  0.6525 -1.4174
  985MOL0     H35929   0.624   7.368   1.293  0.5234  1.9683  0.9823
  985MOL0     H35930   0.471   7.407   1.354  0.1303  0.0459 -0.4877
  986MOL0     O35931   4.272   5.404   0.621 -0.0594 -0.0219  0.3147
  986MOL0     C35932   4.185   5.324   0.581 -0.3364  0.1549  0.4966
  986MOL0     O35933   4.177   5.253   0.461 -0.4472 -0.1454 -0.0960
  986MOL0     C35934   4.283   5.276   0.376 -0.2721 -0.7860 -0.3225
  986MOL0     C35935   4.322   5.407   0.335  0.2604 -0.9024 -0.2113
  986MOL0     C35936   4.438   5.426   0.265  0.6861  0.4153 -0.3236
  986MOL0     C35937   4.527   5.320   0.241 -0.1093 -0.0303  0.5708
  986MOL0     O35938   4.662   5.336   0.192 -0.0602  0.0432  0.0538
  986MOL0     C35939   4.703   5.471   0.167 -0.3377  0.5312 -0.2079
  986MOL0     C35940   4.835   5.463   0.083  0.4723 -0.4731 -0.0971
  986MOL0     C35941   4.952   5.387   0.158  0.1813  0.2927 -0.2672
  986MOL0     C35942   5.072   5.391   0.064 -0.6716 -0.2154  0.3493
  986MOL0     C35943   5.203   5.329   0.135  0.8544 -0.3275 -0.3671
  986MOL0     C35944   5.330   5.309   0.053  0.8564 -0.6886  0.2783
  986MOL0     C35945   5.428   5.273   0.160  0.1849 -0.2391  0.2162
  986MOL0     C35946   5.506   5.391   0.227  0.1801  0.0893  0.2879
  986MOL0     N35947   5.626   5.334   0.289  0.4822 -0.3855 -0.4091
  986MOL0     C35948   5.745   5.302   0.226 -0.3707  0.1622 -0.1491
  986MOL0     C35949   5.820   5.235   0.319  0.7580 -1.4505 -0.6968
  986MOL0     C35950   5.941   5.150   0.303  0.0690  0.0896  0.0780
  986MOL0     C35951   6.079   5.202   0.350  0.0814  0.1230  0.7753
  986MOL0     C35952   6.100   5.230   0.497 -0.5502 -0.2834 -0.3521
  986MOL0     C35953   6.243   5.283   0.530 -0.2204  0.0471  0.7282
  986MOL0     O35954   6.339   5.200   0.461  0.2965 -0.1407  0.2303
  986MOL0     C35955   6.474   5.204   0.489 -0.2422  0.2439 -0.0673
  986MOL0     C35956   6.536   5.296   0.578  0.2548 -0.1313  0.4535
  986MOL0     C35957   6.673   5.301   0.604 -0.3742  0.6246 -0.9908
  986MOL0     C35958   6.715   5.397   0.707 -0.3470  0.9949  1.1004
  986MOL0     C35959   6.763   5.204   0.548  0.9956  0.8624  0.6691
  986MOL0     C35960   6.914   5.190   0.581 -0.5990 -0.0987 -0.5568
  986MOL0     O35961   6.971   5.074   0.543  0.7948  0.5978  0.4290
  986MOL0     C35962   7.105   5.047   0.549 -0.2673 -0.4370 -0.3446
  986MOL0     C35963   7.132   4.916   0.598 -0.2562 -0.5399  0.0099
  986MOL0     C35964   7.270   4.873   0.607  0.9117  0.1089 -0.4898
  986MOL0     C35965   7.376   4.955   0.562  0.3362 -0.3386 -0.5636
  986MOL0     O35966   7.504   4.896   0.572  0.6256 -0.1576 -0.0710
  986MOL0     C35967   7.620   4.978   0.581  0.2244 -0.1801 -0.4564
  986MOL0     C35968   7.741   4.905   0.632 -0.0892 -0.1210  0.8573
  986MOL0     C35969   7.718   4.806   0.745  0.3303 -0.4256 -0.4103
  986MOL0     C35970   7.648   4.881   0.862  0.0167  0.1464 -0.0217
  986MOL0     C35971   7.593   4.776   0.966 -0.3849 -0.6938  0.4653
  986MOL0     C35972   7.462   4.701   0.919  0.3413  0.1855  0.9449
  986MOL0     C35973   7.373   4.677   1.041  0.1219  0.4944 -0.6949
  986MOL0     C35974   7.272   4.571   1.000  0.4685 -0.3761 -0.8653
  986MOL0    Cl35975   7.184   4.630   0.855  0.1121  0.0622  0.1853
  986MOL0     C35976   7.349   5.083   0.518  0.2271  0.5273  0.4007
  986MOL0     C35977   7.218   5.130   0.514  1.1249  0.1731  0.5184
  986MOL0     O35978   6.972   5.283   0.642  0.5802  0.1742  0.1794
  986MOL0     C35979   6.705   5.116   0.454  0.0191 -0.1356 -0.4316
  986MOL0     C35980   6.562   5.108   0.425 -1.0528  0.2004 -0.9386
  986MOL0     N35981   5.756   5.261   0.440  0.3905 -0.0145  0.1726
  986MOL0     N35982   5.639   5.317   0.427 -0.2890  0.0612 -0.4043
  986MOL0     C35983   4.493   5.189   0.281  0.6404  0.0282  0.0158
  986MOL0     C35984   4.371   5.174   0.353 -0.3185  0.3031  0.0960
  986MOL0     C35985   4.081   5.285   0.682  0.3263  0.4262 -0.0732
  986MOL0     C35986   3.995   5.184   0.632 -0.0439 -0.5976 -0.8346
  986MOL0     C35987   3.879   5.165   0.702  0.6751 -0.9987  0.0619
  986MOL0     C35988   3.852   5.232   0.822  0.5811  0.5085  0.4722
  986MOL0     O35989   3.724   5.215   0.865  0.0355  0.4526 -0.4194
  986MOL0     C35990   3.671   5.294   0.974 -0.8040 -0.4022  0.2137
  986MOL0     C35991   3.530   5.240   1.011 -0.0035 -0.8571 -0.9725
  986MOL0     C35992   3.442   5.240   0.884  0.8500  0.6635 -0.1115
  986MOL0     C35993   3.301   5.175   0.909  1.2844  0.2463  0.1239
  986MOL0     C35994   3.215   5.175   0.788  0.5954  0.5838 -0.7173
  986MOL0     C35995   3.154   5.182   0.691  0.0475 -0.2849 -0.7193
  986MOL0     C35996   3.941   5.322   0.875 -0.4777 -0.1819 -0.5174
  986MOL0     C35997   4.062   5.352   0.808 -0.2466 -0.2097 -0.2085
  986MOL0     C35998   4.160   5.447   0.877  0.3331  0.1041 -0.8033
  986MOL0     H35999   4.257   5.489   0.362 -0.0656 -1.0872 -0.4385
  986MOL0     H36000   4.467   5.527   0.242 -0.6530  0.4635 -1.9659
  986MOL0     H36001   4.719   5.526   0.260  1.2715  0.9126 -0.6768
  986MOL0     H36002   4.633   5.533   0.111  1.5508  1.8446 -1.2590
  986MOL0     H36003   4.805   5.409  -0.007 -3.1078 -1.3799  1.4617
  986MOL0     H36004   4.874   5.563   0.063 -0.9581 -0.3004 -2.3607
  986MOL0     H36005   4.982   5.440   0.249  2.0653 -1.2036  0.0476
  986MOL0     H36006   4.922   5.288   0.193 -0.9182  0.5808 -0.3674
  986MOL0     H36007   5.046   5.343  -0.031  0.4491  3.2072 -1.8787
  986MOL0     H36008   5.096   5.494   0.035 -0.5860 -0.3913 -0.2197
  986MOL0     H36009   5.164   5.243   0.189  0.7544  1.5019  2.7208
  986MOL0     H36010   5.230   5.406   0.208  1.6513 -0.6408 -0.3224
  986MOL0     H36011   5.326   5.226  -0.019  0.4213 -1.2997  0.9852
  986MOL0     H36012   5.368   5.395  -0.003 -1.3772 -1.0838 -2.0343
  986MOL0     H36013   5.505   5.208   0.117  0.6868  0.3958  0.1381
  986MOL0     H36014   5.370   5.226   0.240 -2.6840  3.3602  0.5459
  986MOL0     H36015   5.536   5.462   0.150 -0.1016 -0.3421 -0.2248
  986MOL0     H36016   5.449   5.451   0.300  0.4627 -0.9266  1.3762
  986MOL0     H36017   5.759   5.306   0.118 -0.5468  1.8464 -0.1409
  986MOL0     H36018   5.952   5.130   0.196 -1.3735 -0.8726  0.0821
  986MOL0     H36019   5.923   5.050   0.344  0.2568 -1.8215 -3.9637
  986MOL0     H36020   6.158   5.137   0.312  1.4954  1.5023  1.2198
  986MOL0     H36021   6.099   5.301   0.308  0.9921 -0.2607  0.2707
  986MOL0     H36022   6.036   5.316   0.517 -1.0550 -0.5306 -0.8799
  986MOL0     H36023   6.073   5.149   0.566 -0.9759  0.9712  0.9910
  986MOL0     H36024   6.254   5.387   0.497  1.6536 -0.0911  0.7880
  986MOL0     H36025   6.262   5.270   0.636  1.4594  0.7695  0.5499
  986MOL0     H36026   6.461   5.361   0.621 -0.2073 -0.2821 -0.1168
  986MOL0     H36027   6.797   5.460   0.674 -1.1890  1.4488 -0.1949
  986MOL0     H36028   6.745   5.344   0.798 -0.6614 -0.4890  0.3719
  986MOL0     H36029   6.627   5.458   0.729 -2.0791  0.0518 -2.5624
  986MOL0     H36030   7.044   4.854   0.613 -1.9227  2.0611  1.7355
  986MOL0     H36031   7.292   4.772   0.639  1.7138  0.1969 -0.7313
  986MOL0     H36032   7.638   5.022   0.482  3.3991  1.0995  0.5594
  986MOL0     H36033   7.609   5.063   0.648  0.6450  0.3499 -1.0409
  986MOL0     H36034   7.776   4.844   0.547 -1.5456 -0.9030  0.7823
  986MOL0     H36035   7.828   4.966   0.658  0.4781 -0.8937  0.8235
  986MOL0     H36036   7.810   4.757   0.775  0.4365 -2.3630 -3.4405
  986MOL0     H36037   7.661   4.726   0.697  0.9710 -0.8475 -0.4725
  986MOL0     H36038   7.567   4.948   0.831 -1.9463 -1.5684  1.1540
  986MOL0     H36039   7.726   4.939   0.913 -0.3251 -1.5957  2.6815
  986MOL0     H36040   7.671   4.702   0.984 -0.5426 -0.7731  0.8349
  986MOL0     H36041   7.584   4.830   1.061  0.2977  2.5003 -1.1376
  986MOL0     H36042   7.483   4.609   0.863 -1.6540  1.0702 -1.3963
  986MOL0     H36043   7.409   4.776   0.860  0.1262  0.0551  0.9704
  986MOL0     H36044   7.329   4.772   1.073 -1.8071 -0.3971 -0.5832
  986MOL0     H36045   7.432   4.637   1.124  0.9326 -0.1778 -1.5763
  986MOL0     H36046   7.205   4.557   1.085  1.4161 -0.9891 -0.1977
  986MOL0     H36047   7.328   4.479   0.982 -0.1739 -1.2154  1.1064
  986MOL0     H36048   7.434   5.140   0.481  0.4277 -0.6803 -1.1307
  986MOL0     H36049   7.193   5.231   0.481 -1.7574 -1.3150 -2.4288
  986MOL0     H36050   6.769   5.042   0.406 -1.0109  0.2078 -2.4756
  986MOL0     H36051   6.519   5.038   0.354  1.9022 -1.0393 -1.6506
  986MOL0     H36052   4.565   5.109   0.266  1.6954  0.6963  1.3731
  986MOL0     H36053   4.354   5.073   0.389  1.0930  0.8688  2.5962
  986MOL0     H36054   3.992   5.117   0.547 -2.9728  0.6997 -1.8885
  986MOL0     H36055   3.815   5.082   0.672  0.7534 -1.2193  0.4868
  986MOL0     H36056   3.739   5.306   1.059 -1.5573  4.0475  0.4466
  986MOL0     H36057   3.657   5.395   0.935 -0.5756 -0.5241 -0.1976
  986MOL0     H36058   3.490   5.306   1.088  2.4050 -0.5616  0.1285
  986MOL0     H36059   3.517   5.139   1.051 -1.1701 -0.1923  0.4246
  986MOL0     H36060   3.438   5.340   0.841 -2.8137  0.1750 -1.2410
  986MOL0     H36061   3.498   5.185   0.807  1.3464  3.7148 -2.1043
  986MOL0     H36062   3.257   5.224   0.996  0.3729  0.3099 -0.3614
  986MOL0     H36063   3.313   5.070   0.937  1.0465  0.3196  0.5062
  986MOL0     H36064   3.095   5.170   0.602 -2.0040 -2.0621  0.7886
  986MOL0     H36065   3.910   5.385   0.957 -1.9246  1.7122 -2.4037
  986MOL0     H36066   4.173   5.546   0.831 -0.2664  0.5659 -0.0161
  986MOL0     H36067   4.131   5.465   0.981  0.3317 -1.5736 -0.4861
  986MOL0     H36068   4.254   5.392   0.882  0.6350  0.7382  1.2400
  987MOL0     O36069   9.411  10.954   2.612  0.0152  0.0529  0.0473
  987MOL0     C36070   9.353  11.053   2.567 -0.5762  0.0781 -0.4385
  987MOL0     O36071   9.409  11.168   2.528 -0.3027 -0.5347  0.3436
  987MOL0     C36072   9.537  11.193   2.567 -0.0498  0.0789  0.9739
  987MOL0     C36073   9.560  11.306   2.638 -0.2804 -0.0345 -0.7348
  987MOL0     C36074   9.689  11.355   2.664  0.5587  0.0218  0.9389
  987MOL0     C36075   9.797  11.287   2.599 -0.3331  0.2656 -0.2445
  987MOL0     O36076   9.912  11.350   2.620  0.1163  1.0610 -0.1430
  987MOL0     C36077  10.033  11.272   2.608 -0.6159 -0.2386 -0.0324
  987MOL0     C36078  10.050  11.160   2.714  0.5092 -0.7952  0.4440
  987MOL0     C36079  10.186  11.123   2.743 -0.2730 -0.1212  0.2354
  987MOL0     C36080  10.253  11.059   2.620 -1.1417 -0.5282  0.3287
  987MOL0     C36081  10.404  11.021   2.639  0.6698 -0.5722  0.1877
  987MOL0     C36082  10.485  11.149   2.654  0.4606  0.1366 -0.8281
  987MOL0     C36083  10.612  11.134   2.580 -0.3108 -0.0797 -0.4320
  987MOL0     C36084  10.707  11.254   2.599 -0.2883  0.2231  0.2490
  987MOL0     N36085  10.695  11.373   2.516  0.3868  0.5297  0.5562
  987MOL0     C36086  10.765  11.385   2.396 -1.4874  0.0986 -0.3035
  987MOL0     C36087  10.741  11.514   2.353 -0.0996  0.1713  0.1592
  987MOL0     C36088  10.793  11.591   2.233 -0.0310 -0.5672 -0.4833
  987MOL0     C36089  10.726  11.526   2.107 -0.9651 -0.1692 -0.1067
  987MOL0     C36090  10.780  11.564   1.978 -0.2352 -0.1386  0.8183
  987MOL0     C36091  10.920  11.499   1.950 -0.3850  0.2917 -0.0949
  987MOL0     O36092  10.929  11.357   1.993  0.6313  0.3126 -0.4239
  987MOL0     C36093  11.041  11.283   1.978  0.2662  0.1693  0.6176
  987MOL0     C36094  11.033  11.148   2.004  0.7972 -0.0259  0.6034
  987MOL0     C36095  11.148  11.076   1.994  0.4576  0.2797  0.1941
  987MOL0     C36096  11.140  10.930   2.046  0.3026 -0.2308 -0.6559
  987MOL0     C36097  11.273  11.128   1.953  0.3379  0.4708 -0.5217
  987MOL0     C36098  11.402  11.053   1.931  0.3766  0.5231  0.2751
  987MOL0     O36099  11.516  11.125   1.909  0.3111 -0.5610  0.0768
  987MOL0     C36100  11.628  11.052   1.902  0.0844 -0.5007 -0.5337
  987MOL0     C36101  11.669  10.990   1.787 -0.3636  0.0635  0.6580
  987MOL0     C36102  11.796  10.926   1.792  0.3351  0.4037 -0.3893
  987MOL0     C36103  11.870  10.901   1.907 -0.4040 -0.1848 -0.3412
  987MOL0     O36104  11.995  10.840   1.916 -0.2496 -0.2088  0.4371
  987MOL0     C36105  12.063  10.804   1.795  0.2785 -0.5043  0.3575
  987MOL0     C36106  12.192  10.745   1.828 -0.1780  0.1509 -0.7581
  987MOL0     C36107  12.270  10.716   1.699  0.5733  0.3412  0.2339
  987MOL0     C36108  12.402  10.639   1.723 -0.0262 -0.1718  0.2164
  987MOL0     C36109  12.501  10.619   1.605 -0.6663  0.0152 -0.3416
  987MOL0     C36110  12.623  10.537   1.638 -0.0736  0.1724  0.1295
  987MOL0     C36111  12.717  10.528   1.519 -0.2340 -0.1439  0.0903
  987MOL0     C36112  12.849  10.449   1.550 -0.5775 -0.4135 -0.8895
  987MOL0    Cl36113  12.805  10.277   1.580 -0.1752  0.2559 -0.1902
  987MOL0     C36114  11.825  10.952   2.021 -0.9344 -0.9751 -0.0939
  987MOL0     C36115  11.701  11.030   2.021 -0.0298 -0.5410 -0.4896
  987MOL0     O36116  11.396  10.931   1.935 -0.2145  0.2952  0.2570
  987MOL0     C36117  11.276  11.261   1.910 -0.5131  1.1651 -0.3833
  987MOL0     C36118  11.163  11.342   1.935  0.3904  0.5036  0.3677
  987MOL0     N36119  10.669  11.571   2.455  0.2791  0.6780 -0.1350
  987MOL0     N36120  10.626  11.485   2.539  0.7596 -0.1098  0.2875
  987MOL0     C36121   9.771  11.175   2.510 -0.0824 -0.4775  0.1085
  987MOL0     C36122   9.644  11.131   2.500 -0.1453 -0.0590  1.2553
  987MOL0     C36123   9.214  11.048   2.541  0.6366  0.1030 -0.6899
  987MOL0     C36124   9.155  11.143   2.441 -0.0805 -0.0437 -0.7426
  987MOL0     C36125   9.015  11.136   2.422 -0.0298 -0.0253 -0.1585
  987MOL0     C36126   8.930  11.053   2.484 -0.3317  0.2953  0.0448
  987MOL0     O36127   8.794  11.072   2.462 -0.1157 -0.4133 -0.1503
  987MOL0     C36128   8.695  10.986   2.527  0.3742 -0.9163 -0.3945
  987MOL0     C36129   8.560  11.062   2.538  0.3667 -0.0860  0.2326
  987MOL0     C36130   8.539  11.186   2.634 -0.1244  0.4659  0.3049
  987MOL0     C36131   8.552  11.141   2.776 -0.0742  0.3416 -0.5889
  987MOL0     C36132   8.688  11.114   2.824 -1.0037 -0.4837 -0.4883
  987MOL0     C36133   8.797  11.104   2.872 -0.1663 -0.9565 -0.9619
  987MOL0     C36134   8.981  10.970   2.585  0.0120 -0.2060  0.0206
  987MOL0     C36135   9.118  10.973   2.616 -0.3413  0.3710  0.1532
  987MOL0     C36136   9.161  10.872   2.727 -0.3550 -0.4969 -0.8305
  987MOL0     H36137   9.478  11.357   2.689 -1.5910 -2.6325 -0.0706
  987MOL0     H36138   9.712  11.437   2.732  1.4655  1.7015 -1.2756
  987MOL0     H36139  10.107  11.352   2.617 -0.6219 -0.4314  2.3759
  987MOL0     H36140  10.035  11.236   2.505 -0.3525  0.7142 -0.3761
  987MOL0     H36141  10.008  11.187   2.811  2.2168  2.8920  0.3344
  987MOL0     H36142   9.991  11.078   2.672  1.4676 -1.1430 -0.2815
  987MOL0     H36143  10.236  11.217   2.770  0.4903  0.0307 -1.5646
  987MOL0     H36144  10.199  11.068   2.837 -0.8710 -2.2281 -0.8638
  987MOL0     H36145  10.199  10.965   2.599  1.2413 -1.8008 -0.4767
  987MOL0     H36146  10.237  11.121   2.531 -3.4552 -1.6090 -0.0895
  987MOL0     H36147  10.434  10.969   2.548 -3.3020  0.4055 -1.9566
  987MOL0     H36148  10.415  10.958   2.727  1.7309 -0.6265  0.0217
  987MOL0     H36149  10.438  11.232   2.600  0.4338  0.1951 -0.7138
  987MOL0     H36150  10.500  11.173   2.759  1.3219 -4.6587  0.4003
  987MOL0     H36151  10.590  11.131   2.473 -0.8151 -0.3627 -0.3219
  987MOL0     H36152  10.668  11.046   2.614 -2.5976 -0.4883  2.6109
  987MOL0     H36153  10.702  11.279   2.706 -1.9402  1.4489 -0.0639
  987MOL0     H36154  10.809  11.218   2.586 -0.3083 -0.1956  1.1453
  987MOL0     H36155  10.829  11.305   2.359  1.3638  1.4760  1.2821
  987MOL0     H36156  10.901  11.601   2.238  0.0882 -1.7702 -0.5150
  987MOL0     H36157  10.758  11.694   2.245  0.2810 -0.6078  0.8748
  987MOL0     H36158  10.720  11.416   2.112  1.8302 -0.5379 -2.4818
  987MOL0     H36159  10.624  11.563   2.120 -0.9646 -0.3776  0.5346
  987MOL0     H36160  10.714  11.523   1.901  0.3388 -1.8341  1.1894
  987MOL0     H36161  10.798  11.669   1.954  0.8546 -0.5027 -0.0736
  987MOL0     H36162  10.937  11.506   1.842 -1.1247  4.1121 -0.1216
  987MOL0     H36163  11.007  11.552   1.990  0.1063  1.2677 -2.3106
  987MOL0     H36164  10.942  11.102   2.042  0.2454 -0.8530 -1.5878
  987MOL0     H36165  11.219  10.923   2.122 -0.0013 -0.3134 -0.3456
  987MOL0     H36166  11.161  10.854   1.971 -0.3224 -0.1252 -0.9395
  987MOL0     H36167  11.053  10.902   2.106  1.8986 -2.2895  0.8942
  987MOL0     H36168  11.629  11.008   1.688  0.2743  0.9092  0.5362
  987MOL0     H36169  11.832  10.884   1.698 -0.4804  1.5800 -1.2691
  987MOL0     H36170  12.001  10.734   1.737  1.1469  1.2395 -2.9000
  987MOL0     H36171  12.070  10.896   1.736  0.4057  1.7569  3.6709
  987MOL0     H36172  12.248  10.813   1.893  0.1449 -1.7751  1.0904
  987MOL0     H36173  12.181  10.656   1.890 -0.3004  0.6546 -0.0470
  987MOL0     H36174  12.300  10.810   1.651  1.6592  0.9053  1.9033
  987MOL0     H36175  12.205  10.659   1.633 -0.7699  2.6077 -0.5268
  987MOL0     H36176  12.373  10.540   1.760 -1.3335  0.0439 -0.1553
  987MOL0     H36177  12.448  10.693   1.805  2.7598  2.3580 -2.7404
  987MOL0     H36178  12.441  10.581   1.521 -1.6132  1.3654 -0.2993
  987MOL0     H36179  12.524  10.721   1.572 -0.1551 -0.1515 -0.5220
  987MOL0     H36180  12.589  10.438   1.669  1.4035 -0.4369 -0.1431
  987MOL0     H36181  12.670  10.587   1.723 -0.9228  1.2142  0.0172
  987MOL0     H36182  12.734  10.632   1.487 -1.9253  1.0159  2.6375
  987MOL0     H36183  12.667  10.483   1.434  1.7047  0.7984 -1.6399
  987MOL0     H36184  12.896  10.485   1.642  2.1858 -0.4672 -2.1887
  987MOL0     H36185  12.926  10.465   1.474 -0.7921  2.7610 -0.5522
  987MOL0     H36186  11.886  10.940   2.111 -0.0245 -0.0136 -0.5586
  987MOL0     H36187  11.663  11.059   2.118  0.8445  1.3051 -0.6733
  987MOL0     H36188  11.367  11.307   1.874  0.2795 -1.2097 -1.6358
  987MOL0     H36189  11.165  11.441   1.890 -0.7286 -0.6237 -2.4002
  987MOL0     H36190   9.859  11.132   2.465  0.7771  0.9819  0.3160
  987MOL0     H36191   9.628  11.041   2.441  1.3387 -0.0251  0.7570
  987MOL0     H36192   9.213  11.215   2.384 -0.2425  2.4613  2.0240
  987MOL0     H36193   8.958  11.199   2.354 -0.4488 -0.3993 -0.1554
  987MOL0     H36194   8.678  10.905   2.456 -0.1247  0.8381 -2.3882
  987MOL0     H36195   8.723  10.952   2.627 -2.1971  2.2728  1.6141
  987MOL0     H36196   8.483  10.994   2.573  1.7219 -1.2595  1.0333
  987MOL0     H36197   8.540  11.090   2.434  3.9090  1.7622 -0.1040
  987MOL0     H36198   8.620  11.254   2.606  0.1435 -0.5865 -1.6588
  987MOL0     H36199   8.443  11.236   2.619  0.5164  1.1819 -1.7430
  987MOL0     H36200   8.497  11.050   2.803 -0.2930  0.8349  0.7048
  987MOL0     H36201   8.509  11.221   2.836 -0.6290  1.1528 -2.0149
  987MOL0     H36202   8.893  11.092   2.917 -0.1438 -0.2102 -0.7972
  987MOL0     H36203   8.913  10.913   2.648 -0.8870  1.4464  0.5912
  987MOL0     H36204   9.225  10.925   2.798  0.0551 -1.6516 -0.3125
  987MOL0     H36205   9.078  10.820   2.776  0.3450  0.3382  1.3569
  987MOL0     H36206   9.235  10.801   2.691  0.1605 -0.7624  0.6863
  988MOL0     O36207   9.339   7.438  10.668 -0.3584 -0.6599  0.0689
  988MOL0     C36208   9.287   7.327  10.688  0.4730 -0.3780  0.4959
  988MOL0     O36209   9.339   7.220  10.738 -0.0494  0.2554 -0.1189
  988MOL0     C36210   9.474   7.218  10.735  0.9037 -0.6565 -0.0054
  988MOL0     C36211   9.549   7.249  10.851  0.1266 -0.5088 -0.1565
  988MOL0     C36212   9.687   7.236  10.852 -0.2224  0.9277 -0.0056
  988MOL0     C36213   9.762   7.187  10.744 -0.3663 -0.8086  0.6179
  988MOL0     O36214   9.902   7.170  10.753 -0.4087  0.4211 -0.7623
  988MOL0     C36215   9.973   7.109  10.644  0.2061 -0.2260  0.2268
  988MOL0     C36216  10.122   7.105  10.665 -0.0790 -0.6009  0.2174
  988MOL0     C36217  10.182   7.238  10.689 -0.2266 -0.7818  0.4317
  988MOL0     C36218  10.331   7.238  10.715  0.5940 -0.5287 -0.1008
  988MOL0     C36219  10.414   7.345  10.634  0.2346 -0.1132 -0.2750
  988MOL0     C36220  10.555   7.366  10.685 -0.9727  0.0507 -0.5519
  988MOL0     C36221  10.571   7.425  10.822  0.3028  1.1549  0.2007
  988MOL0     C36222  10.533   7.572  10.833  1.0692  0.3613  1.0763
  988MOL0     N36223  10.617   7.654  10.748  0.2796 -0.1409 -0.2053
  988MOL0     C36224  10.588   7.686  10.617  0.2685 -0.2011  0.1317
  988MOL0     C36225  10.692   7.765  10.578 -0.5340  0.7394 -0.7261
  988MOL0     C36226  10.720   7.800  10.433  0.3907  0.2777  0.1645
  988MOL0     C36227  10.836   7.895  10.416 -0.2275 -0.1208 -0.1566
  988MOL0     C36228  10.847   7.950  10.272  0.3527  0.2292 -0.4417
  988MOL0     C36229  10.972   8.037  10.238 -0.6489 -1.0444  0.1760
  988MOL0     O36230  10.987   8.155  10.314 -0.2876  0.1206  0.0124
  988MOL0     C36231  11.101   8.236  10.313 -0.2852  0.4017 -0.6070
  988MOL0     C36232  11.218   8.215  10.238  0.1406  0.2247  0.3898
  988MOL0     C36233  11.330   8.302  10.243 -0.7902 -0.1153 -0.2975
  988MOL0     C36234  11.443   8.269  10.139 -0.8946 -0.3499 -0.2322
  988MOL0     C36235  11.338   8.411  10.331  0.1091 -0.5027 -1.1291
  988MOL0     C36236  11.441   8.519  10.326  0.3160  0.0627  0.8311
  988MOL0     O36237  11.440   8.601  10.435  0.6346 -0.7842 -0.0248
  988MOL0     C36238  11.538   8.701  10.454  0.1662 -0.2381  0.1056
  988MOL0     C36239  11.507   8.833  10.491  0.4577 -1.3843  0.7942
  988MOL0     C36240  11.605   8.923  10.509 -0.0534 -0.2600 -0.5134
  988MOL0     C36241  11.734   8.888  10.508 -0.3041  0.0700 -0.2766
  988MOL0     O36242  11.822   8.992  10.526  0.1444 -0.3367  0.2801
  988MOL0     C36243  11.950   8.961  10.575  0.0213 -0.4711  0.1612
  988MOL0     C36244  11.996   9.098  10.605  0.4643 -0.6640  0.6894
  988MOL0     C36245  12.136   9.106  10.668  0.3855 -0.4428 -0.4888
  988MOL0     C36246  12.253   9.114  10.575 -0.5573  0.4040  0.4867
  988MOL0     C36247  12.374   9.094  10.666 -0.5158  0.1030 -0.2262
  988MOL0     C36248  12.505   9.118  10.578 -0.3217 -0.2128  0.0341
  988MOL0     C36249  12.632   9.109  10.672 -0.0253  0.7043  0.1260
  988MOL0     C36250  12.766   9.123  10.593  0.0699 -0.8130  0.0288
  988MOL0    Cl36251  12.896   9.088  10.722  0.5004 -0.0699 -0.3359
  988MOL0     C36252  11.771   8.761  10.476  0.1124  1.0329  0.1258
  988MOL0     C36253  11.675   8.668  10.448  0.3193  0.1949 -0.3385
  988MOL0     O36254  11.504   8.537  10.221  0.1656  0.4005 -0.0720
  988MOL0     C36255  11.221   8.429  10.412  0.6368 -0.1296 -0.2903
  988MOL0     C36256  11.105   8.345  10.404 -0.3272  0.2153 -0.6548
  988MOL0     N36257  10.766   7.787  10.689 -0.4736  0.1193 -0.9571
  988MOL0     N36258  10.721   7.719  10.790 -0.5577 -0.4683  0.3012
  988MOL0     C36259   9.690   7.144  10.624  1.0399 -0.0381  0.0885
  988MOL0     C36260   9.546   7.174  10.624 -0.0159 -0.0858  0.5114
  988MOL0     C36261   9.144   7.325  10.673 -0.8991 -0.5217  0.5183
  988MOL0     C36262   9.075   7.203  10.640 -1.0311 -0.6845  0.2683
  988MOL0     C36263   8.937   7.203  10.609  0.1130  0.8226  0.0795
  988MOL0     C36264   8.853   7.309  10.630 -0.4458 -0.5080  0.1099
  988MOL0     O36265   8.722   7.292  10.605  0.1670  0.5346  0.1423
  988MOL0     C36266   8.629   7.399  10.639  0.2693  0.5282  0.3574
  988MOL0     C36267   8.481   7.370  10.619  0.2938 -0.7432 -0.7972
  988MOL0     C36268   8.417   7.249  10.702 -0.5847 -0.3513  0.0082
  988MOL0     C36269   8.266   7.242  10.679  0.0867 -0.3412  0.2425
  988MOL0     C36270   8.195   7.351  10.746  0.1329 -0.0476  0.4867
  988MOL0     C36271   8.132   7.440  10.807  0.6558  0.7972 -0.0670
  988MOL0     C36272   8.922   7.421  10.673  0.0927  0.1181  0.1298
  988MOL0     C36273   9.055   7.442  10.692 -0.1380  0.9404 -1.1983
  988MOL0     C36274   9.096   7.589  10.721 -0.3251 -0.7070 -0.1224
  988MOL0     H36275   9.494   7.277  10.940 -0.5827 -0.7229 -0.5235
  988MOL0     H36276   9.748   7.252  10.940  1.2640  1.4464 -1.0859
  988MOL0     H36277   9.945   7.162  10.552  1.1633 -1.4828 -0.8251
  988MOL0     H36278   9.936   7.006  10.634 -0.7625  0.2135 -1.0326
  988MOL0     H36279  10.149   7.038  10.747  0.8824 -3.0361 -1.9361
  988MOL0     H36280  10.172   7.054  10.582 -1.7508 -0.5783 -0.8505
  988MOL0     H36281  10.168   7.292  10.594 -0.1080 -2.3456 -0.5029
  988MOL0     H36282  10.134   7.304  10.762 -1.2385  0.2330 -1.0613
  988MOL0     H36283  10.349   7.255  10.821 -2.2580  0.0696  0.3538
  988MOL0     H36284  10.376   7.143  10.686  2.2222  0.7978 -2.2776
  988MOL0     H36285  10.352   7.435  10.644 -3.0186 -1.8559 -2.8250
  988MOL0     H36286  10.409   7.330  10.526  0.1315  1.2226 -0.4803
  988MOL0     H36287  10.596   7.265  10.698 -1.0102  0.2025  0.9144
  988MOL0     H36288  10.613   7.419  10.609 -0.3636  0.3708  0.1181
  988MOL0     H36289  10.675   7.427  10.856  0.7793  2.2382 -1.2597
  988MOL0     H36290  10.511   7.359  10.886 -0.0933 -2.0031 -3.1185
  988MOL0     H36291  10.431   7.592  10.798  1.3565  2.0789  1.1125
  988MOL0     H36292  10.542   7.613  10.934  1.0133  4.8355 -0.4969
  988MOL0     H36293  10.503   7.659  10.556  1.9110 -3.2289 -1.0921
  988MOL0     H36294  10.630   7.835  10.383 -1.1593 -3.1495  0.2360
  988MOL0     H36295  10.738   7.705  10.380  0.8627 -0.0880  0.9615
  988MOL0     H36296  10.834   7.978  10.487 -0.6899  1.4420 -1.9156
  988MOL0     H36297  10.928   7.839  10.433 -1.4278 -2.3702 -0.6743
  988MOL0     H36298  10.851   7.870  10.197 -0.7999  1.2228 -1.6083
  988MOL0     H36299  10.758   8.011  10.254  1.1886  1.1022 -1.8083
  988MOL0     H36300  11.062   7.974  10.244  0.1241  0.0524  0.3977
  988MOL0     H36301  10.976   8.065  10.133  0.1877 -2.4116 -0.1926
  988MOL0     H36302  11.219   8.130  10.169  0.4930  1.2965 -0.9778
  988MOL0     H36303  11.453   8.160  10.139  1.1740 -0.2647 -2.6145
  988MOL0     H36304  11.541   8.312  10.159 -1.2140  0.3484 -0.1185
  988MOL0     H36305  11.398   8.289  10.041 -0.7901 -1.5018 -0.5288
  988MOL0     H36306  11.410   8.880  10.504  0.8650 -0.1601 -0.3626
  988MOL0     H36307  11.574   9.025  10.531 -0.5610 -0.1758 -1.5614
  988MOL0     H36308  11.950   8.903  10.668 -0.0480  0.2182  0.5930
  988MOL0     H36309  12.002   8.907  10.495  1.4180  1.6100 -0.4240
  988MOL0     H36310  11.991   9.165  10.519 -1.7266 -0.8645  0.5994
  988MOL0     H36311  11.929   9.148  10.676 -0.0479 -0.6497  0.2005
  988MOL0     H36312  12.143   9.025  10.741  0.5592 -0.2428 -0.2761
  988MOL0     H36313  12.146   9.189  10.739  2.4582 -1.1763  0.1736
  988MOL0     H36314  12.271   9.207  10.521  0.6537  0.5064  1.0317
  988MOL0     H36315  12.239   9.032  10.503  0.4415  1.0750 -0.5205
  988MOL0     H36316  12.374   9.174  10.742  0.4312 -1.5558  1.6048
  988MOL0     H36317  12.387   9.003  10.724 -0.0552 -0.3551 -1.0343
  988MOL0     H36318  12.503   9.218  10.533 -0.6989  0.0012  0.5246
  988MOL0     H36319  12.509   9.047  10.494 -0.4326  1.5686 -1.5494
  988MOL0     H36320  12.629   9.016  10.729  1.6629  0.6160  0.1181
  988MOL0     H36321  12.626   9.189  10.747 -2.6421  2.6687 -2.0109
  988MOL0     H36322  12.760   9.217  10.537 -0.2767 -2.4272 -2.8626
  988MOL0     H36323  12.773   9.058  10.505  0.7990  1.5091 -1.7204
  988MOL0     H36324  11.869   8.717  10.460 -0.3821  0.8215 -2.8906
  988MOL0     H36325  11.700   8.575  10.398  2.1223  0.4792 -0.0313
  988MOL0     H36326  11.225   8.515  10.478  1.0892  1.1015 -1.8512
  988MOL0     H36327  11.018   8.348  10.470  0.0734 -2.6850  0.1365
  988MOL0     H36328   9.727   7.104  10.530 -0.8821  2.2027 -1.7173
  988MOL0     H36329   9.495   7.160  10.529  0.2683  0.7975  0.2220
  988MOL0     H36330   9.119   7.108  10.611 -1.1558 -0.3967 -0.9157
  988MOL0     H36331   8.900   7.113  10.562 -0.5199  1.6704 -1.0887
  988MOL0     H36332   8.637   7.429  10.744 -1.2597 -3.0216  1.6597
  988MOL0     H36333   8.648   7.490  10.582 -0.7324 -0.2704 -1.3144
  988MOL0     H36334   8.443   7.357  10.517  0.9114 -1.0816 -0.9902
  988MOL0     H36335   8.423   7.455  10.656 -3.1946 -3.2282  0.0524
  988MOL0     H36336   8.457   7.159  10.654 -1.9835 -0.2692 -1.3787
  988MOL0     H36337   8.441   7.264  10.808  0.3541  0.8692 -0.3525
  988MOL0     H36338   8.227   7.145  10.710  1.2947 -1.3320 -1.1850
  988MOL0     H36339   8.238   7.246  10.573 -0.9745  0.6347  0.5377
  988MOL0     H36340   8.065   7.508  10.855  1.0278 -0.5225  2.5169
  988MOL0     H36341   8.861   7.503  10.709  1.0756  0.1591  1.7743
  988MOL0     H36342   9.165   7.618  10.642  2.8710 -1.9566  2.0017
  988MOL0     H36343   9.007   7.652  10.716  1.1659  1.5026 -4.9113
  988MOL0     H36344   9.152   7.602  10.815  0.3276 -1.4624 -0.4007
  989MOL0     O36345   4.099   7.946   2.138 -0.6122 -0.0889  0.5825
  989MOL0     C36346   4.077   7.908   2.253 -0.4404  0.5013  1.0914
  989MOL0     O36347   4.114   7.975   2.361  0.3875  0.9471  0.3354
  989MOL0     C36348   4.200   8.079   2.336 -0.0976 -0.0379  0.2994
  989MOL0     C36349   4.327   8.057   2.386  0.7933 -0.8043 -0.1914
  989MOL0     C36350   4.417   8.164   2.371  0.6110 -0.3025 -0.1475
  989MOL0     C36351   4.378   8.283   2.310  0.3226  0.0509  0.3823
  989MOL0     O36352   4.476   8.383   2.312 -0.3312 -0.0806  0.0556
  989MOL0     C36353   4.448   8.513   2.351  0.3122 -0.1669  0.3440
  989MOL0     C36354   4.585   8.581   2.401  0.1617  0.4410 -0.0986
  989MOL0     C36355   4.672   8.507   2.503  0.2336 -0.7662  0.2530
  989MOL0     C36356   4.790   8.590   2.545 -0.3110  0.6372  0.0071
  989MOL0     C36357   4.868   8.498   2.641 -0.3813 -0.0101 -0.1801
  989MOL0     C36358   4.801   8.486   2.778 -0.4533  0.1400 -0.4060
  989MOL0     C36359   4.919   8.434   2.864 -0.0098 -0.0109  0.0800
  989MOL0     C36360   4.956   8.288   2.844  0.2564 -0.5306 -0.0844
  989MOL0     N36361   4.894   8.203   2.958 -0.6866 -0.0327  0.2756
  989MOL0     C36362   4.763   8.176   2.980 -0.4513 -0.7224 -0.2700
  989MOL0     C36363   4.755   8.121   3.096 -0.3164  0.6587 -0.6718
  989MOL0     C36364   4.630   8.083   3.176 -0.5116  0.1272 -0.3494
  989MOL0     C36365   4.586   8.204   3.264  0.2946  0.0526  0.0490
  989MOL0     C36366   4.462   8.271   3.212 -0.3262 -0.5207  0.1961
  989MOL0     C36367   4.421   8.387   3.303 -0.0529 -0.4772  0.1808
  989MOL0     O36368   4.386   8.346   3.442  0.3183 -0.4915  0.5682
  989MOL0     C36369   4.254   8.303   3.468 -0.4343 -0.4573 -0.5573
  989MOL0     C36370   4.228   8.250   3.591  0.3543  0.4584 -0.2305
  989MOL0     C36371   4.104   8.196   3.618 -0.7601  0.1944 -0.7513
  989MOL0     C36372   4.090   8.125   3.747 -0.0090  0.0117  0.4916
  989MOL0     C36373   3.996   8.211   3.529  0.6682 -0.3530 -0.3844
  989MOL0     C36374   3.864   8.163   3.559  1.0803 -0.0336 -1.4281
  989MOL0     O36375   3.812   8.195   3.681 -0.8076  0.0750 -0.2217
  989MOL0     C36376   3.700   8.134   3.729 -0.4445 -0.2237 -0.0420
  989MOL0     C36377   3.714   8.105   3.866 -0.5742  0.6122  0.3674
  989MOL0     C36378   3.592   8.056   3.928  0.3264 -0.6444 -0.5561
  989MOL0     C36379   3.469   8.040   3.873 -0.4637  0.6963 -0.2171
  989MOL0     O36380   3.358   7.991   3.941 -0.5513 -0.2562 -0.4256
  989MOL0     C36381   3.268   7.893   3.881  0.3581  0.7509  0.5345
  989MOL0     C36382   3.342   7.766   3.835  1.4634  0.1681 -0.1148
  989MOL0     C36383   3.419   7.683   3.938 -0.1330 -0.1485  0.0770
  989MOL0     C36384   3.437   7.539   3.887  0.7012  0.4437  0.6014
  989MOL0     C36385   3.538   7.459   3.973  0.5097  0.0995  0.2788
  989MOL0     C36386   3.680   7.490   3.914 -0.5677  0.7653 -0.6135
  989MOL0     C36387   3.776   7.403   3.999  0.0114 -0.2910 -0.5616
  989MOL0     C36388   3.921   7.430   3.955 -0.0190 -0.2523  0.2709
  989MOL0    Cl36389   4.025   7.284   3.992 -0.1469  0.0629  0.2335
  989MOL0     C36390   3.467   8.063   3.741  0.8052  1.2281  0.2339
  989MOL0     C36391   3.583   8.101   3.664  0.4549 -0.5213 -0.0211
  989MOL0     O36392   3.795   8.117   3.464 -0.1619  0.5831 -0.7687
  989MOL0     C36393   4.018   8.268   3.408 -0.1625  0.1831  0.3352
  989MOL0     C36394   4.149   8.311   3.372  0.5428 -0.4271 -0.5498
  989MOL0     N36395   4.884   8.114   3.155  0.5236  0.4746  0.6734
  989MOL0     N36396   4.966   8.166   3.070  0.0456 -0.3971  0.2314
  989MOL0     C36397   4.249   8.305   2.258 -0.5935  0.4812  0.2096
  989MOL0     C36398   4.159   8.200   2.277 -0.2814 -0.2189  0.2346
  989MOL0     C36399   3.982   7.792   2.268 -0.2138  0.2636  0.7065
  989MOL0     C36400   3.903   7.799   2.382  0.6280  0.2317 -0.4802
  989MOL0     C36401   3.811   7.703   2.407 -0.4651 -0.6636  0.3461
  989MOL0     C36402   3.787   7.595   2.326 -0.3361  0.1994  0.0750
  989MOL0     O36403   3.707   7.483   2.350 -0.4277 -0.2136  0.1517
  989MOL0     C36404   3.600   7.497   2.441 -0.3999  0.0913  0.3650
  989MOL0     C36405   3.514   7.380   2.417  0.2357 -0.1147 -0.0891
  989MOL0     C36406   3.445   7.392   2.287 -0.3334 -0.0898 -0.6938
  989MOL0     C36407   3.328   7.292   2.281  0.0232  0.4049 -0.3655
  989MOL0     C36408   3.207   7.340   2.350  0.2004  0.5114  1.0612
  989MOL0     C36409   3.118   7.367   2.427 -0.3887 -0.5494  0.2884
  989MOL0     C36410   3.873   7.586   2.217  0.5226  1.4858  0.5519
  989MOL0     C36411   3.960   7.688   2.179 -0.7463 -0.1621 -0.4571
  989MOL0     C36412   4.049   7.656   2.063  0.6391  1.4240 -0.3054
  989MOL0     H36413   4.360   7.969   2.440  0.0799  0.9755  3.4494
  989MOL0     H36414   4.511   8.165   2.426 -0.5021 -3.3614  2.1154
  989MOL0     H36415   4.374   8.511   2.432 -0.4651 -2.1964 -0.3363
  989MOL0     H36416   4.395   8.566   2.271  0.4563 -0.7301 -0.1318
  989MOL0     H36417   4.645   8.606   2.313  0.6371  1.6052  0.5322
  989MOL0     H36418   4.558   8.680   2.439 -0.5428  0.6085 -0.9883
  989MOL0     H36419   4.606   8.499   2.590  1.5599  1.9163  1.6135
  989MOL0     H36420   4.705   8.410   2.465  0.9196 -0.0412 -1.0820
  989MOL0     H36421   4.853   8.610   2.458  1.1146 -1.2871  0.5078
  989MOL0     H36422   4.763   8.684   2.593  2.8971  0.7835  1.8068
  989MOL0     H36423   4.970   8.537   2.654  0.3950 -1.7770 -0.5265
  989MOL0     H36424   4.882   8.402   2.590 -0.4212  0.0954 -0.3910
  989MOL0     H36425   4.764   8.585   2.807 -0.9915 -0.3228  0.5049
  989MOL0     H36426   4.721   8.412   2.780  0.4675 -0.8794 -0.1267
  989MOL0     H36427   4.890   8.447   2.969 -1.2743 -2.6396  0.1333
  989MOL0     H36428   5.015   8.487   2.860  0.5041 -0.9328  0.0544
  989MOL0     H36429   4.912   8.241   2.756 -1.4688  0.7429  0.0443
  989MOL0     H36430   5.064   8.272   2.843  0.4854  0.2749  2.9086
  989MOL0     H36431   4.677   8.203   2.919 -0.2011  2.1538  0.4674
  989MOL0     H36432   4.676   8.015   3.248 -0.7036  0.4370  0.0748
  989MOL0     H36433   4.547   8.039   3.120 -1.4557  1.2210  0.1218
  989MOL0     H36434   4.567   8.173   3.367  3.1074 -0.3335  0.5520
  989MOL0     H36435   4.666   8.279   3.266  1.1755 -0.7637 -1.9856
  989MOL0     H36436   4.477   8.310   3.111  3.2061 -0.7667  0.4869
  989MOL0     H36437   4.384   8.194   3.215 -0.1480 -0.6985  0.3747
  989MOL0     H36438   4.499   8.461   3.316 -1.0395  0.2532  2.4167
  989MOL0     H36439   4.340   8.446   3.258 -1.2731 -0.1413  2.6380
  989MOL0     H36440   4.306   8.235   3.665 -0.9848  0.6423  1.2591
  989MOL0     H36441   4.041   8.197   3.813 -0.7167 -0.1626  0.1638
  989MOL0     H36442   4.190   8.105   3.787  0.7365  2.8817  0.3014
  989MOL0     H36443   4.035   8.031   3.740  0.8500 -0.5599  1.1548
  989MOL0     H36444   3.798   8.132   3.931  1.6920  2.0080 -2.8775
  989MOL0     H36445   3.598   8.048   4.036  0.4365  2.2373 -0.2543
  989MOL0     H36446   3.197   7.866   3.960  1.4959 -0.5543  1.1416
  989MOL0     H36447   3.205   7.932   3.800  0.7560 -1.5647 -0.9799
  989MOL0     H36448   3.265   7.697   3.800 -0.1177  2.5883 -1.7280
  989MOL0     H36449   3.427   7.779   3.767 -0.0640 -2.6151 -2.8389
  989MOL0     H36450   3.374   7.671   4.037 -1.5893  1.6534 -0.3247
  989MOL0     H36451   3.513   7.734   3.961 -0.2052  1.1747 -2.3052
  989MOL0     H36452   3.482   7.543   3.787  3.9794 -0.4995  1.8884
  989MOL0     H36453   3.338   7.494   3.882 -0.1031  2.1500  0.4794
  989MOL0     H36454   3.531   7.502   4.074  0.6302 -0.8923  0.7236
  989MOL0     H36455   3.517   7.352   3.968 -1.0996  0.3632  0.9043
  989MOL0     H36456   3.716   7.593   3.919  2.5956 -0.2145 -0.7911
  989MOL0     H36457   3.690   7.462   3.808 -0.3956  2.0067 -0.9421
  989MOL0     H36458   3.752   7.301   3.969 -1.3521  0.5690 -2.6064
  989MOL0     H36459   3.771   7.423   4.106  2.7226  0.4480 -0.5041
  989MOL0     H36460   3.965   7.516   4.006  2.0123 -0.2762 -1.3469
  989MOL0     H36461   3.925   7.450   3.848  0.2496 -0.0868  0.3111
  989MOL0     H36462   3.381   8.058   3.674 -0.6401 -0.8521  2.0956
  989MOL0     H36463   3.564   8.116   3.559  0.1309  0.4960  0.1719
  989MOL0     H36464   3.934   8.271   3.339 -1.7297  1.0217  2.1715
  989MOL0     H36465   4.173   8.345   3.272  3.5251 -1.3721 -0.2436
  989MOL0     H36466   4.229   8.403   2.216  0.2396  0.9473  0.8653
  989MOL0     H36467   4.056   8.203   2.242 -0.3063 -0.5455  0.2744
  989MOL0     H36468   3.912   7.886   2.447 -0.5106 -0.5415  0.7827
  989MOL0     H36469   3.746   7.713   2.493  1.5074 -1.6440  2.0160
  989MOL0     H36470   3.651   7.492   2.538  0.2158 -0.1925  0.0388
  989MOL0     H36471   3.539   7.588   2.437  1.1400  1.2308  1.4920
  989MOL0     H36472   3.447   7.398   2.502  0.4439  1.1886 -0.1677
  989MOL0     H36473   3.556   7.281   2.434 -0.3383 -0.2527  0.5678
  989MOL0     H36474   3.416   7.497   2.276 -0.9129  0.0036  1.2968
  989MOL0     H36475   3.516   7.361   2.210  1.5727  0.8320  0.6120
  989MOL0     H36476   3.357   7.203   2.337  0.2004  0.1701 -0.8217
  989MOL0     H36477   3.309   7.264   2.177 -2.4560 -0.1904  0.2017
  989MOL0     H36478   3.037   7.382   2.497 -1.0923 -3.6538  0.2935
  989MOL0     H36479   3.862   7.503   2.148 -0.2780 -0.6859  3.1157
  989MOL0     H36480   4.045   7.549   2.045 -0.2274  1.1545  1.2855
  989MOL0     H36481   4.014   7.704   1.972  0.5501  1.3783 -0.2951
  989MOL0     H36482   4.152   7.690   2.081  1.5274 -0.3246 -1.8222
  990MOL0     O36483   9.924   0.626   5.096  0.0129 -0.3674  0.3696
  990MOL0     C36484   9.899   0.747   5.112  0.7341  0.5787 -0.6556
  990MOL0     O36485   9.980   0.838   5.176  0.6121 -0.2948  0.5748
  990MOL0     C36486  10.108   0.839   5.138  0.1888 -0.3971 -0.3339
  990MOL0     C36487  10.196   0.893   5.232 -0.6674  0.0221  0.0758
  990MOL0     C36488  10.339   0.881   5.220  0.7419  0.0415 -0.7687
  990MOL0     C36489  10.387   0.824   5.097 -0.1316 -0.8898 -0.4183
  990MOL0     O36490  10.520   0.837   5.056 -0.1945 -0.4175 -0.6454
  990MOL0     C36491  10.609   0.934   5.121  0.3800  0.3266 -0.1982
  990MOL0     C36492  10.744   0.913   5.048 -0.2695  0.2223 -0.5939
  990MOL0     C36493  10.867   0.984   5.102 -0.4104  0.5240  1.0652
  990MOL0     C36494  11.006   0.920   5.058  0.3108 -0.0134 -0.4590
  990MOL0     C36495  11.126   0.998   5.126  0.5628  0.0797  0.7312
  990MOL0     C36496  11.242   0.901   5.119 -0.1742  0.2759 -0.4742
  990MOL0     C36497  11.375   0.960   5.150 -0.6499 -0.1263  0.2186
  990MOL0     C36498  11.427   1.074   5.054 -0.4663  1.4666 -0.2252
  990MOL0     N36499  11.576   1.087   5.084 -0.1194 -0.5649 -0.0965
  990MOL0     C36500  11.635   1.114   5.206 -0.4021 -0.5846 -0.2874
  990MOL0     C36501  11.768   1.106   5.183  0.3476 -0.2505  0.1601
  990MOL0     C36502  11.870   1.121   5.299  0.3918  0.5016  0.4592
  990MOL0     C36503  11.915   1.261   5.321 -0.6909  0.5312  0.0581
  990MOL0     C36504  11.805   1.364   5.362  0.3103 -0.0627  0.4176
  990MOL0     C36505  11.849   1.507   5.404 -0.6892  0.2475 -1.0106
  990MOL0     O36506  11.898   1.589   5.299  0.2924 -0.4363 -0.1890
  990MOL0     C36507  12.032   1.626   5.295 -0.3117  0.4979 -1.2968
  990MOL0     C36508  12.118   1.567   5.200  0.4700  0.5048 -0.6214
  990MOL0     C36509  12.253   1.585   5.213 -0.8450  0.7161  0.6955
  990MOL0     C36510  12.322   1.552   5.084 -0.3716 -0.0746 -0.3199
  990MOL0     C36511  12.318   1.653   5.315  0.0220 -0.8284  0.3907
  990MOL0     C36512  12.464   1.661   5.343  0.8162  0.1385 -0.1962
  990MOL0     O36513  12.513   1.765   5.413  0.5374 -0.2321 -0.5751
  990MOL0     C36514  12.637   1.755   5.466 -0.0748 -0.2729  0.2926
  990MOL0     C36515  12.709   1.879   5.460 -0.7962 -0.6317  0.3962
  990MOL0     C36516  12.832   1.895   5.524 -0.4870  1.2486  0.6765
  990MOL0     C36517  12.900   1.790   5.597  1.3406  0.0564  1.0761
  990MOL0     O36518  13.019   1.806   5.658  0.4891 -0.3509  0.1080
  990MOL0     C36519  13.078   1.934   5.668 -1.1290  1.3138 -0.2134
  990MOL0     C36520  13.226   1.925   5.713 -0.8570  0.3948  1.1352
  990MOL0     C36521  13.299   2.061   5.741  0.1990  0.3271 -0.1923
  990MOL0     C36522  13.446   2.026   5.770 -0.8261  0.3886 -0.1275
  990MOL0     C36523  13.523   2.153   5.801  0.1847  0.1863  0.3571
  990MOL0     C36524  13.643   2.121   5.888 -1.1521  0.8643 -0.6553
  990MOL0     C36525  13.751   2.225   5.875 -0.5254 -0.3411  0.0271
  990MOL0     C36526  13.869   2.200   5.979 -0.0497  0.3402  0.5109
  990MOL0    Cl36527  14.013   2.304   5.946 -0.0406  0.4375 -0.0875
  990MOL0     C36528  12.829   1.668   5.594 -0.1538  0.1882  0.3603
  990MOL0     C36529  12.708   1.653   5.522  0.2992  0.4101 -0.4804
  990MOL0     O36530  12.532   1.571   5.294  0.5176  0.1298  0.5709
  990MOL0     C36531  12.235   1.711   5.406  0.0612 -0.9355  0.7209
  990MOL0     C36532  12.103   1.696   5.403  0.3950 -1.2828  0.3286
  990MOL0     N36533  11.790   1.069   5.057 -0.0015  0.3569  0.5244
  990MOL0     N36534  11.672   1.059   4.995 -0.1026  0.2473 -0.3876
  990MOL0     C36535  10.298   0.776   5.005 -0.1376  0.3546 -0.1539
  990MOL0     C36536  10.160   0.784   5.021  0.2824  0.5271  0.1852
  990MOL0     C36537   9.764   0.809   5.045 -0.2163  0.0084  0.0000
  990MOL0     C36538   9.676   0.719   4.977  0.0549  0.1087 -0.5160
  990MOL0     C36539   9.554   0.764   4.928  0.2427 -0.5367  0.0481
  990MOL0     C36540   9.521   0.895   4.940 -0.0549 -0.5485 -0.7137
  990MOL0     O36541   9.401   0.949   4.904  1.2046 -0.3214 -0.3291
  990MOL0     C36542   9.288   0.879   4.949  0.2776 -0.8444 -0.0759
  990MOL0     C36543   9.188   0.993   4.952  0.2363  0.1330  0.2589
  990MOL0     C36544   9.049   0.957   5.010  0.5054 -0.0287 -0.0784
  990MOL0     C36545   8.938   1.049   4.954 -0.3287 -0.1190 -0.2633
  990MOL0     C36546   8.978   1.189   4.968 -0.0887  0.1386 -0.5928
  990MOL0     C36547   8.987   1.307   4.972  0.1754  1.0715  0.3869
  990MOL0     C36548   9.615   0.989   4.993 -0.7688 -0.6146  0.1775
  990MOL0     C36549   9.740   0.949   5.045 -0.2749  0.0966 -0.1166
  990MOL0     C36550   9.823   1.069   5.091  0.0938  0.8778 -0.7004
  990MOL0     H36551  10.162   0.929   5.328  1.8953  3.1534 -0.0308
  990MOL0     H36552  10.403   0.918   5.300  3.4152 -2.6193 -1.4557
  990MOL0     H36553  10.620   0.913   5.228  1.0007 -1.1134 -0.5291
  990MOL0     H36554  10.585   1.039   5.100  1.3907  0.0857 -2.8413
  990MOL0     H36555  10.761   0.805   5.059 -0.4526 -0.0113 -2.3657
  990MOL0     H36556  10.736   0.936   4.942  3.7802  2.6575 -0.5877
  990MOL0     H36557  10.871   1.087   5.065 -0.0624  1.2674  3.0414
  990MOL0     H36558  10.852   0.989   5.210  1.6236  0.3071  1.4023
  990MOL0     H36559  11.008   0.816   5.091 -0.1273 -0.5628 -2.0891
  990MOL0     H36560  11.022   0.926   4.950  3.2065 -2.1681 -0.2879
  990MOL0     H36561  11.090   1.016   5.228  0.4894 -0.7479  0.8550
  990MOL0     H36562  11.140   1.090   5.068 -3.0896  0.0400 -0.4557
  990MOL0     H36563  11.216   0.814   5.181  0.8301 -1.0928 -1.9138
  990MOL0     H36564  11.249   0.868   5.015  0.0868  1.5852 -0.8897
  990MOL0     H36565  11.454   0.883   5.141  1.1772  1.7074 -0.2047
  990MOL0     H36566  11.378   0.995   5.253 -1.0153  0.1420  0.1386
  990MOL0     H36567  11.425   1.054   4.947  3.0166 -1.5888  0.0758
  990MOL0     H36568  11.367   1.162   5.076  2.9114  3.7396  0.7117
  990MOL0     H36569  11.599   1.129   5.307  0.2774 -2.6726  0.3133
  990MOL0     H36570  11.963   1.067   5.278 -0.3091  0.0748 -1.8011
  990MOL0     H36571  11.821   1.077   5.386 -1.0504 -0.6417 -0.8688
  990MOL0     H36572  11.988   1.263   5.403 -1.8041  0.1913  1.0986
  990MOL0     H36573  11.963   1.293   5.228 -0.6650 -0.7101 -0.3706
  990MOL0     H36574  11.737   1.366   5.276  0.7031 -2.8019 -0.0560
  990MOL0     H36575  11.749   1.332   5.451  1.2318 -1.1937  0.6265
  990MOL0     H36576  11.777   1.570   5.458 -0.0331  0.9766 -0.9707
  990MOL0     H36577  11.927   1.496   5.480 -1.1026 -1.1170 -0.7651
  990MOL0     H36578  12.069   1.503   5.128  0.1355 -2.3474  1.9057
  990MOL0     H36579  12.367   1.640   5.038 -0.8773  0.8993  1.0117
  990MOL0     H36580  12.266   1.506   5.002  1.6158  0.7937 -2.2557
  990MOL0     H36581  12.407   1.487   5.106  0.4374  0.0250 -2.8635
  990MOL0     H36582  12.654   1.962   5.417  2.2071  1.8262  0.9625
  990MOL0     H36583  12.882   1.991   5.521 -2.0007  2.0404 -1.0148
  990MOL0     H36584  13.078   1.980   5.569 -1.8459  0.8392 -0.4417
  990MOL0     H36585  13.025   1.989   5.747 -1.8127 -0.8960  0.9580
  990MOL0     H36586  13.228   1.866   5.805  0.6723 -0.0588  0.8398
  990MOL0     H36587  13.287   1.875   5.636 -2.8739 -0.6490  0.1473
  990MOL0     H36588  13.259   2.109   5.831 -1.8625 -1.9647  0.2109
  990MOL0     H36589  13.295   2.129   5.656  1.8703 -1.7154 -2.0494
  990MOL0     H36590  13.484   1.978   5.679 -3.4746  0.9792 -1.6789
  990MOL0     H36591  13.447   1.946   5.844  1.3940  0.0896 -0.4121
  990MOL0     H36592  13.549   2.188   5.701  0.1224  1.0149  0.6276
  990MOL0     H36593  13.469   2.235   5.848 -1.4895 -0.5388 -0.2530
  990MOL0     H36594  13.683   2.021   5.871 -4.5106 -0.6005 -0.7313
  990MOL0     H36595  13.622   2.120   5.995  0.6010 -0.7933 -0.2706
  990MOL0     H36596  13.711   2.325   5.893 -0.2894  0.2805 -2.5450
  990MOL0     H36597  13.790   2.227   5.773 -0.6198 -1.8657 -0.0709
  990MOL0     H36598  13.913   2.100   5.981  0.3050  0.5100  1.8928
  990MOL0     H36599  13.828   2.228   6.076  1.7881  3.4279  0.5523
  990MOL0     H36600  12.862   1.582   5.652  3.4675  0.0496 -1.6169
  990MOL0     H36601  12.654   1.560   5.511 -0.9099  1.0656 -0.2151
  990MOL0     H36602  12.279   1.774   5.483  0.9584  2.1164 -2.0887
  990MOL0     H36603  12.055   1.747   5.486  2.7774  0.7891  0.5505
  990MOL0     H36604  10.344   0.728   4.919 -0.7045 -0.6275  0.0754
  990MOL0     H36605  10.090   0.745   4.948  1.3353 -1.8583  0.3809
  990MOL0     H36606   9.697   0.613   4.969  2.6335  0.3428  1.6346
  990MOL0     H36607   9.502   0.679   4.886 -0.3461 -1.9254  3.2805
  990MOL0     H36608   9.250   0.803   4.880 -1.3440 -1.8347  1.8001
  990MOL0     H36609   9.306   0.835   5.047  1.5964 -1.4128 -0.5586
  990MOL0     H36610   9.184   1.033   4.850  0.7291  0.1184  0.2333
  990MOL0     H36611   9.228   1.073   5.015 -0.9585  2.6184 -1.9317
  990MOL0     H36612   9.030   0.851   4.989  0.7982 -0.0859 -0.0577
  990MOL0     H36613   9.046   0.977   5.117 -3.1288 -1.9436  0.3459
  990MOL0     H36614   8.841   1.022   4.997 -0.1724 -0.3862 -0.0771
  990MOL0     H36615   8.930   1.032   4.847 -0.2696 -1.0641 -0.1251
  990MOL0     H36616   8.982   1.414   4.981 -1.2226  0.9634  1.2323
  990MOL0     H36617   9.590   1.094   4.982  0.0420 -0.2886  1.2160
  990MOL0     H36618   9.782   1.169   5.079  1.9730  1.8075  0.1388
  990MOL0     H36619   9.846   1.066   5.198 -1.1289 -0.6056 -0.4463
  990MOL0     H36620   9.915   1.066   5.031  2.3618  0.2860  2.5656
  991MOL0     O36621   8.880   6.562   0.264 -0.3098 -0.3818 -0.8056
  991MOL0     C36622   8.850   6.641   0.360 -0.4744 -0.7063  0.5957
  991MOL0     O36623   8.952   6.691   0.441  0.5628 -0.1572  0.3339
  991MOL0     C36624   9.080   6.670   0.412  0.1288  0.9602  0.2504
  991MOL0     C36625   9.154   6.553   0.421 -0.5019 -0.6030 -1.4292
  991MOL0     C36626   9.289   6.554   0.380 -0.0262  1.0864 -0.6013
  991MOL0     C36627   9.362   6.669   0.329 -0.4527 -0.0936  0.3865
  991MOL0     O36628   9.495   6.669   0.297  0.0448  0.1547 -0.2992
  991MOL0     C36629   9.584   6.627   0.396  0.2926  0.0244 -0.1517
  991MOL0     C36630   9.706   6.714   0.413  0.2521  0.0505  0.0064
  991MOL0     C36631   9.669   6.862   0.429  0.1226 -0.4188 -0.0164
  991MOL0     C36632   9.781   6.962   0.465 -0.6248 -0.9232 -0.2052
  991MOL0     C36633   9.918   6.949   0.384 -0.2445 -0.4121  0.3900
  991MOL0     C36634  10.008   7.075   0.413 -0.1034  0.1854  0.6195
  991MOL0     C36635  10.062   7.073   0.557  0.2478  0.2495  0.6313
  991MOL0     C36636  10.141   6.950   0.591 -0.1338  1.0023  0.7622
  991MOL0     N36637  10.242   6.914   0.495  1.0456  0.4030  0.3645
  991MOL0     C36638  10.367   6.975   0.487 -0.4533 -0.5410 -0.1207
  991MOL0     C36639  10.437   6.902   0.393  1.0009 -0.0715 -1.0084
  991MOL0     C36640  10.584   6.922   0.366  0.4870 -0.0670 -0.6763
  991MOL0     C36641  10.614   6.986   0.229 -0.0352  0.2017  0.4397
  991MOL0     C36642  10.754   6.943   0.182 -0.3567  0.3999 -0.0222
  991MOL0     C36643  10.868   7.005   0.254 -0.6454  0.8685 -0.3680
  991MOL0     O36644  10.995   6.928   0.241  0.0890  0.4157 -0.7265
  991MOL0     C36645  11.118   6.979   0.254 -0.1295 -0.4528 -0.2581
  991MOL0     C36646  11.226   6.897   0.230 -0.8145  0.6591 -0.1729
  991MOL0     C36647  11.366   6.934   0.226 -0.7682 -0.5968  1.0273
  991MOL0     C36648  11.471   6.841   0.193 -0.4416 -0.0678 -0.5134
  991MOL0     C36649  11.389   7.068   0.250  0.7635 -1.3414 -0.6014
  991MOL0     C36650  11.517   7.139   0.264 -0.6398 -0.2086 -0.7384
  991MOL0     O36651  11.538   7.264   0.215 -0.1910  0.6227  0.2193
  991MOL0     C36652  11.668   7.308   0.215  0.7450  0.4137 -0.7880
  991MOL0     C36653  11.726   7.370   0.323  0.1223  0.5517 -0.5362
  991MOL0     C36654  11.854   7.426   0.310  0.9474 -0.2277  0.4160
  991MOL0     C36655  11.928   7.412   0.190  1.0212  0.6857  0.1958
  991MOL0     O36656  12.054   7.460   0.187  0.1044  0.4608 -0.0515
  991MOL0     C36657  12.115   7.480   0.057 -0.1141  1.1337 -0.2296
  991MOL0     C36658  12.250   7.548   0.066 -0.0488 -0.2966 -0.5139
  991MOL0     C36659  12.301   7.583  -0.072  0.4748 -0.1371  0.1717
  991MOL0     C36660  12.437   7.653  -0.068  0.2818 -0.5370 -0.6730
  991MOL0     C36661  12.433   7.797  -0.024 -0.0256 -0.6410  0.1114
  991MOL0     C36662  12.578   7.842   0.014 -0.1503  0.1626  0.1356
  991MOL0     C36663  12.563   7.988   0.072  0.4438  0.6785 -0.9569
  991MOL0     C36664  12.693   8.042   0.134 -0.3969  0.0644 -0.2821
  991MOL0    Cl36665  12.818   8.060   0.011  0.4005 -0.2126 -0.1250
  991MOL0     C36666  11.858   7.346   0.085  0.1146 -0.2797 -0.1660
  991MOL0     C36667  11.734   7.291   0.097 -0.6566  0.2236 -0.2213
  991MOL0     O36668  11.597   7.090   0.344  0.2478  0.2311 -0.1624
  991MOL0     C36669  11.274   7.164   0.261  0.1037  0.2810 -0.1400
  991MOL0     C36670  11.138   7.118   0.282  0.2560  0.4584  0.7313
  991MOL0     N36671  10.347   6.808   0.346 -0.2145  0.3614 -0.5785
  991MOL0     N36672  10.238   6.801   0.411  0.4570 -0.4080  0.3732
  991MOL0     C36673   9.282   6.778   0.312  0.2871  0.1856 -0.5247
  991MOL0     C36674   9.146   6.775   0.347 -0.4402 -0.0171 -0.1744
  991MOL0     C36675   8.708   6.668   0.392 -0.6526 -0.0067  0.6323
  991MOL0     C36676   8.667   6.725   0.508 -0.0602  1.0765  0.4060
  991MOL0     C36677   8.529   6.735   0.540 -1.1838 -0.5997 -0.4732
  991MOL0     C36678   8.431   6.705   0.448 -0.1245  0.0851 -0.2589
  991MOL0     O36679   8.312   6.768   0.489 -0.1815  0.1655  0.5377
  991MOL0     C36680   8.197   6.744   0.404 -0.6985 -0.3643 -0.0162
  991MOL0     C36681   8.135   6.608   0.422  0.1895 -0.1667 -0.0563
  991MOL0     C36682   8.001   6.592   0.372 -0.7650 -0.2117  1.2532
  991MOL0     C36683   7.935   6.468   0.431  0.0299  0.4039 -0.2498
  991MOL0     C36684   7.796   6.470   0.402  0.3892  0.7243  0.2725
  991MOL0     C36685   7.679   6.483   0.377 -0.3022 -0.3887  0.8799
  991MOL0     C36686   8.467   6.650   0.325  0.3453  0.0381  0.0716
  991MOL0     C36687   8.603   6.631   0.302 -0.0690 -0.0826 -0.1495
  991MOL0     C36688   8.626   6.551   0.174  0.9313 -0.0033  0.7234
  991MOL0     H36689   9.112   6.469   0.476  0.9062  2.2683  4.9002
  991MOL0     H36690   9.354   6.471   0.404  1.4040  2.1322 -0.6708
  991MOL0     H36691   9.618   6.525   0.376 -1.2963 -0.4159 -0.8258
  991MOL0     H36692   9.532   6.627   0.492  0.9211  0.9449  0.1986
  991MOL0     H36693   9.761   6.685   0.504 -1.2492 -1.2455  0.5534
  991MOL0     H36694   9.766   6.698   0.323 -0.9766 -2.6567 -0.4153
  991MOL0     H36695   9.630   6.894   0.332  0.4156  1.0788  0.3371
  991MOL0     H36696   9.587   6.881   0.498  0.7570  0.7864  0.4231
  991MOL0     H36697   9.736   7.059   0.443  1.0493  0.2014  1.1153
  991MOL0     H36698   9.776   6.967   0.574 -1.2433 -0.6593 -0.2422
  991MOL0     H36699   9.898   6.937   0.277  1.0034  0.3483  0.0460
  991MOL0     H36700   9.975   6.860   0.412  0.6007  0.2766  0.9355
  991MOL0     H36701  10.094   7.087   0.346 -1.3247 -1.7084 -1.4061
  991MOL0     H36702   9.939   7.159   0.399  0.2768  0.4300  0.1780
  991MOL0     H36703   9.985   7.089   0.633 -1.0809  0.9201 -0.7878
  991MOL0     H36704  10.131   7.158   0.570 -2.8955  2.8002  2.2298
  991MOL0     H36705  10.190   6.970   0.687 -1.4096  0.3989  1.5571
  991MOL0     H36706  10.074   6.868   0.614 -1.1506  1.1447 -1.4708
  991MOL0     H36707  10.398   7.049   0.560  0.5204 -0.4441 -0.6218
  991MOL0     H36708  10.630   6.823   0.376  0.7343 -0.0082 -1.2037
  991MOL0     H36709  10.628   6.975   0.451 -0.9127  0.7938 -0.4478
  991MOL0     H36710  10.540   6.951   0.156  1.5330  1.2002 -1.7452
  991MOL0     H36711  10.600   7.095   0.231 -0.2149  0.2599 -1.4506
  991MOL0     H36712  10.768   6.836   0.200 -2.2385  0.2792  0.9320
  991MOL0     H36713  10.776   6.979   0.081  3.4132  0.3789  0.6244
  991MOL0     H36714  10.887   7.105   0.214 -1.8962  0.2383 -2.7638
  991MOL0     H36715  10.853   7.026   0.360  0.6188  2.3850 -0.4589
  991MOL0     H36716  11.188   6.797   0.214  0.2433 -0.0906  1.6974
  991MOL0     H36717  11.525   6.817   0.285 -3.8990 -0.8246  1.5347
  991MOL0     H36718  11.528   6.876   0.107 -1.9558  1.5542 -0.9262
  991MOL0     H36719  11.429   6.745   0.161 -1.9390  0.4323 -0.1505
  991MOL0     H36720  11.678   7.375   0.420 -2.0626 -2.2458 -1.3225
  991MOL0     H36721  11.911   7.477   0.387  1.1862  0.4658 -0.2038
  991MOL0     H36722  12.137   7.381   0.018  0.0164  0.8044  0.6684
  991MOL0     H36723  12.041   7.518  -0.015 -1.6521 -0.8579  0.2242
  991MOL0     H36724  12.251   7.633   0.135 -0.5848  0.3012 -1.2262
  991MOL0     H36725  12.320   7.485   0.122 -0.9016 -0.4161  0.4418
  991MOL0     H36726  12.230   7.645  -0.127 -0.7221  0.7782  2.6144
  991MOL0     H36727  12.304   7.485  -0.119  0.0719  0.3984 -1.0103
  991MOL0     H36728  12.478   7.647  -0.169 -0.7274  0.1617 -1.1444
  991MOL0     H36729  12.496   7.602   0.009 -1.7260 -0.1059  1.2387
  991MOL0     H36730  12.397   7.863  -0.104 -0.9787 -0.3237  0.7769
  991MOL0     H36731  12.372   7.813   0.066  0.7866 -0.7041  0.6762
  991MOL0     H36732  12.641   7.833  -0.075 -0.8179 -1.8136 -0.1778
  991MOL0     H36733  12.609   7.775   0.094 -2.1369 -2.3599 -1.0821
  991MOL0     H36734  12.489   7.983   0.152  1.1843  1.8276 -0.1602
  991MOL0     H36735  12.535   8.064  -0.002 -0.2300  0.8840 -0.4947
  991MOL0     H36736  12.730   7.972   0.210  0.4834  1.4834  0.6373
  991MOL0     H36737  12.693   8.133   0.195 -1.1059  1.4327 -2.2206
  991MOL0     H36738  11.914   7.325  -0.005  0.6675 -1.9167  0.5158
  991MOL0     H36739  11.696   7.220   0.024  0.4577 -0.7456  0.0997
  991MOL0     H36740  11.294   7.270   0.269  2.0062 -0.1036  0.7021
  991MOL0     H36741  11.051   7.174   0.316  0.2908  0.1406  1.3453
  991MOL0     H36742   9.327   6.864   0.262  1.0221 -0.2658 -0.6626
  991MOL0     H36743   9.087   6.861   0.318  0.6446  0.3602 -1.3449
  991MOL0     H36744   8.746   6.765   0.570  1.2144  2.1721 -1.7825
  991MOL0     H36745   8.501   6.786   0.631 -1.1695 -1.6879  0.1635
  991MOL0     H36746   8.121   6.818   0.431 -1.3181 -1.2521  0.7522
  991MOL0     H36747   8.230   6.759   0.301  1.8679 -5.8783 -0.3402
  991MOL0     H36748   8.135   6.594   0.530 -2.8656  1.1633  0.2474
  991MOL0     H36749   8.207   6.533   0.390  1.4406  0.6796  0.6824
  991MOL0     H36750   7.933   6.669   0.412 -0.4141 -0.3670  2.1592
  991MOL0     H36751   7.999   6.592   0.262  3.0737  1.9969  1.0131
  991MOL0     H36752   7.940   6.466   0.540  0.5426  1.7580 -0.2356
  991MOL0     H36753   7.970   6.374   0.388  1.8013  0.6661  0.5649
  991MOL0     H36754   7.578   6.499   0.344 -0.8678 -4.0428  0.4178
  991MOL0     H36755   8.395   6.628   0.248 -0.6195  0.6158  0.7876
  991MOL0     H36756   8.676   6.455   0.190 -0.8337 -0.8435  1.4190
  991MOL0     H36757   8.531   6.523   0.127  2.3622 -2.3012 -1.0045
  991MOL0     H36758   8.677   6.615   0.101 -0.0701 -0.1556 -0.1450
  992MOL0     O36759   7.898   4.734   1.438  0.3308 -0.7554 -0.0328
  992MOL0     C36760   7.800   4.780   1.490  0.3253  0.4232 -0.7449
  992MOL0     O36761   7.728   4.717   1.587  0.6493 -0.1672  0.2158
  992MOL0     C36762   7.773   4.601   1.636 -0.2384  0.4613  0.3572
  992MOL0     C36763   7.711   4.475   1.609 -0.4808 -1.0616 -0.3435
  992MOL0     C36764   7.753   4.357   1.679  0.3141 -0.7543 -0.6074
  992MOL0     C36765   7.847   4.372   1.785 -0.4582 -0.4112  0.6213
  992MOL0     O36766   7.881   4.262   1.857  0.0167  0.4385 -0.3067
  992MOL0     C36767   8.022   4.257   1.893  0.4047 -0.3552  0.2396
  992MOL0     C36768   8.056   4.128   1.953 -0.3531 -0.3603 -0.1632
  992MOL0     C36769   8.046   4.011   1.855  0.1688 -0.4302  0.6104
  992MOL0     C36770   7.900   3.963   1.822  0.1252 -0.0575  0.1327
  992MOL0     C36771   7.875   3.971   1.667  0.1604  1.1657 -0.0876
  992MOL0     C36772   7.731   3.954   1.616 -0.2817 -0.2393  0.8292
  992MOL0     C36773   7.658   3.829   1.674  0.0772 -0.4459  0.1696
  992MOL0     C36774   7.720   3.695   1.618  0.0488 -0.5167  0.0677
  992MOL0     N36775   7.851   3.649   1.669 -0.5724 -0.8428 -0.1046
  992MOL0     C36776   7.862   3.599   1.791 -0.4441 -1.3548 -1.0899
  992MOL0     C36777   7.994   3.577   1.806  0.1175 -0.8835  0.0186
  992MOL0     C36778   8.067   3.507   1.925 -0.0587  0.9619  0.2684
  992MOL0     C36779   7.978   3.421   2.020 -0.3231  0.7782  0.1179
  992MOL0     C36780   8.061   3.334   2.118 -0.2061  0.7750 -0.2353
  992MOL0     C36781   8.130   3.408   2.225 -0.5191 -0.6863 -1.1849
  992MOL0     O36782   8.240   3.493   2.178 -0.6965  0.0154 -0.1581
  992MOL0     C36783   8.370   3.482   2.200  0.9065  0.0074  0.2075
  992MOL0     C36784   8.449   3.477   2.083  0.1181  0.5428 -0.1930
  992MOL0     C36785   8.593   3.461   2.092  1.0009 -0.9800  0.5338
  992MOL0     C36786   8.665   3.454   1.964  1.3156 -0.2041 -0.3645
  992MOL0     C36787   8.657   3.454   2.218 -0.3970 -0.0245 -0.1443
  992MOL0     C36788   8.807   3.440   2.242  0.3723  0.5020  0.1940
  992MOL0     O36789   8.844   3.445   2.374  0.1269  0.8602  0.7540
  992MOL0     C36790   8.976   3.431   2.403  0.1419 -0.1647 -0.1894
  992MOL0     C36791   9.013   3.339   2.504  0.4011  0.6695 -0.1501
  992MOL0     C36792   9.142   3.344   2.557 -0.4612  0.2236 -0.5407
  992MOL0     C36793   9.240   3.430   2.516 -0.0376  0.9263  0.7491
  992MOL0     O36794   9.362   3.408   2.578  0.6863 -0.3778 -0.3732
  992MOL0     C36795   9.470   3.490   2.546  0.2090 -0.5326  0.5917
  992MOL0     C36796   9.609   3.446   2.595  0.4433 -0.0385  0.0454
  992MOL0     C36797   9.647   3.306   2.533 -0.7513 -0.5872 -0.3946
  992MOL0     C36798   9.794   3.265   2.557 -0.4385  0.0125  0.3277
  992MOL0     C36799   9.858   3.159   2.467 -0.6219 -0.3258  0.2476
  992MOL0     C36800   9.796   3.021   2.466  0.2021 -0.1155 -0.7252
  992MOL0     C36801   9.791   2.926   2.590 -0.5904 -0.2443 -0.1514
  992MOL0     C36802   9.917   2.914   2.656 -0.0682 -0.0854  0.1277
  992MOL0    Cl36803   9.906   2.773   2.766  0.6418  0.1501 -0.2483
  992MOL0     C36804   9.202   3.520   2.416  0.7837 -0.1717 -0.0610
  992MOL0     C36805   9.077   3.518   2.352  0.2422  0.1234 -0.1094
  992MOL0     O36806   8.880   3.410   2.154 -0.3299 -0.2501  0.0459
  992MOL0     C36807   8.573   3.451   2.329 -0.6278  0.8609  0.7357
  992MOL0     C36808   8.435   3.452   2.323  0.1262 -1.1470  0.6059
  992MOL0     N36809   8.055   3.604   1.683  0.7250 -0.2988  0.0691
  992MOL0     N36810   7.971   3.660   1.599 -0.1471  0.2004 -0.0117
  992MOL0     C36811   7.900   4.498   1.814 -0.2045 -0.5091  0.1080
  992MOL0     C36812   7.861   4.609   1.738 -0.5185  0.7553 -0.2970
  992MOL0     C36813   7.759   4.920   1.460  0.4546  0.1624 -0.1005
  992MOL0     C36814   7.652   4.980   1.527  0.3876  1.2395 -0.5321
  992MOL0     C36815   7.594   5.106   1.513 -0.7663  0.0816 -0.3763
  992MOL0     C36816   7.641   5.168   1.399  0.3882 -1.1495  0.0885
  992MOL0     O36817   7.586   5.290   1.396  0.1507 -0.2435 -0.4159
  992MOL0     C36818   7.566   5.368   1.276  0.5832  0.1919  0.6663
  992MOL0     C36819   7.490   5.499   1.296  0.1484 -0.3187  0.6294
  992MOL0     C36820   7.414   5.558   1.161 -0.3322  0.1138 -0.3986
  992MOL0     C36821   7.324   5.458   1.081 -0.0149  0.1547 -0.5550
  992MOL0     C36822   7.224   5.394   1.168  0.3565  0.2673 -0.2617
  992MOL0     C36823   7.146   5.330   1.233 -0.2600  0.7729 -0.3560
  992MOL0     C36824   7.737   5.117   1.310 -0.0678  0.3990 -0.7105
  992MOL0     C36825   7.795   4.994   1.341 -0.2264  0.1441 -0.2479
  992MOL0     C36826   7.911   4.951   1.244  1.1314 -0.3771 -0.4440
  992MOL0     H36827   7.632   4.482   1.536 -0.3725  3.8807 -0.2825
  992MOL0     H36828   7.720   4.255   1.658 -0.6547 -0.6856  0.4373
  992MOL0     H36829   8.038   4.332   1.971 -1.2024 -0.3712  0.6088
  992MOL0     H36830   8.085   4.290   1.809  1.1754  1.7088  1.5578
  992MOL0     H36831   8.158   4.133   1.994 -1.0768  0.7552  1.6368
  992MOL0     H36832   7.981   4.121   2.032 -2.2930 -2.6380 -2.0511
  992MOL0     H36833   8.101   4.048   1.768 -0.2583  0.5746  0.7617
  992MOL0     H36834   8.104   3.925   1.891  0.0333 -0.8917 -0.2394
  992MOL0     H36835   7.893   3.862   1.864  1.1049 -0.4400 -0.5851
  992MOL0     H36836   7.832   4.028   1.877  1.3910 -1.0137  2.9935
  992MOL0     H36837   7.946   3.905   1.616  0.0797  0.2390  0.9615
  992MOL0     H36838   7.910   4.070   1.636  1.9847  1.1192  1.6308
  992MOL0     H36839   7.677   4.043   1.650  1.3054  0.3344  2.0090
  992MOL0     H36840   7.750   3.954   1.509  3.4412 -1.7281  1.3213
  992MOL0     H36841   7.557   3.832   1.633 -0.0749 -3.2057  0.1812
  992MOL0     H36842   7.641   3.819   1.781 -2.4738 -1.9997 -0.2980
  992MOL0     H36843   7.641   3.621   1.631  0.3766 -1.4053 -2.4843
  992MOL0     H36844   7.721   3.711   1.510  0.6518  2.7955  0.4568
  992MOL0     H36845   7.790   3.593   1.872 -0.0468 -3.8123 -0.8490
  992MOL0     H36846   8.108   3.580   1.994 -1.5819  0.4672  1.7585
  992MOL0     H36847   8.147   3.448   1.878 -2.3269 -0.2874 -2.3110
  992MOL0     H36848   7.900   3.476   2.074 -1.7727  0.1181 -1.1985
  992MOL0     H36849   7.926   3.358   1.947 -0.5887  2.0513 -0.8373
  992MOL0     H36850   7.994   3.261   2.165  0.7325 -1.0998 -1.6746
  992MOL0     H36851   8.131   3.262   2.075 -2.1064 -1.0590 -0.4327
  992MOL0     H36852   8.055   3.468   2.279  1.5032  0.5019  0.4896
  992MOL0     H36853   8.177   3.333   2.289  1.6147  2.4549  1.2683
  992MOL0     H36854   8.397   3.484   1.987  1.0660  0.4229 -0.7219
  992MOL0     H36855   8.707   3.353   1.963 -3.4515 -2.5094  1.8116
  992MOL0     H36856   8.740   3.534   1.968  0.3517  0.6634  1.6562
  992MOL0     H36857   8.595   3.486   1.887 -0.5451  1.8104  1.9957
  992MOL0     H36858   8.934   3.266   2.525  2.2080 -1.5018 -0.4811
  992MOL0     H36859   9.171   3.277   2.638  2.1517 -0.3992 -1.9075
  992MOL0     H36860   9.481   3.505   2.438 -0.3213  0.2476  0.6316
  992MOL0     H36861   9.441   3.592   2.574  1.1522  0.2253 -1.0602
  992MOL0     H36862   9.685   3.516   2.558  1.6163 -0.2792  1.8508
  992MOL0     H36863   9.620   3.439   2.704 -2.5434  0.1607  0.4428
  992MOL0     H36864   9.639   3.313   2.424 -1.2916 -0.0450 -0.3168
  992MOL0     H36865   9.586   3.224   2.573  0.9374 -1.8935 -0.3607
  992MOL0     H36866   9.811   3.225   2.657  0.2469 -2.1113 -0.5781
  992MOL0     H36867   9.861   3.350   2.540 -1.1016  0.5542  0.4139
  992MOL0     H36868   9.851   3.191   2.362  0.7634  0.0335  0.2378
  992MOL0     H36869   9.965   3.161   2.490 -0.8880  3.2610  1.8083
  992MOL0     H36870   9.843   2.958   2.389  0.9235  0.4119 -0.7246
  992MOL0     H36871   9.691   3.033   2.439 -0.7533 -2.8537  1.3072
  992MOL0     H36872   9.755   2.830   2.553 -0.8092 -0.7544  1.3236
  992MOL0     H36873   9.708   2.955   2.655 -4.1515 -3.7244 -2.6722
  992MOL0     H36874   9.940   3.006   2.709 -0.4225  0.7153 -1.0758
  992MOL0     H36875  10.009   2.895   2.599  1.3629 -0.9565  2.5588
  992MOL0     H36876   9.282   3.585   2.383  0.7709 -0.8152 -1.4157
  992MOL0     H36877   9.048   3.576   2.265  1.1396  3.1872  1.4955
  992MOL0     H36878   8.612   3.429   2.428 -1.3281 -0.6807  0.6979
  992MOL0     H36879   8.369   3.437   2.408 -0.3923  1.4828  0.7677
  992MOL0     H36880   7.972   4.521   1.891  1.9776 -0.9312 -1.6917
  992MOL0     H36881   7.890   4.709   1.769  3.3905 -0.0693 -0.6641
  992MOL0     H36882   7.630   4.928   1.620 -0.2787  2.2478 -0.1065
  992MOL0     H36883   7.527   5.154   1.583  1.5305  1.1212  1.2444
  992MOL0     H36884   7.666   5.386   1.236 -0.6394  0.2641 -2.6262
  992MOL0     H36885   7.516   5.299   1.207  0.2959 -0.6520  1.6768
  992MOL0     H36886   7.548   5.581   1.340 -0.7085 -0.2503  1.6546
  992MOL0     H36887   7.415   5.483   1.373 -0.9432 -1.3010 -0.5906
  992MOL0     H36888   7.347   5.640   1.192  1.2860  0.4277  2.6554
  992MOL0     H36889   7.482   5.611   1.094 -0.1938  1.6711  0.8875
  992MOL0     H36890   7.389   5.379   1.042 -0.3078 -0.4135  0.1092
  992MOL0     H36891   7.276   5.503   0.994 -1.8107 -0.3361  0.1500
  992MOL0     H36892   7.090   5.267   1.298  4.1625 -1.2229  1.9703
  992MOL0     H36893   7.774   5.161   1.218  1.4654 -0.5825 -0.5951
  992MOL0     H36894   8.002   4.958   1.304  1.9964  0.0676 -1.7617
  992MOL0     H36895   7.905   4.850   1.203  1.4748 -0.9713  0.9168
  992MOL0     H36896   7.936   5.006   1.152  0.7635 -1.6825 -1.3520
  993MOL0     O36897   3.788   1.568   1.195 -0.4329  0.1212 -0.6133
  993MOL0     C36898   3.770   1.563   1.077 -0.0007 -0.4743  0.5930
  993MOL0     O36899   3.851   1.626   0.988 -0.0825  0.4948  0.1980
  993MOL0     C36900   3.965   1.689   1.038 -0.0921  0.0043  0.5115
  993MOL0     C36901   3.951   1.825   1.082 -0.4871  0.4967 -0.1956
  993MOL0     C36902   4.068   1.902   1.111  0.6312  0.1031  0.2166
  993MOL0     C36903   4.192   1.839   1.090 -0.4335  0.2968 -1.0409
  993MOL0     O36904   4.315   1.902   1.102 -0.2692  0.2393  0.2968
  993MOL0     C36905   4.315   2.048   1.129 -0.3497 -0.0446  0.8511
  993MOL0     C36906   4.450   2.110   1.126  0.4887 -0.2570 -1.0490
  993MOL0     C36907   4.532   2.033   1.230 -1.0827  0.3512  0.1502
  993MOL0     C36908   4.655   2.116   1.268  0.0794 -0.3290  0.8959
  993MOL0     C36909   4.757   2.060   1.362  0.0654 -0.0474  0.4026
  993MOL0     C36910   4.712   2.023   1.509 -0.4582  0.1667 -0.0104
  993MOL0     C36911   4.848   2.000   1.585  0.3836  0.0507 -0.8561
  993MOL0     C36912   4.906   2.134   1.639  0.5543  0.1573  0.4480
  993MOL0     N36913   5.025   2.107   1.719  0.0495 -0.7688  0.6356
  993MOL0     C36914   5.004   2.050   1.843 -0.1906  0.3278  0.3946
  993MOL0     C36915   5.131   2.029   1.889 -0.6153  0.6893  0.7550
  993MOL0     C36916   5.158   2.020   2.035 -0.6872  0.6558 -0.5368
  993MOL0     C36917   5.208   1.885   2.058  0.8729  0.0856 -0.2876
  993MOL0     C36918   5.279   1.865   2.202  0.1651  1.0905  0.0154
  993MOL0     C36919   5.432   1.904   2.208  0.4730  0.4659 -0.8324
  993MOL0     O36920   5.513   1.855   2.313 -0.7679  0.1973 -0.5154
  993MOL0     C36921   5.646   1.830   2.298  0.5464  0.7894 -0.2367
  993MOL0     C36922   5.725   1.858   2.185 -0.1272 -0.5385 -0.4932
  993MOL0     C36923   5.865   1.849   2.203 -1.1311 -0.5924  0.1259
  993MOL0     C36924   5.935   1.902   2.085  0.0886 -0.1148  0.8330
  993MOL0     C36925   5.924   1.804   2.326 -0.0598 -0.7190 -1.0467
  993MOL0     C36926   6.075   1.777   2.337  0.6383 -0.0626  1.0955
  993MOL0     O36927   6.113   1.767   2.470 -0.1762  0.3961  0.7917
  993MOL0     C36928   6.235   1.736   2.504 -0.2077 -0.0649 -0.5949
  993MOL0     C36929   6.363   1.769   2.441  0.1856 -0.8773 -0.7589
  993MOL0     C36930   6.485   1.730   2.494  0.9564  0.1248  0.0123
  993MOL0     C36931   6.494   1.663   2.620  0.0809 -0.0259 -0.5227
  993MOL0     O36932   6.622   1.640   2.661 -0.1447 -0.1059  0.1066
  993MOL0     C36933   6.624   1.574   2.791 -0.0455 -0.0214  0.9412
  993MOL0     C36934   6.761   1.542   2.830 -0.4697 -0.4688 -0.4888
  993MOL0     C36935   6.804   1.664   2.912 -0.0290 -0.7097  0.4154
  993MOL0     C36936   6.940   1.650   2.994 -0.3270 -0.0257  0.6454
  993MOL0     C36937   7.071   1.625   2.909  0.8071 -0.1491 -0.5019
  993MOL0     C36938   7.207   1.616   2.976  0.3616 -0.3088  0.6987
  993MOL0     C36939   7.212   1.715   3.092 -0.0216 -0.4144  0.0968
  993MOL0     C36940   7.348   1.689   3.156  0.3482 -0.6126 -0.5870
  993MOL0    Cl36941   7.483   1.716   3.036  0.0169  0.0991 -0.1195
  993MOL0     C36942   6.372   1.627   2.685 -0.2037  0.5688 -0.6632
  993MOL0     C36943   6.247   1.669   2.629 -0.1008  0.8021  0.2967
  993MOL0     O36944   6.151   1.769   2.238  0.5748  0.1126  0.2649
  993MOL0     C36945   5.835   1.774   2.435 -0.1606  0.4875 -0.0884
  993MOL0     C36946   5.699   1.787   2.415 -0.2564  0.8107 -1.2289
  993MOL0     N36947   5.226   2.075   1.795  0.7105  1.6768  0.2207
  993MOL0     N36948   5.157   2.102   1.689  0.2037  0.7876  0.2090
  993MOL0     C36949   4.203   1.702   1.051  0.2790 -0.2177 -0.1720
  993MOL0     C36950   4.087   1.624   1.037  0.0475  0.7745  0.4249
  993MOL0     C36951   3.642   1.510   1.027  0.1327  0.1834 -0.3626
  993MOL0     C36952   3.537   1.494   1.113 -0.3491  0.6432 -0.2405
  993MOL0     C36953   3.419   1.434   1.068 -0.1946  0.2158  0.5221
  993MOL0     C36954   3.403   1.374   0.946  0.1891  0.3074 -0.1352
  993MOL0     O36955   3.280   1.317   0.913  0.3298 -0.3409 -0.2631
  993MOL0     C36956   3.176   1.407   0.924  0.3371 -0.1265  0.3117
  993MOL0     C36957   3.080   1.384   0.811  0.4342  0.3842 -0.0860
  993MOL0     C36958   3.009   1.248   0.842  1.0332 -0.2429 -0.7095
  993MOL0     C36959   2.876   1.233   0.775 -0.4227 -0.5565 -0.2746
  993MOL0     C36960   2.782   1.300   0.862  0.7576  0.0092  0.6242
  993MOL0     C36961   2.700   1.348   0.931 -0.1022  0.4594 -0.2970
  993MOL0     C36962   3.507   1.376   0.858 -0.1778  0.2765 -0.2326
  993MOL0     C36963   3.623   1.448   0.893  0.0899  0.2980  0.1282
  993MOL0     C36964   3.728   1.439   0.790 -0.4878 -0.0227  0.6865
  993MOL0     H36965   3.849   1.859   1.068 -0.7566 -0.8523 -1.7818
  993MOL0     H36966   4.059   2.009   1.130  0.3871  0.1398 -0.1078
  993MOL0     H36967   4.285   2.073   1.231 -0.3670  1.4522  0.5134
  993MOL0     H36968   4.258   2.094   1.048  2.2783 -0.8826 -1.6395
  993MOL0     H36969   4.499   2.091   1.030  3.2547 -0.2485  0.2311
  993MOL0     H36970   4.451   2.218   1.143 -3.1620  0.1767 -2.6475
  993MOL0     H36971   4.473   1.994   1.312 -0.5118  1.0436  0.9111
  993MOL0     H36972   4.565   1.942   1.180  0.6966  1.9630 -1.8057
  993MOL0     H36973   4.713   2.143   1.180 -1.7463  0.8258 -0.0195
  993MOL0     H36974   4.616   2.203   1.322 -0.9772 -0.6080  0.6146
  993MOL0     H36975   4.835   2.137   1.366 -0.5190  0.7321 -1.7812
  993MOL0     H36976   4.807   1.976   1.312  0.3496  0.8440 -0.8561
  993MOL0     H36977   4.649   2.105   1.544 -0.6713  1.3466 -2.8632
  993MOL0     H36978   4.659   1.930   1.487  0.1960 -0.3514  0.5842
  993MOL0     H36979   4.916   1.945   1.519  0.8952  1.3326 -1.4262
  993MOL0     H36980   4.829   1.934   1.671  0.3014 -1.0978 -1.7227
  993MOL0     H36981   4.918   2.211   1.563 -2.4237  0.1449 -0.1731
  993MOL0     H36982   4.832   2.179   1.706 -1.5322 -1.9300 -0.2957
  993MOL0     H36983   4.905   2.049   1.889 -1.9136 -2.3883 -2.8742
  993MOL0     H36984   5.073   2.058   2.091  0.2537  0.6568  0.9435
  993MOL0     H36985   5.230   2.100   2.057 -0.8857  0.5232  0.6629
  993MOL0     H36986   5.130   1.809   2.051  1.2499 -0.2939 -0.4107
  993MOL0     H36987   5.269   1.848   1.976 -3.0228 -1.9658 -2.5639
  993MOL0     H36988   5.223   1.918   2.280  1.2724  1.1503  0.7793
  993MOL0     H36989   5.258   1.762   2.233  0.1133  1.4628  1.2801
  993MOL0     H36990   5.475   1.870   2.114 -0.6766 -0.3978 -1.0646
  993MOL0     H36991   5.451   2.012   2.208  1.5882  0.3474  1.6762
  993MOL0     H36992   5.686   1.907   2.096  0.8099 -1.5053 -1.4630
  993MOL0     H36993   6.035   1.932   2.118  0.5458 -3.4004  2.8484
  993MOL0     H36994   5.883   1.985   2.034  1.2322  0.2581  0.2495
  993MOL0     H36995   5.953   1.831   2.004 -3.0500 -0.5223  0.3448
  993MOL0     H36996   6.367   1.821   2.345  0.9842 -2.4854 -1.6400
  993MOL0     H36997   6.580   1.761   2.453  1.1795  1.9030  1.6848
  993MOL0     H36998   6.574   1.642   2.860  0.7270  1.3541  0.1831
  993MOL0     H36999   6.583   1.472   2.784  0.1157 -0.0741  0.7575
  993MOL0     H37000   6.755   1.454   2.895  0.3853 -0.4055 -0.3093
  993MOL0     H37001   6.816   1.515   2.739 -1.3058 -2.9334 -0.3407
  993MOL0     H37002   6.728   1.683   2.988 -0.1880 -0.3845  0.1765
  993MOL0     H37003   6.810   1.758   2.857 -1.3706 -0.7049  0.2629
  993MOL0     H37004   6.942   1.573   3.071  0.7175  1.8204  2.5852
  993MOL0     H37005   6.959   1.744   3.047 -0.1071  0.4357 -0.2141
  993MOL0     H37006   7.062   1.538   2.842 -4.0067  0.0087 -0.4324
  993MOL0     H37007   7.066   1.707   2.837 -1.0235  0.3865  0.1617
  993MOL0     H37008   7.286   1.643   2.904  1.5766 -1.4522  1.5634
  993MOL0     H37009   7.220   1.512   3.005  2.8272 -0.5716 -0.9683
  993MOL0     H37010   7.132   1.704   3.165  2.0980  3.1720  3.3229
  993MOL0     H37011   7.213   1.816   3.051  0.6260 -0.6160 -0.4194
  993MOL0     H37012   7.353   1.592   3.207  1.6080 -0.7086 -0.8732
  993MOL0     H37013   7.354   1.758   3.241 -1.7737 -0.1293 -0.7751
  993MOL0     H37014   6.382   1.576   2.780  1.8513  0.9289 -0.6543
  993MOL0     H37015   6.155   1.646   2.683 -0.8453 -0.1960 -1.3058
  993MOL0     H37016   5.871   1.732   2.528  0.7044 -0.8544 -0.9924
  993MOL0     H37017   5.628   1.752   2.490 -0.0598 -2.1031 -2.2669
  993MOL0     H37018   4.303   1.660   1.040  0.8724  1.2653 -0.8692
  993MOL0     H37019   4.101   1.522   1.002 -2.8222  0.9318 -1.4894
  993MOL0     H37020   3.541   1.531   1.215 -0.1929 -0.7999  0.2984
  993MOL0     H37021   3.341   1.436   1.144  2.0093 -0.7186  3.0193
  993MOL0     H37022   3.139   1.403   1.027  2.5679  0.8211  1.2239
  993MOL0     H37023   3.208   1.512   0.924  2.4594 -0.5755 -4.0238
  993MOL0     H37024   3.139   1.376   0.719  2.3633 -0.7218  1.1900
  993MOL0     H37025   3.013   1.470   0.801 -1.8643 -1.5692 -2.8525
  993MOL0     H37026   3.080   1.172   0.809 -0.3860 -1.4647 -1.0324
  993MOL0     H37027   2.994   1.239   0.950  1.7031 -2.4610 -0.7459
  993MOL0     H37028   2.848   1.128   0.774 -0.6720 -0.4881 -0.5663
  993MOL0     H37029   2.867   1.273   0.673  0.3600  1.2808  0.3204
  993MOL0     H37030   2.617   1.378   0.991  0.3606 -1.7669  1.6092
  993MOL0     H37031   3.486   1.325   0.765  0.5926 -0.9769  0.2557
  993MOL0     H37032   3.686   1.386   0.704  2.1457 -1.3826  0.1201
  993MOL0     H37033   3.763   1.540   0.766  0.8045 -0.4802  0.5569
  993MOL0     H37034   3.818   1.395   0.834  0.5952  1.7477  0.3218
  994MOL0     O37035  10.827  10.111   7.191 -0.3202  0.4235  0.1113
  994MOL0     C37036  10.844  10.213   7.261  0.2723  0.2205  0.0928
  994MOL0     O37037  10.953  10.235   7.344  0.3728  0.5099  0.0479
  994MOL0     C37038  11.051  10.144   7.325 -0.9883 -0.7343 -0.2298
  994MOL0     C37039  11.077  10.065   7.443  0.0046  0.3656  1.3298
  994MOL0     C37040  11.194   9.984   7.442  0.0511 -0.1319  0.1320
  994MOL0     C37041  11.272   9.970   7.329  0.0110 -0.0718 -0.0197
  994MOL0     O37042  11.384   9.897   7.347 -0.0221  0.1674  0.3181
  994MOL0     C37043  11.450   9.843   7.235  0.1741  0.8324 -0.4456
  994MOL0     C37044  11.563   9.761   7.284 -0.0115 -0.4411 -0.3763
  994MOL0     C37045  11.678   9.835   7.349 -0.1283 -0.0009 -0.2006
  994MOL0     C37046  11.800   9.746   7.385 -0.0451  0.9037 -0.7003
  994MOL0     C37047  11.901   9.721   7.278  0.4640  0.2756  0.6074
  994MOL0     C37048  11.987   9.842   7.239  0.5356 -0.6362  0.5286
  994MOL0     C37049  12.106   9.849   7.338 -0.7239  0.2254 -1.0145
  994MOL0     C37050  12.206   9.953   7.295  0.5266  0.3351  0.1131
  994MOL0     N37051  12.309   9.968   7.401  0.1708 -0.2318  0.4755
  994MOL0     C37052  12.413   9.881   7.419 -0.5613 -0.6078 -0.3133
  994MOL0     C37053  12.482   9.925   7.541 -0.0327  0.7105 -0.2181
  994MOL0     C37054  12.592   9.855   7.608 -0.4584 -0.5761  1.2051
  994MOL0     C37055  12.718   9.881   7.522 -0.6161 -0.5294 -0.7355
  994MOL0     C37056  12.856   9.865   7.597  0.0260 -0.2954 -0.3905
  994MOL0     C37057  12.968   9.908   7.501  0.9108 -0.3171 -0.3909
  994MOL0     O37058  12.970   9.827   7.383 -0.6744 -0.0260  0.2761
  994MOL0     C37059  13.069   9.860   7.299  0.6866 -0.7803 -0.0392
  994MOL0     C37060  13.195   9.897   7.335 -0.0423 -0.4834  0.1697
  994MOL0     C37061  13.299   9.920   7.236 -0.2697  0.5033  0.7978
  994MOL0     C37062  13.438   9.953   7.283  0.1631  0.5541 -0.0780
  994MOL0     C37063  13.257   9.913   7.099  0.1379 -0.1891 -0.4046
  994MOL0     C37064  13.350   9.944   6.987  0.0559 -0.8184 -0.3759
  994MOL0     O37065  13.287   9.939   6.862 -0.6166  0.0596 -0.1602
  994MOL0     C37066  13.353   9.954   6.744  0.1361  0.3257 -0.6658
  994MOL0     C37067  13.421   9.847   6.685  0.2395 -0.6922 -0.0293
  994MOL0     C37068  13.482   9.862   6.552 -0.1773  0.3470  0.0892
  994MOL0     C37069  13.451   9.978   6.476 -0.4193 -0.3935 -1.0690
  994MOL0     O37070  13.498   9.968   6.344  0.3221 -0.2625 -1.0209
  994MOL0     C37071  13.453  10.047   6.237  0.6017  0.3663  0.0652
  994MOL0     C37072  13.304  10.043   6.225  1.0240 -0.2951 -0.1588
  994MOL0     C37073  13.267  10.107   6.098 -0.6451 -0.9778  0.1197
  994MOL0     C37074  13.123  10.088   6.064 -0.0924 -0.1048 -0.1112
  994MOL0     C37075  13.081  10.164   5.935  1.0312 -1.0452  0.1231
  994MOL0     C37076  13.121  10.093   5.804 -0.3324  0.9687  0.5021
  994MOL0     C37077  13.078  10.171   5.676 -0.1479  0.0078  0.3034
  994MOL0     C37078  13.096  10.084   5.553  0.8011 -1.4874  0.7909
  994MOL0    Cl37079  13.080  10.170   5.401  0.7518 -0.0402 -0.2930
  994MOL0     C37080  13.368  10.079   6.535 -0.7224 -0.4086  0.0995
  994MOL0     C37081  13.315  10.062   6.664 -0.1023  0.1696 -0.5774
  994MOL0     O37082  13.470   9.974   7.003 -0.1720  0.1162 -0.1066
  994MOL0     C37083  13.128   9.878   7.065  0.1190  0.0455 -0.0107
  994MOL0     C37084  13.034   9.851   7.168  0.1309 -0.1249  0.5821
  994MOL0     N37085  12.412  10.044   7.571 -0.0889 -0.4051 -1.6588
  994MOL0     N37086  12.314  10.065   7.496 -0.1287  0.2964 -0.0991
  994MOL0     C37087  11.235  10.032   7.205 -0.2636 -0.0508 -0.1721
  994MOL0     C37088  11.128  10.123   7.205 -0.0367 -0.3060 -0.6332
  994MOL0     C37089  10.731  10.317   7.279  0.1700  0.2260  0.3892
  994MOL0     C37090  10.754  10.431   7.355 -0.2531 -0.0697  0.8144
  994MOL0     C37091  10.675  10.540   7.334 -0.6871 -0.8033 -0.2049
  994MOL0     C37092  10.564  10.536   7.249  0.1192 -1.3263 -0.5890
  994MOL0     O37093  10.502  10.658   7.234 -0.1131  0.1557  0.4740
  994MOL0     C37094  10.426  10.706   7.342  0.2781 -0.4377  0.4802
  994MOL0     C37095  10.311  10.618   7.366 -0.6599 -0.1318 -0.2580
  994MOL0     C37096  10.228  10.660   7.490 -0.2291 -0.4625 -0.0200
  994MOL0     C37097  10.091  10.603   7.517  0.2660 -0.0975 -0.3586
  994MOL0     C37098  10.022  10.694   7.609  0.2877  0.2119  0.5424
  994MOL0     C37099   9.962  10.768   7.675 -0.0311 -0.3782 -0.2281
  994MOL0     C37100  10.527  10.419   7.190 -0.4165 -0.5576 -0.1240
  994MOL0     C37101  10.614  10.309   7.200  0.2447 -0.2690  0.6738
  994MOL0     C37102  10.567  10.193   7.110 -0.2068  0.3979 -0.2462
  994MOL0     H37103  10.996  10.073   7.515 -1.2530  0.2176 -0.0232
  994MOL0     H37104  11.232   9.934   7.531  1.8220  0.4363 -0.2681
  994MOL0     H37105  11.498   9.918   7.171 -1.2732 -0.1562 -2.8168
  994MOL0     H37106  11.394   9.777   7.169 -0.3008  0.6879  0.0950
  994MOL0     H37107  11.529   9.684   7.355 -0.4181  0.3896  0.3420
  994MOL0     H37108  11.598   9.718   7.189 -1.9169  1.0285 -1.8046
  994MOL0     H37109  11.711   9.915   7.281  0.2895 -0.0373 -0.0434
  994MOL0     H37110  11.633   9.874   7.441  1.4989 -0.8210  0.9940
  994MOL0     H37111  11.845   9.785   7.477  0.2013  0.4132 -0.6064
  994MOL0     H37112  11.749   9.653   7.412  1.5394  0.2392  0.1497
  994MOL0     H37113  11.849   9.681   7.191  2.4326 -0.0623 -0.4941
  994MOL0     H37114  11.965   9.636   7.305 -1.3502 -1.7960 -1.1370
  994MOL0     H37115  12.024   9.816   7.139 -1.8548 -1.1347 -0.2930
  994MOL0     H37116  11.934   9.935   7.216  0.5346 -0.4521  1.2678
  994MOL0     H37117  12.166   9.757   7.347  1.8909  1.9169  0.0449
  994MOL0     H37118  12.069   9.879   7.437  3.6437 -1.1295  1.3428
  994MOL0     H37119  12.241   9.925   7.196 -0.1721 -1.8253  0.4258
  994MOL0     H37120  12.152  10.046   7.277  0.7078  0.2133 -1.1248
  994MOL0     H37121  12.432   9.785   7.370  3.1858 -0.7542  1.0680
  994MOL0     H37122  12.558   9.751   7.617  0.2386 -1.0696 -1.1852
  994MOL0     H37123  12.605   9.903   7.705 -0.6097  0.4424  0.7311
  994MOL0     H37124  12.727   9.811   7.438  2.2628 -0.3478 -0.6742
  994MOL0     H37125  12.717   9.985   7.486 -0.0288  0.3481  1.6063
  994MOL0     H37126  12.851   9.933   7.683 -0.4355 -0.7136 -0.0790
  994MOL0     H37127  12.867   9.764   7.639 -3.1125 -0.9578 -0.9157
  994MOL0     H37128  12.945  10.011   7.470  0.0256 -0.2343  0.5161
  994MOL0     H37129  13.060   9.900   7.560 -1.3512  0.0826  3.4829
  994MOL0     H37130  13.221   9.898   7.441  1.8198  1.7920 -0.2106
  994MOL0     H37131  13.495   9.859   7.282 -1.8597 -0.7911  1.5724
  994MOL0     H37132  13.435   9.970   7.391  0.0165  0.6983 -0.1059
  994MOL0     H37133  13.498  10.030   7.235 -0.3469  2.0338  1.5635
  994MOL0     H37134  13.433   9.755   6.741 -1.9717 -1.1351 -0.2223
  994MOL0     H37135  13.538   9.784   6.502 -2.7403 -0.1354 -2.3359
  994MOL0     H37136  13.482  10.152   6.245 -0.4155  0.5837  1.2815
  994MOL0     H37137  13.501  10.014   6.145 -2.9563 -1.4116 -1.3366
  994MOL0     H37138  13.259   9.943   6.218 -0.9906  0.6917 -3.9036
  994MOL0     H37139  13.269  10.093   6.315  1.8043 -0.5431  0.2900
  994MOL0     H37140  13.323  10.062   6.015 -2.3819 -0.1143 -1.5834
  994MOL0     H37141  13.293  10.212   6.091 -0.2701 -1.1017 -0.3620
  994MOL0     H37142  13.060  10.118   6.148  0.5768 -0.8568  0.6775
  994MOL0     H37143  13.101   9.982   6.051  0.1324 -0.4717  2.1278
  994MOL0     H37144  12.974  10.187   5.931  1.4869  1.5736  1.0454
  994MOL0     H37145  13.139  10.257   5.933  3.1068 -2.2659  0.7575
  994MOL0     H37146  13.079   9.992   5.804 -2.8838  1.9145 -0.8602
  994MOL0     H37147  13.230  10.090   5.804 -0.2696  2.1354 -0.7684
  994MOL0     H37148  13.137  10.264   5.674 -0.3921  0.1434 -1.1247
  994MOL0     H37149  12.975  10.199   5.699 -0.0606 -0.8701  1.9403
  994MOL0     H37150  13.027  10.000   5.564  0.8868 -1.2207  4.1348
  994MOL0     H37151  13.198  10.045   5.558  1.7595  0.4458 -1.5483
  994MOL0     H37152  13.352  10.173   6.483  1.9068 -0.9718 -1.9366
  994MOL0     H37153  13.244  10.133   6.706 -0.1418 -0.3308  0.2047
  994MOL0     H37154  13.097   9.876   6.961  0.9458 -1.1681 -0.2495
  994MOL0     H37155  12.934   9.820   7.139  1.1491 -1.3609 -1.8767
  994MOL0     H37156  11.288  10.006   7.114 -1.3043 -2.5413 -0.1624
  994MOL0     H37157  11.092  10.163   7.111 -1.7912 -2.0306 -0.7659
  994MOL0     H37158  10.848  10.440   7.410  2.5195 -0.1252 -3.4215
  994MOL0     H37159  10.702  10.628   7.393 -3.8320  0.2918 -0.1838
  994MOL0     H37160  10.473  10.707   7.440 -1.9544 -2.2632  1.6756
  994MOL0     H37161  10.383  10.801   7.309 -0.9348 -1.5879 -1.4436
  994MOL0     H37162  10.351  10.518   7.386  0.0228 -0.1989 -1.8286
  994MOL0     H37163  10.238  10.612   7.284 -0.8083 -0.2950 -0.1140
  994MOL0     H37164  10.292  10.650   7.578 -0.8449 -1.0550  0.3718
  994MOL0     H37165  10.214  10.768   7.483  1.7621 -0.2585 -1.8082
  994MOL0     H37166  10.091  10.500   7.552  1.3782 -0.3873 -1.1522
  994MOL0     H37167  10.037  10.593   7.423  1.4107 -0.4269 -0.9968
  994MOL0     H37168   9.899  10.830   7.736  0.8814 -0.1663  0.5201
  994MOL0     H37169  10.442  10.418   7.123  0.4688 -1.3287 -1.2876
  994MOL0     H37170  10.602  10.192   7.007  0.7060  0.3941  0.0568
  994MOL0     H37171  10.595  10.095   7.150  0.6634  1.4494  1.8835
  994MOL0     H37172  10.457  10.196   7.113 -0.2600 -0.6022 -0.7510
  995MOL0     O37173   5.873   1.921  11.357  0.5550  0.4972  0.3850
  995MOL0     C37174   5.833   2.012  11.290 -0.7003  0.2973  0.5185
  995MOL0     O37175   5.816   1.999  11.149 -0.0815 -0.7302  0.3897
  995MOL0     C37176   5.890   1.914  11.062  0.3364 -0.4965 -0.1170
  995MOL0     C37177   6.032   1.926  11.049 -0.8649 -0.2787  0.0707
  995MOL0     C37178   6.097   1.828  10.964  0.1804 -0.3443 -1.1256
  995MOL0     C37179   6.028   1.732  10.900 -0.0393  0.4199  0.0339
  995MOL0     O37180   6.077   1.637  10.814 -0.7546 -0.2779  0.0387
  995MOL0     C37181   6.218   1.620  10.819  0.1629 -0.4267  0.2679
  995MOL0     C37182   6.272   1.540  10.938  0.2037 -0.4292  0.4103
  995MOL0     C37183   6.195   1.412  10.966  0.6038 -0.7762 -1.2918
  995MOL0     C37184   6.249   1.294  10.887  0.6681 -0.0146 -0.1469
  995MOL0     C37185   6.161   1.168  10.891  0.3686  0.7113  0.2599
  995MOL0     C37186   6.155   1.078  11.012 -0.0540 -0.5443  0.1471
  995MOL0     C37187   6.049   0.962  10.986  0.0196  0.7961 -0.9520
  995MOL0     C37188   6.119   0.839  10.944 -0.4034  0.4156  0.9469
  995MOL0     N37189   6.044   0.713  10.960  0.0124  1.1043  0.0115
  995MOL0     C37190   6.057   0.605  10.880  0.9545  0.1588  0.6318
  995MOL0     C37191   5.988   0.504  10.935 -1.0550 -0.1826 -1.2439
  995MOL0     C37192   5.987   0.367  10.876  0.1926  0.0675 -0.2026
  995MOL0     C37193   6.123   0.304  10.878 -0.0506  0.2746  0.0370
  995MOL0     C37194   6.190   0.278  11.024  0.8211  0.3471 -0.0435
  995MOL0     C37195   6.244   0.409  11.088  0.6227 -0.4141 -0.2002
  995MOL0     O37196   6.369   0.378  11.147 -0.3807 -0.1706 -0.0416
  995MOL0     C37197   6.434   0.483  11.206  0.4411 -0.3285  0.0364
  995MOL0     C37198   6.376   0.606  11.237  0.5455  0.4389 -0.0926
  995MOL0     C37199   6.444   0.714  11.286 -0.7483  0.3782  0.1232
  995MOL0     C37200   6.372   0.842  11.299  0.6960 -0.0078  0.5072
  995MOL0     C37201   6.586   0.697  11.313  0.3378  0.6361  0.1335
  995MOL0     C37202   6.678   0.804  11.348  0.1028  0.4514  0.0530
  995MOL0     O37203   6.807   0.772  11.358  0.1492  0.4163  0.1905
  995MOL0     C37204   6.876   0.868  11.430  0.5622  0.6829  0.7046
  995MOL0     C37205   6.909   0.987  11.373  0.5771 -0.2067  0.1097
  995MOL0     C37206   6.967   1.091  11.452  0.3467  0.0566  0.2471
  995MOL0     C37207   6.993   1.075  11.588 -0.4020 -0.7892 -0.4013
  995MOL0     O37208   7.052   1.181  11.657 -0.3114 -0.0360  0.0266
  995MOL0     C37209   7.009   1.202  11.797  0.1343 -0.1456  0.2445
  995MOL0     C37210   6.861   1.218  11.815 -0.1909 -0.3185  0.6782
  995MOL0     C37211   6.811   1.303  11.932  0.0236  0.2379 -0.5659
  995MOL0     C37212   6.883   1.442  11.937  1.1007 -0.1146 -0.2486
  995MOL0     C37213   6.796   1.550  12.010 -0.6831 -0.6933 -0.0397
  995MOL0     C37214   6.867   1.683  11.997  0.1651 -0.1743  0.3213
  995MOL0     C37215   6.759   1.796  12.030 -0.4691  0.0273  0.2251
  995MOL0     C37216   6.822   1.935  12.056 -0.2816  0.2370 -0.7116
  995MOL0    Cl37217   6.916   1.918  12.210 -0.2139  0.0739  0.2720
  995MOL0     C37218   6.975   0.945  11.644 -0.2238 -0.0223 -0.1069
  995MOL0     C37219   6.908   0.849  11.569  0.3212  0.0339  1.2853
  995MOL0     O37220   6.628   0.909  11.383 -0.0064 -0.0655  0.3351
  995MOL0     C37221   6.650   0.573  11.283  0.0042 -0.5117 -0.2634
  995MOL0     C37222   6.573   0.468  11.229 -0.3365 -0.2474 -1.1949
  995MOL0     N37223   5.948   0.540  11.056 -0.3645  0.2227 -0.6723
  995MOL0     N37224   5.974   0.670  11.067  0.5317  0.7278 -0.0116
  995MOL0     C37225   5.886   1.720  10.918  0.5258  1.1815 -0.0084
  995MOL0     C37226   5.820   1.816  10.999  0.4828  0.5910 -0.9823
  995MOL0     C37227   5.770   2.124  11.360 -0.0543 -0.2217 -0.4629
  995MOL0     C37228   5.693   2.110  11.484 -0.7162  0.0279  0.2247
  995MOL0     C37229   5.632   2.222  11.541  0.2875  0.3921 -0.9029
  995MOL0     C37230   5.629   2.350  11.484 -0.1680  0.2941  1.0381
  995MOL0     O37231   5.560   2.447  11.542  0.7607  0.2675 -0.4636
  995MOL0     C37232   5.470   2.525  11.465  0.4753  0.7096 -0.0132
  995MOL0     C37233   5.337   2.464  11.428  0.7712  0.2854  0.0420
  995MOL0     C37234   5.337   2.376  11.303  0.1822 -0.7470 -0.1772
  995MOL0     C37235   5.204   2.363  11.242  0.6792  0.4859  0.4203
  995MOL0     C37236   5.208   2.306  11.112 -0.1001 -0.0347  0.2796
  995MOL0     C37237   5.221   2.255  11.004  0.5486 -0.5063  0.6502
  995MOL0     C37238   5.706   2.362  11.358  0.5104 -0.4518 -0.5927
  995MOL0     C37239   5.776   2.253  11.302 -0.5468 -0.5867  0.5713
  995MOL0     C37240   5.848   2.285  11.166  0.2502 -0.2141  0.0335
  995MOL0     H37241   6.095   1.999  11.098  2.4378 -1.9116 -1.4140
  995MOL0     H37242   6.204   1.836  10.944  0.5682 -0.8682  0.5712
  995MOL0     H37243   6.278   1.708  10.795 -0.0093 -0.2164  0.6007
  995MOL0     H37244   6.252   1.566  10.730 -0.7193  1.4912 -1.3205
  995MOL0     H37245   6.377   1.520  10.914 -0.1701  0.0066 -1.7938
  995MOL0     H37246   6.259   1.611  11.020 -3.7441 -0.6448  0.1555
  995MOL0     H37247   6.186   1.379  11.070  0.4444  0.5165 -0.8861
  995MOL0     H37248   6.091   1.420  10.932  0.0733 -0.2688  0.3628
  995MOL0     H37249   6.262   1.314  10.780  1.3845  0.3606  0.0046
  995MOL0     H37250   6.342   1.271  10.941  0.0302  0.5574  1.2381
  995MOL0     H37251   6.190   1.110  10.802  0.1568  2.1990 -0.8232
  995MOL0     H37252   6.061   1.208  10.877  1.0467  2.7671  0.9398
  995MOL0     H37253   6.253   1.035  11.037  0.4620  0.0636 -0.7564
  995MOL0     H37254   6.122   1.131  11.102 -2.1376 -0.9401 -0.3476
  995MOL0     H37255   5.980   0.993  10.906  0.5064  0.4712 -1.5034
  995MOL0     H37256   5.994   0.956  11.080  0.1942  0.4187 -0.8714
  995MOL0     H37257   6.150   0.843  10.839  0.2287  0.8582  1.1414
  995MOL0     H37258   6.204   0.820  11.011 -0.2364 -0.9637  0.3934
  995MOL0     H37259   6.114   0.606  10.788  1.6737 -0.3078  1.0671
  995MOL0     H37260   5.966   0.391  10.771  2.0112  2.5429 -0.0723
  995MOL0     H37261   5.906   0.308  10.920  1.2399 -1.5301 -0.3267
  995MOL0     H37262   6.127   0.210  10.822  0.0799  0.3060 -0.0082
  995MOL0     H37263   6.191   0.378  10.836  1.2448  0.4091  2.2053
  995MOL0     H37264   6.119   0.228  11.090  0.9867  1.1543  0.7665
  995MOL0     H37265   6.278   0.214  11.009  0.7960  0.7202 -2.2466
  995MOL0     H37266   6.258   0.491  11.016  3.1922  0.9245  1.6638
  995MOL0     H37267   6.163   0.434  11.158 -1.1409 -3.3194 -1.0580
  995MOL0     H37268   6.275   0.624  11.203  0.3614  0.4683  0.4697
  995MOL0     H37269   6.367   0.868  11.405  2.2621 -2.1772  1.1821
  995MOL0     H37270   6.273   0.843  11.254  0.1398  1.6430  1.6580
  995MOL0     H37271   6.433   0.925  11.262  2.6779 -0.5004  2.4514
  995MOL0     H37272   6.894   1.008  11.268 -0.6875  2.3504  0.6930
  995MOL0     H37273   6.989   1.187  11.407  0.8601 -0.7922 -1.3743
  995MOL0     H37274   7.033   1.109  11.849 -0.4475  0.2220  1.1912
  995MOL0     H37275   7.062   1.287  11.841  1.0512 -0.8250  0.4719
  995MOL0     H37276   6.829   1.271  11.725  1.4362 -2.7211 -1.4596
  995MOL0     H37277   6.819   1.117  11.817 -0.0595 -0.4609 -1.6718
  995MOL0     H37278   6.818   1.252  12.028 -1.2796 -1.3640 -1.2571
  995MOL0     H37279   6.707   1.335  11.915  0.1095  3.0817  3.1299
  995MOL0     H37280   6.899   1.467  11.831 -0.2281 -3.0164 -1.2336
  995MOL0     H37281   6.981   1.448  11.986  0.2812  2.6594  1.2430
  995MOL0     H37282   6.694   1.556  11.971 -0.1292 -0.6764 -1.5555
  995MOL0     H37283   6.796   1.524  12.116  4.2246  0.7081  0.5866
  995MOL0     H37284   6.891   1.699  11.892  1.0731  0.2642  0.5850
  995MOL0     H37285   6.959   1.690  12.057  0.7444 -3.8252  0.1125
  995MOL0     H37286   6.704   1.770  12.121  0.1081  2.3086  1.2892
  995MOL0     H37287   6.689   1.806  11.946 -0.2323  0.8825  0.1232
  995MOL0     H37288   6.743   2.011  12.060 -2.0776 -1.5771  0.3526
  995MOL0     H37289   6.886   1.955  11.970 -0.7754 -0.1038 -1.1726
  995MOL0     H37290   6.997   0.902  11.741 -0.2085 -1.5777 -0.7626
  995MOL0     H37291   6.882   0.755  11.616 -1.6336  0.9533  2.1407
  995MOL0     H37292   6.752   0.545  11.306  0.0627 -1.6196 -1.6890
  995MOL0     H37293   6.639   0.383  11.214  1.6183  1.2781 -1.8155
  995MOL0     H37294   5.831   1.639  10.870  1.2305  0.0122  1.0783
  995MOL0     H37295   5.716   1.800  11.024  0.4376  0.5099 -1.2116
  995MOL0     H37296   5.695   2.009  11.524  0.0716  0.9925  2.8200
  995MOL0     H37297   5.580   2.213  11.636  1.0894 -0.3111 -0.5213
  995MOL0     H37298   5.446   2.614  11.524 -1.9064 -0.8029  1.4452
  995MOL0     H37299   5.517   2.567  11.375 -3.0190  2.8289 -1.0547
  995MOL0     H37300   5.276   2.552  11.404  2.3929  1.3600 -0.2542
  995MOL0     H37301   5.299   2.404  11.512  2.1518 -0.0160  0.4755
  995MOL0     H37302   5.415   2.427  11.245  0.3545  0.1574  0.7990
  995MOL0     H37303   5.387   2.286  11.340 -1.1211 -0.8213  1.5278
  995MOL0     H37304   5.171   2.467  11.236  1.9795  0.9789  1.3514
  995MOL0     H37305   5.138   2.303  11.305 -1.0764  0.2395 -1.5427
  995MOL0     H37306   5.228   2.217  10.905 -0.9257  3.2841 -1.1196
  995MOL0     H37307   5.708   2.455  11.302 -0.8260 -0.9382 -1.5030
  995MOL0     H37308   5.953   2.254  11.171 -0.0428 -1.1067  3.3530
  995MOL0     H37309   5.800   2.238  11.080 -3.0192  1.7310  0.6085
  995MOL0     H37310   5.861   2.393  11.151  1.5257 -0.4985 -1.0609
  996MOL0     O37311   5.773   3.844   8.445  0.0806  0.6222  0.4429
  996MOL0     C37312   5.740   3.792   8.334 -0.0235 -0.2716 -0.5358
  996MOL0     O37313   5.822   3.737   8.237 -0.0249 -0.6922  0.3373
  996MOL0     C37314   5.960   3.734   8.258  0.4978 -0.3436 -0.1083
  996MOL0     C37315   6.032   3.731   8.142 -0.5478 -0.9341 -0.1159
  996MOL0     C37316   6.170   3.747   8.146 -0.0803  0.4718  0.0359
  996MOL0     C37317   6.248   3.748   8.267 -0.6001  0.3138  0.6346
  996MOL0     O37318   6.386   3.744   8.286 -0.7002 -0.1645  0.0980
  996MOL0     C37319   6.461   3.712   8.165 -0.4159  0.7254 -0.0694
  996MOL0     C37320   6.609   3.669   8.191 -0.2217 -0.3920 -0.2822
  996MOL0     C37321   6.621   3.546   8.291  0.4755 -0.5618 -0.9597
  996MOL0     C37322   6.768   3.534   8.335 -0.8447 -0.5973 -0.7011
  996MOL0     C37323   6.784   3.408   8.419 -0.6208  0.1388  0.0099
  996MOL0     C37324   6.930   3.406   8.478 -0.8404 -0.0757 -0.0845
  996MOL0     C37325   6.979   3.262   8.529  0.4970 -1.0418 -0.1449
  996MOL0     C37326   6.917   3.210   8.669  0.0816 -0.7005 -0.5595
  996MOL0     N37327   6.769   3.217   8.674  0.9272  0.3802  0.5282
  996MOL0     C37328   6.670   3.137   8.617  0.2400  0.0035  0.2319
  996MOL0     C37329   6.552   3.171   8.664  0.2757 -0.2138 -0.2475
  996MOL0     C37330   6.415   3.117   8.636  0.1994  0.0999 -0.1801
  996MOL0     C37331   6.353   3.160   8.498  0.1216  0.6585  0.2577
  996MOL0     C37332   6.301   3.302   8.510 -0.6351  0.0958  0.5066
  996MOL0     C37333   6.240   3.361   8.375 -0.2380 -1.4907  0.2547
  996MOL0     O37334   6.124   3.278   8.338  0.5499 -0.4951 -0.2211
  996MOL0     C37335   5.994   3.304   8.392 -0.1885 -0.8369 -0.0360
  996MOL0     C37336   5.962   3.401   8.489  0.5292  0.1365 -0.5331
  996MOL0     C37337   5.827   3.421   8.539  0.5340  0.1745  0.3451
  996MOL0     C37338   5.808   3.528   8.637 -0.3599 -0.3304  0.2405
  996MOL0     C37339   5.721   3.345   8.478 -0.3405  0.0417 -0.0641
  996MOL0     C37340   5.575   3.360   8.513 -0.1124 -1.2966  0.5020
  996MOL0     O37341   5.494   3.270   8.456  0.0267  0.4046  0.8260
  996MOL0     C37342   5.356   3.290   8.454 -0.0722 -0.6279  0.5676
  996MOL0     C37343   5.293   3.421   8.459  0.1799 -0.2226  0.0751
  996MOL0     C37344   5.150   3.419   8.463 -0.1949  0.0059  0.5422
  996MOL0     C37345   5.067   3.313   8.446 -1.0539  0.6132  0.8413
  996MOL0     O37346   4.934   3.339   8.441 -0.1733 -0.1556 -0.1763
  996MOL0     C37347   4.858   3.228   8.400  1.1113 -0.1713  0.0314
  996MOL0     C37348   4.712   3.279   8.377 -0.1125  0.7945  0.6722
  996MOL0     C37349   4.633   3.277   8.505  0.4295 -0.4770 -0.3492
  996MOL0     C37350   4.539   3.155   8.523 -0.3130 -0.1330 -0.3843
  996MOL0     C37351   4.458   3.147   8.659  0.2943  0.9833  0.0922
  996MOL0     C37352   4.338   3.044   8.636 -0.3391  0.0985 -0.5485
  996MOL0     C37353   4.240   3.044   8.755 -0.9333  0.5070  0.3781
  996MOL0     C37354   4.109   2.964   8.716 -0.1592  0.1757  0.3057
  996MOL0    Cl37355   4.142   2.789   8.683 -0.0363 -0.1428 -0.1402
  996MOL0     C37356   5.129   3.192   8.453  1.1332  0.1892  0.8454
  996MOL0     C37357   5.268   3.177   8.451  0.7739 -0.1255 -0.8825
  996MOL0     O37358   5.536   3.443   8.601 -0.0207 -0.4546 -0.3690
  996MOL0     C37359   5.753   3.254   8.382  0.7028  0.1072 -0.9927
  996MOL0     C37360   5.885   3.232   8.340 -0.3956  0.2336  0.1590
  996MOL0     N37361   6.580   3.270   8.758 -1.2938 -0.1694 -1.2165
  996MOL0     N37362   6.706   3.295   8.770  0.1374 -0.0426  0.3262
  996MOL0     C37363   6.172   3.755   8.385 -0.1774 -0.2849  0.0906
  996MOL0     C37364   6.028   3.743   8.381  0.1214 -0.4352  0.5850
  996MOL0     C37365   5.589   3.769   8.311 -0.8340 -0.0760 -0.7764
  996MOL0     C37366   5.564   3.690   8.195 -0.4671  0.4486 -0.3910
  996MOL0     C37367   5.438   3.652   8.163  0.2023  0.1206 -0.0574
  996MOL0     C37368   5.333   3.696   8.244  0.0664  0.1396  0.3331
  996MOL0     O37369   5.196   3.676   8.222 -0.7675 -0.1512  0.2221
  996MOL0     C37370   5.157   3.569   8.136  0.0232 -0.2720 -0.1222
  996MOL0     C37371   5.006   3.543   8.141 -0.0345  0.4824  0.6014
  996MOL0     C37372   4.963   3.433   8.042  0.5671  0.0724  0.1702
  996MOL0     C37373   4.967   3.474   7.896 -0.1140  0.3924 -0.0276
  996MOL0     C37374   4.875   3.388   7.826  0.0097 -0.2391  0.2433
  996MOL0     C37375   4.806   3.316   7.762 -0.4461  0.5794 -0.3677
  996MOL0     C37376   5.359   3.770   8.356 -0.2475 -0.6524 -0.1047
  996MOL0     C37377   5.484   3.813   8.399 -1.0867 -0.4022  0.0589
  996MOL0     C37378   5.502   3.910   8.528  0.3657  0.6301  0.0382
  996MOL0     H37379   5.982   3.721   8.046 -0.8142 -0.6643 -0.0073
  996MOL0     H37380   6.225   3.747   8.053 -0.6434 -0.1703 -0.3074
  996MOL0     H37381   6.473   3.803   8.106 -0.4392 -0.1221 -1.4204
  996MOL0     H37382   6.411   3.633   8.109 -0.6001  0.8225 -0.0429
  996MOL0     H37383   6.646   3.638   8.093  0.5368 -2.7331  0.6779
  996MOL0     H37384   6.663   3.760   8.218 -2.9846  1.1864  0.3152
  996MOL0     H37385   6.558   3.563   8.379  0.9811 -2.1159 -0.2744
  996MOL0     H37386   6.598   3.447   8.249 -0.1487 -0.4209 -0.9725
  996MOL0     H37387   6.843   3.547   8.256 -0.0582  3.0035  0.4656
  996MOL0     H37388   6.791   3.617   8.402  1.5399 -0.4757 -1.5599
  996MOL0     H37389   6.770   3.320   8.357  2.7681 -0.8529  0.4615
  996MOL0     H37390   6.712   3.418   8.501  1.7450  1.6926  2.0537
  996MOL0     H37391   7.002   3.450   8.408 -1.3771 -1.5921 -1.6814
  996MOL0     H37392   6.937   3.473   8.564 -1.6624  2.4835 -1.9097
  996MOL0     H37393   7.087   3.265   8.542  0.5247 -0.9810 -0.3760
  996MOL0     H37394   6.963   3.196   8.442 -0.3710  0.1278 -0.9107
  996MOL0     H37395   6.950   3.107   8.686 -1.6666 -0.7765  3.4558
  996MOL0     H37396   6.966   3.268   8.747  1.0561  1.7887 -2.8720
  996MOL0     H37397   6.685   3.065   8.537  2.9374  0.6774  0.0290
  996MOL0     H37398   6.346   3.137   8.719 -1.4322 -0.6800 -1.2983
  996MOL0     H37399   6.419   3.009   8.620  1.8661 -0.3658  2.6499
  996MOL0     H37400   6.430   3.154   8.421 -1.2019  1.5872 -1.1863
  996MOL0     H37401   6.265   3.100   8.474 -1.4448  4.0605 -3.5814
  996MOL0     H37402   6.237   3.312   8.597 -3.8481 -0.8777 -1.5564
  996MOL0     H37403   6.395   3.356   8.521 -1.4674  1.7445 -0.1042
  996MOL0     H37404   6.227   3.467   8.396 -0.2316 -1.4782  0.1958
  996MOL0     H37405   6.316   3.360   8.296 -0.4796  1.9306 -0.1827
  996MOL0     H37406   6.050   3.444   8.536 -1.1622  0.5656  2.5353
  996MOL0     H37407   5.904   3.580   8.644 -0.5942  0.0905  0.3164
  996MOL0     H37408   5.789   3.488   8.737 -0.0137 -2.1685 -0.3764
  996MOL0     H37409   5.733   3.604   8.617  0.4471  0.6908  1.0027
  996MOL0     H37410   5.359   3.507   8.459  1.4012 -1.1374 -0.4385
  996MOL0     H37411   5.102   3.516   8.453 -2.3989 -1.0802 -0.0272
  996MOL0     H37412   4.888   3.191   8.302 -0.2154  2.2169 -1.3548
  996MOL0     H37413   4.857   3.143   8.469 -0.6539  0.2673  0.5980
  996MOL0     H37414   4.706   3.383   8.342  2.1326  1.0369  0.8313
  996MOL0     H37415   4.674   3.211   8.300  3.6474 -1.3834  0.5122
  996MOL0     H37416   4.566   3.363   8.518  0.2872 -0.9538  3.1069
  996MOL0     H37417   4.701   3.298   8.588  0.0298  1.9587 -0.5627
  996MOL0     H37418   4.603   3.066   8.518  0.6336  0.4375  1.0192
  996MOL0     H37419   4.476   3.152   8.434  1.0311 -0.2894 -1.3650
  996MOL0     H37420   4.512   3.105   8.744 -2.5666 -2.2034  0.5404
  996MOL0     H37421   4.417   3.246   8.683 -0.4381  0.6170  0.3663
  996MOL0     H37422   4.388   2.947   8.624  2.0681  1.2130 -0.1218
  996MOL0     H37423   4.285   3.073   8.545  0.7608  0.2446 -1.1644
  996MOL0     H37424   4.217   3.149   8.777  2.1355  1.5553 -0.8869
  996MOL0     H37425   4.283   2.999   8.845 -1.2899 -0.2590  0.1730
  996MOL0     H37426   4.071   3.016   8.628  0.7649 -0.2155 -0.3400
  996MOL0     H37427   4.031   2.979   8.792 -0.1384 -0.8396  0.5524
  996MOL0     H37428   5.071   3.100   8.451  1.6062 -0.1121  0.7149
  996MOL0     H37429   5.297   3.072   8.444 -0.6717 -0.6592  0.5942
  996MOL0     H37430   5.677   3.198   8.329 -0.6144  1.2161 -0.3232
  996MOL0     H37431   5.917   3.160   8.265  3.4201 -0.6986  2.3901
  996MOL0     H37432   6.239   3.762   8.470  2.0110  2.2639 -1.6610
  996MOL0     H37433   5.980   3.742   8.478  1.2242  1.8718  1.2436
  996MOL0     H37434   5.635   3.634   8.136 -1.8739 -1.6724 -0.1944
  996MOL0     H37435   5.410   3.586   8.082  0.2218  1.6051 -1.3261
  996MOL0     H37436   5.180   3.589   8.031 -0.1358 -2.0296 -0.5189
  996MOL0     H37437   5.205   3.479   8.177 -0.3020  0.9729  3.3818
  996MOL0     H37438   4.949   3.633   8.116 -1.5760 -0.7050 -0.3141
  996MOL0     H37439   4.976   3.511   8.242 -2.3433 -1.1209 -0.4982
  996MOL0     H37440   5.033   3.349   8.052 -0.9164 -1.2740 -0.3762
  996MOL0     H37441   4.861   3.406   8.069 -0.2625  1.2721 -1.5618
  996MOL0     H37442   5.070   3.464   7.860 -0.5534 -2.2143 -0.7464
  996MOL0     H37443   4.938   3.579   7.882 -1.4637  0.0999  0.3911
  996MOL0     H37444   4.732   3.269   7.701 -0.0907 -1.2480  0.5376
  996MOL0     H37445   5.273   3.803   8.414  0.7624  0.7737  0.6516
  996MOL0     H37446   5.520   4.011   8.490  1.4888  0.8877  1.1858
  996MOL0     H37447   5.405   3.903   8.578 -0.0862 -0.8354 -0.9646
  996MOL0     H37448   5.579   3.875   8.597  0.0692  0.5558  0.3326
  997MOL0     O37449   9.305   5.013  11.216 -0.3924  0.3356 -0.0288
  997MOL0     C37450   9.236   5.030  11.323 -0.2859  0.1202  0.4844
  997MOL0     O37451   9.282   5.015  11.452  0.7512 -0.6530 -0.6093
  997MOL0     C37452   9.410   4.977  11.470 -0.6605  0.6309 -0.1487
  997MOL0     C37453   9.496   5.081  11.524  0.1009 -0.1668 -0.2647
  997MOL0     C37454   9.622   5.039  11.570  0.3516 -0.0984  0.0632
  997MOL0     C37455   9.664   4.906  11.558  0.1934  0.3693 -0.6217
  997MOL0     O37456   9.775   4.886  11.636  0.1890 -0.4861 -0.1637
  997MOL0     C37457   9.833   4.761  11.649  0.1138 -0.5447  0.5802
  997MOL0     C37458   9.956   4.772  11.732 -1.3138  0.3101 -0.5385
  997MOL0     C37459  10.019   4.635  11.757 -0.1728  0.6899 -0.7228
  997MOL0     C37460  10.159   4.659  11.822 -0.1702 -0.9266 -0.2626
  997MOL0     C37461  10.209   4.516  11.863  0.2191 -0.3483  0.0478
  997MOL0     C37462  10.277   4.432  11.756 -0.9499 -0.2370  0.1531
  997MOL0     C37463  10.384   4.507  11.675  0.0574  0.7389  0.0791
  997MOL0     C37464  10.470   4.398  11.617  0.8741 -0.2135  0.2301
  997MOL0     N37465  10.571   4.456  11.533  0.3078  0.2648 -0.6004
  997MOL0     C37466  10.693   4.496  11.584 -0.1482 -0.3220 -0.0780
  997MOL0     C37467  10.760   4.538  11.475 -0.2277  0.2980 -1.1930
  997MOL0     C37468  10.909   4.576  11.474 -0.3002 -0.1865  0.0766
  997MOL0     C37469  10.998   4.453  11.495 -0.4639  0.5324  0.0251
  997MOL0     C37470  11.110   4.476  11.608  0.2341 -0.2042 -0.1340
  997MOL0     C37471  11.217   4.374  11.610 -0.6737  0.5190 -0.7800
  997MOL0     O37472  11.312   4.389  11.723 -0.5309 -0.4267  0.8077
  997MOL0     C37473  11.443   4.376  11.686  0.0495 -0.4012  1.5734
  997MOL0     C37474  11.529   4.437  11.777  0.0812 -0.4374 -0.1875
  997MOL0     C37475  11.670   4.428  11.769  0.3971  0.9990  0.0304
  997MOL0     C37476  11.746   4.476  11.885  0.4591 -0.2176 -0.4454
  997MOL0     C37477  11.723   4.353  11.660 -0.5693  0.0467 -0.3460
  997MOL0     C37478  11.866   4.350  11.636  0.2482 -0.1781  0.1710
  997MOL0     O37479  11.954   4.448  11.673  0.7738 -0.4164 -0.0986
  997MOL0     C37480  12.077   4.408  11.697 -0.6093 -0.1056 -0.4843
  997MOL0     C37481  12.164   4.416  11.589  0.6207 -0.0831 -0.1990
  997MOL0     C37482  12.299   4.367  11.613  0.2102  0.1808  0.6641
  997MOL0     C37483  12.350   4.340  11.735  0.2190 -0.8901 -1.5306
  997MOL0     O37484  12.481   4.314  11.766 -0.3366 -0.5166  0.0561
  997MOL0     C37485  12.579   4.328  11.661 -0.5500 -0.1175  0.2022
  997MOL0     C37486  12.718   4.316  11.720  0.2434 -0.1948 -0.1194
  997MOL0     C37487  12.822   4.311  11.608 -0.0122  0.0720 -0.4833
  997MOL0     C37488  12.957   4.309  11.679 -0.1279  0.5047 -0.4243
  997MOL0     C37489  13.053   4.239  11.583 -0.4377 -0.4598 -0.4633
  997MOL0     C37490  13.195   4.268  11.618  0.2481 -0.2339 -0.5076
  997MOL0     C37491  13.306   4.204  11.535  0.3766  0.0513 -0.5736
  997MOL0     C37492  13.443   4.261  11.568  0.0376  0.4277  0.7884
  997MOL0    Cl37493  13.529   4.145  11.680  0.0963 -0.1025 -0.3439
  997MOL0     C37494  12.261   4.337  11.839 -0.2121 -0.5097  0.1638
  997MOL0     C37495  12.127   4.371  11.824 -0.0714  0.1196  0.1375
  997MOL0     O37496  11.900   4.249  11.580  0.6159  0.6010 -0.3531
  997MOL0     C37497  11.635   4.284  11.570 -0.9791 -0.4709  0.0119
  997MOL0     C37498  11.499   4.302  11.579 -0.2312  0.0875  0.1269
  997MOL0     N37499  10.662   4.542  11.371 -0.5224 -0.7908 -0.0942
  997MOL0     N37500  10.547   4.497  11.406  0.0442  0.1855 -0.4350
  997MOL0     C37501   9.596   4.816  11.481 -0.0371  0.1502 -0.1819
  997MOL0     C37502   9.467   4.853  11.435 -0.3011  0.3511 -0.6248
  997MOL0     C37503   9.104   5.078  11.295 -0.5826 -0.0793  0.2446
  997MOL0     C37504   9.002   4.998  11.243  0.3467 -0.5767 -0.7357
  997MOL0     C37505   8.863   5.027  11.251 -0.2290  0.1498  0.1960
  997MOL0     C37506   8.825   5.157  11.285  0.5066 -0.2869  0.4188
  997MOL0     O37507   8.690   5.183  11.289  0.1952 -0.5230 -0.6101
  997MOL0     C37508   8.649   5.296  11.354  0.6564  0.0958 -0.4532
  997MOL0     C37509   8.496   5.319  11.330 -0.6846 -0.3293 -0.2968
  997MOL0     C37510   8.436   5.400  11.441  0.3810 -0.0801  0.5526
  997MOL0     C37511   8.298   5.450  11.402  0.1007  0.4800  0.1025
  997MOL0     C37512   8.198   5.352  11.441 -0.4486 -0.2152  0.6602
  997MOL0     C37513   8.110   5.280  11.484  0.1749  0.1421 -0.2009
  997MOL0     C37514   8.931   5.250  11.324  0.4326  0.5043  0.0042
  997MOL0     C37515   9.065   5.208  11.330  0.1171 -1.0889  0.2856
  997MOL0     C37516   9.162   5.315  11.374 -0.5216  1.0765  0.6736
  997MOL0     H37517   9.453   5.180  11.538 -1.8000 -0.8835 -0.7211
  997MOL0     H37518   9.680   5.108  11.630  0.1235 -0.3861  0.6159
  997MOL0     H37519   9.849   4.722  11.548  0.5034 -0.8973  0.7782
  997MOL0     H37520   9.761   4.699  11.704 -0.5667 -0.6599 -0.4104
  997MOL0     H37521  10.031   4.834  11.683 -0.7639  0.3961  0.3820
  997MOL0     H37522   9.929   4.828  11.823 -0.7887  3.0328 -1.9531
  997MOL0     H37523   9.963   4.575  11.830  2.4565  0.7373  1.4973
  997MOL0     H37524  10.031   4.589  11.658  1.8991 -0.3090 -0.0650
  997MOL0     H37525  10.227   4.711  11.754 -1.6342  0.7915 -0.4906
  997MOL0     H37526  10.156   4.722  11.912  0.5369  0.6971 -1.3306
  997MOL0     H37527  10.131   4.460  11.916 -0.2384  2.0095  2.0596
  997MOL0     H37528  10.279   4.530  11.946  0.0147  1.8408 -0.0892
  997MOL0     H37529  10.327   4.356  11.816 -0.1899  1.4424  1.7641
  997MOL0     H37530  10.207   4.393  11.682 -1.2659 -1.3104  1.0069
  997MOL0     H37531  10.440   4.581  11.733 -0.9525  0.9465  0.8138
  997MOL0     H37532  10.326   4.564  11.602  0.9113  1.6056  0.0670
  997MOL0     H37533  10.510   4.338  11.699 -1.7423 -1.0321  1.0029
  997MOL0     H37534  10.412   4.336  11.547  1.3161 -0.0577 -0.2803
  997MOL0     H37535  10.722   4.491  11.689 -1.7579 -2.3149  0.3324
  997MOL0     H37536  10.916   4.645  11.558 -0.9440 -1.6398  1.3835
  997MOL0     H37537  10.939   4.629  11.384  2.0577 -0.1343  0.8301
  997MOL0     H37538  10.942   4.361  11.512  1.7225 -0.6701  1.1472
  997MOL0     H37539  11.061   4.443  11.406 -0.2197  0.3032  0.2231
  997MOL0     H37540  11.151   4.575  11.587  0.5293 -0.4095 -0.5259
  997MOL0     H37541  11.055   4.471  11.702 -0.9495 -2.0679 -0.8579
  997MOL0     H37542  11.165   4.278  11.622  0.4996  0.1296  1.8409
  997MOL0     H37543  11.265   4.363  11.513  0.4444 -2.2706 -0.0208
  997MOL0     H37544  11.486   4.489  11.863 -1.0749 -0.7030 -0.5814
  997MOL0     H37545  11.854   4.457  11.886  0.3923 -0.6002  0.9252
  997MOL0     H37546  11.700   4.429  11.972 -2.2265  1.8594 -0.6310
  997MOL0     H37547  11.734   4.584  11.900 -0.1186 -0.0404 -1.9983
  997MOL0     H37548  12.130   4.445  11.490 -0.1608  0.4231  0.2118
  997MOL0     H37549  12.376   4.356  11.537  0.4264 -1.3554  1.0746
  997MOL0     H37550  12.557   4.255  11.583  0.2981 -0.2493  0.0746
  997MOL0     H37551  12.581   4.425  11.609  1.0392 -0.3078 -0.1629
  997MOL0     H37552  12.736   4.406  11.780  4.6188 -0.6729 -0.3421
  997MOL0     H37553  12.728   4.228  11.784 -0.5173  0.3040  0.7201
  997MOL0     H37554  12.825   4.400  11.545  0.6655 -0.1556 -0.7746
  997MOL0     H37555  12.801   4.227  11.542 -1.5750  0.6331 -0.7544
  997MOL0     H37556  12.943   4.257  11.775  2.0340 -2.1238 -1.4139
  997MOL0     H37557  12.994   4.409  11.706  2.1603 -0.9609  2.4518
  997MOL0     H37558  13.044   4.131  11.598  0.5648 -0.8059 -2.0586
  997MOL0     H37559  13.036   4.260  11.477 -1.0603 -2.6320 -0.8399
  997MOL0     H37560  13.195   4.238  11.723 -1.7132 -0.9756 -0.6670
  997MOL0     H37561  13.215   4.375  11.627  2.3032 -0.6786  0.7930
  997MOL0     H37562  13.289   4.223  11.429  0.5004  0.6528 -0.4868
  997MOL0     H37563  13.307   4.095  11.542 -0.0962 -0.0241 -1.4870
  997MOL0     H37564  13.439   4.364  11.603 -1.5463  2.3620 -4.2860
  997MOL0     H37565  13.499   4.273  11.475 -0.6654  1.5964  0.5000
  997MOL0     H37566  12.297   4.303  11.935 -2.8401 -0.8830  1.1128
  997MOL0     H37567  12.059   4.358  11.908  0.6617  1.4699  0.9799
  997MOL0     H37568  11.669   4.234  11.480 -0.3354  0.3820 -0.2213
  997MOL0     H37569  11.434   4.251  11.509 -1.5237  0.1906  1.2059
  997MOL0     H37570   9.628   4.714  11.462  1.1763  0.2211  1.2166
  997MOL0     H37571   9.410   4.777  11.381 -0.1554 -1.1421  1.2159
  997MOL0     H37572   9.022   4.900  11.202  1.4067 -0.2221 -1.1015
  997MOL0     H37573   8.797   4.943  11.230 -0.9750  0.5714  0.7990
  997MOL0     H37574   8.675   5.292  11.461  0.1348 -2.3092 -0.3637
  997MOL0     H37575   8.694   5.381  11.301  1.3091 -0.6528 -1.1139
  997MOL0     H37576   8.450   5.220  11.324  0.7323 -0.9257 -2.4276
  997MOL0     H37577   8.491   5.366  11.232 -1.4728  0.1347 -0.0409
  997MOL0     H37578   8.430   5.352  11.539  1.3929  1.6596  1.5057
  997MOL0     H37579   8.494   5.492  11.451  0.7123  0.3327 -3.3395
  997MOL0     H37580   8.296   5.470  11.295  1.8018  0.7246  0.0962
  997MOL0     H37581   8.269   5.542  11.454 -1.9044 -1.3231  2.4170
  997MOL0     H37582   8.040   5.203  11.510 -1.7017  1.1503 -1.9942
  997MOL0     H37583   8.906   5.352  11.350  1.2685  0.8346 -0.4450
  997MOL0     H37584   9.253   5.313  11.313  1.1926 -1.6886  3.0490
  997MOL0     H37585   9.131   5.417  11.351  0.4685  1.2183 -0.1410
  997MOL0     H37586   9.187   5.312  11.480 -0.7109 -1.4156  0.7221
  998MOL0     O37587  10.996   8.311   7.740 -0.3160  0.5523  0.0856
  998MOL0     C37588  10.910   8.381   7.781 -0.1005  0.0045  0.1567
  998MOL0     O37589  10.930   8.475   7.881  0.3350  0.4510 -0.4120
  998MOL0     C37590  11.055   8.487   7.930  0.9945  0.0740 -0.1425
  998MOL0     C37591  11.128   8.604   7.918  1.0439 -0.0691  0.5599
  998MOL0     C37592  11.246   8.624   7.981 -0.2716 -0.5231 -0.0341
  998MOL0     C37593  11.305   8.522   8.054  0.0669 -0.1179  0.2180
  998MOL0     O37594  11.432   8.533   8.085 -0.2442  0.6790 -0.0111
  998MOL0     C37595  11.493   8.454   8.191 -0.5055  0.3597  0.3663
  998MOL0     C37596  11.648   8.450   8.183  0.1867 -1.1236  0.0769
  998MOL0     C37597  11.698   8.375   8.063 -0.1835 -0.5586  0.5554
  998MOL0     C37598  11.692   8.222   8.085  0.6735  0.1778 -0.3048
  998MOL0     C37599  11.798   8.142   8.006  0.2035  0.1523  0.6277
  998MOL0     C37600  11.940   8.166   8.054 -0.0223  0.3489 -0.2564
  998MOL0     C37601  12.034   8.072   7.976  0.3825  0.8232  0.2660
  998MOL0     C37602  12.033   7.931   8.041  0.2045  0.1018  0.5796
  998MOL0     N37603  12.168   7.877   8.000  0.2497 -0.3645 -0.1197
  998MOL0     C37604  12.273   7.860   8.085 -0.5391 -0.6226 -0.1006
  998MOL0     C37605  12.368   7.807   8.004 -0.1239 -0.0936 -0.4414
  998MOL0     C37606  12.502   7.765   8.056  0.3363  0.0490 -0.3107
  998MOL0     C37607  12.501   7.611   8.043  0.9013 -0.4460  0.6968
  998MOL0     C37608  12.641   7.549   8.069 -1.1858 -0.4020 -0.1518
  998MOL0     C37609  12.657   7.461   8.193  0.8819  0.3683 -0.3269
  998MOL0     O37610  12.678   7.548   8.299  0.8010 -0.1596  0.0752
  998MOL0     C37611  12.690   7.504   8.427 -0.2089 -0.6267  0.3700
  998MOL0     C37612  12.681   7.599   8.531 -0.3331  1.0679  0.0862
  998MOL0     C37613  12.690   7.549   8.662 -0.4767  1.3047  0.5554
  998MOL0     C37614  12.668   7.657   8.766  0.2249 -0.1631  0.4165
  998MOL0     C37615  12.698   7.413   8.695 -0.6099  0.0170 -0.2955
  998MOL0     C37616  12.703   7.348   8.834 -1.2941 -0.0353  0.6649
  998MOL0     O37617  12.728   7.210   8.841 -0.5144 -0.3965 -0.1522
  998MOL0     C37618  12.728   7.148   8.960 -0.2293  0.0116  0.1017
  998MOL0     C37619  12.844   7.086   9.013 -0.2712 -0.4158  0.0175
  998MOL0     C37620  12.843   7.030   9.148  1.0722  0.2216  0.6372
  998MOL0     C37621  12.724   7.032   9.222  0.2872 -0.1706  0.1181
  998MOL0     O37622  12.713   6.975   9.344 -0.0451  0.2235 -0.4850
  998MOL0     C37623  12.779   7.044   9.451  0.0661 -0.0523 -0.0609
  998MOL0     C37624  12.704   7.176   9.488 -0.6428  0.4932 -1.2409
  998MOL0     C37625  12.778   7.262   9.584  0.9563 -0.0948  0.3030
  998MOL0     C37626  12.690   7.392   9.607  0.2339  0.1000  0.0778
  998MOL0     C37627  12.770   7.496   9.678  0.1102 -0.9697 -0.8520
  998MOL0     C37628  12.687   7.612   9.735  0.4775 -0.3393 -0.3530
  998MOL0     C37629  12.612   7.684   9.629  0.0349  0.2723 -0.1985
  998MOL0     C37630  12.599   7.829   9.668  0.0788 -0.2803  1.1272
  998MOL0    Cl37631  12.487   7.899   9.540 -0.5512 -0.1225 -0.3611
  998MOL0     C37632  12.606   7.078   9.158  0.0398 -0.6366 -0.1141
  998MOL0     C37633  12.606   7.136   9.032  0.2337 -0.1788 -0.3277
  998MOL0     O37634  12.680   7.418   8.930 -0.4113 -0.4652 -0.0749
  998MOL0     C37635  12.704   7.330   8.587  0.0384  0.2276 -0.1656
  998MOL0     C37636  12.709   7.365   8.454 -0.3154 -0.2294  0.2714
  998MOL0     N37637  12.325   7.788   7.871 -0.4860 -0.4742 -0.2865
  998MOL0     N37638  12.203   7.835   7.870 -0.1788 -0.0453 -0.2769
  998MOL0     C37639  11.228   8.403   8.063 -0.0939  0.2129  0.5437
  998MOL0     C37640  11.103   8.386   8.010 -0.3280  0.5996 -0.2165
  998MOL0     C37641  10.775   8.380   7.719  0.8528  0.6048 -0.3767
  998MOL0     C37642  10.677   8.473   7.764 -0.6680 -0.8923  1.2441
  998MOL0     C37643  10.552   8.491   7.700 -0.7240 -0.2238  0.5234
  998MOL0     C37644  10.520   8.393   7.604  0.9805 -0.8766 -0.5134
  998MOL0     O37645  10.391   8.413   7.575  0.2573 -0.0289 -0.2960
  998MOL0     C37646  10.325   8.311   7.501  0.3635 -0.4028  0.4397
  998MOL0     C37647  10.175   8.328   7.517 -0.1756  0.0785  1.0874
  998MOL0     C37648  10.092   8.233   7.429 -0.9768 -0.3741 -0.6784
  998MOL0     C37649   9.946   8.284   7.430 -0.1475 -0.0181 -0.6039
  998MOL0     C37650   9.872   8.224   7.322  0.6084 -0.2355  0.7784
  998MOL0     C37651   9.809   8.173   7.230 -1.1168  0.0596  0.7657
  998MOL0     C37652  10.603   8.295   7.570 -0.0772 -0.2944 -0.2620
  998MOL0     C37653  10.737   8.292   7.614  0.5143  0.0851  0.7286
  998MOL0     C37654  10.827   8.176   7.560 -1.3970 -0.4312  0.4885
  998MOL0     H37655  11.075   8.680   7.861 -0.7245 -0.9835  0.9184
  998MOL0     H37656  11.306   8.713   7.969  0.2306 -0.7595  0.6306
  998MOL0     H37657  11.450   8.353   8.189  0.1104  0.0858  0.6729
  998MOL0     H37658  11.473   8.494   8.291 -0.6279  2.0000 -0.2894
  998MOL0     H37659  11.696   8.548   8.188  1.1599 -1.5997  0.4783
  998MOL0     H37660  11.680   8.410   8.280 -0.1378 -0.6245  0.3960
  998MOL0     H37661  11.637   8.402   7.977  0.7836  1.2380  0.3995
  998MOL0     H37662  11.803   8.405   8.061 -0.0049 -1.1616 -1.4645
  998MOL0     H37663  11.693   8.193   8.191  0.7622 -1.8273 -0.8062
  998MOL0     H37664  11.591   8.195   8.052  0.6461 -2.8799  1.7508
  998MOL0     H37665  11.793   8.167   7.899 -1.9198 -1.3959  0.3154
  998MOL0     H37666  11.766   8.038   8.011  0.6249  0.0839  2.7996
  998MOL0     H37667  11.972   8.269   8.037 -1.7915  0.9114 -0.3119
  998MOL0     H37668  11.951   8.155   8.162 -0.7253 -0.4479 -0.2566
  998MOL0     H37669  12.130   8.122   7.962 -0.5776  2.1500 -2.2352
  998MOL0     H37670  11.997   8.061   7.873 -0.3204 -1.5867  0.7165
  998MOL0     H37671  12.013   7.944   8.147 -2.4429  1.4423  0.0033
  998MOL0     H37672  11.953   7.865   8.007  0.7321 -0.4812  0.4365
  998MOL0     H37673  12.278   7.903   8.184  0.2423  0.2354 -0.4926
  998MOL0     H37674  12.506   7.790   8.162 -0.4358  0.5041 -0.3820
  998MOL0     H37675  12.586   7.812   8.005  3.7073 -2.7317  2.1923
  998MOL0     H37676  12.429   7.568   8.113  0.4541 -0.4786  0.2263
  998MOL0     H37677  12.460   7.596   7.943 -0.4625  0.8843  1.0173
  998MOL0     H37678  12.681   7.493   7.984 -0.4001  0.3495 -0.2775
  998MOL0     H37679  12.720   7.621   8.089 -0.5666 -1.0454 -0.2479
  998MOL0     H37680  12.570   7.399   8.216  1.4327  0.4301  2.3197
  998MOL0     H37681  12.740   7.389   8.187  1.1902  0.5251  1.4814
  998MOL0     H37682  12.672   7.706   8.513 -0.8026  0.8927 -0.7569
  998MOL0     H37683  12.627   7.750   8.727  0.5137 -0.7459 -1.3973
  998MOL0     H37684  12.764   7.674   8.816  0.1784  4.6356 -0.6440
  998MOL0     H37685  12.591   7.622   8.835  0.1598  0.0603  0.4578
  998MOL0     H37686  12.933   7.087   8.951 -1.4635  0.8710 -1.7681
  998MOL0     H37687  12.928   6.990   9.202  0.3489  0.8931  2.3627
  998MOL0     H37688  12.784   6.976   9.536  1.5332  0.5078  0.3313
  998MOL0     H37689  12.886   7.063   9.434  0.4531  0.5770  2.6080
  998MOL0     H37690  12.682   7.234   9.398  0.8255 -0.0718 -2.0087
  998MOL0     H37691  12.606   7.150   9.528  1.4386 -3.1745  2.2418
  998MOL0     H37692  12.876   7.288   9.543  0.9234  1.7020  1.2533
  998MOL0     H37693  12.789   7.206   9.677  0.6927 -1.0221 -0.2134
  998MOL0     H37694  12.625   7.359   9.689  1.2697 -0.5202  0.6724
  998MOL0     H37695  12.635   7.428   9.519 -1.2959 -0.4817  0.7638
  998MOL0     H37696  12.834   7.450   9.754 -1.3973 -2.5694 -0.4842
  998MOL0     H37697  12.849   7.537   9.614 -0.2393  2.8556  0.8660
  998MOL0     H37698  12.749   7.678   9.797  2.9626 -1.7971 -1.1304
  998MOL0     H37699  12.609   7.562   9.793  0.8996 -0.0583  0.4843
  998MOL0     H37700  12.515   7.633   9.629  0.4525 -0.6607  2.1363
  998MOL0     H37701  12.655   7.673   9.529 -2.1554 -2.2531 -0.9766
  998MOL0     H37702  12.696   7.878   9.656 -0.1455 -0.2104 -0.7447
  998MOL0     H37703  12.556   7.828   9.768 -2.6553 -1.8094  0.0322
  998MOL0     H37704  12.513   7.071   9.214  1.3635 -0.9550  2.1639
  998MOL0     H37705  12.517   7.176   8.984  0.8241 -0.4834 -1.7265
  998MOL0     H37706  12.701   7.224   8.611 -0.3903  0.4399  0.7789
  998MOL0     H37707  12.708   7.293   8.373 -0.0331 -0.7088  0.6860
  998MOL0     H37708  11.246   8.309   8.115  2.3268 -0.4582 -1.3542
  998MOL0     H37709  11.042   8.298   8.029 -0.6872  0.5175 -1.6176
  998MOL0     H37710  10.709   8.538   7.845  1.4591  0.2676 -0.4078
  998MOL0     H37711  10.497   8.576   7.740  1.4333  1.6829 -0.3565
  998MOL0     H37712  10.361   8.316   7.398 -1.5248  1.7605 -0.1858
  998MOL0     H37713  10.359   8.216   7.544  2.2663 -0.1423 -0.3864
  998MOL0     H37714  10.152   8.432   7.492 -0.3349 -0.7360 -2.6645
  998MOL0     H37715  10.149   8.307   7.622 -1.7584  1.9991  1.1289
  998MOL0     H37716  10.143   8.228   7.332  1.1223 -0.3360  0.3760
  998MOL0     H37717  10.096   8.132   7.472 -1.5395 -0.3300 -0.5123
  998MOL0     H37718   9.941   8.393   7.432 -1.2118 -0.0248 -1.3242
  998MOL0     H37719   9.899   8.252   7.523 -1.0629  3.1238  0.1558
  998MOL0     H37720   9.752   8.128   7.152 -0.6019 -1.5212  1.2482
  998MOL0     H37721  10.570   8.214   7.507 -1.4086 -0.2848  0.3952
  998MOL0     H37722  10.929   8.209   7.539 -0.1678 -2.6363  2.5046
  998MOL0     H37723  10.832   8.099   7.637  1.9044  0.3105  1.1539
  998MOL0     H37724  10.790   8.140   7.464  1.2727 -1.4424 -0.2431
  999MOL0     O37725   5.644   9.184   3.081  0.3378  0.6228 -0.0725
  999MOL0     C37726   5.672   9.299   3.051  0.2395  0.2704  0.4852
  999MOL0     O37727   5.799   9.345   3.034  0.0819 -0.2425 -0.0075
  999MOL0     C37728   5.911   9.257   3.012  0.2913 -0.1338  0.0890
  999MOL0     C37729   6.030   9.301   3.057 -0.0336  0.7811  0.7303
  999MOL0     C37730   6.148   9.232   3.028  0.4203  0.7327 -0.1658
  999MOL0     C37731   6.151   9.114   2.948 -0.2308 -0.2692 -0.2716
  999MOL0     O37732   6.271   9.045   2.917  0.5132 -0.6713  0.6003
  999MOL0     C37733   6.353   9.105   2.813  0.0362  0.0420  0.3504
  999MOL0     C37734   6.436   9.225   2.861 -0.0866  0.8771  0.1066
  999MOL0     C37735   6.567   9.239   2.786  0.5182 -0.5291 -0.2674
  999MOL0     C37736   6.671   9.334   2.850 -0.0318 -0.5474 -0.3758
  999MOL0     C37737   6.760   9.392   2.748  0.9054  0.4275 -0.6376
  999MOL0     C37738   6.832   9.517   2.805 -0.1149  0.3824  0.7825
  999MOL0     C37739   6.909   9.593   2.693  0.4641  0.2840  0.5225
  999MOL0     C37740   6.960   9.729   2.734  0.4531 -0.5039  0.2244
  999MOL0     N37741   7.081   9.715   2.822  0.5911  0.1818 -0.2165
  999MOL0     C37742   7.068   9.723   2.963 -0.6191 -0.6045 -0.0919
  999MOL0     C37743   7.198   9.698   2.998 -0.3239 -0.1220 -0.2438
  999MOL0     C37744   7.255   9.681   3.145 -0.4091 -0.6490 -0.3231
  999MOL0     C37745   7.239   9.807   3.237 -0.5246 -0.1307 -0.3112
  999MOL0     C37746   7.311   9.794   3.375  0.4704  0.2001  0.0241
  999MOL0     C37747   7.447   9.863   3.382 -0.9135  0.0687  0.0883
  999MOL0     O37748   7.498   9.837   3.513 -0.7292  0.8920  0.7039
  999MOL0     C37749   7.620   9.901   3.534 -0.8560 -0.0323 -0.0607
  999MOL0     C37750   7.704   9.975   3.454  0.0394 -0.2199 -0.4134
  999MOL0     C37751   7.816  10.038   3.498 -0.1108  0.1716  0.1651
  999MOL0     C37752   7.894  10.120   3.405  0.7463 -0.0647 -0.1292
  999MOL0     C37753   7.852  10.020   3.634 -0.3614  0.1694 -0.2090
  999MOL0     C37754   7.976  10.084   3.705  0.4429 -0.7388 -0.8518
  999MOL0     O37755   8.030  10.192   3.639 -0.5426  0.2069  0.3347
  999MOL0     C37756   8.132  10.258   3.697 -0.5281 -0.4211 -0.2566
  999MOL0     C37757   8.250  10.194   3.739 -0.1074 -0.6747  0.2230
  999MOL0     C37758   8.361  10.267   3.789  0.0864  0.8143  0.6144
  999MOL0     C37759   8.356  10.408   3.804 -0.0115 -0.3811 -0.0297
  999MOL0     O37760   8.465  10.480   3.864 -0.0902  0.4465  0.8008
  999MOL0     C37761   8.436  10.603   3.926  0.0144 -1.1447  0.5335
  999MOL0     C37762   8.546  10.648   4.020  0.3067 -0.4371 -0.0216
  999MOL0     C37763   8.679  10.666   3.948 -0.6304 -0.7139  0.5601
  999MOL0     C37764   8.785  10.726   4.048  0.4339  0.0445  0.4799
  999MOL0     C37765   8.922  10.747   3.996 -0.8579 -0.2700 -1.0389
  999MOL0     C37766   9.013  10.624   3.981 -0.8279 -0.3305 -0.8220
  999MOL0     C37767   9.153  10.649   3.933 -0.1061 -0.0349  0.3156
  999MOL0     C37768   9.237  10.514   3.930  0.4998  0.0615 -0.1535
  999MOL0    Cl37769   9.404  10.569   3.920  0.3749 -0.0801 -0.4989
  999MOL0     C37770   8.241  10.472   3.744  0.2451  0.4992  0.1778
  999MOL0     C37771   8.137  10.402   3.695 -0.1779 -0.1880  0.2266
  999MOL0     O37772   8.022  10.034   3.812 -0.2811  0.5249 -0.3567
  999MOL0     C37773   7.779   9.934   3.713  0.1645  0.1530  0.4720
  999MOL0     C37774   7.656   9.876   3.667  0.6648 -0.4635  0.3850
  999MOL0     N37775   7.274   9.680   2.884 -0.1657 -0.3118  0.8705
  999MOL0     N37776   7.201   9.680   2.779 -0.4646 -0.4456  0.3355
  999MOL0     C37777   6.020   9.062   2.910  0.1044 -0.4113  0.2331
  999MOL0     C37778   5.912   9.137   2.939 -0.0840 -0.4475  1.1756
  999MOL0     C37779   5.576   9.396   2.993 -0.0879  0.3607 -0.3683
  999MOL0     C37780   5.624   9.517   2.943 -0.0737  0.6918  0.2651
  999MOL0     C37781   5.530   9.591   2.875 -0.1068 -1.0379  0.4666
  999MOL0     C37782   5.400   9.552   2.858 -0.6672  0.2434 -0.0858
  999MOL0     O37783   5.316   9.617   2.771 -0.5408 -1.0968  0.3087
  999MOL0     C37784   5.204   9.699   2.814 -0.5821 -0.4443  0.7323
  999MOL0     C37785   5.072   9.661   2.752  0.4287  0.0287 -0.4341
  999MOL0     C37786   4.948   9.727   2.829 -0.3222  0.3933 -0.3812
  999MOL0     C37787   4.963   9.877   2.862 -0.4687 -0.0139  0.6346
  999MOL0     C37788   4.842   9.927   2.923  0.6103  0.3042 -0.1411
  999MOL0     C37789   4.738   9.956   2.979  0.5614  0.1434  0.9206
  999MOL0     C37790   5.346   9.437   2.921 -0.2165 -0.4233  0.1546
  999MOL0     C37791   5.432   9.358   2.990 -0.2533 -0.3341  1.0166
  999MOL0     C37792   5.353   9.243   3.054 -0.0537 -0.1765 -0.0309
  999MOL0     H37793   6.035   9.401   3.099 -0.8266  1.8855 -1.6087
  999MOL0     H37794   6.243   9.275   3.058  1.2981  0.1338 -1.9110
  999MOL0     H37795   6.302   9.147   2.726 -0.2553 -0.6890  0.1679
  999MOL0     H37796   6.414   9.021   2.782 -1.7244 -2.1185  2.3270
  999MOL0     H37797   6.374   9.313   2.838 -1.8765 -0.4659 -0.4058
  999MOL0     H37798   6.450   9.221   2.969 -2.7233 -0.2036  0.4955
  999MOL0     H37799   6.612   9.140   2.773  1.8553  0.2284 -1.7068
  999MOL0     H37800   6.544   9.271   2.684 -0.2977 -0.5962 -0.1119
  999MOL0     H37801   6.625   9.419   2.901  0.7356 -0.1664 -0.3134
  999MOL0     H37802   6.727   9.284   2.930  2.1478  2.2392 -0.0197
  999MOL0     H37803   6.698   9.416   2.662 -1.0908 -1.4301  0.1789
  999MOL0     H37804   6.832   9.321   2.704  2.1144  1.8357 -0.9997
  999MOL0     H37805   6.756   9.578   2.856 -1.4329 -1.0404  0.6099
  999MOL0     H37806   6.900   9.483   2.883 -1.5975 -3.2622  0.6495
  999MOL0     H37807   6.848   9.618   2.606  0.9451 -1.1613 -0.2617
  999MOL0     H37808   6.991   9.536   2.649 -0.6620 -0.4464 -0.6940
  999MOL0     H37809   6.981   9.778   2.638 -2.5807  1.4357  0.4294
  999MOL0     H37810   6.873   9.777   2.781 -0.0792 -1.8648  0.6638
  999MOL0     H37811   6.977   9.723   3.024  0.4631 -0.4199  1.6001
  999MOL0     H37812   7.362   9.663   3.132  0.3330  2.8407 -0.0031
  999MOL0     H37813   7.230   9.588   3.198  4.8160 -2.1020  0.1457
  999MOL0     H37814   7.271   9.890   3.174 -0.9683 -2.9190 -4.6014
  999MOL0     H37815   7.132   9.817   3.258 -0.7228  1.0492 -1.7119
  999MOL0     H37816   7.252   9.842   3.454 -1.0399  0.4132 -1.1846
  999MOL0     H37817   7.319   9.688   3.398 -0.5226  0.4682  1.7977
  999MOL0     H37818   7.513   9.842   3.297  1.3314  2.8613  0.9671
  999MOL0     H37819   7.441   9.972   3.379 -0.3210  0.2882  3.4157
  999MOL0     H37820   7.682   9.980   3.348  1.3245 -1.2736 -0.7524
  999MOL0     H37821   7.991  10.070   3.390  1.0746  0.0444  1.4586
  999MOL0     H37822   7.893  10.227   3.427 -0.5664  0.2758 -1.7205
  999MOL0     H37823   7.839  10.116   3.311 -0.8140  1.4971  0.6812
  999MOL0     H37824   8.241  10.086   3.731 -1.8900 -0.7440  2.2122
  999MOL0     H37825   8.450  10.214   3.822 -0.5663 -0.5917  0.1791
  999MOL0     H37826   8.425  10.685   3.854  4.0656 -2.5557 -2.0811
  999MOL0     H37827   8.339  10.612   3.976 -1.1637  0.7700 -1.8698
  999MOL0     H37828   8.518  10.749   4.052 -0.1062 -1.5412  3.5380
  999MOL0     H37829   8.554  10.589   4.112  0.9783  2.3933  1.8694
  999MOL0     H37830   8.677  10.723   3.855 -0.8690 -2.3449 -0.4909
  999MOL0     H37831   8.718  10.569   3.916 -0.6006 -0.5293  0.0263
  999MOL0     H37832   8.785  10.666   4.139  2.9663  0.7116  0.9955
  999MOL0     H37833   8.737  10.820   4.079 -1.1570  0.4766 -2.8217
  999MOL0     H37834   8.919  10.809   3.906  2.0756 -1.3977 -2.0557
  999MOL0     H37835   8.970  10.811   4.070 -1.2859  0.2221 -1.1821
  999MOL0     H37836   8.961  10.562   3.906  0.4891 -0.6836 -1.4655
  999MOL0     H37837   9.022  10.574   4.077 -0.1352 -0.2984 -0.8646
  999MOL0     H37838   9.189  10.716   4.012 -1.3097 -1.4933  2.1807
  999MOL0     H37839   9.150  10.698   3.835 -3.1034 -2.8161 -1.1600
  999MOL0     H37840   9.197  10.459   3.845 -4.2577  0.2312  1.6778
  999MOL0     H37841   9.222  10.443   4.012 -1.5211  1.7014  1.0145
  999MOL0     H37842   8.245  10.580   3.742  0.5216  0.4914  0.3617
  999MOL0     H37843   8.058  10.456   3.644 -1.0668 -3.3236 -1.9763
  999MOL0     H37844   7.818   9.918   3.813 -0.7152  2.6052  1.2775
  999MOL0     H37845   7.593   9.815   3.731 -2.6759  2.6801  0.4405
  999MOL0     H37846   6.010   8.981   2.838 -2.1992 -0.3505  0.4034
  999MOL0     H37847   5.817   9.113   2.892 -1.2316  4.8042  0.1328
  999MOL0     H37848   5.726   9.554   2.948  1.3478 -2.9378  1.1206
  999MOL0     H37849   5.575   9.675   2.823 -0.5325 -0.8991  0.3199
  999MOL0     H37850   5.191   9.701   2.923  0.1828  1.0898  0.8204
  999MOL0     H37851   5.233   9.796   2.772  1.2046 -1.8543 -1.5237
  999MOL0     H37852   5.056   9.553   2.759 -0.5059  0.2135  0.4164
  999MOL0     H37853   5.074   9.679   2.644  3.6551 -2.2673 -0.8853
  999MOL0     H37854   4.854   9.703   2.778  0.1194 -0.2183 -0.9227
  999MOL0     H37855   4.933   9.678   2.925  0.5775 -0.5951 -0.7365
  999MOL0     H37856   4.985   9.935   2.771 -0.3042  0.9788  1.2968
  999MOL0     H37857   5.053   9.885   2.922 -0.3820  1.1852  0.3698
  999MOL0     H37858   4.641   9.983   3.016  0.1377  3.0452 -1.9074
  999MOL0     H37859   5.243   9.411   2.902 -0.8146  1.8688  0.0265
  999MOL0     H37860   5.358   9.252   3.163  0.6229 -1.7028  0.0833
  999MOL0     H37861   5.247   9.251   3.028 -0.0717  0.1036  0.1288
  999MOL0     H37862   5.386   9.143   3.024  1.7359 -0.6719  3.1518
 1000MOL0     O37863  11.133   2.505   0.056  0.3362  0.0043 -0.1778
 1000MOL0     C37864  11.129   2.583  -0.035 -1.5674  0.6453  0.5115
 1000MOL0     O37865  11.239   2.616  -0.107 -0.6857 -0.3584  0.4784
 1000MOL0     C37866  11.351   2.543  -0.082  0.5424  1.2214 -0.2290
 1000MOL0     C37867  11.435   2.589   0.011 -0.9743 -0.6870  1.1640
 1000MOL0     C37868  11.551   2.519   0.054 -1.1017 -0.2391  0.3423
 1000MOL0     C37869  11.579   2.392   0.005  0.0790 -0.2343  0.8139
 1000MOL0     O37870  11.691   2.321   0.048 -0.1829 -0.0903  0.0001
 1000MOL0     C37871  11.794   2.377   0.127  0.0013 -0.1313 -0.5812
 1000MOL0     C37872  11.886   2.260   0.169 -1.2161  0.3918 -0.4277
 1000MOL0     C37873  12.025   2.300   0.232  0.5658 -0.5304 -0.0427
 1000MOL0     C37874  12.101   2.183   0.288 -0.1283 -0.0057 -1.4358
 1000MOL0     C37875  12.227   2.219   0.370 -0.2591 -0.6122  0.1427
 1000MOL0     C37876  12.330   2.277   0.272  0.3806  0.3413 -0.7113
 1000MOL0     C37877  12.468   2.309   0.342  0.7843  0.0021 -0.4668
 1000MOL0     C37878  12.554   2.191   0.389  0.0016  0.5209  1.0932
 1000MOL0     N37879  12.593   2.092   0.286 -0.4014  0.2957 -0.0711
 1000MOL0     C37880  12.670   2.109   0.175  0.0262  0.0738  0.2978
 1000MOL0     C37881  12.676   1.986   0.103 -0.6551  0.0989 -0.0913
 1000MOL0     C37882  12.747   1.970  -0.039  0.5373  0.0827 -0.0741
 1000MOL0     C37883  12.889   2.043  -0.040  0.5267 -1.0676 -0.6516
 1000MOL0     C37884  12.955   2.033  -0.174  0.7439  0.1369 -0.0755
 1000MOL0     C37885  13.018   1.899  -0.195  0.5790 -0.8541 -0.2587
 1000MOL0     O37886  13.100   1.922  -0.313  0.1838  0.7385  0.5613
 1000MOL0     C37887  13.234   1.944  -0.297  0.5854  0.4519 -0.0386
 1000MOL0     C37888  13.298   1.894  -0.404 -0.0173  0.1780 -0.1119
 1000MOL0     C37889  13.439   1.906  -0.421  0.2010 -0.6766  0.9130
 1000MOL0     C37890  13.499   1.845  -0.535 -0.2925 -0.8409  0.0417
 1000MOL0     C37891  13.512   1.943  -0.310 -0.1273  0.2397  0.2407
 1000MOL0     C37892  13.664   1.936  -0.298  0.2961  0.4144 -0.7543
 1000MOL0     O37893  13.725   1.834  -0.371 -0.3101  0.0939 -0.0832
 1000MOL0     C37894  13.861   1.814  -0.366 -0.2227 -0.2693  0.1774
 1000MOL0     C37895  13.933   1.803  -0.248 -0.1301 -0.1692 -0.3950
 1000MOL0     C37896  14.072   1.773  -0.252  0.4902  0.3639  0.0592
 1000MOL0     C37897  14.132   1.746  -0.376 -0.3250 -0.1797 -0.6038
 1000MOL0     O37898  14.266   1.711  -0.393 -0.6184  0.1908  0.2756
 1000MOL0     C37899  14.352   1.740  -0.280 -0.1554  0.0552  0.2677
 1000MOL0     C37900  14.500   1.763  -0.320  0.2282  0.0986  0.9485
 1000MOL0     C37901  14.563   1.636  -0.377 -0.2288 -0.4661 -0.0137
 1000MOL0     C37902  14.710   1.654  -0.420  0.1207  0.5082 -0.7555
 1000MOL0     C37903  14.794   1.521  -0.443 -0.2990 -0.0325  0.2125
 1000MOL0     C37904  14.950   1.554  -0.432 -0.4060 -0.1070  0.2841
 1000MOL0     C37905  15.031   1.419  -0.444  0.3632  0.9247  0.3827
 1000MOL0     C37906  15.177   1.449  -0.441  0.1212  0.3911 -0.4542
 1000MOL0    Cl37907  15.242   1.516  -0.291  0.0178 -0.0425 -0.2479
 1000MOL0     C37908  14.058   1.749  -0.492  0.8930 -0.0885 -0.3467
 1000MOL0     C37909  13.925   1.785  -0.488  0.0149  0.4647  0.8205
 1000MOL0     O37910  13.721   2.009  -0.218 -0.0568 -0.1839 -0.5642
 1000MOL0     C37911  13.445   1.997  -0.202  0.1024  0.2552 -0.5281
 1000MOL0     C37912  13.305   1.985  -0.190 -0.2591 -0.6662 -0.2520
 1000MOL0     N37913  12.604   1.901   0.175  0.4766 -0.4124  0.4363
 1000MOL0     N37914  12.552   1.958   0.285 -0.4358 -0.8307 -0.3905
 1000MOL0     C37915  11.493   2.337  -0.090  0.0272  0.0508 -0.2509
 1000MOL0     C37916  11.379   2.415  -0.132 -0.7271 -0.2829  0.2056
 1000MOL0     C37917  10.993   2.630  -0.078 -0.9226  0.2410 -0.0926
 1000MOL0     C37918  10.972   2.658  -0.217 -0.4676 -0.8447 -0.3374
 1000MOL0     C37919  10.852   2.704  -0.263  0.4659  0.5005 -0.5230
 1000MOL0     C37920  10.740   2.716  -0.187  0.1085 -0.9328 -0.4219
 1000MOL0     O37921  10.619   2.759  -0.240 -0.2362 -0.0082 -0.0344
 1000MOL0     C37922  10.499   2.733  -0.164 -0.1881  1.0237  0.1384
 1000MOL0     C37923  10.371   2.758  -0.240 -0.2928 -0.4898 -0.2755
 1000MOL0     C37924  10.377   2.685  -0.376  0.7387 -0.5573  1.0195
 1000MOL0     C37925  10.261   2.734  -0.470  0.0575  0.6852 -1.1857
 1000MOL0     C37926  10.268   2.866  -0.524  0.1930  1.1121  0.2479
 1000MOL0     C37927  10.262   2.976  -0.576  0.7167  0.2352  0.4687
 1000MOL0     C37928  10.754   2.670  -0.054  0.0836  0.1183 -0.2789
 1000MOL0     C37929  10.876   2.625  -0.004 -0.5264  0.1958  0.0174
 1000MOL0     C37930  10.881   2.590   0.142 -0.4527  0.5965 -0.1566
 1000MOL0     H37931  11.408   2.685   0.053 -4.5326 -0.9804 -0.0795
 1000MOL0     H37932  11.613   2.568   0.129  0.9298 -0.2173 -1.2778
 1000MOL0     H37933  11.756   2.426   0.217 -1.3425 -1.5863 -0.3274
 1000MOL0     H37934  11.844   2.449   0.061 -1.7012  0.1265 -1.6537
 1000MOL0     H37935  11.830   2.195   0.237  0.8703 -0.2490  0.7606
 1000MOL0     H37936  11.909   2.205   0.077 -0.8097 -1.1434  0.5453
 1000MOL0     H37937  12.077   2.358   0.155 -1.3756  2.5329  0.7630
 1000MOL0     H37938  12.001   2.377   0.306 -0.1845  0.1678 -0.9855
 1000MOL0     H37939  12.040   2.131   0.363  1.4109  2.7675  2.0440
 1000MOL0     H37940  12.131   2.109   0.214  2.7150  1.0210 -1.4172
 1000MOL0     H37941  12.271   2.130   0.414  2.5494  1.7158  2.4650
 1000MOL0     H37942  12.202   2.287   0.451  0.9531  0.7779 -0.5933
 1000MOL0     H37943  12.346   2.209   0.187  1.5948 -2.4082  1.5388
 1000MOL0     H37944  12.294   2.377   0.246  2.1328  1.3751  0.5470
 1000MOL0     H37945  12.448   2.384   0.418 -0.0109 -0.0695 -0.5909
 1000MOL0     H37946  12.542   2.357   0.278  1.1826 -0.8510 -0.6651
 1000MOL0     H37947  12.642   2.231   0.440  1.8940 -1.3515 -0.5658
 1000MOL0     H37948  12.490   2.148   0.467 -0.4319 -0.7802  0.0556
 1000MOL0     H37949  12.720   2.205   0.164  0.1082 -0.1378 -1.4460
 1000MOL0     H37950  12.680   2.012  -0.114 -1.6161 -1.0909  1.1113
 1000MOL0     H37951  12.768   1.865  -0.059  2.9787  0.1902  1.4636
 1000MOL0     H37952  12.869   2.147  -0.013 -2.8932 -2.1531  1.6090
 1000MOL0     H37953  12.951   2.003   0.040 -0.9325 -0.8797  0.6399
 1000MOL0     H37954  12.883   2.042  -0.256  2.5239  0.6728 -1.6473
 1000MOL0     H37955  13.033   2.109  -0.181  0.4834  0.9381  3.5379
 1000MOL0     H37956  13.077   1.865  -0.110  1.0419 -1.5168 -0.8279
 1000MOL0     H37957  12.954   1.822  -0.238  0.0358  0.4758 -1.9862
 1000MOL0     H37958  13.244   1.863  -0.493  1.2077  0.7317 -1.0894
 1000MOL0     H37959  13.587   1.899  -0.570 -0.5429 -1.2749 -1.3514
 1000MOL0     H37960  13.427   1.838  -0.617  1.6411 -1.7545 -1.6762
 1000MOL0     H37961  13.527   1.742  -0.511  0.6243  0.1659  3.9883
 1000MOL0     H37962  13.876   1.816  -0.157  1.0299 -1.3250  0.5316
 1000MOL0     H37963  14.121   1.761  -0.156  0.2075 -2.2716 -0.0589
 1000MOL0     H37964  14.322   1.837  -0.239  0.6063  0.9148 -1.1350
 1000MOL0     H37965  14.343   1.660  -0.206  1.0744  1.5449  2.1385
 1000MOL0     H37966  14.504   1.846  -0.391 -1.5406  0.2371  0.9855
 1000MOL0     H37967  14.562   1.790  -0.234 -1.3078  0.5337  1.9508
 1000MOL0     H37968  14.498   1.606  -0.459 -1.2645 -2.8799  1.5717
 1000MOL0     H37969  14.560   1.546  -0.315  5.3153 -2.8180 -2.4365
 1000MOL0     H37970  14.761   1.711  -0.342 -0.6235  0.0529  0.0894
 1000MOL0     H37971  14.717   1.726  -0.502 -2.2106  0.8660 -0.7269
 1000MOL0     H37972  14.768   1.451  -0.364 -1.1763  0.5411  0.4447
 1000MOL0     H37973  14.777   1.477  -0.542  3.7597 -2.1820  0.2606
 1000MOL0     H37974  14.972   1.607  -0.339 -2.4772  0.5457  0.4413
 1000MOL0     H37975  14.978   1.611  -0.521  1.8394  1.3756  1.8555
 1000MOL0     H37976  15.020   1.368  -0.540  2.5352 -2.3223  1.6733
 1000MOL0     H37977  14.998   1.348  -0.368 -2.0036 -1.1409 -2.3559
 1000MOL0     H37978  15.197   1.521  -0.521 -0.6328 -2.1234 -3.1214
 1000MOL0     H37979  15.229   1.356  -0.465 -0.4824 -0.4525  1.3192
 1000MOL0     H37980  14.120   1.716  -0.575  1.6977 -2.7647  1.1902
 1000MOL0     H37981  13.879   1.765  -0.585  0.2046  0.4218  0.7382
 1000MOL0     H37982  13.503   2.026  -0.115  1.8474 -3.9942 -0.0161
 1000MOL0     H37983  13.266   2.022  -0.096  1.8877 -1.3397  0.9973
 1000MOL0     H37984  11.520   2.243  -0.136  0.0121 -0.5413  0.9237
 1000MOL0     H37985  11.309   2.363  -0.197 -3.5891  1.5203  1.6683
 1000MOL0     H37986  11.053   2.648  -0.288  0.1888  3.6555 -0.5141
 1000MOL0     H37987  10.848   2.730  -0.369 -1.3055 -3.3566 -1.6026
 1000MOL0     H37988  10.488   2.630  -0.131  0.8334  0.7801 -0.2445
 1000MOL0     H37989  10.501   2.795  -0.074 -0.8652 -2.1948  2.5515
 1000MOL0     H37990  10.362   2.865  -0.261 -0.3257 -0.3700  0.3237
 1000MOL0     H37991  10.293   2.705  -0.184  0.8486  1.6239  3.6862
 1000MOL0     H37992  10.461   2.692  -0.445 -0.6466 -0.0295 -0.6847
 1000MOL0     H37993  10.348   2.580  -0.362 -4.4219  0.5372  0.7864
 1000MOL0     H37994  10.168   2.723  -0.414 -0.5586  3.0585 -1.6289
 1000MOL0     H37995  10.237   2.658  -0.546 -3.6491 -1.5881  1.8602
 1000MOL0     H37996  10.244   3.071  -0.621 -1.4717  0.2743  1.3119
 1000MOL0     H37997  10.668   2.665   0.012 -0.1274 -0.1139 -0.5691
 1000MOL0     H37998  10.963   2.651   0.182  1.5106 -2.0284  0.0583
 1000MOL0     H37999  10.792   2.630   0.192  0.3842  2.5624 -0.1562
 1000MOL0     H38000  10.905   2.484   0.155 -0.7973  0.3530 -1.3260
 1001MOL0     O38001   2.675   8.447   4.159  0.1557 -0.0767 -0.0004
 1001MOL0     C38002   2.621   8.367   4.086  1.0466 -0.3094 -0.0603
 1001MOL0     O38003   2.665   8.327   3.965 -0.3274 -0.1025  0.6540
 1001MOL0     C38004   2.786   8.377   3.922 -0.9557 -0.7656 -0.1867
 1001MOL0     C38005   2.903   8.305   3.947  0.0151 -0.1454 -0.1742
 1001MOL0     C38006   3.028   8.344   3.895 -0.7215 -0.3834 -0.9666
 1001MOL0     C38007   3.034   8.457   3.822 -0.9232  0.6107 -0.8016
 1001MOL0     O38008   3.149   8.487   3.754  0.4384 -0.1532  0.5795
 1001MOL0     C38009   3.273   8.498   3.836  0.1246 -0.3673  0.1680
 1001MOL0     C38010   3.403   8.461   3.759 -0.7896  0.7616  0.0314
 1001MOL0     C38011   3.385   8.482   3.609 -0.0664 -0.3187  0.2036
 1001MOL0     C38012   3.511   8.472   3.517  0.1881  0.4327  0.2805
 1001MOL0     C38013   3.620   8.574   3.543  0.5424 -0.4558 -0.1088
 1001MOL0     C38014   3.736   8.581   3.446 -0.8585 -0.7520 -0.3588
 1001MOL0     C38015   3.868   8.626   3.515 -0.0078 -0.3074 -0.2883
 1001MOL0     C38016   3.969   8.648   3.401 -0.5749  0.1463  0.2006
 1001MOL0     N38017   4.087   8.718   3.451 -0.3954  0.9774  0.9948
 1001MOL0     C38018   4.184   8.664   3.532  0.5482 -0.2496 -0.7172
 1001MOL0     C38019   4.280   8.767   3.545  0.2508 -0.2678 -0.2130
 1001MOL0     C38020   4.396   8.761   3.634 -1.4470  0.2161 -0.4308
 1001MOL0     C38021   4.366   8.803   3.782  0.1489 -1.1315  0.5450
 1001MOL0     C38022   4.449   8.746   3.899 -0.2622  0.3398 -0.3182
 1001MOL0     C38023   4.434   8.592   3.930  0.0538  0.5482  0.3894
 1001MOL0     O38024   4.509   8.520   3.829 -0.2639 -0.0555  0.2365
 1001MOL0     C38025   4.627   8.464   3.859  0.2407  0.5599 -0.0819
 1001MOL0     C38026   4.647   8.324   3.856 -0.6672 -0.0769 -0.1155
 1001MOL0     C38027   4.771   8.266   3.903  0.3227  0.0445 -0.3760
 1001MOL0     C38028   4.780   8.118   3.911  0.5886  0.3269 -0.6209
 1001MOL0     C38029   4.881   8.351   3.929 -0.1925 -0.2887  0.3680
 1001MOL0     C38030   5.014   8.301   3.970 -0.0653 -0.0485  0.4455
 1001MOL0     O38031   5.110   8.411   3.972 -0.1842  0.1431  0.1570
 1001MOL0     C38032   5.246   8.391   4.003 -0.7612  0.6955  0.1353
 1001MOL0     C38033   5.285   8.324   4.120  0.7351 -0.3297 -0.2816
 1001MOL0     C38034   5.419   8.336   4.165 -0.6366  0.5621  0.4455
 1001MOL0     C38035   5.521   8.397   4.084 -0.1255 -0.5115  0.7064
 1001MOL0     O38036   5.647   8.409   4.135 -0.1571  0.1390  0.1472
 1001MOL0     C38037   5.772   8.410   4.058  0.5652  0.3178 -0.9101
 1001MOL0     C38038   5.875   8.451   4.167 -0.1112  0.1336 -0.4136
 1001MOL0     C38039   6.020   8.416   4.131  0.0462  0.6367  0.8862
 1001MOL0     C38040   6.108   8.484   4.232  0.2009 -0.2024 -0.4882
 1001MOL0     C38041   6.253   8.510   4.181  0.9585  0.2844  0.4844
 1001MOL0     C38042   6.337   8.577   4.296  0.3396 -1.3811 -0.5798
 1001MOL0     C38043   6.452   8.665   4.247 -0.4375 -0.1829  0.2789
 1001MOL0     C38044   6.548   8.706   4.362  0.2101 -0.2543  0.4294
 1001MOL0    Cl38045   6.646   8.827   4.277  0.2959 -0.0762  0.0904
 1001MOL0     C38046   5.480   8.464   3.969 -0.1218  0.6889 -0.1234
 1001MOL0     C38047   5.348   8.470   3.931  1.3177 -0.2212  0.9059
 1001MOL0     O38048   5.048   8.182   3.980 -0.4385  0.1142  0.6376
 1001MOL0     C38049   4.861   8.483   3.917  0.3780 -0.3543  0.0200
 1001MOL0     C38050   4.741   8.548   3.877 -0.2456  0.6527  0.1051
 1001MOL0     N38051   4.232   8.874   3.470 -0.3334  0.6920 -0.1300
 1001MOL0     N38052   4.120   8.842   3.416  0.5679 -0.0918  0.0733
 1001MOL0     C38053   2.931   8.544   3.804  0.1291  0.3915 -0.8815
 1001MOL0     C38054   2.804   8.498   3.858 -0.1883  0.2330 -0.3275
 1001MOL0     C38055   2.496   8.306   4.131 -0.3691  0.3784 -0.2404
 1001MOL0     C38056   2.414   8.381   4.223 -0.6860  0.4847  0.3510
 1001MOL0     C38057   2.288   8.343   4.267  0.1724 -0.9080  0.1825
 1001MOL0     C38058   2.242   8.216   4.223  0.1977 -0.0361  0.6627
 1001MOL0     O38059   2.127   8.162   4.272 -0.4638  0.5557 -0.4950
 1001MOL0     C38060   2.042   8.235   4.371 -0.0623  0.3057 -0.0645
 1001MOL0     C38061   1.906   8.162   4.390  0.0251 -0.8351 -0.1735
 1001MOL0     C38062   1.930   8.023   4.439  0.2936  0.1436  0.4061
 1001MOL0     C38063   1.790   7.955   4.459  0.1200 -0.5900  0.4153
 1001MOL0     C38064   1.808   7.812   4.503  0.2379 -0.0523  0.4086
 1001MOL0     C38065   1.804   7.690   4.537  0.0260  0.3393  0.2785
 1001MOL0     C38066   2.325   8.128   4.152  0.1867 -0.3059 -0.0891
 1001MOL0     C38067   2.454   8.171   4.107 -0.0261  0.1918 -0.2356
 1001MOL0     C38068   2.543   8.069   4.035 -0.9506 -0.1239  0.1071
 1001MOL0     H38069   2.895   8.209   3.996  0.1735 -0.1063 -0.0717
 1001MOL0     H38070   3.114   8.283   3.920  0.1415  2.3942  4.3417
 1001MOL0     H38071   3.270   8.418   3.911  0.4697 -3.8033 -3.1750
 1001MOL0     H38072   3.289   8.596   3.883  1.7787  0.0645 -1.1688
 1001MOL0     H38073   3.481   8.530   3.793 -1.9418  2.5571 -0.7847
 1001MOL0     H38074   3.443   8.360   3.772 -0.7940  0.2875 -2.9550
 1001MOL0     H38075   3.322   8.396   3.584  1.8808 -0.7826 -3.8899
 1001MOL0     H38076   3.345   8.583   3.594  2.5039  0.9122  1.0928
 1001MOL0     H38077   3.544   8.368   3.513  2.1135  1.0105  0.0454
 1001MOL0     H38078   3.472   8.501   3.419  0.9975  1.5165  0.2547
 1001MOL0     H38079   3.666   8.551   3.640  0.2229 -1.7174 -0.2430
 1001MOL0     H38080   3.571   8.671   3.545 -1.3868 -1.3125 -1.9630
 1001MOL0     H38081   3.757   8.490   3.389  3.5004  1.2527 -2.4821
 1001MOL0     H38082   3.704   8.665   3.383  2.2044  0.9113  0.0920
 1001MOL0     H38083   3.915   8.554   3.582 -1.0503  1.4824  2.5919
 1001MOL0     H38084   3.856   8.723   3.565  1.0610  1.0443 -2.5265
 1001MOL0     H38085   3.990   8.549   3.360  0.3029 -0.6708  2.4832
 1001MOL0     H38086   3.926   8.704   3.317 -2.6208 -2.3160 -0.5141
 1001MOL0     H38087   4.191   8.572   3.589  1.9217  0.6320  0.6088
 1001MOL0     H38088   4.476   8.824   3.593 -2.7064  0.3563 -2.7907
 1001MOL0     H38089   4.429   8.656   3.629 -1.6872  0.1395 -0.3901
 1001MOL0     H38090   4.359   8.911   3.796 -3.2899 -0.8445 -2.1632
 1001MOL0     H38091   4.261   8.781   3.805 -1.0446  0.4580 -2.7540
 1001MOL0     H38092   4.555   8.774   3.887 -0.4441  0.5690 -1.6039
 1001MOL0     H38093   4.408   8.781   3.994 -1.0151 -0.7404 -0.2211
 1001MOL0     H38094   4.477   8.555   4.023  0.8453 -0.4326 -0.3409
 1001MOL0     H38095   4.329   8.567   3.917  0.2617  0.8863 -2.5895
 1001MOL0     H38096   4.569   8.249   3.842 -0.1664 -0.8929  1.2657
 1001MOL0     H38097   4.680   8.078   3.891  0.3315  1.8347 -2.5837
 1001MOL0     H38098   4.813   8.075   4.006  1.1347  0.8583 -0.5626
 1001MOL0     H38099   4.849   8.084   3.834  0.7031 -3.1262  0.8480
 1001MOL0     H38100   5.210   8.280   4.185 -0.1972  1.7062  0.1005
 1001MOL0     H38101   5.445   8.297   4.262  0.8136  0.6818  0.1203
 1001MOL0     H38102   5.804   8.317   4.010  1.1688 -0.4349  0.8792
 1001MOL0     H38103   5.770   8.496   3.989 -1.5201  2.9307  2.1176
 1001MOL0     H38104   5.865   8.559   4.180  0.6684  0.0864  0.7216
 1001MOL0     H38105   5.852   8.402   4.263 -2.4765  3.7312  1.0589
 1001MOL0     H38106   6.027   8.453   4.028 -4.8424 -0.5148 -0.0991
 1001MOL0     H38107   6.030   8.307   4.128  0.5754  0.7078 -0.6786
 1001MOL0     H38108   6.109   8.425   4.325  1.6970  2.6014  1.4052
 1001MOL0     H38109   6.061   8.578   4.259 -0.4970 -1.2345  2.2123
 1001MOL0     H38110   6.288   8.414   4.142 -0.2979 -0.8355  1.9995
 1001MOL0     H38111   6.246   8.578   4.095 -0.8164 -1.9749 -1.2993
 1001MOL0     H38112   6.380   8.497   4.358  2.0739 -1.3218 -1.6495
 1001MOL0     H38113   6.274   8.640   4.360  2.4622  2.0864 -1.6095
 1001MOL0     H38114   6.415   8.760   4.208 -0.4902 -1.2714 -2.5651
 1001MOL0     H38115   6.517   8.609   4.180  2.3932 -0.3003  2.8765
 1001MOL0     H38116   6.618   8.626   4.388  2.3324  0.7788 -1.6740
 1001MOL0     H38117   6.498   8.745   4.451 -1.3414  0.8511 -0.8765
 1001MOL0     H38118   5.567   8.521   3.941 -0.4123  1.6694  0.8869
 1001MOL0     H38119   5.317   8.530   3.846  0.0580  0.0661  1.5382
 1001MOL0     H38120   4.946   8.549   3.925  0.6875 -0.8583  1.0471
 1001MOL0     H38121   4.735   8.655   3.863  0.8001  0.7478  0.3565
 1001MOL0     H38122   2.954   8.638   3.754 -0.9324  0.3817 -1.4092
 1001MOL0     H38123   2.723   8.569   3.848  0.2690  0.5808 -1.8020
 1001MOL0     H38124   2.452   8.477   4.257 -0.9567  0.2462  1.3625
 1001MOL0     H38125   2.226   8.409   4.326  3.0394  0.7313  1.5726
 1001MOL0     H38126   2.097   8.246   4.465 -2.3414 -0.2644  1.4215
 1001MOL0     H38127   2.027   8.336   4.332 -0.5936  0.1741 -0.2155
 1001MOL0     H38128   1.860   8.156   4.291 -0.8085  0.2597  0.1228
 1001MOL0     H38129   1.846   8.224   4.456 -1.8640 -1.9754 -0.7566
 1001MOL0     H38130   1.992   7.959   4.374  0.1189 -2.3362  2.4997
 1001MOL0     H38131   1.980   8.015   4.536 -1.3055  1.8892  1.4190
 1001MOL0     H38132   1.742   7.971   4.361  1.5540  2.3786  0.0856
 1001MOL0     H38133   1.739   8.015   4.535  1.5428  1.1449  0.0569
 1001MOL0     H38134   1.799   7.590   4.574 -0.8897  0.9507  1.9306
 1001MOL0     H38135   2.286   8.031   4.125  1.3514  0.0078 -3.3264
 1001MOL0     H38136   2.537   8.106   3.932 -0.7346  2.0189  0.8006
 1001MOL0     H38137   2.645   8.067   4.075 -1.0970 -0.4272  0.4731
 1001MOL0     H38138   2.513   7.964   4.033  2.4356 -1.1765 -0.4574
 1002MOL0     O38139   8.193  10.324   8.317 -0.3679 -0.0834 -0.0155
 1002MOL0     C38140   8.154  10.210   8.297 -0.1738 -0.7151  0.1661
 1002MOL0     O38141   8.221  10.099   8.322  1.1717  0.5457  0.2456
 1002MOL0     C38142   8.345  10.112   8.374 -0.6766  0.0381  0.7977
 1002MOL0     C38143   8.378  10.160   8.494 -0.6962 -0.4020  0.5867
 1002MOL0     C38144   8.505  10.164   8.552 -1.1428  0.0106  0.5093
 1002MOL0     C38145   8.608  10.125   8.467 -1.2652 -0.6905  0.3104
 1002MOL0     O38146   8.742  10.116   8.509 -0.2045 -0.3939  0.2066
 1002MOL0     C38147   8.791  10.232   8.584  0.0579 -0.2688  0.2893
 1002MOL0     C38148   8.938  10.199   8.606 -1.2243 -0.8740 -0.3146
 1002MOL0     C38149   9.017  10.186   8.474 -0.0200 -1.2060 -0.1910
 1002MOL0     C38150   9.165  10.159   8.500 -0.3895  0.3690  0.6558
 1002MOL0     C38151   9.235  10.121   8.371  0.0696  0.8910 -0.1281
 1002MOL0     C38152   9.389  10.085   8.381  0.5587  0.0884  0.9492
 1002MOL0     C38153   9.427   9.996   8.267  0.5866  0.2486  0.1242
 1002MOL0     C38154   9.399  10.057   8.123  0.0403 -0.1162  0.1377
 1002MOL0     N38155   9.519  10.036   8.034  0.6490  0.4676  0.2877
 1002MOL0     C38156   9.605  10.125   7.982  0.6054 -0.6297  0.2004
 1002MOL0     C38157   9.691  10.055   7.903  0.2513  0.2438 -0.5697
 1002MOL0     C38158   9.808  10.111   7.828  0.1666  0.2797 -0.4903
 1002MOL0     C38159   9.928  10.009   7.839  0.5722 -0.5062 -0.2326
 1002MOL0     C38160  10.059  10.072   7.773  0.0444 -0.9233  0.3619
 1002MOL0     C38161  10.084  10.219   7.814  0.1488  0.3237 -1.2672
 1002MOL0     O38162  10.207  10.284   7.760 -0.2544 -0.2558 -0.6147
 1002MOL0     C38163  10.328  10.263   7.807 -0.1442 -0.0764 -0.3419
 1002MOL0     C38164  10.433  10.298   7.727  0.2032  0.4170 -0.2494
 1002MOL0     C38165  10.567  10.265   7.761 -0.5932  0.3277 -0.4838
 1002MOL0     C38166  10.681  10.289   7.666  0.2942 -0.3049 -0.1869
 1002MOL0     C38167  10.595  10.210   7.890  0.4632  0.1278 -0.6987
 1002MOL0     C38168  10.734  10.184   7.949  0.5462  0.7591 -0.2698
 1002MOL0     O38169  10.837  10.241   7.889  0.2011  0.7045  0.0926
 1002MOL0     C38170  10.973  10.237   7.927  0.8252 -0.1305 -0.0411
 1002MOL0     C38171  11.056  10.254   7.821  0.0903 -0.8257 -0.3290
 1002MOL0     C38172  11.195  10.260   7.841  0.2331  0.7032 -0.6998
 1002MOL0     C38173  11.249  10.244   7.965 -0.3057 -0.1664 -0.4997
 1002MOL0     O38174  11.381  10.234   8.000 -0.2867 -0.7016 -0.0763
 1002MOL0     C38175  11.490  10.224   7.905 -0.8475  0.3223 -0.5700
 1002MOL0     C38176  11.625  10.232   7.994 -0.9848  0.0528  0.7137
 1002MOL0     C38177  11.657  10.115   8.085  0.7662  0.5672 -0.5958
 1002MOL0     C38178  11.750  10.157   8.195  0.0407 -0.3932 -0.0646
 1002MOL0     C38179  11.810  10.032   8.270 -0.0664  0.2265  0.8103
 1002MOL0     C38180  11.915  10.069   8.385 -0.1043  0.3739 -0.2828
 1002MOL0     C38181  11.851  10.128   8.520 -0.5975  0.5887 -0.9452
 1002MOL0     C38182  11.732  10.048   8.585 -0.0877  0.1165  0.5287
 1002MOL0    Cl38183  11.707  10.122   8.745 -0.4064  0.2134 -0.0948
 1002MOL0     C38184  11.159  10.230   8.074  0.1314  0.2874 -0.7693
 1002MOL0     C38185  11.022  10.221   8.058 -0.0984 -1.1264  0.3432
 1002MOL0     O38186  10.747  10.103   8.047  0.3209 -0.0984 -0.2921
 1002MOL0     C38187  10.481  10.178   7.967 -0.8075  0.1637  1.2717
 1002MOL0     C38188  10.349  10.201   7.925 -0.7696  0.2132  0.4092
 1002MOL0     N38189   9.658   9.918   7.907 -0.3658 -0.1027 -0.2286
 1002MOL0     N38190   9.543   9.921   7.980 -0.5004 -0.5483  0.0874
 1002MOL0     C38191   8.587  10.093   8.335  0.3006  0.0576 -0.3172
 1002MOL0     C38192   8.457  10.088   8.290 -0.0274  0.1226  0.1267
 1002MOL0     C38193   8.015  10.208   8.237 -0.4641 -0.1469 -0.8666
 1002MOL0     C38194   7.957  10.332   8.186  0.7781 -0.1886  0.5617
 1002MOL0     C38195   7.827  10.338   8.129  0.1344  0.3486  0.0630
 1002MOL0     C38196   7.766  10.217   8.096  0.0599  0.2339  0.2933
 1002MOL0     O38197   7.660  10.208   8.016  0.0751 -0.4074  0.0037
 1002MOL0     C38198   7.612  10.325   7.946 -0.2302 -0.2187 -0.4313
 1002MOL0     C38199   7.506  10.277   7.849  0.5300  0.0352  0.4841
 1002MOL0     C38200   7.556  10.268   7.707 -0.1965 -0.2645  0.5396
 1002MOL0     C38201   7.458  10.216   7.593 -0.4367  0.0762  0.4249
 1002MOL0     C38202   7.335  10.295   7.604  0.1606  0.1935 -0.4606
 1002MOL0     C38203   7.232  10.361   7.615 -0.1087 -0.3755 -0.8363
 1002MOL0     C38204   7.813  10.101   8.153  0.2385 -0.0727 -0.1380
 1002MOL0     C38205   7.929  10.092   8.225  0.9678  0.0304  0.8464
 1002MOL0     C38206   7.970   9.944   8.255 -0.3948 -0.8843  0.2162
 1002MOL0     H38207   8.298  10.182   8.564  0.3701  0.6756  1.5010
 1002MOL0     H38208   8.523  10.178   8.658  0.5185  0.9797  0.1206
 1002MOL0     H38209   8.737  10.258   8.676  2.7886  1.1476  1.6093
 1002MOL0     H38210   8.782  10.323   8.525  0.8062  0.2176  0.9095
 1002MOL0     H38211   8.978  10.279   8.668  1.8523 -2.5815  0.1016
 1002MOL0     H38212   8.958  10.109   8.666 -0.8358 -0.3645  0.3278
 1002MOL0     H38213   8.973  10.119   8.400 -0.8091  1.2785 -2.1302
 1002MOL0     H38214   9.008  10.286   8.432 -3.5994 -0.9102  0.9294
 1002MOL0     H38215   9.205  10.249   8.548 -2.0491  1.6136 -0.2034
 1002MOL0     H38216   9.174  10.074   8.567  0.9164 -0.7785 -0.9037
 1002MOL0     H38217   9.211  10.194   8.293  0.6288  0.9741 -0.2322
 1002MOL0     H38218   9.180  10.032   8.340  0.4280  0.9310 -0.9135
 1002MOL0     H38219   9.467  10.161   8.394 -1.0762  1.8765  0.8200
 1002MOL0     H38220   9.399  10.015   8.464 -0.6645  0.7670  1.7034
 1002MOL0     H38221   9.362   9.909   8.272  1.2544 -0.4633 -2.2298
 1002MOL0     H38222   9.530   9.963   8.283  1.0151  1.1589 -0.6768
 1002MOL0     H38223   9.302  10.020   8.086 -0.6347  0.4300  1.3044
 1002MOL0     H38224   9.393  10.165   8.136 -0.7596 -0.0080 -0.9662
 1002MOL0     H38225   9.612  10.231   8.005  0.8627 -0.7201  0.5546
 1002MOL0     H38226   9.820  10.210   7.873 -3.9654  0.2256  1.1666
 1002MOL0     H38227   9.785  10.139   7.725 -3.3396 -0.5608 -0.0368
 1002MOL0     H38228   9.943   9.986   7.945 -0.0144  1.7029  0.3708
 1002MOL0     H38229   9.903   9.915   7.788 -1.0210  0.3383 -1.0720
 1002MOL0     H38230  10.149  10.009   7.782  0.3226 -0.8450 -1.5360
 1002MOL0     H38231  10.034  10.079   7.667 -0.5416 -0.6009  0.5228
 1002MOL0     H38232  10.002  10.285   7.784  0.3123 -0.3822 -3.4432
 1002MOL0     H38233  10.082  10.230   7.923  1.5738  1.3221 -1.3199
 1002MOL0     H38234  10.412  10.330   7.626  1.7938 -0.5582 -0.9132
 1002MOL0     H38235  10.719  10.389   7.688  0.6138 -0.6736  1.0134
 1002MOL0     H38236  10.635  10.304   7.568 -2.7578  3.4271  1.5134
 1002MOL0     H38237  10.763  10.217   7.668 -1.0339 -1.9007  2.5571
 1002MOL0     H38238  11.007  10.270   7.726 -2.8758 -2.9773  0.6887
 1002MOL0     H38239  11.255  10.299   7.759 -1.8357  1.3889 -1.9527
 1002MOL0     H38240  11.489  10.130   7.848  1.5488  0.7701 -1.4410
 1002MOL0     H38241  11.490  10.310   7.837  0.7953 -0.2962 -1.4088
 1002MOL0     H38242  11.708  10.251   7.924  0.6051  3.8242  3.3010
 1002MOL0     H38243  11.613  10.326   8.049 -0.4814  0.3160  0.3811
 1002MOL0     H38244  11.701  10.034   8.025  2.7437  0.1814  1.2617
 1002MOL0     H38245  11.559  10.082   8.122  0.5320  2.2347  0.3766
 1002MOL0     H38246  11.704  10.222   8.271  2.9230 -0.8359  2.2663
 1002MOL0     H38247  11.837  10.207   8.152 -0.3720  0.1299 -0.3040
 1002MOL0     H38248  11.732   9.962   8.299  1.2606 -2.6211 -1.8694
 1002MOL0     H38249  11.873   9.997   8.187  0.5596  1.9624  0.4895
 1002MOL0     H38250  11.994  10.139   8.359  0.6227 -0.0002  0.8566
 1002MOL0     H38251  11.961   9.974   8.414 -0.1939  0.2539 -0.5385
 1002MOL0     H38252  11.823  10.225   8.477  0.9135  0.6496 -1.8841
 1002MOL0     H38253  11.929  10.137   8.595 -0.2675 -1.7654 -0.9255
 1002MOL0     H38254  11.748   9.939   8.582 -2.6651 -0.3335 -2.2706
 1002MOL0     H38255  11.650  10.069   8.516  0.8199  0.6579 -0.4060
 1002MOL0     H38256  11.202  10.226   8.174  1.0863  1.8265 -1.0911
 1002MOL0     H38257  10.947  10.203   8.134 -0.2275  0.0849  0.5216
 1002MOL0     H38258  10.492  10.119   8.058  0.2419  1.4578  2.0145
 1002MOL0     H38259  10.282  10.159   8.000  1.2221 -2.1545  1.0017
 1002MOL0     H38260   8.675  10.064   8.278 -0.2160 -2.8290  0.1830
 1002MOL0     H38261   8.437  10.058   8.188  1.8962  0.4758 -0.3898
 1002MOL0     H38262   8.008  10.428   8.190 -0.2040  0.3538  0.2604
 1002MOL0     H38263   7.801  10.442   8.108 -1.6434  0.0068  0.3802
 1002MOL0     H38264   7.581  10.393   8.026  0.6562 -1.5341  1.0821
 1002MOL0     H38265   7.695  10.375   7.896  0.3983 -0.4492  0.3478
 1002MOL0     H38266   7.422  10.347   7.842  1.6219  1.1920 -1.9388
 1002MOL0     H38267   7.472  10.179   7.884 -1.5185  1.1723  1.9129
 1002MOL0     H38268   7.594  10.366   7.678 -0.1943 -0.5836 -0.5979
 1002MOL0     H38269   7.643  10.201   7.697  1.1648  1.7463 -3.7361
 1002MOL0     H38270   7.449  10.109   7.609  1.8875 -0.3029 -0.3715
 1002MOL0     H38271   7.505  10.227   7.495 -1.7281 -1.0946 -0.3569
 1002MOL0     H38272   7.140  10.402   7.651  1.5599  0.4622  2.9232
 1002MOL0     H38273   7.763  10.008   8.130 -0.8415  1.0503 -2.6939
 1002MOL0     H38274   8.041   9.914   8.177 -1.4676 -0.6710 -0.8525
 1002MOL0     H38275   8.013   9.938   8.356  1.1584 -1.1405 -0.4289
 1002MOL0     H38276   7.889   9.871   8.261  0.2698 -1.5507  1.6652
 1003MOL0     O38277   4.430   2.929   0.097  0.0895  0.2777  0.1540
 1003MOL0     C38278   4.392   2.823   0.140  0.6019  0.5819 -0.3264
 1003MOL0     O38279   4.453   2.754   0.245  0.3149  0.3760 -0.5477
 1003MOL0     C38280   4.550   2.819   0.309 -0.1663 -0.2096  0.0383
 1003MOL0     C38281   4.680   2.802   0.261  0.6229 -0.5086  1.4989
 1003MOL0     C38282   4.786   2.875   0.318  0.3055 -0.2363  0.0960
 1003MOL0     C38283   4.764   2.947   0.434 -1.3501  0.6561  0.2649
 1003MOL0     O38284   4.866   3.015   0.499 -0.0406 -0.2529  0.3407
 1003MOL0     C38285   5.000   3.024   0.443 -0.0767 -0.3775 -0.4968
 1003MOL0     C38286   5.086   2.917   0.507 -0.1373  0.4355  1.1102
 1003MOL0     C38287   5.222   2.921   0.435 -0.0407  0.2783  0.2633
 1003MOL0     C38288   5.295   2.792   0.457 -0.0585 -0.8129 -0.2431
 1003MOL0     C38289   5.445   2.797   0.412  0.3649 -0.2557 -0.2898
 1003MOL0     C38290   5.531   2.883   0.506  0.6208  0.0591  0.0308
 1003MOL0     C38291   5.685   2.854   0.503  0.5153  0.2810  0.7855
 1003MOL0     C38292   5.768   2.980   0.551 -0.0215 -0.7758 -0.3542
 1003MOL0     N38293   5.910   2.935   0.536  0.4983  0.3543  0.2715
 1003MOL0     C38294   5.980   2.878   0.640 -0.1178  0.2307  0.0877
 1003MOL0     C38295   6.099   2.847   0.589 -0.1772  0.1665 -0.3614
 1003MOL0     C38296   6.208   2.771   0.647  0.5869 -0.3372 -0.6122
 1003MOL0     C38297   6.327   2.865   0.676 -0.2272 -0.1424 -0.6273
 1003MOL0     C38298   6.411   2.920   0.554  0.1433  0.0704 -0.3373
 1003MOL0     C38299   6.446   2.815   0.447 -0.1771  0.0277  0.8020
 1003MOL0     O38300   6.538   2.873   0.356 -0.8882  0.1036 -0.2018
 1003MOL0     C38301   6.485   2.964   0.268 -0.7135  0.1549  0.2963
 1003MOL0     C38302   6.350   2.990   0.232  0.1966 -0.7327 -0.9112
 1003MOL0     C38303   6.317   3.097   0.144  0.6520 -0.6669  0.6426
 1003MOL0     C38304   6.166   3.119   0.122 -0.3228 -0.5632  0.0653
 1003MOL0     C38305   6.417   3.167   0.070  0.2178  0.2765  0.6190
 1003MOL0     C38306   6.401   3.268  -0.040 -0.1866 -0.0794 -0.4616
 1003MOL0     O38307   6.511   3.336  -0.083  0.1089  0.1218 -0.5316
 1003MOL0     C38308   6.497   3.428  -0.185  0.8593 -0.0468 -1.1390
 1003MOL0     C38309   6.491   3.568  -0.154 -0.6116 -0.0881 -0.7767
 1003MOL0     C38310   6.493   3.661  -0.260  0.9538  0.2229 -0.0456
 1003MOL0     C38311   6.470   3.627  -0.394  0.1878  0.4878 -0.1981
 1003MOL0     O38312   6.451   3.703  -0.499 -0.2588 -0.1860  0.2952
 1003MOL0     C38313   6.450   3.850  -0.496  0.1593  0.4432 -0.2214
 1003MOL0     C38314   6.424   3.908  -0.632  0.3052 -0.4086 -0.2734
 1003MOL0     C38315   6.286   3.890  -0.692 -0.1017 -0.0834  1.0884
 1003MOL0     C38316   6.180   3.973  -0.614  0.1485 -0.1175  0.6388
 1003MOL0     C38317   6.035   3.948  -0.658 -0.0645  0.0266  0.9415
 1003MOL0     C38318   5.927   4.028  -0.588 -0.1753 -0.2152  0.1940
 1003MOL0     C38319   5.787   4.014  -0.649  1.3852 -0.4475 -0.7827
 1003MOL0     C38320   5.706   4.136  -0.613 -1.0781 -0.1065 -0.4611
 1003MOL0    Cl38321   5.722   4.176  -0.437  0.2316  0.1854 -0.0057
 1003MOL0     C38322   6.465   3.489  -0.422 -0.6138  0.0449  0.5255
 1003MOL0     C38323   6.479   3.393  -0.319 -0.1473 -0.5270 -0.2333
 1003MOL0     O38324   6.289   3.283  -0.092 -0.6901  0.6976  0.3504
 1003MOL0     C38325   6.553   3.126   0.092 -0.0416  0.1731 -0.3737
 1003MOL0     C38326   6.584   3.026   0.192  0.5395 -0.1136  0.2812
 1003MOL0     N38327   6.099   2.882   0.455 -0.0149 -0.4905  0.4353
 1003MOL0     N38328   5.985   2.946   0.425 -0.7644 -0.1485  0.1387
 1003MOL0     C38329   4.643   2.938   0.498  0.4776 -0.5300  0.1925
 1003MOL0     C38330   4.530   2.875   0.440 -0.6643 -0.4892  0.3990
 1003MOL0     C38331   4.265   2.765   0.088 -0.3888 -0.7832  0.7844
 1003MOL0     C38332   4.205   2.664   0.158 -0.4280 -0.8563 -0.3983
 1003MOL0     C38333   4.081   2.605   0.116 -0.3857  0.5246 -0.1386
 1003MOL0     C38334   4.027   2.650  -0.005  0.8012  0.7828  0.7703
 1003MOL0     O38335   3.917   2.593  -0.059  0.5986 -0.0079 -0.1870
 1003MOL0     C38336   3.790   2.638   0.001 -0.6354 -0.6469  0.1549
 1003MOL0     C38337   3.755   2.780  -0.047  0.6297 -0.0692  0.4771
 1003MOL0     C38338   3.625   2.834   0.002  0.4573 -0.1902  0.2314
 1003MOL0     C38339   3.557   2.927  -0.099 -0.1759 -0.5835 -0.2999
 1003MOL0     C38340   3.422   2.939  -0.053  0.2320  0.4855  0.9619
 1003MOL0     C38341   3.310   2.963  -0.023 -0.5817  0.2651 -1.0479
 1003MOL0     C38342   4.085   2.752  -0.080 -0.4961 -0.1587 -0.2713
 1003MOL0     C38343   4.203   2.816  -0.037 -0.0687 -0.0520  0.8298
 1003MOL0     C38344   4.252   2.935  -0.119  0.1094 -0.1308  0.4496
 1003MOL0     H38345   4.695   2.733   0.180  3.8366  2.1527 -0.4406
 1003MOL0     H38346   4.884   2.870   0.271  0.6487  0.3350  0.7441
 1003MOL0     H38347   5.033   3.122   0.481 -1.6822  0.2674 -0.6723
 1003MOL0     H38348   4.995   3.021   0.334 -3.3688  2.8228 -0.6464
 1003MOL0     H38349   5.099   2.942   0.613  2.2761  0.4610  0.8532
 1003MOL0     H38350   5.038   2.821   0.487 -1.1405  1.4488 -1.7852
 1003MOL0     H38351   5.200   2.934   0.328  0.1344 -0.1665  0.1713
 1003MOL0     H38352   5.277   3.009   0.469 -1.1436  1.2242 -0.3217
 1003MOL0     H38353   5.275   2.753   0.558  0.3678 -2.3487 -0.7237
 1003MOL0     H38354   5.237   2.720   0.399  0.1161 -2.0835  1.0848
 1003MOL0     H38355   5.455   2.834   0.310  2.1204  1.3135  0.3945
 1003MOL0     H38356   5.484   2.695   0.413 -0.6509 -0.6915 -1.6097
 1003MOL0     H38357   5.530   2.988   0.477  0.2572  1.1180  3.4189
 1003MOL0     H38358   5.498   2.868   0.609 -0.7823  0.1416 -0.3736
 1003MOL0     H38359   5.712   2.823   0.402  1.1328  0.9098  0.7451
 1003MOL0     H38360   5.702   2.762   0.560 -0.9498 -1.2032 -1.0551
 1003MOL0     H38361   5.755   3.059   0.476  0.5048  0.9717  1.3368
 1003MOL0     H38362   5.750   3.012   0.654 -1.3960 -0.1605 -0.7590
 1003MOL0     H38363   5.946   2.861   0.742  0.4119 -1.4329  0.0229
 1003MOL0     H38364   6.229   2.689   0.578  0.6856 -1.2174  0.4311
 1003MOL0     H38365   6.175   2.738   0.746  2.1498  1.2040  0.4882
 1003MOL0     H38366   6.284   2.952   0.727  2.4782 -0.9100  3.4445
 1003MOL0     H38367   6.395   2.809   0.741 -2.0922  1.4381  2.9424
 1003MOL0     H38368   6.356   3.002   0.508 -0.1957  0.8756  1.4011
 1003MOL0     H38369   6.504   2.955   0.601 -0.6719 -0.3845  1.7602
 1003MOL0     H38370   6.491   2.731   0.500  0.3478  0.3291  0.8419
 1003MOL0     H38371   6.355   2.786   0.395 -0.0200  2.4942 -1.0135
 1003MOL0     H38372   6.267   2.937   0.277 -0.7374  2.5431  1.5933
 1003MOL0     H38373   6.113   3.068   0.203 -0.1558  0.9623  1.1618
 1003MOL0     H38374   6.141   3.070   0.027  1.0148 -0.7392 -0.2178
 1003MOL0     H38375   6.148   3.227   0.124 -2.9423 -0.8060 -2.8474
 1003MOL0     H38376   6.498   3.618  -0.058 -0.4560 -1.1663 -0.2016
 1003MOL0     H38377   6.508   3.766  -0.238 -4.0069  1.2780 -0.4796
 1003MOL0     H38378   6.380   3.889  -0.423 -0.6676  0.9785 -1.2841
 1003MOL0     H38379   6.548   3.878  -0.457  0.1528 -0.3082  0.3762
 1003MOL0     H38380   6.445   4.015  -0.639 -2.2618  0.1324 -0.8936
 1003MOL0     H38381   6.493   3.866  -0.705 -0.4973 -3.0435  0.3521
 1003MOL0     H38382   6.249   3.787  -0.690 -0.0599 -0.1057  0.7464
 1003MOL0     H38383   6.285   3.932  -0.793 -2.5656 -2.4734 -0.0033
 1003MOL0     H38384   6.197   4.077  -0.643 -1.6200 -0.1032 -0.5087
 1003MOL0     H38385   6.179   3.947  -0.508 -1.4681 -1.2685  0.3833
 1003MOL0     H38386   6.028   3.965  -0.766  0.6355 -0.5107  0.8063
 1003MOL0     H38387   6.014   3.841  -0.652  4.0511 -1.0973 -1.0882
 1003MOL0     H38388   5.951   4.133  -0.606 -2.8407  0.1885 -1.5645
 1003MOL0     H38389   5.933   4.011  -0.480 -1.7841  1.3833  0.5872
 1003MOL0     H38390   5.732   3.926  -0.615  1.4414 -0.8141 -1.6348
 1003MOL0     H38391   5.796   4.012  -0.758 -0.6188 -0.0625 -0.9953
 1003MOL0     H38392   5.601   4.130  -0.643 -0.6823 -2.1262 -1.6479
 1003MOL0     H38393   5.756   4.218  -0.665  1.9637 -1.5817 -0.1331
 1003MOL0     H38394   6.454   3.454  -0.524  2.1511 -0.0220  0.1773
 1003MOL0     H38395   6.480   3.291  -0.355 -2.1054 -0.8934  0.6485
 1003MOL0     H38396   6.637   3.161   0.033  0.0660 -1.8970 -1.5688
 1003MOL0     H38397   6.688   2.997   0.202  1.2645  2.3959  0.6844
 1003MOL0     H38398   4.633   2.990   0.593  0.8144  1.6747 -0.9277
 1003MOL0     H38399   4.429   2.873   0.480 -0.7954  0.9711  0.2000
 1003MOL0     H38400   4.252   2.613   0.242 -1.4265 -5.3850 -2.2446
 1003MOL0     H38401   4.027   2.536   0.181 -0.0154 -0.6430 -1.0272
 1003MOL0     H38402   3.705   2.573  -0.021  0.0721 -1.6781  0.4186
 1003MOL0     H38403   3.804   2.643   0.109 -1.7090  0.5863  0.2497
 1003MOL0     H38404   3.749   2.776  -0.156  0.4455  0.8488  0.4450
 1003MOL0     H38405   3.837   2.844  -0.014 -1.0045  1.7830  1.1802
 1003MOL0     H38406   3.560   2.747   0.012  1.5663 -0.8146  2.9165
 1003MOL0     H38407   3.639   2.891   0.095  1.9688  2.2715 -1.3931
 1003MOL0     H38408   3.552   2.875  -0.196  0.3131  1.1143 -1.2652
 1003MOL0     H38409   3.609   3.023  -0.105  0.2888 -0.8628 -0.8677
 1003MOL0     H38410   3.207   2.977   0.002  0.2535  1.8773  2.0504
 1003MOL0     H38411   4.032   2.780  -0.170 -1.4321 -0.5362  0.1522
 1003MOL0     H38412   4.360   2.952  -0.119  0.1141  0.2226 -2.1195
 1003MOL0     H38413   4.222   2.929  -0.224 -2.4667  1.1849  1.0178
 1003MOL0     H38414   4.207   3.029  -0.083  1.2339  0.8427 -0.5919
 1004MOL0     O38415   0.604   4.283   6.252  1.2188  0.2540 -1.0272
 1004MOL0     C38416   0.513   4.265   6.335 -0.1967 -0.2469 -0.0964
 1004MOL0     O38417   0.530   4.199   6.453 -0.3072 -0.2730  0.1905
 1004MOL0     C38418   0.652   4.189   6.501  0.0282 -0.3509  0.4528
 1004MOL0     C38419   0.707   4.280   6.589  0.3677 -0.0128 -0.3165
 1004MOL0     C38420   0.840   4.279   6.623 -0.0421 -0.4064  0.0410
 1004MOL0     C38421   0.919   4.170   6.589  1.3931  0.2416  0.9587
 1004MOL0     O38422   1.056   4.166   6.611  0.2779 -0.2527 -0.5104
 1004MOL0     C38423   1.121   4.255   6.705  0.1407  0.9580  0.4493
 1004MOL0     C38424   1.266   4.211   6.698 -1.0208  0.3241 -0.6093
 1004MOL0     C38425   1.357   4.296   6.783 -0.0013 -0.6658 -0.5548
 1004MOL0     C38426   1.502   4.246   6.761  0.5343  0.1328 -0.5443
 1004MOL0     C38427   1.600   4.352   6.820 -0.4388 -0.2596  0.0338
 1004MOL0     C38428   1.570   4.366   6.970 -0.1524  1.1038 -0.0726
 1004MOL0     C38429   1.688   4.427   7.035 -0.1329  0.1780  0.7539
 1004MOL0     C38430   1.714   4.571   6.996  0.3281  0.6400 -0.1541
 1004MOL0     N38431   1.827   4.626   7.081 -0.3873 -0.8766 -0.3978
 1004MOL0     C38432   1.804   4.692   7.204 -0.0435  0.0501 -0.7231
 1004MOL0     C38433   1.926   4.744   7.240 -0.9155  0.0727  0.7080
 1004MOL0     C38434   1.955   4.826   7.364  0.1512  0.5410  0.4296
 1004MOL0     C38435   1.968   4.743   7.492 -0.4541 -0.0792 -0.0748
 1004MOL0     C38436   2.088   4.644   7.493 -0.2409 -0.7256 -0.0508
 1004MOL0     C38437   2.233   4.698   7.520  0.0796  0.2579  0.2140
 1004MOL0     O38438   2.298   4.723   7.397  0.1711  0.5062 -0.4685
 1004MOL0     C38439   2.437   4.731   7.385 -1.0435 -0.1706 -0.8353
 1004MOL0     C38440   2.489   4.755   7.264 -0.4235 -0.0102  0.5750
 1004MOL0     C38441   2.623   4.781   7.233  0.8058 -0.8167 -0.8140
 1004MOL0     C38442   2.663   4.834   7.089 -0.2325  0.5278  0.4072
 1004MOL0     C38443   2.711   4.791   7.343  0.3468  0.9504  0.0343
 1004MOL0     C38444   2.859   4.820   7.343  0.6800  0.3782  1.0380
 1004MOL0     O38445   2.927   4.832   7.468 -0.0700  0.5392  0.2499
 1004MOL0     C38446   3.055   4.874   7.464 -0.6431 -0.8101 -0.7820
 1004MOL0     C38447   3.097   5.012   7.438 -0.1881 -0.0324  0.3725
 1004MOL0     C38448   3.232   5.035   7.400  0.5980  0.0532  0.6097
 1004MOL0     C38449   3.333   4.935   7.409  0.0123  0.2185  0.1361
 1004MOL0     O38450   3.457   4.971   7.357 -0.3252  0.2435 -0.3001
 1004MOL0     C38451   3.577   4.884   7.384  0.1109 -0.5155 -0.5210
 1004MOL0     C38452   3.693   4.983   7.378 -0.1269  0.2244  0.4215
 1004MOL0     C38453   3.825   4.908   7.399  1.0377  0.6884  1.1194
 1004MOL0     C38454   3.957   4.999   7.373 -0.0199 -0.1348 -1.0437
 1004MOL0     C38455   4.079   4.912   7.326  0.0037 -0.5794  0.2053
 1004MOL0     C38456   4.210   4.995   7.338  0.0844 -0.0257 -0.0405
 1004MOL0     C38457   4.209   5.095   7.223 -0.2095  0.0213 -0.1492
 1004MOL0     C38458   4.336   5.166   7.214  0.3805 -0.3780  0.1144
 1004MOL0    Cl38459   4.318   5.313   7.120  0.1529 -0.4301 -0.0164
 1004MOL0     C38460   3.294   4.808   7.458  0.1277  0.5636  0.3610
 1004MOL0     C38461   3.154   4.780   7.482 -0.5653 -0.5715  0.8803
 1004MOL0     O38462   2.915   4.820   7.232 -0.2802  0.0442  0.5434
 1004MOL0     C38463   2.659   4.759   7.470  0.3495  0.1550 -0.2180
 1004MOL0     C38464   2.526   4.730   7.491 -0.4557 -0.5724  0.5495
 1004MOL0     N38465   2.016   4.714   7.137  0.4296 -0.8277 -0.4108
 1004MOL0     N38466   1.954   4.648   7.040  0.0801  0.5485 -0.7255
 1004MOL0     C38467   0.864   4.076   6.505 -0.4556 -0.7718 -0.1891
 1004MOL0     C38468   0.730   4.082   6.463 -0.3625  0.1903  0.0308
 1004MOL0     C38469   0.376   4.301   6.309  0.4444  0.0660  0.2499
 1004MOL0     C38470   0.274   4.272   6.409 -0.0928 -0.6411  0.1590
 1004MOL0     C38471   0.141   4.311   6.390  0.0159 -0.5606 -0.0658
 1004MOL0     C38472   0.101   4.376   6.279  0.0897  0.7235 -1.1181
 1004MOL0     O38473  -0.030   4.411   6.278 -0.0719 -0.2504 -0.2086
 1004MOL0     C38474  -0.071   4.507   6.168  0.4901  0.4179  0.4734
 1004MOL0     C38475  -0.222   4.518   6.184 -0.3806 -0.3588  0.1215
 1004MOL0     C38476  -0.286   4.393   6.229 -0.0610 -0.2152 -0.3606
 1004MOL0     C38477  -0.431   4.375   6.168  0.4067 -0.2891 -0.1938
 1004MOL0     C38478  -0.441   4.338   6.034 -0.1797  0.1446 -0.6149
 1004MOL0     C38479  -0.446   4.311   5.916  0.4326 -0.5297  0.6856
 1004MOL0     C38480   0.197   4.409   6.183  0.2257  0.5549  0.0572
 1004MOL0     C38481   0.328   4.371   6.188  0.1277 -0.0010 -0.3139
 1004MOL0     C38482   0.426   4.404   6.074  0.1415 -0.1472 -0.1686
 1004MOL0     H38483   0.643   4.362   6.619  2.2928  1.9435 -1.3313
 1004MOL0     H38484   0.884   4.364   6.672  0.4144 -1.1068  0.8806
 1004MOL0     H38485   1.074   4.234   6.801 -1.0753 -0.0265 -0.3361
 1004MOL0     H38486   1.111   4.355   6.664 -0.0460  0.5687 -0.4864
 1004MOL0     H38487   1.265   4.110   6.742 -3.0749  1.3886  2.0657
 1004MOL0     H38488   1.300   4.217   6.594  2.5122  2.4338  0.4866
 1004MOL0     H38489   1.339   4.402   6.764  0.7126  0.2479  3.0342
 1004MOL0     H38490   1.339   4.293   6.891  0.7923  2.1855 -0.2480
 1004MOL0     H38491   1.502   4.153   6.819 -1.7985  0.7659  0.5882
 1004MOL0     H38492   1.527   4.235   6.655 -0.2321 -1.0232 -0.6217
 1004MOL0     H38493   1.593   4.455   6.784 -0.8552  0.9336  3.2118
 1004MOL0     H38494   1.701   4.309   6.816 -0.3181  0.0676 -0.6230
 1004MOL0     H38495   1.480   4.427   6.980 -0.1744  1.1729 -0.7085
 1004MOL0     H38496   1.558   4.265   7.011  2.1084  1.1476  0.8404
 1004MOL0     H38497   1.769   4.353   7.031  0.7873  1.0971  1.5717
 1004MOL0     H38498   1.672   4.432   7.143 -0.0759  2.6880  0.7115
 1004MOL0     H38499   1.731   4.581   6.888 -0.5257 -1.1163 -0.4832
 1004MOL0     H38500   1.624   4.631   7.008  0.4279  1.7004 -3.6510
 1004MOL0     H38501   1.711   4.708   7.256 -0.8155 -1.6664 -1.5196
 1004MOL0     H38502   1.870   4.894   7.371 -1.1335 -1.0567  0.6452
 1004MOL0     H38503   2.046   4.886   7.349  0.0052  0.5943 -0.2501
 1004MOL0     H38504   1.972   4.808   7.580  2.2016 -0.6978  0.3505
 1004MOL0     H38505   1.882   4.675   7.496 -0.5475  0.0893  1.2386
 1004MOL0     H38506   2.072   4.576   7.577 -1.2775  0.7779  1.0192
 1004MOL0     H38507   2.089   4.589   7.399  0.2284  0.1103 -0.5528
 1004MOL0     H38508   2.239   4.786   7.584  0.5477 -0.2037  0.8164
 1004MOL0     H38509   2.297   4.628   7.576  2.6413  2.0084 -0.3336
 1004MOL0     H38510   2.425   4.774   7.179 -1.0049  0.0626  1.0226
 1004MOL0     H38511   2.699   4.937   7.085  1.8694 -0.1976 -1.0913
 1004MOL0     H38512   2.586   4.824   7.012 -0.1542  0.2654  0.3623
 1004MOL0     H38513   2.738   4.767   7.047 -0.9424  0.8389 -1.4365
 1004MOL0     H38514   3.029   5.097   7.439 -0.4473 -0.2367  0.3094
 1004MOL0     H38515   3.257   5.137   7.373 -1.6841  0.3266 -0.7243
 1004MOL0     H38516   3.562   4.856   7.489 -0.2063 -0.0038 -0.4240
 1004MOL0     H38517   3.590   4.803   7.312 -1.2764 -0.8419 -0.4258
 1004MOL0     H38518   3.691   5.021   7.275 -3.6106 -2.2406 -0.6420
 1004MOL0     H38519   3.693   5.072   7.441 -0.4982  1.4333 -1.2079
 1004MOL0     H38520   3.828   4.831   7.321  1.8116  1.6503  0.1578
 1004MOL0     H38521   3.824   4.856   7.495 -1.1779 -4.0045 -1.1267
 1004MOL0     H38522   3.994   5.040   7.467  0.5001  0.3425 -1.4493
 1004MOL0     H38523   3.931   5.088   7.316 -1.4522 -1.9011 -3.3367
 1004MOL0     H38524   4.091   4.825   7.391 -1.0672 -0.2551  0.8618
 1004MOL0     H38525   4.064   4.884   7.221 -2.0684 -1.4704  0.6928
 1004MOL0     H38526   4.290   4.920   7.340  1.2974  1.1871 -1.0840
 1004MOL0     H38527   4.199   5.058   7.427 -0.0229 -0.9310  0.6002
 1004MOL0     H38528   4.130   5.168   7.243 -3.2708 -2.6156 -1.7152
 1004MOL0     H38529   4.184   5.067   7.120  2.1586  0.6221 -0.9654
 1004MOL0     H38530   4.408   5.098   7.166 -0.7439 -1.3026 -0.3015
 1004MOL0     H38531   4.376   5.193   7.312  1.7335 -3.0496  0.3754
 1004MOL0     H38532   3.363   4.726   7.472  1.5072  1.2435 -1.9778
 1004MOL0     H38533   3.114   4.683   7.510  0.9349 -1.6037 -0.3467
 1004MOL0     H38534   2.718   4.767   7.561  1.5221  0.7384 -1.0047
 1004MOL0     H38535   2.482   4.733   7.589 -1.5706  0.8870  0.0352
 1004MOL0     H38536   0.923   3.988   6.479  2.2280 -0.1098  2.9220
 1004MOL0     H38537   0.690   4.004   6.400 -1.4677  0.1415  0.7711
 1004MOL0     H38538   0.298   4.229   6.506  0.0806 -0.3862  0.2305
 1004MOL0     H38539   0.082   4.295   6.480  2.7155 -3.2451  1.4079
 1004MOL0     H38540  -0.022   4.604   6.179  0.9620  0.0994  1.1995
 1004MOL0     H38541  -0.060   4.461   6.069 -2.8259 -1.3989  0.7855
 1004MOL0     H38542  -0.265   4.549   6.088  0.3221 -3.5586 -1.3675
 1004MOL0     H38543  -0.252   4.595   6.255 -1.6335 -0.5633 -0.1570
 1004MOL0     H38544  -0.232   4.298   6.218 -1.1260 -0.9258  0.3959
 1004MOL0     H38545  -0.306   4.411   6.335 -3.6835  2.1355 -1.2741
 1004MOL0     H38546  -0.480   4.471   6.185  0.4234 -0.1440 -0.9055
 1004MOL0     H38547  -0.485   4.304   6.231 -0.9707  0.7662 -0.1450
 1004MOL0     H38548  -0.433   4.283   5.813  1.9907 -3.5758  1.5689
 1004MOL0     H38549   0.167   4.457   6.090 -0.0442  0.3751  0.0512
 1004MOL0     H38550   0.495   4.485   6.097  1.8953 -0.9615 -2.2195
 1004MOL0     H38551   0.484   4.313   6.057 -1.1288 -1.1348  0.6453
 1004MOL0     H38552   0.360   4.430   5.991  0.8522  2.2058 -0.0785
 1005MOL0     O38553   4.666   6.484   8.296 -0.6277  0.6395  0.9280
 1005MOL0     C38554   4.695   6.602   8.309  0.5331 -0.6557  0.0227
 1005MOL0     O38555   4.825   6.653   8.300 -0.0150  0.4516 -0.0082
 1005MOL0     C38556   4.926   6.562   8.270  0.7305 -0.4624  0.3240
 1005MOL0     C38557   5.016   6.518   8.367  1.1665  0.8310 -0.5812
 1005MOL0     C38558   5.094   6.411   8.339 -1.2551  0.0532 -0.2246
 1005MOL0     C38559   5.095   6.349   8.217 -0.3847  0.0356  0.6698
 1005MOL0     O38560   5.185   6.242   8.203 -0.2145  0.2900  0.0463
 1005MOL0     C38561   5.168   6.160   8.084 -0.0871 -0.0608  0.7013
 1005MOL0     C38562   5.247   6.024   8.095  0.2222  0.5158  0.4116
 1005MOL0     C38563   5.401   6.040   8.071  0.6730  0.5517 -0.7403
 1005MOL0     C38564   5.433   6.074   7.923 -0.6159  0.0651  0.3102
 1005MOL0     C38565   5.388   5.968   7.825  0.5980  0.5525 -0.4124
 1005MOL0     C38566   5.448   5.996   7.690 -0.4923 -0.0647 -0.5975
 1005MOL0     C38567   5.404   5.878   7.599 -0.6486 -0.4769 -0.5802
 1005MOL0     C38568   5.414   5.916   7.447  0.3427 -0.6204  0.3141
 1005MOL0     N38569   5.550   5.945   7.400  0.5763  0.1364 -0.5805
 1005MOL0     C38570   5.617   6.064   7.424 -0.0261 -0.4282 -0.7153
 1005MOL0     C38571   5.740   6.039   7.367  0.0061 -0.2193 -0.4463
 1005MOL0     C38572   5.858   6.126   7.356 -0.5839 -0.6868  0.0585
 1005MOL0     C38573   5.967   6.095   7.473  0.9972  0.2678  0.5508
 1005MOL0     C38574   6.078   6.196   7.487  0.4845  0.1630  1.0383
 1005MOL0     C38575   6.124   6.273   7.357  0.9734  0.8471  0.4199
 1005MOL0     O38576   6.259   6.305   7.357  0.2073 -0.2802 -0.4256
 1005MOL0     C38577   6.341   6.267   7.251 -0.6973 -0.2001 -0.2138
 1005MOL0     C38578   6.296   6.308   7.127  0.2126  0.4290  0.4333
 1005MOL0     C38579   6.370   6.265   7.010  0.4253  0.7296  0.0742
 1005MOL0     C38580   6.306   6.278   6.876  0.8798  0.3664 -0.0974
 1005MOL0     C38581   6.493   6.202   7.024  0.2053 -0.0811  1.1165
 1005MOL0     C38582   6.581   6.169   6.912  0.0695 -0.9011  0.7480
 1005MOL0     O38583   6.713   6.179   6.954  0.2939  0.8486  0.2731
 1005MOL0     C38584   6.826   6.157   6.874  0.0285  0.5656 -0.5650
 1005MOL0     C38585   6.824   6.140   6.737 -0.5083  0.5745 -0.0311
 1005MOL0     C38586   6.944   6.122   6.662 -0.6034  0.0590 -0.0659
 1005MOL0     C38587   7.065   6.103   6.733  0.1603 -0.0578 -0.2239
 1005MOL0     O38588   7.191   6.094   6.677  0.1529 -0.1549 -0.1101
 1005MOL0     C38589   7.210   6.146   6.546 -0.1470 -0.9862  0.1422
 1005MOL0     C38590   7.352   6.136   6.504  0.2620 -0.7263 -0.2360
 1005MOL0     C38591   7.454   6.218   6.583  0.4599  0.4062  0.7015
 1005MOL0     C38592   7.591   6.213   6.517  0.0764  0.5002 -0.3179
 1005MOL0     C38593   7.683   6.303   6.611 -0.3066  0.6692 -0.7390
 1005MOL0     C38594   7.804   6.347   6.536 -0.3340 -0.3029  0.6825
 1005MOL0     C38595   7.928   6.389   6.616  0.6966 -0.8575 -0.1700
 1005MOL0     C38596   7.906   6.500   6.714  0.0552 -0.4740  0.1102
 1005MOL0    Cl38597   8.058   6.540   6.780  0.3041  0.0628 -0.1202
 1005MOL0     C38598   7.066   6.113   6.875  0.6373  0.8223  0.4360
 1005MOL0     C38599   6.947   6.138   6.940  1.3171 -0.1398 -0.8666
 1005MOL0     O38600   6.538   6.133   6.803 -1.2765 -0.1210  0.0633
 1005MOL0     C38601   6.542   6.182   7.159 -0.1867 -0.2738 -0.1555
 1005MOL0     C38602   6.473   6.224   7.268 -0.2052 -0.1808  0.2070
 1005MOL0     N38603   5.753   5.899   7.350  0.3539 -0.5212  0.9418
 1005MOL0     N38604   5.635   5.844   7.359 -0.0727 -0.5694  0.4943
 1005MOL0     C38605   5.014   6.397   8.112 -0.1900  0.4274 -0.2260
 1005MOL0     C38606   4.931   6.510   8.141  0.8301 -0.1232  0.3076
 1005MOL0     C38607   4.581   6.697   8.348 -0.6373  0.3181  0.1512
 1005MOL0     C38608   4.614   6.831   8.386  0.2833 -0.6931  0.1180
 1005MOL0     C38609   4.521   6.935   8.412  0.3451  0.8428 -0.4894
 1005MOL0     C38610   4.389   6.906   8.398 -0.0757  0.0132  1.0588
 1005MOL0     O38611   4.296   7.018   8.394  0.4110  0.0249 -0.1086
 1005MOL0     C38612   4.165   6.992   8.424  0.4613  0.6460  0.1004
 1005MOL0     C38613   4.149   6.924   8.560 -0.7356  0.7955  0.5504
 1005MOL0     C38614   4.000   6.919   8.617 -0.0587  0.4045 -0.1086
 1005MOL0     C38615   3.907   6.850   8.513 -0.3992  0.1043  1.3049
 1005MOL0     C38616   3.769   6.828   8.562 -0.6759  0.2272  0.4248
 1005MOL0     C38617   3.648   6.838   8.592 -0.6945  1.1797  0.0647
 1005MOL0     C38618   4.355   6.772   8.356 -1.7499 -0.1784  0.3657
 1005MOL0     C38619   4.451   6.665   8.342  0.3856 -0.4458  0.8303
 1005MOL0     C38620   4.401   6.529   8.324  0.5645  0.6915  0.3341
 1005MOL0     H38621   4.996   6.533   8.473 -0.4709 -3.1006 -0.1552
 1005MOL0     H38622   5.144   6.372   8.427 -2.3492  2.0792  1.4018
 1005MOL0     H38623   5.200   6.212   7.993 -1.6768 -0.6462 -0.2339
 1005MOL0     H38624   5.062   6.133   8.083  0.4182 -3.0931  4.6217
 1005MOL0     H38625   5.222   5.981   8.192 -1.5041  1.0379  0.2248
 1005MOL0     H38626   5.204   5.961   8.017 -1.5591  0.4323  1.3990
 1005MOL0     H38627   5.444   6.120   8.131  2.6786  0.2672 -1.7227
 1005MOL0     H38628   5.460   5.955   8.107  1.8732  1.7607  0.2558
 1005MOL0     H38629   5.399   6.175   7.900  1.7385  1.2650  1.8022
 1005MOL0     H38630   5.542   6.082   7.919 -0.4674 -1.4186  0.7516
 1005MOL0     H38631   5.279   5.975   7.830  0.5584  0.0261 -0.4677
 1005MOL0     H38632   5.423   5.872   7.863  0.9725  0.7787 -0.1830
 1005MOL0     H38633   5.419   6.094   7.651 -2.9372 -0.9537 -1.2153
 1005MOL0     H38634   5.554   5.981   7.714 -0.3937  0.4362 -0.7184
 1005MOL0     H38635   5.304   5.836   7.609  0.6539 -3.5700  0.8772
 1005MOL0     H38636   5.481   5.802   7.614 -0.4442  0.1797  2.0824
 1005MOL0     H38637   5.381   5.827   7.393  1.1679  0.1661 -1.5878
 1005MOL0     H38638   5.349   5.999   7.419  1.6404  0.2096 -0.3448
 1005MOL0     H38639   5.581   6.160   7.461  1.7336  1.0158 -2.5731
 1005MOL0     H38640   5.852   6.235   7.355  1.1823 -0.4721 -3.5727
 1005MOL0     H38641   5.910   6.108   7.262  1.2106 -2.0142  1.2501
 1005MOL0     H38642   5.907   6.097   7.564 -2.1811  0.4438 -1.4079
 1005MOL0     H38643   6.007   5.995   7.456 -0.2559 -0.1449 -0.0975
 1005MOL0     H38644   6.043   6.268   7.562 -1.3777 -0.2481  0.6248
 1005MOL0     H38645   6.163   6.142   7.531 -0.8099 -1.9570  1.1213
 1005MOL0     H38646   6.110   6.199   7.278  0.6035  0.0141  1.2500
 1005MOL0     H38647   6.071   6.367   7.336  0.1461  0.0669 -1.1707
 1005MOL0     H38648   6.201   6.360   7.117  0.6041  1.1951  0.5924
 1005MOL0     H38649   6.294   6.182   6.826  0.0277 -0.2475  1.2100
 1005MOL0     H38650   6.343   6.364   6.819 -3.7696  2.0191 -1.0672
 1005MOL0     H38651   6.206   6.320   6.892 -0.5156 -1.6575 -2.7848
 1005MOL0     H38652   6.731   6.151   6.683 -1.3189 -0.1638  1.1624
 1005MOL0     H38653   6.952   6.120   6.554  0.0256  0.6581 -0.0338
 1005MOL0     H38654   7.151   6.098   6.468  0.4039 -0.7207 -0.4445
 1005MOL0     H38655   7.184   6.252   6.544 -1.3984 -1.2917 -0.3044
 1005MOL0     H38656   7.369   6.029   6.493 -3.1186 -1.2294 -2.0958
 1005MOL0     H38657   7.367   6.172   6.401  2.0388 -2.0399 -0.4705
 1005MOL0     H38658   7.450   6.174   6.684 -0.8295 -0.9316  0.1189
 1005MOL0     H38659   7.416   6.320   6.585 -0.4563  0.0955 -0.0366
 1005MOL0     H38660   7.593   6.260   6.418 -0.1243  0.1833 -0.4767
 1005MOL0     H38661   7.635   6.113   6.504  0.0565  0.8651 -4.8146
 1005MOL0     H38662   7.623   6.380   6.662  0.6588  0.0961  1.3707
 1005MOL0     H38663   7.722   6.241   6.693  0.5856  1.6348 -0.4206
 1005MOL0     H38664   7.770   6.435   6.480  0.5311  0.7387  1.7122
 1005MOL0     H38665   7.834   6.268   6.467 -1.6639 -0.4187  0.2197
 1005MOL0     H38666   7.987   6.433   6.534 -2.3079  1.4818 -1.2748
 1005MOL0     H38667   7.966   6.300   6.667  0.2680  0.1269  1.9778
 1005MOL0     H38668   7.840   6.461   6.793 -1.0321  2.2612  0.6741
 1005MOL0     H38669   7.863   6.591   6.672 -0.1349 -0.4585  0.3378
 1005MOL0     H38670   7.157   6.105   6.934 -0.1687 -1.6058  1.4309
 1005MOL0     H38671   6.941   6.139   7.048 -4.9128  2.4386 -0.8062
 1005MOL0     H38672   6.641   6.139   7.170 -0.1517  0.1577  1.4126
 1005MOL0     H38673   6.517   6.215   7.367  1.5026  1.0290 -0.3877
 1005MOL0     H38674   5.019   6.350   8.015 -0.5105 -1.0818  0.4538
 1005MOL0     H38675   4.877   6.539   8.052  0.2540 -0.9226  0.3882
 1005MOL0     H38676   4.716   6.867   8.383 -0.1391  0.8755  2.2403
 1005MOL0     H38677   4.549   7.038   8.434  1.7175  0.3471  0.2153
 1005MOL0     H38678   4.093   7.075   8.417 -0.8164 -0.4508 -0.2808
 1005MOL0     H38679   4.130   6.938   8.336  1.3511  3.1582 -1.9180
 1005MOL0     H38680   4.218   6.971   8.631  0.9483  1.1757 -1.2648
 1005MOL0     H38681   4.184   6.821   8.552 -0.1983  0.9265  1.1827
 1005MOL0     H38682   3.997   6.864   8.712  1.4235 -0.4869 -0.5489
 1005MOL0     H38683   3.968   7.023   8.629 -2.8806 -0.0183 -2.8452
 1005MOL0     H38684   3.945   6.749   8.493 -0.8407  0.4700 -1.8471
 1005MOL0     H38685   3.907   6.904   8.417  0.6508 -2.6575 -0.3692
 1005MOL0     H38686   3.544   6.841   8.619 -1.8965  3.0906 -4.0771
 1005MOL0     H38687   4.254   6.747   8.325 -1.0180 -3.8388  0.5254
 1005MOL0     H38688   4.431   6.454   8.398 -0.0434 -0.3598 -0.4462
 1005MOL0     H38689   4.292   6.526   8.315  0.7783 -0.8244 -3.6443
 1005MOL0     H38690   4.445   6.499   8.229 -2.0809  1.3430 -1.1923
 1006MOL0     O38691   1.298   1.799   0.670 -0.0090  0.3063  0.1138
 1006MOL0     C38692   1.272   1.909   0.712  0.0397  0.1364  0.0045
 1006MOL0     O38693   1.353   2.011   0.724 -0.8600  0.1823  0.3317
 1006MOL0     C38694   1.469   2.003   0.650  0.1798 -0.1870 -0.1689
 1006MOL0     C38695   1.593   1.997   0.714  0.1823 -0.6449 -0.1577
 1006MOL0     C38696   1.715   2.000   0.636  0.2438 -1.0948 -0.0264
 1006MOL0     C38697   1.706   2.003   0.497 -0.3696  0.2766  0.1500
 1006MOL0     O38698   1.821   1.972   0.413  0.1340  0.0231  0.5741
 1006MOL0     C38699   1.945   1.928   0.476  0.2725  0.2737 -0.2245
 1006MOL0     C38700   2.034   2.055   0.496 -0.1019 -0.7063  0.8251
 1006MOL0     C38701   2.172   2.023   0.547 -0.3215  0.3071  0.5301
 1006MOL0     C38702   2.262   2.143   0.550 -0.9285 -0.0335  0.2852
 1006MOL0     C38703   2.406   2.126   0.615  0.0950 -0.4228  0.2202
 1006MOL0     C38704   2.474   2.258   0.608 -0.1158 -0.5383  0.0506
 1006MOL0     C38705   2.625   2.270   0.655  0.1290  0.3243  0.2059
 1006MOL0     C38706   2.640   2.256   0.801 -0.4721 -0.1282 -0.0038
 1006MOL0     N38707   2.776   2.282   0.837  0.0973 -0.6489 -1.1110
 1006MOL0     C38708   2.828   2.408   0.846 -0.2167  0.3822  0.2235
 1006MOL0     C38709   2.956   2.378   0.884 -0.6758 -0.0376  0.2725
 1006MOL0     C38710   3.068   2.475   0.886  0.3126 -0.2234 -0.9051
 1006MOL0     C38711   3.141   2.475   1.027 -0.3022  0.4728 -0.0376
 1006MOL0     C38712   3.240   2.592   1.028 -0.2027  0.8130 -0.5458
 1006MOL0     C38713   3.329   2.585   1.146 -0.2220 -0.1047 -0.3906
 1006MOL0     O38714   3.424   2.697   1.140  0.4217 -0.0633  1.2269
 1006MOL0     C38715   3.387   2.818   1.194  0.3558  0.2513  0.1922
 1006MOL0     C38716   3.499   2.892   1.239 -0.1620  0.2946  0.1919
 1006MOL0     C38717   3.478   3.018   1.297 -0.2336 -0.0560 -0.8222
 1006MOL0     C38718   3.597   3.097   1.342 -0.5755 -0.5038  0.1839
 1006MOL0     C38719   3.350   3.074   1.307  0.5970  0.0919  0.7494
 1006MOL0     C38720   3.313   3.216   1.349 -0.6137  0.2564  1.3530
 1006MOL0     O38721   3.388   3.279   1.444  0.4577 -0.4938  0.0450
 1006MOL0     C38722   3.363   3.411   1.474 -0.4143  0.4063  0.4827
 1006MOL0     C38723   3.370   3.452   1.612  0.4734 -0.3370  0.0788
 1006MOL0     C38724   3.342   3.586   1.649  0.2819 -0.0645  0.6564
 1006MOL0     C38725   3.322   3.687   1.543  0.0543  0.4434 -0.3470
 1006MOL0     O38726   3.291   3.820   1.552 -0.3100  0.8006 -0.4002
 1006MOL0     C38727   3.246   3.859   1.685 -0.4240 -0.7056  0.0989
 1006MOL0     C38728   3.187   4.003   1.678  0.4620 -0.5937 -0.2166
 1006MOL0     C38729   3.229   4.095   1.801 -0.0489  0.7655 -0.2483
 1006MOL0     C38730   3.166   4.042   1.928  0.5343  0.3150 -1.0439
 1006MOL0     C38731   3.215   4.094   2.062  0.4410 -0.8464  0.6947
 1006MOL0     C38732   3.351   4.059   2.111 -0.1059 -0.0350  0.5932
 1006MOL0     C38733   3.347   3.910   2.142  0.8701  0.4111  0.3087
 1006MOL0     C38734   3.492   3.870   2.187 -0.9230  0.2112  0.2896
 1006MOL0    Cl38735   3.488   3.692   2.198  0.3410  0.3221  0.1029
 1006MOL0     C38736   3.331   3.647   1.413  0.8912  0.5862 -0.2311
 1006MOL0     C38737   3.348   3.512   1.378  0.1298  0.4801  0.5383
 1006MOL0     O38738   3.217   3.261   1.283 -0.2411 -0.0247  0.6234
 1006MOL0     C38739   3.245   2.995   1.265 -0.5472  0.2544 -0.2004
 1006MOL0     C38740   3.265   2.866   1.210  0.3943 -1.6787  0.2508
 1006MOL0     N38741   2.970   2.247   0.908 -0.4165  0.8517  0.5270
 1006MOL0     N38742   2.864   2.191   0.876 -0.1281  0.3618  0.1303
 1006MOL0     C38743   1.578   2.009   0.438 -0.2146 -1.3437 -0.2466
 1006MOL0     C38744   1.459   2.013   0.514 -0.8750 -0.8010 -0.0041
 1006MOL0     C38745   1.132   1.931   0.762  0.3931 -0.5634 -0.0596
 1006MOL0     C38746   1.115   2.031   0.857 -0.4253  0.2093 -0.0072
 1006MOL0     C38747   0.987   2.059   0.905 -0.3545 -0.1615  0.1729
 1006MOL0     C38748   0.880   2.003   0.852 -0.2967  0.2979 -0.5596
 1006MOL0     O38749   0.761   2.055   0.908 -0.4090  0.7671 -0.8265
 1006MOL0     C38750   0.650   1.971   0.901  0.1511  0.1693  1.3091
 1006MOL0     C38751   0.678   1.856   0.995  0.9609  0.0049 -0.6496
 1006MOL0     C38752   0.568   1.750   0.995  0.4288 -0.6739 -0.4908
 1006MOL0     C38753   0.424   1.797   1.000 -0.6862 -0.0178 -0.5573
 1006MOL0     C38754   0.386   1.849   1.123 -0.0561  0.0627  0.3193
 1006MOL0     C38755   0.348   1.911   1.226 -0.1413 -0.4917  0.4415
 1006MOL0     C38756   0.893   1.897   0.764 -0.2610 -1.0285  0.5953
 1006MOL0     C38757   1.018   1.863   0.714  0.2590  0.1562  0.3977
 1006MOL0     C38758   1.027   1.759   0.597  0.2475  0.2271  0.5071
 1006MOL0     H38759   1.605   1.994   0.822  0.2766 -0.5785 -0.1663
 1006MOL0     H38760   1.814   2.010   0.680  0.8969  1.9492 -1.8785
 1006MOL0     H38761   2.008   1.859   0.419  1.6986  0.5509  0.9573
 1006MOL0     H38762   1.930   1.879   0.572 -0.2027  0.9784  0.0703
 1006MOL0     H38763   2.033   2.091   0.393  0.8561 -3.5419 -0.2963
 1006MOL0     H38764   1.984   2.131   0.557  0.5801  1.2081 -0.8969
 1006MOL0     H38765   2.170   1.968   0.642  0.0356 -1.5868 -0.4941
 1006MOL0     H38766   2.218   1.949   0.480 -1.8255 -2.2159  2.0865
 1006MOL0     H38767   2.263   2.167   0.444 -3.5250 -1.0080 -0.0203
 1006MOL0     H38768   2.210   2.227   0.597  0.1956  0.2416  1.0832
 1006MOL0     H38769   2.459   2.051   0.556  1.2305  2.9438 -3.5090
 1006MOL0     H38770   2.391   2.095   0.718 -1.1545 -2.1405 -0.4302
 1006MOL0     H38771   2.476   2.284   0.502  4.2819 -0.9691 -0.1779
 1006MOL0     H38772   2.412   2.334   0.656 -1.5072 -1.7403  0.2303
 1006MOL0     H38773   2.673   2.361   0.617  2.0797 -0.8114 -0.1699
 1006MOL0     H38774   2.687   2.196   0.604  0.6700  1.8631 -1.4742
 1006MOL0     H38775   2.569   2.330   0.838  1.5551  3.8168 -3.2694
 1006MOL0     H38776   2.608   2.154   0.827 -3.0389  0.8859  1.1137
 1006MOL0     H38777   2.789   2.506   0.821 -0.2525  0.1565 -0.6213
 1006MOL0     H38778   3.025   2.574   0.873  1.8293  0.6115  0.0732
 1006MOL0     H38779   3.132   2.449   0.801  0.7014 -1.4338 -0.2733
 1006MOL0     H38780   3.067   2.498   1.104  0.9283  1.3495  0.9302
 1006MOL0     H38781   3.179   2.375   1.051 -0.8364  0.8593  2.7693
 1006MOL0     H38782   3.296   2.588   0.934  0.2142 -2.2367 -0.2451
 1006MOL0     H38783   3.193   2.691   1.031 -0.7218  0.5485  0.5478
 1006MOL0     H38784   3.268   2.588   1.237 -1.0728 -2.1690 -0.8309
 1006MOL0     H38785   3.376   2.487   1.136  0.2015  0.2236 -1.7736
 1006MOL0     H38786   3.601   2.857   1.224 -0.3023  0.6698 -1.9225
 1006MOL0     H38787   3.590   3.196   1.296  0.3100 -0.5558 -0.0854
 1006MOL0     H38788   3.695   3.050   1.329  0.3027  0.8502  1.4469
 1006MOL0     H38789   3.606   3.113   1.450  2.6969 -1.5414  0.1632
 1006MOL0     H38790   3.389   3.376   1.687 -1.7288 -3.2727 -2.0747
 1006MOL0     H38791   3.327   3.619   1.751  1.1505 -1.2582  1.2013
 1006MOL0     H38792   3.163   3.799   1.722 -1.5035  0.6651  0.0184
 1006MOL0     H38793   3.330   3.865   1.754  0.5308 -1.2707 -0.9765
 1006MOL0     H38794   3.222   4.065   1.595  3.2260  1.2606  2.1062
 1006MOL0     H38795   3.080   3.994   1.660  0.1732  1.1069  0.3898
 1006MOL0     H38796   3.204   4.201   1.790  1.0419  1.0961  0.3191
 1006MOL0     H38797   3.338   4.085   1.799 -0.1329 -0.5404  0.5156
 1006MOL0     H38798   3.170   3.933   1.943  0.4440  0.1662 -2.0318
 1006MOL0     H38799   3.064   4.080   1.917 -0.6725 -2.2709  0.2226
 1006MOL0     H38800   3.213   4.202   2.045 -1.3630 -1.2668 -2.5208
 1006MOL0     H38801   3.140   4.068   2.137  1.9966  2.3816  3.6534
 1006MOL0     H38802   3.379   4.121   2.196  0.7078 -1.5029  1.4335
 1006MOL0     H38803   3.421   4.076   2.029 -0.7598  2.5338  0.4910
 1006MOL0     H38804   3.332   3.854   2.049  2.0708  0.8957 -0.1948
 1006MOL0     H38805   3.267   3.880   2.210 -0.3238  1.6913 -0.4934
 1006MOL0     H38806   3.498   3.907   2.290  1.1386 -0.2629  0.3722
 1006MOL0     H38807   3.570   3.905   2.119  0.3481 -2.6938  0.1249
 1006MOL0     H38808   3.289   3.716   1.340 -0.1686 -1.2341 -1.4135
 1006MOL0     H38809   3.340   3.475   1.277  0.1135 -0.4303  0.8592
 1006MOL0     H38810   3.142   3.027   1.281 -1.5704 -3.0295  0.6365
 1006MOL0     H38811   3.172   2.815   1.186 -1.1782  0.9911  0.2489
 1006MOL0     H38812   1.572   2.009   0.329 -3.3953 -0.7972 -0.1669
 1006MOL0     H38813   1.363   2.016   0.462 -0.1934 -0.2507 -1.2778
 1006MOL0     H38814   1.197   2.082   0.906  0.8872  0.0560 -1.9199
 1006MOL0     H38815   0.976   2.133   0.984  1.3281  2.3156 -1.7513
 1006MOL0     H38816   0.562   2.025   0.938  0.1991  0.3439  1.1717
 1006MOL0     H38817   0.633   1.953   0.794  1.7252 -0.0718  1.0785
 1006MOL0     H38818   0.687   1.887   1.099 -1.6151 -0.6390 -0.1687
 1006MOL0     H38819   0.770   1.806   0.962  1.3851  1.4959 -1.8565
 1006MOL0     H38820   0.578   1.692   0.903  1.0496 -0.0735 -0.8099
 1006MOL0     H38821   0.586   1.684   1.080  3.1501  0.1573 -0.3372
 1006MOL0     H38822   0.353   1.717   0.973 -1.4387  0.3278  0.3436
 1006MOL0     H38823   0.408   1.875   0.925  0.0949  1.1612  0.4778
 1006MOL0     H38824   0.311   1.968   1.308  0.3803  3.1304 -1.6187
 1006MOL0     H38825   0.796   1.866   0.725  0.0803 -0.9476 -0.3271
 1006MOL0     H38826   1.062   1.806   0.504  0.4972 -0.2493  0.3618
 1006MOL0     H38827   1.094   1.675   0.613 -1.5166 -1.1762  0.8085
 1006MOL0     H38828   0.931   1.711   0.576 -0.0179  1.1501 -0.5401
 1007MOL0     O38829   6.373   8.071   5.447 -0.0618  0.1464  0.4674
 1007MOL0     C38830   6.277   8.016   5.496 -0.2453 -0.6896 -0.5064
 1007MOL0     O38831   6.270   7.900   5.561  0.0885  0.2168 -0.0579
 1007MOL0     C38832   6.386   7.831   5.558  0.0973  0.0394  0.4063
 1007MOL0     C38833   6.471   7.818   5.676  0.6453  0.0023 -0.2828
 1007MOL0     C38834   6.583   7.744   5.663 -0.3039  0.2340 -0.2389
 1007MOL0     C38835   6.627   7.689   5.544  0.7154 -0.0168 -0.2770
 1007MOL0     O38836   6.749   7.636   5.524  0.0911  0.6966 -0.0682
 1007MOL0     C38837   6.814   7.566   5.627  0.2120 -0.4843  0.4813
 1007MOL0     C38838   6.963   7.533   5.594 -0.1110 -1.0406  0.3308
 1007MOL0     C38839   7.066   7.633   5.647  0.1462 -0.4424 -0.1986
 1007MOL0     C38840   7.202   7.591   5.597 -0.3891 -0.0721  0.5119
 1007MOL0     C38841   7.325   7.675   5.641  0.3199  0.7209  0.0126
 1007MOL0     C38842   7.330   7.820   5.594 -0.8552  0.6563 -0.0578
 1007MOL0     C38843   7.460   7.892   5.618  0.3812 -0.1667  0.2454
 1007MOL0     C38844   7.468   7.953   5.764 -0.3809 -0.6493 -0.5564
 1007MOL0     N38845   7.605   7.979   5.800 -0.3541 -0.1878  1.2429
 1007MOL0     C38846   7.720   7.913   5.774  0.0465  0.4196  0.3034
 1007MOL0     C38847   7.812   7.965   5.859  0.2435  0.0791  0.0858
 1007MOL0     C38848   7.960   7.918   5.876  0.5758  0.7390 -0.0631
 1007MOL0     C38849   7.957   7.776   5.946  0.0689  0.4162  0.0951
 1007MOL0     C38850   8.093   7.716   5.967  0.3748  0.0542  0.5541
 1007MOL0     C38851   8.162   7.689   5.836 -0.4569  0.0130 -0.3789
 1007MOL0     O38852   8.283   7.621   5.861 -0.3247  0.5883 -0.5228
 1007MOL0     C38853   8.376   7.607   5.755  0.8809  0.4423 -0.7431
 1007MOL0     C38854   8.353   7.649   5.624 -0.2960  0.1418 -0.6094
 1007MOL0     C38855   8.442   7.620   5.519 -0.2671 -0.1893 -0.1168
 1007MOL0     C38856   8.392   7.669   5.383  0.4431  0.4786 -0.1855
 1007MOL0     C38857   8.562   7.557   5.560  0.0116  0.0505  0.5086
 1007MOL0     C38858   8.676   7.517   5.466  0.3448 -0.4326 -0.1088
 1007MOL0     O38859   8.777   7.452   5.514 -0.1868 -0.2334  0.3637
 1007MOL0     C38860   8.863   7.386   5.428 -0.0171 -0.3261 -0.0274
 1007MOL0     C38861   8.838   7.318   5.310  0.2263 -0.8799  0.7830
 1007MOL0     C38862   8.934   7.237   5.244  0.1953  0.0710 -0.2140
 1007MOL0     C38863   9.064   7.229   5.297 -0.3141 -0.5618 -0.2778
 1007MOL0     O38864   9.154   7.145   5.239 -0.2120  0.2246 -0.9045
 1007MOL0     C38865   9.299   7.164   5.264  0.0454 -0.4884 -0.0872
 1007MOL0     C38866   9.371   7.059   5.181  0.5904  0.1039  1.1179
 1007MOL0     C38867   9.516   7.035   5.233 -0.6266  0.1096 -1.1295
 1007MOL0     C38868   9.613   7.157   5.211  0.3213 -0.6780  1.5709
 1007MOL0     C38869   9.764   7.137   5.240 -0.3069  0.2404 -0.1983
 1007MOL0     C38870   9.859   7.255   5.235  0.3104  1.6718  0.0023
 1007MOL0     C38871  10.007   7.196   5.276  0.7923  0.8674  0.9496
 1007MOL0     C38872  10.106   7.309   5.262 -0.7668  0.1266  0.1813
 1007MOL0    Cl38873  10.119   7.381   5.102 -0.3228  0.0178  0.1264
 1007MOL0     C38874   9.096   7.305   5.412 -0.1211 -0.1648 -0.6122
 1007MOL0     C38875   8.996   7.379   5.481 -0.4602 -0.3331 -0.4080
 1007MOL0     O38876   8.664   7.552   5.348 -0.4448  0.1417  0.3200
 1007MOL0     C38877   8.582   7.519   5.692  0.2674  0.3498 -0.2571
 1007MOL0     C38878   8.491   7.546   5.793 -0.4271  0.1941  0.6146
 1007MOL0     N38879   7.754   8.063   5.936 -0.8676  0.0785 -0.4364
 1007MOL0     N38880   7.628   8.065   5.899 -0.1764 -1.1452 -1.4266
 1007MOL0     C38881   6.556   7.718   5.427 -0.0899 -0.2742 -0.7051
 1007MOL0     C38882   6.434   7.774   5.434  0.0261 -0.8797 -0.4266
 1007MOL0     C38883   6.151   8.099   5.504 -0.2068  0.0890 -0.0051
 1007MOL0     C38884   6.035   8.051   5.580 -0.2996 -0.6782  0.4708
 1007MOL0     C38885   5.918   8.122   5.601 -0.4198  0.3223  0.1999
 1007MOL0     C38886   5.907   8.245   5.533 -0.1158  0.2531  0.9963
 1007MOL0     O38887   5.786   8.304   5.548  0.3967  0.3972 -0.3060
 1007MOL0     C38888   5.761   8.440   5.494  0.1131 -0.4767 -0.0348
 1007MOL0     C38889   5.677   8.515   5.595  0.6055 -0.4011  0.7094
 1007MOL0     C38890   5.532   8.455   5.615  0.3526  0.4609  0.2492
 1007MOL0     C38891   5.444   8.460   5.500 -0.4818  0.1792  0.9314
 1007MOL0     C38892   5.451   8.340   5.416  0.4649  0.1818  0.3047
 1007MOL0     C38893   5.452   8.253   5.337 -0.1863 -0.6245  0.5778
 1007MOL0     C38894   6.010   8.297   5.453 -0.3095  0.7308  0.4888
 1007MOL0     C38895   6.130   8.224   5.436  0.2404 -0.1030  0.0193
 1007MOL0     C38896   6.222   8.289   5.336 -0.6212  0.3986  0.1061
 1007MOL0     H38897   6.438   7.870   5.766  2.8448  0.8461  0.1055
 1007MOL0     H38898   6.639   7.731   5.755 -0.9289 -1.7515 -0.0994
 1007MOL0     H38899   6.746   7.482   5.646 -0.7463 -0.3026 -1.8172
 1007MOL0     H38900   6.816   7.638   5.709  2.9178  2.4704 -1.9286
 1007MOL0     H38901   6.975   7.435   5.642  0.0475 -0.4570  1.5276
 1007MOL0     H38902   6.981   7.517   5.487  0.4164  1.0523  0.0510
 1007MOL0     H38903   7.031   7.727   5.604 -1.1586 -1.1398 -0.7071
 1007MOL0     H38904   7.062   7.637   5.756  2.9951  1.3385 -0.0516
 1007MOL0     H38905   7.219   7.487   5.627 -2.2248 -0.0340  1.8279
 1007MOL0     H38906   7.199   7.577   5.489 -0.6437 -2.0850  0.7305
 1007MOL0     H38907   7.414   7.624   5.603 -0.3393 -0.2875 -0.2155
 1007MOL0     H38908   7.325   7.667   5.750 -2.0975 -0.3132 -0.0126
 1007MOL0     H38909   7.309   7.816   5.487 -5.4232  1.4658  0.5987
 1007MOL0     H38910   7.246   7.873   5.640 -1.2674  0.6496 -0.7888
 1007MOL0     H38911   7.479   7.972   5.546 -0.4202  0.3326  0.5789
 1007MOL0     H38912   7.539   7.819   5.596  1.2563  1.3098 -1.9140
 1007MOL0     H38913   7.405   8.042   5.776 -1.3488 -1.6566  2.8259
 1007MOL0     H38914   7.422   7.875   5.825 -1.4519 -1.2694 -2.1121
 1007MOL0     H38915   7.743   7.833   5.703 -1.6443  0.7485 -0.6690
 1007MOL0     H38916   8.018   7.984   5.941  2.2435 -0.4928 -0.2148
 1007MOL0     H38917   8.003   7.896   5.777  1.6017  1.3046  0.2384
 1007MOL0     H38918   7.910   7.802   6.042  3.5367  3.1289  1.2735
 1007MOL0     H38919   7.897   7.709   5.884  1.1097 -1.0381  0.6276
 1007MOL0     H38920   8.161   7.783   6.021 -1.4415  2.4558  0.0240
 1007MOL0     H38921   8.079   7.627   6.029  0.2445  0.5854  1.2987
 1007MOL0     H38922   8.093   7.629   5.777 -1.0780 -1.1477  1.4660
 1007MOL0     H38923   8.198   7.783   5.792  0.5080  0.3130  0.9726
 1007MOL0     H38924   8.260   7.702   5.605 -1.8492 -1.5197  1.7406
 1007MOL0     H38925   8.417   7.592   5.310 -1.0471  0.4770 -0.7162
 1007MOL0     H38926   8.445   7.759   5.349 -0.4350  0.2387 -2.3373
 1007MOL0     H38927   8.284   7.677   5.392  0.6283  2.0705  1.0921
 1007MOL0     H38928   8.737   7.320   5.269  1.1574 -1.9670 -1.8198
 1007MOL0     H38929   8.904   7.187   5.153  4.6906  0.6057 -2.2532
 1007MOL0     H38930   9.337   7.259   5.224 -0.6913 -0.3980 -0.5957
 1007MOL0     H38931   9.312   7.157   5.372 -0.0944 -1.7774 -0.1387
 1007MOL0     H38932   9.324   6.962   5.200  1.5536 -0.3310  1.3248
 1007MOL0     H38933   9.367   7.083   5.074 -0.9638 -2.8965  0.4073
 1007MOL0     H38934   9.572   6.960   5.176  2.3823  0.1025  1.5215
 1007MOL0     H38935   9.508   7.009   5.339  0.0288  4.5900  0.2721
 1007MOL0     H38936   9.583   7.243   5.272  0.6920  1.5941 -1.2673
 1007MOL0     H38937   9.602   7.183   5.105  0.1156 -0.1158  1.7275
 1007MOL0     H38938   9.774   7.099   5.343 -0.7394  0.6748  0.0047
 1007MOL0     H38939   9.805   7.067   5.167  2.6068  0.2419  1.2596
 1007MOL0     H38940   9.818   7.314   5.318 -3.6746 -3.6439  2.4011
 1007MOL0     H38941   9.855   7.297   5.134  0.4945 -2.0586 -1.6966
 1007MOL0     H38942  10.039   7.113   5.213 -1.3408 -0.9858  2.1859
 1007MOL0     H38943  10.003   7.162   5.380 -0.0490 -1.1921  0.2769
 1007MOL0     H38944  10.205   7.279   5.297 -0.6843 -0.4174 -0.5109
 1007MOL0     H38945  10.071   7.383   5.335  1.7389  2.1828 -0.5792
 1007MOL0     H38946   9.193   7.299   5.461 -0.9492  0.4938  1.2181
 1007MOL0     H38947   9.033   7.419   5.575  1.6890 -3.2609  0.1388
 1007MOL0     H38948   8.669   7.463   5.725 -1.0306 -0.7654  1.4717
 1007MOL0     H38949   8.515   7.512   5.894  0.5376  0.5706  0.5281
 1007MOL0     H38950   6.595   7.696   5.328  0.8463 -0.1181 -0.3829
 1007MOL0     H38951   6.375   7.796   5.345 -3.0173 -0.9152  1.4218
 1007MOL0     H38952   6.042   7.955   5.630  1.4541 -0.9638 -0.2604
 1007MOL0     H38953   5.833   8.085   5.657  0.2525  0.6952  1.5049
 1007MOL0     H38954   5.849   8.504   5.487 -0.9001  0.9008 -0.6650
 1007MOL0     H38955   5.699   8.432   5.404 -0.2775 -1.3955  0.3017
 1007MOL0     H38956   5.658   8.620   5.570  0.9587 -0.2484  1.0834
 1007MOL0     H38957   5.722   8.509   5.694 -0.0341  1.5995  1.1686
 1007MOL0     H38958   5.536   8.353   5.656  1.1113  1.0261  1.6238
 1007MOL0     H38959   5.488   8.526   5.686  1.5361  3.8512 -2.1588
 1007MOL0     H38960   5.475   8.551   5.449 -0.6804  0.4694  1.3185
 1007MOL0     H38961   5.340   8.479   5.528 -0.9485  3.0307 -2.1072
 1007MOL0     H38962   5.464   8.180   5.260  3.4491  0.5945 -0.2082
 1007MOL0     H38963   5.991   8.390   5.400 -0.5660  0.3543 -0.0856
 1007MOL0     H38964   6.172   8.279   5.240 -2.1397  1.7832  0.6946
 1007MOL0     H38965   6.242   8.395   5.357  1.2851  0.1803 -0.4586
 1007MOL0     H38966   6.319   8.241   5.323 -2.5010 -3.2504 -1.8474
 1008MOL0     O38967   2.700   9.697   7.070 -0.0189  0.1434  0.4602
 1008MOL0     C38968   2.661   9.598   7.130 -0.1010  0.3385  0.0236
 1008MOL0     O38969   2.682   9.478   7.082 -0.1930 -0.0868  0.3023
 1008MOL0     C38970   2.771   9.470   6.978 -0.2503 -0.6056  0.3370
 1008MOL0     C38971   2.903   9.429   7.004 -0.4463  0.6370 -0.3457
 1008MOL0     C38972   2.993   9.427   6.895  0.5320  0.4582  0.7218
 1008MOL0     C38973   2.952   9.472   6.761  0.6668 -0.4802  0.3803
 1008MOL0     O38974   3.034   9.466   6.651 -0.2025  0.3463 -0.6065
 1008MOL0     C38975   3.128   9.354   6.648 -0.2585 -0.2796  0.4298
 1008MOL0     C38976   3.187   9.336   6.511 -0.3761 -0.6477  0.6156
 1008MOL0     C38977   3.080   9.313   6.404  0.6315 -0.8911 -0.6386
 1008MOL0     C38978   3.074   9.175   6.337 -0.6679  0.6620 -0.0961
 1008MOL0     C38979   2.964   9.163   6.237 -0.4378 -0.0211  0.1295
 1008MOL0     C38980   2.825   9.213   6.282 -0.1029  0.0723 -0.2367
 1008MOL0     C38981   2.768   9.142   6.404 -0.2304  0.6474  0.5088
 1008MOL0     C38982   2.661   9.227   6.481  0.4081  0.8351  0.0935
 1008MOL0     N38983   2.639   9.166   6.613  0.5789  0.0036 -0.3430
 1008MOL0     C38984   2.722   9.179   6.727 -0.2555  0.4951 -0.2485
 1008MOL0     C38985   2.655   9.120   6.828 -0.6369 -0.0651  1.0073
 1008MOL0     C38986   2.693   9.104   6.974  0.8506 -0.5651 -0.0815
 1008MOL0     C38987   2.830   9.072   7.001  0.7157 -0.6876  0.4608
 1008MOL0     C38988   2.871   9.043   7.146 -0.2931  0.0404  0.1951
 1008MOL0     C38989   2.816   8.910   7.203  0.4939  0.7591 -0.4344
 1008MOL0     O38990   2.866   8.809   7.121 -0.4950  0.4055 -0.5380
 1008MOL0     C38991   3.002   8.776   7.137  0.1695 -0.2114 -0.4020
 1008MOL0     C38992   3.094   8.826   7.232  0.5411 -0.4977  0.1456
 1008MOL0     C38993   3.225   8.789   7.228 -0.2527 -0.3147  0.4513
 1008MOL0     C38994   3.323   8.856   7.332  0.0970  0.1875  0.8206
 1008MOL0     C38995   3.275   8.697   7.131  0.2120 -0.2183  0.1634
 1008MOL0     C38996   3.424   8.652   7.115  1.1461 -0.3306  0.3867
 1008MOL0     O38997   3.515   8.716   7.177 -0.8042 -0.0453  0.5855
 1008MOL0     C38998   3.643   8.676   7.199 -0.4144  0.1649  0.1679
 1008MOL0     C38999   3.713   8.772   7.265 -0.5783 -0.1752  0.5311
 1008MOL0     C39000   3.853   8.745   7.293  0.0325 -0.1762  0.3100
 1008MOL0     C39001   3.914   8.623   7.262 -0.0985 -0.3789 -0.1312
 1008MOL0     O39002   4.044   8.605   7.290 -0.2466 -0.0272 -0.1519
 1008MOL0     C39003   4.120   8.496   7.225  0.8871  0.5726 -0.0498
 1008MOL0     C39004   4.259   8.531   7.170  0.9112 -0.4452  1.3921
 1008MOL0     C39005   4.352   8.561   7.284 -0.3517  0.8636  1.2990
 1008MOL0     C39006   4.499   8.498   7.256 -0.4293 -0.5147  0.0474
 1008MOL0     C39007   4.596   8.508   7.377 -0.1756  0.0889  0.3215
 1008MOL0     C39008   4.722   8.432   7.345 -0.3695 -1.0604 -0.1410
 1008MOL0     C39009   4.833   8.539   7.301  0.2404 -0.2042 -0.9654
 1008MOL0     C39010   4.915   8.607   7.419 -0.2518 -0.3870  0.7686
 1008MOL0    Cl39011   5.028   8.723   7.348  0.0973 -0.0151 -0.0738
 1008MOL0     C39012   3.831   8.532   7.193 -0.2806  0.4536 -0.0312
 1008MOL0     C39013   3.699   8.559   7.164 -0.6703 -0.0784  0.2938
 1008MOL0     O39014   3.436   8.563   7.034 -0.4667 -0.2706 -0.5443
 1008MOL0     C39015   3.181   8.651   7.043 -0.5413  0.5295  0.9904
 1008MOL0     C39016   3.047   8.686   7.044  0.3255  0.1686 -0.8549
 1008MOL0     N39017   2.539   9.068   6.774 -0.1752 -0.8069  0.1608
 1008MOL0     N39018   2.539   9.082   6.648  0.3063 -0.2081 -0.2537
 1008MOL0     C39019   2.818   9.520   6.747 -0.3680  1.1725 -0.0163
 1008MOL0     C39020   2.727   9.515   6.849 -0.0136 -0.2164  0.1184
 1008MOL0     C39021   2.592   9.601   7.258 -0.5816  0.2768 -0.0249
 1008MOL0     C39022   2.522   9.715   7.289  0.6592  0.1170  0.0895
 1008MOL0     C39023   2.444   9.718   7.408  0.0018 -0.2830  0.4258
 1008MOL0     C39024   2.454   9.617   7.501 -0.1312 -0.1163  0.4407
 1008MOL0     O39025   2.378   9.614   7.616 -0.0304  0.3385  0.0622
 1008MOL0     C39026   2.351   9.730   7.692 -0.9138 -0.8578  0.2674
 1008MOL0     C39027   2.478   9.783   7.765  0.0012 -0.1308 -0.3970
 1008MOL0     C39028   2.533   9.672   7.860 -0.5095 -0.0644  0.1030
 1008MOL0     C39029   2.645   9.721   7.943 -0.5776  0.1666 -0.4271
 1008MOL0     C39030   2.768   9.727   7.870  0.3286  0.0779  1.1145
 1008MOL0     C39031   2.869   9.693   7.808  0.1403 -0.3368 -0.4719
 1008MOL0     C39032   2.536   9.506   7.480  0.3277  0.2203  0.2088
 1008MOL0     C39033   2.605   9.500   7.352 -0.9181  0.2976 -0.8539
 1008MOL0     C39034   2.700   9.384   7.349 -0.0791 -0.7327 -0.5052
 1008MOL0     H39035   2.928   9.398   7.105 -0.8191  0.3396 -0.3466
 1008MOL0     H39036   3.095   9.401   6.918  1.1172 -0.5546 -2.4972
 1008MOL0     H39037   3.081   9.264   6.690  0.9245 -1.3849 -0.5490
 1008MOL0     H39038   3.212   9.393   6.706  0.1729 -0.0573 -0.3334
 1008MOL0     H39039   3.253   9.420   6.486  1.1967 -1.8771  0.4411
 1008MOL0     H39040   3.259   9.253   6.509  1.2399  0.6818 -1.9842
 1008MOL0     H39041   2.981   9.333   6.448  1.7081 -0.3306  1.6772
 1008MOL0     H39042   3.095   9.389   6.327  0.1689 -1.3889 -1.2301
 1008MOL0     H39043   3.172   9.152   6.295  0.4171  1.8398  1.6539
 1008MOL0     H39044   3.056   9.099   6.413  3.8604 -1.5624 -0.9174
 1008MOL0     H39045   2.947   9.056   6.222 -0.3718 -0.0081 -0.0377
 1008MOL0     H39046   2.986   9.214   6.143  2.2241 -0.2156  0.5920
 1008MOL0     H39047   2.833   9.322   6.294  1.2928 -0.1358  1.2086
 1008MOL0     H39048   2.763   9.189   6.196  1.5143  0.8542 -1.6868
 1008MOL0     H39049   2.849   9.116   6.472  0.6449  0.3968 -0.5890
 1008MOL0     H39050   2.728   9.045   6.375  3.1683 -0.1353 -2.2946
 1008MOL0     H39051   2.683   9.333   6.495  0.0959  0.8469  0.5327
 1008MOL0     H39052   2.563   9.220   6.432  0.4068  0.8442  0.0949
 1008MOL0     H39053   2.814   9.236   6.737  0.2830 -0.6277  1.9556
 1008MOL0     H39054   2.634   9.030   7.030  0.4735  0.5841  1.1107
 1008MOL0     H39055   2.673   9.201   7.020  0.2321 -1.6231  2.0394
 1008MOL0     H39056   2.859   8.992   6.932  2.0377  1.0267 -1.0625
 1008MOL0     H39057   2.888   9.157   6.964  0.6258 -1.1490 -0.7911
 1008MOL0     H39058   2.978   9.050   7.163  0.4203 -0.2332 -3.5327
 1008MOL0     H39059   2.826   9.122   7.208 -0.8301 -0.0673 -0.0507
 1008MOL0     H39060   2.832   8.909   7.312 -3.9040  0.0134  0.4087
 1008MOL0     H39061   2.708   8.916   7.190  0.3603 -1.3430 -0.6503
 1008MOL0     H39062   3.071   8.893   7.314  1.6134 -0.4014  0.3851
 1008MOL0     H39063   3.391   8.782   7.376  1.7635  1.0670 -0.1860
 1008MOL0     H39064   3.271   8.903   7.417  0.2402 -0.3592  1.2198
 1008MOL0     H39065   3.377   8.931   7.274 -1.7300  2.3019  1.7027
 1008MOL0     H39066   3.656   8.862   7.287 -0.9437 -0.4515  0.7119
 1008MOL0     H39067   3.898   8.830   7.343 -1.9075  2.7752 -2.5215
 1008MOL0     H39068   4.120   8.420   7.304 -3.4569 -1.1271 -1.3657
 1008MOL0     H39069   4.070   8.455   7.136 -1.8723 -2.0581  2.4656
 1008MOL0     H39070   4.300   8.445   7.115  2.7663 -0.6158  2.9453
 1008MOL0     H39071   4.256   8.619   7.105  0.4696 -0.3478  1.5427
 1008MOL0     H39072   4.309   8.520   7.376 -1.0867 -0.3712  0.4315
 1008MOL0     H39073   4.357   8.670   7.295 -1.5513  1.0148  0.4505
 1008MOL0     H39074   4.534   8.556   7.171 -1.8096  0.3485  0.0237
 1008MOL0     H39075   4.501   8.395   7.222 -0.0264  0.0130 -1.6158
 1008MOL0     H39076   4.625   8.609   7.407  0.4343  0.3552 -1.1026
 1008MOL0     H39077   4.542   8.457   7.457  2.2410 -3.8811 -0.3126
 1008MOL0     H39078   4.713   8.363   7.260 -0.8753  0.4632 -1.3715
 1008MOL0     H39079   4.755   8.384   7.438  0.1945  1.8884  1.2784
 1008MOL0     H39080   4.785   8.623   7.249 -0.1969  2.2912  3.0492
 1008MOL0     H39081   4.910   8.492   7.239 -0.7276 -2.2622 -0.6986
 1008MOL0     H39082   4.962   8.531   7.482  2.0530 -0.5043 -0.9887
 1008MOL0     H39083   4.842   8.666   7.475 -0.9686  3.0886 -3.3397
 1008MOL0     H39084   3.873   8.434   7.175 -0.9300 -0.1716  1.6721
 1008MOL0     H39085   3.645   8.482   7.110  1.9097  0.8366 -4.0909
 1008MOL0     H39086   3.206   8.581   6.964  0.3936  2.0527 -0.1185
 1008MOL0     H39087   2.970   8.647   6.978 -0.5135  1.1305 -0.4548
 1008MOL0     H39088   2.782   9.569   6.657 -0.7811 -0.8343 -1.0020
 1008MOL0     H39089   2.626   9.555   6.850 -0.2908 -0.6956 -2.7385
 1008MOL0     H39090   2.519   9.798   7.219 -0.3757 -0.6630 -0.8271
 1008MOL0     H39091   2.380   9.801   7.436 -2.7833 -2.0722 -0.3105
 1008MOL0     H39092   2.325   9.819   7.634  1.0827  0.9685  1.9858
 1008MOL0     H39093   2.272   9.711   7.765 -0.2859 -3.1614  0.4253
 1008MOL0     H39094   2.455   9.877   7.817 -2.8775 -1.0389  0.1489
 1008MOL0     H39095   2.557   9.807   7.693  1.2922 -1.1411  0.6317
 1008MOL0     H39096   2.448   9.658   7.928 -0.2503 -0.3315  0.3781
 1008MOL0     H39097   2.545   9.576   7.810 -2.2942 -0.5119  0.4398
 1008MOL0     H39098   2.668   9.657   8.028 -1.1946 -0.7976 -0.9705
 1008MOL0     H39099   2.615   9.818   7.984  0.5023  0.3905 -0.1242
 1008MOL0     H39100   2.961   9.652   7.773  0.7658 -0.0825  0.8232
 1008MOL0     H39101   2.556   9.436   7.560  1.4609  2.1546  1.7298
 1008MOL0     H39102   2.673   9.320   7.264  1.3369  0.2521 -1.7527
 1008MOL0     H39103   2.798   9.432   7.345 -0.1848 -0.1340  2.2804
 1008MOL0     H39104   2.703   9.330   7.444 -1.3732  2.1476  1.3170
 1009MOL0     O39105   1.677   4.344   2.241 -0.1876 -0.5216  0.2456
 1009MOL0     C39106   1.748   4.280   2.322 -0.6444  0.0637 -0.3671
 1009MOL0     O39107   1.702   4.224   2.440 -0.4016  0.1718  0.5983
 1009MOL0     C39108   1.569   4.237   2.475  0.0769 -0.2852 -0.2292
 1009MOL0     C39109   1.513   4.363   2.489  0.2909  0.2657  0.0489
 1009MOL0     C39110   1.377   4.381   2.534 -0.1090  0.2545 -0.1061
 1009MOL0     C39111   1.297   4.266   2.568 -0.2249  0.4169 -0.8897
 1009MOL0     O39112   1.168   4.262   2.618  0.2217  0.2777  0.6072
 1009MOL0     C39113   1.072   4.367   2.582  0.2529 -0.4050  0.0640
 1009MOL0     C39114   0.927   4.342   2.625  0.4018 -0.6252 -0.5453
 1009MOL0     C39115   0.817   4.413   2.549 -0.4832  0.4653  0.4108
 1009MOL0     C39116   0.687   4.324   2.546  0.2605 -0.2788  0.6698
 1009MOL0     C39117   0.579   4.420   2.489 -1.3177 -0.4174  0.7818
 1009MOL0     C39118   0.439   4.342   2.472 -1.0244 -0.3891 -0.0748
 1009MOL0     C39119   0.466   4.222   2.368 -0.4891 -0.2694 -0.0529
 1009MOL0     C39120   0.339   4.173   2.299  0.7000  1.0552  0.2611
 1009MOL0     N39121   0.244   4.132   2.402  0.7241  0.2495 -0.3866
 1009MOL0     C39122   0.141   4.205   2.459  0.7370  0.2934  0.3167
 1009MOL0     C39123   0.084   4.129   2.551 -0.3697  0.1486  0.3522
 1009MOL0     C39124  -0.023   4.163   2.645  0.0932 -0.3751  0.0283
 1009MOL0     C39125   0.035   4.222   2.778 -0.3206  0.4572  0.2742
 1009MOL0     C39126   0.141   4.141   2.849  0.0485 -0.1728 -0.3282
 1009MOL0     C39127   0.188   4.232   2.964 -0.1407  0.4667 -1.0090
 1009MOL0     O39128   0.260   4.344   2.901  0.4425  0.3181  0.3409
 1009MOL0     C39129   0.396   4.367   2.939  0.2053 -0.0260 -0.2764
 1009MOL0     C39130   0.466   4.314   3.053 -0.4056  0.4736 -0.2393
 1009MOL0     C39131   0.594   4.360   3.093  0.0602 -0.1159  0.2566
 1009MOL0     C39132   0.648   4.307   3.226 -0.4109 -0.2638  0.5879
 1009MOL0     C39133   0.653   4.468   3.020  0.8396  0.3811 -0.4087
 1009MOL0     C39134   0.788   4.525   3.050  0.1751  0.0604  0.3177
 1009MOL0     O39135   0.827   4.630   2.970  0.6685 -0.2035  0.0518
 1009MOL0     C39136   0.943   4.682   3.011 -0.1451  0.5777 -0.0910
 1009MOL0     C39137   1.056   4.641   2.945  0.4626 -0.3380 -0.7024
 1009MOL0     C39138   1.179   4.714   2.966  0.3058 -0.6082 -0.5081
 1009MOL0     C39139   1.182   4.818   3.063 -0.3185 -0.4606 -0.3335
 1009MOL0     O39140   1.309   4.881   3.082 -0.4787  0.4810  0.1480
 1009MOL0     C39141   1.363   4.889   3.222  0.6967 -0.4679  1.2596
 1009MOL0     C39142   1.493   4.961   3.226 -0.1625 -0.2217  0.8201
 1009MOL0     C39143   1.595   4.896   3.135 -0.9285  0.0454 -0.3679
 1009MOL0     C39144   1.732   4.923   3.185 -0.1230 -0.8710 -0.3658
 1009MOL0     C39145   1.836   4.864   3.095  0.0230 -0.1054  0.6869
 1009MOL0     C39146   1.973   4.867   3.155 -1.1596 -0.0000 -0.2531
 1009MOL0     C39147   2.024   5.010   3.196  1.3953  0.3832  0.1982
 1009MOL0     C39148   2.170   5.026   3.150 -0.3289 -1.0029 -0.5109
 1009MOL0    Cl39149   2.266   4.879   3.201  0.2527 -0.3803  0.1825
 1009MOL0     C39150   1.070   4.850   3.141  0.4819  0.3011 -0.6436
 1009MOL0     C39151   0.950   4.790   3.108  0.2876 -0.1306  0.6404
 1009MOL0     O39152   0.858   4.471   3.130  0.5582 -0.0622  0.3601
 1009MOL0     C39153   0.581   4.513   2.907  0.2402  0.0468 -0.6034
 1009MOL0     C39154   0.461   4.454   2.866 -0.5005 -0.7907  0.1021
 1009MOL0     N39155   0.147   4.010   2.560  0.3819  0.2975 -0.1541
 1009MOL0     N39156   0.238   4.014   2.472  0.1937  0.7303  0.1394
 1009MOL0     C39157   1.348   4.145   2.547 -0.3454 -0.3953 -0.4494
 1009MOL0     C39158   1.481   4.127   2.504  0.1226 -0.3510  0.2383
 1009MOL0     C39159   1.892   4.272   2.281  0.0112 -0.0779  0.1294
 1009MOL0     C39160   1.981   4.214   2.369  0.0998 -0.3910  0.7695
 1009MOL0     C39161   2.116   4.188   2.326 -0.4800  0.3937  0.0849
 1009MOL0     C39162   2.165   4.232   2.204 -1.0580  0.4081  0.4510
 1009MOL0     O39163   2.301   4.207   2.177 -0.2691  0.3780 -0.5342
 1009MOL0     C39164   2.386   4.267   2.078 -0.1939  0.0425  0.8818
 1009MOL0     C39165   2.517   4.196   2.095  0.1462  0.1892 -0.0219
 1009MOL0     C39166   2.617   4.251   2.197  0.3365 -0.0217  0.3300
 1009MOL0     C39167   2.760   4.192   2.175  1.1828  0.0989  0.7250
 1009MOL0     C39168   2.851   4.217   2.288 -0.4225  1.5726  0.0306
 1009MOL0     C39169   2.917   4.220   2.384  0.6085  0.0988 -0.2996
 1009MOL0     C39170   2.082   4.303   2.124  0.3066 -0.3171  0.0068
 1009MOL0     C39171   1.945   4.321   2.155  0.4822 -0.0622 -0.2434
 1009MOL0     C39172   1.862   4.374   2.039  0.6215  0.4192  0.2145
 1009MOL0     H39173   1.574   4.450   2.471 -0.9861  1.1841  0.0074
 1009MOL0     H39174   1.334   4.479   2.552 -1.4131 -0.4453  0.7540
 1009MOL0     H39175   1.080   4.403   2.479  1.7932  3.1197  1.2696
 1009MOL0     H39176   1.107   4.455   2.637  1.7093 -1.4754  0.9206
 1009MOL0     H39177   0.902   4.235   2.616  1.9020 -1.1444  1.0512
 1009MOL0     H39178   0.930   4.370   2.731  3.6723 -0.3211 -0.6154
 1009MOL0     H39179   0.807   4.512   2.596  4.6028  0.9376  1.0365
 1009MOL0     H39180   0.844   4.430   2.444  1.5101 -1.8551  0.4570
 1009MOL0     H39181   0.697   4.233   2.487 -0.5476  0.2318 -0.2953
 1009MOL0     H39182   0.659   4.292   2.646  1.0304  0.9008  1.2797
 1009MOL0     H39183   0.609   4.461   2.393  0.9501  0.1435  1.6555
 1009MOL0     H39184   0.568   4.504   2.559 -2.1375  1.6861 -1.7371
 1009MOL0     H39185   0.412   4.310   2.573 -1.9949 -1.5540 -0.6866
 1009MOL0     H39186   0.367   4.420   2.444  1.2304  2.2717  1.0161
 1009MOL0     H39187   0.516   4.137   2.414  1.8246  0.4070 -1.1508
 1009MOL0     H39188   0.535   4.267   2.296  2.2797 -2.5011  1.0109
 1009MOL0     H39189   0.296   4.253   2.238 -1.8693  1.8041  2.8068
 1009MOL0     H39190   0.367   4.082   2.245  0.5876  0.8052  0.6212
 1009MOL0     H39191   0.107   4.307   2.443 -1.4991 -0.7091 -1.8556
 1009MOL0     H39192  -0.070   4.066   2.662  3.1367 -2.1176 -0.7991
 1009MOL0     H39193  -0.093   4.232   2.598  0.1219  1.0266  1.9383
 1009MOL0     H39194   0.077   4.315   2.738 -2.9558  0.8560 -1.9145
 1009MOL0     H39195  -0.044   4.241   2.851 -1.0581  0.6428 -0.5575
 1009MOL0     H39196   0.100   4.047   2.887 -0.9486  1.4824  3.1491
 1009MOL0     H39197   0.231   4.122   2.790 -0.7723  1.1734 -2.0815
 1009MOL0     H39198   0.108   4.270   3.027  1.9758  2.7072  0.5100
 1009MOL0     H39199   0.246   4.172   3.035 -0.2610  0.1775 -1.1511
 1009MOL0     H39200   0.418   4.237   3.112  3.6947 -1.2409  1.2616
 1009MOL0     H39201   0.733   4.240   3.209  0.2262  0.2244  1.7044
 1009MOL0     H39202   0.575   4.247   3.281  0.0865 -2.5583 -1.1086
 1009MOL0     H39203   0.683   4.388   3.291 -0.5934 -1.5451  2.3615
 1009MOL0     H39204   1.054   4.551   2.886  1.0249 -0.8211  0.0019
 1009MOL0     H39205   1.268   4.682   2.912 -0.3659 -1.2668 -1.2516
 1009MOL0     H39206   1.298   4.952   3.283  0.7907  0.9075  0.0076
 1009MOL0     H39207   1.374   4.784   3.252 -2.5389 -2.0664 -2.2442
 1009MOL0     H39208   1.474   5.064   3.192 -2.2067 -0.5617  0.8644
 1009MOL0     H39209   1.529   4.950   3.329 -1.3897 -0.5672  1.2293
 1009MOL0     H39210   1.588   4.931   3.032 -1.5117 -0.1988 -0.4175
 1009MOL0     H39211   1.599   4.787   3.132  0.9881 -0.0846  2.5710
 1009MOL0     H39212   1.738   4.885   3.287 -0.6832  0.9206  0.3637
 1009MOL0     H39213   1.755   5.029   3.194  0.7782 -0.9841 -1.2112
 1009MOL0     H39214   1.823   4.759   3.068 -1.1182  0.3505 -0.6376
 1009MOL0     H39215   1.838   4.911   2.996  0.1251 -0.5341  0.4813
 1009MOL0     H39216   2.044   4.821   3.086  0.7989  0.1555  1.5408
 1009MOL0     H39217   1.969   4.803   3.243 -3.1004 -0.8584 -0.9162
 1009MOL0     H39218   2.009   5.040   3.300 -1.7958  3.6699 -0.9445
 1009MOL0     H39219   1.970   5.093   3.149 -1.6556 -0.8140  1.3045
 1009MOL0     H39220   2.208   5.119   3.192 -1.2734  1.6770 -4.9178
 1009MOL0     H39221   2.179   5.040   3.042 -0.6942 -1.4121 -0.5986
 1009MOL0     H39222   1.086   4.929   3.213  1.1255 -2.5706  2.6584
 1009MOL0     H39223   0.856   4.813   3.157  0.7836  2.0478  0.6407
 1009MOL0     H39224   0.628   4.589   2.845 -1.2486  1.7809  0.3145
 1009MOL0     H39225   0.419   4.495   2.774  0.7494 -0.5337 -0.3773
 1009MOL0     H39226   1.284   4.058   2.554  1.5782 -1.8888 -0.4821
 1009MOL0     H39227   1.518   4.026   2.491 -0.4199 -0.5677  0.3504
 1009MOL0     H39228   1.933   4.180   2.460 -3.6720 -1.0576 -1.2503
 1009MOL0     H39229   2.187   4.169   2.406  1.0510  4.1472 -0.1989
 1009MOL0     H39230   2.353   4.268   1.974  1.3733  0.8414  0.3506
 1009MOL0     H39231   2.411   4.372   2.094  0.7944  0.3521 -2.0804
 1009MOL0     H39232   2.574   4.200   2.002  0.9163  1.4053  0.4789
 1009MOL0     H39233   2.497   4.091   2.118  0.4014 -0.1333 -1.2023
 1009MOL0     H39234   2.619   4.360   2.192  0.0311 -0.0490 -0.7871
 1009MOL0     H39235   2.581   4.229   2.298 -0.9833 -1.4247 -0.3980
 1009MOL0     H39236   2.803   4.234   2.084 -0.8415  1.9510  0.5401
 1009MOL0     H39237   2.747   4.084   2.177 -0.7547  0.1991 -1.8320
 1009MOL0     H39238   2.975   4.220   2.474 -0.8690  1.4205  0.7175
 1009MOL0     H39239   2.110   4.336   2.024 -2.9917  0.9646 -0.6111
 1009MOL0     H39240   1.819   4.463   2.085  0.3184 -0.7690  2.3233
 1009MOL0     H39241   1.920   4.400   1.949  1.0587  0.3924  0.4841
 1009MOL0     H39242   1.792   4.298   2.002  1.0521 -0.0909  0.4399
 1010MOL0     O39243   0.531  11.191   9.670 -0.4246 -0.2066  0.2942
 1010MOL0     C39244   0.506  11.296   9.732  0.1710  0.3219 -0.3399
 1010MOL0     O39245   0.600  11.384   9.768 -0.6215 -0.1947  0.6294
 1010MOL0     C39246   0.726  11.361   9.713 -0.4161 -0.2406  0.4162
 1010MOL0     C39247   0.817  11.287   9.786  0.3535  0.5021  0.6113
 1010MOL0     C39248   0.945  11.268   9.732  0.0878 -1.1966  0.8296
 1010MOL0     C39249   0.977  11.304   9.606  0.6456  0.1384  0.0810
 1010MOL0     O39250   1.100  11.273   9.547 -0.3145 -0.6042 -0.0507
 1010MOL0     C39251   1.187  11.371   9.495 -0.1202 -0.3750  0.2004
 1010MOL0     C39252   1.310  11.293   9.449  0.6436 -0.4514  0.6463
 1010MOL0     C39253   1.401  11.257   9.564  0.2062  0.6514  0.2783
 1010MOL0     C39254   1.523  11.185   9.513  0.3348  0.3781 -0.1728
 1010MOL0     C39255   1.597  11.119   9.623  0.2598  0.1673 -0.2857
 1010MOL0     C39256   1.727  11.042   9.574  1.1234 -0.1671  0.1550
 1010MOL0     C39257   1.798  10.966   9.693 -0.0695 -0.6939 -0.2724
 1010MOL0     C39258   1.765  10.815   9.708  0.6201 -0.6003 -0.1151
 1010MOL0     N39259   1.830  10.733   9.610 -0.4972  0.4720  0.3298
 1010MOL0     C39260   1.843  10.753   9.475  0.3100 -0.1358 -1.0818
 1010MOL0     C39261   1.896  10.644   9.429 -0.0256 -0.0864 -0.3709
 1010MOL0     C39262   1.892  10.604   9.286  1.3071 -0.3222 -0.0237
 1010MOL0     C39263   2.033  10.605   9.217 -0.1240 -1.0456 -1.0107
 1010MOL0     C39264   2.046  10.491   9.111 -0.2264 -0.1544 -0.3614
 1010MOL0     C39265   2.089  10.360   9.173  0.4756  0.4942  0.5395
 1010MOL0     O39266   2.105  10.254   9.077 -0.5013  0.2695 -0.5285
 1010MOL0     C39267   2.209  10.248   8.993  0.0876 -0.2209  0.1700
 1010MOL0     C39268   2.183  10.200   8.864  0.2569 -0.2278 -0.8476
 1010MOL0     C39269   2.275  10.210   8.764 -0.6186  0.8834  0.3447
 1010MOL0     C39270   2.233  10.163   8.624 -0.8361 -0.4404 -0.8174
 1010MOL0     C39271   2.407  10.262   8.791 -0.3445 -0.2320 -0.1152
 1010MOL0     C39272   2.519  10.275   8.695 -0.3218  0.5549 -0.1391
 1010MOL0     O39273   2.609  10.378   8.703 -0.2669 -0.2600 -0.2952
 1010MOL0     C39274   2.736  10.352   8.657 -1.1614  0.0255  0.6262
 1010MOL0     C39275   2.840  10.331   8.742  0.3475  1.4247 -0.9711
 1010MOL0     C39276   2.967  10.306   8.695  0.9166  0.5654  0.4391
 1010MOL0     C39277   2.997  10.308   8.558 -0.0207  0.1244 -0.0046
 1010MOL0     O39278   3.129  10.279   8.524 -0.4632 -0.8670 -0.0502
 1010MOL0     C39279   3.167  10.327   8.395  0.1166 -1.1142 -0.3952
 1010MOL0     C39280   3.317  10.318   8.397 -0.7151  1.1030  0.0468
 1010MOL0     C39281   3.372  10.389   8.279 -0.3302  0.1680 -0.0342
 1010MOL0     C39282   3.521  10.404   8.283 -0.1657  0.5014  0.1479
 1010MOL0     C39283   3.575  10.480   8.157 -0.0910  0.9341 -0.7692
 1010MOL0     C39284   3.563  10.400   8.023  0.6430 -0.5550 -0.0205
 1010MOL0     C39285   3.695  10.318   8.008 -0.4162 -0.1085 -0.0946
 1010MOL0     C39286   3.703  10.255   7.871 -0.1887 -1.4008 -0.8262
 1010MOL0    Cl39287   3.563  10.157   7.825  0.6571 -0.1628 -0.1647
 1010MOL0     C39288   2.899  10.347   8.468 -0.0711  0.4301  0.4610
 1010MOL0     C39289   2.771  10.361   8.514  0.3088 -0.5214 -0.2302
 1010MOL0     O39290   2.528  10.175   8.627  0.1431 -0.3227  1.0721
 1010MOL0     C39291   2.436  10.312   8.922  0.3435  0.3590  0.5322
 1010MOL0     C39292   2.335  10.306   9.022  0.0925 -1.1385  0.2813
 1010MOL0     N39293   1.940  10.567   9.530 -0.0885 -0.2008  0.1953
 1010MOL0     N39294   1.883  10.616   9.641  0.3975  1.1075  0.3468
 1010MOL0     C39295   0.880  11.374   9.535 -0.1829 -0.3511 -0.0891
 1010MOL0     C39296   0.762  11.412   9.590  0.7650  1.9058  0.2281
 1010MOL0     C39297   0.375  11.328   9.782  0.0334 -0.2801  1.0027
 1010MOL0     C39298   0.359  11.443   9.860  0.3145 -0.2801  0.6828
 1010MOL0     C39299   0.237  11.481   9.912 -0.7376 -0.1862 -0.6714
 1010MOL0     C39300   0.119  11.402   9.903  0.4074  0.6548 -0.0517
 1010MOL0     O39301   0.002  11.442   9.964 -0.6632  0.2986  0.0396
 1010MOL0     C39302   0.006  11.531  10.077 -0.1234 -0.7764 -0.4384
 1010MOL0     C39303  -0.139  11.585  10.083 -0.0290  0.5417  0.2889
 1010MOL0     C39304  -0.151  11.664  10.208  0.0077 -0.0597 -1.2883
 1010MOL0     C39305  -0.290  11.736  10.217  0.7106 -0.1739 -0.1117
 1010MOL0     C39306  -0.328  11.841  10.115 -0.2618  0.1120 -0.8065
 1010MOL0     C39307  -0.354  11.930  10.031 -0.2444 -0.8382 -0.1092
 1010MOL0     C39308   0.133  11.283   9.835 -0.2657  0.4483 -0.2361
 1010MOL0     C39309   0.259  11.243   9.773  0.4430  0.4429 -0.7535
 1010MOL0     C39310   0.256  11.114   9.689  0.2337 -0.8889  0.0830
 1010MOL0     H39311   0.787  11.245   9.882 -5.7999 -0.9837 -1.4950
 1010MOL0     H39312   1.022  11.207   9.779  0.6089  0.9580  2.9704
 1010MOL0     H39313   1.208  11.441   9.577 -1.4417 -1.3456  1.4265
 1010MOL0     H39314   1.151  11.435   9.414  1.6676  2.1448  1.2804
 1010MOL0     H39315   1.275  11.216   9.380  2.6439  1.3025 -2.5856
 1010MOL0     H39316   1.365  11.359   9.381  1.9540 -2.3399 -0.2004
 1010MOL0     H39317   1.417  11.347   9.624 -1.3443 -0.1020  1.9213
 1010MOL0     H39318   1.338  11.184   9.616  1.5583 -0.4005  0.4883
 1010MOL0     H39319   1.494  11.117   9.433  3.0447 -0.0718 -0.8910
 1010MOL0     H39320   1.583  11.262   9.464 -1.3380 -0.8486 -4.6160
 1010MOL0     H39321   1.525  11.042   9.653 -1.4779  1.2205 -1.5591
 1010MOL0     H39322   1.607  11.185   9.710 -1.0970 -0.0668  0.0775
 1010MOL0     H39323   1.697  10.969   9.498  3.3276 -1.5303  0.5200
 1010MOL0     H39324   1.789  11.113   9.518  0.0660  3.0661  2.7734
 1010MOL0     H39325   1.761  11.014   9.784 -1.4945 -0.9215 -0.7151
 1010MOL0     H39326   1.906  10.978   9.683 -0.3070  1.8466 -0.5623
 1010MOL0     H39327   1.790  10.789   9.812  0.8933  1.4225  0.3567
 1010MOL0     H39328   1.659  10.796   9.691  0.8587 -2.3641  0.1347
 1010MOL0     H39329   1.803  10.828   9.407  0.0869  0.7203 -0.0322
 1010MOL0     H39330   1.830  10.666   9.220  0.2509 -0.3186  0.9292
 1010MOL0     H39331   1.856  10.500   9.287 -0.7211  0.3239  0.5922
 1010MOL0     H39332   2.050  10.700   9.166  0.0402 -1.6258 -2.0480
 1010MOL0     H39333   2.111  10.607   9.293  1.9548  2.0733 -3.0302
 1010MOL0     H39334   1.947  10.473   9.067 -0.3710  0.3764 -0.2530
 1010MOL0     H39335   2.116  10.517   9.031  0.1295 -1.7676 -0.6173
 1010MOL0     H39336   2.174  10.383   9.238 -0.1962  2.1294  0.8858
 1010MOL0     H39337   2.013  10.317   9.239 -1.9902 -2.8368 -3.8919
 1010MOL0     H39338   2.085  10.160   8.841 -0.6069 -0.6258  2.9098
 1010MOL0     H39339   2.280  10.201   8.533 -0.5242 -3.2862 -1.9574
 1010MOL0     H39340   2.124  10.165   8.615 -0.8954  1.3957 -0.0715
 1010MOL0     H39341   2.276  10.062   8.617 -0.0807 -0.0948 -1.3471
 1010MOL0     H39342   2.809  10.320   8.846  1.6880 -0.0377 -0.6899
 1010MOL0     H39343   3.041  10.285   8.771  0.3714  0.4692  0.9480
 1010MOL0     H39344   3.124  10.259   8.320  1.4870 -1.3376 -1.0047
 1010MOL0     H39345   3.142  10.430   8.371  1.2490 -0.9977 -1.1611
 1010MOL0     H39346   3.356  10.353   8.493 -0.7504 -0.9212  0.8407
 1010MOL0     H39347   3.342  10.213   8.416 -0.4125  1.8918  5.7086
 1010MOL0     H39348   3.331  10.490   8.272 -2.9445 -0.6546  1.8257
 1010MOL0     H39349   3.342  10.332   8.190  0.7742  0.5975 -0.6990
 1010MOL0     H39350   3.558  10.301   8.291 -2.1233 -0.2499 -0.1249
 1010MOL0     H39351   3.554  10.448   8.378  0.9243  0.7179 -0.3186
 1010MOL0     H39352   3.529  10.579   8.146 -0.2256  0.6563 -3.3711
 1010MOL0     H39353   3.676  10.514   8.179 -0.9173  1.8557  1.9922
 1010MOL0     H39354   3.547  10.472   7.941  2.2877  1.3837  1.2681
 1010MOL0     H39355   3.480  10.330   8.035 -0.7778  1.2622  1.5165
 1010MOL0     H39356   3.708  10.242   8.086 -1.1556  0.3815  0.5237
 1010MOL0     H39357   3.776  10.386   8.034  1.8662 -3.6932  3.5176
 1010MOL0     H39358   3.785  10.182   7.865  3.3170  1.6758  3.2327
 1010MOL0     H39359   3.715  10.335   7.797 -2.2731  0.2779  0.5516
 1010MOL0     H39360   2.919  10.362   8.362  0.4985  2.3261  0.8031
 1010MOL0     H39361   2.686  10.385   8.450 -1.1403 -0.0872  1.7588
 1010MOL0     H39362   2.533  10.346   8.955  1.1014 -2.5820  1.6938
 1010MOL0     H39363   2.362  10.325   9.125  1.5196 -2.3881  0.1717
 1010MOL0     H39364   0.900  11.401   9.431 -1.8373 -0.9501 -0.6010
 1010MOL0     H39365   0.684  11.457   9.529  0.5230  0.7224 -0.3738
 1010MOL0     H39366   0.432  11.523   9.866  1.0713 -0.4685 -3.4174
 1010MOL0     H39367   0.243  11.575   9.965  2.5705  0.8861 -2.6707
 1010MOL0     H39368   0.040  11.479  10.167  3.2276  0.0569 -1.1154
 1010MOL0     H39369   0.071  11.617  10.063  0.1647 -1.0660 -0.8937
 1010MOL0     H39370  -0.207  11.500  10.083  1.0837 -0.4681 -2.6047
 1010MOL0     H39371  -0.156  11.644   9.993 -0.3501 -0.5286 -0.3739
 1010MOL0     H39372  -0.155  11.600  10.297 -0.6456  0.3980 -0.9807
 1010MOL0     H39373  -0.068  11.732  10.224 -0.9917  0.5076  2.1523
 1010MOL0     H39374  -0.299  11.788  10.313 -1.8560  4.2288 -2.4179
 1010MOL0     H39375  -0.370  11.661  10.215 -1.7892  1.9912  3.7801
 1010MOL0     H39376  -0.347  12.016   9.967  1.5892  0.2376  1.4326
 1010MOL0     H39377   0.058  11.205   9.833  2.0170 -2.1208  2.9954
 1010MOL0     H39378   0.301  11.132   9.592 -1.0703 -0.3438 -0.4503
 1010MOL0     H39379   0.314  11.030   9.728  1.8078 -1.3782 -3.0100
 1010MOL0     H39380   0.152  11.079   9.689  0.3431 -1.3092  1.9288
 1011MOL0     O39381   4.601   6.201   3.962  0.3420  0.1748 -1.0545
 1011MOL0     C39382   4.527   6.302   3.979 -0.1574  0.2685  0.2454
 1011MOL0     O39383   4.564   6.417   4.057 -0.4225  0.3710  0.4678
 1011MOL0     C39384   4.650   6.418   4.161 -0.9770  0.1074 -0.0882
 1011MOL0     C39385   4.757   6.325   4.180  0.8868  0.1807  0.5423
 1011MOL0     C39386   4.825   6.328   4.299  0.5129 -0.4376  0.0360
 1011MOL0     C39387   4.812   6.422   4.398 -0.0939 -1.0802  0.0931
 1011MOL0     O39388   4.903   6.423   4.502 -0.1682  0.5896 -0.2115
 1011MOL0     C39389   4.884   6.523   4.601  0.7219 -0.2041 -0.9301
 1011MOL0     C39390   4.965   6.506   4.725 -1.0819 -1.7242  0.3282
 1011MOL0     C39391   4.903   6.597   4.835  0.8614 -0.5040 -0.4152
 1011MOL0     C39392   4.818   6.514   4.938 -0.3044  0.4118  0.2768
 1011MOL0     C39393   4.904   6.414   5.018 -0.0519 -0.5127  0.0730
 1011MOL0     C39394   4.845   6.359   5.149 -0.1946 -0.0702  1.1057
 1011MOL0     C39395   4.925   6.261   5.230  0.6740 -0.7830  1.3742
 1011MOL0     C39396   4.866   6.221   5.372 -0.1023 -0.4985  0.3663
 1011MOL0     N39397   4.938   6.294   5.476  0.2270 -0.4070  0.5256
 1011MOL0     C39398   4.917   6.425   5.499  0.0259  0.3633 -0.0221
 1011MOL0     C39399   4.993   6.451   5.606 -0.2180  0.5252 -0.3097
 1011MOL0     C39400   4.996   6.583   5.680 -0.3966  0.2786  0.2877
 1011MOL0     C39401   5.145   6.638   5.691  0.5203 -0.1024 -0.2495
 1011MOL0     C39402   5.162   6.726   5.814 -0.5254 -0.0477 -0.2090
 1011MOL0     C39403   5.302   6.762   5.853  0.2157 -0.5500 -0.5065
 1011MOL0     O39404   5.361   6.850   5.754  0.3914  0.8305  0.0060
 1011MOL0     C39405   5.493   6.866   5.785 -0.4336 -0.7924 -0.0711
 1011MOL0     C39406   5.561   6.949   5.691  0.2862  0.0545 -0.3514
 1011MOL0     C39407   5.702   6.968   5.687 -0.1126  0.2999  0.2294
 1011MOL0     C39408   5.760   7.048   5.578  0.5178  0.1615  0.0612
 1011MOL0     C39409   5.776   6.913   5.800  0.4666  0.2967  0.5951
 1011MOL0     C39410   5.918   6.920   5.823  0.3538 -0.2244 -0.0524
 1011MOL0     O39411   5.997   6.988   5.728 -0.2599 -0.6450 -0.2201
 1011MOL0     C39412   6.133   7.000   5.749  0.6306  0.7868  0.3685
 1011MOL0     C39413   6.216   6.997   5.638  0.1061  0.1194  0.4400
 1011MOL0     C39414   6.351   7.022   5.650  0.5081  0.4152  0.2049
 1011MOL0     C39415   6.411   7.065   5.772  0.1898 -0.0525  0.3421
 1011MOL0     O39416   6.548   7.088   5.784 -0.0461  0.3190 -0.9569
 1011MOL0     C39417   6.638   7.090   5.668  0.0127  0.0732  0.4211
 1011MOL0     C39418   6.775   7.140   5.724 -0.1871 -0.1159  0.3892
 1011MOL0     C39419   6.892   7.132   5.621 -0.4814 -0.2197 -0.1599
 1011MOL0     C39420   7.020   7.158   5.696  0.2724 -0.0199  0.1874
 1011MOL0     C39421   7.141   7.178   5.599 -0.9473 -0.3653  0.0103
 1011MOL0     C39422   7.272   7.196   5.676 -0.1870  0.1230  0.2574
 1011MOL0     C39423   7.389   7.208   5.581  0.0539 -0.6069 -0.1728
 1011MOL0     C39424   7.521   7.184   5.661  0.4799  0.9319 -0.5458
 1011MOL0    Cl39425   7.661   7.244   5.576  0.2894 -0.5404 -0.0170
 1011MOL0     C39426   6.320   7.076   5.880  0.7188 -1.0903  0.9726
 1011MOL0     C39427   6.181   7.041   5.872 -0.2591 -0.7510  0.1420
 1011MOL0     O39428   5.961   6.845   5.915 -0.8505 -0.0095 -0.3137
 1011MOL0     C39429   5.701   6.845   5.902 -0.9905 -0.1598  0.7976
 1011MOL0     C39430   5.570   6.824   5.892 -0.0989 -0.9697  0.2869
 1011MOL0     N39431   5.068   6.339   5.648  0.3728 -0.3020  0.5694
 1011MOL0     N39432   5.022   6.250   5.566 -0.7426  0.4972 -0.0890
 1011MOL0     C39433   4.692   6.500   4.385  0.3802  0.0792  0.5796
 1011MOL0     C39434   4.619   6.508   4.260 -1.0484 -0.1134 -0.0136
 1011MOL0     C39435   4.412   6.342   3.898  0.2732  0.5938  0.0959
 1011MOL0     C39436   4.344   6.466   3.923  0.1325 -0.0677 -0.3780
 1011MOL0     C39437   4.232   6.501   3.859  0.3333 -0.1039  0.4895
 1011MOL0     C39438   4.188   6.430   3.739  0.1261 -0.1376  0.1601
 1011MOL0     O39439   4.081   6.487   3.673  0.1587  0.7141 -0.2823
 1011MOL0     C39440   4.005   6.402   3.584 -0.4481  0.3734 -0.0773
 1011MOL0     C39441   3.911   6.305   3.650  0.8644 -0.4677  0.2887
 1011MOL0     C39442   3.790   6.374   3.720 -0.9920 -0.3620 -0.3921
 1011MOL0     C39443   3.719   6.282   3.817 -0.1535  0.2119 -0.4576
 1011MOL0     C39444   3.609   6.356   3.884 -0.5053  0.2740  0.5466
 1011MOL0     C39445   3.510   6.409   3.945 -0.6690  0.1666  0.5635
 1011MOL0     C39446   4.256   6.306   3.711  0.5048 -0.2056  0.1525
 1011MOL0     C39447   4.360   6.263   3.791 -0.4798  0.4154 -0.6935
 1011MOL0     C39448   4.419   6.131   3.743 -0.6643 -0.3103  0.5871
 1011MOL0     H39449   4.766   6.233   4.122 -2.5252  0.7403 -1.1322
 1011MOL0     H39450   4.909   6.262   4.322 -0.3905 -1.1640  1.3253
 1011MOL0     H39451   4.779   6.519   4.630  1.1986 -1.2127  0.7704
 1011MOL0     H39452   4.903   6.622   4.558 -0.4476  0.0791 -0.8415
 1011MOL0     H39453   4.954   6.399   4.744  1.4754 -2.7203 -2.9649
 1011MOL0     H39454   5.067   6.533   4.695 -1.6585  0.1740 -0.0370
 1011MOL0     H39455   4.977   6.661   4.885 -2.7946  3.3093  0.7824
 1011MOL0     H39456   4.844   6.671   4.781 -0.9032 -0.7661  1.0608
 1011MOL0     H39457   4.769   6.582   5.009  0.6169  1.9005 -0.4454
 1011MOL0     H39458   4.748   6.449   4.885  0.4536 -0.8405  0.7691
 1011MOL0     H39459   5.001   6.461   5.039 -0.3713 -0.2541  0.9858
 1011MOL0     H39460   4.924   6.323   4.959 -0.1996 -1.8724  2.0289
 1011MOL0     H39461   4.815   6.447   5.207 -1.2002  1.0229 -0.9461
 1011MOL0     H39462   4.756   6.309   5.110  2.1056 -1.1627 -3.4317
 1011MOL0     H39463   5.029   6.293   5.241  0.5863 -1.2279  4.6015
 1011MOL0     H39464   4.935   6.169   5.172 -0.9223 -0.0920 -0.0757
 1011MOL0     H39465   4.757   6.220   5.384 -0.2534 -0.7971 -0.9189
 1011MOL0     H39466   4.897   6.117   5.388  1.6194  0.1940  1.8710
 1011MOL0     H39467   4.837   6.479   5.449 -1.3319 -2.0878 -0.6693
 1011MOL0     H39468   4.952   6.573   5.780 -0.5070  1.6208  0.3855
 1011MOL0     H39469   4.941   6.655   5.620  0.2736 -1.8769 -3.2084
 1011MOL0     H39470   5.208   6.549   5.706  0.3728 -0.4360 -1.4622
 1011MOL0     H39471   5.176   6.692   5.601 -0.7103 -1.3780 -1.4793
 1011MOL0     H39472   5.100   6.815   5.805 -1.2853 -0.6206 -0.8336
 1011MOL0     H39473   5.117   6.676   5.901 -0.1259  0.5733  0.3628
 1011MOL0     H39474   5.287   6.820   5.945 -1.5203  2.3713 -2.4589
 1011MOL0     H39475   5.362   6.671   5.860 -0.8063 -1.2065 -0.0466
 1011MOL0     H39476   5.505   6.990   5.608  1.3309  0.6176 -0.7855
 1011MOL0     H39477   5.689   7.094   5.508  1.2772  1.4784  0.1005
 1011MOL0     H39478   5.834   6.987   5.525  2.6763  0.3006  2.6635
 1011MOL0     H39479   5.818   7.134   5.614  1.1960 -0.0938 -0.3972
 1011MOL0     H39480   6.164   6.966   5.548 -1.5686  0.3500  1.3013
 1011MOL0     H39481   6.412   7.008   5.560 -0.4095  0.5398 -0.4522
 1011MOL0     H39482   6.632   6.993   5.617 -2.3034  0.3277  0.0738
 1011MOL0     H39483   6.618   7.165   5.590  3.0227 -1.7494 -2.3412
 1011MOL0     H39484   6.761   7.246   5.745  0.3560  0.0563 -0.1015
 1011MOL0     H39485   6.813   7.093   5.816 -0.8563  0.1019  0.7872
 1011MOL0     H39486   6.874   7.212   5.548 -0.7237  0.6295  0.8123
 1011MOL0     H39487   6.895   7.036   5.569 -0.0545 -1.0475  1.3436
 1011MOL0     H39488   7.032   7.071   5.762 -1.4980 -0.2225  0.3090
 1011MOL0     H39489   7.004   7.242   5.764 -1.5660 -1.1837  1.3113
 1011MOL0     H39490   7.147   7.083   5.545  1.6775 -0.3595  0.1265
 1011MOL0     H39491   7.134   7.263   5.531  0.0213  0.3892  0.8213
 1011MOL0     H39492   7.283   7.117   5.750  3.2204 -1.8562 -2.1071
 1011MOL0     H39493   7.266   7.292   5.728 -1.5681  0.9871 -1.3763
 1011MOL0     H39494   7.398   7.308   5.536  2.2917 -1.4369 -1.7724
 1011MOL0     H39495   7.369   7.134   5.502 -0.7979 -0.6057  0.0376
 1011MOL0     H39496   7.536   7.078   5.681 -2.0207  0.8102  1.0903
 1011MOL0     H39497   7.532   7.235   5.757 -1.2448  2.0663 -0.9069
 1011MOL0     H39498   6.373   7.126   5.960  0.5354  2.9200 -1.1227
 1011MOL0     H39499   6.124   7.047   5.964  0.1806  2.6129  0.3249
 1011MOL0     H39500   5.744   6.812   5.996 -1.9107  1.4699  1.8549
 1011MOL0     H39501   5.527   6.775   5.979 -0.9297  0.0952  0.5006
 1011MOL0     H39502   4.673   6.583   4.453 -0.2631  0.7821 -0.4258
 1011MOL0     H39503   4.527   6.565   4.248 -3.1030 -2.7284  1.9194
 1011MOL0     H39504   4.360   6.534   4.006 -0.1553 -0.4004 -0.0519
 1011MOL0     H39505   4.177   6.591   3.885 -1.1153 -1.1750  1.2445
 1011MOL0     H39506   3.961   6.470   3.510  0.8465 -0.2519 -1.4804
 1011MOL0     H39507   4.073   6.352   3.514  0.6158  2.0670 -0.3088
 1011MOL0     H39508   3.969   6.234   3.710  1.5648 -0.2337 -0.1006
 1011MOL0     H39509   3.867   6.241   3.572  1.7166 -0.0371 -0.5556
 1011MOL0     H39510   3.824   6.454   3.786  0.8097 -0.3496 -1.2562
 1011MOL0     H39511   3.727   6.420   3.643  3.0762  2.4019 -2.5015
 1011MOL0     H39512   3.779   6.244   3.901 -1.8236  2.0046  1.6922
 1011MOL0     H39513   3.672   6.199   3.763 -0.7139  0.0593  0.2481
 1011MOL0     H39514   3.424   6.461   3.984 -1.7747  0.0969 -1.6162
 1011MOL0     H39515   4.224   6.237   3.633 -1.2052 -1.5767  1.9509
 1011MOL0     H39516   4.526   6.124   3.726 -0.7361 -0.2272  0.0955
 1011MOL0     H39517   4.401   6.042   3.804  2.2871 -2.6198 -1.6250
 1011MOL0     H39518   4.384   6.106   3.643 -0.8528 -1.9708  1.0314
 1012MOL0     O39519   0.980   2.678   7.857 -0.0286 -0.4455 -0.1632
 1012MOL0     C39520   0.908   2.633   7.946 -0.3455 -0.3208 -0.2470
 1012MOL0     O39521   0.952   2.618   8.071 -0.7808  0.0937 -0.6475
 1012MOL0     C39522   1.066   2.686   8.111  0.1597  0.3067  1.0328
 1012MOL0     C39523   1.195   2.618   8.098 -0.5209  0.6778 -0.3136
 1012MOL0     C39524   1.314   2.676   8.142 -0.5307  0.0846  0.4952
 1012MOL0     C39525   1.316   2.796   8.209  0.5177  0.6525  0.0325
 1012MOL0     O39526   1.432   2.855   8.253  0.5988  0.4362  0.3919
 1012MOL0     C39527   1.564   2.812   8.215 -0.0892  0.3430  0.4733
 1012MOL0     C39528   1.664   2.904   8.284 -0.1816  0.3047  0.0690
 1012MOL0     C39529   1.809   2.866   8.254 -0.3678 -0.6739 -0.2464
 1012MOL0     C39530   1.912   2.922   8.359  0.8772 -0.4335 -0.6260
 1012MOL0     C39531   2.066   2.894   8.320 -0.3888 -0.0741  0.6616
 1012MOL0     C39532   2.152   2.925   8.443 -0.1349 -0.8881  0.0440
 1012MOL0     C39533   2.301   2.908   8.409  0.1650  0.1855  0.1201
 1012MOL0     C39534   2.357   2.771   8.445 -0.7790  0.3711 -0.3610
 1012MOL0     N39535   2.487   2.744   8.391  0.4447 -0.3002  0.1473
 1012MOL0     C39536   2.520   2.621   8.347 -0.2168  0.9998  0.0721
 1012MOL0     C39537   2.635   2.638   8.279 -0.1375 -0.0495  0.9018
 1012MOL0     C39538   2.701   2.525   8.206  0.1041 -0.1701 -0.0941
 1012MOL0     C39539   2.851   2.543   8.181  0.3916 -0.3778  1.5005
 1012MOL0     C39540   2.934   2.516   8.310 -0.8256  0.2424 -0.1013
 1012MOL0     C39541   3.079   2.547   8.294  0.1809  0.0722  1.1570
 1012MOL0     O39542   3.160   2.523   8.412  0.4307  0.1870  0.8594
 1012MOL0     C39543   3.197   2.640   8.471  0.6642 -0.7602  1.1041
 1012MOL0     C39544   3.105   2.743   8.504 -0.1286  0.6950 -0.0988
 1012MOL0     C39545   3.149   2.866   8.551  0.2123  0.4818 -0.0203
 1012MOL0     C39546   3.032   2.952   8.591  0.2426  0.0563  0.4626
 1012MOL0     C39547   3.282   2.893   8.568 -0.8227  0.4976 -0.0429
 1012MOL0     C39548   3.326   3.025   8.626  0.6723 -0.0535 -0.3099
 1012MOL0     O39549   3.250   3.081   8.725  0.3720  0.0549  0.3076
 1012MOL0     C39550   3.290   3.210   8.773  0.4761  0.4727 -0.4991
 1012MOL0     C39551   3.269   3.319   8.688 -0.3702 -0.1895 -0.4291
 1012MOL0     C39552   3.293   3.448   8.741  0.4099 -0.4011 -0.5399
 1012MOL0     C39553   3.330   3.470   8.870 -0.6033  0.0386  0.1965
 1012MOL0     O39554   3.362   3.598   8.906 -0.0191 -0.0571  0.1899
 1012MOL0     C39555   3.486   3.657   8.861  0.0496  0.2335  0.2906
 1012MOL0     C39556   3.486   3.809   8.898 -0.6930 -0.6588  0.2053
 1012MOL0     C39557   3.412   3.899   8.796  0.1909 -0.7381 -0.4607
 1012MOL0     C39558   3.405   4.044   8.854  0.0789  0.4265  0.5172
 1012MOL0     C39559   3.296   4.122   8.767  0.3518  0.3762 -0.0193
 1012MOL0     C39560   3.341   4.141   8.627  0.6327  0.3148  0.8995
 1012MOL0     C39561   3.238   4.233   8.552  0.7453 -0.4171  0.1068
 1012MOL0     C39562   3.280   4.266   8.416  0.1794  0.8131  2.0623
 1012MOL0    Cl39563   3.407   4.392   8.425  0.1526  0.1330 -0.4151
 1012MOL0     C39564   3.361   3.361   8.944  0.1303  0.3803 -0.4563
 1012MOL0     C39565   3.332   3.232   8.905 -0.4756 -0.4890  0.3645
 1012MOL0     O39566   3.436   3.063   8.594 -0.0557  0.0341  1.0211
 1012MOL0     C39567   3.388   2.801   8.533 -0.2434  0.6448 -0.3931
 1012MOL0     C39568   3.335   2.674   8.479 -0.2939 -0.3924  0.4317
 1012MOL0     N39569   2.675   2.776   8.290  0.6426  0.1284  0.0976
 1012MOL0     N39570   2.586   2.834   8.364 -0.5198  0.3656  0.4709
 1012MOL0     C39571   1.189   2.860   8.217 -0.7006 -0.2273  0.5645
 1012MOL0     C39572   1.069   2.812   8.163  0.1530 -0.2743 -0.3629
 1012MOL0     C39573   0.773   2.587   7.914  0.6522  0.2937 -0.3888
 1012MOL0     C39574   0.695   2.547   8.023 -0.4958  0.0124  0.2830
 1012MOL0     C39575   0.568   2.487   8.013  0.2585  0.0484 -0.3743
 1012MOL0     C39576   0.523   2.456   7.879 -0.4208 -0.2638 -0.2236
 1012MOL0     O39577   0.395   2.396   7.859 -0.1045  0.4187 -0.4416
 1012MOL0     C39578   0.287   2.421   7.963  0.2705 -0.1851  0.9739
 1012MOL0     C39579   0.250   2.570   7.970 -0.6561 -0.8993  0.0879
 1012MOL0     C39580   0.132   2.601   8.054  0.1412  0.7020  0.4910
 1012MOL0     C39581   0.008   2.517   8.018  0.2204  0.6206  0.0303
 1012MOL0     C39582  -0.036   2.562   7.882  0.0445  0.6202  0.1285
 1012MOL0     C39583  -0.076   2.569   7.768  0.7644  0.1739  0.3328
 1012MOL0     C39584   0.595   2.504   7.768  0.1867 -0.0247  0.3585
 1012MOL0     C39585   0.716   2.575   7.782 -0.3519  0.0317 -0.9883
 1012MOL0     C39586   0.782   2.635   7.658 -0.6998  0.3884 -1.2247
 1012MOL0     H39587   1.195   2.516   8.062 -3.0923 -0.2282  1.9340
 1012MOL0     H39588   1.410   2.626   8.130 -0.1464  1.1401 -1.0421
 1012MOL0     H39589   1.586   2.813   8.107  2.0529  0.0477  0.8536
 1012MOL0     H39590   1.586   2.707   8.238 -0.4972 -0.0975 -1.0103
 1012MOL0     H39591   1.640   3.006   8.252  0.7968 -0.5891 -4.2511
 1012MOL0     H39592   1.659   2.904   8.393  2.8433  2.8667  0.3386
 1012MOL0     H39593   1.815   2.758   8.266  1.5156 -0.4459  1.4310
 1012MOL0     H39594   1.839   2.898   8.153  2.9137 -2.0458  0.1427
 1012MOL0     H39595   1.887   3.025   8.386  0.2529 -0.7728  0.1168
 1012MOL0     H39596   1.882   2.861   8.445 -1.3868  1.1144 -0.2282
 1012MOL0     H39597   2.096   2.956   8.235 -2.5307  1.8363  1.1891
 1012MOL0     H39598   2.070   2.789   8.289 -0.8408  0.5062 -1.5179
 1012MOL0     H39599   2.130   3.030   8.467  1.4811 -0.1795 -1.3015
 1012MOL0     H39600   2.133   2.858   8.527  0.0349 -1.2422 -0.1975
 1012MOL0     H39601   2.358   2.981   8.468  1.0447 -1.2427  1.1158
 1012MOL0     H39602   2.307   2.923   8.301 -4.5253  0.6451 -0.2794
 1012MOL0     H39603   2.363   2.788   8.553  1.8307  2.2050 -0.6954
 1012MOL0     H39604   2.286   2.694   8.414 -0.6710 -0.2213  0.7987
 1012MOL0     H39605   2.448   2.540   8.352  1.6595 -0.7773 -0.6678
 1012MOL0     H39606   2.666   2.524   8.102  2.6610  1.3248 -1.0619
 1012MOL0     H39607   2.676   2.433   8.258  1.6391 -0.4934  0.1230
 1012MOL0     H39608   2.877   2.491   8.089 -3.9069  2.0172 -1.4400
 1012MOL0     H39609   2.872   2.648   8.156  1.1199 -1.0696 -1.0486
 1012MOL0     H39610   2.902   2.577   8.394  1.6050 -0.5407  1.5223
 1012MOL0     H39611   2.922   2.414   8.346 -0.0901  1.0609  2.6631
 1012MOL0     H39612   3.113   2.480   8.214  0.7775 -0.0009  1.4694
 1012MOL0     H39613   3.098   2.645   8.250  2.3561 -0.9922 -0.4685
 1012MOL0     H39614   2.998   2.732   8.493 -0.3724  2.0911  0.5968
 1012MOL0     H39615   3.019   2.948   8.699 -2.1333 -0.6169  0.2134
 1012MOL0     H39616   2.932   2.928   8.553 -0.4730 -0.2394  2.3873
 1012MOL0     H39617   3.055   3.057   8.571  0.4949  0.1166  1.0402
 1012MOL0     H39618   3.219   3.307   8.593  0.5285 -1.4858 -0.7630
 1012MOL0     H39619   3.264   3.525   8.671 -0.9482 -0.3279  0.0689
 1012MOL0     H39620   3.562   3.598   8.912 -1.7967  0.4072  3.4785
 1012MOL0     H39621   3.500   3.653   8.752 -3.2385  0.9856 -0.2679
 1012MOL0     H39622   3.449   3.813   9.001 -0.4403  2.0852  0.2786
 1012MOL0     H39623   3.587   3.850   8.909 -0.7512 -0.4307 -0.1024
 1012MOL0     H39624   3.310   3.863   8.782 -0.1550  1.1257 -4.0941
 1012MOL0     H39625   3.461   3.901   8.698  0.3042  1.7614 -0.4317
 1012MOL0     H39626   3.499   4.100   8.841  0.7040 -0.1056  2.3894
 1012MOL0     H39627   3.382   4.036   8.961 -1.9444 -3.2203 -0.0449
 1012MOL0     H39628   3.200   4.073   8.782  1.2838 -1.1123  1.4314
 1012MOL0     H39629   3.301   4.219   8.818  4.9861  0.1823  0.3122
 1012MOL0     H39630   3.347   4.043   8.577  1.5186  0.5310  0.5575
 1012MOL0     H39631   3.444   4.176   8.613  1.6040 -1.9734  1.8780
 1012MOL0     H39632   3.235   4.327   8.606  0.6296 -1.0541  1.2398
 1012MOL0     H39633   3.139   4.186   8.559  1.2391 -1.3025  1.5684
 1012MOL0     H39634   3.198   4.304   8.354  0.5196 -3.3900 -1.4131
 1012MOL0     H39635   3.315   4.181   8.358  0.6154  1.4189  1.4208
 1012MOL0     H39636   3.393   3.374   9.047 -3.2014  1.5568  0.5619
 1012MOL0     H39637   3.341   3.148   8.974  0.5996 -0.2509  0.5225
 1012MOL0     H39638   3.496   2.810   8.533 -0.2374  0.6570  0.7182
 1012MOL0     H39639   3.409   2.596   8.461  0.6734  0.3912  0.9047
 1012MOL0     H39640   1.179   2.957   8.264  2.8288  0.1470  0.7745
 1012MOL0     H39641   0.978   2.871   8.159  0.0459 -0.4465 -4.0187
 1012MOL0     H39642   0.735   2.550   8.124 -1.9400 -1.8848  0.9773
 1012MOL0     H39643   0.504   2.448   8.091 -0.3277 -0.2741 -1.0096
 1012MOL0     H39644   0.196   2.369   7.933 -1.2739  2.2722  1.1228
 1012MOL0     H39645   0.309   2.377   8.061  0.0979 -1.0101  0.6454
 1012MOL0     H39646   0.236   2.608   7.869  2.7180 -0.9513 -0.5369
 1012MOL0     H39647   0.328   2.637   8.009 -1.0005  1.1924 -2.5282
 1012MOL0     H39648   0.167   2.584   8.156  0.0538 -0.5587  0.3280
 1012MOL0     H39649   0.107   2.707   8.049 -2.2301  0.1887  0.3083
 1012MOL0     H39650  -0.078   2.540   8.082 -1.7944 -0.4906 -2.1503
 1012MOL0     H39651   0.027   2.410   8.032 -0.5826  0.4957  0.1977
 1012MOL0     H39652  -0.107   2.557   7.667  4.7284  0.6886 -1.1064
 1012MOL0     H39653   0.555   2.475   7.672  0.3818  0.3839  0.1522
 1012MOL0     H39654   0.889   2.613   7.652 -0.2180  2.4606 -1.0067
 1012MOL0     H39655   0.749   2.600   7.560 -0.5282  1.7327 -1.7792
 1012MOL0     H39656   0.771   2.743   7.652 -0.6790  0.3982 -1.0978
 1013MOL0     O39657   4.297   1.331   0.990  0.2325 -0.2585 -0.0344
 1013MOL0     C39658   4.337   1.363   0.880  0.5428 -0.3204 -0.1902
 1013MOL0     O39659   4.452   1.427   0.852 -0.4472  0.1781  0.4659
 1013MOL0     C39660   4.553   1.421   0.941  0.3416  0.7666  0.3419
 1013MOL0     C39661   4.573   1.508   1.045  0.2791 -0.0938  0.0199
 1013MOL0     C39662   4.665   1.482   1.141  0.2275 -0.4688 -0.4949
 1013MOL0     C39663   4.746   1.369   1.148 -0.1794 -0.5621 -0.1841
 1013MOL0     O39664   4.849   1.335   1.232  0.2788 -0.4987 -0.4276
 1013MOL0     C39665   4.934   1.439   1.279 -0.1101  0.6844  0.0841
 1013MOL0     C39666   5.018   1.373   1.379 -0.3235 -0.7131 -0.0160
 1013MOL0     C39667   5.139   1.455   1.422  0.3823 -0.5288  0.3006
 1013MOL0     C39668   5.271   1.382   1.462 -0.1446 -0.5379 -0.2550
 1013MOL0     C39669   5.370   1.477   1.526  1.1581  0.4398 -0.1185
 1013MOL0     C39670   5.504   1.396   1.555  0.5993 -0.1527 -0.7409
 1013MOL0     C39671   5.630   1.480   1.584 -1.1144 -0.5102  0.0602
 1013MOL0     C39672   5.694   1.542   1.459 -0.3184 -0.8224 -0.6724
 1013MOL0     N39673   5.795   1.646   1.488  0.2996 -0.3051  0.2286
 1013MOL0     C39674   5.792   1.758   1.561 -0.2474  0.0325 -0.3012
 1013MOL0     C39675   5.919   1.811   1.570 -0.4732  0.7308  0.4777
 1013MOL0     C39676   5.971   1.936   1.642  0.1001  0.1793  0.3380
 1013MOL0     C39677   6.078   1.882   1.738 -0.6918  0.4611 -0.1526
 1013MOL0     C39678   6.129   1.998   1.818 -0.3187 -0.6335  0.2146
 1013MOL0     C39679   6.233   1.959   1.928  0.9513 -1.2385 -0.4971
 1013MOL0     O39680   6.354   1.950   1.855  0.5526 -0.1940  0.1244
 1013MOL0     C39681   6.478   1.927   1.923  0.0717 -0.2368  0.3149
 1013MOL0     C39682   6.594   1.940   1.852  0.8323  0.4143 -0.2667
 1013MOL0     C39683   6.723   1.915   1.908 -0.1439 -0.2841 -0.4769
 1013MOL0     C39684   6.846   1.947   1.822  0.7327  0.7769 -0.0787
 1013MOL0     C39685   6.730   1.857   2.043 -0.1400  0.3622  0.7257
 1013MOL0     C39686   6.851   1.822   2.123  0.7048 -0.2813  1.1981
 1013MOL0     O39687   6.829   1.778   2.251 -0.1133 -0.3734 -0.8446
 1013MOL0     C39688   6.927   1.734   2.329 -0.6683 -0.6907 -0.0671
 1013MOL0     C39689   6.925   1.784   2.455 -0.2593  0.3121  0.0464
 1013MOL0     C39690   7.031   1.745   2.542 -0.0315  0.5495  0.1462
 1013MOL0     C39691   7.120   1.649   2.501  0.0464  0.2273  0.0878
 1013MOL0     O39692   7.222   1.610   2.591 -0.3428  0.2047 -0.8816
 1013MOL0     C39693   7.352   1.637   2.545  0.1977  0.2092 -1.2406
 1013MOL0     C39694   7.453   1.621   2.660  0.0812 -0.0207 -0.0757
 1013MOL0     C39695   7.454   1.479   2.719  0.4234 -0.8018  0.3984
 1013MOL0     C39696   7.478   1.370   2.613 -0.4099 -0.3990  0.2988
 1013MOL0     C39697   7.483   1.224   2.674  0.0560  0.8844  0.3209
 1013MOL0     C39698   7.446   1.115   2.569  0.1661 -0.0925  0.4164
 1013MOL0     C39699   7.456   0.968   2.611  0.4055 -0.0568 -0.2033
 1013MOL0     C39700   7.599   0.928   2.641  0.8073 -0.5669  0.5291
 1013MOL0    Cl39701   7.607   0.757   2.676 -0.1759  0.0098  0.2133
 1013MOL0     C39702   7.105   1.590   2.378 -0.3665  0.3140 -0.0503
 1013MOL0     C39703   7.010   1.634   2.286 -0.0196  0.9774 -0.4034
 1013MOL0     O39704   6.967   1.839   2.075 -0.5734 -0.4578 -0.7160
 1013MOL0     C39705   6.606   1.840   2.107  0.7368 -0.6752 -0.0738
 1013MOL0     C39706   6.487   1.887   2.056  0.1662 -0.2045  0.2831
 1013MOL0     N39707   5.992   1.732   1.481 -0.2720  0.1676  0.8098
 1013MOL0     N39708   5.924   1.633   1.436 -0.3143 -0.2706 -0.4977
 1013MOL0     C39709   4.732   1.282   1.039 -0.4237  0.2571 -0.2728
 1013MOL0     C39710   4.635   1.298   0.937  0.3259  0.1618 -0.1884
 1013MOL0     C39711   4.272   1.293   0.778  0.1099 -0.4033 -0.0913
 1013MOL0     C39712   4.281   1.150   0.775  0.6406  1.1236 -0.1057
 1013MOL0     C39713   4.212   1.076   0.682  0.0160  0.6038  0.6348
 1013MOL0     C39714   4.146   1.143   0.576 -0.0224 -1.2221  0.4578
 1013MOL0     O39715   4.078   1.094   0.470  0.1280  0.0346  0.0277
 1013MOL0     C39716   3.959   1.011   0.497 -0.7124 -0.7307 -0.3513
 1013MOL0     C39717   3.855   1.083   0.579  0.2549  0.9844  0.1477
 1013MOL0     C39718   3.732   0.993   0.587  1.3412 -0.4310 -0.0791
 1013MOL0     C39719   3.619   1.073   0.661  0.3618  0.3098  0.1226
 1013MOL0     C39720   3.489   1.007   0.638 -0.2386 -0.2512  1.0009
 1013MOL0     C39721   3.379   0.958   0.603 -0.2812  0.1259  0.1618
 1013MOL0     C39722   4.143   1.284   0.578  0.0651  0.3393 -0.2728
 1013MOL0     C39723   4.197   1.357   0.676  0.7179 -0.8435 -0.5733
 1013MOL0     C39724   4.151   1.504   0.690  0.6208 -0.1782 -0.1110
 1013MOL0     H39725   4.510   1.594   1.060  0.5616  0.5324 -2.0172
 1013MOL0     H39726   4.685   1.562   1.213  2.3606 -1.3103 -0.0806
 1013MOL0     H39727   4.883   1.529   1.315  1.5901  2.0912 -0.8692
 1013MOL0     H39728   4.998   1.466   1.195 -2.5528  2.0055 -1.4679
 1013MOL0     H39729   4.954   1.349   1.464 -2.7843 -0.1043 -1.6084
 1013MOL0     H39730   5.064   1.280   1.344  1.6053 -0.7261  2.2689
 1013MOL0     H39731   5.171   1.531   1.350 -0.7592  0.0560  0.3915
 1013MOL0     H39732   5.103   1.514   1.507  1.2663 -1.0766  1.0759
 1013MOL0     H39733   5.239   1.298   1.526  1.5768  0.6229  2.2749
 1013MOL0     H39734   5.317   1.335   1.375  0.8482  1.1050 -0.6467
 1013MOL0     H39735   5.330   1.514   1.621 -2.5340  4.6227 -2.9073
 1013MOL0     H39736   5.376   1.564   1.460 -0.2577  0.9349  0.3778
 1013MOL0     H39737   5.485   1.349   1.652  1.7673  0.0618 -0.3847
 1013MOL0     H39738   5.537   1.323   1.480 -2.1058 -1.3629 -0.8541
 1013MOL0     H39739   5.707   1.411   1.619  0.0232  1.2539  1.1956
 1013MOL0     H39740   5.615   1.561   1.655 -0.8855 -0.4491  0.0387
 1013MOL0     H39741   5.735   1.463   1.396  3.4075 -2.7969  3.6890
 1013MOL0     H39742   5.603   1.588   1.417 -1.2215  0.1074  2.1068
 1013MOL0     H39743   5.705   1.782   1.621 -0.7108 -2.4799  0.1387
 1013MOL0     H39744   5.895   1.991   1.699 -0.1901 -0.1406  0.2629
 1013MOL0     H39745   6.009   1.999   1.562  1.2708 -0.6507  0.2017
 1013MOL0     H39746   6.044   1.798   1.798  0.3188 -0.5881 -0.9866
 1013MOL0     H39747   6.163   1.839   1.684 -0.6374  1.9959 -1.3929
 1013MOL0     H39748   6.157   2.073   1.744 -3.0080  1.6971  1.3767
 1013MOL0     H39749   6.048   2.041   1.878  2.0672 -1.4274  4.3856
 1013MOL0     H39750   6.246   2.047   1.991 -0.4672  0.5487 -2.5634
 1013MOL0     H39751   6.200   1.867   1.979  1.1112 -0.8806  0.2691
 1013MOL0     H39752   6.596   1.983   1.752  0.2194 -0.5158 -0.6874
 1013MOL0     H39753   6.815   1.997   1.730 -2.0571  3.2939  2.0376
 1013MOL0     H39754   6.903   1.857   1.798 -0.0441 -0.2709  1.7595
 1013MOL0     H39755   6.917   2.012   1.874  0.0702  1.2845  0.2165
 1013MOL0     H39756   6.855   1.858   2.490  1.2383  2.2344 -0.8594
 1013MOL0     H39757   7.037   1.798   2.637 -1.9398  2.5971 -0.7750
 1013MOL0     H39758   7.385   1.572   2.463 -0.1793  0.7407 -1.8233
 1013MOL0     H39759   7.354   1.743   2.517  2.6595  1.4286  2.7595
 1013MOL0     H39760   7.545   1.665   2.621 -2.7429  2.7145 -4.5247
 1013MOL0     H39761   7.416   1.691   2.737  2.0994  0.0976  0.8500
 1013MOL0     H39762   7.359   1.457   2.769  0.8025 -2.4266  0.4761
 1013MOL0     H39763   7.529   1.478   2.800  0.1841 -2.8156  0.6464
 1013MOL0     H39764   7.574   1.389   2.563  1.1365 -1.7030  2.5795
 1013MOL0     H39765   7.403   1.372   2.533 -0.7699  0.3132  0.6508
 1013MOL0     H39766   7.585   1.207   2.710  0.4342 -1.7637 -1.6905
 1013MOL0     H39767   7.412   1.213   2.756  0.5795 -1.2936  0.5490
 1013MOL0     H39768   7.489   1.143   2.473 -0.4908 -0.5501 -0.0205
 1013MOL0     H39769   7.337   1.125   2.558  0.2221  0.4686  0.3345
 1013MOL0     H39770   7.425   0.894   2.536 -3.4099  2.1731 -1.0958
 1013MOL0     H39771   7.386   0.952   2.693 -2.9123 -0.0747 -2.8121
 1013MOL0     H39772   7.637   0.992   2.721 -0.6535  3.2606 -1.5701
 1013MOL0     H39773   7.657   0.953   2.552  0.4370 -0.2755  0.3688
 1013MOL0     H39774   7.168   1.507   2.347 -2.1794 -0.5575 -1.6376
 1013MOL0     H39775   7.007   1.597   2.184  3.9963 -0.8518 -0.0437
 1013MOL0     H39776   6.604   1.797   2.207  4.3769 -1.5581 -0.2488
 1013MOL0     H39777   6.403   1.896   2.123  0.3399 -2.1782  0.8392
 1013MOL0     H39778   4.789   1.191   1.027 -1.6157 -0.7254  1.1932
 1013MOL0     H39779   4.616   1.228   0.856 -3.2832  0.2243  0.4791
 1013MOL0     H39780   4.342   1.092   0.844  0.0545 -1.2778 -1.4932
 1013MOL0     H39781   4.210   0.967   0.683 -0.0304  0.5886 -0.2829
 1013MOL0     H39782   3.909   0.991   0.402 -2.8495 -1.2571  0.7967
 1013MOL0     H39783   3.983   0.911   0.537 -1.4738 -0.6791  0.2657
 1013MOL0     H39784   3.830   1.181   0.535 -1.6298 -0.2441 -1.7467
 1013MOL0     H39785   3.883   1.112   0.681  0.9322  2.2203 -0.3701
 1013MOL0     H39786   3.709   0.967   0.484 -0.8181  3.8201 -0.8845
 1013MOL0     H39787   3.759   0.911   0.655 -0.5036  0.0280  1.2849
 1013MOL0     H39788   3.623   1.181   0.639  3.4832  1.2861  4.2516
 1013MOL0     H39789   3.650   1.071   0.766 -1.2203  2.7092  0.7386
 1013MOL0     H39790   3.285   0.927   0.562 -0.6540  0.1740  0.9711
 1013MOL0     H39791   4.089   1.327   0.494 -1.1205 -0.9866 -0.2426
 1013MOL0     H39792   4.200   1.560   0.770  0.9926 -0.3274 -0.2316
 1013MOL0     H39793   4.166   1.552   0.593  0.2515 -1.9359 -1.0728
 1013MOL0     H39794   4.045   1.510   0.714  0.5864  0.6878 -0.4536
 1014MOL0     O39795   0.356   2.758   4.570 -0.0125  0.4036  0.0238
 1014MOL0     C39796   0.347   2.689   4.464 -0.2797  0.2357 -1.2411
 1014MOL0     O39797   0.446   2.644   4.379 -0.0450 -0.4299  0.1587
 1014MOL0     C39798   0.575   2.688   4.405 -0.2981 -0.6229 -0.3332
 1014MOL0     C39799   0.639   2.649   4.521 -0.1189 -0.2653 -0.3000
 1014MOL0     C39800   0.765   2.681   4.551  1.1484 -1.0718  0.5710
 1014MOL0     C39801   0.839   2.765   4.467 -0.7484 -0.1429  0.6729
 1014MOL0     O39802   0.970   2.803   4.512  0.6903 -0.7700  0.2467
 1014MOL0     C39803   1.060   2.854   4.418  0.4459  0.3150  0.4042
 1014MOL0     C39804   1.197   2.884   4.479 -0.2055 -0.2772 -0.5291
 1014MOL0     C39805   1.290   2.924   4.370 -0.1286  0.1874 -0.1161
 1014MOL0     C39806   1.438   2.874   4.394  0.4634  0.7122 -0.5226
 1014MOL0     C39807   1.519   2.863   4.266 -0.0658 -0.4437  0.0358
 1014MOL0     C39808   1.654   2.824   4.296 -0.2495  0.1605  0.5267
 1014MOL0     C39809   1.744   2.843   4.177 -0.2596 -0.7817 -0.0331
 1014MOL0     C39810   1.896   2.842   4.223  0.5433 -0.3867 -0.0091
 1014MOL0     N39811   1.957   2.714   4.186  0.1744  0.1048 -0.3257
 1014MOL0     C39812   1.926   2.591   4.244  0.0014 -0.3756  0.4678
 1014MOL0     C39813   1.955   2.497   4.153  0.8804  0.3033 -0.1718
 1014MOL0     C39814   1.932   2.348   4.167  1.0415 -0.1498  0.3705
 1014MOL0     C39815   1.783   2.312   4.132  0.4771  0.2838  0.1299
 1014MOL0     C39816   1.685   2.370   4.245  0.7867  0.3834  0.7524
 1014MOL0     C39817   1.535   2.326   4.220 -1.2712  0.8795  0.0925
 1014MOL0     O39818   1.429   2.401   4.291 -0.4694  0.2091 -0.1432
 1014MOL0     C39819   1.300   2.355   4.269 -0.2993  0.5870  1.0445
 1014MOL0     C39820   1.200   2.409   4.346  0.0276 -0.1541  0.8036
 1014MOL0     C39821   1.061   2.371   4.330 -0.0692  0.7190  0.4444
 1014MOL0     C39822   0.954   2.459   4.411 -0.5063 -0.4208 -0.0091
 1014MOL0     C39823   1.025   2.271   4.238  0.0197 -0.3069  0.8414
 1014MOL0     C39824   0.889   2.229   4.197 -0.6187  0.7908  1.4788
 1014MOL0     O39825   0.791   2.287   4.257  0.2940 -0.3868  0.5048
 1014MOL0     C39826   0.664   2.282   4.207  0.6587 -0.2030  0.4206
 1014MOL0     C39827   0.591   2.399   4.168 -0.5014 -1.2033 -1.5161
 1014MOL0     C39828   0.457   2.391   4.133 -0.5513  0.8029  0.1628
 1014MOL0     C39829   0.381   2.283   4.163  0.2711  0.5122 -0.6679
 1014MOL0     O39830   0.252   2.294   4.133 -0.2746  0.0335 -0.5617
 1014MOL0     C39831   0.177   2.172   4.118 -0.8007 -0.4939 -0.6702
 1014MOL0     C39832   0.054   2.208   4.045 -0.3090 -0.6741 -0.5866
 1014MOL0     C39833  -0.046   2.098   4.037  0.4916  0.1254  0.0544
 1014MOL0     C39834  -0.007   1.992   3.936 -0.2125  0.2113  0.1266
 1014MOL0     C39835  -0.125   1.894   3.903 -0.2892  0.1596  0.0570
 1014MOL0     C39836  -0.088   1.784   3.802 -0.1377  0.6037 -0.0450
 1014MOL0     C39837  -0.224   1.714   3.758  0.1930  0.7902 -0.8497
 1014MOL0     C39838  -0.300   1.793   3.661 -0.2608  0.2133  0.2857
 1014MOL0    Cl39839  -0.196   1.831   3.523  0.0427  0.2371 -0.1383
 1014MOL0     C39840   0.449   2.175   4.230  0.5471 -0.4728 -0.5236
 1014MOL0     C39841   0.590   2.168   4.249 -0.1008  0.6010  0.7618
 1014MOL0     O39842   0.874   2.163   4.094  0.5120  0.2786 -0.0629
 1014MOL0     C39843   1.129   2.217   4.160 -0.0572 -0.1163  1.0932
 1014MOL0     C39844   1.263   2.252   4.178  0.3471 -0.6521  0.1686
 1014MOL0     N39845   2.010   2.560   4.051  0.2667  0.2217  0.6257
 1014MOL0     N39846   2.013   2.685   4.071  0.1852  0.0981  0.0846
 1014MOL0     C39847   0.783   2.801   4.343  0.6195 -0.0680  0.3118
 1014MOL0     C39848   0.653   2.754   4.311 -0.7245 -0.4292 -0.0958
 1014MOL0     C39849   0.214   2.646   4.412  0.5106  0.6555  0.3750
 1014MOL0     C39850   0.192   2.643   4.274  0.2018 -0.0816  0.8141
 1014MOL0     C39851   0.070   2.611   4.212  0.8311  0.9079 -0.4237
 1014MOL0     C39852  -0.042   2.572   4.290 -0.5359  1.3828  0.6157
 1014MOL0     O39853  -0.160   2.534   4.230 -0.5217 -0.2776 -0.1325
 1014MOL0     C39854  -0.273   2.496   4.316  0.9159  0.2554 -0.3555
 1014MOL0     C39855  -0.397   2.466   4.239 -0.4243  0.3075  0.5707
 1014MOL0     C39856  -0.380   2.355   4.138 -0.1248  0.2573  0.4752
 1014MOL0     C39857  -0.510   2.324   4.058 -0.5170 -0.1886  0.1348
 1014MOL0     C39858  -0.479   2.225   3.952 -0.6820 -0.2228 -0.4237
 1014MOL0     C39859  -0.436   2.139   3.876  0.7763  0.6761 -0.2945
 1014MOL0     C39860  -0.024   2.571   4.429  0.1843 -0.1546 -0.6657
 1014MOL0     C39861   0.100   2.602   4.495 -0.0319  0.3809  0.9801
 1014MOL0     C39862   0.114   2.595   4.643  0.5365 -0.4164  0.7567
 1014MOL0     H39863   0.585   2.594   4.598 -1.1110 -0.7214 -1.2811
 1014MOL0     H39864   0.803   2.653   4.649 -0.3599 -0.5796  1.3227
 1014MOL0     H39865   1.023   2.946   4.372  3.5197  1.5368  0.1315
 1014MOL0     H39866   1.061   2.777   4.340 -2.9014 -0.1148  0.6495
 1014MOL0     H39867   1.189   2.965   4.552  2.0503  0.0054 -0.5292
 1014MOL0     H39868   1.244   2.799   4.531  2.7557  1.5472  0.0068
 1014MOL0     H39869   1.264   2.874   4.276 -0.5423 -0.9586  0.5816
 1014MOL0     H39870   1.284   3.033   4.361 -0.4199  0.1018 -1.1012
 1014MOL0     H39871   1.488   2.952   4.452  0.2296  0.6019 -0.1717
 1014MOL0     H39872   1.454   2.779   4.445  0.0653  1.6232  1.3814
 1014MOL0     H39873   1.509   2.957   4.212 -0.6443 -0.6968 -0.3128
 1014MOL0     H39874   1.480   2.795   4.190 -0.6014  0.2467 -0.3115
 1014MOL0     H39875   1.704   2.897   4.360  1.3932  1.4003 -2.0108
 1014MOL0     H39876   1.665   2.727   4.343  0.6764 -0.8660 -1.6565
 1014MOL0     H39877   1.722   2.939   4.129 -0.1823 -0.6257  0.2400
 1014MOL0     H39878   1.720   2.773   4.097  0.2174 -0.7252 -0.2289
 1014MOL0     H39879   1.946   2.930   4.181 -1.7159  0.2074 -1.6470
 1014MOL0     H39880   1.899   2.845   4.332 -1.9141  2.8696  0.1357
 1014MOL0     H39881   1.868   2.567   4.333 -0.4154 -3.3183 -0.5094
 1014MOL0     H39882   1.955   2.298   4.262 -0.5531  0.0253  0.8690
 1014MOL0     H39883   2.001   2.294   4.102  2.3645  0.4234  1.2538
 1014MOL0     H39884   1.754   2.343   4.031 -0.1256 -0.1651  0.1644
 1014MOL0     H39885   1.772   2.204   4.128 -3.0259  0.4874  1.1808
 1014MOL0     H39886   1.706   2.333   4.346  0.5489 -3.5782 -0.4666
 1014MOL0     H39887   1.673   2.479   4.241 -0.6419  0.2432  0.7201
 1014MOL0     H39888   1.512   2.357   4.117  0.3173 -0.5230 -0.7249
 1014MOL0     H39889   1.531   2.217   4.221  1.2111  0.7540  0.6492
 1014MOL0     H39890   1.220   2.484   4.423 -1.8800  2.1952 -0.8305
 1014MOL0     H39891   1.001   2.536   4.473  0.0941  0.4097 -1.4669
 1014MOL0     H39892   0.894   2.391   4.473 -0.9611 -1.1583 -1.2293
 1014MOL0     H39893   0.892   2.520   4.345  0.0038  2.2760  1.8391
 1014MOL0     H39894   0.634   2.496   4.146 -1.6683 -0.4261 -0.4610
 1014MOL0     H39895   0.396   2.464   4.080 -3.2574 -1.0602  0.4566
 1014MOL0     H39896   0.229   2.099   4.055 -3.5198 -3.0056 -0.2542
 1014MOL0     H39897   0.156   2.131   4.217  2.0004  1.1790  0.7554
 1014MOL0     H39898  -0.003   2.288   4.094 -2.2665 -2.2057 -0.2354
 1014MOL0     H39899   0.079   2.239   3.943 -0.7719  1.2057 -0.1706
 1014MOL0     H39900  -0.141   2.137   4.000  0.2231 -0.4965  0.0736
 1014MOL0     H39901  -0.062   2.060   4.139  0.8338 -0.1443  0.0093
 1014MOL0     H39902   0.073   1.945   3.993  2.5519  2.4781 -1.6432
 1014MOL0     H39903   0.043   2.034   3.848 -1.1508 -2.4026 -1.8016
 1014MOL0     H39904  -0.164   1.844   3.992  1.5007 -0.9233  0.2797
 1014MOL0     H39905  -0.210   1.951   3.865 -2.3509 -1.2563  2.2903
 1014MOL0     H39906  -0.016   1.714   3.845  0.1216  2.3005  2.5102
 1014MOL0     H39907  -0.033   1.835   3.722  1.3878  1.7620  1.6775
 1014MOL0     H39908  -0.284   1.688   3.846  0.5578 -3.6102 -1.6899
 1014MOL0     H39909  -0.208   1.621   3.703 -0.9958  1.7631 -2.9529
 1014MOL0     H39910  -0.341   1.885   3.703  0.1675 -0.0246  1.2306
 1014MOL0     H39911  -0.383   1.739   3.612 -0.7581  2.9091 -2.0972
 1014MOL0     H39912   0.392   2.088   4.261  0.7346  0.1751  1.7949
 1014MOL0     H39913   0.628   2.078   4.298 -1.2507 -0.2055  0.2243
 1014MOL0     H39914   1.109   2.144   4.082  0.1580 -2.3701  3.0543
 1014MOL0     H39915   1.333   2.205   4.108 -0.5341  1.6557 -2.4397
 1014MOL0     H39916   0.845   2.860   4.277  0.0478  2.3316  1.7793
 1014MOL0     H39917   0.607   2.778   4.216  3.4253 -0.2249 -2.2612
 1014MOL0     H39918   0.267   2.675   4.203 -2.0490 -0.7084 -2.0144
 1014MOL0     H39919   0.060   2.613   4.104  1.2190  1.2685 -0.4574
 1014MOL0     H39920  -0.259   2.415   4.387 -0.0864  0.1766 -0.2358
 1014MOL0     H39921  -0.303   2.581   4.378  0.4513  0.1164 -0.3834
 1014MOL0     H39922  -0.434   2.552   4.182 -0.5563 -0.4057 -0.4425
 1014MOL0     H39923  -0.483   2.443   4.302 -1.1220  0.4005 -0.3307
 1014MOL0     H39924  -0.301   2.384   4.069 -2.1339  4.8479 -0.3242
 1014MOL0     H39925  -0.352   2.266   4.194  1.0625  1.0010  1.1165
 1014MOL0     H39926  -0.540   2.415   4.005 -1.6981 -0.3676  0.4786
 1014MOL0     H39927  -0.592   2.290   4.121 -0.4134 -0.1212  0.3065
 1014MOL0     H39928  -0.383   2.063   3.823 -1.5558 -1.7356  0.6180
 1014MOL0     H39929  -0.104   2.550   4.500  0.3045  2.5050  0.3932
 1014MOL0     H39930   0.215   2.559   4.661  0.2007 -2.2943 -0.7547
 1014MOL0     H39931   0.098   2.697   4.680  2.1612 -0.1023  0.6426
 1014MOL0     H39932   0.053   2.517   4.691  1.3348 -0.0770  2.4121
 1015MOL0     O39933   3.762   9.555   1.473  0.3785  0.0735  0.1201
 1015MOL0     C39934   3.728   9.587   1.588 -0.1307 -0.0554 -0.6043
 1015MOL0     O39935   3.759   9.703   1.652 -0.5216 -0.4485 -0.5704
 1015MOL0     C39936   3.821   9.808   1.578 -0.4037  0.2565 -0.4865
 1015MOL0     C39937   3.947   9.797   1.517  0.1225  0.2810 -0.8386
 1015MOL0     C39938   4.001   9.910   1.449 -0.0023  0.5005  0.8360
 1015MOL0     C39939   3.933  10.024   1.428  0.5733 -0.0286 -0.8884
 1015MOL0     O39940   3.988  10.132   1.367  0.7457 -0.1889 -0.0607
 1015MOL0     C39941   4.025  10.110   1.227 -0.5059  0.1481  0.6797
 1015MOL0     C39942   4.071  10.238   1.146  0.6346 -0.5269  0.0895
 1015MOL0     C39943   4.216  10.275   1.158 -0.3874 -0.3035 -0.6182
 1015MOL0     C39944   4.270  10.343   1.038  0.0078  0.3754  0.7648
 1015MOL0     C39945   4.423  10.365   1.030  1.1868  0.2586 -0.7092
 1015MOL0     C39946   4.493  10.229   1.005  0.0449  0.7618  0.4148
 1015MOL0     C39947   4.645  10.252   1.017 -0.9014 -0.9747  0.1790
 1015MOL0     C39948   4.685  10.307   1.159 -1.2206  0.3665 -0.5058
 1015MOL0     N39949   4.829  10.292   1.171  0.7835 -0.5664 -1.0317
 1015MOL0     C39950   4.890  10.185   1.242  0.0083 -0.7755  0.8024
 1015MOL0     C39951   5.019  10.201   1.217  0.0852 -0.2066  0.1225
 1015MOL0     C39952   5.118  10.099   1.251 -0.2248  0.1768 -0.5805
 1015MOL0     C39953   5.230  10.087   1.146 -0.0330  0.5278  0.2620
 1015MOL0     C39954   5.342   9.989   1.196  0.3029  0.8027  0.3131
 1015MOL0     C39955   5.450   9.977   1.096 -0.2185  0.4477  0.0914
 1015MOL0     O39956   5.558   9.905   1.162  0.6626  0.0759  0.1005
 1015MOL0     C39957   5.674   9.884   1.085  0.0780  0.3178 -0.5327
 1015MOL0     C39958   5.740   9.766   1.121 -1.0029 -0.8176 -0.0351
 1015MOL0     C39959   5.848   9.710   1.055 -0.7776  0.4688  0.2963
 1015MOL0     C39960   5.890   9.581   1.107 -0.0571  0.4954  0.5591
 1015MOL0     C39961   5.894   9.772   0.936  0.2244 -0.6604 -0.8332
 1015MOL0     C39962   6.011   9.723   0.859  0.0177  0.8644  0.8575
 1015MOL0     O39963   6.049   9.813   0.761 -0.5299  0.0387 -0.0587
 1015MOL0     C39964   6.164   9.803   0.677  0.8728 -0.2945 -0.6764
 1015MOL0     C39965   6.165   9.891   0.570  0.1139 -0.7035  0.3796
 1015MOL0     C39966   6.283   9.892   0.493 -0.0781 -0.1749  0.7809
 1015MOL0     C39967   6.397   9.825   0.520 -0.3093 -0.4099  0.4317
 1015MOL0     O39968   6.498   9.843   0.430 -0.4266  0.2982 -0.1624
 1015MOL0     C39969   6.628   9.833   0.491 -1.1364 -0.0478  0.4567
 1015MOL0     C39970   6.717   9.865   0.377  0.0979  0.1092 -0.7155
 1015MOL0     C39971   6.870   9.899   0.426 -0.0868 -0.2111  0.4794
 1015MOL0     C39972   6.880  10.047   0.480  0.6878  0.0664  0.0334
 1015MOL0     C39973   7.022  10.090   0.510  0.2148 -0.2956 -0.6312
 1015MOL0     C39974   7.119  10.053   0.398 -0.4900  0.4048 -0.0651
 1015MOL0     C39975   7.244  10.133   0.395 -0.7200  0.9323  0.5434
 1015MOL0     C39976   7.329  10.097   0.516  1.3598  0.4727  0.0284
 1015MOL0    Cl39977   7.485  10.183   0.499 -0.3688 -0.1548 -0.5373
 1015MOL0     C39978   6.388   9.735   0.630  0.3601 -0.0530  0.8199
 1015MOL0     C39979   6.275   9.727   0.711  0.3379  0.1690  0.6482
 1015MOL0     O39980   6.072   9.622   0.890  0.6382  0.1065  0.8047
 1015MOL0     C39981   5.819   9.885   0.893  0.0529  0.2538 -0.0366
 1015MOL0     C39982   5.718   9.946   0.972 -0.1545  0.8438  0.0653
 1015MOL0     N39983   5.039  10.320   1.153 -0.2262 -0.5616  0.4700
 1015MOL0     N39984   4.926  10.381   1.130  0.4278 -0.6440 -0.1462
 1015MOL0     C39985   3.801  10.029   1.469  0.3169  0.7199 -0.4109
 1015MOL0     C39986   3.749   9.918   1.547 -0.5960 -0.1488  0.8138
 1015MOL0     C39987   3.661   9.483   1.668 -0.0380  0.1851  0.8452
 1015MOL0     C39988   3.529   9.517   1.715 -0.0654  0.6691 -0.1624
 1015MOL0     C39989   3.450   9.429   1.789  0.2476 -0.4417  0.8657
 1015MOL0     C39990   3.490   9.303   1.806 -0.0679 -0.1875  0.4577
 1015MOL0     O39991   3.409   9.218   1.876  0.5069 -0.1506 -0.1999
 1015MOL0     C39992   3.281   9.192   1.813  0.8332  0.3051 -0.4226
 1015MOL0     C39993   3.169   9.222   1.912  0.4780 -0.3083  0.3513
 1015MOL0     C39994   3.180   9.123   2.025 -0.6291 -0.4053  0.0230
 1015MOL0     C39995   3.049   9.098   2.096 -0.1169 -0.8705  0.4829
 1015MOL0     C39996   2.932   9.071   2.007  0.6364 -0.6848 -0.0106
 1015MOL0     C39997   2.825   9.054   1.959  0.6308  0.2351  0.2578
 1015MOL0     C39998   3.613   9.258   1.748 -0.9923 -0.2341 -0.5169
 1015MOL0     C39999   3.700   9.349   1.688 -0.1741  0.6624 -0.3318
 1015MOL0     C40000   3.844   9.302   1.649  0.2887  0.0421  0.3644
 1015MOL0     H40001   4.014   9.713   1.531 -1.6650 -0.8503  1.5177
 1015MOL0     H40002   4.102   9.916   1.409  0.0464  0.7835  1.0026
 1015MOL0     H40003   3.950  10.056   1.168  1.1120 -1.1358 -0.2630
 1015MOL0     H40004   4.107  10.039   1.237 -0.7400  0.0594  2.1828
 1015MOL0     H40005   4.051  10.208   1.043  1.0424 -1.4219  0.2566
 1015MOL0     H40006   4.008  10.325   1.162 -1.4156 -1.9619  0.2793
 1015MOL0     H40007   4.243  10.325   1.251  1.2910 -3.1360  0.5327
 1015MOL0     H40008   4.261  10.176   1.165 -0.1138 -0.0849  1.0927
 1015MOL0     H40009   4.232  10.301   0.944  0.1184 -1.0443  1.3462
 1015MOL0     H40010   4.230  10.444   1.050  0.0065  0.3207  1.2473
 1015MOL0     H40011   4.449  10.404   1.129 -3.6231  0.0011  0.9500
 1015MOL0     H40012   4.452  10.444   0.960  3.3422  0.8998  0.8112
 1015MOL0     H40013   4.468  10.156   1.082  1.5651 -0.8317 -0.5199
 1015MOL0     H40014   4.473  10.185   0.907  3.7897 -2.2821  0.7490
 1015MOL0     H40015   4.677  10.319   0.936  2.7911 -1.7224  0.8265
 1015MOL0     H40016   4.703  10.160   1.002  2.8381  0.9881  1.2624
 1015MOL0     H40017   4.665  10.414   1.171  0.3885  0.7878 -1.3103
 1015MOL0     H40018   4.641  10.245   1.239  0.5965 -2.1666 -1.3362
 1015MOL0     H40019   4.855  10.093   1.287 -0.3107 -1.0702 -0.0202
 1015MOL0     H40020   5.073  10.000   1.263  0.9324 -0.3136 -0.1276
 1015MOL0     H40021   5.175  10.119   1.342 -0.5902  0.3250 -0.3789
 1015MOL0     H40022   5.184  10.071   1.048 -2.0815 -0.0280  1.2573
 1015MOL0     H40023   5.289  10.178   1.136  2.6456 -1.2192 -1.0153
 1015MOL0     H40024   5.376  10.041   1.287 -0.2278  0.3087  0.8008
 1015MOL0     H40025   5.307   9.888   1.220 -0.8433  0.9247 -0.7969
 1015MOL0     H40026   5.428   9.928   1.000  0.3612  1.1752 -0.4304
 1015MOL0     H40027   5.495  10.071   1.061  1.4524 -1.1787 -2.4055
 1015MOL0     H40028   5.700   9.728   1.214 -1.7455 -0.2497 -0.1118
 1015MOL0     H40029   5.874   9.509   1.026  2.3129  0.6877 -0.1465
 1015MOL0     H40030   5.836   9.551   1.197 -0.6076 -2.1587 -0.5587
 1015MOL0     H40031   5.997   9.586   1.128  0.2857 -3.5383  0.6041
 1015MOL0     H40032   6.084   9.958   0.542 -0.0406 -1.5078 -1.2657
 1015MOL0     H40033   6.263   9.966   0.416 -1.1354 -0.7902  0.4384
 1015MOL0     H40034   6.654   9.907   0.568 -0.1065 -0.8997  0.9524
 1015MOL0     H40035   6.655   9.736   0.534 -2.3114 -1.3374 -1.5497
 1015MOL0     H40036   6.706   9.785   0.304 -0.7084 -1.5521  1.1318
 1015MOL0     H40037   6.686   9.954   0.321 -4.4980 -1.2384 -0.7082
 1015MOL0     H40038   6.936   9.877   0.342 -0.7857 -4.8755  0.8750
 1015MOL0     H40039   6.905   9.826   0.501 -0.2282 -2.8760 -1.8713
 1015MOL0     H40040   6.829  10.041   0.577  1.1226 -1.0755  0.2157
 1015MOL0     H40041   6.820  10.116   0.420 -0.4395 -0.6266  0.3254
 1015MOL0     H40042   7.022  10.197   0.531  1.6836 -0.6714  1.6719
 1015MOL0     H40043   7.050  10.030   0.597 -0.7442 -1.0597 -0.8259
 1015MOL0     H40044   7.077  10.065   0.298 -3.3798  0.9046  1.1150
 1015MOL0     H40045   7.140   9.947   0.419  1.8118  0.7414 -0.4382
 1015MOL0     H40046   7.221  10.240   0.396  0.7528  1.2810 -0.2016
 1015MOL0     H40047   7.309  10.115   0.308 -0.1986 -1.1399  1.2878
 1015MOL0     H40048   7.353   9.990   0.517 -2.1045 -0.4535  1.2710
 1015MOL0     H40049   7.281  10.112   0.613  1.3755 -1.0197  0.2921
 1015MOL0     H40050   6.474   9.677   0.662  0.6190  0.8997  1.8938
 1015MOL0     H40051   6.290   9.672   0.803 -0.0283  1.8432  1.7639
 1015MOL0     H40052   5.844   9.942   0.804  3.0679  1.0104  1.1494
 1015MOL0     H40053   5.666  10.035   0.936 -0.2689  0.4491 -0.7764
 1015MOL0     H40054   3.749  10.117   1.434  0.9048  0.9945 -0.5909
 1015MOL0     H40055   3.648   9.926   1.584 -0.7976  1.2711  0.0355
 1015MOL0     H40056   3.494   9.619   1.701  1.3669  2.1029  4.7252
 1015MOL0     H40057   3.356   9.464   1.830  1.1196  1.7802  1.1093
 1015MOL0     H40058   3.267   9.238   1.715  2.8075  0.4779 -0.6703
 1015MOL0     H40059   3.279   9.084   1.796 -0.7353 -0.2295  2.5500
 1015MOL0     H40060   3.077   9.221   1.853 -0.0678 -0.1291  1.1802
 1015MOL0     H40061   3.191   9.325   1.939  1.1010 -0.2225 -0.4487
 1015MOL0     H40062   3.220   9.027   1.991 -1.0634 -0.7029  0.3386
 1015MOL0     H40063   3.259   9.157   2.094  0.9116  1.4222 -2.4773
 1015MOL0     H40064   3.035   9.178   2.170 -0.6138  0.1061 -0.6259
 1015MOL0     H40065   3.058   9.006   2.153  0.7992 -0.6936  0.6437
 1015MOL0     H40066   2.728   9.038   1.915  0.3120 -3.3474  1.8962
 1015MOL0     H40067   3.643   9.156   1.772  1.0814  0.9836  2.7744
 1015MOL0     H40068   3.903   9.267   1.733  1.6366  0.9356 -0.1734
 1015MOL0     H40069   3.849   9.234   1.563  0.1244 -0.6440  0.8893
 1015MOL0     H40070   3.894   9.394   1.616 -1.9488  0.9158 -0.8479
 1016MOL0     O40071   7.899   1.216   4.713  0.3233  0.0443 -0.5372
 1016MOL0     C40072   7.945   1.146   4.809 -0.4590 -0.8748  0.1397
 1016MOL0     O40073   8.059   1.180   4.882 -0.2491  0.1632  0.6876
 1016MOL0     C40074   8.113   1.295   4.845 -0.1426 -0.0063  0.5400
 1016MOL0     C40075   8.046   1.416   4.864  0.5325 -0.3160 -0.3289
 1016MOL0     C40076   8.101   1.544   4.824 -0.0785  0.0167  0.1975
 1016MOL0     C40077   8.233   1.552   4.789 -0.7407  0.3374  0.5765
 1016MOL0     O40078   8.300   1.673   4.792  0.7722 -0.1821  0.3681
 1016MOL0     C40079   8.226   1.792   4.758 -0.0856  0.0041 -0.0638
 1016MOL0     C40080   8.324   1.904   4.755 -0.1629 -0.0879  0.3814
 1016MOL0     C40081   8.448   1.878   4.672 -0.4927  0.0099  0.1747
 1016MOL0     C40082   8.526   1.999   4.616 -0.1098  0.3791  0.1952
 1016MOL0     C40083   8.594   2.069   4.735 -0.0729  0.5996 -0.0704
 1016MOL0     C40084   8.683   2.184   4.672  0.5760 -0.2807 -0.8277
 1016MOL0     C40085   8.829   2.156   4.632  0.5738  0.8581 -0.3053
 1016MOL0     C40086   8.906   2.282   4.607 -0.7940  0.0842  0.3363
 1016MOL0     N40087   9.036   2.245   4.536  0.4686  0.3523 -0.9486
 1016MOL0     C40088   9.052   2.192   4.413 -0.4597  0.9371 -0.5828
 1016MOL0     C40089   9.173   2.230   4.369  0.5420 -0.6384  0.8302
 1016MOL0     C40090   9.232   2.210   4.235  0.2500  0.6718  0.4354
 1016MOL0     C40091   9.313   2.317   4.182 -1.3200 -0.1615  0.7353
 1016MOL0     C40092   9.388   2.277   4.053  0.5430  0.3531 -0.3628
 1016MOL0     C40093   9.495   2.381   4.025 -1.0636 -0.7189  0.5399
 1016MOL0     O40094   9.577   2.351   3.911 -0.1804  0.0126 -0.1442
 1016MOL0     C40095   9.664   2.244   3.930 -0.1385  0.0881 -0.0687
 1016MOL0     C40096   9.673   2.154   3.825  0.6210 -0.0377 -0.2828
 1016MOL0     C40097   9.749   2.040   3.831 -0.4229 -0.0696  0.4087
 1016MOL0     C40098   9.742   1.952   3.711 -0.4187  0.6261 -0.0661
 1016MOL0     C40099   9.830   2.020   3.946  1.3732 -0.2300 -0.5088
 1016MOL0     C40100   9.902   1.893   3.976 -0.3866  0.0818 -0.0668
 1016MOL0     O40101  10.025   1.893   3.928  0.1211  0.2563  0.2572
 1016MOL0     C40102  10.125   1.797   3.962 -0.1975  0.2416 -0.3543
 1016MOL0     C40103  10.241   1.797   3.884  0.2016 -0.5357  0.6579
 1016MOL0     C40104  10.350   1.714   3.901 -0.1639  0.0682 -0.1698
 1016MOL0     C40105  10.351   1.614   4.004 -0.1692 -0.9359 -0.1229
 1016MOL0     O40106  10.456   1.534   4.024  0.2476 -0.2249  0.5135
 1016MOL0     C40107  10.548   1.570   4.137 -0.4456 -0.3127 -0.2510
 1016MOL0     C40108  10.487   1.550   4.278  0.4167  0.7573  0.8398
 1016MOL0     C40109  10.601   1.562   4.376 -0.1714  0.8079 -1.1931
 1016MOL0     C40110  10.549   1.519   4.515 -0.4045 -0.5653 -0.1833
 1016MOL0     C40111  10.495   1.650   4.592 -0.0956  0.9384  0.4155
 1016MOL0     C40112  10.485   1.613   4.746 -0.1611  0.2201 -0.3201
 1016MOL0     C40113  10.374   1.515   4.803 -0.2478 -0.5025 -0.3645
 1016MOL0     C40114  10.240   1.572   4.798 -0.4137  0.2540 -0.5881
 1016MOL0    Cl40115  10.138   1.455   4.875  0.1466 -0.0480  0.3106
 1016MOL0     C40116  10.236   1.605   4.080 -0.0977 -0.4737  0.6934
 1016MOL0     C40117  10.126   1.705   4.071 -0.6701  0.2646  0.5393
 1016MOL0     O40118   9.847   1.800   4.028 -0.2079  0.3893  0.2593
 1016MOL0     C40119   9.837   2.116   4.043 -0.1932 -0.5401  0.0971
 1016MOL0     C40120   9.756   2.229   4.038 -1.0872  0.7181 -0.2364
 1016MOL0     N40121   9.243   2.308   4.460 -0.1327 -0.3610 -0.7041
 1016MOL0     N40122   9.160   2.304   4.559 -0.3664 -0.5406 -1.0806
 1016MOL0     C40123   8.305   1.431   4.784  0.3598 -0.2028 -0.8250
 1016MOL0     C40124   8.247   1.303   4.804  0.2753  0.4080 -0.5700
 1016MOL0     C40125   7.876   1.017   4.845 -0.0025  0.2214  0.3175
 1016MOL0     C40126   7.933   0.937   4.944 -0.3636  0.1283  0.1739
 1016MOL0     C40127   7.884   0.820   4.988 -0.3987  0.3279 -0.2082
 1016MOL0     C40128   7.776   0.761   4.930 -0.6682 -0.0633 -0.2430
 1016MOL0     O40129   7.744   0.637   4.970  0.0362 -0.3270  0.0733
 1016MOL0     C40130   7.607   0.611   4.949  0.3711  0.3978  0.1129
 1016MOL0     C40131   7.565   0.513   5.051  0.6414 -0.1830 -0.3101
 1016MOL0     C40132   7.426   0.461   5.017  0.4153 -0.3864 -0.4770
 1016MOL0     C40133   7.375   0.384   5.136  0.4710 -0.5027 -0.1181
 1016MOL0     C40134   7.437   0.247   5.142 -0.2658  0.3193 -0.2064
 1016MOL0     C40135   7.488   0.141   5.131 -0.2100 -0.5587 -0.0114
 1016MOL0     C40136   7.724   0.833   4.816  0.1987  0.2340  0.8850
 1016MOL0     C40137   7.765   0.965   4.780 -0.2584  0.5280 -0.3043
 1016MOL0     C40138   7.680   1.023   4.674 -0.9084 -0.2058  0.3762
 1016MOL0     H40139   7.946   1.421   4.906  2.4235 -0.8482  4.9652
 1016MOL0     H40140   8.040   1.630   4.849  1.2066  1.0532 -0.0982
 1016MOL0     H40141   8.153   1.819   4.835 -0.2226 -2.6934  0.8512
 1016MOL0     H40142   8.166   1.774   4.668 -0.8822 -0.6293  0.5754
 1016MOL0     H40143   8.270   1.992   4.719  1.2231  0.3355 -0.7537
 1016MOL0     H40144   8.353   1.930   4.857  0.9031 -0.2605  0.1357
 1016MOL0     H40145   8.509   1.805   4.727  2.2345  0.4964 -1.9680
 1016MOL0     H40146   8.408   1.832   4.581 -2.2433  3.6482 -1.0671
 1016MOL0     H40147   8.598   1.967   4.540 -0.0585  1.8203 -0.3946
 1016MOL0     H40148   8.460   2.068   4.562  0.5956 -0.8427 -2.3710
 1016MOL0     H40149   8.657   1.997   4.787 -0.8180  1.1182  1.5926
 1016MOL0     H40150   8.522   2.106   4.808 -1.0607 -0.0199 -0.7031
 1016MOL0     H40151   8.634   2.229   4.585 -1.1212 -0.6908 -0.1341
 1016MOL0     H40152   8.684   2.263   4.749  0.7670 -0.0903 -1.0240
 1016MOL0     H40153   8.827   2.084   4.550  2.9758 -0.8439  0.9917
 1016MOL0     H40154   8.881   2.094   4.705  1.6697  0.4133 -1.4213
 1016MOL0     H40155   8.850   2.351   4.543  0.1507 -0.9564 -1.6996
 1016MOL0     H40156   8.931   2.336   4.699 -0.1204  0.8415 -0.2715
 1016MOL0     H40157   8.974   2.141   4.358  0.9685 -1.7733 -0.2822
 1016MOL0     H40158   9.161   2.176   4.159  0.6137  1.3277 -0.1990
 1016MOL0     H40159   9.302   2.126   4.244 -0.1529 -0.0822 -2.5554
 1016MOL0     H40160   9.255   2.410   4.176 -0.3623  0.4665  0.9773
 1016MOL0     H40161   9.392   2.326   4.257  1.3095 -2.1631 -1.5714
 1016MOL0     H40162   9.434   2.179   4.061 -1.6225 -0.7849 -0.8976
 1016MOL0     H40163   9.315   2.265   3.971 -1.6761 -0.8694  1.6537
 1016MOL0     H40164   9.448   2.478   4.009 -0.2512 -0.1926  1.2377
 1016MOL0     H40165   9.555   2.396   4.116  0.2955  1.2344 -0.6005
 1016MOL0     H40166   9.618   2.175   3.734 -0.5248 -0.6959  0.2436
 1016MOL0     H40167   9.825   1.984   3.648 -0.9303  0.7746 -0.6735
 1016MOL0     H40168   9.644   1.969   3.665 -2.0155  0.5853  3.0660
 1016MOL0     H40169   9.753   1.847   3.741 -0.4441  0.7138  0.2437
 1016MOL0     H40170  10.260   1.874   3.809  0.0328  1.4688  2.5872
 1016MOL0     H40171  10.438   1.735   3.839  0.3486 -0.1323  0.4774
 1016MOL0     H40172  10.648   1.530   4.120  1.5590  4.7541 -2.5178
 1016MOL0     H40173  10.571   1.677   4.133 -1.2155 -0.0197  1.8803
 1016MOL0     H40174  10.423   1.638   4.288 -2.0296 -0.8061 -0.1117
 1016MOL0     H40175  10.436   1.454   4.269  0.2656  1.0313 -4.3686
 1016MOL0     H40176  10.645   1.662   4.376 -2.5093  1.9099  0.2598
 1016MOL0     H40177  10.679   1.491   4.347  0.0075 -0.3402  1.7916
 1016MOL0     H40178  10.636   1.475   4.566  0.6512  3.0321  1.4162
 1016MOL0     H40179  10.480   1.434   4.514 -0.9549 -0.1391 -2.0575
 1016MOL0     H40180  10.568   1.731   4.579  1.2709 -0.0903  1.3410
 1016MOL0     H40181  10.404   1.686   4.543  1.2601  0.8806 -2.3868
 1016MOL0     H40182  10.481   1.706   4.803  3.9035  0.7715 -0.5940
 1016MOL0     H40183  10.578   1.569   4.784 -0.6428 -0.3468  0.2042
 1016MOL0     H40184  10.408   1.498   4.906  0.8629 -3.3564 -1.0994
 1016MOL0     H40185  10.369   1.420   4.748 -0.1052 -0.8482  0.2103
 1016MOL0     H40186  10.221   1.577   4.691  0.4294  1.7433 -0.7029
 1016MOL0     H40187  10.245   1.667   4.853  0.6361 -0.6799  0.9850
 1016MOL0     H40188  10.227   1.526   4.153  0.1786  0.1406  1.4109
 1016MOL0     H40189  10.039   1.713   4.135 -0.1769 -0.4564  1.3175
 1016MOL0     H40190   9.898   2.113   4.132 -0.8637 -1.7253  0.5383
 1016MOL0     H40191   9.757   2.306   4.114 -3.4656  1.2192 -0.6342
 1016MOL0     H40192   8.413   1.436   4.785  0.4208 -0.9467  1.1617
 1016MOL0     H40193   8.311   1.215   4.806 -0.9704 -0.6278 -2.6670
 1016MOL0     H40194   8.012   0.977   5.006 -1.0091 -1.7833  2.3767
 1016MOL0     H40195   7.936   0.768   5.068  0.7874  0.5847 -0.7808
 1016MOL0     H40196   7.553   0.703   4.973 -1.0366 -0.0571 -1.1865
 1016MOL0     H40197   7.580   0.575   4.850 -1.1357 -2.3555  1.3885
 1016MOL0     H40198   7.556   0.551   5.154 -3.4799 -1.5234  0.0252
 1016MOL0     H40199   7.637   0.431   5.048 -0.5830 -1.3104  0.5212
 1016MOL0     H40200   7.349   0.537   5.003  1.5884  1.1826  1.1292
 1016MOL0     H40201   7.434   0.388   4.936 -0.9120 -0.7326 -0.3327
 1016MOL0     H40202   7.267   0.373   5.122  0.3954  0.2213 -0.1795
 1016MOL0     H40203   7.387   0.433   5.233 -0.1042 -0.8197  0.1139
 1016MOL0     H40204   7.539   0.049   5.112  0.2767  0.3030 -3.7400
 1016MOL0     H40205   7.640   0.793   4.759 -0.6749  2.8340  0.1915
 1016MOL0     H40206   7.580   0.978   4.673 -2.0809  2.1577  1.7146
 1016MOL0     H40207   7.676   1.132   4.685 -0.4648 -0.2502  1.0245
 1016MOL0     H40208   7.725   1.013   4.575 -3.5972  1.8514 -1.1867
 1017MOL0     O40209   5.425   6.381   4.412 -0.3622 -0.1703  0.0984
 1017MOL0     C40210   5.450   6.369   4.284  0.4767 -0.6732 -0.7834
 1017MOL0     O40211   5.571   6.345   4.223 -0.2739 -0.7975  0.3364
 1017MOL0     C40212   5.688   6.353   4.296  0.3798 -1.3403  0.3615
 1017MOL0     C40213   5.712   6.444   4.402 -0.5401 -0.6616 -0.7989
 1017MOL0     C40214   5.848   6.449   4.457  0.6837 -0.4698 -0.2365
 1017MOL0     C40215   5.947   6.356   4.418 -0.2115 -0.3382  0.2518
 1017MOL0     O40216   6.069   6.365   4.477  0.5747  1.2920 -0.3086
 1017MOL0     C40217   6.143   6.243   4.501  0.1624 -0.3126  0.0335
 1017MOL0     C40218   6.277   6.245   4.434 -0.5295  0.1723 -0.1332
 1017MOL0     C40219   6.363   6.373   4.452 -0.4709 -0.0203 -0.3720
 1017MOL0     C40220   6.490   6.361   4.382 -0.0948  0.1552 -0.0913
 1017MOL0     C40221   6.596   6.457   4.439  0.6887  0.1502 -0.4720
 1017MOL0     C40222   6.724   6.418   4.374  0.2100 -0.3609 -0.3678
 1017MOL0     C40223   6.826   6.516   4.426  0.1024  0.7256 -0.0547
 1017MOL0     C40224   6.956   6.484   4.361 -0.1847 -0.0248 -1.1857
 1017MOL0     N40225   7.071   6.559   4.414  0.9747 -0.1478 -0.1680
 1017MOL0     C40226   7.116   6.682   4.383  0.0076  0.0337  0.6137
 1017MOL0     C40227   7.227   6.702   4.457  0.2851 -0.2058 -0.7735
 1017MOL0     C40228   7.307   6.836   4.444 -0.2593 -0.0917 -0.8913
 1017MOL0     C40229   7.447   6.798   4.400 -0.6758 -0.0601 -0.5187
 1017MOL0     C40230   7.524   6.926   4.365 -0.2440 -0.6570  0.5876
 1017MOL0     C40231   7.667   6.907   4.311 -0.2368  0.0229 -0.1755
 1017MOL0     O40232   7.735   7.032   4.280  0.2999 -0.4821 -0.2640
 1017MOL0     C40233   7.862   7.020   4.216  0.7856 -0.6023  0.3614
 1017MOL0     C40234   7.909   7.139   4.163 -0.5745  0.6991 -0.3052
 1017MOL0     C40235   8.041   7.152   4.125 -0.4304 -0.2170  0.3856
 1017MOL0     C40236   8.075   7.298   4.109  0.0170  0.4560  0.2794
 1017MOL0     C40237   8.125   7.041   4.112 -0.5792 -0.2672 -0.5095
 1017MOL0     C40238   8.265   7.048   4.068  0.2571  0.6713 -0.8458
 1017MOL0     O40239   8.338   6.928   4.071  0.6815 -0.0059 -0.3402
 1017MOL0     C40240   8.471   6.931   4.050  0.0816  0.1006 -0.1097
 1017MOL0     C40241   8.525   6.864   3.946  0.7148 -0.0969  0.1315
 1017MOL0     C40242   8.665   6.852   3.920  0.5021 -0.4494 -0.1315
 1017MOL0     C40243   8.756   6.906   4.012 -0.0864  0.2859  0.3092
 1017MOL0     O40244   8.899   6.902   4.008  0.3022  0.5416 -0.3922
 1017MOL0     C40245   8.953   6.847   3.888 -0.2111 -0.3446  0.2169
 1017MOL0     C40246   9.096   6.898   3.878  0.2076 -0.6188  0.0428
 1017MOL0     C40247   9.191   6.820   3.968 -0.1650 -1.0989 -0.6009
 1017MOL0     C40248   9.326   6.795   3.908 -0.1218  0.5379 -0.1485
 1017MOL0     C40249   9.397   6.717   4.017 -0.3083 -0.4935  0.2011
 1017MOL0     C40250   9.547   6.718   3.979  0.4340 -0.0164  0.6114
 1017MOL0     C40251   9.631   6.661   4.088 -0.3319  0.7432 -0.3189
 1017MOL0     C40252   9.774   6.660   4.037  0.4103  0.1773 -0.8212
 1017MOL0    Cl40253   9.885   6.654   4.176  0.1346 -0.3525 -0.0840
 1017MOL0     C40254   8.692   6.962   4.120 -0.6930 -0.8335 -0.1184
 1017MOL0     C40255   8.559   6.982   4.147  0.9670  0.2984 -0.0116
 1017MOL0     O40256   8.304   7.156   4.029 -0.5192 -0.1687  0.1074
 1017MOL0     C40257   8.068   6.916   4.154 -1.0175 -0.9770 -0.1439
 1017MOL0     C40258   7.941   6.905   4.204  0.3773 -0.6031  0.4882
 1017MOL0     N40259   7.244   6.590   4.535 -0.1483 -0.5541  0.5254
 1017MOL0     N40260   7.161   6.500   4.493  0.1815 -0.6489 -0.2931
 1017MOL0     C40261   5.917   6.269   4.306  0.3676 -0.5876 -0.2458
 1017MOL0     C40262   5.791   6.271   4.248 -0.3013 -0.1645  0.2769
 1017MOL0     C40263   5.341   6.371   4.187 -0.6103  1.0937  0.4327
 1017MOL0     C40264   5.369   6.324   4.058 -0.3922  0.0072  0.4305
 1017MOL0     C40265   5.279   6.333   3.944  0.9977 -0.1436  0.1131
 1017MOL0     C40266   5.152   6.383   3.961 -0.5360  0.0586  0.2816
 1017MOL0     O40267   5.071   6.391   3.854 -0.0652 -0.5734 -0.2834
 1017MOL0     C40268   4.933   6.429   3.863 -0.4973 -0.5097  0.8279
 1017MOL0     C40269   4.880   6.424   3.722 -0.5059  0.4424 -0.4113
 1017MOL0     C40270   4.739   6.489   3.716  0.1600  0.1074  0.6744
 1017MOL0     C40271   4.668   6.423   3.600  0.1916  0.2901 -0.6413
 1017MOL0     C40272   4.547   6.499   3.560  0.5024 -0.3582  0.1834
 1017MOL0     C40273   4.451   6.565   3.533 -0.0565 -0.4495 -0.5959
 1017MOL0     C40274   5.115   6.421   4.093  0.5278  0.3984 -0.5802
 1017MOL0     C40275   5.209   6.418   4.202 -0.0983  0.0087  0.1242
 1017MOL0     C40276   5.162   6.465   4.343 -0.3381  0.0584  0.5181
 1017MOL0     H40277   5.636   6.514   4.436  0.7412 -0.2200  1.3837
 1017MOL0     H40278   5.875   6.514   4.540 -1.4672  0.4806 -0.2341
 1017MOL0     H40279   6.102   6.149   4.463  1.4689 -0.9134  0.0506
 1017MOL0     H40280   6.160   6.246   4.609 -1.6701  4.2718  0.4312
 1017MOL0     H40281   6.320   6.159   4.486 -1.7259 -1.1623 -1.2571
 1017MOL0     H40282   6.259   6.228   4.327 -1.1943 -0.8958  0.1356
 1017MOL0     H40283   6.312   6.463   4.416  2.6149  1.6938 -0.7784
 1017MOL0     H40284   6.378   6.386   4.560 -1.3946  1.7538 -0.4188
 1017MOL0     H40285   6.536   6.262   4.382  1.5696  0.8968 -0.3002
 1017MOL0     H40286   6.465   6.392   4.280 -1.6783 -0.9397 -0.0735
 1017MOL0     H40287   6.607   6.442   4.546 -0.3475 -1.4661 -0.5523
 1017MOL0     H40288   6.569   6.560   4.416  0.3637  0.1515 -0.0902
 1017MOL0     H40289   6.757   6.315   4.393 -0.7340 -0.5528  0.3057
 1017MOL0     H40290   6.713   6.416   4.265  0.5441 -0.1928 -0.4046
 1017MOL0     H40291   6.834   6.519   4.535  0.3128  2.0155 -0.0883
 1017MOL0     H40292   6.803   6.618   4.394  1.6898  0.8475 -0.9004
 1017MOL0     H40293   6.972   6.378   4.385  0.9042  0.2889 -0.4542
 1017MOL0     H40294   6.953   6.504   4.254 -0.3866 -0.8254 -1.3370
 1017MOL0     H40295   7.073   6.757   4.318  0.4190  1.1702  1.6261
 1017MOL0     H40296   7.318   6.885   4.541  1.0817 -2.5390  0.2912
 1017MOL0     H40297   7.263   6.910   4.376 -0.5809 -0.5991 -1.2429
 1017MOL0     H40298   7.483   6.734   4.481 -0.7772 -1.4346 -1.5291
 1017MOL0     H40299   7.443   6.733   4.312 -2.8404  1.3946 -1.5940
 1017MOL0     H40300   7.475   6.983   4.286  4.0927  3.9791  0.6900
 1017MOL0     H40301   7.524   6.993   4.451  0.2912  0.4825 -0.2770
 1017MOL0     H40302   7.716   6.842   4.384 -2.3676  0.0264  1.3204
 1017MOL0     H40303   7.664   6.849   4.218  4.1895  0.7529 -0.9907
 1017MOL0     H40304   7.841   7.223   4.149 -1.3258  0.2067  0.2716
 1017MOL0     H40305   7.979   7.352   4.108 -0.2996  0.0750 -3.4179
 1017MOL0     H40306   8.127   7.330   4.018  1.6681  1.3785  1.4998
 1017MOL0     H40307   8.141   7.325   4.191 -0.5072 -1.7672  1.5225
 1017MOL0     H40308   8.458   6.807   3.882 -0.8246  0.6172  1.0512
 1017MOL0     H40309   8.697   6.789   3.838  0.8092 -0.8441  0.2872
 1017MOL0     H40310   8.931   6.740   3.883  0.9318 -0.5580 -3.6914
 1017MOL0     H40311   8.902   6.899   3.806  1.8524  0.8096 -0.4057
 1017MOL0     H40312   9.123   6.883   3.773 -1.6886  1.4155 -0.8086
 1017MOL0     H40313   9.088   7.007   3.890 -0.0132 -0.7341  1.0974
 1017MOL0     H40314   9.155   6.719   3.988 -0.9468 -0.5095  1.1775
 1017MOL0     H40315   9.193   6.877   4.061 -2.7348 -0.2501 -0.9620
 1017MOL0     H40316   9.382   6.886   3.883  0.7408 -0.3059 -1.3677
 1017MOL0     H40317   9.313   6.733   3.819 -1.3318 -2.9865  2.2662
 1017MOL0     H40318   9.399   6.774   4.110  1.4608  1.3485 -0.8749
 1017MOL0     H40319   9.355   6.617   4.031  0.1438 -0.3096  3.6794
 1017MOL0     H40320   9.569   6.817   3.938 -1.9455 -0.9219 -3.4053
 1017MOL0     H40321   9.551   6.648   3.895  0.7945  2.4424 -1.5572
 1017MOL0     H40322   9.605   6.559   4.119 -0.5750  1.2843  1.3882
 1017MOL0     H40323   9.609   6.725   4.175  1.6247 -0.5976  1.2664
 1017MOL0     H40324   9.798   6.747   3.975 -0.4177  1.2854  0.3579
 1017MOL0     H40325   9.797   6.569   3.981 -1.2769  0.8223 -2.7102
 1017MOL0     H40326   8.761   6.992   4.199  1.3163 -0.2636 -1.9952
 1017MOL0     H40327   8.525   7.029   4.239  1.3463 -2.5560  1.7429
 1017MOL0     H40328   8.137   6.832   4.156  0.2921  0.0785  0.4073
 1017MOL0     H40329   7.902   6.809   4.234 -0.1066 -0.6255 -0.1823
 1017MOL0     H40330   5.993   6.196   4.277  1.6930  1.0012 -0.9039
 1017MOL0     H40331   5.760   6.198   4.175  1.4151 -1.7509  1.0564
 1017MOL0     H40332   5.463   6.287   4.019 -0.8367  1.9941 -2.8378
 1017MOL0     H40333   5.319   6.295   3.850 -2.4587 -1.9381 -0.8439
 1017MOL0     H40334   4.881   6.354   3.924  0.1417 -0.4753  1.4340
 1017MOL0     H40335   4.921   6.529   3.906  0.9804 -0.8332  2.1046
 1017MOL0     H40336   4.893   6.321   3.689  0.1081  0.5045 -0.3741
 1017MOL0     H40337   4.945   6.472   3.648  1.9445  1.7321  2.3953
 1017MOL0     H40338   4.690   6.473   3.813  1.2914 -1.7516  0.9960
 1017MOL0     H40339   4.756   6.597   3.704  0.9441  0.0696  1.3006
 1017MOL0     H40340   4.633   6.323   3.628 -0.8809  1.1961  1.5572
 1017MOL0     H40341   4.734   6.418   3.513 -0.3708 -1.4032 -1.0194
 1017MOL0     H40342   4.356   6.613   3.523  0.2494  0.5295  0.7677
 1017MOL0     H40343   5.013   6.456   4.103  0.4694 -0.3388  2.3586
 1017MOL0     H40344   5.138   6.373   4.396 -1.8187 -0.0219 -0.2331
 1017MOL0     H40345   5.241   6.521   4.394  0.8296 -0.5660 -0.5449
 1017MOL0     H40346   5.070   6.525   4.345  0.0727  0.6986  2.5487
 1018MOL0     O40347   3.359   5.841   7.675  0.2287 -0.3403  0.7466
 1018MOL0     C40348   3.340   5.896   7.567 -0.4498 -0.2451  0.4704
 1018MOL0     O40349   3.434   5.987   7.510  1.0770 -0.4541  0.1006
 1018MOL0     C40350   3.552   5.993   7.575 -0.9677 -0.6010 -0.0594
 1018MOL0     C40351   3.602   6.118   7.607 -0.7154 -0.1462 -0.5550
 1018MOL0     C40352   3.721   6.131   7.681  0.2418  0.5621  0.3466
 1018MOL0     C40353   3.798   6.018   7.709 -0.2266  0.2592  0.5540
 1018MOL0     O40354   3.917   6.027   7.775  0.1038 -0.4811 -0.5745
 1018MOL0     C40355   3.954   5.921   7.872 -0.3684  0.6462 -0.4597
 1018MOL0     C40356   4.076   5.830   7.823  0.1101 -0.8012  0.5324
 1018MOL0     C40357   4.222   5.891   7.831  0.2359 -0.6344 -0.1882
 1018MOL0     C40358   4.318   5.781   7.779  0.0451 -0.9004  0.3114
 1018MOL0     C40359   4.461   5.834   7.756 -0.2153  0.5779 -0.1170
 1018MOL0     C40360   4.543   5.708   7.735  0.1046 -0.4772 -0.6264
 1018MOL0     C40361   4.668   5.730   7.658  0.1791  1.3418 -0.1980
 1018MOL0     C40362   4.763   5.612   7.665 -0.1961 -0.4690 -0.1959
 1018MOL0     N40363   4.878   5.630   7.569 -0.2347 -0.8083 -0.3381
 1018MOL0     C40364   4.896   5.579   7.442 -1.1538  0.1133 -0.0452
 1018MOL0     C40365   5.023   5.613   7.408 -0.1974  0.1117 -0.5937
 1018MOL0     C40366   5.098   5.554   7.290 -0.0137 -0.0578  0.3825
 1018MOL0     C40367   5.244   5.592   7.288  1.3016  0.6061 -0.7117
 1018MOL0     C40368   5.330   5.522   7.391  0.3393 -0.7133  0.2143
 1018MOL0     C40369   5.479   5.525   7.347 -0.5530  0.2972 -0.3339
 1018MOL0     O40370   5.551   5.430   7.434 -0.1233  0.6543  0.2269
 1018MOL0     C40371   5.687   5.418   7.427  0.1543  0.9302  0.8120
 1018MOL0     C40372   5.767   5.487   7.339 -0.3355  0.2566 -0.1129
 1018MOL0     C40373   5.908   5.463   7.339  0.5744  0.2960  0.4926
 1018MOL0     C40374   5.987   5.542   7.237  0.4146  0.4819 -0.3480
 1018MOL0     C40375   5.959   5.367   7.428 -0.0019  0.0072 -0.7840
 1018MOL0     C40376   6.104   5.331   7.445 -0.0674 -0.2743 -0.1300
 1018MOL0     O40377   6.136   5.220   7.521  0.0829  0.7839  0.8082
 1018MOL0     C40378   6.264   5.217   7.573  0.3294 -0.1025  0.1311
 1018MOL0     C40379   6.375   5.188   7.485 -0.1832  0.8113 -0.5769
 1018MOL0     C40380   6.503   5.187   7.542  0.3614  0.0917 -0.3406
 1018MOL0     C40381   6.525   5.210   7.681 -0.9431  0.0411  0.0884
 1018MOL0     O40382   6.651   5.195   7.746 -0.4861 -0.2426 -0.0956
 1018MOL0     C40383   6.771   5.206   7.671 -0.0654 -0.0937  0.4006
 1018MOL0     C40384   6.886   5.171   7.759  0.1599  0.2871  0.3433
 1018MOL0     C40385   7.015   5.227   7.692 -0.3057  0.2054  0.1158
 1018MOL0     C40386   7.131   5.234   7.794 -0.3524 -0.6829 -0.7390
 1018MOL0     C40387   7.270   5.244   7.734  0.7709 -0.1220 -0.5705
 1018MOL0     C40388   7.317   5.107   7.666  0.2184 -1.0877 -0.7697
 1018MOL0     C40389   7.449   5.123   7.588 -0.8311 -0.1716  0.6562
 1018MOL0     C40390   7.490   5.000   7.513 -0.4584  0.2425 -0.3628
 1018MOL0    Cl40391   7.518   4.867   7.622  0.2262  0.2300 -0.4146
 1018MOL0     C40392   6.410   5.230   7.761 -0.4925 -0.2664 -0.1557
 1018MOL0     C40393   6.285   5.232   7.706  0.2030  1.0136 -0.9390
 1018MOL0     O40394   6.189   5.399   7.403 -0.7309 -0.3091 -0.1805
 1018MOL0     C40395   5.872   5.307   7.522 -1.2470  0.1864 -0.3737
 1018MOL0     C40396   5.740   5.325   7.512  0.7084 -0.4979  1.0301
 1018MOL0     N40397   5.073   5.680   7.512 -0.8966  0.3761  0.6421
 1018MOL0     N40398   4.988   5.697   7.607 -0.1940 -0.5317 -0.2524
 1018MOL0     C40399   3.749   5.895   7.675  0.4724 -0.1805 -0.0391
 1018MOL0     C40400   3.628   5.878   7.607 -0.0657 -0.6651 -0.2434
 1018MOL0     C40401   3.205   5.875   7.507  1.0333  0.3252 -0.1732
 1018MOL0     C40402   3.143   5.746   7.505 -0.1469  0.6956  0.2169
 1018MOL0     C40403   3.021   5.715   7.439 -0.4977 -0.1281  0.1004
 1018MOL0     C40404   2.951   5.821   7.375  0.2417  0.4260 -0.3268
 1018MOL0     O40405   2.846   5.805   7.296  0.2829  0.3915  0.3854
 1018MOL0     C40406   2.848   5.863   7.161  0.8145  0.4756  0.4569
 1018MOL0     C40407   2.757   5.781   7.065  0.3914  0.0044 -0.1138
 1018MOL0     C40408   2.620   5.760   7.128  0.1617  0.1953  0.2009
 1018MOL0     C40409   2.517   5.705   7.035  0.3295 -0.9396 -0.0721
 1018MOL0     C40410   2.494   5.798   6.931  0.8901 -0.3148  0.4248
 1018MOL0     C40411   2.475   5.868   6.827 -0.3585 -0.3965 -0.5532
 1018MOL0     C40412   2.998   5.952   7.394  0.8673  0.6606  0.0572
 1018MOL0     C40413   3.127   5.983   7.454  0.4944 -0.2526  0.5494
 1018MOL0     C40414   3.168   6.127   7.474  0.0666 -0.1252  0.1425
 1018MOL0     H40415   3.558   6.217   7.599  0.4164  0.9550  3.8817
 1018MOL0     H40416   3.760   6.228   7.709  1.5870  0.9508 -2.6057
 1018MOL0     H40417   3.867   5.861   7.899 -1.5194  1.6845 -1.7299
 1018MOL0     H40418   3.996   5.980   7.954  0.0977 -0.5521  0.1794
 1018MOL0     H40419   4.073   5.744   7.891 -2.4179  0.7844  2.6114
 1018MOL0     H40420   4.063   5.805   7.718  0.1779 -2.2025  0.8417
 1018MOL0     H40421   4.231   5.985   7.775  2.2672 -1.9469 -2.2241
 1018MOL0     H40422   4.246   5.921   7.933  0.8536 -2.4357  0.2321
 1018MOL0     H40423   4.316   5.714   7.865  0.3928  0.7719  1.6793
 1018MOL0     H40424   4.270   5.745   7.688  1.5831 -3.3500  0.3811
 1018MOL0     H40425   4.498   5.892   7.841 -2.7673 -0.4778  1.8401
 1018MOL0     H40426   4.460   5.896   7.666  0.3701  0.5039 -0.1764
 1018MOL0     H40427   4.571   5.668   7.832  2.5254 -1.4035 -1.6414
 1018MOL0     H40428   4.489   5.631   7.678 -2.3997 -0.6033  1.7035
 1018MOL0     H40429   4.725   5.815   7.695  0.5133  0.8214  0.5118
 1018MOL0     H40430   4.641   5.747   7.553 -2.4220  0.1553  0.2151
 1018MOL0     H40431   4.811   5.614   7.763 -1.1562 -1.3377  0.3070
 1018MOL0     H40432   4.717   5.514   7.652  0.2188 -0.8187  0.8715
 1018MOL0     H40433   4.832   5.509   7.389 -0.3677  0.4089 -1.4363
 1018MOL0     H40434   5.050   5.576   7.194 -0.8338  0.5973  0.9293
 1018MOL0     H40435   5.089   5.445   7.286 -1.1012  0.0437 -0.2652
 1018MOL0     H40436   5.292   5.562   7.195 -0.8075  0.2149 -1.7268
 1018MOL0     H40437   5.258   5.699   7.305 -0.6014  0.7840 -0.0172
 1018MOL0     H40438   5.319   5.574   7.487  1.3713  1.2374 -0.6649
 1018MOL0     H40439   5.295   5.419   7.398 -2.6856  0.1899 -0.1902
 1018MOL0     H40440   5.491   5.502   7.241 -0.9177 -1.1244 -0.0951
 1018MOL0     H40441   5.521   5.622   7.374 -0.6663  0.0543  0.7390
 1018MOL0     H40442   5.725   5.563   7.273 -0.6402 -1.0284 -1.4745
 1018MOL0     H40443   6.076   5.485   7.209  0.8962  0.3881  1.2495
 1018MOL0     H40444   6.023   5.638   7.275  2.5087 -1.4417  2.9836
 1018MOL0     H40445   5.918   5.556   7.153 -0.0880  0.3769  0.0384
 1018MOL0     H40446   6.352   5.184   7.379  0.8973  1.2478 -0.8425
 1018MOL0     H40447   6.587   5.172   7.474  0.5634  1.0751 -0.3192
 1018MOL0     H40448   6.783   5.153   7.576  2.6784  0.5848  0.2767
 1018MOL0     H40449   6.772   5.312   7.642  2.3123 -0.0134  0.5243
 1018MOL0     H40450   6.868   5.222   7.854  0.4638 -1.1072  1.1685
 1018MOL0     H40451   6.893   5.065   7.785  1.4187 -0.0193 -1.0985
 1018MOL0     H40452   6.994   5.324   7.646 -0.4951  0.0770 -0.0665
 1018MOL0     H40453   7.041   5.155   7.615 -1.9758  0.0002 -0.2875
 1018MOL0     H40454   7.138   5.138   7.847  1.4314 -0.3164 -0.2827
 1018MOL0     H40455   7.115   5.307   7.874  2.5812 -2.4724  1.7165
 1018MOL0     H40456   7.269   5.323   7.658 -1.8042 -0.3359 -0.8269
 1018MOL0     H40457   7.350   5.265   7.806  0.7792 -1.4770 -0.1670
 1018MOL0     H40458   7.238   5.067   7.600 -2.8801  0.6529  1.6058
 1018MOL0     H40459   7.350   5.034   7.740 -0.6626 -3.2611 -2.4184
 1018MOL0     H40460   7.522   5.145   7.666  0.1910 -0.2174 -0.2602
 1018MOL0     H40461   7.441   5.210   7.522  2.4686  0.0786  0.4137
 1018MOL0     H40462   7.578   5.035   7.459 -1.0094  0.9440 -0.8346
 1018MOL0     H40463   7.409   4.972   7.444 -0.5638  0.1187 -0.1908
 1018MOL0     H40464   6.427   5.239   7.867 -0.9126 -2.2015  0.1305
 1018MOL0     H40465   6.191   5.240   7.760 -0.2377 -0.6923 -1.3791
 1018MOL0     H40466   5.894   5.236   7.601 -2.1442 -0.6032 -0.8280
 1018MOL0     H40467   5.680   5.266   7.581  1.0999 -0.5857  1.2998
 1018MOL0     H40468   3.799   5.801   7.698  2.1470  0.8263  0.6023
 1018MOL0     H40469   3.583   5.787   7.571  0.0867 -0.6677 -0.4280
 1018MOL0     H40470   3.194   5.655   7.537 -0.6247 -0.5409 -2.2394
 1018MOL0     H40471   2.982   5.619   7.407 -0.3988  0.1604 -0.9328
 1018MOL0     H40472   2.797   5.959   7.172  0.1839  0.1361  0.5432
 1018MOL0     H40473   2.950   5.875   7.123  1.5290  0.5106  2.2758
 1018MOL0     H40474   2.811   5.686   7.058  0.8026  0.1348  1.1033
 1018MOL0     H40475   2.740   5.835   6.971 -1.5900  1.0750  0.8213
 1018MOL0     H40476   2.621   5.685   7.207 -2.2160 -0.2036 -0.0879
 1018MOL0     H40477   2.570   5.853   7.157 -2.7997 -0.7265 -1.4583
 1018MOL0     H40478   2.423   5.682   7.085 -0.2491  1.0353 -0.1671
 1018MOL0     H40479   2.561   5.615   6.992 -3.8830 -1.9617 -2.7874
 1018MOL0     H40480   2.467   5.928   6.739  0.4328  0.6855  0.0707
 1018MOL0     H40481   2.937   6.028   7.346 -2.2724 -1.2030  0.7758
 1018MOL0     H40482   3.197   6.150   7.577  1.2472  0.5688 -0.3189
 1018MOL0     H40483   3.252   6.158   7.412 -0.1751  0.4819  0.1065
 1018MOL0     H40484   3.089   6.196   7.443  0.8440  1.0761  0.7360
 1019MOL0     O40485   5.675   0.936   4.068  0.0075 -0.5535 -0.1703
 1019MOL0     C40486   5.700   0.990   4.179  0.0603  0.1115  0.6093
 1019MOL0     O40487   5.616   1.005   4.281  0.6284 -0.0540  0.1416
 1019MOL0     C40488   5.485   0.967   4.254 -0.3681 -0.4102 -0.5107
 1019MOL0     C40489   5.440   0.838   4.291 -0.1206 -0.0764  0.1874
 1019MOL0     C40490   5.303   0.807   4.301  0.6590  0.4130  1.0985
 1019MOL0     C40491   5.211   0.905   4.255  0.2768  0.2000  0.9239
 1019MOL0     O40492   5.075   0.883   4.262 -0.2275 -0.2505 -0.1073
 1019MOL0     C40493   5.023   0.769   4.193  0.2080 -1.1273  0.7282
 1019MOL0     C40494   4.875   0.788   4.187  0.7275  0.4468  0.7227
 1019MOL0     C40495   4.803   0.673   4.110  0.7987  0.2045 -0.1941
 1019MOL0     C40496   4.663   0.631   4.162 -0.0654 -0.4739  0.2394
 1019MOL0     C40497   4.605   0.524   4.071  0.8916  0.6292 -0.8016
 1019MOL0     C40498   4.462   0.496   4.135  0.6628  0.4831  0.1406
 1019MOL0     C40499   4.368   0.411   4.043  0.1971  0.2525 -0.2302
 1019MOL0     C40500   4.294   0.491   3.947  0.1068 -0.2408  0.2263
 1019MOL0     N40501   4.236   0.405   3.838  0.0260  0.4365 -0.0718
 1019MOL0     C40502   4.314   0.348   3.737 -0.1408 -0.1065  0.6376
 1019MOL0     C40503   4.221   0.304   3.647 -0.7318  0.9824  0.2482
 1019MOL0     C40504   4.262   0.242   3.514  0.0108 -0.0003  0.2103
 1019MOL0     C40505   4.370   0.130   3.534 -0.2944 -0.1530 -0.1764
 1019MOL0     C40506   4.437   0.076   3.404 -0.6257  0.9197 -0.4006
 1019MOL0     C40507   4.336   0.006   3.315 -0.1452  0.0717 -0.0528
 1019MOL0     O40508   4.404  -0.042   3.196  0.4025  0.0265 -0.3544
 1019MOL0     C40509   4.502  -0.135   3.215  0.6651  0.2241 -0.9959
 1019MOL0     C40510   4.474  -0.244   3.292  0.4868  0.5155 -0.0594
 1019MOL0     C40511   4.568  -0.350   3.306 -0.7316 -0.9844 -0.3122
 1019MOL0     C40512   4.520  -0.478   3.366 -0.2993  0.0772 -0.0491
 1019MOL0     C40513   4.699  -0.333   3.246 -0.9253 -0.4453 -0.4442
 1019MOL0     C40514   4.806  -0.433   3.246  1.0547 -0.2571  0.1930
 1019MOL0     O40515   4.904  -0.425   3.153  0.2221 -0.3860 -0.0541
 1019MOL0     C40516   5.008  -0.514   3.164  0.4109  0.0701 -0.2936
 1019MOL0     C40517   5.123  -0.473   3.228  0.6042  0.1433 -0.7683
 1019MOL0     C40518   5.231  -0.557   3.252  0.6152  0.1184 -0.0875
 1019MOL0     C40519   5.232  -0.687   3.188  0.9063 -0.1934 -0.9419
 1019MOL0     O40520   5.339  -0.774   3.196  0.4252  0.1869 -0.4189
 1019MOL0     C40521   5.446  -0.767   3.299 -0.6844  0.4914 -0.2003
 1019MOL0     C40522   5.535  -0.891   3.284  0.4530 -0.6044 -0.0229
 1019MOL0     C40523   5.625  -0.874   3.164  0.2023  0.8152 -0.1650
 1019MOL0     C40524   5.728  -0.984   3.155  1.7024  0.1256 -0.5972
 1019MOL0     C40525   5.830  -0.940   3.051 -0.8466  0.8087  0.7919
 1019MOL0     C40526   5.926  -1.049   3.022 -0.5938 -0.1547 -0.4703
 1019MOL0     C40527   6.012  -0.983   2.905 -0.0732  0.2520  0.6757
 1019MOL0     C40528   6.132  -1.069   2.863 -0.8542  0.1017 -0.8727
 1019MOL0    Cl40529   6.252  -1.066   3.011 -0.2213 -0.0222  0.4592
 1019MOL0     C40530   5.116  -0.733   3.131 -1.3205 -0.1784  0.0544
 1019MOL0     C40531   5.000  -0.649   3.124  0.1022 -0.4362  0.2393
 1019MOL0     O40532   4.800  -0.510   3.337 -0.0648  0.9868 -0.1354
 1019MOL0     C40533   4.732  -0.213   3.178  0.0487 -0.2229  0.1078
 1019MOL0     C40534   4.627  -0.120   3.158 -0.7468 -0.0959 -0.7508
 1019MOL0     N40535   4.093   0.333   3.686 -0.2881 -0.4939 -1.0395
 1019MOL0     N40536   4.105   0.409   3.791  0.2776  0.0502  0.5034
 1019MOL0     C40537   5.255   1.026   4.195  0.7443  0.0863 -0.1908
 1019MOL0     C40538   5.389   1.060   4.211 -0.3809 -0.3436 -0.2471
 1019MOL0     C40539   5.828   1.074   4.200 -0.3322 -0.3334 -0.1933
 1019MOL0     C40540   5.847   1.138   4.322  0.3971 -0.2100 -0.3339
 1019MOL0     C40541   5.955   1.224   4.345 -0.1095 -0.3202 -0.3064
 1019MOL0     C40542   6.051   1.247   4.247  0.8780 -0.5666 -0.1288
 1019MOL0     O40543   6.158   1.319   4.283 -0.1865 -0.8989  0.3142
 1019MOL0     C40544   6.281   1.331   4.207 -0.0731  0.1600  0.6886
 1019MOL0     C40545   6.397   1.402   4.281  0.2787 -0.2999 -0.4595
 1019MOL0     C40546   6.365   1.548   4.301 -0.4589  0.1477  0.3799
 1019MOL0     C40547   6.420   1.639   4.195  0.1383  0.0579 -0.1555
 1019MOL0     C40548   6.565   1.638   4.171 -0.5606  0.0561 -0.0031
 1019MOL0     C40549   6.683   1.644   4.160 -0.2004  0.8157 -0.0880
 1019MOL0     C40550   6.039   1.181   4.122 -0.3607 -0.2542 -0.1212
 1019MOL0     C40551   5.934   1.094   4.098  1.1938 -0.3373 -0.5374
 1019MOL0     C40552   5.927   1.035   3.957  0.2900  1.1002  0.0542
 1019MOL0     H40553   5.521   0.776   4.326  1.2156  2.5577  2.1874
 1019MOL0     H40554   5.261   0.716   4.342  0.5725  0.5087  1.2234
 1019MOL0     H40555   5.048   0.681   4.253  4.1063 -2.1373 -1.9949
 1019MOL0     H40556   5.076   0.751   4.099 -2.2561  0.0234 -1.0070
 1019MOL0     H40557   4.832   0.794   4.287 -0.0857 -0.7340  0.4523
 1019MOL0     H40558   4.857   0.883   4.135 -0.3471 -0.3923 -0.4686
 1019MOL0     H40559   4.784   0.704   4.007 -5.1184 -0.9044  0.1803
 1019MOL0     H40560   4.861   0.581   4.119 -1.6853 -1.3740  0.5924
 1019MOL0     H40561   4.690   0.584   4.256  1.3332  2.6916  1.5602
 1019MOL0     H40562   4.595   0.714   4.183  0.3738 -0.0884  0.1552
 1019MOL0     H40563   4.669   0.437   4.089 -3.0713 -2.2181  1.4667
 1019MOL0     H40564   4.599   0.556   3.967 -0.1362  0.0789 -0.9267
 1019MOL0     H40565   4.482   0.447   4.230 -0.5035 -0.5867 -0.1491
 1019MOL0     H40566   4.405   0.587   4.159 -1.4631 -0.9547  0.8113
 1019MOL0     H40567   4.313   0.348   4.113  1.2766 -2.4676 -1.6754
 1019MOL0     H40568   4.435   0.337   3.999  1.0112 -0.8475  2.5959
 1019MOL0     H40569   4.211   0.535   4.004 -0.4559 -1.7580  0.6370
 1019MOL0     H40570   4.359   0.566   3.901  1.9643 -1.9112  0.0001
 1019MOL0     H40571   4.421   0.336   3.731  0.1973  0.8336  3.1790
 1019MOL0     H40572   4.299   0.314   3.441  0.1043 -0.9262 -0.6675
 1019MOL0     H40573   4.171   0.203   3.466 -1.4689  1.9316  1.2898
 1019MOL0     H40574   4.455   0.160   3.596 -0.1054 -1.6823  0.3488
 1019MOL0     H40575   4.331   0.045   3.590  1.0858 -1.2418 -0.8024
 1019MOL0     H40576   4.493   0.156   3.357  1.0402  0.3337  0.4916
 1019MOL0     H40577   4.517   0.008   3.435 -2.1949 -0.0204  1.9799
 1019MOL0     H40578   4.280  -0.072   3.367 -1.4757  0.8338 -0.2885
 1019MOL0     H40579   4.255   0.070   3.278 -0.1374 -0.2593 -0.6547
 1019MOL0     H40580   4.383  -0.261   3.349  0.2655  1.9729  0.0755
 1019MOL0     H40581   4.411  -0.488   3.368 -0.2215 -0.8284  2.0748
 1019MOL0     H40582   4.543  -0.494   3.471 -0.2906  1.9299  0.2586
 1019MOL0     H40583   4.549  -0.556   3.295 -0.8463  1.4081 -1.8138
 1019MOL0     H40584   5.129  -0.371   3.265  2.0426 -0.0674 -0.3545
 1019MOL0     H40585   5.324  -0.523   3.295  2.2698 -1.3475 -2.2445
 1019MOL0     H40586   5.508  -0.679   3.279 -0.8074  0.1612 -2.3086
 1019MOL0     H40587   5.405  -0.774   3.400 -0.8991 -1.4270 -0.3747
 1019MOL0     H40588   5.599  -0.902   3.373  3.3726 -3.6340 -2.2313
 1019MOL0     H40589   5.472  -0.980   3.284 -2.4605  0.9955  5.3677
 1019MOL0     H40590   5.674  -0.777   3.174 -3.3322  2.6917  0.6144
 1019MOL0     H40591   5.557  -0.881   3.079  0.0425 -1.2089  0.0772
 1019MOL0     H40592   5.681  -1.076   3.119  3.5232 -0.2949 -2.0153
 1019MOL0     H40593   5.778  -0.993   3.251  0.0187 -1.2406  0.2030
 1019MOL0     H40594   5.776  -0.911   2.960 -2.2632  0.5834  1.5339
 1019MOL0     H40595   5.886  -0.855   3.089  0.1238  1.6427 -2.2176
 1019MOL0     H40596   5.882  -1.144   2.990 -0.7432 -0.4009  0.4306
 1019MOL0     H40597   5.989  -1.062   3.111 -0.5369 -2.0491 -0.7502
 1019MOL0     H40598   6.048  -0.884   2.936 -2.1150  1.6027 -0.9752
 1019MOL0     H40599   5.947  -0.959   2.820 -0.3539  0.2818  0.8962
 1019MOL0     H40600   6.172  -1.015   2.777 -2.3045  0.8447 -1.1182
 1019MOL0     H40601   6.108  -1.172   2.835  0.8861 -0.7909  0.6832
 1019MOL0     H40602   5.114  -0.836   3.099 -0.1015 -0.3917  0.6084
 1019MOL0     H40603   4.907  -0.692   3.088  0.1420  0.2565 -0.7204
 1019MOL0     H40604   4.828  -0.172   3.148 -0.8449  2.0944  0.1844
 1019MOL0     H40605   4.654  -0.022   3.119  0.4766 -0.2313 -0.2985
 1019MOL0     H40606   5.176   1.089   4.155 -0.0480 -1.9779 -2.1022
 1019MOL0     H40607   5.427   1.157   4.182 -0.4699 -0.4511 -0.7270
 1019MOL0     H40608   5.789   1.111   4.410  2.9772  0.0608  1.5843
 1019MOL0     H40609   5.960   1.242   4.452 -1.5692 -0.6811 -0.1545
 1019MOL0     H40610   6.311   1.231   4.174 -0.6154  0.1135  0.3310
 1019MOL0     H40611   6.262   1.385   4.113 -0.6141 -1.9378 -0.4658
 1019MOL0     H40612   6.493   1.389   4.230  1.4932 -0.6534  1.7636
 1019MOL0     H40613   6.408   1.346   4.374 -0.7404 -0.0999 -0.2141
 1019MOL0     H40614   6.258   1.561   4.318 -0.0675  3.0875  1.1362
 1019MOL0     H40615   6.406   1.577   4.398 -1.2856 -1.1089  1.1387
 1019MOL0     H40616   6.403   1.746   4.210  0.3558  0.1409 -0.4875
 1019MOL0     H40617   6.364   1.608   4.106  0.8889  1.1527 -1.0322
 1019MOL0     H40618   6.790   1.641   4.161 -0.2195 -0.8872  0.9584
 1019MOL0     H40619   6.104   1.204   4.038  2.7224 -1.1133  1.8649
 1019MOL0     H40620   5.831   1.064   3.914 -0.3053  2.8269  2.3684
 1019MOL0     H40621   6.003   1.077   3.890  0.5043 -0.9353 -1.0881
 1019MOL0     H40622   5.937   0.929   3.984 -1.8127  1.2268  1.5892
 1020MOL0     O40623   1.780   6.597   7.717 -0.9847  0.5015 -0.0161
 1020MOL0     C40624   1.656   6.570   7.720  0.3192 -0.2632 -0.2685
 1020MOL0     O40625   1.570   6.598   7.828 -0.8280 -0.0226 -0.1194
 1020MOL0     C40626   1.629   6.663   7.936  0.2667  0.0713  0.2818
 1020MOL0     C40627   1.677   6.796   7.915 -0.0442  1.3554  0.8955
 1020MOL0     C40628   1.717   6.877   8.024  0.2960 -1.0809 -0.1838
 1020MOL0     C40629   1.702   6.838   8.159 -1.0497  0.1880 -1.2281
 1020MOL0     O40630   1.733   6.918   8.269 -0.0370  0.3439  0.9561
 1020MOL0     C40631   1.683   6.882   8.398 -0.2162 -0.2894  0.8134
 1020MOL0     C40632   1.694   7.004   8.486 -0.5120 -0.0105 -0.3167
 1020MOL0     C40633   1.606   7.123   8.449 -0.3491  0.2989 -0.1924
 1020MOL0     C40634   1.655   7.268   8.485 -0.1043  0.1066  0.3000
 1020MOL0     C40635   1.803   7.286   8.450 -0.1977 -0.3933  0.1192
 1020MOL0     C40636   1.857   7.273   8.314 -0.2047  0.7921 -0.1445
 1020MOL0     C40637   2.005   7.318   8.320 -0.2812  0.0549 -0.0857
 1020MOL0     C40638   2.078   7.256   8.197  0.8498 -0.1821  0.8038
 1020MOL0     N40639   2.220   7.295   8.183 -1.1051 -0.1944 -0.0514
 1020MOL0     C40640   2.292   7.325   8.303 -0.3501  0.3013  0.6531
 1020MOL0     C40641   2.392   7.408   8.271 -0.5289  0.5503  0.1815
 1020MOL0     C40642   2.492   7.466   8.364 -0.2009  0.4112  0.6001
 1020MOL0     C40643   2.616   7.489   8.271 -0.1263  0.3830 -0.5143
 1020MOL0     C40644   2.614   7.630   8.208 -0.8640 -0.5319 -0.1368
 1020MOL0     C40645   2.646   7.749   8.297 -0.1558  0.6722  0.2451
 1020MOL0     O40646   2.767   7.733   8.370 -0.4295 -0.0514  0.3773
 1020MOL0     C40647   2.882   7.797   8.330  1.4112 -0.6931  0.2983
 1020MOL0     C40648   2.900   7.890   8.227  0.6125  0.4759  0.0008
 1020MOL0     C40649   3.025   7.957   8.204  0.3701  0.5152  0.6314
 1020MOL0     C40650   3.039   8.036   8.077  0.4040 -0.7338  0.6760
 1020MOL0     C40651   3.134   7.930   8.294  0.5504  0.1746  0.6218
 1020MOL0     C40652   3.271   8.000   8.293  0.3713  0.4282  0.0579
 1020MOL0     O40653   3.284   8.124   8.240  0.7472  0.4554  0.5147
 1020MOL0     C40654   3.398   8.195   8.221 -0.4152  0.0100  0.2108
 1020MOL0     C40655   3.522   8.138   8.197 -0.2368 -0.6138 -0.1763
 1020MOL0     C40656   3.637   8.223   8.204  0.3936  0.0434  0.9926
 1020MOL0     C40657   3.627   8.364   8.215 -0.0802  0.0850  0.8829
 1020MOL0     O40658   3.739   8.444   8.237  0.2259  0.2832 -0.3778
 1020MOL0     C40659   3.745   8.534   8.127  0.8961 -0.2422 -0.3684
 1020MOL0     C40660   3.882   8.604   8.121  0.3975  0.1197  0.1376
 1020MOL0     C40661   3.995   8.513   8.146 -0.0720  0.2165  0.1766
 1020MOL0     C40662   4.125   8.579   8.131 -0.1774 -0.4955  0.7809
 1020MOL0     C40663   4.240   8.482   8.099 -0.0475 -1.1468  0.1783
 1020MOL0     C40664   4.365   8.551   8.051 -0.3032  0.2309  0.2958
 1020MOL0     C40665   4.421   8.628   8.179 -0.4732  0.2479 -0.5834
 1020MOL0     C40666   4.562   8.696   8.156  0.1004 -0.4661  0.2110
 1020MOL0    Cl40667   4.635   8.770   8.299 -0.0992 -0.1162  0.3884
 1020MOL0     C40668   3.502   8.413   8.225 -0.5074 -0.0365 -0.2741
 1020MOL0     C40669   3.388   8.334   8.224 -0.4576  0.3709  0.1213
 1020MOL0     O40670   3.362   7.933   8.341  0.0521 -0.2159 -0.3501
 1020MOL0     C40671   3.109   7.842   8.399  0.7510 -0.2902  0.5640
 1020MOL0     C40672   2.991   7.773   8.416 -0.2844  0.8526  1.0295
 1020MOL0     N40673   2.373   7.432   8.128  0.3001  0.4726  0.2716
 1020MOL0     N40674   2.268   7.370   8.078 -0.1525  0.4721  0.2562
 1020MOL0     C40675   1.635   6.711   8.170  0.4806  0.9367 -0.3067
 1020MOL0     C40676   1.602   6.626   8.066 -0.1895  0.4320  0.2404
 1020MOL0     C40677   1.605   6.492   7.601  0.5132 -0.1790  0.0736
 1020MOL0     C40678   1.481   6.430   7.623 -0.1959  0.0905  0.0413
 1020MOL0     C40679   1.427   6.344   7.522  0.1235  0.2502 -0.1873
 1020MOL0     C40680   1.501   6.315   7.402  0.5294  0.3925 -0.3485
 1020MOL0     O40681   1.463   6.225   7.306 -0.1407  0.1806  0.7996
 1020MOL0     C40682   1.335   6.168   7.329 -0.0134 -0.2865 -0.0131
 1020MOL0     C40683   1.313   6.059   7.223 -0.1536  1.3149 -0.1944
 1020MOL0     C40684   1.411   5.940   7.231  0.7120  0.2278 -0.0983
 1020MOL0     C40685   1.383   5.828   7.131 -0.2480 -0.5324 -0.1139
 1020MOL0     C40686   1.274   5.742   7.165  0.3060  0.7399 -1.1403
 1020MOL0     C40687   1.183   5.663   7.175  0.7086 -0.7147  0.7869
 1020MOL0     C40688   1.619   6.391   7.378  0.4676  0.4037 -1.0942
 1020MOL0     C40689   1.673   6.472   7.475 -0.1074  0.6257 -0.9465
 1020MOL0     C40690   1.797   6.550   7.427 -0.1267 -0.5053  0.2201
 1020MOL0     H40691   1.690   6.837   7.816  0.2096  0.5063  0.5674
 1020MOL0     H40692   1.761   6.973   7.997 -0.8482 -0.7893 -1.0471
 1020MOL0     H40693   1.741   6.798   8.438  0.7241 -1.2853 -2.3047
 1020MOL0     H40694   1.577   6.853   8.391 -0.2230  0.0730 -1.1008
 1020MOL0     H40695   1.693   6.977   8.592  2.7779  2.5695  0.5137
 1020MOL0     H40696   1.800   7.030   8.485  0.0197 -1.7883  1.7460
 1020MOL0     H40697   1.589   7.124   8.341 -1.9942  1.6567  0.0483
 1020MOL0     H40698   1.511   7.108   8.500 -0.2693  0.4336 -0.0023
 1020MOL0     H40699   1.596   7.335   8.421  0.3018 -1.3070 -1.6516
 1020MOL0     H40700   1.640   7.287   8.591 -0.0183  1.9060  0.0201
 1020MOL0     H40701   1.865   7.220   8.512 -1.4617 -0.3529  1.4765
 1020MOL0     H40702   1.824   7.386   8.490 -2.7268 -0.7290  2.5849
 1020MOL0     H40703   1.844   7.171   8.276  0.7484  1.0929 -1.3496
 1020MOL0     H40704   1.801   7.338   8.246 -0.6701 -0.2735 -0.8013
 1020MOL0     H40705   2.061   7.287   8.409  2.2779 -1.0531 -1.9692
 1020MOL0     H40706   2.013   7.427   8.308  0.0235 -0.0881 -1.2394
 1020MOL0     H40707   2.063   7.150   8.217  1.6729  0.1376  3.6080
 1020MOL0     H40708   2.027   7.292   8.107  2.1354  0.6357  0.3770
 1020MOL0     H40709   2.276   7.286   8.402 -1.9089  0.4431  0.4865
 1020MOL0     H40710   2.519   7.395   8.442  0.5315 -1.0893 -0.9506
 1020MOL0     H40711   2.462   7.560   8.412 -2.7151  1.5043 -2.7202
 1020MOL0     H40712   2.709   7.489   8.329 -1.6457 -1.4086  2.1669
 1020MOL0     H40713   2.625   7.411   8.196 -1.5138 -1.0070  0.7035
 1020MOL0     H40714   2.685   7.626   8.125  0.5539 -1.3881  1.0638
 1020MOL0     H40715   2.519   7.653   8.160 -1.9961  1.9541  2.9110
 1020MOL0     H40716   2.650   7.841   8.238  0.8482  2.3543  2.7717
 1020MOL0     H40717   2.571   7.773   8.372 -0.1484 -0.2796  0.5616
 1020MOL0     H40718   2.821   7.909   8.155  0.9888 -0.7907 -0.7899
 1020MOL0     H40719   3.050   8.141   8.105 -1.4344 -0.3304  0.0236
 1020MOL0     H40720   2.950   8.025   8.014 -1.0147 -1.0315  2.6484
 1020MOL0     H40721   3.118   8.014   8.004 -3.2370 -1.8830 -3.3724
 1020MOL0     H40722   3.531   8.030   8.188  0.9006 -0.6260  0.8065
 1020MOL0     H40723   3.733   8.174   8.197  1.1660  1.6955 -3.4120
 1020MOL0     H40724   3.722   8.484   8.032 -0.0819  1.1229 -0.8712
 1020MOL0     H40725   3.664   8.607   8.141  0.8125 -0.5519  0.8704
 1020MOL0     H40726   3.897   8.644   8.020  0.4482  0.2685  0.2044
 1020MOL0     H40727   3.886   8.692   8.185 -2.1915  0.1379  0.3627
 1020MOL0     H40728   3.982   8.419   8.091 -2.0597  0.7929 -0.4287
 1020MOL0     H40729   3.992   8.470   8.246  1.9056 -3.1901 -1.0501
 1020MOL0     H40730   4.155   8.637   8.219  2.8852  0.7604 -0.9420
 1020MOL0     H40731   4.125   8.651   8.049 -1.4289 -2.9905 -1.5589
 1020MOL0     H40732   4.258   8.413   8.182 -1.2864  1.0850  2.4583
 1020MOL0     H40733   4.213   8.418   8.015  0.7718 -3.7470  1.7819
 1020MOL0     H40734   4.339   8.627   7.976 -1.0461  0.1518  0.4631
 1020MOL0     H40735   4.442   8.491   8.003  1.3777  1.2713  1.5555
 1020MOL0     H40736   4.431   8.559   8.264 -1.6946  0.2884 -0.3877
 1020MOL0     H40737   4.363   8.713   8.214 -0.4445  0.6141 -1.4073
 1020MOL0     H40738   4.543   8.779   8.087  0.2900 -0.1570  0.5291
 1020MOL0     H40739   4.642   8.633   8.116  0.6172  0.1058  0.3209
 1020MOL0     H40740   3.484   8.520   8.232  0.2683  0.1331 -0.7350
 1020MOL0     H40741   3.288   8.375   8.231 -0.6780 -0.2683  0.8675
 1020MOL0     H40742   3.192   7.819   8.465  0.2541 -1.2336  0.8726
 1020MOL0     H40743   2.973   7.701   8.495 -3.0806  0.9577  0.5878
 1020MOL0     H40744   1.615   6.658   8.263 -0.0049  0.3336 -0.7439
 1020MOL0     H40745   1.542   6.536   8.082 -1.7419  1.6227  1.3978
 1020MOL0     H40746   1.431   6.432   7.719 -0.3063 -0.9270  0.0138
 1020MOL0     H40747   1.334   6.291   7.540 -0.8884  1.3582 -1.8299
 1020MOL0     H40748   1.329   6.126   7.431 -1.1814  2.9916  1.3905
 1020MOL0     H40749   1.252   6.240   7.334 -0.2408 -0.5266 -0.2630
 1020MOL0     H40750   1.328   6.111   7.128 -0.1768  2.2538  0.3003
 1020MOL0     H40751   1.210   6.026   7.238 -0.9582  4.0371  0.8189
 1020MOL0     H40752   1.514   5.977   7.236  1.0226 -0.6772  0.3796
 1020MOL0     H40753   1.387   5.897   7.328 -0.4181  1.0974  0.0331
 1020MOL0     H40754   1.476   5.771   7.119 -0.8108 -2.3307  2.9770
 1020MOL0     H40755   1.368   5.869   7.031  0.0724 -1.5297 -0.5816
 1020MOL0     H40756   1.110   5.589   7.198 -1.3913  1.4736  1.6312
 1020MOL0     H40757   1.668   6.382   7.281  1.0683 -5.0774 -0.6208
 1020MOL0     H40758   1.777   6.657   7.432  1.0753  0.0310 -3.4698
 1020MOL0     H40759   1.885   6.522   7.485 -0.8240 -1.3028  0.9345
 1020MOL0     H40760   1.827   6.539   7.322 -0.9538  1.2670 -0.2445
 1021MOL0     O40761   9.010   1.828  11.197  0.2848 -0.2747 -0.0192
 1021MOL0     C40762   9.100   1.900  11.223  0.1058  0.2290  1.1665
 1021MOL0     O40763   9.156   1.914  11.351  0.4031  0.3419 -0.0048
 1021MOL0     C40764   9.074   1.872  11.452 -0.3333 -1.8356 -0.5722
 1021MOL0     C40765   9.103   1.760  11.525  0.2152  0.2023 -0.1994
 1021MOL0     C40766   9.019   1.724  11.631 -0.1781  0.3743 -0.2423
 1021MOL0     C40767   8.899   1.798  11.667 -0.7109  0.2733  1.0121
 1021MOL0     O40768   8.814   1.765  11.764  0.0951  0.2868 -0.2114
 1021MOL0     C40769   8.823   1.636  11.833  0.0267  0.1995 -0.8408
 1021MOL0     C40770   8.692   1.625  11.912  0.9682  0.3828  0.0586
 1021MOL0     C40771   8.574   1.590  11.818  0.0837 -0.7932  0.8520
 1021MOL0     C40772   8.474   1.715  11.795  1.0340  0.6151  0.7817
 1021MOL0     C40773   8.360   1.666  11.697 -0.2613 -0.3047 -1.0932
 1021MOL0     C40774   8.391   1.638  11.552 -0.2938  0.2898  0.6037
 1021MOL0     C40775   8.471   1.755  11.489 -0.4609 -0.0096 -0.4467
 1021MOL0     C40776   8.526   1.733  11.351 -0.2975 -0.4990  0.4122
 1021MOL0     N40777   8.612   1.623  11.332 -0.1063  0.2456  0.1454
 1021MOL0     C40778   8.742   1.618  11.381 -1.0808  0.1755  0.0843
 1021MOL0     C40779   8.782   1.484  11.387  0.5153 -0.3055 -0.0083
 1021MOL0     C40780   8.907   1.427  11.429 -0.8853  0.4266 -0.0665
 1021MOL0     C40781   8.895   1.280  11.463  0.0579 -0.2450  0.6105
 1021MOL0     C40782   9.029   1.245  11.534  0.2453  0.3515 -0.5233
 1021MOL0     C40783   9.153   1.224  11.447  0.0916  0.1186  0.1226
 1021MOL0     O40784   9.226   1.344  11.437 -0.4732  0.7793 -0.4237
 1021MOL0     C40785   9.348   1.341  11.497 -0.3772 -0.7964  0.2557
 1021MOL0     C40786   9.380   1.277  11.609  0.3641  0.5963  0.2120
 1021MOL0     C40787   9.511   1.286  11.658  0.5869 -0.3958 -0.9520
 1021MOL0     C40788   9.541   1.201  11.779 -0.1186  0.5185 -0.1454
 1021MOL0     C40789   9.611   1.365  11.596  0.2335 -0.7479 -0.0469
 1021MOL0     C40790   9.748   1.383  11.640  0.5692  0.3962 -0.6228
 1021MOL0     O40791   9.839   1.410  11.544 -0.2201  0.0974 -0.4645
 1021MOL0     C40792   9.975   1.403  11.577 -0.2545  0.4822  0.3121
 1021MOL0     C40793  10.037   1.286  11.535 -0.3898  0.2335 -0.5971
 1021MOL0     C40794  10.176   1.283  11.522  0.8011 -0.3260 -0.3448
 1021MOL0     C40795  10.256   1.382  11.586  0.0035 -0.5425  0.0311
 1021MOL0     O40796  10.390   1.378  11.610 -0.3972 -0.5441  0.2260
 1021MOL0     C40797  10.443   1.270  11.691 -0.2021  0.4567 -0.2421
 1021MOL0     C40798  10.432   1.303  11.841 -0.5094 -0.8736  0.0110
 1021MOL0     C40799  10.519   1.428  11.874 -0.5251  0.1560 -0.1198
 1021MOL0     C40800  10.487   1.475  12.019  0.0696  0.0923  0.7405
 1021MOL0     C40801  10.611   1.532  12.092  0.7602 -0.6477  0.0201
 1021MOL0     C40802  10.589   1.546  12.239 -0.2198  0.9515  0.2332
 1021MOL0     C40803  10.696   1.629  12.307  0.8303  0.5975 -0.7075
 1021MOL0     C40804  10.657   1.654  12.452  0.2330  0.4702 -1.0159
 1021MOL0    Cl40805  10.628   1.821  12.489  0.4260  0.1129  0.1364
 1021MOL0     C40806  10.187   1.495  11.630  0.3169  0.2845  0.1818
 1021MOL0     C40807  10.050   1.510  11.613 -0.2509  0.2144 -1.3076
 1021MOL0     O40808   9.773   1.403  11.758 -0.2072 -0.6124  0.8212
 1021MOL0     C40809   9.566   1.449  11.491 -0.6322  0.6117 -0.1523
 1021MOL0     C40810   9.439   1.440  11.435 -0.5448  0.3564  0.2968
 1021MOL0     N40811   8.669   1.416  11.343  1.4784 -0.0667  0.3683
 1021MOL0     N40812   8.569   1.496  11.307  0.2104  0.2874 -0.3105
 1021MOL0     C40813   8.877   1.914  11.596 -0.3071  0.0435 -0.1461
 1021MOL0     C40814   8.961   1.948  11.486 -0.9849 -0.0463 -0.1725
 1021MOL0     C40815   9.173   1.983  11.117  0.5478  0.4652  0.7368
 1021MOL0     C40816   9.229   2.111  11.148 -0.0277  0.1079  0.4855
 1021MOL0     C40817   9.303   2.196  11.053 -0.1151  0.4253 -0.6590
 1021MOL0     C40818   9.344   2.137  10.932 -0.7509  0.4043 -0.4698
 1021MOL0     O40819   9.420   2.203  10.834  0.9817  0.2708 -0.1496
 1021MOL0     C40820   9.445   2.339  10.853 -0.4408  0.1957  0.6561
 1021MOL0     C40821   9.516   2.385  10.728  0.4979  0.1778 -0.3290
 1021MOL0     C40822   9.587   2.521  10.747 -0.0973 -1.0522  0.2792
 1021MOL0     C40823   9.679   2.532  10.626  0.4185 -0.8144 -0.1745
 1021MOL0     C40824   9.722   2.667  10.593 -0.3508 -0.3400 -0.4276
 1021MOL0     C40825   9.766   2.772  10.551  0.3424  0.7573  0.3283
 1021MOL0     C40826   9.305   2.005  10.906  0.1587 -0.1787 -0.3146
 1021MOL0     C40827   9.222   1.929  10.992  0.2975 -0.4208  0.8430
 1021MOL0     C40828   9.187   1.785  10.961  0.5606  0.0285 -0.0643
 1021MOL0     H40829   9.191   1.699  11.505  1.6957  1.2868  2.4328
 1021MOL0     H40830   9.050   1.636  11.687  2.4899 -0.7861 -3.2225
 1021MOL0     H40831   8.908   1.645  11.901 -0.3000  2.4012 -0.6267
 1021MOL0     H40832   8.830   1.545  11.774  0.8852 -0.6126  0.4700
 1021MOL0     H40833   8.702   1.544  11.984 -1.4010 -0.8033 -0.8337
 1021MOL0     H40834   8.669   1.714  11.971  0.8791  2.6041 -3.0620
 1021MOL0     H40835   8.610   1.547  11.724  1.7701 -1.2382  1.6705
 1021MOL0     H40836   8.513   1.504  11.848  0.4306 -0.7214  1.8084
 1021MOL0     H40837   8.418   1.737  11.886  1.8743 -0.7968  1.6826
 1021MOL0     H40838   8.521   1.809  11.764  2.2643  0.4013  1.9352
 1021MOL0     H40839   8.276   1.735  11.697  0.8261  1.1351  1.3980
 1021MOL0     H40840   8.323   1.579  11.752 -1.8342  0.6663 -0.5609
 1021MOL0     H40841   8.457   1.551  11.548 -0.0138  0.5417 -2.4523
 1021MOL0     H40842   8.298   1.620  11.498 -0.1968  4.6430 -1.4382
 1021MOL0     H40843   8.551   1.791  11.554 -1.7749  1.2053  0.5574
 1021MOL0     H40844   8.403   1.841  11.485  1.0027  1.2017 -0.2799
 1021MOL0     H40845   8.440   1.728  11.284 -1.8039  2.6770  1.9375
 1021MOL0     H40846   8.584   1.822  11.324  1.6252 -1.4286  1.3195
 1021MOL0     H40847   8.794   1.706  11.419 -4.6183  2.4150  0.1548
 1021MOL0     H40848   8.944   1.477  11.519  2.0031 -1.4999 -0.0424
 1021MOL0     H40849   8.985   1.433  11.352  0.4580  0.7077  1.2568
 1021MOL0     H40850   8.803   1.271  11.522 -0.4882 -0.4549 -0.2635
 1021MOL0     H40851   8.880   1.218  11.374 -1.4664  1.2011 -0.2134
 1021MOL0     H40852   9.057   1.309  11.619  0.1793  2.4559 -1.9976
 1021MOL0     H40853   9.010   1.145  11.573 -1.2742  0.7521 -0.1691
 1021MOL0     H40854   9.208   1.142  11.494  2.6103  1.7935  0.2891
 1021MOL0     H40855   9.120   1.187  11.349  0.9125 -2.4789  0.7664
 1021MOL0     H40856   9.311   1.221  11.672  1.1131  1.1334  1.5364
 1021MOL0     H40857   9.638   1.151  11.785 -1.2351 -1.8723 -0.7289
 1021MOL0     H40858   9.463   1.124  11.773  0.5728 -0.0997 -1.6295
 1021MOL0     H40859   9.538   1.261  11.871 -0.2148 -0.1221  0.2776
 1021MOL0     H40860   9.978   1.205  11.492 -0.6474  0.9312 -1.5962
 1021MOL0     H40861  10.219   1.190  11.485  0.0372 -1.4645  1.4690
 1021MOL0     H40862  10.384   1.181  11.666 -0.7147  0.2578  1.5595
 1021MOL0     H40863  10.549   1.251  11.676  0.0898  1.2315  0.7230
 1021MOL0     H40864  10.326   1.322  11.861  0.0985  1.4973  1.2874
 1021MOL0     H40865  10.472   1.220  11.900 -1.7662 -1.3687  0.1914
 1021MOL0     H40866  10.498   1.517  11.814 -1.8621 -0.1243 -0.0776
 1021MOL0     H40867  10.628   1.412  11.867 -0.0902  2.4579  0.6017
 1021MOL0     H40868  10.452   1.386  12.071  1.1162 -0.6426  0.2106
 1021MOL0     H40869  10.405   1.546  12.002  0.0638  0.1848  1.1566
 1021MOL0     H40870  10.693   1.462  12.074 -0.0781 -0.6294 -5.8013
 1021MOL0     H40871  10.640   1.627  12.046  2.3363 -0.3976  1.4203
 1021MOL0     H40872  10.590   1.447  12.285 -0.1365 -0.5319 -2.7554
 1021MOL0     H40873  10.488   1.587  12.252  0.1227  2.0325 -0.3312
 1021MOL0     H40874  10.707   1.721  12.248  1.0433 -0.5280 -2.4883
 1021MOL0     H40875  10.793   1.579  12.301  0.5321  0.0268 -0.8523
 1021MOL0     H40876  10.737   1.618  12.516 -0.0235 -1.8085 -1.8437
 1021MOL0     H40877  10.571   1.591  12.478 -0.9498  2.0685 -0.8657
 1021MOL0     H40878  10.239   1.582  11.666  3.0025 -2.5092  3.7996
 1021MOL0     H40879   9.991   1.598  11.635  0.0660 -0.3017  2.1838
 1021MOL0     H40880   9.635   1.517  11.443  1.9293 -1.7332 -0.0318
 1021MOL0     H40881   9.400   1.510  11.361 -1.3321 -0.5140 -0.1361
 1021MOL0     H40882   8.800   1.989  11.607  0.7013  1.2769 -1.1841
 1021MOL0     H40883   8.952   2.039  11.427 -1.0247  0.3267  0.3998
 1021MOL0     H40884   9.199   2.151  11.245 -0.0502  1.8543 -0.2222
 1021MOL0     H40885   9.328   2.297  11.086  0.1642  1.1448 -2.9219
 1021MOL0     H40886   9.355   2.399  10.869 -0.0819  1.4857 -1.6751
 1021MOL0     H40887   9.516   2.340  10.936 -2.0232 -1.4666  2.1029
 1021MOL0     H40888   9.442   2.397  10.649 -1.0819 -1.5477  0.8055
 1021MOL0     H40889   9.594   2.315  10.693 -0.3932  0.1277 -2.3549
 1021MOL0     H40890   9.514   2.602  10.736  1.0534 -0.1826 -1.4206
 1021MOL0     H40891   9.635   2.536  10.844 -0.1696 -0.3162  0.2051
 1021MOL0     H40892   9.628   2.498  10.536  1.5072 -0.9623 -0.7535
 1021MOL0     H40893   9.773   2.477  10.635  0.7826 -0.1756  0.0488
 1021MOL0     H40894   9.810   2.855  10.499  2.2310 -2.0410 -2.9043
 1021MOL0     H40895   9.332   1.965  10.808  4.3505  3.8176 -1.1413
 1021MOL0     H40896   9.083   1.754  10.975  0.1555  1.2042 -0.4170
 1021MOL0     H40897   9.202   1.771  10.854 -1.4721  0.4407 -0.4485
 1021MOL0     H40898   9.250   1.711  11.011 -0.5625 -0.9707 -0.0713
 1022MOL0     O40899   4.630   5.317   4.691 -0.0330  0.1707  0.6022
 1022MOL0     C40900   4.525   5.335   4.760 -0.7489  0.6174 -0.4408
 1022MOL0     O40901   4.508   5.286   4.881 -0.3451 -0.2441 -0.1445
 1022MOL0     C40902   4.613   5.215   4.931 -0.4351  0.0823  0.2496
 1022MOL0     C40903   4.614   5.075   4.942 -0.2037 -0.3272  0.5165
 1022MOL0     C40904   4.713   5.012   5.018 -0.0627  0.9260 -0.8677
 1022MOL0     C40905   4.814   5.078   5.084  1.9972 -1.1305  0.0820
 1022MOL0     O40906   4.895   5.011   5.162  0.6344  1.1695 -0.4017
 1022MOL0     C40907   5.039   5.028   5.135 -0.3106 -1.2306  0.7184
 1022MOL0     C40908   5.116   4.900   5.188 -0.2541  0.6300  0.2744
 1022MOL0     C40909   5.271   4.903   5.152 -0.1910  0.5344  0.3797
 1022MOL0     C40910   5.329   4.765   5.202 -0.3288  0.3499  1.2324
 1022MOL0     C40911   5.475   4.743   5.152 -0.3447 -0.3681  0.6838
 1022MOL0     C40912   5.574   4.850   5.216 -0.4517 -0.0352 -0.4905
 1022MOL0     C40913   5.559   4.826   5.366 -0.2212  0.2199  0.9919
 1022MOL0     C40914   5.678   4.879   5.446  0.2247  0.3723  0.1939
 1022MOL0     N40915   5.737   4.779   5.547  1.0074  0.2050  0.1927
 1022MOL0     C40916   5.680   4.733   5.667  0.5855  0.0052  0.2925
 1022MOL0     C40917   5.774   4.674   5.742  0.5513  0.6842 -0.2186
 1022MOL0     C40918   5.765   4.630   5.882 -0.5378  0.4047 -0.4467
 1022MOL0     C40919   5.892   4.655   5.972  0.0030  0.6209 -0.2995
 1022MOL0     C40920   5.854   4.654   6.120  0.4506  0.5215  0.7998
 1022MOL0     C40921   5.973   4.688   6.210 -0.6161  0.3327  0.1795
 1022MOL0     O40922   6.085   4.598   6.200  0.5829  0.5020  0.7818
 1022MOL0     C40923   6.200   4.666   6.199  0.3692  0.2714  0.8251
 1022MOL0     C40924   6.271   4.667   6.316  0.7401 -0.2722  0.6918
 1022MOL0     C40925   6.381   4.742   6.320 -0.5201  0.0380  0.1314
 1022MOL0     C40926   6.444   4.757   6.458 -0.1334 -0.5585 -0.0363
 1022MOL0     C40927   6.432   4.816   6.212 -0.4505 -0.7719 -0.0334
 1022MOL0     C40928   6.559   4.900   6.206  0.0474  0.6235  0.1162
 1022MOL0     O40929   6.583   4.969   6.089  0.0058  0.2944 -0.0096
 1022MOL0     C40930   6.698   5.039   6.055  0.1819  0.0042  0.1585
 1022MOL0     C40931   6.816   5.040   6.130  0.3570  0.4807  0.1402
 1022MOL0     C40932   6.924   5.116   6.081  0.3213 -0.1569 -0.1961
 1022MOL0     C40933   6.909   5.205   5.973 -0.0428 -0.3720 -0.9495
 1022MOL0     O40934   7.018   5.286   5.958  0.1427  0.5031  0.0541
 1022MOL0     C40935   7.008   5.381   5.850 -0.2497 -0.1113 -0.7106
 1022MOL0     C40936   7.117   5.491   5.847 -0.4099  0.4729  0.2515
 1022MOL0     C40937   7.253   5.428   5.819 -1.4189  0.2326 -0.8036
 1022MOL0     C40938   7.367   5.526   5.797 -0.7365  0.4805  0.2695
 1022MOL0     C40939   7.500   5.453   5.769 -0.2566  0.1502 -0.3664
 1022MOL0     C40940   7.599   5.561   5.713 -0.8699 -0.0751  0.3318
 1022MOL0     C40941   7.739   5.512   5.711 -0.7119  1.2498 -0.5507
 1022MOL0     C40942   7.827   5.598   5.629 -0.0209 -0.4115 -0.2203
 1022MOL0    Cl40943   7.776   5.594   5.452  0.3599 -0.2109 -0.4466
 1022MOL0     C40944   6.792   5.201   5.895 -0.4848  0.4334  0.0779
 1022MOL0     C40945   6.687   5.117   5.936 -0.7319 -0.4799 -1.0410
 1022MOL0     O40946   6.625   4.910   6.305 -0.2293 -0.2469 -0.7627
 1022MOL0     C40947   6.361   4.811   6.087 -0.2539  0.0618  1.3489
 1022MOL0     C40948   6.239   4.736   6.077 -0.1121 -0.4992  0.3545
 1022MOL0     N40949   5.883   4.680   5.669 -0.1435  0.1051  0.1100
 1022MOL0     N40950   5.869   4.743   5.559 -0.1246 -0.7817  0.1613
 1022MOL0     C40951   4.821   5.218   5.070 -0.9675 -0.3180  0.2821
 1022MOL0     C40952   4.722   5.280   4.995  0.4894  0.5533 -0.3090
 1022MOL0     C40953   4.404   5.400   4.703  0.0395 -0.2282 -0.3081
 1022MOL0     C40954   4.292   5.408   4.787  0.3766 -0.1688  0.2450
 1022MOL0     C40955   4.178   5.476   4.760  0.4836  0.7991  0.2611
 1022MOL0     C40956   4.170   5.541   4.631  0.2945  0.3168  0.1095
 1022MOL0     O40957   4.056   5.609   4.588 -0.7737 -0.4353 -0.1106
 1022MOL0     C40958   3.949   5.625   4.673  0.9306 -0.1266 -0.6064
 1022MOL0     C40959   3.827   5.685   4.602  0.3135  0.2912 -1.2583
 1022MOL0     C40960   3.784   5.592   4.483 -0.4503 -0.0070 -0.2540
 1022MOL0     C40961   3.657   5.651   4.423 -1.0786  0.2721 -0.3577
 1022MOL0     C40962   3.600   5.565   4.321  0.0654  0.3734  0.1201
 1022MOL0     C40963   3.554   5.491   4.238 -0.5034  0.0529 -0.6510
 1022MOL0     C40964   4.273   5.531   4.538 -0.1801 -0.6047  0.3641
 1022MOL0     C40965   4.393   5.469   4.580  1.2254 -0.3216 -0.0012
 1022MOL0     C40966   4.501   5.465   4.472  1.0761 -0.1362 -0.2630
 1022MOL0     H40967   4.523   5.025   4.911 -0.2277  0.3346 -0.5254
 1022MOL0     H40968   4.702   4.905   5.034  1.1799  0.6280 -1.7635
 1022MOL0     H40969   5.093   5.112   5.179 -0.4563 -0.6659 -0.1612
 1022MOL0     H40970   5.058   5.031   5.028 -1.6207 -1.0204  0.4846
 1022MOL0     H40971   5.096   4.891   5.295  0.6320  0.2815  0.4258
 1022MOL0     H40972   5.065   4.814   5.144  0.5663 -0.4884  1.4391
 1022MOL0     H40973   5.299   4.929   5.049  3.4792  0.8919  1.3422
 1022MOL0     H40974   5.311   4.991   5.204  0.3318  1.4374 -1.4517
 1022MOL0     H40975   5.318   4.755   5.310 -1.6443 -0.6637  1.0336
 1022MOL0     H40976   5.267   4.690   5.151  1.5066 -0.7543  0.5233
 1022MOL0     H40977   5.483   4.765   5.046  2.1234  0.0683  0.9055
 1022MOL0     H40978   5.515   4.641   5.158  0.3618 -0.2541 -1.3401
 1022MOL0     H40979   5.677   4.838   5.182 -0.3711  0.2351 -0.3427
 1022MOL0     H40980   5.543   4.950   5.184 -1.0779 -0.8726 -2.6509
 1022MOL0     H40981   5.560   4.720   5.395  0.7037  0.5634  2.3355
 1022MOL0     H40982   5.464   4.872   5.393 -0.6836 -0.3613  0.3789
 1022MOL0     H40983   5.756   4.926   5.385 -0.0795 -1.2617 -1.5321
 1022MOL0     H40984   5.634   4.957   5.510 -0.7244  0.3257 -0.3964
 1022MOL0     H40985   5.575   4.754   5.684  0.4140 -1.1586  0.7586
 1022MOL0     H40986   5.758   4.520   5.876 -1.3665  0.4864 -1.2646
 1022MOL0     H40987   5.673   4.667   5.927  0.3654 -0.0344  1.8631
 1022MOL0     H40988   5.964   4.580   5.938  0.3807 -0.0787  1.8503
 1022MOL0     H40989   5.930   4.756   5.955  0.6610  0.7242  1.5465
 1022MOL0     H40990   5.770   4.723   6.136 -0.6794 -0.7195  0.3745
 1022MOL0     H40991   5.825   4.551   6.141 -2.3011  1.0316 -0.1416
 1022MOL0     H40992   5.999   4.789   6.178 -2.0391  0.4138 -0.8060
 1022MOL0     H40993   5.938   4.694   6.313 -0.6578  2.7895  0.0850
 1022MOL0     H40994   6.229   4.616   6.402 -0.5225 -0.3378  0.0578
 1022MOL0     H40995   6.382   4.706   6.531  1.1092 -0.3288  1.2343
 1022MOL0     H40996   6.444   4.865   6.477 -1.8098  0.0892 -3.1170
 1022MOL0     H40997   6.540   4.705   6.465 -1.1593 -2.5241  0.0587
 1022MOL0     H40998   6.824   4.974   6.215  0.5355 -0.3334 -0.4943
 1022MOL0     H40999   7.018   5.115   6.135 -0.5230 -1.4827  1.3192
 1022MOL0     H41000   7.031   5.317   5.764 -2.6467 -1.7570 -0.2284
 1022MOL0     H41001   6.910   5.430   5.841  1.5530  4.1302  0.2473
 1022MOL0     H41002   7.112   5.566   5.768  1.2661 -0.4649 -0.7979
 1022MOL0     H41003   7.109   5.548   5.940 -2.4802  0.8555 -0.1031
 1022MOL0     H41004   7.254   5.364   5.731  1.9920 -1.2719  0.1282
 1022MOL0     H41005   7.290   5.375   5.908  0.1807  1.0462 -0.9382
 1022MOL0     H41006   7.369   5.590   5.886  2.8390  0.9726 -0.0082
 1022MOL0     H41007   7.332   5.590   5.715 -3.6483 -1.2089  0.0692
 1022MOL0     H41008   7.544   5.411   5.860 -1.8507 -2.2949 -0.6492
 1022MOL0     H41009   7.488   5.363   5.709  0.2443 -0.1567 -0.0113
 1022MOL0     H41010   7.590   5.653   5.771  2.8194  1.2466 -0.9148
 1022MOL0     H41011   7.559   5.581   5.613  0.5072 -0.2606 -0.2723
 1022MOL0     H41012   7.732   5.408   5.678  0.2343  0.7291  0.8179
 1022MOL0     H41013   7.789   5.509   5.808  1.4143  0.8760 -1.6109
 1022MOL0     H41014   7.931   5.566   5.645  0.6714  2.6929  2.5142
 1022MOL0     H41015   7.834   5.698   5.673  1.9533  0.1767 -1.7019
 1022MOL0     H41016   6.786   5.259   5.803  0.5723  0.3110 -0.0828
 1022MOL0     H41017   6.596   5.118   5.878 -3.0009 -1.7916  2.1825
 1022MOL0     H41018   6.392   4.864   5.998 -2.3270  1.2850  1.2839
 1022MOL0     H41019   6.186   4.729   5.982  2.1869  0.0492 -1.0626
 1022MOL0     H41020   4.898   5.269   5.127 -2.5927 -0.8536  3.1558
 1022MOL0     H41021   4.738   5.387   4.985 -0.3925  1.0906  2.9264
 1022MOL0     H41022   4.301   5.379   4.891  0.6496 -0.5774  0.1100
 1022MOL0     H41023   4.098   5.477   4.834 -0.3651 -0.9055 -0.5882
 1022MOL0     H41024   3.920   5.535   4.729 -1.4625  0.4602 -0.8222
 1022MOL0     H41025   3.977   5.703   4.745  0.6930  0.1013 -0.7586
 1022MOL0     H41026   3.847   5.787   4.569 -1.2821  1.9493  2.3454
 1022MOL0     H41027   3.746   5.705   4.673  0.6786 -2.1135 -0.0568
 1022MOL0     H41028   3.863   5.575   4.409  0.0418 -0.8970  0.4465
 1022MOL0     H41029   3.765   5.490   4.518 -2.4152  0.0187 -1.1209
 1022MOL0     H41030   3.685   5.742   4.369 -4.1764  0.5772 -1.6328
 1022MOL0     H41031   3.584   5.684   4.498  1.3577 -0.4982  2.5652
 1022MOL0     H41032   3.511   5.413   4.178  1.4577 -1.1510 -0.5751
 1022MOL0     H41033   4.271   5.585   4.444  3.1345  0.3985  0.7505
 1022MOL0     H41034   4.464   5.512   4.380  0.4061 -0.5160 -0.1940
 1022MOL0     H41035   4.590   5.516   4.511 -1.9293  2.0362  4.6151
 1022MOL0     H41036   4.526   5.363   4.443 -1.3950 -0.5204 -1.2817
 1023MOL0     O41037  10.147   5.873   8.001 -0.2800  0.2850  0.8677
 1023MOL0     C41038  10.248   5.914   7.948 -0.4799 -0.9509  0.2189
 1023MOL0     O41039  10.300   5.873   7.830  0.2748 -0.0945  0.1235
 1023MOL0     C41040  10.233   5.768   7.765  0.4142 -0.1072 -0.3376
 1023MOL0     C41041  10.093   5.758   7.741  0.1168  0.2137 -0.7218
 1023MOL0     C41042  10.037   5.650   7.675  1.0409 -0.6051 -0.0801
 1023MOL0     C41043  10.108   5.544   7.623  0.3006 -0.7060 -0.3668
 1023MOL0     O41044  10.053   5.443   7.548  0.1145  0.3092  0.2301
 1023MOL0     C41045   9.913   5.439   7.545 -0.0908 -0.7385 -0.1873
 1023MOL0     C41046   9.871   5.288   7.550  0.3398 -0.3281  0.5303
 1023MOL0     C41047   9.717   5.274   7.549 -0.4747  0.2413 -0.5921
 1023MOL0     C41048   9.668   5.130   7.541  0.3334  0.3996 -0.2547
 1023MOL0     C41049   9.522   5.134   7.571 -0.1916 -0.5754 -0.1276
 1023MOL0     C41050   9.453   4.999   7.537  0.2346  0.3940 -0.8251
 1023MOL0     C41051   9.301   5.008   7.538 -0.2688 -0.2319  0.4649
 1023MOL0     C41052   9.232   4.892   7.470 -1.3567 -0.1504  0.0627
 1023MOL0     N41053   9.239   4.763   7.537 -0.2323 -0.0281 -0.4670
 1023MOL0     C41054   9.173   4.720   7.654 -0.2801 -0.3734  0.5438
 1023MOL0     C41055   9.218   4.600   7.677  0.4177  0.1120 -0.0212
 1023MOL0     C41056   9.178   4.513   7.788  0.4662 -0.1600 -0.4464
 1023MOL0     C41057   9.295   4.474   7.883 -0.3315 -0.6771  0.5188
 1023MOL0     C41058   9.260   4.371   7.995 -0.3292  0.7943 -0.0299
 1023MOL0     C41059   9.177   4.423   8.109  0.3720 -0.8896 -0.7629
 1023MOL0     O41060   9.254   4.514   8.187  0.3548  0.5128 -0.2889
 1023MOL0     C41061   9.187   4.595   8.271 -0.7459  0.8135 -0.0545
 1023MOL0     C41062   9.241   4.719   8.304 -0.0762  0.2580  0.0692
 1023MOL0     C41063   9.179   4.801   8.391 -0.5059 -0.3452 -0.3688
 1023MOL0     C41064   9.233   4.934   8.405 -0.7807 -0.2411 -0.2156
 1023MOL0     C41065   9.068   4.761   8.472  0.8017  0.1223 -0.3120
 1023MOL0     C41066   8.982   4.849   8.559  0.7317 -0.0276  0.4721
 1023MOL0     O41067   9.018   4.976   8.590  0.1209 -0.0640  0.0939
 1023MOL0     C41068   8.953   5.054   8.673  0.2573 -0.1016 -0.0465
 1023MOL0     C41069   8.823   5.092   8.654 -0.1073 -0.0157 -0.4129
 1023MOL0     C41070   8.754   5.173   8.747  0.9117 -0.2117 -0.1258
 1023MOL0     C41071   8.821   5.241   8.852 -0.1518 -0.1201  0.1621
 1023MOL0     O41072   8.767   5.321   8.950  0.9286 -0.1332  0.8523
 1023MOL0     C41073   8.629   5.300   8.981  0.0288 -0.1628  0.2260
 1023MOL0     C41074   8.589   5.389   9.096  0.0566  0.3033 -0.1242
 1023MOL0     C41075   8.466   5.340   9.172  0.3863 -0.4908 -0.5559
 1023MOL0     C41076   8.331   5.334   9.096  0.1647 -0.4051 -0.8801
 1023MOL0     C41077   8.273   5.473   9.063  0.4174 -0.3014 -0.2103
 1023MOL0     C41078   8.134   5.450   9.007  0.0956 -0.0603 -0.7336
 1023MOL0     C41079   8.057   5.572   8.951  0.5079  0.2988 -0.0385
 1023MOL0     C41080   8.026   5.680   9.058 -0.5588  0.6471  0.2242
 1023MOL0    Cl41081   7.887   5.787   9.009  0.2466  0.0526  0.1248
 1023MOL0     C41082   8.964   5.211   8.867  0.0666 -0.6287  1.0551
 1023MOL0     C41083   9.027   5.129   8.777 -0.0156  1.2796 -0.1741
 1023MOL0     O41084   8.884   4.792   8.599 -0.4224 -0.5747 -0.4485
 1023MOL0     C41085   9.024   4.625   8.448 -0.0048 -0.1392 -0.8261
 1023MOL0     C41086   9.072   4.549   8.339  0.5470 -0.0547  0.5483
 1023MOL0     N41087   9.335   4.583   7.609 -0.1867  0.2789 -0.3019
 1023MOL0     N41088   9.347   4.688   7.530 -1.0521 -0.0603  0.2231
 1023MOL0     C41089  10.250   5.554   7.638 -0.4149 -0.2475  0.0790
 1023MOL0     C41090  10.310   5.665   7.700  0.1370 -1.5513 -0.3816
 1023MOL0     C41091  10.324   6.011   8.028 -0.0375 -0.6107 -1.0759
 1023MOL0     C41092  10.456   6.035   7.985 -0.5856  1.1368  0.0445
 1023MOL0     C41093  10.538   6.123   8.065  0.0287  0.3928  0.2022
 1023MOL0     C41094  10.489   6.181   8.179  0.4428 -1.2650 -0.2442
 1023MOL0     O41095  10.564   6.263   8.265 -0.4841 -0.1917  0.0256
 1023MOL0     C41096  10.685   6.327   8.218 -0.0047  0.4345 -0.2508
 1023MOL0     C41097  10.745   6.412   8.331 -0.2840  0.0112  0.2053
 1023MOL0     C41098  10.898   6.438   8.303  0.3372  0.1348 -0.5335
 1023MOL0     C41099  10.962   6.528   8.405 -1.3611  0.2679  0.2274
 1023MOL0     C41100  10.934   6.670   8.368 -0.3039 -0.0414 -0.2029
 1023MOL0     C41101  10.914   6.791   8.352 -0.3045  0.2007  0.1694
 1023MOL0     C41102  10.362   6.153   8.219  0.0963 -0.5648 -0.1730
 1023MOL0     C41103  10.271   6.079   8.144  0.0620  0.2663 -0.4149
 1023MOL0     C41104  10.129   6.088   8.194 -0.2509  0.3280 -0.0458
 1023MOL0     H41105  10.035   5.843   7.774  0.4864  0.5068 -0.8191
 1023MOL0     H41106   9.932   5.659   7.652  1.5481 -2.2046 -3.6979
 1023MOL0     H41107   9.877   5.493   7.457 -1.4032 -0.0531  0.7354
 1023MOL0     H41108   9.866   5.487   7.632 -3.2888  2.4488 -3.2990
 1023MOL0     H41109   9.911   5.246   7.458  0.8174  0.1876  0.4941
 1023MOL0     H41110   9.913   5.235   7.636  2.5602 -0.6018 -0.6540
 1023MOL0     H41111   9.703   5.306   7.653 -0.9043 -0.8773 -0.2925
 1023MOL0     H41112   9.672   5.344   7.479  1.0863 -0.7375 -2.6761
 1023MOL0     H41113   9.678   5.078   7.445 -0.0864 -1.4287  0.6430
 1023MOL0     H41114   9.726   5.074   7.614 -1.1923  0.6535  1.2160
 1023MOL0     H41115   9.465   5.209   7.517  2.3135  0.8060 -1.0463
 1023MOL0     H41116   9.501   5.136   7.678 -2.2386 -2.7192 -0.4152
 1023MOL0     H41117   9.485   4.944   7.449  0.3678  0.0639 -0.5740
 1023MOL0     H41118   9.478   4.931   7.619  0.2323  2.2800  0.8487
 1023MOL0     H41119   9.264   5.096   7.485 -2.4467 -2.0373 -1.2010
 1023MOL0     H41120   9.281   5.003   7.646  2.6602 -0.5970  1.0854
 1023MOL0     H41121   9.125   4.912   7.457 -0.9432  0.6291 -3.1878
 1023MOL0     H41122   9.273   4.880   7.369  0.4713  0.8504  0.6455
 1023MOL0     H41123   9.095   4.770   7.711 -0.1075 -1.5005  1.8217
 1023MOL0     H41124   9.118   4.429   7.752 -1.1008 -0.7750  3.2194
 1023MOL0     H41125   9.107   4.568   7.850 -0.3370  1.6236 -2.7627
 1023MOL0     H41126   9.369   4.421   7.822 -1.3788 -0.1713 -1.2828
 1023MOL0     H41127   9.337   4.565   7.925  0.3739  0.0418 -1.5962
 1023MOL0     H41128   9.202   4.288   7.954  0.6395 -0.4972  1.1018
 1023MOL0     H41129   9.362   4.341   8.023  0.5171  1.7899 -1.9092
 1023MOL0     H41130   9.083   4.462   8.068  0.2742  1.4719  1.4345
 1023MOL0     H41131   9.143   4.337   8.167  0.4578 -0.2970  0.1866
 1023MOL0     H41132   9.329   4.759   8.254 -0.2029  2.1608  1.2675
 1023MOL0     H41133   9.155   5.008   8.385  0.4559  1.0388 -0.5331
 1023MOL0     H41134   9.319   4.964   8.344  0.0098 -1.6768  0.1369
 1023MOL0     H41135   9.258   4.943   8.511  1.9065 -0.1394 -0.7904
 1023MOL0     H41136   8.788   5.041   8.565 -1.4516  0.5584 -0.2353
 1023MOL0     H41137   8.649   5.199   8.741  1.5478  2.4475 -1.1236
 1023MOL0     H41138   8.554   5.312   8.902 -0.2367 -2.6776 -0.0062
 1023MOL0     H41139   8.604   5.196   9.006 -1.8668  0.6192  1.9038
 1023MOL0     H41140   8.660   5.388   9.179 -1.3261 -1.5254  1.1252
 1023MOL0     H41141   8.577   5.489   9.054  0.2767 -0.1005 -1.1873
 1023MOL0     H41142   8.446   5.406   9.257 -1.5368 -1.1306 -0.4749
 1023MOL0     H41143   8.483   5.236   9.202 -0.2016 -0.9778 -1.8663
 1023MOL0     H41144   8.271   5.274   9.166  2.5335 -1.8613  0.0590
 1023MOL0     H41145   8.326   5.267   9.009  0.8102 -2.3165  0.4747
 1023MOL0     H41146   8.277   5.536   9.152  1.8428  1.5776 -1.5338
 1023MOL0     H41147   8.328   5.526   8.986 -1.2321 -0.3047 -1.4388
 1023MOL0     H41148   8.073   5.404   9.085  1.1541 -2.6684 -1.3515
 1023MOL0     H41149   8.152   5.375   8.930 -2.3463 -1.1412 -0.3753
 1023MOL0     H41150   7.967   5.542   8.896  1.0602 -0.7694 -0.3802
 1023MOL0     H41151   8.123   5.630   8.886  1.0129  0.7788  0.8815
 1023MOL0     H41152   8.112   5.737   9.094 -0.3640  0.3513  0.2192
 1023MOL0     H41153   7.985   5.632   9.148  0.7377 -3.9303 -1.3656
 1023MOL0     H41154   9.009   5.266   8.948 -0.1715  3.9710 -1.5472
 1023MOL0     H41155   9.133   5.107   8.782 -0.5645 -1.5441  1.0014
 1023MOL0     H41156   8.946   4.580   8.509  2.5241 -1.6784  1.5007
 1023MOL0     H41157   9.030   4.450   8.323  0.8158  0.1083 -1.5119
 1023MOL0     H41158  10.312   5.470   7.608 -0.5987  0.0119 -1.0922
 1023MOL0     H41159  10.416   5.653   7.716  0.4576 -0.0584 -1.2193
 1023MOL0     H41160  10.503   5.995   7.895  0.9285  0.2978  1.1535
 1023MOL0     H41161  10.640   6.138   8.030  0.4936 -2.2490  0.1807
 1023MOL0     H41162  10.756   6.250   8.185 -0.5264 -0.4460  0.6337
 1023MOL0     H41163  10.669   6.396   8.135  0.1994  0.6061 -0.1473
 1023MOL0     H41164  10.729   6.364   8.428  1.6226  2.6972  2.0155
 1023MOL0     H41165  10.700   6.512   8.323 -0.4402 -0.0532  0.2900
 1023MOL0     H41166  10.953   6.343   8.308 -0.8089 -0.4835  1.5253
 1023MOL0     H41167  10.921   6.475   8.203  1.8415  0.5407 -0.0537
 1023MOL0     H41168  11.071   6.527   8.402 -1.3461 -0.2374  0.8191
 1023MOL0     H41169  10.927   6.497   8.504 -0.3916 -2.3586 -0.1804
 1023MOL0     H41170  10.895   6.894   8.330  2.1302  0.3198 -1.8163
 1023MOL0     H41171  10.336   6.215   8.304  2.6932 -0.4172  0.5839
 1023MOL0     H41172  10.116   6.166   8.269  3.1833  0.1369  0.9032
 1023MOL0     H41173  10.061   6.083   8.109  2.2528 -1.8378 -2.1201
 1023MOL0     H41174  10.107   5.995   8.248  0.0808  0.4178  0.2478
 1024MOL0     O41175   1.595   3.780  10.718  0.6387  0.3147 -0.5840
 1024MOL0     C41176   1.519   3.689  10.755 -0.1848  0.4947  0.7389
 1024MOL0     O41177   1.557   3.558  10.773 -0.0808 -0.4480 -0.0848
 1024MOL0     C41178   1.682   3.533  10.719  0.5005 -0.2153  0.2003
 1024MOL0     C41179   1.790   3.565  10.802  0.2740 -0.2475 -0.5335
 1024MOL0     C41180   1.922   3.547  10.757  0.3025 -0.2101 -0.5566
 1024MOL0     C41181   1.942   3.499  10.620 -0.1773 -0.6962 -0.3935
 1024MOL0     O41182   2.056   3.459  10.565  0.2878  0.6788 -0.0471
 1024MOL0     C41183   2.176   3.458  10.652  1.1945 -0.4398 -0.4384
 1024MOL0     C41184   2.299   3.427  10.576  0.2302  0.2003  0.5640
 1024MOL0     C41185   2.302   3.288  10.501  0.0002 -0.4750  0.2825
 1024MOL0     C41186   2.389   3.287  10.371 -0.1331  0.6133 -0.1097
 1024MOL0     C41187   2.535   3.306  10.404 -0.7122  0.6378 -0.4452
 1024MOL0     C41188   2.604   3.184  10.470 -0.7929  0.4220 -0.0616
 1024MOL0     C41189   2.745   3.211  10.509 -0.1292 -0.1969 -0.0268
 1024MOL0     C41190   2.807   3.087  10.579 -0.0044  0.0055  0.5116
 1024MOL0     N41191   2.951   3.103  10.558  0.4727  0.2050  0.3780
 1024MOL0     C41192   3.031   3.175  10.640 -0.3197  0.5028  0.8544
 1024MOL0     C41193   3.159   3.150  10.603  0.4491 -0.4101  0.2688
 1024MOL0     C41194   3.281   3.239  10.638  0.0207  0.7796 -0.1014
 1024MOL0     C41195   3.302   3.364  10.556  0.0701 -0.4980  0.4819
 1024MOL0     C41196   3.453   3.405  10.564  1.0293 -0.3641  0.0384
 1024MOL0     C41197   3.468   3.549  10.502 -0.3338  0.6240 -0.1220
 1024MOL0     O41198   3.410   3.660  10.577  0.0161  0.7119  0.8980
 1024MOL0     C41199   3.498   3.751  10.632  0.0210  0.3438 -0.8485
 1024MOL0     C41200   3.626   3.723  10.681  0.0615 -0.1885  0.2143
 1024MOL0     C41201   3.700   3.828  10.743  0.3755 -0.3964 -1.0379
 1024MOL0     C41202   3.837   3.787  10.798 -0.2243 -0.2673  0.2257
 1024MOL0     C41203   3.644   3.959  10.746  0.2501 -0.1614 -0.6593
 1024MOL0     C41204   3.721   4.076  10.777 -0.8385  0.1309  0.4479
 1024MOL0     O41205   3.647   4.176  10.844 -0.6244  1.0149  0.3829
 1024MOL0     C41206   3.710   4.296  10.880  0.0353 -0.0775  0.0440
 1024MOL0     C41207   3.842   4.311  10.924  1.2095  0.4446  0.1732
 1024MOL0     C41208   3.892   4.427  10.969 -1.0855 -0.2240  0.9603
 1024MOL0     C41209   3.811   4.542  10.962 -0.1971 -1.0460  0.9291
 1024MOL0     O41210   3.854   4.660  11.015 -0.1017  0.3558  1.0184
 1024MOL0     C41211   3.957   4.720  10.932  0.0512 -0.0620  0.8030
 1024MOL0     C41212   4.050   4.799  11.029  0.0424  0.1094 -0.5640
 1024MOL0     C41213   4.173   4.710  11.081 -0.4363  0.0450  0.1490
 1024MOL0     C41214   4.263   4.779  11.192 -0.6916  0.0575 -0.6151
 1024MOL0     C41215   4.351   4.671  11.267  0.3747 -0.5465 -0.1011
 1024MOL0     C41216   4.431   4.724  11.385 -0.2274  0.0042  0.5929
 1024MOL0     C41217   4.540   4.627  11.430  0.2738 -0.0952  0.1346
 1024MOL0     C41218   4.606   4.662  11.569  0.4328  0.6118 -0.3067
 1024MOL0    Cl41219   4.671   4.825  11.573  0.4214  0.0836 -0.0591
 1024MOL0     C41220   3.685   4.532  10.910 -0.0174 -0.2865 -0.8217
 1024MOL0     C41221   3.631   4.411  10.872 -0.6156 -0.5360  0.3173
 1024MOL0     O41222   3.841   4.087  10.741  0.3313  0.1117  0.3734
 1024MOL0     C41223   3.510   3.980  10.711 -0.6206  0.6266 -0.3336
 1024MOL0     C41224   3.435   3.877  10.651 -0.2774 -0.4420  0.4074
 1024MOL0     N41225   3.147   3.066  10.498  0.2754 -0.1872  1.3305
 1024MOL0     N41226   3.024   3.043  10.460  0.9003  0.3590 -0.8248
 1024MOL0     C41227   1.832   3.475  10.540 -0.2430  0.3555  0.0373
 1024MOL0     C41228   1.697   3.487  10.586  0.4267 -0.0224 -0.7346
 1024MOL0     C41229   1.379   3.725  10.766  0.0565 -0.2495 -0.3020
 1024MOL0     C41230   1.328   3.844  10.826 -0.3284 -0.2759  0.2951
 1024MOL0     C41231   1.194   3.872  10.860 -0.7099 -0.2270  0.7010
 1024MOL0     C41232   1.104   3.773  10.834  0.0797 -0.0966  1.5350
 1024MOL0     O41233   0.976   3.808  10.859  0.4823  0.1340 -0.3391
 1024MOL0     C41234   0.864   3.737  10.816 -0.4401 -0.4706 -0.3948
 1024MOL0     C41235   0.738   3.829  10.830  0.7397  0.0562  0.3817
 1024MOL0     C41236   0.750   3.966  10.770 -0.2459  0.2541 -1.0009
 1024MOL0     C41237   0.622   4.033  10.711 -0.4350  0.6523 -0.1496
 1024MOL0     C41238   0.520   4.040  10.818 -0.1418  0.6721  0.2317
 1024MOL0     C41239   0.420   4.040  10.880  0.3894 -0.6815 -0.0986
 1024MOL0     C41240   1.140   3.653  10.766  0.6042  0.4823 -0.7363
 1024MOL0     C41241   1.277   3.630  10.734 -1.1695  0.5710 -0.3318
 1024MOL0     C41242   1.304   3.500  10.651 -0.2431  0.2399  0.0042
 1024MOL0     H41243   1.790   3.608  10.902  1.1194  0.2001 -0.7160
 1024MOL0     H41244   2.004   3.568  10.825  0.6085  0.6856 -1.1810
 1024MOL0     H41245   2.150   3.382  10.726 -2.0813  2.1046  1.2629
 1024MOL0     H41246   2.192   3.553  10.704  4.0272 -0.4288 -1.1683
 1024MOL0     H41247   2.320   3.516  10.516 -1.9799  1.0985  1.0051
 1024MOL0     H41248   2.385   3.427  10.643 -0.1410 -0.5491  1.0605
 1024MOL0     H41249   2.321   3.209  10.574 -0.7431 -0.4207  0.5486
 1024MOL0     H41250   2.196   3.273  10.478  0.1328 -1.6230  0.3658
 1024MOL0     H41251   2.381   3.196  10.311  1.1765  1.4250 -1.5926
 1024MOL0     H41252   2.356   3.362  10.298  1.9243 -0.7097 -2.5909
 1024MOL0     H41253   2.536   3.386  10.478 -1.5737  2.1118 -1.9439
 1024MOL0     H41254   2.586   3.340  10.313 -1.8445 -4.5331 -3.3998
 1024MOL0     H41255   2.548   3.154  10.559 -1.5866  0.1353 -0.6463
 1024MOL0     H41256   2.595   3.107  10.393 -0.0142 -0.2574  0.5199
 1024MOL0     H41257   2.762   3.289  10.583  1.3158 -0.4618 -0.0537
 1024MOL0     H41258   2.799   3.234  10.417  1.7670 -1.1055  0.8163
 1024MOL0     H41259   2.777   3.085  10.684  1.0113  2.1653  0.9169
 1024MOL0     H41260   2.776   2.995  10.529  1.3625  1.6263 -3.8194
 1024MOL0     H41261   2.999   3.245  10.717  0.0531  0.7502  0.7887
 1024MOL0     H41262   3.365   3.170  10.621 -1.5498 -1.8390  1.8721
 1024MOL0     H41263   3.297   3.268  10.742 -1.3633 -0.1857  0.4130
 1024MOL0     H41264   3.276   3.352  10.451  1.9885  2.6432 -0.4899
 1024MOL0     H41265   3.250   3.448  10.603 -1.0580 -1.5709  1.2033
 1024MOL0     H41266   3.496   3.405  10.665 -1.5864 -0.7787  1.2234
 1024MOL0     H41267   3.521   3.338  10.511  2.4691  1.7564 -0.9552
 1024MOL0     H41268   3.575   3.565  10.484 -0.0285 -1.1031 -0.0742
 1024MOL0     H41269   3.417   3.534  10.406  1.5127  0.1936 -1.0760
 1024MOL0     H41270   3.670   3.623  10.676 -1.9014 -1.3312  3.0864
 1024MOL0     H41271   3.903   3.749  10.720 -2.5086 -3.0143 -0.5526
 1024MOL0     H41272   3.817   3.691  10.847  0.2507 -0.0784  0.7887
 1024MOL0     H41273   3.882   3.857  10.869  0.4754  1.8027 -2.1323
 1024MOL0     H41274   3.897   4.219  10.939  1.0233  0.4092  0.6491
 1024MOL0     H41275   3.997   4.425  10.999  0.0267  0.0217 -2.4496
 1024MOL0     H41276   4.014   4.645  10.877  0.4378 -0.2945  1.4982
 1024MOL0     H41277   3.910   4.787  10.860  1.6687  1.1960  0.8733
 1024MOL0     H41278   4.097   4.885  10.981 -3.1060  1.5143 -1.4142
 1024MOL0     H41279   3.995   4.838  11.115  1.0498  1.0876 -0.3366
 1024MOL0     H41280   4.250   4.688  11.007 -1.5404 -3.4848 -0.1376
 1024MOL0     H41281   4.129   4.620  11.124 -0.8481  0.1129 -0.1309
 1024MOL0     H41282   4.200   4.842  11.255  1.4801  1.2007  0.5171
 1024MOL0     H41283   4.331   4.846  11.139  0.6820 -0.8748 -0.0584
 1024MOL0     H41284   4.282   4.594  11.302 -0.1473 -0.6912 -1.4183
 1024MOL0     H41285   4.417   4.630  11.190  0.4546 -0.9171  0.1624
 1024MOL0     H41286   4.363   4.735  11.470 -0.8318 -0.1981  0.1436
 1024MOL0     H41287   4.475   4.818  11.351  0.3938  0.1337  1.7188
 1024MOL0     H41288   4.614   4.613  11.351  1.6121  1.0165  1.1284
 1024MOL0     H41289   4.488   4.531  11.438  0.5932 -0.5654 -2.4744
 1024MOL0     H41290   4.686   4.591  11.592  0.3018 -0.3946 -2.6268
 1024MOL0     H41291   4.534   4.660  11.652 -1.8966  4.8378 -1.9008
 1024MOL0     H41292   3.618   4.618  10.914  0.0803 -0.1871 -1.3310
 1024MOL0     H41293   3.527   4.419  10.844 -1.0879  0.9984  2.2230
 1024MOL0     H41294   3.460   4.075  10.726 -1.9797 -0.1339  0.0650
 1024MOL0     H41295   3.329   3.891  10.630 -0.0917  0.8054  0.2355
 1024MOL0     H41296   1.854   3.441  10.440  0.1126 -1.0824  0.5828
 1024MOL0     H41297   1.617   3.470  10.515 -0.7633 -2.2493  1.0052
 1024MOL0     H41298   1.388   3.925  10.865  1.8432 -1.4590 -0.4289
 1024MOL0     H41299   1.163   3.964  10.909  0.7476  0.5211  0.2956
 1024MOL0     H41300   0.886   3.707  10.713 -0.9320  1.6348 -1.1635
 1024MOL0     H41301   0.861   3.640  10.868  0.7966 -0.4400 -0.2420
 1024MOL0     H41302   0.720   3.847  10.936  0.4968  0.3605  0.2912
 1024MOL0     H41303   0.648   3.783  10.788 -1.0409  1.0010  2.9289
 1024MOL0     H41304   0.786   4.039  10.843 -3.1087  1.0823 -0.2884
 1024MOL0     H41305   0.832   3.971  10.698 -0.2861  1.0398 -0.9991
 1024MOL0     H41306   0.590   3.977  10.623 -3.3217  1.2647  0.4047
 1024MOL0     H41307   0.646   4.136  10.684  2.1377  0.8130  2.3458
 1024MOL0     H41308   0.343   4.014  10.949 -0.4501 -1.5142 -1.3054
 1024MOL0     H41309   1.069   3.580  10.730 -0.1903  1.6497 -1.6117
 1024MOL0     H41310   1.223   3.467  10.585  1.5252 -1.5628 -1.3828
 1024MOL0     H41311   1.383   3.519  10.578 -1.0863 -1.7490 -1.5508
 1024MOL0     H41312   1.343   3.419  10.713 -0.3774 -1.7977 -2.3990
  11.38211  11.38211  11.38211
